/*--------------------------------*- C++ -*----------------------------------*\
| =========                 |                                                 |
| \\      /  F ield         | OpenFOAM: The Open Source CFD Toolbox           |
|  \\    /   O peration     | Version:  2312                                  |
|   \\  /    A nd           | Website:  www.openfoam.com                      |
|    \\/     M anipulation  |                                                 |
\*---------------------------------------------------------------------------*/
FoamFile
{
    version     2.0;
    format      ascii;
    arch        "LSB;label=32;scalar=64";
    class       volVectorField;
    location    "18000";
    object      U;
}
// * * * * * * * * * * * * * * * * * * * * * * * * * * * * * * * * * * * * * //

dimensions      [0 1 -1 0 0 0 0];

internalField   nonuniform List<vector> 
10800
(
(0.000992484 4.94118e-06 0)
(0.00099004 1.24555e-05 0)
(0.000986876 1.74752e-05 0)
(0.000980508 2.06571e-05 0)
(0.000971101 2.27381e-05 0)
(0.000959819 2.42293e-05 0)
(0.000947728 2.53657e-05 0)
(0.000935363 2.62219e-05 0)
(0.000922868 2.68221e-05 0)
(0.000910221 2.71915e-05 0)
(0.000897377 2.73676e-05 0)
(0.000884333 2.73931e-05 0)
(0.000871126 2.73062e-05 0)
(0.000857811 2.71346e-05 0)
(0.000844441 2.68965e-05 0)
(0.000831055 2.66034e-05 0)
(0.000817679 2.62633e-05 0)
(0.000804332 2.58823e-05 0)
(0.000791031 2.54659e-05 0)
(0.000777791 2.50191e-05 0)
(0.000764629 2.45452e-05 0)
(0.000751561 2.40469e-05 0)
(0.000738603 2.35261e-05 0)
(0.00072577 2.29852e-05 0)
(0.000713077 2.24242e-05 0)
(0.000700538 2.18437e-05 0)
(0.000688169 2.12442e-05 0)
(0.000675983 2.06281e-05 0)
(0.000663996 1.99936e-05 0)
(0.000652222 1.93405e-05 0)
(0.000640677 1.86678e-05 0)
(0.000629375 1.79805e-05 0)
(0.000618334 1.72758e-05 0)
(0.000607565 1.65539e-05 0)
(0.000597091 1.58075e-05 0)
(0.000586919 1.50468e-05 0)
(0.00057708 1.42709e-05 0)
(0.000567567 1.34912e-05 0)
(0.000558425 1.26858e-05 0)
(0.00054963 1.18616e-05 0)
(0.000541262 1.09982e-05 0)
(0.000533251 1.01427e-05 0)
(0.000525736 9.2846e-06 0)
(0.000518541 8.48687e-06 0)
(0.000511942 7.67835e-06 0)
(0.00050555 6.90298e-06 0)
(0.000499985 6.01639e-06 0)
(0.000494368 5.10479e-06 0)
(0.000490129 4.00505e-06 0)
(0.000485146 2.89489e-06 0)
(0.000482822 1.63507e-06 0)
(0.000477856 3.86543e-07 0)
(0.000478759 -7.80618e-07 0)
(0.000471853 -2.26083e-06 0)
(0.000479385 -2.76256e-06 0)
(0.000464983 -5.39089e-06 0)
(0.000488339 -3.46836e-06 0)
(0.000451555 -1.0865e-05 0)
(0.000514669 -4.75166e-07 0)
(0.000419894 -2.4037e-05 0)
(0.00100003 5.79981e-06 0)
(0.00100172 1.49851e-05 0)
(0.00100423 2.15101e-05 0)
(0.00100706 2.60669e-05 0)
(0.0010098 2.94182e-05 0)
(0.00101221 3.2092e-05 0)
(0.00101423 3.43358e-05 0)
(0.00101592 3.6236e-05 0)
(0.0010173 3.78252e-05 0)
(0.00101842 3.91336e-05 0)
(0.00101929 4.02025e-05 0)
(0.0010199 4.10776e-05 0)
(0.00102024 4.17991e-05 0)
(0.00102032 4.2397e-05 0)
(0.00102015 4.28909e-05 0)
(0.00101975 4.32933e-05 0)
(0.00101913 4.36125e-05 0)
(0.0010183 4.3855e-05 0)
(0.00101727 4.40259e-05 0)
(0.00101606 4.41294e-05 0)
(0.00101468 4.41691e-05 0)
(0.00101312 4.4147e-05 0)
(0.00101142 4.40648e-05 0)
(0.00100957 4.39226e-05 0)
(0.00100759 4.37213e-05 0)
(0.00100548 4.34599e-05 0)
(0.00100327 4.31397e-05 0)
(0.00100093 4.27582e-05 0)
(0.000998535 4.23165e-05 0)
(0.00099602 4.18104e-05 0)
(0.00099348 4.12433e-05 0)
(0.00099082 4.06091e-05 0)
(0.00098819 3.99144e-05 0)
(0.000985422 3.91469e-05 0)
(0.000982761 3.83183e-05 0)
(0.000979913 3.74101e-05 0)
(0.000977286 3.64469e-05 0)
(0.000974378 3.53968e-05 0)
(0.000971881 3.43005e-05 0)
(0.000968922 3.30985e-05 0)
(0.000966664 3.18645e-05 0)
(0.000963606 3.04999e-05 0)
(0.000961744 2.91419e-05 0)
(0.000958503 2.7615e-05 0)
(0.000957319 2.61549e-05 0)
(0.000953734 2.44379e-05 0)
(0.000953645 2.28827e-05 0)
(0.000949313 2.09184e-05 0)
(0.000950919 1.93113e-05 0)
(0.000945042 1.70506e-05 0)
(0.000949329 1.5509e-05 0)
(0.000940529 1.2867e-05 0)
(0.000949235 1.15562e-05 0)
(0.000935182 8.3649e-06 0)
(0.000951315 7.53569e-06 0)
(0.000928037 3.59587e-06 0)
(0.000956726 3.61596e-06 0)
(0.000917424 -1.18838e-06 0)
(0.000967502 -2.29753e-07 0)
(0.000900759 -5.3362e-06 0)
(0.000999989 1.9595e-06 0)
(0.00100078 5.75443e-06 0)
(0.00100224 9.27237e-06 0)
(0.00100424 1.24294e-05 0)
(0.00100655 1.52226e-05 0)
(0.00100898 1.76969e-05 0)
(0.00101141 1.9907e-05 0)
(0.00101378 2.18958e-05 0)
(0.0010161 2.36902e-05 0)
(0.00101837 2.53068e-05 0)
(0.00102059 2.67585e-05 0)
(0.00102277 2.80586e-05 0)
(0.0010249 2.92211e-05 0)
(0.00102696 3.02597e-05 0)
(0.00102896 3.11865e-05 0)
(0.00103089 3.20108e-05 0)
(0.00103276 3.27406e-05 0)
(0.00103456 3.33812e-05 0)
(0.00103631 3.39376e-05 0)
(0.00103799 3.44128e-05 0)
(0.00103963 3.48104e-05 0)
(0.0010412 3.51321e-05 0)
(0.00104272 3.53806e-05 0)
(0.00104419 3.55553e-05 0)
(0.00104561 3.56586e-05 0)
(0.00104697 3.5688e-05 0)
(0.00104829 3.56468e-05 0)
(0.00104955 3.55308e-05 0)
(0.00105079 3.5344e-05 0)
(0.00105195 3.50784e-05 0)
(0.0010531 3.47411e-05 0)
(0.00105417 3.43209e-05 0)
(0.00105525 3.38306e-05 0)
(0.00105622 3.32514e-05 0)
(0.00105724 3.2603e-05 0)
(0.0010581 3.18554e-05 0)
(0.00105909 3.10444e-05 0)
(0.00105984 3.01231e-05 0)
(0.00106081 2.91507e-05 0)
(0.00106144 2.80492e-05 0)
(0.00106245 2.69152e-05 0)
(0.00106291 2.56224e-05 0)
(0.001064 2.43335e-05 0)
(0.00106425 2.28433e-05 0)
(0.00106553 2.1417e-05 0)
(0.00106546 1.97174e-05 0)
(0.00106708 1.81648e-05 0)
(0.00106651 1.62241e-05 0)
(0.00106868 1.45548e-05 0)
(0.00106734 1.23585e-05 0)
(0.00107043 1.0624e-05 0)
(0.00106789 8.22056e-06 0)
(0.00107248 6.52045e-06 0)
(0.00106808 4.01008e-06 0)
(0.00107504 2.44622e-06 0)
(0.00106772 -4.83779e-08 0)
(0.00107836 -1.3974e-06 0)
(0.00106651 -3.67865e-06 0)
(0.00108289 -4.75348e-06 0)
(0.00106396 -6.33432e-06 0)
(0.00100001 1.73794e-06 0)
(0.00100047 5.14778e-06 0)
(0.00100128 8.40014e-06 0)
(0.00100239 1.14186e-05 0)
(0.00100375 1.41622e-05 0)
(0.00100527 1.66279e-05 0)
(0.00100689 1.88371e-05 0)
(0.0010086 2.08196e-05 0)
(0.00101035 2.26022e-05 0)
(0.00101214 2.42056e-05 0)
(0.00101396 2.5645e-05 0)
(0.00101581 2.69333e-05 0)
(0.00101768 2.80825e-05 0)
(0.00101956 2.91043e-05 0)
(0.00102144 3.001e-05 0)
(0.00102333 3.08096e-05 0)
(0.00102522 3.15118e-05 0)
(0.0010271 3.21236e-05 0)
(0.00102899 3.26504e-05 0)
(0.00103086 3.30966e-05 0)
(0.00103274 3.34659e-05 0)
(0.00103461 3.37611e-05 0)
(0.00103648 3.39847e-05 0)
(0.00103834 3.41379e-05 0)
(0.00104019 3.42219e-05 0)
(0.00104204 3.42368e-05 0)
(0.00104388 3.41837e-05 0)
(0.00104571 3.40618e-05 0)
(0.00104754 3.38713e-05 0)
(0.00104936 3.36103e-05 0)
(0.00105117 3.32786e-05 0)
(0.00105295 3.28742e-05 0)
(0.00105475 3.2398e-05 0)
(0.0010565 3.1847e-05 0)
(0.00105827 3.12217e-05 0)
(0.00105999 3.05171e-05 0)
(0.00106173 2.97357e-05 0)
(0.0010634 2.88713e-05 0)
(0.00106512 2.79316e-05 0)
(0.00106674 2.69053e-05 0)
(0.00106842 2.5806e-05 0)
(0.00106998 2.46118e-05 0)
(0.00107164 2.33475e-05 0)
(0.00107311 2.19786e-05 0)
(0.00107476 2.05518e-05 0)
(0.00107614 1.90142e-05 0)
(0.0010778 1.74368e-05 0)
(0.00107906 1.57418e-05 0)
(0.00108074 1.40167e-05 0)
(0.00108183 1.21802e-05 0)
(0.00108354 1.03085e-05 0)
(0.00108441 8.38573e-06 0)
(0.00108619 6.39216e-06 0)
(0.00108675 4.49629e-06 0)
(0.00108869 2.41613e-06 0)
(0.00108887 6.8176e-07 0)
(0.00109115 -1.50297e-06 0)
(0.00109087 -2.94414e-06 0)
(0.00109387 -5.33284e-06 0)
(0.001093 -6.26606e-06 0)
(0.001 1.14888e-06 0)
(0.00100023 3.41869e-06 0)
(0.00100067 5.62234e-06 0)
(0.00100134 7.72803e-06 0)
(0.0010022 9.71428e-06 0)
(0.00100324 1.15707e-05 0)
(0.00100441 1.32957e-05 0)
(0.00100569 1.48934e-05 0)
(0.00100706 1.63695e-05 0)
(0.00100849 1.773e-05 0)
(0.00100997 1.89802e-05 0)
(0.0010115 2.01248e-05 0)
(0.00101307 2.11682e-05 0)
(0.00101467 2.21153e-05 0)
(0.00101629 2.29706e-05 0)
(0.00101793 2.37388e-05 0)
(0.00101959 2.44241e-05 0)
(0.00102126 2.50302e-05 0)
(0.00102293 2.556e-05 0)
(0.00102462 2.60162e-05 0)
(0.00102632 2.64006e-05 0)
(0.00102802 2.67152e-05 0)
(0.00102972 2.69609e-05 0)
(0.00103143 2.71392e-05 0)
(0.00103314 2.72497e-05 0)
(0.00103486 2.72936e-05 0)
(0.00103657 2.727e-05 0)
(0.00103829 2.71804e-05 0)
(0.00104 2.7022e-05 0)
(0.00104171 2.67966e-05 0)
(0.00104342 2.65e-05 0)
(0.00104513 2.61354e-05 0)
(0.00104682 2.56974e-05 0)
(0.00104851 2.5191e-05 0)
(0.0010502 2.46071e-05 0)
(0.00105187 2.39532e-05 0)
(0.00105353 2.32163e-05 0)
(0.00105517 2.24103e-05 0)
(0.0010568 2.15171e-05 0)
(0.0010584 2.05581e-05 0)
(0.00106 1.95048e-05 0)
(0.00106156 1.83883e-05 0)
(0.00106311 1.71661e-05 0)
(0.00106462 1.58895e-05 0)
(0.00106611 1.44962e-05 0)
(0.00106758 1.30701e-05 0)
(0.00106899 1.15083e-05 0)
(0.00107041 9.94536e-06 0)
(0.00107174 8.20302e-06 0)
(0.00107314 6.51329e-06 0)
(0.0010744 4.57132e-06 0)
(0.00107584 2.79406e-06 0)
(0.00107702 6.50758e-07 0)
(0.00107858 -1.12801e-06 0)
(0.00107969 -3.47491e-06 0)
(0.00108144 -5.13134e-06 0)
(0.00108241 -7.72647e-06 0)
(0.00108443 -9.12593e-06 0)
(0.00108516 -1.21242e-05 0)
(0.00108754 -1.31422e-05 0)
(0.001 9.22814e-07 0)
(0.00100017 2.75915e-06 0)
(0.00100051 4.56764e-06 0)
(0.001001 6.3293e-06 0)
(0.00100165 8.02656e-06 0)
(0.00100242 9.64544e-06 0)
(0.00100331 1.11765e-05 0)
(0.0010043 1.26149e-05 0)
(0.00100537 1.39588e-05 0)
(0.00100651 1.52086e-05 0)
(0.0010077 1.63656e-05 0)
(0.00100895 1.74316e-05 0)
(0.00101025 1.84086e-05 0)
(0.00101158 1.92991e-05 0)
(0.00101294 2.01056e-05 0)
(0.00101434 2.0831e-05 0)
(0.00101575 2.14778e-05 0)
(0.00101719 2.20489e-05 0)
(0.00101865 2.25464e-05 0)
(0.00102012 2.29726e-05 0)
(0.00102161 2.3329e-05 0)
(0.0010231 2.36176e-05 0)
(0.00102461 2.3839e-05 0)
(0.00102612 2.3995e-05 0)
(0.00102764 2.40852e-05 0)
(0.00102916 2.41113e-05 0)
(0.00103068 2.40722e-05 0)
(0.00103221 2.39698e-05 0)
(0.00103374 2.38016e-05 0)
(0.00103526 2.35699e-05 0)
(0.00103678 2.32707e-05 0)
(0.0010383 2.29078e-05 0)
(0.00103981 2.24754e-05 0)
(0.00104132 2.19795e-05 0)
(0.00104281 2.14106e-05 0)
(0.0010443 2.07775e-05 0)
(0.00104577 2.00664e-05 0)
(0.00104724 1.92928e-05 0)
(0.00104868 1.84368e-05 0)
(0.00105011 1.75222e-05 0)
(0.00105152 1.6517e-05 0)
(0.00105292 1.54576e-05 0)
(0.00105429 1.42948e-05 0)
(0.00105566 1.30887e-05 0)
(0.00105698 1.17648e-05 0)
(0.00105833 1.04201e-05 0)
(0.0010596 8.9342e-06 0)
(0.00106093 7.45852e-06 0)
(0.00106213 5.79859e-06 0)
(0.00106345 4.19654e-06 0)
(0.00106456 2.3489e-06 0)
(0.00106588 6.44261e-07 0)
(0.00106686 -1.39717e-06 0)
(0.00106825 -3.16712e-06 0)
(0.00106913 -5.44024e-06 0)
(0.00107073 -7.25355e-06 0)
(0.00107149 -9.84966e-06 0)
(0.00107339 -1.16691e-05 0)
(0.0010739 -1.47148e-05 0)
(0.0010761 -1.64522e-05 0)
(0.001 7.28375e-07 0)
(0.00100013 2.178e-06 0)
(0.00100037 3.60744e-06 0)
(0.00100073 5.00391e-06 0)
(0.00100121 6.35594e-06 0)
(0.0010018 7.65409e-06 0)
(0.00100248 8.89137e-06 0)
(0.00100325 1.00632e-05 0)
(0.0010041 1.11668e-05 0)
(0.00100502 1.22011e-05 0)
(0.001006 1.31657e-05 0)
(0.00100703 1.40608e-05 0)
(0.00100812 1.48871e-05 0)
(0.00100924 1.56452e-05 0)
(0.0010104 1.63361e-05 0)
(0.0010116 1.69608e-05 0)
(0.00101282 1.75204e-05 0)
(0.00101408 1.80161e-05 0)
(0.00101535 1.8449e-05 0)
(0.00101664 1.882e-05 0)
(0.00101795 1.913e-05 0)
(0.00101927 1.938e-05 0)
(0.0010206 1.95701e-05 0)
(0.00102194 1.97012e-05 0)
(0.00102329 1.97729e-05 0)
(0.00102464 1.97861e-05 0)
(0.001026 1.97398e-05 0)
(0.00102735 1.96351e-05 0)
(0.00102871 1.94699e-05 0)
(0.00103006 1.92456e-05 0)
(0.00103141 1.89592e-05 0)
(0.00103276 1.86131e-05 0)
(0.00103409 1.82028e-05 0)
(0.00103542 1.77323e-05 0)
(0.00103674 1.71941e-05 0)
(0.00103804 1.65944e-05 0)
(0.00103933 1.59226e-05 0)
(0.00104061 1.51898e-05 0)
(0.00104186 1.43803e-05 0)
(0.0010431 1.35114e-05 0)
(0.00104431 1.25574e-05 0)
(0.00104551 1.15458e-05 0)
(0.00104667 1.04367e-05 0)
(0.00104782 9.2772e-06 0)
(0.00104893 8.00572e-06 0)
(0.00105004 6.69916e-06 0)
(0.00105108 5.25588e-06 0)
(0.00105215 3.79796e-06 0)
(0.00105313 2.16038e-06 0)
(0.00105419 5.42167e-07 0)
(0.00105513 -1.31168e-06 0)
(0.00105623 -3.07974e-06 0)
(0.00105711 -5.15291e-06 0)
(0.00105826 -7.03173e-06 0)
(0.00105904 -9.34251e-06 0)
(0.00106029 -1.13205e-05 0)
(0.00106098 -1.39633e-05 0)
(0.00106243 -1.60434e-05 0)
(0.0010629 -1.91498e-05 0)
(0.00106451 -2.12723e-05 0)
(0.001 5.79629e-07 0)
(0.0010001 1.73434e-06 0)
(0.00100029 2.87654e-06 0)
(0.00100057 3.99825e-06 0)
(0.00100095 5.09192e-06 0)
(0.00100141 6.15076e-06 0)
(0.00100196 7.16906e-06 0)
(0.00100258 8.14228e-06 0)
(0.00100328 9.067e-06 0)
(0.00100404 9.94076e-06 0)
(0.00100485 1.07619e-05 0)
(0.00100572 1.15295e-05 0)
(0.00100664 1.22428e-05 0)
(0.0010076 1.29013e-05 0)
(0.0010086 1.35049e-05 0)
(0.00100964 1.40534e-05 0)
(0.0010107 1.4547e-05 0)
(0.00101179 1.49859e-05 0)
(0.0010129 1.53702e-05 0)
(0.00101404 1.57003e-05 0)
(0.00101519 1.59764e-05 0)
(0.00101635 1.61988e-05 0)
(0.00101753 1.63674e-05 0)
(0.00101872 1.64826e-05 0)
(0.00101991 1.65439e-05 0)
(0.00102111 1.65517e-05 0)
(0.00102231 1.65052e-05 0)
(0.00102351 1.64049e-05 0)
(0.00102471 1.62492e-05 0)
(0.00102591 1.60388e-05 0)
(0.0010271 1.57715e-05 0)
(0.00102829 1.54484e-05 0)
(0.00102946 1.50669e-05 0)
(0.00103062 1.46283e-05 0)
(0.00103177 1.41282e-05 0)
(0.00103291 1.35692e-05 0)
(0.00103402 1.29452e-05 0)
(0.00103512 1.22614e-05 0)
(0.0010362 1.15089e-05 0)
(0.00103726 1.06961e-05 0)
(0.00103829 9.80792e-06 0)
(0.0010393 8.85836e-06 0)
(0.00104028 7.82476e-06 0)
(0.00104124 6.73288e-06 0)
(0.00104216 5.54784e-06 0)
(0.00104308 4.31171e-06 0)
(0.00104394 2.96638e-06 0)
(0.0010448 1.5776e-06 0)
(0.00104559 5.1875e-08 0)
(0.00104641 -1.50399e-06 0)
(0.00104711 -3.23363e-06 0)
(0.00104791 -4.96811e-06 0)
(0.00104854 -6.92426e-06 0)
(0.00104935 -8.84691e-06 0)
(0.00104991 -1.10616e-05 0)
(0.00105077 -1.31873e-05 0)
(0.00105122 -1.57257e-05 0)
(0.00105217 -1.8083e-05 0)
(0.00105242 -2.10374e-05 0)
(0.00105337 -2.36169e-05 0)
(0.001 4.62472e-07 0)
(0.00100008 1.38432e-06 0)
(0.00100024 2.29769e-06 0)
(0.00100047 3.19716e-06 0)
(0.00100078 4.07741e-06 0)
(0.00100116 4.93348e-06 0)
(0.00100161 5.76094e-06 0)
(0.00100213 6.556e-06 0)
(0.00100271 7.31546e-06 0)
(0.00100335 8.03675e-06 0)
(0.00100404 8.71773e-06 0)
(0.00100478 9.3567e-06 0)
(0.00100557 9.95236e-06 0)
(0.0010064 1.05037e-05 0)
(0.00100726 1.10101e-05 0)
(0.00100816 1.14709e-05 0)
(0.00100908 1.18859e-05 0)
(0.00101004 1.22547e-05 0)
(0.00101102 1.25773e-05 0)
(0.00101201 1.28535e-05 0)
(0.00101303 1.30831e-05 0)
(0.00101406 1.32662e-05 0)
(0.0010151 1.34026e-05 0)
(0.00101615 1.3492e-05 0)
(0.00101721 1.35342e-05 0)
(0.00101827 1.35291e-05 0)
(0.00101934 1.34761e-05 0)
(0.0010204 1.3375e-05 0)
(0.00102146 1.32249e-05 0)
(0.00102252 1.30254e-05 0)
(0.00102357 1.27755e-05 0)
(0.00102461 1.24749e-05 0)
(0.00102564 1.21222e-05 0)
(0.00102665 1.1717e-05 0)
(0.00102765 1.12571e-05 0)
(0.00102863 1.07421e-05 0)
(0.00102959 1.01695e-05 0)
(0.00103053 9.53987e-06 0)
(0.00103144 8.84942e-06 0)
(0.00103232 8.09924e-06 0)
(0.00103318 7.28272e-06 0)
(0.00103401 6.40247e-06 0)
(0.0010348 5.44912e-06 0)
(0.00103557 4.42975e-06 0)
(0.00103629 3.32983e-06 0)
(0.00103698 2.16197e-06 0)
(0.00103762 9.00748e-07 0)
(0.00103825 -4.32318e-07 0)
(0.0010388 -1.87596e-06 0)
(0.00103937 -3.39098e-06 0)
(0.00103984 -5.03291e-06 0)
(0.00104034 -6.74008e-06 0)
(0.00104072 -8.59848e-06 0)
(0.00104117 -1.05214e-05 0)
(0.00104144 -1.26345e-05 0)
(0.00104188 -1.48153e-05 0)
(0.00104202 -1.72431e-05 0)
(0.00104244 -1.97305e-05 0)
(0.00104236 -2.25389e-05 0)
(0.00104269 -2.53519e-05 0)
(0.001 3.65632e-07 0)
(0.00100007 1.09462e-06 0)
(0.0010002 1.81752e-06 0)
(0.00100039 2.53048e-06 0)
(0.00100065 3.22969e-06 0)
(0.00100098 3.91151e-06 0)
(0.00100136 4.57255e-06 0)
(0.0010018 5.20979e-06 0)
(0.0010023 5.82056e-06 0)
(0.00100285 6.40253e-06 0)
(0.00100344 6.95372e-06 0)
(0.00100408 7.47245e-06 0)
(0.00100477 7.95734e-06 0)
(0.00100549 8.40724e-06 0)
(0.00100624 8.82124e-06 0)
(0.00100703 9.1986e-06 0)
(0.00100785 9.53874e-06 0)
(0.00100869 9.84115e-06 0)
(0.00100955 1.01054e-05 0)
(0.00101044 1.03311e-05 0)
(0.00101134 1.05181e-05 0)
(0.00101226 1.06658e-05 0)
(0.00101318 1.07742e-05 0)
(0.00101412 1.08426e-05 0)
(0.00101506 1.08709e-05 0)
(0.001016 1.08584e-05 0)
(0.00101695 1.0805e-05 0)
(0.0010179 1.07099e-05 0)
(0.00101884 1.05726e-05 0)
(0.00101977 1.03921e-05 0)
(0.00102069 1.01681e-05 0)
(0.00102161 9.89923e-06 0)
(0.00102251 9.58528e-06 0)
(0.00102339 9.22432e-06 0)
(0.00102425 8.81586e-06 0)
(0.00102509 8.35746e-06 0)
(0.00102591 7.84919e-06 0)
(0.0010267 7.28802e-06 0)
(0.00102746 6.67446e-06 0)
(0.00102819 6.00368e-06 0)
(0.00102889 5.27632e-06 0)
(0.00102955 4.48578e-06 0)
(0.00103017 3.63448e-06 0)
(0.00103075 2.71445e-06 0)
(0.00103129 1.7303e-06 0)
(0.00103178 6.7019e-07 0)
(0.00103222 -4.60092e-07 0)
(0.00103262 -1.67838e-06 0)
(0.00103295 -2.97456e-06 0)
(0.00103326 -4.37489e-06 0)
(0.00103348 -5.85817e-06 0)
(0.00103368 -7.46458e-06 0)
(0.00103377 -9.1531e-06 0)
(0.00103386 -1.09972e-05 0)
(0.00103381 -1.29222e-05 0)
(0.00103381 -1.50603e-05 0)
(0.00103358 -1.72688e-05 0)
(0.00103348 -1.97695e-05 0)
(0.001033 -2.23015e-05 0)
(0.0010327 -2.52179e-05 0)
(0.001 2.83114e-07 0)
(0.00100006 8.47655e-07 0)
(0.00100017 1.40777e-06 0)
(0.00100034 1.9607e-06 0)
(0.00100057 2.50366e-06 0)
(0.00100085 3.034e-06 0)
(0.00100118 3.54917e-06 0)
(0.00100156 4.04687e-06 0)
(0.001002 4.52497e-06 0)
(0.00100248 4.98159e-06 0)
(0.001003 5.41506e-06 0)
(0.00100357 5.82392e-06 0)
(0.00100417 6.20691e-06 0)
(0.00100481 6.56292e-06 0)
(0.00100548 6.89105e-06 0)
(0.00100618 7.19047e-06 0)
(0.00100691 7.46052e-06 0)
(0.00100766 7.70058e-06 0)
(0.00100843 7.91013e-06 0)
(0.00100922 8.08865e-06 0)
(0.00101003 8.23578e-06 0)
(0.00101085 8.35103e-06 0)
(0.00101168 8.43407e-06 0)
(0.00101252 8.4843e-06 0)
(0.00101337 8.50144e-06 0)
(0.00101421 8.48485e-06 0)
(0.00101506 8.4343e-06 0)
(0.0010159 8.34885e-06 0)
(0.00101674 8.22826e-06 0)
(0.00101757 8.07122e-06 0)
(0.00101839 7.87777e-06 0)
(0.00101919 7.6462e-06 0)
(0.00101998 7.37681e-06 0)
(0.00102075 7.0669e-06 0)
(0.00102149 6.71714e-06 0)
(0.00102221 6.32377e-06 0)
(0.00102291 5.88863e-06 0)
(0.00102357 5.40648e-06 0)
(0.0010242 4.88057e-06 0)
(0.00102479 4.30261e-06 0)
(0.00102534 3.6779e-06 0)
(0.00102585 2.99427e-06 0)
(0.00102631 2.26148e-06 0)
(0.00102672 1.46218e-06 0)
(0.00102708 6.1244e-07 0)
(0.00102739 -3.14781e-07 0)
(0.00102763 -1.29471e-06 0)
(0.00102782 -2.36939e-06 0)
(0.00102794 -3.49835e-06 0)
(0.00102799 -4.74583e-06 0)
(0.00102796 -6.04245e-06 0)
(0.00102787 -7.48932e-06 0)
(0.00102766 -8.96996e-06 0)
(0.00102742 -1.06533e-05 0)
(0.00102703 -1.23447e-05 0)
(0.00102661 -1.4326e-05 0)
(0.001026 -1.62642e-05 0)
(0.00102539 -1.8621e-05 0)
(0.00102448 -2.08284e-05 0)
(0.00102359 -2.36343e-05 0)
(0.001 2.10856e-07 0)
(0.00100005 6.31343e-07 0)
(0.00100015 1.04867e-06 0)
(0.0010003 1.46087e-06 0)
(0.0010005 1.86598e-06 0)
(0.00100075 2.26207e-06 0)
(0.00100105 2.64734e-06 0)
(0.00100139 3.02006e-06 0)
(0.00100178 3.37865e-06 0)
(0.00100221 3.72166e-06 0)
(0.00100268 4.0478e-06 0)
(0.00100319 4.35589e-06 0)
(0.00100373 4.64488e-06 0)
(0.0010043 4.91384e-06 0)
(0.00100491 5.16195e-06 0)
(0.00100554 5.38847e-06 0)
(0.0010062 5.59278e-06 0)
(0.00100688 5.77428e-06 0)
(0.00100759 5.93246e-06 0)
(0.0010083 6.06681e-06 0)
(0.00100904 6.17696e-06 0)
(0.00100978 6.26238e-06 0)
(0.00101054 6.32279e-06 0)
(0.0010113 6.35755e-06 0)
(0.00101207 6.36646e-06 0)
(0.00101283 6.34881e-06 0)
(0.0010136 6.30449e-06 0)
(0.00101436 6.23249e-06 0)
(0.00101511 6.13277e-06 0)
(0.00101586 6.00395e-06 0)
(0.00101659 5.84632e-06 0)
(0.0010173 5.65803e-06 0)
(0.001018 5.43971e-06 0)
(0.00101867 5.18849e-06 0)
(0.00101932 4.90563e-06 0)
(0.00101994 4.58701e-06 0)
(0.00102053 4.23529e-06 0)
(0.00102108 3.84451e-06 0)
(0.0010216 3.41916e-06 0)
(0.00102207 2.94989e-06 0)
(0.0010225 2.44401e-06 0)
(0.00102288 1.88749e-06 0)
(0.0010232 1.2932e-06 0)
(0.00102347 6.40213e-07 0)
(0.00102368 -5.03416e-08 0)
(0.00102382 -8.11639e-07 0)
(0.0010239 -1.61014e-06 0)
(0.0010239 -2.49861e-06 0)
(0.00102381 -3.42184e-06 0)
(0.00102365 -4.46088e-06 0)
(0.00102338 -5.52303e-06 0)
(0.00102304 -6.73775e-06 0)
(0.00102257 -7.95276e-06 0)
(0.00102201 -9.38122e-06 0)
(0.00102131 -1.07709e-05 0)
(0.00102051 -1.24732e-05 0)
(0.00101954 -1.40635e-05 0)
(0.00101847 -1.61164e-05 0)
(0.00101715 -1.79173e-05 0)
(0.00101572 -2.04035e-05 0)
(0.001 1.45837e-07 0)
(0.00100005 4.36676e-07 0)
(0.00100014 7.25383e-07 0)
(0.00100028 1.01064e-06 0)
(0.00100046 1.29114e-06 0)
(0.00100069 1.56558e-06 0)
(0.00100096 1.83272e-06 0)
(0.00100127 2.09139e-06 0)
(0.00100163 2.34049e-06 0)
(0.00100202 2.57901e-06 0)
(0.00100245 2.80602e-06 0)
(0.00100292 3.02065e-06 0)
(0.00100342 3.22215e-06 0)
(0.00100395 3.4098e-06 0)
(0.00100451 3.58298e-06 0)
(0.00100509 3.7411e-06 0)
(0.0010057 3.88369e-06 0)
(0.00100633 4.01024e-06 0)
(0.00100698 4.12037e-06 0)
(0.00100764 4.21362e-06 0)
(0.00100832 4.2897e-06 0)
(0.00100901 4.34817e-06 0)
(0.00100971 4.38879e-06 0)
(0.00101042 4.41104e-06 0)
(0.00101112 4.41476e-06 0)
(0.00101183 4.39934e-06 0)
(0.00101253 4.36472e-06 0)
(0.00101323 4.31004e-06 0)
(0.00101392 4.23536e-06 0)
(0.0010146 4.13948e-06 0)
(0.00101526 4.02275e-06 0)
(0.00101591 3.88354e-06 0)
(0.00101653 3.72257e-06 0)
(0.00101713 3.53733e-06 0)
(0.0010177 3.32914e-06 0)
(0.00101825 3.09437e-06 0)
(0.00101875 2.83564e-06 0)
(0.00101922 2.54757e-06 0)
(0.00101965 2.23451e-06 0)
(0.00102003 1.88802e-06 0)
(0.00102036 1.51525e-06 0)
(0.00102064 1.10342e-06 0)
(0.00102086 6.64855e-07 0)
(0.00102101 1.80203e-07 0)
(0.00102109 -3.30403e-07 0)
(0.00102111 -8.9772e-07 0)
(0.00102104 -1.48965e-06 0)
(0.00102089 -2.15504e-06 0)
(0.00102064 -2.8408e-06 0)
(0.0010203 -3.62295e-06 0)
(0.00101984 -4.41327e-06 0)
(0.00101928 -5.33358e-06 0)
(0.00101859 -6.23937e-06 0)
(0.00101778 -7.33025e-06 0)
(0.00101681 -8.36769e-06 0)
(0.0010157 -9.67935e-06 0)
(0.00101441 -1.08656e-05 0)
(0.00101296 -1.24631e-05 0)
(0.00101128 -1.38008e-05 0)
(0.00100941 -1.57585e-05 0)
(0.001 8.56508e-08 0)
(0.00100004 2.56463e-07 0)
(0.00100013 4.26041e-07 0)
(0.00100026 5.93627e-07 0)
(0.00100043 7.58461e-07 0)
(0.00100065 9.19795e-07 0)
(0.0010009 1.07691e-06 0)
(0.0010012 1.22912e-06 0)
(0.00100153 1.37578e-06 0)
(0.0010019 1.51629e-06 0)
(0.00100231 1.65008e-06 0)
(0.00100275 1.77665e-06 0)
(0.00100322 1.89552e-06 0)
(0.00100372 2.00625e-06 0)
(0.00100425 2.10847e-06 0)
(0.0010048 2.20179e-06 0)
(0.00100538 2.28592e-06 0)
(0.00100597 2.36052e-06 0)
(0.00100659 2.42536e-06 0)
(0.00100722 2.48013e-06 0)
(0.00100786 2.52466e-06 0)
(0.00100851 2.55863e-06 0)
(0.00100917 2.5819e-06 0)
(0.00100984 2.59413e-06 0)
(0.0010105 2.59522e-06 0)
(0.00101117 2.58475e-06 0)
(0.00101183 2.56271e-06 0)
(0.00101249 2.52852e-06 0)
(0.00101314 2.48224e-06 0)
(0.00101377 2.42308e-06 0)
(0.00101439 2.3513e-06 0)
(0.00101499 2.26581e-06 0)
(0.00101556 2.16711e-06 0)
(0.00101611 2.05353e-06 0)
(0.00101663 1.92603e-06 0)
(0.00101712 1.78214e-06 0)
(0.00101758 1.62372e-06 0)
(0.00101799 1.44705e-06 0)
(0.00101835 1.25524e-06 0)
(0.00101867 1.04248e-06 0)
(0.00101893 8.139e-07 0)
(0.00101914 5.60641e-07 0)
(0.00101928 2.91493e-07 0)
(0.00101935 -7.11736e-09 0)
(0.00101935 -3.20802e-07 0)
(0.00101927 -6.71226e-07 0)
(0.00101911 -1.03558e-06 0)
(0.00101885 -1.44791e-06 0)
(0.00101848 -1.87051e-06 0)
(0.00101801 -2.35682e-06 0)
(0.00101742 -2.84441e-06 0)
(0.00101671 -3.41907e-06 0)
(0.00101586 -3.97861e-06 0)
(0.00101486 -4.66337e-06 0)
(0.0010137 -5.30465e-06 0)
(0.00101237 -6.13261e-06 0)
(0.00101085 -6.86516e-06 0)
(0.00100913 -7.87995e-06 0)
(0.00100718 -8.70347e-06 0)
(0.00100499 -9.957e-06 0)
(0.001 2.82417e-08 0)
(0.00100004 8.45616e-08 0)
(0.00100013 1.40475e-07 0)
(0.00100025 1.95734e-07 0)
(0.00100042 2.50092e-07 0)
(0.00100063 3.03302e-07 0)
(0.00100087 3.55128e-07 0)
(0.00100116 4.05346e-07 0)
(0.00100149 4.53742e-07 0)
(0.00100184 5.00117e-07 0)
(0.00100224 5.44285e-07 0)
(0.00100267 5.86073e-07 0)
(0.00100312 6.25324e-07 0)
(0.00100361 6.61889e-07 0)
(0.00100412 6.95639e-07 0)
(0.00100466 7.26447e-07 0)
(0.00100522 7.54209e-07 0)
(0.0010058 7.78812e-07 0)
(0.00100639 8.00173e-07 0)
(0.00100701 8.18189e-07 0)
(0.00100763 8.32795e-07 0)
(0.00100826 8.43885e-07 0)
(0.00100891 8.51409e-07 0)
(0.00100955 8.55248e-07 0)
(0.0010102 8.55369e-07 0)
(0.00101084 8.51627e-07 0)
(0.00101149 8.44015e-07 0)
(0.00101212 8.32335e-07 0)
(0.00101275 8.16611e-07 0)
(0.00101336 7.9657e-07 0)
(0.00101395 7.72302e-07 0)
(0.00101453 7.43415e-07 0)
(0.00101508 7.10095e-07 0)
(0.00101561 6.71754e-07 0)
(0.0010161 6.28747e-07 0)
(0.00101656 5.80205e-07 0)
(0.00101699 5.26776e-07 0)
(0.00101737 4.67148e-07 0)
(0.0010177 4.02429e-07 0)
(0.00101799 3.30576e-07 0)
(0.00101822 2.53462e-07 0)
(0.00101838 1.67925e-07 0)
(0.00101849 7.71341e-08 0)
(0.00101852 -2.3828e-08 0)
(0.00101847 -1.29741e-07 0)
(0.00101835 -2.4835e-07 0)
(0.00101813 -3.71467e-07 0)
(0.00101781 -5.11247e-07 0)
(0.00101739 -6.54079e-07 0)
(0.00101685 -8.1913e-07 0)
(0.0010162 -9.84031e-07 0)
(0.0010154 -1.17962e-06 0)
(0.00101447 -1.36917e-06 0)
(0.00101337 -1.60298e-06 0)
(0.00101211 -1.8203e-06 0)
(0.00101067 -2.10361e-06 0)
(0.00100902 -2.35149e-06 0)
(0.00100716 -2.69954e-06 -3.86331e-38)
(0.00100506 -2.97769e-06 0)
(0.00100271 -3.40948e-06 0)
(0.001 -2.82604e-08 0)
(0.00100004 -8.46259e-08 0)
(0.00100013 -1.40591e-07 0)
(0.00100025 -1.95909e-07 0)
(0.00100042 -2.5033e-07 0)
(0.00100063 -3.03609e-07 0)
(0.00100087 -3.5551e-07 0)
(0.00100116 -4.05808e-07 0)
(0.00100149 -4.54289e-07 0)
(0.00100184 -5.00752e-07 0)
(0.00100224 -5.45013e-07 0)
(0.00100267 -5.86899e-07 0)
(0.00100312 -6.26252e-07 0)
(0.00100361 -6.62925e-07 0)
(0.00100412 -6.96786e-07 0)
(0.00100466 -7.27711e-07 0)
(0.00100522 -7.55596e-07 0)
(0.0010058 -7.80327e-07 0)
(0.00100639 -8.01819e-07 0)
(0.00100701 -8.19966e-07 0)
(0.00100763 -8.34708e-07 0)
(0.00100826 -8.45939e-07 0)
(0.00100891 -8.53606e-07 0)
(0.00100955 -8.57584e-07 0)
(0.0010102 -8.57844e-07 0)
(0.00101084 -8.54248e-07 0)
(0.00101149 -8.46792e-07 0)
(0.00101212 -8.35276e-07 0)
(0.00101275 -8.19714e-07 0)
(0.00101336 -7.9983e-07 0)
(0.00101395 -7.75725e-07 0)
(0.00101453 -7.47022e-07 0)
(0.00101508 -7.13908e-07 0)
(0.00101561 -6.75779e-07 0)
(0.0010161 -6.32968e-07 0)
(0.00101656 -5.84605e-07 0)
(0.00101699 -5.31372e-07 0)
(0.00101737 -4.7198e-07 0)
(0.0010177 -4.07546e-07 0)
(0.00101799 -3.35984e-07 0)
(0.00101822 -2.59124e-07 0)
(0.00101838 -1.73788e-07 0)
(0.00101849 -8.31933e-08 0)
(0.00101852 1.74953e-08 0)
(0.00101847 1.23011e-07 0)
(0.00101835 2.41134e-07 0)
(0.00101813 3.6377e-07 0)
(0.00101781 5.03192e-07 0)
(0.00101739 6.45822e-07 0)
(0.00101685 8.10732e-07 0)
(0.0010162 9.75358e-07 0)
(0.0010154 1.17038e-06 0)
(0.00101447 1.35903e-06 0)
(0.00101337 1.59174e-06 0)
(0.00101211 1.80806e-06 0)
(0.00101067 2.09071e-06 0)
(0.00100902 2.33841e-06 0)
(0.00100716 2.68667e-06 3.86331e-38)
(0.00100506 2.96504e-06 0)
(0.00100271 3.39662e-06 0)
(0.001 -8.56694e-08 0)
(0.00100004 -2.56527e-07 0)
(0.00100013 -4.26157e-07 0)
(0.00100026 -5.938e-07 0)
(0.00100043 -7.58698e-07 0)
(0.00100065 -9.20101e-07 0)
(0.0010009 -1.07729e-06 0)
(0.0010012 -1.22958e-06 0)
(0.00100153 -1.37632e-06 0)
(0.0010019 -1.51692e-06 0)
(0.00100231 -1.6508e-06 0)
(0.00100275 -1.77747e-06 0)
(0.00100322 -1.89644e-06 0)
(0.00100372 -2.00728e-06 0)
(0.00100425 -2.10961e-06 0)
(0.0010048 -2.20304e-06 0)
(0.00100538 -2.28729e-06 0)
(0.00100597 -2.36203e-06 0)
(0.00100659 -2.42699e-06 0)
(0.00100722 -2.4819e-06 0)
(0.00100786 -2.52656e-06 0)
(0.00100851 -2.56067e-06 0)
(0.00100917 -2.58408e-06 0)
(0.00100984 -2.59645e-06 0)
(0.0010105 -2.59767e-06 0)
(0.00101117 -2.58735e-06 0)
(0.00101183 -2.56546e-06 0)
(0.00101249 -2.53144e-06 0)
(0.00101314 -2.48532e-06 0)
(0.00101377 -2.42631e-06 0)
(0.00101439 -2.3547e-06 0)
(0.00101499 -2.26938e-06 0)
(0.00101556 -2.17089e-06 0)
(0.00101611 -2.05752e-06 0)
(0.00101663 -1.93022e-06 0)
(0.00101712 -1.78651e-06 0)
(0.00101757 -1.62828e-06 0)
(0.00101798 -1.45184e-06 0)
(0.00101835 -1.26032e-06 0)
(0.00101867 -1.04785e-06 0)
(0.00101893 -8.19526e-07 0)
(0.00101914 -5.66469e-07 0)
(0.00101928 -2.97521e-07 0)
(0.00101935 8.27091e-10 0)
(0.00101935 3.14125e-07 0)
(0.00101927 6.64071e-07 0)
(0.00101911 1.02796e-06 0)
(0.00101884 1.43996e-06 0)
(0.00101848 1.86235e-06 0)
(0.00101801 2.34851e-06 0)
(0.00101742 2.83583e-06 0)
(0.00101671 3.40995e-06 0)
(0.00101586 3.96861e-06 0)
(0.00101486 4.6523e-06 0)
(0.0010137 5.29256e-06 0)
(0.00101237 6.11988e-06 0)
(0.00101085 6.85223e-06 0)
(0.00100913 7.86723e-06 0)
(0.00100717 8.69099e-06 0)
(0.00100499 9.94434e-06 0)
(0.001 -1.45856e-07 0)
(0.00100005 -4.36739e-07 0)
(0.00100014 -7.25497e-07 0)
(0.00100028 -1.01081e-06 0)
(0.00100046 -1.29137e-06 0)
(0.00100069 -1.56588e-06 0)
(0.00100096 -1.83309e-06 0)
(0.00100127 -2.09184e-06 0)
(0.00100163 -2.34103e-06 0)
(0.00100202 -2.57963e-06 0)
(0.00100245 -2.80673e-06 0)
(0.00100292 -3.02146e-06 0)
(0.00100342 -3.22306e-06 0)
(0.00100395 -3.41081e-06 0)
(0.00100451 -3.5841e-06 0)
(0.00100509 -3.74234e-06 0)
(0.0010057 -3.88505e-06 0)
(0.00100633 -4.01172e-06 0)
(0.00100698 -4.12198e-06 0)
(0.00100764 -4.21535e-06 0)
(0.00100832 -4.29157e-06 0)
(0.00100901 -4.35018e-06 0)
(0.00100971 -4.39094e-06 0)
(0.00101042 -4.41332e-06 0)
(0.00101112 -4.41717e-06 0)
(0.00101183 -4.40189e-06 0)
(0.00101253 -4.36742e-06 0)
(0.00101323 -4.31291e-06 0)
(0.00101392 -4.23838e-06 0)
(0.0010146 -4.14265e-06 0)
(0.00101526 -4.02609e-06 0)
(0.00101591 -3.88706e-06 0)
(0.00101653 -3.72629e-06 0)
(0.00101713 -3.54125e-06 0)
(0.0010177 -3.33325e-06 0)
(0.00101825 -3.09867e-06 0)
(0.00101875 -2.84012e-06 0)
(0.00101922 -2.55228e-06 0)
(0.00101965 -2.2395e-06 0)
(0.00102003 -1.89329e-06 0)
(0.00102036 -1.52077e-06 0)
(0.00102064 -1.10914e-06 0)
(0.00102085 -6.70779e-07 0)
(0.00102101 -1.8639e-07 0)
(0.00102109 3.23844e-07 0)
(0.00102111 8.90703e-07 0)
(0.00102104 1.48218e-06 0)
(0.00102089 2.14724e-06 0)
(0.00102064 2.8328e-06 0)
(0.0010203 3.61482e-06 0)
(0.00101984 4.40489e-06 0)
(0.00101928 5.32469e-06 0)
(0.00101859 6.22963e-06 0)
(0.00101777 7.31949e-06 0)