/*--------------------------------*- C++ -*----------------------------------*\
| =========                 |                                                 |
| \\      /  F ield         | OpenFOAM: The Open Source CFD Toolbox           |
|  \\    /   O peration     | Version:  2312                                  |
|   \\  /    A nd           | Website:  www.openfoam.com                      |
|    \\/     M anipulation  |                                                 |
\*---------------------------------------------------------------------------*/
FoamFile
{
    version     2.0;
    format      ascii;
    arch        "LSB;label=32;scalar=64";
    class       surfaceScalarField;
    location    "71000";
    object      phi;
}
// * * * * * * * * * * * * * * * * * * * * * * * * * * * * * * * * * * * * * //

dimensions      [0 3 -1 0 0 0 0];

oriented        oriented;

internalField   nonuniform List<scalar> 
21240
(
0.000664974
1.69225e-06
0.000661072
3.90239e-06
0.000655751
5.32083e-06
0.000649515
6.23634e-06
0.00064264
6.875e-06
0.000635268
7.37152e-06
0.000627492
7.77636e-06
0.000619389
8.10259e-06
0.000611033
8.3562e-06
0.000602487
8.54618e-06
0.000593802
8.68483e-06
0.000585018
8.78446e-06
0.000576163
8.85468e-06
0.000567261
8.90183e-06
0.000558331
8.92971e-06
0.000549391
8.94079e-06
0.000540454
8.93689e-06
0.000531534
8.91959e-06
0.000522644
8.8902e-06
0.000513794
8.84981e-06
0.000504995
8.79922e-06
0.000496256
8.73903e-06
0.000487586
8.66967e-06
0.000478995
8.59142e-06
0.00047049
8.5045e-06
0.000462081
8.40905e-06
0.000453776
8.30519e-06
0.000445583
8.19293e-06
0.000437511
8.0724e-06
0.000429567
7.94344e-06
0.000421761
7.8063e-06
0.0004141
7.6606e-06
0.000406594
7.50685e-06
0.000399249
7.34429e-06
0.000392075
7.17401e-06
0.000385081
6.99448e-06
0.000378273
6.80789e-06
0.000371662
6.61128e-06
0.000365253
6.40887e-06
0.000359058
6.19499e-06
0.00035308
5.97764e-06
0.000347334
5.74609e-06
0.000341819
5.51526e-06
0.000336554
5.26505e-06
0.000331531
5.02303e-06
0.000326779
4.75184e-06
0.000322277
4.5022e-06
0.000318072
4.20487e-06
0.000314118
3.95338e-06
0.0003105
3.61853e-06
0.000307124
3.3755e-06
0.000304148
2.97676e-06
0.000301383
2.76515e-06
0.000299148
2.23478e-06
0.000297033
2.11503e-06
0.000295793
1.23986e-06
0.00029432
1.47265e-06
0.000294537
-2.16818e-07
0.000293382
1.15506e-06
-3.20672e-06
0.000296589
0.000667556
8.02968e-07
0.00066912
2.33789e-06
0.000670854
3.58742e-06
0.000672525
4.56538e-06
0.000674054
5.34616e-06
0.000675427
5.99854e-06
0.000676639
6.56416e-06
0.00067768
7.06142e-06
0.000678539
7.49738e-06
0.000679209
7.87647e-06
0.000679689
8.20431e-06
0.000679986
8.48784e-06
0.000680106
8.73406e-06
0.000680059
8.94883e-06
0.000679853
9.13648e-06
0.000679493
9.29993e-06
0.000678989
9.44133e-06
0.000678346
9.56224e-06
0.000677572
9.66414e-06
0.000676674
9.74806e-06
0.000675658
9.81513e-06
0.000674531
9.86589e-06
0.0006733
9.9012e-06
0.00067197
9.92109e-06
0.000670548
9.92631e-06
0.000669041
9.91646e-06
0.000667454
9.89241e-06
0.000665793
9.85323e-06
0.000664066
9.80022e-06
0.000662277
9.73167e-06
0.000660434
9.64968e-06
0.000658543
9.55137e-06
0.00065661
9.44023e-06
0.000654643
9.31152e-06
0.000652645
9.17112e-06
0.000650629
9.01118e-06
0.000648595
8.84158e-06
0.000646557
8.64938e-06
0.000644515
8.45103e-06
0.000642485
8.22519e-06
0.000640463
7.9992e-06
0.000638471
7.73778e-06
0.0006365
7.48624e-06
0.000634579
7.18624e-06
0.000632689
6.91281e-06
0.000630872
6.5694e-06
0.000629094
6.28017e-06
0.000627413
5.88544e-06
0.000625776
5.5904e-06
0.000624263
5.13145e-06
0.000622792
4.84697e-06
0.000621465
4.30333e-06
0.000620175
4.05584e-06
0.000619013
3.39676e-06
0.000617901
3.22719e-06
0.000616727
2.41313e-06
0.000615823
2.37651e-06
0.000614217
1.38925e-06
0.000613837
1.53498e-06
4.42698e-07
0.000610188
0.000666951
5.18686e-07
0.000667819
1.47025e-06
0.000669059
2.34744e-06
0.000670484
3.14036e-06
0.000671985
3.84485e-06
0.000673515
4.46855e-06
0.000675055
5.02369e-06
0.000676595
5.52138e-06
0.000678123
5.96943e-06
0.000679627
6.37274e-06
0.000681097
6.73486e-06
0.000682525
7.05905e-06
0.000683911
7.34884e-06
0.000685252
7.6077e-06
0.000686549
7.8389e-06
0.000687804
8.04507e-06
0.000689017
8.22844e-06
0.000690189
8.39055e-06
0.00069132
8.53291e-06
0.000692412
8.65639e-06
0.000693465
8.76218e-06
0.00069448
8.85069e-06
0.000695458
8.92292e-06
0.0006964
8.97879e-06
0.000697307
9.01926e-06
0.00069818
9.04374e-06
0.000699019
9.05334e-06
0.000699826
9.04684e-06
0.0007006
9.0258e-06
0.000701343
8.98817e-06
0.000702057
8.93627e-06
0.000702741
8.86692e-06
0.000703398
8.78368e-06
0.000704028
8.68172e-06
0.000704632
8.56651e-06
0.000705213
8.43082e-06
0.000705771
8.28301e-06
0.000706308
8.11231e-06
0.000706828
7.93136e-06
0.000707329
7.72426e-06
0.000707818
7.50984e-06
0.000708291
7.26487e-06
0.00070876
7.017e-06
0.000709214
6.73268e-06
0.000709675
6.45183e-06
0.000710118
6.12681e-06
0.000710584
5.81402e-06
0.000711022
5.44737e-06
0.000711508
5.10425e-06
0.000711943
4.69596e-06
0.000712466
4.32442e-06
0.000712893
3.87659e-06
0.00071347
3.47836e-06
0.000713869
2.99838e-06
0.000714521
2.57467e-06
0.000714851
2.08304e-06
0.000715594
1.63368e-06
0.000715803
1.18063e-06
0.000716644
6.93841e-07
3.8115e-07
0.000716705
0.000666854
3.31538e-07
0.000667309
1.01548e-06
0.000667972
1.68411e-06
0.000668796
2.31672e-06
0.000669736
2.90411e-06
0.000670761
3.44337e-06
0.000671849
3.93606e-06
0.000672985
4.38584e-06
0.000674157
4.79663e-06
0.000675359
5.17164e-06
0.00067658
5.51339e-06
0.000677815
5.82394e-06
0.000679059
6.10526e-06
0.000680307
6.35933e-06
0.000681558
6.58817e-06
0.000682809
6.7936e-06
0.00068406
6.97732e-06
0.00068531
7.14064e-06
0.000686558
7.28477e-06
0.000687804
7.41056e-06
0.000689048
7.51889e-06
0.000690288
7.61028e-06
0.000691526
7.6854e-06
0.00069276
7.7445e-06
0.000693991
7.7881e-06
0.000695219
7.81616e-06
0.000696443
7.82909e-06
0.000697663
7.82665e-06
0.00069888
7.80917e-06
0.000700092
7.77621e-06
0.0007013
7.72806e-06
0.000702503
7.66417e-06
0.000703701
7.58473e-06
0.000704894
7.48919e-06
0.000706083
7.37753e-06
0.000707264
7.24944e-06
0.000708443
7.10441e-06
0.000709613
6.94277e-06
0.000710781
6.763e-06
0.000711938
6.56689e-06
0.000713097
6.35078e-06
0.000714243
6.11949e-06
0.000715395
5.86517e-06
0.000716529
5.59838e-06
0.000717677
5.30356e-06
0.000718802
5.00175e-06
0.000719953
4.66349e-06
0.000721071
4.32856e-06
0.000722233
3.94317e-06
0.000723349
3.5798e-06
0.00072453
3.14273e-06
0.000725647
2.76044e-06
0.000726859
2.26585e-06
0.000727976
1.88158e-06
0.00072923
1.32068e-06
0.00073035
9.6251e-07
0.00073166
3.23895e-07
0.0007328
4.12845e-08
0.000734247
-7.53221e-07
-9.19811e-07
0.000735548
0.000666738
2.59801e-07
0.00066697
7.84209e-07
0.000667356
1.29777e-06
0.000667879
1.79349e-06
0.000668518
2.26546e-06
0.000669251
2.71009e-06
0.000670061
3.12594e-06
0.000670934
3.51308e-06
0.000671858
3.87239e-06
0.000672825
4.205e-06
0.000673826
4.512e-06
0.000674856
4.79436e-06
0.000675908
5.05302e-06
0.000676978
5.28897e-06
0.000678063
5.50322e-06
0.00067916
5.69682e-06
0.000680267
5.87074e-06
0.000681382
6.02591e-06
0.000682503
6.16309e-06
0.000683631
6.28299e-06
0.000684764
6.38615e-06
0.000685901
6.4731e-06
0.000687042
6.54418e-06
0.000688187
6.59982e-06
0.000689335
6.64011e-06
0.000690485
6.66545e-06
0.000691639
6.67567e-06
0.000692794
6.67119e-06
0.000693952
6.65152e-06
0.000695111
6.61725e-06
0.000696271
6.56741e-06
0.000697433
6.50302e-06
0.000698595
6.42237e-06
0.000699757
6.32722e-06
0.00070092
6.21474e-06
0.000702081
6.08802e-06
0.000703243
5.94239e-06
0.000704403
5.78317e-06
0.000705563
5.60273e-06
0.00070672
5.41008e-06
0.000707878
5.19282e-06
0.000709031
4.966e-06
0.000710187
4.70952e-06
0.000711337
4.44823e-06
0.000712491
4.14962e-06
0.000713638
3.85436e-06
0.000714792
3.50992e-06
0.000715938
3.18223e-06
0.000717095
2.78655e-06
0.000718246
2.42905e-06
0.000719415
1.9736e-06
0.000720584
1.59071e-06
0.000721788
1.06261e-06
0.000723007
6.62229e-07
0.000724293
3.50655e-08
0.000725598
-3.43281e-07
0.000726971
-1.04867e-06
0.000728422
-1.41011e-06
0.000729943
-2.27399e-06
-2.58636e-06
0.00073161
0.000666724
2.02474e-07
0.000666899
6.09171e-07
0.000667184
1.01311e-06
0.000667569
1.40776e-06
0.000668045
1.78942e-06
0.0006686
2.15517e-06
0.000669223
2.50293e-06
0.000669905
2.83149e-06
0.000670637
3.14028e-06
0.000671413
3.42917e-06
0.000672227
3.69825e-06
0.000673073
3.94779e-06
0.000673948
4.17813e-06
0.000674847
4.38972e-06
0.000675768
4.58303e-06
0.000676706
4.75859e-06
0.00067766
4.91689e-06
0.000678627
5.0585e-06
0.000679606
5.18383e-06
0.000680596
5.29339e-06
0.000681595
5.38746e-06
0.000682601
5.46648e-06
0.000683615
5.53056e-06
0.000684635
5.58012e-06
0.00068566
5.61507e-06
0.000686689
5.63583e-06
0.000687723
5.64207e-06
0.00068876
5.63431e-06
0.000689799
5.61186e-06
0.000690841
5.57547e-06
0.000691885
5.52398e-06
0.000692929
5.45853e-06
0.000693974
5.37726e-06
0.000695019
5.28205e-06
0.000696064
5.16993e-06
0.000697108
5.044e-06
0.000698151
4.89962e-06
0.000699192
4.74183e-06
0.000700232
4.5634e-06
0.000701269
4.3725e-06
0.000702304
4.15782e-06
0.000703338
3.93249e-06
0.000704368
3.67879e-06
0.000705399
3.41768e-06
0.000706427
3.12139e-06
0.000707458
2.82327e-06
0.000708488
2.47997e-06
0.000709526
2.14445e-06
0.000710563
1.74933e-06
0.000711614
1.37821e-06
0.000712661
9.26243e-07
0.000713728
5.24604e-07
0.000714774
1.61447e-08
0.00071587
-4.33646e-07
0.000716954
-1.04895e-06
0.00071812
-1.50898e-06
0.000719297
-2.22651e-06
0.000720583
-2.69517e-06
0.000721862
-3.55344e-06
-4.00964e-06
0.000723285
0.000666708
1.60751e-07
0.000666834
4.83963e-07
0.00066704
8.06264e-07
0.000667325
1.12309e-06
0.000667683
1.43191e-06
0.000668107
1.73059e-06
0.000668593
2.01741e-06
0.000669133
2.29112e-06
0.000669722
2.55098e-06
0.000670355
2.79665e-06
0.000671026
3.02674e-06
0.000671733
3.24138e-06
0.00067247
3.4407e-06
0.000673235
3.6248e-06
0.000674024
3.7938e-06
0.000674835
3.94791e-06
0.000675665
4.08731e-06
0.000676511
4.21227e-06
0.000677372
4.32298e-06
0.000678245
4.41973e-06
0.00067913
4.50262e-06
0.000680025
4.57193e-06
0.000680928
4.62767e-06
0.000681838
4.67009e-06
0.000682754
4.69906e-06
0.000683675
4.71486e-06
0.0006846
4.71718e-06
0.000685528
4.70636e-06
0.000686458
4.68184e-06
0.000687389
4.6441e-06
0.000688321
4.59222e-06
0.000689252
4.52696e-06
0.000690183
4.4469e-06
0.000691111
4.35327e-06
0.000692037
4.24387e-06
0.000692961
4.12072e-06
0.00069388
3.98047e-06
0.000694795
3.82641e-06
0.000695705
3.65341e-06
0.000696611
3.46681e-06
0.00069751
3.25874e-06
0.000698405
3.03778e-06
0.000699292
2.79185e-06
0.000700175
2.5347e-06
0.000701048
2.24766e-06
0.000701919
1.95247e-06
0.000702779
1.61993e-06
0.00070364
1.28394e-06
0.000704491
8.98613e-07
0.000705352
5.17218e-07
0.000706211
6.66364e-08
0.00070709
-3.53953e-07
0.000707972
-8.65716e-07
0.000708875
-1.33683e-06
0.000709762
-1.93636e-06
0.000710708
-2.45479e-06
0.00071164
-3.15875e-06
0.000712666
-3.72049e-06
0.000713668
-4.55629e-06
-5.15105e-06
0.00071481
0.000666699
1.28722e-07
0.000666796
3.8715e-07
0.000666957
6.45214e-07
0.00066718
8.99719e-07
0.000667463
1.14892e-06
0.000667802
1.3913e-06
0.000668194
1.62552e-06
0.000668635
1.8505e-06
0.00066912
2.06535e-06
0.000669648
2.26935e-06
0.000670213
2.4619e-06
0.000670811
2.64257e-06
0.000671441
2.81115e-06
0.000672098
2.96755e-06
0.00067278
3.11168e-06
0.000673485
3.24353e-06
0.000674209
3.3631e-06
0.000674951
3.47044e-06
0.000675708
3.56559e-06
0.000676479
3.64863e-06
0.000677262
3.71959e-06
0.000678056
3.77855e-06
0.000678858
3.82549e-06
0.000679667
3.8605e-06
0.000680483
3.88346e-06
0.000681303
3.89446e-06
0.000682127
3.89328e-06
0.000682954
3.88003e-06
0.000683781
3.85432e-06
0.000684609
3.81633e-06
0.000685436
3.76547e-06
0.000686261
3.70199e-06
0.000687082
3.62503e-06
0.000687901
3.53506e-06
0.000688714
3.43078e-06
0.000689521
3.31301e-06
0.000690322
3.17982e-06
0.000691116
3.03264e-06
0.000691901
2.86859e-06
0.000692677
2.69006e-06
0.000693443
2.49274e-06
0.000694201
2.28052e-06
0.000694946
2.04695e-06
0.000695682
1.79831e-06
0.000696405
1.52483e-06
0.000697121
1.23665e-06
0.000697821
9.19144e-07
0.000698517
5.88733e-07
0.000699191
2.23878e-07
0.000699862
-1.53924e-07
0.000700513
-5.83626e-07
0.000701176
-1.01686e-06
0.00070182
-1.50992e-06
0.000702483
-2.00011e-06
0.000703119
-2.57265e-06
0.000703792
-3.1274e-06
0.000704429
-3.79567e-06
0.000705127
-4.41898e-06
0.000705773
-5.20227e-06
-5.89435e-06
0.000706517
0.000666693
1.02554e-07
0.000666772
3.08298e-07
0.000666903
5.13897e-07
0.000667086
7.1702e-07
0.000667318
9.16438e-07
0.000667598
1.11103e-06
0.000667924
1.2998e-06
0.000668293
1.48185e-06
0.000668702
1.65643e-06
0.000669148
1.82288e-06
0.000669629
1.9807e-06
0.000670143
2.12945e-06
0.000670685
2.2688e-06
0.000671254
2.3985e-06
0.000671847
2.51837e-06
0.000672463
2.62827e-06
0.000673098
2.72809e-06
0.00067375
2.81776e-06
0.000674419
2.89722e-06
0.000675101
2.96643e-06
0.000675795
3.02535e-06
0.0006765
3.07395e-06
0.000677213
3.11216e-06
0.000677933
3.13997e-06
0.00067866
3.15727e-06
0.00067939
3.16401e-06
0.000680123
3.16003e-06
0.000680858
3.14528e-06
0.000681593
3.11952e-06
0.000682327
3.08265e-06
0.000683058
3.03436e-06
0.000683785
2.97454e-06
0.000684507
2.90274e-06
0.000685224
2.81887e-06
0.000685932
2.72229e-06
0.000686632
2.61295e-06
0.000687322
2.49001e-06
0.000688001
2.35348e-06
0.000688668
2.20221e-06
0.000689321
2.03635e-06
0.00068996
1.85436e-06
0.000690583
1.65665e-06
0.000691189
1.44107e-06
0.000691779
1.20845e-06
0.000692348
9.55835e-07
0.0006929
6.84656e-07
0.000693429
3.90767e-07
0.00069394
7.719e-08
0.00069443
-2.66105e-07
0.000694908
-6.32293e-07
0.000695355
-1.02983e-06
0.00069579
-1.45239e-06
0.000696193
-1.91224e-06
0.000696592
-2.39922e-06
0.000696951
-2.93173e-06
0.000697317
-3.49364e-06
0.000697633
-4.11204e-06
0.000697975
-4.76073e-06
0.000698253
-5.48013e-06
-6.22674e-06
0.000698585
0.000666689
8.04894e-08
0.000666755
2.41896e-07
0.000666866
4.03251e-07
0.00066702
5.62827e-07
0.000667217
7.19736e-07
0.000667455
8.73163e-07
0.000667732
1.02235e-06
0.000668047
1.16663e-06
0.000668398
1.30537e-06
0.000668783
1.43807e-06
0.0006692
1.56425e-06
0.000669645
1.68354e-06
0.000670119
1.79558e-06
0.000670617
1.90012e-06
0.000671138
1.99691e-06
0.000671681
2.08577e-06
0.000672243
2.16654e-06
0.000672821
2.23909e-06
0.000673415
2.30331e-06
0.000674022
2.3591e-06
0.000674641
2.40638e-06
0.00067527
2.44505e-06
0.000675907
2.47504e-06
0.000676551
2.49624e-06
0.0006772
2.50856e-06
0.000677852
2.51187e-06
0.000678506
2.50607e-06
0.00067916
2.49098e-06
0.000679813
2.46646e-06
0.000680464
2.43228e-06
0.00068111
2.3883e-06
0.00068175
2.33416e-06
0.000682383
2.26971e-06
0.000683008
2.19449e-06
0.000683622
2.10836e-06
0.000684224
2.01066e-06
0.000684812
1.90132e-06
0.000685387
1.7794e-06
0.000685944
1.64497e-06
0.000686483
1.49668e-06
0.000687003
1.3349e-06
0.000687502
1.15762e-06
0.000687977
9.65759e-07
0.000688429
7.56352e-07
0.000688854
5.31326e-07
0.000689252
2.86378e-07
0.000689617
2.64156e-08
0.000689958
-2.64206e-07
0.000690264
-5.71864e-07
0.00069054
-9.08795e-07
0.000690775
-1.26472e-06
0.00069098
-1.65777e-06
0.000691138
-2.06981e-06
0.000691268
-2.52936e-06
0.000691342
-3.00595e-06
0.000691394
-3.54499e-06
0.000691378
-4.09582e-06
0.000691347
-4.73062e-06
0.000691233
-5.36543e-06
-6.11414e-06
0.00069112
0.000666686
6.13651e-08
0.000666743
1.84381e-07
0.000666839
3.07384e-07
0.000666973
4.29105e-07
0.000667144
5.48908e-07
0.000667351
6.66199e-07
0.000667593
7.80429e-07
0.000667868
8.91086e-07
0.000668176
9.9771e-07
0.000668514
1.09988e-06
0.000668881
1.19723e-06
0.000669275
1.28942e-06
0.000669695
1.37616e-06
0.000670137
1.45721e-06
0.000670602
1.53234e-06
0.000671086
1.60135e-06
0.000671589
1.6641e-06
0.000672108
1.72042e-06
0.000672641
1.77021e-06
0.000673186
1.81332e-06
0.000673743
1.84968e-06
0.000674309
1.87915e-06
0.000674882
1.90165e-06
0.000675462
1.91706e-06
0.000676045
1.9253e-06
0.000676631
1.92619e-06
0.000677217
1.91967e-06
0.000677802
1.90551e-06
0.000678385
1.88365e-06
0.000678964
1.85378e-06
0.000679536
1.81586e-06
0.000680101
1.76944e-06
0.000680656
1.71456e-06
0.0006812
1.65056e-06
0.000681731
1.57759e-06
0.000682247
1.49472e-06
0.000682746
1.4023e-06
0.000683226
1.29894e-06
0.000683686
1.18541e-06
0.000684123
1.0596e-06
0.000684535
9.22952e-07
0.00068492
7.72257e-07
0.000685276
6.10143e-07
0.0006856
4.31674e-07
0.00068589
2.41511e-07
0.000686144
3.27463e-08
0.000686363
-1.92344e-07
0.00068654
-4.41824e-07
0.000686671
-7.02977e-07
0.000686758
-9.95574e-07
0.000686792
-1.29846e-06
0.000686777
-1.64276e-06
0.000686701
-1.9935e-06
0.000686571
-2.40026e-06
0.000686371
-2.80556e-06
0.000686115
-3.28873e-06
0.000685775
-3.7556e-06
0.000685377
-4.33337e-06
0.00068488
-4.86769e-06
-5.56217e-06
0.000684328
0.000666684
4.43453e-08
0.000666735
1.33219e-07
0.00066682
2.22091e-07
0.000666939
3.10067e-07
0.000667091
3.96705e-07
0.000667276
4.81591e-07
0.000667492
5.64338e-07
0.000667739
6.44582e-07
0.000668014
7.21989e-07
0.000668318
7.96251e-07
0.000668648
8.6709e-07
0.000669003
9.34249e-07
0.000669382
9.97503e-07
0.000669782
1.05665e-06
0.000670203
1.1115e-06
0.000670643
1.1619e-06
0.000671099
1.20771e-06
0.000671571
1.24879e-06
0.000672056
1.28504e-06
0.000672553
1.31633e-06
0.00067306
1.34257e-06
0.000673576
1.36366e-06
0.000674098
1.37952e-06
0.000674625
1.39001e-06
0.000675155
1.39509e-06
0.000675687
1.39458e-06
0.000676218
1.38843e-06
0.000676747
1.37644e-06
0.000677272
1.35857e-06
0.000677791
1.33451e-06
0.000678303
1.30431e-06
0.000678805
1.26749e-06
0.000679295
1.22419e-06
0.000679772
1.17375e-06
0.000680233
1.11644e-06
0.000680676
1.05128e-06
0.0006811
9.78839e-07
0.000681501
8.97636e-07
0.000681878
8.087e-07
0.000682228
7.09801e-07
0.000682548
6.02757e-07
0.000682836
4.84142e-07
0.000683089
3.57108e-07
0.000683304
2.16397e-07
0.000683478
6.76236e-08
0.000683611
-9.97933e-08
0.000683695
-2.76623e-07
0.000683728
-4.74966e-07
0.000683706
-6.80487e-07
0.000683625
-9.14585e-07
0.00068348
-1.15329e-06
0.000683267
-1.4306e-06
0.000682981
-1.70712e-06
0.000682618
-2.03729e-06
0.000682169
-2.35658e-06
0.000681633
-2.75249e-06
0.000680997
-3.11934e-06
0.000680261
-3.59821e-06
0.000679409
-4.01563e-06
-4.59921e-06
0.000678446
0.000666682
2.87838e-08
0.000666729
8.64552e-08
0.000666807
1.44122e-07
0.000666916
2.01215e-07
0.000667055
2.57451e-07
0.000667224
3.12569e-07
0.000667422
3.66323e-07
0.000667648
4.18477e-07
0.000667901
4.68817e-07
0.00066818
5.17139e-07
0.000668484
5.63259e-07
0.000668812
6.07005e-07
0.000669161
6.48224e-07
0.000669531
6.86773e-07
0.00066992
7.22528e-07
0.000670326
7.55369e-07
0.000670749
7.85198e-07
0.000671186
8.11913e-07
0.000671635
8.35437e-07
0.000672096
8.55675e-07
0.000672566
8.72567e-07
0.000673044
8.86018e-07
0.000673527
8.9598e-07
0.000674015
9.02346e-07
0.000674505
9.05079e-07
0.000674995
9.04046e-07
0.000675484
8.99226e-07
0.00067597
8.90441e-07
0.000676451
8.77695e-07
0.000676925
8.60739e-07
0.00067739
8.39621e-07
0.000677843
8.13985e-07
0.000678284
7.83956e-07
0.000678708
7.49011e-07
0.000679115
7.09415e-07
0.000679502
6.64386e-07
0.000679867
6.14424e-07
0.000680206
5.5835e-07
0.000680518
4.97061e-07
0.000680799
4.28757e-07
0.000681046
3.54999e-07
0.000681257
2.73018e-07
0.000681429
1.85502e-07
0.000681557
8.8238e-08
0.000681639
-1.4197e-08
0.000681671
-1.31506e-07
0.000681648
-2.534e-07
0.000681564
-3.91421e-07
0.000681417
-5.33451e-07
0.000681199
-6.97054e-07
0.000680908
-8.62173e-07
0.000680535
-1.05685e-06
0.000680076
-1.24818e-06
0.00067952
-1.48122e-06
0.000678865
-1.70203e-06
0.000678096
-1.98331e-06
0.000677213
-2.2366e-06
0.000676194
-2.57954e-06
0.000675045
-2.86658e-06
-3.28856e-06
0.000673735
0.000666681
1.41445e-08
0.000666725
4.24705e-08
0.000666799
7.07837e-08
0.000666901
9.88061e-08
0.000667032
1.26402e-07
0.000667191
1.53444e-07
0.000667378
1.79812e-07
0.000667591
2.05393e-07
0.00066783
2.3008e-07
0.000668093
2.53774e-07
0.00066838
2.76383e-07
0.000668689
2.97822e-07
0.000669019
3.18014e-07
0.000669369
3.36885e-07
0.000669737
3.54374e-07
0.000670122
3.70419e-07
0.000670522
3.84968e-07
0.000670936
3.97967e-07
0.000671362
4.09378e-07
0.000671799
4.19149e-07
0.000672244
4.27248e-07
0.000672697
4.33624e-07
0.000673154
4.38253e-07
0.000673616
4.41077e-07
0.000674079
4.42076e-07
0.000674542
4.4118e-07
0.000675002
4.38378e-07
0.000675459
4.33574e-07
0.00067591
4.26774e-07
0.000676353
4.17842e-07
0.000676786
4.0681e-07
0.000677206
3.93483e-07
0.000677612
3.77938e-07
0.000678001
3.59887e-07
0.000678371
3.39486e-07
0.00067872
3.16306e-07
0.000679043
2.90636e-07
0.00067934
2.61825e-07
0.000679606
2.30389e-07
0.00067984
1.95331e-07
0.000680037
1.57546e-07
0.000680195
1.15495e-07
0.00068031
7.07127e-08
0.000680377
2.08922e-08
0.000680395
-3.22144e-08
0.000680356
-9.2289e-08
0.000680257
-1.54736e-07
0.000680092
-2.2579e-07
0.000679857
-2.98597e-07
0.000679543
-3.82976e-07
0.000679148
-4.67632e-07
0.000678659
-5.68276e-07
0.000678078
-6.66374e-07
0.000677384
-7.87211e-07
0.000676582
-9.00387e-07
0.000675645
-1.04678e-06
0.000674585
-1.17645e-06
0.000673362
-1.35575e-06
0.000671997
-1.50233e-06
-1.72415e-06
0.000670433
0.000666681
-4.70583e-11
0.000666723
-1.65854e-10
0.000666795
-3.08183e-10
0.000666894
-4.73222e-10
0.000667021
-6.59997e-10
0.000667175
-8.67378e-10
0.000667356
-1.09415e-09
0.000667563
-1.33916e-09
0.000667795
-1.60133e-09
0.00066805
-1.87962e-09
0.000668329
-2.17304e-09
0.000668629
-2.48056e-09
0.00066895
-2.80114e-09
0.00066929
-3.13376e-09
0.000669648
-3.47738e-09
0.000670022
-3.83103e-09
0.000670411
-4.19378e-09
0.000670814
-4.56477e-09
0.000671228
-4.94315e-09
0.000671652
-5.32814e-09
0.000672085
-5.71895e-09
0.000672525
-6.11485e-09
0.00067297
-6.51518e-09
0.000673418
-6.91937e-09
0.000673867
-7.32692e-09
0.000674316
-7.73742e-09
0.000674763
-8.15053e-09
0.000675205
-8.56596e-09
0.000675641
-8.98346e-09
0.000676068
-9.40284e-09
0.000676485
-9.82396e-09
0.000676888
-1.02468e-08
0.000677277
-1.06713e-08
0.000677648
-1.10976e-08
0.000677999
-1.15257e-08
0.000678327
-1.19556e-08
0.00067863
-1.23872e-08
0.000678905
-1.28206e-08
0.000679149
-1.32564e-08
0.000679358
-1.36959e-08
0.000679529
-1.41438e-08
0.000679659
-1.46085e-08
0.000679745
-1.51111e-08
0.000679782
-1.56333e-08
0.000679766
-1.61626e-08
0.00067969
-1.66566e-08
0.000679552
-1.71519e-08
0.000679344
-1.7658e-08
0.000679064
-1.81901e-08
0.0006787
-1.87439e-08
0.000678251
-1.93227e-08
0.000677703
-1.99159e-08
0.000677057
-2.05359e-08
0.000676291
-2.11728e-08
0.000675413
-2.18442e-08
0.000674388
-2.25346e-08
0.000673235
-2.32656e-08
0.000671903
-2.40171e-08
0.000670426
-2.48127e-08
-2.56309e-08
0.000668727
0.000666681
-1.42386e-08
0.000666723
-4.28007e-08
0.000666795
-7.13974e-08
0.000666894
-9.97484e-08
0.000667021
-1.27716e-07
0.000667175
-1.5517e-07
0.000667356
-1.8199e-07
0.000667563
-2.08058e-07
0.000667794
-2.33267e-07
0.00066805
-2.57515e-07
0.000668329
-2.80709e-07
0.000668629
-3.0276e-07
0.00066895
-3.23589e-07
0.00066929
-3.43123e-07
0.000669648
-3.61296e-07
0.000670022
-3.78044e-07
0.000670411
-3.93315e-07
0.000670813
-4.07053e-07
0.000671228
-4.19216e-07
0.000671652
-4.29753e-07
0.000672085
-4.3863e-07
0.000672525
-4.45794e-07
0.000672969
-4.5122e-07
0.000673417
-4.54847e-07
0.000673867
-4.56658e-07
0.000674315
-4.56578e-07
0.000674762
-4.54598e-07
0.000675204
-4.5062e-07
0.00067564
-4.44651e-07
0.000676067
-4.36553e-07
0.000676483
-4.26359e-07
0.000676887
-4.13873e-07
0.000677275
-3.99172e-07
0.000677646
-3.8197e-07
0.000677997
-3.62421e-07
0.000678325
-3.40097e-07
0.000678628
-3.15288e-07
0.000678903
-2.87344e-07
0.000679146
-2.56781e-07
0.000679355
-2.22601e-07
0.000679527
-1.85695e-07
0.000679657
-1.44519e-07
0.000679742
-1.00593e-07
0.000679778
-5.1552e-08
0.000679762
-3.8514e-10
0.000679686
5.91754e-08
0.000679549
1.20646e-07
0.00067934
1.90668e-07
0.00067906
2.624e-07
0.000678695
3.45684e-07
0.000678247
4.29199e-07
0.000677698
5.28676e-07
0.000677052
6.25544e-07
0.000676286
7.45124e-07
0.000675407
8.56966e-07
0.000674382
1.002e-06
0.000673229
1.13021e-06
0.000671897
1.30803e-06
0.000670419
1.45301e-06
1.67321e-06
0.00066872
0.000666681
-2.88768e-08
0.000666725
-8.67813e-08
0.000666799
-1.44728e-07
0.000666901
-2.02145e-07
0.000667032
-2.58748e-07
0.000667191
-3.14273e-07
0.000667378
-3.68472e-07
0.000667591
-4.21107e-07
0.000667829
-4.71962e-07
0.000668093
-5.2083e-07
0.00066838
-5.67525e-07
0.000668689
-6.11874e-07
0.000669019
-6.53722e-07
0.000669369
-6.92923e-07
0.000669737
-7.29351e-07
0.000670121
-7.62885e-07
0.000670522
-7.93426e-07
0.000670935
-8.20868e-07
0.000671361
-8.45133e-07
0.000671798
-8.66125e-07
0.000672243
-8.83783e-07
0.000672695
-8.98009e-07
0.000673153
-9.08755e-07
0.000673614
-9.15912e-07
0.000674076
-9.19443e-07
0.000674539
-9.19213e-07
0.000675
-9.15202e-07
0.000675456
-9.0723e-07
0.000675907
-8.953e-07
0.00067635
-8.79165e-07
0.000676782
-8.58871e-07
0.000677202
-8.34062e-07
0.000677608
-8.04863e-07
0.000677997
-7.70752e-07
0.000678366
-7.31993e-07
0.000678714
-6.87806e-07
0.000679037
-6.38691e-07
0.000679334
-5.83469e-07
0.0006796
-5.23038e-07
0.000679833
-4.55598e-07
0.00068003
-3.82715e-07
0.000680187
-3.01613e-07
0.000680301
-2.14978e-07
0.000680368
-1.18544e-07
0.000680385
-1.71955e-08
0.000680345
9.88157e-08
0.000680246
2.1982e-07
0.00068008
3.56881e-07
0.000679845
4.97881e-07
0.00067953
6.60422e-07
0.000679135
8.24419e-07
0.000678645
1.01796e-06
0.000678063
1.20808e-06
0.000677368
1.43991e-06
0.000676566
1.65941e-06
0.000675628
1.93939e-06
0.000674567
2.19123e-06
0.000673342
2.53276e-06
0.000671977
2.81822e-06
3.23867e-06
0.000670412
0.000666682
-4.44365e-08
0.000666729
-1.33539e-07
0.000666807
-2.22685e-07
0.000666916
-3.10978e-07
0.000667055
-3.97974e-07
0.000667224
-4.83258e-07
0.000667422
-5.66439e-07
0.000667648
-6.47153e-07
0.000667901
-7.25062e-07
0.00066818
-7.99857e-07
0.000668484
-8.71256e-07
0.000668811
-9.39004e-07
0.00066916
-1.00287e-06
0.00066953
-1.06265e-06
0.000669919
-1.11816e-06
0.000670325
-1.16924e-06
0.000670747
-1.21574e-06
0.000671184
-1.25753e-06
0.000671633
-1.2945e-06
0.000672094
-1.32652e-06
0.000672563
-1.35351e-06
0.000673041
-1.37536e-06
0.000673524
-1.39198e-06
0.000674011
-1.40324e-06
0.000674501
-1.40909e-06
0.000674991
-1.40936e-06
0.00067548
-1.40401e-06
0.000675966
-1.3928e-06
0.000676446
-1.37573e-06
0.000676919
-1.35247e-06
0.000677383
-1.32306e-06
0.000677836
-1.28705e-06
0.000678276
-1.24456e-06
0.0006787
-1.19493e-06
0.000679107
-1.13843e-06
0.000679493
-1.07409e-06
0.000679857
-1.00247e-06
0.000680195
-9.2209e-07
0.000680506
-8.33988e-07
0.000680787
-7.35924e-07
0.000681034
-6.29724e-07
0.000681244
-5.11951e-07
0.000681415
-3.85764e-07
0.000681542
-2.45882e-07
0.000681623
-9.78485e-08
0.000681654
6.79406e-08
0.00068163
2.43992e-07
0.000681545
4.41409e-07
0.000681397
6.45931e-07
0.000681178
8.79016e-07
0.000680886
1.11664e-06
0.000680511
1.39287e-06
0.000680051
1.66823e-06
0.000679494
1.99726e-06
0.000678838
2.31527e-06
0.000678067
2.70997e-06
0.000677183
3.07542e-06
0.000676163
3.55299e-06
0.000675012
3.96884e-06
4.55105e-06
0.0006737
0.000666684
-6.1454e-08
0.000666735
-1.84692e-07
0.00066682
-3.0796e-07
0.000666939
-4.29989e-07
0.000667091
-5.50138e-07
0.000667276
-6.67814e-07
0.000667492
-7.82464e-07
0.000667738
-8.93575e-07
0.000668014
-1.00068e-06
0.000668317
-1.10337e-06
0.000668647
-1.20126e-06
0.000669002
-1.29402e-06
0.000669381
-1.38135e-06
0.000669781
-1.46301e-06
0.000670202
-1.53877e-06
0.000670641
-1.60844e-06
0.000671097
-1.67185e-06
0.000671569
-1.72886e-06
0.000672053
-1.77934e-06
0.00067255
-1.82316e-06
0.000673057
-1.86023e-06
0.000673572
-1.89043e-06
0.000674094
-1.91367e-06
0.00067462
-1.92982e-06
0.00067515
-1.93881e-06
0.000675681
-1.94045e-06
0.000676212
-1.93469e-06
0.00067674
-1.92129e-06
0.000677265
-1.90019e-06
0.000677783
-1.87108e-06
0.000678294
-1.83393e-06
0.000678795
-1.78829e-06
0.000679285
-1.73418e-06
0.000679761
-1.67095e-06
0.000680221
-1.59877e-06
0.000680664
-1.51667e-06
0.000681086
-1.42505e-06
0.000681487
-1.32248e-06
0.000681863
-1.20975e-06
0.000682211
-1.08473e-06
0.000682531
-9.48903e-07
0.000682818
-7.99026e-07
0.00068307
-6.37742e-07
0.000683284
-4.60097e-07
0.000683457
-2.70743e-07
0.000683587
-6.24953e-08
0.00068367
1.60902e-07
0.000683702
4.09585e-07
0.000683678
6.6981e-07
0.000683596
9.61469e-07
0.000683449
1.26333e-06
0.000683235
1.60664e-06
0.000682947
1.95627e-06
0.000682583
2.36197e-06
0.000682132
2.76605e-06
0.000681594
3.24812e-06
0.000680955
3.71363e-06
0.000680218
4.29025e-06
0.000679364
4.82304e-06
5.51634e-06
0.000678399
0.000666686
-8.05753e-08
0.000666743
-2.42195e-07
0.000666839
-4.03806e-07
0.000666973
-5.63676e-07
0.000667144
-7.20918e-07
0.000667351
-8.74712e-07
0.000667592
-1.0243e-06
0.000667868
-1.16901e-06
0.000668175
-1.30822e-06
0.000668513
-1.44141e-06
0.00066888
-1.56811e-06
0.000669274
-1.68793e-06
0.000669693
-1.80055e-06
0.000670136
-1.90566e-06
0.0006706
-2.00306e-06
0.000671084
-2.09254e-06
0.000671586
-2.17394e-06
0.000672105
-2.24714e-06
0.000672637
-2.31203e-06
0.000673183
-2.3685e-06
0.000673739
-2.41646e-06
0.000674304
-2.45582e-06
0.000674877
-2.4865e-06
0.000675456
-2.50841e-06
0.000676038
-2.52144e-06
0.000676623
-2.52546e-06
0.000677209
-2.52038e-06
0.000677794
-2.50601e-06
0.000678376
-2.48222e-06
0.000678954
-2.44877e-06
0.000679525
-2.40551e-06
0.000680089
-2.3521e-06
0.000680643
-2.28839e-06
0.000681186
-2.2139e-06
0.000681716
-2.12851e-06
0.000682231
-2.03155e-06
0.000682729
-1.92295e-06
0.000683208
-1.80178e-06
0.000683666
-1.6681e-06
0.000684102
-1.52057e-06
0.000684513
-1.35955e-06
0.000684897
-1.18305e-06
0.000685251
-9.91971e-07
0.000685574
-7.83346e-07
0.000685863
-5.59116e-07
0.000686115
-3.14914e-07
0.000686331
-5.52962e-08
0.000686507
2.33518e-07
0.000686637
5.40404e-07
0.000686722
8.76521e-07
0.000686754
1.2315e-06
0.000686737
1.62364e-06
0.000686658
2.03464e-06
0.000686527
2.49325e-06
0.000686324
2.96868e-06
0.000686066
3.50676e-06
0.000685723
4.05628e-06
0.000685323
4.69011e-06
0.000684823
5.32342e-06
6.07119e-06
0.000684268
0.000666689
-1.02636e-07
0.000666755
-3.08584e-07
0.000666866
-5.14425e-07
0.00066702
-7.17827e-07
0.000667217
-9.17559e-07
0.000667454