/*--------------------------------*- C++ -*----------------------------------*\
| =========                 |                                                 |
| \\      /  F ield         | OpenFOAM: The Open Source CFD Toolbox           |
|  \\    /   O peration     | Version:  2312                                  |
|   \\  /    A nd           | Website:  www.openfoam.com                      |
|    \\/     M anipulation  |                                                 |
\*---------------------------------------------------------------------------*/
FoamFile
{
    version     2.0;
    format      ascii;
    arch        "LSB;label=32;scalar=64";
    class       volVectorField;
    location    "71000";
    object      U;
}
// * * * * * * * * * * * * * * * * * * * * * * * * * * * * * * * * * * * * * //

dimensions      [0 1 -1 0 0 0 0];

internalField   nonuniform List<vector> 
10800
(
(0.000992484 4.94182e-06 0)
(0.000990038 1.24575e-05 0)
(0.000986873 1.74787e-05 0)
(0.000980501 2.06622e-05 0)
(0.000971089 2.27451e-05 0)
(0.0009598 2.42385e-05 0)
(0.000947701 2.53773e-05 0)
(0.000935326 2.62364e-05 0)
(0.000922818 2.68399e-05 0)
(0.000910155 2.72129e-05 0)
(0.000897293 2.73933e-05 0)
(0.000884227 2.74238e-05 0)
(0.000870995 2.73424e-05 0)
(0.000857651 2.71773e-05 0)
(0.000844247 2.69465e-05 0)
(0.000830821 2.66618e-05 0)
(0.000817398 2.63312e-05 0)
(0.000803998 2.59612e-05 0)
(0.000790636 2.55573e-05 0)
(0.000777326 2.51244e-05 0)
(0.000764084 2.46662e-05 0)
(0.000750924 2.41859e-05 0)
(0.000737863 2.36854e-05 0)
(0.000724912 2.31668e-05 0)
(0.000712086 2.26309e-05 0)
(0.000699396 2.20792e-05 0)
(0.000686857 2.15118e-05 0)
(0.000674479 2.09303e-05 0)
(0.000662276 2.03339e-05 0)
(0.00065026 1.97245e-05 0)
(0.000638445 1.91007e-05 0)
(0.000626841 1.84651e-05 0)
(0.000615462 1.7815e-05 0)
(0.000604319 1.71546e-05 0)
(0.000593428 1.64793e-05 0)
(0.000582797 1.57959e-05 0)
(0.000572444 1.50967e-05 0)
(0.000562373 1.43927e-05 0)
(0.00055261 1.36709e-05 0)
(0.000543147 1.29495e-05 0)
(0.000534025 1.22066e-05 0)
(0.000525215 1.14723e-05 0)
(0.000516787 1.0709e-05 0)
(0.000508669 9.96751e-06 0)
(0.000500997 9.18319e-06 0)
(0.000493592 8.44165e-06 0)
(0.000486762 7.63229e-06 0)
(0.000480049 6.89763e-06 0)
(0.000474221 6.0544e-06 0)
(0.000468059 5.32513e-06 0)
(0.000463613 4.43945e-06 0)
(0.000457493 3.66841e-06 0)
(0.000455487 2.77875e-06 0)
(0.000447771 1.71707e-06 0)
(0.000451339 1.15019e-06 0)
(0.000436947 -1.26674e-06 0)
(0.00045539 1.12887e-07 0)
(0.000419404 -7.72873e-06 0)
(0.000477793 2.03559e-06 0)
(0.000383035 -2.44807e-05 0)
(0.00100003 5.80199e-06 0)
(0.00100172 1.49919e-05 0)
(0.00100423 2.15219e-05 0)
(0.00100706 2.60841e-05 0)
(0.00100979 2.94414e-05 0)
(0.00101219 3.21219e-05 0)
(0.00101421 3.43732e-05 0)
(0.00101589 3.62818e-05 0)
(0.00101726 3.78804e-05 0)
(0.00101838 3.91995e-05 0)
(0.00101923 4.02806e-05 0)
(0.00101982 4.11693e-05 0)
(0.00102014 4.19063e-05 0)
(0.0010202 4.25217e-05 0)
(0.00102001 4.30354e-05 0)
(0.00101958 4.346e-05 0)
(0.00101893 4.38044e-05 0)
(0.00101806 4.40751e-05 0)
(0.001017 4.42779e-05 0)
(0.00101574 4.44173e-05 0)
(0.0010143 4.4497e-05 0)
(0.00101269 4.45197e-05 0)
(0.00101092 4.44874e-05 0)
(0.00100899 4.44012e-05 0)
(0.00100693 4.42622e-05 0)
(0.00100472 4.40703e-05 0)
(0.00100241 4.38266e-05 0)
(0.000999957 4.35298e-05 0)
(0.00099743 4.31817e-05 0)
(0.000994768 4.27793e-05 0)
(0.000992071 4.23261e-05 0)
(0.000989229 4.18164e-05 0)
(0.000986407 4.12572e-05 0)
(0.000983415 4.06379e-05 0)
(0.000980522 3.99722e-05 0)
(0.000977402 3.92404e-05 0)
(0.000974501 3.84688e-05 0)
(0.000971262 3.76211e-05 0)
(0.000968436 3.6746e-05 0)
(0.00096507 3.57773e-05 0)
(0.000962432 3.48046e-05 0)
(0.000958892 3.37069e-05 0)
(0.000956607 3.26477e-05 0)
(0.000952782 3.14069e-05 0)
(0.000951103 3.02809e-05 0)
(0.000946769 2.88711e-05 0)
(0.000946102 2.77128e-05 0)
(0.000940836 2.60863e-05 0)
(0.000941846 2.49543e-05 0)
(0.000934876 2.30242e-05 0)
(0.000938678 2.20181e-05 0)
(0.00092862 1.96299e-05 0)
(0.000937098 1.89153e-05 0)
(0.000921503 1.58058e-05 0)
(0.000937845 1.56427e-05 0)
(0.000912417 1.1402e-05 0)
(0.000942042 1.21236e-05 0)
(0.000899324 6.283e-06 0)
(0.000951584 7.91007e-06 0)
(0.000879081 8.65433e-07 0)
(0.000999989 1.96253e-06 0)
(0.00100078 5.76391e-06 0)
(0.00100224 9.28879e-06 0)
(0.00100423 1.24533e-05 0)
(0.00100654 1.52548e-05 0)
(0.00100897 1.77383e-05 0)
(0.00101139 1.99586e-05 0)
(0.00101376 2.19587e-05 0)
(0.00101607 2.37658e-05 0)
(0.00101833 2.53966e-05 0)
(0.00102055 2.68643e-05 0)
(0.00102272 2.81823e-05 0)
(0.00102484 2.9365e-05 0)
(0.00102689 3.04262e-05 0)
(0.00102887 3.13784e-05 0)
(0.00103079 3.22312e-05 0)
(0.00103264 3.2993e-05 0)
(0.00103443 3.36693e-05 0)
(0.00103615 3.42658e-05 0)
(0.00103782 3.47856e-05 0)
(0.00103943 3.52334e-05 0)
(0.00104097 3.56104e-05 0)
(0.00104247 3.59207e-05 0)
(0.00104391 3.61635e-05 0)
(0.0010453 3.63432e-05 0)
(0.00104662 3.64564e-05 0)
(0.00104792 3.65087e-05 0)
(0.00104914 3.64938e-05 0)
(0.00105035 3.642e-05 0)
(0.00105145 3.62763e-05 0)
(0.00105258 3.6076e-05 0)
(0.00105358 3.58014e-05 0)
(0.00105465 3.54736e-05 0)
(0.00105554 3.50648e-05 0)
(0.00105656 3.46083e-05 0)
(0.00105733 3.40607e-05 0)
(0.00105833 3.3475e-05 0)
(0.00105897 3.27834e-05 0)
(0.00105999 3.2069e-05 0)
(0.00106046 3.12268e-05 0)
(0.00106157 3.03865e-05 0)
(0.00106183 2.93858e-05 0)
(0.00106311 2.84247e-05 0)
(0.00106309 2.72555e-05 0)
(0.00106466 2.61828e-05 0)
(0.00106423 2.48323e-05 0)
(0.00106629 2.36623e-05 0)
(0.00106524 2.21147e-05 0)
(0.00106809 2.08681e-05 0)
(0.00106609 1.91055e-05 0)
(0.00107016 1.78115e-05 0)
(0.00106669 1.58183e-05 0)
(0.00107264 1.45157e-05 0)
(0.00106691 1.22919e-05 0)
(0.00107572 1.10301e-05 0)
(0.0010665 8.62861e-06 0)
(0.00107968 7.46839e-06 0)
(0.0010651 5.08977e-06 0)
(0.00108493 4.06035e-06 0)
(0.00106222 2.20962e-06 0)
(0.00100001 1.74159e-06 0)
(0.00100047 5.1592e-06 0)
(0.00100128 8.41994e-06 0)
(0.00100239 1.14475e-05 0)
(0.00100374 1.4201e-05 0)
(0.00100526 1.66775e-05 0)
(0.00100689 1.88987e-05 0)
(0.00100858 2.08944e-05 0)
(0.00101033 2.26917e-05 0)
(0.00101212 2.43112e-05 0)
(0.00101394 2.57687e-05 0)
(0.00101578 2.70769e-05 0)
(0.00101764 2.82483e-05 0)
(0.00101952 2.92947e-05 0)
(0.00102139 3.02278e-05 0)
(0.00102327 3.10578e-05 0)
(0.00102515 3.17939e-05 0)
(0.00102703 3.24428e-05 0)
(0.0010289 3.30111e-05 0)
(0.00103077 3.35029e-05 0)
(0.00103264 3.3923e-05 0)
(0.0010345 3.42736e-05 0)
(0.00103636 3.45588e-05 0)
(0.00103821 3.47788e-05 0)
(0.00104007 3.49372e-05 0)
(0.00104191 3.50328e-05 0)
(0.00104375 3.50689e-05 0)
(0.00104558 3.50427e-05 0)
(0.00104741 3.4958e-05 0)
(0.00104922 3.481e-05 0)
(0.00105105 3.46038e-05 0)
(0.00105284 3.43322e-05 0)
(0.00105467 3.40022e-05 0)
(0.00105643 3.36038e-05 0)
(0.00105825 3.31466e-05 0)
(0.00105999 3.26175e-05 0)
(0.00106181 3.2029e-05 0)
(0.00106351 3.13645e-05 0)
(0.00106534 3.06401e-05 0)
(0.00106699 2.9836e-05 0)
(0.00106884 2.89705e-05 0)
(0.00107044 2.8023e-05 0)
(0.00107232 2.70109e-05 0)
(0.00107384 2.59179e-05 0)
(0.00107578 2.47528e-05 0)
(0.00107721 2.35151e-05 0)
(0.00107925 2.21891e-05 0)
(0.00108055 2.08127e-05 0)
(0.00108274 1.93155e-05 0)
(0.00108387 1.78167e-05 0)
(0.00108629 1.61343e-05 0)
(0.00108718 1.45477e-05 0)
(0.00108992 1.26622e-05 0)
(0.00109048 1.10564e-05 0)
(0.00109368 8.94489e-06 0)
(0.00109375 7.44581e-06 0)
(0.00109762 5.0729e-06 0)
(0.00109699 3.88709e-06 0)
(0.00110179 1.16574e-06 0)
(0.00110012 5.81128e-07 0)
(0.001 1.1531e-06 0)
(0.00100023 3.43184e-06 0)
(0.00100067 5.64502e-06 0)
(0.00100134 7.76093e-06 0)
(0.0010022 9.75823e-06 0)
(0.00100323 1.16266e-05 0)
(0.00100441 1.33648e-05 0)
(0.00100569 1.49767e-05 0)
(0.00100705 1.64686e-05 0)
(0.00100848 1.78464e-05 0)
(0.00100996 1.91156e-05 0)
(0.00101149 2.02811e-05 0)
(0.00101305 2.13476e-05 0)
(0.00101465 2.23201e-05 0)
(0.00101627 2.32035e-05 0)
(0.00101791 2.40025e-05 0)
(0.00101956 2.47218e-05 0)
(0.00102123 2.53651e-05 0)
(0.00102291 2.59359e-05 0)
(0.0010246 2.64369e-05 0)
(0.00102629 2.68705e-05 0)
(0.001028 2.72388e-05 0)
(0.00102971 2.75433e-05 0)
(0.00103142 2.77853e-05 0)
(0.00103314 2.79657e-05 0)
(0.00103486 2.80853e-05 0)
(0.00103659 2.8144e-05 0)
(0.00103832 2.81429e-05 0)
(0.00104006 2.80805e-05 0)
(0.0010418 2.79583e-05 0)
(0.00104354 2.77732e-05 0)
(0.00104528 2.75283e-05 0)
(0.00104702 2.72178e-05 0)
(0.00104876 2.68474e-05 0)
(0.00105051 2.64073e-05 0)
(0.00105225 2.5908e-05 0)
(0.00105399 2.53329e-05 0)
(0.00105573 2.47011e-05 0)
(0.00105748 2.39844e-05 0)
(0.00105921 2.32168e-05 0)
(0.00106095 2.23506e-05 0)
(0.00106268 2.14449e-05 0)
(0.00106441 2.04198e-05 0)
(0.00106615 1.93758e-05 0)
(0.00106787 1.81802e-05 0)
(0.0010696 1.70015e-05 0)
(0.00107132 1.56207e-05 0)
(0.00107307 1.43173e-05 0)
(0.00107476 1.27318e-05 0)
(0.00107654 1.13234e-05 0)
(0.00107822 9.50564e-06 0)
(0.00108006 8.02595e-06 0)
(0.00108173 5.93306e-06 0)
(0.0010837 4.43556e-06 0)
(0.00108536 2.00098e-06 0)
(0.00108756 5.75774e-07 0)
(0.00108919 -2.29231e-06 0)
(0.00109171 -3.49175e-06 0)
(0.00109321 -6.93197e-06 0)
(0.00109604 -7.68641e-06 0)
(0.001 9.27035e-07 0)
(0.00100017 2.7723e-06 0)
(0.00100051 4.59033e-06 0)
(0.001001 6.36222e-06 0)
(0.00100165 8.07051e-06 0)
(0.00100242 9.70135e-06 0)
(0.00100331 1.12455e-05 0)
(0.0010043 1.2698e-05 0)
(0.00100537 1.40574e-05 0)
(0.00100651 1.53241e-05 0)
(0.0010077 1.64997e-05 0)
(0.00100895 1.7586e-05 0)
(0.00101025 1.85852e-05 0)
(0.00101158 1.95001e-05 0)
(0.00101295 2.03334e-05 0)
(0.00101434 2.10879e-05 0)
(0.00101576 2.17667e-05 0)
(0.00101721 2.23726e-05 0)
(0.00101867 2.2908e-05 0)
(0.00102014 2.33756e-05 0)
(0.00102164 2.37769e-05 0)
(0.00102314 2.41142e-05 0)
(0.00102466 2.43884e-05 0)
(0.00102618 2.46014e-05 0)
(0.00102772 2.47533e-05 0)
(0.00102926 2.48459e-05 0)
(0.00103081 2.48782e-05 0)
(0.00103236 2.48524e-05 0)
(0.00103392 2.47659e-05 0)
(0.00103548 2.4622e-05 0)
(0.00103704 2.44159e-05 0)
(0.00103861 2.41527e-05 0)
(0.00104018 2.38245e-05 0)
(0.00104175 2.34397e-05 0)
(0.00104331 2.29855e-05 0)
(0.00104488 2.24759e-05 0)
(0.00104644 2.18904e-05 0)
(0.00104801 2.12521e-05 0)
(0.00104956 2.05288e-05 0)
(0.00105113 1.97577e-05 0)
(0.00105267 1.88882e-05 0)
(0.00105424 1.79805e-05 0)
(0.00105577 1.69547e-05 0)
(0.00105735 1.59074e-05 0)
(0.00105885 1.47127e-05 0)
(0.00106044 1.35246e-05 0)
(0.00106193 1.21449e-05 0)
(0.00106356 1.08178e-05 0)
(0.00106502 9.23221e-06 0)
(0.0010667 7.77375e-06 0)
(0.00106813 5.95527e-06 0)
(0.0010699 4.38377e-06 0)
(0.00107126 2.29642e-06 0)
(0.00107316 6.43035e-07 0)
(0.00107443 -1.77174e-06 0)
(0.00107656 -3.46786e-06 0)
(0.00107772 -6.31311e-06 0)
(0.00108019 -7.99461e-06 0)
(0.00108111 -1.14179e-05 0)
(0.00108391 -1.29823e-05 0)
(0.001 7.32607e-07 0)
(0.00100013 2.19121e-06 0)
(0.00100037 3.63022e-06 0)
(0.00100074 5.03698e-06 0)
(0.00100121 6.40006e-06 0)
(0.0010018 7.71014e-06 0)
(0.00100248 8.96033e-06 0)
(0.00100326 1.01461e-05 0)
(0.00100411 1.1265e-05 0)
(0.00100503 1.23158e-05 0)
(0.00100601 1.32983e-05 0)
(0.00100705 1.42131e-05 0)
(0.00100813 1.50606e-05 0)
(0.00100926 1.58419e-05 0)
(0.00101043 1.6558e-05 0)
(0.00101163 1.72101e-05 0)
(0.00101286 1.77994e-05 0)
(0.00101412 1.83273e-05 0)
(0.0010154 1.8795e-05 0)
(0.0010167 1.92038e-05 0)
(0.00101802 1.95545e-05 0)
(0.00101936 1.98484e-05 0)
(0.00102071 2.00855e-05 0)
(0.00102207 2.02674e-05 0)
(0.00102344 2.03933e-05 0)
(0.00102482 2.04647e-05 0)
(0.0010262 2.04802e-05 0)
(0.00102759 2.04416e-05 0)
(0.00102899 2.03462e-05 0)
(0.00103038 2.01965e-05 0)
(0.00103178 1.99883e-05 0)
(0.00103318 1.97255e-05 0)
(0.00103457 1.94012e-05 0)
(0.00103597 1.9022e-05 0)
(0.00103736 1.85771e-05 0)
(0.00103875 1.80772e-05 0)
(0.00104013 1.75057e-05 0)
(0.00104151 1.688e-05 0)
(0.00104287 1.61743e-05 0)
(0.00104424 1.54168e-05 0)
(0.00104559 1.45678e-05 0)
(0.00104695 1.3672e-05 0)
(0.00104826 1.26681e-05 0)
(0.00104962 1.16274e-05 0)
(0.0010509 1.04542e-05 0)
(0.00105225 9.26188e-06 0)
(0.0010535 7.90115e-06 0)
(0.00105485 6.55091e-06 0)
(0.00105607 4.97822e-06 0)
(0.00105744 3.4647e-06 0)
(0.00105862 1.64655e-06 0)
(0.00106006 -3.22888e-08 0)
(0.0010612 -2.138e-06 0)
(0.00106275 -3.97027e-06 0)
(0.00106383 -6.4134e-06 0)
(0.00106553 -8.37279e-06 0)
(0.0010665 -1.1235e-05 0)
(0.00106843 -1.32885e-05 0)
(0.00106917 -1.67035e-05 0)
(0.00107127 -1.87933e-05 0)
(0.001 5.83631e-07 0)
(0.0010001 1.74681e-06 0)
(0.00100029 2.89799e-06 0)
(0.00100057 4.02931e-06 0)
(0.00100095 5.13326e-06 0)
(0.00100142 6.20316e-06 0)
(0.00100197 7.23336e-06 0)
(0.00100259 8.21944e-06 0)
(0.00100329 9.15804e-06 0)
(0.00100405 1.00469e-05 0)
(0.00100487 1.08843e-05 0)
(0.00100575 1.16696e-05 0)
(0.00100667 1.24019e-05 0)
(0.00100764 1.30812e-05 0)
(0.00100864 1.37072e-05 0)
(0.00100968 1.42799e-05 0)
(0.00101076 1.47997e-05 0)
(0.00101186 1.52668e-05 0)
(0.00101298 1.56815e-05 0)
(0.00101413 1.60444e-05 0)
(0.0010153 1.63556e-05 0)
(0.00101648 1.66156e-05 0)
(0.00101768 1.68244e-05 0)
(0.00101889 1.69825e-05 0)
(0.00102011 1.70895e-05 0)
(0.00102134 1.7146e-05 0)
(0.00102257 1.71508e-05 0)
(0.00102381 1.71049e-05 0)
(0.00102505 1.70064e-05 0)
(0.00102629 1.68565e-05 0)
(0.00102753 1.66523e-05 0)
(0.00102877 1.63957e-05 0)
(0.00103001 1.60822e-05 0)
(0.00103124 1.57151e-05 0)
(0.00103246 1.52875e-05 0)
(0.00103368 1.4805e-05 0)
(0.00103488 1.42573e-05 0)
(0.00103608 1.36532e-05 0)
(0.00103726 1.29776e-05 0)
(0.00103844 1.22448e-05 0)
(0.00103959 1.14317e-05 0)
(0.00104074 1.05617e-05 0)
(0.00104186 9.59943e-06 0)
(0.00104298 8.58246e-06 0)
(0.00104406 7.45662e-06 0)
(0.00104516 6.28181e-06 0)
(0.00104619 4.97487e-06 0)
(0.00104728 3.63066e-06 0)
(0.00104826 2.12101e-06 0)
(0.00104933 5.95356e-07 0)
(0.00105025 -1.1447e-06 0)
(0.00105133 -2.86542e-06 0)
(0.00105219 -4.87669e-06 0)
(0.00105331 -6.8112e-06 0)
(0.0010541 -9.15025e-06 0)
(0.0010553 -1.13127e-05 0)
(0.00105597 -1.40476e-05 0)
(0.00105729 -1.64418e-05 0)
(0.00105773 -1.96666e-05 0)
(0.00105907 -2.2283e-05 0)
(0.001 4.66115e-07 0)
(0.00100008 1.39565e-06 0)
(0.00100024 2.31719e-06 0)
(0.00100047 3.22535e-06 0)
(0.00100078 4.11489e-06 0)
(0.00100116 4.98092e-06 0)
(0.00100162 5.81908e-06 0)
(0.00100214 6.62564e-06 0)
(0.00100272 7.3975e-06 0)
(0.00100337 8.13216e-06 0)
(0.00100406 8.82758e-06 0)
(0.00100481 9.48215e-06 0)
(0.0010056 1.00946e-05 0)
(0.00100644 1.06642e-05 0)
(0.00100731 1.11901e-05 0)
(0.00100822 1.1672e-05 0)
(0.00100916 1.21097e-05 0)
(0.00101012 1.25029e-05 0)
(0.00101112 1.28516e-05 0)
(0.00101213 1.31557e-05 0)
(0.00101316 1.34152e-05 0)
(0.00101421 1.36301e-05 0)
(0.00101528 1.38003e-05 0)
(0.00101635 1.39256e-05 0)
(0.00101744 1.40058e-05 0)
(0.00101853 1.40409e-05 0)
(0.00101963 1.403e-05 0)
(0.00102073 1.39733e-05 0)
(0.00102183 1.38695e-05 0)
(0.00102294 1.37187e-05 0)
(0.00102404 1.35191e-05 0)
(0.00102513 1.3271e-05 0)
(0.00102622 1.29717e-05 0)
(0.0010273 1.2622e-05 0)
(0.00102837 1.22181e-05 0)
(0.00102942 1.17613e-05 0)
(0.00103047 1.12463e-05 0)
(0.0010315 1.06755e-05 0)
(0.0010325 1.00414e-05 0)
(0.0010335 9.34842e-06 0)
(0.00103446 8.58542e-06 0)
(0.00103541 7.76006e-06 0)
(0.00103633 6.85611e-06 0)
(0.00103724 5.88627e-06 0)
(0.00103809 4.82649e-06 0)
(0.00103895 3.69744e-06 0)
(0.00103974 2.46315e-06 0)
(0.00104055 1.15697e-06 0)
(0.00104127 -2.75007e-07 0)
(0.00104203 -1.77805e-06 0)
(0.00104268 -3.43349e-06 0)
(0.0010434 -5.15471e-06 0)
(0.00104395 -7.06748e-06 0)
(0.00104465 -9.036e-06 0)
(0.00104509 -1.12544e-05 0)
(0.00104579 -1.35055e-05 0)
(0.00104608 -1.6089e-05 0)
(0.00104678 -1.86572e-05 0)
(0.00104683 -2.16763e-05 0)
(0.00104744 -2.4587e-05 0)
(0.001 3.68818e-07 0)
(0.00100007 1.10452e-06 0)
(0.0010002 1.83453e-06 0)
(0.0010004 2.55505e-06 0)
(0.00100066 3.26231e-06 0)
(0.00100098 3.95274e-06 0)
(0.00100137 4.623e-06 0)
(0.00100181 5.27014e-06 0)
(0.00100232 5.89154e-06 0)
(0.00100287 6.48494e-06 0)
(0.00100347 7.04843e-06 0)
(0.00100412 7.58041e-06 0)
(0.00100481 8.07953e-06 0)
(0.00100554 8.54475e-06 0)
(0.0010063 8.97519e-06 0)
(0.0010071 9.37021e-06 0)
(0.00100793 9.72924e-06 0)
(0.00100879 1.00519e-05 0)
(0.00100967 1.03377e-05 0)
(0.00101057 1.05864e-05 0)
(0.00101149 1.07978e-05 0)
(0.00101243 1.09714e-05 0)
(0.00101338 1.11071e-05 0)
(0.00101434 1.12045e-05 0)
(0.00101531 1.12632e-05 0)
(0.00101628 1.12828e-05 0)
(0.00101726 1.12628e-05 0)
(0.00101825 1.12026e-05 0)
(0.00101923 1.11015e-05 0)
(0.00102021 1.09588e-05 0)
(0.00102118 1.07736e-05 0)
(0.00102214 1.05448e-05 0)
(0.0010231 1.02713e-05 0)
(0.00102404 9.9519e-06 0)
(0.00102497 9.58517e-06 0)
(0.00102589 9.16937e-06 0)
(0.00102678 8.70298e-06 0)
(0.00102765 8.18365e-06 0)
(0.0010285 7.60975e-06 0)
(0.00102932 6.97806e-06 0)
(0.00103012 6.28704e-06 0)
(0.00103089 5.53218e-06 0)
(0.00103161 4.71234e-06 0)
(0.00103231 3.82107e-06 0)
(0.00103296 2.85824e-06 0)
(0.00103359 1.8144e-06 0)
(0.00103415 6.91579e-07 0)
(0.0010347 -5.24386e-07 0)
(0.00103516 -1.82704e-06 0)
(0.00103563 -3.23904e-06 0)
(0.00103598 -4.74774e-06 0)
(0.00103635 -6.38869e-06 0)
(0.00103657 -8.13592e-06 0)
(0.00103685 -1.00448e-05 0)
(0.00103692 -1.20678e-05 0)
(0.00103711 -1.42923e-05 0)
(0.001037 -1.66349e-05 0)
(0.00103709 -1.9233e-05 0)
(0.00103669 -2.19431e-05 0)
(0.00103659 -2.49777e-05 0)
(0.001 2.85767e-07 0)
(0.00100006 8.55882e-07 0)
(0.00100017 1.42189e-06 0)
(0.00100034 1.98105e-06 0)
(0.00100057 2.53065e-06 0)
(0.00100085 3.06806e-06 0)
(0.00100119 3.59079e-06 0)
(0.00100158 4.09657e-06 0)
(0.00100202 4.58333e-06 0)
(0.0010025 5.04924e-06 0)
(0.00100303 5.49268e-06 0)
(0.0010036 5.91224e-06 0)
(0.00100421 6.3067e-06 0)
(0.00100486 6.67501e-06 0)
(0.00100554 7.01631e-06 0)
(0.00100625 7.32981e-06 0)
(0.001007 7.61489e-06 0)
(0.00100776 7.87096e-06 0)
(0.00100855 8.09756e-06 0)
(0.00100936 8.29419e-06 0)
(0.00101019 8.46047e-06 0)
(0.00101103 8.59594e-06 0)
(0.00101189 8.70026e-06 0)
(0.00101275 8.7729e-06 0)
(0.00101362 8.81353e-06 0)
(0.0010145 8.82148e-06 0)
(0.00101538 8.79641e-06 0)
(0.00101626 8.73742e-06 0)
(0.00101714 8.64417e-06 0)
(0.00101801 8.51544e-06 0)
(0.00101887 8.35092e-06 0)
(0.00101973 8.1489e-06 0)
(0.00102057 7.90923e-06 0)
(0.00102139 7.62948e-06 0)
(0.0010222 7.30985e-06 0)
(0.00102298 6.9468e-06 0)
(0.00102375 6.54124e-06 0)
(0.00102448 6.08798e-06 0)
(0.00102519 5.58919e-06 0)
(0.00102586 5.03715e-06 0)
(0.0010265 4.43622e-06 0)
(0.0010271 3.77477e-06 0)
(0.00102765 3.06093e-06 0)
(0.00102817 2.27688e-06 0)
(0.00102862 1.43714e-06 0)
(0.00102904 5.14144e-07 0)
(0.00102938 -4.66823e-07 0)
(0.00102969 -1.54859e-06 0)
(0.00102991 -2.68856e-06 0)
(0.00103009 -3.95541e-06 0)
(0.00103016 -5.27793e-06 0)
(0.0010302 -6.76446e-06 0)
(0.0010301 -8.29625e-06 0)
(0.00102999 -1.00453e-05 0)
(0.00102969 -1.1816e-05 0)
(0.00102941 -1.38828e-05 0)
(0.00102887 -1.59248e-05 0)
(0.00102839 -1.83806e-05 0)
(0.00102754 -2.07239e-05 0)
(0.00102677 -2.36535e-05 0)
(0.001 2.12923e-07 0)
(0.00100005 6.37734e-07 0)
(0.00100015 1.05961e-06 0)
(0.00100031 1.47661e-06 0)
(0.00100051 1.88682e-06 0)
(0.00100076 2.28833e-06 0)
(0.00100106 2.67936e-06 0)
(0.00100141 3.05823e-06 0)
(0.0010018 3.42339e-06 0)
(0.00100224 3.77345e-06 0)
(0.00100271 4.10712e-06 0)
(0.00100323 4.42328e-06 0)
(0.00100378 4.72091e-06 0)
(0.00100436 4.9991e-06 0)
(0.00100498 5.25709e-06 0)
(0.00100562 5.49415e-06 0)
(0.0010063 5.70968e-06 0)
(0.00100699 5.90311e-06 0)
(0.00100771 6.07396e-06 0)
(0.00100845 6.22172e-06 0)
(0.0010092 6.34602e-06 0)
(0.00100997 6.44635e-06 0)
(0.00101075 6.52239e-06 0)
(0.00101154 6.57356e-06 0)
(0.00101233 6.59961e-06 0)
(0.00101313 6.59979e-06 0)
(0.00101392 6.57391e-06 0)
(0.00101472 6.52097e-06 0)
(0.00101551 6.44088e-06 0)
(0.00101629 6.33226e-06 0)
(0.00101707 6.19519e-06 0)
(0.00101783 6.02772e-06 0)
(0.00101857 5.83026e-06 0)
(0.0010193 5.6e-06 0)
(0.00102 5.33797e-06 0)
(0.00102068 5.04003e-06 0)
(0.00102133 4.70829e-06 0)
(0.00102195 4.33657e-06 0)
(0.00102254 3.92888e-06 0)
(0.00102308 3.4758e-06 0)
(0.00102359 2.98459e-06 0)
(0.00102404 2.44076e-06 0)
(0.00102445 1.85692e-06 0)
(0.0010248 1.21063e-06 0)
(0.00102509 5.23329e-07 0)
(0.00102533 -2.40114e-07 0)
(0.00102548 -1.04375e-06 0)
(0.00102558 -1.9431e-06 0)
(0.00102558 -2.87927e-06 0)
(0.00102551 -3.94001e-06 0)
(0.00102534 -5.02761e-06 0)
(0.00102508 -6.28159e-06 0)
(0.00102469 -7.5413e-06 0)
(0.00102423 -9.02998e-06 0)
(0.00102359 -1.04845e-05 0)
(0.00102288 -1.22632e-05 0)
(0.00102196 -1.39353e-05 0)
(0.00102097 -1.60773e-05 0)
(0.00101967 -1.79834e-05 0)
(0.00101831 -2.0581e-05 0)
(0.001 1.47283e-07 0)
(0.00100005 4.41122e-07 0)
(0.00100014 7.32965e-07 0)
(0.00100028 1.02152e-06 0)
(0.00100047 1.30549e-06 0)
(0.0010007 1.5836e-06 0)
(0.00100097 1.85465e-06 0)
(0.00100129 2.11747e-06 0)
(0.00100165 2.37101e-06 0)
(0.00100205 2.61426e-06 0)
(0.00100249 2.84633e-06 0)
(0.00100296 3.06638e-06 0)
(0.00100347 3.27368e-06 0)
(0.00100401 3.46752e-06 0)
(0.00100458 3.64732e-06 0)
(0.00100517 3.8125e-06 0)
(0.0010058 3.9626e-06 0)
(0.00100644 4.09713e-06 0)
(0.00100711 4.21573e-06 0)
(0.00100779 4.31793e-06 0)
(0.00100849 4.40346e-06 0)
(0.0010092 4.47185e-06 0)
(0.00100992 4.52287e-06 0)
(0.00101065 4.55602e-06 0)
(0.00101138 4.57109e-06 0)
(0.00101212 4.56746e-06 0)
(0.00101286 4.545e-06 0)
(0.00101359 4.50287e-06 0)
(0.00101431 4.44106e-06 0)
(0.00101503 4.35838e-06 0)
(0.00101573 4.25502e-06 0)
(0.00101642 4.12929e-06 0)
(0.00101709 3.98172e-06 0)
(0.00101774 3.80984e-06 0)
(0.00101837 3.61483e-06 0)
(0.00101896 3.39297e-06 0)
(0.00101953 3.14654e-06 0)
(0.00102006 2.86993e-06 0)
(0.00102055 2.56727e-06 0)
(0.00102099 2.22998e-06 0)
(0.00102139 1.86527e-06 0)
(0.00102173 1.45989e-06 0)
(0.00102202 1.02613e-06 0)
(0.00102225 5.43379e-07 0)
(0.0010224 3.22881e-08 0)
(0.00102249 -5.39567e-07 0)
(0.0010225 -1.13785e-06 0)
(0.00102242 -1.81442e-06 0)
(0.00102225 -2.51242e-06 0)
(0.00102198 -3.31405e-06 0)
(0.00102159 -4.12553e-06 0)
(0.0010211 -5.07821e-06 0)
(0.00102047 -6.01828e-06 0)
(0.00101972 -7.15667e-06 0)
(0.0010188 -8.24142e-06 0)
(0.00101775 -9.61248e-06 0)
(0.00101649 -1.08568e-05 0)
(0.00101508 -1.2524e-05 0)
(0.0010134 -1.39354e-05 0)
(0.00101156 -1.59808e-05 0)
(0.001 8.6453e-08 0)
(0.00100005 2.58898e-07 0)
(0.00100013 4.30154e-07 0)
(0.00100026 5.99476e-07 0)
(0.00100044 7.6612e-07 0)
(0.00100066 9.29353e-07 0)
(0.00100091 1.08847e-06 0)
(0.00100121 1.2428e-06 0)
(0.00100155 1.39172e-06 0)
(0.00100193 1.53464e-06 0)
(0.00100234 1.67102e-06 0)
(0.00100279 1.80035e-06 0)
(0.00100327 1.92219e-06 0)
(0.00100378 2.03611e-06 0)
(0.00100432 2.14173e-06 0)
(0.00100488 2.23871e-06 0)
(0.00100547 2.32673e-06 0)
(0.00100608 2.4055e-06 0)
(0.00100672 2.47476e-06 0)
(0.00100736 2.53423e-06 0)
(0.00100802 2.58372e-06 0)
(0.0010087 2.62292e-06 0)
(0.00100938 2.65169e-06 0)
(0.00101007 2.66968e-06 0)
(0.00101077 2.67677e-06 0)
(0.00101146 2.67255e-06 0)
(0.00101215 2.65695e-06 0)
(0.00101284 2.6294e-06 0)
(0.00101352 2.58992e-06 0)
(0.00101419 2.53771e-06 0)
(0.00101485 2.47295e-06 0)
(0.00101549 2.39449e-06 0)
(0.00101611 2.30275e-06 0)
(0.00101671 2.19605e-06 0)
(0.00101728 2.07528e-06 0)
(0.00101782 1.93789e-06 0)
(0.00101832 1.78557e-06 0)
(0.00101879 1.61446e-06 0)
(0.00101921 1.42755e-06 0)
(0.00101959 1.21892e-06 0)
(0.00101991 9.93751e-07 0)
(0.00102018 7.4285e-07 0)
(0.00102038 4.75038e-07 0)
(0.00102052 1.75935e-07 0)
(0.00102059 -1.39687e-07 0)
(0.00102057 -4.94519e-07 0)
(0.00102047 -8.64232e-07 0)
(0.00102027 -1.28504e-06 0)
(0.00101997 -1.71666e-06 0)
(0.00101956 -2.21664e-06 0)
(0.00101903 -2.71865e-06 0)
(0.00101837 -3.31489e-06 0)
(0.00101757 -3.89653e-06 0)
(0.00101662 -4.61204e-06 0)
(0.00101549 -5.28291e-06 0)
(0.00101419 -6.14912e-06 0)
(0.00101269 -6.91756e-06 0)
(0.00101099 -7.97756e-06 0)
(0.00100903 -8.84615e-06 0)
(0.00100684 -1.01565e-05 0)
(0.001 2.83907e-08 0)
(0.00100004 8.49549e-08 0)
(0.00100013 1.41067e-07 0)
(0.00100026 1.96486e-07 0)
(0.00100042 2.50971e-07 0)
(0.00100064 3.04285e-07 0)
(0.00100089 3.562e-07 0)
(0.00100118 4.06499e-07 0)
(0.00100151 4.54977e-07 0)
(0.00100187 5.01441e-07 0)
(0.00100227 5.45716e-07 0)
(0.00100271 5.87635e-07 0)
(0.00100317 6.2705e-07 0)
(0.00100367 6.63818e-07 0)
(0.00100419 6.97819e-07 0)
(0.00100474 7.2893e-07 0)
(0.00100532 7.57054e-07 0)
(0.00100591 7.82083e-07 0)
(0.00100652 8.03938e-07 0)
(0.00100715 8.22519e-07 0)
(0.0010078 8.37762e-07 0)
(0.00100845 8.49564e-07 0)
(0.00100911 8.57875e-07 0)
(0.00100979 8.62575e-07 0)
(0.00101046 8.63629e-07 0)
(0.00101113 8.60885e-07 0)
(0.00101181 8.54329e-07 0)
(0.00101247 8.43757e-07 0)
(0.00101313 8.29185e-07 0)
(0.00101378 8.1033e-07 0)
(0.00101441 7.87261e-07 0)
(0.00101503 7.5957e-07 0)
(0.00101562 7.27423e-07 0)
(0.00101619 6.90216e-07 0)
(0.00101674 6.48283e-07 0)
(0.00101725 6.00717e-07 0)
(0.00101772 5.48136e-07 0)
(0.00101815 4.89165e-07 0)
(0.00101854 4.24895e-07 0)
(0.00101888 3.53211e-07 0)
(0.00101917 2.76e-07 0)
(0.0010194 1.89974e-07 0)
(0.00101956 9.83224e-08 0)
(0.00101965 -4.10659e-09 0)
(0.00101967 -1.12002e-07 0)
(0.0010196 -2.335e-07 0)
(0.00101944 -3.59848e-07 0)
(0.00101918 -5.03968e-07 0)
(0.00101882 -6.51372e-07 0)
(0.00101834 -8.22652e-07 0)
(0.00101773 -9.93988e-07 0)
(0.00101698 -1.19842e-06 0)
(0.00101609 -1.39684e-06 0)
(0.00101503 -1.64249e-06 0)
(0.0010138 -1.8712e-06 0)
(0.00101237 -2.16916e-06 0)
(0.00101074 -2.43086e-06 0)
(0.00100888 -2.79639e-06 -3.53341e-38)
(0.00100678 -3.09163e-06 0)
(0.00100441 -3.54495e-06 0)
(0.001 -2.87676e-08 0)
(0.00100004 -8.62828e-08 0)
(0.00100013 -1.43533e-07 0)
(0.00100026 -2.00271e-07 0)
(0.00100042 -2.56249e-07 0)
(0.00100064 -3.1122e-07 0)
(0.00100089 -3.64947e-07 0)
(0.00100118 -4.17203e-07 0)
(0.00100151 -4.67776e-07 0)
(0.00100187 -5.16465e-07 0)
(0.00100227 -5.63085e-07 0)
(0.00100271 -6.07462e-07 0)
(0.00100317 -6.4944e-07 0)
(0.00100367 -6.88868e-07 0)
(0.00100419 -7.25616e-07 0)
(0.00100474 -7.59555e-07 0)
(0.00100531 -7.90579e-07 0)
(0.00100591 -8.18575e-07 0)
(0.00100652 -8.43456e-07 0)
(0.00100715 -8.65116e-07 0)
(0.0010078 -8.83486e-07 0)
(0.00100845 -8.98454e-07 0)
(0.00100911 -9.09967e-07 0)
(0.00100978 -9.17901e-07 0)
(0.00101046 -9.22215e-07 0)
(0.00101113 -9.22757e-07 0)
(0.0010118 -9.19506e-07 0)
(0.00101247 -9.12259e-07 0)
(0.00101313 -9.01029e-07 0)
(0.00101378 -8.85532e-07 0)
(0.00101441 -8.65836e-07 0)
(0.00101503 -8.41531e-07 0)
(0.00101562 -8.12786e-07 0)
(0.00101619 -7.78997e-07 0)
(0.00101673 -7.405e-07 0)
(0.00101724 -6.9639e-07 0)
(0.00101772 -6.47287e-07 0)
(0.00101815 -5.91818e-07 0)
(0.00101854 -5.3108e-07 0)
(0.00101888 -4.62959e-07 0)
(0.00101917 -3.89351e-07 0)
(0.00101939 -3.0697e-07 0)
(0.00101956 -2.19025e-07 0)
(0.00101965 -1.20378e-07 0)
(0.00101966 -1.63809e-08 0)
(0.00101959 1.01086e-07 0)
(0.00101944 2.23265e-07 0)
(0.00101918 3.63127e-07 0)
(0.00101881 5.06151e-07 0)
(0.00101833 6.72967e-07 0)
(0.00101772 8.39679e-07 0)
(0.00101697 1.03937e-06 0)
(0.00101608 1.23283e-06 0)
(0.00101502 1.4734e-06 0)
(0.00101379 1.69674e-06 0)
(0.00101236 1.98919e-06 0)
(0.00101073 2.24505e-06 0)
(0.00100887 2.60457e-06 3.53341e-38)
(0.00100677 2.89343e-06 0)
(0.0010044 3.34017e-06 0)
(0.001 -8.6828e-08 0)
(0.00100005 -2.60219e-07 0)
(0.00100013 -4.32606e-07 0)
(0.00100026 -6.03238e-07 0)
(0.00100044 -7.71363e-07 0)
(0.00100065 -9.36239e-07 0)
(0.00100091 -1.09715e-06 0)
(0.00100121 -1.25343e-06 0)
(0.00100155 -1.40442e-06 0)
(0.00100193 -1.54955e-06 0)
(0.00100234 -1.68825e-06 0)
(0.00100279 -1.82002e-06 0)
(0.00100327 -1.94439e-06 0)
(0.00100378 -2.06094e-06 0)
(0.00100432 -2.16929e-06 0)
(0.00100488 -2.26906e-06 0)
(0.00100547 -2.35996e-06 0)
(0.00100608 -2.44166e-06 0)
(0.00100671 -2.51392e-06 0)
(0.00100736 -2.57644e-06 0)
(0.00100802 -2.62902e-06 0)
(0.0010087 -2.67135e-06 0)
(0.00100938 -2.70329e-06 0)
(0.00101007 -2.72447e-06 0)
(0.00101076 -2.7348e-06 0)
(0.00101146 -2.73383e-06 0)
(0.00101215 -2.7215e-06 0)
(0.00101284 -2.69723e-06 0)
(0.00101352 -2.66106e-06 0)
(0.00101419 -2.61218e-06 0)
(0.00101485 -2.55075e-06 0)
(0.00101549 -2.47564e-06 0)
(0.00101611 -2.38727e-06 0)
(0.0010167 -2.28395e-06 0)
(0.00101727 -2.16658e-06 0)
(0.00101781 -2.03262e-06 0)
(0.00101832 -1.88375e-06 0)
(0.00101878 -1.71612e-06 0)
(0.0010192 -1.53272e-06 0)
(0.00101958 -1.32764e-06 0)
(0.0010199 -1.10606e-06 0)
(0.00102017 -8.58811e-07 0)
(0.00102037 -5.9469e-07 0)
(0.00102051 -2.99336e-07 0)
(0.00102057 1.25205e-08 0)
(0.00102056 3.635e-07 0)
(0.00102045 7.29213e-07 0)
(0.00102026 1.14592e-06 0)
(0.00101995 1.57327e-06 0)
(0.00101954 2.0689e-06 0)
(0.00101901 2.56636e-06 0)
(0.00101835 3.15797e-06 0)
(0.00101755 3.73474e-06 0)
(0.00101659 4.44527e-06 0)
(0.00101547 5.11086e-06 0)
(0.00101417 5.97171e-06 0)
(0.00101266 6.73436e-06 0)
(0.00101096 7.78854e-06 0)
(0.001009 8.65078e-06 0)
(0.00100681 9.95484e-06 0)
(0.001 -1.47652e-07 0)
(0.00100005 -4.42421e-07 0)
(0.00100014 -7.35377e-07 0)
(0.00100028 -1.02522e-06 0)
(0.00100047 -1.31064e-06 0)
(0.0010007 -1.59037e-06 0)
(0.00100097 -1.86317e-06 0)
(0.00100129 -2.1279e-06 0)
(0.00100165 -2.38347e-06 0)
(0.00100205 -2.62889e-06 0)
(0.00100249 -2.86323e-06 0)
(0.00100296 -3.08567e-06 0)
(0.00100347 -3.29545e-06 0)
(0.00100401 -3.49187e-06 0)
(0.00100458 -3.67434e-06 0)
(0.00100517 -3.84226e-06 0)
(0.00100579 -3.99518e-06 0)
(0.00100644 -4.13259e-06 0)
(0.0010071 -4.25411e-06 0)
(0.00100779 -4.3593e-06 0)
(0.00100849 -4.44785e-06 0)
(0.0010092 -4.51932e-06 0)
(0.00100992 -4.57344e-06 0)
(0.00101065 -4.60971e-06 0)
(0.00101138 -4.62795e-06 0)
(0.00101211 -4.62749e-06 0)
(0.00101285 -4.60824e-06 0)
(0.00101358 -4.56933e-06 0)
(0.00101431 -4.51075e-06 0)
(0.00101502 -4.43132e-06 0)
(0.00101573 -4.33122e-06 0)
(0.00101641 -4.20876e-06 0)
(0.00101708 -4.06449e-06 0)
(0.00101773 -3.89591e-06 0)
(0.00101836 -3.70423e-06 0)
(0.00101895 -3.48571e-06 0)
(0.00101951 -3.24265e-06 0)
(0.00102004 -2.96943e-06 0)
(0.00102053 -2.67019e-06 0)
(0.00102097 -2.33635e-06 0)
(0.00102137 -1.97515e-06 0)
(0.00102171 -1.5733e-06 0)
(0.001022 -1.14317e-06 0)
(0.00102223 -6.64045e-07 0)
(0.00102238 -1.56717e-07 0)
(0.00102247 4.11409e-07 0)
(0.00102247 1.00584e-06 0)
(0.00102239 1.67844e-06 0)
(0.00102222 2.37228e-06 0)
(0.00102195 3.16968e-06 0)
(0.00102156 3.97672e-06 0)
(0.00102107 4.92492e-06 0)
(0.00102043 5.86023e-06 0)
(0.00101968 6.99388e-06 0)