/*--------------------------------*- C++ -*----------------------------------*\
| =========                 |                                                 |
| \\      /  F ield         | OpenFOAM: The Open Source CFD Toolbox           |
|  \\    /   O peration     | Version:  2312                                  |
|   \\  /    A nd           | Website:  www.openfoam.com                      |
|    \\/     M anipulation  |                                                 |
\*---------------------------------------------------------------------------*/
FoamFile
{
    version     2.0;
    format      ascii;
    arch        "LSB;label=32;scalar=64";
    class       volVectorField;
    location    "131000";
    object      U;
}
// * * * * * * * * * * * * * * * * * * * * * * * * * * * * * * * * * * * * * //

dimensions      [0 1 -1 0 0 0 0];

internalField   nonuniform List<vector> 
2685
(
(0.000786231 -2.82544e-05 0)
(0.000805781 -1.54103e-05 0)
(0.000796473 -7.27411e-06 0)
(0.000781496 1.77782e-07 0)
(0.000766507 7.12729e-06 0)
(0.000751167 1.30904e-05 0)
(0.000734065 1.78906e-05 0)
(0.000714423 2.17016e-05 0)
(0.000692168 2.48267e-05 0)
(0.000667611 2.75295e-05 0)
(0.000641137 2.99583e-05 0)
(0.000612983 3.21658e-05 0)
(0.000583238 3.41475e-05 0)
(0.000551923 3.58696e-05 0)
(0.000519078 3.72845e-05 0)
(0.000484796 3.8334e-05 0)
(0.000449229 3.8947e-05 0)
(0.000412571 3.90396e-05 0)
(0.000375061 3.8516e-05 0)
(0.000336988 3.72717e-05 0)
(0.000298704 3.52046e-05 0)
(0.000260616 3.22369e-05 0)
(0.000223185 2.83507e-05 0)
(0.00018689 2.36288e-05 0)
(0.000152187 1.82685e-05 0)
(0.000119482 1.24996e-05 0)
(8.91502e-05 6.46889e-06 0)
(6.1533e-05 2.63026e-07 0)
(3.69095e-05 -5.95347e-06 0)
(1.54468e-05 -1.18955e-05 0)
(-2.78166e-06 -1.72511e-05 0)
(-1.76973e-05 -2.182e-05 0)
(-2.95637e-05 -2.55828e-05 0)
(-3.86726e-05 -2.8515e-05 0)
(-4.52558e-05 -3.06164e-05 0)
(-4.96138e-05 -3.18676e-05 0)
(-5.21252e-05 -3.22698e-05 0)
(-5.31587e-05 -3.1859e-05 0)
(-5.28994e-05 -3.07339e-05 0)
(-5.17099e-05 -2.90999e-05 0)
(-4.98503e-05 -2.70566e-05 0)
(-4.76185e-05 -2.46386e-05 0)
(-4.52754e-05 -2.18828e-05 0)
(-4.30388e-05 -1.88418e-05 0)
(-4.10815e-05 -1.55859e-05 0)
(-3.95409e-05 -1.22024e-05 0)
(-3.85108e-05 -8.78913e-06 0)
(-3.80346e-05 -5.45181e-06 0)
(-3.80848e-05 -2.29797e-06 0)
(-3.85772e-05 5.53401e-07 0)
(-3.94584e-05 3.00289e-06 0)
(-4.06268e-05 5.00272e-06 0)
(-4.19594e-05 6.52319e-06 0)
(-4.33219e-05 7.5571e-06 0)
(-4.45554e-05 8.1218e-06 0)
(-4.54917e-05 8.26067e-06 0)
(-4.59869e-05 8.04803e-06 0)
(-4.59653e-05 7.56243e-06 0)
(-4.5413e-05 6.87786e-06 0)
(-4.43527e-05 6.06191e-06 0)
(-4.28161e-05 5.15557e-06 0)
(-4.08559e-05 4.19595e-06 0)
(-3.85354e-05 3.21896e-06 0)
(-3.59206e-05 2.25509e-06 0)
(-3.30794e-05 1.3281e-06 0)
(-3.00807e-05 4.56911e-07 0)
(-2.69939e-05 -3.42878e-07 0)
(-2.38873e-05 -1.05801e-06 0)
(-2.08271e-05 -1.67705e-06 0)
(-1.78755e-05 -2.19005e-06 0)
(-1.50885e-05 -2.58881e-06 0)
(-1.25151e-05 -2.86832e-06 0)
(-1.01952e-05 -3.02863e-06 0)
(-8.1516e-06 -3.07601e-06 0)
(-6.40237e-06 -3.02869e-06 0)
(-4.96879e-06 -2.90685e-06 0)
(-3.85937e-06 -2.73209e-06 0)
(-3.06412e-06 -2.51948e-06 0)
(-2.56609e-06 -2.27466e-06 0)
(-2.34835e-06 -1.99776e-06 0)
(-2.37781e-06 -1.69124e-06 0)
(-2.61769e-06 -1.36592e-06 0)
(-3.04546e-06 -1.03253e-06 0)
(-3.6413e-06 -6.99078e-07 0)
(-4.38427e-06 -3.7268e-07 0)
(-5.25313e-06 -5.99727e-08 0)
(-6.22639e-06 2.32711e-07 0)
(-7.2821e-06 4.99375e-07 0)
(-8.39762e-06 7.34557e-07 0)
(-9.54956e-06 9.33638e-07 0)
(0.00135144 1.6776e-05 0)
(0.00134252 2.67123e-05 0)
(0.00133747 3.45789e-05 0)
(0.00133282 4.23599e-05 0)
(0.00132697 5.00539e-05 0)
(0.00131957 5.73275e-05 0)
(0.00131069 6.40344e-05 0)
(0.00130049 7.02273e-05 0)
(0.00128902 7.60492e-05 0)
(0.00127627 8.16421e-05 0)
(0.0012622 8.7093e-05 0)
(0.00124676 9.24339e-05 0)
(0.00122992 9.76616e-05 0)
(0.00121164 0.000102752 0)
(0.00119192 0.000107662 0)
(0.00117078 0.000112333 0)
(0.00114822 0.000116684 0)
(0.0011243 0.000120615 0)
(0.00109905 0.000124008 0)
(0.00107248 0.000126734 0)
(0.00104461 0.00012866 0)
(0.00101545 0.000129656 0)
(0.000984973 0.000129609 0)
(0.000953191 0.000128432 0)
(0.000920094 0.000126075 0)
(0.000885733 0.000122534 0)
(0.00085019 0.000117845 0)
(0.00081364 0.000112091 0)
(0.000776253 0.000105393 0)
(0.000738229 9.79222e-05 0)
(0.000699688 8.98572e-05 0)
(0.000660872 8.14349e-05 0)
(0.000621898 7.28206e-05 0)
(0.000583094 6.42292e-05 0)
(0.000544609 5.58647e-05 0)
(0.000506969 4.79368e-05 0)
(0.000470452 4.06281e-05 0)
(0.000435258 3.39948e-05 0)
(0.00040183 2.81411e-05 0)
(0.000370066 2.31162e-05 0)
(0.00033996 1.88903e-05 0)
(0.000311672 1.54014e-05 0)
(0.000285302 1.25706e-05 0)
(0.000260898 1.03036e-05 0)
(0.000238491 8.49388e-06 0)
(0.000218077 7.02799e-06 0)
(0.000199627 5.79506e-06 0)
(0.000183092 4.6925e-06 0)
(0.000168392 3.62785e-06 0)
(0.00015543 2.53061e-06 0)
(0.000144094 1.38211e-06 0)
(0.000134279 2.13557e-07 0)
(0.000125848 -9.61642e-07 0)
(0.00011869 -2.20226e-06 0)
(0.000112694 -3.62857e-06 0)
(0.000107756 -5.31374e-06 0)
(0.000103733 -7.17858e-06 0)
(0.000100511 -9.04851e-06 0)
(9.80183e-05 -1.07698e-05 0)
(9.61227e-05 -1.22409e-05 0)
(9.47716e-05 -1.33946e-05 0)
(9.39163e-05 -1.4212e-05 0)
(9.34753e-05 -1.47086e-05 0)
(9.3382e-05 -1.49074e-05 0)
(9.35725e-05 -1.48274e-05 0)
(9.3989e-05 -1.44849e-05 0)
(9.45796e-05 -1.38969e-05 0)
(9.52972e-05 -1.30842e-05 0)
(9.60968e-05 -1.20724e-05 0)
(9.69346e-05 -1.08932e-05 0)
(9.77666e-05 -9.58327e-06 0)
(9.8547e-05 -8.18115e-06 0)
(9.92281e-05 -6.72786e-06 0)
(9.97577e-05 -5.26482e-06 0)
(0.000100089 -3.8374e-06 0)
(0.000100202 -2.4906e-06 0)
(0.000100109 -1.25382e-06 0)
(9.98479e-05 -1.40962e-07 0)
(9.94578e-05 8.36194e-07 0)
(9.89575e-05 1.67524e-06 0)
(9.83489e-05 2.38916e-06 0)
(9.7641e-05 2.98479e-06 0)
(9.68531e-05 3.46896e-06 0)
(9.6006e-05 3.84982e-06 0)
(9.51171e-05 4.13535e-06 0)
(9.42027e-05 4.33259e-06 0)
(9.32797e-05 4.44733e-06 0)
(9.23655e-05 4.48399e-06 0)
(9.14792e-05 4.44553e-06 0)
(9.06419e-05 4.33388e-06 0)
(0.00155931 9.77144e-06 0)
(0.0015543 1.93004e-05 0)
(0.00155252 2.86821e-05 0)
(0.00155164 3.76215e-05 0)
(0.00155029 4.62383e-05 0)
(0.00154806 5.46949e-05 0)
(0.00154492 6.30876e-05 0)
(0.00154098 7.14412e-05 0)
(0.00153638 7.97419e-05 0)
(0.00153117 8.79717e-05 0)
(0.00152533 9.61169e-05 0)
(0.00151883 0.000104166 0)
(0.00151159 0.000112099 0)
(0.00150357 0.000119889 0)
(0.00149474 0.000127492 0)
(0.00148505 0.000134841 0)
(0.00147446 0.000141852 0)
(0.00146292 0.000148421 0)
(0.00145039 0.000154432 0)
(0.00143682 0.000159765 0)
(0.00142214 0.0001643 0)
(0.0014063 0.000167933 0)
(0.00138923 0.000170576 0)
(0.00137089 0.000172174 0)
(0.00135121 0.000172699 0)
(0.00133018 0.000172166 0)
(0.00130776 0.000170604 0)
(0.00128399 0.000168075 0)
(0.00125886 0.000164649 0)
(0.00123248 0.00016043 0)
(0.00120487 0.000155531 0)
(0.00117619 0.000150091 0)
(0.00114655 0.000144266 0)
(0.00111618 0.000138181 0)
(0.00108526 0.000131962 0)
(0.00105405 0.000125716 0)
(0.00102277 0.000119508 0)
(0.000991556 0.000113374 0)
(0.000960581 0.000107337 0)
(0.000929998 0.000101408 0)
(0.000899959 9.56191e-05 0)
(0.00087064 9.00005e-05 0)
(0.000842203 8.45679e-05 0)
(0.000814794 7.93352e-05 0)
(0.000788521 7.43074e-05 0)
(0.000763472 6.94804e-05 0)
(0.000739696 6.48513e-05 0)
(0.000717197 6.0404e-05 0)
(0.000695975 5.61106e-05 0)
(0.000675987 5.19336e-05 0)
(0.000657169 4.78459e-05 0)
(0.000639464 4.38265e-05 0)
(0.000622751 3.98603e-05 0)
(0.000606987 3.59336e-05 0)
(0.000592146 3.20166e-05 0)
(0.000578036 2.81274e-05 0)
(0.000564372 2.43054e-05 0)
(0.00055112 2.06076e-05 0)
(0.000538333 1.71155e-05 0)
(0.000525964 1.38699e-05 0)
(0.000514003 1.08871e-05 0)
(0.000502424 8.16736e-06 0)
(0.000491205 5.70814e-06 0)
(0.000480335 3.5076e-06 0)
(0.000469807 1.5596e-06 0)
(0.000459625 -1.44194e-07 0)
(0.000449793 -1.60788e-06 0)
(0.00044032 -2.83024e-06 0)
(0.000431218 -3.80638e-06 0)
(0.000422504 -4.52614e-06 0)
(0.000414189 -4.97411e-06 0)
(0.00040629 -5.12829e-06 0)
(0.000398821 -4.98605e-06 0)
(0.000391793 -4.57797e-06 0)
(0.000385212 -3.93154e-06 0)
(0.000379114 -3.09876e-06 0)
(0.000373529 -2.19575e-06 0)
(0.000368428 -1.34347e-06 0)
(0.000363761 -5.73578e-07 0)
(0.00035951 1.28438e-07 0)
(0.000355663 7.7537e-07 0)
(0.000352189 1.37055e-06 0)
(0.000349064 1.91545e-06 0)
(0.000346264 2.40896e-06 0)
(0.000343765 2.84667e-06 0)
(0.000341548 3.22095e-06 0)
(0.000339591 3.52138e-06 0)
(0.000337877 3.73469e-06 0)
(0.000336388 3.84548e-06 0)
(0.000335108 3.83895e-06 0)
(0.00164775 2.06411e-05 0)
(0.00164426 3.01475e-05 0)
(0.00164181 3.96308e-05 0)
(0.00164027 4.87361e-05 0)
(0.0016393 5.75218e-05 0)
(0.00163856 6.6156e-05 0)
(0.00163777 7.47795e-05 0)
(0.0016368 8.34669e-05 0)
(0.0016356 9.22302e-05 0)
(0.00163417 0.000101045 0)
(0.00163253 0.000109875 0)
(0.00163066 0.000118685 0)
(0.00162855 0.000127444 0)
(0.00162615 0.000136113 0)
(0.00162342 0.000144649 0)
(0.00162028 0.000152995 0)
(0.00161669 0.000161086 0)
(0.00161261 0.000168849 0)
(0.00160798 0.000176203 0)
(0.00160275 0.000183065 0)
(0.00159686 0.000189351 0)
(0.00159024 0.000194981 0)
(0.00158282 0.000199881 0)
(0.00157453 0.000203988 0)
(0.00156527 0.000207252 0)
(0.00155499 0.000209635 0)
(0.0015436 0.000211114 0)
(0.00153106 0.00021168 0)
(0.00151735 0.00021134 0)
(0.00150245 0.000210122 0)
(0.00148638 0.000208073 0)
(0.00146918 0.000205253 0)
(0.00145094 0.000201725 0)
(0.00143172 0.000197554 0)
(0.00141163 0.000192779 0)
(0.00139075 0.000187453 0)
(0.00136919 0.000181629 0)
(0.00134708 0.000175369 0)
(0.00132456 0.000168744 0)
(0.00130179 0.000161828 0)
(0.00127893 0.000154701 0)
(0.00125613 0.000147435 0)
(0.00123356 0.000140097 0)
(0.00121133 0.000132741 0)
(0.00118959 0.000125414 0)
(0.00116843 0.000118154 0)
(0.00114795 0.00011099 0)
(0.00112819 0.00010395 0)
(0.00110919 9.70593e-05 0)
(0.00109099 9.03559e-05 0)
(0.00107361 8.38691e-05 0)
(0.00105708 7.76268e-05 0)
(0.00104137 7.16514e-05 0)
(0.00102649 6.59619e-05 0)
(0.00101239 6.05749e-05 0)
(0.00099902 5.55e-05 0)
(0.000986399 5.0786e-05 0)
(0.000974501 4.64939e-05 0)
(0.00096327 4.26422e-05 0)
(0.000952611 3.92203e-05 0)
(0.000942436 3.62098e-05 0)
(0.00093269 3.35969e-05 0)
(0.000923337 3.13719e-05 0)
(0.00091433 2.9529e-05 0)
(0.000905613 2.8044e-05 0)
(0.000897141 2.68674e-05 0)
(0.000888868 2.59471e-05 0)
(0.000880762 2.52385e-05 0)
(0.000872778 2.47061e-05 0)
(0.000864885 2.43108e-05 0)
(0.000857062 2.40137e-05 0)
(0.000849285 2.37772e-05 0)
(0.000841574 2.35608e-05 0)
(0.00083393 2.3334e-05 0)
(0.000826358 2.30653e-05 0)
(0.000818911 2.27133e-05 0)
(0.000811509 2.22405e-05 0)
(0.000804068 2.16362e-05 0)
(0.000796656 2.09278e-05 0)
(0.000789333 2.01526e-05 0)
(0.000782108 1.93225e-05 0)
(0.00077499 1.84416e-05 0)
(0.000768004 1.75166e-05 0)
(0.000761183 1.65561e-05 0)
(0.000754555 1.55664e-05 0)
(0.000748148 1.45513e-05 0)
(0.000741991 1.35139e-05 0)
(0.000736109 1.24566e-05 0)
(0.000730526 1.13757e-05 0)
(0.00072526 1.02559e-05 0)
(0.0016222 2.72613e-05 0)
(0.0016208 3.36938e-05 0)
(0.00162006 4.07936e-05 0)
(0.00162 4.84207e-05 0)
(0.00162048 5.64117e-05 0)
(0.00162127 6.46442e-05 0)
(0.00162218 7.30512e-05 0)
(0.00162308 8.16047e-05 0)
(0.00162388 9.02943e-05 0)
(0.00162457 9.91083e-05 0)
(0.00162517 0.000108027 0)
(0.00162567 0.000117018 0)
(0.00162608 0.000126042 0)
(0.00162638 0.000135053 0)
(0.00162655 0.000143999 0)
(0.00162657 0.000152828 0)
(0.0016264 0.000161484 0)
(0.00162603 0.000169908 0)
(0.00162541 0.000178032 0)
(0.00162453 0.000185787 0)
(0.00162335 0.000193103 0)
(0.00162183 0.000199909 0)
(0.00161992 0.000206139 0)
(0.00161757 0.000211732 0)
(0.00161472 0.000216636 0)
(0.0016113 0.000220807 0)
(0.00160725 0.000224216 0)
(0.0016025 0.000226845 0)
(0.00159703 0.000228687 0)
(0.00159079 0.000229743 0)
(0.00158376 0.000230018 0)
(0.00157592 0.000229527 0)
(0.00156724 0.000228281 0)
(0.00155773 0.000226296 0)
(0.0015474 0.000223591 0)
(0.00153631 0.000220189 0)
(0.00152453 0.000216131 0)
(0.00151212 0.000211467 0)
(0.00149916 0.000206253 0)
(0.00148573 0.000200546 0)
(0.00147193 0.0001944 0)
(0.00145782 0.000187869 0)
(0.0014435 0.000181003 0)
(0.00142905 0.000173855 0)
(0.00141456 0.000166474 0)
(0.0014001 0.00015891 0)
(0.00138575 0.000151212 0)
(0.00137158 0.000143433 0)
(0.00135767 0.000135629 0)
(0.0013441 0.00012786 0)
(0.00133088 0.000120181 0)
(0.00131806 0.000112637 0)
(0.00130565 0.000105273 0)
(0.00129369 9.81299e-05 0)
(0.0012822 9.12468e-05 0)
(0.0012712 8.46631e-05 0)
(0.00126072 7.84103e-05 0)
(0.00125072 7.25112e-05 0)
(0.00124117 6.6976e-05 0)
(0.00123205 6.18149e-05 0)
(0.00122338 5.70415e-05 0)
(0.0012152 5.26689e-05 0)
(0.00120755 4.87082e-05 0)
(0.0012004 4.51593e-05 0)
(0.00119372 4.2017e-05 0)
(0.00118746 3.92834e-05 0)
(0.00118161 3.69552e-05 0)
(0.00117618 3.50182e-05 0)
(0.00117116 3.34482e-05 0)
(0.00116652 3.22185e-05 0)
(0.00116222 3.12993e-05 0)
(0.00115823 3.06563e-05 0)
(0.00115452 3.02536e-05 0)
(0.00115105 3.00452e-05 0)
(0.00114778 2.99877e-05 0)
(0.00114467 3.00327e-05 0)
(0.00114168 3.01231e-05 0)
(0.00113881 3.02441e-05 0)
(0.00113606 3.03802e-05 0)
(0.00113337 3.04876e-05 0)
(0.00113066 3.05238e-05 0)
(0.00112791 3.04631e-05 0)
(0.0011251 3.02898e-05 0)
(0.00112222 2.999e-05 0)
(0.00111926 2.95504e-05 0)
(0.00111621 2.896e-05 0)
(0.00111308 2.82121e-05 0)
(0.00110985 2.73013e-05 0)
(0.00110656 2.62262e-05 0)
(0.00110319 2.49868e-05 0)
(0.00163653 2.64477e-05 0)
(0.00163738 3.27091e-05 0)
(0.00163882 3.96127e-05 0)
(0.00164042 4.71237e-05 0)
(0.00164188 5.51275e-05 0)
(0.00164306 6.35023e-05 0)
(0.00164393 7.21567e-05 0)
(0.00164447 8.10337e-05 0)
(0.0016447 9.00994e-05 0)
(0.00164463 9.93296e-05 0)
(0.00164426 0.000108697 0)
(0.00164357 0.000118165 0)
(0.00164256 0.000127689 0)
(0.00164121 0.000137212 0)
(0.00163951 0.000146676 0)
(0.00163745 0.000156014 0)
(0.00163504 0.000165158 0)
(0.00163227 0.000174039 0)
(0.00162916 0.000182586 0)
(0.00162572 0.000190732 0)
(0.00162198 0.000198412 0)
(0.00161795 0.000205563 0)
(0.00161368 0.000212132 0)
(0.00160916 0.00021807 0)
(0.00160442 0.000223337 0)
(0.00159949 0.000227902 0)
(0.00159438 0.000231747 0)
(0.0015891 0.000234864 0)
(0.00158366 0.00023725 0)
(0.00157805 0.000238909 0)
(0.00157226 0.000239847 0)
(0.00156629 0.000240076 0)
(0.00156011 0.000239614 0)
(0.00155372 0.000238486 0)
(0.0015471 0.000236719 0)
(0.00154026 0.000234342 0)
(0.00153321 0.000231381 0)
(0.00152595 0.000227858 0)
(0.0015185 0.000223793 0)
(0.00151086 0.000219205 0)
(0.00150302 0.000214114 0)
(0.001495 0.000208546 0)
(0.00148682 0.000202533 0)
(0.00147849 0.000196108 0)
(0.00147004 0.000189314 0)
(0.0014615 0.000182196 0)
(0.00145289 0.000174805 0)
(0.00144426 0.000167196 0)
(0.00143564 0.000159424 0)
(0.00142707 0.000151539 0)
(0.00141856 0.000143593 0)
(0.00141014 0.000135644 0)
(0.00140184 0.00012775 0)
(0.00139369 0.000119972 0)
(0.00138575 0.000112363 0)
(0.00137802 0.000104975 0)
(0.00137056 9.78491e-05 0)
(0.00136336 9.10254e-05 0)
(0.00135647 8.4548e-05 0)
(0.00134989 7.84631e-05 0)
(0.00134367 7.28082e-05 0)
(0.00133785 6.76014e-05 0)
(0.00133244 6.28467e-05 0)
(0.00132745 5.85361e-05 0)
(0.00132292 5.46595e-05 0)
(0.00131887 5.12148e-05 0)
(0.0013153 4.81926e-05 0)
(0.00131218 4.55681e-05 0)
(0.0013095 4.3308e-05 0)
(0.00130725 4.13781e-05 0)
(0.00130542 3.97458e-05 0)
(0.00130399 3.83785e-05 0)
(0.00130296 3.72428e-05 0)
(0.00130229 3.63067e-05 0)
(0.00130197 3.55363e-05 0)
(0.00130197 3.49009e-05 0)
(0.00130227 3.4375e-05 0)
(0.00130285 3.39247e-05 0)
(0.00130362 3.35153e-05 0)
(0.00130451 3.31144e-05 0)
(0.00130551 3.27006e-05 0)
(0.0013066 3.22623e-05 0)
(0.00130776 3.17894e-05 0)
(0.00130895 3.12722e-05 0)
(0.00131013 3.07016e-05 0)
(0.00131127 3.00698e-05 0)
(0.00131235 2.93707e-05 0)
(0.00131333 2.85978e-05 0)
(0.00131419 2.77453e-05 0)
(0.0013149 2.68077e-05 0)
(0.00174319 1.87311e-05 0)
(0.00174377 2.6642e-05 0)
(0.00174498 3.47182e-05 0)
(0.00174637 4.2962e-05 0)
(0.00174764 5.14502e-05 0)
(0.00174865 6.02624e-05 0)
(0.00174932 6.94422e-05 0)
(0.00174966 7.89903e-05 0)
(0.00174966 8.88758e-05 0)
(0.0017493 9.90502e-05 0)
(0.00174856 0.000109458 0)
(0.00174739 0.000120039 0)
(0.00174573 0.000130735 0)
(0.00174354 0.000141482 0)
(0.00174074 0.000152214 0)
(0.00173728 0.000162854 0)
(0.00173311 0.000173318 0)
(0.00172821 0.00018352 0)
(0.00172253 0.000193372 0)
(0.00171608 0.00020279 0)
(0.00170885 0.000211691 0)
(0.00170086 0.000219995 0)
(0.00169213 0.000227631 0)
(0.00168269 0.000234534 0)
(0.0016726 0.000240649 0)
(0.00166191 0.000245931 0)
(0.0016507 0.000250345 0)
(0.00163904 0.000253867 0)
(0.00162703 0.000256484 0)
(0.00161475 0.000258193 0)
(0.00160231 0.000259006 0)
(0.0015898 0.000258945 0)
(0.0015773 0.000258046 0)
(0.00156491 0.000256359 0)
(0.00155271 0.000253939 0)
(0.00154078 0.000250853 0)
(0.00152917 0.000247167 0)
(0.00151791 0.000242934 0)
(0.00150703 0.000238194 0)
(0.00149655 0.000232987 0)
(0.00148647 0.000227352 0)
(0.00147681 0.000221328 0)
(0.00146754 0.000214953 0)
(0.00145867 0.000208259 0)
(0.00145016 0.000201281 0)
(0.001442 0.000194053 0)
(0.00143416 0.000186612 0)
(0.00142664 0.000178991 0)
(0.00141939 0.000171226 0)
(0.0014124 0.000163354 0)
(0.00140566 0.000155417 0)
(0.00139917 0.00014746 0)
(0.00139291 0.000139532 0)
(0.0013869 0.000131683 0)
(0.00138114 0.000123956 0)
(0.00137564 0.000116394 0)
(0.00137041 0.000109038 0)
(0.00136546 0.000101925 0)
(0.00136083 9.50915e-05 0)
(0.00135652 8.85697e-05 0)
(0.00135256 8.23858e-05 0)
(0.00134897 7.65586e-05 0)
(0.00134578 7.10971e-05 0)
(0.001343 6.60084e-05 0)
(0.00134067 6.12956e-05 0)
(0.00133878 5.69489e-05 0)
(0.00133734 5.29543e-05 0)
(0.00133635 4.93002e-05 0)
(0.0013358 4.59771e-05 0)
(0.0013357 4.29746e-05 0)
(0.00133605 4.02804e-05 0)
(0.00133684 3.78793e-05 0)
(0.00133806 3.57538e-05 0)
(0.00133968 3.38846e-05 0)
(0.00134169 3.22488e-05 0)
(0.00134404 3.08217e-05 0)
(0.00134671 2.9579e-05 0)
(0.00134966 2.84912e-05 0)
(0.00135284 2.7532e-05 0)
(0.00135623 2.66914e-05 0)
(0.00135978 2.59603e-05 0)
(0.00136347 2.53218e-05 0)
(0.00136726 2.47561e-05 0)
(0.0013711 2.42447e-05 0)
(0.00137496 2.37709e-05 0)
(0.00137881 2.33188e-05 0)
(0.0013826 2.28739e-05 0)
(0.0013863 2.24219e-05 0)
(0.00138988 2.19504e-05 0)
(0.0013933 2.1449e-05 0)
(0.00174005 1.75098e-05 0)
(0.00173974 2.50018e-05 0)
(0.00174014 3.26971e-05 0)
(0.00174135 4.06005e-05 0)
(0.00174328 4.88066e-05 0)
(0.00174576 5.74192e-05 0)
(0.00174858 6.65067e-05 0)
(0.00175159 7.6095e-05 0)
(0.00175471 8.61763e-05 0)
(0.00175786 9.67217e-05 0)
(0.00176102 0.000107689 0)
(0.00176412 0.000119022 0)
(0.00176711 0.000130657 0)
(0.00176989 0.000142529 0)
(0.00177235 0.000154569 0)
(0.00177438 0.000166695 0)
(0.00177585 0.000178818 0)
(0.00177665 0.000190842 0)
(0.00177668 0.000202663 0)
(0.00177584 0.000214175 0)
(0.00177406 0.000225271 0)
(0.00177125 0.000235844 0)
(0.00176734 0.000245789 0)
(0.00176228 0.000255006 0)
(0.00175602 0.0002634 0)
(0.00174856 0.000270885 0)
(0.00173989 0.000277385 0)
(0.00173002 0.000282837 0)
(0.00171899 0.000287189 0)
(0.00170688 0.000290407 0)
(0.00169374 0.00029247 0)
(0.00167971 0.000293376 0)
(0.00166491 0.00029314 0)
(0.00164949 0.000291794 0)
(0.00163361 0.000289389 0)
(0.00161744 0.000285984 0)
(0.0016011 0.000281655 0)
(0.00158474 0.000276486 0)
(0.00156846 0.000270566 0)
(0.0015524 0.000263982 0)
(0.0015367 0.000256821 0)
(0.00152145 0.000249171 0)
(0.00150674 0.000241113 0)
(0.00149264 0.000232723 0)
(0.0014792 0.000224069 0)
(0.00146646 0.000215214 0)
(0.00145443 0.000206214 0)
(0.00144315 0.00019712 0)
(0.00143259 0.000187977 0)
(0.00142276 0.00017883 0)
(0.00141365 0.000169719 0)
(0.00140523 0.000160681 0)
(0.0013975 0.000151752 0)
(0.00139042 0.000142962 0)
(0.00138399 0.000134341 0)
(0.00137817 0.000125916 0)
(0.00137295 0.000117715 0)
(0.00136833 0.000109762 0)
(0.00136427 0.00010208 0)
(0.00136079 9.46912e-05 0)
(0.00135786 8.76119e-05 0)
(0.00135548 8.08584e-05 0)
(0.00135364 7.44433e-05 0)
(0.00135234 6.83762e-05 0)
(0.00135157 6.26624e-05 0)
(0.00135131 5.73036e-05 0)
(0.00135156 5.23019e-05 0)
(0.0013523 4.76603e-05 0)
(0.00135351 4.33799e-05 0)
(0.00135518 3.94574e-05 0)
(0.00135728 3.58844e-05 0)
(0.00135979 3.26496e-05 0)
(0.00136268 2.97393e-05 0)
(0.00136593 2.71381e-05 0)
(0.00136948 2.48286e-05 0)
(0.00137333 2.27918e-05 0)
(0.00137743 2.10082e-05 0)
(0.00138174 1.94585e-05 0)
(0.00138624 1.81247e-05 0)
(0.00139089 1.6989e-05 0)
(0.00139564 1.60314e-05 0)
(0.00140048 1.52304e-05 0)
(0.00140537 1.45646e-05 0)
(0.00141027 1.40163e-05 0)
(0.00141516 1.35685e-05 0)
(0.00141999 1.32056e-05 0)
(0.00142474 1.29127e-05 0)
(0.00142938 1.26759e-05 0)
(0.00143387 1.24828e-05 0)
(0.0014382 1.23236e-05 0)
(0.0015031 2.05196e-05 0)
(0.00150378 2.51481e-05 0)
(0.00150562 3.05024e-05 0)
(0.00150881 3.65648e-05 0)
(0.00151334 4.32645e-05 0)
(0.00151902 5.05385e-05 0)
(0.00152567 5.83635e-05 0)
(0.00153313 6.67536e-05 0)
(0.00154132 7.57348e-05 0)
(0.00155019 8.532e-05 0)
(0.00155968 9.5501e-05 0)
(0.00156973 0.000106259 0)
(0.00158025 0.000117561 0)
(0.00159117 0.000129358 0)
(0.00160237 0.000141587 0)
(0.00161369 0.000154177 0)
(0.00162499 0.000167051 0)
(0.00163612 0.00018012 0)
(0.00164694 0.000193287 0)
(0.0016573 0.000206442 0)
(0.00166706 0.000219462 0)
(0.00167608 0.00023222 0)
(0.00168422 0.000244587 0)
(0.00169134 0.000256435 0)
(0.00169732 0.000267634 0)
(0.00170205 0.000278062 0)
(0.00170543 0.000287602 0)
(0.00170737 0.00029615 0)
(0.00170783 0.000303609 0)
(0.00170676 0.0003099 0)
(0.00170415 0.000314961 0)
(0.00170003 0.000318742 0)
(0.00169443 0.000321213 0)
(0.00168743 0.000322357 0)
(0.00167912 0.000322174 0)
(0.00166962 0.000320679 0)
(0.00165906 0.000317908 0)
(0.00164757 0.000313919 0)
(0.00163528 0.000308786 0)
(0.00162235 0.000302594 0)
(0.00160894 0.000295444 0)
(0.00159521 0.000287437 0)
(0.00158132 0.000278683 0)
(0.00156743 0.000269291 0)
(0.00155366 0.00025937 0)
(0.00154016 0.000249024 0)
(0.00152704 0.000238356 0)
(0.0015144 0.000227457 0)
(0.00150232 0.000216416 0)
(0.00149089 0.00020531 0)
(0.00148015 0.000194211 0)
(0.00147015 0.00018318 0)
(0.00146092 0.000172271 0)
(0.00145247 0.000161533 0)
(0.00144482 0.000151006 0)
(0.00143796 0.000140728 0)
(0.00143189 0.00013073 0)
(0.00142661 0.000121038 0)
(0.00142209 0.000111678 0)
(0.00141832 0.00010267 0)
(0.00141527 9.4032e-05 0)
(0.00141293 8.57794e-05 0)
(0.00141125 7.79257e-05 0)
(0.00141023 7.04818e-05 0)
(0.00140982 6.34559e-05 0)
(0.00140999 5.6854e-05 0)
(0.00141071 5.06799e-05 0)
(0.00141195 4.49351e-05 0)
(0.00141366 3.96183e-05 0)
(0.00141582 3.47247e-05 0)
(0.00141838 3.02467e-05 0)
(0.00142131 2.6174e-05 0)
(0.00142456 2.2495e-05 0)
(0.00142811 1.91962e-05 0)
(0.00143192 1.62621e-05 0)
(0.00143596 1.36754e-05 0)
(0.00144018 1.14161e-05 0)
(0.00144457 9.46152e-06 0)
(0.00144909 7.79234e-06 0)
(0.00145371 6.38919e-06 0)
(0.00145841 5.23415e-06 0)
(0.00146314 4.31027e-06 0)
(0.0014679 3.59961e-06 0)
(0.00147265 3.0805e-06 0)
(0.00147739 2.73234e-06 0)
(0.00148208 2.53697e-06 0)
(0.00148669 2.47854e-06 0)
(0.00149121 2.54178e-06 0)
(0.00149562 2.71259e-06 0)
(0.00149988 2.97862e-06 0)
(0.00110833 1.64528e-05 0)
(0.00111192 1.843e-05 0)
(0.0011171 2.13082e-05 0)
(0.00112368 2.49774e-05 0)
(0.00113149 2.93069e-05 0)
(0.0011405 3.42225e-05 0)
(0.00115071 3.97252e-05 0)
(0.00116213 4.58584e-05 0)
(0.00117472 5.26774e-05 0)
(0.00118843 6.02027e-05 0)
(0.00120321 6.84524e-05 0)
(0.00121907 7.74535e-05 0)
(0.00123593 8.72059e-05 0)
(0.00125368 9.76762e-05 0)
(0.00127222 0.000108819 0)
(0.00129143 0.000120584 0)
(0.00131117 0.000132914 0)
(0.00133131 0.000145739 0)
(0.0013517 0.00015898 0)
(0.00137217 0.000172541 0)
(0.00139257 0.000186316 0)
(0.00141275 0.000200189 0)
(0.00143255 0.000214031 0)
(0.00145182 0.000227704 0)
(0.0014704 0.000241065 0)
(0.00148814 0.000253967 0)
(0.0015049 0.000266266 0)
(0.00152054 0.000277823 0)
(0.00153494 0.000288506 0)
(0.00154798 0.000298191 0)
(0.00155958 0.000306767 0)
(0.00156967 0.000314136 0)
(0.00157818 0.000320215 0)
(0.0015851 0.000324937 0)
(0.0015904 0.000328251 0)
(0.00159413 0.000330125 0)
(0.00159632 0.000330541 0)
(0.00159702 0.000329499 0)
(0.00159631 0.000327029 0)
(0.00159429 0.000323186 0)
(0.00159109 0.000318046 0)
(0.00158682 0.000311693 0)
(0.00158163 0.000304227 0)
(0.00157565 0.000295758 0)
(0.00156903 0.000286402 0)
(0.00156192 0.000276279 0)
(0.00155446 0.000265508 0)
(0.0015468 0.000254207 0)
(0.00153905 0.000242492 0)
(0.00153135 0.00023047 0)
(0.0015238 0.000218242 0)
(0.0015165 0.000205904 0)
(0.00150954 0.00019354 0)
(0.00150297 0.000181229 0)
(0.00149687 0.000169042 0)
(0.00149126 0.000157042 0)
(0.00148619 0.000145284 0)
(0.00148166 0.000133818 0)
(0.00147769 0.000122686 0)
(0.00147428 0.000111926 0)
(0.00147141 0.000101571 0)
(0.00146907 9.165e-05 0)
(0.00146725 8.21881e-05 0)
(0.00146591 7.32061e-05 0)
(0.00146503 6.47212e-05 0)
(0.00146457 5.67464e-05 0)
(0.00146452 4.92911e-05 0)
(0.00146484 4.23604e-05 0)
(0.0014655 3.59561e-05 0)
(0.00146648 3.00758e-05 0)
(0.00146773 2.4713e-05 0)
(0.00146926 1.98573e-05 0)
(0.00147102 1.54947e-05 0)
(0.00147301 1.16065e-05 0)
(0.0014752 8.1732e-06 0)
(0.00147757 5.16972e-06 0)
(0.00148012 2.56877e-06 0)
(0.00148282 3.48293e-07 0)
(0.00148569 -1.5325e-06 0)
(0.00148871 -3.10285e-06 0)
(0.00149189 -4.38405e-06 0)
(0.0014952 -5.39464e-06 0)
(0.00149864 -6.15509e-06 0)
(0.00150219 -6.68873e-06 0)
(0.00150583 -7.01536e-06 0)
(0.00150956 -7.15207e-06 0)
(0.00151338 -7.11363e-06 0)
(0.00151725 -6.91229e-06 0)
(0.00152117 -6.55869e-06 0)
(0.00152512 -6.06267e-06 0)
(0.00068333 4.28478e-06 0)
(0.000689976 4.55711e-06 0)
(0.000697807 5.16367e-06 0)
(0.000706593 6.08409e-06 0)
(0.000716481 7.41039e-06 0)
(0.00072763 9.26983e-06 0)
(0.000740094 1.17816e-05 0)
(0.00075393 1.50518e-05 0)
(0.000769056 1.9136e-05 0)
(0.000785337 2.40804e-05 0)
(0.000802887 2.99316e-05 0)
(0.000821708 3.6694e-05 0)
(0.000841698 4.43491e-05 0)
(0.000862787 5.28764e-05 0)
(0.00088493 6.22608e-05 0)
(0.000908058 7.24865e-05 0)
(0.000932074 8.35068e-05 0)
(0.000956873 9.52222e-05 0)
(0.00098236 0.000107572 0)
(0.00100843 0.000120502 0)
(0.00103496 0.000133934 0)
(0.0010618 0.00014777 0)
(0.00108882 0.000161893 0)
(0.00111583 0.000176177 0)
(0.00114269 0.000190485 0)
(0.00116924 0.000204675 0)
(0.00119535 0.000218597 0)
(0.00122087 0.000232099 0)
(0.00124565 0.000245029 0)
(0.00126955 0.000257239 0)
(0.00129246 0.000268586 0)
(0.00131424 0.000278937 0)
(0.0013348 0.00028817 0)
(0.00135404 0.000296174 0)
(0.00137187 0.000302856 0)
(0.00138823 0.000308141 0)
(0.00140305 0.000311968 0)
(0.00141633 0.000314302 0)
(0.00142809 0.000315135 0)
(0.00143836 0.00031448 0)
(0.00144719 0.000312364 0)
(0.00145463 0.000308834 0)
(0.00146073 0.000303955 0)
(0.00146558 0.000297809 0)
(0.00146928 0.000290491 0)
(0.00147191 0.000282106 0)
(0.00147359 0.000272766 0)
(0.00147441 0.000262591 0)
(0.00147449 0.000251703 0)
(0.00147392 0.000240226 0)
(0.00147281 0.000228285 0)
(0.00147125 0.000215999 0)
(0.00146933 0.000203488 0)
(0.00146712 0.000190862 0)
(0.00146471 0.000178224 0)
(0.00146214 0.000165669 0)
(0.00145948 0.000153281 0)
(0.00145677 0.000141138 0)
(0.00145403 0.000129308 0)
(0.00145132 0.000117851 0)
(0.00144865 0.000106816 0)
(0.00144604 9.62443e-05 0)
(0.00144351 8.61691e-05 0)
(0.00144108 7.66142e-05 0)
(0.00143875 6.75964e-05 0)
(0.00143653 5.91248e-05 0)
(0.00143442 5.12033e-05 0)
(0.00143242 4.38293e-05 0)
(0.00143054 3.69963e-05 0)
(0.00142878 3.06937e-05 0)
(0.00142714 2.49067e-05 0)
(0.00142562 1.96196e-05 0)
(0.00142424 1.48125e-05 0)
(0.001423 1.04666e-05 0)
(0.00142193 6.56226e-06 0)
(0.00142103 3.07702e-06 0)
(0.00142033 -7.22603e-09 0)
(0.00141985 -2.71241e-06 0)
(0.00141958 -5.05517e-06 0)
(0.00141959 -7.06998e-06 0)
(0.00141993 -8.80915e-06 0)
(0.00142061 -1.02841e-05 0)
(0.00142164 -1.15109e-05 0)
(0.00142304 -1.25092e-05 0)
(0.00142481 -1.32934e-05 0)
(0.00142698 -1.38744e-05 0)
(0.00142954 -1.42619e-05 0)
(0.00143249 -1.44625e-05 0)
(0.00143582 -1.44808e-05 0)
(0.00143952 -1.43203e-05 0)
(0.000279929 -9.11743e-06 0)
(0.000286288 -1.10347e-05 0)
(0.000293594 -1.32258e-05 0)
(0.000302043 -1.52729e-05 0)
(0.000311767 -1.69318e-05 0)
(0.000322848 -1.8047e-05 0)
(0.000335327 -1.84967e-05 0)
(0.000349269 -1.81556e-05 0)
(0.000364689 -1.69058e-05 0)
(0.000381518 -1.47122e-05 0)
(0.000399734 -1.16192e-05 0)
(0.000419306 -7.65479e-06 0)
(0.000440222 -2.77587e-06 0)
(0.000462445 3.06789e-06 0)
(0.000485914 9.89677e-06 0)
(0.000510555 1.77206e-05 0)
(0.000536243 2.65507e-05 0)
(0.00056296 3.64054e-05 0)
(0.000590741 4.72242e-05 0)
(0.000619431 5.88988e-05 0)
(0.000648881 7.13207e-05 0)
(0.000678969 8.43806e-05 0)
(0.000709573 9.79642e-05 0)
(0.000740566 0.000111951 0)
(0.000771818 0.000126233 0)
(0.000803191 0.000140687 0)
(0.000834536 0.000155163 0)
(0.000865708 0.000169507 0)
(0.000896568 0.000183562 0)
(0.00092698 0.000197173 0)
(0.000956809 0.000210185 0)
(0.000985922 0.000222449 0)
(0.00101419 0.000233823 0)
(0.00104149 0.000244172 0)
(0.00106771 0.000253379 0)
(0.00109275 0.000261345 0)
(0.00111654 0.000268004 0)
(0.00113902 0.000273302 0)
(0.00116011 0.000277201 0)
(0.00117978 0.000279671 0)
(0.00119797 0.000280705 0)
(0.00121469 0.000280318 0)
(0.00122992 0.000278545 0)
(0.00124369 0.000275436 0)
(0.00125601 0.000271061 0)
(0.00126692 0.000265503 0)
(0.00127648 0.000258856 0)
(0.00128474 0.000251224 0)
(0.00129177 0.000242718 0)
(0.00129766 0.000233453 0)
(0.00130248 0.000223545 0)
(0.00130632 0.000213111 0)
(0.00130925 0.000202267 0)
(0.00131136 0.000191129 0)
(0.00131271 0.000179808 0)
(0.00131338 0.000168403 0)
(0.00131341 0.000157004 0)
(0.00131287 0.000145691 0)
(0.00131179 0.000134535 0)
(0.0013102 0.000123602 0)
(0.00130811 0.000112952 0)
(0.00130556 0.000102639 0)
(0.00130254 9.27146e-05 0)
(0.00129907 8.32235e-05 0)
(0.00129516 7.42032e-05 0)
(0.00129082 6.56872e-05 0)
(0.00128609 5.7699e-05 0)
(0.00128099 5.02544e-05 0)
(0.00127557 4.336e-05 0)
(0.0012699 3.70072e-05 0)
(0.00126406 3.11784e-05 0)
(0.00125812 2.58459e-05 0)
(0.00125219 2.09697e-05 0)
(0.00124637 1.65127e-05 0)
(0.00124078 1.24342e-05 0)
(0.00123551 8.68593e-06 0)
(0.00123065 5.22764e-06 0)
(0.00122633 2.02704e-06 0)