/*--------------------------------*- C++ -*----------------------------------*\
| =========                 |                                                 |
| \\      /  F ield         | OpenFOAM: The Open Source CFD Toolbox           |
|  \\    /   O peration     | Version:  2312                                  |
|   \\  /    A nd           | Website:  www.openfoam.com                      |
|    \\/     M anipulation  |                                                 |
\*---------------------------------------------------------------------------*/
FoamFile
{
    version     2.0;
    format      ascii;
    arch        "LSB;label=32;scalar=64";
    class       volScalarField;
    location    "25000";
    object      p;
}
// * * * * * * * * * * * * * * * * * * * * * * * * * * * * * * * * * * * * * //

dimensions      [0 2 -2 0 0 0 0];

internalField   nonuniform List<scalar> 
2685
(
-1.51706e-07
-1.50423e-07
-1.47488e-07
-1.44764e-07
-1.41614e-07
-1.37507e-07
-1.3241e-07
-1.26447e-07
-1.19779e-07
-1.12536e-07
-1.04831e-07
-9.67633e-08
-8.84228e-08
-7.99095e-08
-7.13097e-08
-6.27043e-08
-5.41706e-08
-4.57811e-08
-3.76011e-08
-2.96858e-08
-2.20793e-08
-1.48161e-08
-7.92195e-09
-1.41477e-09
4.69563e-09
1.04069e-08
1.57232e-08
2.06539e-08
2.52108e-08
2.94063e-08
3.32528e-08
3.67643e-08
3.99569e-08
4.28499e-08
4.54644e-08
4.78205e-08
4.99354e-08
5.18241e-08
5.35026e-08
5.49851e-08
5.62794e-08
5.73936e-08
5.83349e-08
5.91108e-08
5.97322e-08
6.02148e-08
6.05795e-08
6.08488e-08
6.10436e-08
6.11798e-08
6.12642e-08
6.12981e-08
6.12817e-08
6.1217e-08
6.11079e-08
6.09627e-08
6.07918e-08
6.06046e-08
6.04078e-08
6.02043e-08
5.99948e-08
5.97787e-08
5.95553e-08
5.93247e-08
5.90853e-08
5.88346e-08
5.8573e-08
5.82963e-08
5.79969e-08
5.76658e-08
5.72944e-08
5.68758e-08
5.64063e-08
5.58868e-08
5.53221e-08
5.47204e-08
5.40922e-08
5.34482e-08
5.27988e-08
5.21525e-08
5.15153e-08
5.08912e-08
5.02822e-08
4.96885e-08
4.91093e-08
4.85426e-08
4.79869e-08
4.74404e-08
4.69015e-08
4.63685e-08
-1.64867e-07
-1.5874e-07
-1.55417e-07
-1.50541e-07
-1.44192e-07
-1.37253e-07
-1.30233e-07
-1.23181e-07
-1.15971e-07
-1.08505e-07
-1.00775e-07
-9.28261e-08
-8.47076e-08
-7.64718e-08
-6.81947e-08
-5.99358e-08
-5.17415e-08
-4.36625e-08
-3.57519e-08
-2.80606e-08
-2.06327e-08
-1.35088e-08
-6.72833e-09
-3.24027e-10
5.6838e-09
1.12891e-08
1.64979e-08
2.13244e-08
2.57852e-08
2.98945e-08
3.36631e-08
3.71011e-08
4.02223e-08
4.30467e-08
4.55997e-08
4.79066e-08
4.99876e-08
5.18591e-08
5.35363e-08
5.50293e-08
5.634e-08
5.74647e-08
5.84047e-08
5.91682e-08
5.97698e-08
6.02307e-08
6.05757e-08
6.08297e-08
6.10136e-08
6.11405e-08
6.12155e-08
6.12413e-08
6.1222e-08
6.11637e-08
6.10743e-08
6.09604e-08
6.08283e-08
6.06808e-08
6.05164e-08
6.03302e-08
6.01174e-08
5.98759e-08
5.96076e-08
5.93178e-08
5.90137e-08
5.87032e-08
5.83889e-08
5.8072e-08
5.77476e-08
5.74071e-08
5.70421e-08
5.66442e-08
5.62069e-08
5.57268e-08
5.52038e-08
5.46431e-08
5.40517e-08
5.34367e-08
5.28102e-08
5.21774e-08
5.1546e-08
5.09218e-08
5.03085e-08
4.9708e-08
4.91209e-08
4.8547e-08
4.7985e-08
4.74333e-08
4.68904e-08
4.63545e-08
-1.66694e-07
-1.58722e-07
-1.53479e-07
-1.47616e-07
-1.4056e-07
-1.32687e-07
-1.2458e-07
-1.1656e-07
-1.08673e-07
-1.00836e-07
-9.29552e-08
-8.49929e-08
-7.69622e-08
-6.89062e-08
-6.08748e-08
-5.29157e-08
-4.50726e-08
-3.73921e-08
-2.99138e-08
-2.2671e-08
-1.57005e-08
-9.03714e-09
-2.70788e-09
3.25559e-09
8.84069e-09
1.40514e-08
1.88988e-08
2.33948e-08
2.75519e-08
3.13851e-08
3.49098e-08
3.81408e-08
4.10928e-08
4.37822e-08
4.62262e-08
4.84398e-08
5.04329e-08
5.22103e-08
5.37799e-08
5.51564e-08
5.63558e-08
5.73895e-08
5.82663e-08
5.8995e-08
5.95866e-08
6.0055e-08
6.04172e-08
6.06923e-08
6.08976e-08
6.10444e-08
6.11377e-08
6.1177e-08
6.11609e-08
6.10919e-08
6.09766e-08
6.08252e-08
6.06469e-08
6.04497e-08
6.02381e-08
6.00124e-08
5.97713e-08
5.95137e-08
5.92403e-08
5.8954e-08
5.86591e-08
5.836e-08
5.80594e-08
5.77581e-08
5.74521e-08
5.71322e-08
5.67876e-08
5.64094e-08
5.59915e-08
5.55307e-08
5.50279e-08
5.44875e-08
5.39163e-08
5.33239e-08
5.2716e-08
5.21049e-08
5.14887e-08
5.08792e-08
5.02791e-08
4.96894e-08
4.91109e-08
4.85433e-08
4.79859e-08
4.74373e-08
4.68962e-08
4.63612e-08
-1.81611e-07
-1.70344e-07
-1.60102e-07
-1.49944e-07
-1.39589e-07
-1.29175e-07
-1.18974e-07
-1.09166e-07
-9.97838e-08
-9.07655e-08
-8.20275e-08
-7.35084e-08
-6.51736e-08
-5.7016e-08
-4.90644e-08
-4.13573e-08
-3.3923e-08
-2.67743e-08
-1.99151e-08
-1.33522e-08
-7.09924e-09
-1.17173e-09
4.4204e-09
9.68624e-09
1.46286e-08
1.92482e-08
2.35461e-08
2.75293e-08
3.12107e-08
3.46077e-08
3.77375e-08
4.06126e-08
4.32415e-08
4.56333e-08
4.77988e-08
4.97501e-08
5.14995e-08
5.3059e-08
5.44412e-08
5.56601e-08
5.67289e-08
5.76566e-08
5.84494e-08
5.91145e-08
5.96615e-08
6.01015e-08
6.04461e-08
6.07072e-08
6.08955e-08
6.10187e-08
6.10816e-08
6.10882e-08
6.10439e-08
6.0957e-08
6.08371e-08
6.06926e-08
6.05298e-08
6.03508e-08
6.01542e-08
5.99373e-08
5.9698e-08
5.94352e-08
5.91504e-08
5.88466e-08
5.85278e-08
5.81976e-08
5.78587e-08
5.75111e-08
5.71536e-08
5.67836e-08
5.63973e-08
5.59909e-08
5.55609e-08
5.51056e-08
5.46245e-08
5.41192e-08
5.35926e-08
5.30488e-08
5.24915e-08
5.19235e-08
5.13556e-08
5.07841e-08
5.02134e-08
4.96464e-08
4.90846e-08
4.85287e-08
4.79786e-08
4.74342e-08
4.68949e-08
4.63601e-08
-1.90737e-07
-1.75249e-07
-1.60604e-07
-1.46644e-07
-1.33312e-07
-1.20621e-07
-1.08618e-07
-9.73315e-08
-8.67419e-08
-7.67809e-08
-6.73632e-08
-5.84181e-08
-4.99021e-08
-4.17956e-08
-3.40946e-08
-2.6797e-08
-1.98928e-08
-1.33637e-08
-7.19193e-09
-1.36605e-09
4.11992e-09
9.26996e-09
1.40893e-08
1.85847e-08
2.2764e-08
2.66357e-08
3.02181e-08
3.35355e-08
3.66088e-08
3.94486e-08
4.20685e-08
4.44717e-08
4.6661e-08
4.8645e-08
5.0436e-08
5.20475e-08
5.34919e-08
5.478e-08
5.59212e-08
5.69248e-08
5.78002e-08
5.85555e-08
5.91977e-08
5.97337e-08
6.01709e-08
6.05171e-08
6.07809e-08
6.09721e-08
6.11e-08
6.11725e-08
6.11956e-08
6.11744e-08
6.11129e-08
6.1015e-08
6.08843e-08
6.07239e-08
6.0537e-08
6.03263e-08
6.00942e-08
5.9842e-08
5.95706e-08
5.9281e-08
5.89749e-08
5.86541e-08
5.83205e-08
5.79761e-08
5.76223e-08
5.726e-08
5.68888e-08
5.65072e-08
5.61123e-08
5.57015e-08
5.52724e-08
5.48236e-08
5.43549e-08
5.38672e-08
5.33625e-08
5.28432e-08
5.23123e-08
5.17729e-08
5.12282e-08
5.06808e-08
5.01333e-08
4.95848e-08
4.90387e-08
4.84954e-08
4.79552e-08
4.74181e-08
4.6884e-08
4.63527e-08
-1.96688e-07
-1.77686e-07
-1.59661e-07
-1.42591e-07
-1.26507e-07
-1.11454e-07
-9.74627e-08
-8.45278e-08
-7.26023e-08
-6.16141e-08
-5.14752e-08
-4.20922e-08
-3.33909e-08
-2.53203e-08
-1.7843e-08
-1.09255e-08
-4.53173e-09
1.37827e-09
6.84373e-09
1.18988e-08
1.65715e-08
2.08863e-08
2.48671e-08
2.85384e-08
3.19244e-08
3.50493e-08
3.79342e-08
4.05955e-08
4.30458e-08
4.52964e-08
4.73479e-08
4.92149e-08
5.09121e-08
5.24402e-08
5.38075e-08
5.50291e-08
5.61181e-08
5.70838e-08
5.79338e-08
5.86749e-08
5.93141e-08
5.98584e-08
6.03142e-08
6.06871e-08
6.09834e-08
6.121e-08
6.13736e-08
6.14801e-08
6.15348e-08
6.15421e-08
6.15064e-08
6.1431e-08
6.13191e-08
6.11742e-08
6.10005e-08
6.08015e-08
6.05805e-08
6.034e-08
6.00818e-08
5.98072e-08
5.95169e-08
5.92116e-08
5.8892e-08
5.85591e-08
5.82141e-08
5.7858e-08
5.74914e-08
5.71144e-08
5.67265e-08
5.63267e-08
5.59142e-08
5.54879e-08
5.50475e-08
5.45929e-08
5.41245e-08
5.36432e-08
5.31502e-08
5.26469e-08
5.21351e-08
5.16163e-08
5.10925e-08
5.0565e-08
5.00346e-08
4.95046e-08
4.89736e-08
4.84427e-08
4.79128e-08
4.73838e-08
4.68561e-08
4.63297e-08
-1.98771e-07
-1.76945e-07
-1.56428e-07
-1.37023e-07
-1.18644e-07
-1.01371e-07
-8.53656e-08
-7.07138e-08
-5.73818e-08
-4.52594e-08
-3.42302e-08
-2.42135e-08
-1.51524e-08
-6.99269e-09
3.30254e-10
6.88867e-09
1.276e-08
1.80214e-08
2.2747e-08
2.70037e-08
3.08474e-08
3.43241e-08
3.74726e-08
4.03266e-08
4.29144e-08
4.52589e-08
4.73788e-08
4.92889e-08
5.10028e-08
5.25344e-08
5.38977e-08
5.5106e-08
5.61766e-08
5.71347e-08
5.79928e-08
5.8754e-08
5.94276e-08
6.00205e-08
6.05376e-08
6.09793e-08
6.1349e-08
6.16513e-08
6.18906e-08
6.20711e-08
6.21971e-08
6.22727e-08
6.23017e-08
6.22877e-08
6.22343e-08
6.21452e-08
6.20236e-08
6.18722e-08
6.1694e-08
6.14919e-08
6.12683e-08
6.10251e-08
6.07639e-08
6.04863e-08
6.01935e-08
5.98866e-08
5.95661e-08
5.92328e-08
5.88877e-08
5.85313e-08
5.81644e-08
5.77874e-08
5.74008e-08
5.70049e-08
5.65996e-08
5.6185e-08
5.57606e-08
5.53261e-08
5.48814e-08
5.44263e-08
5.39609e-08
5.34858e-08
5.30015e-08
5.25089e-08
5.2009e-08
5.15029e-08
5.09917e-08
5.04765e-08
4.99583e-08
4.94381e-08
4.89165e-08
4.83942e-08
4.78713e-08
4.73486e-08
4.68262e-08
4.63043e-08
-1.99428e-07
-1.73881e-07
-1.50152e-07
-1.27877e-07
-1.07041e-07
-8.77718e-08
-7.01738e-08
-5.42764e-08
-4.00136e-08
-2.72421e-08
-1.58051e-08
-5.58066e-09
3.51997e-09
1.15756e-08
1.8667e-08
2.48784e-08
3.02936e-08
3.49992e-08
3.90811e-08
4.26177e-08
4.56764e-08
4.83157e-08
5.05888e-08
5.25445e-08
5.42272e-08
5.5675e-08
5.69193e-08
5.79877e-08
5.89044e-08
5.96916e-08
6.03694e-08
6.09548e-08
6.14623e-08
6.19041e-08
6.22889e-08
6.26221e-08
6.29023e-08
6.31329e-08
6.33351e-08
6.34794e-08
6.35734e-08
6.36245e-08
6.36367e-08
6.36132e-08
6.35562e-08
6.34681e-08
6.3351e-08
6.32068e-08
6.30377e-08
6.28457e-08
6.26325e-08
6.23996e-08
6.21488e-08
6.18817e-08
6.15993e-08
6.13026e-08
6.09929e-08
6.06714e-08
6.03387e-08
5.99955e-08
5.96425e-08
5.92802e-08
5.89093e-08
5.85301e-08
5.81429e-08
5.77481e-08
5.73458e-08
5.69358e-08
5.65182e-08
5.60927e-08
5.56591e-08
5.52172e-08
5.47669e-08
5.43082e-08
5.38415e-08
5.3367e-08
5.28853e-08
5.23971e-08
5.1903e-08
5.14039e-08
5.09005e-08
5.03935e-08
4.98836e-08
4.93713e-08
4.88574e-08
4.8342e-08
4.78258e-08
4.73089e-08
4.67916e-08
4.6274e-08
-2.0295e-07
-1.71622e-07
-1.42951e-07
-1.16562e-07
-9.23857e-08
-7.05115e-08
-5.10095e-08
-3.38297e-08
-1.87953e-08
-5.66201e-09
5.80899e-09
1.58094e-08
2.44832e-08
3.19476e-08
3.83153e-08
4.37037e-08
4.82325e-08
5.20169e-08
5.51619e-08
5.77605e-08
5.98941e-08
6.16338e-08
6.30412e-08
6.41689e-08
6.50606e-08
6.57528e-08
6.62765e-08
6.66596e-08
6.69275e-08
6.71012e-08
6.71979e-08
6.72324e-08
6.72172e-08
6.71625e-08
6.70764e-08
6.69652e-08
6.68324e-08
6.66781e-08
6.64841e-08
6.62829e-08
6.60671e-08
6.58428e-08
6.56091e-08
6.53651e-08
6.51106e-08
6.48456e-08
6.45701e-08
6.42846e-08
6.39892e-08
6.36837e-08
6.33681e-08
6.30434e-08
6.27104e-08
6.23689e-08
6.20193e-08
6.16622e-08
6.12989e-08
6.09294e-08
6.05536e-08
6.01717e-08
5.9784e-08
5.93907e-08
5.89918e-08
5.85874e-08
5.81774e-08
5.77618e-08
5.73406e-08
5.69136e-08
5.64807e-08
5.60417e-08
5.55966e-08
5.51453e-08
5.46878e-08
5.42242e-08
5.37547e-08
5.32795e-08
5.27988e-08
5.23131e-08
5.18227e-08
5.13282e-08
5.08298e-08
5.03283e-08
4.98239e-08
4.93171e-08
4.88084e-08
4.82981e-08
4.77865e-08
4.72738e-08
4.67603e-08
4.62462e-08
-2.06038e-07
-1.67706e-07
-1.32796e-07
-1.01138e-07
-7.26755e-08
-4.74564e-08
-2.55374e-08
-6.82114e-09
8.99366e-09
2.22988e-08
3.34502e-08
4.27361e-08
5.03965e-08
5.66445e-08
6.16782e-08
6.56834e-08
6.88309e-08
7.12693e-08
7.31232e-08
7.44948e-08
7.54682e-08
7.6113e-08
7.64866e-08
7.66365e-08
7.66023e-08
7.64177e-08
7.61125e-08
7.57127e-08
7.5241e-08
7.47169e-08
7.41569e-08
7.3575e-08
7.29819e-08
7.23865e-08
7.17951e-08
7.12115e-08
7.06381e-08
7.00777e-08
6.95337e-08
6.90108e-08
6.8513e-08
6.80302e-08
6.75603e-08
6.71012e-08
6.66517e-08
6.62106e-08
6.57771e-08
6.5351e-08
6.49351e-08
6.45185e-08
6.41024e-08
6.36871e-08
6.32725e-08
6.28581e-08
6.24431e-08
6.20276e-08
6.16115e-08
6.11946e-08
6.07763e-08
6.03564e-08
5.99346e-08
5.95107e-08
5.90845e-08
5.86556e-08
5.82237e-08
5.77887e-08
5.73503e-08
5.69082e-08
5.64622e-08
5.6012e-08
5.55575e-08
5.50987e-08
5.46353e-08
5.41673e-08
5.36948e-08
5.3218e-08
5.27368e-08
5.22517e-08
5.17627e-08
5.12703e-08
5.07747e-08
5.02762e-08
4.97752e-08
4.9272e-08
4.87668e-08
4.826e-08
4.77518e-08
4.72424e-08
4.67319e-08
4.62206e-08
-1.99584e-07
-1.54689e-07
-1.1385e-07
-7.71874e-08
-4.47716e-08
-1.66103e-08
7.41614e-09
2.75862e-08
4.42771e-08
5.7886e-08
6.87905e-08
7.73374e-08
8.38477e-08
8.86249e-08
9.19572e-08
9.41125e-08
9.5331e-08
9.5818e-08
9.57426e-08
9.52411e-08
9.44233e-08
9.33769e-08
9.21713e-08
9.08597e-08
8.94827e-08
8.80718e-08
8.6651e-08
8.52391e-08
8.38504e-08
8.24959e-08
8.11835e-08
7.99193e-08
7.87076e-08
7.75514e-08
7.64521e-08
7.54099e-08
7.44241e-08
7.3493e-08
7.26139e-08
7.17841e-08
7.10004e-08
7.02575e-08
6.95517e-08
6.88798e-08
6.82386e-08
6.76248e-08
6.70352e-08
6.6466e-08
6.59101e-08
6.53744e-08
6.48545e-08
6.43475e-08
6.38507e-08
6.33628e-08
6.28832e-08
6.24105e-08
6.19426e-08
6.1479e-08
6.1019e-08
6.05621e-08
6.0107e-08
5.96532e-08
5.92001e-08
5.87472e-08
5.8294e-08
5.78399e-08
5.73846e-08
5.69275e-08
5.64683e-08
5.60068e-08
5.55426e-08
5.50754e-08
5.46053e-08
5.4132e-08
5.36554e-08
5.31757e-08
5.26927e-08
5.22067e-08
5.17178e-08
5.12261e-08
5.07318e-08
5.02351e-08
4.97361e-08
4.92352e-08
4.87325e-08
4.82281e-08
4.77224e-08
4.72153e-08
4.67072e-08
4.6198e-08
-1.77057e-07
-1.27687e-07
-8.28002e-08
-4.26424e-08
-7.36788e-09
2.30227e-08
4.87023e-08
6.99627e-08
8.71563e-08
1.00666e-07
1.10893e-07
1.18244e-07
1.2313e-07
1.25957e-07
1.27113e-07
1.26958e-07
1.25808e-07
1.23927e-07
1.2153e-07
1.18787e-07
1.15833e-07
1.12772e-07
1.09684e-07
1.0663e-07
1.03652e-07
1.0078e-07
9.80317e-08
9.54196e-08
9.2949e-08
9.06211e-08
8.84344e-08
8.63857e-08
8.44707e-08
8.2684e-08
8.10201e-08
7.94727e-08
7.8035e-08
7.67001e-08
7.54607e-08
7.43095e-08
7.3239e-08
7.22417e-08
7.13105e-08
7.04386e-08
6.96196e-08
6.88474e-08
6.81164e-08
6.7421e-08
6.67572e-08
6.61223e-08
6.55129e-08
6.49258e-08
6.43579e-08
6.38069e-08
6.32706e-08
6.27469e-08
6.22338e-08
6.17296e-08
6.12334e-08
6.07441e-08
6.02598e-08
5.97805e-08
5.93043e-08
5.88309e-08
5.83595e-08
5.78894e-08
5.74199e-08
5.69504e-08
5.64804e-08
5.60095e-08
5.55372e-08
5.50634e-08
5.45877e-08
5.41099e-08
5.36299e-08
5.31475e-08
5.26629e-08
5.21758e-08
5.16865e-08
5.11949e-08
5.07011e-08
5.02053e-08
4.97075e-08
4.9208e-08
4.87068e-08
4.8204e-08
4.76999e-08
4.71945e-08
4.66879e-08
4.61803e-08
-1.38403e-07
-8.68304e-08
-4.02482e-08
1.11408e-09
3.7163e-08
6.79747e-08
9.37454e-08
1.1475e-07
1.31325e-07
1.43859e-07
1.52782e-07
1.58553e-07
1.6164e-07
1.625e-07
1.61568e-07
1.59241e-07
1.5587e-07
1.51751e-07
1.47131e-07
1.42208e-07
1.37142e-07
1.32058e-07
1.2705e-07
1.22192e-07
1.17535e-07
1.13115e-07
1.08954e-07
1.05062e-07
1.01441e-07
9.80877e-08
9.49922e-08
9.21428e-08
8.95257e-08
8.71256e-08
8.4927e-08
8.29137e-08
8.10702e-08
7.93812e-08
7.78322e-08
7.64096e-08
7.51006e-08
7.38933e-08
7.27768e-08
7.17409e-08
7.07764e-08
6.9875e-08
6.90292e-08
6.82321e-08
6.7478e-08
6.67619e-08
6.60793e-08
6.54263e-08
6.47991e-08
6.41945e-08
6.36098e-08
6.30425e-08
6.24904e-08
6.19515e-08
6.14237e-08
6.09057e-08
6.03969e-08
5.9895e-08
5.93994e-08
5.8909e-08
5.84225e-08
5.7939e-08
5.74576e-08
5.69777e-08
5.64985e-08
5.60196e-08
5.55405e-08
5.50608e-08
5.45802e-08
5.40983e-08
5.36151e-08
5.31302e-08
5.26436e-08
5.21552e-08
5.16651e-08
5.11731e-08
5.06793e-08
5.01838e-08
4.96865e-08
4.91877e-08
4.86874e-08
4.81856e-08
4.76826e-08
4.71783e-08
4.66728e-08
4.61663e-08
-9.35783e-08
-4.26317e-08
3.09037e-09
4.35068e-08
7.85667e-08
1.08323e-07
1.32932e-07
1.52645e-07
1.67799e-07
1.78795e-07
1.86082e-07
1.90138e-07
1.91448e-07
1.90488e-07
1.87709e-07
1.83526e-07
1.78305e-07
1.72364e-07
1.65967e-07
1.59332e-07
1.52634e-07
1.46009e-07
1.39561e-07
1.33368e-07
1.27486e-07
1.21951e-07
1.16782e-07
1.11985e-07
1.07556e-07
1.03485e-07
9.97529e-08
9.63412e-08
9.32278e-08
9.03904e-08
8.78063e-08
8.54538e-08
8.33116e-08
8.13598e-08
7.95796e-08
7.79535e-08
7.64654e-08
7.51004e-08
7.38449e-08
7.26864e-08
7.16136e-08
7.06164e-08
6.96858e-08
6.88137e-08
6.79929e-08
6.72173e-08
6.64813e-08
6.57801e-08
6.51094e-08
6.44657e-08
6.38458e-08
6.3247e-08
6.2667e-08
6.21033e-08
6.1554e-08
6.10171e-08
6.04909e-08
5.99737e-08
5.94633e-08
5.89629e-08
5.84667e-08
5.79743e-08
5.7485e-08
5.6998e-08
5.65126e-08
5.60284e-08
5.55447e-08
5.5061e-08
5.4577e-08
5.40924e-08
5.36069e-08
5.31203e-08
5.26324e-08
5.2143e-08
5.16522e-08
5.11599e-08
5.0666e-08
5.01706e-08
4.96736e-08
4.91752e-08
4.86753e-08
4.81742e-08
4.76717e-08
4.7168e-08
4.66633e-08
4.61574e-08
-6.30499e-08
-1.3314e-08
3.11607e-08
7.02784e-08
1.03972e-07
1.32371e-07
1.5563e-07
1.74015e-07
1.87874e-07
1.97616e-07
2.03697e-07
2.06593e-07
2.0679e-07
2.0476e-07
2.00948e-07
1.95764e-07
1.89572e-07
1.82688e-07
1.7538e-07
1.6787e-07
1.60339e-07
1.5293e-07
1.45753e-07
1.38889e-07
1.32394e-07
1.26303e-07
1.20633e-07
1.15387e-07
1.10559e-07
1.06134e-07
1.0209e-07
9.84045e-08
9.5051e-08
9.20033e-08
8.92354e-08
8.67219e-08
8.44387e-08
8.2363e-08
8.04738e-08
7.87516e-08
7.71783e-08
7.57377e-08
7.44148e-08
7.3196e-08
7.20689e-08
7.10229e-08
7.0048e-08
6.91357e-08
6.82783e-08
6.74693e-08
6.6703e-08
6.59744e-08
6.52793e-08
6.46139e-08
6.39749e-08
6.33593e-08
6.27644e-08
6.21877e-08
6.1627e-08
6.10803e-08
6.05456e-08
6.00216e-08
5.95073e-08
5.89969e-08
5.84935e-08
5.79954e-08
5.75014e-08
5.70104e-08
5.65216e-08
5.60344e-08
5.55481e-08
5.50623e-08
5.45765e-08
5.40904e-08
5.36036e-08
5.31159e-08
5.26272e-08
5.21373e-08
5.16461e-08
5.11535e-08
5.06594e-08
5.0164e-08
4.96671e-08
4.91688e-08
4.86692e-08
4.81683e-08
4.76661e-08
4.71627e-08
4.66583e-08
4.61528e-08
-6.29905e-08
-1.32604e-08
3.12091e-08
7.03214e-08
1.04009e-07
1.32402e-07
1.55656e-07
1.74037e-07
1.87891e-07
1.97629e-07
2.03706e-07
2.066e-07
2.06795e-07
2.04762e-07
2.00949e-07
1.95764e-07
1.89571e-07
1.82687e-07
1.75379e-07
1.67869e-07
1.60338e-07
1.52929e-07
1.45753e-07
1.38889e-07
1.32394e-07
1.26303e-07
1.20633e-07
1.15388e-07
1.1056e-07
1.06135e-07
1.02091e-07
9.84058e-08
9.50523e-08
9.20047e-08
8.92368e-08
8.67232e-08
8.44399e-08
8.23642e-08
8.04749e-08
7.87525e-08
7.71791e-08
7.57384e-08
7.44153e-08
7.31963e-08
7.20692e-08
7.1023e-08
7.00481e-08
6.91357e-08
6.82784e-08
6.74694e-08
6.67031e-08
6.59746e-08
6.52795e-08
6.46141e-08
6.39751e-08
6.33595e-08
6.27646e-08
6.2188e-08
6.16273e-08
6.10805e-08
6.05457e-08
6.00211e-08
5.95051e-08
5.89963e-08
5.84935e-08
5.79957e-08
5.75017e-08
5.70106e-08
5.65218e-08
5.60346e-08
5.55483e-08
5.50624e-08
5.45766e-08
5.40905e-08
5.36037e-08
5.3116e-08
5.26273e-08
5.21374e-08
5.16461e-08
5.11535e-08
5.06595e-08
5.0164e-08
4.96671e-08
4.91689e-08
4.86692e-08
4.81683e-08
4.76661e-08
4.71627e-08
4.66583e-08
-9.34353e-08
-4.24979e-08
3.21267e-09
4.36162e-08
7.86624e-08
1.08405e-07
1.33001e-07
1.52703e-07
1.67846e-07
1.78831e-07
1.8611e-07
1.90158e-07
1.91462e-07
1.90498e-07
1.87716e-07
1.8353e-07
1.78307e-07
1.72364e-07
1.65967e-07
1.59332e-07
1.52635e-07
1.46009e-07
1.39562e-07
1.33369e-07
1.27488e-07
1.21953e-07
1.16784e-07
1.11988e-07
1.07559e-07
1.03488e-07
9.97561e-08
9.63444e-08
9.32311e-08
9.03936e-08
8.78095e-08
8.54569e-08
8.33146e-08
8.13626e-08
7.95822e-08
7.79558e-08
7.64674e-08
7.51021e-08
7.38463e-08
7.26875e-08
7.16145e-08
7.06172e-08
6.96864e-08
6.88142e-08
6.79934e-08
6.72178e-08
6.64818e-08
6.57806e-08
6.511e-08
6.44664e-08
6.38465e-08
6.32479e-08
6.26679e-08
6.21044e-08
6.15552e-08
6.10187e-08
6.04931e-08
5.99767e-08
5.94683e-08
5.89659e-08
5.84688e-08
5.79757e-08
5.74861e-08
5.69988e-08
5.65134e-08
5.6029e-08
5.55452e-08
5.50615e-08
5.45774e-08
5.40928e-08
5.36072e-08
5.31206e-08
5.26326e-08
5.21433e-08
5.16524e-08
5.11601e-08
5.06661e-08
5.01707e-08
4.96737e-08
4.91753e-08
4.86755e-08
4.81743e-08
4.76718e-08
4.71681e-08
4.66633e-08
-1.38212e-07
-8.66548e-08
-4.00891e-08
1.25604e-09
3.72876e-08
6.80822e-08
9.38368e-08
1.14827e-07
1.31388e-07
1.4391e-07
1.52824e-07
1.58587e-07
1.61666e-07
1.62521e-07
1.61584e-07
1.59254e-07
1.5588e-07
1.5176e-07
1.47138e-07
1.42215e-07
1.37148e-07
1.32063e-07
1.27055e-07
1.22197e-07
1.1754e-07
1.1312e-07
1.08959e-07
1.05067e-07
1.01446e-07
9.80926e-08
9.4997e-08
9.21474e-08
8.95301e-08
8.71299e-08
8.49311e-08
8.29177e-08
8.10739e-08
7.93847e-08
7.78354e-08
7.64125e-08
7.51032e-08
7.38957e-08
7.27789e-08
7.17427e-08
7.07781e-08
6.98765e-08
6.90305e-08
6.82333e-08
6.74791e-08
6.6763e-08
6.60803e-08
6.54273e-08
6.48001e-08
6.41956e-08
6.36109e-08
6.30437e-08
6.24917e-08
6.19529e-08
6.14254e-08
6.09077e-08
6.03993e-08
5.98974e-08
5.94019e-08
5.89112e-08
5.84244e-08
5.79406e-08
5.7459e-08
5.69788e-08
5.64995e-08
5.60205e-08
5.55413e-08
5.50615e-08
5.45808e-08
5.40989e-08
5.36155e-08
5.31306e-08
5.2644e-08
5.21556e-08
5.16654e-08
5.11734e-08
5.06795e-08
5.0184e-08
4.96868e-08
4.91879e-08
4.86876e-08
4.81858e-08
4.76827e-08
4.71784e-08
4.66729e-08
-1.76866e-07
-1.27512e-07
-8.26418e-08
-4.25008e-08
-7.24312e-09
2.31311e-08
4.87954e-08
7.0042e-08
8.72233e-08
1.00723e-07
1.1094e-07
1.18284e-07
1.23163e-07
1.25985e-07
1.27137e-07
1.26979e-07
1.25826e-07
1.23943e-07
1.21544e-07
1.188e-07
1.15844e-07
1.12782e-07
1.09694e-07
1.06639e-07
1.0366e-07
1.00787e-07
9.80388e-08
9.54263e-08
9.29552e-08
9.0627e-08
8.844e-08
8.63911e-08
8.44757e-08
8.26889e-08
8.10247e-08
7.9477e-08
7.80391e-08
7.6704e-08
7.54643e-08
7.43128e-08
7.32421e-08
7.22446e-08
7.13132e-08
7.04411e-08
6.96219e-08
6.88496e-08
6.81184e-08
6.74229e-08
6.6759e-08
6.61239e-08
6.55145e-08
6.49273e-08
6.43593e-08
6.38083e-08
6.3272e-08
6.27484e-08
6.22353e-08
6.17311e-08
6.1235e-08
6.07457e-08
6.02614e-08
5.97822e-08
5.93061e-08
5.88327e-08
5.83612e-08
5.7891e-08
5.74213e-08
5.69516e-08
5.64815e-08
5.60105e-08
5.55381e-08
5.50642e-08
5.45884e-08
5.41105e-08
5.36305e-08
5.31481e-08
5.26634e-08
5.21763e-08
5.16869e-08
5.11953e-08
5.07015e-08
5.02056e-08
4.97078e-08
4.92082e-08
4.8707e-08
4.82042e-08
4.77001e-08
4.71946e-08
4.66881e-08
-1.99417e-07
-1.54537e-07
-1.13713e-07
-7.70653e-08
-4.46638e-08
-1.65162e-08
7.49776e-09
2.76568e-08
4.43381e-08
5.79387e-08
6.8836e-08
7.73768e-08
8.3882e-08
8.86549e-08
9.19834e-08
9.41356e-08
9.53513e-08
9.5836e-08
9.57585e-08
9.52553e-08
9.4436e-08
9.33883e-08
9.21816e-08
9.0869e-08
8.94912e-08
8.80796e-08
8.66583e-08
8.52459e-08
8.38568e-08
8.25019e-08
8.11893e-08
7.99248e-08
7.87129e-08
7.75565e-08
7.64569e-08
7.54145e-08
7.44285e-08
7.34972e-08
7.26179e-08
7.17879e-08
7.1004e-08
7.02609e-08
6.9555e-08
6.88829e-08
6.82416e-08
6.76278e-08
6.70381e-08
6.64688e-08
6.59125e-08
6.53765e-08
6.48566e-08
6.43495e-08
6.38528e-08
6.33647e-08
6.2885e-08
6.24122e-08
6.19444e-08
6.14808e-08
6.10208e-08
6.05638e-08
6.01088e-08
5.9655e-08
5.92018e-08
5.87489e-08
5.82956e-08
5.78414e-08
5.7386e-08
5.69288e-08
5.64695e-08
5.60079e-08
5.55436e-08
5.50764e-08
5.46061e-08
5.41327e-08
5.36561e-08
5.31763e-08
5.26933e-08
5.22073e-08
5.17183e-08
5.12265e-08
5.07322e-08
5.02354e-08
4.97365e-08
4.92355e-08
4.87328e-08
4.82284e-08
4.77226e-08
4.72155e-08
4.67074e-08
-2.05906e-07
-1.67586e-07
-1.32688e-07
-1.01041e-07
-7.25888e-08
-4.738e-08
-2.54707e-08
-6.76311e-09
9.04425e-09
2.2343e-08
3.34889e-08
4.277e-08
5.04263e-08
5.66708e-08
6.17013e-08
6.57039e-08
6.8849e-08
7.12854e-08
7.31376e-08
7.45076e-08
7.54797e-08
7.61234e-08
7.64961e-08
7.66452e-08
7.66104e-08
7.64253e-08
7.61197e-08
7.57196e-08
7.52476e-08
7.47232e-08
7.4163e-08
7.35808e-08
7.29876e-08
7.23919e-08
7.18003e-08
7.12165e-08
7.06428e-08
7.00821e-08
6.95379e-08
6.90148e-08
6.85168e-08
6.80338e-08
6.75636e-08
6.71042e-08
6.66545e-08
6.62131e-08
6.57793e-08
6.5353e-08
6.49374e-08
6.45209e-08
6.41048e-08
6.36894e-08
6.32747e-08
6.28603e-08
6.24453e-08
6.20297e-08
6.16135e-08
6.11966e-08
6.07783e-08
6.03583e-08
5.99364e-08
5.95125e-08
5.90862e-08
5.86572e-08
5.82253e-08
5.77902e-08
5.73517e-08
5.69095e-08
5.64634e-08
5.60131e-08
5.55586e-08
5.50996e-08
5.46362e-08
5.41681e-08
5.36956e-08
5.32187e-08
5.27375e-08
5.22522e-08
5.17632e-08
5.12708e-08
5.07751e-08
5.02766e-08
4.97756e-08
4.92723e-08
4.87672e-08
4.82603e-08
4.77521e-08
4.72426e-08
4.67322e-08
-2.02853e-07
-1.71533e-07
-1.4287e-07
-1.16488e-07
-9.23184e-08
-7.04513e-08
-5.09561e-08
-3.37823e-08
-1.87533e-08
-5.62474e-09
5.84194e-09
1.58385e-08
2.45086e-08
3.19699e-08
3.83349e-08
4.37209e-08
4.82477e-08
5.20304e-08
5.51741e-08
5.77715e-08
5.99042e-08
6.16431e-08
6.305e-08
6.41772e-08
6.50686e-08
6.57605e-08
6.6284e-08
6.66668e-08
6.69345e-08
6.7108e-08
6.72045e-08
6.72387e-08
6.72233e-08
6.71684e-08
6.7082e-08
6.69706e-08
6.68374e-08
6.66827e-08
6.64886e-08
6.62873e-08
6.60712e-08
6.58467e-08
6.56127e-08
6.53686e-08
6.51139e-08
6.48487e-08
6.45731e-08
6.42875e-08
6.39922e-08
6.36866e-08
6.33709e-08
6.30461e-08
6.2713e-08
6.23715e-08
6.20218e-08
6.16646e-08
6.13011e-08
6.09316e-08
6.05557e-08
6.01737e-08
5.97859e-08
5.93925e-08
5.89936e-08
5.85891e-08
5.8179e-08
5.77634e-08
5.7342e-08
5.69149e-08
5.64819e-08
5.60429e-08
5.55977e-08
5.51463e-08
5.46888e-08
5.42251e-08
5.37555e-08
5.32802e-08
5.27995e-08
5.23137e-08
5.18233e-08
5.13287e-08
5.08303e-08
5.03287e-08
4.98243e-08
4.93175e-08
4.88088e-08
4.82984e-08
4.77867e-08
4.72741e-08
4.67606e-08
-1.99355e-07
-1.73813e-07
-1.50087e-07
-1.27817e-07
-1.06985e-07
-8.77214e-08
-7.0128e-08
-5.4235e-08
-3.99763e-08
-2.72085e-08
-1.57749e-08
-5.5536e-09
3.54425e-09
1.15974e-08
1.86866e-08
2.48962e-08
3.03099e-08
3.50141e-08
3.90949e-08
4.26304e-08
4.56883e-08
4.83269e-08
5.05993e-08
5.25544e-08
5.42366e-08
5.5684e-08
5.6928e-08
5.7996e-08
5.89123e-08
5.96992e-08
6.03767e-08
6.09618e-08
6.1469e-08
6.19105e-08
6.22951e-08
6.26281e-08
6.29082e-08
6.31387e-08
6.33404e-08
6.34843e-08
6.35781e-08
6.36289e-08
6.36409e-08
6.36172e-08
6.356e-08
6.34717e-08
6.33544e-08
6.32101e-08
6.30409e-08
6.28489e-08
6.26356e-08
6.24026e-08
6.21517e-08
6.18845e-08
6.1602e-08
6.13052e-08
6.09954e-08
6.06737e-08
6.03409e-08
5.99976e-08
5.96445e-08
5.92822e-08
5.89111e-08
5.85318e-08
5.81446e-08
5.77496e-08
5.73472e-08
5.69372e-08
5.65195e-08
5.60939e-08
5.56602e-08
5.52182e-08
5.47678e-08
5.43091e-08
5.38422e-08
5.33677e-08
5.28859e-08
5.23977e-08
5.19036e-08
5.14044e-08
5.0901e-08
5.03939e-08
4.9884e-08
4.93717e-08
4.88577e-08
4.83424e-08
4.78261e-08
4.73092e-08
4.67918e-08
-1.98711e-07
-1.76888e-07
-1.56374e-07
-1.36972e-07
-1.18596e-07
-1.01327e-07
-8.53245e-08
-7.0676e-08
-5.73472e-08
-4.52276e-08
-3.42011e-08
-2.41867e-08
-1.51277e-08
-6.96993e-09
3.51336e-10
6.90824e-09
1.27782e-08
1.80384e-08
2.27629e-08
2.70185e-08
3.08613e-08
3.43372e-08
3.7485e-08
4.03383e-08
4.29254e-08
4.52694e-08
4.73887e-08
4.92983e-08
5.10118e-08
5.25429e-08
5.39059e-08
5.51138e-08
5.6184e-08
5.71417e-08
5.79996e-08
5.87604e-08
5.94337e-08
6.00264e-08
6.05431e-08
6.09845e-08
6.1354e-08
6.16561e-08
6.18951e-08
6.20754e-08
6.22012e-08
6.22766e-08
6.23055e-08
6.22915e-08
6.2238e-08
6.21487e-08
6.2027e-08
6.18756e-08
6.16972e-08
6.14949e-08
6.12712e-08
6.10279e-08
6.07666e-08
6.04888e-08
6.0196e-08
5.98889e-08
5.95682e-08
5.92349e-08
5.88896e-08
5.85331e-08
5.8166e-08
5.7789e-08
5.74023e-08
5.70062e-08
5.66009e-08
5.61861e-08
5.57616e-08
5.53271e-08
5.48823e-08
5.44271e-08
5.39617e-08
5.34865e-08
5.30022e-08
5.25095e-08
5.20096e-08
5.15034e-08
5.09922e-08
5.04769e-08
4.99587e-08
4.94385e-08
4.89169e-08
4.83945e-08
4.78716e-08
4.73489e-08
4.68265e-08
-1.9664e-07
-1.7764e-07
-1.59616e-07
-1.42548e-07
-1.26466e-07
-1.11415e-07
-9.74258e-08
-8.44931e-08
-7.25696e-08
-6.15833e-08
-5.14463e-08
-4.2065e-08
-3.33654e-08
-2.52965e-08
-1.78207e-08
-1.09047e-08
-4.51221e-09
1.39656e-09
6.86088e-09
1.19149e-08
1.65866e-08
2.09005e-08
2.48806e-08
2.8551e-08
3.19363e-08
3.50606e-08
3.79448e-08
4.06054e-08
4.30552e-08
4.53053e-08
4.73563e-08
4.92229e-08
5.09198e-08
5.24475e-08
5.38144e-08
5.50357e-08
5.61244e-08
5.70898e-08
5.79396e-08
5.86804e-08
5.93193e-08
5.98634e-08
6.03189e-08
6.06917e-08
6.09878e-08
6.12142e-08
6.13777e-08
6.14842e-08
6.15387e-08
6.15459e-08
6.15101e-08
6.14346e-08
6.13225e-08
6.11775e-08
6.10036e-08
6.08045e-08
6.05833e-08
6.03426e-08
6.00843e-08
5.98096e-08
5.95192e-08
5.92137e-08
5.88939e-08
5.85609e-08
5.82158e-08
5.78596e-08
5.74929e-08
5.71158e-08
5.67278e-08
5.63279e-08
5.59152e-08
5.54888e-08
5.50484e-08
5.45937e-08
5.41253e-08
5.36439e-08
5.31508e-08
5.26475e-08
5.21356e-08
5.16168e-08
5.10929e-08
5.05654e-08
5.00349e-08
4.9505e-08
4.8974e-08
4.84431e-08
4.79131e-08
4.73841e-08
4.68564e-08
-1.907e-07
-1.75212e-07
-1.60567e-07
-1.46607e-07
-1.33276e-07
-1.20586e-07
-1.08584e-07
-9.72987e-08
-8.67105e-08
-7.67508e-08
-6.73345e-08
-5.83908e-08
-4.98762e-08
-4.17711e-08
-3.40714e-08
-2.67751e-08
-1.98722e-08
-1.33443e-08
-7.17368e-09
-1.34894e-09
4.13594e-09
9.28496e-09
1.41033e-08
1.85978e-08
2.27763e-08
2.66472e-08
3.02289e-08
3.35457e-08
3.66185e-08
3.94577e-08
4.20771e-08
4.44799e-08
4.66688e-08
4.86524e-08
5.04431e-08
5.20543e-08
5.34984e-08
5.47862e-08
5.59271e-08
5.69304e-08
5.78055e-08
5.85606e-08
5.92027e-08
5.97385e-08
6.01755e-08
6.05215e-08
6.07853e-08
6.09764e-08
6.11042e-08
6.11765e-08
6.11996e-08
6.11783e-08
6.11166e-08
6.10186e-08
6.08876e-08
6.07271e-08
6.054e-08
6.03291e-08
6.00968e-08
5.98444e-08
5.95728e-08
5.92831e-08
5.89768e-08
5.86559e-08
5.83222e-08
5.79777e-08
5.76238e-08
5.72614e-08
5.689e-08
5.65083e-08
5.61133e-08
5.57024e-08
5.52732e-08
5.48243e-08
5.43555e-08
5.38678e-08
5.3363e-08
5.28437e-08
5.23128e-08
5.17733e-08
5.12287e-08
5.06813e-08
5.01338e-08
4.95853e-08
4.90391e-08
4.84958e-08
4.79556e-08
4.74184e-08
4.68843e-08
-1.81582e-07
-1.70313e-07
-1.6007e-07
-1.49911e-07
-1.39556e-07
-1.29142e-07
-1.18941e-07
-1.09134e-07
-9.97525e-08
-9.07351e-08
-8.19981e-08
-7.34801e-08
-6.51464e-08
-5.69901e-08
-4.90397e-08
-4.13339e-08
-3.39008e-08
-2.67533e-08
-1.98954e-08
-1.33336e-08
-7.08193e-09
-1.1556e-09
4.43541e-09
9.70016e-09
1.46415e-08
1.92602e-08
2.35573e-08
2.75397e-08
3.12205e-08
3.46168e-08
3.77462e-08
4.06208e-08
4.32492e-08
4.56407e-08
4.78058e-08
4.97568e-08
5.1506e-08
5.30652e-08
5.44471e-08
5.56658e-08
5.67344e-08
5.76619e-08
5.84545e-08
5.91194e-08
5.96663e-08
6.01061e-08
6.04506e-08
6.07116e-08
6.08998e-08
6.10229e-08
6.10857e-08
6.10921e-08
6.10477e-08
6.09607e-08
6.08406e-08
6.06959e-08
6.05329e-08
6.03537e-08
6.01568e-08
5.99398e-08
5.97003e-08
5.94374e-08
5.91524e-08
5.88485e-08
5.85296e-08
5.81993e-08
5.78602e-08
5.75125e-08
5.71548e-08
5.67846e-08
5.63982e-08
5.59916e-08
5.55616e-08
5.51061e-08
5.4625e-08
5.41196e-08
5.35931e-08
5.30491e-08
5.24919e-08
5.19239e-08
5.1356e-08
5.07846e-08
5.02139e-08
4.96468e-08
4.9085e-08
4.85291e-08
4.7979e-08
4.74346e-08
4.68953e-08
-1.66668e-07