/*--------------------------------*- C++ -*----------------------------------*\
| =========                 |                                                 |
| \\      /  F ield         | OpenFOAM: The Open Source CFD Toolbox           |
|  \\    /   O peration     | Version:  2312                                  |
|   \\  /    A nd           | Website:  www.openfoam.com                      |
|    \\/     M anipulation  |                                                 |
\*---------------------------------------------------------------------------*/
FoamFile
{
    version     2.0;
    format      ascii;
    arch        "LSB;label=32;scalar=64";
    class       volVectorField;
    location    "172000";
    object      U;
}
// * * * * * * * * * * * * * * * * * * * * * * * * * * * * * * * * * * * * * //

dimensions      [0 1 -1 0 0 0 0];

internalField   nonuniform List<vector> 
2715
(
(0.000258291 2.84814e-05 1.23445e-24)
(0.000269276 -3.6755e-06 0)
(0.000233707 -2.62652e-06 0)
(0.000217949 -3.33371e-06 0)
(0.000209479 -3.22719e-06 -3.0538e-23)
(0.00021263 -3.64437e-06 2.98727e-23)
(0.000213378 -3.75518e-06 0)
(0.000224574 -4.5771e-06 8.15109e-25)
(0.000229342 -4.11374e-06 0)
(0.000245473 -4.56268e-06 0)
(0.000251134 -3.58309e-06 -2.96308e-25)
(0.000268925 -3.69761e-06 0)
(0.000272397 -2.18226e-06 -1.02992e-25)
(0.000288681 -2.01182e-06 0)
(0.000287148 -1.0931e-07 -3.12036e-24)
(0.000299597 2.06107e-07 3.12003e-24)
(0.000291621 1.93483e-06 0)
(0.000299381 1.65081e-06 -2.73244e-27)
(0.000285428 3.21646e-06 0)
(0.000289709 1.92358e-06 0)
(0.000271958 3.45969e-06 0)
(0.000275074 1.11216e-06 0)
(0.00025674 2.40065e-06 1.57647e-25)
(0.000260213 -3.89972e-07 0)
(0.000245067 -1.79702e-08 -3.19253e-24)
(0.000248305 9.62855e-07 3.04239e-24)
(0.000240269 -6.06529e-06 0)
(0.000225101 6.79279e-06 0)
(0.000272511 3.98302e-05 0)
(-6.18434e-05 -6.52702e-05 2.96212e-25)
(0.000516761 4.8318e-05 7.3245e-23)
(0.000567052 1.34399e-05 -7.75286e-23)
(0.000538239 1.64913e-05 2.12107e-24)
(0.000530134 9.13325e-06 0)
(0.000520043 3.9366e-06 0)
(0.000531043 -4.35375e-07 3.00121e-23)
(0.000529811 -1.69951e-06 -1.97668e-24)
(0.000553848 -4.72562e-06 -2.83552e-23)
(0.000558498 -4.44588e-06 -7.54412e-25)
(0.000592316 -6.92656e-06 0)
(0.000599048 -5.26886e-06 -8.01207e-24)
(0.000638162 -7.38381e-06 8.94748e-24)
(0.000642978 -4.37789e-06 -2.87185e-24)
(0.000682572 -6.28377e-06 1.87341e-24)
(0.000681553 -2.04472e-06 -8.39217e-24)
(0.00071738 -4.04663e-06 9.9144e-24)
(0.000707861 1.28221e-06 -2.07644e-25)
(0.000737337 -1.68807e-06 -1.90105e-25)
(0.000719273 4.82406e-06 -1.47539e-24)
(0.000741762 4.6386e-07 1.58145e-24)
(0.000718496 7.69942e-06 0)
(0.000733371 1.46282e-06 -1.54786e-25)
(0.000712948 9.74592e-06 4.6998e-24)
(0.000714512 6.84666e-07 -4.61669e-25)
(0.000715036 1.24566e-05 -4.20271e-24)
(0.000677881 -5.48756e-06 0)
(0.00074697 2.73622e-05 0)
(0.000566673 -3.80888e-05 1.2548e-25)
(0.000881895 9.82996e-05 1.07246e-23)
(0.000311713 -5.12474e-05 -1.08584e-23)
(0.000691468 4.86878e-05 4.90332e-24)
(0.000740811 3.15937e-06 -6.77667e-23)
(0.00073014 4.69852e-06 6.85943e-23)
(0.000737195 -7.91051e-07 4.1672e-24)
(0.000733435 -5.23831e-06 0)
(0.000752416 -1.16781e-05 0)
(0.000753094 -1.33256e-05 -1.788e-24)
(0.000782165 -1.83861e-05 0)
(0.000787767 -1.76346e-05 -1.24382e-23)
(0.000825748 -2.21275e-05 1.35482e-24)
(0.000834809 -1.87255e-05 1.94448e-23)
(0.000877858 -2.24849e-05 -9.04184e-24)
(0.000887424 -1.60818e-05 0)
(0.000930722 -1.93668e-05 0)
(0.000937684 -1.00279e-05 -1.59471e-23)
(0.000976455 -1.38352e-05 1.59344e-23)
(0.000978994 -1.83429e-06 2.66507e-26)
(0.00100919 -7.5693e-06 0)
(0.00100837 6.74279e-06 1.54188e-24)
(0.00102617 -3.07406e-06 -3.68632e-24)
(0.00102742 1.46723e-05 -3.75761e-25)
(0.00102749 -2.97639e-06 2.33318e-24)
(0.00104308 2.26449e-05 0)
(0.00101331 -9.71387e-06 -3.19702e-25)
(0.00106697 3.4607e-05 0)
(0.000979399 -2.69555e-05 0)
(0.00111731 6.21014e-05 3.08397e-25)
(0.000915459 -5.69358e-05 -1.67859e-24)
(0.00120885 0.000101446 1.47978e-24)
(0.000865581 -4.52347e-05 5.97151e-25)
(0.000823339 3.64946e-05 7.04522e-23)
(0.000864062 -1.1965e-06 -1.47221e-22)
(0.000863432 -1.15436e-07 4.16653e-23)
(0.000876076 -4.23131e-06 3.04209e-23)
(0.000877807 -8.4653e-06 0)
(0.000898645 -1.67415e-05 3.8556e-24)
(0.000905061 -1.87481e-05 -1.7897e-24)
(0.000932511 -2.6387e-05 0)
(0.000944511 -2.534e-05 1.57065e-24)
(0.000977149 -3.24681e-05 -1.04724e-23)
(0.000994349 -2.76085e-05 9.90596e-24)
(0.00102883 -3.40911e-05 0)
(0.00104955 -2.48837e-05 -2.99224e-24)
(0.00108157 -3.12431e-05 1.89088e-24)
(0.00110385 -1.75013e-05 -2.07656e-23)
(0.00112887 -2.50793e-05 2.22526e-23)
(0.00115182 -6.73957e-06 -2.73799e-25)
(0.00116551 -1.78486e-05 -1.3391e-25)
(0.00119056 5.49184e-06 0)
(0.00118881 -1.27189e-05 -2.41062e-24)
(0.00122084 1.78131e-05 2.27676e-24)
(0.00119875 -1.21747e-05 3.40966e-25)
(0.00124704 2.99026e-05 0)
(0.00119739 -1.83898e-05 -3.89211e-25)
(0.00127668 4.31309e-05 0)
(0.00118867 -3.13898e-05 -5.78063e-25)
(0.00131802 5.87873e-05 -3.33022e-24)
(0.00118177 -4.46635e-05 1.03463e-24)
(0.00137597 6.00505e-05 4.56245e-24)
(0.00118594 -1.20838e-05 -2.79549e-24)
(0.000927139 2.34619e-05 0)
(0.000957242 -6.08714e-06 6.29167e-23)
(0.00096197 -9.55745e-06 -1.12385e-22)
(0.000974057 -1.49736e-05 3.10287e-23)
(0.00098075 -1.90296e-05 0)
(0.00099968 -2.87952e-05 -3.96662e-24)
(0.00101237 -3.03091e-05 3.73379e-24)
(0.00103473 -3.91525e-05 0)
(0.00105352 -3.69627e-05 3.12706e-24)
(0.00107826 -4.56266e-05 0)
(0.00110332 -3.90925e-05 1.21787e-24)
(0.00112772 -4.73612e-05 0)
(0.0011577 -3.55976e-05 0)
(0.00117823 -4.39685e-05 0)
(0.00121137 -2.66196e-05 -2.70614e-23)
(0.00122445 -3.65625e-05 2.70578e-23)
(0.00125954 -1.36174e-05 0)
(0.00126214 -2.75915e-05 0)
(0.00129938 1.13112e-06 0)
(0.00128942 -1.99962e-05 2.96871e-25)
(0.00133082 1.52568e-05 0)
(0.00130696 -1.63807e-05 8.0359e-25)
(0.00135634 2.7192e-05 0)
(0.00131794 -1.82596e-05 7.38824e-25)
(0.00138042 3.61983e-05 0)
(0.0013279 -2.43463e-05 5.9452e-25)
(0.0014085 3.94654e-05 -3.42914e-24)
(0.00134297 -2.50137e-05 6.1108e-24)
(0.00144699 2.44292e-05 -3.63067e-24)
(0.00135901 -1.08019e-06 0)
(0.00100874 9.67594e-06 6.7326e-23)
(0.00102969 -1.17467e-05 -1.51795e-22)
(0.00103796 -1.86595e-05 1.10166e-22)
(0.00104856 -2.50194e-05 -3.16047e-23)
(0.00105837 -2.77917e-05 -3.28993e-23)
(0.0010741 -3.79498e-05 2.92198e-23)
(0.0010902 -3.98517e-05 2.90147e-23)
(0.00110865 -4.98063e-05 -5.59536e-23)
(0.00113051 -4.77837e-05 2.36728e-23)
(0.00115072 -5.71173e-05 0)
(0.00117815 -5.04542e-05 -1.25555e-24)
(0.00119815 -5.89377e-05 1.0212e-24)
(0.00122953 -4.68194e-05 -2.92599e-24)
(0.00124667 -5.4793e-05 1.87683e-24)
(0.00127989 -3.70786e-05 -3.00018e-23)
(0.00129165 -4.58318e-05 3.13512e-23)
(0.00132483 -2.29835e-05 -3.5932e-25)
(0.00132951 -3.45541e-05 6.23459e-26)
(0.00136155 -7.25364e-06 2.29132e-25)
(0.00135872 -2.39349e-05 -3.06055e-25)
(0.00138953 7.09476e-06 0)
(0.00138007 -1.64901e-05 -7.58114e-24)
(0.00141043 1.75453e-05 1.34367e-23)
(0.00139643 -1.33175e-05 -6.67768e-24)
(0.00142763 2.20376e-05 -6.22003e-24)
(0.00141198 -1.27532e-05 5.43642e-24)
(0.00144589 1.75609e-05 3.65606e-24)
(0.00143032 -9.55341e-06 -8.40477e-24)
(0.00147142 1.50094e-06 6.12793e-24)
(0.00145173 -1.97815e-06 -1.79735e-24)
(0.00107096 -3.64052e-06 -6.82865e-23)
(0.00108542 -1.83232e-05 1.37639e-23)
(0.00109542 -2.71974e-05 7.63337e-23)
(0.00110524 -3.49469e-05 -8.985e-24)
(0.00111627 -3.82141e-05 3.36024e-23)
(0.00113017 -4.81482e-05 -2.16339e-23)
(0.00114691 -5.09215e-05 0)
(0.00116394 -6.05922e-05 0)
(0.00118528 -5.96623e-05 0)
(0.00120462 -6.7995e-05 2.83995e-24)
(0.00122992 -6.26415e-05 1.22592e-24)
(0.00125017 -6.93191e-05 -1.05398e-24)
(0.00127763 -5.89132e-05 0)
(0.0012967 -6.40578e-05 2.91679e-25)
(0.00132403 -4.87475e-05 -3.34606e-23)
(0.00133995 -5.33343e-05 3.34551e-23)
(0.00136504 -3.40814e-05 -3.08612e-27)
(0.00137661 -3.96408e-05 0)
(0.00139804 -1.79304e-05 -2.36486e-25)
(0.0014052 -2.592e-05 3.89383e-25)
(0.00142242 -3.60214e-06 8.85122e-25)
(0.00142619 -1.46527e-05 0)
(0.00143954 5.94199e-06 0)
(0.00144178 -7.21816e-06 0)
(0.00145248 8.22313e-06 8.58412e-24)
(0.00145515 -3.40336e-06 -6.0757e-24)
(0.00146592 2.24127e-06 0)
(0.00146981 -1.94305e-06 -4.37376e-24)
(0.00148541 -8.70361e-06 2.58983e-24)
(0.00148896 -4.78606e-06 2.66475e-24)
(0.00111547 -1.58501e-05 0)
(0.00112608 -2.61289e-05 -9.88008e-24)
(0.00113652 -3.55753e-05 3.73492e-23)
(0.00114637 -4.44063e-05 -2.85415e-23)
(0.00115768 -4.89605e-05 0)
(0.00117088 -5.80371e-05 -8.44303e-24)
(0.00118699 -6.21694e-05 0)
(0.00120378 -7.06545e-05 0)
(0.00122348 -7.16214e-05 0)
(0.00124304 -7.79395e-05 7.81935e-24)
(0.00126543 -7.49307e-05 -2.11531e-23)
(0.00128664 -7.86186e-05 1.17742e-23)
(0.00130991 -7.12046e-05 -3.67554e-24)
(0.00133097 -7.21918e-05 -3.01421e-25)
(0.00135285 -6.07638e-05 -3.39266e-23)
(0.00137201 -5.97637e-05 3.38414e-23)
(0.00139044 -4.56621e-05 3.18919e-27)
(0.00140662 -4.38279e-05 9.96836e-25)
(0.00142019 -2.90603e-05 -4.27226e-24)
(0.00143336 -2.7388e-05 6.15581e-24)
(0.00144144 -1.4339e-05 -4.52391e-24)
(0.00145257 -1.31727e-05 0)
(0.00145522 -4.47775e-06 0)
(0.00146615 -3.25331e-06 0)
(0.00146406 -1.48189e-06 -1.74745e-24)
(0.00147744 1.27221e-06 0)
(0.00147168 -5.22151e-06 4.53981e-24)
(0.00149092 -1.20359e-07 -4.48532e-24)
(0.00148201 -1.31182e-05 -6.86846e-25)
(0.00151135 -7.47886e-06 0)
(0.00114379 -2.69161e-05 1.04033e-23)
(0.00115265 -3.50003e-05 7.94854e-23)
(0.00116305 -4.43352e-05 -4.21233e-23)
(0.00117312 -5.35048e-05 -1.94181e-24)
(0.00118459 -5.97982e-05 -3.73449e-23)
(0.00119751 -6.78323e-05 0)
(0.00121303 -7.35127e-05 3.06824e-23)
(0.0012296 -8.04108e-05 -3.03224e-24)
(0.0012482 -8.34926e-05 -2.4877e-23)
(0.00126753 -8.74769e-05 -1.07826e-23)
(0.00128819 -8.70252e-05 1.0848e-23)
(0.00130926 -8.74785e-05 1.03723e-24)
(0.00133029 -8.32041e-05 7.54635e-25)
(0.00135142 -7.99547e-05 -2.58314e-25)
(0.00137065 -7.23865e-05 -3.14676e-23)
(0.00139017 -6.60302e-05 3.14881e-23)
(0.00140567 -5.66756e-05 -5.45189e-26)
(0.00142253 -4.82608e-05 2.79911e-25)
(0.00143301 -3.92394e-05 3.49577e-25)
(0.00144706 -2.98013e-05 -4.20775e-24)
(0.00145197 -2.33808e-05 4.18233e-24)
(0.00146398 -1.37049e-05 1.09873e-23)
(0.00146334 -1.18654e-05 -3.11046e-26)
(0.00147501 -2.56728e-06 -9.5184e-24)
(0.0014693 -6.40304e-06 0)
(0.00148332 1.7151e-06 6.92325e-24)
(0.00147307 -7.36259e-06 -1.36669e-24)
(0.00149325 -1.7022e-06 2.44513e-24)
(0.00147866 -1.3608e-05 -7.92607e-24)
(0.0015095 -1.13675e-05 4.79342e-25)
(0.00115759 -3.69653e-05 -9.47134e-23)
(0.00116613 -4.44675e-05 9.56441e-23)
(0.00117646 -5.37381e-05 -2.93702e-23)
(0.00118678 -6.26188e-05 6.81711e-23)
(0.00119858 -7.05322e-05 -3.83765e-23)
(0.00121145 -7.76974e-05 -2.50941e-23)
(0.00122679 -8.475e-05 2.60694e-23)
(0.00124306 -9.01788e-05 0)
(0.00126128 -9.50258e-05 -6.72297e-24)
(0.00128006 -9.70091e-05 2.8846e-24)
(0.00130013 -9.86134e-05 0)
(0.00132039 -9.64056e-05 -3.48849e-24)
(0.00134073 -9.45206e-05 3.43954e-24)
(0.00136085 -8.79436e-05 3.19157e-26)
(0.00137943 -8.3139e-05 -2.59533e-23)
(0.00139776 -7.28128e-05 2.6001e-23)
(0.00141275 -6.65706e-05 -3.56395e-26)
(0.00142824 -5.36652e-05 -1.50102e-24)
(0.00143846 -4.79263e-05 1.56343e-24)
(0.00145093 -3.37763e-05 0)
(0.00145582 -3.0407e-05 1.37189e-24)
(0.00146597 -1.63266e-05 -2.77054e-24)
(0.0014654 -1.67343e-05 0)
(0.00147494 -4.04174e-06 -1.33435e-23)
(0.00146896 -8.98929e-06 1.30417e-23)
(0.00148077 9.80424e-07 8.1907e-24)
(0.00146935 -8.4227e-06 -1.67347e-23)
(0.00148774 -1.9326e-06 6.54825e-24)
(0.00147032 -1.49177e-05 -5.50834e-24)
(0.00150117 -1.11505e-05 5.13912e-24)
(0.00115903 -4.63038e-05 -8.64503e-23)
(0.0011681 -5.42056e-05 1.61105e-22)
(0.00117857 -6.3704e-05 -1.06157e-22)
(0.00118928 -7.21149e-05 5.90493e-23)
(0.00120153 -8.11565e-05 -3.94795e-23)
(0.0012147 -8.78052e-05 -9.07246e-24)
(0.00123015 -9.58164e-05 4.03028e-23)
(0.00124644 -0.000100254 -3.21841e-23)
(0.00126465 -0.000106191 3.44112e-24)
(0.00128323 -0.000106893 -2.98934e-24)
(0.00130319 -0.000109659 0)
(0.00132299 -0.000105803 3.36008e-24)
(0.00134323 -0.000105113 -1.78914e-24)
(0.0013626 -9.65801e-05 -2.3001e-24)
(0.00138119 -9.29776e-05 -1.66374e-23)
(0.00139848 -8.04999e-05 1.65859e-23)
(0.00141374 -7.53481e-05 1.23879e-24)
(0.00142784 -6.02892e-05 2.89352e-25)
(0.00143869 -5.52926e-05 -1.92891e-24)
(0.00144937 -3.92428e-05 0)
(0.00145528 -3.59731e-05 -1.42169e-24)
(0.00146315 -2.05099e-05 1.50874e-24)
(0.00146394 -2.0198e-05 1.2756e-23)
(0.00147051 -6.84365e-06 -9.6665e-24)
(0.00146615 -1.03743e-05 -2.76314e-24)
(0.00147411 -4.16467e-07 9.74919e-24)
(0.00146448 -8.17524e-06 -5.13061e-24)
(0.00147808 -2.35247e-06 1.04933e-23)
(0.00146242 -1.38715e-05 -2.09315e-23)
(0.00148815 -1.16858e-05 8.25949e-24)
(0.00115123 -5.56556e-05 -6.64484e-23)
(0.00116115 -6.42224e-05 1.49098e-23)
(0.00117196 -7.41252e-05 9.87774e-23)
(0.00118335 -8.2269e-05 -2.06718e-23)
(0.0011961 -9.1889e-05 0)
(0.00121005 -9.83871e-05 9.19162e-24)
(0.00122577 -0.000106876 8.47632e-24)
(0.00124269 -0.000110905 3.67365e-23)
(0.00126104 -0.000117232 -1.66657e-23)
(0.00128019 -0.000117412 -9.91006e-24)
(0.00130018 -0.000120449 -8.56834e-24)
(0.00132044 -0.000115926 7.21827e-24)
(0.00134061 -0.000115323 3.21093e-24)
(0.00136029 -0.000106056 2.15984e-25)
(0.00137879 -0.000102311 -2.33252e-24)
(0.00139618 -8.91486e-05 2.30436e-24)
(0.00141144 -8.35327e-05 1.41194e-25)
(0.00142541 -6.79648e-05 -2.3667e-24)
(0.00143644 -6.20642e-05 -3.48e-24)
(0.00144664 -4.57518e-05 5.80428e-24)
(0.00145306 -4.10629e-05 9.03284e-24)
(0.0014599 -2.55585e-05 7.7276e-24)
(0.00146164 -2.33872e-05 -1.07778e-23)
(0.00146625 -1.00811e-05 3.85238e-24)
(0.00146347 -1.15706e-05 3.64961e-24)
(0.00146797 -1.62303e-06 0)
(0.00146089 -7.64837e-06 -5.41935e-24)
(0.00146877 -1.75214e-06 -1.36979e-23)
(0.00145743 -1.24068e-05 3.92946e-24)
(0.0014742 -9.96358e-06 1.2416e-23)
(0.00113801 -6.57146e-05 4.51205e-23)
(0.00114881 -7.48223e-05 -1.05052e-22)
(0.00116016 -8.5095e-05 -1.10719e-23)
(0.00117251 -9.32849e-05 1.06837e-23)
(0.00118591 -0.000103089 0)
(0.00120098 -0.000109739 -9.53512e-24)
(0.00121723 -0.00011832 -8.79733e-24)
(0.00123531 -0.000122416 -7.95187e-24)
(0.00125407 -0.000128622 1.26942e-23)
(0.00127446 -0.000128826 -1.57913e-23)
(0.00129473 -0.000131508 0)
(0.00131624 -0.000126966 2.82532e-24)
(0.00133649 -0.000125719 -3.00644e-24)
(0.00135738 -0.000116454 1.33756e-25)
(0.00137573 -0.000111757 1.78344e-23)
(0.0013943 -9.87007e-05 -1.78481e-23)
(0.00140919 -9.17956e-05 2.46721e-25)
(0.00142427 -7.64852e-05 2.86939e-24)
(0.00143482 -6.89379e-05 -1.14744e-24)
(0.00144602 -5.29958e-05 0)
(0.00145192 -4.63102e-05 6.41726e-24)
(0.00145952 -3.11652e-05 -8.26589e-24)
(0.00146075 -2.6725e-05 -4.09148e-24)
(0.00146564 -1.36097e-05 -3.99823e-24)
(0.00146234 -1.27641e-05 -3.78595e-24)
(0.00146633 -2.75327e-06 0)
(0.00145866 -6.73441e-06 3.02275e-24)
(0.00146496 -5.21706e-07 -3.00703e-24)
(0.00145285 -9.92097e-06 1.28674e-23)
(0.00146717 -6.79386e-06 -1.88034e-23)
(0.00112423 -7.70847e-05 -4.66415e-23)
(0.00113568 -8.64726e-05 2.01246e-22)
(0.00114764 -9.69457e-05 -8.2497e-23)
(0.00116104 -0.00010544 4.24488e-23)
(0.00117522 -0.00011524 -4.30581e-23)
(0.00119156 -0.000122252 9.61441e-24)
(0.00120864 -0.000130695 -8.77633e-24)
(0.00122813 -0.000135132 2.95825e-23)
(0.00124772 -0.000140936 -3.66489e-23)
(0.00126963 -0.000141428 -1.03482e-23)
(0.00129064 -0.000143419 2.48835e-24)
(0.00131367 -0.000139121 8.94985e-24)
(0.0013344 -0.000136875 -1.23749e-24)
(0.00135677 -0.000127856 -1.65642e-24)
(0.00137526 -0.000121868 4.53961e-23)
(0.00139524 -0.000109118 -4.54118e-23)
(0.0014099 -0.000100653 2.44135e-24)
(0.00142638 -8.57232e-05 7.68419e-25)
(0.00143638 -7.63596e-05 -1.3367e-23)
(0.00144895 -6.0814e-05 -9.73039e-25)
(0.00145408 -5.20561e-05 6.50754e-24)
(0.00146289 -3.72048e-05 1.47639e-23)
(0.00146326 -3.04476e-05 -1.97783e-23)
(0.00146888 -1.74088e-05 -5.23658e-24)
(0.00146476 -1.40758e-05 5.0368e-24)
(0.0014684 -3.89488e-06 1.20457e-23)
(0.00146023 -5.39626e-06 -1.65117e-23)
(0.00146426 1.11303e-06 2.80672e-23)
(0.00145261 -6.07212e-06 -4.21118e-23)
(0.00146164 -2.66898e-06 2.86197e-23)
(0.00111389 -9.00481e-05 -5.03905e-23)
(0.00112578 -9.95798e-05 -7.11505e-23)
(0.0011383 -0.000110101 1.4315e-22)
(0.00115268 -0.000119057 -4.66696e-23)
(0.00116774 -0.000128822 0)
(0.00118533 -0.000136324 -1.98201e-23)
(0.00120347 -0.000144537 4.30409e-23)
(0.00122439 -0.000149408 -3.43087e-23)
(0.00124514 -0.000154682 7.04942e-24)
(0.00126855 -0.000155495 1.00521e-23)
(0.00129063 -0.000156643 -1.01316e-23)
(0.00131505 -0.000152559 0)
(0.00133661 -0.000149183 0)
(0.00136016 -0.000140311 0)
(0.0013791 -0.000132964 8.23653e-23)
(0.00140009 -0.000120347 -8.24541e-23)
(0.00141478 -0.000110359 0)
(0.00143219 -9.55588e-05 -1.01935e-24)
(0.00144182 -8.45294e-05 0)
(0.00145538 -6.90608e-05 1.0592e-23)
(0.00145974 -5.84732e-05 -7.91034e-24)
(0.00146962 -4.35324e-05 5.43512e-24)
(0.00146881 -3.4751e-05 2.33143e-23)
(0.00147544 -2.13123e-05 -1.75887e-23)
(0.00146968 -1.57972e-05 -1.11686e-23)
(0.00147397 -4.77273e-06 4.89004e-24)
(0.00146357 -4.15546e-06 1.80488e-23)
(0.00146745 3.74741e-06 -4.90539e-23)
(0.00145302 -1.86608e-06 3.86954e-23)
(0.00146079 3.76379e-06 -1.17807e-23)
(0.00110979 -0.000104787 -7.59916e-23)
(0.00112189 -0.000114515 2.02737e-22)
(0.00113481 -0.000125025 -1.12778e-22)
(0.00114998 -0.000134504 4.48924e-23)
(0.00116583 -0.000144276 -8.74714e-23)
(0.00118454 -0.000152298 2.44116e-23)
(0.0012037 -0.000160253 4.61307e-24)
(0.00122593 -0.000165495 6.43027e-23)
(0.00124778 -0.000170169 -2.99746e-23)
(0.00127247 -0.000171163 2.64575e-24)
(0.00129556 -0.000171385 -6.84564e-24)
(0.001321 -0.000167304 8.90133e-24)
(0.00134333 -0.000162746 -1.40582e-24)
(0.00136752 -0.000153744 -5.17977e-25)
(0.00138693 -0.000145069 1.31125e-22)
(0.0014082 -0.000132252 -1.31146e-22)
(0.00142307 -0.000120881 3.12019e-24)
(0.00144055 -0.000105843 1.93024e-24)
(0.0014501 -9.33944e-05 -1.62658e-23)
(0.0014637 -7.76201e-05 1.12461e-23)
(0.00146774 -6.55127e-05 0)
(0.00147775 -5.01117e-05 2.70446e-23)
(0.00147635 -3.95945e-05 -5.39666e-23)
(0.00148313 -2.54179e-05 7.26322e-24)
(0.00147641 -1.78633e-05 1.38408e-23)
(0.00148058 -5.70833e-06 4.94937e-23)
(0.00146877 -2.80337e-06 -1.75468e-23)
(0.00147177 6.68197e-06 3.34399e-23)
(0.00145548 3.33969e-06 -7.0317e-23)
(0.00146124 1.11145e-05 3.9922e-23)
(0.00111169 -0.000121125 0)
(0.0011239 -0.00013127 -2.63765e-23)
(0.00113698 -0.000141852 1.26962e-23)
(0.0011527 -0.000151849 4.61546e-23)
(0.0011691 -0.000161692 -4.69108e-23)
(0.00118875 -0.000170175 -4.9361e-23)
(0.00120865 -0.000177869 3.94691e-23)
(0.00123198 -0.000183316 0)
(0.00125456 -0.000187335 -5.48673e-24)
(0.00128027 -0.000188274 9.31526e-24)
(0.0013039 -0.000187499 -1.73981e-24)
(0.00133007 -0.00018314 -2.4573e-24)
(0.00135265 -0.000177353 1.50389e-24)
(0.00137714 -0.000167921 -1.0277e-25)
(0.00139658 -0.000157942 1.95032e-22)
(0.00141772 -0.00014462 -1.95054e-22)
(0.00143253 -0.000131996 -1.88578e-25)
(0.00144959 -0.000116409 -5.9369e-24)
(0.00145907 -0.000102795 2.53651e-24)
(0.00147216 -8.63891e-05 -3.69355e-24)
(0.00147618 -7.31252e-05 -1.52871e-23)
(0.00148576 -5.69041e-05 2.33272e-23)
(0.0014843 -4.50801e-05 0)
(0.00149077 -2.97392e-05 -3.89381e-23)
(0.00148384 -2.05744e-05 2.37325e-23)
(0.00148756 -6.72993e-06 2.89463e-23)
(0.00147532 -1.89583e-06 -3.49577e-23)
(0.00147708 9.98617e-06 5.88219e-24)
(0.00146037 8.63322e-06 -1.03973e-23)
(0.0014631 1.98067e-05 0)
(0.00111481 -0.000138645 -1.09975e-22)
(0.00112743 -0.00014954 1.90866e-22)
(0.00114083 -0.000160438 -1.34058e-22)
(0.00115715 -0.000170941 0)
(0.00117412 -0.000180918 -4.37262e-23)
(0.00119465 -0.00018972 3.41038e-23)
(0.00121517 -0.000197154 9.10372e-24)
(0.00123945 -0.000202575 2.88679e-23)
(0.00126245 -0.000205894 -2.97886e-23)
(0.001289 -0.000206502 0)
(0.00131271 -0.000204663 1.82528e-24)
(0.0013395 -0.000199753 1.85414e-24)
(0.00136181 -0.000192683 -1.71621e-24)
(0.00138664 -0.000182596 2.66905e-25)
(0.00140559 -0.0001713 2.78108e-22)
(0.00142675 -0.000157308 -2.7813e-22)
(0.00144109 -0.000143489 8.94125e-24)
(0.00145793 -0.000127231 2.75524e-24)
(0.0014672 -0.000112606 -3.50827e-24)
(0.00147994 -9.54527e-05 3.87493e-24)
(0.0014841 -8.12973e-05 0)
(0.00149337 -6.40947e-05 3.77107e-23)
(0.0014923 -5.13253e-05 -3.63068e-23)
(0.00149865 -3.45636e-05 0)
(0.00149206 -2.4185e-05 -4.58052e-23)
(0.00149585 -8.24756e-06 3.55539e-23)
(0.00148348 -1.80757e-06 0)
(0.00148529 1.31034e-05 4.33328e-23)
(0.00146759 1.35971e-05 -1.29424e-22)
(0.00146989 2.9135e-05 5.36017e-23)
(0.0011154 -0.000157645 -1.14475e-22)
(0.00112865 -0.000169437 1.45245e-22)
(0.00114264 -0.000180817 2.72439e-23)
(0.0011596 -0.000191716 4.86931e-23)
(0.00117732 -0.000201802 -4.95724e-23)
(0.00119867 -0.000210681 1.08278e-23)
(0.0012199 -0.000217824 -9.54921e-24)
(0.001245 -0.00022295 0)
(0.00126846 -0.000225546 -6.53584e-24)
(0.00129582 -0.000225548 -2.03957e-24)
(0.00131962 -0.000222634 -3.60986e-24)
(0.00134718 -0.000216942 3.45035e-24)
(0.00136917 -0.000208595 -2.6016e-25)
(0.00139473 -0.000197707 5.27492e-25)
(0.00141304 -0.000185111 3.85794e-22)
(0.00143491 -0.000170404 -3.85907e-22)
(0.00144852 -0.000155411 -1.59684e-24)
(0.001466 -0.000138519 8.70516e-24)
(0.00147478 -0.000122927 -3.16607e-23)
(0.00148804 -0.000105097 1.84059e-23)
(0.00149223 -9.01684e-05 -5.35984e-24)
(0.00150186 -7.20243e-05 -1.00238e-23)
(0.00150147 -5.85406e-05 0)
(0.00150799 -4.02886e-05 0)
(0.00150258 -2.90212e-05 1.01399e-23)
(0.00150634 -1.075e-05 4.14596e-23)
(0.00149526 -3.00171e-06 -4.07237e-23)
(0.00149659 1.5374e-05 1.76997e-23)
(0.00147988 1.76883e-05 -5.25312e-23)
(0.00148063 3.81988e-05 6.75095e-23)
(0.00110731 -0.000177643 -1.50104e-22)
(0.00112186 -0.000190327 9.24599e-23)
(0.00113732 -0.000202342 0)
(0.00115557 -0.000213631 0)
(0.00117484 -0.000223901 -4.50984e-23)
(0.00119748 -0.000232757 4.59096e-23)
(0.00122023 -0.000239687 3.33518e-23)
(0.00124658 -0.000244384 -4.10206e-23)
(0.00127139 -0.00024635 0)
(0.00129992 -0.000245571 3.82039e-24)
(0.00132471 -0.000241682 -1.82907e-24)
(0.00135342 -0.000235027 2.06449e-24)
(0.00137585 -0.000225499 1.02065e-24)
(0.0014026 -0.000213664 0)
(0.00142073 -0.000199837 5.24502e-22)
(0.00144394 -0.000184344 -5.24619e-22)
(0.00145683 -0.000168184 0)
(0.00147586 -0.000150685 -4.79797e-24)
(0.00148364 -0.000134067 -1.69231e-23)
(0.00149861 -0.000115693 2.76762e-23)
(0.00150193 -9.99237e-05 1.1912e-23)
(0.00151326 -8.10389e-05 0)
(0.00151254 -6.68729e-05 3.76099e-23)
(0.00152056 -4.72759e-05 -5.00769e-23)
(0.00151553 -3.53443e-05 -5.0538e-23)
(0.00152041 -1.46412e-05 4.96443e-23)
(0.00151015 -6.03453e-06 0)
(0.0015121 1.63308e-05 0)
(0.00149596 1.98829e-05 -1.10112e-22)
(0.00149659 4.64424e-05 6.17044e-23)
(0.00109362 -0.00020108 6.42768e-23)
(0.00111004 -0.000214396 3.08835e-23)
(0.00112781 -0.000226982 1.43586e-23)
(0.00114814 -0.000238594 -1.3224e-23)
(0.00116993 -0.000249033 1.18724e-23)
(0.00119463 -0.000257756 -2.87247e-23)
(0.00121996 -0.000264432 3.97236e-23)
(0.00124817 -0.000268518 9.58161e-25)
(0.0012754 -0.000269795 3.54476e-24)
(0.00130545 -0.000267975 -1.25595e-23)
(0.00133224 -0.000263049 3.8455e-24)
(0.00136208 -0.000255107 -2.36609e-24)
(0.00138583 -0.00024436 -1.66279e-24)
(0.00141346 -0.00023124 4.41976e-24)
(0.00143203 -0.000216163 7.03395e-22)
(0.0014562 -0.000199598 -7.0341e-22)
(0.00146859 -0.000182242 1.09003e-23)
(0.00148902 -0.000163976 8.10745e-25)
(0.00149541 -0.000146227 -1.19408e-23)
(0.00151249 -0.000127353 -3.36592e-23)
(0.00151378 -0.000110553 5.62296e-23)
(0.00152795 -9.12514e-05 -4.3221e-23)
(0.00152508 -7.61878e-05 -1.47258e-24)
(0.00153636 -5.58039e-05 -5.98401e-23)
(0.00152963 -4.30606e-05 7.44633e-23)
(0.00153761 -2.04897e-05 1.55828e-23)
(0.00152641 -1.10522e-05 0)
(0.00153065 1.50425e-05 1.50467e-23)
(0.00151382 1.95783e-05 2.50715e-23)
(0.00151557 5.24484e-05 5.21088e-23)
(0.00108797 -0.000230064 -3.36952e-23)
(0.0011057 -0.000243763 0)
(0.00112538 -0.00025674 4.15749e-23)
(0.00114753 -0.000268545 -4.40085e-23)
(0.00117167 -0.000278964 -2.43219e-23)
(0.00119827 -0.000287323 -4.86296e-23)
(0.0012261 -0.000293431 7.61228e-23)
(0.00125595 -0.000296563 -2.89912e-23)
(0.00128557 -0.000296775 4.77588e-24)
(0.00131669 -0.000293504 -4.91807e-26)
(0.0013455 -0.000287178 1.60218e-24)
(0.00137567 -0.000277504 5.06879e-25)
(0.00140091 -0.000265259 -1.30952e-23)
(0.00142826 -0.000250414 6.33358e-24)
(0.00144769 -0.000233956 9.36411e-22)
(0.00147139 -0.000215934 -9.36414e-22)
(0.00148388 -0.000197392 1.32222e-23)
(0.00150431 -0.00017808 -2.06107e-23)
(0.0015098 -0.000159253 -2.42961e-23)
(0.00152804 -0.000139784 7.09092e-23)
(0.00152713 -0.000121918 -3.96126e-23)
(0.00154423 -0.000102474 1.60192e-23)
(0.00153778 -8.63348e-05 6.78694e-23)
(0.00155399 -6.59719e-05 -1.20276e-22)
(0.00154261 -5.20497e-05 5.22914e-23)
(0.00155681 -2.88583e-05 -3.47605e-23)
(0.00154043 -1.81074e-05 6.88934e-23)
(0.00155037 1.04005e-05 -8.32359e-23)
(0.00152835 1.62237e-05 0)
(0.00153285 5.45205e-05 -2.97133e-23)
(0.00108567 -0.000264084 -3.48625e-23)
(0.00110501 -0.000278226 1.63249e-23)
(0.00112666 -0.000291475 -1.49735e-23)
(0.0011508 -0.000303331 0)
(0.00117723 -0.000313467 -3.12733e-23)
(0.00120581 -0.000321193 4.46952e-23)
(0.00123594 -0.000326311 -8.42937e-24)
(0.00126739 -0.000328121 6.0887e-24)
(0.00129908 -0.000326761 0)
(0.00133108 -0.000321654 0)
(0.00136164 -0.000313435 7.99124e-25)
(0.00139174 -0.000301682 6.35515e-24)
(0.00141842 -0.00028755 -4.74868e-24)
(0.00144477 -0.000270701 0)
(0.00146546 -0.000252665 1.24194e-21)
(0.0014875 -0.000232977 -1.24203e-21)
(0.00150118 -0.000213292 0)
(0.00151985 -0.000192767 -2.12272e-23)
(0.0015262 -0.000173093 1.61391e-23)
(0.00154336 -0.000152873 -8.82964e-24)
(0.00154215 -0.000134188 0)
(0.00155993 -0.000114606 0)
(0.00155079 -9.74993e-05 1.91366e-23)
(0.00157078 -7.77356e-05 -1.93279e-23)
(0.00155284 -6.23539e-05 -8.24473e-23)
(0.00157461 -4.00271e-05 1.00099e-22)
(0.00154628 -2.70381e-05 0)
(0.00156651 1.41869e-06 -2.13455e-23)
(0.00152646 9.85195e-06 2.12528e-23)
(0.00154052 5.07785e-05 -4.21185e-23)
(0.00107749 -0.000302179 1.87306e-23)
(0.00109963 -0.000317241 -1.7256e-23)
(0.0011243 -0.000331018 1.58503e-23)
(0.00115151 -0.000342928 -4.99917e-23)
(0.00118107 -0.00035257 5.1195e-23)
(0.00121256 -0.000359385 3.1293e-23)
(0.00124554 -0.00036309 -3.19665e-23)
(0.00127934 -0.000363188 -2.52553e-24)
(0.00131337 -0.00035974 0)
(0.00134687 -0.000352425 0)
(0.00137917 -0.000341797 0)
(0.0014097 -0.000327692 9.33549e-24)
(0.00143768 -0.000311223 -9.4142e-24)
(0.00146328 -0.000292226 0)
(0.00148519 -0.000272278 1.64115e-21)
(0.00150535 -0.000250895 -1.64097e-21)
(0.00152065 -0.00022991 0)
(0.00153644 -0.00020819 -2.0874e-23)
(0.00154504 -0.00018774 3.07869e-23)
(0.00155843 -0.000166695 0)
(0.00155946 -0.000147412 0)
(0.00157277 -0.000127392 0)
(0.001564 -0.000109602 -2.46267e-23)
(0.00158007 -9.02804e-05 9.59801e-23)
(0.00155736 -7.35621e-05 -9.39553e-23)
(0.00157804 -5.28536e-05 -9.66661e-23)
(0.0015342 -3.68934e-05 9.43938e-23)
(0.00155888 -1.14148e-05 2.25938e-23)
(0.0014863 2.02232e-06 -2.24636e-23)
(0.00151198 3.94731e-05 1.95633e-23)
(0.00106713 -0.00034979 1.62282e-22)
(0.00109309 -0.000364353 -1.47135e-22)
(0.00112202 -0.000377764 0)
(0.00115347 -0.000389171 0)
(0.00118701 -0.000397826 -3.63743e-23)
(0.00122221 -0.00040318 3.09506e-23)
(0.00125854 -0.000404915 0)
(0.00129527 -0.000402753 2.70383e-24)
(0.00133177 -0.000396674 0)
(0.00136721 -0.000386653 0)
(0.00140104 -0.000373079 5.38493e-24)
(0.00143239 -0.000356196 0)
(0.00146105 -0.000336854 -1.19007e-23)
(0.00148629 -0.000315388 1.62245e-23)
(0.0015084 -0.000292982 2.17611e-21)
(0.00152696 -0.000269695 -2.17609e-21)
(0.00154246 -0.000246864 2.4105e-23)
(0.0015551 -0.000223862 -3.05423e-23)
(0.00156439 -0.000202187 0)
(0.00157213 -0.00018028 -1.3985e-23)
(0.0015741 -0.000160152 0)
(0.00157724 -0.000139347 -1.43613e-23)
(0.00156813 -0.00012082 2.63629e-23)
(0.00156779 -0.000101019 0)
(0.00154073 -8.34012e-05 -1.12175e-22)
(0.0015395 -6.33637e-05 1.09483e-22)
(0.00148052 -4.54332e-05 0)
(0.00148375 -2.3729e-05 0)
(0.00137131 -4.66627e-06 2.24616e-22)
(0.00139361 2.17031e-05 -1.92241e-22)
(0.00105812 -0.000410214 0)
(0.00108818 -0.000426744 0)
(0.00112108 -0.000440466 0)
(0.00115697 -0.000450853 0)
(0.00119527 -0.000457529 0)
(0.00123511 -0.000460143 6.77322e-24)
(0.00127557 -0.000458483 0)
(0.0013159 -0.000452478 -1.19579e-23)
(0.00135533 -0.000442189 9.63951e-25)
(0.0013931 -0.000427826 3.99674e-23)
(0.00142847 -0.000409814 -6.06554e-23)
(0.00146071 -0.000388717 3.12429e-23)
(0.00148941 -0.000365295 -4.57337e-24)
(0.00151404 -0.000340253 0)
(0.00153471 -0.000314425 2.89435e-21)
(0.00155102 -0.000288322 -2.89222e-21)
(0.00156356 -0.000262654 0)
(0.00157158 -0.000237547 7.12981e-24)
(0.00157593 -0.000213559 6.33632e-23)
(0.00157494 -0.000190193 -1.11921e-22)
(0.00156919 -0.000168257 1.28638e-22)
(0.00155612 -0.000146432 6.54291e-23)
(0.0015351 -0.000126348 -1.61889e-22)
(0.00150559 -0.000105122 0)
(0.00146176 -8.61396e-05 0)
(0.00141445 -6.5289e-05 0)
(0.00133509 -4.8294e-05 0)
(0.00127671 -2.74031e-05 0)
(0.00113201 -8.54154e-06 0)
(0.00110578 6.05634e-06 0)
(0.00104841 -0.00047614 1.73257e-23)
(0.00108654 -0.000488807 0)
(0.00112907 -0.000500581 0)
(0.00117354 -0.000509058 2.36703e-23)
(0.00121855 -0.000513089 -1.73214e-23)
(0.00126345 -0.000512374 -1.09401e-23)
(0.00130782 -0.000506938 -3.43784e-24)
(0.00135107 -0.000496889 -5.09047e-24)
(0.00139247 -0.00048243 0)
(0.00143114 -0.000463903 -1.04534e-23)
(0.00146627 -0.000441848 0)
(0.00149712 -0.000416954 0)
(0.00152317 -0.000390024 0)
(0.00154397 -0.000361785 0)
(0.00155928 -0.000332907 3.89045e-21)
(0.00156869 -0.00030375 -3.89215e-21)
(0.00157188 -0.000274789 0)
(0.00156803 -0.000246212 0)
(0.00155658 -0.000218157 0)
(0.001536 -0.000191026 0)
(0.00150558 -0.000165399 2.01095e-23)
(0.0014634 -0.000141824 1.83413e-23)
(0.00140851 -0.000119437 3.65078e-23)
(0.00133684 -9.63681e-05 -1.50597e-22)
(0.00124913 -7.43578e-05 2.94432e-22)
(0.00114113 -5.40587e-05 1.4506e-24)
(0.00101739 -3.9104e-05 -1.76631e-22)
(0.00088114 -1.73587e-05 0)