/*--------------------------------*- C++ -*----------------------------------*\
| =========                 |                                                 |
| \\      /  F ield         | OpenFOAM: The Open Source CFD Toolbox           |
|  \\    /   O peration     | Version:  2312                                  |
|   \\  /    A nd           | Website:  www.openfoam.com                      |
|    \\/     M anipulation  |                                                 |
\*---------------------------------------------------------------------------*/
FoamFile
{
    version     2.0;
    format      ascii;
    arch        "LSB;label=32;scalar=64";
    class       surfaceScalarField;
    location    "190000";
    object      phi;
}
// * * * * * * * * * * * * * * * * * * * * * * * * * * * * * * * * * * * * * //

dimensions      [0 3 -1 0 0 0 0];

oriented        oriented;

internalField   nonuniform List<scalar> 
21240
(
0.000664974
1.69236e-06
0.000661071
3.90349e-06
0.000655747
5.32371e-06
0.000649505
6.2418e-06
0.000642621
6.88388e-06
0.000635237
7.38467e-06
0.000627442
7.79463e-06
0.000619315
8.1268e-06
0.000610928
8.38717e-06
0.000602343
8.58471e-06
0.000593612
8.73168e-06
0.000584771
8.84035e-06
0.000575851
8.92028e-06
0.000566873
8.97773e-06
0.000557857
9.01643e-06
0.000548818
9.03875e-06
0.000539772
9.04641e-06
0.000530731
9.0409e-06
0.000521708
9.02339e-06
0.000512713
8.99487e-06
0.000503757
8.95601e-06
0.000494849
8.90729e-06
0.000486
8.84899e-06
0.000477219
8.7813e-06
0.000468515
8.70431e-06
0.000459897
8.61805e-06
0.000451374
8.52256e-06
0.000442956
8.41778e-06
0.000434653
8.30377e-06
0.000426472
8.18035e-06
0.000418425
8.04775e-06
0.000410519
7.90562e-06
0.000402764
7.75451e-06
0.000395171
7.59374e-06
0.000387746
7.42446e-06
0.000380501
7.24533e-06
0.000373442
7.05857e-06
0.000366581
6.86153e-06
0.000359922
6.65843e-06
0.000353478
6.44399e-06
0.000347252
6.22614e-06
0.000341258
5.99462e-06
0.000335493
5.76418e-06
0.000329978
5.51524e-06
0.000324703
5.27514e-06
0.000319696
5.0069e-06
0.000314935
4.76118e-06
0.000310466
4.4686e-06
0.000306243
4.22323e-06
0.000302349
3.89459e-06
0.000298689
3.65959e-06
0.000295421
3.26779e-06
0.000292357
3.06407e-06
0.000289817
2.54009e-06
0.000287414
2.40289e-06
0.000285864
1.55039e-06
0.000284087
1.7766e-06
0.000283988
9.87422e-08
0.000282532
1.45642e-06
-3.01144e-06
0.000285543
0.000667556
8.02963e-07
0.00066912
2.33929e-06
0.000670852
3.59177e-06
0.00067252
4.5742e-06
0.000674043
5.36098e-06
0.000675406
6.02088e-06
0.000676606
6.59555e-06
0.000677629
7.10336e-06
0.000678465
7.55134e-06
0.000679106
7.94388e-06
0.000679551
8.28651e-06
0.000679805
8.58609e-06
0.000679876
8.84956e-06
0.000679771
9.08265e-06
0.000679498
9.28958e-06
0.000679063
9.47316e-06
0.000678474
9.63537e-06
0.000677738
9.77764e-06
0.00067686
9.90126e-06
0.000675847
1.00071e-05
0.000674707
1.00962e-05
0.000673446
1.01688e-05
0.000672069
1.02256e-05
0.000670584
1.02665e-05
0.000668996
1.02921e-05
0.000667312
1.03019e-05
0.000665538
1.02964e-05
0.000663681
1.02749e-05
0.000661747
1.02382e-05
0.000659742
1.01849e-05
0.000657673
1.01168e-05
0.000655548
1.00311e-05
0.000653371
9.93123e-06
0.000651152
9.81269e-06
0.000648896
9.68115e-06
0.000646612
9.52923e-06
0.000644304
9.36652e-06
0.000641984
9.18072e-06
0.000639655
8.98796e-06
0.000637331
8.76761e-06
0.000635011
8.54675e-06
0.000632715
8.29066e-06
0.000630434
8.04478e-06
0.000628199
7.75061e-06
0.000625989
7.48443e-06
0.000623849
7.14772e-06
0.000621741
6.86853e-06
0.000619729
6.48107e-06
0.000617752
6.2003e-06
0.000615899
5.74775e-06
0.000614074
5.48376e-06
0.0006124
4.94225e-06
0.000610739
4.72485e-06
0.000609222
4.05729e-06
0.000607691
3.93436e-06
0.00060615
3.09134e-06
0.000604793
3.13295e-06
0.000602807
2.08532e-06
0.000601897
2.36584e-06
1.17346e-06
0.000597712
0.000666951
5.1835e-07
0.000667819
1.47146e-06
0.000669059
2.35237e-06
0.000670482
3.15114e-06
0.000671979
3.86361e-06
0.000673502
4.49738e-06
0.000675033
5.06463e-06
0.00067656
5.5764e-06
0.000678071
6.04044e-06
0.000679554
6.46158e-06
0.000680997
6.84327e-06
0.000682394
7.18865e-06
0.000683743
7.50114e-06
0.000685041
7.78408e-06
0.00068629
8.04061e-06
0.00068749
8.2732e-06
0.000688642
8.48392e-06
0.000689745
8.67416e-06
0.000690801
8.84521e-06
0.00069181
8.99782e-06
0.000692774
9.13294e-06
0.000693692
9.25083e-06
0.000694565
9.35228e-06
0.000695394
9.43708e-06
0.000696181
9.50595e-06
0.000696924
9.55821e-06
0.000697626
9.59473e-06
0.000698287
9.61427e-06
0.000698907
9.61813e-06
0.000699487
9.60435e-06
0.000700029
9.57499e-06
0.000700533
9.52703e-06
0.000701
9.4638e-06
0.000701432
9.38072e-06
0.00070183
9.28309e-06
0.000702196
9.16392e-06
0.000702531
9.0316e-06
0.000702836
8.87543e-06
0.000703115
8.70849e-06
0.000703369
8.51441e-06
0.000703602
8.31337e-06
0.000703812
8.08042e-06
0.000704011
7.84641e-06
0.000704188
7.57349e-06
0.000704364
7.30832e-06
0.000704517
6.99412e-06
0.000704685
6.70051e-06
0.000704823
6.34357e-06
0.000704998
6.02539e-06
0.000705121
5.6245e-06
0.000705318
5.28706e-06
0.000705418
4.84234e-06
0.00070565
4.49241e-06
0.0007057
4.00789e-06
0.000705981
3.6534e-06
0.000705928
3.14377e-06
0.000706267
2.79377e-06
0.00070605
2.3022e-06
0.000706459
1.95707e-06
1.57831e-06
0.000706054
0.000666854
3.30893e-07
0.000667309
1.01619e-06
0.000667973
1.68891e-06
0.000668796
2.32834e-06
0.000669734
2.92523e-06
0.000670755
3.47663e-06
0.000671835
3.98399e-06
0.000672961
4.4509e-06
0.00067412
4.88117e-06
0.000675304
5.27791e-06
0.000676504
5.64349e-06
0.000677712
5.97984e-06
0.000678925
6.28879e-06
0.000680137
6.57213e-06
0.000681346
6.83171e-06
0.00068255
7.06919e-06
0.000683748
7.28607e-06
0.000684938
7.48347e-06
0.000686121
7.66241e-06
0.000687295
7.82355e-06
0.000688461
7.96756e-06
0.000689617
8.09479e-06
0.000690763
8.2057e-06
0.0006919
8.30039e-06
0.000693027
8.37914e-06
0.000694143
8.44183e-06
0.000695249
8.48864e-06
0.000696344
8.51928e-06
0.000697429
8.53388e-06
0.000698501
8.53199e-06
0.000699562
8.51375e-06
0.00070061
8.47863e-06
0.000701648
8.42676e-06
0.000702671
8.35758e-06
0.000703683
8.2712e-06
0.000704679
8.16714e-06
0.000705666
8.04538e-06
0.000706635
7.90571e-06
0.000707596
7.74773e-06
0.000708539
7.57189e-06
0.000709475
7.37691e-06
0.000710391
7.16463e-06
0.000711305
6.93186e-06
0.000712196
6.68329e-06
0.000713092
6.41189e-06
0.000713958
6.12782e-06
0.000714842
5.81673e-06
0.000715687
5.49908e-06
0.000716565
5.14678e-06
0.00071739
4.7994e-06
0.000718274
4.40362e-06
0.000719082
4.03386e-06
0.000719983
3.59128e-06
0.000720778
3.21293e-06
0.000721713
2.71872e-06
0.0007225
2.35634e-06
0.000723492
1.80202e-06
0.000724299
1.49537e-06
0.000725394
8.61807e-07
6.66878e-07
0.000726306
0.000666739
2.58406e-07
0.000666972
7.83695e-07
0.000667359
1.30163e-06
0.000667882
1.80498e-06
0.00066852
2.28781e-06
0.00066925
2.74646e-06
0.000670054
3.17937e-06
0.000670919
3.58651e-06
0.000671831
3.96861e-06
0.000672783
4.32665e-06
0.000673765
4.66156e-06
0.00067477
4.97414e-06
0.000675794
5.26514e-06
0.000676831
5.53535e-06
0.000677877
5.78558e-06
0.000678929
6.01666e-06
0.000679986
6.22936e-06
0.000681045
6.42438e-06
0.000682105
6.60227e-06
0.000683165
6.76354e-06
0.000684224
6.90849e-06
0.000685282
7.03747e-06
0.000686337
7.15059e-06
0.000687389
7.24811e-06
0.000688438
7.32991e-06
0.000689484
7.39626e-06
0.000690526
7.44677e-06
0.000691563
7.48181e-06
0.000692596
7.50068e-06
0.000693625
7.50395e-06
0.000694648
7.49051e-06
0.000695665
7.46137e-06
0.000696677
7.41477e-06
0.000697682
7.35245e-06
0.000698682
7.27171e-06
0.000699673
7.17545e-06
0.000700659
7.05947e-06
0.000701636
6.92855e-06
0.000702608
6.77617e-06
0.00070357
6.61004e-06
0.000704527
6.41995e-06
0.000705473
6.2183e-06
0.000706416
5.98903e-06
0.000707347
5.75195e-06
0.000708277
5.48172e-06
0.000709195
5.20992e-06
0.000710116
4.89649e-06
0.000711023
4.59169e-06
0.000711938
4.23205e-06
0.00071284
3.89757e-06
0.000713756
3.48731e-06
0.000714661
3.12876e-06
0.000715592
2.66061e-06
0.000716518
2.28651e-06
0.000717489
1.7477e-06
0.000718474
1.37095e-06
0.000719536
7.40198e-07
0.000720649
3.82241e-07
0.000721873
-3.61712e-07
-6.62248e-07
0.000723202
0.000666724
2.00794e-07
0.0006669
6.07988e-07
0.000667185
1.0163e-06
0.000667571
1.41916e-06
0.000668046
1.81278e-06
0.000668599
2.19412e-06
0.000669217
2.561e-06
0.000669891
2.91205e-06
0.000670613
3.24656e-06
0.000671376
3.56423e-06
0.000672172
3.86496e-06
0.000672998
4.1488e-06
0.000673847
4.41589e-06
0.000674716
4.66644e-06
0.000675601
4.90066e-06
0.000676499
5.11888e-06
0.000677407
5.32133e-06
0.000678323
5.50834e-06
0.000679245
5.68008e-06
0.000680172
5.83683e-06
0.000681101
5.97861e-06
0.000682033
6.10565e-06
0.000682966
6.21783e-06
0.000683899
6.31538e-06
0.000684831
6.39796e-06
0.000685761
6.46587e-06
0.000686689
6.51855e-06
0.000687615
6.55642e-06
0.000688537
6.57861e-06
0.000689455
6.58582e-06
0.000690369
6.57675e-06
0.000691278
6.55252e-06
0.000692181
6.51121e-06
0.000693079
6.45469e-06
0.00069397
6.38007e-06
0.000694856
6.29033e-06
0.000695734
6.18118e-06
0.000696605
6.05733e-06
0.000697469
5.91231e-06
0.000698326
5.75348e-06
0.000699174
5.57109e-06
0.000700016
5.37649e-06
0.00070085
5.15497e-06
0.000701678
4.92397e-06
0.000702499
4.66117e-06
0.000703315
4.39334e-06
0.000704125
4.08651e-06
0.000704935
3.78176e-06
0.00070574
3.42714e-06
0.000706552
3.08591e-06
0.000707361
2.67833e-06
0.000708187
2.30234e-06
0.000709013
1.8352e-06
0.00070987
1.42942e-06
0.000710723
8.94843e-07
0.000711624
4.69346e-07
0.000712512
-1.47833e-07
0.000713496
-6.0193e-07
0.000714485
-1.35031e-06
-1.79021e-06
0.000715613
0.000666709
1.58511e-07
0.000666835
4.81615e-07
0.000667043
8.08178e-07
0.000667329
1.1336e-06
0.000667687
1.45527e-06
0.00066811
1.77093e-06
0.000668592
2.07872e-06
0.000669127
2.37721e-06
0.000669708
2.66543e-06
0.000670329
2.94285e-06
0.000670986
3.20816e-06
0.000671674
3.46095e-06
0.000672389
3.70115e-06
0.000673127
3.92862e-06
0.000673884
4.14321e-06
0.000674658
4.34487e-06
0.000675446
4.53351e-06
0.000676245
4.70914e-06
0.000677053
4.87167e-06
0.000677869
5.02112e-06
0.00067869
5.15733e-06
0.000679516
5.28035e-06
0.000680344
5.38992e-06
0.000681173
5.48608e-06
0.000682002
5.56845e-06
0.000682831
5.63716e-06
0.000683658
5.69165e-06
0.000684482
5.73215e-06
0.000685303
5.7579e-06
0.00068612
5.76933e-06
0.000686931
5.76535e-06
0.000687737
5.74673e-06
0.000688536
5.71192e-06
0.000689329
5.6622e-06
0.000690113
5.59535e-06
0.00069089
5.51341e-06
0.000691658
5.4132e-06
0.000692418
5.29789e-06
0.000693167
5.16285e-06
0.000693908
5.01295e-06
0.000694637
4.84141e-06
0.000695358
4.65564e-06
0.000696067
4.44566e-06
0.000696769
4.22265e-06
0.000697458
3.97185e-06
0.000698141
3.71015e-06
0.000698812
3.41559e-06
0.00069948
3.11379e-06
0.000700135
2.77191e-06
0.000700792
2.42895e-06
0.000701435
2.03518e-06
0.000702088
1.64984e-06
0.000702727
1.19607e-06
0.000703392
7.64666e-07
0.000704051
2.35643e-07
0.000704762
-2.41952e-07
0.000705465
-8.5095e-07
0.000706237
-1.37369e-06
0.000706992
-2.10483e-06
-2.66679e-06
0.000707868
0.000666699
1.25923e-07
0.000666797
3.83608e-07
0.00066696
6.45766e-07
0.000667184
9.09156e-07
0.000667467
1.17195e-06
0.000667806
1.43248e-06
0.000668195
1.68926e-06
0.000668632
1.94104e-06
0.00066911
2.18672e-06
0.000669628
2.42538e-06
0.00067018
2.65617e-06
0.000670762
2.87842e-06
0.000671372
3.09161e-06
0.000672005
3.29535e-06
0.000672659
3.48928e-06
0.000673331
3.67311e-06
0.000674018
3.84653e-06
0.000674718
4.00932e-06
0.000675428
4.1612e-06
0.000676147
4.30197e-06
0.000676873
4.43136e-06
0.000677604
4.54922e-06
0.000678339
4.65521e-06
0.000679076
4.74921e-06
0.000679813
4.83082e-06
0.000680551
4.89996e-06
0.000681286
4.95615e-06
0.000682019
4.99937e-06
0.000682748
5.02902e-06
0.000683472
5.0452e-06
0.00068419
5.04713e-06
0.000684902
5.03509e-06
0.000685606
5.00807e-06
0.000686301
4.96658e-06
0.000686987
4.90927e-06
0.000687664
4.83705e-06
0.000688329
4.74803e-06
0.000688983
4.64368e-06
0.000689625
4.5214e-06
0.000690254
4.38341e-06
0.000690869
4.22612e-06
0.000691472
4.05281e-06
0.000692059
3.85846e-06
0.000692634
3.64787e-06
0.000693192
3.41402e-06
0.000693738
3.16385e-06
0.000694266
2.88747e-06
0.000694785
2.59494e-06
0.000695285
2.27216e-06
0.00069578
1.93383e-06
0.000696256
1.55973e-06
0.000696734
1.17186e-06
0.000697189
7.41145e-07
0.000697651
3.01857e-07
0.000698081
-1.94266e-07
0.000698544
-7.04212e-07
0.000698979
-1.28663e-06
0.000699465
-1.85904e-06
0.000699896
-2.53636e-06
-3.17806e-06
0.000700407
0.000666693
9.92224e-08
0.000666773
3.03587e-07
0.000666906
5.13062e-07
0.00066709
7.25263e-07
0.000667323
9.38861e-07
0.000667603
1.1526e-06
0.000667927
1.36531e-06
0.000668292
1.5759e-06
0.000668695
1.7834e-06
0.000669134
1.98691e-06
0.000669604
2.18567e-06
0.000670104
2.37895e-06
0.000670629
2.56614e-06
0.000671178
2.74668e-06
0.000671747
2.92007e-06
0.000672334
3.08586e-06
0.000672937
3.24362e-06
0.000673554
3.39298e-06
0.000674181
3.53353e-06
0.000674818
3.66494e-06
0.000675463
3.78684e-06
0.000676113
3.89894e-06
0.000676767
4.00085e-06
0.000677424
4.09231e-06
0.000678082
4.17291e-06
0.00067874
4.24241e-06
0.000679396
4.30039e-06
0.000680048
4.34662e-06
0.000680697
4.38065e-06
0.00068134
4.40231e-06
0.000681976
4.41106e-06
0.000682604
4.40681e-06
0.000683223
4.38895e-06
0.000683832
4.35743e-06
0.00068443
4.31156e-06
0.000685016
4.25136e-06
0.000685588
4.17601e-06
0.000686146
4.08562e-06
0.000686688
3.97922e-06
0.000687214
3.85697e-06
0.000687723
3.71776e-06
0.000688214
3.56173e-06
0.000688685
3.38768e-06
0.000689137
3.19557e-06
0.000689567
2.98428e-06
0.000689977
2.75328e-06
0.000690363
2.50182e-06
0.000690729
2.22844e-06
0.000691068
1.93331e-06
0.000691389
1.61323e-06
0.000691678
1.27018e-06
0.000691952
8.9796e-07
0.000692192
5.01559e-07
0.000692422
7.12414e-08
0.000692619
-3.90908e-07
0.000692813
-8.98046e-07
0.000692959
-1.43278e-06
0.000693121
-2.02144e-06
0.000693224
-2.63911e-06
-3.32069e-06
0.000693367
0.000666689
7.66605e-08
0.000666757
2.36064e-07
0.000666869
4.01034e-07
0.000667024
5.69786e-07
0.000667222
7.41324e-07
0.00066746
9.14683e-07
0.000667736
1.08893e-06
0.000668049
1.26317e-06
0.000668396
1.43656e-06
0.000668774
1.60832e-06
0.000669182
1.77772e-06
0.000669617
1.94406e-06
0.000670077
2.10671e-06
0.000670558
2.26506e-06
0.00067106
2.41854e-06
0.000671579
2.56664e-06
0.000672114
2.70886e-06
0.000672662
2.84472e-06
0.000673222
2.97377e-06
0.000673791
3.09559e-06
0.000674368
3.20974e-06
0.000674951
3.31585e-06
0.000675539
3.41349e-06
0.000676129
3.5023e-06
0.00067672
3.58187e-06
0.00067731
3.65186e-06
0.000677899
3.71187e-06
0.000678484
3.76156e-06
0.000679064
3.80056e-06
0.000679638
3.82851e-06
0.000680204
3.84509e-06
0.000680761
3.84991e-06
0.000681307
3.84267e-06
0.000681841
3.82295e-06
0.000682362
3.79051e-06
0.000682869
3.74481e-06
0.000683359
3.68575e-06
0.000683832
3.61254e-06
0.000684286
3.52536e-06
0.00068472
3.42298e-06
0.000685132
3.30604e-06
0.000685521
3.17252e-06
0.000685885
3.02394e-06
0.000686223
2.85693e-06
0.000686533
2.67453e-06
0.000686815
2.47105e-06
0.000687065
2.2522e-06
0.000687285
2.00846e-06
0.000687468
1.75001e-06
0.00068762
1.46108e-06
0.000687731
1.1593e-06
0.00068781
8.19019e-07
0.000687842
4.70211e-07
0.00068784
7.3096e-08
0.000687783
-3.34101e-07
0.000687698
-8.13313e-07
0.000687548
-1.28226e-06
0.000687375
-1.84836e-06
0.000687121
-2.3853e-06
-3.05735e-06
0.000686857
0.000666686
5.70845e-08
0.000666745
1.77506e-07
0.000666842
3.03835e-07
0.000666977
4.34743e-07
0.000667149
5.69477e-07
0.000667356
7.07286e-07
0.000667598
8.47428e-07
0.000667872
9.89172e-07
0.000668177
1.13181e-06
0.00066851
1.27466e-06
0.000668871
1.41705e-06
0.000669257
1.55835e-06
0.000669665
1.69794e-06
0.000670095
1.83522e-06
0.000670544
1.96962e-06
0.00067101
2.1006e-06
0.000671491
2.22763e-06
0.000671986
2.35022e-06
0.000672492
2.46786e-06
0.000673007
2.58011e-06
0.000673531
2.68649e-06
0.00067406
2.78657e-06
0.000674593
2.87994e-06
0.000675129
2.96614e-06
0.000675667
3.04481e-06
0.000676203
3.1155e-06
0.000676737
3.17788e-06
0.000677267
3.23151e-06
0.000677791
3.2761e-06
0.000678309
3.3112e-06
0.000678817
3.33658e-06
0.000679315
3.35174e-06
0.000679802
3.35657e-06
0.000680274
3.35043e-06
0.000680731
3.3334e-06
0.000681171
3.30461e-06
0.000681593
3.26442e-06
0.000681994
3.21159e-06
0.000682372
3.14694e-06
0.000682726
3.06854e-06
0.000683054
2.97805e-06
0.000683355
2.87234e-06
0.000683624
2.75444e-06
0.000683862
2.61929e-06
0.000684064
2.47217e-06
0.00068423
2.30485e-06
0.000684356
2.12637e-06
0.000684441
1.9233e-06
0.00068448
1.71093e-06
0.000684474
1.46739e-06
0.000684415
1.21818e-06
0.000684306
9.27909e-07
0.000684138
6.38568e-07
0.000683917
2.93685e-07
0.000683619
-3.56041e-08
0.000683263
-4.57084e-07
0.000682825
-8.44654e-07
0.000682325
-1.34813e-06
0.000681728
-1.78831e-06
-2.39726e-06
0.000681068
0.000666684
3.96704e-08
0.000666736
1.25408e-07
0.000666823
2.17305e-07
0.000666943
3.14403e-07
0.000667096
4.16138e-07
0.000667282
5.21931e-07
0.000667498
6.31193e-07
0.000667744
7.43335e-07
0.000668018
8.57766e-07
0.000668319
9.739e-07
0.000668645
1.09116e-06
0.000668994
1.20896e-06
0.000669365
1.32674e-06
0.000669756
1.44394e-06
0.000670166
1.56001e-06
0.000670592
1.67442e-06
0.000671033
1.78666e-06
0.000671487
1.89622e-06
0.000671952
2.00262e-06
0.000672427
2.10537e-06
0.00067291
2.20402e-06
0.000673398
2.2981e-06
0.000673891
2.3872e-06
0.000674386
2.47087e-06
0.000674882
2.54873e-06
0.000675377
2.62032e-06
0.00067587
2.68533e-06
0.000676358
2.74332e-06
0.00067684
2.79401e-06
0.000677314
2.83695e-06
0.000677779
2.87198e-06
0.000678232
2.89857e-06
0.000678672
2.91669e-06
0.000679097
2.92569e-06
0.000679504
2.92577e-06
0.000679893
2.91603e-06
0.00068026
2.89702e-06
0.000680605
2.86739e-06
0.000680923
2.82826e-06
0.000681214
2.77758e-06
0.000681475
2.71732e-06
0.000681703
2.64423e-06
0.000681896
2.56175e-06
0.00068205
2.46462e-06
0.000682164
2.35868e-06
0.000682233
2.2354e-06
0.000682255
2.10452e-06
0.000682226
1.95225e-06
0.000682143
1.79469e-06
0.000682
1.60951e-06
0.000681795
1.4232e-06
0.000681524
1.19969e-06
0.00068118
9.82309e-07
0.00068076
7.13154e-07
0.000680262
4.62595e-07
0.000679666
1.39042e-07
0.000678968
-1.46641e-07
0.00067817
-5.502e-07
0.000677259
-8.77234e-07
-1.36981e-06
0.000676232
0.000666683
2.37833e-08
0.00066673
7.78476e-08
0.000666809
1.38241e-07
0.000666919
2.04326e-07
0.00066706
2.75693e-07
0.00066723
3.51911e-07
0.000667428
4.32529e-07
0.000667655
5.17078e-07
0.000667907
6.05078e-07
0.000668185
6.96039e-07
0.000668487
7.89467e-07
0.000668811
8.84858e-07
0.000669156
9.81709e-07
0.00066952
1.07951e-06
0.000669903
1.17777e-06
0.000670301
1.27598e-06
0.000670714
1.37366e-06
0.00067114
1.47032e-06
0.000671577
1.56551e-06
0.000672024
1.65874e-06
0.000672478
1.74959e-06
0.000672939
1.83759e-06
0.000673404
1.92234e-06
0.000673871
2.00341e-06
0.000674339
2.08042e-06
0.000674807
2.15295e-06
0.000675271
2.22069e-06
0.000675731
2.28323e-06
0.000676185
2.34032e-06
0.000676631
2.39154e-06
0.000677066
2.43676e-06
0.000677489
2.47552e-06
0.000677898
2.50781e-06
0.00067829
2.5331e-06
0.000678664
2.55158e-06
0.000679018
2.56252e-06
0.000679349
2.56643e-06
0.000679654
2.56225e-06
0.000679931
2.55097e-06
0.000680178
2.53096e-06
0.000680391
2.50396e-06
0.000680568
2.46737e-06
0.000680705
2.42416e-06
0.0006808
2.37012e-06
0.000680848
2.31017e-06
0.000680846
2.23749e-06
0.000680791
2.1602e-06
0.000680676
2.06721e-06
0.000680499
1.97181e-06
0.000680252
1.85611e-06
0.000679933
1.74173e-06
0.000679533
1.59982e-06
0.00067905
1.46547e-06
0.000678471
1.29217e-06
0.000677797
1.13675e-06
0.000677012
9.24236e-07
0.000676119
7.4626e-07
0.000675085
4.83921e-07
0.000673921
2.86409e-07
-3.22974e-08
0.000672584
0.000666682
8.88821e-09
0.000666726
3.32141e-08
0.0006668
6.39775e-08
0.000666904
1.00818e-07
0.000667036
1.43464e-07
0.000667196
1.91612e-07
0.000667384
2.44937e-07
0.000667598
3.03085e-07
0.000667837
3.65685e-07
0.000668101
4.32343e-07
0.000668388
5.02655e-07
0.000668697
5.76199e-07
0.000669026
6.52546e-07
0.000669374
7.31245e-07
0.00066974
8.11851e-07
0.000670122
8.93913e-07
0.000670519
9.76994e-07
0.000670928
1.06065e-06
0.000671349
1.14444e-06
0.00067178
1.22793e-06
0.000672219
1.31071e-06
0.000672664
1.39235e-06
0.000673114
1.47246e-06
0.000673567
1.55065e-06
0.000674021
1.62656e-06
0.000674474
1.69981e-06
0.000674925
1.7701e-06
0.000675371
1.8371e-06
0.000675811
1.90054e-06
0.000676242
1.96013e-06
0.000676663
2.01569e-06
0.000677072
2.06693e-06
0.000677466
2.1138e-06
0.000677843
2.15596e-06
0.000678201
2.19353e-06
0.000678537
2.2261e-06
0.00067885
2.25399e-06
0.000679135
2.27664e-06
0.000679392
2.29468e-06
0.000679615
2.30726e-06
0.000679804
2.3155e-06
0.000679953
2.318e-06
0.000680061
2.31662e-06
0.000680122
2.30908e-06
0.000680133
2.29839e-06
0.00068009
2.28081e-06
0.000679989
2.26118e-06
0.000679823
2.23338e-06
0.00067959
2.20523e-06
0.000679279
2.16676e-06
0.00067889
2.13052e-06
0.00067841
2.08037e-06
0.000677839
2.03647e-06
0.000677158
1.97281e-06
0.000676373
1.92169e-06
0.000675456
1.84145e-06
0.000674418
1.78384e-06
0.00067322
1.68227e-06
0.000671887
1.61924e-06
1.48875e-06
0.000670366
0.000666681
-5.49676e-09
0.000666724
-9.93249e-09
0.000666796
-7.88273e-09
0.000666896
5.01926e-10
0.000667025
1.51799e-08
0.00066718
3.59379e-08
0.000667363
6.25407e-08
0.000667571
9.47414e-08
0.000667804
1.32273e-07
0.000668062
1.74851e-07
0.000668342
2.2217e-07
0.000668645
2.73896e-07
0.000668968
3.29672e-07
0.00066931
3.89107e-07
0.00066967
4.51819e-07
0.000670046
5.17421e-07
0.000670438
5.85524e-07
0.000670843
6.55737e-07
0.000671259
7.27663e-07
0.000671686
8.00913e-07
0.000672122
8.75099e-07
0.000672565
9.49841e-07
0.000673012
1.02477e-06
0.000673463
1.09953e-06
0.000673916
1.17379e-06
0.000674369
1.24724e-06
0.000674819
1.31959e-06
0.000675266
1.39059e-06
0.000675706
1.46e-06
0.000676139
1.5276e-06
0.000676561
1.59322e-06
0.000676972
1.65672e-06
0.000677367
1.71799e-06
0.000677746
1.77697e-06
0.000678106
1.83362e-06
0.000678444
1.88795e-06
0.000678758
1.94001e-06
0.000679045
1.98986e-06
0.000679302
2.03766e-06
0.000679526
2.08351e-06
0.000679714
2.12769e-06
0.000679861
2.17031e-06
0.000679966
2.21179e-06
0.000680023
2.25222e-06
0.000680029
2.29218e-06
0.000679978
2.33167e-06
0.000679868
2.37153e-06
0.00067969
2.41158e-06
0.000679442
2.45297e-06
0.000679114
2.49525e-06
0.000678704
2.54e-06
0.000678198
2.58638e-06
0.000677598
2.63651e-06
0.000676882
2.68904e-06
0.000676057
2.74667e-06
0.000675091
2.80759e-06
0.000674
2.87489e-06
0.000672735
2.94659e-06
0.000671329
3.02556e-06
3.11079e-06
0.000669707
0.000666681
-1.97517e-08
0.000666724
-5.28358e-08
0.000666795
-7.9519e-08
0.000666896
-9.95878e-08
0.000667024
-1.13044e-07
0.00066718
-1.19939e-07
0.000667363
-1.2037e-07
0.000667572
-1.14465e-07
0.000667806
-1.02386e-07
0.000668066
-8.43883e-08
0.000668348
-6.05755e-08
0.000668653
-3.11864e-08
0.000668979
3.72857e-09
0.000669325
4.34261e-08
0.000669689
8.76231e-08
0.000670071
1.36085e-07
0.000670468
1.88491e-07
0.000670879
2.44499e-07
0.000671303
3.03764e-07
0.000671738
3.6596e-07
0.000672182
4.30719e-07
0.000672634
4.97735e-07
0.000673092
5.66636e-07
0.000673555
6.37144e-07
0.00067402
7.08936e-07
0.000674485
7.81765e-07
0.000674949
8.55334e-07
0.00067541
9.29492e-07
0.000675866
1.00401e-06
0.000676315
1.07882e-06
0.000676755
1.15369e-06
0.000677183
1.22867e-06
0.000677597
1.30358e-06
0.000677996
1.37861e-06
0.000678376
1.4536e-06
0.000678735
1.52898e-06
0.00067907
1.60452e-06
0.000679379
1.68089e-06
0.000679659
1.75778e-06
0.000679906
1.83624e-06
0.000680118
1.91571e-06
0.000680291
1.9978e-06
0.000680421
2.08151e-06
0.000680504
2.16922e-06
0.000680537
2.25919e-06
0.000680514
2.35503e-06
0.000680431
2.45372e-06
0.000680282
2.56078e-06
0.000680064
2.67104e-06
0.000679766
2.79311e-06
0.000679388
2.91821e-06
0.000678915
3.05994e-06
0.000678348
3.20349e-06
0.000677666
3.3707e-06
0.000676876
3.53654e-06
0.000675947
3.7366e-06
0.000674893
3.92853e-06
0.000673669
4.17089e-06
0.000672303
4.39179e-06
4.68836e-06
0.000670725
0.000666681
-3.43886e-08
0.000666725
-9.69237e-08
0.000666799
-1.5318e-07
0.000666902
-2.02645e-07
0.000667034
-2.45165e-07
0.000667195
-2.80664e-07
0.000667384
-3.09114e-07
0.0006676
-3.30516e-07
0.000667842
-3.44906e-07
0.00066811
-3.52359e-07
0.000668403
-3.5299e-07
0.000668718
-3.46966e-07
0.000669057
-3.34477e-07
0.000669416
-3.15798e-07
0.000669795
-2.91223e-07
0.000670192
-2.6096e-07
0.000670606
-2.25266e-07
0.000671035
-1.84508e-07
0.000671477
-1.39028e-07
0.000671932
-8.88586e-08
0.000672397
-3.46156e-08
0.000672871
2.38369e-08
0.000673352
8.56294e-08
0.000673839
1.50723e-07
0.000674329
2.18852e-07
0.000674821
2.89876e-07
0.000675313
3.63526e-07
0.000675802
4.39696e-07
0.000676288
5.18107e-07
0.000676768
5.98837e-07
0.00067724
6.81639e-07
0.000677702
7.66742e-07
0.000678152
8.53929e-07
0.000678587
9.43599e-07
0.000679005
1.03548e-06
0.000679404
1.13035e-06
0.00067978
1.22778e-06
0.000680132
1.32893e-06
0.000680457
1.43312e-06
0.000680751
1.54219e-06
0.000681012
1.65497e-06
0.000681235
1.77419e-06
0.000681419
1.89784e-06
0.000681558
2.03004e-06
0.00068165
2.16739e-06
0.000681689
2.31616e-06
0.000681672
2.47061e-06
0.000681592
2.64041e-06
0.000681447
2.81597e-06
0.000681228
3.01238e-06
0.000680933
3.21365e-06
0.000680549
3.44365e-06
0.000680077
3.6758e-06
0.000679499
3.94825e-06
0.000678819
4.21687e-06
0.000678012
4.54325e-06
0.000677087
4.85388e-06
0.000676009
5.24913e-06
0.000674795
5.60591e-06
6.08882e-06
0.000673394
0.000666682
-4.98513e-08
0.000666729
-1.43554e-07
0.000666807
-2.31154e-07
0.000666916
-3.11831e-07
0.000667056
-3.85267e-07
0.000667227
-4.51219e-07
0.000667427
-5.09502e-07
0.000667656
-5.59981e-07
0.000667914
-6.02575e-07
0.000668199
-6.37252e-07
0.00066851
-6.64039e-07
0.000668846
-6.83005e-07
0.000669206
-6.94277e-07
0.000669588
-6.9802e-07
0.000669991
-6.94438e-07
0.000670414
-6.83735e-07
0.000670855
-6.66155e-07
0.000671312
-6.41945e-07
0.000671785
-6.11379e-07
0.000672271
-5.747e-07
0.000672768
-5.32211e-07
0.000673276
-4.84149e-07
0.000673793
-4.3083e-07
0.000674316
-3.72462e-07
0.000674844
-3.09308e-07
0.000675375
-2.41584e-07
0.000675908
-1.69516e-07
0.000676441
-9.30669e-08
0.000676972
-1.2417e-08
0.000677498
7.30258e-08
0.000678017
1.62064e-07
0.000678529
2.55403e-07
0.00067903
3.52876e-07
0.000679518
4.55131e-07
0.000679992
5.61917e-07
0.000680448
6.74053e-07
0.000680885
7.9101e-07
0.000681299
9.14266e-07
0.000681689
1.04304e-06
0.000682052
1.17954e-06
0.000682385
1.32245e-06
0.000682684
1.47496e-06
0.000682947
1.63479e-06
0.00068317
1.80677e-06
0.00068335
1.98705e-06
0.000683484
2.18291e-06
0.000683566
2.38788e-06
0.000683594
2.61306e-06
0.000683562
2.84772e-06
0.000683465
3.109e-06
0.0006833
3.37916e-06
0.000683058
3.68507e-06
0.000682737
3.99737e-06
0.000682326
4.35872e-06
0.000681823
4.72052e-06
0.000681215
5.15123e-06
0.000680499
5.57011e-06
0.00067966
6.08813e-06
0.000678695
6.57036e-06
7.1979e-06
0.000677586
0.000666683
-6.66735e-08
0.000666734
-1.94369e-07
0.000666819
-3.16194e-07
0.000666938
-4.30947e-07
0.000667091
-5.3811e-07
0.000667277
-6.37253e-07
0.000667496
-7.28024e-07
0.000667746
-8.1014e-07
0.000668027
-8.8339e-07
0.000668337
-9.47628e-07
0.000668676
-1.00278e-06
0.000669042
-1.04883e-06
0.000669433
-1.08583e-06
0.000669849
-1.11387e-06
0.000670288
-1.13309e-06
0.000670748
-1.14366e-06
0.000671227
-1.14581e-06
0.000671725
-1.13973e-06
0.00067224
-1.12569e-06
0.000672769
-1.10394e-06
0.000673311
-1.07474e-06
0.000673865
-1.03832e-06
0.00067443
-9.94968e-07
0.000675002
-9.44859e-07
0.000675581
-8.88238e-07
0.000676165
-8.25197e-07
0.000676751
-7.55947e-07
0.000677338
-6.80538e-07
0.000677925
-5.99186e-07
0.00067851
-5.1176e-07
0.000679091
-4.18478e-07
0.000679665
-3.1904e-07
0.000680232
-2.13691e-07
0.000680789
-1.01913e-07
0.000681333
1.70658e-08
0.000681864
1.43675e-07
0.000682378
2.77008e-07
0.000682873
4.18791e-07
0.000683348
5.68622e-07
0.000683799
7.28623e-07
0.000684223
8.97623e-07
0.00068462
1.0784e-06
0.000684985
1.2695e-06
0.000685317
1.47503e-06
0.000685612
1.6924e-06
0.000685867
1.92753e-06
0.000686079
2.17607e-06
0.000686245
2.4468e-06
0.00068636
2.73235e-06
0.000686424
3.04592e-06
0.000686427
3.37531e-06
0.000686372
3.74078e-06
0.000686247
4.12206e-06
0.000686055
4.55081e-06
0.000685782
4.99315e-06
0.000685434
5.49952e-06
0.000684991
6.01292e-06
0.000684464
6.61497e-06
0.000683826
7.20892e-06
7.92813e-06
0.000683096
0.000666686
-8.55077e-08
0.000666742
-2.51321e-07
0.000666838
-4.11529e-07
0.000666971
-5.64466e-07
0.000667143
-7.09362e-07
0.000667351
-8.45557e-07
0.000667595
-9.72487e-07
0.000667875
-1.08969e-06
0.000668188
-1.1968e-06
0.000668534
-1.29355e-06
0.000668911
-1.37976e-06
0.000669318
-1.45536e-06
0.000669752
-1.52033e-06
0.000670213
-1.57472e-06
0.000670699
-1.61866e-06
0.000671207
-1.6523e-06
0.000671737
-1.67584e-06
0.000672287
-1.68951e-06
0.000672855
-1.69355e-06
0.000673439
-1.68821e-06
0.000674038
-1.67375e-06
0.00067465
-1.65042e-06
0.000675274
-1.61848e-06
0.000675907
-1.57812e-06
0.000676548
-1.52958e-06
0.000677196
-1.47301e-06
0.000677849
-1.40861e-06
0.000678505
-1.33642e-06
0.000679162
-1.25653e-06
0.000679819
-1.16889e-06
0.000680474
-1.07354e-06
0.000681126
-9.70235e-07
0.000681771
-8.5891e-07
0.000682408
-7.39161e-07
0.000683036
-6.10913e-07
0.000683653
-4.73761e-07
0.000684258
-3.27678e-07
0.000684849
-1.72009e-07
0.000685425
-7.04519e-09
0.00068598
1.73043e-07
0.000686515
3.63079e-07
0.000687027
5.66147e-07
0.000687514
7.82903e-07
0.000687974
1.01486e-06
0.000688403
1.26262e-06
0.000688803
1.52804e-06
0.000689167
1.81216e-06
0.000689497
2.11707e-06
0.000689785
2.44401e-06
0.000690036
2.79532e-06
0.000690238
3.17274e-06
0.0006904
3.57904e-06
0.000690506
4.01633e-06
0.000690568
4.48813e-06
0.000690565
4.99638e-06
0.000690518
5.54635e-06
0.000690393
6.1383e-06
0.000690226
6.78164e-06
0.000689964
7.47091e-06
8.22414e-06
0.000689668
0.000666688
-1.07193e-07
0.000666754
-3.16956e-07
0.000666864
-5.21382e-07
0.000667018
-7.18198e-07
0.000667214
-9.06287e-07
0.000667454
-1.08468e-06
0.000667734
-1.25255e-06
0.000668053
-1.40921e-06
0.000668411
-1.55412e-06
0.000668804
-1.68691e-06
0.000669231
-1.80732e-06
0.000669691
-1.91521e-06
0.000670182
-2.01056e-06