/*--------------------------------*- C++ -*----------------------------------*\
| =========                 |                                                 |
| \\      /  F ield         | OpenFOAM: The Open Source CFD Toolbox           |
|  \\    /   O peration     | Version:  2312                                  |
|   \\  /    A nd           | Website:  www.openfoam.com                      |
|    \\/     M anipulation  |                                                 |
\*---------------------------------------------------------------------------*/
FoamFile
{
    version     2.0;
    format      ascii;
    arch        "LSB;label=32;scalar=64";
    class       volVectorField;
    location    "190000";
    object      U;
}
// * * * * * * * * * * * * * * * * * * * * * * * * * * * * * * * * * * * * * //

dimensions      [0 1 -1 0 0 0 0];

internalField   nonuniform List<vector> 
10800
(
(0.000992484 4.94206e-06 0)
(0.000990038 1.24595e-05 0)
(0.00098687 1.74839e-05 0)
(0.000980492 2.06721e-05 0)
(0.00097107 2.27612e-05 0)
(0.000959764 2.42625e-05 0)
(0.000947642 2.54109e-05 0)
(0.000935235 2.62812e-05 0)
(0.000922687 2.68976e-05 0)
(0.000909972 2.72852e-05 0)
(0.000897046 2.74816e-05 0)
(0.000883904 2.75297e-05 0)
(0.00087058 2.74672e-05 0)
(0.00085713 2.73221e-05 0)
(0.000843604 2.71123e-05 0)
(0.00083004 2.68493e-05 0)
(0.000816462 2.65407e-05 0)
(0.000802889 2.61929e-05 0)
(0.000789335 2.5811e-05 0)
(0.000775816 2.53996e-05 0)
(0.000762348 2.49621e-05 0)
(0.000748945 2.45013e-05 0)
(0.000735622 2.40188e-05 0)
(0.000722394 2.35163e-05 0)
(0.000709275 2.29944e-05 0)
(0.000696279 2.24544e-05 0)
(0.000683419 2.18961e-05 0)
(0.000670709 2.13211e-05 0)
(0.000658164 2.07285e-05 0)
(0.000645796 2.01203e-05 0)
(0.000633622 1.94952e-05 0)
(0.000621652 1.88559e-05 0)
(0.000609904 1.82001e-05 0)
(0.000598388 1.75323e-05 0)
(0.000587122 1.68485e-05 0)
(0.000576114 1.61556e-05 0)
(0.000565385 1.54472e-05 0)
(0.000554939 1.47338e-05 0)
(0.0005448 1.40043e-05 0)
(0.000534965 1.32759e-05 0)
(0.000525468 1.25292e-05 0)
(0.000516288 1.17923e-05 0)
(0.000507484 1.10313e-05 0)
(0.000498997 1.02929e-05 0)
(0.000490941 9.51805e-06 0)
(0.000483167 8.7857e-06 0)
(0.000475935 7.99316e-06 0)
(0.000468859 7.27305e-06 0)
(0.000462586 6.4519e-06 0)
(0.000456086 5.74208e-06 0)
(0.000451105 4.87655e-06 0)
(0.000444737 4.13441e-06 0)
(0.000442 3.24119e-06 0)
(0.000434279 2.23938e-06 0)
(0.000436709 1.58735e-06 0)
(0.000422896 -6.89342e-07 0)
(0.000439433 4.09077e-07 0)
(0.000404879 -7.22606e-06 0)
(0.000460485 2.19651e-06 0)
(0.000367887 -2.46936e-05 0)
(0.00100003 5.80239e-06 0)
(0.00100172 1.4998e-05 0)
(0.00100422 2.15385e-05 0)
(0.00100705 2.61162e-05 0)
(0.00100978 2.94939e-05 0)
(0.00101217 3.21998e-05 0)
(0.00101418 3.44816e-05 0)
(0.00101583 3.64255e-05 0)
(0.00101717 3.80643e-05 0)
(0.00101824 3.94282e-05 0)
(0.00101905 4.05585e-05 0)
(0.00101958 4.15006e-05 0)
(0.00101984 4.2295e-05 0)
(0.00101982 4.29713e-05 0)
(0.00101953 4.35491e-05 0)
(0.001019 4.40406e-05 0)
(0.00101822 4.44539e-05 0)
(0.00101722 4.47953e-05 0)
(0.00101601 4.50698e-05 0)
(0.00101459 4.52813e-05 0)
(0.00101297 4.5433e-05 0)
(0.00101116 4.55268e-05 0)
(0.00100919 4.55641e-05 0)
(0.00100703 4.55453e-05 0)
(0.00100473 4.5471e-05 0)
(0.00100226 4.53403e-05 0)
(0.000999679 4.5154e-05 0)
(0.000996939 4.49102e-05 0)
(0.00099411 4.46103e-05 0)
(0.000991131 4.42512e-05 0)
(0.000988101 4.3836e-05 0)
(0.000984916 4.33592e-05 0)
(0.000981733 4.28274e-05 0)
(0.000978373 4.2231e-05 0)
(0.000975091 4.1583e-05 0)
(0.000971582 4.08655e-05 0)
(0.000968266 4.01035e-05 0)
(0.000964623 3.92638e-05 0)
(0.000961355 3.8393e-05 0)
(0.000957574 3.74293e-05 0)
(0.000954464 3.64587e-05 0)
(0.000950508 3.53667e-05 0)
(0.000947713 3.4311e-05 0)
(0.000943485 3.30802e-05 0)
(0.000941247 3.19628e-05 0)
(0.000936539 3.05704e-05 0)
(0.000935244 2.94292e-05 0)
(0.000929658 2.78287e-05 0)
(0.000929943 2.67265e-05 0)
(0.000922737 2.48284e-05 0)
(0.000925681 2.38708e-05 0)
(0.000915508 2.151e-05 0)
(0.000922954 2.08741e-05 0)
(0.000907388 1.77604e-05 0)
(0.000922497 1.77305e-05 0)
(0.000897223 1.3396e-05 0)
(0.000925437 1.43555e-05 0)
(0.000882869 8.22184e-06 0)
(0.000933762 1.0284e-05 0)
(0.000860971 2.63048e-06 0)
(0.000999989 1.96199e-06 0)
(0.00100078 5.76953e-06 0)
(0.00100224 9.30787e-06 0)
(0.00100423 1.24932e-05 0)
(0.00100654 1.53227e-05 0)
(0.00100896 1.78414e-05 0)
(0.00101137 2.01041e-05 0)
(0.00101372 2.21536e-05 0)
(0.00101601 2.40169e-05 0)
(0.00101824 2.57105e-05 0)
(0.00102042 2.72473e-05 0)
(0.00102255 2.86403e-05 0)
(0.00102461 2.99035e-05 0)
(0.00102661 3.10502e-05 0)
(0.00102852 3.20925e-05 0)
(0.00103036 3.30395e-05 0)
(0.00103213 3.38988e-05 0)
(0.00103381 3.46753e-05 0)
(0.00103543 3.5374e-05 0)
(0.00103698 3.59975e-05 0)
(0.00103846 3.65495e-05 0)
(0.00103987 3.70306e-05 0)
(0.00104122 3.74441e-05 0)
(0.00104249 3.77886e-05 0)
(0.00104371 3.80675e-05 0)
(0.00104484 3.82771e-05 0)
(0.00104594 3.84222e-05 0)
(0.00104694 3.84961e-05 0)
(0.00104792 3.85062e-05 0)
(0.0010488 3.84421e-05 0)
(0.00104967 3.83157e-05 0)
(0.00105041 3.81105e-05 0)
(0.00105119 3.78461e-05 0)
(0.0010518 3.74964e-05 0)
(0.00105251 3.70935e-05 0)
(0.00105297 3.6596e-05 0)
(0.00105363 3.60557e-05 0)
(0.00105394 3.54068e-05 0)
(0.00105459 3.47323e-05 0)
(0.00105472 3.39282e-05 0)
(0.00105543 3.31257e-05 0)
(0.00105533 3.21609e-05 0)
(0.00105617 3.12402e-05 0)
(0.00105578 3.01064e-05 0)
(0.00105689 2.90821e-05 0)
(0.00105607 2.77667e-05 0)
(0.00105764 2.66591e-05 0)
(0.0010562 2.51433e-05 0)
(0.00105852 2.3981e-05 0)
(0.00105613 2.2239e-05 0)
(0.00105963 2.10616e-05 0)
(0.00105577 1.90631e-05 0)
(0.00106112 1.79255e-05 0)
(0.00105496 1.56487e-05 0)
(0.00106316 1.46276e-05 0)
(0.00105342 1.20981e-05 0)
(0.00106602 1.13029e-05 0)
(0.00105073 8.69012e-06 0)
(0.00107015 8.21047e-06 0)
(0.0010464 5.98449e-06 0)
(0.00100001 1.73965e-06 0)
(0.00100047 5.16311e-06 0)
(0.00100128 8.43942e-06 0)
(0.00100239 1.14923e-05 0)
(0.00100374 1.42808e-05 0)
(0.00100525 1.68017e-05 0)
(0.00100687 1.90765e-05 0)
(0.00100856 2.11347e-05 0)
(0.00101029 2.30029e-05 0)
(0.00101205 2.47015e-05 0)
(0.00101384 2.62458e-05 0)
(0.00101565 2.7648e-05 0)
(0.00101747 2.892e-05 0)
(0.00101929 3.00731e-05 0)
(0.00102111 3.11184e-05 0)
(0.00102292 3.20653e-05 0)
(0.00102473 3.29223e-05 0)
(0.00102652 3.36956e-05 0)
(0.0010283 3.43909e-05 0)
(0.00103007 3.50117e-05 0)
(0.00103182 3.55618e-05 0)
(0.00103356 3.6043e-05 0)
(0.00103529 3.64583e-05 0)
(0.001037 3.68076e-05 0)
(0.0010387 3.70934e-05 0)
(0.00104038 3.73142e-05 0)
(0.00104205 3.74724e-05 0)
(0.0010437 3.7565e-05 0)
(0.00104534 3.7595e-05 0)
(0.00104694 3.75577e-05 0)
(0.00104856 3.74573e-05 0)
(0.00105012 3.72871e-05 0)
(0.00105171 3.70534e-05 0)
(0.00105323 3.67467e-05 0)
(0.00105479 3.63766e-05 0)
(0.00105625 3.59297e-05 0)
(0.00105779 3.54202e-05 0)
(0.0010592 3.48298e-05 0)
(0.00106072 3.41785e-05 0)
(0.00106206 3.34416e-05 0)
(0.00106357 3.26467e-05 0)
(0.00106484 3.17613e-05 0)
(0.00106636 3.08216e-05 0)
(0.00106753 2.9787e-05 0)
(0.00106909 2.87018e-05 0)
(0.00107014 2.75192e-05 0)
(0.00107178 2.62881e-05 0)
(0.00107268 2.4963e-05 0)
(0.00107446 2.35856e-05 0)
(0.00107515 2.21307e-05 0)
(0.00107714 2.06061e-05 0)
(0.00107756 1.90492e-05 0)
(0.00107986 1.73755e-05 0)
(0.0010799 1.57716e-05 0)
(0.00108269 1.39451e-05 0)
(0.00108218 1.23983e-05 0)
(0.00108569 1.0409e-05 0)
(0.00108438 9.10297e-06 0)
(0.00108893 6.90972e-06 0)
(0.00108642 6.11554e-06 0)
(0.001 1.14945e-06 0)
(0.00100023 3.43335e-06 0)
(0.00100068 5.66403e-06 0)
(0.00100134 7.80961e-06 0)
(0.0010022 9.84848e-06 0)
(0.00100324 1.177e-05 0)
(0.0010044 1.35726e-05 0)
(0.00100567 1.52597e-05 0)
(0.00100702 1.6837e-05 0)
(0.00100843 1.83101e-05 0)
(0.00100989 1.96838e-05 0)
(0.00101138 2.09623e-05 0)
(0.00101291 2.21496e-05 0)
(0.00101445 2.325e-05 0)
(0.00101602 2.42676e-05 0)
(0.0010176 2.52065e-05 0)
(0.00101918 2.60704e-05 0)
(0.00102077 2.68623e-05 0)
(0.00102236 2.75847e-05 0)
(0.00102395 2.82398e-05 0)
(0.00102554 2.8829e-05 0)
(0.00102713 2.93537e-05 0)
(0.00102871 2.98143e-05 0)
(0.00103029 3.02118e-05 0)
(0.00103187 3.0546e-05 0)
(0.00103344 3.08174e-05 0)
(0.00103501 3.10251e-05 0)
(0.00103657 3.11697e-05 0)
(0.00103812 3.12491e-05 0)
(0.00103967 3.12647e-05 0)
(0.00104121 3.12129e-05 0)
(0.00104273 3.10967e-05 0)
(0.00104426 3.09103e-05 0)
(0.00104577 3.0659e-05 0)
(0.00104728 3.03338e-05 0)
(0.00104877 2.99443e-05 0)
(0.00105025 2.94761e-05 0)
(0.00105172 2.89458e-05 0)
(0.00105319 2.833e-05 0)
(0.00105464 2.7657e-05 0)
(0.00105608 2.68889e-05 0)
(0.0010575 2.60726e-05 0)
(0.00105892 2.51467e-05 0)
(0.00106033 2.41887e-05 0)
(0.00106172 2.30986e-05 0)
(0.00106311 2.20034e-05 0)
(0.00106448 2.07408e-05 0)
(0.00106587 1.95184e-05 0)
(0.00106721 1.80719e-05 0)
(0.00106861 1.67405e-05 0)
(0.00106992 1.50937e-05 0)
(0.00107137 1.36851e-05 0)
(0.00107265 1.18132e-05 0)
(0.00107417 1.03806e-05 0)
(0.00107543 8.24231e-06 0)
(0.0010771 6.86968e-06 0)
(0.00107834 4.39263e-06 0)
(0.00108026 3.20651e-06 0)
(0.00108144 2.60641e-07 0)
(0.00108359 -5.56992e-07 0)
(0.001 9.21214e-07 0)
(0.00100018 2.76924e-06 0)
(0.00100051 4.60429e-06 0)
(0.00100101 6.40729e-06 0)
(0.00100165 8.16052e-06 0)
(0.00100242 9.84979e-06 0)
(0.00100331 1.14654e-05 0)
(0.00100429 1.30021e-05 0)
(0.00100534 1.44577e-05 0)
(0.00100646 1.5832e-05 0)
(0.00100764 1.71259e-05 0)
(0.00100886 1.83405e-05 0)
(0.00101012 1.94772e-05 0)
(0.00101141 2.05379e-05 0)
(0.00101272 2.15244e-05 0)
(0.00101406 2.24389e-05 0)
(0.00101542 2.32831e-05 0)
(0.00101679 2.40592e-05 0)
(0.00101817 2.47686e-05 0)
(0.00101956 2.54131e-05 0)
(0.00102095 2.59933e-05 0)
(0.00102235 2.65107e-05 0)
(0.00102375 2.69651e-05 0)
(0.00102515 2.7358e-05 0)
(0.00102655 2.76882e-05 0)
(0.00102794 2.79574e-05 0)
(0.00102934 2.81634e-05 0)
(0.00103073 2.83082e-05 0)
(0.00103211 2.83884e-05 0)
(0.00103349 2.84072e-05 0)
(0.00103487 2.83592e-05 0)
(0.00103624 2.82495e-05 0)
(0.00103759 2.807e-05 0)
(0.00103895 2.78289e-05 0)
(0.00104029 2.75139e-05 0)
(0.00104162 2.71383e-05 0)
(0.00104294 2.66835e-05 0)
(0.00104426 2.61705e-05 0)
(0.00104555 2.55709e-05 0)
(0.00104686 2.49179e-05 0)
(0.00104812 2.41681e-05 0)
(0.00104941 2.33731e-05 0)
(0.00105064 2.24667e-05 0)
(0.00105192 2.15287e-05 0)
(0.00105311 2.0458e-05 0)
(0.00105439 1.9378e-05 0)
(0.00105555 1.81332e-05 0)
(0.00105685 1.69145e-05 0)
(0.00105796 1.54827e-05 0)
(0.00105929 1.4133e-05 0)
(0.00106036 1.24956e-05 0)
(0.00106177 1.10288e-05 0)
(0.00106278 9.15758e-06 0)
(0.00106432 7.59666e-06 0)
(0.00106526 5.44804e-06 0)
(0.00106698 3.83137e-06 0)
(0.00106781 1.33639e-06 0)
(0.00106978 -2.76618e-07 0)
(0.00107039 -3.23872e-06 0)
(0.00107258 -4.76284e-06 0)
(0.001 7.24713e-07 0)
(0.00100013 2.1843e-06 0)
(0.00100038 3.64095e-06 0)
(0.00100074 5.08182e-06 0)
(0.00100122 6.4952e-06 0)
(0.00100181 7.87129e-06 0)
(0.00100249 9.20265e-06 0)
(0.00100325 1.04841e-05 0)
(0.00100409 1.17124e-05 0)
(0.001005 1.28857e-05 0)
(0.00100596 1.4003e-05 0)
(0.00100697 1.50637e-05 0)
(0.00100803 1.60676e-05 0)
(0.00100912 1.70146e-05 0)
(0.00101024 1.79048e-05 0)
(0.00101139 1.87383e-05 0)
(0.00101257 1.95155e-05 0)
(0.00101376 2.02366e-05 0)
(0.00101497 2.09016e-05 0)
(0.00101619 2.15112e-05 0)
(0.00101741 2.20648e-05 0)
(0.00101865 2.2563e-05 0)
(0.00101989 2.30048e-05 0)
(0.00102113 2.33908e-05 0)
(0.00102238 2.37195e-05 0)
(0.00102362 2.39917e-05 0)
(0.00102486 2.4205e-05 0)
(0.0010261 2.43609e-05 0)
(0.00102734 2.44558e-05 0)
(0.00102857 2.44923e-05 0)
(0.00102979 2.44652e-05 0)
(0.001031 2.43786e-05 0)
(0.0010322 2.42253e-05 0)
(0.0010334 2.40118e-05 0)
(0.00103458 2.37276e-05 0)
(0.00103576 2.33831e-05 0)
(0.00103691 2.29627e-05 0)
(0.00103806 2.2483e-05 0)
(0.00103919 2.19208e-05 0)
(0.00104032 2.13017e-05 0)
(0.0010414 2.05913e-05 0)
(0.00104251 1.98285e-05 0)
(0.00104356 1.89621e-05 0)
(0.00104465 1.80516e-05 0)
(0.00104565 1.70201e-05 0)
(0.00104673 1.59579e-05 0)
(0.00104769 1.47493e-05 0)
(0.00104876 1.35321e-05 0)
(0.00104967 1.21307e-05 0)
(0.00105076 1.0756e-05 0)
(0.00105161 9.13984e-06 0)
(0.00105273 7.60734e-06 0)
(0.00105353 5.74547e-06 0)
(0.00105472 4.05872e-06 0)
(0.00105545 1.90503e-06 0)
(0.00105677 7.45874e-08 0)
(0.00105744 -2.43779e-06 0)
(0.00105893 -4.38192e-06 0)
(0.00105943 -7.35189e-06 0)
(0.00106101 -9.34841e-06 0)
(0.001 5.73516e-07 0)
(0.0010001 1.73515e-06 0)
(0.00100029 2.9033e-06 0)
(0.00100058 4.06984e-06 0)
(0.00100096 5.22689e-06 0)
(0.00100142 6.36726e-06 0)
(0.00100197 7.48469e-06 0)
(0.00100259 8.57404e-06 0)
(0.00100328 9.63122e-06 0)
(0.00100403 1.0653e-05 0)
(0.00100483 1.1637e-05 0)
(0.00100569 1.25814e-05 0)
(0.00100658 1.34844e-05 0)
(0.00100752 1.43447e-05 0)
(0.00100848 1.51613e-05 0)
(0.00100948 1.59329e-05 0)
(0.0010105 1.66587e-05 0)
(0.00101154 1.7338e-05 0)
(0.0010126 1.79697e-05 0)
(0.00101367 1.85535e-05 0)
(0.00101476 1.90883e-05 0)
(0.00101585 1.95737e-05 0)
(0.00101695 2.00085e-05 0)
(0.00101806 2.03924e-05 0)
(0.00101916 2.07239e-05 0)
(0.00102027 2.10028e-05 0)
(0.00102137 2.12272e-05 0)
(0.00102248 2.13974e-05 0)
(0.00102357 2.15107e-05 0)
(0.00102466 2.15681e-05 0)
(0.00102575 2.1566e-05 0)
(0.00102682 2.15062e-05 0)
(0.00102788 2.13839e-05 0)
(0.00102893 2.12024e-05 0)
(0.00102997 2.09548e-05 0)
(0.00103099 2.06467e-05 0)
(0.00103199 2.02684e-05 0)
(0.00103299 1.98286e-05 0)
(0.00103395 1.93135e-05 0)
(0.00103492 1.87365e-05 0)
(0.00103584 1.80778e-05 0)
(0.00103677 1.73575e-05 0)
(0.00103764 1.65472e-05 0)
(0.00103854 1.56768e-05 0)
(0.00103936 1.47051e-05 0)
(0.00104022 1.36767e-05 0)
(0.00104099 1.25315e-05 0)
(0.00104182 1.13359e-05 0)
(0.00104253 1.00018e-05 0)
(0.00104335 8.62832e-06 0)
(0.00104399 7.08527e-06 0)
(0.0010448 5.52215e-06 0)
(0.00104538 3.74359e-06 0)
(0.00104621 1.97842e-06 0)
(0.00104671 -7.31991e-08 0)
(0.00104758 -2.05443e-06 0)
(0.00104799 -4.43597e-06 0)
(0.00104891 -6.64671e-06 0)
(0.00104916 -9.43786e-06 0)
(0.00105001 -1.18775e-05 0)
(0.001 4.53813e-07 0)
(0.00100008 1.37922e-06 0)
(0.00100024 2.31689e-06 0)
(0.00100048 3.2612e-06 0)
(0.00100079 4.20647e-06 0)
(0.00100117 5.14728e-06 0)
(0.00100162 6.0786e-06 0)
(0.00100214 6.99594e-06 0)
(0.00100272 7.89536e-06 0)
(0.00100335 8.77348e-06 0)
(0.00100403 9.62726e-06 0)
(0.00100476 1.04541e-05 0)
(0.00100553 1.12516e-05 0)
(0.00100634 1.20177e-05 0)
(0.00100718 1.27507e-05 0)
(0.00100805 1.34488e-05 0)
(0.00100894 1.41106e-05 0)
(0.00100986 1.47347e-05 0)
(0.00101079 1.53197e-05 0)
(0.00101174 1.58645e-05 0)
(0.0010127 1.63677e-05 0)
(0.00101368 1.68282e-05 0)
(0.00101465 1.72448e-05 0)
(0.00101564 1.76163e-05 0)
(0.00101663 1.79414e-05 0)
(0.00101761 1.82192e-05 0)
(0.0010186 1.84479e-05 0)
(0.00101958 1.8627e-05 0)
(0.00102056 1.87544e-05 0)
(0.00102153 1.88299e-05 0)
(0.00102248 1.8851e-05 0)
(0.00102343 1.88179e-05 0)
(0.00102437 1.87274e-05 0)
(0.00102529 1.85803e-05 0)
(0.0010262 1.83728e-05 0)
(0.00102709 1.81064e-05 0)
(0.00102795 1.7776e-05 0)
(0.0010288 1.73844e-05 0)
(0.00102962 1.69249e-05 0)
(0.00103043 1.64016e-05 0)
(0.0010312 1.58057e-05 0)
(0.00103196 1.51433e-05 0)
(0.00103267 1.44028e-05 0)
(0.00103338 1.35925e-05 0)
(0.00103402 1.26974e-05 0)
(0.00103468 1.17286e-05 0)
(0.00103525 1.06665e-05 0)
(0.00103585 9.52578e-06 0)
(0.00103633 8.28136e-06 0)
(0.00103688 6.95199e-06 0)
(0.00103728 5.50532e-06 0)
(0.00103777 3.96604e-06 0)
(0.00103807 2.29096e-06 0)
(0.00103853 5.15164e-07 0)
(0.00103873 -1.42193e-06 0)
(0.00103914 -3.46471e-06 0)
(0.00103923 -5.70628e-06 0)
(0.0010396 -8.05018e-06 0)
(0.00103951 -1.06529e-05 0)
(0.00103969 -1.3329e-05 0)
(0.001 3.54453e-07 0)
(0.00100007 1.08349e-06 0)
(0.0010002 1.82867e-06 0)
(0.0010004 2.58592e-06 0)
(0.00100067 3.35103e-06 0)
(0.00100099 4.11984e-06 0)
(0.00100138 4.88831e-06 0)
(0.00100182 5.65266e-06 0)
(0.00100232 6.40939e-06 0)
(0.00100286 7.15528e-06 0)
(0.00100345 7.88732e-06 0)
(0.00100408 8.6028e-06 0)
(0.00100476 9.29917e-06 0)
(0.00100546 9.97411e-06 0)
(0.0010062 1.06255e-05 0)
(0.00100697 1.12513e-05 0)
(0.00100776 1.18496e-05 0)
(0.00100857 1.24188e-05 0)
(0.0010094 1.2957e-05 0)
(0.00101025 1.34628e-05 0)
(0.00101111 1.39346e-05 0)
(0.00101198 1.43707e-05 0)
(0.00101286 1.47698e-05 0)
(0.00101375 1.51303e-05 0)
(0.00101463 1.54508e-05 0)
(0.00101552 1.57299e-05 0)
(0.0010164 1.59661e-05 0)
(0.00101728 1.61581e-05 0)
(0.00101816 1.63043e-05 0)
(0.00101902 1.64035e-05 0)
(0.00101988 1.64542e-05 0)
(0.00102072 1.64552e-05 0)
(0.00102155 1.64048e-05 0)
(0.00102236 1.6302e-05 0)
(0.00102315 1.61449e-05 0)
(0.00102393 1.59323e-05 0)
(0.00102467 1.56627e-05 0)
(0.0010254 1.53342e-05 0)
(0.00102609 1.49458e-05 0)
(0.00102676 1.44946e-05 0)
(0.00102739 1.39805e-05 0)
(0.001028 1.33985e-05 0)
(0.00102855 1.27507e-05 0)
(0.00102909 1.20283e-05 0)
(0.00102957 1.12373e-05 0)
(0.00103003 1.03623e-05 0)
(0.00103041 9.41651e-06 0)
(0.00103078 8.37337e-06 0)
(0.00103106 7.25881e-06 0)
(0.00103135 6.02758e-06 0)
(0.0010315 4.72695e-06 0)
(0.00103169 3.28183e-06 0)
(0.00103172 1.77443e-06 0)
(0.00103181 8.16791e-08 0)
(0.00103169 -1.65766e-06 0)
(0.00103166 -3.64255e-06 0)
(0.00103138 -5.64915e-06 0)
(0.0010312 -7.98377e-06 0)
(0.00103071 -1.02936e-05 0)
(0.00103024 -1.30411e-05 0)
(0.001 2.69503e-07 0)
(0.00100006 8.30506e-07 0)
(0.00100018 1.41057e-06 0)
(0.00100035 2.00667e-06 0)
(0.00100058 2.61562e-06 0)
(0.00100086 3.23417e-06 0)
(0.0010012 3.85908e-06 0)
(0.00100159 4.48721e-06 0)
(0.00100202 5.11555e-06 0)
(0.0010025 5.74121e-06 0)
(0.00100302 6.36146e-06 0)
(0.00100358 6.97367e-06 0)
(0.00100418 7.57535e-06 0)
(0.00100481 8.16413e-06 0)
(0.00100547 8.73776e-06 0)
(0.00100615 9.2941e-06 0)
(0.00100687 9.83111e-06 0)
(0.0010076 1.03468e-05 0)
(0.00100835 1.08393e-05 0)
(0.00100912 1.13068e-05 0)
(0.0010099 1.17476e-05 0)
(0.00101069 1.21598e-05 0)
(0.00101148 1.25418e-05 0)
(0.00101229 1.28919e-05 0)
(0.00101309 1.32087e-05 0)
(0.0010139 1.34903e-05 0)
(0.0010147 1.37355e-05 0)
(0.0010155 1.39424e-05 0)
(0.00101629 1.411e-05 0)
(0.00101707 1.42363e-05 0)
(0.00101784 1.43205e-05 0)
(0.0010186 1.43605e-05 0)
(0.00101934 1.43558e-05 0)
(0.00102006 1.43038e-05 0)
(0.00102075 1.42046e-05 0)
(0.00102143 1.4055e-05 0)
(0.00102207 1.38559e-05 0)
(0.00102269 1.36026e-05 0)
(0.00102328 1.32978e-05 0)
(0.00102383 1.29343e-05 0)
(0.00102434 1.25176e-05 0)
(0.00102481 1.20362e-05 0)
(0.00102524 1.15005e-05 0)
(0.00102563 1.08919e-05 0)
(0.00102595 1.02288e-05 0)
(0.00102624 9.48099e-06 0)
(0.00102644 8.68065e-06 0)
(0.00102662 7.778e-06 0)
(0.00102669 6.82831e-06 0)
(0.00102674 5.75016e-06 0)
(0.00102666 4.63664e-06 0)
(0.00102657 3.3554e-06 0)
(0.00102633 2.06091e-06 0)
(0.00102607 5.39965e-07 0)
(0.00102564 -9.54594e-07 0)
(0.00102519 -2.76317e-06 0)
(0.00102455 -4.47844e-06 0)
(0.00102386 -6.6425e-06 0)
(0.00102296 -8.6005e-06 0)
(0.0010219 -1.12005e-05 0)
(0.001 1.94965e-07 0)
(0.00100005 6.08383e-07 0)
(0.00100016 1.04313e-06 0)
(0.00100031 1.49694e-06 0)
(0.00100052 1.96742e-06 0)
(0.00100077 2.45201e-06 0)
(0.00100107 2.94814e-06 0)
(0.00100142 3.45323e-06 0)
(0.00100181 3.96474e-06 0)
(0.00100224 4.48016e-06 0)
(0.00100271 4.99706e-06 0)
(0.00100322 5.51304e-06 0)
(0.00100376 6.02574e-06 0)
(0.00100433 6.53289e-06 0)
(0.00100493 7.03228e-06 0)
(0.00100556 7.52175e-06 0)
(0.00100621 7.99924e-06 0)
(0.00100688 8.4627e-06 0)
(0.00100757 8.9102e-06 0)
(0.00100828 9.33979e-06 0)
(0.001009 9.74967e-06 0)
(0.00100972 1.01379e-05 0)
(0.00101046 1.0503e-05 0)
(0.0010112 1.08429e-05 0)
(0.00101195 1.11562e-05 0)
(0.00101269 1.1441e-05 0)
(0.00101343 1.16961e-05 0)
(0.00101417 1.19196e-05 0)
(0.0010149 1.21105e-05 0)
(0.00101561 1.22668e-05 0)
(0.00101632 1.23878e-05 0)
(0.00101701 1.24713e-05 0)
(0.00101768 1.25172e-05 0)
(0.00101833 1.25227e-05 0)
(0.00101895 1.24885e-05 0)
(0.00101955 1.24109e-05 0)
(0.00102012 1.22919e-05 0)
(0.00102065 1.2126e-05 0)
(0.00102115 1.19174e-05 0)
(0.00102161 1.16576e-05 0)
(0.00102202 1.13544e-05 0)
(0.00102239 1.09944e-05 0)
(0.0010227 1.05913e-05 0)
(0.00102297 1.01231e-05 0)
(0.00102316 9.6137e-06 0)
(0.00102331 9.02729e-06 0)
(0.00102337 8.40403e-06 0)
(0.00102338 7.68584e-06 0)
(0.00102328 6.93969e-06 0)
(0.00102313 6.07135e-06 0)
(0.00102285 5.19156e-06 0)
(0.00102251 4.14787e-06 0)
(0.00102203 3.12173e-06 0)
(0.00102148 1.86799e-06 0)
(0.00102077 6.81038e-07 0)
(0.00101997 -8.3013e-07 0)
(0.00101898 -2.18764e-06 0)
(0.00101786 -4.02008e-06 0)
(0.00101655 -5.55535e-06 0)
(0.00101498 -7.79211e-06 0)
(0.001 1.2788e-07 0)
(0.00100005 4.08284e-07 0)
(0.00100014 7.11787e-07 0)
(0.00100028 1.03676e-06 0)
(0.00100047 1.3814e-06 0)
(0.0010007 1.74376e-06 0)
(0.00100098 2.1218e-06 0)
(0.0010013 2.51344e-06 0)
(0.00100166 2.9166e-06 0)
(0.00100206 3.32915e-06 0)
(0.00100249 3.74897e-06 0)
(0.00100296 4.17392e-06 0)
(0.00100346 4.60189e-06 0)
(0.001004 5.03076e-06 0)
(0.00100456 5.45846e-06 0)
(0.00100514 5.88292e-06 0)
(0.00100575 6.30215e-06 0)
(0.00100638 6.71415e-06 0)
(0.00100703 7.11703e-06 0)
(0.00100769 7.50885e-06 0)
(0.00100837 7.88782e-06 0)
(0.00100906 8.25207e-06 0)
(0.00100975 8.59996e-06 0)
(0.00101045 8.92965e-06 0)
(0.00101115 9.23967e-06 0)
(0.00101186 9.52822e-06 0)
(0.00101255 9.79405e-06 0)
(0.00101325 1.00354e-05 0)
(0.00101393 1.02513e-05 0)
(0.00101461 1.04398e-05 0)
(0.00101527 1.06006e-05 0)
(0.00101592 1.07314e-05 0)
(0.00101654 1.08323e-05 0)
(0.00101714 1.09009e-05 0)
(0.00101772 1.09379e-05 0)
(0.00101826 1.094e-05 0)
(0.00101878 1.09096e-05 0)
(0.00101925 1.08414e-05 0)
(0.00101969 1.074e-05 0)
(0.00102009 1.05977e-05 0)
(0.00102043 1.04222e-05 0)
(0.00102073 1.02014e-05 0)
(0.00102096 9.94861e-06 0)
(0.00102114 9.64398e-06 0)
(0.00102124 9.31022e-06 0)
(0.00102128 8.91491e-06 0)
(0.00102123 8.49577e-06 0)
(0.00102111 8.00027e-06 0)
(0.00102089 7.49046e-06 0)
(0.00102058 6.8814e-06 0)
(0.00102015 6.27457e-06 0)
(0.00101962 5.53289e-06 0)
(0.00101895 4.82163e-06 0)
(0.00101816 3.91976e-06 0)
(0.00101722 3.09603e-06 0)
(0.00101613 1.99412e-06 0)
(0.00101486 1.05077e-06 0)
(0.0010134 -3.03045e-07 0)
(0.00101177 -1.3617e-06 0)
(0.00100981 -3.03713e-06 0)
(0.001 6.58756e-08 0)
(0.00100005 2.23122e-07 0)
(0.00100013 4.0483e-07 0)
(0.00100027 6.09906e-07 0)
(0.00100044 8.37098e-07 0)
(0.00100066 1.08498e-06 0)
(0.00100092 1.352e-06 0)
(0.00100122 1.63653e-06 0)
(0.00100156 1.93689e-06 0)
(0.00100194 2.25132e-06 0)
(0.00100236 2.57805e-06 0)
(0.0010028 2.91523e-06 0)
(0.00100328 3.26101e-06 0)
(0.00100379 3.61349e-06 0)
(0.00100433 3.9708e-06 0)
(0.00100489 4.33106e-06 0)
(0.00100547 4.6924e-06 0)
(0.00100608 5.05298e-06 0)
(0.0010067 5.41098e-06 0)
(0.00100734 5.76457e-06 0)
(0.00100799 6.11205e-06 0)
(0.00100866 6.45164e-06 0)
(0.00100933 6.78173e-06 0)
(0.00101001 7.10063e-06 0)
(0.00101069 7.40691e-06 0)
(0.00101137 7.69892e-06 0)
(0.00101204 7.97544e-06 0)
(0.00101272 8.23493e-06 0)
(0.00101338 8.47646e-06 0)
(0.00101404 8.69848e-06 0)
(0.00101468 8.90047e-06 0)
(0.0010153 9.0808e-06 0)
(0.0010159 9.23947e-06 0)
(0.00101648 9.3746e-06 0)
(0.00101703 9.48693e-06 0)
(0.00101755 9.57404e-06 0)
(0.00101804 9.63774e-06 0)
(0.00101849 9.67457e-06 0)
(0.0010189 9.68803e-06 0)
(0.00101926 9.67282e-06 0)
(0.00101957 9.63502e-06 0)
(0.00101982 9.56621e-06 0)
(0.00102002 9.47652e-06 0)
(0.00102014 9.35231e-06 0)
(0.0010202 9.21025e-06 0)
(0.00102018 9.02812e-06 0)
(0.00102007 8.83313e-06 0)
(0.00101987 8.58916e-06 0)
(0.00101957 8.34047e-06 0)
(0.00101917 8.02853e-06 0)
(0.00101864 7.72509e-06 0)
(0.00101799 7.33568e-06 0)
(0.0010172 6.9762e-06 0)
(0.00101627 6.49458e-06 0)
(0.00101517 6.07774e-06 0)
(0.00101389 5.48103e-06 0)
(0.00101243 5.0059e-06 0)
(0.00101074 4.25959e-06 0)
(0.00100887 3.73016e-06 0)
(0.00100667 2.78992e-06 0)
(0.001 6.96531e-09 0)
(0.00100004 4.68754e-08 0)
(0.00100013 1.12217e-07 0)
(0.00100026 2.02361e-07 0)
(0.00100043 3.16543e-07 0)
(0.00100064 4.53873e-07 0)
(0.0010009 6.13321e-07 0)
(0.00100119 7.93716e-07 0)
(0.00100152 9.93787e-07 0)
(0.00100189 1.21217e-06 0)
(0.00100229 1.44745e-06 0)
(0.00100273 1.69812e-06 0)
(0.0010032 1.96262e-06 0)
(0.0010037 2.23924e-06 0)
(0.00100422 2.52627e-06 0)
(0.00100478 2.82205e-06 0)
(0.00100535 3.12491e-06 0)
(0.00100595 3.43316e-06 0)
(0.00100657 3.74515e-06 0)
(0.0010072 4.0592e-06 0)
(0.00100785 4.37371e-06 0)
(0.00100851 4.68709e-06 0)
(0.00100918 4.9978e-06 0)
(0.00100985 5.30436e-06 0)
(0.00101053 5.60539e-06 0)
(0.00101121 5.89949e-06 0)
(0.00101189 6.18546e-06 0)
(0.00101256 6.46207e-06 0)
(0.00101323 6.72838e-06 0)
(0.00101388 6.98333e-06 0)
(0.00101452 7.22628e-06 0)
(0.00101515 7.4563e-06 0)
(0.00101575 7.67313e-06 0)
(0.00101634 7.8759e-06 0)
(0.00101689 8.06483e-06 0)
(0.00101741 8.23903e-06 0)
(0.0010179 8.39933e-06 0)
(0.00101836 8.54465e-06 0)
(0.00101876 8.67665e-06 0)
(0.00101912 8.79373e-06 0)
(0.00101943 8.89878e-06 0)
(0.00101969 8.98913e-06 0)
(0.00101988 9.06948e-06 0)
(0.00102 9.13523e-06 0)
(0.00102005 9.19385e-06 0)
(0.00102001 9.23751e-06 0)
(0.00101989 9.27796e-06 0)
(0.00101968 9.30211e-06 0)
(0.00101936 9.32848e-06 0)
(0.00101893 9.33553e-06 0)
(0.00101838 9.35234e-06 0)
(0.00101769 9.34402e-06 0)
(0.00101686 9.35621e-06 0)
(0.00101588 9.33287e-06 0)
(0.00101472 9.34556e-06 0)
(0.00101338 9.30526e-06 0)
(0.00101184 9.32394e-06 0)
(0.00101007 9.2614e-06 -5.89828e-38)
(0.00100809 9.29296e-06 0)
(0.00100581 9.19878e-06 0)
(0.001 -5.06861e-08 0)
(0.00100004 -1.25903e-07 0)
(0.00100013 -1.74926e-07 0)
(0.00100026 -1.9779e-07 0)
(0.00100043 -1.94806e-07 0)
(0.00100064 -1.66492e-07 0)
(0.00100089 -1.13506e-07 0)
(0.00100119 -3.66199e-08 0)
(0.00100152 6.3292e-08 0)
(0.00100189 1.8527e-07 0)
(0.0010023 3.28227e-07 0)
(0.00100274 4.90969e-07 0)
(0.00100321 6.72214e-07 0)
(0.00100372 8.70712e-07 0)
(0.00100425 1.0851e-06 0)
(0.00100481 1.31394e-06 0)
(0.00100539 1.55575e-06 0)
(0.001006 1.80908e-06 0)
(0.00100663 2.07241e-06 0)
(0.00100727 2.34427e-06 0)
(0.00100793 2.62315e-06 0)
(0.00100861 2.90764e-06 0)
(0.00100929 3.19625e-06 0)
(0.00100998 3.4877e-06 0)
(0.00101068 3.78069e-06 0)
(0.00101137 4.07416e-06 0)
(0.00101207 4.36699e-06 0)
(0.00101277 4.6583e-06 0)
(0.00101345 4.9471e-06 0)
(0.00101413 5.23282e-06 0)
(0.0010148 5.51469e-06 0)
(0.00101545 5.79255e-06 0)
(0.00101608 6.06579e-06 0)
(0.00101669 6.33472e-06 0)
(0.00101728 6.59889e-06 0)
(0.00101783 6.85915e-06 0)
(0.00101836 7.11515e-06 0)
(0.00101884 7.36844e-06 0)
(0.00101928 7.61862e-06 0)
(0.00101968 7.8681e-06 0)
(0.00102002 8.11621e-06 0)
(0.00102031 8.36654e-06 0)
(0.00102054 8.61773e-06 0)
(0.0010207 8.87501e-06 0)
(0.00102079 9.13575e-06 0)
(0.0010208 9.40762e-06 0)
(0.00102072 9.68564e-06 0)
(0.00102054 9.98134e-06 0)
(0.00102027 1.02857e-05 0)
(0.00101988 1.06163e-05 0)
(0.00101938 1.09571e-05 0)
(0.00101874 1.1336e-05 0)
(0.00101796 1.17243e-05 0)
(0.00101703 1.21675e-05 0)
(0.00101592 1.26152e-05 0)
(0.00101464 1.31422e-05 0)
(0.00101315 1.36609e-05 0)
(0.00101145 1.42962e-05 5.89828e-38)
(0.0010095 1.48954e-05 0)
(0.00100732 1.56693e-05 0)
(0.001 -1.08911e-07 0)
(0.00100005 -3.00573e-07 0)
(0.00100013 -4.65561e-07 0)
(0.00100026 -6.03387e-07 0)
(0.00100044 -7.13843e-07 0)
(0.00100066 -7.96992e-07 0)
(0.00100092 -8.53052e-07 0)
(0.00100122 -8.82317e-07 0)
(0.00100157 -8.85181e-07 0)
(0.00100195 -8.62171e-07 0)
(0.00100237 -8.14003e-07 0)
(0.00100283 -7.41567e-07 0)
(0.00100332 -6.4588e-07 0)
(0.00100384 -5.27964e-07 0)
(0.0010044 -3.88984e-07 0)
(0.00100498 -2.3014e-07 0)
(0.00100559 -5.26958e-08 0)
(0.00100622 1.42105e-07 0)
(0.00100687 3.52978e-07 0)
(0.00100755 5.7866e-07 0)
(0.00100824 8.17792e-07 0)
(0.00100894 1.06916e-06 0)
(0.00100966 1.33148e-06 0)
(0.00101039 1.60368e-06 0)
(0.00101112 1.88449e-06 0)
(0.00101186 2.17304e-06 0)
(0.0010126 2.46822e-06 0)
(0.00101333 2.76968e-06 0)
(0.00101406 3.07648e-06 0)
(0.00101479 3.3886e-06 0)
(0.0010155 3.70495e-06 0)
(0.00101621 4.02615e-06 0)
(0.00101689 4.35133e-06 0)
(0.00101755 4.68189e-06 0)
(0.00101819 5.01686e-06 0)
(0.00101881 5.35868e-06 0)
(0.00101939 5.7059e-06 0)
(0.00101994 6.06241e-06 0)
(0.00102045 6.426e-06 0)
(0.00102091 6.8027e-06 0)
(0.00102133 7.18872e-06 0)
(0.00102169 7.59318e-06 0)
(0.001022 8.00953e-06 0)
(0.00102224 8.45157e-06 0)
(0.00102241 8.90804e-06 0)
(0.00102251 9.40003e-06 0)
(0.00102253 9.90839e-06 0)
(0.00102246 1.04657e-05 0)
(0.00102229 1.10396e-05 0)
(0.00102202 1.16812e-05 0)
(0.00102163 1.23365e-05 0)
(0.00102113 1.30862e-05 0)
(0.00102048 1.38402e-05 0)
(0.0010197 1.4728e-05 0)
(0.00101875 1.55993e-05 0)
(0.00101765 1.66641e-05 0)
(0.00101633 1.76709e-05 0)
(0.00101486 1.89631e-05 0)
(0.00101308 2.01186e-05 0)
(0.00101118 2.17027e-05 0)
(0.001 -1.69541e-07 0)
(0.00100005 -4.82721e-07 0)
(0.00100014 -7.6904e-07 0)
(0.00100028 -1.02756e-06 0)
(0.00100047 -1.25749e-06 0)
(0.0010007 -1.45826e-06 0)
(0.00100098 -1.62948e-06 0)
(0.0010013 -1.7709e-06 0)
(0.00100166 -1.88245e-06 0)
(0.00100207 -1.96425e-06 0)
(0.00100252 -2.01661e-06 0)
(0.001003 -2.04002e-06 0)
(0.00100353 -2.03517e-06 0)
(0.00100408 -2.00294e-06 0)
(0.00100467 -1.94434e-06 0)
(0.00100529 -1.8603e-06 0)
(0.00100594 -1.75189e-06 0)
(0.00100662 -1.62015e-06 0)
(0.00100731 -1.4662e-06 0)
(0.00100803 -1.29113e-06 0)
(0.00100877 -1.09613e-06 0)
(0.00100953 -8.8224e-07 0)
(0.00101029 -6.50596e-07 0)
(0.00101107 -4.02081e-07 0)
(0.00101186 -1.37898e-07 0)
(0.00101266 1.41363e-07 0)
(0.00101346 4.34565e-07 0)
(0.00101426 7.41414e-07 0)
(0.00101506 1.06085e-06 0)
(0.00101585 1.39329e-06 0)
(0.00101663 1.73797e-06 0)
(0.00101741 2.09595e-06 0)
(0.00101817 2.46631e-06 0)
(0.00101891 2.85104e-06 0)
(0.00101963 3.24909e-06 0)
(0.00102033 3.66427e-06 0)
(0.001021 4.09443e-06 0)
(0.00102164 4.545e-06 0)
(0.00102224 5.0128e-06 0)
(0.00102281 5.50628e-06 0)
(0.00102333 6.01986e-06 0)
(0.00102381 6.56612e-06 0)
(0.00102423 7.13559e-06 0)
(0.00102459 7.74737e-06 0)
(0.0010249 8.38543e-06 0)
(0.00102513 9.07888e-06 0)
(0.0010253 9.80087e-06 0)
(0.00102538 1.05962e-05 0)
(0.00102538 1.14202e-05 0)
(0.00102528 1.23425e-05 0)
(0.00102509 1.32893e-05 0)
(0.00102478 1.43705e-05 0)
(0.00102436 1.54636e-05 0)
(0.00102382 1.67439e-05 0)
(0.00102312 1.80088e-05 0)
(0.00102231 1.95406e-05 0)
(0.00102127 2.10029e-05 0)
(0.00102016 2.28545e-05 0)
(0.00101869 2.45339e-05 0)
(0.00101723 2.67912e-05 0)
(0.001 -2.34592e-07 0)