/*--------------------------------*- C++ -*----------------------------------*\
| =========                 |                                                 |
| \\      /  F ield         | OpenFOAM: The Open Source CFD Toolbox           |
|  \\    /   O peration     | Version:  2312                                  |
|   \\  /    A nd           | Website:  www.openfoam.com                      |
|    \\/     M anipulation  |                                                 |
\*---------------------------------------------------------------------------*/
FoamFile
{
    version     2.0;
    format      ascii;
    arch        "LSB;label=32;scalar=64";
    class       volScalarField;
    location    "74000";
    object      p;
}
// * * * * * * * * * * * * * * * * * * * * * * * * * * * * * * * * * * * * * //

dimensions      [0 2 -2 0 0 0 0];

internalField   nonuniform List<scalar> 
10800
(
4.93749e-07
4.79626e-07
4.65859e-07
4.55282e-07
4.47859e-07
4.42468e-07
4.38018e-07
4.33938e-07
4.30063e-07
4.26399e-07
4.22983e-07
4.19819e-07
4.16874e-07
4.14097e-07
4.11443e-07
4.08877e-07
4.0638e-07
4.03936e-07
4.01536e-07
3.9917e-07
3.96831e-07
3.94511e-07
3.92202e-07
3.899e-07
3.876e-07
3.85299e-07
3.82992e-07
3.80678e-07
3.78355e-07
3.76021e-07
3.73674e-07
3.71315e-07
3.68941e-07
3.66554e-07
3.64152e-07
3.61736e-07
3.59306e-07
3.56863e-07
3.54406e-07
3.51937e-07
3.49455e-07
3.46961e-07
3.44455e-07
3.41937e-07
3.39408e-07
3.36866e-07
3.34311e-07
3.3174e-07
3.29158e-07
3.26547e-07
3.23931e-07
3.21257e-07
3.18607e-07
3.15809e-07
3.13164e-07
3.10035e-07
3.07681e-07
3.03278e-07
3.02974e-07
2.92379e-07
4.45705e-07
4.43978e-07
4.41333e-07
4.38207e-07
4.34991e-07
4.31897e-07
4.28974e-07
4.26187e-07
4.23486e-07
4.2084e-07
4.18242e-07
4.15699e-07
4.13218e-07
4.10797e-07
4.08431e-07
4.0611e-07
4.03826e-07
4.0157e-07
3.99337e-07
3.97121e-07
3.94918e-07
3.92725e-07
3.90537e-07
3.88351e-07
3.86165e-07
3.83975e-07
3.8178e-07
3.79577e-07
3.77365e-07
3.75143e-07
3.72909e-07
3.70663e-07
3.68405e-07
3.66132e-07
3.63848e-07
3.61548e-07
3.59237e-07
3.5691e-07
3.54573e-07
3.52219e-07
3.49858e-07
3.47477e-07
3.45093e-07
3.42684e-07
3.4028e-07
3.37841e-07
3.35421e-07
3.32948e-07
3.30519e-07
3.28008e-07
3.25592e-07
3.23045e-07
3.20694e-07
3.1813e-07
3.15979e-07
3.13466e-07
3.11849e-07
3.09466e-07
3.08993e-07
3.06322e-07
4.36963e-07
4.36213e-07
4.34799e-07
4.32848e-07
4.30563e-07
4.28143e-07
4.25713e-07
4.23324e-07
4.20978e-07
4.18663e-07
4.1637e-07
4.14098e-07
4.11853e-07
4.09639e-07
4.07459e-07
4.0531e-07
4.03189e-07
4.0109e-07
3.99009e-07
3.96942e-07
3.94886e-07
3.92837e-07
3.90794e-07
3.88754e-07
3.86714e-07
3.84672e-07
3.82628e-07
3.80577e-07
3.78521e-07
3.76458e-07
3.74386e-07
3.72304e-07
3.70214e-07
3.68112e-07
3.66001e-07
3.63878e-07
3.61745e-07
3.59599e-07
3.57446e-07
3.55277e-07
3.53103e-07
3.50911e-07
3.48716e-07
3.465e-07
3.44287e-07
3.42047e-07
3.39819e-07
3.37555e-07
3.35317e-07
3.33032e-07
3.30798e-07
3.28497e-07
3.26287e-07
3.2398e-07
3.2183e-07
3.19531e-07
3.17493e-07
3.15208e-07
3.13321e-07
3.10957e-07
4.25227e-07
4.24795e-07
4.24008e-07
4.22918e-07
4.21593e-07
4.20105e-07
4.18511e-07
4.1685e-07
4.15142e-07
4.134e-07
4.11629e-07
4.09835e-07
4.08024e-07
4.06202e-07
4.04374e-07
4.02544e-07
4.00712e-07
3.98879e-07
3.97044e-07
3.95208e-07
3.93369e-07
3.91527e-07
3.89682e-07
3.87832e-07
3.85978e-07
3.84118e-07
3.82252e-07
3.80379e-07
3.785e-07
3.76613e-07
3.74719e-07
3.72816e-07
3.70906e-07
3.68987e-07
3.67061e-07
3.65126e-07
3.63183e-07
3.61231e-07
3.59272e-07
3.57303e-07
3.55327e-07
3.53341e-07
3.51348e-07
3.49342e-07
3.4733e-07
3.45302e-07
3.43268e-07
3.41212e-07
3.3915e-07
3.37059e-07
3.34962e-07
3.32827e-07
3.30689e-07
3.28502e-07
3.26317e-07
3.2407e-07
3.21833e-07
3.19517e-07
3.17227e-07
3.14857e-07
4.18526e-07
4.18312e-07
4.17881e-07
4.17235e-07
4.16391e-07
4.15378e-07
4.14227e-07
4.1297e-07
4.11631e-07
4.10228e-07
4.08771e-07
4.07271e-07
4.05735e-07
4.04169e-07
4.0258e-07
4.00971e-07
3.99346e-07
3.97709e-07
3.96062e-07
3.94404e-07
3.92739e-07
3.91065e-07
3.89385e-07
3.87698e-07
3.86004e-07
3.84305e-07
3.82599e-07
3.80888e-07
3.79172e-07
3.7745e-07
3.75724e-07
3.73992e-07
3.72255e-07
3.70514e-07
3.68769e-07
3.6702e-07
3.65267e-07
3.63509e-07
3.61749e-07
3.59984e-07
3.58215e-07
3.56443e-07
3.54666e-07
3.52884e-07
3.51096e-07
3.49302e-07
3.47501e-07
3.45691e-07
3.43871e-07
3.42036e-07
3.40182e-07
3.38303e-07
3.36388e-07
3.34425e-07
3.32397e-07
3.30292e-07
3.28098e-07
3.25826e-07
3.23479e-07
3.21152e-07
4.13004e-07
4.12842e-07
4.12517e-07
4.12033e-07
4.114e-07
4.10634e-07
4.09753e-07
4.08775e-07
4.07717e-07
4.06589e-07
4.05403e-07
4.04166e-07
4.02885e-07
4.01565e-07
4.00212e-07
3.9883e-07
3.97424e-07
3.95996e-07
3.9455e-07
3.93088e-07
3.91611e-07
3.90122e-07
3.88622e-07
3.87111e-07
3.85592e-07
3.84065e-07
3.8253e-07
3.8099e-07
3.79444e-07
3.77894e-07
3.76339e-07
3.74781e-07
3.73221e-07
3.71658e-07
3.70094e-07
3.68528e-07
3.66962e-07
3.65395e-07
3.63829e-07
3.62262e-07
3.60695e-07
3.59128e-07
3.5756e-07
3.55991e-07
3.54418e-07
3.5284e-07
3.51255e-07
3.49661e-07
3.48051e-07
3.46428e-07
3.44783e-07
3.43122e-07
3.41433e-07
3.39725e-07
3.37971e-07
3.36177e-07
3.34305e-07
3.3238e-07
3.30396e-07
3.2848e-07
4.08656e-07
4.08537e-07
4.08299e-07
4.07944e-07
4.07473e-07
4.06895e-07
4.0622e-07
4.05455e-07
4.04613e-07
4.03702e-07
4.0273e-07
4.01703e-07
4.00628e-07
3.9951e-07
3.98353e-07
3.97161e-07
3.9594e-07
3.94692e-07
3.93421e-07
3.92129e-07
3.90819e-07
3.89493e-07
3.88153e-07
3.86801e-07
3.85439e-07
3.84069e-07
3.82691e-07
3.81307e-07
3.79918e-07
3.78526e-07
3.77132e-07
3.75737e-07
3.74342e-07
3.72947e-07
3.71555e-07
3.70165e-07
3.68779e-07
3.67398e-07
3.66021e-07
3.6465e-07
3.63285e-07
3.61926e-07
3.60573e-07
3.59227e-07
3.57887e-07
3.56553e-07
3.55224e-07
3.53899e-07
3.52574e-07
3.51248e-07
3.49908e-07
3.48554e-07
3.47173e-07
3.45767e-07
3.44326e-07
3.42862e-07
3.41354e-07
3.39827e-07
3.38278e-07
3.3682e-07
4.05202e-07
4.0511e-07
4.04924e-07
4.04646e-07
4.04275e-07
4.03815e-07
4.03273e-07
4.02653e-07
4.01963e-07
4.01207e-07
4.00393e-07
3.99525e-07
3.98608e-07
3.97648e-07
3.96648e-07
3.95612e-07
3.94545e-07
3.9345e-07
3.9233e-07
3.91188e-07
3.90026e-07
3.88847e-07
3.87653e-07
3.86447e-07
3.8523e-07
3.84005e-07
3.82773e-07
3.81536e-07
3.80296e-07
3.79054e-07
3.77812e-07
3.76571e-07
3.75333e-07
3.74099e-07
3.72871e-07
3.7165e-07
3.70438e-07
3.69235e-07
3.68042e-07
3.66861e-07
3.65693e-07
3.64538e-07
3.63397e-07
3.6227e-07
3.61157e-07
3.60058e-07
3.58972e-07
3.57901e-07
3.5684e-07
3.55795e-07
3.54759e-07
3.53733e-07
3.52704e-07
3.51675e-07
3.50632e-07
3.49588e-07
3.4853e-07
3.47486e-07
3.46462e-07
3.45562e-07
4.02436e-07
4.0236e-07
4.02209e-07
4.01981e-07
4.01676e-07
4.01297e-07
4.00848e-07
4.00331e-07
3.99752e-07
3.99114e-07
3.98422e-07
3.9768e-07
3.96891e-07
3.96061e-07
3.95192e-07
3.94288e-07
3.93353e-07
3.9239e-07
3.91401e-07
3.90389e-07
3.89359e-07
3.8831e-07
3.87248e-07
3.86172e-07
3.85087e-07
3.83994e-07
3.82895e-07
3.81793e-07
3.80688e-07
3.79584e-07
3.78482e-07
3.77385e-07
3.76293e-07
3.7521e-07
3.74136e-07
3.73073e-07
3.72024e-07
3.70991e-07
3.69974e-07
3.68975e-07
3.67997e-07
3.6704e-07
3.66107e-07
3.65198e-07
3.64315e-07
3.6346e-07
3.62633e-07
3.61834e-07
3.61063e-07
3.60319e-07
3.596e-07
3.58909e-07
3.58242e-07
3.57606e-07
3.56991e-07
3.56406e-07
3.55843e-07
3.55326e-07
3.54865e-07
3.54548e-07
4.00231e-07
4.00168e-07
4.0004e-07
3.99847e-07
3.99589e-07
3.99268e-07
3.98886e-07
3.98445e-07
3.97949e-07
3.974e-07
3.96802e-07
3.96158e-07
3.95471e-07
3.94745e-07
3.93982e-07
3.93186e-07
3.92359e-07
3.91505e-07
3.90627e-07
3.89726e-07
3.88806e-07
3.8787e-07
3.8692e-07
3.85958e-07
3.84987e-07
3.84009e-07
3.83027e-07
3.82042e-07
3.81058e-07
3.80077e-07
3.791e-07
3.78131e-07
3.7717e-07
3.76222e-07
3.75287e-07
3.74369e-07
3.73469e-07
3.72591e-07
3.71735e-07
3.70905e-07
3.70104e-07
3.69332e-07
3.68593e-07
3.6789e-07
3.67223e-07
3.66597e-07
3.66013e-07
3.65473e-07
3.64978e-07
3.6453e-07
3.6413e-07
3.63783e-07
3.63488e-07
3.63251e-07
3.6307e-07
3.62952e-07
3.62896e-07
3.62922e-07
3.63045e-07
3.63336e-07
3.985e-07
3.98445e-07
3.98334e-07
3.98167e-07
3.97943e-07
3.97664e-07
3.97331e-07
3.96946e-07
3.96512e-07
3.9603e-07
3.95504e-07
3.94935e-07
3.94327e-07
3.93682e-07
3.93003e-07
3.92292e-07
3.91553e-07
3.90787e-07
3.89999e-07
3.89189e-07
3.88361e-07
3.87518e-07
3.86662e-07
3.85795e-07
3.8492e-07
3.8404e-07
3.83158e-07
3.82275e-07
3.81394e-07
3.80519e-07
3.7965e-07
3.78792e-07
3.77946e-07
3.77116e-07
3.76304e-07
3.75513e-07
3.74746e-07
3.74005e-07
3.73294e-07
3.72616e-07
3.71973e-07
3.7137e-07
3.70809e-07
3.70293e-07
3.69827e-07
3.69414e-07
3.69056e-07
3.68757e-07
3.6852e-07
3.68351e-07
3.68254e-07
3.68234e-07
3.68294e-07
3.68441e-07
3.68676e-07
3.69009e-07
3.69444e-07
3.69999e-07
3.7069e-07
3.71574e-07
3.9718e-07
3.97131e-07
3.97032e-07
3.96883e-07
3.96684e-07
3.96435e-07
3.96138e-07
3.95793e-07
3.95404e-07
3.94972e-07
3.94499e-07
3.93987e-07
3.93438e-07
3.92855e-07
3.9224e-07
3.91596e-07
3.90924e-07
3.90228e-07
3.8951e-07
3.88772e-07
3.88017e-07
3.87248e-07
3.86468e-07
3.85678e-07
3.84881e-07
3.84081e-07
3.8328e-07
3.8248e-07
3.81684e-07
3.80896e-07
3.80117e-07
3.79351e-07
3.78601e-07
3.77869e-07
3.7716e-07
3.76475e-07
3.75819e-07
3.75195e-07
3.74606e-07
3.74056e-07
3.73549e-07
3.73089e-07
3.7268e-07
3.72326e-07
3.72032e-07
3.71802e-07
3.7164e-07
3.71552e-07
3.71544e-07
3.71623e-07
3.71794e-07
3.72065e-07
3.7244e-07
3.7293e-07
3.73539e-07
3.7428e-07
3.7516e-07
3.76197e-07
3.77409e-07
3.78838e-07
3.96225e-07
3.9618e-07
3.96089e-07
3.95953e-07
3.95771e-07
3.95543e-07
3.95271e-07
3.94955e-07
3.94598e-07
3.94201e-07
3.93766e-07
3.93294e-07
3.92788e-07
3.9225e-07
3.91681e-07
3.91085e-07
3.90463e-07
3.89818e-07
3.89152e-07
3.88468e-07
3.87768e-07
3.87054e-07
3.86331e-07
3.85599e-07
3.84861e-07
3.84122e-07
3.83382e-07
3.82646e-07
3.81915e-07
3.81193e-07
3.80483e-07
3.79788e-07
3.79112e-07
3.78457e-07
3.77827e-07
3.77225e-07
3.76656e-07
3.76123e-07
3.7563e-07
3.75181e-07
3.7478e-07
3.74433e-07
3.74144e-07
3.73918e-07
3.73761e-07
3.73678e-07
3.73674e-07
3.73758e-07
3.73935e-07
3.74215e-07
3.74603e-07
3.7511e-07
3.75744e-07
3.76515e-07
3.77433e-07
3.7851e-07
3.7976e-07
3.81198e-07
3.82844e-07
3.84727e-07
3.95603e-07
3.95561e-07
3.95476e-07
3.95348e-07
3.95176e-07
3.94962e-07
3.94705e-07
3.94408e-07
3.94071e-07
3.93696e-07
3.93285e-07
3.9284e-07
3.92361e-07
3.91852e-07
3.91314e-07
3.90749e-07
3.9016e-07
3.89549e-07
3.88917e-07
3.88268e-07
3.87605e-07
3.86929e-07
3.86243e-07
3.85549e-07
3.84852e-07
3.84153e-07
3.83455e-07
3.82761e-07
3.82074e-07
3.81398e-07
3.80734e-07
3.80088e-07
3.79461e-07
3.78858e-07
3.78283e-07
3.77738e-07
3.77228e-07
3.76757e-07
3.7633e-07
3.75951e-07
3.75624e-07
3.75356e-07
3.7515e-07
3.75013e-07
3.74951e-07
3.7497e-07
3.75077e-07
3.75281e-07
3.75588e-07
3.76009e-07
3.76551e-07
3.77225e-07
3.78042e-07
3.79013e-07
3.80151e-07
3.81468e-07
3.82983e-07
3.84709e-07
3.86667e-07
3.88878e-07
3.95296e-07
3.95255e-07
3.95173e-07
3.95048e-07
3.94882e-07
3.94674e-07
3.94425e-07
3.94137e-07
3.9381e-07
3.93446e-07
3.93047e-07
3.92614e-07
3.92149e-07
3.91654e-07
3.91131e-07
3.90582e-07
3.90009e-07
3.89414e-07
3.888e-07
3.88168e-07
3.87523e-07
3.86865e-07
3.86198e-07
3.85524e-07
3.84847e-07
3.84168e-07
3.83491e-07
3.82818e-07
3.82154e-07
3.815e-07
3.8086e-07
3.80238e-07
3.79637e-07
3.7906e-07
3.78512e-07
3.77996e-07
3.77516e-07
3.77077e-07
3.76683e-07
3.7634e-07
3.76051e-07
3.75822e-07
3.75659e-07
3.75567e-07
3.75554e-07
3.75625e-07
3.75789e-07
3.76055e-07
3.76429e-07
3.76922e-07
3.77544e-07
3.78305e-07
3.79216e-07
3.80291e-07
3.81543e-07
3.82986e-07
3.84639e-07
3.86515e-07
3.88637e-07
3.9102e-07
3.95293e-07
3.95252e-07
3.9517e-07
3.95046e-07
3.94879e-07
3.94671e-07
3.94422e-07
3.94134e-07
3.93807e-07
3.93443e-07
3.93044e-07
3.92611e-07
3.92146e-07
3.91651e-07
3.91128e-07
3.90579e-07
3.90005e-07
3.8941e-07
3.88796e-07
3.88165e-07
3.87519e-07
3.86861e-07
3.86194e-07
3.8552e-07
3.84842e-07
3.84163e-07
3.83486e-07
3.82814e-07
3.82149e-07
3.81495e-07
3.80855e-07
3.80233e-07
3.79631e-07
3.79054e-07
3.78506e-07
3.7799e-07
3.7751e-07
3.77071e-07
3.76677e-07
3.76332e-07
3.76043e-07
3.75814e-07
3.7565e-07
3.75559e-07
3.75545e-07
3.75616e-07
3.7578e-07
3.76045e-07
3.76419e-07
3.76912e-07
3.77533e-07
3.78293e-07
3.79205e-07
3.80278e-07
3.8153e-07
3.82972e-07
3.84624e-07
3.865e-07
3.88622e-07
3.91004e-07
3.95595e-07
3.95553e-07
3.95468e-07
3.9534e-07
3.95168e-07
3.94953e-07
3.94697e-07
3.94399e-07
3.94062e-07
3.93688e-07
3.93277e-07
3.92831e-07
3.92352e-07
3.91843e-07
3.91305e-07
3.9074e-07
3.9015e-07
3.89538e-07
3.88907e-07
3.88257e-07
3.87593e-07
3.86917e-07
3.86231e-07
3.85537e-07
3.84839e-07
3.8414e-07
3.83441e-07
3.82747e-07
3.8206e-07
3.81383e-07
3.80719e-07
3.80072e-07
3.79445e-07
3.78841e-07
3.78265e-07
3.7772e-07
3.77209e-07
3.76738e-07
3.7631e-07
3.75929e-07
3.75602e-07
3.75332e-07
3.75126e-07
3.74988e-07
3.74925e-07
3.74943e-07
3.75049e-07
3.75251e-07
3.75558e-07
3.75977e-07
3.76518e-07
3.77191e-07
3.78006e-07
3.78975e-07
3.80112e-07
3.81428e-07
3.82941e-07
3.84665e-07
3.86621e-07
3.8883e-07
3.96211e-07
3.96166e-07
3.96076e-07
3.9594e-07
3.95757e-07
3.95529e-07
3.95257e-07
3.94941e-07
3.94584e-07
3.94186e-07
3.93751e-07
3.93279e-07
3.92773e-07
3.92234e-07
3.91665e-07
3.91069e-07
3.90446e-07
3.89801e-07
3.89134e-07
3.8845e-07
3.87749e-07
3.87035e-07
3.86311e-07
3.85578e-07
3.84841e-07
3.841e-07
3.8336e-07
3.82623e-07
3.81891e-07
3.81169e-07
3.80458e-07
3.79762e-07
3.79085e-07
3.78428e-07
3.77797e-07
3.77195e-07
3.76624e-07
3.7609e-07
3.75595e-07
3.75145e-07
3.74744e-07
3.74395e-07
3.74104e-07
3.73877e-07
3.73718e-07
3.73633e-07
3.73628e-07
3.7371e-07
3.73885e-07
3.74162e-07
3.74549e-07
3.75054e-07
3.75685e-07
3.76453e-07
3.77369e-07
3.78443e-07
3.7969e-07
3.81125e-07
3.82768e-07
3.84648e-07
3.97161e-07
3.97112e-07
3.97013e-07
3.96864e-07
3.96665e-07
3.96416e-07
3.96118e-07
3.95774e-07
3.95385e-07
3.94952e-07
3.94479e-07
3.93966e-07
3.93417e-07
3.92834e-07
3.92218e-07
3.91573e-07
3.90901e-07
3.90204e-07
3.89485e-07
3.88747e-07
3.87992e-07
3.87222e-07
3.86441e-07
3.8565e-07
3.84853e-07
3.84051e-07
3.83249e-07
3.82448e-07
3.81651e-07
3.80862e-07
3.80082e-07
3.79315e-07
3.78563e-07
3.7783e-07
3.77119e-07
3.76433e-07
3.75776e-07
3.7515e-07
3.74559e-07
3.74008e-07
3.73499e-07
3.73036e-07
3.72625e-07
3.72269e-07
3.71972e-07
3.7174e-07
3.71576e-07
3.71486e-07
3.71475e-07
3.71551e-07
3.71719e-07
3.71987e-07
3.72359e-07
3.72845e-07
3.73451e-07
3.74188e-07
3.75064e-07
3.76097e-07
3.77305e-07
3.78729e-07
3.98477e-07
3.98422e-07
3.98311e-07
3.98143e-07
3.97919e-07
3.9764e-07
3.97307e-07
3.96922e-07
3.96487e-07
3.96005e-07
3.95478e-07
3.94909e-07
3.94301e-07
3.93655e-07
3.92975e-07
3.92264e-07
3.91524e-07
3.90758e-07
3.89968e-07
3.89157e-07
3.88329e-07
3.87484e-07
3.86627e-07
3.85759e-07
3.84884e-07
3.84003e-07
3.83119e-07
3.82235e-07
3.81353e-07
3.80475e-07
3.79606e-07
3.78746e-07
3.77899e-07
3.77067e-07
3.76253e-07
3.7546e-07
3.74691e-07
3.73948e-07
3.73235e-07
3.72554e-07
3.71909e-07
3.71303e-07
3.70739e-07
3.70221e-07
3.69752e-07
3.69336e-07
3.68975e-07
3.68673e-07
3.68433e-07
3.68261e-07
3.6816e-07
3.68136e-07
3.68192e-07
3.68334e-07
3.68564e-07
3.68893e-07
3.69323e-07
3.69873e-07
3.70559e-07
3.71438e-07
4.00203e-07
4.00139e-07
4.00011e-07
3.99818e-07
3.99561e-07
3.9924e-07
3.98857e-07
3.98416e-07
3.97919e-07
3.9737e-07
3.96771e-07
3.96127e-07
3.9544e-07
3.94713e-07
3.93949e-07
3.93152e-07
3.92325e-07
3.9147e-07
3.9059e-07
3.89688e-07
3.88768e-07
3.8783e-07
3.86879e-07
3.85915e-07
3.84943e-07
3.83964e-07
3.8298e-07
3.81994e-07
3.81009e-07
3.80025e-07
3.79047e-07
3.78075e-07
3.77113e-07
3.76163e-07
3.75226e-07
3.74305e-07
3.73403e-07
3.72522e-07
3.71664e-07
3.70831e-07
3.70027e-07
3.69252e-07
3.6851e-07
3.67803e-07
3.67134e-07
3.66504e-07
3.65916e-07
3.65372e-07
3.64873e-07
3.64421e-07
3.64017e-07
3.63665e-07
3.63366e-07
3.63124e-07
3.62937e-07
3.62814e-07
3.62752e-07
3.62773e-07
3.62889e-07
3.63174e-07
4.02403e-07
4.02328e-07
4.02176e-07
4.01948e-07
4.01643e-07
4.01264e-07
4.00814e-07
4.00297e-07
3.99718e-07
3.99079e-07
3.98387e-07
3.97644e-07
3.96855e-07
3.96023e-07
3.95154e-07
3.94249e-07
3.93313e-07
3.92348e-07
3.91359e-07
3.90346e-07
3.89314e-07
3.88265e-07
3.872e-07
3.86124e-07
3.85037e-07
3.83942e-07
3.82842e-07
3.81737e-07
3.80631e-07
3.79525e-07
3.78421e-07
3.77321e-07
3.76227e-07
3.75141e-07
3.74065e-07
3.73e-07
3.71948e-07
3.70911e-07
3.69891e-07
3.6889e-07
3.67908e-07
3.66948e-07
3.66011e-07
3.65099e-07
3.64212e-07
3.63353e-07
3.62521e-07
3.61718e-07
3.60943e-07
3.60194e-07
3.59469e-07
3.58773e-07
3.58102e-07
3.57459e-07
3.56838e-07
3.56247e-07
3.55678e-07
3.55154e-07
3.54686e-07
3.54363e-07
4.05165e-07
4.05073e-07
4.04888e-07
4.04609e-07
4.04238e-07
4.03778e-07
4.03235e-07
4.02615e-07
4.01924e-07
4.01168e-07
4.00353e-07
3.99485e-07
3.98567e-07
3.97606e-07
3.96605e-07
3.95569e-07
3.94501e-07
3.93404e-07
3.92283e-07
3.91139e-07
3.89976e-07
3.88795e-07
3.876e-07
3.86392e-07
3.85174e-07
3.83947e-07
3.82713e-07
3.81474e-07
3.80232e-07
3.78987e-07
3.77743e-07
3.765e-07
3.75259e-07
3.74023e-07
3.72792e-07
3.71568e-07
3.70352e-07
3.69146e-07
3.6795e-07
3.66766e-07
3.65594e-07
3.64435e-07
3.6329e-07
3.62159e-07
3.61041e-07
3.59938e-07
3.58848e-07
3.57771e-07
3.56706e-07
3.55655e-07
3.54613e-07
3.53581e-07
3.52547e-07
3.51511e-07
3.50463e-07
3.49412e-07
3.48347e-07
3.47295e-07
3.46263e-07
3.45355e-07
4.08616e-07
4.08497e-07
4.08259e-07
4.07903e-07
4.07433e-07
4.06855e-07
4.06178e-07
4.05414e-07
4.04571e-07
4.03659e-07
4.02686e-07
4.01659e-07
4.00583e-07
3.99464e-07
3.98306e-07
3.97113e-07
3.95891e-07
3.94642e-07
3.93369e-07
3.92076e-07
3.90764e-07
3.89437e-07
3.88095e-07
3.86742e-07
3.85378e-07
3.84005e-07
3.82625e-07
3.81239e-07
3.79848e-07
3.78454e-07
3.77057e-07
3.75659e-07
3.74261e-07
3.72863e-07
3.71468e-07
3.70075e-07
3.68686e-07
3.673e-07
3.6592e-07
3.64545e-07
3.63176e-07
3.61813e-07
3.60456e-07
3.59105e-07
3.5776e-07
3.56421e-07
3.55087e-07
3.53757e-07
3.52426e-07
3.51094e-07
3.49748e-07
3.48388e-07
3.47001e-07
3.45588e-07
3.4414e-07
3.42669e-07
3.41154e-07
3.39619e-07
3.38061e-07
3.36595e-07
4.12961e-07
4.12798e-07
4.12473e-07
4.11989e-07
4.11356e-07
4.1059e-07
4.09708e-07
4.0873e-07
4.07671e-07
4.06543e-07
4.05356e-07
4.04119e-07
4.02837e-07
4.01516e-07
4.00162e-07
3.98779e-07
3.97371e-07
3.95942e-07
3.94495e-07
3.93031e-07
3.91553e-07
3.90062e-07
3.8856e-07
3.87047e-07
3.85526e-07
3.83997e-07
3.8246e-07
3.80917e-07
3.79369e-07
3.77816e-07
3.76258e-07
3.74698e-07
3.73134e-07
3.71568e-07
3.7e-07
3.68431e-07
3.66862e-07
3.65291e-07
3.6372e-07
3.6215e-07
3.60578e-07
3.59007e-07
3.57434e-07
3.5586e-07
3.54282e-07
3.52699e-07
3.51108e-07
3.49508e-07
3.47893e-07
3.46264e-07
3.44613e-07
3.42945e-07
3.41249e-07
3.39533e-07
3.37772e-07
3.35969e-07
3.3409e-07
3.32156e-07
3.30164e-07
3.2824e-07
4.1848e-07
4.18266e-07
4.17835e-07
4.17189e-07
4.16345e-07
4.15331e-07
4.1418e-07
4.12923e-07
4.11583e-07
4.10179e-07
4.08722e-07
4.07221e-07
4.05684e-07
4.04117e-07
4.02526e-07
4.00916e-07
3.9929e-07
3.97652e-07
3.96003e-07
3.94344e-07
3.92677e-07
3.91002e-07
3.89319e-07
3.8763e-07
3.85935e-07
3.84233e-07
3.82525e-07
3.80812e-07
3.79093e-07
3.77368e-07
3.75638e-07
3.73903e-07
3.72164e-07
3.70419e-07
3.68671e-07
3.66918e-07
3.6516e-07
3.63399e-07
3.61634e-07
3.59865e-07
3.58092e-07
3.56314e-07
3.54532e-07
3.52745e-07
3.50952e-07
3.49152e-07
3.47345e-07
3.45529e-07
3.43702e-07
3.41861e-07
3.4e-07
3.38114e-07
3.36191e-07
3.34221e-07
3.32185e-07
3.30073e-07
3.27871e-07
3.25591e-07
3.23235e-07
3.20899e-07
4.2518e-07
4.24747e-07
4.2396e-07
4.2287e-07
4.21545e-07
4.20056e-07
4.18462e-07
4.168e-07
4.15092e-07
4.13349e-07
4.11577e-07
4.09782e-07
4.0797e-07
4.06147e-07
4.04319e-07
4.02487e-07
4.00653e-07
3.98819e-07
3.96983e-07
3.95145e-07
3.93304e-07
3.91461e-07
3.89613e-07
3.87762e-07
3.85905e-07
3.84043e-07
3.82175e-07
3.80299e-07
3.78417e-07
3.76527e-07
3.7463e-07
3.72724e-07
3.70811e-07
3.68888e-07
3.66958e-07
3.65019e-07
3.63072e-07
3.61116e-07
3.59153e-07
3.57179e-07
3.55199e-07
3.53207e-07
3.51209e-07
3.49197e-07
3.4718e-07
3.45146e-07
3.43105e-07
3.41043e-07
3.38974e-07
3.36877e-07
3.34773e-07
3.32631e-07
3.30485e-07
3.2829e-07
3.26097e-07
3.23842e-07
3.21597e-07
3.19271e-07
3.16972e-07
3.14593e-07
4.36914e-07
4.36164e-07
4.3475e-07
4.32798e-07
4.30513e-07
4.28093e-07
4.25662e-07
4.23272e-07
4.20926e-07
4.1861e-07
4.16316e-07
4.14044e-07
4.11797e-07
4.09583e-07
4.07402e-07
4.05252e-07
4.03129e-07
4.01029e-07
3.98947e-07
3.96878e-07
3.9482e-07
3.92769e-07
3.90724e-07
3.88682e-07
3.8664e-07
3.84596e-07
3.82548e-07
3.80496e-07
3.78437e-07
3.7637e-07
3.74295e-07
3.7221e-07
3.70116e-07
3.68011e-07
3.65896e-07
3.63768e-07
3.61632e-07
3.59482e-07
3.57323e-07
3.5515e-07
3.5297e-07
3.50773e-07
3.48573e-07
3.46351e-07
3.44132e-07
3.41886e-07
3.39651e-07
3.3738e-07
3.35136e-07
3.32843e-07
3.30601e-07
3.28293e-07
3.26075e-07
3.2376e-07
3.21602e-07
3.19295e-07
3.17248e-07
3.14954e-07
3.13059e-07
3.10685e-07
4.45655e-07
4.43927e-07
4.41282e-07
4.38156e-07
4.3494e-07
4.31846e-07
4.28922e-07
4.26135e-07
4.23433e-07
4.20786e-07
4.18188e-07
4.15644e-07
4.13162e-07
4.1074e-07
4.08373e-07
4.06051e-07
4.03765e-07
4.01508e-07
3.99273e-07
3.97056e-07
3.94851e-07
3.92656e-07
3.90466e-07
3.88279e-07
3.8609e-07
3.83898e-07
3.817e-07
3.79495e-07
3.7728e-07
3.75054e-07
3.72818e-07
3.70568e-07
3.68306e-07
3.6603e-07
3.63741e-07
3.61437e-07
3.59122e-07
3.5679e-07
3.54449e-07
3.5209e-07
3.49723e-07
3.47337e-07
3.44947e-07
3.42532e-07
3.40122e-07
3.37677e-07
3.3525e-07
3.3277e-07
3.30334e-07
3.27816e-07
3.25392e-07
3.22837e-07
3.20478e-07
3.17906e-07
3.15746e-07
3.13224e-07
3.11599e-07
3.09205e-07
3.08724e-07
3.06043e-07
4.93698e-07
4.79575e-07
4.65808e-07
4.5523e-07
4.47808e-07
4.42416e-07
4.37965e-07
4.33886e-07
4.3001e-07
4.26345e-07
4.22928e-07
4.19763e-07
4.16817e-07
4.14039e-07
4.11384e-07
4.08818e-07
4.06319e-07
4.03873e-07
4.01472e-07
3.99105e-07
3.96764e-07
3.94442e-07
3.92132e-07
3.89828e-07
3.87525e-07
3.85221e-07
3.82912e-07
3.80596e-07
3.7827e-07
3.75932e-07
3.73583e-07
3.7122e-07
3.68843e-07
3.66451e-07
3.64046e-07
3.61625e-07
3.59191e-07
3.56743e-07
3.54281e-07
3.51807e-07
3.49319e-07
3.46819e-07
3.44308e-07
3.41784e-07
3.39248e-07
3.367e-07
3.34139e-07
3.3156e-07
3.2897e-07
3.26352e-07
3.23728e-07
3.21046e-07
3.18388e-07
3.15581e-07
3.12928e-07
3.09789e-07
3.07426e-07
3.03013e-07
3.027e-07
2.92093e-07
3.32263e-07
2.81759e-07
2.6088e-07
2.4335e-07
2.25786e-07
2.08085e-07
1.88315e-07
1.67206e-07
1.42548e-07
1.16035e-07
8.5151e-08
5.28473e-08
1.6048e-08
-2.08527e-08
-6.17248e-08
-1.00621e-07
-1.42831e-07
-1.80709e-07
-2.2148e-07
-2.55599e-07
-2.92576e-07
-3.20941e-07
-3.52592e-07
-3.73697e-07
-3.99868e-07
-4.11536e-07
-4.36405e-07
-4.33577e-07
-4.65185e-07
-5.59785e-07
3.18388e-07
2.63337e-07
2.49448e-07
2.34492e-07
2.17602e-07
2.00312e-07
1.80848e-07
1.59887e-07
1.35422e-07
1.09265e-07
7.90113e-08
4.75628e-08
1.19372e-08
-2.36398e-08
-6.29803e-08
-1.00406e-07
-1.40815e-07
-1.77205e-07
-2.16132e-07
-2.49305e-07
-2.85039e-07
-3.12772e-07
-3.445e-07
-3.64934e-07
-3.92419e-07
-4.04114e-07
-4.27344e-07
-4.36523e-07
-4.41003e-07
-5.88494e-07
3.0621e-07
2.60883e-07
2.48033e-07
2.33555e-07
2.1617e-07
1.97897e-07
1.77913e-07
1.5661e-07
1.32096e-07
1.05809e-07
7.57928e-08
4.44379e-08
9.38058e-09
-2.5845e-08
-6.4275e-08
-1.01106e-07
-1.40506e-07
-1.76541e-07
-2.14897e-07
-2.47677e-07
-2.83027e-07
-3.10692e-07
-3.41351e-07
-3.63569e-07
-3.88455e-07
-4.06529e-07
-4.23818e-07
-4.48499e-07
-4.27448e-07
-5.29318e-07
2.96048e-07
2.56799e-07
2.41874e-07
2.27918e-07
2.11236e-07
1.93554e-07
1.73763e-07
1.52293e-07
1.27837e-07
1.01388e-07
7.17062e-08
4.03629e-08
6.07333e-09
-2.89529e-08
-6.61528e-08
-1.02777e-07
-1.4063e-07
-1.76599e-07
-2.12822e-07
-2.46185e-07
-2.78851e-07
-3.08832e-07
-3.36651e-07
-3.62526e-07
-3.83475e-07
-4.08176e-07
-4.16012e-07
-4.51625e-07
-4.24356e-07
-4.93562e-07
2.86237e-07
2.54221e-07
2.38422e-07
2.25594e-07
2.09467e-07
1.91011e-07
1.70704e-07
1.48665e-07
1.2417e-07
9.73085e-08
6.78796e-08
3.62606e-08
2.67511e-09
-3.24539e-08
-6.84501e-08
-1.0513e-07
-1.41327e-07
-1.77507e-07
-2.11744e-07
-2.46007e-07
-2.76561e-07
-3.08248e-07
-3.33172e-07
-3.62478e-07
-3.79237e-07
-4.08514e-07
-4.12372e-07
-4.46905e-07
-4.32099e-07
-4.67069e-07
2.7765e-07
2.52505e-07
2.35871e-07
2.22591e-07
2.06735e-07
1.88177e-07
1.67684e-07
1.45156e-07
1.20539e-07
9.32413e-08
6.39378e-08
3.19972e-08
-1.05415e-09
-3.63297e-08
-7.13063e-08
-1.08042e-07
-1.42756e-07
-1.79122e-07
-2.11582e-07
-2.46408e-07
-2.74989e-07
-3.07692e-07
-3.30832e-07
-3.61469e-07
-3.77218e-07
-4.06399e-07
-4.13144e-07
-4.40373e-07
-4.41789e-07
-4.58008e-07
2.70625e-07
2.51007e-07
2.34258e-07
2.20134e-07
2.04394e-07
1.85767e-07
1.65022e-07
1.41925e-07
1.17002e-07
8.92285e-08
5.98551e-08
2.76132e-08
-5.15849e-09
-4.04745e-08
-7.47666e-08
-1.11307e-07
-1.45008e-07
-1.81084e-07
-2.12438e-07
-2.46959e-07
-2.74692e-07
-3.07041e-07
-3.30182e-07
-3.59928e-07
-3.77601e-07
-4.03834e-07
-4.16347e-07
-4.36823e-07
-4.4687e-07
-4.58436e-07
2.65387e-07
2.49612e-07
2.33368e-07
2.18283e-07
2.02296e-07
1.83519e-07
1.62451e-07
1.38803e-07
1.13401e-07
8.5178e-08
5.55285e-08
2.30836e-08
-9.68741e-09
-4.48591e-08
-7.8839e-08
-1.14863e-07
-1.48066e-07
-1.83324e-07
-2.14274e-07
-2.47718e-07
-2.75565e-07
-3.06528e-07
-3.3082e-07
-3.58555e-07
-3.79013e-07
-4.02298e-07
-4.19145e-07
-4.36528e-07
-4.50066e-07
-4.61437e-07
2.62019e-07
2.48319e-07
2.32729e-07
2.16993e-07
2.00449e-07
1.81356e-07
1.59871e-07
1.35701e-07
1.09689e-07
8.10328e-08
5.09364e-08
1.83634e-08
-1.46218e-08
-4.95151e-08
-8.34547e-08
-1.18752e-07
-1.51795e-07
-1.85931e-07
-2.16856e-07
-2.48882e-07
-2.77152e-07
-3.06503e-07
-3.31907e-07
-3.57964e-07
-3.8029e-07
-4.02232e-07
-4.21095e-07
-4.38225e-07
-4.52948e-07
-4.65562e-07
2.6028e-07
2.47191e-07
2.32168e-07
2.16069e-07
1.98811e-07
1.79212e-07
1.57189e-07
1.325e-07
1.05805e-07
7.67038e-08
4.60604e-08
1.33696e-08
-1.99295e-08
-5.45149e-08
-8.85171e-08
-1.23052e-07
-1.5601e-07
-1.89015e-07
-2.19895e-07
-2.50601e-07
-2.79059e-07
-3.07135e-07
-3.3307e-07
-3.58197e-07
-3.81328e-07
-4.02995e-07
-4.22698e-07
-4.40385e-07
-4.56064e-07
-4.69959e-07
2.59691e-07
2.46379e-07
2.31571e-07
2.15224e-07
1.97247e-07
1.77003e-07
1.54325e-07
1.2908e-07
1.01679e-07
7.20937e-08
4.08725e-08
8.01605e-09
-2.55978e-08
-5.9934e-08
-9.39628e-08
-1.27828e-07
-1.60593e-07
-1.92632e-07
-2.23244e-07
-2.52899e-07
-2.81165e-07
-3.08359e-07
-3.34286e-07
-3.58941e-07
-3.82303e-07
-4.04064e-07
-4.24305e-07
-4.42682e-07
-4.5937e-07
-4.7444e-07
2.59668e-07
2.45918e-07
2.30951e-07
2.1426e-07
1.95582e-07
1.74614e-07
1.512e-07
1.25335e-07
9.72261e-08
6.71072e-08
3.53148e-08
2.22372e-09
-3.16633e-08
-6.58363e-08
-9.9804e-08
-1.33124e-07
-1.65549e-07
-1.96788e-07
-2.26917e-07
-2.55719e-07
-2.83518e-07
-3.10029e-07
-3.35665e-07
-3.59994e-07
-3.83377e-07
-4.05291e-07
-4.25983e-07
-4.45026e-07
-4.62659e-07
-4.78906e-07
2.59809e-07
2.45664e-07
2.30262e-07
2.1305e-07
1.93653e-07
1.71926e-07
1.47734e-07
1.21177e-07
9.23509e-08
6.16461e-08
2.92951e-08
-4.0944e-09
-3.82128e-08
-7.22942e-08
-1.06125e-07
-1.38987e-07
-1.70965e-07
-2.01498e-07
-2.31008e-07
-2.59037e-07
-2.86226e-07
-3.12092e-07
-3.37312e-07
-3.61297e-07
-3.84629e-07
-4.06619e-07
-4.27748e-07
-4.47326e-07
-4.65909e-07
-4.83135e-07
2.59866e-07
2.45404e-07
2.29418e-07
2.1153e-07
1.91371e-07
1.68851e-07
1.43844e-07
1.16522e-07
8.69475e-08
5.56004e-08
2.26904e-08
-1.10504e-08
-4.53761e-08
-7.94143e-08
-1.13059e-07
-1.45507e-07
-1.76969e-07
-2.06828e-07
-2.35634e-07
-2.62901e-07
-2.89382e-07
-3.14582e-07
-3.39284e-07
-3.62877e-07
-3.86059e-07
-4.08068e-07
-4.29531e-07
-4.496e-07
-4.69011e-07
-4.8717e-07
2.59748e-07
2.44946e-07
2.28332e-07
2.09683e-07
1.88703e-07
1.65328e-07
1.39446e-07
1.11273e-07
8.08919e-08
4.88367e-08
1.53453e-08
-1.87927e-08
-5.33222e-08
-8.7345e-08
-1.20776e-07
-1.52817e-07
-1.83716e-07
-2.12887e-07
-2.40925e-07
-2.6739e-07
-2.93078e-07
-3.17548e-07
-3.41629e-07
-3.64745e-07
-3.87666e-07
-4.09607e-07
-4.31301e-07
-4.51784e-07
-4.71944e-07
-4.90936e-07
2.59515e-07
2.44253e-07
2.26991e-07
2.07531e-07
1.85647e-07
1.6131e-07
1.34447e-07
1.05308e-07
7.40326e-08
4.11887e-08
7.07129e-09
-2.75091e-08
-6.22514e-08
-9.62714e-08
-1.29464e-07
-1.6108e-07
-1.91365e-07
-2.19804e-07
-2.47002e-07
-2.72595e-07
-2.97394e-07
-3.21039e-07
-3.44372e-07
-3.66906e-07
-3.89414e-07
-4.11192e-07
-4.32967e-07
-4.53805e-07
-4.74591e-07
-4.94378e-07
2.59352e-07
2.43412e-07
2.25441e-07
2.05101e-07
1.82185e-07
1.56721e-07
1.28714e-07
9.84621e-08
6.61755e-08
3.24472e-08
-2.3567e-09
-3.74227e-08
-7.23875e-08
-1.064e-07
-1.3932e-07
-1.70466e-07
-2.00073e-07
-2.27706e-07
-2.53978e-07
-2.78598e-07
-3.02399e-07
-3.25089e-07
-3.47537e-07
-3.69337e-07
-3.9127e-07
-4.1274e-07
-4.34425e-07
-4.55527e-07
-4.76785e-07
-4.97366e-07
2.59509e-07
2.42591e-07
2.23731e-07
2.02348e-07
1.78205e-07
1.51395e-07
1.2204e-07
9.04993e-08
5.70655e-08
2.23503e-08
-1.32036e-08
-4.87884e-08
-8.39728e-08
-1.17952e-07
-1.50544e-07
-1.81151e-07
-2.09994e-07
-2.36724e-07
-2.61963e-07
-2.85489e-07
-3.08168e-07
-3.29746e-07
-3.51163e-07
-3.72031e-07
-3.93221e-07
-4.1416e-07
-4.35589e-07
-4.56755e-07
-4.78364e-07
-4.9961e-07
2.60111e-07
2.41903e-07
2.21817e-07
1.99079e-07
1.73433e-07
1.4503e-07
1.1411e-07
8.10975e-08
4.63751e-08
1.05747e-08
-2.57832e-08
-6.19008e-08
-9.72815e-08
-1.31176e-07
-1.63364e-07
-1.93342e-07
-2.2131e-07
-2.47025e-07
-2.71102e-07
-2.934e-07
-3.14807e-07
-3.35106e-07
-3.55314e-07
-3.75029e-07
-3.95272e-07
-4.15408e-07
-4.36363e-07
-4.57309e-07
-4.7906e-07
-5.00738e-07
2.60925e-07
2.41163e-07
2.19371e-07
1.94861e-07
1.674e-07
1.37163e-07
1.0447e-07
6.98138e-08
3.36693e-08
-3.3004e-09
-4.04986e-08
-7.71392e-08
-1.1267e-07
-1.46406e-07
-1.78092e-07
-2.07332e-07
-2.34297e-07
-2.58868e-07
-2.81626e-07
-3.02548e-07
-3.22495e-07
-3.41332e-07
-3.60104e-07
-3.78422e-07
-3.97459e-07
-4.16463e-07
-4.36666e-07
-4.56965e-07
-4.78578e-07
-5.00183e-07
2.6118e-07
2.39591e-07
2.15749e-07
1.89112e-07
1.59527e-07
1.27198e-07
9.25221e-08
5.60502e-08
1.83581e-08
-1.9851e-08
-5.79067e-08
-9.50358e-08
-1.30644e-07
-1.64117e-07
-1.95179e-07
-2.23547e-07
-2.49363e-07
-2.7264e-07
-2.93894e-07