/*--------------------------------*- C++ -*----------------------------------*\
| =========                 |                                                 |
| \\      /  F ield         | OpenFOAM: The Open Source CFD Toolbox           |
|  \\    /   O peration     | Version:  2312                                  |
|   \\  /    A nd           | Website:  www.openfoam.com                      |
|    \\/     M anipulation  |                                                 |
\*---------------------------------------------------------------------------*/
FoamFile
{
    version     2.0;
    format      ascii;
    arch        "LSB;label=32;scalar=64";
    class       volVectorField;
    location    "130000";
    object      U;
}
// * * * * * * * * * * * * * * * * * * * * * * * * * * * * * * * * * * * * * //

dimensions      [0 1 -1 0 0 0 0];

internalField   nonuniform List<vector> 
2715
(
(0.000265822 2.89438e-05 1.10974e-24)
(0.000276955 -3.61689e-06 0)
(0.0002418 -2.67436e-06 0)
(0.00022664 -3.41519e-06 0)
(0.00021865 -3.40462e-06 -2.62105e-23)
(0.000223347 -4.22151e-06 2.56458e-23)
(0.000224842 -4.32697e-06 0)
(0.000238452 -5.25039e-06 6.69701e-25)
(0.000244238 -4.79317e-06 0)
(0.000263716 -5.40589e-06 0)
(0.000270778 -4.42951e-06 -2.10503e-25)
(0.000293109 -4.70642e-06 0)
(0.000298658 -3.14674e-06 -5.18152e-26)
(0.000320932 -3.07348e-06 0)
(0.000322385 -9.75537e-07 1.57271e-24)
(0.000342401 -4.91236e-07 -1.57317e-24)
(0.000338328 1.63574e-06 0)
(0.000354955 1.73559e-06 -9.87331e-26)
(0.000345236 3.42481e-06 0)
(0.000358517 3.07526e-06 0)
(0.0003444 5.06069e-06 0)
(0.000354678 3.63664e-06 0)
(0.000338131 6.39813e-06 8.93443e-25)
(0.000345316 4.38607e-06 0)
(0.00032818 5.71192e-06 -3.48642e-23)
(0.000331578 8.76676e-06 3.35541e-23)
(0.000316141 -3.1658e-08 0)
(0.000297912 1.37186e-05 0)
(0.000344142 5.7692e-05 0)
(-4.85849e-05 -7.29165e-05 1.55074e-24)
(0.000528087 4.84831e-05 6.50641e-23)
(0.000580062 1.31746e-05 -6.88618e-23)
(0.000552803 1.60733e-05 1.85113e-24)
(0.000546851 8.58959e-06 0)
(0.000537313 3.29764e-06 0)
(0.000551838 -1.19788e-06 2.52992e-23)
(0.000551217 -2.40897e-06 -2.08378e-24)
(0.000580238 -5.7543e-06 -2.34559e-23)
(0.000585153 -5.46417e-06 -5.96741e-25)
(0.000625636 -8.34371e-06 0)
(0.000632613 -6.70617e-06 -5.32334e-24)
(0.000680436 -9.38531e-06 5.98103e-24)
(0.000685972 -6.46653e-06 -1.13858e-24)
(0.000736602 -9.13716e-06 1.08427e-24)
(0.000737353 -5.03997e-06 5.05721e-24)
(0.000786636 -7.96358e-06 -5.82129e-24)
(0.00078025 -2.81968e-06 -1.86805e-24)
(0.000824931 -6.80498e-06 2.85138e-24)
(0.00081133 -5.61489e-08 -9.19904e-24)
(0.000849505 -5.66112e-06 9.78602e-24)
(0.000831287 3.00222e-06 0)
(0.00085935 -4.8303e-06 -8.10016e-25)
(0.000843893 5.75209e-06 2.91183e-23)
(0.00085206 -5.18514e-06 2.41334e-24)
(0.00085714 1.07101e-05 -3.09229e-23)
(0.00081576 -1.10951e-05 0)
(0.000892085 3.15459e-05 0)
(0.000694889 -4.52982e-05 2.37559e-24)
(0.00102561 0.000108994 8.76692e-23)
(0.000430736 -5.56779e-05 -9.0572e-23)
(0.000703801 4.8161e-05 4.37315e-24)
(0.000754905 2.06812e-06 -5.93305e-23)
(0.000745605 3.18834e-06 6.00681e-23)
(0.000755643 -2.49639e-06 3.60599e-24)
(0.000752304 -7.1611e-06 0)
(0.000775926 -1.39997e-05 0)
(0.000776252 -1.56703e-05 -1.4876e-24)
(0.000811589 -2.12319e-05 0)
(0.000816171 -2.05789e-05 -9.61236e-24)
(0.000862546 -2.57619e-05 1.50942e-24)
(0.000870061 -2.24904e-05 1.35472e-23)
(0.000923863 -2.72161e-05 -5.97912e-24)
(0.00093191 -2.09419e-05 0)
(0.000988479 -2.55127e-05 0)
(0.000994659 -1.61599e-05 8.79492e-24)
(0.00104916 -2.1605e-05 -8.81262e-24)
(0.00105221 -9.11716e-06 -1.47119e-25)
(0.00110027 -1.67057e-05 0)
(0.00110146 -4.0546e-07 9.38454e-24)
(0.00113805 -1.23019e-05 -2.04442e-23)
(0.0011421 8.93926e-06 -1.6024e-24)
(0.00115962 -1.08511e-05 1.1749e-23)
(0.00117726 2.0371e-05 0)
(0.00116195 -1.43142e-05 -1.96315e-24)
(0.0012141 3.73738e-05 0)
(0.00113765 -2.74863e-05 0)
(0.0012668 6.9749e-05 4.55294e-24)
(0.00107531 -5.31346e-05 -7.94849e-23)
(0.00135091 0.000110791 7.8581e-23)
(0.001018 -4.29211e-05 5.59263e-24)
(0.000835997 3.50061e-05 6.22331e-23)
(0.000878706 -2.93951e-06 -1.29382e-22)
(0.00087902 -2.30775e-06 3.65941e-23)
(0.000894829 -6.70112e-06 2.63768e-23)
(0.000896245 -1.08577e-05 0)
(0.000922028 -1.97052e-05 3.25565e-24)
(0.000927243 -2.20513e-05 -1.48031e-24)
(0.000961857 -3.02579e-05 0)
(0.000971448 -2.94648e-05 1.23592e-24)
(0.00101374 -3.73913e-05 -7.54957e-24)
(0.00102741 -3.2888e-05 7.15757e-24)
(0.00107437 -4.05562e-05 0)
(0.00109087 -3.17588e-05 -1.10439e-24)
(0.00113832 -3.97464e-05 1.05056e-24)
(0.00115631 -2.63149e-05 1.34929e-23)
(0.00119969 -3.59414e-05 -1.43971e-23)
(0.00121883 -1.74506e-05 -1.8022e-24)
(0.00125353 -3.07544e-05 2.90365e-24)
(0.0012754 -6.60835e-06 0)
(0.0012965 -2.68097e-05 -1.19059e-23)
(0.00132546 5.6683e-06 1.11969e-23)
(0.00132687 -2.55994e-05 1.69862e-24)
(0.0013711 2.0803e-05 0)
(0.00134301 -2.81083e-05 -1.99658e-24)
(0.00141553 3.95963e-05 0)
(0.00134458 -3.50063e-05 -4.5378e-24)
(0.00146356 6.15827e-05 -4.3546e-23)
(0.00133625 -4.19714e-05 -3.50076e-23)
(0.00151875 7.0054e-05 1.59613e-22)
(0.00132598 -1.00563e-05 -8.68106e-23)
(0.000939958 2.11118e-05 0)
(0.000972141 -8.50646e-06 5.48636e-23)
(0.000977226 -1.27623e-05 -9.78191e-23)
(0.000992702 -1.85787e-05 2.68908e-23)
(0.000998579 -2.30161e-05 0)
(0.00102279 -3.30568e-05 -3.34939e-24)
(0.00103345 -3.50331e-05 3.09751e-24)
(0.00106351 -4.43029e-05 0)
(0.00107874 -4.27418e-05 2.43635e-24)
(0.00111397 -5.20691e-05 0)
(0.00113397 -4.63747e-05 8.28961e-25)
(0.00117196 -5.56674e-05 0)
(0.00119573 -4.4922e-05 0)
(0.00123304 -5.47317e-05 0)
(0.00125942 -3.84459e-05 1.9139e-23)
(0.0012923 -5.01794e-05 -1.91434e-23)
(0.00132082 -2.80192e-05 0)
(0.00134572 -4.38993e-05 0)
(0.00137714 -1.52291e-05 0)
(0.00139092 -3.78566e-05 1.33804e-24)
(0.00142758 -1.00764e-06 0)
(0.00142709 -3.31403e-05 3.45961e-24)
(0.00147261 1.37729e-05 0)
(0.00145433 -3.08176e-05 4.13195e-24)
(0.00151346 2.89618e-05 0)
(0.00147406 -2.951e-05 4.66699e-24)
(0.00155178 4.10316e-05 -4.38488e-23)
(0.00148873 -2.22582e-05 1.13914e-22)
(0.00159045 3.60737e-05 -8.92194e-23)
(0.00149428 4.92516e-06 0)
(0.00102163 6.43562e-06 5.92273e-23)
(0.00104464 -1.48975e-05 -1.33001e-22)
(0.00105302 -2.27477e-05 9.58224e-23)
(0.00106706 -2.92707e-05 -2.73555e-23)
(0.00107586 -3.26492e-05 -2.79015e-23)
(0.00109671 -4.29663e-05 2.48069e-23)
(0.00111074 -4.57297e-05 2.36963e-23)
(0.00113644 -5.594e-05 -4.50473e-23)
(0.00115496 -5.50417e-05 1.87999e-23)
(0.00118485 -6.48181e-05 0)
(0.00120776 -5.95865e-05 -8.54611e-25)
(0.00124005 -6.88437e-05 5.92088e-25)
(0.00126615 -5.84409e-05 -9.53012e-25)
(0.00129817 -6.75976e-05 9.91683e-25)
(0.00132601 -5.17454e-05 2.61898e-23)
(0.00135498 -6.20057e-05 -2.73071e-23)
(0.00138351 -4.08426e-05 -2.09221e-24)
(0.00140708 -5.39978e-05 3.15927e-24)
(0.00143605 -2.76141e-05 1.14815e-24)
(0.00145269 -4.54394e-05 -1.37943e-24)
(0.00148264 -1.37413e-05 0)
(0.00149141 -3.75827e-05 -3.3263e-23)
(0.00152329 -5.63761e-07 6.18243e-23)
(0.00152369 -3.03758e-05 -3.20776e-23)
(0.0015585 1.07047e-05 -4.09982e-23)
(0.00155038 -2.21126e-05 3.62592e-23)
(0.00158934 1.69995e-05 4.45003e-23)
(0.00157175 -9.56651e-06 -1.31216e-22)
(0.00161782 1.36036e-05 1.74274e-22)
(0.00158579 5.4964e-06 -9.26375e-23)
(0.00108392 -7.75093e-06 -5.99696e-23)
(0.00110022 -2.226e-05 1.2598e-23)
(0.00111042 -3.20651e-05 6.65467e-23)
(0.00112324 -4.00344e-05 -7.73719e-24)
(0.00113377 -4.41162e-05 2.84639e-23)
(0.00115182 -5.41163e-05 -1.84007e-23)
(0.00116749 -5.80123e-05 0)
(0.00119014 -6.78839e-05 0)
(0.00120985 -6.83856e-05 0)
(0.00123638 -7.71283e-05 2.07322e-24)
(0.00125967 -7.35324e-05 8.17941e-25)
(0.00128883 -8.10025e-05 -6.11094e-25)
(0.00131428 -7.26532e-05 0)
(0.00134399 -7.90664e-05 3.13266e-26)
(0.00136987 -6.59557e-05 3.5005e-23)
(0.00139804 -7.22317e-05 -3.50114e-23)
(0.00142292 -5.49849e-05 3.57535e-25)
(0.00144796 -6.23913e-05 0)
(0.0014711 -4.1892e-05 -1.185e-24)
(0.0014922 -5.14118e-05 1.43117e-24)
(0.00151351 -2.86898e-05 3.23683e-24)
(0.00153041 -4.04357e-05 0)
(0.00155025 -1.68227e-05 0)
(0.00156282 -2.95075e-05 0)
(0.00158191 -7.50714e-06 5.09233e-23)
(0.00158963 -1.77611e-05 -3.70258e-23)
(0.00160963 -1.88546e-06 0)
(0.00161071 -4.98211e-06 -7.31811e-23)
(0.00163483 7.90366e-07 -2.62707e-24)
(0.0016257 4.46111e-06 9.48126e-23)
(0.00112847 -2.07636e-05 0)
(0.00114054 -3.09021e-05 -8.64727e-24)
(0.00115149 -4.12085e-05 3.22952e-23)
(0.00116361 -5.03472e-05 -2.47123e-23)
(0.00117525 -5.58283e-05 0)
(0.00119133 -6.50675e-05 -7.09778e-24)
(0.00120771 -7.0345e-05 0)
(0.00122818 -7.92135e-05 0)
(0.00124825 -8.16265e-05 0)
(0.00127233 -8.86317e-05 5.36668e-24)
(0.00129535 -8.73569e-05 -1.40026e-23)
(0.0013221 -9.22109e-05 6.86808e-24)
(0.00134655 -8.68021e-05 -1.79943e-24)
(0.0013743 -8.95266e-05 -3.23729e-26)
(0.00139829 -8.02248e-05 4.59249e-23)
(0.0014254 -8.14951e-05 -4.60354e-23)
(0.00144732 -6.92997e-05 -3.69476e-25)
(0.00147268 -7.00277e-05 4.52803e-24)
(0.00149152 -5.63394e-05 -1.66962e-23)
(0.00151477 -5.70884e-05 2.2062e-23)
(0.00153013 -4.34226e-05 -1.59317e-23)
(0.00155146 -4.39513e-05 0)
(0.00156325 -3.18928e-05 0)
(0.00158306 -3.10483e-05 0)
(0.00159132 -2.24114e-05 -9.28797e-24)
(0.00161002 -1.83587e-05 0)
(0.00161486 -1.4818e-05 4.15536e-23)
(0.00163298 -6.51618e-06 -4.1055e-23)
(0.00163387 -8.27779e-06 -1.07261e-23)
(0.00165256 2.08975e-06 0)
(0.00115669 -3.25603e-05 9.15434e-24)
(0.00116669 -4.06576e-05 6.93105e-23)
(0.00117784 -5.06969e-05 -3.70024e-23)
(0.00118958 -6.03638e-05 -1.98945e-24)
(0.00120198 -6.75249e-05 -3.19869e-23)
(0.00121686 -7.60215e-05 0)
(0.00123353 -8.26666e-05 2.49241e-23)
(0.00125247 -9.03437e-05 -3.20973e-24)
(0.00127263 -9.46467e-05 -1.96017e-23)
(0.00129481 -9.98376e-05 -7.47108e-24)
(0.0013176 -0.000100842 7.5164e-24)
(0.00134215 -0.000103076 5.76558e-25)
(0.00136612 -0.000100497 2.67201e-25)
(0.00139157 -9.9687e-05 6.85353e-27)
(0.00141485 -9.39388e-05 5.91098e-23)
(0.00143975 -9.06355e-05 -5.90809e-23)
(0.00146076 -8.29096e-05 -4.14631e-25)
(0.00148419 -7.79326e-05 1.0887e-24)
(0.00150196 -6.97769e-05 1.29802e-24)
(0.00152369 -6.37049e-05 -1.31878e-23)
(0.00153787 -5.65655e-05 1.31082e-23)
(0.00155812 -4.94497e-05 3.64046e-23)
(0.00156868 -4.44167e-05 2.88591e-24)
(0.00158788 -3.59214e-05 -3.48134e-23)
(0.00159487 -3.35934e-05 0)
(0.00161344 -2.34664e-05 4.12686e-23)
(0.0016168 -2.37616e-05 1.94129e-24)
(0.00163529 -1.26758e-05 4.56381e-23)
(0.0016346 -1.47296e-05 -8.66562e-23)
(0.00165359 -4.10049e-06 1.12145e-23)
(0.0011702 -4.32843e-05 -8.31509e-23)
(0.00117973 -5.10526e-05 8.39181e-23)
(0.00119086 -6.083e-05 -2.53759e-23)
(0.00120256 -7.04548e-05 5.87029e-23)
(0.00121547 -7.90732e-05 -3.28793e-23)
(0.00122994 -8.71003e-05 -2.07885e-23)
(0.00124663 -9.48516e-05 2.17434e-23)
(0.00126478 -0.000101535 0)
(0.00128482 -0.000107286 -5.15504e-24)
(0.00130585 -0.000111062 2.07e-24)
(0.00132837 -0.000113776 0)
(0.00135137 -0.000114 -1.56917e-24)
(0.00137505 -0.000113466 1.52657e-24)
(0.00139857 -0.00011003 2.35032e-26)
(0.00142168 -0.000106753 7.52847e-23)
(0.00144432 -0.000100199 -7.52215e-23)
(0.00146542 -9.54235e-05 -2.01801e-26)
(0.00148631 -8.66452e-05 -5.02984e-24)
(0.00150455 -8.18663e-05 5.04232e-24)
(0.00152353 -7.16219e-05 0)
(0.00153861 -6.80782e-05 3.66194e-24)
(0.00155603 -5.6733e-05 -8.0649e-24)
(0.00156783 -5.51634e-05 0)
(0.00158432 -4.27783e-05 -4.80955e-23)
(0.00159264 -4.34523e-05 4.82242e-23)
(0.00160899 -3.00444e-05 4.25437e-23)
(0.00161326 -3.29585e-05 -9.68171e-23)
(0.00163056 -1.85536e-05 4.34594e-23)
(0.00162973 -2.37876e-05 -8.09579e-23)
(0.00164947 -7.87929e-06 6.79166e-23)
(0.00117125 -5.32907e-05 -7.5913e-23)
(0.0011813 -6.17493e-05 1.41041e-22)
(0.00119247 -7.15804e-05 -9.25882e-23)
(0.0012045 -8.09521e-05 5.07144e-23)
(0.00121777 -9.05278e-05 -3.38418e-23)
(0.00123252 -9.84086e-05 -7.61449e-24)
(0.00124917 -0.000106905 3.27691e-23)
(0.00126729 -0.000113007 -2.60901e-23)
(0.00128711 -0.000119608 2.63473e-24)
(0.00130789 -0.000122572 -2.14516e-24)
(0.00133008 -0.000126228 0)
(0.00135249 -0.000125292 1.42455e-24)
(0.00137583 -0.000125792 -1.42298e-24)
(0.00139841 -0.000120876 -2.179e-25)
(0.00142136 -0.000118757 9.51808e-23)
(0.00144262 -0.000110479 -9.5088e-23)
(0.00146392 -0.000106965 4.33296e-24)
(0.00148295 -9.63513e-05 -1.60018e-25)
(0.00150197 -9.28383e-05 -5.3648e-24)
(0.00151855 -8.08275e-05 0)
(0.00153518 -7.83981e-05 -3.79487e-24)
(0.00154957 -6.55502e-05 4.1867e-24)
(0.00156388 -6.47896e-05 3.77788e-23)
(0.00157661 -5.13023e-05 -2.77065e-23)
(0.00158853 -5.24209e-05 -1.02467e-23)
(0.00160029 -3.82653e-05 4.39708e-23)
(0.0016094 -4.13379e-05 -2.11611e-23)
(0.00162112 -2.62921e-05 8.19369e-23)
(0.00162655 -3.14507e-05 -1.87433e-22)
(0.0016397 -1.49407e-05 9.39537e-23)
(0.00116313 -6.33598e-05 -5.83318e-23)
(0.00117404 -7.26981e-05 1.35419e-23)
(0.00118546 -8.2858e-05 8.62395e-23)
(0.00119814 -9.21123e-05 -1.78334e-23)
(0.00121182 -0.000102172 0)
(0.00122732 -0.000110145 7.71499e-24)
(0.00124411 -0.000119054 6.96275e-24)
(0.00126283 -0.000124988 2.88067e-23)
(0.00128261 -0.000131927 -1.3548e-23)
(0.00130392 -0.000134611 -7.4079e-24)
(0.00132591 -0.000138558 -4.90951e-24)
(0.00134873 -0.000137169 4.55718e-24)
(0.00137175 -0.00013788 1.25738e-24)
(0.00139455 -0.000132386 -6.05612e-26)
(0.00141712 -0.000130418 1.18991e-22)
(0.00143838 -0.000121521 -1.19183e-22)
(0.0014594 -0.000118087 5.08133e-25)
(0.00147814 -0.00010691 -5.75596e-24)
(0.00149716 -0.000103387 -7.72277e-24)
(0.00151306 -9.09356e-05 1.33797e-23)
(0.00153021 -8.84018e-05 2.09134e-23)
(0.0015434 -7.52351e-05 1.99647e-23)
(0.00155904 -7.43325e-05 -2.68462e-23)
(0.0015698 -6.05316e-05 1.01215e-23)
(0.00158424 -6.16224e-05 1.06609e-23)
(0.0015928 -4.69124e-05 0)
(0.00160622 -5.03103e-05 -2.30468e-23)
(0.0016128 -3.41564e-05 -8.48063e-23)
(0.00162525 -4.02667e-05 -3.40473e-24)
(0.00163015 -2.18008e-05 1.09537e-22)
(0.0011498 -7.42429e-05 3.9577e-23)
(0.00116153 -8.42175e-05 -9.23948e-23)
(0.0011735 -9.47603e-05 -9.65071e-24)
(0.00118706 -0.000104137 9.22023e-24)
(0.00120138 -0.000114402 0)
(0.00121789 -0.000122619 -8.00331e-24)
(0.00123522 -0.00013171 -7.22644e-24)
(0.00125493 -0.000137772 -6.33432e-24)
(0.00127512 -0.000144732 9.33379e-24)
(0.00129747 -0.000147461 -1.1531e-23)
(0.00131971 -0.000151288 0)
(0.00134358 -0.000149858 9.12804e-25)
(0.00136658 -0.000150278 -1.04974e-24)
(0.00139038 -0.000144702 -1.28969e-25)
(0.00141266 -0.000142295 1.47975e-22)
(0.00143486 -0.000133356 -1.47986e-22)
(0.00145532 -0.000129351 5.85943e-25)
(0.00147497 -0.000118241 6.17789e-24)
(0.00149325 -0.000114038 -2.76218e-24)
(0.00151003 -0.000101794 0)
(0.00152638 -9.85025e-05 1.35618e-23)
(0.00154042 -8.56513e-05 -1.76096e-23)
(0.00155536 -8.39759e-05 -9.88106e-24)
(0.00156683 -7.05022e-05 -1.05047e-23)
(0.00158085 -7.09041e-05 -1.10592e-23)
(0.00158987 -5.63738e-05 0)
(0.00160331 -5.93185e-05 1.19488e-23)
(0.00160995 -4.29797e-05 -1.23183e-23)
(0.00162296 -4.91156e-05 8.97463e-23)
(0.00162754 -2.97568e-05 -1.26418e-22)
(0.00113619 -8.65572e-05 -4.09555e-23)
(0.00114849 -9.68219e-05 1.76688e-22)
(0.00116112 -0.000107636 -7.22379e-23)
(0.00117559 -0.00011732 3.64628e-23)
(0.00119075 -0.000127696 -3.69862e-23)
(0.00120836 -0.000136257 8.07381e-24)
(0.00122659 -0.000145404 -7.20372e-24)
(0.00124749 -0.000151746 2.29993e-23)
(0.00126857 -0.000158563 -2.83455e-23)
(0.00129218 -0.000161469 -6.81751e-24)
(0.00131518 -0.000164956 2.62148e-24)
(0.00134028 -0.000163617 4.26098e-24)
(0.00136374 -0.000163495 -1.34882e-24)
(0.0013887 -0.000157969 6.86797e-25)
(0.00141101 -0.000154854 1.83252e-22)
(0.00143431 -0.000146004 -1.83265e-22)
(0.00145433 -0.000141173 4.9713e-24)
(0.00147508 -0.000130256 1.0986e-24)
(0.00149247 -0.000125144 -2.54742e-23)
(0.00151045 -0.000113232 -1.90647e-24)
(0.00152553 -0.000108973 1.24718e-23)
(0.00154089 -9.65969e-05 3.06927e-23)
(0.00155434 -9.39078e-05 -4.00885e-23)
(0.00156718 -8.10315e-05 -1.10836e-23)
(0.00157975 -8.03724e-05 1.16196e-23)
(0.00158991 -6.65331e-05 3.72707e-23)
(0.00160238 -6.83557e-05 -4.8653e-23)
(0.00160937 -5.27865e-05 1.1709e-22)
(0.00162268 -5.77029e-05 -1.9605e-22)
(0.00162585 -3.92159e-05 1.57959e-22)
(0.00112616 -0.000100563 -4.45535e-23)
(0.00113884 -0.000110945 -6.22493e-23)
(0.00115209 -0.000121905 1.25089e-22)
(0.00116744 -0.000132009 -4.05576e-23)
(0.00118351 -0.000142511 0)
(0.00120224 -0.000151493 -1.6647e-23)
(0.00122154 -0.000160635 3.48926e-23)
(0.00124371 -0.000167302 -2.77199e-23)
(0.00126591 -0.000173869 5.32684e-24)
(0.0012908 -0.00017695 6.50746e-24)
(0.0013148 -0.000179943 -6.55892e-24)
(0.00134102 -0.000178655 0)
(0.00136516 -0.000177824 0)
(0.00139099 -0.000172275 0)
(0.00141353 -0.000168303 2.26638e-22)
(0.00143748 -0.000159442 -2.26733e-22)
(0.00145721 -0.000153683 0)
(0.00147853 -0.000142837 -1.71199e-24)
(0.00149505 -0.000136781 0)
(0.00151375 -0.000125066 1.82825e-23)
(0.00152734 -0.000119865 -1.34201e-23)
(0.00154383 -0.00010783 1.02163e-23)
(0.00155508 -0.000104205 4.54343e-23)
(0.00156972 -9.1798e-05 -3.33616e-23)
(0.00157927 -9.02147e-05 -2.42821e-23)
(0.00159213 -7.69074e-05 1.25613e-23)
(0.00160067 -7.78704e-05 5.31228e-23)
(0.00161145 -6.27334e-05 -1.61105e-22)
(0.00161983 -6.70301e-05 1.34394e-22)
(0.00162793 -4.85364e-05 -5.5477e-23)
(0.00112248 -0.000116427 -6.70256e-23)
(0.00113534 -0.000126967 1.78431e-22)
(0.00114895 -0.000138018 -9.88888e-23)
(0.00116501 -0.000148579 3.86311e-23)
(0.00118181 -0.00015924 -7.47408e-23)
(0.00120157 -0.000168665 2.11977e-23)
(0.0012218 -0.000177744 4.64483e-24)
(0.00124516 -0.000184685 5.08743e-23)
(0.00126829 -0.000190878 -2.31591e-23)
(0.00129431 -0.000194033 1.78906e-24)
(0.00131905 -0.000196359 -3.18617e-24)
(0.00134611 -0.000194984 3.31575e-24)
(0.00137066 -0.000193258 -1.48575e-24)
(0.00139689 -0.000187534 1.97058e-24)
(0.00141946 -0.000182547 2.79663e-22)
(0.00144338 -0.000173516 -2.79676e-22)
(0.00146277 -0.000166733 5.16569e-24)
(0.00148376 -0.000155806 2.93119e-24)
(0.00149962 -0.000148775 -2.56282e-23)
(0.0015179 -0.000137121 1.76692e-23)
(0.00153052 -0.000131004 0)
(0.00154677 -0.000119215 4.54438e-23)
(0.00155666 -0.000114683 -9.2986e-23)
(0.00157155 -0.000102761 9.42815e-24)
(0.00157922 -0.000100182 2.28491e-23)
(0.00159317 -8.76645e-05 1.05738e-22)
(0.00159908 -8.73972e-05 -3.96088e-23)
(0.00161213 -7.34285e-05 9.9805e-23)
(0.00161686 -7.60947e-05 -2.27666e-22)
(0.00162879 -5.92029e-05 1.42819e-22)
(0.00112448 -0.000133865 0)
(0.00113744 -0.000144804 -2.32296e-23)
(0.00115116 -0.000156026 1.11037e-23)
(0.0011677 -0.000167049 3.97631e-23)
(0.00118496 -0.000177896 -4.04146e-23)
(0.00120557 -0.000187723 -4.11067e-23)
(0.00122637 -0.000196681 3.27883e-23)
(0.00125072 -0.000203767 0)
(0.00127431 -0.000209449 -3.71405e-24)
(0.00130121 -0.000212506 6.72295e-24)
(0.0013261 -0.000213977 -8.73547e-25)
(0.00135374 -0.000212335 2.87469e-25)
(0.00137803 -0.000209514 -3.66568e-25)
(0.00140442 -0.000203458 -6.16836e-25)
(0.00142637 -0.00019728 3.4556e-22)
(0.00145001 -0.000187965 -3.45573e-22)
(0.00146857 -0.000180038 -1.18601e-25)
(0.00148893 -0.000168942 -8.64724e-24)
(0.00150392 -0.000160911 3.91343e-24)
(0.00152135 -0.000149217 -5.15214e-24)
(0.00153315 -0.000142285 -2.27955e-23)
(0.00154856 -0.000130572 3.44254e-23)
(0.00155765 -0.000125404 0)
(0.00157201 -0.000113668 -6.61581e-23)
(0.00157871 -0.000110574 3.91239e-23)
(0.00159285 -9.83639e-05 5.69759e-23)
(0.00159728 -9.75832e-05 -7.03221e-23)
(0.00161167 -8.40863e-05 1.45973e-23)
(0.00161406 -8.60708e-05 -2.97704e-23)
(0.00162877 -6.98548e-05 0)
(0.00112731 -0.000152487 -9.73718e-23)
(0.00114063 -0.000164183 1.68438e-22)
(0.0011546 -0.000175783 -1.1787e-22)
(0.00117163 -0.000187257 0)
(0.00118934 -0.000198297 -3.71305e-23)
(0.0012107 -0.000208393 2.90451e-23)
(0.00123195 -0.000217169 7.44738e-24)
(0.00125706 -0.000224197 2.20601e-23)
(0.00128081 -0.000229253 -2.28093e-23)
(0.00130836 -0.000231979 0)
(0.00133297 -0.000232449 9.16458e-25)
(0.00136106 -0.000230333 -8.75734e-25)
(0.00138458 -0.000226261 -2.18709e-24)
(0.00141121 -0.000219747 1.6796e-24)
(0.00143197 -0.000212229 4.27541e-22)
(0.00145566 -0.000202609 -4.27552e-22)
(0.00147285 -0.000193395 1.23018e-23)
(0.00149306 -0.000182211 3.49969e-24)
(0.00150678 -0.00017304 -4.57695e-24)
(0.00152386 -0.000161457 5.40513e-24)
(0.00153474 -0.000153591 0)
(0.00154956 -0.000142114 5.23157e-23)
(0.00155822 -0.000136257 -5.13399e-23)
(0.00157186 -0.000124799 0)
(0.00157851 -0.000121264 -7.29543e-23)
(0.00159213 -0.000109319 5.76008e-23)
(0.00159639 -0.000108272 0)
(0.0016112 -9.50419e-05 9.46607e-23)
(0.00161224 -9.6748e-05 -2.82658e-22)
(0.00162951 -8.08846e-05 1.25343e-22)
(0.00112718 -0.000172494 -1.01571e-22)
(0.00114102 -0.000185101 1.28767e-22)
(0.0011555 -0.000197222 2.39017e-23)
(0.00117302 -0.000209041 4.20598e-23)
(0.00119137 -0.000220206 -4.28193e-23)
(0.00121336 -0.000230345 9.10481e-24)
(0.00123521 -0.000238872 -7.81182e-24)
(0.00126092 -0.000245596 0)
(0.001285 -0.00024998 -4.77718e-24)
(0.00131308 -0.000252121 -1.21507e-24)
(0.00133761 -0.00025157 -1.88294e-25)
(0.00136621 -0.000248759 -9.04139e-25)
(0.00138913 -0.000243445 1.52119e-24)
(0.00141633 -0.000236327 9.94081e-25)
(0.00143596 -0.000227478 5.30382e-22)
(0.00146036 -0.000217511 -5.30483e-22)
(0.00147597 -0.000206969 -2.12843e-24)
(0.00149708 -0.000195778 1.07783e-23)
(0.00150899 -0.000185337 -3.95643e-23)
(0.00152705 -0.000174071 2.31042e-23)
(0.00153622 -0.000165038 -6.57342e-24)
(0.00155182 -0.000154102 -1.34143e-23)
(0.0015593 -0.000147268 0)
(0.0015731 -0.000136401 0)
(0.00157954 -0.000132206 1.51125e-23)
(0.00159232 -0.000120693 6.38261e-23)
(0.00159759 -0.000119407 -6.26931e-23)
(0.00161046 -0.000106301 3.24127e-23)
(0.00161334 -0.000108138 -1.01711e-22)
(0.0016281 -9.21816e-05 1.32019e-22)
(0.0011178 -0.000193421 -1.33608e-22)
(0.00113292 -0.000206926 8.22896e-23)
(0.00114889 -0.000219729 0)
(0.00116762 -0.000231928 0)
(0.00118751 -0.000243284 -3.83177e-23)
(0.00121065 -0.000253387 3.90069e-23)
(0.00123404 -0.000261729 2.65704e-23)
(0.00126078 -0.000268029 -3.24815e-23)
(0.00128624 -0.000271829 0)
(0.00131518 -0.00027321 2.15175e-24)
(0.00134075 -0.000271749 1.43914e-24)
(0.00137006 -0.00026802 -2.09216e-24)
(0.00139348 -0.000261605 1.82458e-24)
(0.00142135 -0.00025364 0)
(0.00144073 -0.000243605 6.59356e-22)
(0.00146602 -0.000233064 -6.59452e-22)
(0.00148049 -0.000221286 0)
(0.00150294 -0.000209932 -5.67416e-24)
(0.00151276 -0.000198177 -1.97861e-23)
(0.0015328 -0.000187236 3.24349e-23)
(0.00153898 -0.000176784 1.41402e-23)
(0.00155712 -0.000166659 0)
(0.00156106 -0.000158337 4.73662e-23)
(0.00157752 -0.000148624 -6.20279e-23)
(0.00158058 -0.000143052 -6.65442e-23)
(0.0015952 -0.000132677 6.53673e-23)
(0.00159823 -0.000130505 0)
(0.00161089 -0.000117944 0)
(0.00161337 -0.00011991 -1.77559e-22)
(0.00162482 -0.000103312 1.03824e-22)
(0.00110414 -0.000218135 5.74654e-23)
(0.001121 -0.00023222 2.74006e-23)
(0.0011392 -0.000245578 1.26536e-23)
(0.00115987 -0.000258082 -1.15197e-23)
(0.00118219 -0.000269574 1.0173e-23)
(0.0012072 -0.000279513 -2.3585e-23)
(0.00123309 -0.000287571 3.27747e-23)
(0.00126143 -0.000293244 8.45828e-25)
(0.00128926 -0.000296349 1.87957e-24)
(0.0013193 -0.000296681 -6.02251e-24)
(0.00134688 -0.000294216 6.4713e-25)
(0.00137668 -0.000289193 -3.8476e-24)
(0.00140155 -0.000281642 -1.66874e-24)
(0.00142939 -0.000272376 5.85905e-24)
(0.00144949 -0.000261218 8.22503e-22)
(0.00147453 -0.000249588 -8.22492e-22)
(0.00148881 -0.000236727 1.22678e-23)
(0.00151132 -0.000224668 9.84268e-25)
(0.0015197 -0.00021177 -1.33411e-23)
(0.00154072 -0.000200691 -3.77708e-23)
(0.00154383 -0.000188891 6.25331e-23)
(0.00156446 -0.000179408 -4.80899e-23)
(0.00156336 -0.00016936 -5.44241e-25)
(0.00158404 -0.000161187 -7.0037e-23)
(0.00158017 -0.000153395 8.65776e-23)
(0.00160006 -0.000145322 1.80358e-23)
(0.00159513 -0.000140643 0)
(0.00161177 -0.000130488 1.84807e-23)
(0.001607 -0.00013047 3.69275e-23)
(0.00161704 -0.000115039 7.49309e-23)
(0.00109908 -0.000248276 -3.01553e-23)
(0.00111711 -0.000262686 0)
(0.00113706 -0.00027639 3.6376e-23)
(0.00115938 -0.000289056 -3.86561e-23)
(0.00118384 -0.000300471 -2.08099e-23)
(0.00121053 -0.000310009 -4.00108e-23)
(0.00123866 -0.000317436 6.08097e-23)
(0.00126835 -0.000322134 -2.23107e-23)
(0.00129828 -0.000324129 3.09548e-24)
(0.00132899 -0.000323006 -2.2064e-24)
(0.00135833 -0.000319129 6.73688e-24)
(0.0013879 -0.000312374 -1.01049e-24)
(0.00141414 -0.000303375 -1.62537e-23)
(0.00144082 -0.000292353 7.55381e-24)
(0.00146199 -0.000279955 1.03225e-21)
(0.00148516 -0.000266747 -1.03223e-21)
(0.0015002 -0.000252939 1.41609e-23)
(0.00152061 -0.000239577 -2.20071e-23)
(0.0015292 -0.000225919 -2.55241e-23)
(0.00154858 -0.000213936 7.49366e-23)
(0.00155059 -0.000201372 -4.21853e-23)
(0.00157113 -0.000191703 1.75122e-23)
(0.0015663 -0.000180539 7.39773e-23)
(0.00158978 -0.000173309 -1.30426e-22)
(0.00157766 -0.000163428 5.58767e-23)
(0.00160413 -0.000157828 -3.84672e-23)
(0.00158452 -0.000149494 7.89017e-23)
(0.00161036 -0.000143393 -9.66411e-23)
(0.0015842 -0.000138241 0)
(0.00160021 -0.000127201 -3.95213e-23)
(0.00109569 -0.000283098 -3.12899e-23)
(0.00111533 -0.000297948 1.45345e-23)
(0.00113719 -0.000311902 -1.31916e-23)
(0.00116144 -0.000324584 0)
(0.00118804 -0.000335652 -2.61152e-23)
(0.00121661 -0.000344504 3.75683e-23)
(0.00124678 -0.000350864 -6.6756e-24)
(0.00127793 -0.000354204 4.39271e-24)
(0.00130956 -0.000354562 0)
(0.001341 -0.000351603 0)
(0.00137161 -0.00034579 1.50902e-24)
(0.00140094 -0.000336994 7.43606e-24)
(0.00142813 -0.000326108 -5.54368e-24)
(0.00145349 -0.000313127 0)
(0.00147558 -0.000299215 1.30453e-21)
(0.00149643 -0.000284307 -1.30457e-21)
(0.00151276 -0.000269513 0)
(0.00152991 -0.000254661 -2.17287e-23)
(0.0015403 -0.000240471 1.68143e-23)
(0.00155556 -0.000227065 -9.13313e-24)
(0.00155938 -0.000214282 0)
(0.00157534 -0.000203374 0)
(0.00157079 -0.000192089 1.98496e-23)
(0.00159042 -0.000184169 -2.01504e-23)
(0.00157341 -0.000173411 -8.38563e-23)
(0.00159894 -0.000168398 1.02662e-22)
(0.00156255 -0.00015687 0)
(0.0015936 -0.000154086 -2.11301e-23)
(0.00152995 -0.000141341 2.11753e-23)
(0.00155938 -0.000137752 -4.21969e-23)
(0.00108649 -0.000321936 1.68165e-23)
(0.00110885 -0.000337496 -1.53635e-23)
(0.00113366 -0.000351835 1.39641e-23)
(0.00116093 -0.000364479 -4.28177e-23)
(0.00119049 -0.000374992 4.38483e-23)
(0.00122184 -0.000382868 2.45515e-23)
(0.00125457 -0.000387767 -2.50799e-23)
(0.00128794 -0.000389355 -1.06162e-24)
(0.00132148 -0.000387602 0)
(0.00135433 -0.000382435 0)
(0.00138609 -0.000374214 0)
(0.00141585 -0.000363111 1.01203e-23)
(0.00144354 -0.000349901 -1.02056e-23)
(0.00146833 -0.000334853 0)
(0.00149063 -0.000319038 1.65704e-21)
(0.0015099 -0.000302491 -1.65683e-21)
(0.0015267 -0.000286379 0)
(0.00154108 -0.000270202 -2.05112e-23)
(0.00155265 -0.00025519 3.03926e-23)
(0.00156308 -0.000240349 0)
(0.00156866 -0.000227088 0)
(0.0015762 -0.000214294 0)
(0.0015731 -0.000202986 -2.31304e-23)
(0.00157931 -0.000192573 9.16286e-23)
(0.00156048 -0.000181892 -8.96959e-23)
(0.00156722 -0.000173874 -9.16514e-23)
(0.00151787 -0.000161251 8.94974e-23)
(0.00152968 -0.000156853 2.23661e-23)
(0.00142503 -0.000138044 -2.23821e-23)
(0.00145317 -0.000140292 2.22127e-23)
(0.00107593 -0.000370594 1.44862e-22)
(0.00110194 -0.000385767 -1.31251e-22)
(0.00113071 -0.000399697 0)
(0.00116194 -0.000411637 0)
(0.00119522 -0.000420941 -2.9337e-23)
(0.00123007 -0.000427146 2.54056e-23)
(0.00126585 -0.000429928 0)
(0.00130191 -0.000429104 1.13658e-24)
(0.00133754 -0.000424635 0)
(0.00137209 -0.000416649 0)
(0.00140488 -0.000405449 5.68408e-24)
(0.0014353 -0.000391495 0)
(0.00146296 -0.000375417 -1.20143e-23)
(0.00148742 -0.000357853 1.63314e-23)
(0.00150882 -0.000339571 2.1271e-21)
(0.00152683 -0.00032106 -2.12702e-21)
(0.00154213 -0.000302991 2.31307e-23)
(0.00155403 -0.000285351 -2.91951e-23)
(0.00156345 -0.000268727 0)
(0.00156878 -0.000252474 -1.29897e-23)
(0.00157072 -0.000237556 0)
(0.00156717 -0.000222677 -1.31159e-23)
(0.0015576 -0.000209629 2.47613e-23)
(0.00154214 -0.000195792 0)
(0.00151304 -0.000183714 -1.01007e-22)
(0.00148231 -0.000170162 9.8584e-23)
(0.00141664 -0.000157284 0)
(0.00137406 -0.000144837 0)
(0.00123704 -0.000126082 1.93229e-22)
(0.00122107 -0.000124424 -1.64407e-22)
(0.00106623 -0.000430703 0)
(0.0010962 -0.000447303 0)
(0.00112915 -0.000461383 0)
(0.00116496 -0.00047229 0)
(0.00120289 -0.000479566 0)
(0.00124204 -0.000482909 4.9878e-24)
(0.00128158 -0.000482195 0)
(0.00132082 -0.000477421 -1.54856e-23)
(0.00135898 -0.000468703 3.97319e-24)
(0.00139537 -0.000456329 4.29767e-23)
(0.00142921 -0.000440747 -6.26436e-23)
(0.00145999 -0.000422595 3.17233e-23)
(0.00148709 -0.000402567 -4.56557e-24)
(0.00151037 -0.000381427 0)
(0.0015295 -0.00035981 2.75497e-21)
(0.0015446 -0.000338303 -2.75291e-21)
(0.00155542 -0.000317294 0)
(0.00156185 -0.000297069 6.71967e-24)
(0.0015633 -0.000277664 5.8313e-23)
(0.00155864 -0.000259012 -1.02394e-22)
(0.00154676 -0.000241027 1.16884e-22)
(0.00152495 -0.000223324 5.83474e-23)
(0.00149239 -0.000205956 -1.44396e-22)
(0.00144495 -0.000187889 0)
(0.0013831 -0.00017088 0)
(0.00130185 -0.000152517 0)
(0.00119943 -0.000136091 0)
(0.00108133 -0.000114823 0)
(0.000919065 -9.99932e-05 0)
(0.000811005 -8.27254e-05 0)
(0.00105688 -0.000497533 1.50829e-23)
(0.00109489 -0.000510414 0)
(0.00113679 -0.000522266 0)
(0.00118035 -0.000530912 1.78904e-23)
(0.00122436 -0.000535312 -1.64072e-23)
(0.00126814 -0.00053517 2.49537e-24)
(0.00131122 -0.000530548 -9.79204e-24)
(0.00135294 -0.000521601 -6.37403e-24)
(0.00139258 -0.00050862 0)
(0.0014293 -0.000492007 -1.04694e-23)
(0.0014623 -0.000472356 0)
(0.00149094 -0.000450371 0)
(0.00151465 -0.000426806 0)
(0.00153309 -0.000402327 0)
(0.00154574 -0.000377371 3.62894e-21)
(0.00155226 -0.000352223 -3.63045e-21)
(0.00155163 -0.000327103 0)
(0.0015431 -0.00030207 0)
(0.00152489 -0.000277302 0)
(0.00149577 -0.000253169 0)
(0.00145349 -0.000230234 1.76199e-23)
(0.00139626 -0.000207958 1.63176e-23)
(0.00132046 -0.000184605 3.21158e-23)
(0.00122397 -0.000160266 -1.28229e-22)
(0.00110525 -0.000137012 2.49176e-22)
(0.000963766 -0.000115406 -1.44957e-25)
(0.000804237 -9.18784e-05 -1.46684e-22)