/*--------------------------------*- C++ -*----------------------------------*\
| =========                 |                                                 |
| \\      /  F ield         | OpenFOAM: The Open Source CFD Toolbox           |
|  \\    /   O peration     | Version:  2312                                  |
|   \\  /    A nd           | Website:  www.openfoam.com                      |
|    \\/     M anipulation  |                                                 |
\*---------------------------------------------------------------------------*/
FoamFile
{
    version     2.0;
    format      ascii;
    arch        "LSB;label=32;scalar=64";
    class       volVectorField;
    location    "23000";
    object      U;
}
// * * * * * * * * * * * * * * * * * * * * * * * * * * * * * * * * * * * * * //

dimensions      [0 1 -1 0 0 0 0];

internalField   nonuniform List<vector> 
2715
(
(0.000277599 2.96794e-05 1.03059e-24)
(0.000287356 -3.12065e-06 0)
(0.000252579 -2.29969e-06 0)
(0.000236543 -3.09772e-06 0)
(0.000228953 -3.30927e-06 -2.37017e-23)
(0.0002332 -4.20281e-06 2.31933e-23)
(0.000235899 -4.37122e-06 0)
(0.000249015 -5.20115e-06 5.94805e-25)
(0.000255943 -4.80039e-06 0)
(0.000273975 -5.26074e-06 0)
(0.000281606 -4.32501e-06 -1.74721e-25)
(0.000300857 -4.35433e-06 0)
(0.000305999 -2.84769e-06 -3.48126e-26)
(0.000322928 -2.46074e-06 0)
(0.000322651 -4.9893e-07 2.5168e-24)
(0.000334257 2.21058e-07 -2.51724e-24)
(0.000326536 2.04916e-06 0)
(0.000330674 2.27442e-06 -1.04978e-25)
(0.000314383 4.29712e-06 0)
(0.000310541 3.96897e-06 0)
(0.000285909 5.51045e-06 0)
(0.000274871 4.36397e-06 0)
(0.000243857 5.35932e-06 7.54869e-25)
(0.000227987 2.87931e-06 0)
(0.000194445 3.32822e-06 -2.58498e-23)
(0.000177706 7.60594e-07 2.48544e-23)
(0.00014769 -1.61603e-06 0)
(0.000126159 1.3205e-06 0)
(0.000140438 1.29529e-05 0)
(-6.00233e-05 -2.31115e-05 9.08792e-25)
(0.000544947 4.84483e-05 5.99029e-23)
(0.000597285 1.31688e-05 -6.33954e-23)
(0.000574273 1.57112e-05 1.68518e-24)
(0.000568972 8.39223e-06 0)
(0.00056234 2.97595e-06 0)
(0.000576852 -1.5297e-06 2.27192e-23)
(0.00057941 -2.86212e-06 -2.02739e-24)
(0.000607465 -5.92303e-06 -2.0897e-23)
(0.00061502 -5.58074e-06 -5.21182e-25)
(0.000652669 -7.86428e-06 0)
(0.000661378 -6.13112e-06 -4.264e-24)
(0.000703655 -7.9021e-06 4.80672e-24)
(0.000709628 -4.94059e-06 -6.07544e-25)
(0.000751193 -6.32253e-06 7.89792e-25)
(0.000750528 -2.21034e-06 7.70612e-24)
(0.000786232 -3.32496e-06 -8.9122e-24)
(0.000775218 1.94921e-06 -1.94607e-24)
(0.000801056 8.45092e-07 3.12102e-24)
(0.000777125 7.12199e-06 -9.07977e-24)
(0.000789848 6.06458e-06 9.65052e-24)
(0.00075125 1.3164e-05 0)
(0.000748838 1.13466e-05 -7.26867e-25)
(0.000696126 1.9023e-05 2.42793e-23)
(0.000676904 1.60548e-05 7.39012e-25)
(0.000616812 2.35203e-05 -2.46036e-23)
(0.000574639 1.71133e-05 0)
(0.000535981 2.97455e-05 0)
(0.00040996 -8.87811e-07 1.55758e-24)
(0.000547697 6.95061e-05 5.3543e-23)
(6.09283e-05 -1.13018e-05 -5.52758e-23)
(0.000719854 4.67595e-05 4.03609e-24)
(0.000771179 1.00888e-06 -5.41293e-23)
(0.000766799 1.53941e-06 5.4809e-23)
(0.000778419 -3.8476e-06 3.27244e-24)
(0.00077901 -8.72446e-06 0)
(0.00080365 -1.52288e-05 0)
(0.000807447 -1.67818e-05 -1.32794e-24)
(0.000843014 -2.1649e-05 0)
(0.000849964 -2.08118e-05 -8.3e-24)
(0.000895215 -2.48523e-05 1.48804e-24)
(0.000903496 -2.13971e-05 1.11171e-23)
(0.000954309 -2.4396e-05 -4.7707e-24)
(0.000960954 -1.81174e-05 0)
(0.00101237 -2.01386e-05 0)
(0.00101409 -1.10955e-05 1.38735e-23)
(0.00106117 -1.25843e-05 -1.38902e-23)
(0.00105492 -9.32148e-07 -1.69949e-25)
(0.00109317 -2.17152e-06 0)
(0.00107659 1.14235e-05 9.32342e-24)
(0.00110161 9.19557e-06 -1.9861e-23)
(0.00107373 2.50709e-05 -1.05625e-24)
(0.00108008 2.06439e-05 1.07629e-23)
(0.00104411 3.95045e-05 0)
(0.00102183 2.90223e-05 -1.63216e-24)
(0.000991046 5.54412e-05 0)
(0.000915082 2.70469e-05 0)
(0.000936721 8.03185e-05 3.27922e-24)
(0.000726084 1.99025e-07 -5.07461e-23)
(0.00093464 0.000130183 5.00608e-23)
(0.000445506 -2.52454e-05 3.74314e-24)
(0.000849119 3.2294e-05 5.70881e-23)
(0.000891948 -5.02585e-06 -1.18321e-22)
(0.000896035 -5.08773e-06 3.34267e-23)
(0.000913155 -9.25675e-06 2.39445e-23)
(0.000917374 -1.33354e-05 0)
(0.000944864 -2.17062e-05 2.92405e-24)
(0.000952272 -2.39367e-05 -1.31557e-24)
(0.000988342 -3.11276e-05 0)
(0.000998689 -3.00204e-05 1.07566e-24)
(0.00104194 -3.6244e-05 -6.28521e-24)
(0.00105447 -3.14745e-05 5.96534e-24)
(0.0011016 -3.66149e-05 0)
(0.00111445 -2.79309e-05 -5.1355e-25)
(0.00116126 -3.21909e-05 7.37041e-25)
(0.00117228 -1.95304e-05 2.07629e-23)
(0.00121428 -2.34268e-05 -2.21622e-23)
(0.00122175 -6.72047e-06 -1.89372e-24)
(0.00125421 -1.1301e-05 3.23436e-24)
(0.00125757 9.92688e-06 0)
(0.00127503 2.98265e-06 -1.15507e-23)
(0.00127624 3.01051e-05 1.08557e-23)
(0.00127033 1.79134e-05 1.54023e-24)
(0.00127591 5.42272e-05 0)
(0.00123204 2.93743e-05 -1.73844e-24)
(0.00125899 8.25705e-05 0)
(0.00114897 3.1165e-05 -3.51418e-24)
(0.00123725 0.00011863 -3.10161e-23)
(0.00101226 1.72835e-05 -2.11777e-23)
(0.00122811 0.000152002 1.05577e-22)
(0.000844832 3.3708e-05 -5.73034e-23)
(0.000949755 1.7571e-05 0)
(0.000981968 -1.13525e-05 4.9957e-23)
(0.000989238 -1.62507e-05 -8.89965e-23)
(0.00100571 -2.21505e-05 2.44162e-23)
(0.0010133 -2.62479e-05 0)
(0.00103877 -3.55932e-05 -3.00824e-24)
(0.00105049 -3.71228e-05 2.75903e-24)
(0.00108157 -4.5406e-05 0)
(0.00109704 -4.31444e-05 2.0997e-24)
(0.00113259 -5.08307e-05 0)
(0.00115183 -4.43241e-05 6.62329e-25)
(0.00118896 -5.12375e-05 0)
(0.00121089 -3.98586e-05 0)
(0.00124577 -4.62521e-05 0)
(0.00126918 -2.96029e-05 2.95789e-23)
(0.00129752 -3.63253e-05 -2.9583e-23)
(0.00132183 -1.39756e-05 0)
(0.00133887 -2.24913e-05 0)
(0.00136494 6.6632e-06 0)
(0.00136488 -5.83691e-06 1.35559e-24)
(0.00139585 3.20269e-05 0)
(0.00137062 1.15309e-05 3.27366e-24)
(0.00141326 6.219e-05 0)
(0.00135078 2.71465e-05 3.51608e-24)
(0.00141766 9.66536e-05 0)
(0.00130146 3.74205e-05 3.61423e-24)
(0.00141107 0.000131993 -3.25112e-23)
(0.00122436 4.18041e-05 8.01972e-23)
(0.00139816 0.000147002 -6.11354e-23)
(0.00112784 6.79382e-05 0)
(0.00102836 2.46115e-06 5.41764e-23)
(0.00105126 -1.83045e-05 -1.21396e-22)
(0.00106082 -2.64614e-05 8.71358e-23)
(0.00107525 -3.30359e-05 -2.48129e-23)
(0.00108506 -3.57863e-05 -2.50704e-23)
(0.0011061 -4.58702e-05 2.23034e-23)
(0.0011211 -4.74859e-05 2.09005e-23)
(0.00114623 -5.72707e-05 -3.94439e-23)
(0.00116578 -5.46107e-05 1.63419e-23)
(0.00119361 -6.36407e-05 0)
(0.00121778 -5.61153e-05 -6.82822e-25)
(0.00124577 -6.43836e-05 4.1966e-25)
(0.00127384 -5.12679e-05 -2.94017e-25)
(0.00129861 -5.91277e-05 6.47607e-25)
(0.0013298 -3.98975e-05 3.97286e-23)
(0.00134754 -4.83481e-05 -4.14297e-23)
(0.00138163 -2.24702e-05 -2.2798e-24)
(0.00138821 -3.31247e-05 3.61278e-24)
(0.00142601 3.60843e-07 1.23557e-24)
(0.00141688 -1.4649e-05 -1.39753e-24)
(0.00146056 2.81365e-05 0)
(0.00143051 5.9607e-06 -3.14385e-23)
(0.00148343 6.0294e-05 5.73639e-23)
(0.00142676 2.73961e-05 -2.92614e-23)
(0.00149299 9.47414e-05 -3.46523e-23)
(0.00140514 4.79264e-05 3.05201e-23)
(0.00148813 0.000124071 3.40113e-23)
(0.00136793 6.9669e-05 -9.64283e-23)
(0.00147015 0.000132954 1.2124e-22)
(0.00131701 0.000100469 -6.2904e-23)
(0.00108794 -1.17532e-05 -5.47767e-23)
(0.0011039 -2.60945e-05 1.17381e-23)
(0.00111464 -3.55117e-05 6.0567e-23)
(0.00112729 -4.39781e-05 -6.99277e-24)
(0.0011385 -4.68188e-05 2.55216e-23)
(0.00115581 -5.72091e-05 -1.65368e-23)
(0.00117246 -5.89985e-05 0)
(0.00119338 -6.92862e-05 0)
(0.00121462 -6.67039e-05 0)
(0.00123761 -7.58994e-05 1.7042e-24)
(0.00126322 -6.82783e-05 6.33475e-25)
(0.00128617 -7.64687e-05 -4.33131e-25)
(0.00131541 -6.31379e-05 0)
(0.00133555 -7.06404e-05 -5.67887e-26)
(0.00136766 -5.11358e-05 5.28778e-23)
(0.00138194 -5.88351e-05 -5.28841e-23)
(0.00141645 -3.28537e-05 4.32185e-25)
(0.00142176 -4.20849e-05 0)
(0.00145882 -9.1833e-06 -1.27523e-24)
(0.00145224 -2.13616e-05 1.51342e-24)
(0.00149246 1.91664e-05 3.32831e-24)
(0.00147135 2.75605e-06 0)
(0.00151527 5.09753e-05 0)
(0.00147756 2.97374e-05 0)
(0.00152524 8.32282e-05 4.47194e-23)
(0.00147005 5.89716e-05 -3.23042e-23)
(0.00152152 0.000109719 0)
(0.00144887 9.01679e-05 -5.47536e-23)
(0.00150609 0.000123142 1.72833e-24)
(0.0014146 0.000119211 6.6777e-23)
(0.00112999 -2.44946e-05 0)
(0.00114158 -3.49776e-05 -7.87846e-24)
(0.00115268 -4.41938e-05 2.92385e-23)
(0.00116424 -5.41421e-05 -2.23857e-23)
(0.00117617 -5.78344e-05 0)
(0.00119115 -6.80338e-05 -6.33235e-24)
(0.00120816 -7.0423e-05 0)
(0.0012267 -8.03612e-05 0)
(0.00124795 -7.86644e-05 0)
(0.00126856 -8.70077e-05 4.2112e-24)
(0.00129344 -8.04225e-05 -1.07337e-23)
(0.00131442 -8.72182e-05 4.76191e-24)
(0.00134203 -7.52444e-05 -1.03608e-24)
(0.0013612 -8.07085e-05 5.86854e-26)
(0.00139055 -6.30617e-05 6.85297e-23)
(0.00140564 -6.78534e-05 -6.86383e-23)
(0.00143588 -4.4582e-05 -4.46619e-25)
(0.00144479 -4.95823e-05 5.07173e-24)
(0.00147538 -2.08892e-05 -1.82844e-23)
(0.00147645 -2.66656e-05 2.35516e-23)
(0.00150694 7.05869e-06 -1.6691e-23)
(0.00149895 6.39319e-07 0)
(0.00152857 3.7957e-05 0)
(0.00151073 3.21609e-05 0)
(0.00153832 6.92374e-05 -8.39366e-24)
(0.00151039 6.68932e-05 0)
(0.00153523 9.68664e-05 3.43745e-23)
(0.00149756 0.000101909 -3.3962e-23)
(0.00151971 0.000117711 -8.41154e-24)
(0.00147536 0.000130964 0)
(0.00115594 -3.58815e-05 8.35878e-24)
(0.00116534 -4.4593e-05 6.29904e-23)
(0.00117638 -5.31741e-05 -3.37714e-23)
(0.00118735 -6.37766e-05 -1.9669e-24)
(0.00119973 -6.88233e-05 -2.87542e-23)
(0.00121346 -7.85223e-05 0)
(0.00123032 -8.19226e-05 2.16988e-23)
(0.00124758 -9.08717e-05 -3.18828e-24)
(0.00126832 -9.06224e-05 -1.67514e-23)
(0.00128777 -9.73994e-05 -5.84574e-24)
(0.00131151 -9.26202e-05 5.88122e-24)
(0.00133176 -9.71362e-05 3.75449e-25)
(0.00135743 -8.75279e-05 6.33233e-26)
(0.00137679 -8.98836e-05 1.08916e-25)
(0.0014031 -7.54008e-05 8.69735e-23)
(0.0014199 -7.6005e-05 -8.69467e-23)
(0.00144569 -5.70633e-05 -5.07544e-25)
(0.00145857 -5.6356e-05 1.27093e-24)
(0.00148293 -3.37016e-05 1.43881e-24)
(0.00149091 -3.1625e-05 -1.41714e-23)
(0.00151307 -6.3038e-06 1.40859e-23)
(0.0015154 -2.00528e-06 3.74646e-23)
(0.00153437 2.4192e-05 2.06817e-24)
(0.00153035 3.22683e-05 -3.48375e-23)
(0.00154487 5.62191e-05 0)
(0.00153406 6.96307e-05 3.73809e-23)
(0.0015431 8.73604e-05 8.45813e-26)
(0.00152611 0.000106083 3.59999e-23)
(0.00152867 0.000115218 -7.20754e-23)
(0.00150918 0.000137175 8.82416e-24)
(0.00116747 -4.61159e-05 -7.57898e-23)
(0.00117627 -5.45205e-05 7.64616e-23)
(0.0011872 -6.27644e-05 -2.2896e-23)
(0.00119798 -7.32188e-05 5.28476e-23)
(0.00121077 -7.97412e-05 -2.94972e-23)
(0.00122404 -8.87998e-05 -1.82622e-23)
(0.00124078 -9.34484e-05 1.91832e-23)
(0.00125743 -0.000101088 0)
(0.00127776 -0.000102528 -4.29759e-24)
(0.00129672 -0.000107431 1.6321e-24)
(0.00131965 -0.000104803 0)
(0.00133976 -0.000106696 -7.08247e-25)
(0.00136406 -9.98626e-05 6.56321e-25)
(0.00138395 -9.87426e-05 2.73987e-26)
(0.00140813 -8.78777e-05 1.09214e-22)
(0.00142648 -8.39719e-05 -1.09152e-22)
(0.0014492 -6.9769e-05 -2.76858e-26)
(0.00146503 -6.32618e-05 -5.77519e-24)
(0.00148533 -4.67398e-05 5.80452e-24)
(0.00149797 -3.73465e-05 0)
(0.00151512 -1.96362e-05 4.00902e-24)
(0.00152396 -6.4834e-06 -8.6034e-24)
(0.001537 1.10687e-05 0)
(0.00154137 2.89689e-05 -4.87199e-23)
(0.00154895 4.46629e-05 4.86064e-23)
(0.00154842 6.75441e-05 4.02554e-23)
(0.00154896 7.93455e-05 -9.0047e-23)
(0.00154412 0.000105805 3.95279e-23)
(0.00153646 0.000112086 -6.71676e-23)
(0.00153028 0.000141149 5.67628e-23)
(0.00116704 -5.56944e-05 -6.91088e-23)
(0.00117614 -6.45338e-05 1.2814e-22)
(0.00118721 -7.30101e-05 -8.3894e-23)
(0.00119815 -8.28804e-05 4.54543e-23)
(0.00121147 -9.07068e-05 -3.02935e-23)
(0.0012249 -9.90875e-05 -6.72742e-24)
(0.00124175 -0.000105045 2.82885e-23)
(0.00125839 -0.000111341 -2.2463e-23)
(0.00127861 -0.000114467 2.18603e-24)
(0.0012977 -0.000117519 -1.69136e-24)
(0.00132031 -0.000117045 0)
(0.0013408 -0.000116408 5.0731e-25)
(0.00136449 -0.000112277 -1.1949e-24)
(0.00138512 -0.000107877 7.06459e-25)
(0.0014083 -0.000100411 1.36138e-22)
(0.00142787 -9.2418e-05 -1.35988e-22)
(0.00144916 -8.24422e-05 5.22471e-24)
(0.00146685 -7.10241e-05 -3.8561e-25)
(0.00148535 -5.95676e-05 -6.24926e-24)
(0.00150066 -4.45385e-05 0)
(0.00151571 -3.24769e-05 -4.15454e-24)
(0.00152826 -1.32484e-05 4.51817e-24)
(0.00153883 -1.26531e-06 4.01426e-23)
(0.00154818 2.26424e-05 -2.96783e-23)
(0.00155269 3.37776e-05 -1.03674e-23)
(0.00155844 6.2101e-05 4.34618e-23)
(0.00155504 7.10368e-05 -2.12479e-23)
(0.00155748 0.000102757 7.46937e-23)
(0.00154495 0.000107626 -1.68332e-22)
(0.00154657 0.00014276 8.195e-23)
(0.00115798 -6.53877e-05 -5.30195e-23)
(0.00116778 -7.46925e-05 1.261e-23)
(0.00117931 -8.38489e-05 7.80549e-23)
(0.0011908 -9.31186e-05 -1.59891e-23)
(0.00120482 -0.00010199 0)
(0.00121889 -0.00010972 6.76354e-24)
(0.00123623 -0.000116911 6.00607e-24)
(0.00125338 -0.000122032 2.40184e-23)
(0.00127399 -0.000126685 -1.16165e-23)
(0.00129368 -0.000128134 -5.95862e-24)
(0.00131667 -0.000129578 -2.96211e-24)
(0.00133785 -0.000126778 3.0796e-24)
(0.00136189 -0.000124958 2.75484e-25)
(0.00138323 -0.000117809 -1.82608e-25)
(0.00140668 -0.000113119 1.67726e-22)
(0.00142693 -0.000101843 -1.67981e-22)
(0.00144847 -9.51377e-05 6.28265e-25)
(0.00146682 -8.00426e-05 -6.77416e-24)
(0.0014857 -7.22574e-05 -8.76141e-24)
(0.00150174 -5.33648e-05 1.54208e-23)
(0.00151747 -4.50913e-05 2.35018e-23)
(0.00153092 -2.20559e-05 2.18869e-23)
(0.00154268 -1.35094e-05 -2.96667e-23)
(0.00155301 1.40229e-05 1.11563e-23)
(0.00155951 2.24751e-05 1.15766e-23)
(0.00156579 5.44459e-05 0)
(0.00156571 6.16334e-05 -2.34876e-23)
(0.00156719 9.76342e-05 -8.2272e-23)
(0.00156006 0.000101458 2.48392e-25)
(0.00155759 0.000142279 1.01665e-22)
(0.00114449 -7.59584e-05 3.58681e-23)
(0.00115505 -8.54544e-05 -8.38836e-23)
(0.00116734 -9.54063e-05 -8.69055e-24)
(0.00117969 -0.000104267 8.25768e-24)
(0.00119464 -0.000113968 0)
(0.00120967 -0.000121161 -7.0163e-24)
(0.00122795 -0.00012941 -6.23353e-24)
(0.00124598 -0.000133651 -5.3294e-24)
(0.0012676 -0.00013957 7.29548e-24)
(0.00128815 -0.000139791 -8.96533e-24)
(0.00131231 -0.00014275 0)
(0.00133424 -0.000138285 -1.41526e-25)
(0.00135954 -0.000138194 -2.26562e-27)
(0.00138137 -0.000128947 -2.63905e-25)
(0.00140616 -0.00012624 2.05555e-22)
(0.00142651 -0.000112543 -2.05568e-22)
(0.00144956 -0.000108094 7.28001e-25)
(0.00146758 -9.04298e-05 7.33317e-24)
(0.00148831 -8.51316e-05 -3.30414e-24)
(0.00150369 -6.36823e-05 0)
(0.00152184 -5.79813e-05 1.55034e-23)
(0.00153438 -3.24698e-05 -2.01035e-23)
(0.00154945 -2.63785e-05 -1.10082e-23)
(0.00155853 3.74496e-06 -1.15787e-23)
(0.00156957 9.9867e-06 -1.2009e-23)
(0.00157401 4.51582e-05 0)
(0.00157986 5.03964e-05 1.24534e-23)
(0.00157842 9.07982e-05 -1.31372e-23)
(0.00157869 9.28466e-05 8.84407e-23)
(0.00157177 0.000140127 -1.2584e-22)
(0.00113146 -8.80057e-05 -3.706e-23)
(0.00114264 -9.74324e-05 1.59854e-22)
(0.00115575 -0.000108037 -6.52021e-23)
(0.00116907 -0.000116721 3.23823e-23)
(0.00118512 -0.000127076 -3.28471e-23)
(0.00120125 -0.000133949 7.01636e-24)
(0.0012208 -0.000143012 -6.13618e-24)
(0.00123993 -0.000146726 1.87212e-23)
(0.00126298 -0.000153556 -2.29361e-23)
(0.00128458 -0.000152967 -4.63788e-24)
(0.00131032 -0.000156923 2.62744e-24)
(0.00133305 -0.000151305 1.48244e-24)
(0.00135999 -0.000152265 -1.35893e-24)
(0.00138217 -0.000141537 1.95937e-24)
(0.00140866 -0.000139996 2.50793e-22)
(0.00142878 -0.000124607 -2.50807e-22)
(0.00145369 -0.000121533 6.06974e-24)
(0.00147087 -0.000102106 1.15494e-24)
(0.00149387 -9.84529e-05 -3.01241e-23)
(0.00150784 -7.52587e-05 -2.0645e-24)
(0.00152901 -7.1473e-05 1.45448e-23)
(0.00153964 -4.41582e-05 3.53432e-23)
(0.00155893 -4.02261e-05 -4.6317e-23)
(0.00156552 -7.91282e-06 -1.28815e-23)
(0.00158239 -3.99031e-06 1.34416e-23)
(0.00158354 3.42321e-05 4.14314e-23)
(0.0015971 3.71271e-05 -5.45369e-23)
(0.00159114 8.19683e-05 1.26287e-22)
(0.0016012 8.18444e-05 -2.09555e-22)
(0.00158784 0.000135406 1.65928e-22)
(0.00112263 -0.000101766 -4.04378e-23)
(0.00113431 -0.000111096 -5.60269e-23)
(0.00114815 -0.000122139 1.1241e-22)
(0.00116244 -0.000130881 -3.62643e-23)
(0.00117955 -0.000141731 0)
(0.00119689 -0.000148573 -1.44316e-23)
(0.00121768 -0.000158153 2.93007e-23)
(0.00123814 -0.000161688 -2.3186e-23)
(0.00126252 -0.000168993 4.19339e-24)
(0.0012854 -0.000167984 4.19122e-24)
(0.00131241 -0.000172335 -4.22436e-24)
(0.00133618 -0.000166014 0)
(0.00136422 -0.000167306 0)
(0.001387 -0.00015561 0)
(0.00141442 -0.000154462 3.05439e-22)
(0.00143462 -0.000137944 -3.05538e-22)
(0.00146042 -0.000135499 0)
(0.00147717 -0.000114889 -2.07277e-24)
(0.00150128 -0.000112262 0)
(0.00151444 -8.78649e-05 2.15699e-23)
(0.00153731 -8.56109e-05 -1.58783e-23)
(0.00154685 -5.69329e-05 1.19268e-23)
(0.00156888 -5.50793e-05 5.34218e-23)
(0.00157416 -2.09239e-05 -3.93838e-23)
(0.00159519 -1.94992e-05 -2.84881e-23)
(0.00159475 2.14784e-05 1.44409e-23)
(0.0016141 2.17054e-05 6.12845e-23)
(0.00160601 7.07184e-05 -1.84158e-22)
(0.00162353 6.8026e-05 1.53557e-22)
(0.0016071 0.000127617 -6.16344e-23)
(0.00112038 -0.000117371 -6.05517e-23)
(0.0011324 -0.000126782 1.6088e-22)
(0.0011466 -0.000138082 -8.88701e-23)
(0.00116177 -0.00014709 3.40994e-23)
(0.00117954 -0.000158253 -6.55297e-23)
(0.00119815 -0.000165332 1.88598e-23)
(0.00121971 -0.000175091 4.64435e-24)
(0.00124166 -0.000178718 4.12713e-23)
(0.0012667 -0.000185999 -1.83029e-23)
(0.00129108 -0.000184874 1.16879e-24)
(0.00131842 -0.000188982 -6.83184e-25)
(0.00134353 -0.000182316 -4.77856e-25)
(0.00137145 -0.000183216 -1.50637e-24)
(0.0013953 -0.000170987 3.6098e-24)
(0.00142214 -0.000169479 3.70891e-22)
(0.00144314 -0.000152341 -3.70905e-22)
(0.00146804 -0.000149806 6.30053e-24)
(0.00148547 -0.000128583 3.40653e-24)
(0.00150856 -0.000126351 -3.06575e-23)
(0.00152247 -0.000101365 2.10818e-23)
(0.00154452 -0.000100158 0)
(0.00155512 -7.07917e-05 5.42291e-23)
(0.00157686 -7.06776e-05 -1.11193e-22)
(0.00158376 -3.54781e-05 1.12167e-23)
(0.0016053 -3.63056e-05 2.73437e-23)
(0.00160718 6.48592e-06 1.27576e-22)
(0.00162793 4.28158e-06 -4.75108e-23)
(0.0016229 5.6388e-05 1.18947e-22)
(0.0016424 5.14683e-05 -2.69361e-22)
(0.00162982 0.000115781 1.68203e-22)
(0.00112324 -0.000134481 0)
(0.00113561 -0.000144334 -2.09389e-23)
(0.00114982 -0.000155824 9.93871e-24)
(0.00116575 -0.000165284 3.49812e-23)
(0.00118375 -0.000176582 -3.55543e-23)
(0.00120358 -0.000184095 -3.49272e-23)
(0.00122538 -0.000193702 2.77669e-23)
(0.00124879 -0.000197598 0)
(0.00127376 -0.000204369 -2.42927e-24)
(0.00129964 -0.000203339 4.75732e-24)
(0.0013264 -0.000206592 -2.00635e-25)
(0.00135293 -0.000199876 2.33749e-24)
(0.00137965 -0.000199692 -1.73971e-24)
(0.00140484 -0.00018735 -9.66629e-25)
(0.00142989 -0.000184744 4.50702e-22)
(0.00145223 -0.000167555 -4.50715e-22)
(0.00147483 -0.000164163 -1.33097e-25)
(0.00149383 -0.000143049 -1.0405e-23)
(0.00151427 -0.000140431 4.73557e-24)
(0.00153027 -0.000115738 -6.15479e-24)
(0.0015495 -0.000114805 -2.73383e-23)
(0.00156305 -8.58362e-05 4.13564e-23)
(0.00158204 -8.67074e-05 0)
(0.00159311 -5.18006e-05 -8.09658e-23)
(0.0016122 -5.41469e-05 4.8109e-23)
(0.00161973 -1.11511e-05 7.0961e-23)
(0.00163844 -1.49843e-05 -8.73312e-23)
(0.00164057 3.83141e-05 1.79122e-23)
(0.0016583 3.21679e-05 -3.63942e-23)
(0.00165421 9.90063e-05 0)
(0.00112643 -0.000152796 -8.78469e-23)
(0.0011394 -0.000163497 1.51462e-22)
(0.00115367 -0.000175227 -1.05497e-22)
(0.00117038 -0.000185255 0)
(0.00118854 -0.000196516 -3.19756e-23)
(0.00120951 -0.000204531 2.51267e-23)
(0.00123137 -0.000213701 6.10343e-24)
(0.00125605 -0.000217937 1.66312e-23)
(0.0012807 -0.000223789 -1.73365e-23)
(0.00130785 -0.000222975 0)
(0.00133377 -0.000224867 2.10491e-25)
(0.00136155 -0.000218338 -3.06053e-24)
(0.00138684 -0.000216485 -2.59465e-24)
(0.00141328 -0.000204442 2.80465e-24)
(0.00143634 -0.000200076 5.48098e-22)
(0.00146007 -0.000183448 -5.48109e-22)
(0.00148021 -0.00017844 1.49561e-23)
(0.00150094 -0.000158259 4.09641e-24)
(0.00151852 -0.000154399 -5.50752e-24)
(0.00153689 -0.000131026 6.45701e-24)
(0.00155296 -0.000129445 0)
(0.00156996 -0.000102118 6.3618e-23)
(0.00158551 -0.000103078 -6.23865e-23)
(0.00160174 -6.99175e-05 0)
(0.00161707 -7.30281e-05 -9.20836e-23)
(0.00163218 -3.14664e-05 7.27176e-23)
(0.00164656 -3.63408e-05 0)
(0.00165928 1.63302e-05 1.2316e-22)
(0.00167159 9.5088e-06 -3.71477e-22)
(0.00168142 7.69574e-05 1.64981e-22)
(0.00112577 -0.000172352 -9.15315e-23)
(0.00113952 -0.000184074 1.15979e-22)
(0.00115415 -0.000196104 2.13013e-23)
(0.0011717 -0.00020671 3.67013e-23)
(0.00119031 -0.000217799 -3.73641e-23)
(0.00121235 -0.000226264 7.72132e-24)
(0.00123459 -0.000234826 -6.4021e-24)
(0.0012604 -0.000239381 0)
(0.00128517 -0.000244094 -3.31786e-24)
(0.00131346 -0.000243525 -4.59834e-25)
(0.00133908 -0.000243776 2.88918e-24)
(0.00136799 -0.000237574 -4.79513e-24)
(0.00139249 -0.000233695 3.09926e-24)
(0.00142008 -0.000222262 1.40084e-24)
(0.00144184 -0.000215657 6.68089e-22)
(0.0014668 -0.000200114 -6.68194e-22)
(0.00148522 -0.000192836 -2.59103e-24)
(0.00150734 -0.00017434 1.28557e-23)
(0.00152292 -0.000168389 -4.71741e-23)
(0.00154295 -0.000147337 2.75462e-23)
(0.00155691 -0.000144112 -7.86618e-24)
(0.00157609 -0.000119665 -1.62183e-23)
(0.00158964 -0.000119734 0)
(0.00160908 -8.97428e-05 0)
(0.00162261 -9.29135e-05 1.90612e-23)
(0.00164281 -5.42793e-05 8.33028e-23)
(0.00165529 -6.00152e-05 -8.18237e-23)
(0.00167608 -9.39703e-06 4.28191e-23)
(0.00168546 -1.72387e-05 -1.41155e-22)
(0.00170742 4.94636e-05 1.81624e-22)
(0.00111587 -0.00019292 -1.20297e-22)
(0.00113117 -0.000205658 7.41643e-23)
(0.0011473 -0.000218162 0)
(0.00116642 -0.000229434 0)
(0.00118656 -0.000240462 -3.24928e-23)
(0.00121021 -0.000249363 3.30773e-23)
(0.00123395 -0.000257394 2.04986e-23)
(0.00126136 -0.000262203 -2.47593e-23)
(0.00128739 -0.000265822 0)
(0.00131716 -0.00026539 5.44823e-25)
(0.00134359 -0.000263993 4.75059e-24)
(0.00137383 -0.000258014 -6.26322e-24)
(0.0013985 -0.000252031 2.68964e-24)
(0.00142732 -0.000241186 0)
(0.00144849 -0.000232132 8.15947e-22)
(0.00147468 -0.000217813 -8.16046e-22)
(0.00149176 -0.000207834 0)
(0.00151521 -0.000191417 -6.73556e-24)
(0.00152884 -0.000182632 -2.34355e-23)
(0.00155036 -0.000164677 3.84173e-23)
(0.00156209 -0.00015872 1.68667e-23)
(0.00158288 -0.000138425 0)
(0.00159457 -0.000136269 5.87601e-23)
(0.00161568 -0.000111204 -7.66279e-23)
(0.00162864 -0.000113196 -8.57902e-23)
(0.00165061 -7.94827e-05 8.42733e-23)
(0.0016646 -8.55627e-05 0)
(0.00168759 -3.86501e-05 0)
(0.00170034 -4.84461e-05 -2.53137e-22)
(0.00172577 1.66181e-05 1.46702e-22)
(0.00110375 -0.000217683 5.1818e-23)
(0.00112086 -0.000231114 2.45351e-23)
(0.00113918 -0.000244019 1.1167e-23)
(0.00116037 -0.000255813 -9.99625e-24)
(0.00118291 -0.000266806 8.61198e-24)
(0.00120864 -0.000275897 -1.88243e-23)
(0.0012348 -0.000283393 2.63036e-23)
(0.00126409 -0.000288074 8.73874e-25)
(0.00129227 -0.000290597 1.87038e-25)
(0.0013235 -0.000289793 8.91634e-25)
(0.00135153 -0.000286773 -2.87646e-24)
(0.00138275 -0.00028042 -5.68472e-24)
(0.00140822 -0.000272405 -1.70156e-24)
(0.00143764 -0.000261526 7.75996e-24)
(0.00145864 -0.000250125 9.99972e-22)
(0.00148538 -0.000236477 -9.99957e-22)
(0.00150114 -0.00022383 1.4491e-23)
(0.00152549 -0.000209135 1.12745e-24)
(0.00153653 -0.000197286 -1.56841e-23)
(0.0015597 -0.000182516 -4.45907e-23)
(0.00156754 -0.000173094 7.40459e-23)
(0.00159101 -0.000157877 -5.72174e-23)
(0.00159788 -0.000152021 -4.44361e-25)
(0.00162262 -0.000134054 -8.78201e-23)
(0.0016311 -0.000132573 1.08676e-22)
(0.00165677 -0.000107316 2.33707e-23)
(0.00166886 -0.000111133 0)
(0.00169359 -7.21407e-05 2.56178e-23)
(0.00170943 -8.25105e-05 5.25333e-23)
(0.00173191 -2.24381e-05 1.1094e-22)
(0.00110025 -0.000247786 -2.71715e-23)
(0.00111853 -0.000261654 0)
(0.00113863 -0.000274886 3.16313e-23)
(0.00116143 -0.000286981 -3.38122e-23)
(0.00118613 -0.00029785 -1.74928e-23)
(0.00121349 -0.000306727 -3.15066e-23)
(0.00124192 -0.00031351 4.51177e-23)
(0.00127251 -0.00031747 -1.51674e-23)
(0.00130277 -0.000318733 1.2845e-24)
(0.00133466 -0.000316815 -5.05128e-24)
(0.00136435 -0.000312122 1.34562e-23)
(0.00139541 -0.000304528 -2.92979e-24)
(0.00142199 -0.00029464 -2.13278e-23)
(0.0014505 -0.000282756 9.61611e-24)
(0.00147201 -0.000269447 1.23321e-21)
(0.00149745 -0.000255391 -1.23318e-21)
(0.00151297 -0.000240781 1.65336e-23)
(0.0015362 -0.000226625 -2.56567e-23)
(0.00154579 -0.000212519 -2.96124e-23)
(0.00156878 -0.000199761 8.72303e-23)
(0.00157314 -0.000187488 -4.93234e-23)
(0.00159848 -0.000176689 2.08139e-23)
(0.00159882 -0.000167025 8.98994e-23)
(0.00162878 -0.000156972 -1.59913e-22)
(0.00162684 -0.000150269 6.86694e-23)
(0.00166157 -0.000137069 -4.93942e-23)
(0.00165987 -0.000134288 1.07268e-22)
(0.00169502 -0.000110622 -1.31903e-22)
(0.00169719 -0.000114901 0)
(0.00172307 -7.00323e-05 -5.90993e-23)
(0.00109716 -0.000282525 -2.8074e-23)
(0.00111707 -0.000296903 1.28849e-23)
(0.00113925 -0.000310422 -1.14955e-23)
(0.00116396 -0.000322621 0)
(0.00119101 -0.000333194 -2.0738e-23)
(0.00122018 -0.000341479 3.02703e-23)
(0.0012509 -0.000347254 -4.81168e-24)
(0.00128279 -0.000349958 2.4801e-24)
(0.00131507 -0.000349646 0)
(0.00134745 -0.000345999 0)
(0.00137878 -0.000339425 2.54396e-24)
(0.00140927 -0.000329918 9.60756e-24)
(0.00143719 -0.000318182 -7.18555e-24)
(0.00146401 -0.000304531 0)
(0.0014868 -0.000289703 1.53222e-21)
(0.00150949 -0.000274285 -1.53226e-21)
(0.00152647 -0.000258579 0)
(0.0015461 -0.000243587 -2.50007e-23)
(0.00155718 -0.000228621 1.94511e-23)
(0.00157596 -0.000215764 -1.05579e-23)
(0.00158092 -0.000202573 0)
(0.00160225 -0.000193273 0)
(0.0016003 -0.000182217 2.35565e-23)
(0.00162851 -0.000176952 -2.43354e-23)
(0.00161748 -0.000167098 -1.03982e-22)
(0.00165622 -0.000164371 1.27971e-22)
(0.00163232 -0.000154419 0)
(0.00168095 -0.000149701 -2.80255e-23)
(0.00164166 -0.00014093 2.93932e-23)
(0.00168792 -0.000124295 -6.14713e-23)
(0.00108867 -0.000321531 1.51426e-23)
(0.00111134 -0.000336689 -1.36198e-23)
(0.00113658 -0.00035065 1.21687e-23)
(0.00116434 -0.000362881 -3.5328e-23)
(0.00119449 -0.00037296 3.61783e-23)
(0.00122642 -0.00038034 1.65845e-23)
(0.00125986 -0.000384725 -1.69415e-23)
(0.00129391 -0.000385737 1.06992e-24)
(0.00132831 -0.000383398 0)
(0.00136193 -0.000377582 0)
(0.0013947 -0.000368706 0)
(0.00142532 -0.000356903 1.25006e-23)
(0.00145412 -0.000342991 -1.2606e-23)
(0.00147985 -0.000327245 0)
(0.00150334 -0.000310732 1.91514e-21)
(0.00152365 -0.000293602 -1.9149e-21)
(0.00154176 -0.000276894 0)
(0.00155741 -0.000260463 -2.3282e-23)
(0.00157047 -0.000245125 3.45527e-23)
(0.00158272 -0.000230765 0)
(0.00159024 -0.000217749 0)
(0.0016009 -0.000206885 0)
(0.00160093 -0.000196816 -2.61992e-23)
(0.00161339 -0.000190829 1.07284e-22)
(0.00160041 -0.000182439 -1.05021e-22)
(0.00161954 -0.000181899 -1.12667e-22)
(0.00158024 -0.000171457 1.10019e-22)
(0.00161365 -0.000177006 2.96647e-23)
(0.00152406 -0.000158895 -3.10681e-23)
(0.00158155 -0.000171005 3.41535e-23)
(0.00107914 -0.000370588 1.28347e-22)
(0.00110553 -0.000385375 -1.16149e-22)
(0.00113481 -0.000398953 0)
(0.0011666 -0.00041054 0)
(0.00120051 -0.000419466 -2.09286e-23)
(0.00123599 -0.000425248 1.89863e-23)
(0.00127251 -0.000427564 0)
(0.00130929 -0.000426228 -1.14546e-24)
(0.00134577 -0.000421214 0)
(0.00138111 -0.000412639 0)
(0.00141486 -0.000400828 6.97446e-24)
(0.00144611 -0.000386231 0)
(0.00147482 -0.000369513 -1.40339e-23)
(0.00150013 -0.0003513 1.90473e-23)
(0.00152269 -0.000332418 2.42206e-21)
(0.00154154 -0.00031334 -2.42196e-21)
(0.00155816 -0.000294832 2.60386e-23)
(0.00157093 -0.000276873 -3.28143e-23)
(0.00158202 -0.0002602 0)
(0.00158838 -0.000244211 -1.44449e-23)
(0.00159273 -0.00023008 0)
(0.00159067 -0.000216736 -1.4538e-23)
(0.00158503 -0.000206146 2.80464e-23)
(0.00157237 -0.000196435 0)
(0.00155062 -0.000189504 -1.15233e-22)
(0.00152588 -0.000183983 1.12468e-22)
(0.00147314 -0.000178667 0)
(0.00144151 -0.000179295 0)
(0.0013209 -0.00016716 2.50138e-22)
(0.00132252 -0.00018588 -2.10893e-22)
(0.00107038 -0.000431402 0)
(0.00110078 -0.000447757 0)
(0.00113424 -0.000461575 0)
(0.00117062 -0.000472191 0)
(0.00120919 -0.000479139 0)
(0.00124904 -0.000482106 2.63368e-24)
(0.00128934 -0.000480959 0)
(0.00132936 -0.000475697 -2.32195e-23)
(0.00136835 -0.000466441 9.18155e-24)
(0.00140559 -0.000453484 5.39786e-23)
(0.00144034 -0.000437284 -7.53816e-23)
(0.001472 -0.000418495 3.75117e-23)
(0.00150005 -0.00039783 -5.30128e-24)
(0.00152426 -0.000376085 0)
(0.00154441 -0.000353904 3.09443e-21)
(0.00156055 -0.000331928 -3.09214e-21)
(0.00157254 -0.00031051 0)
(0.00158025 -0.000290063 7.50915e-24)
(0.0015832 -0.000270581 6.45912e-23)
(0.00158024 -0.000252237 -1.13184e-22)
(0.00157043 -0.000234911 1.28943e-22)
(0.00155089 -0.000218666 6.40525e-23)
(0.00152129 -0.000203663 -1.58285e-22)
(0.00147651 -0.000189448 0)
(0.00141894 -0.000177731 0)
(0.00134048 -0.000167129 0)
(0.00124528 -0.000161139 0)
(0.0011265 -0.000152751 0)
(0.000976955 -0.000152338 0)
(0.000855671 -0.000153828 0)
(0.00106195 -0.000498775 1.28769e-23)
(0.00110047 -0.000511328 0)
(0.00114302 -0.0005229 0)
(0.00118729 -0.000531258 1.05925e-23)
(0.00123206 -0.000535327 -1.65617e-23)
(0.00127661 -0.000534799 2.37437e-23)
(0.0013205 -0.000529735 -2.07867e-23)
(0.00136302 -0.000520289 -9.20632e-24)
(0.00140354 -0.000506768 0)
(0.00144108 -0.000489566 -1.20715e-23)
(0.00147502 -0.00046932 0)
(0.0015045 -0.000446724 0)
(0.0015292 -0.000422626 0)
(0.00154854 -0.000397666 0)
(0.0015624 -0.000372426 4.02321e-21)
(0.0015701 -0.000347062 -4.0249e-21)
(0.00157115 -0.000321903 0)
(0.00156433 -0.000296919 0)
(0.00154843 -0.000272364 0)
(0.0015217 -0.000248551 0)
(0.00148224 -0.000226051 1.92743e-23)
(0.00142799 -0.000204934 1.78593e-23)
(0.00135535 -0.000183515 3.49837e-23)
(0.00126153 -0.000161898 -1.37091e-22)
(0.00114425 -0.000141536 2.64764e-22)
(0.00100211 -0.000126148 -1.70485e-24)
(0.000835754 -0.000110811 -1.52746e-22)
(0.000650497 -9.83411e-05 0)
(0.000451896 -9.49072e-05 0)
(0.000316546 -0.000105641 2.80846e-23)
(0.00104361 -0.000616921 6.27764e-23)