/*--------------------------------*- C++ -*----------------------------------*\
| =========                 |                                                 |
| \\      /  F ield         | OpenFOAM: The Open Source CFD Toolbox           |
|  \\    /   O peration     | Version:  2312                                  |
|   \\  /    A nd           | Website:  www.openfoam.com                      |
|    \\/     M anipulation  |                                                 |
\*---------------------------------------------------------------------------*/
FoamFile
{
    version     2.0;
    format      ascii;
    arch        "LSB;label=32;scalar=64";
    class       volVectorField;
    location    "188000";
    object      U;
}
// * * * * * * * * * * * * * * * * * * * * * * * * * * * * * * * * * * * * * //

dimensions      [0 1 -1 0 0 0 0];

internalField   nonuniform List<vector> 
10800
(
(0.000992484 4.94669e-06 0)
(0.000990029 1.2473e-05 0)
(0.000986845 1.75059e-05 0)
(0.000980444 2.07024e-05 0)
(0.000970992 2.27993e-05 0)
(0.00095965 2.4308e-05 0)
(0.000947486 2.5463e-05 0)
(0.000935032 2.63392e-05 0)
(0.000922432 2.69607e-05 0)
(0.000909662 2.73524e-05 0)
(0.000896678 2.75518e-05 0)
(0.000883475 2.76016e-05 0)
(0.00087009 2.75397e-05 0)
(0.000856578 2.73939e-05 0)
(0.00084299 2.7182e-05 0)
(0.000829365 2.69154e-05 0)
(0.000815729 2.6602e-05 0)
(0.000802102 2.6248e-05 0)
(0.000788498 2.58586e-05 0)
(0.000774934 2.54386e-05 0)
(0.000761426 2.49915e-05 0)
(0.00074799 2.45203e-05 0)
(0.000734643 2.40268e-05 0)
(0.000721398 2.3513e-05 0)
(0.00070827 2.29798e-05 0)
(0.000695273 2.24286e-05 0)
(0.000682422 2.18598e-05 0)
(0.00066973 2.12751e-05 0)
(0.00065721 2.06741e-05 0)
(0.000644876 2.00589e-05 0)
(0.000632743 1.94286e-05 0)
(0.000620821 1.87861e-05 0)
(0.000609127 1.81294e-05 0)
(0.00059767 1.74631e-05 0)
(0.000586467 1.67832e-05 0)
(0.000575524 1.60968e-05 0)
(0.000564861 1.53972e-05 0)
(0.000554481 1.46952e-05 0)
(0.000544407 1.3979e-05 0)
(0.000534632 1.32663e-05 0)
(0.000525193 1.25363e-05 0)
(0.000516064 1.1818e-05 0)
(0.000507308 1.10757e-05 0)
(0.000498855 1.03574e-05 0)
(0.000490834 9.60158e-06 0)
(0.000483074 8.88907e-06 0)
(0.000475862 8.11433e-06 0)
(0.000468774 7.41211e-06 0)
(0.000462513 6.60674e-06 0)
(0.000455965 5.91091e-06 0)
(0.000450999 5.06028e-06 0)
(0.000444531 4.32513e-06 0)
(0.000441833 3.45104e-06 0)
(0.000433935 2.44367e-06 0)
(0.000436459 1.82527e-06 0)
(0.000422367 -4.74689e-07 0)
(0.000439052 6.77272e-07 0)
(0.000404173 -6.97945e-06 0)
(0.000459889 2.5042e-06 0)
(0.000367035 -2.44308e-05 0)
(0.00100003 5.81929e-06 0)
(0.00100171 1.5047e-05 0)
(0.0010042 2.1618e-05 0)
(0.00100701 2.62243e-05 0)
(0.00100971 2.96286e-05 0)
(0.00101207 3.23589e-05 0)
(0.00101403 3.46628e-05 0)
(0.00101564 3.66263e-05 0)
(0.00101694 3.82819e-05 0)
(0.00101796 3.96598e-05 0)
(0.00101871 4.08009e-05 0)
(0.00101918 4.17508e-05 0)
(0.00101937 4.25494e-05 0)
(0.00101929 4.32265e-05 0)
(0.00101894 4.38015e-05 0)
(0.00101834 4.42866e-05 0)
(0.0010175 4.469e-05 0)
(0.00101644 4.50178e-05 0)
(0.00101516 4.52752e-05 0)
(0.00101368 4.54663e-05 0)
(0.00101201 4.55944e-05 0)
(0.00101015 4.56617e-05 0)
(0.00100812 4.567e-05 0)
(0.00100592 4.562e-05 0)
(0.00100358 4.55127e-05 0)
(0.00100108 4.53478e-05 0)
(0.000998462 4.51266e-05 0)
(0.000995698 4.48476e-05 0)
(0.000992851 4.4513e-05 0)
(0.00098986 4.41202e-05 0)
(0.000986826 4.36729e-05 0)
(0.000983641 4.31661e-05 0)
(0.000980469 4.26074e-05 0)
(0.000977122 4.1987e-05 0)
(0.000973866 4.13191e-05 0)
(0.000970379 4.05856e-05 0)
(0.000967103 3.98125e-05 0)
(0.000963492 3.8966e-05 0)
(0.000960278 3.80937e-05 0)
(0.000956534 3.71331e-05 0)
(0.000953492 3.61709e-05 0)
(0.000949574 3.50918e-05 0)
(0.000946862 3.40536e-05 0)
(0.000942666 3.28448e-05 0)
(0.000940527 3.17525e-05 0)
(0.000935839 3.03902e-05 0)
(0.000934658 2.92792e-05 0)
(0.000929073 2.77158e-05 0)
(0.000929487 2.66457e-05 0)
(0.00092226 2.47913e-05 0)
(0.000925343 2.38635e-05 0)
(0.000915127 2.15537e-05 0)
(0.000922712 2.09404e-05 0)
(0.000907093 1.78877e-05 0)
(0.000922318 1.78681e-05 0)
(0.000897007 1.36076e-05 0)
(0.000925272 1.45638e-05 0)
(0.00088274 8.5149e-06 0)
(0.000933548 1.05744e-05 0)
(0.000860948 2.9946e-06 0)
(0.000999989 1.98783e-06 0)
(0.00100077 5.84486e-06 0)
(0.00100222 9.43026e-06 0)
(0.00100419 1.266e-05 0)
(0.00100647 1.55309e-05 0)
(0.00100885 1.80881e-05 0)
(0.00101123 2.03859e-05 0)
(0.00101354 2.24669e-05 0)
(0.00101578 2.4358e-05 0)
(0.00101796 2.60753e-05 0)
(0.00102009 2.76316e-05 0)
(0.00102216 2.90396e-05 0)
(0.00102416 3.03133e-05 0)
(0.00102609 3.1466e-05 0)
(0.00102795 3.25095e-05 0)
(0.00102972 3.34529e-05 0)
(0.00103142 3.43039e-05 0)
(0.00103304 3.50674e-05 0)
(0.0010346 3.57485e-05 0)
(0.00103607 3.635e-05 0)
(0.00103749 3.68758e-05 0)
(0.00103883 3.73269e-05 0)
(0.00104011 3.77069e-05 0)
(0.00104132 3.80148e-05 0)
(0.00104248 3.82545e-05 0)
(0.00104355 3.84227e-05 0)
(0.00104459 3.8525e-05 0)
(0.00104554 3.85551e-05 0)
(0.00104647 3.85214e-05 0)
(0.00104729 3.84138e-05 0)
(0.00104812 3.8245e-05 0)
(0.00104882 3.79991e-05 0)
(0.00104957 3.76963e-05 0)
(0.00105013 3.73114e-05 0)
(0.00105082 3.68764e-05 0)
(0.00105125 3.63514e-05 0)
(0.00105189 3.5787e-05 0)
(0.00105218 3.51202e-05 0)
(0.00105283 3.44308e-05 0)
(0.00105294 3.36195e-05 0)
(0.00105365 3.28115e-05 0)
(0.00105355 3.18511e-05 0)
(0.00105441 3.09335e-05 0)
(0.00105401 2.98161e-05 0)
(0.00105515 2.88017e-05 0)
(0.00105434 2.7515e-05 0)
(0.00105594 2.64216e-05 0)
(0.00105452 2.4947e-05 0)
(0.00105686 2.37999e-05 0)
(0.0010545 2.21119e-05 0)
(0.00105802 2.09471e-05 0)
(0.00105421 1.90162e-05 0)
(0.00105955 1.78852e-05 0)
(0.00105347 1.56891e-05 0)
(0.00106162 1.46668e-05 0)
(0.00105202 1.22288e-05 0)
(0.00106449 1.14269e-05 0)
(0.00104944 8.90925e-06 0)
(0.00106861 8.42923e-06 0)
(0.00104527 6.29001e-06 0)
(0.00100001 1.7745e-06 0)
(0.00100046 5.26505e-06 0)
(0.00100126 8.60556e-06 0)
(0.00100235 1.17193e-05 0)
(0.00100368 1.4565e-05 0)
(0.00100516 1.7139e-05 0)
(0.00100674 1.94625e-05 0)
(0.00100839 2.15646e-05 0)
(0.00101007 2.34718e-05 0)
(0.00101178 2.52042e-05 0)
(0.00101352 2.6777e-05 0)
(0.00101527 2.82021e-05 0)
(0.00101703 2.94915e-05 0)
(0.00101879 3.06562e-05 0)
(0.00102055 3.17075e-05 0)
(0.0010223 3.26548e-05 0)
(0.00102403 3.35066e-05 0)
(0.00102576 3.42692e-05 0)
(0.00102747 3.49485e-05 0)
(0.00102917 3.55481e-05 0)
(0.00103086 3.60723e-05 0)
(0.00103253 3.6523e-05 0)
(0.00103419 3.69036e-05 0)
(0.00103583 3.72146e-05 0)
(0.00103746 3.74588e-05 0)
(0.00103908 3.76354e-05 0)
(0.00104068 3.77472e-05 0)
(0.00104226 3.77919e-05 0)
(0.00104385 3.77729e-05 0)
(0.00104539 3.76865e-05 0)
(0.00104695 3.75372e-05 0)
(0.00104846 3.73193e-05 0)
(0.00104999 3.7039e-05 0)
(0.00105146 3.66887e-05 0)
(0.00105297 3.62766e-05 0)
(0.00105439 3.57927e-05 0)
(0.00105588 3.52478e-05 0)
(0.00105726 3.46289e-05 0)
(0.00105874 3.39502e-05 0)
(0.00106005 3.31954e-05 0)
(0.00106153 3.23816e-05 0)
(0.00106277 3.14903e-05 0)
(0.00106428 3.05403e-05 0)
(0.00106543 2.95127e-05 0)
(0.00106698 2.8425e-05 0)
(0.00106802 2.72633e-05 0)
(0.00106965 2.60357e-05 0)
(0.00107056 2.47458e-05 0)
(0.00107231 2.33757e-05 0)
(0.00107303 2.19706e-05 0)
(0.00107498 2.04544e-05 0)
(0.00107545 1.89614e-05 0)
(0.0010777 1.72946e-05 0)
(0.00107782 1.57671e-05 0)
(0.00108052 1.39449e-05 0)
(0.00108013 1.24831e-05 0)
(0.0010835 1.04971e-05 0)
(0.00108239 9.2756e-06 0)
(0.00108672 7.09168e-06 0)
(0.00108453 6.36557e-06 0)
(0.001 1.19476e-06 0)
(0.00100022 3.56559e-06 0)
(0.00100066 5.87901e-06 0)
(0.0010013 8.10267e-06 0)
(0.00100214 1.02146e-05 0)
(0.00100314 1.22038e-05 0)
(0.00100427 1.40684e-05 0)
(0.0010055 1.58117e-05 0)
(0.00100681 1.7439e-05 0)
(0.00100817 1.89558e-05 0)
(0.00100957 2.03666e-05 0)
(0.00101101 2.16755e-05 0)
(0.00101248 2.28866e-05 0)
(0.00101397 2.4004e-05 0)
(0.00101547 2.5032e-05 0)
(0.00101698 2.59745e-05 0)
(0.0010185 2.68356e-05 0)
(0.00102002 2.76183e-05 0)
(0.00102155 2.83254e-05 0)
(0.00102307 2.89593e-05 0)
(0.00102459 2.95217e-05 0)
(0.00102611 3.00144e-05 0)
(0.00102763 3.04384e-05 0)
(0.00102915 3.0795e-05 0)
(0.00103066 3.10844e-05 0)
(0.00103216 3.1308e-05 0)
(0.00103367 3.1465e-05 0)
(0.00103517 3.15572e-05 0)
(0.00103666 3.15826e-05 0)
(0.00103815 3.15439e-05 0)
(0.00103963 3.14373e-05 0)
(0.00104111 3.12675e-05 0)
(0.00104258 3.1028e-05 0)
(0.00104404 3.07265e-05 0)
(0.0010455 3.03524e-05 0)
(0.00104695 2.99187e-05 0)
(0.00104839 2.94077e-05 0)
(0.00104982 2.88414e-05 0)
(0.00105125 2.81906e-05 0)
(0.00105267 2.74919e-05 0)
(0.00105407 2.66975e-05 0)
(0.00105548 2.58673e-05 0)
(0.00105686 2.49243e-05 0)
(0.00105825 2.39652e-05 0)
(0.00105962 2.28669e-05 0)
(0.001061 2.17846e-05 0)
(0.00106234 2.05217e-05 0)
(0.00106373 1.93263e-05 0)
(0.00106503 1.7886e-05 0)
(0.00106645 1.65958e-05 0)
(0.00106771 1.49599e-05 0)
(0.00106918 1.3606e-05 0)
(0.0010704 1.17484e-05 0)
(0.00107197 1.03813e-05 0)
(0.00107314 8.26069e-06 0)
(0.0010749 6.95969e-06 0)
(0.001076 4.50605e-06 0)
(0.00107806 3.38766e-06 0)
(0.00107904 4.74459e-07 0)
(0.00108144 -2.98675e-07 0)
(0.001 9.73949e-07 0)
(0.00100017 2.92349e-06 0)
(0.00100049 4.85556e-06 0)
(0.00100097 6.75057e-06 0)
(0.00100159 8.59038e-06 0)
(0.00100233 1.03604e-05 0)
(0.00100318 1.20505e-05 0)
(0.00100412 1.36551e-05 0)
(0.00100514 1.51717e-05 0)
(0.00100621 1.65998e-05 0)
(0.00100734 1.79401e-05 0)
(0.0010085 1.91936e-05 0)
(0.00100971 2.03616e-05 0)
(0.00101094 2.1446e-05 0)
(0.0010122 2.24485e-05 0)
(0.00101348 2.33714e-05 0)
(0.00101477 2.42168e-05 0)
(0.00101608 2.49868e-05 0)
(0.00101739 2.56831e-05 0)
(0.00101872 2.63078e-05 0)
(0.00102005 2.6862e-05 0)
(0.00102138 2.73474e-05 0)
(0.00102271 2.77644e-05 0)
(0.00102405 2.8115e-05 0)
(0.00102539 2.83985e-05 0)
(0.00102672 2.86173e-05 0)
(0.00102806 2.87696e-05 0)
(0.00102939 2.88585e-05 0)
(0.00103072 2.88808e-05 0)
(0.00103205 2.88408e-05 0)
(0.00103337 2.87333e-05 0)
(0.00103469 2.85648e-05 0)
(0.001036 2.83269e-05 0)
(0.00103731 2.80299e-05 0)
(0.00103861 2.76602e-05 0)
(0.00103991 2.72343e-05 0)
(0.00104118 2.67307e-05 0)
(0.00104247 2.61753e-05 0)
(0.00104373 2.55349e-05 0)
(0.001045 2.48494e-05 0)
(0.00104624 2.4068e-05 0)
(0.0010475 2.32524e-05 0)
(0.00104871 2.23243e-05 0)
(0.00104997 2.1379e-05 0)
(0.00105114 2.0297e-05 0)
(0.0010524 1.92238e-05 0)
(0.00105353 1.79777e-05 0)
(0.00105482 1.67807e-05 0)
(0.00105591 1.53568e-05 0)
(0.00105724 1.40438e-05 0)
(0.00105827 1.24219e-05 0)
(0.00105969 1.10059e-05 0)
(0.00106065 9.15663e-06 0)
(0.00106222 7.65837e-06 0)
(0.00106307 5.53832e-06 0)
(0.00106485 3.99088e-06 0)
(0.00106555 1.53309e-06 0)
(0.00106762 -9.56999e-09 0)
(0.00106803 -2.91357e-06 0)
(0.00107044 -4.38465e-06 0)
(0.001 7.86009e-07 0)
(0.00100012 2.36386e-06 0)
(0.00100036 3.93387e-06 0)
(0.00100071 5.48253e-06 0)
(0.00100116 6.99745e-06 0)
(0.00100172 8.46828e-06 0)
(0.00100237 9.88708e-06 0)
(0.0010031 1.12483e-05 0)
(0.0010039 1.25483e-05 0)
(0.00100477 1.3785e-05 0)
(0.00100568 1.49572e-05 0)
(0.00100664 1.60641e-05 0)
(0.00100765 1.71054e-05 0)
(0.00100868 1.80812e-05 0)
(0.00100975 1.89915e-05 0)
(0.00101084 1.98365e-05 0)
(0.00101196 2.06167e-05 0)
(0.00101309 2.13328e-05 0)
(0.00101423 2.19849e-05 0)
(0.00101539 2.25739e-05 0)
(0.00101656 2.30999e-05 0)
(0.00101774 2.35637e-05 0)
(0.00101892 2.39651e-05 0)
(0.0010201 2.4305e-05 0)
(0.00102129 2.45827e-05 0)
(0.00102248 2.47995e-05 0)
(0.00102366 2.49539e-05 0)
(0.00102485 2.50479e-05 0)
(0.00102603 2.50788e-05 0)
(0.00102721 2.505e-05 0)
(0.00102839 2.49567e-05 0)
(0.00102956 2.48044e-05 0)
(0.00103072 2.45858e-05 0)
(0.00103187 2.43092e-05 0)
(0.00103301 2.39634e-05 0)
(0.00103416 2.35613e-05 0)
(0.00103528 2.30856e-05 0)
(0.0010364 2.25566e-05 0)
(0.00103749 2.19474e-05 0)
(0.0010386 2.12894e-05 0)
(0.00103966 2.05421e-05 0)
(0.00104075 1.97529e-05 0)
(0.00104177 1.88609e-05 0)
(0.00104284 1.7938e-05 0)
(0.00104383 1.68926e-05 0)
(0.00104489 1.58335e-05 0)
(0.00104582 1.46228e-05 0)
(0.00104689 1.34247e-05 0)
(0.00104777 1.20326e-05 0)
(0.00104885 1.06934e-05 0)
(0.00104966 9.09733e-06 0)
(0.00105079 7.61633e-06 0)
(0.00105152 5.78474e-06 0)
(0.00105273 4.16377e-06 0)
(0.00105337 2.0504e-06 0)
(0.00105474 2.9566e-07 0)
(0.00105526 -2.16841e-06 0)
(0.00105688 -4.03919e-06 0)
(0.00105717 -6.93731e-06 0)
(0.00105896 -8.87145e-06 0)
(0.001 6.42262e-07 0)
(0.00100009 1.93654e-06 0)
(0.00100028 3.2318e-06 0)
(0.00100055 4.51919e-06 0)
(0.00100091 5.79017e-06 0)
(0.00100135 7.03696e-06 0)
(0.00100187 8.25283e-06 0)
(0.00100245 9.43221e-06 0)
(0.00100311 1.05706e-05 0)
(0.00100382 1.16646e-05 0)
(0.00100458 1.27114e-05 0)
(0.00100538 1.37092e-05 0)
(0.00100623 1.4656e-05 0)
(0.00100711 1.55507e-05 0)
(0.00100803 1.6392e-05 0)
(0.00100897 1.71791e-05 0)
(0.00100994 1.79111e-05 0)
(0.00101092 1.85875e-05 0)
(0.00101193 1.92078e-05 0)
(0.00101294 1.97717e-05 0)
(0.00101397 2.02788e-05 0)
(0.00101501 2.07291e-05 0)
(0.00101606 2.11219e-05 0)
(0.00101711 2.14576e-05 0)
(0.00101816 2.17353e-05 0)
(0.00101922 2.19556e-05 0)
(0.00102027 2.21173e-05 0)
(0.00102133 2.22214e-05 0)
(0.00102238 2.2266e-05 0)
(0.00102342 2.22532e-05 0)
(0.00102446 2.21796e-05 0)
(0.0010255 2.20486e-05 0)
(0.00102652 2.18554e-05 0)
(0.00102754 2.16051e-05 0)
(0.00102854 2.12903e-05 0)
(0.00102953 2.0919e-05 0)
(0.0010305 2.048e-05 0)
(0.00103147 1.99854e-05 0)
(0.00103241 1.94187e-05 0)
(0.00103335 1.87979e-05 0)
(0.00103425 1.80986e-05 0)
(0.00103516 1.73477e-05 0)
(0.00103602 1.65094e-05 0)
(0.00103689 1.56235e-05 0)
(0.0010377 1.46375e-05 0)
(0.00103854 1.36101e-05 0)
(0.00103929 1.24648e-05 0)
(0.00104011 1.1288e-05 0)
(0.00104079 9.968e-06 0)
(0.0010416 8.63155e-06 0)
(0.0010422 7.11687e-06 0)
(0.00104303 5.60872e-06 0)
(0.00104353 3.87219e-06 0)
(0.00104439 2.17856e-06 0)
(0.00104479 1.8261e-07 0)
(0.00104571 -1.71524e-06 0)
(0.00104594 -4.02189e-06 0)
(0.00104698 -6.14685e-06 0)
(0.001047 -8.84479e-06 0)
(0.00104807 -1.12128e-05 0)
(0.001 5.29318e-07 0)
(0.00100008 1.60053e-06 0)
(0.00100023 2.67806e-06 0)
(0.00100045 3.75551e-06 0)
(0.00100074 4.82648e-06 0)
(0.0010011 5.8849e-06 0)
(0.00100153 6.9252e-06 0)
(0.00100202 7.9424e-06 0)
(0.00100256 8.93217e-06 0)
(0.00100316 9.89075e-06 0)
(0.0010038 1.08149e-05 0)
(0.00100449 1.17017e-05 0)
(0.00100522 1.25489e-05 0)
(0.00100598 1.33543e-05 0)
(0.00100677 1.4116e-05 0)
(0.00100759 1.48327e-05 0)
(0.00100844 1.5503e-05 0)
(0.0010093 1.61257e-05 0)
(0.00101019 1.66998e-05 0)
(0.00101109 1.72245e-05 0)
(0.001012 1.7699e-05 0)
(0.00101292 1.81227e-05 0)
(0.00101385 1.84948e-05 0)
(0.00101479 1.88151e-05 0)
(0.00101573 1.90827e-05 0)
(0.00101667 1.92977e-05 0)
(0.00101761 1.94591e-05 0)
(0.00101855 1.95671e-05 0)
(0.00101948 1.96205e-05 0)
(0.00102041 1.962e-05 0)
(0.00102134 1.95639e-05 0)
(0.00102225 1.94536e-05 0)
(0.00102315 1.92863e-05 0)
(0.00102404 1.90643e-05 0)
(0.00102492 1.87838e-05 0)
(0.00102578 1.84483e-05 0)
(0.00102662 1.8052e-05 0)
(0.00102745 1.76002e-05 0)
(0.00102825 1.70845e-05 0)
(0.00102904 1.65128e-05 0)
(0.00102978 1.58731e-05 0)
(0.00103053 1.51765e-05 0)
(0.00103122 1.44063e-05 0)
(0.00103191 1.35783e-05 0)
(0.00103253 1.2669e-05 0)
(0.00103318 1.17004e-05 0)
(0.00103372 1.06407e-05 0)
(0.00103431 9.51961e-06 0)
(0.00103476 8.29427e-06 0)
(0.00103531 7.0045e-06 0)
(0.00103566 5.59358e-06 0)
(0.00103616 4.11353e-06 0)
(0.00103639 2.49052e-06 0)
(0.00103686 7.92492e-07 0)
(0.00103695 -1.07522e-06 0)
(0.00103742 -3.02593e-06 0)
(0.00103735 -5.17562e-06 0)
(0.00103781 -7.41683e-06 0)
(0.00103749 -9.90336e-06 0)
(0.00103788 -1.24858e-05 0)
(0.001 4.35967e-07 0)
(0.00100007 1.3225e-06 0)
(0.00100019 2.21886e-06 0)
(0.00100038 3.12014e-06 0)
(0.00100063 4.02134e-06 0)
(0.00100093 4.91761e-06 0)
(0.0010013 5.80433e-06 0)
(0.00100171 6.67718e-06 0)
(0.00100218 7.5322e-06 0)
(0.00100269 8.36581e-06 0)
(0.00100325 9.17473e-06 0)
(0.00100385 9.95603e-06 0)
(0.00100448 1.0707e-05 0)
(0.00100515 1.14254e-05 0)
(0.00100585 1.21091e-05 0)
(0.00100657 1.27562e-05 0)
(0.00100732 1.33649e-05 0)
(0.00100809 1.3934e-05 0)
(0.00100888 1.44619e-05 0)
(0.00100968 1.49476e-05 0)
(0.0010105 1.53898e-05 0)
(0.00101133 1.57878e-05 0)
(0.00101216 1.61405e-05 0)
(0.001013 1.64473e-05 0)
(0.00101385 1.67074e-05 0)
(0.0010147 1.69203e-05 0)
(0.00101554 1.70853e-05 0)
(0.00101639 1.7202e-05 0)
(0.00101722 1.72698e-05 0)
(0.00101806 1.72885e-05 0)
(0.00101888 1.72572e-05 0)
(0.00101969 1.71761e-05 0)
(0.00102049 1.70441e-05 0)
(0.00102128 1.68615e-05 0)
(0.00102204 1.66269e-05 0)
(0.00102279 1.63406e-05 0)
(0.00102351 1.60009e-05 0)
(0.00102422 1.56082e-05 0)
(0.00102489 1.51605e-05 0)
(0.00102554 1.46576e-05 0)
(0.00102616 1.40974e-05 0)
(0.00102675 1.34791e-05 0)
(0.00102729 1.28008e-05 0)
(0.00102781 1.20596e-05 0)
(0.00102827 1.12555e-05 0)
(0.00102872 1.03813e-05 0)
(0.00102907 9.44108e-06 0)
(0.00102944 8.41985e-06 0)
(0.00102968 7.33027e-06 0)
(0.00102996 6.14302e-06 0)
(0.00103008 4.88746e-06 0)
(0.00103027 3.50842e-06 0)
(0.00103023 2.06727e-06 0)
(0.00103033 4.61466e-07 0)
(0.00103011 -1.19034e-06 0)
(0.00103012 -3.06737e-06 0)
(0.00102969 -4.96375e-06 0)
(0.00102959 -7.1816e-06 0)
(0.00102888 -9.35327e-06 0)
(0.0010286 -1.19819e-05 0)
(0.001 3.56146e-07 0)
(0.00100006 1.08463e-06 0)
(0.00100017 1.82554e-06 0)
(0.00100033 2.57494e-06 0)
(0.00100054 3.32884e-06 0)
(0.00100081 4.08325e-06 0)
(0.00100113 4.83429e-06 0)
(0.0010015 5.57828e-06 0)
(0.00100191 6.31171e-06 0)
(0.00100236 7.03131e-06 0)
(0.00100285 7.73403e-06 0)
(0.00100338 8.41705e-06 0)
(0.00100395 9.07774e-06 0)
(0.00100454 9.7137e-06 0)
(0.00100517 1.03227e-05 0)
(0.00100582 1.09028e-05 0)
(0.0010065 1.14521e-05 0)
(0.00100719 1.19689e-05 0)
(0.00100791 1.24517e-05 0)
(0.00100864 1.2899e-05 0)
(0.00100938 1.33097e-05 0)
(0.00101013 1.36826e-05 0)
(0.0010109 1.40166e-05 0)
(0.00101166 1.43109e-05 0)
(0.00101244 1.45647e-05 0)
(0.00101321 1.47772e-05 0)
(0.00101398 1.49479e-05 0)
(0.00101475 1.5076e-05 0)
(0.00101551 1.51612e-05 0)
(0.00101626 1.52029e-05 0)
(0.001017 1.5201e-05 0)
(0.00101773 1.51546e-05 0)
(0.00101845 1.50639e-05 0)
(0.00101915 1.49279e-05 0)
(0.00101982 1.4747e-05 0)
(0.00102048 1.45196e-05 0)
(0.0010211 1.42468e-05 0)
(0.0010217 1.39257e-05 0)
(0.00102227 1.35586e-05 0)
(0.00102281 1.31406e-05 0)
(0.0010233 1.2676e-05 0)
(0.00102377 1.21564e-05 0)
(0.00102417 1.15897e-05 0)
(0.00102455 1.09618e-05 0)
(0.00102485 1.02869e-05 0)
(0.00102513 9.54075e-06 0)
(0.00102531 8.74943e-06 0)
(0.00102548 7.87127e-06 0)
(0.00102553 6.95269e-06 0)
(0.00102557 5.92303e-06 0)
(0.00102545 4.86352e-06 0)
(0.00102536 3.6552e-06 0)
(0.00102505 2.43814e-06 0)
(0.0010248 1.0139e-06 0)
(0.00102428 -3.79578e-07 0)
(0.00102387 -2.06998e-06 0)
(0.00102308 -3.65572e-06 0)
(0.00102247 -5.68277e-06 0)
(0.00102135 -7.48321e-06 0)
(0.00102046 -9.94027e-06 0)
(0.001 2.85797e-07 0)
(0.00100005 8.74847e-07 0)
(0.00100015 1.47831e-06 0)
(0.00100029 2.09302e-06 0)
(0.00100049 2.71567e-06 0)
(0.00100073 3.34298e-06 0)
(0.00100102 3.9717e-06 0)
(0.00100135 4.59867e-06 0)
(0.00100172 5.22084e-06 0)
(0.00100213 5.83531e-06 0)
(0.00100258 6.43931e-06 0)
(0.00100306 7.03021e-06 0)
(0.00100357 7.60554e-06 0)
(0.00100412 8.16297e-06 0)
(0.00100469 8.70033e-06 0)
(0.00100529 9.21558e-06 0)
(0.00100592 9.70687e-06 0)
(0.00100656 1.01724e-05 0)
(0.00100722 1.06106e-05 0)
(0.0010079 1.10201e-05 0)
(0.00100859 1.13994e-05 0)
(0.00100929 1.17473e-05 0)
(0.00100999 1.2063e-05 0)
(0.00101071 1.23453e-05 0)
(0.00101142 1.25934e-05 0)
(0.00101214 1.28066e-05 0)
(0.00101286 1.29845e-05 0)
(0.00101357 1.31261e-05 0)
(0.00101427 1.32314e-05 0)
(0.00101497 1.32996e-05 0)
(0.00101565 1.33311e-05 0)
(0.00101632 1.33246e-05 0)
(0.00101697 1.32811e-05 0)
(0.0010176 1.31991e-05 0)
(0.00101821 1.308e-05 0)
(0.00101879 1.29214e-05 0)
(0.00101934 1.27259e-05 0)
(0.00101987 1.24895e-05 0)
(0.00102035 1.22165e-05 0)
(0.00102079 1.19003e-05 0)
(0.00102119 1.15482e-05 0)
(0.00102155 1.11488e-05 0)
(0.00102185 1.07149e-05 0)
(0.00102211 1.02274e-05 0)
(0.00102229 9.70782e-06 0)
(0.00102243 9.12445e-06 0)
(0.00102247 8.51369e-06 0)
(0.00102247 7.82288e-06 0)
(0.00102234 7.1135e-06 0)
(0.00102218 6.29839e-06 0)
(0.00102187 5.48084e-06 0)
(0.00102153 4.51725e-06 0)
(0.001021 3.57986e-06 0)
(0.00102045 2.43315e-06 0)
(0.00101966 1.36318e-06 0)
(0.00101888 -1.72338e-08 0)
(0.00101778 -1.23097e-06 0)
(0.00101671 -2.9091e-06 0)
(0.00101522 -4.26681e-06 0)
(0.00101379 -6.33462e-06 0)
(0.001 2.21906e-07 0)
(0.00100005 6.84155e-07 0)
(0.00100014 1.16238e-06 0)
(0.00100027 1.65401e-06 0)
(0.00100045 2.15633e-06 0)
(0.00100067 2.66663e-06 0)
(0.00100094 3.18217e-06 0)
(0.00100125 3.70029e-06 0)
(0.00100159 4.21837e-06 0)
(0.00100198 4.73388e-06 0)
(0.00100239 5.24435e-06 0)
(0.00100285 5.7474e-06 0)
(0.00100333 6.24078e-06 0)
(0.00100384 6.72231e-06 0)
(0.00100439 7.18995e-06 0)
(0.00100495 7.64176e-06 0)
(0.00100554 8.07595e-06 0)
(0.00100615 8.4908e-06 0)
(0.00100677 8.88478e-06 0)
(0.00100742 9.2564e-06 0)
(0.00100807 9.60444e-06 0)
(0.00100874 9.92766e-06 0)
(0.00100941 1.02251e-05 0)
(0.00101009 1.04958e-05 0)
(0.00101077 1.07391e-05 0)
(0.00101146 1.09541e-05 0)
(0.00101214 1.11406e-05 0)
(0.00101281 1.12978e-05 0)
(0.00101348 1.14257e-05 0)
(0.00101414 1.15237e-05 0)
(0.00101478 1.15922e-05 0)
(0.00101541 1.16304e-05 0)
(0.00101602 1.16394e-05 0)
(0.00101661 1.16178e-05 0)
(0.00101718 1.15675e-05 0)
(0.00101771 1.14864e-05 0)
(0.00101821 1.13774e-05 0)
(0.00101868 1.12368e-05 0)
(0.00101911 1.10697e-05 0)
(0.00101949 1.08695e-05 0)
(0.00101983 1.06444e-05 0)
(0.00102011 1.03836e-05 0)
(0.00102034 1.01002e-05 0)
(0.00102051 9.77653e-06 0)
(0.0010206 9.43401e-06 0)
(0.00102063 9.04308e-06 0)
(0.00102057 8.63933e-06 0)
(0.00102044 8.17383e-06 0)
(0.00102019 7.70543e-06 0)
(0.00101988 7.15368e-06 0)
(0.00101942 6.61574e-06 0)
(0.00101889 5.9598e-06 0)
(0.00101818 5.34621e-06 0)
(0.00101739 4.55893e-06 0)
(0.00101638 3.86297e-06 0)
(0.00101531 2.905e-06 0)
(0.00101395 2.11931e-06 0)
(0.00101254 9.35409e-07 0)
(0.00101077 6.91221e-08 0)
(0.00100891 -1.41339e-06 0)
(0.001 1.62022e-07 0)
(0.00100004 5.05228e-07 0)
(0.00100013 8.65651e-07 0)
(0.00100026 1.24122e-06 0)
(0.00100043 1.62978e-06 0)
(0.00100064 2.02908e-06 0)
(0.0010009 2.4369e-06 0)
(0.00100119 2.85098e-06 0)
(0.00100152 3.26912e-06 0)
(0.00100189 3.68916e-06 0)
(0.0010023 4.10896e-06 0)
(0.00100273 4.52644e-06 0)
(0.0010032 4.93957e-06 0)
(0.0010037 5.3464e-06 0)
(0.00100422 5.74508e-06 0)
(0.00100477 6.13383e-06 0)
(0.00100534 6.51102e-06 0)
(0.00100593 6.87504e-06 0)
(0.00100654 7.22448e-06 0)
(0.00100717 7.55796e-06 0)
(0.00100781 7.87433e-06 0)
(0.00100846 8.17247e-06 0)
(0.00100912 8.45151e-06 0)
(0.00100978 8.71057e-06 0)
(0.00101045 8.94909e-06 0)
(0.00101112 9.16638e-06 0)
(0.00101179 9.36221e-06 0)
(0.00101245 9.53607e-06 0)
(0.0010131 9.68808e-06 0)
(0.00101375 9.81783e-06 0)
(0.00101438 9.92588e-06 0)
(0.00101499 1.00118e-05 0)
(0.00101558 1.00767e-05 0)
(0.00101616 1.01199e-05 0)
(0.0010167 1.01432e-05 0)
(0.00101721 1.01454e-05 0)
(0.00101769 1.01293e-05 0)
(0.00101814 1.00925e-05 0)
(0.00101854 1.00392e-05 0)
(0.00101889 9.96538e-06 0)
(0.00101919 9.87751e-06 0)
(0.00101944 9.76855e-06 0)
(0.00101963 9.64864e-06 0)
(0.00101975 9.50578e-06 0)
(0.0010198 9.35617e-06 0)
(0.00101977 9.17954e-06 0)
(0.00101965 9.00211e-06 0)
(0.00101945 8.79011e-06 0)
(0.00101913 8.58617e-06 0)
(0.00101872 8.33451e-06 0)
(0.00101818 8.1047e-06 0)
(0.00101753 7.8052e-06 0)
(0.00101671 7.5496e-06 0)
(0.00101578 7.1884e-06 0)
(0.00101464 6.90706e-06 0)
(0.00101337 6.46162e-06 0)
(0.00101185 6.15553e-06 0)
(0.00101018 5.59091e-06 0)
(0.00100822 5.26262e-06 0)
(0.00100608 4.52932e-06 0)
(0.001 1.04029e-07 0)
(0.00100004 3.31712e-07 0)
(0.00100013 5.77593e-07 0)
(0.00100026 8.40139e-07 0)
(0.00100042 1.11768e-06 0)
(0.00100064 1.40846e-06 0)
(0.00100089 1.71065e-06 0)
(0.00100118 2.02244e-06 0)
(0.00100151 2.342e-06 0)
(0.00100187 2.66754e-06 0)
(0.00100227 2.99726e-06 0)
(0.00100271 3.32939e-06 0)
(0.00100317 3.66217e-06 0)
(0.00100367 3.99391e-06 0)
(0.00100419 4.32298e-06 0)
(0.00100474 4.64781e-06 0)
(0.00100531 4.96693e-06 0)
(0.0010059 5.27895e-06 0)
(0.00100651 5.58255e-06 0)
(0.00100714 5.87656e-06 0)
(0.00100778 6.15991e-06 0)
(0.00100844 6.43166e-06 0)
(0.0010091 6.69104e-06 0)
(0.00100977 6.93736e-06 0)
(0.00101045 7.17013e-06 0)
(0.00101112 7.38892e-06 0)
(0.00101179 7.59353e-06 0)
(0.00101246 7.7838e-06 0)
(0.00101313 7.95985e-06 0)
(0.00101378 8.12174e-06 0)
(0.00101441 8.26995e-06 0)
(0.00101504 8.40476e-06 0)
(0.00101564 8.52703e-06 0)
(0.00101622 8.63713e-06 0)
(0.00101677 8.73634e-06 0)
(0.00101729 8.82502e-06 0)
(0.00101777 8.90492e-06 0)
(0.00101822 8.97614e-06 0)
(0.00101863 9.0411e-06 0)
(0.00101899 9.09939e-06 0)
(0.00101929 9.1544e-06 0)
(0.00101954 9.20471e-06 0)
(0.00101973 9.25522e-06 0)
(0.00101985 9.30275e-06 0)
(0.00101989 9.35464e-06 0)
(0.00101986 9.40462e-06 0)
(0.00101973 9.464e-06 0)
(0.00101951 9.52137e-06 0)
(0.00101919 9.59447e-06 0)
(0.00101875 9.66354e-06 0)
(0.00101819 9.75667e-06 0)
(0.0010175 9.84055e-06 0)
(0.00101666 9.96e-06 0)
(0.00101568 1.006e-05 0)
(0.00101451 1.02122e-05 0)
(0.00101316 1.03271e-05 0)
(0.0010116 1.05186e-05 0)
(0.00100984 1.06427e-05 -5.6448e-38)
(0.00100782 1.08812e-05 0)
(0.00100556 1.10029e-05 0)
(0.001 4.6413e-08 0)
(0.00100004 1.59006e-07 0)
(0.00100013 2.90402e-07 0)
(0.00100026 4.39565e-07 0)
(0.00100043 6.05364e-07 0)
(0.00100065 7.86556e-07 0)
(0.0010009 9.81814e-07 0)
(0.0010012 1.18977e-06 0)
(0.00100154 1.40906e-06 0)
(0.00100191 1.63834e-06 0)
(0.00100232 1.87613e-06 0)
(0.00100276 2.1209e-06 0)
(0.00100324 2.37116e-06 0)
(0.00100375 2.6255e-06 0)
(0.00100428 2.8825e-06 0)
(0.00100485 3.14085e-06 0)
(0.00100543 3.39928e-06 0)
(0.00100604 3.65664e-06 0)
(0.00100667 3.9118e-06 0)
(0.00100732 4.16378e-06 0)
(0.00100799 4.41166e-06 0)
(0.00100866 4.65467e-06 0)
(0.00100935 4.89213e-06 0)
(0.00101004 5.12356e-06 0)
(0.00101074 5.34853e-06 0)
(0.00101144 5.56687e-06 0)
(0.00101214 5.77842e-06 0)
(0.00101284 5.98338e-06 0)
(0.00101353 6.18187e-06 0)
(0.00101421 6.37451e-06 0)
(0.00101488 6.56164e-06 0)
(0.00101554 6.74433e-06 0)
(0.00101617 6.92311e-06 0)
(0.00101678 7.0995e-06 0)
(0.00101737 7.27413e-06 0)
(0.00101792 7.44909e-06 0)
(0.00101845 7.62491e-06 0)
(0.00101893 7.80436e-06 0)
(0.00101937 7.98773e-06 0)
(0.00101977 8.17867e-06 0)
(0.00102012 8.37698e-06 0)
(0.0010204 8.58755e-06 0)
(0.00102063 8.80922e-06 0)
(0.00102079 9.04865e-06 0)
(0.00102088 9.30307e-06 0)
(0.00102089 9.58174e-06 0)
(0.00102081 9.87918e-06 0)
(0.00102064 1.02087e-05 0)
(0.00102037 1.05602e-05 0)
(0.00101998 1.09535e-05 0)
(0.00101947 1.13711e-05 0)
(0.00101883 1.18428e-05 0)
(0.00101806 1.23391e-05 0)
(0.00101712 1.29064e-05 0)
(0.00101603 1.34945e-05 0)
(0.00101473 1.41775e-05 0)
(0.00101326 1.487e-05 0)
(0.00101155 1.56931e-05 5.6448e-38)
(0.00100962 1.64995e-05 0)
(0.00100741 1.74905e-05 0)
(0.001 -1.25973e-08 0)
(0.00100005 -1.79094e-08 0)
(0.00100014 -3.6965e-09 0)
(0.00100027 2.94725e-08 0)
(0.00100045 8.08216e-08 0)
(0.00100068 1.49499e-07 0)
(0.00100095 2.34601e-07 0)
(0.00100126 3.35173e-07 0)
(0.00100161 4.5022e-07 0)
(0.001002 5.78694e-07 0)
(0.00100243 7.19661e-07 0)
(0.0010029 8.72206e-07 0)
(0.0010034 1.03526e-06 0)
(0.00100394 1.2077e-06 0)
(0.0010045 1.38837e-06 0)
(0.00100509 1.57615e-06 0)
(0.00100571 1.76993e-06 0)
(0.00100636 1.9687e-06 0)
(0.00100702 2.17151e-06 0)
(0.00100771 2.37754e-06 0)
(0.00100841 2.586e-06 0)
(0.00100913 2.79634e-06 0)
(0.00100986 3.00797e-06 0)
(0.00101059 3.22068e-06 0)
(0.00101134 3.43412e-06 0)
(0.00101208 3.64842e-06 0)
(0.00101283 3.86341e-06 0)
(0.00101358 4.07964e-06 0)
(0.00101432 4.29718e-06 0)
(0.00101506 4.51717e-06 0)
(0.00101578 4.7398e-06 0)
(0.00101649 4.96688e-06 0)
(0.00101718 5.19863e-06 0)
(0.00101785 5.4377e-06 0)
(0.0010185 5.68409e-06 0)
(0.00101911 5.94148e-06 0)
(0.0010197 6.2093e-06 0)
(0.00102025 6.49275e-06 0)
(0.00102077 6.79021e-06 0)
(0.00102123 7.10903e-06 0)
(0.00102166 7.44574e-06 0)
(0.00102202 7.81094e-06 0)
(0.00102233 8.19801e-06 0)
(0.00102258 8.62245e-06 0)
(0.00102276 9.07248e-06 0)
(0.00102286 9.57117e-06 0)
(0.00102288 1.00983e-05 0)
(0.00102281 1.06889e-05 0)
(0.00102265 1.13089e-05 0)
(0.00102238 1.20122e-05 0)
(0.00102201 1.27425e-05 0)
(0.0010215 1.35836e-05 0)
(0.00102088 1.4443e-05 0)
(0.00102009 1.54529e-05 0)
(0.00101917 1.64612e-05 0)
(0.00101805 1.7679e-05 0)
(0.00101679 1.88553e-05 0)
(0.00101528 2.03309e-05 0)
(0.00101358 2.16891e-05 0)
(0.00101162 2.34835e-05 0)
(0.001 -7.53442e-08 0)
(0.00100005 -2.06231e-07 0)
(0.00100015 -3.17147e-07 0)
(0.00100029 -4.08115e-07 0)
(0.00100049 -4.79355e-07 0)
(0.00100073 -5.31171e-07 0)
(0.00100102 -5.63932e-07 0)
(0.00100135 -5.78079e-07 0)
(0.00100173 -5.74139e-07 0)
(0.00100215 -5.52735e-07 0)
(0.00100261 -5.1443e-07 0)
(0.00100312 -4.59798e-07 0)
(0.00100366 -3.89588e-07 0)
(0.00100423 -3.04611e-07 0)
(0.00100484 -2.05755e-07 0)
(0.00100548 -9.38938e-08 0)
(0.00100615 3.00604e-08 0)
(0.00100684 1.65299e-07 0)
(0.00100756 3.11e-07 0)
(0.0010083 4.66532e-07 0)
(0.00100906 6.31227e-07 0)
(0.00100983 8.04707e-07 0)
(0.00101062 9.86448e-07 0)
(0.00101142 1.17636e-06 0)
(0.00101223 1.37409e-06 0)
(0.00101304 1.57998e-06 0)
(0.00101386 1.79399e-06 0)
(0.00101468 2.01697e-06 0)
(0.00101549 2.24899e-06 0)
(0.0010163 2.49152e-06 0)
(0.0010171 2.74468e-06 0)
(0.00101788 3.01074e-06 0)
(0.00101866 3.28977e-06 0)
(0.00101941 3.58528e-06 0)
(0.00102014 3.89691e-06 0)
(0.00102085 4.22951e-06 0)
(0.00102153 4.58178e-06 0)
(0.00102218 4.96067e-06 0)
(0.00102279 5.36337e-06 0)
(0.00102336 5.79989e-06 0)
(0.00102389 6.26466e-06 0)
(0.00102437 6.77213e-06 0)
(0.0010248 7.31227e-06 0)
(0.00102517 7.90644e-06 0)
(0.00102549 8.53729e-06 0)
(0.00102572 9.23684e-06 0)
(0.0010259 9.97597e-06 0)
(0.00102598 1.08032e-05 0)
(0.001026 1.16704e-05 0)
(0.0010259 1.26522e-05 0)
(0.00102573 1.36699e-05 0)
(0.00102543 1.48391e-05 0)
(0.00102504 1.60319e-05 0)
(0.00102449 1.74295e-05 0)
(0.00102384 1.88241e-05 0)
(0.00102301 2.05023e-05 0)
(0.00102206 2.21256e-05 0)
(0.0010209 2.4151e-05 0)
(0.00101955 2.60239e-05 0)
(0.00101798 2.84775e-05 0)
(0.001 -1.43672e-07 0)
(0.00100005 -4.11631e-07 0)
(0.00100016 -6.59511e-07 0)