/*--------------------------------*- C++ -*----------------------------------*\
| =========                 |                                                 |
| \\      /  F ield         | OpenFOAM: The Open Source CFD Toolbox           |
|  \\    /   O peration     | Version:  2312                                  |
|   \\  /    A nd           | Website:  www.openfoam.com                      |
|    \\/     M anipulation  |                                                 |
\*---------------------------------------------------------------------------*/
FoamFile
{
    version     2.0;
    format      ascii;
    arch        "LSB;label=32;scalar=64";
    class       volVectorField;
    location    "80000";
    object      U;
}
// * * * * * * * * * * * * * * * * * * * * * * * * * * * * * * * * * * * * * //

dimensions      [0 1 -1 0 0 0 0];

internalField   nonuniform List<vector> 
2715
(
(0.000267267 2.902e-05 9.89894e-25)
(0.000278312 -3.59839e-06 0)
(0.000243291 -2.67377e-06 0)
(0.000228046 -3.40969e-06 0)
(0.000220359 -3.42686e-06 -2.21768e-23)
(0.000225053 -4.28882e-06 2.17054e-23)
(0.000226944 -4.43104e-06 0)
(0.00024063 -5.34343e-06 5.39372e-25)
(0.000246913 -4.91327e-06 0)
(0.000266591 -5.52576e-06 0)
(0.000274233 -4.57117e-06 -1.42425e-25)
(0.000296929 -4.84828e-06 0)
(0.000303133 -3.2966e-06 -1.63415e-26)
(0.000325956 -3.21127e-06 0)
(0.000328097 -1.09138e-06 4.1727e-24)
(0.000348781 -5.52675e-07 -4.17318e-24)
(0.000345292 1.64161e-06 0)
(0.000362477 1.81245e-06 -1.40335e-25)
(0.000352885 3.56661e-06 0)
(0.000366129 3.3151e-06 0)
(0.000351099 5.49332e-06 0)
(0.000360102 3.95032e-06 0)
(0.000340819 7.22515e-06 1.08952e-24)
(0.000344975 4.44617e-06 0)
(0.000322537 7.07198e-06 -4.14451e-23)
(0.000321358 7.83668e-06 3.98822e-23)
(0.000296864 1.00789e-07 0)
(0.000277881 1.52939e-05 0)
(0.00029956 5.10562e-05 0)
(-6.69272e-05 -6.94634e-05 1.71527e-24)
(0.000530356 4.85006e-05 5.72794e-23)
(0.000582297 1.31711e-05 -6.06146e-23)
(0.000555672 1.59985e-05 1.59771e-24)
(0.000549534 8.53139e-06 0)
(0.000540768 3.13466e-06 0)
(0.000555101 -1.29129e-06 2.09664e-23)
(0.000555439 -2.5657e-06 -2.10246e-24)
(0.000584336 -5.8816e-06 -1.90368e-23)
(0.000590314 -5.67956e-06 -4.60652e-25)
(0.000630835 -8.53608e-06 0)
(0.000638953 -6.9836e-06 -3.26966e-24)
(0.000687082 -9.65831e-06 3.70818e-24)
(0.00069381 -6.81798e-06 9.39832e-27)
(0.000745083 -9.50108e-06 5.06217e-25)
(0.000747026 -5.45413e-06 1.24646e-23)
(0.000797262 -8.37938e-06 -1.44866e-23)
(0.000791877 -3.20888e-06 -2.56523e-24)
(0.000837626 -7.13586e-06 4.23739e-24)
(0.000824333 -2.22485e-07 -1.2099e-23)
(0.000863393 -5.57044e-06 1.28591e-23)
(0.000843674 3.49896e-06 0)
(0.000872094 -3.70588e-06 -1.00636e-24)
(0.000851348 7.26995e-06 3.54238e-23)
(0.000859674 -2.18795e-06 2.53284e-24)
(0.000852417 1.32399e-05 -3.72456e-23)
(0.00081279 -4.46169e-06 0)
(0.000865177 3.38619e-05 0)
(0.000673165 -3.4336e-05 2.75698e-24)
(0.000969893 0.000116441 9.91957e-23)
(0.000355236 -4.98623e-05 -1.02506e-22)
(0.000706398 4.80501e-05 3.86704e-24)
(0.000757229 1.93667e-06 -5.13615e-23)
(0.00074887 2.90698e-06 5.20118e-23)
(0.000758507 -2.70761e-06 3.07941e-24)
(0.000756337 -7.52633e-06 0)
(0.000779511 -1.43059e-05 0)
(0.000781174 -1.61355e-05 -1.21488e-24)
(0.000816011 -2.16235e-05 0)
(0.000822099 -2.11509e-05 -7.22191e-24)
(0.000868079 -2.62729e-05 1.53395e-24)
(0.000877225 -2.31865e-05 8.91738e-24)
(0.000930827 -2.78757e-05 -3.63927e-24)
(0.000940611 -2.17709e-05 0)
(0.000997253 -2.6316e-05 0)
(0.00100523 -1.70846e-05 2.25858e-23)
(0.00106011 -2.24494e-05 -2.26042e-23)
(0.00106486 -9.99823e-06 -2.31819e-25)
(0.0011135 -1.7272e-05 0)
(0.00111591 -8.59973e-07 1.23631e-23)
(0.00115305 -1.19178e-05 -2.65013e-23)
(0.00115704 9.4289e-06 -1.72017e-24)
(0.00117449 -8.57747e-06 1.47212e-23)
(0.00118968 2.25892e-05 0)
(0.00117277 -9.08324e-06 -2.38514e-24)
(0.00121936 4.22556e-05 0)
(0.00113691 -1.88845e-05 0)
(0.00125944 7.95931e-05 5.40126e-24)
(0.00104844 -4.43101e-05 -9.24587e-23)
(0.00132832 0.000131944 9.14071e-23)
(0.000947042 -3.59191e-05 6.40324e-24)
(0.000838734 3.4724e-05 5.44213e-23)
(0.000881013 -3.18235e-06 -1.12499e-22)
(0.000882447 -2.73646e-06 3.17926e-23)
(0.000897641 -7.01807e-06 2.25906e-23)
(0.000900403 -1.13227e-05 0)
(0.000925418 -2.00758e-05 2.70143e-24)
(0.000932238 -2.27091e-05 -1.19976e-24)
(0.000966025 -3.07925e-05 0)
(0.000977471 -3.02731e-05 9.47852e-25)
(0.00101889 -3.80871e-05 -5.1935e-24)
(0.00103468 -3.38688e-05 4.93845e-24)
(0.00108075 -4.14657e-05 0)
(0.00109969 -3.29315e-05 1.50767e-25)
(0.00114625 -4.08835e-05 4.37395e-25)
(0.00116706 -2.764e-05 3.26817e-23)
(0.00120945 -3.72117e-05 -3.49171e-23)
(0.00123183 -1.87393e-05 -2.45048e-24)
(0.00126525 -3.18377e-05 4.32147e-24)
(0.00129075 -7.39398e-06 0)
(0.00130974 -2.7108e-05 -1.52756e-23)
(0.00134262 6.23861e-06 1.43563e-23)
(0.00134016 -2.41474e-05 2.11411e-24)
(0.00138857 2.41912e-05 0)
(0.00135305 -2.38278e-05 -2.4411e-24)
(0.00143064 4.78958e-05 0)
(0.00134565 -2.72939e-05 -5.43564e-24)
(0.00147257 7.74809e-05 -5.1444e-23)
(0.00132069 -3.09564e-05 -4.06276e-23)
(0.00151676 9.53485e-05 1.86238e-22)
(0.00128958 7.56209e-06 -1.00804e-22)
(0.000942702 2.0671e-05 0)
(0.000974384 -8.85925e-06 4.72659e-23)
(0.000980601 -1.33841e-05 -8.40882e-23)
(0.000995397 -1.90739e-05 2.30005e-23)
(0.00100264 -2.38074e-05 0)
(0.00102601 -3.36508e-05 -2.77921e-24)
(0.00103831 -3.59663e-05 2.52022e-24)
(0.00106742 -4.50325e-05 0)
(0.00108459 -4.38446e-05 1.84259e-24)
(0.00111872 -5.29988e-05 0)
(0.00114104 -4.76869e-05 5.22273e-25)
(0.00117776 -5.68734e-05 0)
(0.00120437 -4.64637e-05 0)
(0.00124013 -5.62522e-05 0)
(0.00127004 -4.01618e-05 4.53851e-23)
(0.00130094 -5.19483e-05 -4.53895e-23)
(0.00133385 -2.96741e-05 0)
(0.00135604 -4.56335e-05 0)
(0.0013929 -1.62591e-05 0)
(0.00140268 -3.8944e-05 1.73872e-24)
(0.00144601 -3.09601e-07 0)
(0.00143931 -3.25515e-05 4.32306e-24)
(0.00149292 1.77785e-05 0)
(0.00146494 -2.73079e-05 5.03593e-24)
(0.00153385 3.84195e-05 0)
(0.00147977 -2.19134e-05 5.59039e-24)
(0.0015691 5.808e-05 -5.22502e-23)
(0.00148566 -9.35506e-06 1.34759e-22)
(0.00159954 6.06581e-05 -1.05203e-22)
(0.001479 2.77884e-05 0)
(0.00102426 5.82997e-06 5.15269e-23)
(0.00104682 -1.53691e-05 -1.15166e-22)
(0.00105623 -2.35349e-05 8.22658e-23)
(0.00106969 -2.98473e-05 -2.33528e-23)
(0.0010797 -3.36143e-05 -2.32577e-23)
(0.00109984 -4.36487e-05 2.07041e-23)
(0.00111532 -4.68729e-05 1.8923e-23)
(0.00114021 -5.67958e-05 -3.53909e-23)
(0.00116044 -5.64114e-05 1.45325e-23)
(0.0011894 -6.59284e-05 0)
(0.00121439 -6.12168e-05 -5.38433e-25)
(0.00124558 -7.02952e-05 2.69636e-25)
(0.00127425 -6.03513e-05 3.78994e-25)
(0.00130492 -6.94478e-05 3.40176e-25)
(0.00133601 -5.38767e-05 5.85349e-23)
(0.00136322 -6.4207e-05 -6.10628e-23)
(0.00139586 -4.29438e-05 -2.87091e-24)
(0.00141705 -5.62789e-05 4.66013e-24)
(0.00145114 -2.9089e-05 1.54381e-24)
(0.00146442 -4.71649e-05 -1.79251e-24)
(0.00150055 -1.35072e-05 0)
(0.00150446 -3.77031e-05 -4.14192e-23)
(0.00154352 2.96182e-06 7.65469e-23)
(0.00153695 -2.73233e-05 -3.95251e-23)
(0.00157954 1.94266e-05 -4.98227e-23)
(0.00156196 -1.39532e-05 4.40357e-23)
(0.00160842 3.23633e-05 5.33757e-23)
(0.00157911 6.36632e-06 -1.56693e-22)
(0.00163144 3.59305e-05 2.06782e-22)
(0.00158559 3.37369e-05 -1.09619e-22)
(0.00108637 -8.53037e-06 -5.20485e-23)
(0.00110236 -2.28325e-05 1.14656e-23)
(0.00111339 -3.30343e-05 5.72498e-23)
(0.00112581 -4.07194e-05 -6.55851e-24)
(0.00113731 -4.52906e-05 2.36804e-23)
(0.0011549 -5.49243e-05 -1.53831e-23)
(0.0011717 -5.941e-05 0)
(0.00119384 -6.8886e-05 0)
(0.00121488 -7.00548e-05 0)
(0.00124086 -7.84124e-05 1.43189e-24)
(0.00126573 -7.55173e-05 4.92101e-25)
(0.00129429 -8.26665e-05 -2.78292e-25)
(0.00132167 -7.49868e-05 0)
(0.00135068 -8.11813e-05 -1.42457e-25)
(0.00137898 -6.85961e-05 7.52085e-23)
(0.00140629 -7.47571e-05 -7.52149e-23)
(0.00143421 -5.7706e-05 5.46741e-25)
(0.00145811 -6.50534e-05 0)
(0.001485 -4.41399e-05 -1.59336e-24)
(0.00150447 -5.35475e-05 1.85713e-24)
(0.00153023 -2.94672e-05 4.1189e-24)
(0.00154471 -4.08488e-05 0)
(0.00156953 -1.46487e-05 0)
(0.00157851 -2.6362e-05 0)
(0.00160268 -6.61883e-07 6.22011e-23)
(0.00160528 -8.66311e-06 -4.51858e-23)
(0.0016299 1.10077e-05 0)
(0.00162399 1.29032e-05 -8.79166e-23)
(0.00165181 2.05169e-05 -2.59073e-24)
(0.00163418 3.34379e-05 1.13168e-22)
(0.00113074 -2.17094e-05 0)
(0.00114265 -3.15784e-05 -7.46651e-24)
(0.00115422 -4.23473e-05 2.74999e-23)
(0.00116614 -5.11497e-05 -2.10736e-23)
(0.00117849 -5.72123e-05 0)
(0.00119435 -6.6e-05 -5.84965e-24)
(0.00121157 -7.1989e-05 0)
(0.00123182 -8.03485e-05 0)
(0.00125285 -8.35953e-05 0)
(0.00127674 -9.00632e-05 3.36704e-24)
(0.00130088 -8.97155e-05 -8.27649e-24)
(0.00132748 -9.40419e-05 3.10253e-24)
(0.00135328 -8.96072e-05 -4.10905e-25)
(0.00138093 -9.18313e-05 1.47215e-25)
(0.0014066 -8.34676e-05 9.38511e-23)
(0.00143365 -8.42326e-05 -9.39659e-23)
(0.00145765 -7.28067e-05 -5.65e-25)
(0.00148296 -7.29128e-05 6.18278e-24)
(0.00150435 -5.96398e-05 -2.22101e-23)
(0.00152746 -5.94225e-05 2.86419e-23)
(0.00154582 -4.5626e-05 -2.04121e-23)
(0.00156667 -4.44443e-05 0)
(0.00158183 -3.16341e-05 0)
(0.00160044 -2.77747e-05 0)
(0.0016122 -1.80631e-05 -1.13858e-23)
(0.00162838 -8.90571e-06 0)
(0.00163666 -4.64815e-06 5.05158e-23)
(0.0016503 1.15876e-05 -4.99096e-23)
(0.00165452 9.7376e-06 -1.30169e-23)
(0.00166686 3.13332e-05 0)
(0.00115881 -3.366e-05 7.95525e-24)
(0.00116877 -4.14558e-05 5.95688e-23)
(0.00118036 -5.19978e-05 -3.20754e-23)
(0.00119207 -6.12909e-05 -1.99947e-24)
(0.00120497 -6.91021e-05 -2.69128e-23)
(0.00121983 -7.70876e-05 0)
(0.00123708 -8.45434e-05 1.96857e-23)
(0.00125602 -9.16199e-05 -3.24153e-24)
(0.00127687 -9.69091e-05 -1.49112e-23)
(0.00129908 -0.00010142 -4.72291e-24)
(0.00132271 -0.000103577 4.75156e-24)
(0.00134737 -0.000105067 2.21994e-25)
(0.00137235 -0.00010379 -9.32545e-26)
(0.00139802 -0.000102161 1.91377e-25)
(0.00142256 -9.78198e-05 1.14869e-22)
(0.00144782 -9.35535e-05 -1.14838e-22)
(0.0014704 -8.72626e-05 -6.15182e-25)
(0.00149438 -8.10121e-05 1.50515e-24)
(0.00151407 -7.42123e-05 1.73151e-24)
(0.00153649 -6.62506e-05 -1.68919e-23)
(0.00155293 -6.02796e-05 1.67898e-23)
(0.00157387 -5.01916e-05 4.54776e-23)
(0.00158694 -4.61147e-05 3.30005e-24)
(0.00160648 -3.29951e-05 -4.31713e-23)
(0.00161604 -3.15434e-05 0)
(0.00163412 -1.45562e-05 5.06062e-23)
(0.00163988 -1.58679e-05 2.24492e-24)
(0.00165654 4.68769e-06 5.55592e-23)
(0.00165787 1.396e-06 -1.05837e-22)
(0.00167378 2.44564e-05 1.37017e-23)
(0.0011722 -4.45224e-05 -7.2019e-23)
(0.00118181 -5.19859e-05 7.26267e-23)
(0.0011932 -6.22706e-05 -2.15506e-23)
(0.00120501 -7.15182e-05 4.96549e-23)
(0.00121826 -8.08203e-05 -2.76404e-23)
(0.00123285 -8.83247e-05 -1.67874e-23)
(0.00124993 -9.69395e-05 1.77048e-23)
(0.00126823 -0.000102981 0)
(0.00128877 -0.000109815 -3.76536e-24)
(0.00130998 -0.000112827 1.36471e-24)
(0.00133315 -0.000116856 0)
(0.00135638 -0.000116185 -9.5245e-26)
(0.00138091 -0.000117211 4.82185e-26)
(0.00140475 -0.000112713 2.25828e-26)
(0.00142898 -0.000111231 1.3947e-22)
(0.00145208 -0.000103354 -1.39404e-22)
(0.00147465 -0.000100572 -1.89969e-26)
(0.00149619 -9.00212e-05 -6.78814e-24)
(0.0015163 -8.73618e-05 6.79066e-24)
(0.00153611 -7.45816e-05 0)
(0.0015535 -7.31784e-05 4.63121e-24)
(0.0015718 -5.81067e-05 -1.0101e-23)
(0.00158633 -5.85886e-05 0)
(0.00160341 -4.08121e-05 -5.94613e-23)
(0.00161477 -4.33637e-05 5.95915e-23)
(0.00163091 -2.25055e-05 5.23709e-23)
(0.00163841 -2.71192e-05 -1.19127e-22)
(0.00165402 -2.96819e-06 5.34312e-23)
(0.00165675 -9.72735e-06 -9.94091e-23)
(0.00167279 1.87017e-05 8.33689e-23)
(0.00117316 -5.46473e-05 -6.57037e-23)
(0.00118338 -6.28388e-05 1.21608e-22)
(0.00119468 -7.31507e-05 -7.9444e-23)
(0.00120693 -8.21704e-05 4.26991e-23)
(0.0012204 -9.24206e-05 -2.84279e-23)
(0.00123537 -9.98198e-05 -6.23878e-24)
(0.00125227 -0.000109177 2.57792e-23)
(0.00127065 -0.000114662 -2.04402e-23)
(0.00129083 -0.000122364 1.91543e-24)
(0.00131189 -0.000124569 -1.41426e-24)
(0.00133458 -0.000129601 0)
(0.00135732 -0.000127736 -9.79546e-26)
(0.00138139 -0.000129919 -1.06355e-24)
(0.00140435 -0.000123856 1.34021e-24)
(0.00142834 -0.000123743 1.68526e-22)
(0.00145009 -0.000113995 -1.68333e-22)
(0.00147285 -0.000112792 6.0754e-24)
(0.00149251 -0.000100203 -5.33444e-25)
(0.0015135 -9.92464e-05 -7.16423e-24)
(0.00153085 -8.44612e-05 0)
(0.00155003 -8.47141e-05 -4.79932e-24)
(0.00156526 -6.79053e-05 5.23931e-24)
(0.00158267 -6.97886e-05 4.68456e-23)
(0.00159607 -5.07152e-05 -3.43769e-23)
(0.0016115 -5.42975e-05 -1.2653e-23)
(0.00162333 -3.25273e-05 5.42819e-23)
(0.00163616 -3.78611e-05 -2.6132e-23)
(0.00164681 -1.27829e-05 1.01164e-22)
(0.00165619 -2.01132e-05 -2.31548e-22)
(0.00166665 9.47928e-06 1.16005e-22)
(0.001165 -6.48254e-05 -5.04228e-23)
(0.00117611 -7.39525e-05 1.22116e-23)
(0.00118761 -8.45588e-05 7.40113e-23)
(0.00120055 -9.35178e-05 -1.50732e-23)
(0.00121434 -0.000104204 0)
(0.00123014 -0.000111773 6.29357e-24)
(0.00124708 -0.00012149 5.52011e-24)
(0.00126613 -0.00012689 2.14644e-23)
(0.00128615 -0.00013488 -1.06008e-23)
(0.00130784 -0.000136889 -5.15138e-24)
(0.00133019 -0.000142175 -1.82052e-24)
(0.00135345 -0.000139941 2.24555e-24)
(0.00137704 -0.000142322 -3.22873e-25)
(0.00140035 -0.000135759 -2.6427e-25)
(0.00142381 -0.000135819 2.01709e-22)
(0.00144568 -0.000125531 -2.02009e-22)
(0.00146804 -0.000124476 7.28994e-25)
(0.00148749 -0.000111418 -7.61489e-24)
(0.00150845 -0.000110568 -9.74312e-24)
(0.00152519 -9.5484e-05 1.72296e-23)
(0.00154499 -9.57895e-05 2.6181e-23)
(0.00155903 -7.88756e-05 2.46701e-23)
(0.0015781 -8.07973e-05 -3.34133e-23)
(0.00158947 -6.16996e-05 1.25018e-23)
(0.00160806 -6.54308e-05 1.31653e-23)
(0.00161656 -4.3431e-05 0)
(0.00163472 -4.92246e-05 -2.85087e-23)
(0.00163997 -2.33517e-05 -1.05223e-22)
(0.00165778 -3.17e-05 -4.46883e-24)
(0.0016596 -4.97012e-07 1.36099e-22)
(0.00115167 -7.58225e-05 3.41268e-23)
(0.00116362 -8.56494e-05 -7.99432e-23)
(0.00117564 -9.65901e-05 -8.24535e-24)
(0.00118945 -0.000105746 7.79091e-24)
(0.00120386 -0.000116568 0)
(0.00122069 -0.00012448 -6.52877e-24)
(0.00123813 -0.000134299 -5.72916e-24)
(0.0012582 -0.000139944 -4.81462e-24)
(0.00127855 -0.000147863 6.24113e-24)
(0.00130135 -0.000150055 -7.62853e-24)
(0.00132384 -0.000155124 0)
(0.00134824 -0.000153007 -7.10457e-25)
(0.00137165 -0.000154996 5.84988e-25)
(0.00139612 -0.000148537 -3.37914e-25)
(0.00141906 -0.000148057 2.40712e-22)
(0.0014421 -0.000137951 -2.40723e-22)
(0.00146361 -0.000136234 8.11195e-25)
(0.0014843 -0.000123524 8.08949e-24)
(0.00150416 -0.000121922 -3.7003e-24)
(0.0015222 -0.0001074 0)
(0.00154082 -0.000106909 1.68568e-23)
(0.00155624 -9.07497e-05 -2.19334e-23)
(0.00157425 -9.19021e-05 -1.22317e-23)
(0.001587 -7.36345e-05 -1.29751e-23)
(0.00160491 -7.67261e-05 -1.36571e-23)
(0.00161466 -5.54127e-05 0)
(0.00163274 -6.08418e-05 1.47935e-23)
(0.00163898 -3.52323e-05 -1.53072e-23)
(0.00165744 -4.3731e-05 1.12023e-22)
(0.00165991 -1.20258e-05 -1.57893e-22)
(0.0011381 -8.82648e-05 -3.53166e-23)
(0.0011506 -9.84438e-05 1.52329e-22)
(0.00116329 -0.0001096 -6.20475e-23)
(0.00117799 -0.000119148 3.05367e-23)
(0.00119326 -0.000130003 -3.0975e-23)
(0.00121115 -0.000138366 6.54788e-24)
(0.0012295 -0.000148149 -5.65436e-24)
(0.00125074 -0.00015421 1.66861e-23)
(0.00127197 -0.00016187 -2.03726e-23)
(0.00129601 -0.000164404 -3.5602e-24)
(0.00131924 -0.000168999 2.65062e-24)
(0.00134488 -0.000167174 8.42186e-26)
(0.00136868 -0.00016847 -1.37283e-24)
(0.00139436 -0.000162304 2.62616e-24)
(0.0014172 -0.000160952 2.86584e-22)
(0.00144147 -0.000151233 -2.86596e-22)
(0.00146229 -0.00014852 6.6347e-24)
(0.00148435 -0.000136373 1.17099e-24)
(0.00150293 -0.000133697 -3.25193e-23)
(0.00152262 -0.000119977 -2.11268e-24)
(0.00153943 -0.000118368 1.56288e-23)
(0.00155687 -0.000103273 3.78497e-23)
(0.0015727 -0.000103282 -4.94096e-23)
(0.00158784 -8.63249e-05 -1.35981e-23)
(0.00160347 -8.82308e-05 1.42809e-23)
(0.0016158 -6.84249e-05 4.613e-23)
(0.00163195 -7.25766e-05 -6.01559e-23)
(0.00164048 -4.86257e-05 1.45859e-22)
(0.00165805 -5.56818e-05 -2.4487e-22)
(0.0016617 -2.58116e-05 1.97837e-22)
(0.00112813 -0.000102413 -3.87155e-23)
(0.00114098 -0.00011277 -5.33332e-23)
(0.00115432 -0.000124012 1.06965e-22)
(0.00116987 -0.000134065 -3.44181e-23)
(0.00118606 -0.000144967 0)
(0.00120503 -0.000153865 -1.34757e-23)
(0.00122448 -0.000163539 2.68276e-23)
(0.00124694 -0.000170072 -2.11909e-23)
(0.00126932 -0.000177351 3.66439e-24)
(0.00129458 -0.000180244 3.12861e-24)
(0.00131882 -0.000184187 -3.15335e-24)
(0.00134552 -0.000182638 0)
(0.00137 -0.000183044 0)
(0.00139649 -0.000177127 0)
(0.00141952 -0.000174721 3.41284e-22)
(0.00144442 -0.000165318 -3.4138e-22)
(0.00146484 -0.000161475 0)
(0.00148752 -0.000149801 -2.2018e-24)
(0.00150503 -0.000145985 0)
(0.00152562 -0.000132963 2.2652e-23)
(0.00154059 -0.000130243 -1.66325e-23)
(0.0015596 -0.000116118 1.25704e-23)
(0.00157268 -0.000115052 5.56127e-23)
(0.00159044 -9.9346e-05 -4.08028e-23)
(0.0016023 -0.000100195 -2.97766e-23)
(0.00161867 -8.18655e-05 1.54818e-23)
(0.00162993 -8.49665e-05 6.58499e-23)
(0.00164413 -6.25594e-05 -2.0042e-22)
(0.00165564 -6.86583e-05 1.67554e-22)
(0.0016666 -4.01189e-05 -6.96907e-23)
(0.00112451 -0.000118438 -5.7942e-23)
(0.00113753 -0.000129005 1.53776e-22)
(0.00115124 -0.000140282 -8.47788e-23)
(0.00116748 -0.000150872 3.22472e-23)
(0.00118441 -0.000161854 -6.17643e-23)
(0.00120439 -0.000171307 1.79136e-23)
(0.00122475 -0.000180811 4.65981e-24)
(0.00124837 -0.000187766 3.72759e-23)
(0.00127167 -0.00019453 -1.62735e-23)
(0.001298 -0.00019769 9.17384e-25)
(0.00132298 -0.000200789 3.75529e-25)
(0.00135044 -0.000199397 -2.07888e-24)
(0.00137533 -0.0001987 -1.50653e-24)
(0.00140211 -0.000192905 4.27716e-24)
(0.00142518 -0.000189251 4.06028e-22)
(0.00144989 -0.00018004 -4.06038e-22)
(0.00147001 -0.00017493 6.68302e-24)
(0.00149216 -0.000163607 3.51268e-24)
(0.00150906 -0.000158593 -3.19756e-23)
(0.00152905 -0.000146154 2.19288e-23)
(0.00154305 -0.000142344 0)
(0.00156177 -0.000129101 5.52796e-23)
(0.00157339 -0.000127027 -1.13102e-22)
(0.0015917 -0.000112581 1.12964e-23)
(0.00160134 -0.000112394 2.76448e-23)
(0.0016197 -9.57868e-05 1.29644e-22)
(0.00162758 -9.76186e-05 -4.86778e-23)
(0.00164591 -7.74767e-05 1.24266e-22)
(0.00165231 -8.18196e-05 -2.84301e-22)
(0.00167016 -5.61869e-05 1.79017e-22)
(0.00112653 -0.000136038 0)
(0.00113963 -0.00014705 -2.00237e-23)
(0.00115345 -0.000158448 9.47177e-24)
(0.00117016 -0.000169569 3.31248e-23)
(0.00118752 -0.000180671 -3.36675e-23)
(0.00120834 -0.000190623 -3.25216e-23)
(0.00122926 -0.00019991 2.58227e-23)
(0.00125384 -0.000207143 0)
(0.00127755 -0.000213265 -1.90851e-24)
(0.00130475 -0.000216509 4.0032e-24)
(0.0013298 -0.000218578 4.47122e-26)
(0.00135782 -0.000217161 3.09378e-24)
(0.00138236 -0.000215146 -2.25342e-24)
(0.00140926 -0.000209334 -1.10018e-24)
(0.00143163 -0.000204225 4.84413e-22)
(0.00145596 -0.000195124 -4.84422e-22)
(0.00147523 -0.000188579 -1.08511e-25)
(0.00149654 -0.000177571 -1.07679e-23)
(0.00151264 -0.000171272 4.96365e-24)
(0.00153145 -0.000159374 -6.24547e-24)
(0.00154488 -0.000154521 -2.75524e-23)
(0.00156228 -0.000142043 4.15106e-23)
(0.00157355 -0.000139217 0)
(0.0015908 -0.000125759 -8.00753e-23)
(0.00160009 -0.00012508 4.72535e-23)
(0.00161828 -0.000109704 6.9633e-23)
(0.00162534 -0.000111143 -8.60435e-23)
(0.00164511 -9.2542e-05 1.80602e-23)
(0.00164956 -9.6299e-05 -3.71036e-23)
(0.0016711 -7.26784e-05 0)
(0.00112931 -0.000154832 -8.42887e-23)
(0.00114277 -0.000166634 1.451e-22)
(0.00115682 -0.00017838 -1.00898e-22)
(0.00117399 -0.000189992 0)
(0.0011918 -0.000201239 -3.00955e-23)
(0.00121333 -0.000211524 2.36803e-23)
(0.00123467 -0.000220562 5.63516e-24)
(0.00125999 -0.000227832 1.46795e-23)
(0.00128381 -0.00023323 -1.53254e-23)
(0.00131163 -0.000236281 0)
(0.00133631 -0.000237212 -4.69086e-26)
(0.00136478 -0.000235523 -3.80007e-24)
(0.00138841 -0.000232069 -2.69084e-24)
(0.00141558 -0.000226085 3.16837e-24)
(0.00143659 -0.000219385 5.79561e-22)
(0.00146101 -0.000210371 -5.79568e-22)
(0.0014787 -0.000202225 1.54628e-23)
(0.0014999 -0.00019165 4.08742e-24)
(0.00151454 -0.000183856 -5.62304e-24)
(0.00153294 -0.000172737 6.55214e-24)
(0.00154539 -0.000166606 0)
(0.00156197 -0.000155181 6.23279e-23)
(0.00157304 -0.000151425 -6.13227e-23)
(0.00158903 -0.000139179 0)
(0.00159898 -0.000138029 -8.77896e-23)
(0.0016158 -0.000123896 6.9424e-23)
(0.00162393 -0.000125332 0)
(0.00164314 -0.000107943 1.16999e-22)
(0.00164781 -0.00011198 -3.49759e-22)
(0.0016711 -8.96714e-05 1.55848e-22)
(0.00112908 -0.000175001 -8.79475e-23)
(0.00114302 -0.000187741 1.1139e-22)
(0.00115757 -0.000199994 2.03574e-23)
(0.00117519 -0.000211964 3.485e-23)
(0.00119364 -0.000223309 -3.54794e-23)
(0.00121574 -0.000233662 7.23474e-24)
(0.00123768 -0.000242423 -5.91091e-24)
(0.00126352 -0.000249435 0)
(0.00128769 -0.000254123 -2.8198e-24)
(0.00131595 -0.000256663 -2.31925e-25)
(0.00134056 -0.00025651 3.8148e-24)
(0.00136946 -0.000254246 -5.96056e-24)
(0.00139247 -0.000249449 3.56596e-24)
(0.00142016 -0.000243056 1.51405e-24)
(0.00143992 -0.000234861 6.96416e-22)
(0.0014651 -0.000225807 -6.96513e-22)
(0.00148097 -0.000216082 -2.67189e-24)
(0.00150322 -0.00020597 1.29788e-23)
(0.00151565 -0.000196547 -4.7412e-23)
(0.00153527 -0.00018644 2.76152e-23)
(0.0015455 -0.00017869 -7.73234e-24)
(0.00156308 -0.000168775 -1.59314e-23)
(0.00157254 -0.000163557 0)
(0.0015887 -0.000153142 0)
(0.00159846 -0.000150952 1.80684e-23)
(0.0016139 -0.000138646 7.66706e-23)
(0.00162396 -0.000139777 -7.53096e-23)
(0.00163985 -0.000123837 3.95904e-23)
(0.00164846 -0.000128495 -1.25544e-22)
(0.00166696 -0.000107189 1.62904e-22)
(0.00111946 -0.000196064 -1.15854e-22)
(0.00113466 -0.000209715 7.14041e-23)
(0.00115073 -0.00022266 0)
(0.00116953 -0.000235016 0)
(0.00118954 -0.000246548 -3.06445e-23)
(0.00121273 -0.00025687 3.11957e-23)
(0.00123626 -0.000265448 1.86402e-23)
(0.00126303 -0.000272048 -2.24241e-23)
(0.00128866 -0.000276158 0)
(0.00131764 -0.000277956 8.95581e-26)
(0.00134339 -0.000276902 5.61076e-24)
(0.00137283 -0.000273754 -7.35787e-24)
(0.00139645 -0.000267857 2.88558e-24)
(0.00142461 -0.000260683 0)
(0.00144422 -0.000251275 8.40043e-22)
(0.00147008 -0.000241781 -8.40133e-22)
(0.00148479 -0.000230731 0)
(0.00150829 -0.000220723 -6.79009e-24)
(0.00151836 -0.000209788 -2.32422e-23)
(0.00154007 -0.000200517 3.81429e-23)
(0.00154668 -0.000190984 1.65224e-23)
(0.00156724 -0.000182781 0)
(0.00157208 -0.000175507 5.54981e-23)
(0.00159165 -0.000167669 -7.24847e-23)
(0.00159673 -0.000163351 -7.84359e-23)
(0.00161475 -0.000154132 7.70487e-23)
(0.00162174 -0.000153627 0)
(0.00163726 -0.000140444 0)
(0.00164623 -0.000144937 -2.16207e-22)
(0.00165899 -0.000124971 1.26835e-22)
(0.0011058 -0.000220975 5.00381e-23)
(0.00112272 -0.000235185 2.36027e-23)
(0.00114103 -0.000248683 1.07209e-23)
(0.00116172 -0.00026135 -9.54961e-24)
(0.00118417 -0.000273023 8.16703e-24)
(0.00120917 -0.000283181 -1.74493e-23)
(0.00123522 -0.000291481 2.44538e-23)
(0.00126349 -0.00029745 8.29658e-25)
(0.00129153 -0.000300882 -2.61311e-25)
(0.00132147 -0.000301622 2.62146e-24)
(0.00134932 -0.000299597 -3.71236e-24)
(0.00137901 -0.000295137 -6.04222e-24)
(0.00140425 -0.000288158 -1.68001e-24)
(0.00143202 -0.000279653 8.07994e-24)
(0.0014526 -0.000269198 1.01853e-21)
(0.00147773 -0.000258583 -1.01851e-21)
(0.00149256 -0.000246534 1.45447e-23)
(0.0015155 -0.000235824 1.04123e-24)
(0.00152442 -0.00022381 -1.56269e-23)
(0.00154651 -0.00021454 -4.37229e-23)
(0.00155004 -0.000203634 7.20325e-23)
(0.00157279 -0.000196548 -5.52594e-23)
(0.00157194 -0.000187297 -3.54388e-25)
(0.00159617 -0.000182114 -8.0988e-23)
(0.00159258 -0.0001749 9.99884e-23)
(0.0016174 -0.000170062 2.084e-23)
(0.00161349 -0.000165786 0)
(0.00163526 -0.00015815 2.16934e-23)
(0.00163361 -0.000159015 4.45165e-23)
(0.00164598 -0.00014389 9.04936e-23)
(0.00110084 -0.0002513 -2.62599e-23)
(0.00111891 -0.000265832 0)
(0.00113892 -0.00027966 3.02943e-23)
(0.00116124 -0.000292488 -3.24363e-23)
(0.00118577 -0.000304081 -1.65881e-23)
(0.00121242 -0.000313837 -2.92755e-23)
(0.00124064 -0.000321501 4.11773e-23)
(0.00127025 -0.000326494 -1.34632e-23)
(0.00130031 -0.000328814 8.45341e-25)
(0.00133086 -0.000328098 -5.5824e-24)
(0.00136042 -0.000324673 1.47221e-23)
(0.00138976 -0.000318471 -3.31454e-24)
(0.00141637 -0.000310083 -2.20082e-23)
(0.00144275 -0.000299791 9.86446e-24)
(0.00146452 -0.000288174 1.24462e-21)
(0.00148734 -0.000275904 -1.24458e-21)
(0.00150326 -0.000263045 1.64898e-23)
(0.00152334 -0.000250894 -2.55013e-23)
(0.00153305 -0.000238342 -2.90461e-23)
(0.00155233 -0.000227986 8.54905e-23)
(0.00155557 -0.000216636 -4.81079e-23)
(0.00157671 -0.000209254 2.00157e-23)
(0.0015729 -0.000199235 8.43326e-23)
(0.00159845 -0.000195244 -1.48498e-22)
(0.00158653 -0.000186032 6.34103e-23)
(0.00161746 -0.000184848 -4.40515e-23)
(0.00159652 -0.00017613 9.142e-23)
(0.00162923 -0.000175461 -1.12269e-22)
(0.00160009 -0.000168738 0)
(0.00162228 -0.000163158 -4.73332e-23)
(0.00109724 -0.000286242 -2.72072e-23)
(0.00111691 -0.000301219 1.24472e-23)
(0.0011388 -0.000315296 -1.10598e-23)
(0.00116306 -0.000328134 0)
(0.00118968 -0.00033937 -1.947e-23)
(0.00121823 -0.000348435 2.85046e-23)
(0.0012484 -0.00035502 -4.36946e-24)
(0.00127949 -0.000358653 2.05359e-24)
(0.00131112 -0.000359328 0)
(0.00134244 -0.000356782 0)
(0.0013731 -0.000351418 2.71248e-24)
(0.00140225 -0.000343189 9.82488e-24)
(0.00142961 -0.000332917 -7.34454e-24)
(0.00145474 -0.000320679 0)
(0.00147722 -0.000307567 1.53429e-21)
(0.00149771 -0.000293582 -1.53432e-21)
(0.00151478 -0.000279788 0)
(0.00153137 -0.000266058 -2.47083e-23)
(0.00154297 -0.000253101 1.92348e-23)
(0.00155737 -0.000241101 -1.03465e-23)
(0.00156296 -0.000229844 0)
(0.00157781 -0.000220817 0)
(0.00157549 -0.000211298 2.23474e-23)
(0.00159419 -0.00020604 -2.27125e-23)
(0.00157907 -0.000196879 -9.41219e-23)
(0.00160494 -0.000195828 1.15491e-22)
(0.00156794 -0.000184649 0)
(0.00160248 -0.000187961 -2.37662e-23)
(0.00153159 -0.000172469 2.39945e-23)
(0.00156903 -0.000178381 -4.82554e-23)
(0.00108785 -0.000325198 1.46581e-23)
(0.00111023 -0.000340856 -1.31571e-23)
(0.00113504 -0.000355301 1.17075e-23)
(0.00116232 -0.000368085 -3.36355e-23)
(0.00119185 -0.000378758 3.44451e-23)
(0.00122318 -0.000386835 1.5029e-23)
(0.00125583 -0.000391955 -1.53525e-23)
(0.00128914 -0.000393828 1.37827e-24)
(0.00132257 -0.000392395 0)
(0.00135532 -0.000387641 0)
(0.00138697 -0.000379874 0)
(0.00141663 -0.000369348 1.26162e-23)
(0.00144423 -0.000356754 -1.27225e-23)
(0.00146894 -0.00034247 0)
(0.00149126 -0.000327442 1.90465e-21)
(0.00151042 -0.000311843 -1.90442e-21)
(0.00152746 -0.000296688 0)
(0.00154157 -0.000281625 -2.29186e-23)
(0.00155368 -0.000267766 3.40057e-23)
(0.0015634 -0.00025424 0)
(0.00156999 -0.000242447 0)
(0.00157591 -0.000231262 0)
(0.00157454 -0.00022187 -2.52485e-23)
(0.0015776 -0.000213441 1.00734e-22)
(0.00156115 -0.000205058 -9.86097e-23)
(0.00156273 -0.000199619 -1.01121e-22)
(0.00151498 -0.000188969 9.87447e-23)
(0.00152068 -0.000188508 2.51565e-23)
(0.00141092 -0.000168711 -2.5362e-23)
(0.00143878 -0.000179732 2.61166e-23)
(0.00107722 -0.000373986 1.24401e-22)
(0.00110322 -0.00038926 -1.12562e-22)
(0.00113195 -0.000403287 0)
(0.00116313 -0.000415339 0)
(0.00119635 -0.00042478 -1.94296e-23)
(0.00123112 -0.000431159 1.77718e-23)
(0.00126679 -0.00043415 0)
(0.00130272 -0.000433589 -1.47558e-24)
(0.00133819 -0.000429436 0)
(0.00137258 -0.000421843 0)
(0.00140517 -0.000411103 6.9825e-24)
(0.00143544 -0.000397708 0)
(0.0014629 -0.000382255 -1.39689e-23)
(0.00148726 -0.000365433 1.89437e-23)
(0.00150848 -0.000347942 2.394e-21)
(0.00152645 -0.000330347 -2.3939e-21)
(0.00154157 -0.000313195 2.56159e-23)
(0.0015534 -0.000296612 -3.22601e-23)
(0.00156254 -0.000280987 0)
(0.00156744 -0.000265922 -1.41187e-23)
(0.00156884 -0.000252122 0)
(0.00156391 -0.000238637 -1.41603e-23)
(0.00155348 -0.000226944 2.70288e-23)
(0.00153452 -0.00021468 0)
(0.00150439 -0.00020433 -1.09003e-22)
(0.00146594 -0.000192447 1.06389e-22)
(0.00139968 -0.000181745 0)
(0.00134259 -0.00017071 0)
(0.00120494 -0.000153805 2.10836e-22)
(0.00117073 -0.000155087 -1.78904e-22)
(0.00106736 -0.000434098 0)
(0.00109729 -0.000450727 0)
(0.00113023 -0.000464858 0)
(0.001166 -0.000475841 0)
(0.00120384 -0.000483222 0)
(0.00124285 -0.000486708 2.28919e-24)
(0.00128222 -0.000486185 0)
(0.00132126 -0.000481658 -2.36759e-23)
(0.00135918 -0.000473253 9.63129e-24)
(0.00139532 -0.000461267 5.40628e-23)
(0.0014289 -0.000446158 -7.51158e-23)
(0.0014594 -0.000428567 3.72799e-23)
(0.00148622 -0.000409189 -5.26024e-24)
(0.00150925 -0.000388775 0)
(0.00152809 -0.000367955 3.0413e-21)
(0.00154292 -0.000347295 -3.03906e-21)
(0.00155336 -0.000327168 0)
(0.00155938 -0.000307836 7.364e-24)
(0.00156005 -0.000289293 6.31231e-23)
(0.00155443 -0.000271489 -1.10555e-22)
(0.00154079 -0.000254245 1.25869e-22)
(0.00151685 -0.000237331 6.24793e-23)
(0.00148084 -0.000220509 -1.54507e-22)
(0.00142921 -0.000203222 0)
(0.00136164 -0.000186693 0)
(0.00127257 -0.000169293 0)
(0.00116259 -0.0001531 0)
(0.0010303 -0.000132805 0)
(0.000864453 -0.000119187 0)
(0.00073167 -0.000100704 0)
(0.00105796 -0.000500949 1.25025e-23)
(0.00109597 -0.000513921 0)
(0.00113777 -0.000525835 0)
(0.00118117 -0.000534534 9.60663e-24)
(0.00122497 -0.000539011 -1.62661e-23)
(0.00126853 -0.000538988 2.54379e-23)
(0.00131135 -0.000534535 -2.14899e-23)
(0.00135278 -0.00052582 -9.32343e-24)
(0.0013921 -0.00051314 0)
(0.00142846 -0.000496908 -1.19048e-23)
(0.00146108 -0.000477724 0)
(0.00148932 -0.000456295 0)
(0.0015126 -0.000433355 0)
(0.00153059 -0.00040956 0)
(0.00154273 -0.000385297 3.93613e-21)
(0.00154863 -0.000360842 -3.93779e-21)
(0.0015472 -0.00033638 0)
(0.00153757 -0.000311928 0)
(0.00151789 -0.000287681 0)
(0.00148671 -0.000263952 0)
(0.0014417 -0.000241332 1.87031e-23)
(0.00138068 -0.000218912 1.74269e-23)
(0.00129992 -0.000195092 3.41846e-23)
(0.00119732 -0.000170108 -1.35134e-22)
(0.00107096 -0.000146442 2.62144e-22)
(0.000920969 -0.000123804 -6.52042e-25)
(0.00075209 -9.87147e-05 -1.53416e-22)
(0.000567058 -7.52431e-05 0)