/*--------------------------------*- C++ -*----------------------------------*\
| =========                 |                                                 |
| \\      /  F ield         | OpenFOAM: The Open Source CFD Toolbox           |
|  \\    /   O peration     | Version:  2312                                  |
|   \\  /    A nd           | Website:  www.openfoam.com                      |
|    \\/     M anipulation  |                                                 |
\*---------------------------------------------------------------------------*/
FoamFile
{
    version     2.0;
    format      ascii;
    arch        "LSB;label=32;scalar=64";
    class       volScalarField;
    location    "155000";
    object      p;
}
// * * * * * * * * * * * * * * * * * * * * * * * * * * * * * * * * * * * * * //

dimensions      [0 2 -2 0 0 0 0];

internalField   nonuniform List<scalar> 
2685
(
-2.22469e-08
-4.35134e-08
-4.34056e-08
-4.01564e-08
-3.81026e-08
-3.68954e-08
-3.56786e-08
-3.40014e-08
-3.18331e-08
-2.93375e-08
-2.67974e-08
-2.45033e-08
-2.2688e-08
-2.15293e-08
-2.11883e-08
-2.18498e-08
-2.37336e-08
-2.70732e-08
-3.20896e-08
-3.89747e-08
-4.78396e-08
-5.86234e-08
-7.10378e-08
-8.4579e-08
-9.86395e-08
-1.12637e-07
-1.26014e-07
-1.38341e-07
-1.4966e-07
-1.60016e-07
-1.69467e-07
-1.78099e-07
-1.86021e-07
-1.93354e-07
-2.00222e-07
-2.06742e-07
-2.12975e-07
-2.18925e-07
-2.24586e-07
-2.29714e-07
-2.34103e-07
-2.3759e-07
-2.40041e-07
-2.41359e-07
-2.4148e-07
-2.4037e-07
-2.38024e-07
-2.34463e-07
-2.29924e-07
-2.24448e-07
-2.18135e-07
-2.11098e-07
-2.03441e-07
-1.95248e-07
-1.86656e-07
-1.7776e-07
-1.68628e-07
-1.59317e-07
-1.49882e-07
-1.40371e-07
-1.30826e-07
-1.21283e-07
-1.1178e-07
-1.02359e-07
-9.30799e-08
-8.39788e-08
-7.50901e-08
-6.64643e-08
-5.81247e-08
-5.01943e-08
-4.26978e-08
-3.56763e-08
-2.91612e-08
-2.31723e-08
-1.77189e-08
-1.28042e-08
-8.42304e-09
-4.57181e-09
-1.25371e-09
1.52406e-09
3.75767e-09
5.45514e-09
6.64123e-09
7.35659e-09
7.62089e-09
7.48308e-09
6.97243e-09
6.11423e-09
4.92826e-09
3.42897e-09
-8.57541e-08
-7.25714e-08
-6.57595e-08
-6.07162e-08
-5.57496e-08
-5.09052e-08
-4.65432e-08
-4.27683e-08
-3.94483e-08
-3.64865e-08
-3.39432e-08
-3.19137e-08
-3.04843e-08
-2.97695e-08
-2.99286e-08
-3.11533e-08
-3.36501e-08
-3.76107e-08
-4.32251e-08
-5.06674e-08
-6.00726e-08
-7.1256e-08
-8.36521e-08
-9.64702e-08
-1.08825e-07
-1.20074e-07
-1.29942e-07
-1.3843e-07
-1.45791e-07
-1.52791e-07
-1.59938e-07
-1.67516e-07
-1.75629e-07
-1.84191e-07
-1.93003e-07
-2.01838e-07
-2.10462e-07
-2.18634e-07
-2.26067e-07
-2.32604e-07
-2.38055e-07
-2.42276e-07
-2.4518e-07
-2.46723e-07
-2.46893e-07
-2.45705e-07
-2.43208e-07
-2.39501e-07
-2.3456e-07
-2.28577e-07
-2.21687e-07
-2.14018e-07
-2.05706e-07
-1.96888e-07
-1.87777e-07
-1.78413e-07
-1.68872e-07
-1.59208e-07
-1.4948e-07
-1.39747e-07
-1.3006e-07
-1.20459e-07
-1.10976e-07
-1.01646e-07
-9.24954e-08
-8.35573e-08
-7.48183e-08
-6.63491e-08
-5.82262e-08
-5.05117e-08
-4.32556e-08
-3.64942e-08
-3.02474e-08
-2.4516e-08
-1.92744e-08
-1.4465e-08
-1.00248e-08
-5.92225e-09
-2.18232e-09
1.12133e-09
3.90337e-09
6.10492e-09
7.7056e-09
8.88104e-09
9.61218e-09
9.85589e-09
9.69084e-09
9.13445e-09
8.19106e-09
6.86051e-09
-9.63801e-08
-8.21434e-08
-7.3567e-08
-6.83219e-08
-6.44818e-08
-6.10606e-08
-5.77567e-08
-5.43825e-08
-5.11572e-08
-4.85266e-08
-4.67389e-08
-4.57796e-08
-4.55722e-08
-4.61278e-08
-4.75359e-08
-4.99045e-08
-5.33247e-08
-5.78848e-08
-6.36421e-08
-7.05e-08
-7.81955e-08
-8.65835e-08
-9.55601e-08
-1.04924e-07
-1.14397e-07
-1.23762e-07
-1.32894e-07
-1.41748e-07
-1.50352e-07
-1.58868e-07
-1.6764e-07
-1.76646e-07
-1.85608e-07
-1.94184e-07
-2.02185e-07
-2.0967e-07
-2.1678e-07
-2.23557e-07
-2.29912e-07
-2.35699e-07
-2.40752e-07
-2.44886e-07
-2.47933e-07
-2.49762e-07
-2.50275e-07
-2.49406e-07
-2.47128e-07
-2.43473e-07
-2.3853e-07
-2.32445e-07
-2.25375e-07
-2.17467e-07
-2.08868e-07
-1.9978e-07
-1.90286e-07
-1.80552e-07
-1.70683e-07
-1.60682e-07
-1.50632e-07
-1.4059e-07
-1.30599e-07
-1.20691e-07
-1.10877e-07
-1.01179e-07
-9.16306e-08
-8.22389e-08
-7.3017e-08
-6.39838e-08
-5.52463e-08
-4.68492e-08
-3.88603e-08
-3.13421e-08
-2.43478e-08
-1.79074e-08
-1.19873e-08
-6.83267e-09
-2.27189e-09
1.72565e-09
5.13797e-09
7.91957e-09
1.00155e-08
1.14017e-08
1.2135e-08
1.22091e-08
1.19034e-08
1.12584e-08
1.02829e-08
9.03335e-09
7.54358e-09
5.83563e-09
-1.20084e-07
-1.08959e-07
-9.90729e-08
-9.06372e-08
-8.36475e-08
-7.78963e-08
-7.31179e-08
-6.93208e-08
-6.66171e-08
-6.49368e-08
-6.41647e-08
-6.41342e-08
-6.48828e-08
-6.65546e-08
-6.92313e-08
-7.28923e-08
-7.74735e-08
-8.29156e-08
-8.91761e-08
-9.61752e-08
-1.0378e-07
-1.1187e-07
-1.20369e-07
-1.29167e-07
-1.38078e-07
-1.46903e-07
-1.55486e-07
-1.63742e-07
-1.71645e-07
-1.79224e-07
-1.86539e-07
-1.93551e-07
-2.00074e-07
-2.06101e-07
-2.11803e-07
-2.17345e-07
-2.22779e-07
-2.28034e-07
-2.32957e-07
-2.37374e-07
-2.41123e-07
-2.4404e-07
-2.45958e-07
-2.46751e-07
-2.46358e-07
-2.44751e-07
-2.41929e-07
-2.37914e-07
-2.32763e-07
-2.2656e-07
-2.19424e-07
-2.11489e-07
-2.02879e-07
-1.93709e-07
-1.84088e-07
-1.74178e-07
-1.64065e-07
-1.53863e-07
-1.43631e-07
-1.33547e-07
-1.23595e-07
-1.13804e-07
-1.04222e-07
-9.48944e-08
-8.58656e-08
-7.71512e-08
-6.87514e-08
-6.07195e-08
-5.31207e-08
-4.59944e-08
-3.93528e-08
-3.31923e-08
-2.75185e-08
-2.23245e-08
-1.76711e-08
-1.29952e-08
-8.67913e-09
-4.65005e-09
-8.625e-10
2.61131e-09
5.65063e-09
8.15242e-09
1.01005e-08
1.15946e-08
1.26385e-08
1.33757e-08
1.37665e-08
1.37658e-08
1.3355e-08
1.25117e-08
-1.22907e-07
-1.1227e-07
-1.02699e-07
-9.44966e-08
-8.78767e-08
-8.28331e-08
-7.91741e-08
-7.67843e-08
-7.55255e-08
-7.52506e-08
-7.58099e-08
-7.72385e-08
-7.96874e-08
-8.30974e-08
-8.74766e-08
-9.27569e-08
-9.88639e-08
-1.05696e-07
-1.13146e-07
-1.21134e-07
-1.29605e-07
-1.38486e-07
-1.47619e-07
-1.56803e-07
-1.65854e-07
-1.74614e-07
-1.82949e-07
-1.9076e-07
-1.97992e-07
-2.0462e-07
-2.1064e-07
-2.16029e-07
-2.20736e-07
-2.24753e-07
-2.28165e-07
-2.3108e-07
-2.3354e-07
-2.35516e-07
-2.36997e-07
-2.38005e-07
-2.38532e-07
-2.38495e-07
-2.37787e-07
-2.36319e-07
-2.34041e-07
-2.3093e-07
-2.26971e-07
-2.2217e-07
-2.16552e-07
-2.10169e-07
-2.03102e-07
-1.95437e-07
-1.87273e-07
-1.7875e-07
-1.70002e-07
-1.61078e-07
-1.51984e-07
-1.42791e-07
-1.33569e-07
-1.24305e-07
-1.15187e-07
-1.063e-07
-9.765e-08
-8.91662e-08
-8.09772e-08
-7.31178e-08
-6.55839e-08
-5.83772e-08
-5.14549e-08
-4.47875e-08
-3.83412e-08
-3.21894e-08
-2.63604e-08
-2.08569e-08
-1.56652e-08
-1.10935e-08
-6.85345e-09
-2.91623e-09
6.00948e-10
3.74286e-09
6.4663e-09
8.74162e-09
1.0579e-08
1.19783e-08
1.29366e-08
1.33901e-08
1.33845e-08
1.29517e-08
1.21688e-08
1.10645e-08
-1.25798e-07
-1.15664e-07
-1.06493e-07
-9.86466e-08
-9.24043e-08
-8.78046e-08
-8.47309e-08
-8.30273e-08
-8.25113e-08
-8.30852e-08
-8.47995e-08
-8.78235e-08
-9.2111e-08
-9.76191e-08
-1.04173e-07
-1.1165e-07
-1.19896e-07
-1.28724e-07
-1.37938e-07
-1.47462e-07
-1.57235e-07
-1.6716e-07
-1.77058e-07
-1.86734e-07
-1.96037e-07
-2.0484e-07
-2.13014e-07
-2.20448e-07
-2.27061e-07
-2.32797e-07
-2.37629e-07
-2.41564e-07
-2.44631e-07
-2.46859e-07
-2.48266e-07
-2.48852e-07
-2.48628e-07
-2.47622e-07
-2.45848e-07
-2.43293e-07
-2.39956e-07
-2.35907e-07
-2.31263e-07
-2.26136e-07
-2.20606e-07
-2.14714e-07
-2.08469e-07
-2.01872e-07
-1.94928e-07
-1.87663e-07
-1.80116e-07
-1.72333e-07
-1.64367e-07
-1.56278e-07
-1.48112e-07
-1.39893e-07
-1.31665e-07
-1.23501e-07
-1.15467e-07
-1.07602e-07
-9.99471e-08
-9.25382e-08
-8.54054e-08
-7.86321e-08
-7.20996e-08
-6.57757e-08
-5.96806e-08
-5.38251e-08
-4.82005e-08
-4.28169e-08
-3.76983e-08
-3.28457e-08
-2.81965e-08
-2.37389e-08
-1.95023e-08
-1.54831e-08
-1.16352e-08
-7.97811e-09
-4.46369e-09
-1.2063e-09
1.77233e-09
4.46219e-09
6.84821e-09
8.90179e-09
1.06086e-08
1.20174e-08
1.31548e-08
1.39842e-08
1.44798e-08
1.45986e-08
-1.25765e-07
-1.14645e-07
-1.04471e-07
-9.59412e-08
-8.95505e-08
-8.54348e-08
-8.34241e-08
-8.32286e-08
-8.46212e-08
-8.75174e-08
-9.19006e-08
-9.77206e-08
-1.04879e-07
-1.13284e-07
-1.22808e-07
-1.33284e-07
-1.44656e-07
-1.56894e-07
-1.69247e-07
-1.81769e-07
-1.94051e-07
-2.05976e-07
-2.17369e-07
-2.28073e-07
-2.37932e-07
-2.46799e-07
-2.54553e-07
-2.61108e-07
-2.66406e-07
-2.70426e-07
-2.73172e-07
-2.7468e-07
-2.75034e-07
-2.74357e-07
-2.72735e-07
-2.70191e-07
-2.66712e-07
-2.62319e-07
-2.57062e-07
-2.51031e-07
-2.44348e-07
-2.37112e-07
-2.29373e-07
-2.21166e-07
-2.12564e-07
-2.03677e-07
-1.9464e-07
-1.8557e-07
-1.76562e-07
-1.67688e-07
-1.59001e-07
-1.50533e-07
-1.42299e-07
-1.34302e-07
-1.26545e-07
-1.19032e-07
-1.11774e-07
-1.04778e-07
-9.8053e-08
-9.16108e-08
-8.54598e-08
-7.95992e-08
-7.40162e-08
-6.86865e-08
-6.35736e-08
-5.86473e-08
-5.38794e-08
-4.92487e-08
-4.4753e-08
-4.03738e-08
-3.60915e-08
-3.18703e-08
-2.77116e-08
-2.36295e-08
-1.96435e-08
-1.57791e-08
-1.2057e-08
-8.50349e-09
-5.14721e-09
-2.01296e-09
8.84602e-10
3.54275e-09
5.96293e-09
8.14498e-09
1.00883e-08
1.17806e-08
1.32084e-08
1.43918e-08
1.52487e-08
1.57558e-08
-1.16802e-07
-1.04533e-07
-9.34254e-08
-8.45262e-08
-7.84094e-08
-7.52333e-08
-7.47988e-08
-7.67725e-08
-8.08646e-08
-8.68873e-08
-9.47471e-08
-1.04389e-07
-1.15717e-07
-1.2856e-07
-1.42676e-07
-1.57757e-07
-1.73369e-07
-1.89145e-07
-2.05443e-07
-2.21737e-07
-2.37651e-07
-2.52962e-07
-2.67241e-07
-2.80383e-07
-2.92191e-07
-3.02442e-07
-3.10986e-07
-3.1772e-07
-3.22581e-07
-3.25546e-07
-3.26637e-07
-3.25919e-07
-3.23457e-07
-3.19285e-07
-3.13472e-07
-3.06187e-07
-2.97682e-07
-2.88189e-07
-2.77908e-07
-2.67026e-07
-2.55715e-07
-2.4413e-07
-2.32422e-07
-2.20723e-07
-2.09129e-07
-1.97706e-07
-1.865e-07
-1.75562e-07
-1.64946e-07
-1.54702e-07
-1.44875e-07
-1.35511e-07
-1.26652e-07
-1.1833e-07
-1.10565e-07
-1.03359e-07
-9.66947e-08
-9.05372e-08
-8.48445e-08
-7.95632e-08
-7.46275e-08
-6.99754e-08
-6.55574e-08
-6.13337e-08
-5.72679e-08
-5.3323e-08
-4.94619e-08
-4.5656e-08
-4.18987e-08
-3.81724e-08
-3.43633e-08
-3.06143e-08
-2.69703e-08
-2.34974e-08
-2.02446e-08
-1.71573e-08
-1.41775e-08
-1.1274e-08
-8.4316e-09
-5.64892e-09
-2.93124e-09
-2.63882e-10
2.32411e-09
4.79835e-09
7.13217e-09
9.30167e-09
1.1284e-08
1.30507e-08
1.45513e-08
1.57333e-08
-1.00342e-07
-8.71019e-08
-7.51762e-08
-6.64306e-08
-6.10163e-08
-5.88012e-08
-5.94919e-08
-6.28312e-08
-6.86427e-08
-7.68101e-08
-8.7234e-08
-9.9787e-08
-1.14292e-07
-1.30533e-07
-1.48267e-07
-1.67233e-07
-1.87151e-07
-2.07731e-07
-2.28654e-07
-2.49516e-07
-2.7011e-07
-2.89781e-07
-3.08413e-07
-3.25712e-07
-3.41352e-07
-3.5503e-07
-3.66501e-07
-3.75586e-07
-3.82148e-07
-3.86092e-07
-3.87352e-07
-3.85912e-07
-3.81806e-07
-3.75139e-07
-3.66121e-07
-3.55035e-07
-3.42186e-07
-3.2788e-07
-3.12449e-07
-2.96244e-07
-2.79609e-07
-2.62843e-07
-2.46185e-07
-2.29821e-07
-2.13916e-07
-1.9863e-07
-1.84108e-07
-1.70463e-07
-1.57779e-07
-1.46108e-07
-1.35459e-07
-1.25781e-07
-1.16984e-07
-1.08964e-07
-1.01609e-07
-9.48265e-08
-8.85532e-08
-8.27555e-08
-7.74066e-08
-7.24739e-08
-6.79264e-08
-6.37194e-08
-5.97906e-08
-5.60699e-08
-5.24874e-08
-4.89758e-08
-4.54866e-08
-4.20107e-08
-3.85853e-08
-3.53186e-08
-3.22544e-08
-2.92381e-08
-2.62917e-08
-2.34221e-08
-2.04832e-08
-1.7539e-08
-1.47013e-08
-1.20809e-08
-9.71292e-09
-7.52058e-09
-5.46402e-09
-3.40136e-09
-1.20567e-09
1.15678e-09
3.64955e-09
6.19991e-09
8.71628e-09
1.11049e-08
1.32825e-08
1.5177e-08
-8.88628e-08
-7.51765e-08
-6.51179e-08
-5.8295e-08
-5.22231e-08
-4.94926e-08
-4.98537e-08
-5.30882e-08
-5.90433e-08
-6.75924e-08
-7.8621e-08
-9.20069e-08
-1.07596e-07
-1.25197e-07
-1.44598e-07
-1.65562e-07
-1.87821e-07
-2.11063e-07
-2.34938e-07
-2.59078e-07
-2.83116e-07
-3.0665e-07
-3.29291e-07
-3.50628e-07
-3.703e-07
-3.8798e-07
-4.03309e-07
-4.16017e-07
-4.25864e-07
-4.3275e-07
-4.36415e-07
-4.36752e-07
-4.33747e-07
-4.27472e-07
-4.18075e-07
-4.05771e-07
-3.9084e-07
-3.7363e-07
-3.5455e-07
-3.34042e-07
-3.12563e-07
-2.90578e-07
-2.68553e-07
-2.46954e-07
-2.2621e-07
-2.0667e-07
-1.88563e-07
-1.71985e-07
-1.56901e-07
-1.43189e-07
-1.30716e-07
-1.19382e-07
-1.09119e-07
-9.9881e-08
-9.16436e-08
-8.4385e-08
-7.8068e-08
-7.2625e-08
-6.79477e-08
-6.38724e-08
-6.01753e-08
-5.66318e-08
-5.3098e-08
-4.95667e-08
-4.61119e-08
-4.27863e-08
-3.95652e-08
-3.63948e-08
-3.32234e-08
-2.99702e-08
-2.67903e-08
-2.4004e-08
-2.2006e-08
-2.09699e-08
-2.06783e-08
-2.03506e-08
-1.93756e-08
-1.75775e-08
-1.51393e-08
-1.23683e-08
-9.39439e-09
-6.37472e-09
-3.40517e-09
-5.06271e-10
2.2911e-09
4.98109e-09
7.55066e-09
9.9757e-09
1.22201e-08
1.42359e-08
-1.10984e-07
-9.66267e-08
-8.43602e-08
-7.39382e-08
-6.84341e-08
-6.46825e-08
-6.34316e-08
-6.47715e-08
-6.87122e-08
-7.5243e-08
-8.43349e-08
-9.59124e-08
-1.09872e-07
-1.2608e-07
-1.44373e-07
-1.64561e-07
-1.86419e-07
-2.09677e-07
-2.34023e-07
-2.59103e-07
-2.84523e-07
-3.0986e-07
-3.34681e-07
-3.58552e-07
-3.81033e-07
-4.01699e-07
-4.20156e-07
-4.35959e-07
-4.48586e-07
-4.593e-07
-4.66252e-07
-4.69461e-07
-4.68926e-07
-4.64641e-07
-4.56669e-07
-4.45151e-07
-4.30306e-07
-4.12445e-07
-3.91961e-07
-3.69326e-07
-3.45083e-07
-3.19832e-07
-2.94191e-07
-2.68736e-07
-2.43937e-07
-2.20142e-07
-1.97611e-07
-1.76558e-07
-1.57187e-07
-1.397e-07
-1.2425e-07
-1.10888e-07
-9.9545e-08
-9.00583e-08
-8.21953e-08
-7.56392e-08
-7.00056e-08
-6.49125e-08
-6.00963e-08
-5.54827e-08
-5.11203e-08
-4.70271e-08
-4.31295e-08
-3.93467e-08
-3.57124e-08
-3.22724e-08
-2.89616e-08
-2.60099e-08
-2.38957e-08
-2.28115e-08
-2.27586e-08
-2.23024e-08
-2.12905e-08
-1.98298e-08
-1.81079e-08
-1.66694e-08
-1.55512e-08
-1.50331e-08
-1.50912e-08
-1.54495e-08
-1.57473e-08
-1.56706e-08
-1.49822e-08
-1.34837e-08
-1.15873e-08
-9.26457e-09
-6.66276e-09
-3.92414e-09
-1.17466e-09
1.4731e-09
-1.69338e-07
-1.54288e-07
-1.41483e-07
-1.30841e-07
-1.22329e-07
-1.16699e-07
-1.13404e-07
-1.12326e-07
-1.13401e-07
-1.1659e-07
-1.21918e-07
-1.29275e-07
-1.38688e-07
-1.50156e-07
-1.63655e-07
-1.79141e-07
-1.96531e-07
-2.15691e-07
-2.36423e-07
-2.58478e-07
-2.8156e-07
-3.05291e-07
-3.29244e-07
-3.52971e-07
-3.76019e-07
-3.9793e-07
-4.18271e-07
-4.36662e-07
-4.52873e-07
-4.64893e-07
-4.74e-07
-4.79686e-07
-4.81736e-07
-4.79976e-07
-4.74352e-07
-4.64883e-07
-4.51683e-07
-4.34977e-07
-4.15087e-07
-3.92428e-07
-3.67494e-07
-3.40837e-07
-3.13037e-07
-2.84694e-07
-2.56427e-07
-2.28884e-07
-2.02701e-07
-1.78426e-07
-1.56453e-07
-1.36964e-07
-1.19917e-07
-1.05117e-07
-9.22852e-08
-8.11127e-08
-7.13031e-08
-6.26204e-08
-5.489e-08
-4.79804e-08
-4.17848e-08
-3.62685e-08
-3.1569e-08
-2.78109e-08
-2.48581e-08
-2.23375e-08
-2.01495e-08
-1.86214e-08
-1.79125e-08
-1.73823e-08
-1.60501e-08
-1.41616e-08
-1.18282e-08
-1.12671e-08
-1.37447e-08
-1.92219e-08
-2.61921e-08
-3.26882e-08
-3.80444e-08
-4.20153e-08
-4.474e-08
-4.64167e-08
-4.7138e-08
-4.68572e-08
-4.53988e-08
-4.39314e-08
-4.15667e-08
-3.85653e-08
-3.51011e-08
-3.13358e-08
-2.74313e-08
-2.35401e-08
-2.67886e-07
-2.56877e-07
-2.47598e-07
-2.39587e-07
-2.3263e-07
-2.26165e-07
-2.21302e-07
-2.17619e-07
-2.14907e-07
-2.13088e-07
-2.1218e-07
-2.1226e-07
-2.13461e-07
-2.15954e-07
-2.19935e-07
-2.25598e-07
-2.33108e-07
-2.42585e-07
-2.54089e-07
-2.67608e-07
-2.8303e-07
-3.00101e-07
-3.18505e-07
-3.37843e-07
-3.57663e-07
-3.77431e-07
-3.96598e-07
-4.14586e-07
-4.30819e-07
-4.44674e-07
-4.55814e-07
-4.63889e-07
-4.68473e-07
-4.695e-07
-4.66714e-07
-4.60111e-07
-4.49679e-07
-4.3553e-07
-4.17873e-07
-3.97012e-07
-3.73356e-07
-3.47412e-07
-3.1978e-07
-2.9114e-07
-2.62205e-07
-2.33654e-07
-2.0607e-07
-1.79903e-07
-1.5545e-07
-1.329e-07
-1.12378e-07
-9.39582e-08
-7.76715e-08
-6.35181e-08
-5.14826e-08
-4.15515e-08
-3.36967e-08
-2.78004e-08
-2.35566e-08
-2.04663e-08
-1.79328e-08
-1.57156e-08
-1.39308e-08
-1.23786e-08
-1.03058e-08
-7.44616e-09
-4.41946e-09
-3.89347e-09
-8.21094e-09
-1.64884e-08
-2.66645e-08
-3.68399e-08
-4.63002e-08
-5.52613e-08
-6.38683e-08
-7.18195e-08
-7.86856e-08
-8.41272e-08
-8.7965e-08
-9.01552e-08
-9.06824e-08
-8.95952e-08
-8.74694e-08
-8.3494e-08
-7.85348e-08
-7.28669e-08
-6.67274e-08
-6.03658e-08
-5.40123e-08
-4.78683e-08
-4.06737e-07
-4.03667e-07
-4.00935e-07
-3.9794e-07
-3.94451e-07
-3.89386e-07
-3.84068e-07
-3.7804e-07
-3.71114e-07
-3.63249e-07
-3.54543e-07
-3.45199e-07
-3.35519e-07
-3.25886e-07
-3.16732e-07
-3.08517e-07
-3.01695e-07
-2.96694e-07
-2.93879e-07
-2.93524e-07
-2.95789e-07
-3.00721e-07
-3.0824e-07
-3.18123e-07
-3.303e-07
-3.4381e-07
-3.58277e-07
-3.73025e-07
-3.87385e-07
-4.00607e-07
-4.12077e-07
-4.21258e-07
-4.27676e-07
-4.3093e-07
-4.30907e-07
-4.27386e-07
-4.20149e-07
-4.09264e-07
-3.94872e-07
-3.77199e-07
-3.56576e-07
-3.33424e-07
-3.08244e-07
-2.81588e-07
-2.54035e-07
-2.26168e-07
-1.98566e-07
-1.71795e-07
-1.46407e-07
-1.22911e-07
-1.0172e-07
-8.31064e-08
-6.71929e-08
-5.39353e-08
-4.3116e-08
-3.43755e-08
-2.73038e-08
-2.15661e-08
-1.69366e-08
-1.3129e-08
-9.66268e-09
-5.82806e-09
-1.81717e-09
4.69529e-10
-1.33126e-09
-7.68127e-09
-1.74636e-08
-2.86097e-08
-4.02314e-08
-5.24796e-08
-6.54044e-08
-7.85767e-08
-9.13652e-08
-1.03171e-07
-1.13473e-07
-1.2185e-07
-1.28034e-07
-1.31906e-07
-1.33486e-07
-1.32918e-07
-1.30191e-07
-1.25792e-07
-1.19856e-07
-1.12672e-07
-1.04529e-07
-9.57933e-08
-8.67961e-08
-7.7824e-08
-6.91219e-08
-6.08914e-08
-5.6613e-07
-5.72416e-07
-5.77203e-07
-5.79877e-07
-5.79913e-07
-5.79209e-07
-5.7464e-07
-5.66532e-07
-5.55115e-07
-5.40601e-07
-5.23275e-07
-5.03519e-07
-4.81807e-07
-4.58697e-07
-4.34821e-07
-4.10857e-07
-3.87511e-07
-3.65484e-07
-3.45443e-07
-3.27992e-07
-3.1364e-07
-3.02788e-07
-2.95695e-07
-2.92459e-07
-2.92969e-07
-2.96814e-07
-3.03458e-07
-3.12225e-07
-3.22863e-07
-3.33574e-07
-3.44012e-07
-3.53402e-07
-3.61054e-07
-3.66375e-07
-3.68887e-07
-3.68248e-07
-3.64434e-07
-3.57036e-07
-3.46447e-07
-3.32662e-07
-3.15946e-07
-2.96641e-07
-2.75184e-07
-2.52086e-07
-2.27908e-07
-2.03248e-07
-1.78716e-07
-1.54907e-07
-1.32348e-07
-1.11457e-07
-9.25268e-08
-7.57245e-08
-6.10981e-08
-4.85862e-08
-3.80227e-08
-2.91267e-08
-2.15198e-08
-1.48605e-08
-9.14986e-09
-5.02042e-09
-3.61302e-09
-5.98102e-09
-1.19296e-08
-2.02149e-08
-2.98435e-08
-4.07198e-08
-5.31391e-08
-6.7044e-08
-8.19953e-08
-9.73847e-08
-1.12548e-07
-1.2684e-07
-1.39685e-07
-1.50608e-07
-1.5925e-07
-1.65373e-07
-1.6887e-07
-1.69762e-07
-1.68143e-07
-1.64099e-07
-1.58077e-07
-1.50354e-07
-1.41264e-07
-1.31149e-07
-1.20364e-07
-1.09268e-07
-9.81899e-08
-8.74177e-08
-7.7189e-08
-6.76898e-08
-7.01938e-07
-7.14554e-07
-7.24029e-07
-7.30083e-07
-7.31953e-07
-7.28818e-07
-7.20808e-07
-7.08018e-07
-6.90619e-07
-6.68887e-07
-6.43206e-07
-6.14065e-07
-5.82051e-07
-5.47839e-07
-5.1217e-07
-4.75834e-07
-4.39644e-07
-4.044e-07
-3.70872e-07
-3.39775e-07
-3.11756e-07
-2.87389e-07
-2.6714e-07
-2.51314e-07
-2.40036e-07
-2.3323e-07
-2.30655e-07
-2.31868e-07
-2.36225e-07
-2.4288e-07
-2.51002e-07
-2.59763e-07
-2.68329e-07
-2.75854e-07
-2.81709e-07
-2.85353e-07
-2.86395e-07
-2.84675e-07
-2.79606e-07
-2.7134e-07
-2.60216e-07
-2.46425e-07
-2.30389e-07
-2.12599e-07
-1.93578e-07
-1.73866e-07
-1.53988e-07
-1.34433e-07
-1.1563e-07
-9.79314e-08
-8.16037e-08
-6.68243e-08
-5.3703e-08
-4.2329e-08
-3.28385e-08
-2.54645e-08
-2.05098e-08
-1.81966e-08
-1.84633e-08
-2.09138e-08
-2.50926e-08
-3.08954e-08
-3.85804e-08
-4.83853e-08
-6.02988e-08
-7.4093e-08
-8.93728e-08
-1.05596e-07
-1.22125e-07
-1.38294e-07
-1.53465e-07
-1.67058e-07
-1.78598e-07
-1.87738e-07
-1.9423e-07
-1.97924e-07
-1.98859e-07
-1.97086e-07
-1.92809e-07
-1.86286e-07
-1.77842e-07
-1.6783e-07
-1.56624e-07
-1.44599e-07
-1.32119e-07
-1.19528e-07
-1.07147e-07
-9.52555e-08
-8.40894e-08
-7.89869e-07
-8.04595e-07
-8.1441e-07
-8.18573e-07
-8.17586e-07
-8.10993e-07
-7.98726e-07
-7.80862e-07
-7.57612e-07
-7.29342e-07
-6.96556e-07
-6.59872e-07
-6.19995e-07
-5.7768e-07
-5.33711e-07
-4.88867e-07
-4.43913e-07
-3.99602e-07
-3.56695e-07
-3.15973e-07
-2.78225e-07
-2.44179e-07
-2.14412e-07
-1.89261e-07
-1.68808e-07
-1.5299e-07
-1.41728e-07
-1.3487e-07
-1.3205e-07
-1.32877e-07
-1.36772e-07
-1.42995e-07
-1.50706e-07
-1.5905e-07
-1.67208e-07
-1.74561e-07
-1.8028e-07
-1.84023e-07
-1.85493e-07
-1.84642e-07
-1.81618e-07
-1.75215e-07
-1.66493e-07
-1.55865e-07
-1.43728e-07
-1.30507e-07
-1.16643e-07
-1.02574e-07
-8.87217e-08
-7.5482e-08
-6.32119e-08
-5.2223e-08
-4.27709e-08
-3.50443e-08
-2.91585e-08
-2.51691e-08
-2.31112e-08
-2.3034e-08
-2.50053e-08
-2.91025e-08
-3.54173e-08
-4.40424e-08
-5.5003e-08
-6.81724e-08
-8.32424e-08
-9.97487e-08
-1.17121e-07
-1.34729e-07
-1.51923e-07
-1.68071e-07
-1.82618e-07
-1.95089e-07
-2.05101e-07
-2.12405e-07
-2.16814e-07
-2.18385e-07
-2.17133e-07
-2.13245e-07
-2.06956e-07
-1.98578e-07
-1.88469e-07
-1.77014e-07
-1.64609e-07
-1.51642e-07
-1.3848e-07
-1.2545e-07
-1.1284e-07
-1.00886e-07
-8.97725e-08
-8.33796e-07
-8.48417e-07
-8.57522e-07
-8.60701e-07
-8.57484e-07
-8.4777e-07
-8.31614e-07
-8.09169e-07
-7.80711e-07
-7.46686e-07
-7.07715e-07
-6.64573e-07
-6.18152e-07
-5.69426e-07
-5.19398e-07
-4.69051e-07
-4.19281e-07
-3.70838e-07
-3.24294e-07
-2.80037e-07
-2.38299e-07
-1.99242e-07
-1.63075e-07
-1.30091e-07
-1.00863e-07
-7.61022e-08
-5.62803e-08
-4.14677e-08
-3.13837e-08
-2.54692e-08
-2.31308e-08
-2.38433e-08
-2.70884e-08
-3.2279e-08
-3.87503e-08
-4.60002e-08
-5.30247e-08
-5.93175e-08
-6.43692e-08
-6.7832e-08
-6.92932e-08
-7.05837e-08
-6.91877e-08
-6.59395e-08
-6.11746e-08
-5.52026e-08
-4.83589e-08
-4.09967e-08
-3.34741e-08
-2.61406e-08
-1.93252e-08
-1.33291e-08
-8.424e-09
-4.85563e-09
-2.8496e-09
-2.61805e-09
-4.35733e-09
-8.24176e-09
-1.44043e-08
-2.2914e-08
-3.37587e-08
-4.68287e-08
-6.19046e-08
-7.8653e-08
-9.66321e-08
-1.15312e-07
-1.3411e-07
-1.52425e-07
-1.69654e-07
-1.85177e-07
-1.98621e-07
-2.09712e-07
-2.18064e-07
-2.23538e-07
-2.26106e-07
-2.25812e-07
-2.22819e-07
-2.17346e-07
-2.09676e-07
-2.00152e-07
-1.89155e-07
-1.77084e-07
-1.64346e-07
-1.51332e-07
-1.38407e-07
-1.25887e-07
-1.14033e-07
-1.03036e-07
-9.30225e-08
-8.38679e-07
-8.51606e-07
-8.59246e-07
-8.60719e-07
-8.55358e-07
-8.42964e-07
-8.23745e-07
-7.98074e-07
-7.66393e-07
-7.29227e-07
-6.87225e-07
-6.41175e-07
-5.91986e-07
-5.40636e-07
-4.88118e-07
-4.35396e-07
-3.83391e-07
-3.32957e-07
-2.84841e-07
-2.39624e-07
-1.97704e-07
-1.59285e-07
-1.24377e-07
-9.28335e-08
-6.42918e-08
-3.83623e-08
-1.48118e-08
6.28376e-09
2.44901e-08
3.9162e-08
4.98682e-08
5.66675e-08
6.00851e-08
6.08629e-08
5.97063e-08
5.71851e-08
5.37975e-08
4.99829e-08
4.6141e-08
4.26594e-08
3.99148e-08
3.83556e-08
3.68582e-08
3.59703e-08
3.57963e-08
3.62753e-08
3.72605e-08
3.85435e-08
3.98756e-08
4.09861e-08
4.15974e-08
4.14362e-08
4.02431e-08
3.77777e-08
3.38234e-08
2.81911e-08
2.07196e-08
1.12961e-08
-1.27264e-10
-1.35202e-08
-2.87607e-08
-4.56296e-08
-6.38158e-08
-8.29253e-08
-1.02504e-07
-1.22055e-07
-1.41033e-07
-1.59024e-07
-1.75736e-07
-1.89573e-07
-2.01365e-07
-2.10632e-07
-2.17233e-07
-2.21034e-07
-2.22086e-07
-2.20505e-07
-2.16488e-07
-2.10302e-07
-2.02262e-07
-1.92721e-07
-1.82049e-07
-1.70616e-07
-1.5878e-07
-1.4687e-07
-1.35179e-07
-1.23957e-07
-1.13406e-07
-1.03678e-07
-9.48776e-08
-8.06403e-07
-8.1516e-07
-8.19373e-07
-8.1779e-07
-8.09594e-07
-7.94472e-07
-7.7267e-07
-7.44795e-07
-7.11574e-07
-6.73743e-07
-6.32053e-07
-5.87306e-07
-5.40365e-07
-4.92155e-07
-4.43606e-07
-3.95525e-07
-3.4853e-07
-3.03054e-07
-2.59433e-07
-2.17929e-07
-1.7875e-07
-1.42095e-07
-1.08157e-07
-7.70861e-08
-4.89499e-08
-2.36922e-08
-1.17244e-09
1.88424e-08
3.66538e-08
5.25397e-08
6.66738e-08
7.90186e-08
8.93256e-08
9.7319e-08
1.02923e-07
1.06281e-07
1.07794e-07
1.07967e-07
1.07274e-07
1.06137e-07
1.05039e-07
1.03676e-07
1.01917e-07
1.00156e-07
9.83964e-08
9.66e-08
9.46958e-08
9.25751e-08
9.00957e-08
8.70887e-08
8.33679e-08
7.87376e-08
7.30051e-08
6.59913e-08
5.75404e-08
4.75359e-08
3.59164e-08
2.26782e-08
7.88511e-09
-8.32724e-09
-2.57654e-08
-4.4172e-08
-6.32339e-08
-8.25867e-08
-1.01844e-07
-1.20684e-07
-1.37889e-07
-1.53825e-07
-1.67878e-07
-1.80833e-07
-1.9127e-07
-1.99168e-07
-2.04531e-07
-2.07379e-07
-2.078e-07
-2.05945e-07
-2.0202e-07
-1.96284e-07
-1.8903e-07
-1.80578e-07
-1.71253e-07
-1.61373e-07
-1.51236e-07
-1.41109e-07
-1.31218e-07
-1.21747e-07
-1.12828e-07
-1.04551e-07
-9.69684e-08
-7.47861e-07
-7.49798e-07
-7.48749e-07
-7.43299e-07
-7.3234e-07
-7.15332e-07
-6.92406e-07
-6.64283e-07
-6.31925e-07
-5.96263e-07
-5.58102e-07
-5.18154e-07
-4.77039e-07
-4.3531e-07
-3.93577e-07
-3.52573e-07
-3.12975e-07
-2.75188e-07
-2.39387e-07
-2.05636e-07
-1.73919e-07
-1.44152e-07
-1.16219e-07
-8.99917e-08
-6.53447e-08
-4.21896e-08
-2.04985e-08
-3.11982e-10
1.82609e-08
3.50801e-08
5.00687e-08
6.3261e-08
7.4747e-08
8.4744e-08
9.38768e-08
1.01962e-07
1.08975e-07
1.147e-07
1.19037e-07
1.21976e-07
1.23282e-07
1.23549e-07
1.22896e-07
1.21575e-07
1.19726e-07
1.17407e-07
1.14602e-07
1.11245e-07
1.07237e-07
1.02458e-07
9.67884e-08
9.01104e-08
8.23182e-08
7.33266e-08
6.30736e-08
5.15326e-08
3.87189e-08
2.46841e-08
9.52979e-09
-6.56134e-09
-2.33934e-08
-4.07446e-08
-5.83961e-08
-7.59191e-08
-9.30293e-08
-1.09281e-07
-1.25126e-07
-1.39501e-07
-1.52275e-07
-1.63362e-07
-1.72535e-07
-1.79687e-07
-1.84777e-07
-1.87818e-07
-1.88877e-07
-1.88071e-07
-1.85555e-07
-1.81521e-07
-1.76184e-07
-1.69779e-07
-1.62547e-07
-1.54727e-07
-1.46542e-07
-1.38198e-07
-1.29881e-07
-1.2176e-07
-1.13976e-07
-1.06636e-07
-9.98121e-08
-6.62483e-07
-6.58006e-07
-6.52459e-07
-6.44269e-07
-6.32025e-07
-6.15009e-07
-5.93283e-07
-5.67606e-07
-5.39029e-07
-5.08501e-07
-4.76683e-07
-4.44032e-07
-4.11031e-07
-3.78199e-07
-3.45929e-07
-3.14456e-07
-2.83942e-07
-2.54529e-07
-2.26293e-07
-1.99259e-07
-1.73433e-07
-1.48811e-07
-1.25376e-07
-1.03107e-07
-8.19825e-08
-6.1974e-08
-4.30502e-08
-2.51807e-08
-8.33113e-09
7.53105e-09
2.24012e-08
3.62342e-08
4.90059e-08
6.06883e-08
7.09058e-08
7.97567e-08
8.73004e-08
9.37022e-08
9.90861e-08
1.03548e-07
1.07119e-07
1.09855e-07
1.11753e-07
1.12792e-07
1.12949e-07
1.12205e-07
1.10551e-07
1.07976e-07
1.04471e-07
1.0002e-07
9.4601e-08
8.8184e-08
8.07252e-08
7.21963e-08
6.25882e-08
5.18936e-08
4.01768e-08
2.75082e-08
1.38241e-08
-2.16552e-10
-1.49201e-08
-3.00969e-08
-4.54254e-08
-6.0777e-08
-7.59023e-08
-9.06166e-08
-1.04743e-07
-1.18012e-07
-1.30212e-07
-1.41161e-07
-1.50691e-07
-1.58677e-07
-1.65044e-07
-1.69757e-07
-1.72816e-07
-1.74257e-07
-1.74148e-07
-1.7259e-07
-1.69709e-07
-1.65655e-07
-1.60601e-07
-1.54735e-07
-1.4825e-07
-1.41341e-07
-1.34177e-07
-1.26911e-07
-1.19677e-07
-1.12595e-07
-1.05771e-07
-5.57411e-07
-5.5114e-07
-5.45688e-07
-5.38632e-07
-5.28373e-07
-5.14348e-07
-4.96793e-07
-4.76435e-07
-4.54126e-07
-4.306e-07
-4.06361e-07
-3.81726e-07
-3.56891e-07
-3.3199e-07
-3.07164e-07
-2.82598e-07
-2.58508e-07
-2.35074e-07
-2.12401e-07
-1.90509e-07
-1.69394e-07
-1.49047e-07
-1.2946e-07
-1.10625e-07
-9.25322e-08
-7.51757e-08
-5.85459e-08
-4.26313e-08
-2.74369e-08
-1.29772e-08
7.42778e-10
1.3723e-08
2.59739e-08
3.74669e-08
4.80319e-08
5.77588e-08
6.65991e-08
7.45584e-08
8.16079e-08
8.77305e-08
9.28991e-08
9.70852e-08
1.003e-07
1.0259e-07
1.04002e-07
1.04558e-07
1.04262e-07
1.03101e-07
1.01057e-07
9.81124e-08
9.42498e-08
8.94551e-08
8.37399e-08
7.71244e-08
6.96057e-08
6.09428e-08
5.14044e-08
4.08093e-08
2.94475e-08
1.69536e-08
3.84377e-09
-9.81754e-09
-2.39197e-08
-3.83209e-08
-5.28735e-08
-6.74247e-08
-8.18015e-08
-9.58011e-08
-1.09205e-07
-1.21787e-07
-1.33331e-07
-1.43642e-07
-1.5256e-07
-1.59958e-07
-1.65749e-07
-1.69889e-07
-1.72381e-07
-1.73268e-07
-1.72631e-07
-1.70576e-07
-1.67232e-07
-1.62752e-07
-1.57305e-07
-1.51083e-07
-1.44292e-07
-1.37132e-07
-1.29778e-07
-1.22392e-07
-1.15111e-07
-4.68233e-07
-4.63245e-07
-4.59378e-07
-4.54129e-07
-4.46269e-07
-4.35574e-07
-4.22448e-07
-4.07553e-07
-3.91443e-07
-3.74434e-07
-3.56695e-07
-3.38308e-07
-3.19336e-07
-2.99905e-07
-2.80223e-07
-2.60481e-07
-2.40791e-07
-2.21229e-07
-2.01903e-07
-1.82942e-07
-1.64447e-07
-1.46486e-07
-1.29111e-07
-1.12364e-07
-9.62747e-08
-8.08507e-08
-6.60866e-08
-5.197e-08
-3.84794e-08
-2.55847e-08
-1.32708e-08
-1.52836e-09
9.6861e-09
2.03877e-08
3.05265e-08
4.01336e-08
4.92054e-08
5.77236e-08
6.55593e-08
7.27355e-08
7.92626e-08
8.51087e-08
9.02254e-08
9.4573e-08
9.81269e-08
1.00859e-07
1.0272e-07
1.03667e-07
1.03662e-07
1.02678e-07
1.00671e-07
9.76425e-08
9.36698e-08
8.86196e-08
8.24611e-08
7.53792e-08
6.70739e-08
5.7725e-08
4.72988e-08
3.57894e-08
2.33236e-08
1.00161e-08
-4.06066e-09
-1.88387e-08
-3.41734e-08
-4.98295e-08
-6.55728e-08
-8.12184e-08
-9.65903e-08
-1.11466e-07
-1.25586e-07
-1.38676e-07
-1.50476e-07
-1.60748e-07
-1.69301e-07
-1.76005e-07
-1.80792e-07
-1.8366e-07
-1.84664e-07
-1.83913e-07
-1.8155e-07
-1.7775e-07
-1.72709e-07
-1.66621e-07
-1.59682e-07
-1.52106e-07
-1.44102e-07
-1.35858e-07
-1.27597e-07
-4.16301e-07
-4.10779e-07
-4.05786e-07
-4.00252e-07
-3.9346e-07
-3.85046e-07
-3.74934e-07
-3.63314e-07
-3.50516e-07
-3.36842e-07
-3.22471e-07
-3.07507e-07
-2.92043e-07
-2.76156e-07
-2.59901e-07
-2.43372e-07
-2.26725e-07
-2.10127e-07
-1.93699e-07
-1.77526e-07
-1.61677e-07
-1.46198e-07
-1.31125e-07
-1.16483e-07
-1.0229e-07
-8.85542e-08
-7.52784e-08
-6.2456e-08
-5.0073e-08
-3.81175e-08
-2.65724e-08
-1.54131e-08
-4.63766e-09
5.74332e-09
1.57015e-08
2.52277e-08
3.44001e-08
4.32802e-08
5.19141e-08
6.01868e-08
6.79134e-08
7.50516e-08
8.15822e-08
8.74294e-08
9.25207e-08
9.68054e-08
1.00235e-07
1.02811e-07
1.04333e-07
1.04913e-07
1.04518e-07
1.03077e-07
1.00462e-07
9.676e-08
9.19426e-08
8.60202e-08
7.90624e-08
7.11021e-08
6.18652e-08
5.10039e-08
3.86346e-08
2.50683e-08
1.04558e-08
-5.19986e-09
-2.18698e-08
-3.93258e-08
-5.71137e-08
-7.47954e-08
-9.21596e-08
-1.09055e-07
-1.25294e-07
-1.40639e-07
-1.54822e-07
-1.67583e-07
-1.78676e-07
-1.879e-07
-1.951e-07
-2.00171e-07
-2.03057e-07
-2.03765e-07
-2.02379e-07
-1.99052e-07
-1.93985e-07
-1.87447e-07
-1.7972e-07
-1.7101e-07
-1.61687e-07
-1.51881e-07
-1.41869e-07
-3.7463e-07
-3.668e-07
-3.60298e-07
-3.54466e-07
-3.48397e-07
-3.41424e-07
-3.33271e-07
-3.2399e-07
-3.13811e-07
-3.02974e-07
-2.91649e-07
-2.79908e-07
-2.67762e-07
-2.55215e-07
-2.42319e-07
-2.29179e-07
-2.15916e-07
-2.02625e-07
-1.89365e-07
-1.7617e-07
-1.6307e-07
-1.50093e-07
-1.37274e-07
-1.24643e-07
-1.12228e-07
-1.00047e-07
-8.81151e-08
-7.6441e-08
-6.50291e-08
-5.38696e-08
-4.29292e-08
-3.21625e-08
-2.15139e-08
-1.09271e-08
-3.55858e-10
1.01549e-08
2.05043e-08
3.05809e-08
4.03373e-08
4.96733e-08
5.85965e-08
6.70382e-08
7.49066e-08
8.21606e-08