/*--------------------------------*- C++ -*----------------------------------*\
| =========                 |                                                 |
| \\      /  F ield         | OpenFOAM: The Open Source CFD Toolbox           |
|  \\    /   O peration     | Version:  2312                                  |
|   \\  /    A nd           | Website:  www.openfoam.com                      |
|    \\/     M anipulation  |                                                 |
\*---------------------------------------------------------------------------*/
FoamFile
{
    version     2.0;
    format      ascii;
    arch        "LSB;label=32;scalar=64";
    class       volVectorField;
    location    "160000";
    object      U;
}
// * * * * * * * * * * * * * * * * * * * * * * * * * * * * * * * * * * * * * //

dimensions      [0 1 -1 0 0 0 0];

internalField   nonuniform List<vector> 
2685
(
(0.00056923 -3.82019e-05 0)
(0.000578884 -2.77819e-05 0)
(0.000569718 -1.97403e-05 0)
(0.00056224 -1.26226e-05 0)
(0.000556318 -6.8907e-06 0)
(0.000550358 -2.69798e-06 0)
(0.00054358 1.95509e-07 0)
(0.000536083 2.12907e-06 0)
(0.000528208 3.46169e-06 0)
(0.000520281 4.48664e-06 0)
(0.000512485 5.3834e-06 0)
(0.000504838 6.25464e-06 0)
(0.000497313 7.17358e-06 0)
(0.000489805 8.18832e-06 0)
(0.000482286 9.36095e-06 0)
(0.000474604 1.07505e-05 0)
(0.00046657 1.23979e-05 0)
(0.000457965 1.43321e-05 0)
(0.000448551 1.65829e-05 0)
(0.00043808 1.91931e-05 0)
(0.000426284 2.21931e-05 0)
(0.000412863 2.5554e-05 0)
(0.000397485 2.91851e-05 0)
(0.00037979 3.29911e-05 0)
(0.000359503 3.6753e-05 0)
(0.000336576 3.95872e-05 0)
(0.000311417 3.97356e-05 0)
(0.00028501 3.55005e-05 0)
(0.000258752 2.64513e-05 0)
(0.000234015 1.36152e-05 0)
(0.000211817 -1.12091e-06 0)
(0.000192713 -1.5847e-05 0)
(0.000176939 -2.91894e-05 0)
(0.000164495 -4.02618e-05 0)
(0.00015501 -4.84484e-05 0)
(0.000147838 -5.32623e-05 0)
(0.000142303 -5.45231e-05 0)
(0.000137812 -5.23145e-05 0)
(0.000133914 -4.7043e-05 0)
(0.000130357 -3.94051e-05 0)
(0.000127026 -3.02882e-05 0)
(0.000123778 -2.06314e-05 0)
(0.000120256 -1.131e-05 0)
(0.000115896 -3.11471e-06 0)
(0.000110155 3.38601e-06 0)
(0.000102644 8.03672e-06 0)
(9.33565e-05 1.09607e-05 0)
(8.25097e-05 1.2411e-05 0)
(7.03451e-05 1.2761e-05 0)
(5.71025e-05 1.24551e-05 0)
(4.30435e-05 1.1899e-05 0)
(2.84226e-05 1.14053e-05 0)
(1.35437e-05 1.10932e-05 0)
(-1.34194e-06 1.09221e-05 0)
(-1.59355e-05 1.08399e-05 0)
(-2.99774e-05 1.07358e-05 0)
(-4.33123e-05 1.05407e-05 0)
(-5.57252e-05 1.01976e-05 0)
(-6.70046e-05 9.67185e-06 0)
(-7.69373e-05 8.95262e-06 0)
(-8.53298e-05 8.04281e-06 0)
(-9.20339e-05 6.96189e-06 0)
(-9.69484e-05 5.74438e-06 0)
(-0.000100014 4.43555e-06 0)
(-0.000101207 3.08766e-06 0)
(-0.00010063 1.73376e-06 0)
(-9.84083e-05 4.17012e-07 0)
(-9.46224e-05 -8.26349e-07 0)
(-8.9387e-05 -1.96777e-06 0)
(-8.28454e-05 -2.98421e-06 0)
(-7.51599e-05 -3.85961e-06 0)
(-6.65071e-05 -4.58404e-06 0)
(-5.70725e-05 -5.15019e-06 0)
(-4.70467e-05 -5.54694e-06 0)
(-3.66257e-05 -5.76298e-06 0)
(-2.60126e-05 -5.80475e-06 0)
(-1.54026e-05 -5.69135e-06 0)
(-4.97625e-06 -5.45169e-06 0)
(5.10224e-06 -5.12062e-06 0)
(1.46932e-05 -4.7389e-06 0)
(2.36841e-05 -4.35257e-06 0)
(3.19916e-05 -4.00816e-06 0)
(3.95603e-05 -3.74341e-06 0)
(4.63555e-05 -3.5765e-06 0)
(5.23535e-05 -3.50049e-06 0)
(5.75336e-05 -3.48759e-06 0)
(6.18748e-05 -3.50145e-06 0)
(6.53628e-05 -3.50821e-06 0)
(6.80009e-05 -3.48845e-06 0)
(6.98151e-05 -3.43831e-06 0)
(0.00114046 2.26339e-05 0)
(0.00112484 2.56999e-05 0)
(0.00111435 2.81277e-05 0)
(0.00110496 3.02427e-05 0)
(0.00109564 3.1685e-05 0)
(0.00108654 3.22541e-05 0)
(0.00107795 3.20502e-05 0)
(0.00107012 3.12776e-05 0)
(0.00106318 3.01626e-05 0)
(0.00105719 2.88738e-05 0)
(0.0010521 2.75375e-05 0)
(0.00104781 2.62638e-05 0)
(0.00104429 2.51596e-05 0)
(0.0010415 2.43365e-05 0)
(0.00103945 2.38923e-05 0)
(0.00103809 2.39119e-05 0)
(0.00103728 2.45011e-05 0)
(0.00103695 2.57181e-05 0)
(0.001037 2.76276e-05 0)
(0.00103731 3.03107e-05 0)
(0.00103779 3.37601e-05 0)
(0.00103825 3.80461e-05 0)
(0.00103854 4.31786e-05 0)
(0.0010386 4.90166e-05 0)
(0.00103842 5.55156e-05 0)
(0.00103816 6.24095e-05 0)
(0.00103778 6.92879e-05 0)
(0.00103654 7.56653e-05 0)
(0.00103344 8.09085e-05 0)
(0.00102705 8.49578e-05 0)
(0.00101588 8.78351e-05 0)
(0.000999456 8.92038e-05 0)
(0.000978029 8.94132e-05 0)
(0.00095107 8.87468e-05 0)
(0.000918041 8.66784e-05 0)
(0.000879625 8.32711e-05 0)
(0.000836692 7.88395e-05 0)
(0.000790299 7.33622e-05 0)
(0.000741362 6.64384e-05 0)
(0.00069083 5.77217e-05 0)
(0.000639728 4.76487e-05 0)
(0.000588922 3.77626e-05 0)
(0.000539158 3.04683e-05 0)
(0.000491502 2.72152e-05 0)
(0.000447032 2.71389e-05 0)
(0.000406377 2.86842e-05 0)
(0.000369629 3.15201e-05 0)
(0.000336447 3.55273e-05 0)
(0.000306612 4.01457e-05 0)
(0.000279839 4.46782e-05 0)
(0.000255689 4.85576e-05 0)
(0.000233542 5.14016e-05 0)
(0.000212872 5.29988e-05 0)
(0.000193446 5.32474e-05 0)
(0.000175287 5.21779e-05 0)
(0.000158493 4.98497e-05 0)
(0.000143204 4.63891e-05 0)
(0.000129557 4.19497e-05 0)
(0.000117688 3.66988e-05 0)
(0.0001077 3.08124e-05 0)
(9.9664e-05 2.44791e-05 0)
(9.3623e-05 1.78809e-05 0)
(8.95835e-05 1.11753e-05 0)
(8.75133e-05 4.50152e-06 0)
(8.72845e-05 -2.01746e-06 0)
(8.87304e-05 -8.27896e-06 0)
(9.16884e-05 -1.41879e-05 0)
(9.60019e-05 -1.96561e-05 0)
(0.000101487 -2.46047e-05 0)
(0.00010795 -2.89707e-05 0)
(0.000115196 -3.27084e-05 0)
(0.000123034 -3.57861e-05 0)
(0.000131291 -3.81828e-05 0)
(0.000139802 -3.98852e-05 0)
(0.000148369 -4.08985e-05 0)
(0.000156773 -4.12425e-05 0)
(0.000164818 -4.09456e-05 0)
(0.000172345 -4.00473e-05 0)
(0.000179219 -3.85971e-05 0)
(0.000185331 -3.66542e-05 0)
(0.000190609 -3.42868e-05 0)
(0.000195035 -3.15666e-05 0)
(0.000198655 -2.85568e-05 0)
(0.00020156 -2.53029e-05 0)
(0.000203853 -2.18347e-05 0)
(0.000205598 -1.8181e-05 0)
(0.000206808 -1.43787e-05 0)
(0.000207452 -1.05245e-05 0)
(0.00020748 -6.74011e-06 0)
(0.000206857 -3.14058e-06 0)
(0.00133089 3.57129e-05 0)
(0.00131633 3.79732e-05 0)
(0.00130528 3.96425e-05 0)
(0.00129534 4.03875e-05 0)
(0.00128571 4.02139e-05 0)
(0.00127656 3.92078e-05 0)
(0.00126824 3.75249e-05 0)
(0.001261 3.53432e-05 0)
(0.00125495 3.28111e-05 0)
(0.00125008 3.00278e-05 0)
(0.00124641 2.70843e-05 0)
(0.00124398 2.41038e-05 0)
(0.00124283 2.12336e-05 0)
(0.00124294 1.86222e-05 0)
(0.00124433 1.64067e-05 0)
(0.00124699 1.47111e-05 0)
(0.00125087 1.36215e-05 0)
(0.00125591 1.32367e-05 0)
(0.00126204 1.36797e-05 0)
(0.00126924 1.50377e-05 0)
(0.00127742 1.73689e-05 0)
(0.00128652 2.06605e-05 0)
(0.00129647 2.49193e-05 0)
(0.00130706 3.0059e-05 0)
(0.00131836 3.58911e-05 0)
(0.00132997 4.22286e-05 0)
(0.00134123 4.87034e-05 0)
(0.00135194 5.49943e-05 0)
(0.00136178 6.09747e-05 0)
(0.00137038 6.6669e-05 0)
(0.00137722 7.24985e-05 0)
(0.00138159 7.8966e-05 0)
(0.00138349 8.62884e-05 0)
(0.00138243 9.48838e-05 0)
(0.00137762 0.000105008 0)
(0.00137009 0.000116487 0)
(0.00136008 0.000129247 0)
(0.00134666 0.000142844 0)
(0.00132917 0.000156329 0)
(0.00130677 0.000168584 0)
(0.00127911 0.000178746 0)
(0.0012456 0.000186278 0)
(0.00120573 0.000190667 0)
(0.00116103 0.000191616 0)
(0.00111159 0.00018884 0)
(0.00105709 0.000182172 0)
(0.000999505 0.000172113 0)
(0.000940903 0.000159666 0)
(0.000882603 0.000146016 0)
(0.000825756 0.000132315 0)
(0.000771521 0.000119501 0)
(0.000721078 0.000108141 0)
(0.000675531 9.8462e-05 0)
(0.000635257 9.0251e-05 0)
(0.000600118 8.29485e-05 0)
(0.000569873 7.60298e-05 0)
(0.000544181 6.90817e-05 0)
(0.000522652 6.18117e-05 0)
(0.000504869 5.40417e-05 0)
(0.000490448 4.57029e-05 0)
(0.000479073 3.68527e-05 0)
(0.000470463 2.76492e-05 0)
(0.000464344 1.82933e-05 0)
(0.000460436 9.01642e-06 0)
(0.000458464 5.38806e-08 0)
(0.000458223 -8.39735e-06 0)
(0.000459498 -1.61013e-05 0)
(0.000462085 -2.29034e-05 0)
(0.000465768 -2.87489e-05 0)
(0.0004703 -3.35759e-05 0)
(0.000475446 -3.73517e-05 0)
(0.000480974 -4.00718e-05 0)
(0.000486609 -4.17319e-05 0)
(0.000492027 -4.2321e-05 0)
(0.000496969 -4.18535e-05 0)
(0.000501275 -4.03869e-05 0)
(0.000504803 -3.80356e-05 0)
(0.000507419 -3.49417e-05 0)
(0.00050902 -3.12487e-05 0)
(0.000509547 -2.7124e-05 0)
(0.000508985 -2.28155e-05 0)
(0.000507357 -1.8656e-05 0)
(0.000504719 -1.49728e-05 0)
(0.000501152 -1.19445e-05 0)
(0.000496751 -9.50759e-06 0)
(0.000491635 -7.40241e-06 0)
(0.000485833 -5.36481e-06 0)
(0.000479398 -3.19291e-06 0)
(0.000472489 -8.91139e-07 0)
(0.000465339 1.41425e-06 0)
(0.00142049 7.44188e-05 0)
(0.001406 7.52122e-05 0)
(0.00139275 7.49014e-05 0)
(0.00138027 7.33263e-05 0)
(0.00136848 7.06036e-05 0)
(0.00135768 6.68945e-05 0)
(0.00134817 6.23731e-05 0)
(0.00134007 5.72006e-05 0)
(0.0013333 5.15105e-05 0)
(0.00132777 4.54422e-05 0)
(0.00132351 3.91566e-05 0)
(0.00132059 3.28132e-05 0)
(0.00131905 2.65595e-05 0)
(0.00131891 2.05406e-05 0)
(0.0013202 1.49014e-05 0)
(0.00132289 9.80252e-06 0)
(0.00132695 5.41891e-06 0)
(0.0013325 1.84717e-06 0)
(0.00133963 -8.27093e-07 0)
(0.0013483 -2.52023e-06 0)
(0.00135844 -3.16393e-06 0)
(0.00137005 -2.69277e-06 0)
(0.00138303 -1.09302e-06 0)
(0.00139728 1.67515e-06 0)
(0.00141268 5.58488e-06 0)
(0.00142905 1.05505e-05 0)
(0.00144616 1.66108e-05 0)
(0.00146374 2.37846e-05 0)
(0.00148148 3.20737e-05 0)
(0.00149904 4.14719e-05 0)
(0.00151601 5.19123e-05 0)
(0.00153193 6.34468e-05 0)
(0.00154646 7.60439e-05 0)
(0.00155952 8.96358e-05 0)
(0.00157081 0.000104375 0)
(0.00158034 0.000120076 0)
(0.00158834 0.000136315 0)
(0.00159393 0.000152741 0)
(0.00159621 0.000169054 0)
(0.00159514 0.000185019 0)
(0.00159112 0.000200492 0)
(0.00158399 0.000215316 0)
(0.00157341 0.000229378 0)
(0.00155905 0.000242462 0)
(0.00154054 0.000253919 0)
(0.0015182 0.00026342 0)
(0.00149222 0.000270689 0)
(0.00146228 0.00027507 0)
(0.00142786 0.00027586 0)
(0.00138889 0.000272645 0)
(0.0013459 0.000265283 0)
(0.0012997 0.000253906 0)
(0.0012513 0.0002389 0)
(0.00120164 0.000220811 0)
(0.00115168 0.000200338 0)
(0.00110277 0.000178318 0)
(0.00105609 0.000155602 0)
(0.00101251 0.000132945 0)
(0.000972715 0.00011087 0)
(0.000937092 8.96892e-05 0)
(0.000905687 6.96478e-05 0)
(0.000878427 5.08893e-05 0)
(0.000855153 3.34554e-05 0)
(0.000835585 1.74444e-05 0)
(0.000819363 2.92435e-06 0)
(0.000806393 -1.01992e-05 0)
(0.000796513 -2.19572e-05 0)
(0.000789146 -3.22797e-05 0)
(0.000783876 -4.1097e-05 0)
(0.000780529 -4.8436e-05 0)
(0.000778863 -5.43019e-05 0)
(0.000778596 -5.85694e-05 0)
(0.000779455 -6.12141e-05 0)
(0.000781225 -6.22742e-05 0)
(0.000783768 -6.17852e-05 0)
(0.000786936 -5.97924e-05 0)
(0.00079054 -5.6397e-05 0)
(0.000794436 -5.17764e-05 0)
(0.000798512 -4.61606e-05 0)
(0.000802617 -3.97859e-05 0)
(0.000806571 -3.28713e-05 0)
(0.000810192 -2.56437e-05 0)
(0.000813284 -1.83271e-05 0)
(0.000815633 -1.10586e-05 0)
(0.000817024 -3.86043e-06 0)
(0.000817252 3.2244e-06 0)
(0.000816502 1.00156e-05 0)
(0.000815203 1.62341e-05 0)
(0.000813432 2.17432e-05 0)
(0.000811202 2.65285e-05 0)
(0.00145714 0.000111381 0)
(0.00143978 0.000108765 0)
(0.0014234 0.000105035 0)
(0.00140775 0.000100252 0)
(0.00139274 9.45395e-05 0)
(0.00137857 8.80048e-05 0)
(0.00136551 8.07042e-05 0)
(0.00135367 7.27015e-05 0)
(0.00134308 6.41203e-05 0)
(0.00133382 5.51359e-05 0)
(0.00132598 4.59271e-05 0)
(0.00131966 3.66398e-05 0)
(0.00131496 2.73894e-05 0)
(0.00131199 1.82873e-05 0)
(0.00131094 9.48705e-06 0)
(0.00131206 1.17013e-06 0)
(0.00131534 -6.5899e-06 0)
(0.00132065 -1.36312e-05 0)
(0.00132806 -1.98432e-05 0)
(0.00133762 -2.51024e-05 0)
(0.00134929 -2.92685e-05 0)
(0.00136302 -3.22114e-05 0)
(0.00137868 -3.38315e-05 0)
(0.00139612 -3.40393e-05 0)
(0.00141511 -3.27667e-05 0)
(0.00143542 -2.99765e-05 0)
(0.00145676 -2.56302e-05 0)
(0.00147885 -1.97097e-05 0)
(0.00150139 -1.22039e-05 0)
(0.001524 -3.10374e-06 0)
(0.0015463 7.59191e-06 0)
(0.00156793 1.99092e-05 0)
(0.00158876 3.3907e-05 0)
(0.00160877 4.95168e-05 0)
(0.00162765 6.66517e-05 0)
(0.00164524 8.52299e-05 0)
(0.00166143 0.000104839 0)
(0.00167601 0.000125117 0)
(0.00168892 0.00014595 0)
(0.00170016 0.000167263 0)
(0.00170963 0.000188783 0)
(0.00171707 0.000210113 0)
(0.00172228 0.000230855 0)
(0.00172507 0.00025062 0)
(0.00172531 0.000269062 0)
(0.0017231 0.000285743 0)
(0.00171811 0.000300163 0)
(0.00170959 0.000311834 0)
(0.00169729 0.000320414 0)
(0.00168144 0.000325749 0)
(0.00166227 0.000327721 0)
(0.00163988 0.000326178 0)
(0.00161437 0.000320988 0)
(0.00158588 0.000312074 0)
(0.00155459 0.000299505 0)
(0.00152086 0.000283468 0)
(0.00148511 0.000264245 0)
(0.0014478 0.000242268 0)
(0.00140948 0.00021809 0)
(0.0013708 0.000192327 0)
(0.00133245 0.000165672 0)
(0.00129517 0.000138825 0)
(0.00125948 0.000112461 0)
(0.00122583 8.71768e-05 0)
(0.00119463 6.34034e-05 0)
(0.00116605 4.15165e-05 0)
(0.00114005 2.17262e-05 0)
(0.00111683 4.06491e-06 0)
(0.00109638 -1.14045e-05 0)
(0.00107828 -2.45339e-05 0)
(0.00106253 -3.52147e-05 0)
(0.00104914 -4.36028e-05 0)
(0.00103775 -4.98155e-05 0)
(0.00102808 -5.39147e-05 0)
(0.00101998 -5.60302e-05 0)
(0.00101331 -5.63452e-05 0)
(0.00100789 -5.50365e-05 0)
(0.00100348 -5.22677e-05 0)
(0.000999866 -4.82153e-05 0)
(0.000996931 -4.31053e-05 0)
(0.000994607 -3.72132e-05 0)
(0.00099282 -3.08396e-05 0)
(0.000991492 -2.42579e-05 0)
(0.000990561 -1.76956e-05 0)
(0.000990062 -1.13401e-05 0)
(0.00099019 -5.32638e-06 0)
(0.000990854 3.11484e-07 0)
(0.000991826 5.52591e-06 0)
(0.000993199 1.02799e-05 0)
(0.000995066 1.45591e-05 0)
(0.0014119 0.000150463 0)
(0.00139244 0.000147359 0)
(0.0013739 0.000143 0)
(0.00135597 0.000137396 0)
(0.0013387 0.000130562 0)
(0.00132224 0.000122535 0)
(0.00130689 0.000113355 0)
(0.00129302 0.00010312 0)
(0.00128096 9.19807e-05 0)
(0.0012709 8.00834e-05 0)
(0.00126298 6.75427e-05 0)
(0.00125736 5.44748e-05 0)
(0.0012542 4.10165e-05 0)
(0.00125376 2.72908e-05 0)
(0.00125628 1.33824e-05 0)
(0.00126162 -5.30263e-07 0)
(0.00126973 -1.4161e-05 0)
(0.0012807 -2.71846e-05 0)
(0.00129438 -3.93034e-05 0)
(0.00131056 -5.0262e-05 0)
(0.00132901 -5.98146e-05 0)
(0.00134942 -6.77321e-05 0)
(0.0013715 -7.38146e-05 0)
(0.00139498 -7.7906e-05 0)
(0.00141963 -7.98844e-05 0)
(0.00144522 -7.96567e-05 0)
(0.00147152 -7.71621e-05 0)
(0.00149831 -7.23576e-05 0)
(0.00152537 -6.52506e-05 0)
(0.00155246 -5.58595e-05 0)
(0.00157941 -4.42016e-05 0)
(0.00160604 -3.03039e-05 0)
(0.00163198 -1.4195e-05 0)
(0.00165688 3.96193e-06 0)
(0.00168064 2.39699e-05 0)
(0.00170284 4.56494e-05 0)
(0.00172309 6.88939e-05 0)
(0.0017414 9.35708e-05 0)
(0.00175778 0.000119298 0)
(0.00177207 0.000145537 0)
(0.00178408 0.000171796 0)
(0.00179368 0.000197615 0)
(0.00180082 0.000222567 0)
(0.00180554 0.000246254 0)
(0.00180789 0.000268316 0)
(0.00180797 0.000288362 0)
(0.00180581 0.00030599 0)
(0.00180152 0.000320989 0)
(0.00179528 0.000333315 0)
(0.00178724 0.00034291 0)
(0.00177736 0.000349642 0)
(0.0017655 0.000353338 0)
(0.00175154 0.000353832 0)
(0.00173544 0.000350997 0)
(0.00171716 0.000344764 0)
(0.00169677 0.000335122 0)
(0.00167432 0.000322136 0)
(0.00164994 0.00030597 0)
(0.0016238 0.000286907 0)
(0.00159608 0.000265332 0)
(0.00156705 0.000241714 0)
(0.00153702 0.000216589 0)
(0.00150626 0.00019053 0)
(0.00147518 0.000164127 0)
(0.00144414 0.00013796 0)
(0.00141351 0.000112546 0)
(0.00138369 8.83743e-05 0)
(0.00135489 6.59137e-05 0)
(0.00132731 4.5447e-05 0)
(0.00130138 2.72478e-05 0)
(0.00127697 1.15599e-05 0)
(0.00125381 -1.62333e-06 0)
(0.0012322 -1.23508e-05 0)
(0.00121226 -2.07207e-05 0)
(0.00119391 -2.68514e-05 0)
(0.00117715 -3.08964e-05 0)
(0.00116191 -3.30238e-05 0)
(0.00114811 -3.33912e-05 0)
(0.00113563 -3.21461e-05 0)
(0.00112432 -2.947e-05 0)
(0.00111406 -2.56144e-05 0)
(0.00110474 -2.08744e-05 0)
(0.0010963 -1.55651e-05 0)
(0.00108877 -9.99958e-06 0)
(0.00108229 -4.4804e-06 0)
(0.00107688 7.16567e-07 0)
(0.00107272 5.32296e-06 0)
(0.00107005 9.24694e-06 0)
(0.00106892 1.24836e-05 0)
(0.00106922 1.50469e-05 0)
(0.00137495 0.000193185 0)
(0.00135232 0.000189048 0)
(0.00133144 0.000183207 0)
(0.0013118 0.000175638 0)
(0.00129341 0.000166229 0)
(0.00127665 0.000154943 0)
(0.00126208 0.00014188 0)
(0.00125017 0.000127195 0)
(0.00124117 0.000111025 0)
(0.00123517 9.34869e-05 0)
(0.00123219 7.4724e-05 0)
(0.00123225 5.4932e-05 0)
(0.00123531 3.43543e-05 0)
(0.00124112 1.32775e-05 0)
(0.00124959 -7.96446e-06 0)
(0.00126087 -2.8933e-05 0)
(0.00127474 -4.91043e-05 0)
(0.00129064 -6.80609e-05 0)
(0.00130813 -8.54242e-05 0)
(0.00132691 -0.000100903 0)
(0.00134678 -0.000114308 0)
(0.00136759 -0.000125495 0)
(0.00138923 -0.00013434 0)
(0.00141168 -0.000140745 0)
(0.00143493 -0.000144637 0)
(0.00145898 -0.000145955 0)
(0.0014839 -0.000144644 0)
(0.00150971 -0.000140648 0)
(0.00153642 -0.000133918 0)
(0.001564 -0.000124423 0)
(0.00159236 -0.000112149 0)
(0.00162133 -9.71084e-05 0)
(0.00165073 -7.93337e-05 0)
(0.00168026 -5.88405e-05 0)
(0.00170951 -3.57676e-05 0)
(0.00173839 -1.03668e-05 0)
(0.00176692 1.71587e-05 0)
(0.00179436 4.64113e-05 0)
(0.00181966 7.70096e-05 0)
(0.00184234 0.000108647 0)
(0.00186221 0.000140938 0)
(0.00187893 0.000173276 0)
(0.00189221 0.000205107 0)
(0.00190181 0.000235889 0)
(0.00190752 0.000265079 0)
(0.00190927 0.000292149 0)
(0.00190709 0.000316617 0)
(0.00190119 0.000338071 0)
(0.00189183 0.000356137 0)
(0.00187932 0.000370462 0)
(0.00186393 0.000380791 0)
(0.001846 0.000387035 0)
(0.00182598 0.000389251 0)
(0.0018043 0.000387609 0)
(0.00178137 0.000382366 0)
(0.00175753 0.000373823 0)
(0.00173305 0.000362296 0)
(0.00170809 0.000348085 0)
(0.00168276 0.000331464 0)
(0.0016571 0.000312706 0)
(0.00163112 0.000292094 0)
(0.00160481 0.000269931 0)
(0.00157818 0.00024657 0)
(0.00155126 0.000222421 0)
(0.00152409 0.000197956 0)
(0.00149679 0.000173681 0)
(0.00146951 0.00015005 0)
(0.00144238 0.000127459 0)
(0.0014156 0.000106284 0)
(0.00138933 8.68026e-05 0)
(0.00136365 6.9143e-05 0)
(0.00133875 5.34969e-05 0)
(0.00131481 3.99596e-05 0)
(0.00129184 2.85478e-05 0)
(0.0012698 1.93269e-05 0)
(0.0012485 1.23468e-05 0)
(0.00122786 7.58482e-06 0)
(0.0012079 4.92764e-06 0)
(0.00118865 4.14906e-06 0)
(0.00117019 4.9111e-06 0)
(0.00115272 6.78345e-06 0)
(0.0011365 9.28453e-06 0)
(0.00112189 1.1927e-05 0)
(0.00110918 1.42603e-05 0)
(0.00109861 1.58974e-05 0)
(0.00109042 1.66094e-05 0)
(0.00108476 1.63964e-05 0)
(0.00108163 1.5402e-05 0)
(0.00108089 1.3873e-05 0)
(0.0010823 1.20921e-05 0)
(0.00144272 0.000254282 0)
(0.00141334 0.00024652 0)
(0.00138639 0.000236136 0)
(0.0013613 0.000223251 0)
(0.00133814 0.000207932 0)
(0.00131748 0.000190316 0)
(0.00129989 0.000170629 0)
(0.00128568 0.000149094 0)
(0.00127477 0.000125911 0)
(0.00126688 0.000101341 0)
(0.00126168 7.57521e-05 0)
(0.00125893 4.95568e-05 0)
(0.00125833 2.31783e-05 0)
(0.0012595 -2.91903e-06 0)
(0.00126217 -2.82671e-05 0)
(0.00126593 -5.2706e-05 0)
(0.00127021 -7.60959e-05 0)
(0.00127463 -9.79661e-05 0)
(0.00127886 -0.000117783 0)
(0.00128266 -0.000135198 0)
(0.00128607 -0.00015003 0)
(0.00128945 -0.000162254 0)
(0.00129337 -0.000171958 0)
(0.00129852 -0.000179309 0)
(0.0013056 -0.000184481 0)
(0.00131526 -0.000187605 0)
(0.00132805 -0.000188718 0)
(0.00134434 -0.000187758 0)
(0.00136436 -0.000184568 0)
(0.00138817 -0.000178948 0)
(0.00141569 -0.000170666 0)
(0.00144669 -0.000159465 0)
(0.00148077 -0.000145088 0)
(0.00151747 -0.000127317 0)
(0.0015562 -0.00010606 0)
(0.00159623 -8.13602e-05 0)
(0.00163671 -5.3458e-05 0)
(0.00167717 -2.26744e-05 0)
(0.00171749 1.07618e-05 0)
(0.00175724 4.65469e-05 0)
(0.00179519 8.40755e-05 0)
(0.00183041 0.000122841 0)
(0.00186252 0.00016225 0)
(0.00189096 0.000201634 0)
(0.00191518 0.000240295 0)
(0.00193472 0.00027753 0)
(0.00194917 0.000312631 0)
(0.00195817 0.000344907 0)
(0.00196141 0.00037369 0)
(0.00195876 0.000398369 0)
(0.00195033 0.000418433 0)
(0.0019364 0.000433502 0)
(0.00191736 0.000443333 0)
(0.00189374 0.00044782 0)
(0.00186616 0.000447007 0)
(0.00183535 0.0004411 0)
(0.00180203 0.000430476 0)
(0.00176698 0.000415672 0)
(0.00173095 0.00039736 0)
(0.00169465 0.000376293 0)
(0.00165871 0.000353233 0)
(0.00162366 0.000328885 0)
(0.00158987 0.000303876 0)
(0.00155753 0.000278704 0)
(0.0015267 0.000253706 0)
(0.00149732 0.000229114 0)
(0.0014692 0.000205184 0)
(0.00144212 0.000182254 0)
(0.00141593 0.000160638 0)
(0.00139052 0.000140523 0)
(0.00136574 0.000122053 0)
(0.0013413 0.000105436 0)
(0.0013169 9.09363e-05 0)
(0.00129239 7.88108e-05 0)
(0.00126789 6.91529e-05 0)
(0.00124367 6.18605e-05 0)
(0.00122009 5.66648e-05 0)
(0.00119746 5.31704e-05 0)
(0.00117608 5.09022e-05 0)
(0.00115624 4.93376e-05 0)
(0.0011383 4.79294e-05 0)
(0.00112265 4.61715e-05 0)
(0.00110962 4.3665e-05 0)
(0.00109949 4.01381e-05 0)
(0.00109242 3.54856e-05 0)
(0.00108853 2.97849e-05 0)
(0.00108784 2.33064e-05 0)
(0.00109018 1.64912e-05 0)
(0.00109508 9.81471e-06 0)
(0.00110182 3.59454e-06 0)
(0.00150049 0.000330798 0)
(0.00146702 0.000320197 0)
(0.00143504 0.000305798 0)
(0.00140407 0.000287909 0)
(0.00137429 0.000266843 0)
(0.00134629 0.000242984 0)
(0.00132057 0.00021672 0)
(0.00129732 0.000188477 0)
(0.00127636 0.000158726 0)
(0.00125729 0.000127835 0)
(0.00123953 9.61324e-05 0)
(0.00122241 6.43159e-05 0)
(0.00120516 3.35041e-05 0)
(0.00118685 4.64625e-06 0)
(0.00116599 -2.18151e-05 0)
(0.00114141 -4.5514e-05 0)
(0.00111367 -6.5758e-05 0)
(0.00108437 -8.24383e-05 0)
(0.00105462 -9.61413e-05 0)
(0.00102565 -0.000107935 0)
(0.000998861 -0.00011913 0)
(0.000975627 -0.000130667 0)
(0.000957142 -0.000143054 0)
(0.000944395 -0.000156396 0)
(0.000938092 -0.000170414 0)
(0.000938654 -0.000184544 0)
(0.000946237 -0.00019807 0)
(0.000960778 -0.000210227 0)
(0.000982043 -0.000220258 0)
(0.00100964 -0.00022747 0)
(0.00104311 -0.000231233 0)
(0.00108187 -0.000231007 0)
(0.00112533 -0.000226329 0)
(0.00117284 -0.000216841 0)
(0.00122375 -0.000202295 0)
(0.00127738 -0.000182599 0)
(0.001333 -0.000157838 0)
(0.00138978 -0.000128232 0)
(0.00144688 -9.42229e-05 0)
(0.0015034 -5.63577e-05 0)
(0.00155895 -1.52372e-05 0)
(0.00161313 2.86106e-05 0)
(0.00166512 7.45032e-05 0)
(0.00171419 0.000121683 0)
(0.00175972 0.000169419 0)
(0.00180109 0.000216953 0)
(0.00183773 0.000263394 0)
(0.00186906 0.000307905 0)
(0.00189459 0.000349695 0)
(0.0019139 0.000388017 0)
(0.00192666 0.000422155 0)
(0.00193262 0.00045143 0)
(0.00193162 0.000475234 0)
(0.00192364 0.000493065 0)
(0.00190885 0.00050457 0)
(0.0018876 0.000509576 0)
(0.00186047 0.000508097 0)
(0.00182825 0.000500364 0)
(0.00179189 0.000486831 0)
(0.00175238 0.000468135 0)
(0.00171076 0.000445059 0)
(0.00166799 0.000418545 0)
(0.00162494 0.000389636 0)
(0.00158244 0.000359338 0)
(0.0015412 0.000328619 0)
(0.00150169 0.000298459 0)
(0.00146417 0.000269655 0)
(0.00142881 0.000242583 0)
(0.00139564 0.000217372 0)
(0.00136434 0.000194366 0)
(0.0013344 0.000174192 0)
(0.00130554 0.000157308 0)
(0.001278 0.000143536 0)
(0.00125234 0.000132116 0)
(0.00122894 0.000122202 0)
(0.00120771 0.000113289 0)
(0.00118818 0.000105273 0)
(0.00116996 9.81486e-05 0)
(0.00115297 9.16887e-05 0)
(0.00113759 8.53861e-05 0)
(0.0011245 7.86187e-05 0)
(0.00111437 7.08795e-05 0)
(0.00110765 6.19123e-05 0)
(0.00110443 5.16229e-05 0)
(0.0011045 3.99536e-05 0)
(0.00110747 2.6992e-05 0)
(0.00111282 1.32976e-05 0)
(0.00111991 1.16454e-07 0)
(0.00112781 -1.08796e-05 0)
(0.00113541 -1.84434e-05 0)
(0.00139864 0.000405114 0)
(0.00136792 0.000395093 0)
(0.00133697 0.000379716 0)
(0.00130469 0.000359636 0)
(0.00127117 0.000335698 0)
(0.00123713 0.000308819 0)
(0.00120283 0.000279784 0)
(0.00116769 0.000249249 0)
(0.00113071 0.000217877 0)
(0.00109084 0.000186497 0)
(0.00104728 0.000156309 0)
(0.000999671 0.00012893 0)
(0.000948236 0.000105897 0)
(0.000893724 8.77341e-05 0)
(0.000837386 7.33614e-05 0)
(0.000780933 6.0547e-05 0)
(0.000725898 4.67098e-05 0)
(0.000673919 2.97434e-05 0)
(0.000626825 8.76399e-06 0)
(0.000586112 -1.60903e-05 0)
(0.000553129 -4.40951e-05 0)
(0.000528933 -7.44972e-05 0)
(0.000513469 -0.00010666 0)
(0.000506471 -0.00013976 0)
(0.000507601 -0.000172908 0)
(0.00051648 -0.000205189 0)
(0.000532691 -0.000235718 0)
(0.000555827 -0.00026364 0)
(0.000585478 -0.000288158 0)
(0.000621208 -0.000308546 0)
(0.000662591 -0.000324144 0)
(0.000709129 -0.000334397 0)
(0.000760336 -0.000338832 0)
(0.000815654 -0.000337099 0)
(0.000874503 -0.000328973 0)
(0.00093628 -0.000314375 0)
(0.00100033 -0.000293372 0)
(0.00106599 -0.000266171 0)
(0.00113257 -0.000233125 0)
(0.00119943 -0.000194693 0)
(0.00126587 -0.000151421 0)
(0.0013313 -0.000104089 0)
(0.0013952 -5.34218e-05 0)
(0.00145709 -1.66241e-07 0)
(0.00151656 5.48883e-05 0)
(0.00157284 0.000110846 0)
(0.00162531 0.000166951 0)
(0.00167361 0.000222442 0)
(0.00171726 0.000276417 0)
(0.00175571 0.000328014 0)
(0.00178844 0.000376382 0)
(0.00181497 0.000420678 0)
(0.00183488 0.000460098 0)
(0.00184784 0.000493906 0)
(0.00185364 0.000521465 0)
(0.00185219 0.000542242 0)
(0.00184355 0.000555837 0)
(0.00182786 0.000562045 0)
(0.00180545 0.000560849 0)
(0.00177684 0.000552426 0)
(0.00174277 0.000537255 0)
(0.00170418 0.000516129 0)
(0.00166222 0.00048999 0)
(0.00161815 0.000459937 0)
(0.00157312 0.000427375 0)
(0.00152817 0.000393748 0)
(0.00148435 0.000360112 0)
(0.0014425 0.000327413 0)
(0.00140296 0.00029703 0)
(0.00136587 0.000270284 0)
(0.00133166 0.000247203 0)
(0.00130114 0.000226289 0)
(0.0012748 0.000205889 0)
(0.00125196 0.000185764 0)
(0.001231 0.000167219 0)
(0.00121048 0.000151843 0)
(0.00119012 0.000140111 0)
(0.00117095 0.000130923 0)
(0.00115455 0.00012223 0)
(0.00114221 0.000112056 0)
(0.0011344 9.9234e-05 0)
(0.00113085 8.36341e-05 0)
(0.00113082 6.59901e-05 0)
(0.00113328 4.7439e-05 0)
(0.00113719 2.90425e-05 0)
(0.00114177 1.16398e-05 0)
(0.00114684 -3.87322e-06 0)
(0.00115291 -1.62674e-05 0)
(0.00116026 -2.44643e-05 0)
(0.00116751 -2.85045e-05 0)
(0.00111394 0.000458761 0)
(0.00108663 0.000454742 0)
(0.00105637 0.000445378 0)
(0.0010218 0.000430676 0)
(0.000982904 0.000411468 0)
(0.000940367 0.000389283 0)
(0.000894347 0.000366076 0)
(0.000844317 0.000343685 0)
(0.000789762 0.000323251 0)
(0.000730605 0.000305093 0)
(0.000667254 0.0002889 0)
(0.000600724 0.000273846 0)
(0.000532747 0.000258659 0)
(0.00046554 0.000241773 0)
(0.000401364 0.000221685 0)
(0.000342216 0.000197068 0)
(0.000289463 0.000167345 0)
(0.000243963 0.000132605 0)
(0.00020636 9.33418e-05 0)
(0.000177142 5.02435e-05 0)
(0.000156232 4.18441e-06 0)
(0.000142907 -4.38806e-05 0)
(0.000136719 -9.31839e-05 0)
(0.000137753 -0.000142854 0)
(0.000145806 -0.000191962 0)
(0.00016059 -0.000239572 0)
(0.000181793 -0.000284772 0)
(0.000209114 -0.000326684 0)
(0.000242262 -0.00036449 0)
(0.000280956 -0.000397394 0)
(0.000324928 -0.000424687 0)
(0.000373892 -0.000445739 0)
(0.000427556 -0.000459974 0)
(0.000485567 -0.000466922 0)
(0.000547509 -0.000466226 0)
(0.000612879 -0.000457681 0)
(0.000681077 -0.000441271 0)
(0.000751455 -0.000417143 0)
(0.000823298 -0.000385662 0)
(0.000895872 -0.000347369 0)
(0.0009685 -0.000302945 0)
(0.00104046 -0.000253192 0)
(0.0011112 -0.000198953 0)
(0.00118014 -0.000141115 0)
(0.00124683 -8.05287e-05 0)
(0.00131107 -1.80893e-05 0)
(0.00137271 4.54218e-05 0)
(0.00143109 0.000109133 0)
(0.00148567 0.000172294 0)
(0.00153622 0.000234144 0)
(0.00158236 0.000293809 0)
(0.00162365 0.000350441 0)
(0.00165962 0.000403195 0)
(0.00168979 0.000451233 0)
(0.00171374 0.000493737 0)
(0.00173107 0.000529936 0)
(0.00174149 0.000559179 0)
(0.00174489 0.00058096 0)
(0.00174133 0.000594922 0)
(0.00173105 0.000600953 0)
(0.00171446 0.000599238 0)
(0.00169215 0.000590114 0)
(0.00166482 0.000574076 0)
(0.00163321 0.000552023 0)
(0.0015981 0.000525113 0)
(0.00156052 0.000494268 0)
(0.00152162 0.000460434 0)
(0.00148236 0.000425252 0)
(0.00144357 0.000390426 0)
(0.00140643 0.00035616 0)
(0.00137214 0.000321429 0)
(0.0013409 0.00028651 0)
(0.00131134 0.000254578 0)
(0.00128177 0.000229753 0)
(0.00125213 0.000213311 0)
(0.00122463 0.000202115 0)
(0.00120249 0.000190752 0)
(0.00118762 0.000175054 0)
(0.0011793 0.000153989 0)
(0.00117472 0.000129121 0)
(0.00117095 0.000103027 0)
(0.00116689 7.80877e-05 0)
(0.00116383 5.59213e-05 0)
(0.00116441 3.72132e-05 0)
(0.00117043 2.13434e-05 0)
(0.00118076 5.97837e-06 0)
(0.00119032 -1.16858e-05 0)
(0.00119152 -3.08841e-05 0)
(0.00117854 -4.4011e-05 0)
(0.00115015 -4.09156e-05 0)
(0.00070162 0.000511648 0)
(0.000681481 0.000514538 0)
(0.000656883 0.000512995 0)
(0.000624945 0.000506349 0)
(0.000586756 0.00049609 0)
(0.000542535 0.000484967 0)
(0.000491623 0.000474905 0)
(0.000434027 0.000466293 0)
(0.000370817 0.000458452 0)
(0.000303813 0.000450025 0)
(0.000235344 0.000439324 0)
(0.000167898 0.000424657 0)
(0.000103777 0.000404638 0)
(4.50035e-05 0.000378314 0)
(-7.16778e-06 0.000345208 0)
(-5.15667e-05 0.000305286 0)
(-8.7319e-05 0.000258922 0)
(-0.000114447 0.000206813 0)
(-0.000133155 0.000149872 0)
(-0.000143824 8.91382e-05 0)
(-0.000146695 2.57123e-05 0)
(-0.000142894 -3.9624e-05 0)
(-0.000133651 -0.000105509 0)
(-0.00011931 -0.000170779 0)
(-0.000100352 -0.000234379 0)
(-7.72698e-05 -0.000295386 0)
(-5.04582e-05 -0.000352965 0)
(-2.02369e-05 -0.000406371 0)
(1.32879e-05 -0.000454926 0)
(5.00858e-05 -0.000498072 0)
(9.0185e-05 -0.000535038 0)
(0.00013378 -0.000565334 0)
(0.000181146 -0.000588365 0)
(0.000232505 -0.00060356 0)
(0.00028799 -0.000610413 0)
(0.000347601 -0.0006085 0)
(0.000411114 -0.000597562 0)
(0.000478102 -0.000577542 0)
(0.000547922 -0.000548648 0)
(0.000619786 -0.000511359 0)
(0.000692832 -0.000466406 0)
(0.000766192 -0.000414716 0)
(0.000839044 -0.000357327 0)
(0.000910733 -0.000295316 0)
(0.000980721 -0.000229729 0)
(0.00104856 -0.000161539 0)
(0.00111396 -9.16948e-05 0)
(0.00117681 -2.1078e-05 0)
(0.00123706 4.95802e-05 0)
(0.00129418 0.000119506 0)
(0.00134781 0.000188031 0)
(0.00139778 0.000254395 0)
(0.00144376 0.000317785 0)
(0.00148537 0.000377365 0)
(0.00152219 0.000432276 0)
(0.00155384 0.000481674 0)
(0.00157995 0.000524755 0)
(0.00160021 0.000560768 0)
(0.00161438 0.000589085 0)
(0.00162229 0.000609268 0)
(0.00162385 0.00062102 0)
(0.00161917 0.000624193 0)
(0.00160849 0.000619011 0)
(0.00159223 0.000606099 0)
(0.00157109 0.000586136 0)
(0.00154594 0.000559893 0)
(0.00151756 0.000528812 0)
(0.00148665 0.000494724 0)
(0.00145424 0.000458709 0)