/*--------------------------------*- C++ -*----------------------------------*\
| =========                 |                                                 |
| \\      /  F ield         | OpenFOAM: The Open Source CFD Toolbox           |
|  \\    /   O peration     | Version:  2312                                  |
|   \\  /    A nd           | Website:  www.openfoam.com                      |
|    \\/     M anipulation  |                                                 |
\*---------------------------------------------------------------------------*/
FoamFile
{
    version     2.0;
    format      ascii;
    arch        "LSB;label=32;scalar=64";
    class       volScalarField;
    location    "140000";
    object      p;
}
// * * * * * * * * * * * * * * * * * * * * * * * * * * * * * * * * * * * * * //

dimensions      [0 2 -2 0 0 0 0];

internalField   nonuniform List<scalar> 
10800
(
5.60718e-07
5.46594e-07
5.32825e-07
5.22245e-07
5.14819e-07
5.09423e-07
5.04966e-07
5.0088e-07
4.96997e-07
4.93324e-07
4.89899e-07
4.86725e-07
4.83769e-07
4.8098e-07
4.78314e-07
4.75736e-07
4.73224e-07
4.70766e-07
4.68352e-07
4.65971e-07
4.63616e-07
4.6128e-07
4.58955e-07
4.56636e-07
4.54318e-07
4.51998e-07
4.49673e-07
4.4734e-07
4.44997e-07
4.42643e-07
4.40275e-07
4.37894e-07
4.35498e-07
4.33087e-07
4.3066e-07
4.28219e-07
4.25762e-07
4.23291e-07
4.20805e-07
4.18304e-07
4.1579e-07
4.13263e-07
4.10721e-07
4.08167e-07
4.05599e-07
4.03016e-07
4.0042e-07
3.97805e-07
3.95178e-07
3.9252e-07
3.89855e-07
3.8713e-07
3.84429e-07
3.81576e-07
3.78879e-07
3.7569e-07
3.73284e-07
3.68814e-07
3.68452e-07
3.57805e-07
5.12681e-07
5.10953e-07
5.08306e-07
5.05178e-07
5.01959e-07
4.9886e-07
4.95932e-07
4.9314e-07
4.90431e-07
4.87777e-07
4.85171e-07
4.82619e-07
4.80128e-07
4.77696e-07
4.75319e-07
4.72986e-07
4.70689e-07
4.6842e-07
4.66172e-07
4.63942e-07
4.61724e-07
4.59515e-07
4.57311e-07
4.55109e-07
4.52905e-07
4.50698e-07
4.48484e-07
4.46262e-07
4.4403e-07
4.41787e-07
4.39533e-07
4.37264e-07
4.34983e-07
4.32687e-07
4.30377e-07
4.28051e-07
4.25713e-07
4.23357e-07
4.20991e-07
4.18605e-07
4.16211e-07
4.13795e-07
4.11376e-07
4.08929e-07
4.06486e-07
4.04005e-07
4.01542e-07
3.99023e-07
3.96548e-07
3.93989e-07
3.91522e-07
3.88922e-07
3.86518e-07
3.83897e-07
3.81688e-07
3.79112e-07
3.77432e-07
3.7498e-07
3.74437e-07
3.71692e-07
5.03955e-07
5.03204e-07
5.01789e-07
4.99835e-07
4.97548e-07
4.95124e-07
4.92689e-07
4.90294e-07
4.87942e-07
4.85621e-07
4.8332e-07
4.8104e-07
4.78786e-07
4.76562e-07
4.74372e-07
4.72212e-07
4.7008e-07
4.67968e-07
4.65875e-07
4.63794e-07
4.61723e-07
4.5966e-07
4.57601e-07
4.55545e-07
4.53488e-07
4.51429e-07
4.49367e-07
4.47298e-07
4.45222e-07
4.43138e-07
4.41045e-07
4.38941e-07
4.36828e-07
4.34702e-07
4.32566e-07
4.30416e-07
4.28257e-07
4.26082e-07
4.23899e-07
4.21699e-07
4.19492e-07
4.17266e-07
4.15035e-07
4.12782e-07
4.1053e-07
4.0825e-07
4.05979e-07
4.03671e-07
4.01388e-07
3.99055e-07
3.9677e-07
3.94417e-07
3.92152e-07
3.89787e-07
3.87575e-07
3.85211e-07
3.83103e-07
3.80746e-07
3.78781e-07
3.76338e-07
4.92236e-07
4.91802e-07
4.91014e-07
4.89922e-07
4.88595e-07
4.87104e-07
4.85506e-07
4.8384e-07
4.82127e-07
4.80379e-07
4.78601e-07
4.768e-07
4.74981e-07
4.7315e-07
4.71313e-07
4.69472e-07
4.6763e-07
4.65785e-07
4.63939e-07
4.6209e-07
4.60238e-07
4.58382e-07
4.56522e-07
4.54657e-07
4.52786e-07
4.5091e-07
4.49026e-07
4.47136e-07
4.45237e-07
4.4333e-07
4.41415e-07
4.39491e-07
4.37558e-07
4.35615e-07
4.33664e-07
4.31703e-07
4.29733e-07
4.27752e-07
4.25764e-07
4.23763e-07
4.21755e-07
4.19734e-07
4.17705e-07
4.15662e-07
4.1361e-07
4.1154e-07
4.09462e-07
4.0736e-07
4.05249e-07
4.03108e-07
4.00958e-07
3.98768e-07
3.96572e-07
3.94327e-07
3.92082e-07
3.89774e-07
3.87475e-07
3.85095e-07
3.82733e-07
3.80286e-07
4.85559e-07
4.85345e-07
4.84913e-07
4.84266e-07
4.8342e-07
4.82403e-07
4.81249e-07
4.79988e-07
4.78644e-07
4.77235e-07
4.75773e-07
4.74266e-07
4.72723e-07
4.71149e-07
4.69551e-07
4.67932e-07
4.66298e-07
4.64651e-07
4.62992e-07
4.61323e-07
4.59645e-07
4.57958e-07
4.56264e-07
4.54563e-07
4.52854e-07
4.51139e-07
4.49417e-07
4.47688e-07
4.45953e-07
4.44212e-07
4.42466e-07
4.40713e-07
4.38954e-07
4.3719e-07
4.35421e-07
4.33646e-07
4.31866e-07
4.30082e-07
4.28292e-07
4.26497e-07
4.24696e-07
4.2289e-07
4.21079e-07
4.1926e-07
4.17435e-07
4.15602e-07
4.1376e-07
4.11907e-07
4.10041e-07
4.08158e-07
4.06253e-07
4.04319e-07
4.02343e-07
4.00316e-07
3.98219e-07
3.96048e-07
3.93787e-07
3.91446e-07
3.89028e-07
3.86633e-07
4.80065e-07
4.79902e-07
4.79576e-07
4.7909e-07
4.78455e-07
4.77686e-07
4.76802e-07
4.75821e-07
4.74758e-07
4.73626e-07
4.72434e-07
4.71191e-07
4.69903e-07
4.68576e-07
4.67215e-07
4.65825e-07
4.6441e-07
4.62972e-07
4.61516e-07
4.60043e-07
4.58555e-07
4.57053e-07
4.5554e-07
4.54016e-07
4.52482e-07
4.5094e-07
4.4939e-07
4.47833e-07
4.46269e-07
4.44701e-07
4.43127e-07
4.41549e-07
4.39967e-07
4.38382e-07
4.36794e-07
4.35204e-07
4.33612e-07
4.32019e-07
4.30423e-07
4.28827e-07
4.27229e-07
4.25629e-07
4.24027e-07
4.22421e-07
4.2081e-07
4.19192e-07
4.17564e-07
4.15926e-07
4.14271e-07
4.12601e-07
4.1091e-07
4.09202e-07
4.07465e-07
4.05702e-07
4.03887e-07
4.02023e-07
4.00078e-07
3.98079e-07
3.96022e-07
3.94034e-07
4.75748e-07
4.75629e-07
4.75391e-07
4.75033e-07
4.74561e-07
4.73981e-07
4.73302e-07
4.72535e-07
4.71689e-07
4.70773e-07
4.69796e-07
4.68764e-07
4.67683e-07
4.66558e-07
4.65394e-07
4.64195e-07
4.62965e-07
4.61709e-07
4.60428e-07
4.59126e-07
4.57805e-07
4.56468e-07
4.55116e-07
4.53752e-07
4.52377e-07
4.50992e-07
4.49599e-07
4.48199e-07
4.46794e-07
4.45385e-07
4.43973e-07
4.42558e-07
4.41143e-07
4.39727e-07
4.38313e-07
4.369e-07
4.35489e-07
4.34082e-07
4.32679e-07
4.3128e-07
4.29885e-07
4.28495e-07
4.2711e-07
4.25731e-07
4.24355e-07
4.22985e-07
4.21617e-07
4.20251e-07
4.18881e-07
4.17505e-07
4.16112e-07
4.14703e-07
4.13265e-07
4.11805e-07
4.10309e-07
4.08787e-07
4.07215e-07
4.0562e-07
4.04e-07
4.02471e-07
4.7233e-07
4.72237e-07
4.72051e-07
4.71771e-07
4.71398e-07
4.70937e-07
4.70391e-07
4.69769e-07
4.69075e-07
4.68316e-07
4.67497e-07
4.66624e-07
4.65702e-07
4.64735e-07
4.63729e-07
4.62686e-07
4.61612e-07
4.60509e-07
4.5938e-07
4.58228e-07
4.57056e-07
4.55867e-07
4.54663e-07
4.53445e-07
4.52216e-07
4.50977e-07
4.49732e-07
4.4848e-07
4.47225e-07
4.45966e-07
4.44707e-07
4.43449e-07
4.42192e-07
4.40939e-07
4.3969e-07
4.38447e-07
4.37212e-07
4.35985e-07
4.34767e-07
4.33559e-07
4.32363e-07
4.31179e-07
4.30006e-07
4.28847e-07
4.27699e-07
4.26564e-07
4.25441e-07
4.24331e-07
4.23231e-07
4.22145e-07
4.21064e-07
4.19987e-07
4.18905e-07
4.1782e-07
4.16721e-07
4.15618e-07
4.14499e-07
4.13389e-07
4.12297e-07
4.11328e-07
4.69602e-07
4.69526e-07
4.69374e-07
4.69144e-07
4.68838e-07
4.68458e-07
4.68006e-07
4.67486e-07
4.66904e-07
4.66263e-07
4.65567e-07
4.6482e-07
4.64027e-07
4.63191e-07
4.62316e-07
4.61406e-07
4.60464e-07
4.59494e-07
4.58497e-07
4.57478e-07
4.56438e-07
4.5538e-07
4.54308e-07
4.53222e-07
4.52126e-07
4.51021e-07
4.49909e-07
4.48794e-07
4.47675e-07
4.46557e-07
4.45439e-07
4.44325e-07
4.43217e-07
4.42115e-07
4.41022e-07
4.3994e-07
4.3887e-07
4.37814e-07
4.36773e-07
4.35751e-07
4.34747e-07
4.33763e-07
4.32802e-07
4.31864e-07
4.3095e-07
4.30062e-07
4.29199e-07
4.28364e-07
4.27551e-07
4.26764e-07
4.26e-07
4.25264e-07
4.24551e-07
4.23864e-07
4.23196e-07
4.22555e-07
4.21934e-07
4.21356e-07
4.20831e-07
4.2045e-07
4.67438e-07
4.67374e-07
4.67246e-07
4.67052e-07
4.66793e-07
4.6647e-07
4.66086e-07
4.65643e-07
4.65144e-07
4.64592e-07
4.6399e-07
4.63343e-07
4.62652e-07
4.61921e-07
4.61153e-07
4.60351e-07
4.59518e-07
4.58658e-07
4.57773e-07
4.56865e-07
4.55937e-07
4.54993e-07
4.54034e-07
4.53062e-07
4.52081e-07
4.51093e-07
4.501e-07
4.49104e-07
4.48107e-07
4.47113e-07
4.46122e-07
4.45138e-07
4.44162e-07
4.43197e-07
4.42246e-07
4.4131e-07
4.40391e-07
4.39492e-07
4.38616e-07
4.37764e-07
4.36939e-07
4.36143e-07
4.35379e-07
4.34649e-07
4.33955e-07
4.33299e-07
4.32683e-07
4.32107e-07
4.31574e-07
4.31087e-07
4.30648e-07
4.3026e-07
4.29922e-07
4.2964e-07
4.2941e-07
4.29241e-07
4.2913e-07
4.291e-07
4.29163e-07
4.29395e-07
4.6575e-07
4.65695e-07
4.65584e-07
4.65415e-07
4.65191e-07
4.6491e-07
4.64575e-07
4.64188e-07
4.63752e-07
4.63267e-07
4.62738e-07
4.62166e-07
4.61555e-07
4.60906e-07
4.60222e-07
4.59507e-07
4.58762e-07
4.57991e-07
4.57197e-07
4.56381e-07
4.55546e-07
4.54696e-07
4.53832e-07
4.52957e-07
4.52074e-07
4.51185e-07
4.50293e-07
4.494e-07
4.48509e-07
4.47621e-07
4.46741e-07
4.4587e-07
4.45011e-07
4.44167e-07
4.4334e-07
4.42533e-07
4.41749e-07
4.40991e-07
4.40262e-07
4.39564e-07
4.38902e-07
4.38277e-07
4.37693e-07
4.37155e-07
4.36664e-07
4.36222e-07
4.35834e-07
4.35504e-07
4.35235e-07
4.35034e-07
4.34903e-07
4.34846e-07
4.34867e-07
4.34972e-07
4.35164e-07
4.35451e-07
4.35837e-07
4.36342e-07
4.3698e-07
4.37811e-07
4.64475e-07
4.64426e-07
4.64327e-07
4.64177e-07
4.63977e-07
4.63727e-07
4.63428e-07
4.63082e-07
4.62691e-07
4.62257e-07
4.61782e-07
4.61267e-07
4.60715e-07
4.60129e-07
4.5951e-07
4.58862e-07
4.58186e-07
4.57485e-07
4.56762e-07
4.5602e-07
4.55259e-07
4.54485e-07
4.53698e-07
4.52901e-07
4.52098e-07
4.5129e-07
4.50481e-07
4.49672e-07
4.48868e-07
4.4807e-07
4.47281e-07
4.46504e-07
4.45743e-07
4.45e-07
4.44278e-07
4.4358e-07
4.4291e-07
4.42271e-07
4.41667e-07
4.41101e-07
4.40577e-07
4.40099e-07
4.39671e-07
4.39297e-07
4.38979e-07
4.38724e-07
4.38538e-07
4.38425e-07
4.38391e-07
4.38442e-07
4.38584e-07
4.38823e-07
4.39165e-07
4.39619e-07
4.40191e-07
4.40892e-07
4.4173e-07
4.42724e-07
4.4389e-07
4.45272e-07
4.63567e-07
4.63522e-07
4.63431e-07
4.63295e-07
4.63112e-07
4.62883e-07
4.62609e-07
4.62293e-07
4.61934e-07
4.61535e-07
4.61098e-07
4.60624e-07
4.60116e-07
4.59575e-07
4.59004e-07
4.58405e-07
4.5778e-07
4.57131e-07
4.56461e-07
4.55773e-07
4.55069e-07
4.54351e-07
4.53622e-07
4.52885e-07
4.52143e-07
4.51397e-07
4.50651e-07
4.49908e-07
4.4917e-07
4.48441e-07
4.47723e-07
4.4702e-07
4.46335e-07
4.4567e-07
4.45031e-07
4.44419e-07
4.43838e-07
4.43293e-07
4.42788e-07
4.42326e-07
4.41913e-07
4.41551e-07
4.41246e-07
4.41002e-07
4.40826e-07
4.40724e-07
4.40701e-07
4.40765e-07
4.40922e-07
4.41178e-07
4.41543e-07
4.42024e-07
4.42631e-07
4.43373e-07
4.44261e-07
4.45306e-07
4.46521e-07
4.47923e-07
4.49532e-07
4.51377e-07
4.62994e-07
4.62952e-07
4.62867e-07
4.62738e-07
4.62566e-07
4.62351e-07
4.62093e-07
4.61795e-07
4.61457e-07
4.61082e-07
4.60669e-07
4.60222e-07
4.59742e-07
4.59231e-07
4.58691e-07
4.58125e-07
4.57533e-07
4.56919e-07
4.56285e-07
4.55634e-07
4.54967e-07
4.54288e-07
4.53598e-07
4.52901e-07
4.522e-07
4.51497e-07
4.50794e-07
4.50096e-07
4.49404e-07
4.48722e-07
4.48053e-07
4.474e-07
4.46768e-07
4.46158e-07
4.45576e-07
4.45024e-07
4.44506e-07
4.44027e-07
4.43591e-07
4.43202e-07
4.42864e-07
4.42583e-07
4.42366e-07
4.42216e-07
4.42141e-07
4.42147e-07
4.42241e-07
4.4243e-07
4.42722e-07
4.43126e-07
4.4365e-07
4.44305e-07
4.45101e-07
4.4605e-07
4.47166e-07
4.48459e-07
4.49948e-07
4.51647e-07
4.53578e-07
4.5576e-07
4.62736e-07
4.62695e-07
4.62613e-07
4.62488e-07
4.62321e-07
4.62113e-07
4.61864e-07
4.61575e-07
4.61247e-07
4.60883e-07
4.60483e-07
4.6005e-07
4.59584e-07
4.59088e-07
4.58564e-07
4.58014e-07
4.57439e-07
4.56843e-07
4.56227e-07
4.55595e-07
4.54947e-07
4.54288e-07
4.53619e-07
4.52943e-07
4.52263e-07
4.51582e-07
4.50903e-07
4.50227e-07
4.4956e-07
4.48903e-07
4.4826e-07
4.47635e-07
4.4703e-07
4.46449e-07
4.45896e-07
4.45375e-07
4.44891e-07
4.44446e-07
4.44046e-07
4.43696e-07
4.434e-07
4.43164e-07
4.42994e-07
4.42896e-07
4.42875e-07
4.42939e-07
4.43096e-07
4.43352e-07
4.43718e-07
4.442e-07
4.4481e-07
4.45558e-07
4.46456e-07
4.47516e-07
4.48753e-07
4.5018e-07
4.51816e-07
4.53675e-07
4.5578e-07
4.58144e-07
4.62783e-07
4.62742e-07
4.6266e-07
4.62535e-07
4.62369e-07
4.62161e-07
4.61912e-07
4.61623e-07
4.61296e-07
4.60932e-07
4.60533e-07
4.601e-07
4.59635e-07
4.5914e-07
4.58617e-07
4.58067e-07
4.57494e-07
4.56899e-07
4.56284e-07
4.55653e-07
4.55007e-07
4.54349e-07
4.53681e-07
4.53007e-07
4.52328e-07
4.51649e-07
4.50971e-07
4.50298e-07
4.49632e-07
4.48978e-07
4.48337e-07
4.47714e-07
4.47111e-07
4.46533e-07
4.45983e-07
4.45465e-07
4.44983e-07
4.44542e-07
4.44146e-07
4.43799e-07
4.43508e-07
4.43277e-07
4.43111e-07
4.43017e-07
4.43002e-07
4.43071e-07
4.43233e-07
4.43495e-07
4.43866e-07
4.44354e-07
4.44971e-07
4.45727e-07
4.46632e-07
4.477e-07
4.48945e-07
4.5038e-07
4.52025e-07
4.53893e-07
4.56007e-07
4.58379e-07
4.63134e-07
4.63092e-07
4.63007e-07
4.62879e-07
4.62708e-07
4.62494e-07
4.62237e-07
4.6194e-07
4.61604e-07
4.6123e-07
4.60819e-07
4.60374e-07
4.59896e-07
4.59387e-07
4.5885e-07
4.58286e-07
4.57697e-07
4.57086e-07
4.56455e-07
4.55807e-07
4.55144e-07
4.54469e-07
4.53784e-07
4.53092e-07
4.52395e-07
4.51697e-07
4.51e-07
4.50307e-07
4.49621e-07
4.48946e-07
4.48284e-07
4.47638e-07
4.47013e-07
4.46411e-07
4.45836e-07
4.45293e-07
4.44784e-07
4.44314e-07
4.43888e-07
4.4351e-07
4.43185e-07
4.42918e-07
4.42714e-07
4.42579e-07
4.42519e-07
4.42541e-07
4.42651e-07
4.42856e-07
4.43164e-07
4.43584e-07
4.44125e-07
4.44798e-07
4.45616e-07
4.46588e-07
4.47729e-07
4.49049e-07
4.50565e-07
4.52291e-07
4.54251e-07
4.56462e-07
4.638e-07
4.63755e-07
4.63665e-07
4.63529e-07
4.63347e-07
4.6312e-07
4.62848e-07
4.62533e-07
4.62176e-07
4.6178e-07
4.61346e-07
4.60875e-07
4.6037e-07
4.59833e-07
4.59266e-07
4.58671e-07
4.58051e-07
4.57408e-07
4.56743e-07
4.56061e-07
4.55363e-07
4.54652e-07
4.5393e-07
4.53201e-07
4.52466e-07
4.51729e-07
4.50992e-07
4.50258e-07
4.49531e-07
4.48812e-07
4.48106e-07
4.47414e-07
4.46741e-07
4.4609e-07
4.45464e-07
4.44866e-07
4.44301e-07
4.43772e-07
4.43284e-07
4.4284e-07
4.42444e-07
4.42102e-07
4.41819e-07
4.41599e-07
4.41447e-07
4.4137e-07
4.41374e-07
4.41463e-07
4.41647e-07
4.41933e-07
4.42329e-07
4.42844e-07
4.43487e-07
4.44267e-07
4.45194e-07
4.46281e-07
4.47541e-07
4.48988e-07
4.50644e-07
4.52537e-07
4.64798e-07
4.64749e-07
4.64651e-07
4.64502e-07
4.64304e-07
4.64056e-07
4.63759e-07
4.63416e-07
4.63028e-07
4.62597e-07
4.62126e-07
4.61615e-07
4.61068e-07
4.60487e-07
4.59875e-07
4.59232e-07
4.58563e-07
4.57869e-07
4.57154e-07
4.56419e-07
4.55668e-07
4.54902e-07
4.54125e-07
4.53339e-07
4.52547e-07
4.51751e-07
4.50954e-07
4.50159e-07
4.49368e-07
4.48585e-07
4.47812e-07
4.47051e-07
4.46307e-07
4.45582e-07
4.44879e-07
4.44202e-07
4.43553e-07
4.42936e-07
4.42355e-07
4.41814e-07
4.41315e-07
4.40864e-07
4.40464e-07
4.40119e-07
4.39835e-07
4.39616e-07
4.39466e-07
4.39391e-07
4.39396e-07
4.39489e-07
4.39673e-07
4.39958e-07
4.40349e-07
4.40854e-07
4.4148e-07
4.42238e-07
4.43137e-07
4.44193e-07
4.45424e-07
4.46871e-07
4.66161e-07
4.66106e-07
4.65996e-07
4.65829e-07
4.65606e-07
4.65328e-07
4.64996e-07
4.64613e-07
4.6418e-07
4.637e-07
4.63176e-07
4.62609e-07
4.62004e-07
4.61361e-07
4.60685e-07
4.59978e-07
4.59242e-07
4.5848e-07
4.57695e-07
4.56889e-07
4.56066e-07
4.55227e-07
4.54376e-07
4.53515e-07
4.52646e-07
4.51772e-07
4.50895e-07
4.50019e-07
4.49145e-07
4.48277e-07
4.47416e-07
4.46566e-07
4.45729e-07
4.44908e-07
4.44105e-07
4.43323e-07
4.42566e-07
4.41836e-07
4.41136e-07
4.4047e-07
4.39839e-07
4.39248e-07
4.387e-07
4.38199e-07
4.37747e-07
4.37348e-07
4.37007e-07
4.36726e-07
4.3651e-07
4.36361e-07
4.36283e-07
4.36284e-07
4.36365e-07
4.36534e-07
4.36794e-07
4.37152e-07
4.37614e-07
4.38197e-07
4.38916e-07
4.39828e-07
4.67933e-07
4.67869e-07
4.67742e-07
4.6755e-07
4.67293e-07
4.66974e-07
4.66593e-07
4.66154e-07
4.6566e-07
4.65113e-07
4.64518e-07
4.63877e-07
4.63193e-07
4.6247e-07
4.61711e-07
4.60919e-07
4.60096e-07
4.59247e-07
4.58373e-07
4.57478e-07
4.56564e-07
4.55634e-07
4.5469e-07
4.53734e-07
4.52771e-07
4.518e-07
4.50826e-07
4.4985e-07
4.48875e-07
4.47903e-07
4.46936e-07
4.45976e-07
4.45027e-07
4.4409e-07
4.43167e-07
4.42261e-07
4.41374e-07
4.40509e-07
4.39668e-07
4.38854e-07
4.38067e-07
4.37312e-07
4.36591e-07
4.35905e-07
4.35258e-07
4.34651e-07
4.34087e-07
4.33568e-07
4.33097e-07
4.32676e-07
4.32304e-07
4.31984e-07
4.31718e-07
4.31511e-07
4.3136e-07
4.31275e-07
4.31254e-07
4.31317e-07
4.31476e-07
4.31803e-07
4.70176e-07
4.70101e-07
4.6995e-07
4.69723e-07
4.69419e-07
4.69042e-07
4.68595e-07
4.6808e-07
4.67504e-07
4.66869e-07
4.6618e-07
4.65441e-07
4.64656e-07
4.6383e-07
4.62966e-07
4.62067e-07
4.61137e-07
4.60179e-07
4.59196e-07
4.58191e-07
4.57167e-07
4.56126e-07
4.55071e-07
4.54004e-07
4.52928e-07
4.51843e-07
4.50754e-07
4.49662e-07
4.48568e-07
4.47475e-07
4.46385e-07
4.453e-07
4.44221e-07
4.43151e-07
4.42092e-07
4.41044e-07
4.40011e-07
4.38994e-07
4.37994e-07
4.37014e-07
4.36055e-07
4.35118e-07
4.34205e-07
4.33318e-07
4.32458e-07
4.31627e-07
4.30824e-07
4.30052e-07
4.2931e-07
4.28598e-07
4.27914e-07
4.27257e-07
4.26626e-07
4.26025e-07
4.25448e-07
4.24903e-07
4.24383e-07
4.23909e-07
4.23493e-07
4.2322e-07
4.72979e-07
4.72887e-07
4.72703e-07
4.72425e-07
4.72055e-07
4.71598e-07
4.71057e-07
4.7044e-07
4.69753e-07
4.69001e-07
4.6819e-07
4.67326e-07
4.66414e-07
4.65459e-07
4.64464e-07
4.63434e-07
4.62374e-07
4.61285e-07
4.60172e-07
4.59037e-07
4.57883e-07
4.56713e-07
4.55528e-07
4.54332e-07
4.53125e-07
4.51911e-07
4.5069e-07
4.49464e-07
4.48237e-07
4.47008e-07
4.45779e-07
4.44553e-07
4.4333e-07
4.42112e-07
4.40901e-07
4.39698e-07
4.38503e-07
4.37319e-07
4.36147e-07
4.34988e-07
4.33842e-07
4.3271e-07
4.31593e-07
4.30493e-07
4.29407e-07
4.28338e-07
4.27283e-07
4.26243e-07
4.25215e-07
4.24201e-07
4.23198e-07
4.22209e-07
4.21224e-07
4.20241e-07
4.19247e-07
4.1825e-07
4.17241e-07
4.16247e-07
4.15275e-07
4.14428e-07
4.76467e-07
4.76348e-07
4.76112e-07
4.75757e-07
4.75288e-07
4.74713e-07
4.74039e-07
4.73278e-07
4.72439e-07
4.71532e-07
4.70564e-07
4.69542e-07
4.68472e-07
4.67359e-07
4.66209e-07
4.65024e-07
4.6381e-07
4.62569e-07
4.61306e-07
4.60023e-07
4.58722e-07
4.57406e-07
4.56077e-07
4.54736e-07
4.53385e-07
4.52027e-07
4.50661e-07
4.49291e-07
4.47916e-07
4.46539e-07
4.4516e-07
4.43781e-07
4.42403e-07
4.41027e-07
4.39653e-07
4.38283e-07
4.36918e-07
4.35558e-07
4.34204e-07
4.32857e-07
4.31517e-07
4.30184e-07
4.28859e-07
4.27542e-07
4.26231e-07
4.24928e-07
4.23631e-07
4.2234e-07
4.2105e-07
4.19764e-07
4.18469e-07
4.17166e-07
4.15838e-07
4.14486e-07
4.13094e-07
4.11679e-07
4.10224e-07
4.08755e-07
4.07267e-07
4.0587e-07
4.80846e-07
4.80685e-07
4.80361e-07
4.79878e-07
4.79247e-07
4.78484e-07
4.77606e-07
4.76632e-07
4.75577e-07
4.74454e-07
4.73273e-07
4.72042e-07
4.70766e-07
4.69453e-07
4.68107e-07
4.66733e-07
4.65335e-07
4.63916e-07
4.62479e-07
4.61026e-07
4.5956e-07
4.58082e-07
4.56593e-07
4.55095e-07
4.53588e-07
4.52074e-07
4.50554e-07
4.49029e-07
4.47498e-07
4.45964e-07
4.44427e-07
4.42887e-07
4.41345e-07
4.39802e-07
4.38259e-07
4.36715e-07
4.35172e-07
4.33629e-07
4.32088e-07
4.30548e-07
4.29009e-07
4.27471e-07
4.25934e-07
4.24398e-07
4.22859e-07
4.21319e-07
4.19772e-07
4.1822e-07
4.16654e-07
4.15076e-07
4.13477e-07
4.1186e-07
4.10215e-07
4.08551e-07
4.06849e-07
4.05113e-07
4.03311e-07
4.01459e-07
3.99549e-07
3.97702e-07
4.86395e-07
4.86182e-07
4.85751e-07
4.85107e-07
4.84266e-07
4.83255e-07
4.82107e-07
4.80854e-07
4.7952e-07
4.78121e-07
4.76671e-07
4.75177e-07
4.73648e-07
4.72089e-07
4.70508e-07
4.68907e-07
4.67292e-07
4.65665e-07
4.64027e-07
4.62381e-07
4.60727e-07
4.59066e-07
4.57398e-07
4.55724e-07
4.54045e-07
4.5236e-07
4.5067e-07
4.48976e-07
4.47276e-07
4.45572e-07
4.43864e-07
4.42152e-07
4.40436e-07
4.38716e-07
4.36993e-07
4.35267e-07
4.33539e-07
4.31807e-07
4.30073e-07
4.28337e-07
4.26598e-07
4.24857e-07
4.23112e-07
4.21364e-07
4.19613e-07
4.17856e-07
4.16094e-07
4.14324e-07
4.12546e-07
4.10756e-07
4.0895e-07
4.07122e-07
4.05263e-07
4.03363e-07
4.01404e-07
3.99373e-07
3.97251e-07
3.9505e-07
3.92778e-07
3.90523e-07
4.93122e-07
4.9269e-07
4.91905e-07
4.90816e-07
4.89494e-07
4.88009e-07
4.86419e-07
4.84762e-07
4.8306e-07
4.81323e-07
4.79559e-07
4.77772e-07
4.75968e-07
4.74155e-07
4.72336e-07
4.70515e-07
4.68693e-07
4.66871e-07
4.65048e-07
4.63224e-07
4.61398e-07
4.59569e-07
4.57738e-07
4.55903e-07
4.54064e-07
4.5222e-07
4.50371e-07
4.48516e-07
4.46655e-07
4.44787e-07
4.42913e-07
4.41031e-07
4.39143e-07
4.37247e-07
4.35345e-07
4.33434e-07
4.31518e-07
4.29594e-07
4.27663e-07
4.25725e-07
4.23781e-07
4.21828e-07
4.19871e-07
4.17902e-07
4.15929e-07
4.13943e-07
4.11952e-07
4.09943e-07
4.07931e-07
4.05893e-07
4.03851e-07
4.01775e-07
3.99699e-07
3.97576e-07
3.95457e-07
3.93277e-07
3.91109e-07
3.88861e-07
3.86642e-07
3.84348e-07
5.04875e-07
5.04125e-07
5.02713e-07
5.00763e-07
4.98482e-07
4.96066e-07
4.9364e-07
4.91256e-07
4.88916e-07
4.86608e-07
4.84322e-07
4.82058e-07
4.79822e-07
4.77618e-07
4.75448e-07
4.7331e-07
4.71201e-07
4.69114e-07
4.67046e-07
4.64992e-07
4.6295e-07
4.60916e-07
4.58888e-07
4.56863e-07
4.5484e-07
4.52815e-07
4.50789e-07
4.48757e-07
4.4672e-07
4.44677e-07
4.42626e-07
4.40566e-07
4.38498e-07
4.3642e-07
4.34334e-07
4.32237e-07
4.30131e-07
4.28014e-07
4.2589e-07
4.23753e-07
4.21611e-07
4.19453e-07
4.17295e-07
4.15117e-07
4.12943e-07
4.10745e-07
4.0856e-07
4.06342e-07
4.04152e-07
4.01917e-07
3.99736e-07
3.97491e-07
3.9534e-07
3.93097e-07
3.91016e-07
3.88791e-07
3.86833e-07
3.84633e-07
3.8284e-07
3.80566e-07
5.13633e-07
5.11906e-07
5.09263e-07
5.0614e-07
5.02927e-07
4.99837e-07
4.96919e-07
4.94139e-07
4.91444e-07
4.88806e-07
4.86217e-07
4.83683e-07
4.81212e-07
4.78802e-07
4.76447e-07
4.74139e-07
4.71867e-07
4.69625e-07
4.67406e-07
4.65204e-07
4.63017e-07
4.60839e-07
4.58668e-07
4.56499e-07
4.54331e-07
4.52159e-07
4.49982e-07
4.47799e-07
4.45607e-07
4.43405e-07
4.41193e-07
4.3897e-07
4.36735e-07
4.34487e-07
4.32228e-07
4.29955e-07
4.27672e-07
4.25374e-07
4.23068e-07
4.20746e-07
4.18419e-07
4.16074e-07
4.13728e-07
4.11358e-07
4.08996e-07
4.066e-07
4.04225e-07
4.018e-07
3.99421e-07
3.96964e-07
3.94602e-07
3.92114e-07
3.89822e-07
3.87323e-07
3.85239e-07
3.82799e-07
3.81258e-07
3.78956e-07
3.7857e-07
3.75992e-07
5.61683e-07
5.47561e-07
5.33796e-07
5.23222e-07
5.15804e-07
5.10418e-07
5.05973e-07
5.01901e-07
4.98033e-07
4.94378e-07
4.90971e-07
4.87818e-07
4.84883e-07
4.82119e-07
4.79477e-07
4.76925e-07
4.74441e-07
4.72011e-07
4.69626e-07
4.67277e-07
4.64954e-07
4.6265e-07
4.60359e-07
4.58074e-07
4.55792e-07
4.53509e-07
4.51222e-07
4.48927e-07
4.46625e-07
4.44311e-07
4.41987e-07
4.3965e-07
4.373e-07
4.34936e-07
4.3256e-07
4.30171e-07
4.27768e-07
4.25354e-07
4.22928e-07
4.2049e-07
4.18042e-07
4.15583e-07
4.13114e-07
4.10635e-07
4.08146e-07
4.05647e-07
4.03137e-07
4.00613e-07
3.98079e-07
3.9552e-07
3.92956e-07
3.90338e-07
3.87745e-07
3.85008e-07
3.82423e-07
3.79362e-07
3.77068e-07
3.72741e-07
3.72509e-07
3.61969e-07
3.97564e-07
3.46723e-07
3.25453e-07
3.07654e-07
2.89779e-07
2.71785e-07
2.51652e-07
2.30178e-07
2.05095e-07
1.78149e-07
1.46816e-07
1.14037e-07
7.68171e-08
3.94284e-08
-1.79868e-09
-4.11956e-08
-8.37185e-08
-1.22193e-07
-1.63357e-07
-1.98387e-07
-2.36067e-07
-2.65917e-07
-2.98931e-07
-3.22315e-07
-3.50713e-07
-3.65487e-07
-3.93054e-07
-3.94782e-07
-4.27419e-07
-5.24221e-07
3.83512e-07
3.28076e-07
3.13807e-07
2.98621e-07
2.81447e-07
2.63876e-07
2.44046e-07
2.22729e-07
1.97846e-07
1.71276e-07
1.40591e-07
1.08693e-07
7.26685e-08
3.66338e-08
-3.03625e-09
-4.09263e-08
-8.16116e-08
-1.18559e-07
-1.57823e-07
-1.91803e-07
-2.28181e-07
-2.57225e-07
-2.90088e-07
-3.12711e-07
-3.41939e-07
-3.57122e-07
-3.82266e-07
-3.96287e-07
-4.02167e-07
-5.47143e-07
3.71211e-07
3.25595e-07
3.12365e-07
2.97674e-07
2.79978e-07
2.6141e-07
2.41057e-07
2.19402e-07
1.9447e-07
1.67782e-07
1.37334e-07
1.05553e-07
7.00923e-08
3.4444e-08
-4.32657e-09
-4.1573e-08
-8.1275e-08
-1.17795e-07
-1.56507e-07
-1.89948e-07
-2.25864e-07
-2.54779e-07
-2.86475e-07
-3.10633e-07
-3.37176e-07
-3.58066e-07
-3.77488e-07
-4.0561e-07
-3.87851e-07
-4.88492e-07
3.60928e-07
3.21393e-07
3.06049e-07
2.91896e-07
2.74934e-07
2.56961e-07
2.36788e-07
2.1498e-07
1.90099e-07
1.63278e-07
1.33153e-07
1.0143e-07
6.67174e-08
3.13397e-08
-6.23363e-09
-4.31753e-08
-8.13652e-08
-1.17658e-07
-1.54248e-07
-1.88084e-07
-2.21377e-07
-2.5217e-07
-2.81073e-07
-3.08361e-07
-3.31021e-07
-3.57804e-07
-3.68277e-07
-4.05976e-07
-3.83338e-07
-4.51847e-07
3.50985e-07
3.18717e-07
3.02531e-07
2.89526e-07
2.73079e-07
2.54322e-07
2.33625e-07
2.11256e-07
1.86329e-07
1.59118e-07
1.29235e-07
9.72773e-08
6.32471e-08
2.78333e-08
-8.56947e-09
-4.54607e-08
-8.20352e-08
-1.18378e-07
-1.53047e-07
-1.87532e-07
-2.18749e-07
-2.50846e-07
-2.76944e-07
-3.07047e-07
-3.25791e-07
-3.56196e-07
-3.63205e-07
-3.98858e-07
-3.88865e-07
-4.24593e-07
3.42268e-07
3.16909e-07
2.99902e-07
2.86406e-07
2.70225e-07
2.51371e-07
2.30486e-07
2.07633e-07
1.82579e-07
1.5495e-07
1.25185e-07
9.29421e-08
5.94318e-08
2.39326e-08
-1.14749e-08
-4.8323e-08
-8.34491e-08
-1.19827e-07
-1.52754e-07
-1.87559e-07
-2.16825e-07
-2.49607e-07
-2.73907e-07
-3.04909e-07
-3.22574e-07
-3.52444e-07
-3.62041e-07
-3.90311e-07
-3.94798e-07
-4.12629e-07
3.35119e-07
3.1531e-07
2.98221e-07
2.83833e-07
2.67757e-07
2.48836e-07
2.27702e-07
2.04277e-07
1.78916e-07
1.50818e-07
1.20988e-07
8.84625e-08
5.52394e-08
1.97309e-08
-1.49788e-08
-5.15807e-08
-8.56658e-08
-1.21672e-07
-1.53431e-07
-1.87805e-07
-2.16094e-07
-2.48365e-07
-2.72421e-07
-3.02357e-07
-3.21498e-07
-3.48401e-07
-3.62884e-07
-3.8472e-07
-3.96721e-07
-4.09979e-07
3.2977e-07
3.13813e-07
2.97234e-07
2.81857e-07
2.65527e-07
2.46448e-07
2.25e-07
2.01012e-07
1.75185e-07
1.46628e-07
1.16545e-07
8.38097e-08
5.06251e-08
1.5254e-08
-1.90834e-08
-5.5174e-08
-8.86647e-08
-1.23847e-07
-1.55043e-07
-1.88322e-07
-2.16467e-07
-2.47326e-07
-2.72123e-07
-3.00045e-07
-3.21376e-07
-3.45389e-07
-3.63494e-07
-3.82231e-07
-3.97178e-07
-4.09846e-07
3.263e-07
3.12405e-07
2.96493e-07
2.80435e-07
2.63545e-07
2.44132e-07
2.22279e-07
1.97753e-07
1.71336e-07
1.42325e-07
1.11832e-07
7.8942e-08
4.56024e-08
1.04775e-08
-2.37302e-08
-5.91314e-08
-9.23262e-08
-1.26424e-07
-1.57389e-07
-1.8928e-07
-2.17546e-07
-2.46801e-07
-2.72303e-07
-2.98519e-07
-3.21232e-07
-3.43798e-07
-3.63458e-07
-3.81684e-07
-3.97489e-07
-4.11112e-07
3.24452e-07
3.1115e-07
2.95812e-07
2.79371e-07
2.61763e-07
2.41823e-07
2.19443e-07
1.94381e-07
1.67305e-07
1.37823e-07
1.06822e-07
7.37844e-08
4.01917e-08
5.33983e-09
-2.88409e-08
-6.35165e-08
-9.64967e-08
-1.29494e-07
-1.60232e-07
-1.90806e-07
-2.19013e-07
-2.46938e-07
-2.72662e-07
-2.97804e-07
-3.20984e-07
-3.4303e-07
-3.63219e-07
-3.81693e-07
-3.98175e-07
-4.12825e-07
3.23737e-07
3.102e-07
2.95086e-07
2.78378e-07
2.60045e-07
2.39437e-07
2.1641e-07
1.90778e-07
1.63016e-07
1.33031e-07
1.0148e-07
6.82575e-08
3.43962e-08
-2.25215e-10
-3.43665e-08
-6.83849e-08
-1.01081e-07
-1.33105e-07
-1.63449e-07
-1.9292e-07
-2.20763e-07
-2.47684e-07
-2.73174e-07
-2.97637e-07
-3.20768e-07
-3.42636e-07
-3.63051e-07
-3.81936e-07
-3.99137e-07
-4.14767e-07
3.23579e-07
3.09595e-07
2.94315e-07
2.77249e-07
2.58208e-07
2.36862e-07
2.13102e-07
1.86841e-07
1.58382e-07
1.27853e-07
9.57476e-08
6.22835e-08
2.81762e-08
-6.28094e-09
-4.03227e-08
-7.37804e-08
-1.06085e-07
-1.37268e-07
-1.67049e-07
-1.95586e-07
-2.22835e-07
-2.48927e-07
-2.73929e-07
-2.97846e-07
-3.20726e-07
-3.42466e-07
-3.63015e-07
-3.82284e-07
-4.0015e-07
-4.16754e-07
3.23565e-07
3.09181e-07
2.93459e-07
2.7586e-07
2.56094e-07
2.33978e-07
2.09436e-07
1.82481e-07
1.53306e-07
1.2219e-07
8.95307e-08
5.57728e-08
2.14452e-08
-1.29046e-08
-4.67916e-08
-7.97609e-08
-1.11588e-07
-1.42013e-07
-1.71122e-07
-1.98795e-07
-2.2533e-07
-2.50628e-07
-2.75035e-07
-2.98382e-07
-3.20944e-07
-3.42469e-07
-3.63126e-07
-3.82631e-07
-4.01143e-07
-4.18512e-07
3.23445e-07
3.08745e-07
2.92433e-07
2.74148e-07
2.5361e-07
2.30693e-07
2.0533e-07
1.77608e-07
1.47681e-07
1.15927e-07
8.27054e-08
4.86074e-08
1.40732e-08
-2.02109e-08
-5.39063e-08
-8.64261e-08
-1.17723e-07
-1.4742e-07
-1.75788e-07
-2.02608e-07
-2.28354e-07
-2.52836e-07
-2.76568e-07
-2.99289e-07
-3.21449e-07
-3.42677e-07
-3.63339e-07
-3.82989e-07
-4.02e-07
-4.20024e-07
3.23137e-07
3.08094e-07
2.91146e-07
2.72093e-07
2.50721e-07
2.26944e-07
2.00696e-07
1.72122e-07
1.41381e-07
1.08924e-07
7.51134e-08
4.06308e-08
5.88814e-09
-2.83583e-08
-6.18399e-08
-9.39215e-08
-1.24647e-07
-1.5361e-07
-1.81185e-07
-2.07124e-07
-2.32014e-07
-2.55625e-07
-2.78599e-07
-3.00613e-07
-3.22273e-07
-3.43099e-07
-3.63657e-07
-3.83318e-07
-4.02706e-07
-4.21184e-07
3.22699e-07
3.07189e-07
2.89584e-07
2.69715e-07
2.47425e-07
2.22679e-07
1.95436e-07
1.65895e-07
1.34248e-07
1.01007e-07
6.656e-08
3.1646e-08
-3.31705e-09
-3.75427e-08
-7.07894e-08
-1.02422e-07
-1.32532e-07
-1.6073e-07
-1.87447e-07
-2.12457e-07
-2.36405e-07
-2.59078e-07
-2.81183e-07
-3.02403e-07
-3.23422e-07
-3.43746e-07
-3.64036e-07
-3.83601e-07
-4.03184e-07
-4.21974e-07
3.22313e-07
3.06114e-07
2.87789e-07
2.67034e-07
2.43699e-07
2.17815e-07
1.89411e-07
1.58752e-07
1.2608e-07
9.19572e-08
5.68123e-08
2.14204e-08
-1.37746e-08
-4.79806e-08
-8.09613e-08
-1.1211e-07
-1.41545e-07
-1.68919e-07
-1.94703e-07
-2.1871e-07
-2.41621e-07
-2.63264e-07
-2.84377e-07
-3.04692e-07
-3.24913e-07
-3.4461e-07
-3.64445e-07
-3.83792e-07
-4.03357e-07
-4.22349e-07
3.22226e-07
3.05032e-07
2.85805e-07
2.63996e-07
2.39416e-07
2.12175e-07
1.82405e-07
1.50449e-07
1.16615e-07
8.15043e-08
4.55969e-08
9.69057e-09
-2.57354e-08
-5.9901e-08
-9.25653e-08
-1.23169e-07
-1.5185e-07
-1.7832e-07
-2.03078e-07
-2.25987e-07
-2.47758e-07
-2.68256e-07
-2.88253e-07
-3.07518e-07
-3.26789e-07
-3.45685e-07
-3.64882e-07
-3.83824e-07
-4.03179e-07
-4.22201e-07
3.22563e-07
3.04069e-07
2.83582e-07
2.60397e-07
2.34296e-07
2.05448e-07
1.74093e-07
1.40655e-07
1.05516e-07
6.93163e-08
3.25918e-08
-3.84662e-09
-3.94821e-08
-7.35614e-08
-1.05837e-07
-1.35813e-07
-1.63643e-07
-1.89107e-07
-2.12733e-07
-2.34431e-07
-2.5495e-07
-2.7417e-07
-2.92921e-07
-3.10969e-07
-3.29129e-07
-3.47015e-07
-3.6537e-07
-3.83668e-07
-4.0257e-07
-4.21395e-07
3.2305e-07
3.02976e-07
2.80772e-07
2.55801e-07
2.27865e-07
1.97163e-07
1.64015e-07
1.28918e-07
9.23396e-08
5.49625e-08
1.73842e-08
-1.95804e-08
-5.53803e-08
-8.9303e-08
-1.21098e-07
-1.50344e-07
-1.77208e-07
-2.0155e-07
-2.23915e-07
-2.44274e-07
-2.63402e-07
-2.81196e-07
-2.98549e-07
-3.15186e-07
-3.3206e-07
-3.48675e-07
-3.65981e-07
-3.83284e-07
-4.01474e-07
-4.19678e-07
3.22931e-07
3.01015e-07
2.76739e-07
2.49616e-07
2.19528e-07
1.8671e-07
1.51555e-07
1.14624e-07
7.64803e-08
3.78519e-08
-5.97397e-10
-3.80577e-08
-7.39483e-08
-1.07615e-07
-1.38807e-07
-1.67198e-07
-1.92958e-07
-2.16046e-07
-2.36991e-07