/*--------------------------------*- C++ -*----------------------------------*\
| =========                 |                                                 |
| \\      /  F ield         | OpenFOAM: The Open Source CFD Toolbox           |
|  \\    /   O peration     | Version:  2312                                  |
|   \\  /    A nd           | Website:  www.openfoam.com                      |
|    \\/     M anipulation  |                                                 |
\*---------------------------------------------------------------------------*/
FoamFile
{
    version     2.0;
    format      ascii;
    arch        "LSB;label=32;scalar=64";
    class       volVectorField;
    location    "20000";
    object      U;
}
// * * * * * * * * * * * * * * * * * * * * * * * * * * * * * * * * * * * * * //

dimensions      [0 1 -1 0 0 0 0];

internalField   nonuniform List<vector> 
10800
(
(0.000992484 4.94143e-06 0)
(0.000990039 1.24563e-05 0)
(0.000986875 1.74766e-05 0)
(0.000980505 2.06591e-05 0)
(0.000971096 2.27408e-05 0)
(0.000959811 2.42329e-05 0)
(0.000947717 2.53702e-05 0)
(0.000935349 2.62275e-05 0)
(0.000922849 2.6829e-05 0)
(0.000910195 2.71997e-05 0)
(0.000897344 2.73774e-05 0)
(0.000884292 2.74048e-05 0)
(0.000871075 2.732e-05 0)
(0.000857749 2.71508e-05 0)
(0.000844367 2.69155e-05 0)
(0.000830965 2.66255e-05 0)
(0.000817572 2.62889e-05 0)
(0.000804205 2.5912e-05 0)
(0.00079088 2.55003e-05 0)
(0.000777614 2.50586e-05 0)
(0.000764422 2.45905e-05 0)
(0.000751319 2.40989e-05 0)
(0.000738322 2.35857e-05 0)
(0.000725445 2.3053e-05 0)
(0.000712703 2.25012e-05 0)
(0.000700108 2.19315e-05 0)
(0.000687675 2.13443e-05 0)
(0.000675417 2.07409e-05 0)
(0.00066335 2.01201e-05 0)
(0.000651485 1.94835e-05 0)
(0.000639839 1.88302e-05 0)
(0.000628424 1.81625e-05 0)
(0.000617257 1.74771e-05 0)
(0.000606348 1.67773e-05 0)
(0.000595718 1.60596e-05 0)
(0.000585374 1.53318e-05 0)
(0.000575341 1.45853e-05 0)
(0.000565617 1.38285e-05 0)
(0.000556243 1.30484e-05 0)
(0.000547197 1.22669e-05 0)
(0.000538544 1.14653e-05 0)
(0.000530226 1.06724e-05 0)
(0.00052236 9.84323e-06 0)
(0.000514811 9.02428e-06 0)
(0.000507816 8.15568e-06 0)
(0.000501058 7.33826e-06 0)
(0.000495043 6.48067e-06 0)
(0.000489023 5.72735e-06 0)
(0.000484169 4.89657e-06 0)
(0.000478675 4.16366e-06 0)
(0.000475431 3.27173e-06 0)
(0.000469862 2.39438e-06 0)
(0.000469459 1.42262e-06 0)
(0.000462035 1.00509e-07 0)
(0.00046785 -5.32995e-07 0)
(0.000453275 -3.28794e-06 0)
(0.000474649 -1.77408e-06 0)
(0.000438099 -9.66779e-06 0)
(0.000499567 2.66543e-07 0)
(0.000404692 -2.48131e-05 0)
(0.00100003 5.80067e-06 0)
(0.00100172 1.49878e-05 0)
(0.00100423 2.15147e-05 0)
(0.00100706 2.60737e-05 0)
(0.0010098 2.94272e-05 0)
(0.0010122 3.21036e-05 0)
(0.00101423 3.43503e-05 0)
(0.0010159 3.62538e-05 0)
(0.00101729 3.78465e-05 0)
(0.00101841 3.9159e-05 0)
(0.00101927 4.02325e-05 0)
(0.00101987 4.11127e-05 0)
(0.0010202 4.18401e-05 0)
(0.00102027 4.24446e-05 0)
(0.0010201 4.29459e-05 0)
(0.00101968 4.33566e-05 0)
(0.00101905 4.36853e-05 0)
(0.00101821 4.39382e-05 0)
(0.00101717 4.4121e-05 0)
(0.00101594 4.42379e-05 0)
(0.00101453 4.42925e-05 0)
(0.00101296 4.4287e-05 0)
(0.00101123 4.42233e-05 0)
(0.00100935 4.41019e-05 0)
(0.00100734 4.39239e-05 0)
(0.00100519 4.36884e-05 0)
(0.00100294 4.33965e-05 0)
(0.00100056 4.30465e-05 0)
(0.000998117 4.26398e-05 0)
(0.000995547 4.21727e-05 0)
(0.000992948 4.16484e-05 0)
(0.00099022 4.1061e-05 0)
(0.000987518 4.04167e-05 0)
(0.000984666 3.97055e-05 0)
(0.000981917 3.89386e-05 0)
(0.000978967 3.80987e-05 0)
(0.000976239 3.72078e-05 0)
(0.000973208 3.62357e-05 0)
(0.000970587 3.52223e-05 0)
(0.000967468 3.41125e-05 0)
(0.000965069 3.29793e-05 0)
(0.000961826 3.17238e-05 0)
(0.000959821 3.04812e-05 0)
(0.00095635 2.90705e-05 0)
(0.000954988 2.77371e-05 0)
(0.000951067 2.61486e-05 0)
(0.000950746 2.47534e-05 0)
(0.000945975 2.295e-05 0)
(0.000947373 2.15498e-05 0)
(0.000941033 1.94669e-05 0)
(0.000945247 1.81505e-05 0)
(0.000936001 1.56528e-05 0)
(0.000944818 1.45595e-05 0)
(0.000930268 1.14214e-05 0)
(0.00094671 1.08037e-05 0)
(0.000922694 6.7241e-06 0)
(0.000951961 6.92815e-06 0)
(0.000911353 1.61739e-06 0)
(0.000962468 2.66084e-06 0)
(0.000893398 -3.35378e-06 0)
(0.000999989 1.96069e-06 0)
(0.00100078 5.75815e-06 0)
(0.00100224 9.27882e-06 0)
(0.00100423 1.24388e-05 0)
(0.00100655 1.52352e-05 0)
(0.00100898 1.77131e-05 0)
(0.0010114 1.99271e-05 0)
(0.00101377 2.19202e-05 0)
(0.00101609 2.37195e-05 0)
(0.00101835 2.53415e-05 0)
(0.00102058 2.67993e-05 0)
(0.00102275 2.81062e-05 0)
(0.00102487 2.92763e-05 0)
(0.00102693 3.03235e-05 0)
(0.00102893 3.12598e-05 0)
(0.00103085 3.20949e-05 0)
(0.00103271 3.28366e-05 0)
(0.00103451 3.34905e-05 0)
(0.00103625 3.40619e-05 0)
(0.00103793 3.45538e-05 0)
(0.00103955 3.49701e-05 0)
(0.00104111 3.53124e-05 0)
(0.00104263 3.55837e-05 0)
(0.00104408 3.57838e-05 0)
(0.00104549 3.59155e-05 0)
(0.00104684 3.59762e-05 0)
(0.00104815 3.59698e-05 0)
(0.00104939 3.58913e-05 0)
(0.00105062 3.57464e-05 0)
(0.00105176 3.55264e-05 0)
(0.0010529 3.52407e-05 0)
(0.00105395 3.4875e-05 0)
(0.00105502 3.44458e-05 0)
(0.00105596 3.39295e-05 0)
(0.00105698 3.33544e-05 0)
(0.00105781 3.26815e-05 0)
(0.0010588 3.19583e-05 0)
(0.00105952 3.11215e-05 0)
(0.00106051 3.025e-05 0)
(0.00106109 2.9243e-05 0)
(0.00106212 2.8227e-05 0)
(0.00106253 2.70427e-05 0)
(0.00106369 2.58859e-05 0)
(0.00106385 2.45157e-05 0)
(0.00106525 2.3227e-05 0)
(0.00106505 2.16679e-05 0)
(0.00106686 2.02669e-05 0)
(0.00106613 1.85151e-05 0)
(0.00106859 1.70227e-05 0)
(0.00106704 1.50603e-05 0)
(0.00107055 1.35001e-05 0)
(0.00106772 1.1307e-05 0)
(0.00107287 9.72402e-06 0)
(0.00106805 7.30929e-06 0)
(0.00107574 5.77411e-06 0)
(0.00106779 3.21493e-06 0)
(0.00107943 1.8074e-06 0)
(0.00106664 -6.68113e-07 0)
(0.00108441 -1.89342e-06 0)
(0.00106415 -3.73716e-06 0)
(0.00100001 1.73938e-06 0)
(0.00100047 5.15229e-06 0)
(0.00100128 8.40795e-06 0)
(0.00100239 1.143e-05 0)
(0.00100374 1.41775e-05 0)
(0.00100526 1.66473e-05 0)
(0.00100689 1.88612e-05 0)
(0.00100859 2.08488e-05 0)
(0.00101034 2.26371e-05 0)
(0.00101213 2.42466e-05 0)
(0.00101395 2.5693e-05 0)
(0.0010158 2.69889e-05 0)
(0.00101766 2.81464e-05 0)
(0.00101954 2.91775e-05 0)
(0.00102142 3.00936e-05 0)
(0.00102331 3.09047e-05 0)
(0.00102519 3.16196e-05 0)
(0.00102707 3.22453e-05 0)
(0.00102895 3.27876e-05 0)
(0.00103083 3.32509e-05 0)
(0.0010327 3.36392e-05 0)
(0.00103457 3.3955e-05 0)
(0.00103643 3.42014e-05 0)
(0.00103829 3.43794e-05 0)
(0.00104014 3.4491e-05 0)
(0.00104199 3.4536e-05 0)
(0.00104383 3.45159e-05 0)
(0.00104566 3.44293e-05 0)
(0.00104749 3.4278e-05 0)
(0.0010493 3.40587e-05 0)
(0.00105112 3.37742e-05 0)
(0.00105291 3.34187e-05 0)
(0.00105471 3.29976e-05 0)
(0.00105647 3.25017e-05 0)
(0.00105826 3.19405e-05 0)
(0.00105999 3.12989e-05 0)
(0.00106176 3.05929e-05 0)
(0.00106345 2.97993e-05 0)
(0.0010652 2.89444e-05 0)
(0.00106684 2.79946e-05 0)
(0.00106858 2.69879e-05 0)
(0.00107016 2.58784e-05 0)
(0.0010719 2.4715e-05 0)
(0.00107341 2.34436e-05 0)
(0.00107516 2.21189e-05 0)
(0.00107659 2.06899e-05 0)
(0.00107837 1.92023e-05 0)
(0.00107969 1.76251e-05 0)
(0.00108155 1.59711e-05 0)
(0.00108272 1.42591e-05 0)
(0.0010847 1.24355e-05 0)
(0.00108567 1.0623e-05 0)
(0.00108785 8.63588e-06 0)
(0.00108852 6.8004e-06 0)
(0.00109098 4.65617e-06 0)
(0.00109123 2.92604e-06 0)
(0.00109412 6.01001e-07 0)
(0.0010938 -8.40779e-07 0)
(0.00109741 -3.43201e-06 0)
(0.00109632 -4.3383e-06 0)
(0.001 1.15056e-06 0)
(0.00100023 3.42391e-06 0)
(0.00100067 5.63133e-06 0)
(0.00100134 7.74106e-06 0)
(0.0010022 9.73165e-06 0)
(0.00100324 1.15927e-05 0)
(0.00100441 1.33229e-05 0)
(0.00100569 1.49261e-05 0)
(0.00100706 1.64083e-05 0)
(0.00100849 1.77755e-05 0)
(0.00100997 1.9033e-05 0)
(0.0010115 2.01856e-05 0)
(0.00101306 2.12378e-05 0)
(0.00101466 2.21945e-05 0)
(0.00101628 2.30605e-05 0)
(0.00101792 2.38404e-05 0)
(0.00101958 2.45385e-05 0)
(0.00102124 2.51585e-05 0)
(0.00102292 2.57037e-05 0)
(0.00102461 2.61767e-05 0)
(0.00102631 2.65794e-05 0)
(0.00102801 2.6914e-05 0)
(0.00102971 2.71815e-05 0)
(0.00103142 2.73834e-05 0)
(0.00103314 2.75198e-05 0)
(0.00103486 2.75918e-05 0)
(0.00103658 2.75987e-05 0)
(0.0010383 2.75414e-05 0)
(0.00104002 2.74186e-05 0)
(0.00104174 2.72309e-05 0)
(0.00104346 2.69761e-05 0)
(0.00104518 2.66552e-05 0)
(0.00104689 2.62648e-05 0)
(0.0010486 2.58071e-05 0)
(0.00105031 2.52773e-05 0)
(0.00105201 2.46787e-05 0)
(0.0010537 2.40038e-05 0)
(0.00105538 2.32594e-05 0)
(0.00105705 2.24338e-05 0)
(0.00105871 2.15404e-05 0)
(0.00106036 2.05588e-05 0)
(0.001062 1.95143e-05 0)
(0.00106361 1.83686e-05 0)
(0.00106523 1.71719e-05 0)
(0.0010668 1.58538e-05 0)
(0.00106839 1.45107e-05 0)
(0.00106991 1.30131e-05 0)
(0.00107149 1.1536e-05 0)
(0.00107295 9.84505e-06 0)
(0.00107454 8.24967e-06 0)
(0.00107594 6.34104e-06 0)
(0.00107758 4.65674e-06 0)
(0.00107893 2.50086e-06 0)
(0.00108069 7.82018e-07 0)
(0.00108199 -1.65925e-06 0)
(0.00108396 -3.31601e-06 0)
(0.00108517 -6.10211e-06 0)
(0.00108743 -7.53859e-06 0)
(0.00108839 -1.07858e-05 0)
(0.00109098 -1.18007e-05 0)
(0.001 9.24503e-07 0)
(0.00100017 2.7644e-06 0)
(0.00100051 4.5767e-06 0)
(0.001001 6.34242e-06 0)
(0.00100165 8.04405e-06 0)
(0.00100242 9.66765e-06 0)
(0.00100331 1.12039e-05 0)
(0.0010043 1.26478e-05 0)
(0.00100537 1.39977e-05 0)
(0.00100651 1.52541e-05 0)
(0.0010077 1.64182e-05 0)
(0.00100895 1.7492e-05 0)
(0.00101024 1.84776e-05 0)
(0.00101158 1.93774e-05 0)
(0.00101294 2.01941e-05 0)
(0.00101434 2.09306e-05 0)
(0.00101576 2.15895e-05 0)
(0.0010172 2.21737e-05 0)
(0.00101865 2.26854e-05 0)
(0.00102013 2.31271e-05 0)
(0.00102161 2.35003e-05 0)
(0.00102311 2.3807e-05 0)
(0.00102462 2.4048e-05 0)
(0.00102614 2.42251e-05 0)
(0.00102766 2.43381e-05 0)
(0.00102919 2.43887e-05 0)
(0.00103072 2.43759e-05 0)
(0.00103226 2.43014e-05 0)
(0.0010338 2.41632e-05 0)
(0.00103534 2.39634e-05 0)
(0.00103688 2.36986e-05 0)
(0.00103841 2.33717e-05 0)
(0.00103994 2.29776e-05 0)
(0.00104147 2.25211e-05 0)
(0.001043 2.19942e-05 0)
(0.00104451 2.14048e-05 0)
(0.00104602 2.07401e-05 0)
(0.00104752 2.00135e-05 0)
(0.00104901 1.92056e-05 0)
(0.00105049 1.83388e-05 0)
(0.00105195 1.7382e-05 0)
(0.00105342 1.63716e-05 0)
(0.00105485 1.52579e-05 0)
(0.0010563 1.41008e-05 0)
(0.00105769 1.28218e-05 0)
(0.00105914 1.15189e-05 0)
(0.00106049 1.00659e-05 0)
(0.00106194 8.6212e-06 0)
(0.00106324 6.97944e-06 0)
(0.00106472 5.40072e-06 0)
(0.00106595 3.55077e-06 0)
(0.00106747 1.85932e-06 0)
(0.00106859 -2.20489e-07 0)
(0.0010702 -1.99217e-06 0)
(0.00107121 -4.35378e-06 0)
(0.00107303 -6.18571e-06 0)
(0.00107392 -8.92341e-06 0)
(0.00107606 -1.07696e-05 0)
(0.00107668 -1.40014e-05 0)
(0.00107913 -1.57484e-05 0)
(0.001 7.3008e-07 0)
(0.00100013 2.18331e-06 0)
(0.00100037 3.6166e-06 0)
(0.00100074 5.01719e-06 0)
(0.00100121 6.37364e-06 0)
(0.0010018 7.67653e-06 0)
(0.00100248 8.91893e-06 0)
(0.00100325 1.00962e-05 0)
(0.0010041 1.12059e-05 0)
(0.00100502 1.22466e-05 0)
(0.001006 1.32182e-05 0)
(0.00100704 1.41209e-05 0)
(0.00100812 1.49554e-05 0)
(0.00100925 1.57224e-05 0)
(0.00101041 1.64229e-05 0)
(0.00101161 1.70581e-05 0)
(0.00101284 1.76289e-05 0)
(0.00101409 1.81369e-05 0)
(0.00101537 1.85828e-05 0)
(0.00101666 1.89681e-05 0)
(0.00101797 1.92933e-05 0)
(0.0010193 1.95596e-05 0)
(0.00102064 1.97672e-05 0)
(0.00102198 1.9917e-05 0)
(0.00102334 2.00087e-05 0)
(0.0010247 2.00432e-05 0)
(0.00102607 2.00195e-05 0)
(0.00102744 1.99387e-05 0)
(0.00102881 1.9799e-05 0)
(0.00103018 1.96017e-05 0)
(0.00103155 1.93438e-05 0)
(0.00103291 1.90275e-05 0)
(0.00103427 1.86482e-05 0)
(0.00103562 1.82098e-05 0)
(0.00103697 1.77051e-05 0)
(0.0010383 1.71403e-05 0)
(0.00103962 1.65043e-05 0)
(0.00104094 1.58082e-05 0)
(0.00104223 1.50345e-05 0)
(0.00104352 1.42022e-05 0)
(0.00104478 1.32834e-05 0)
(0.00104605 1.23088e-05 0)
(0.00104727 1.12348e-05 0)
(0.0010485 1.01111e-05 0)
(0.00104967 8.87075e-06 0)
(0.00105087 7.59284e-06 0)
(0.00105199 6.17281e-06 0)
(0.00105318 4.73484e-06 0)
(0.00105424 3.11366e-06 0)
(0.00105543 1.50849e-06 0)
(0.00105645 -3.42315e-07 0)
(0.00105768 -2.11103e-06 0)
(0.00105865 -4.21718e-06 0)
(0.00105996 -6.12546e-06 0)
(0.00106084 -8.52376e-06 0)
(0.00106227 -1.05519e-05 0)
(0.00106302 -1.33224e-05 0)
(0.00106466 -1.54547e-05 0)
(0.00106518 -1.87177e-05 0)
(0.00106698 -2.08906e-05 0)
(0.001 5.81255e-07 0)
(0.0010001 1.7394e-06 0)
(0.00100029 2.88524e-06 0)
(0.00100057 4.01085e-06 0)
(0.00100095 5.10866e-06 0)
(0.00100142 6.17195e-06 0)
(0.00100196 7.19501e-06 0)
(0.00100259 8.17336e-06 0)
(0.00100328 9.10358e-06 0)
(0.00100404 9.98328e-06 0)
(0.00100486 1.08109e-05 0)
(0.00100573 1.15853e-05 0)
(0.00100665 1.2306e-05 0)
(0.00100762 1.29726e-05 0)
(0.00100862 1.35848e-05 0)
(0.00100965 1.41427e-05 0)
(0.00101072 1.46462e-05 0)
(0.00101181 1.50959e-05 0)
(0.00101293 1.54917e-05 0)
(0.00101407 1.58342e-05 0)
(0.00101523 1.61234e-05 0)
(0.0010164 1.63598e-05 0)
(0.00101758 1.65434e-05 0)
(0.00101878 1.66744e-05 0)
(0.00101998 1.67525e-05 0)
(0.00102119 1.67781e-05 0)
(0.0010224 1.67503e-05 0)
(0.00102362 1.66696e-05 0)
(0.00102483 1.65346e-05 0)
(0.00102605 1.63459e-05 0)
(0.00102726 1.61013e-05 0)
(0.00102846 1.58018e-05 0)
(0.00102966 1.54443e-05 0)
(0.00103085 1.50305e-05 0)
(0.00103202 1.45558e-05 0)
(0.00103319 1.40231e-05 0)
(0.00103434 1.34254e-05 0)
(0.00103547 1.27682e-05 0)
(0.00103659 1.20408e-05 0)
(0.00103769 1.12531e-05 0)
(0.00103876 1.03882e-05 0)
(0.00103983 9.46227e-06 0)
(0.00104086 8.44963e-06 0)
(0.00104188 7.37682e-06 0)
(0.00104286 6.20586e-06 0)
(0.00104384 4.97827e-06 0)
(0.00104476 3.63678e-06 0)
(0.00104571 2.24449e-06 0)
(0.00104657 7.14328e-07 0)
(0.00104748 -8.54983e-07 0)
(0.00104826 -2.59784e-06 0)
(0.00104916 -4.35732e-06 0)
(0.00104987 -6.34996e-06 0)
(0.0010508 -8.31831e-06 0)
(0.00105143 -1.06058e-05 0)
(0.00105241 -1.27946e-05 0)
(0.00105292 -1.54367e-05 0)
(0.001054 -1.78568e-05 0)
(0.00105428 -2.09338e-05 0)
(0.00105538 -2.35748e-05 0)
(0.001 4.63967e-07 0)
(0.00100008 1.38897e-06 0)
(0.00100024 2.30569e-06 0)
(0.00100047 3.20872e-06 0)
(0.00100078 4.09277e-06 0)
(0.00100116 4.9529e-06 0)
(0.00100161 5.7847e-06 0)
(0.00100213 6.5844e-06 0)
(0.00100271 7.34884e-06 0)
(0.00100335 8.07548e-06 0)
(0.00100405 8.7622e-06 0)
(0.00100479 9.40734e-06 0)
(0.00100558 1.00096e-05 0)
(0.00100641 1.05681e-05 0)
(0.00100728 1.10821e-05 0)
(0.00100818 1.15511e-05 0)
(0.00100911 1.19748e-05 0)
(0.00101007 1.2353e-05 0)
(0.00101105 1.26855e-05 0)
(0.00101206 1.29723e-05 0)
(0.00101308 1.32132e-05 0)
(0.00101412 1.34082e-05 0)
(0.00101516 1.35571e-05 0)
(0.00101623 1.36599e-05 0)
(0.00101729 1.37161e-05 0)
(0.00101837 1.37256e-05 0)
(0.00101944 1.36879e-05 0)
(0.00102052 1.36027e-05 0)
(0.0010216 1.34693e-05 0)
(0.00102267 1.32872e-05 0)
(0.00102374 1.30552e-05 0)
(0.0010248 1.2773e-05 0)
(0.00102585 1.2439e-05 0)
(0.00102689 1.20528e-05 0)
(0.00102791 1.16121e-05 0)
(0.00102892 1.11169e-05 0)
(0.00102991 1.05634e-05 0)
(0.00103088 9.95282e-06 0)
(0.00103182 9.27976e-06 0)
(0.00103275 8.54673e-06 0)
(0.00103364 7.74546e-06 0)
(0.00103452 6.88054e-06 0)
(0.00103536 5.94003e-06 0)
(0.00103617 4.93196e-06 0)
(0.00103694 3.83965e-06 0)
(0.00103769 2.67532e-06 0)
(0.00103839 1.41527e-06 0)
(0.00103908 7.73406e-08 0)
(0.00103969 -1.37104e-06 0)
(0.00104033 -2.90027e-06 0)
(0.00104085 -4.55712e-06 0)
(0.00104144 -6.29478e-06 0)
(0.00104186 -8.18777e-06 0)
(0.0010424 -1.01611e-05 0)
(0.00104272 -1.23356e-05 0)
(0.00104324 -1.45826e-05 0)
(0.00104342 -1.70931e-05 0)
(0.00104393 -1.9649e-05 0)
(0.00104387 -2.25541e-05 0)
(0.00104429 -2.54421e-05 0)
(0.001 3.66956e-07 0)
(0.00100007 1.09873e-06 0)
(0.0010002 1.8246e-06 0)
(0.0010004 2.54071e-06 0)
(0.00100066 3.24327e-06 0)
(0.00100098 3.92865e-06 0)
(0.00100136 4.5935e-06 0)
(0.00100181 5.2348e-06 0)
(0.0010023 5.84991e-06 0)
(0.00100285 6.43653e-06 0)
(0.00100345 6.99269e-06 0)
(0.0010041 7.51674e-06 0)
(0.00100478 8.00731e-06 0)
(0.00100551 8.4633e-06 0)
(0.00100627 8.8838e-06 0)
(0.00100706 9.2681e-06 0)
(0.00100788 9.61562e-06 0)
(0.00100873 9.92586e-06 0)
(0.0010096 1.01984e-05 0)
(0.00101049 1.0433e-05 0)
(0.00101139 1.06292e-05 0)
(0.00101232 1.07867e-05 0)
(0.00101325 1.09053e-05 0)
(0.0010142 1.09845e-05 0)
(0.00101515 1.1024e-05 0)
(0.00101611 1.10233e-05 0)
(0.00101706 1.0982e-05 0)
(0.00101802 1.08994e-05 0)
(0.00101898 1.07751e-05 0)
(0.00101993 1.06081e-05 0)
(0.00102087 1.03978e-05 0)
(0.0010218 1.01429e-05 0)
(0.00102272 9.84283e-06 0)
(0.00102362 9.49599e-06 0)
(0.00102451 9.10156e-06 0)
(0.00102538 8.65733e-06 0)
(0.00102622 8.16254e-06 0)
(0.00102704 7.61446e-06 0)
(0.00102784 7.01242e-06 0)
(0.0010286 6.35271e-06 0)
(0.00102933 5.63475e-06 0)
(0.00103003 4.85324e-06 0)
(0.00103069 4.0086e-06 0)
(0.00103131 3.09325e-06 0)
(0.00103189 2.11013e-06 0)
(0.00103243 1.04686e-06 0)
(0.0010329 -8.90449e-08 0)
(0.00103336 -1.31882e-06 0)
(0.00103373 -2.62582e-06 0)
(0.00103409 -4.04616e-06 0)
(0.00103435 -5.54807e-06 0)
(0.0010346 -7.18828e-06 0)
(0.00103473 -8.91118e-06 0)
(0.00103489 -1.08075e-05 0)
(0.00103486 -1.27864e-05 0)
(0.00103492 -1.49889e-05 0)
(0.00103471 -1.72649e-05 0)
(0.00103467 -1.98315e-05 0)
(0.00103419 -2.24423e-05 0)
(0.00103395 -2.54326e-05 0)
(0.001 2.84236e-07 0)
(0.00100006 8.51142e-07 0)
(0.00100017 1.41377e-06 0)
(0.00100034 1.96935e-06 0)
(0.00100057 2.51513e-06 0)
(0.00100085 3.04847e-06 0)
(0.00100118 3.56684e-06 0)
(0.00100157 4.06793e-06 0)
(0.00100201 4.54966e-06 0)
(0.00100249 5.01014e-06 0)
(0.00100301 5.44774e-06 0)
(0.00100358 5.86099e-06 0)
(0.00100418 6.24866e-06 0)
(0.00100483 6.60967e-06 0)
(0.0010055 6.94311e-06 0)
(0.00100621 7.24817e-06 0)
(0.00100694 7.5242e-06 0)
(0.0010077 7.77058e-06 0)
(0.00100848 7.98682e-06 0)
(0.00100927 8.17238e-06 0)
(0.00101009 8.3269e-06 0)
(0.00101092 8.44986e-06 0)
(0.00101176 8.54095e-06 0)
(0.00101261 8.59959e-06 0)
(0.00101346 8.62549e-06 0)
(0.00101432 8.61794e-06 0)
(0.00101518 8.57668e-06 0)
(0.00101603 8.50079e-06 0)
(0.00101688 8.39003e-06 0)
(0.00101773 8.2431e-06 0)
(0.00101856 8.05986e-06 0)
(0.00101938 7.83856e-06 0)
(0.00102019 7.57929e-06 0)
(0.00102098 7.27956e-06 0)
(0.00102175 6.93979e-06 0)
(0.00102249 6.55639e-06 0)
(0.00102321 6.13051e-06 0)
(0.0010239 5.65713e-06 0)
(0.00102455 5.13864e-06 0)
(0.00102517 4.5676e-06 0)
(0.00102575 3.94832e-06 0)
(0.00102629 3.26961e-06 0)
(0.00102679 2.53957e-06 0)
(0.00102723 1.74119e-06 0)
(0.00102763 8.89261e-07 0)
(0.00102797 -4.35395e-08 0)
(0.00102824 -1.03123e-06 0)
(0.00102847 -2.11784e-06 0)
(0.00102862 -3.2583e-06 0)
(0.00102871 -4.52446e-06 0)
(0.00102871 -5.83824e-06 0)
(0.00102866 -7.31536e-06 0)
(0.00102848 -8.82523e-06 0)
(0.00102827 -1.05544e-05 0)
(0.0010279 -1.22888e-05 0)
(0.00102752 -1.43263e-05 0)
(0.00102692 -1.63159e-05 0)
(0.00102634 -1.87318e-05 0)
(0.00102543 -2.09988e-05 0)
(0.00102456 -2.38739e-05 0)
(0.001 2.11752e-07 0)
(0.00100005 6.34126e-07 0)
(0.00100015 1.05345e-06 0)
(0.0010003 1.46776e-06 0)
(0.00100051 1.87512e-06 0)
(0.00100076 2.2736e-06 0)
(0.00100105 2.66139e-06 0)
(0.0010014 3.0368e-06 0)
(0.00100179 3.39824e-06 0)
(0.00100222 3.7443e-06 0)
(0.00100269 4.07367e-06 0)
(0.0010032 4.38519e-06 0)
(0.00100375 4.67784e-06 0)
(0.00100432 4.95067e-06 0)
(0.00100493 5.2029e-06 0)
(0.00100557 5.43378e-06 0)
(0.00100624 5.64269e-06 0)
(0.00100692 5.82903e-06 0)
(0.00100763 5.99233e-06 0)
(0.00100836 6.13203e-06 0)
(0.0010091 6.24776e-06 0)
(0.00100985 6.339e-06 0)
(0.00101062 6.40545e-06 0)
(0.00101139 6.4465e-06 0)
(0.00101216 6.46192e-06 0)
(0.00101294 6.45095e-06 0)
(0.00101372 6.41345e-06 0)
(0.00101449 6.34844e-06 0)
(0.00101526 6.25586e-06 0)
(0.00101602 6.13434e-06 0)
(0.00101676 5.98402e-06 0)
(0.00101749 5.80302e-06 0)
(0.00101821 5.59184e-06 0)
(0.0010189 5.34775e-06 0)
(0.00101957 5.07179e-06 0)
(0.00102021 4.75998e-06 0)
(0.00102082 4.41442e-06 0)
(0.00102139 4.02931e-06 0)
(0.00102193 3.60853e-06 0)
(0.00102243 3.14327e-06 0)
(0.00102288 2.64022e-06 0)
(0.00102329 2.0859e-06 0)
(0.00102364 1.49207e-06 0)
(0.00102394 8.37931e-07 0)
(0.00102417 1.43775e-07 0)
(0.00102435 -6.23536e-07 0)
(0.00102444 -1.42954e-06 0)
(0.00102447 -2.32854e-06 0)
(0.00102442 -3.26215e-06 0)
(0.00102428 -4.31737e-06 0)
(0.00102404 -5.39505e-06 0)
(0.00102371 -6.63588e-06 0)
(0.00102326 -7.87563e-06 0)
(0.00102273 -9.34243e-06 0)
(0.00102204 -1.07664e-05 0)
(0.00102126 -1.2515e-05 0)
(0.00102028 -1.41448e-05 0)
(0.00101923 -1.6247e-05 0)
(0.00101789 -1.80932e-05 0)
(0.00101647 -2.06378e-05 0)
(0.001 1.46492e-07 0)
(0.00100005 4.38707e-07 0)
(0.00100014 7.2887e-07 0)
(0.00100028 1.01567e-06 0)
(0.00100046 1.2978e-06 0)
(0.00100069 1.57396e-06 0)
(0.00100096 1.84294e-06 0)
(0.00100128 2.10355e-06 0)
(0.00100164 2.35472e-06 0)
(0.00100203 2.59543e-06 0)
(0.00100247 2.82475e-06 0)
(0.00100293 3.04185e-06 0)
(0.00100344 3.24596e-06 0)
(0.00100397 3.43638e-06 0)
(0.00100453 3.61249e-06 0)
(0.00100512 3.7737e-06 0)
(0.00100574 3.91955e-06 0)
(0.00100637 4.04952e-06 0)
(0.00100703 4.16324e-06 0)
(0.0010077 4.26025e-06 0)
(0.00100838 4.34024e-06 0)
(0.00100908 4.40276e-06 0)
(0.00100979 4.44758e-06 0)
(0.0010105 4.47418e-06 0)
(0.00101122 4.48237e-06 0)
(0.00101194 4.47154e-06 0)
(0.00101265 4.44158e-06 0)
(0.00101336 4.39167e-06 0)
(0.00101406 4.32183e-06 0)
(0.00101476 4.23088e-06 0)
(0.00101543 4.11905e-06 0)
(0.00101609 3.98471e-06 0)
(0.00101674 3.82846e-06 0)
(0.00101735 3.64788e-06 0)
(0.00101794 3.44415e-06 0)
(0.0010185 3.21372e-06 0)
(0.00101903 2.9588e-06 0)
(0.00101952 2.67414e-06 0)
(0.00101997 2.36367e-06 0)
(0.00102037 2.01936e-06 0)
(0.00102072 1.64789e-06 0)
(0.00102102 1.23689e-06 0)
(0.00102126 7.97841e-07 0)
(0.00102144 3.11571e-07 0)
(0.00102155 -2.02493e-07 0)
(0.00102158 -7.74832e-07 0)
(0.00102154 -1.37296e-06 0)
(0.00102141 -2.04672e-06 0)
(0.00102118 -2.74097e-06 0)
(0.00102086 -3.53566e-06 0)
(0.00102042 -4.33813e-06 0)
(0.00101987 -5.27806e-06 0)
(0.00101919 -6.20221e-06 0)
(0.00101839 -7.32136e-06 0)
(0.00101743 -8.38316e-06 0)
(0.00101633 -9.72876e-06 0)
(0.00101503 -1.09422e-05 0)
(0.00101358 -1.25762e-05 0)
(0.00101187 -1.3945e-05 0)
(0.00100999 -1.59468e-05 0)
(0.001 8.60527e-08 0)
(0.00100004 2.57711e-07 0)
(0.00100013 4.28182e-07 0)
(0.00100026 5.9671e-07 0)
(0.00100043 7.62541e-07 0)
(0.00100065 9.2493e-07 0)
(0.00100091 1.08316e-06 0)
(0.0010012 1.23655e-06 0)
(0.00100154 1.38446e-06 0)
(0.00100191 1.52629e-06 0)
(0.00100232 1.66149e-06 0)
(0.00100276 1.78955e-06 0)
(0.00100324 1.90999e-06 0)
(0.00100374 2.02239e-06 0)
(0.00100428 2.12636e-06 0)
(0.00100483 2.22153e-06 0)
(0.00100541 2.30761e-06 0)
(0.00100602 2.38425e-06 0)
(0.00100664 2.45123e-06 0)
(0.00100727 2.50824e-06 0)
(0.00100792 2.55508e-06 0)
(0.00100858 2.59145e-06 0)
(0.00100925 2.6172e-06 0)
(0.00100992 2.63198e-06 0)
(0.0010106 2.6357e-06 0)
(0.00101128 2.62791e-06 0)
(0.00101195 2.60859e-06 0)
(0.00101262 2.57717e-06 0)
(0.00101328 2.5337e-06 0)
(0.00101393 2.47737e-06 0)
(0.00101456 2.4084e-06 0)
(0.00101517 2.32567e-06 0)
(0.00101576 2.22965e-06 0)
(0.00101633 2.11869e-06 0)
(0.00101687 1.99368e-06 0)
(0.00101737 1.85217e-06 0)
(0.00101784 1.69581e-06 0)
(0.00101827 1.52096e-06 0)
(0.00101866 1.3305e-06 0)
(0.001019 1.11881e-06 0)
(0.00101928 8.90793e-07 0)
(0.0010195 6.3779e-07 0)
(0.00101967 3.68128e-07 0)
(0.00101976 6.83384e-08 0)
(0.00101978 -2.47599e-07 0)
(0.00101972 -6.01327e-07 0)
(0.00101957 -9.69764e-07 0)
(0.00101933 -1.38745e-06 0)
(0.00101898 -1.81555e-06 0)
(0.00101853 -2.30971e-06 0)
(0.00101795 -2.80498e-06 0)
(0.00101725 -3.39175e-06 0)
(0.0010164 -3.96258e-06 0)
(0.00101541 -4.66457e-06 0)
(0.00101425 -5.32049e-06 0)
(0.00101292 -6.16915e-06 0)
(0.00101138 -6.91794e-06 0)
(0.00100965 -7.95526e-06 0)
(0.00100768 -8.79743e-06 0)
(0.00100547 -1.00785e-05 0)
(0.001 2.83858e-08 0)
(0.00100004 8.50082e-08 0)
(0.00100013 1.41239e-07 0)
(0.00100025 1.96832e-07 0)
(0.00100042 2.5154e-07 0)
(0.00100063 3.05119e-07 0)
(0.00100088 3.57336e-07 0)
(0.00100117 4.07964e-07 0)
(0.00100149 4.56794e-07 0)
(0.00100186 5.03625e-07 0)
(0.00100225 5.48275e-07 0)
(0.00100268 5.90572e-07 0)
(0.00100314 6.3036e-07 0)
(0.00100363 6.67492e-07 0)
(0.00100415 7.01839e-07 0)
(0.00100469 7.33275e-07 0)
(0.00100526 7.61696e-07 0)
(0.00100584 7.8699e-07 0)
(0.00100644 8.09073e-07 0)
(0.00100706 8.2784e-07 0)
(0.00100769 8.43224e-07 0)
(0.00100833 8.5512e-07 0)
(0.00100898 8.63474e-07 0)
(0.00100964 8.68166e-07 0)
(0.0010103 8.6916e-07 0)
(0.00101095 8.66308e-07 0)
(0.00101161 8.59598e-07 0)
(0.00101225 8.48831e-07 0)
(0.00101289 8.34028e-07 0)
(0.00101351 8.14913e-07 0)
(0.00101412 7.91562e-07 0)
(0.00101471 7.63582e-07 0)
(0.00101528 7.31143e-07 0)
(0.00101582 6.93663e-07 0)
(0.00101633 6.51473e-07 0)
(0.00101681 6.03702e-07 0)
(0.00101725 5.50955e-07 0)
(0.00101765 4.91923e-07 0)
(0.001018 4.27658e-07 0)
(0.00101831 3.56155e-07 0)
(0.00101855 2.79194e-07 0)
(0.00101874 1.93695e-07 0)
(0.00101886 1.02644e-07 0)
(0.00101891 1.24377e-09 0)
(0.00101889 -1.05504e-07 0)
(0.00101878 -2.25281e-07 0)
(0.00101858 -3.49777e-07 0)
(0.00101828 -4.91328e-07 0)
(0.00101787 -6.36032e-07 0)
(0.00101734 -8.03772e-07 0)
(0.00101669 -9.71297e-07 0)
(0.00101591 -1.1709e-06 0)
(0.00101498 -1.3641e-06 0)
(0.00101389 -1.60348e-06 0)
(0.00101262 -1.82545e-06 0)
(0.00101117 -2.11555e-06 0)
(0.00100951 -2.36877e-06 0)
(0.00100764 -2.72452e-06 -3.78278e-38)
(0.00100552 -3.00901e-06 0)
(0.00100314 -3.45026e-06 0)
(0.001 -2.83761e-08 0)
(0.00100004 -8.49862e-08 0)
(0.00100013 -1.41213e-07 0)
(0.00100025 -1.96811e-07 0)
(0.00100042 -2.51531e-07 0)
(0.00100063 -3.05129e-07 0)
(0.00100088 -3.57371e-07 0)
(0.00100117 -4.08031e-07 0)
(0.00100149 -4.56899e-07 0)
(0.00100186 -5.03776e-07 0)
(0.00100225 -5.48477e-07 0)
(0.00100268 -5.9083e-07 0)
(0.00100314 -6.30681e-07 0)
(0.00100363 -6.67881e-07 0)
(0.00100415 -7.02302e-07 0)
(0.00100469 -7.33816e-07 0)
(0.00100526 -7.6232e-07 0)
(0.00100584 -7.87701e-07 0)
(0.00100644 -8.09876e-07 0)
(0.00100706 -8.28739e-07 0)
(0.00100769 -8.44223e-07 0)
(0.00100833 -8.56224e-07 0)
(0.00100898 -8.64689e-07 0)
(0.00100964 -8.69497e-07 0)
(0.0010103 -8.70611e-07 0)
(0.00101095 -8.67882e-07 0)
(0.00101161 -8.61298e-07 0)
(0.00101225 -8.50664e-07 0)
(0.00101289 -8.35996e-07 0)
(0.00101351 -8.17016e-07 0)
(0.00101412 -7.93798e-07 0)
(0.00101471 -7.65953e-07 0)
(0.00101528 -7.33657e-07 0)
(0.00101582 -6.96327e-07 0)
(0.00101633 -6.54289e-07 0)
(0.00101681 -6.06666e-07 0)
(0.00101725 -5.54068e-07 0)
(0.00101765 -4.95195e-07 0)
(0.001018 -4.31107e-07 0)
(0.00101831 -3.59797e-07 0)
(0.00101855 -2.83028e-07 0)
(0.00101874 -1.97707e-07 0)
(0.00101886 -1.06829e-07 0)
(0.00101891 -5.61974e-09 0)
(0.00101889 1.00897e-07 0)
(0.00101878 2.20412e-07 0)
(0.00101858 3.44639e-07 0)
(0.00101828 4.85954e-07 0)
(0.00101787 6.30456e-07 0)
(0.00101734 7.97995e-07 0)
(0.00101669 9.65259e-07 0)
(0.00101591 1.16451e-06 0)
(0.00101498 1.35728e-06 0)
(0.00101389 1.59622e-06 0)
(0.00101262 1.81784e-06 0)
(0.00101117 2.10772e-06 0)
(0.00100951 2.36077e-06 0)
(0.00100764 2.71629e-06 3.78278e-38)
(0.00100552 3.00031e-06 0)
(0.00100314 3.44082e-06 0)
(0.001 -8.60432e-08 0)
(0.00100004 -2.57689e-07 0)
(0.00100013 -4.28156e-07 0)
(0.00100026 -5.9669e-07 0)
(0.00100043 -7.62533e-07 0)
(0.00100065 -9.24941e-07 0)
(0.00100091 -1.0832e-06 0)
(0.0010012 -1.23662e-06 0)
(0.00100154 -1.38457e-06 0)
(0.00100191 -1.52645e-06 0)
(0.00100232 -1.6617e-06 0)
(0.00100276 -1.7898e-06 0)
(0.00100324 -1.91031e-06 0)
(0.00100374 -2.02278e-06 0)
(0.00100428 -2.12682e-06 0)
(0.00100483 -2.22207e-06 0)
(0.00100541 -2.30823e-06 0)
(0.00100602 -2.38496e-06 0)
(0.00100664 -2.45203e-06 0)
(0.00100727 -2.50913e-06 0)
(0.00100792 -2.55607e-06 0)
(0.00100858 -2.59254e-06 0)
(0.00100925 -2.61841e-06 0)
(0.00100992 -2.63331e-06 0)
(0.0010106 -2.63714e-06 0)
(0.00101128 -2.62948e-06 0)
(0.00101195 -2.61028e-06 0)
(0.00101262 -2.57899e-06 0)
(0.00101328 -2.53565e-06 0)
(0.00101393 -2.47946e-06 0)
(0.00101456 -2.41062e-06 0)
(0.00101517 -2.32803e-06 0)
(0.00101576 -2.23214e-06 0)
(0.00101633 -2.12133e-06 0)
(0.00101687 -1.99647e-06 0)
(0.00101737 -1.85511e-06 0)
(0.00101784 -1.6989e-06 0)
(0.00101827 -1.52421e-06 0)
(0.00101866 -1.33392e-06 0)
(0.001019 -1.12243e-06 0)
(0.00101928 -8.94596e-07 0)
(0.0010195 -6.41773e-07 0)
(0.00101967 -3.72287e-07 0)
(0.00101976 -7.26874e-08 0)
(0.00101978 2.43014e-07 0)
(0.00101972 5.96484e-07 0)
(0.00101957 9.64663e-07 0)
(0.00101933 1.38212e-06 0)
(0.00101898 1.81003e-06 0)
(0.00101853 2.304e-06 0)
(0.00101795 2.79902e-06 0)
(0.00101725 3.38544e-06 0)
(0.0010164 3.95583e-06 0)
(0.00101541 4.6574e-06 0)
(0.00101425 5.31297e-06 0)
(0.00101291 6.16141e-06 0)
(0.00101138 6.91003e-06 0)
(0.00100965 7.94712e-06 0)
(0.00100768 8.78885e-06 0)
(0.00100547 1.00692e-05 0)
(0.001 -1.46482e-07 0)
(0.00100005 -4.38686e-07 0)
(0.00100014 -7.28846e-07 0)
(0.00100028 -1.01565e-06 0)
(0.00100046 -1.29779e-06 0)
(0.00100069 -1.57398e-06 0)
(0.00100096 -1.84298e-06 0)
(0.00100128 -2.10362e-06 0)
(0.00100164 -2.35482e-06 0)
(0.00100203 -2.59558e-06 0)
(0.00100247 -2.82495e-06 0)
(0.00100293 -3.04211e-06 0)
(0.00100344 -3.24628e-06 0)
(0.00100397 -3.43676e-06 0)
(0.00100453 -3.61294e-06 0)
(0.00100512 -3.77424e-06 0)
(0.00100574 -3.92016e-06 0)
(0.00100637 -4.05022e-06 0)
(0.00100703 -4.16403e-06 0)
(0.0010077 -4.26113e-06 0)
(0.00100838 -4.34122e-06 0)
(0.00100908 -4.40384e-06 0)
(0.00100979 -4.44877e-06 0)
(0.0010105 -4.47548e-06 0)
(0.00101122 -4.48379e-06 0)
(0.00101194 -4.47308e-06 0)
(0.00101265 -4.44325e-06 0)
(0.00101336 -4.39346e-06 0)
(0.00101406 -4.32375e-06 0)
(0.00101476 -4.23293e-06 0)
(0.00101543 -4.12124e-06 0)
(0.00101609 -3.98703e-06 0)
(0.00101674 -3.83091e-06 0)
(0.00101735 -3.65048e-06 0)
(0.00101794 -3.4469e-06 0)
(0.0010185 -3.21661e-06 0)
(0.00101903 -2.96184e-06 0)
(0.00101952 -2.67733e-06 0)
(0.00101997 -2.36703e-06 0)
(0.00102037 -2.02291e-06 0)
(0.00102072 -1.65162e-06 0)
(0.00102102 -1.24079e-06 0)
(0.00102126 -8.01905e-07 0)
(0.00102144 -3.15815e-07 0)
(0.00102155 1.98037e-07 0)
(0.00102158 7.70125e-07 0)
(0.00102154 1.36799e-06 0)
(0.00102141 2.04151e-06 0)
(0.00102118 2.73556e-06 0)
(0.00102086 3.53006e-06 0)
(0.00102042 4.33228e-06 0)
(0.00101987 5.27188e-06 0)
(0.00101919 6.19561e-06 0)