/*--------------------------------*- C++ -*----------------------------------*\
| =========                 |                                                 |
| \\      /  F ield         | OpenFOAM: The Open Source CFD Toolbox           |
|  \\    /   O peration     | Version:  2312                                  |
|   \\  /    A nd           | Website:  www.openfoam.com                      |
|    \\/     M anipulation  |                                                 |
\*---------------------------------------------------------------------------*/
FoamFile
{
    version     2.0;
    format      ascii;
    arch        "LSB;label=32;scalar=64";
    class       surfaceScalarField;
    location    "103000";
    object      phi;
}
// * * * * * * * * * * * * * * * * * * * * * * * * * * * * * * * * * * * * * //

dimensions      [0 3 -1 0 0 0 0];

oriented        oriented;

internalField   nonuniform List<scalar> 
21240
(
0.000664974
1.69239e-06
0.000661071
3.90279e-06
0.00065575
5.3215e-06
0.000649513
6.23726e-06
0.000642637
6.8762e-06
0.000635264
7.37301e-06
0.000627485
7.77813e-06
0.000619381
8.10465e-06
0.000611022
8.35855e-06
0.000602473
8.54883e-06
0.000593786
8.68778e-06
0.000584998
8.78771e-06
0.00057614
8.85823e-06
0.000567234
8.90567e-06
0.0005583
8.93385e-06
0.000549355
8.94522e-06
0.000540413
8.9416e-06
0.000531489
8.92458e-06
0.000522593
8.89545e-06
0.000513738
8.85532e-06
0.000504933
8.80498e-06
0.000496188
8.74503e-06
0.000487512
8.67588e-06
0.000478914
8.59784e-06
0.000470403
8.51112e-06
0.000461987
8.41585e-06
0.000453675
8.31217e-06
0.000445475
8.20007e-06
0.000437395
8.07968e-06
0.000429444
7.95086e-06
0.000421631
7.81385e-06
0.000413962
7.66827e-06
0.000406448
7.51464e-06
0.000399095
7.3522e-06
0.000391913
7.18204e-06
0.000384911
7.00263e-06
0.000378095
6.81616e-06
0.000371475
6.61969e-06
0.000365058
6.41743e-06
0.000358854
6.20371e-06
0.000352867
5.98655e-06
0.000347112
5.75521e-06
0.000341587
5.5246e-06
0.000336313
5.27464e-06
0.00033128
5.0329e-06
0.000326518
4.76201e-06
0.000322005
4.51271e-06
0.000317789
4.21575e-06
0.000313825
3.96464e-06
0.000310195
3.63019e-06
0.000306807
3.38759e-06
0.000303818
2.98927e-06
0.00030104
2.77806e-06
0.000298792
2.24812e-06
0.000296663
2.12814e-06
0.00029541
1.25369e-06
0.000293923
1.4864e-06
0.000294125
-2.01194e-07
0.000292955
1.16912e-06
-3.19504e-06
0.00029615
0.000667556
8.03196e-07
0.00066912
2.3386e-06
0.000670853
3.58864e-06
0.000672523
4.56711e-06
0.000674051
5.34841e-06
0.000675423
6.00132e-06
0.000676633
6.56747e-06
0.000677673
7.06528e-06
0.000678529
7.50179e-06
0.000679197
7.88143e-06
0.000679675
8.20984e-06
0.000679968
8.49392e-06
0.000680086
8.7407e-06
0.000680036
8.95603e-06
0.000679825
9.14423e-06
0.000679462
9.30822e-06
0.000678954
9.45016e-06
0.000678307
9.57161e-06
0.000677528
9.67402e-06
0.000676625
9.75845e-06
0.000675604
9.82602e-06
0.000674472
9.87727e-06
0.000673235
9.91304e-06
0.000671899
9.93338e-06
0.000670471
9.93904e-06
0.000668957
9.9296e-06
0.000667364
9.90597e-06
0.000665696
9.86718e-06
0.000663962
9.81455e-06
0.000662166
9.74636e-06
0.000660315
9.66472e-06
0.000658417
9.56676e-06
0.000656475
9.45597e-06
0.0006545
9.3276e-06
0.000652494
9.18754e-06
0.000650469
9.02796e-06
0.000648427
8.85871e-06
0.000646379
8.66688e-06
0.000644328
8.46892e-06
0.000642288
8.24349e-06
0.000640257
8.01793e-06
0.000638255
7.75698e-06
0.000636274
7.50594e-06
0.000634342
7.20647e-06
0.000632441
6.93363e-06
0.000630612
6.59082e-06
0.000628823
6.30228e-06
0.00062713
5.90822e-06
0.000625481
5.614e-06
0.000623955
5.15573e-06
0.000622471
4.87227e-06
0.000621131
4.3292e-06
0.000619826
4.08303e-06
0.00061865
3.42419e-06
0.000617521
3.25649e-06
0.000616333
2.44197e-06
0.000615411
2.40839e-06
0.00061379
1.41959e-06
0.000613389
1.57076e-06
4.75985e-07
0.000609718
0.000666951
5.19029e-07
0.000667818
1.47129e-06
0.000669058
2.3492e-06
0.000670482
3.14284e-06
0.000671982
3.84806e-06
0.000673511
4.47251e-06
0.00067505
5.0284e-06
0.000676589
5.52684e-06
0.000678115
5.97566e-06
0.000679616
6.37973e-06
0.000681084
6.74262e-06
0.00068251
7.06757e-06
0.000683893
7.35812e-06
0.000685231
7.61773e-06
0.000686525
7.84969e-06
0.000687777
8.0566e-06
0.000688986
8.24072e-06
0.000690154
8.40356e-06
0.000691282
8.54664e-06
0.000692369
8.67083e-06
0.000693418
8.77732e-06
0.000694429
8.86651e-06
0.000695403
8.9394e-06
0.00069634
8.99593e-06
0.000697242
9.03705e-06
0.000698109
9.06215e-06
0.000698943
9.07237e-06
0.000699744
9.06648e-06
0.000700512
9.04603e-06
0.00070125
9.00898e-06
0.000701957
8.95766e-06
0.000702635
8.88888e-06
0.000703284
8.80621e-06
0.000703907
8.70482e-06
0.000704504
8.59019e-06
0.000705077
8.45509e-06
0.000705628
8.30788e-06
0.000706157
8.13779e-06
0.000706669
7.95748e-06
0.000707161
7.75104e-06
0.000707642
7.53732e-06
0.000708106
7.29307e-06
0.000708566
7.04599e-06
0.00070901
6.76245e-06
0.000709461
6.4825e-06
0.000709893
6.15832e-06
0.000710349
5.84657e-06
0.000710776
5.48079e-06
0.000711252
5.13892e-06
0.000711676
4.73149e-06
0.000712186
4.36152e-06
0.000712601
3.91448e-06
0.000713166
3.51832e-06
0.000713551
3.03897e-06
0.00071419
2.61808e-06
0.000714505
2.12665e-06
0.000715232
1.68124e-06
0.000715424
1.22767e-06
0.000716248
7.46767e-07
4.32621e-07
0.000716291
0.000666854
3.3197e-07
0.000667308
1.0168e-06
0.000667971
1.68634e-06
0.000668794
2.31987e-06
0.000669734
2.90819e-06
0.000670758
3.4484e-06
0.000671844
3.94204e-06
0.000672978
4.39278e-06
0.00067415
4.80452e-06
0.000675349
5.1805e-06
0.000676568
5.52321e-06
0.000677801
5.83471e-06
0.000679042
6.11699e-06
0.000680288
6.372e-06
0.000681536
6.60178e-06
0.000682784
6.80815e-06
0.000684032
6.99279e-06
0.000685279
7.15702e-06
0.000686523
7.30205e-06
0.000687765
7.42872e-06
0.000689005
7.53792e-06
0.000690241
7.63017e-06
0.000691474
7.70614e-06
0.000692704
7.76607e-06
0.000693931
7.81048e-06
0.000695154
7.83935e-06
0.000696373
7.85307e-06
0.000697588
7.85142e-06
0.000698799
7.83471e-06
0.000700006
7.80253e-06
0.000701208
7.75515e-06
0.000702405
7.69203e-06
0.000703598
7.61336e-06
0.000704784
7.51859e-06
0.000705967
7.40773e-06
0.000707141
7.28043e-06
0.000708313
7.13622e-06
0.000709475
6.97543e-06
0.000710636
6.79652e-06
0.000711786
6.60131e-06
0.000712937
6.38614e-06
0.000714075
6.15581e-06
0.000715218
5.90254e-06
0.000716344
5.63681e-06
0.000717483
5.34318e-06
0.000718599
5.04251e-06
0.00071974
4.70565e-06
0.000720849
4.37196e-06
0.000721999
3.98821e-06
0.000723105
3.62614e-06
0.000724275
3.191e-06
0.00072538
2.80997e-06
0.00072658
2.31764e-06
0.000727685
1.93444e-06
0.000728927
1.37631e-06
0.000730034
1.01882e-06
0.000731333
3.83119e-07
0.000732462
9.84392e-08
0.000733894
-6.85253e-07
-8.52954e-07
0.000735179
0.000666738
2.60293e-07
0.000666969
7.85771e-07
0.000667355
1.30044e-06
0.000667878
1.79727e-06
0.000668516
2.27037e-06
0.000669248
2.71614e-06
0.000670057
3.13313e-06
0.000670928
3.52141e-06
0.000671851
3.88187e-06
0.000672816
4.21563e-06
0.000673815
4.52377e-06
0.000674843
4.80727e-06
0.000675893
5.06707e-06
0.00067696
5.30415e-06
0.000678043
5.51951e-06
0.000679137
5.71422e-06
0.00068024
5.88923e-06
0.000681352
6.04548e-06
0.00068247
6.18372e-06
0.000683594
6.30467e-06
0.000684723
6.40886e-06
0.000685856
6.49684e-06
0.000686994
6.56892e-06
0.000688134
6.62555e-06
0.000689278
6.66682e-06
0.000690424
6.69313e-06
0.000691573
6.7043e-06
0.000692723
6.70078e-06
0.000693876
6.68204e-06
0.00069503
6.64872e-06
0.000696185
6.59981e-06
0.000697341
6.53636e-06
0.000698498
6.45665e-06
0.000699654
6.36246e-06
0.000700811
6.25095e-06
0.000701966
6.12521e-06
0.000703121
5.98059e-06
0.000704274
5.8224e-06
0.000705428
5.64303e-06
0.000706578
5.45147e-06
0.000707729
5.23537e-06
0.000708875
5.00972e-06
0.000710023
4.75449e-06
0.000711165
4.49447e-06
0.000712311
4.19724e-06
0.00071345
3.90334e-06
0.000714595
3.56043e-06
0.000715733
3.23418e-06
0.000716881
2.84027e-06
0.000718023
2.48434e-06
0.000719183
2.03108e-06
0.000720343
1.64997e-06
0.000721536
1.1247e-06
0.000722744
7.26463e-07
0.000724014
1.06013e-07
0.00072531
-2.76977e-07
0.00072667
-9.7735e-07
0.000728106
-1.33717e-06
0.000729616
-2.19556e-06
-2.50702e-06
0.00073127
0.000666724
2.03076e-07
0.000666899
6.11002e-07
0.000667183
1.0162e-06
0.000667568
1.41213e-06
0.000668043
1.79509e-06
0.000668597
2.16214e-06
0.000669219
2.51121e-06
0.0006699
2.84109e-06
0.00067063
3.15121e-06
0.000671404
3.44143e-06
0.000672216
3.71183e-06
0.000673061
3.96268e-06
0.000673934
4.19432e-06
0.000674831
4.40721e-06
0.000675748
4.60181e-06
0.000676684
4.77864e-06
0.000677635
4.9382e-06
0.000678599
5.08104e-06
0.000679576
5.2076e-06
0.000680562
5.31836e-06
0.000681557
5.41362e-06
0.00068256
5.49382e-06
0.00068357
5.55906e-06
0.000684586
5.60976e-06
0.000685607
5.64584e-06
0.000686632
5.66772e-06
0.000687661
5.67506e-06
0.000688694
5.6684e-06
0.000689729
5.64704e-06
0.000690766
5.61174e-06
0.000691804
5.56133e-06
0.000692844
5.49698e-06
0.000693883
5.41681e-06
0.000694923
5.32271e-06
0.000695962
5.21172e-06
0.000697001
5.08693e-06
0.000698038
4.94372e-06
0.000699073
4.78714e-06
0.000700106
4.60995e-06
0.000701137
4.42034e-06
0.000702165
4.20699e-06
0.000703192
3.98304e-06
0.000704216
3.7308e-06
0.000705239
3.47121e-06
0.00070626
3.17657e-06
0.000707283
2.88013e-06
0.000708305
2.5387e-06
0.000709334
2.20502e-06
0.000710362
1.81195e-06
0.000711404
1.44271e-06
0.000712442
9.92872e-07
0.000713499
5.92803e-07
0.00071454
8.34446e-08
0.000715625
-3.58366e-07
0.000716703
-9.71322e-07
0.000717855
-1.42977e-06
0.000719022
-2.1436e-06
0.000720295
-2.6104e-06
0.000721563
-3.46364e-06
-3.91838e-06
0.000722974
0.000666708
1.61423e-07
0.000666833
4.86008e-07
0.00066704
8.09718e-07
0.000667324
1.12798e-06
0.000667681
1.43825e-06
0.000668105
1.7384e-06
0.000668589
2.02669e-06
0.000669128
2.30189e-06
0.000669716
2.56324e-06
0.000670347
2.81039e-06
0.000671017
3.04196e-06
0.000671722
3.25808e-06
0.000672457
3.45886e-06
0.00067322
3.64442e-06
0.000674007
3.81486e-06
0.000674815
3.97039e-06
0.000675642
4.1112e-06
0.000676486
4.23755e-06
0.000677344
4.34964e-06
0.000678214
4.44773e-06
0.000679096
4.53196e-06
0.000679987
4.60259e-06
0.000680887
4.65962e-06
0.000681793
4.70332e-06
0.000682705
4.73356e-06
0.000683622
4.75061e-06
0.000684543
4.75418e-06
0.000685467
4.74459e-06
0.000686393
4.72129e-06
0.00068732
4.68477e-06
0.000688247
4.63411e-06
0.000689174
4.57008e-06
0.000690099
4.49126e-06
0.000691023
4.39887e-06
0.000691944
4.29074e-06
0.000692862
4.16888e-06
0.000693776
4.02994e-06
0.000694686
3.87723e-06
0.00069559
3.70562e-06
0.00069649
3.52046e-06
0.000697383
3.31387e-06
0.000698272
3.09445e-06
0.000699153
2.85012e-06
0.000700029
2.59461e-06
0.000700897
2.3093e-06
0.000701761
2.01589e-06
0.000702614
1.68528e-06
0.000703468
1.35134e-06
0.000704311
9.68391e-07
0.000705165
5.89513e-07
0.000706015
1.42725e-07
0.000706885
-2.77953e-07
0.000707755
-7.8634e-07
0.000708651
-1.25455e-06
0.000709531
-1.85038e-06
0.000710467
-2.36612e-06
0.000711389
-3.06607e-06
0.000712404
-3.62548e-06
0.000713397
-4.45635e-06
-5.0489e-06
0.000714528
0.000666699
1.29458e-07
0.000666795
3.89392e-07
0.000666956
6.49e-07
0.000667179
9.05075e-07
0.000667461
1.15587e-06
0.0006678
1.39986e-06
0.000668191
1.6357e-06
0.00066863
1.86231e-06
0.000669115
2.07879e-06
0.000669641
2.28443e-06
0.000670204
2.4786e-06
0.000670801
2.66089e-06
0.000671429
2.83109e-06
0.000672084
2.98908e-06
0.000672765
3.13479e-06
0.000673467
3.2682e-06
0.000674189
3.38932e-06
0.000674928
3.49819e-06
0.000675683
3.59484e-06
0.000676451
3.67936e-06
0.000677231
3.75178e-06
0.000678022
3.81218e-06
0.000678821
3.86054e-06
0.000679627
3.89695e-06
0.000680439
3.9213e-06
0.000681256
3.93367e-06
0.000682077
3.93385e-06
0.000682899
3.92195e-06
0.000683723
3.89759e-06
0.000684547
3.86094e-06
0.00068537
3.81141e-06
0.00068619
3.74928e-06
0.000687008
3.67367e-06
0.000687822
3.58507e-06
0.00068863
3.48217e-06
0.000689433
3.36581e-06
0.000690229
3.23406e-06
0.000691018
3.08835e-06
0.000691798
2.92581e-06
0.00069257
2.74884e-06
0.00069333
2.55314e-06
0.000694082
2.3426e-06
0.000694821
2.11078e-06
0.000695552
1.86395e-06
0.000696269
1.59237e-06
0.000696979
1.30615e-06
0.000697673
9.90664e-07
0.000698363
6.62234e-07
0.000699032
2.99211e-07
0.000699695
-7.35925e-08
0.000700339
-5.01755e-07
0.000700994
-9.32624e-07
0.00070163
-1.42273e-06
0.000702286
-1.91008e-06
0.000702915
-2.47903e-06
0.000703579
-3.0307e-06
0.000704208
-3.69481e-06
0.000704897
-4.31506e-06
0.000705534
-5.09341e-06
-5.78255e-06
0.000706268
0.000666693
1.03346e-07
0.000666771
3.10711e-07
0.000666902
5.17972e-07
0.000667085
7.22786e-07
0.000667317
9.2392e-07
0.000667596
1.12025e-06
0.000667921
1.31077e-06
0.000668289
1.49457e-06
0.000668697
1.67091e-06
0.000669142
1.83912e-06
0.000669622
1.99869e-06
0.000670134
2.14919e-06
0.000670675
2.29027e-06
0.000671242
2.42169e-06
0.000671834
2.54327e-06
0.000672447
2.65485e-06
0.00067308
2.75634e-06
0.00067373
2.84765e-06
0.000674397
2.92873e-06
0.000675076
2.99954e-06
0.000675768
3.06003e-06
0.00067647
3.11018e-06
0.000677181
3.14993e-06
0.000677898
3.17924e-06
0.000678622
3.19803e-06
0.000679349
3.20625e-06
0.000680079
3.20373e-06
0.000680811
3.19043e-06
0.000681542
3.1661e-06
0.000682273
3.13068e-06
0.000683
3.08382e-06
0.000683724
3.02545e-06
0.000684443
2.95509e-06
0.000685155
2.87268e-06
0.000685859
2.77758e-06
0.000686556
2.66975e-06
0.000687241
2.54834e-06
0.000687916
2.41338e-06
0.000688578
2.26372e-06
0.000689228
2.09954e-06
0.000689862
1.91926e-06
0.000690481
1.72332e-06
0.000691082
1.50959e-06
0.000691667
1.27889e-06
0.000692231
1.02827e-06
0.000692778
7.59189e-07
0.000693301
4.67506e-07
0.000693808
1.55948e-07
0.000694291
-1.83713e-07
0.000694764
-5.47446e-07
0.000695205
-9.42245e-07
0.000695634
-1.36202e-06
0.00069603
-1.81876e-06
0.000696423
-2.30265e-06
0.000696775
-2.83152e-06
0.000697135
-3.39004e-06
0.000697444
-4.0042e-06
0.000697778
-4.64932e-06
0.000698049
-5.36377e-06
-6.10679e-06
0.000698373
0.000666689
8.13292e-08
0.000666755
2.44453e-07
0.000666865
4.0757e-07
0.000667019
5.68939e-07
0.000667215
7.27668e-07
0.000667453
8.82934e-07
0.00066773
1.03398e-06
0.000668044
1.18011e-06
0.000668394
1.32073e-06
0.000668778
1.45529e-06
0.000669193
1.58334e-06
0.000669638
1.70447e-06
0.00067011
1.81836e-06
0.000670607
1.92472e-06
0.000671127
2.02332e-06
0.000671668
2.11396e-06
0.000672228
2.1965e-06
0.000672804
2.27079e-06
0.000673396
2.33673e-06
0.000674002
2.39422e-06
0.000674619
2.44316e-06
0.000675245
2.48348e-06
0.00067588
2.51508e-06
0.000676522
2.53788e-06
0.000677168
2.55177e-06
0.000677817
2.55665e-06
0.000678469
2.55239e-06
0.00067912
2.53882e-06
0.000679771
2.51583e-06
0.000680418
2.48317e-06
0.000681061
2.44069e-06
0.000681699
2.38806e-06
0.000682329
2.32514e-06
0.00068295
2.25146e-06
0.000683561
2.16688e-06
0.00068416
2.07076e-06
0.000684745
1.96302e-06
0.000685316
1.84275e-06
0.000685869
1.71001e-06
0.000686405
1.56346e-06
0.000686921
1.40347e-06
0.000687416
1.22807e-06
0.000687888
1.03814e-06
0.000688336
8.30739e-07
0.000688756
6.07771e-07
0.000689151
3.64887e-07
0.000689512
1.0623e-07
0.000689848
-1.79699e-07
0.000690149
-4.85145e-07
0.000690421
-8.1949e-07
0.000690651
-1.17254e-06
0.000690852
-1.56258e-06
0.000691005
-1.97136e-06
0.00069113
-2.42759e-06
0.000691199
-2.90047e-06
0.000691244
-3.43586e-06
0.000691223
-3.98243e-06
0.000691186
-4.61327e-06
0.000691066
-5.24315e-06
-5.9877e-06
0.000690947
0.000666686
6.22428e-08
0.000666743
1.87054e-07
0.000666839
3.11899e-07
0.000666972
4.35497e-07
0.000667143
5.57202e-07
0.000667349
6.76418e-07
0.000667591
7.92588e-07
0.000667866
9.05195e-07
0.000668173
1.01377e-06
0.00066851
1.1179e-06
0.000668876
1.21719e-06
0.000669269
1.31132e-06
0.000669688
1.39999e-06
0.000670129
1.48295e-06
0.000670593
1.55997e-06
0.000671076
1.63085e-06
0.000671577
1.69544e-06
0.000672094
1.75359e-06
0.000672626
1.80517e-06
0.00067317
1.85005e-06
0.000673725
1.88814e-06
0.000674289
1.91933e-06
0.000674861
1.94353e-06
0.000675438
1.9606e-06
0.000676019
1.97048e-06
0.000676603
1.97299e-06
0.000677187
1.96807e-06
0.00067777
1.9555e-06
0.000678351
1.93522e-06
0.000678927
1.90692e-06
0.000679497
1.87056e-06
0.00068006
1.82571e-06
0.000680612
1.7724e-06
0.000681154
1.70999e-06
0.000681682
1.63862e-06
0.000682196
1.55737e-06
0.000682692
1.46661e-06
0.00068317
1.36494e-06
0.000683627
1.25314e-06
0.000684061
1.12911e-06
0.00068447
9.943e-07
0.000684853
8.45516e-07
0.000685206
6.85366e-07
0.000685527
5.08934e-07
0.000685814
3.20793e-07
0.000686066
1.13583e-07
0.000686279
-1.07261e-07
0.000686454
-3.54567e-07
0.000686582
-6.13146e-07
0.000686665
-9.02964e-07
0.000686696
-1.20289e-06
0.000686677
-1.54407e-06
0.000686597
-1.89148e-06
0.000686465
-2.29477e-06
0.00068626
-2.6963e-06
0.000686
-3.17561e-06
0.000685656
-3.63819e-06
0.000685254
-4.21171e-06
0.000684752
-4.74113e-06
-5.43103e-06
0.000684196
0.000666684
4.52515e-08
0.000666735
1.3598e-07
0.00066682
2.26755e-07
0.000666939
3.16669e-07
0.000667091
4.05274e-07
0.000667275
4.92149e-07
0.000667491
5.769e-07
0.000667737
6.59158e-07
0.000668012
7.38585e-07
0.000668315
8.14866e-07
0.000668644
8.87717e-07
0.000668999
9.5688e-07
0.000669377
1.02212e-06
0.000669776
1.08324e-06
0.000670196
1.14005e-06
0.000670635
1.19238e-06
0.00067109
1.24009e-06
0.000671561
1.28305e-06
0.000672045
1.32115e-06
0.00067254
1.35426e-06
0.000673046
1.3823e-06
0.00067356
1.40515e-06
0.000674081
1.42275e-06
0.000674607
1.43495e-06
0.000675136
1.44171e-06
0.000675666
1.44286e-06
0.000676195
1.43836e-06
0.000676723
1.42799e-06
0.000677246
1.41174e-06
0.000677764
1.38929e-06
0.000678274
1.36068e-06
0.000678774
1.32546e-06
0.000679263
1.28376e-06
0.000679738
1.23493e-06
0.000680197
1.17925e-06
0.000680639
1.11574e-06
0.000681061
1.04497e-06
0.00068146
9.65469e-07
0.000681835
8.78277e-07
0.000682183
7.81165e-07
0.000682501
6.75949e-07
0.000682788
5.59208e-07
0.000683039
4.34084e-07
0.000683252
2.95303e-07
0.000683425
1.48322e-07
0.000683553
-1.4692e-08
0.000683636
-1.89902e-07
0.000683667
-3.85782e-07
0.000683643
-5.8864e-07
0.000683559
-8.19913e-07
0.000683412
-1.05563e-06
0.000683198
-1.32977e-06
0.000682909
-1.60292e-06
0.000682544
-1.92954e-06
0.000682093
-2.24504e-06
0.000681554
-2.63699e-06
0.000680916
-2.99955e-06
0.000680178
-3.47399e-06
0.000679323
-3.88656e-06
-4.46526e-06
0.000678358
0.000666682
2.97091e-08
0.000666729
8.92744e-08
0.000666807
1.48885e-07
0.000666915
2.07957e-07
0.000667055
2.66202e-07
0.000667223
3.23352e-07
0.000667421
3.79154e-07
0.000667647
4.33366e-07
0.0006679
4.85768e-07
0.000668178
5.36152e-07
0.000668482
5.84328e-07
0.000668809
6.3012e-07
0.000669157
6.7337e-07
0.000669527
7.13933e-07
0.000669915
7.5168e-07
0.000670321
7.86489e-07
0.000670743
8.1826e-07
0.000671179
8.46889e-07
0.000671628
8.72297e-07
0.000672088
8.9439e-07
0.000672557
9.13105e-07
0.000673034
9.2835e-07
0.000673516
9.40076e-07
0.000674003
9.48177e-07
0.000674492
9.52619e-07
0.000674982
9.53271e-07
0.00067547
9.50113e-07
0.000675955
9.42971e-07
0.000676435
9.31852e-07
0.000676908
9.16512e-07
0.000677371
8.97002e-07
0.000677824
8.7297e-07
0.000678263
8.44548e-07
0.000678687
8.11217e-07
0.000679093
7.73246e-07
0.000679479
7.29863e-07
0.000679842
6.81571e-07
0.00068018
6.27198e-07
0.000680491
5.67648e-07
0.000680771
5.01126e-07
0.000681018
4.29202e-07
0.000681228
3.49106e-07
0.000681398
2.63519e-07
0.000681526
1.68151e-07
0.000681606
6.76082e-08
0.000681637
-4.58634e-08
0.000681613
-1.65715e-07
0.000681529
-3.01347e-07
0.000681381
-4.40763e-07
0.000681163
-6.01559e-07
0.000680871
-7.63697e-07
0.000680496
-9.55218e-07
0.000680036
-1.14321e-06
0.00067948
-1.37271e-06
0.000678824
-1.58976e-06
0.000678054
-1.86706e-06
0.000677171
-2.1161e-06
0.000676151
-2.45456e-06
0.000675002
-2.73683e-06
-3.15381e-06
0.00067369
0.000666681
1.50801e-08
0.000666725
4.53201e-08
0.000666799
7.55967e-08
0.000666901
1.05619e-07
0.000667032
1.35245e-07
0.000667191
1.64339e-07
0.000667377
1.92776e-07
0.00066759
2.20436e-07
0.000667829
2.47206e-07
0.000668092
2.72982e-07
0.000668379
2.97668e-07
0.000668687
3.21172e-07
0.000669017
3.43414e-07
0.000669367
3.64317e-07
0.000669735
3.83815e-07
0.00067012
4.01843e-07
0.000670519
4.18349e-07
0.000670933
4.33276e-07
0.000671359
4.46583e-07
0.000671795
4.58219e-07
0.00067224
4.68151e-07
0.000672692
4.76328e-07
0.000673149
4.82727e-07
0.00067361
4.8729e-07
0.000674073
4.9e-07
0.000674535
4.90787e-07
0.000674996
4.89645e-07
0.000675452
4.86479e-07
0.000675903
4.81299e-07
0.000676345
4.73973e-07
0.000676778
4.64537e-07
0.000677198
4.52799e-07
0.000677604
4.38843e-07
0.000677993
4.22385e-07
0.000678362
4.03587e-07
0.00067871
3.82026e-07
0.000679034
3.57997e-07
0.00067933
3.30856e-07
0.000679596
3.01126e-07
0.00067983
2.67814e-07
0.000680027
2.31818e-07
0.000680185
1.91593e-07
0.0006803
1.48647e-07
0.000680367
1.00584e-07
0.000680385
4.99937e-08
0.000680346
-6.84415e-09
0.000680247
-6.73578e-08
0.000680082
-1.36038e-07
0.000679848
-2.06271e-07
0.000679534
-2.87918e-07
0.00067914
-3.69674e-07
0.000678652
-4.6725e-07
0.000678071
-5.62087e-07
0.000677378
-6.79469e-07
0.000676577
-7.88968e-07
0.000675641
-9.31467e-07
0.000674582
-1.05699e-06
0.000673359
-1.23189e-06
0.000671996
-1.37381e-06
-1.59069e-06
0.000670433
0.000666681
8.86197e-10
0.000666723
2.68599e-09
0.000666795
4.50527e-09
0.000666894
6.33968e-09
0.000667021
8.18244e-09
0.000667175
1.00274e-08
0.000667356
1.18688e-08
0.000667563
1.37017e-08
0.000667795
1.55212e-08
0.00066805
1.7323e-08
0.000668329
1.9103e-08
0.000668629
2.08576e-08
0.00066895
2.25835e-08
0.00066929
2.42778e-08
0.000669648
2.59379e-08
0.000670022
2.75619e-08
0.000670411
2.91483e-08
0.000670814
3.06959e-08
0.000671228
3.22043e-08
0.000671653
3.36731e-08
0.000672086
3.51027e-08
0.000672526
3.64937e-08
0.000672971
3.78471e-08
0.000673419
3.91647e-08
0.000673868
4.04483e-08
0.000674317
4.17003e-08
0.000674764
4.29231e-08
0.000675206
4.41203e-08
0.000675642
4.52947e-08
0.00067607
4.64503e-08
0.000676487
4.7591e-08
0.000676891
4.87214e-08
0.00067728
4.98456e-08
0.000677651
5.09696e-08
0.000678003
5.20973e-08
0.000678332
5.32346e-08
0.000678635
5.43865e-08
0.000678911
5.55577e-08
0.000679155
5.67512e-08
0.000679365
5.79751e-08
0.000679537
5.92397e-08
0.000679668
6.05675e-08
0.000679755
6.20013e-08
0.000679792
6.35995e-08
0.000679777
6.52937e-08
0.000679703
6.70372e-08
0.000679567
6.87857e-08
0.00067936
7.05898e-08
0.000679081
7.25094e-08
0.000678719
7.45633e-08
0.000678272
7.67743e-08
0.000677726
7.91193e-08
0.000677082
8.16336e-08
0.000676319
8.42903e-08
0.000675442
8.71529e-08
0.000674421
9.01689e-08
0.00067327
9.34306e-08
0.000671942
9.68485e-08
0.000670467
1.00549e-07
1.0439e-07
0.000668772
0.000666681
-1.33137e-08
0.000666724
-3.9983e-08
0.000666795
-6.66372e-08
0.000666894
-9.30095e-08
0.000667021
-1.18969e-07
0.000667176
-1.44393e-07
0.000667357
-1.69167e-07
0.000667564
-1.9318e-07
0.000667795
-2.1633e-07
0.000668051
-2.38521e-07
0.00066833
-2.59665e-07
0.000668631
-2.79679e-07
0.000668952
-2.98487e-07
0.000669292
-3.1602e-07
0.00066965
-3.32216e-07
0.000670025
-3.47015e-07
0.000670414
-3.60365e-07
0.000670817
-3.72214e-07
0.000671232
-3.82521e-07
0.000671657
-3.91236e-07
0.00067209
-3.98326e-07
0.00067253
-4.03738e-07
0.000672976
-4.07445e-07
0.000673424
-4.09389e-07
0.000673874
-4.09547e-07
0.000674324
-4.07846e-07
0.000674771
-4.04273e-07
0.000675214
-3.98728e-07
0.00067565
-3.91214e-07
0.000676078
-3.81591e-07
0.000676496
-3.69888e-07
0.0006769
-3.55904e-07
0.00067729
-3.39713e-07
0.000677662
-3.21022e-07
0.000678014
-2.99983e-07
0.000678343
-2.76159e-07
0.000678648
-2.49839e-07
0.000678924
-2.20364e-07
0.000679169
-1.88248e-07
0.000679379
-1.52488e-07
0.000679552
-1.13984e-07
0.000679684
-7.1213e-08
0.000679772
-2.57627e-08
0.00067981
2.52572e-08
0.000679796
7.96252e-08
0.000679722
1.40593e-07
0.000679587
2.04098e-07
0.000679381
2.76311e-07
0.000679103
3.50395e-07
0.000678742
4.36126e-07
0.000678296
5.22254e-07
0.000677751
6.24445e-07
0.000677108
7.24255e-07
0.000676346
8.46879e-07
0.000675471
9.62054e-07
0.000674451
1.11049e-06
0.000673301
1.24249e-06
0.000671974
1.42412e-06
0.000670501
1.57342e-06
1.79786e-06
0.000668808
0.000666681
-2.79723e-08
0.000666725
-8.4024e-08
0.000666799
-1.40069e-07
0.000666901
-1.95548e-07
0.000667033
-2.50185e-07
0.000667192
-3.03722e-07
0.000667379
-3.55918e-07
0.000667592
-4.06542e-07
0.000667831
-4.55382e-07
0.000668095
-5.02238e-07
0.000668382
-5.4693e-07
0.000668692
-5.89288e-07
0.000669022
-6.29162e-07
0.000669373
-6.66409e-07
0.000669741
-7.00909e-07
0.000670127
-7.32543e-07
0.000670528
-7.61212e-07
0.000670942
-7.86816e-07
0.000671369
-8.09276e-07
0.000671806
-8.28499e-07
0.000672252
-8.44422e-07
0.000672706
-8.56951e-07
0.000673164
-8.66034e-07
0.000673626
-8.71564e-07
0.00067409
-8.73501e-07
0.000674554
-8.7171e-07
0.000675016
-8.66167e-07
0.000675474
-8.56692e-07
0.000675926
-8.43284e-07
0.00067637
-8.25692e-07
0.000676804
-8.03961e-07
0.000677226
-7.77728e-07
0.000677634
-7.47116e-07
0.000678024
-7.11598e-07
0.000678396
-6.71433e-07
0.000678745
-6.25837e-07
0.000679071
-5.75304e-07
0.000679369
-5.18652e-07
0.000679638
-4.56775e-07
0.000679873
-3.87869e-07
0.000680072
-3.13494e-07
0.000680232
-2.30881e-07
0.000680349
-1.42726e-07
0.000680419
-4.49225e-08
0.00068044
5.93907e-08
0.000680403
1.77155e-07
0.000680307
2.99948e-07
0.000680144
4.38962e-07
0.000679913
5.82086e-07
0.000679602
7.46831e-07
0.000679211
9.13226e-07
0.000678726
1.10922e-06
0.000678149
1.30205e-06
0.000677459
1.5366e-06
0.000676662
1.75918e-06
0.00067573
2.04217e-06
0.000674675
2.29754e-06
0.000673457
2.6424e-06
0.000672098
2.93192e-06
3.35597e-06
0.00067054
0.000666682
-4.35604e-08
0.000666729
-1.30868e-07
0.000666807
-2.18171e-07
0.000666916
-3.04588e-07
0.000667056
-3.89679e-07
0.000667225
-4.73038e-07
0.000667423
-5.54279e-07
0.00066765
-6.33046e-07
0.000667904
-7.09007e-07
0.000668183
-7.81856e-07
0.000668488
-8.51318e-07
0.000668815
-9.17142e-07
0.000669165
-9.79103e-07
0.000669536
-1.037e-06
0.000669926
-1.09065e-06
0.000670333
-1.13989e-06
0.000670756
-1.18459e-06
0.000671194
-1.22461e-06
0.000671645
-1.25985e-06
0.000672106
-1.29017e-06
0.000672578
-1.3155e-06
0.000673056
-1.33572e-06
0.000673541
-1.35076e-06
0.00067403
-1.36047e-06
0.000674521
-1.3648e-06
0.000675013
-1.36359e-06
0.000675504
-1.35678e-06
0.000675991
-1.34415e-06
0.000676474
-1.32568e-06
0.000676949
-1.30105e-06
0.000677415
-1.27029e-06
0.00067787
-1.23295e-06
0.000678313
-1.18914e-06
0.000678739
-1.1382e-06
0.000679148
-1.08039e-06
0.000679537
-1.01475e-06
0.000679903
-9.4182e-07
0.000680245
-8.60125e-07
0.000680559
-7.70688e-07
0.000680842
-6.71275e-07
0.000681092
-5.63697e-07
0.000681306
-4.44532e-07
0.00068148
-3.16931e-07
0.000681611
-1.75674e-07
0.000681697
-2.66307e-08
0.000681732
1.42441e-07
0.000681712
3.19882e-07
0.000681632
5.1899e-07
0.000681489
7.25406e-07
0.000681275
9.60431e-07
0.000680988
1.2002e-06
0.000680619
1.47856e-06
0.000680164
1.75634e-06
0.000679613
2.08771e-06
0.000678964
2.4085e-06
0.0006782
2.80574e-06
0.000677324
3.17439e-06
0.000676311
3.65469e-06
0.000675169
4.07431e-06
4.65934e-06
0.000673865
0.000666684
-6.06146e-08
0.000666735
-1.82133e-07
0.00066682
-3.03636e-07
0.00066694
-4.23867e-07
0.000667092
-5.42192e-07
0.000667277
-6.58025e-07
0.000667494
-7.70818e-07
0.000667741
-8.80067e-07
0.000668017
-9.85311e-07
0.000668321
-1.08614e-06
0.000668652
-1.18217e-06
0.000669008
-1.27309e-06
0.000669388
-1.35861e-06
0.000669789
-1.43847e-06
0.000670211
-1.51246e-06
0.000670651
-1.58039e-06
0.000671109
-1.64209e-06
0.000671582
-1.69741e-06
0.000672068
-1.74625e-06
0.000672566
-1.78846e-06
0.000673075
-1.82396e-06
0.000673592
-1.85262e-06
0.000674115
-1.87437e-06
0.000674644
-1.88905e-06
0.000675176
-1.89661e-06
0.000675709
-1.89686e-06
0.000676242
-1.88974e-06
0.000676773
-1.87502e-06
0.0006773
-1.85263e-06
0.000677821
-1.82225e-06
0.000678335
-1.78385e-06
0.000678839
-1.73697e-06
0.000679331
-1.68165e-06
0.00067981
-1.61723e-06
0.000680274
-1.54386e-06
0.000680719
-1.46058e-06
0.000681145
-1.36777e-06
0.000681549
-1.26401e-06
0.000681929
-1.15008e-06
0.000682281
-1.02385e-06
0.000682604
-8.86779e-07
0.000682895
-7.35645e-07
0.000683152
-5.73076e-07
0.00068337
-3.94143e-07
0.000683547
-2.03533e-07
0.000683684
5.0835e-09
0.000683772
2.31954e-07
0.000683809
4.81911e-07
0.000683791
7.43741e-07
0.000683714
1.03703e-06
0.000683574
1.34074e-06
0.000683367
1.68582e-06
0.000683085
2.03755e-06
0.000682728
2.44517e-06
0.000682285
2.85168e-06
0.000681755
3.33576e-06
0.000681125
3.80413e-06
0.000680397
4.3828e-06
0.000679552
4.91901e-06
5.61426e-06
0.000678597
0.000666686
-7.97806e-08
0.000666743
-2.39773e-07
0.00066684
-3.99712e-07
0.000666974
-5.57881e-07
0.000667145
-7.13397e-07
0.000667352
-8.65448e-07
0.000667595
-1.01329e-06
0.000667871
-1.15623e-06
0.000668179
-1.29368e-06
0.000668518
-1.42511e-06
0.000668886
-1.55007e-06
0.000669281
-1.66816e-06
0.000669702
-1.77906e-06
0.000670146
-1.88248e-06
0.000670611
-1.97821e-06
0.000671097
-2.06605e-06
0.000671601
-2.14585e-06
0.000672121
-2.21747e-06
0.000672655
-2.28082e-06
0.000673203
-2.33578e-06
0.000673761
-2.38227e-06
0.000674329
-2.42021e-06
0.000674904
-2.4495e-06
0.000675485
-2.47004e-06
0.00067607
-2.48176e-06
0.000676658
-2.4845e-06
0.000677246
-2.47817e-06
0.000677833
-2.46258e-06
0.000678418
-2.4376e-06
0.000678999
-2.40299e-06
0.000679574
-2.3586e-06
0.000680141
-2.30408e-06
0.000680699
-2.23928e-06
0.000681245
-2.16372e-06
0.000681779
-2.07727e-06
0.000682297
-1.97925e-06
0.000682799
-1.86961e-06
0.000683282
-1.74738e-06
0.000683745
-1.61266e-06
0.000684185
-1.46407e-06
0.0006846
-1.30197e-06
0.000684989
-1.12438e-06
0.000685348
-9.32194e-07
0.000685677
-7.22456e-07
0.00068597
-4.97083e-07
0.000686227
-2.51835e-07
0.000686451
8.01299e-09
0.000686633
3.00089e-07
0.000686769
6.08106e-07
0.00068686
9.45442e-07
0.000686899
1.30197e-06
0.000686889
1.69554e-06
0.000686818
2.10832e-06
0.000686695
2.56839e-06
0.000686501
3.0459e-06
0.000686251
3.58543e-06
0.000685918
4.13744e-06
0.000685528
4.77261e-06
0.000685038
5.40899e-06
6.15778e-06
0.000684495
0.000666689
-1.01893e-07
0.000666755
-3.06321e-07
0.000666866
-5.10602e-07
0.000667021
-7.12414e-07
0.000667218
-9.10535e-07
0.000667456
-1.10385e-06
0.000667734
-1.29136e-06