/*--------------------------------*- C++ -*----------------------------------*\
| =========                 |                                                 |
| \\      /  F ield         | OpenFOAM: The Open Source CFD Toolbox           |
|  \\    /   O peration     | Version:  2312                                  |
|   \\  /    A nd           | Website:  www.openfoam.com                      |
|    \\/     M anipulation  |                                                 |
\*---------------------------------------------------------------------------*/
FoamFile
{
    version     2.0;
    format      ascii;
    arch        "LSB;label=32;scalar=64";
    class       volScalarField;
    location    "19000";
    object      p;
}
// * * * * * * * * * * * * * * * * * * * * * * * * * * * * * * * * * * * * * //

dimensions      [0 2 -2 0 0 0 0];

internalField   nonuniform List<scalar> 
2715
(
5.22566e-07
5.08443e-07
4.94674e-07
4.84094e-07
4.76668e-07
4.71273e-07
4.66816e-07
4.62731e-07
4.58848e-07
4.55176e-07
4.5175e-07
4.48576e-07
4.45619e-07
4.4283e-07
4.40161e-07
4.37581e-07
4.35067e-07
4.32606e-07
4.30188e-07
4.27804e-07
4.25445e-07
4.23103e-07
4.20774e-07
4.1845e-07
4.16128e-07
4.13804e-07
4.11476e-07
4.09142e-07
4.068e-07
4.04449e-07
4.02088e-07
3.99718e-07
3.97338e-07
3.9495e-07
3.92554e-07
3.90151e-07
3.87744e-07
3.85333e-07
3.82922e-07
3.80511e-07
3.78104e-07
3.75702e-07
3.73309e-07
3.70927e-07
3.68557e-07
3.66199e-07
3.63854e-07
3.61516e-07
3.59201e-07
3.56893e-07
3.54632e-07
3.52361e-07
3.50191e-07
3.4792e-07
3.45901e-07
3.43425e-07
3.41842e-07
3.38247e-07
3.38627e-07
3.29423e-07
4.74529e-07
4.72801e-07
4.70154e-07
4.67027e-07
4.63808e-07
4.6071e-07
4.57782e-07
4.54991e-07
4.52283e-07
4.4963e-07
4.47025e-07
4.44473e-07
4.41982e-07
4.39551e-07
4.37174e-07
4.34841e-07
4.32544e-07
4.30274e-07
4.28026e-07
4.25795e-07
4.23576e-07
4.21367e-07
4.19162e-07
4.1696e-07
4.14757e-07
4.12551e-07
4.1034e-07
4.08122e-07
4.05897e-07
4.03664e-07
4.01422e-07
3.99171e-07
3.96912e-07
3.94644e-07
3.92369e-07
3.90086e-07
3.878e-07
3.85508e-07
3.83218e-07
3.80922e-07
3.78631e-07
3.76335e-07
3.74056e-07
3.71773e-07
3.69518e-07
3.67246e-07
3.65008e-07
3.62731e-07
3.60515e-07
3.58243e-07
3.56102e-07
3.53883e-07
3.51915e-07
3.49801e-07
3.48141e-07
3.46164e-07
3.45055e-07
3.432e-07
3.43129e-07
3.40827e-07
4.65801e-07
4.6505e-07
4.63635e-07
4.61682e-07
4.59395e-07
4.56972e-07
4.54539e-07
4.52146e-07
4.49795e-07
4.47475e-07
4.45177e-07
4.42899e-07
4.40647e-07
4.38427e-07
4.36239e-07
4.34083e-07
4.31953e-07
4.29846e-07
4.27756e-07
4.2568e-07
4.23615e-07
4.21558e-07
4.19506e-07
4.17458e-07
4.15412e-07
4.13364e-07
4.11315e-07
4.09263e-07
4.07206e-07
4.05145e-07
4.03079e-07
4.01007e-07
3.9893e-07
3.96848e-07
3.94762e-07
3.92671e-07
3.90579e-07
3.88482e-07
3.86387e-07
3.84289e-07
3.82196e-07
3.801e-07
3.78015e-07
3.75927e-07
3.73856e-07
3.71779e-07
3.69729e-07
3.67666e-07
3.65648e-07
3.63607e-07
3.61632e-07
3.59616e-07
3.57695e-07
3.55696e-07
3.53839e-07
3.51844e-07
3.50067e-07
3.4802e-07
3.46328e-07
3.44214e-07
4.54078e-07
4.53645e-07
4.52858e-07
4.51767e-07
4.50441e-07
4.48951e-07
4.47354e-07
4.45691e-07
4.43981e-07
4.42235e-07
4.40461e-07
4.38663e-07
4.36848e-07
4.35022e-07
4.3319e-07
4.31355e-07
4.29518e-07
4.27681e-07
4.25842e-07
4.24001e-07
4.22159e-07
4.20314e-07
4.18466e-07
4.16615e-07
4.1476e-07
4.12902e-07
4.11038e-07
4.09171e-07
4.07298e-07
4.05421e-07
4.03539e-07
4.01653e-07
3.99764e-07
3.9787e-07
3.95974e-07
3.94075e-07
3.92174e-07
3.90272e-07
3.88369e-07
3.86466e-07
3.84563e-07
3.82659e-07
3.80758e-07
3.78854e-07
3.76953e-07
3.75046e-07
3.73141e-07
3.71226e-07
3.69313e-07
3.67386e-07
3.65465e-07
3.63527e-07
3.61603e-07
3.59657e-07
3.57728e-07
3.55759e-07
3.53798e-07
3.51764e-07
3.49683e-07
3.47457e-07
4.47396e-07
4.47182e-07
4.46751e-07
4.46105e-07
4.4526e-07
4.44245e-07
4.43094e-07
4.41835e-07
4.40495e-07
4.3909e-07
4.37632e-07
4.3613e-07
4.34592e-07
4.33025e-07
4.31433e-07
4.29823e-07
4.28197e-07
4.26559e-07
4.24911e-07
4.23254e-07
4.21589e-07
4.19917e-07
4.18239e-07
4.16555e-07
4.14867e-07
4.13174e-07
4.11477e-07
4.09776e-07
4.08073e-07
4.06366e-07
4.04658e-07
4.02948e-07
4.01238e-07
3.99527e-07
3.97816e-07
3.96106e-07
3.94397e-07
3.92691e-07
3.90988e-07
3.89288e-07
3.87591e-07
3.85899e-07
3.84211e-07
3.82527e-07
3.80849e-07
3.79174e-07
3.77501e-07
3.75829e-07
3.74153e-07
3.72469e-07
3.70765e-07
3.69033e-07
3.67257e-07
3.65424e-07
3.63517e-07
3.61545e-07
3.59493e-07
3.57383e-07
3.55202e-07
3.53017e-07
4.41893e-07
4.41731e-07
4.41406e-07
4.40921e-07
4.40288e-07
4.39522e-07
4.38641e-07
4.37663e-07
4.36604e-07
4.35476e-07
4.3429e-07
4.33053e-07
4.31771e-07
4.30452e-07
4.29099e-07
4.27718e-07
4.26313e-07
4.24887e-07
4.23443e-07
4.21983e-07
4.20511e-07
4.19026e-07
4.17531e-07
4.16027e-07
4.14516e-07
4.12998e-07
4.11476e-07
4.09948e-07
4.08418e-07
4.06885e-07
4.05351e-07
4.03816e-07
4.02282e-07
4.00749e-07
3.99218e-07
3.9769e-07
3.96165e-07
3.94644e-07
3.93128e-07
3.91616e-07
3.90109e-07
3.88605e-07
3.87105e-07
3.85608e-07
3.84111e-07
3.82612e-07
3.81109e-07
3.79601e-07
3.78085e-07
3.76563e-07
3.75031e-07
3.73494e-07
3.71941e-07
3.70368e-07
3.68742e-07
3.67054e-07
3.65275e-07
3.6344e-07
3.61549e-07
3.59716e-07
4.37565e-07
4.37446e-07
4.37209e-07
4.36853e-07
4.36383e-07
4.35806e-07
4.3513e-07
4.34367e-07
4.33525e-07
4.32615e-07
4.31643e-07
4.30618e-07
4.29544e-07
4.28428e-07
4.27273e-07
4.26084e-07
4.24866e-07
4.23621e-07
4.22354e-07
4.21067e-07
4.19763e-07
4.18444e-07
4.17112e-07
4.15769e-07
4.14417e-07
4.13058e-07
4.11693e-07
4.10324e-07
4.08952e-07
4.07579e-07
4.06205e-07
4.04833e-07
4.03464e-07
4.02098e-07
4.00737e-07
3.99382e-07
3.98033e-07
3.96692e-07
3.9536e-07
3.94037e-07
3.92723e-07
3.9142e-07
3.90127e-07
3.88846e-07
3.87576e-07
3.86316e-07
3.85065e-07
3.83821e-07
3.82576e-07
3.81325e-07
3.80052e-07
3.78763e-07
3.77448e-07
3.76117e-07
3.74755e-07
3.73368e-07
3.71929e-07
3.70461e-07
3.68962e-07
3.6754e-07
4.34131e-07
4.34039e-07
4.33854e-07
4.33576e-07
4.33205e-07
4.32747e-07
4.32205e-07
4.31586e-07
4.30897e-07
4.30144e-07
4.29331e-07
4.28465e-07
4.27551e-07
4.26593e-07
4.25597e-07
4.24565e-07
4.23502e-07
4.22412e-07
4.21297e-07
4.20161e-07
4.19006e-07
4.17835e-07
4.1665e-07
4.15454e-07
4.14248e-07
4.13036e-07
4.11817e-07
4.10595e-07
4.09372e-07
4.08148e-07
4.06926e-07
4.05707e-07
4.04493e-07
4.03286e-07
4.02086e-07
4.00895e-07
3.99715e-07
3.98547e-07
3.97391e-07
3.9625e-07
3.95123e-07
3.94012e-07
3.92915e-07
3.91835e-07
3.90769e-07
3.89718e-07
3.8868e-07
3.87658e-07
3.8665e-07
3.85661e-07
3.84685e-07
3.83713e-07
3.82734e-07
3.8175e-07
3.80753e-07
3.79751e-07
3.78731e-07
3.77716e-07
3.76711e-07
3.75817e-07
4.31384e-07
4.31309e-07
4.31157e-07
4.3093e-07
4.30626e-07
4.30249e-07
4.298e-07
4.29285e-07
4.28708e-07
4.28072e-07
4.27383e-07
4.26643e-07
4.25858e-07
4.25031e-07
4.24166e-07
4.23267e-07
4.22337e-07
4.21379e-07
4.20397e-07
4.19393e-07
4.1837e-07
4.1733e-07
4.16277e-07
4.15212e-07
4.14138e-07
4.13058e-07
4.11972e-07
4.10884e-07
4.09796e-07
4.08709e-07
4.07626e-07
4.06549e-07
4.05479e-07
4.04418e-07
4.03369e-07
4.02333e-07
4.01311e-07
4.00306e-07
3.9932e-07
3.98354e-07
3.97408e-07
3.96486e-07
3.95587e-07
3.94715e-07
3.9387e-07
3.93053e-07
3.92263e-07
3.91501e-07
3.90765e-07
3.90054e-07
3.89368e-07
3.88709e-07
3.88072e-07
3.87461e-07
3.86868e-07
3.86299e-07
3.85747e-07
3.85233e-07
3.84768e-07
3.84435e-07
4.29196e-07
4.29133e-07
4.29006e-07
4.28814e-07
4.28557e-07
4.28238e-07
4.27857e-07
4.27418e-07
4.26924e-07
4.26378e-07
4.25783e-07
4.25142e-07
4.24459e-07
4.23737e-07
4.22979e-07
4.22188e-07
4.21367e-07
4.20519e-07
4.19647e-07
4.18754e-07
4.17843e-07
4.16915e-07
4.15974e-07
4.15023e-07
4.14063e-07
4.13098e-07
4.12128e-07
4.11158e-07
4.10189e-07
4.09223e-07
4.08264e-07
4.07312e-07
4.06371e-07
4.05442e-07
4.04529e-07
4.03632e-07
4.02755e-07
4.019e-07
4.01069e-07
4.00265e-07
3.99488e-07
3.98742e-07
3.98029e-07
3.97352e-07
3.96712e-07
3.96111e-07
3.9555e-07
3.95033e-07
3.94558e-07
3.94128e-07
3.93745e-07
3.93412e-07
3.93129e-07
3.929e-07
3.92721e-07
3.92601e-07
3.92537e-07
3.92549e-07
3.9265e-07
3.92911e-07
4.27481e-07
4.27426e-07
4.27316e-07
4.27149e-07
4.26927e-07
4.26649e-07
4.26318e-07
4.25935e-07
4.25503e-07
4.25025e-07
4.24502e-07
4.23937e-07
4.23333e-07
4.22693e-07
4.22018e-07
4.21313e-07
4.2058e-07
4.19821e-07
4.19039e-07
4.18237e-07
4.17418e-07
4.16583e-07
4.15736e-07
4.1488e-07
4.14016e-07
4.13148e-07
4.12278e-07
4.11408e-07
4.10541e-07
4.0968e-07
4.08826e-07
4.07984e-07
4.07155e-07
4.06342e-07
4.05548e-07
4.04775e-07
4.04026e-07
4.03304e-07
4.02613e-07
4.01954e-07
4.0133e-07
4.00746e-07
4.00203e-07
3.99706e-07
3.99257e-07
3.98859e-07
3.98515e-07
3.98227e-07
3.98001e-07
3.97841e-07
3.97749e-07
3.97732e-07
3.9779e-07
3.97931e-07
3.98155e-07
3.98473e-07
3.98886e-07
3.99413e-07
4.00069e-07
4.0091e-07
4.26173e-07
4.26124e-07
4.26026e-07
4.25878e-07
4.25681e-07
4.25433e-07
4.25138e-07
4.24796e-07
4.2441e-07
4.23981e-07
4.23511e-07
4.23003e-07
4.22459e-07
4.21881e-07
4.21271e-07
4.20632e-07
4.19967e-07
4.19277e-07
4.18566e-07
4.17836e-07
4.1709e-07
4.1633e-07
4.15558e-07
4.14778e-07
4.13992e-07
4.13203e-07
4.12413e-07
4.11625e-07
4.10842e-07
4.10067e-07
4.09302e-07
4.0855e-07
4.07814e-07
4.07098e-07
4.06403e-07
4.05734e-07
4.05093e-07
4.04484e-07
4.03911e-07
4.03376e-07
4.02883e-07
4.02436e-07
4.02039e-07
4.01697e-07
4.01413e-07
4.01191e-07
4.01036e-07
4.00953e-07
4.00948e-07
4.01026e-07
4.01194e-07
4.01457e-07
4.01821e-07
4.02294e-07
4.02883e-07
4.03598e-07
4.04447e-07
4.05445e-07
4.06613e-07
4.0799e-07
4.25229e-07
4.25184e-07
4.25095e-07
4.24959e-07
4.24778e-07
4.24552e-07
4.24282e-07
4.23969e-07
4.23615e-07
4.23221e-07
4.22789e-07
4.22322e-07
4.2182e-07
4.21287e-07
4.20724e-07
4.20134e-07
4.19518e-07
4.18879e-07
4.18221e-07
4.17544e-07
4.16852e-07
4.16148e-07
4.15433e-07
4.14711e-07
4.13984e-07
4.13254e-07
4.12526e-07
4.11801e-07
4.11082e-07
4.10372e-07
4.09675e-07
4.08992e-07
4.08329e-07
4.07687e-07
4.0707e-07
4.06481e-07
4.05924e-07
4.05404e-07
4.04923e-07
4.04485e-07
4.04095e-07
4.03758e-07
4.03477e-07
4.03259e-07
4.03107e-07
4.03027e-07
4.03024e-07
4.03107e-07
4.03281e-07
4.03554e-07
4.03933e-07
4.04426e-07
4.05042e-07
4.0579e-07
4.06681e-07
4.07725e-07
4.08937e-07
4.10331e-07
4.11926e-07
4.13752e-07
4.24615e-07
4.24573e-07
4.24489e-07
4.24362e-07
4.24192e-07
4.23979e-07
4.23725e-07
4.2343e-07
4.23096e-07
4.22725e-07
4.22318e-07
4.21877e-07
4.21403e-07
4.20899e-07
4.20366e-07
4.19807e-07
4.19224e-07
4.1862e-07
4.17995e-07
4.17354e-07
4.16699e-07
4.16031e-07
4.15354e-07
4.1467e-07
4.13983e-07
4.13294e-07
4.12606e-07
4.11923e-07
4.11248e-07
4.10583e-07
4.09931e-07
4.09296e-07
4.08682e-07
4.0809e-07
4.07526e-07
4.06993e-07
4.06494e-07
4.06034e-07
4.05617e-07
4.05247e-07
4.04929e-07
4.04667e-07
4.04467e-07
4.04334e-07
4.04275e-07
4.04294e-07
4.044e-07
4.04599e-07
4.049e-07
4.0531e-07
4.05838e-07
4.06494e-07
4.07289e-07
4.08233e-07
4.0934e-07
4.10621e-07
4.12094e-07
4.13772e-07
4.15677e-07
4.17827e-07
4.24314e-07
4.24273e-07
4.24191e-07
4.24068e-07
4.23903e-07
4.23697e-07
4.2345e-07
4.23165e-07
4.22841e-07
4.22481e-07
4.22085e-07
4.21657e-07
4.21197e-07
4.20707e-07
4.20189e-07
4.19646e-07
4.19079e-07
4.18491e-07
4.17884e-07
4.17261e-07
4.16623e-07
4.15974e-07
4.15316e-07
4.14652e-07
4.13984e-07
4.13315e-07
4.12648e-07
4.11987e-07
4.11333e-07
4.1069e-07
4.10062e-07
4.09451e-07
4.08861e-07
4.08296e-07
4.07759e-07
4.07253e-07
4.06784e-07
4.06355e-07
4.0597e-07
4.05635e-07
4.05353e-07
4.0513e-07
4.04971e-07
4.04883e-07
4.04871e-07
4.04941e-07
4.05102e-07
4.05362e-07
4.05728e-07
4.06209e-07
4.06816e-07
4.07557e-07
4.08445e-07
4.09491e-07
4.1071e-07
4.12115e-07
4.13724e-07
4.15551e-07
4.17618e-07
4.1994e-07
4.24314e-07
4.24273e-07
4.24191e-07
4.24068e-07
4.23903e-07
4.23697e-07
4.2345e-07
4.23165e-07
4.22841e-07
4.22481e-07
4.22085e-07
4.21657e-07
4.21197e-07
4.20707e-07
4.20189e-07
4.19646e-07
4.19079e-07
4.18491e-07
4.17884e-07
4.17261e-07
4.16623e-07
4.15974e-07
4.15316e-07
4.14652e-07
4.13984e-07
4.13315e-07
4.12648e-07
4.11986e-07
4.11333e-07
4.1069e-07
4.10062e-07
4.09451e-07
4.08861e-07
4.08296e-07
4.07759e-07
4.07253e-07
4.06784e-07
4.06355e-07
4.0597e-07
4.05635e-07
4.05353e-07
4.0513e-07
4.04971e-07
4.04883e-07
4.04871e-07
4.04941e-07
4.05102e-07
4.05362e-07
4.05728e-07
4.06209e-07
4.06816e-07
4.07556e-07
4.08444e-07
4.09491e-07
4.1071e-07
4.12115e-07
4.13724e-07
4.15551e-07
4.17618e-07
4.19939e-07
4.24615e-07
4.24573e-07
4.24489e-07
4.24362e-07
4.24192e-07
4.23979e-07
4.23725e-07
4.2343e-07
4.23096e-07
4.22725e-07
4.22318e-07
4.21877e-07
4.21403e-07
4.20899e-07
4.20366e-07
4.19807e-07
4.19224e-07
4.18619e-07
4.17995e-07
4.17354e-07
4.16699e-07
4.16031e-07
4.15354e-07
4.1467e-07
4.13983e-07
4.13294e-07
4.12606e-07
4.11923e-07
4.11248e-07
4.10582e-07
4.09931e-07
4.09296e-07
4.08682e-07
4.0809e-07
4.07526e-07
4.06993e-07
4.06494e-07
4.06034e-07
4.05617e-07
4.05247e-07
4.04928e-07
4.04666e-07
4.04467e-07
4.04334e-07
4.04275e-07
4.04294e-07
4.04399e-07
4.04599e-07
4.04899e-07
4.05309e-07
4.05838e-07
4.06494e-07
4.07289e-07
4.08233e-07
4.0934e-07
4.10621e-07
4.12094e-07
4.13771e-07
4.15676e-07
4.17827e-07
4.25229e-07
4.25184e-07
4.25094e-07
4.24959e-07
4.24778e-07
4.24552e-07
4.24282e-07
4.23969e-07
4.23615e-07
4.23221e-07
4.22789e-07
4.22322e-07
4.2182e-07
4.21287e-07
4.20724e-07
4.20133e-07
4.19518e-07
4.18879e-07
4.18221e-07
4.17544e-07
4.16852e-07
4.16148e-07
4.15433e-07
4.14711e-07
4.13984e-07
4.13254e-07
4.12526e-07
4.118e-07
4.11081e-07
4.10372e-07
4.09674e-07
4.08992e-07
4.08329e-07
4.07686e-07
4.07069e-07
4.06481e-07
4.05924e-07
4.05403e-07
4.04922e-07
4.04485e-07
4.04095e-07
4.03757e-07
4.03477e-07
4.03258e-07
4.03107e-07
4.03026e-07
4.03024e-07
4.03107e-07
4.03281e-07
4.03554e-07
4.03933e-07
4.04426e-07
4.05041e-07
4.0579e-07
4.0668e-07
4.07725e-07
4.08937e-07
4.1033e-07
4.11926e-07
4.13752e-07
4.26173e-07
4.26124e-07
4.26026e-07
4.25878e-07
4.2568e-07
4.25433e-07
4.25138e-07
4.24796e-07
4.2441e-07
4.23981e-07
4.23511e-07
4.23003e-07
4.22459e-07
4.21881e-07
4.21271e-07
4.20632e-07
4.19967e-07
4.19277e-07
4.18566e-07
4.17836e-07
4.1709e-07
4.16329e-07
4.15558e-07
4.14778e-07
4.13992e-07
4.13203e-07
4.12413e-07
4.11625e-07
4.10842e-07
4.10067e-07
4.09302e-07
4.0855e-07
4.07814e-07
4.07097e-07
4.06403e-07
4.05733e-07
4.05093e-07
4.04484e-07
4.0391e-07
4.03375e-07
4.02882e-07
4.02435e-07
4.02039e-07
4.01696e-07
4.01412e-07
4.0119e-07
4.01035e-07
4.00952e-07
4.00947e-07
4.01026e-07
4.01193e-07
4.01456e-07
4.01821e-07
4.02294e-07
4.02883e-07
4.03597e-07
4.04446e-07
4.05445e-07
4.06613e-07
4.07989e-07
4.2748e-07
4.27426e-07
4.27315e-07
4.27149e-07
4.26927e-07
4.26649e-07
4.26318e-07
4.25935e-07
4.25503e-07
4.25025e-07
4.24501e-07
4.23937e-07
4.23333e-07
4.22692e-07
4.22018e-07
4.21313e-07
4.2058e-07
4.19821e-07
4.19039e-07
4.18237e-07
4.17417e-07
4.16583e-07
4.15736e-07
4.1488e-07
4.14016e-07
4.13148e-07
4.12277e-07
4.11407e-07
4.1054e-07
4.09679e-07
4.08826e-07
4.07984e-07
4.07155e-07
4.06342e-07
4.05547e-07
4.04774e-07
4.04025e-07
4.03304e-07
4.02612e-07
4.01953e-07
4.0133e-07
4.00745e-07
4.00203e-07
3.99705e-07
3.99256e-07
3.98858e-07
3.98514e-07
3.98227e-07
3.98001e-07
3.9784e-07
3.97749e-07
3.97731e-07
3.9779e-07
3.9793e-07
3.98155e-07
3.98472e-07
3.98886e-07
3.99412e-07
4.00069e-07
4.00909e-07
4.29196e-07
4.29133e-07
4.29005e-07
4.28813e-07
4.28557e-07
4.28237e-07
4.27857e-07
4.27418e-07
4.26924e-07
4.26378e-07
4.25783e-07
4.25142e-07
4.24459e-07
4.23737e-07
4.22979e-07
4.22188e-07
4.21367e-07
4.20519e-07
4.19647e-07
4.18754e-07
4.17842e-07
4.16915e-07
4.15974e-07
4.15023e-07
4.14063e-07
4.13097e-07
4.12128e-07
4.11158e-07
4.10189e-07
4.09223e-07
4.08263e-07
4.07312e-07
4.0637e-07
4.05442e-07
4.04528e-07
4.03632e-07
4.02755e-07
4.01899e-07
4.01069e-07
4.00264e-07
3.99487e-07
3.98742e-07
3.98029e-07
3.97351e-07
3.96711e-07
3.9611e-07
3.9555e-07
3.95032e-07
3.94557e-07
3.94128e-07
3.93744e-07
3.93411e-07
3.93128e-07
3.92899e-07
3.92721e-07
3.926e-07
3.92536e-07
3.92548e-07
3.92649e-07
3.9291e-07
4.31383e-07
4.31308e-07
4.31157e-07
4.3093e-07
4.30626e-07
4.30248e-07
4.298e-07
4.29285e-07
4.28708e-07
4.28072e-07
4.27382e-07
4.26643e-07
4.25858e-07
4.25031e-07
4.24166e-07
4.23267e-07
4.22337e-07
4.21379e-07
4.20397e-07
4.19392e-07
4.18369e-07
4.1733e-07
4.16276e-07
4.15212e-07
4.14138e-07
4.13057e-07
4.11972e-07
4.10884e-07
4.09796e-07
4.08709e-07
4.07626e-07
4.06548e-07
4.05478e-07
4.04418e-07
4.03368e-07
4.02332e-07
4.0131e-07
4.00306e-07
3.99319e-07
3.98353e-07
3.97407e-07
3.96485e-07
3.95587e-07
3.94715e-07
3.93869e-07
3.93052e-07
3.92262e-07
3.915e-07
3.90764e-07
3.90053e-07
3.89367e-07
3.88708e-07
3.88071e-07
3.8746e-07
3.86867e-07
3.86298e-07
3.85746e-07
3.85232e-07
3.84767e-07
3.84434e-07
4.34131e-07
4.34039e-07
4.33854e-07
4.33575e-07
4.33205e-07
4.32746e-07
4.32205e-07
4.31586e-07
4.30897e-07
4.30144e-07
4.29331e-07
4.28465e-07
4.27551e-07
4.26593e-07
4.25596e-07
4.24565e-07
4.23502e-07
4.22411e-07
4.21297e-07
4.2016e-07
4.19006e-07
4.17835e-07
4.1665e-07
4.15454e-07
4.14248e-07
4.13035e-07
4.11817e-07
4.10595e-07
4.09371e-07
4.08147e-07
4.06925e-07
4.05706e-07
4.04493e-07
4.03285e-07
4.02085e-07
4.00894e-07
3.99714e-07
3.98546e-07
3.97391e-07
3.96249e-07
3.95122e-07
3.94011e-07
3.92914e-07
3.91834e-07
3.90768e-07
3.89717e-07
3.88679e-07
3.87657e-07
3.86649e-07
3.85659e-07
3.84684e-07
3.83712e-07
3.82733e-07
3.81749e-07
3.80752e-07
3.7975e-07
3.7873e-07
3.77714e-07
3.7671e-07
3.75816e-07
4.37565e-07
4.37446e-07
4.37209e-07
4.36853e-07
4.36383e-07
4.35806e-07
4.3513e-07
4.34366e-07
4.33525e-07
4.32614e-07
4.31643e-07
4.30618e-07
4.29544e-07
4.28427e-07
4.27272e-07
4.26084e-07
4.24865e-07
4.23621e-07
4.22354e-07
4.21067e-07
4.19762e-07
4.18443e-07
4.17111e-07
4.15768e-07
4.14416e-07
4.13057e-07
4.11692e-07
4.10323e-07
4.08951e-07
4.07578e-07
4.06205e-07
4.04833e-07
4.03463e-07
4.02097e-07
4.00736e-07
3.99381e-07
3.98032e-07
3.96691e-07
3.95359e-07
3.94036e-07
3.92722e-07
3.91419e-07
3.90126e-07
3.88845e-07
3.87575e-07
3.86315e-07
3.85064e-07
3.8382e-07
3.82575e-07
3.81324e-07
3.80051e-07
3.78762e-07
3.77447e-07
3.76116e-07
3.74754e-07
3.73366e-07
3.71928e-07
3.70459e-07
3.68961e-07
3.67539e-07
4.41893e-07
4.41731e-07
4.41405e-07
4.40921e-07
4.40288e-07
4.39522e-07
4.3864e-07
4.37662e-07
4.36603e-07
4.35476e-07
4.3429e-07
4.33052e-07
4.31771e-07
4.30451e-07
4.29099e-07
4.27718e-07
4.26313e-07
4.24886e-07
4.23443e-07
4.21983e-07
4.2051e-07
4.19025e-07
4.17531e-07
4.16027e-07
4.14516e-07
4.12998e-07
4.11475e-07
4.09948e-07
4.08417e-07
4.06885e-07
4.0535e-07
4.03816e-07
4.02282e-07
4.00748e-07
3.99217e-07
3.97689e-07
3.96164e-07
3.94643e-07
3.93127e-07
3.91615e-07
3.90108e-07
3.88604e-07
3.87104e-07
3.85607e-07
3.84109e-07
3.82611e-07
3.81107e-07
3.796e-07
3.78083e-07
3.76562e-07
3.7503e-07
3.73492e-07
3.7194e-07
3.70366e-07
3.6874e-07
3.67052e-07
3.65273e-07
3.63439e-07
3.61548e-07
3.59715e-07
4.47396e-07
4.47182e-07
4.46751e-07
4.46104e-07
4.4526e-07
4.44245e-07
4.43093e-07
4.41835e-07
4.40495e-07
4.39089e-07
4.37631e-07
4.3613e-07
4.34592e-07
4.33024e-07
4.31433e-07
4.29822e-07
4.28197e-07
4.26559e-07
4.24911e-07
4.23253e-07
4.21588e-07
4.19916e-07
4.18238e-07
4.16555e-07
4.14867e-07
4.13174e-07
4.11477e-07
4.09776e-07
4.08072e-07
4.06366e-07
4.04658e-07
4.02948e-07
4.01237e-07
3.99526e-07
3.97815e-07
3.96105e-07
3.94396e-07
3.9269e-07
3.90987e-07
3.89287e-07
3.8759e-07
3.85898e-07
3.84209e-07
3.82526e-07
3.80847e-07
3.79172e-07
3.77499e-07
3.75827e-07
3.74152e-07
3.72467e-07
3.70764e-07
3.69032e-07
3.67255e-07
3.65423e-07
3.63516e-07
3.61543e-07
3.59491e-07
3.57381e-07
3.552e-07
3.53015e-07
4.54078e-07
4.53645e-07
4.52858e-07
4.51766e-07
4.5044e-07
4.4895e-07
4.47354e-07
4.4569e-07
4.4398e-07
4.42235e-07
4.4046e-07
4.38662e-07
4.36847e-07
4.35021e-07
4.33189e-07
4.31354e-07
4.29518e-07
4.2768e-07
4.25842e-07
4.24001e-07
4.22159e-07
4.20314e-07
4.18466e-07
4.16615e-07
4.1476e-07
4.12901e-07
4.11038e-07
4.0917e-07
4.07298e-07
4.0542e-07
4.03539e-07
4.01653e-07
3.99763e-07
3.9787e-07
3.95973e-07
3.94074e-07
3.92173e-07
3.90271e-07
3.88369e-07
3.86465e-07
3.84562e-07
3.82658e-07
3.80756e-07
3.78853e-07
3.76952e-07
3.75045e-07
3.7314e-07
3.71225e-07
3.69311e-07
3.67384e-07
3.65463e-07
3.63525e-07
3.61602e-07
3.59655e-07
3.57726e-07
3.55756e-07
3.53795e-07
3.51762e-07
3.4968e-07
3.47455e-07
4.658e-07
4.65049e-07
4.63635e-07
4.61681e-07
4.59395e-07
4.56972e-07
4.54539e-07
4.52145e-07
4.49795e-07
4.47475e-07
4.45176e-07
4.42899e-07
4.40647e-07
4.38426e-07
4.36239e-07
4.34082e-07
4.31953e-07
4.29846e-07
4.27756e-07
4.2568e-07
4.23615e-07
4.21557e-07
4.19506e-07
4.17458e-07
4.15411e-07
4.13364e-07
4.11315e-07
4.09262e-07
4.07206e-07
4.05144e-07
4.03078e-07
4.01006e-07
3.9893e-07
3.96847e-07
3.94761e-07
3.9267e-07
3.90578e-07
3.88481e-07
3.86386e-07
3.84288e-07
3.82195e-07
3.80099e-07
3.78014e-07
3.75926e-07
3.73855e-07
3.71777e-07
3.69727e-07
3.67665e-07
3.65646e-07
3.63606e-07
3.6163e-07
3.59614e-07
3.57693e-07
3.55694e-07
3.53838e-07
3.51842e-07
3.50065e-07
3.48018e-07
3.46325e-07
3.44212e-07
4.74528e-07
4.728e-07
4.70154e-07
4.67026e-07
4.63807e-07
4.6071e-07
4.57782e-07
4.5499e-07
4.52283e-07
4.4963e-07
4.47024e-07
4.44473e-07
4.41982e-07
4.39551e-07
4.37173e-07
4.34841e-07
4.32543e-07
4.30274e-07
4.28026e-07
4.25795e-07
4.23576e-07
4.21366e-07
4.19162e-07
4.1696e-07
4.14757e-07
4.12551e-07
4.10339e-07
4.08122e-07
4.05897e-07
4.03663e-07
4.01422e-07
3.9917e-07
3.96911e-07
3.94643e-07
3.92368e-07
3.90085e-07
3.87799e-07
3.85507e-07
3.83217e-07
3.80921e-07
3.7863e-07
3.76334e-07
3.74055e-07
3.71772e-07
3.69516e-07
3.67245e-07
3.65007e-07
3.6273e-07
3.60514e-07
3.58241e-07
3.561e-07
3.53881e-07
3.51913e-07
3.49799e-07
3.48139e-07
3.46162e-07
3.45053e-07
3.43197e-07
3.43126e-07
3.40824e-07
5.22566e-07
5.08443e-07
4.94674e-07
4.84094e-07
4.76668e-07
4.71272e-07
4.66816e-07
4.62731e-07
4.58848e-07
4.55175e-07
4.5175e-07
4.48576e-07
4.45619e-07
4.42829e-07
4.40161e-07
4.37581e-07
4.35067e-07
4.32606e-07
4.30188e-07
4.27803e-07
4.25444e-07
4.23103e-07
4.20773e-07
4.1845e-07
4.16127e-07
4.13804e-07
4.11476e-07
4.09142e-07
4.06799e-07
4.04448e-07
4.02088e-07
3.99717e-07
3.97338e-07
3.94949e-07
3.92553e-07
3.90151e-07
3.87743e-07
3.85333e-07
3.82921e-07
3.80511e-07
3.78103e-07
3.75701e-07
3.73308e-07
3.70925e-07
3.68556e-07
3.66197e-07
3.63852e-07
3.61515e-07
3.592e-07
3.56891e-07
3.5463e-07
3.52359e-07
3.50188e-07
3.47918e-07
3.45898e-07
3.43423e-07
3.41839e-07
3.38244e-07
3.38623e-07
3.29419e-07
3.3544e-07
3.33468e-07
3.28115e-07
3.21693e-07
3.15567e-07
3.10572e-07
3.07111e-07
3.05208e-07
3.04565e-07
3.04653e-07
3.04907e-07
3.04938e-07
3.04609e-07
3.04068e-07
3.03579e-07
3.42235e-07
3.38491e-07
3.32126e-07
3.2604e-07
3.21448e-07
3.18525e-07
3.17035e-07
3.16601e-07
3.16765e-07
3.1701e-07
3.16976e-07
3.16629e-07
3.16229e-07
3.16133e-07
3.16646e-07
3.17894e-07
3.19794e-07
3.22182e-07
3.24732e-07
3.27187e-07
3.29613e-07
3.32166e-07
3.34519e-07
3.35789e-07
3.34592e-07
3.29626e-07
3.16651e-07
2.86645e-07
2.52044e-07
6.97238e-08
3.42444e-07
3.39246e-07
3.35412e-07
3.31994e-07
3.29539e-07
3.27979e-07
3.26918e-07
3.25972e-07
3.25026e-07
3.24342e-07
3.2434e-07
3.25234e-07
3.26916e-07
3.29107e-07
3.31605e-07
3.34356e-07
3.37327e-07
3.40469e-07
3.43821e-07
3.47583e-07
3.52029e-07
3.56989e-07
3.61822e-07
3.65839e-07
3.68271e-07
3.67824e-07
3.60378e-07
3.41855e-07
3.07956e-07
1.63904e-07
3.45268e-07
3.43137e-07
3.41235e-07
3.39647e-07
3.38437e-07
3.37579e-07
3.36981e-07
3.36613e-07
3.36599e-07
3.37151e-07
3.3841e-07
3.40383e-07
3.4292e-07
3.45779e-07
3.48759e-07
3.51827e-07
3.55179e-07
3.59138e-07
3.64013e-07
3.69921e-07
3.76686e-07
3.83812e-07
3.90872e-07
3.97743e-07
4.03942e-07
4.08077e-07
4.0684e-07
3.96975e-07
3.67782e-07
2.57741e-07
3.50923e-07
3.49437e-07
3.48522e-07
3.47962e-07
3.47626e-07
3.47501e-07
3.4765e-07
3.48159e-07
3.49107e-07
3.50523e-07
3.52359e-07
3.54519e-07
3.56952e-07
3.59736e-07
3.63118e-07
3.67395e-07
3.72726e-07
3.79075e-07
3.86311e-07
3.94283e-07
4.02728e-07
4.11576e-07
4.21031e-07
4.31141e-07
4.4125e-07
4.49954e-07
4.54806e-07
4.52484e-07
4.31194e-07
3.50741e-07
3.58058e-07
3.57142e-07
3.56914e-07
3.57123e-07
3.57581e-07
3.58243e-07
3.59163e-07
3.6042e-07
3.62071e-07
3.64131e-07
3.66599e-07
3.69497e-07
3.72923e-07
3.7705e-07
3.82033e-07
3.87945e-07
3.94769e-07
4.02363e-07
4.10573e-07
4.19413e-07
4.29149e-07
4.40185e-07
4.52676e-07
4.66252e-07
4.80064e-07
4.93144e-07
5.03723e-07
5.08475e-07
4.96338e-07
4.40418e-07
3.66335e-07
3.65954e-07
3.66323e-07
3.6718e-07
3.68321e-07
3.69675e-07
3.71273e-07
3.73193e-07
3.75511e-07
3.78284e-07
3.81565e-07
3.85418e-07
3.89917e-07
3.95128e-07
4.01088e-07
4.07792e-07
4.1523e-07
4.23486e-07
4.32812e-07
4.43555e-07
4.55976e-07
4.7007e-07
4.85587e-07
5.02069e-07
5.19192e-07
5.36547e-07
5.52647e-07
5.6416e-07
5.61588e-07
5.26054e-07
3.75177e-07
3.75352e-07
3.76272e-07
3.77696e-07
3.79432e-07
3.81406e-07
3.83647e-07
3.86234e-07
3.89254e-07
3.92782e-07
3.96879e-07
4.016e-07
4.06992e-07
4.13105e-07
4.19996e-07
4.27754e-07
4.36522e-07
4.46519e-07
4.57948e-07
4.70903e-07
4.85389e-07
5.01302e-07
5.18593e-07
5.37428e-07
5.57958e-07
5.79686e-07
6.00972e-07
6.18727e-07
6.25052e-07
6.05812e-07
3.8437e-07
3.85091e-07
3.86528e-07
3.88471e-07
3.9075e-07
3.93305e-07
3.96164e-07
3.99405e-07
4.03115e-07
4.0737e-07
4.12235e-07
4.17765e-07
4.24024e-07
4.31087e-07
4.3905e-07
4.48028e-07
4.58154e-07
4.69555e-07
4.82348e-07
4.96616e-07
5.12434e-07
5.29985e-07
5.49616e-07
5.71599e-07
5.95826e-07
6.2155e-07
6.47327e-07
6.70621e-07
6.85009e-07
6.788e-07
3.93449e-07
3.94699e-07
3.96609e-07
3.99013e-07
4.01779e-07
4.0486e-07
4.0829e-07
4.12141e-07
4.16496e-07
4.21433e-07
4.27019e-07
4.33321e-07
4.40411e-07
4.48375e-07
4.57313e-07
4.67337e-07
4.78571e-07
4.91149e-07
5.05224e-07
5.20987e-07
5.38681e-07
5.58565e-07
5.80826e-07
6.05454e-07
6.3227e-07
6.60852e-07
6.90376e-07
7.18622e-07
7.3992e-07
7.43581e-07
4.02031e-07
4.03775e-07
4.06112e-07
4.08927e-07
4.12125e-07
4.15681e-07
4.19629e-07
4.24039e-07
4.28986e-07
4.34548e-07
4.40795e-07
4.478e-07
4.55644e-07
4.64419e-07
4.74232e-07
4.85205e-07
4.97482e-07
5.11221e-07
5.26608e-07
5.43841e-07
5.63134e-07
5.8468e-07
6.08646e-07
6.35125e-07
6.64156e-07
6.95583e-07
7.28742e-07
7.61338e-07
7.88337e-07
7.99227e-07
4.09646e-07
4.11829e-07
4.14531e-07
4.17688e-07
4.21248e-07
4.25205e-07
4.29596e-07
4.34482e-07
4.39936e-07
4.46032e-07
4.52845e-07
4.60452e-07
4.6894e-07
4.78408e-07
4.88972e-07
5.00761e-07
5.13925e-07
5.28632e-07
5.45069e-07
5.63439e-07
5.83961e-07
6.06864e-07
6.3239e-07
6.6074e-07
6.92029e-07
7.26025e-07
7.61979e-07
7.97693e-07
8.28937e-07
8.44717e-07
4.15856e-07
4.18395e-07
4.21387e-07
4.24813e-07
4.28657e-07
4.32931e-07
4.37674e-07
4.42941e-07
4.48801e-07
4.55326e-07
4.62591e-07
4.70678e-07
4.79681e-07
4.89703e-07
5.00864e-07
5.13298e-07
5.27163e-07
5.42631e-07
5.59899e-07
5.79183e-07
6.00725e-07
6.24774e-07
6.51584e-07
6.81347e-07
7.14169e-07
7.49834e-07
7.87717e-07
8.25771e-07
8.60276e-07
8.79514e-07
4.20254e-07
4.23046e-07
4.26239e-07
4.29849e-07
4.33889e-07
4.38382e-07
4.43369e-07
4.48902e-07
4.55044e-07
4.61866e-07
4.69445e-07
4.77866e-07
4.87225e-07
4.97629e-07
5.09202e-07
5.22083e-07
5.36431e-07
5.52424e-07
5.70266e-07
5.9018e-07
6.12413e-07
6.37218e-07
6.64858e-07
6.95535e-07
7.29382e-07
7.66227e-07
8.05499e-07
8.45179e-07
8.8179e-07
9.03183e-07
4.22535e-07
4.25459e-07
4.28756e-07
4.32459e-07
4.36598e-07
4.41204e-07
4.46317e-07
4.51986e-07
4.58273e-07
4.65248e-07
4.72988e-07
4.81581e-07
4.91123e-07
5.01724e-07
5.13509e-07
5.26619e-07
5.41215e-07
5.57478e-07
5.75613e-07
5.95847e-07
6.1843e-07
6.43621e-07
6.71686e-07
7.02839e-07
7.37221e-07
7.74662e-07
8.14605e-07
8.55055e-07
8.92672e-07
9.15114e-07
4.22535e-07
4.25459e-07
4.28756e-07
4.32459e-07
4.36598e-07
4.41204e-07
4.46317e-07
4.51986e-07
4.58273e-07
4.65248e-07
4.72988e-07
4.81581e-07
4.91123e-07
5.01724e-07
5.13509e-07
5.26619e-07
5.41215e-07
5.57478e-07
5.75614e-07
5.95848e-07
6.18431e-07
6.43621e-07
6.71687e-07
7.0284e-07
7.37222e-07
7.74663e-07
8.14606e-07
8.55056e-07
8.92673e-07
9.15115e-07
4.20254e-07
4.23046e-07
4.26239e-07
4.29849e-07
4.33888e-07
4.38382e-07
4.43369e-07
4.48902e-07
4.55044e-07
4.61866e-07
4.69445e-07
4.77866e-07
4.87225e-07
4.9763e-07
5.09203e-07
5.22084e-07
5.36432e-07
5.52425e-07
5.70267e-07
5.90181e-07
6.12414e-07
6.3722e-07
6.64859e-07
6.95536e-07
7.29384e-07
7.66229e-07
8.05501e-07
8.45182e-07
8.81793e-07
9.03187e-07
4.15856e-07
4.18395e-07
4.21387e-07
4.24812e-07
4.28657e-07
4.32931e-07
4.37673e-07
4.42941e-07
4.48801e-07
4.55326e-07
4.62591e-07
4.70679e-07
4.79682e-07
4.89704e-07
5.00864e-07
5.133e-07
5.27164e-07
5.42632e-07
5.599e-07
5.79185e-07
6.00727e-07
6.24776e-07
6.51586e-07
6.8135e-07
7.14172e-07
7.49837e-07
7.87721e-07
8.25775e-07
8.60281e-07
8.79522e-07
4.09646e-07
4.11829e-07
4.1453e-07
4.17688e-07
4.21248e-07
4.25205e-07
4.29595e-07
4.34481e-07
4.39936e-07
4.46032e-07
4.52845e-07
4.60452e-07
4.68941e-07
4.78409e-07
4.88973e-07
5.00762e-07
5.13927e-07
5.28634e-07
5.45071e-07
5.63441e-07
5.83964e-07
6.06867e-07
6.32393e-07
6.60744e-07
6.92033e-07
7.26029e-07
7.61984e-07
7.97699e-07
8.28945e-07
8.44727e-07
4.0203e-07
4.03774e-07
4.06112e-07
4.08926e-07
4.12124e-07
4.1568e-07
4.19629e-07
4.24038e-07
4.28986e-07
4.34548e-07
4.40795e-07
4.47801e-07
4.55645e-07
4.6442e-07
4.74233e-07
4.85207e-07
4.97484e-07
5.11223e-07
5.2661e-07
5.43844e-07
5.63137e-07
5.84683e-07
6.0865e-07
6.35129e-07
6.64161e-07
6.95589e-07
7.28749e-07
7.61346e-07
7.88347e-07
7.9924e-07
3.93448e-07
3.94698e-07
3.96608e-07
3.99013e-07
4.01778e-07
4.0486e-07
4.08289e-07
4.1214e-07
4.16496e-07
4.21433e-07
4.27019e-07
4.33321e-07
4.40411e-07
4.48376e-07
4.57314e-07
4.67339e-07
4.78574e-07
4.91151e-07
5.05227e-07
5.20991e-07
5.38684e-07
5.58569e-07
5.8083e-07
6.05459e-07
6.32276e-07
6.60858e-07
6.90384e-07
7.18631e-07
7.39933e-07
7.43597e-07
3.84369e-07
3.8509e-07
3.86527e-07
3.8847e-07
3.90749e-07
3.93304e-07
3.96163e-07
3.99404e-07
4.03114e-07
4.0737e-07
4.12234e-07
4.17765e-07
4.24025e-07
4.31088e-07
4.39051e-07
4.4803e-07
4.58156e-07
4.69558e-07
4.82351e-07
4.9662e-07
5.12439e-07
5.2999e-07
5.49622e-07
5.71605e-07
5.95832e-07
6.21558e-07
6.47336e-07
6.70632e-07
6.85024e-07
6.78819e-07