/*--------------------------------*- C++ -*----------------------------------*\
| =========                 |                                                 |
| \\      /  F ield         | OpenFOAM: The Open Source CFD Toolbox           |
|  \\    /   O peration     | Version:  2312                                  |
|   \\  /    A nd           | Website:  www.openfoam.com                      |
|    \\/     M anipulation  |                                                 |
\*---------------------------------------------------------------------------*/
FoamFile
{
    version     2.0;
    format      ascii;
    arch        "LSB;label=32;scalar=64";
    class       volScalarField;
    location    "70000";
    object      p;
}
// * * * * * * * * * * * * * * * * * * * * * * * * * * * * * * * * * * * * * //

dimensions      [0 2 -2 0 0 0 0];

internalField   nonuniform List<scalar> 
10800
(
4.9073e-07
4.76607e-07
4.6284e-07
4.52262e-07
4.4484e-07
4.39448e-07
4.34997e-07
4.30917e-07
4.27041e-07
4.23377e-07
4.1996e-07
4.16795e-07
4.13849e-07
4.11071e-07
4.08416e-07
4.05849e-07
4.0335e-07
4.00905e-07
3.98503e-07
3.96137e-07
3.93796e-07
3.91474e-07
3.89164e-07
3.8686e-07
3.84558e-07
3.82254e-07
3.79945e-07
3.77629e-07
3.75303e-07
3.72967e-07
3.70617e-07
3.68255e-07
3.65879e-07
3.63488e-07
3.61083e-07
3.58664e-07
3.5623e-07
3.53783e-07
3.51322e-07
3.48849e-07
3.46362e-07
3.43864e-07
3.41353e-07
3.3883e-07
3.36296e-07
3.33748e-07
3.31189e-07
3.28612e-07
3.26023e-07
3.23406e-07
3.20783e-07
3.18103e-07
3.15446e-07
3.1264e-07
3.09988e-07
3.06851e-07
3.0449e-07
3.00078e-07
2.99766e-07
2.89162e-07
4.42687e-07
4.40959e-07
4.38314e-07
4.35188e-07
4.31972e-07
4.28878e-07
4.25954e-07
4.23167e-07
4.20465e-07
4.17818e-07
4.1522e-07
4.12676e-07
4.10194e-07
4.07772e-07
4.05405e-07
4.03083e-07
4.00797e-07
3.9854e-07
3.96305e-07
3.94088e-07
3.91884e-07
3.89689e-07
3.87499e-07
3.85312e-07
3.83123e-07
3.80932e-07
3.78734e-07
3.76529e-07
3.74315e-07
3.7209e-07
3.69853e-07
3.67604e-07
3.65343e-07
3.63068e-07
3.6078e-07
3.58477e-07
3.56162e-07
3.53831e-07
3.51491e-07
3.49132e-07
3.46767e-07
3.44381e-07
3.41993e-07
3.39579e-07
3.3717e-07
3.34726e-07
3.323e-07
3.29821e-07
3.27386e-07
3.24869e-07
3.22446e-07
3.19893e-07
3.17535e-07
3.14964e-07
3.12805e-07
3.10284e-07
3.08659e-07
3.06267e-07
3.05786e-07
3.03106e-07
4.33946e-07
4.33196e-07
4.31782e-07
4.2983e-07
4.27546e-07
4.25125e-07
4.22695e-07
4.20305e-07
4.17958e-07
4.15643e-07
4.13349e-07
4.11076e-07
4.0883e-07
4.06615e-07
4.04434e-07
4.02285e-07
4.00162e-07
3.98062e-07
3.9598e-07
3.93911e-07
3.91853e-07
3.89803e-07
3.87758e-07
3.85716e-07
3.83674e-07
3.81631e-07
3.79584e-07
3.77532e-07
3.75473e-07
3.73407e-07
3.71332e-07
3.69248e-07
3.67155e-07
3.6505e-07
3.62936e-07
3.60809e-07
3.58673e-07
3.56524e-07
3.54366e-07
3.52194e-07
3.50015e-07
3.47819e-07
3.45619e-07
3.43399e-07
3.41181e-07
3.38936e-07
3.36702e-07
3.34433e-07
3.32189e-07
3.29898e-07
3.27657e-07
3.2535e-07
3.23133e-07
3.20819e-07
3.18662e-07
3.16356e-07
3.14309e-07
3.12016e-07
3.10121e-07
3.07747e-07
4.22212e-07
4.21779e-07
4.20992e-07
4.19902e-07
4.18577e-07
4.17088e-07
4.15494e-07
4.13832e-07
4.12124e-07
4.10382e-07
4.0861e-07
4.06815e-07
4.05003e-07
4.0318e-07
4.01351e-07
3.9952e-07
3.97687e-07
3.95852e-07
3.94017e-07
3.92179e-07
3.90339e-07
3.88495e-07
3.86648e-07
3.84797e-07
3.8294e-07
3.81079e-07
3.79211e-07
3.77336e-07
3.75454e-07
3.73565e-07
3.71668e-07
3.69763e-07
3.6785e-07
3.65928e-07
3.63999e-07
3.62061e-07
3.60115e-07
3.58159e-07
3.56196e-07
3.54224e-07
3.52244e-07
3.50253e-07
3.48256e-07
3.46246e-07
3.44229e-07
3.42196e-07
3.40156e-07
3.38095e-07
3.36027e-07
3.33931e-07
3.31827e-07
3.29686e-07
3.27541e-07
3.25347e-07
3.23155e-07
3.20901e-07
3.18656e-07
3.16333e-07
3.14035e-07
3.11657e-07
4.15512e-07
4.15298e-07
4.14867e-07
4.14221e-07
4.13377e-07
4.12363e-07
4.11212e-07
4.09955e-07
4.08615e-07
4.07211e-07
4.05754e-07
4.04254e-07
4.02717e-07
4.0115e-07
3.99559e-07
3.97949e-07
3.96324e-07
3.94686e-07
3.93037e-07
3.91378e-07
3.89711e-07
3.88036e-07
3.86354e-07
3.84666e-07
3.8297e-07
3.81269e-07
3.79562e-07
3.77849e-07
3.7613e-07
3.74406e-07
3.72677e-07
3.70943e-07
3.69204e-07
3.6746e-07
3.65712e-07
3.6396e-07
3.62203e-07
3.60443e-07
3.58678e-07
3.5691e-07
3.55138e-07
3.53361e-07
3.5158e-07
3.49794e-07
3.48002e-07
3.46203e-07
3.44397e-07
3.42582e-07
3.40757e-07
3.38916e-07
3.37057e-07
3.35172e-07
3.33251e-07
3.31282e-07
3.29246e-07
3.27134e-07
3.24932e-07
3.22653e-07
3.20297e-07
3.17963e-07
4.09993e-07
4.0983e-07
4.09505e-07
4.09021e-07
4.08388e-07
4.07622e-07
4.06741e-07
4.05763e-07
4.04703e-07
4.03576e-07
4.02389e-07
4.01151e-07
3.99869e-07
3.98549e-07
3.97195e-07
3.95812e-07
3.94405e-07
3.92976e-07
3.91529e-07
3.90065e-07
3.88587e-07
3.87097e-07
3.85595e-07
3.84083e-07
3.82562e-07
3.81033e-07
3.79497e-07
3.77955e-07
3.76407e-07
3.74854e-07
3.73297e-07
3.71737e-07
3.70174e-07
3.68609e-07
3.67042e-07
3.65473e-07
3.63904e-07
3.62335e-07
3.60765e-07
3.59195e-07
3.57624e-07
3.56054e-07
3.54482e-07
3.52908e-07
3.51331e-07
3.49749e-07
3.48159e-07
3.4656e-07
3.44946e-07
3.43317e-07
3.41667e-07
3.39999e-07
3.38305e-07
3.36591e-07
3.34831e-07
3.3303e-07
3.31152e-07
3.29219e-07
3.27228e-07
3.25305e-07
4.05647e-07
4.05529e-07
4.05291e-07
4.04935e-07
4.04465e-07
4.03887e-07
4.0321e-07
4.02446e-07
4.01603e-07
4.00691e-07
3.99719e-07
3.98691e-07
3.97616e-07
3.96496e-07
3.95339e-07
3.94147e-07
3.92924e-07
3.91675e-07
3.90403e-07
3.8911e-07
3.87799e-07
3.86472e-07
3.85131e-07
3.83777e-07
3.82414e-07
3.81042e-07
3.79662e-07
3.78276e-07
3.76886e-07
3.75492e-07
3.74096e-07
3.72698e-07
3.71301e-07
3.69904e-07
3.68509e-07
3.67117e-07
3.65728e-07
3.64344e-07
3.62964e-07
3.6159e-07
3.60222e-07
3.58859e-07
3.57503e-07
3.56154e-07
3.54809e-07
3.53472e-07
3.52138e-07
3.50809e-07
3.4948e-07
3.48148e-07
3.46804e-07
3.45445e-07
3.44058e-07
3.42646e-07
3.41199e-07
3.39729e-07
3.38215e-07
3.36681e-07
3.35125e-07
3.3366e-07
4.02197e-07
4.02105e-07
4.01919e-07
4.0164e-07
4.01269e-07
4.0081e-07
4.00267e-07
3.99647e-07
3.98956e-07
3.982e-07
3.97386e-07
3.96517e-07
3.956e-07
3.94638e-07
3.93638e-07
3.92602e-07
3.91534e-07
3.90438e-07
3.89316e-07
3.88173e-07
3.8701e-07
3.8583e-07
3.84635e-07
3.83428e-07
3.8221e-07
3.80983e-07
3.79749e-07
3.78511e-07
3.77269e-07
3.76025e-07
3.74781e-07
3.73538e-07
3.72298e-07
3.71063e-07
3.69833e-07
3.68609e-07
3.67394e-07
3.66189e-07
3.64993e-07
3.6381e-07
3.62638e-07
3.61481e-07
3.60336e-07
3.59206e-07
3.58089e-07
3.56987e-07
3.55897e-07
3.54822e-07
3.53757e-07
3.52707e-07
3.51667e-07
3.50636e-07
3.49603e-07
3.48568e-07
3.4752e-07
3.4647e-07
3.45407e-07
3.44356e-07
3.43326e-07
3.4242e-07
3.99434e-07
3.99359e-07
3.99207e-07
3.98979e-07
3.98674e-07
3.98295e-07
3.97846e-07
3.97329e-07
3.96749e-07
3.96111e-07
3.95418e-07
3.94676e-07
3.93887e-07
3.93056e-07
3.92186e-07
3.91282e-07
3.90346e-07
3.89381e-07
3.88392e-07
3.8738e-07
3.86348e-07
3.85299e-07
3.84235e-07
3.83158e-07
3.82072e-07
3.80978e-07
3.79877e-07
3.78773e-07
3.77668e-07
3.76562e-07
3.75459e-07
3.74359e-07
3.73266e-07
3.7218e-07
3.71105e-07
3.7004e-07
3.68989e-07
3.67953e-07
3.66934e-07
3.65933e-07
3.64952e-07
3.63993e-07
3.63056e-07
3.62145e-07
3.61259e-07
3.60401e-07
3.5957e-07
3.58768e-07
3.57993e-07
3.57245e-07
3.56522e-07
3.55826e-07
3.55156e-07
3.54515e-07
3.53895e-07
3.53305e-07
3.52737e-07
3.52215e-07
3.51748e-07
3.51426e-07
3.97234e-07
3.9717e-07
3.97042e-07
3.96849e-07
3.96592e-07
3.9627e-07
3.95888e-07
3.95447e-07
3.9495e-07
3.94401e-07
3.93803e-07
3.93158e-07
3.92471e-07
3.91744e-07
3.90981e-07
3.90184e-07
3.89357e-07
3.88502e-07
3.87623e-07
3.86721e-07
3.85801e-07
3.84864e-07
3.83912e-07
3.82949e-07
3.81977e-07
3.80999e-07
3.80015e-07
3.7903e-07
3.78044e-07
3.77062e-07
3.76083e-07
3.75112e-07
3.74151e-07
3.73201e-07
3.72264e-07
3.71344e-07
3.70443e-07
3.69562e-07
3.68705e-07
3.67873e-07
3.67069e-07
3.66295e-07
3.65554e-07
3.64848e-07
3.64179e-07
3.6355e-07
3.62963e-07
3.6242e-07
3.61922e-07
3.6147e-07
3.61067e-07
3.60716e-07
3.60418e-07
3.60177e-07
3.59992e-07
3.5987e-07
3.59809e-07
3.59831e-07
3.59949e-07
3.60235e-07
3.95507e-07
3.95452e-07
3.95341e-07
3.95173e-07
3.9495e-07
3.9467e-07
3.94337e-07
3.93952e-07
3.93517e-07
3.93036e-07
3.92509e-07
3.9194e-07
3.91332e-07
3.90686e-07
3.90006e-07
3.89295e-07
3.88555e-07
3.87789e-07
3.87e-07
3.8619e-07
3.85361e-07
3.84517e-07
3.8366e-07
3.82793e-07
3.81917e-07
3.81036e-07
3.80153e-07
3.79269e-07
3.78387e-07
3.77511e-07
3.76641e-07
3.75782e-07
3.74935e-07
3.74103e-07
3.7329e-07
3.72498e-07
3.71729e-07
3.70987e-07
3.70274e-07
3.69594e-07
3.68949e-07
3.68344e-07
3.67781e-07
3.67264e-07
3.66795e-07
3.6638e-07
3.6602e-07
3.65718e-07
3.65479e-07
3.65308e-07
3.65208e-07
3.65185e-07
3.65242e-07
3.65385e-07
3.65617e-07
3.65946e-07
3.66377e-07
3.66929e-07
3.67616e-07
3.68497e-07
3.94191e-07
3.94142e-07
3.94043e-07
3.93894e-07
3.93695e-07
3.93446e-07
3.93148e-07
3.92804e-07
3.92415e-07
3.91982e-07
3.91509e-07
3.90997e-07
3.90448e-07
3.89864e-07
3.89249e-07
3.88604e-07
3.87932e-07
3.87235e-07
3.86517e-07
3.85778e-07
3.85023e-07
3.84254e-07
3.83472e-07
3.82682e-07
3.81885e-07
3.81084e-07
3.80282e-07
3.79481e-07
3.78685e-07
3.77895e-07
3.77116e-07
3.76349e-07
3.75598e-07
3.74865e-07
3.74155e-07
3.73469e-07
3.72812e-07
3.72187e-07
3.71597e-07
3.71046e-07
3.70537e-07
3.70076e-07
3.69665e-07
3.69309e-07
3.69013e-07
3.68782e-07
3.68618e-07
3.68528e-07
3.68519e-07
3.68596e-07
3.68765e-07
3.69033e-07
3.69406e-07
3.69893e-07
3.705e-07
3.71238e-07
3.72116e-07
3.7315e-07
3.74359e-07
3.75784e-07
3.9324e-07
3.93195e-07
3.93105e-07
3.92969e-07
3.92786e-07
3.92558e-07
3.92286e-07
3.9197e-07
3.91613e-07
3.91216e-07
3.9078e-07
3.90308e-07
3.89802e-07
3.89264e-07
3.88695e-07
3.88098e-07
3.87476e-07
3.86831e-07
3.86164e-07
3.8548e-07
3.8478e-07
3.84066e-07
3.83342e-07
3.82609e-07
3.81872e-07
3.81132e-07
3.80391e-07
3.79654e-07
3.78923e-07
3.78201e-07
3.7749e-07
3.76795e-07
3.76118e-07
3.75462e-07
3.74831e-07
3.74229e-07
3.73659e-07
3.73125e-07
3.72631e-07
3.72181e-07
3.7178e-07
3.71432e-07
3.71142e-07
3.70915e-07
3.70756e-07
3.70672e-07
3.70667e-07
3.70749e-07
3.70926e-07
3.71204e-07
3.71591e-07
3.72097e-07
3.72729e-07
3.73498e-07
3.74415e-07
3.7549e-07
3.76738e-07
3.78174e-07
3.79818e-07
3.81699e-07
3.92623e-07
3.92581e-07
3.92496e-07
3.92368e-07
3.92196e-07
3.91982e-07
3.91725e-07
3.91428e-07
3.91091e-07
3.90716e-07
3.90305e-07
3.89859e-07
3.89381e-07
3.88872e-07
3.88333e-07
3.87768e-07
3.87179e-07
3.86567e-07
3.85936e-07
3.85287e-07
3.84623e-07
3.83946e-07
3.8326e-07
3.82567e-07
3.81869e-07
3.8117e-07
3.80472e-07
3.79777e-07
3.7909e-07
3.78413e-07
3.7775e-07
3.77103e-07
3.76476e-07
3.75873e-07
3.75297e-07
3.74752e-07
3.74241e-07
3.7377e-07
3.73343e-07
3.72963e-07
3.72636e-07
3.72367e-07
3.72161e-07
3.72023e-07
3.71961e-07
3.71979e-07
3.72086e-07
3.72288e-07
3.72595e-07
3.73015e-07
3.73557e-07
3.7423e-07
3.75047e-07
3.76016e-07
3.77154e-07
3.78471e-07
3.79984e-07
3.81709e-07
3.83667e-07
3.85877e-07
3.92321e-07
3.9228e-07
3.92198e-07
3.92073e-07
3.91907e-07
3.91699e-07
3.9145e-07
3.91161e-07
3.90834e-07
3.90471e-07
3.90072e-07
3.89639e-07
3.89174e-07
3.88679e-07
3.88156e-07
3.87607e-07
3.87033e-07
3.86438e-07
3.85824e-07
3.85193e-07
3.84547e-07
3.83889e-07
3.83222e-07
3.82549e-07
3.81871e-07
3.81192e-07
3.80515e-07
3.79842e-07
3.79178e-07
3.78524e-07
3.77884e-07
3.77262e-07
3.76661e-07
3.76084e-07
3.75536e-07
3.7502e-07
3.7454e-07
3.74101e-07
3.73707e-07
3.73363e-07
3.73074e-07
3.72845e-07
3.72682e-07
3.72591e-07
3.72577e-07
3.72649e-07
3.72813e-07
3.73078e-07
3.73453e-07
3.73946e-07
3.74568e-07
3.75329e-07
3.76241e-07
3.77315e-07
3.78567e-07
3.8001e-07
3.81663e-07
3.83539e-07
3.85662e-07
3.88045e-07
3.92323e-07
3.92282e-07
3.92199e-07
3.92075e-07
3.91909e-07
3.91701e-07
3.91452e-07
3.91163e-07
3.90837e-07
3.90473e-07
3.90074e-07
3.89641e-07
3.89176e-07
3.88681e-07
3.88158e-07
3.87609e-07
3.87036e-07
3.86441e-07
3.85827e-07
3.85195e-07
3.8455e-07
3.83892e-07
3.83225e-07
3.82551e-07
3.81874e-07
3.81195e-07
3.80518e-07
3.79845e-07
3.79181e-07
3.78527e-07
3.77887e-07
3.77265e-07
3.76664e-07
3.76088e-07
3.75539e-07
3.75024e-07
3.74544e-07
3.74105e-07
3.73711e-07
3.73368e-07
3.73079e-07
3.7285e-07
3.72687e-07
3.72596e-07
3.72583e-07
3.72655e-07
3.72819e-07
3.73085e-07
3.7346e-07
3.73953e-07
3.74575e-07
3.75336e-07
3.76248e-07
3.77323e-07
3.78576e-07
3.80019e-07
3.81672e-07
3.83549e-07
3.85672e-07
3.88055e-07
3.92629e-07
3.92587e-07
3.92502e-07
3.92374e-07
3.92202e-07
3.91988e-07
3.91731e-07
3.91434e-07
3.91097e-07
3.90722e-07
3.90311e-07
3.89866e-07
3.89387e-07
3.88878e-07
3.8834e-07
3.87775e-07
3.87186e-07
3.86574e-07
3.85943e-07
3.85294e-07
3.8463e-07
3.83954e-07
3.83268e-07
3.82575e-07
3.81877e-07
3.81178e-07
3.8048e-07
3.79786e-07
3.791e-07
3.78423e-07
3.7776e-07
3.77113e-07
3.76487e-07
3.75884e-07
3.75308e-07
3.74763e-07
3.74253e-07
3.73783e-07
3.73355e-07
3.72976e-07
3.7265e-07
3.72381e-07
3.72175e-07
3.72039e-07
3.71977e-07
3.71996e-07
3.72103e-07
3.72307e-07
3.72615e-07
3.73035e-07
3.73578e-07
3.74252e-07
3.75069e-07
3.7604e-07
3.77178e-07
3.78496e-07
3.80011e-07
3.81737e-07
3.83696e-07
3.85908e-07
3.9325e-07
3.93205e-07
3.93115e-07
3.92978e-07
3.92796e-07
3.92568e-07
3.92296e-07
3.9198e-07
3.91623e-07
3.91226e-07
3.90791e-07
3.90319e-07
3.89813e-07
3.89275e-07
3.88706e-07
3.8811e-07
3.87488e-07
3.86842e-07
3.86176e-07
3.85492e-07
3.84792e-07
3.84079e-07
3.83355e-07
3.82623e-07
3.81886e-07
3.81146e-07
3.80406e-07
3.79669e-07
3.78939e-07
3.78217e-07
3.77507e-07
3.76812e-07
3.76135e-07
3.7548e-07
3.7485e-07
3.74248e-07
3.73679e-07
3.73145e-07
3.72652e-07
3.72203e-07
3.71803e-07
3.71456e-07
3.71166e-07
3.70941e-07
3.70783e-07
3.707e-07
3.70696e-07
3.7078e-07
3.70957e-07
3.71237e-07
3.71626e-07
3.72132e-07
3.72766e-07
3.73537e-07
3.74455e-07
3.75533e-07
3.76783e-07
3.78221e-07
3.79867e-07
3.8175e-07
3.94204e-07
3.94155e-07
3.94057e-07
3.93908e-07
3.93708e-07
3.93459e-07
3.93162e-07
3.92818e-07
3.92429e-07
3.91997e-07
3.91523e-07
3.91011e-07
3.90463e-07
3.89879e-07
3.89264e-07
3.8862e-07
3.87948e-07
3.87251e-07
3.86533e-07
3.85795e-07
3.85041e-07
3.84271e-07
3.83491e-07
3.82701e-07
3.81904e-07
3.81104e-07
3.80302e-07
3.79502e-07
3.78706e-07
3.77917e-07
3.77139e-07
3.76372e-07
3.75622e-07
3.7489e-07
3.74181e-07
3.73496e-07
3.7284e-07
3.72215e-07
3.71626e-07
3.71076e-07
3.70569e-07
3.70108e-07
3.69699e-07
3.69345e-07
3.6905e-07
3.6882e-07
3.68658e-07
3.6857e-07
3.68563e-07
3.68641e-07
3.68812e-07
3.69082e-07
3.69458e-07
3.69947e-07
3.70556e-07
3.71297e-07
3.72177e-07
3.73214e-07
3.74426e-07
3.75855e-07
3.95524e-07
3.95469e-07
3.95358e-07
3.95191e-07
3.94967e-07
3.94688e-07
3.94355e-07
3.9397e-07
3.93535e-07
3.93054e-07
3.92527e-07
3.91959e-07
3.9135e-07
3.90705e-07
3.90026e-07
3.89315e-07
3.88576e-07
3.8781e-07
3.87021e-07
3.86211e-07
3.85383e-07
3.8454e-07
3.83683e-07
3.82816e-07
3.81942e-07
3.81061e-07
3.80179e-07
3.79295e-07
3.78415e-07
3.77539e-07
3.7667e-07
3.75811e-07
3.74966e-07
3.74135e-07
3.73323e-07
3.72531e-07
3.71764e-07
3.71023e-07
3.70311e-07
3.69633e-07
3.6899e-07
3.68386e-07
3.67824e-07
3.67309e-07
3.66842e-07
3.66428e-07
3.6607e-07
3.65771e-07
3.65534e-07
3.65365e-07
3.65267e-07
3.65247e-07
3.65307e-07
3.65453e-07
3.65687e-07
3.6602e-07
3.66455e-07
3.67009e-07
3.677e-07
3.68585e-07
3.97254e-07
3.97191e-07
3.97063e-07
3.9687e-07
3.96613e-07
3.96291e-07
3.95909e-07
3.95468e-07
3.94972e-07
3.94423e-07
3.93825e-07
3.93181e-07
3.92494e-07
3.91767e-07
3.91004e-07
3.90208e-07
3.89381e-07
3.88527e-07
3.87648e-07
3.86747e-07
3.85827e-07
3.84891e-07
3.8394e-07
3.82978e-07
3.82007e-07
3.81029e-07
3.80046e-07
3.79061e-07
3.78077e-07
3.77095e-07
3.76118e-07
3.75148e-07
3.74188e-07
3.73239e-07
3.72304e-07
3.71385e-07
3.70485e-07
3.69606e-07
3.6875e-07
3.6792e-07
3.67117e-07
3.66345e-07
3.65606e-07
3.64902e-07
3.64235e-07
3.63608e-07
3.63023e-07
3.62483e-07
3.61987e-07
3.61539e-07
3.61138e-07
3.60791e-07
3.60495e-07
3.60258e-07
3.60076e-07
3.59958e-07
3.59902e-07
3.59927e-07
3.60049e-07
3.6034e-07
3.99458e-07
3.99383e-07
3.99231e-07
3.99003e-07
3.98699e-07
3.9832e-07
3.9787e-07
3.97354e-07
3.96774e-07
3.96136e-07
3.95444e-07
3.94702e-07
3.93913e-07
3.93082e-07
3.92213e-07
3.91309e-07
3.90374e-07
3.8941e-07
3.88421e-07
3.8741e-07
3.86379e-07
3.8533e-07
3.84267e-07
3.83192e-07
3.82106e-07
3.81013e-07
3.79913e-07
3.7881e-07
3.77705e-07
3.76601e-07
3.75499e-07
3.74401e-07
3.73309e-07
3.72225e-07
3.7115e-07
3.70087e-07
3.69038e-07
3.68003e-07
3.66986e-07
3.65987e-07
3.65008e-07
3.64051e-07
3.63117e-07
3.62207e-07
3.61324e-07
3.60468e-07
3.5964e-07
3.58841e-07
3.58069e-07
3.57324e-07
3.56604e-07
3.55912e-07
3.55245e-07
3.54608e-07
3.53992e-07
3.53406e-07
3.52843e-07
3.52325e-07
3.51863e-07
3.51546e-07
4.02224e-07
4.02132e-07
4.01947e-07
4.01668e-07
4.01297e-07
4.00837e-07
4.00294e-07
3.99675e-07
3.98984e-07
3.98229e-07
3.97415e-07
3.96546e-07
3.95629e-07
3.94669e-07
3.93669e-07
3.92633e-07
3.91566e-07
3.9047e-07
3.8935e-07
3.88207e-07
3.87045e-07
3.85866e-07
3.84672e-07
3.83465e-07
3.82248e-07
3.81022e-07
3.7979e-07
3.78553e-07
3.77312e-07
3.76069e-07
3.74827e-07
3.73585e-07
3.72347e-07
3.71113e-07
3.69884e-07
3.68663e-07
3.67449e-07
3.66246e-07
3.65052e-07
3.63871e-07
3.62702e-07
3.61546e-07
3.60404e-07
3.59276e-07
3.58162e-07
3.57063e-07
3.55976e-07
3.54903e-07
3.53842e-07
3.52796e-07
3.51759e-07
3.50732e-07
3.49702e-07
3.48672e-07
3.47629e-07
3.46584e-07
3.45525e-07
3.44479e-07
3.43454e-07
3.42553e-07
4.05677e-07
4.05559e-07
4.05321e-07
4.04965e-07
4.04495e-07
4.03917e-07
4.03241e-07
4.02477e-07
4.01635e-07
4.00723e-07
3.99751e-07
3.98724e-07
3.97649e-07
3.9653e-07
3.95373e-07
3.94181e-07
3.9296e-07
3.91712e-07
3.9044e-07
3.89148e-07
3.87837e-07
3.86511e-07
3.85171e-07
3.83819e-07
3.82456e-07
3.81085e-07
3.79707e-07
3.78322e-07
3.76933e-07
3.75541e-07
3.74146e-07
3.7275e-07
3.71354e-07
3.69959e-07
3.68566e-07
3.67176e-07
3.65789e-07
3.64406e-07
3.63029e-07
3.61657e-07
3.60291e-07
3.58931e-07
3.57578e-07
3.56231e-07
3.54889e-07
3.53555e-07
3.52224e-07
3.50898e-07
3.49572e-07
3.48244e-07
3.46904e-07
3.45549e-07
3.44166e-07
3.42759e-07
3.41317e-07
3.39852e-07
3.38344e-07
3.36815e-07
3.35264e-07
3.33805e-07
4.10025e-07
4.09863e-07
4.09538e-07
4.09054e-07
4.08421e-07
4.07655e-07
4.06774e-07
4.05796e-07
4.04738e-07
4.0361e-07
4.02424e-07
4.01187e-07
3.99905e-07
3.98585e-07
3.97232e-07
3.9585e-07
3.94443e-07
3.93015e-07
3.91569e-07
3.90106e-07
3.8863e-07
3.8714e-07
3.85639e-07
3.84128e-07
3.82608e-07
3.81081e-07
3.79546e-07
3.78005e-07
3.76459e-07
3.74907e-07
3.73352e-07
3.71794e-07
3.70232e-07
3.68669e-07
3.67104e-07
3.65537e-07
3.6397e-07
3.62403e-07
3.60835e-07
3.59268e-07
3.577e-07
3.56132e-07
3.54563e-07
3.52992e-07
3.51418e-07
3.4984e-07
3.48253e-07
3.46658e-07
3.45047e-07
3.43423e-07
3.41777e-07
3.40114e-07
3.38424e-07
3.36714e-07
3.34958e-07
3.33161e-07
3.31289e-07
3.29362e-07
3.27377e-07
3.2546e-07
4.15547e-07
4.15333e-07
4.14902e-07
4.14256e-07
4.13412e-07
4.12399e-07
4.11248e-07
4.09991e-07
4.08652e-07
4.07248e-07
4.05792e-07
4.04292e-07
4.02755e-07
4.01189e-07
3.99599e-07
3.9799e-07
3.96365e-07
3.94728e-07
3.9308e-07
3.91422e-07
3.89756e-07
3.88083e-07
3.86402e-07
3.84714e-07
3.8302e-07
3.8132e-07
3.79614e-07
3.77903e-07
3.76186e-07
3.74463e-07
3.72736e-07
3.71003e-07
3.69266e-07
3.67524e-07
3.65778e-07
3.64028e-07
3.62274e-07
3.60516e-07
3.58754e-07
3.56988e-07
3.55218e-07
3.53444e-07
3.51666e-07
3.49883e-07
3.48094e-07
3.46299e-07
3.44496e-07
3.42685e-07
3.40863e-07
3.39026e-07
3.37171e-07
3.3529e-07
3.33373e-07
3.31409e-07
3.29379e-07
3.27273e-07
3.25078e-07
3.22804e-07
3.20455e-07
3.18128e-07
4.22248e-07
4.21816e-07
4.21029e-07
4.19939e-07
4.18614e-07
4.17126e-07
4.15532e-07
4.1387e-07
4.12163e-07
4.10421e-07
4.08649e-07
4.06855e-07
4.05044e-07
4.03222e-07
4.01394e-07
3.99563e-07
3.97731e-07
3.95897e-07
3.94063e-07
3.92226e-07
3.90387e-07
3.88545e-07
3.86699e-07
3.84849e-07
3.82994e-07
3.81133e-07
3.79267e-07
3.77394e-07
3.75514e-07
3.73626e-07
3.71731e-07
3.69828e-07
3.67917e-07
3.65997e-07
3.6407e-07
3.62133e-07
3.6019e-07
3.58237e-07
3.56276e-07
3.54306e-07
3.5233e-07
3.50342e-07
3.48347e-07
3.4634e-07
3.44327e-07
3.42297e-07
3.40261e-07
3.38204e-07
3.3614e-07
3.34048e-07
3.31949e-07
3.29813e-07
3.27673e-07
3.25484e-07
3.23298e-07
3.21049e-07
3.1881e-07
3.16492e-07
3.14199e-07
3.11827e-07
4.33984e-07
4.33234e-07
4.3182e-07
4.29868e-07
4.27584e-07
4.25164e-07
4.22734e-07
4.20344e-07
4.17998e-07
4.15683e-07
4.1339e-07
4.11118e-07
4.08873e-07
4.06659e-07
4.04479e-07
4.0233e-07
4.00209e-07
3.98109e-07
3.96028e-07
3.93961e-07
3.91904e-07
3.89855e-07
3.87812e-07
3.85771e-07
3.8373e-07
3.81688e-07
3.79643e-07
3.77592e-07
3.75536e-07
3.73471e-07
3.71398e-07
3.69316e-07
3.67224e-07
3.65122e-07
3.6301e-07
3.60885e-07
3.58752e-07
3.56605e-07
3.5445e-07
3.5228e-07
3.50104e-07
3.47911e-07
3.45714e-07
3.43497e-07
3.41282e-07
3.39041e-07
3.3681e-07
3.34545e-07
3.32306e-07
3.30018e-07
3.27782e-07
3.25479e-07
3.23267e-07
3.20958e-07
3.18806e-07
3.16505e-07
3.14465e-07
3.12178e-07
3.1029e-07
3.07923e-07
4.42726e-07
4.40999e-07
4.38354e-07
4.35228e-07
4.32012e-07
4.28918e-07
4.25995e-07
4.23208e-07
4.20507e-07
4.1786e-07
4.15263e-07
4.1272e-07
4.10238e-07
4.07817e-07
4.05451e-07
4.0313e-07
4.00846e-07
3.9859e-07
3.96356e-07
3.9414e-07
3.91937e-07
3.89743e-07
3.87555e-07
3.85369e-07
3.83182e-07
3.80992e-07
3.78796e-07
3.76593e-07
3.7438e-07
3.72157e-07
3.69922e-07
3.67675e-07
3.65416e-07
3.63143e-07
3.60857e-07
3.58556e-07
3.56244e-07
3.53916e-07
3.51578e-07
3.49222e-07
3.46859e-07
3.44477e-07
3.42092e-07
3.39681e-07
3.37275e-07
3.34834e-07
3.32412e-07
3.29937e-07
3.27506e-07
3.24994e-07
3.22575e-07
3.20026e-07
3.17673e-07
3.15107e-07
3.12954e-07
3.10438e-07
3.08819e-07
3.06433e-07
3.05958e-07
3.03285e-07
4.9077e-07
4.76647e-07
4.6288e-07
4.52303e-07
4.4488e-07
4.39489e-07
4.35038e-07
4.30959e-07
4.27084e-07
4.2342e-07
4.20004e-07
4.1684e-07
4.13894e-07
4.11118e-07
4.08463e-07
4.05898e-07
4.034e-07
4.00956e-07
3.98556e-07
3.9619e-07
3.93851e-07
3.9153e-07
3.89221e-07
3.86919e-07
3.84618e-07
3.82316e-07
3.80009e-07
3.77694e-07
3.75371e-07
3.73036e-07
3.70688e-07
3.68328e-07
3.65954e-07
3.63565e-07
3.61162e-07
3.58745e-07
3.56314e-07
3.53869e-07
3.51411e-07
3.4894e-07
3.46456e-07
3.43961e-07
3.41453e-07
3.38934e-07
3.36403e-07
3.33858e-07
3.31302e-07
3.28729e-07
3.26144e-07
3.23532e-07
3.20913e-07
3.18237e-07
3.15584e-07
3.12784e-07
3.10137e-07
3.07005e-07
3.04648e-07
3.00242e-07
2.99935e-07
2.89336e-07
3.29039e-07
2.78492e-07
2.57589e-07
2.40021e-07
2.22422e-07
2.04675e-07
1.84861e-07
1.63698e-07
1.38988e-07
1.1241e-07
8.14644e-08
4.90873e-08
1.22173e-08
-2.47609e-08
-6.57042e-08
-1.0467e-07
-1.46933e-07
-1.84847e-07
-2.2561e-07
-2.59695e-07
-2.96537e-07
-3.2474e-07
-3.56058e-07
-3.76835e-07
-4.02384e-07
-4.13458e-07
-4.37432e-07
-4.33983e-07
-4.64599e-07
-5.57368e-07
3.1515e-07
2.60049e-07
2.46138e-07
2.31144e-07
2.14219e-07
1.96883e-07
1.77377e-07
1.56362e-07
1.31846e-07
1.05626e-07
7.53117e-08
4.37922e-08
8.09834e-09
-2.75533e-08
-6.69624e-08
-1.04456e-07
-1.44916e-07
-1.81345e-07
-2.20272e-07
-2.53418e-07
-2.89059e-07
-3.16635e-07
-3.48094e-07
-3.68187e-07
-3.9526e-07
-4.06312e-07
-4.28822e-07
-4.37005e-07
-4.4094e-07
-5.87726e-07
3.02963e-07
2.57589e-07
2.44719e-07
2.30201e-07
2.12779e-07
1.94461e-07
1.74434e-07
1.53077e-07
1.28513e-07
1.02163e-07
7.20868e-08
4.06615e-08
5.53638e-09
-2.9763e-08
-6.82628e-08
-1.05161e-07
-1.44619e-07
-1.80694e-07
-2.19068e-07
-2.51811e-07
-2.87079e-07
-3.14616e-07
-3.45058e-07
-3.66935e-07
-3.91455e-07
-4.08861e-07
-4.25605e-07
-4.49332e-07
-4.2774e-07
-5.29374e-07
2.9279e-07
2.53493e-07
2.38547e-07
2.24551e-07
2.07835e-07
1.90105e-07
1.70272e-07
1.48748e-07
1.24243e-07
9.77317e-08
6.79912e-08
3.65778e-08
2.22134e-09
-3.28788e-08
-7.01497e-08
-1.06843e-07
-1.44761e-07
-1.80774e-07
-2.17032e-07
-2.50379e-07
-2.83028e-07
-3.12862e-07
-3.40534e-07
-3.66084e-07
-3.86772e-07
-4.10886e-07
-4.18293e-07
-4.53129e-07
-4.25003e-07
-4.94376e-07
2.82969e-07
2.50906e-07
2.35085e-07
2.22216e-07
2.06053e-07
1.87551e-07
1.67203e-07
1.45111e-07
1.20567e-07
9.36429e-08
6.41564e-08
3.24664e-08
-1.18464e-09
-3.639e-08
-7.2457e-08
-1.09212e-07
-1.45477e-07
-1.81716e-07
-2.16001e-07
-2.50277e-07
-2.80825e-07
-3.12421e-07
-3.3724e-07
-3.66321e-07
-3.82804e-07
-4.11694e-07
-4.1498e-07
-4.49097e-07
-4.33005e-07
-4.67816e-07
2.74372e-07
2.49182e-07
2.32522e-07
2.19201e-07
2.03311e-07
1.84708e-07
1.64174e-07
1.41592e-07
1.16926e-07
8.9566e-08
6.02065e-08
2.8193e-08
-4.92163e-09
-4.02787e-08
-7.53235e-08
-1.12146e-07
-1.46926e-07
-1.83375e-07
-2.15884e-07
-2.50766e-07
-2.79341e-07
-3.12038e-07
-3.35062e-07
-3.65601e-07
-3.81051e-07
-4.10013e-07
-4.16103e-07
-4.43104e-07
-4.43622e-07
-4.59535e-07
2.67336e-07
2.47675e-07
2.30895e-07
2.16734e-07
2.0096e-07
1.82288e-07
1.61501e-07
1.38351e-07
1.13381e-07
8.55436e-08
5.61155e-08
2.37988e-08
-9.03412e-09
-4.4437e-08
-7.87952e-08
-1.15435e-07
-1.49201e-07
-1.85384e-07
-2.16788e-07
-2.51407e-07
-2.79142e-07
-3.11555e-07
-3.34594e-07
-3.64338e-07
-3.81737e-07
-4.07846e-07
-4.19862e-07
-4.40032e-07
-4.49458e-07
-4.60545e-07
2.62085e-07
2.46271e-07
2.29994e-07
2.14872e-07
1.98851e-07
1.8003e-07
1.5892e-07
1.35219e-07
1.0977e-07
8.14842e-08
5.17799e-08
1.92598e-08
-1.35727e-08
-4.88342e-08
-8.28814e-08
-1.19013e-07
-1.52285e-07
-1.87666e-07
-2.18678e-07
-2.52249e-07
-2.80125e-07
-3.11195e-07
-3.35438e-07
-3.63212e-07
-3.83496e-07
-4.06681e-07
-4.2319e-07
-4.40256e-07
-4.53358e-07
-4.64322e-07
2.58703e-07
2.44969e-07
2.29346e-07
2.13572e-07
1.96993e-07
1.77857e-07
1.5633e-07
1.32108e-07
1.06048e-07
7.73307e-08
4.71779e-08
1.45313e-08
-1.85183e-08
-5.35008e-08
-8.75138e-08
-1.2292e-07
-1.56045e-07
-1.9031e-07
-2.2132e-07
-2.53488e-07
-2.8183e-07
-3.11308e-07
-3.36739e-07
-3.62856e-07
-3.85117e-07
-4.06985e-07
-4.25651e-07
-4.42523e-07
-4.56918e-07
-4.6919e-07
2.5695e-07
2.43832e-07
2.28774e-07
2.12639e-07
1.95344e-07
1.75704e-07
1.53638e-07
1.28899e-07
1.02154e-07
7.29942e-08
4.22916e-08
9.53035e-09
-2.3838e-08
-5.85096e-08
-9.25938e-08
-1.27235e-07
-1.60291e-07
-1.93426e-07
-2.2442e-07
-2.55273e-07
-2.83851e-07
-3.1207e-07
-3.38102e-07
-3.63321e-07
-3.86479e-07
-4.08127e-07
-4.27733e-07
-4.45247e-07
-4.6069e-07
-4.74331e-07
2.5635e-07
2.43009e-07
2.28168e-07
2.11785e-07
1.9377e-07
1.73486e-07
1.50764e-07
1.25471e-07
9.8018e-08
6.83768e-08
3.70939e-08
4.17009e-09
-2.95175e-08
-6.39366e-08
-9.80557e-08
-1.32025e-07
-1.64902e-07
-1.97072e-07
-2.27822e-07
-2.57632e-07
-2.86058e-07
-3.13417e-07
-3.39499e-07
-3.64289e-07
-3.87752e-07
-4.09563e-07
-4.29795e-07
-4.4809e-07
-4.6464e-07
-4.79551e-07
2.56316e-07
2.42539e-07
2.27538e-07
2.10812e-07
1.92095e-07
1.71089e-07
1.4763e-07
1.21719e-07
9.35563e-08
6.33832e-08
3.15275e-08
-1.62866e-09
-3.55926e-08
-6.98462e-08
-1.0391e-07
-1.37333e-07
-1.69881e-07
-2.01253e-07
-2.31538e-07
-2.60507e-07
-2.88496e-07
-3.15198e-07
-3.41035e-07
-3.65548e-07
-3.89099e-07
-4.11136e-07
-4.31905e-07
-4.50961e-07
-4.68558e-07
-4.84745e-07
2.56448e-07
2.42276e-07
2.2684e-07
2.09593e-07
1.90158e-07
1.68392e-07
1.44154e-07
1.17553e-07
8.86729e-08
5.79152e-08
2.55002e-08
-7.95275e-09
-4.21497e-08
-7.63104e-08
-1.1024e-07
-1.43206e-07
-1.75312e-07
-2.05982e-07
-2.35661e-07
-2.6387e-07
-2.91272e-07
-3.17357e-07
-3.42819e-07
-3.67036e-07
-3.90599e-07
-4.12784e-07
-4.34078e-07
-4.53762e-07
-4.72413e-07
-4.89685e-07
2.56497e-07
2.42007e-07
2.25988e-07
2.08065e-07
1.87867e-07
1.65308e-07
1.40256e-07
1.1289e-07
8.3262e-08
5.18629e-08
1.88892e-08
-1.4914e-08
-4.93184e-08
-8.34351e-08
-1.17181e-07
-1.49732e-07
-1.81326e-07
-2.11325e-07
-2.4031e-07
-2.67767e-07
-2.94479e-07
-3.19923e-07
-3.44903e-07
-3.68772e-07
-3.92248e-07
-4.14521e-07
-4.36238e-07
-4.56506e-07
-4.76095e-07
-4.94407e-07
2.56371e-07
2.41541e-07
2.24893e-07
2.06209e-07
1.85189e-07
1.61776e-07
1.35851e-07
1.07633e-07
7.71996e-08
4.50932e-08
1.15391e-08
-2.26603e-08
-5.72676e-08
-9.13681e-08
-1.24899e-07
-1.57043e-07
-1.88075e-07
-2.1739e-07
-2.45611e-07
-2.72274e-07
-2.98209e-07
-3.22942e-07
-3.47333e-07
-3.70767e-07
-3.94037e-07
-4.16312e-07
-4.38345e-07
-4.59125e-07
-4.79572e-07
-4.9883e-07
2.5613e-07
2.4084e-07
2.23542e-07
2.04048e-07
1.82125e-07
1.5775e-07
1.30843e-07
1.01661e-07
7.03344e-08
3.744e-08
3.26145e-09
-3.13793e-08
-6.61975e-08
-1.00294e-07
-1.33584e-07
-1.65302e-07
-1.9572e-07
-2.24302e-07
-2.51685e-07
-2.77481e-07
-3.02535e-07
-3.2646e-07
-3.50128e-07
-3.73016e-07
-3.95924e-07
-4.18102e-07
-4.40298e-07
-4.61529e-07
-4.82714e-07
-5.02888e-07
2.55957e-07
2.39989e-07
2.21983e-07
2.01608e-07
1.78655e-07
1.53152e-07
1.25103e-07
9.48082e-08
6.24722e-08
2.86943e-08
-6.1685e-09
-4.12937e-08
-7.63313e-08
-1.10418e-07
-1.43433e-07
-1.74678e-07
-2.04414e-07
-2.32188e-07
-2.58642e-07
-2.83466e-07
-3.07526e-07
-3.30506e-07
-3.53307e-07
-3.7549e-07
-3.97865e-07
-4.19794e-07
-4.41977e-07
-4.63569e-07
-4.85338e-07
-5.06432e-07
2.56104e-07
2.39158e-07
2.20264e-07
1.98846e-07
1.74666e-07
1.47818e-07
1.18422e-07
8.68392e-08
5.33581e-08
1.85944e-08
-1.70155e-08
-5.26578e-08
-8.7911e-08
-1.21962e-07
-1.54644e-07
-1.85346e-07
-2.14311e-07
-2.41177e-07
-2.66593e-07
-2.90317e-07
-3.13254e-07
-3.35123e-07
-3.56902e-07
-3.78171e-07
-3.99838e-07
-4.21284e-07
-4.43281e-07
-4.65027e-07
-4.87257e-07
-5.0914e-07
2.56695e-07
2.38458e-07
2.18339e-07
1.95568e-07
1.69885e-07
1.41445e-07
1.10485e-07
7.74319e-08
4.26646e-08
6.81722e-09
-2.95931e-08
-6.5766e-08
-1.01211e-07
-1.35174e-07
-1.67444e-07
-1.97512e-07
-2.25593e-07
-2.51436e-07
-2.75678e-07
-2.98166e-07
-3.1982e-07
-3.40403e-07
-3.60972e-07
-3.81095e-07
-4.01835e-07
-4.22512e-07
-4.44093e-07
-4.65696e-07
-4.88172e-07
-5.10603e-07
2.57501e-07
2.3771e-07
2.15884e-07
1.91338e-07
1.63843e-07
1.33569e-07
1.0084e-07
6.61436e-08
2.99569e-08
-7.05767e-09
-4.43044e-08
-8.09973e-08
-1.16586e-07
-1.50386e-07
-1.82146e-07
-2.11469e-07
-2.38535e-07
-2.63223e-07
-2.86129e-07
-3.07226e-07
-3.274e-07
-3.46506e-07
-3.65624e-07
-3.84343e-07
-4.0388e-07
-4.23441e-07
-4.44311e-07
-4.65322e-07
-4.8775e-07
-5.102e-07
2.57743e-07
2.36124e-07
2.12249e-07
1.85579e-07
1.5596e-07
1.23597e-07
8.88858e-08
5.23765e-08
1.46452e-08
-2.36059e-08
-6.1706e-08
-9.88831e-08
-1.34544e-07
-1.68074e-07
-1.992e-07
-2.27642e-07