/*--------------------------------*- C++ -*----------------------------------*\
| =========                 |                                                 |
| \\      /  F ield         | OpenFOAM: The Open Source CFD Toolbox           |
|  \\    /   O peration     | Version:  2312                                  |
|   \\  /    A nd           | Website:  www.openfoam.com                      |
|    \\/     M anipulation  |                                                 |
\*---------------------------------------------------------------------------*/
FoamFile
{
    version     2.0;
    format      ascii;
    arch        "LSB;label=32;scalar=64";
    class       surfaceScalarField;
    location    "150000";
    object      phi;
}
// * * * * * * * * * * * * * * * * * * * * * * * * * * * * * * * * * * * * * //

dimensions      [0 3 -1 0 0 0 0];

oriented        oriented;

internalField   nonuniform List<scalar> 
5250
(
0.000553483
-1.16028e-06
0.000550826
2.65691e-06
0.000545409
5.4165e-06
0.000537274
8.1354e-06
0.000526458
1.08157e-05
0.000513185
1.32736e-05
0.000497754
1.54311e-05
0.00048042
1.73339e-05
0.000461343
1.90766e-05
0.000440623
2.07204e-05
0.00041836
2.2263e-05
0.000394685
2.36747e-05
0.000369764
2.49213e-05
0.000343797
2.59671e-05
0.000317024
2.67728e-05
0.000289727
2.72966e-05
0.000262226
2.75013e-05
0.000234863
2.73633e-05
0.000207982
2.68806e-05
0.000181906
2.60762e-05
0.000156908
2.49975e-05
0.0001332
2.37087e-05
0.000110919
2.22805e-05
9.01396e-05
2.07796e-05
7.08795e-05
1.92601e-05
5.30792e-05
1.78003e-05
3.6609e-05
1.64701e-05
2.13548e-05
1.52542e-05
7.23276e-06
1.4122e-05
-5.75505e-06
1.29878e-05
-1.75206e-05
1.17656e-05
-2.79541e-05
1.04335e-05
-3.69516e-05
8.99755e-06
-4.44345e-05
7.48286e-06
-5.03558e-05
5.92133e-06
-5.47082e-05
4.3524e-06
-5.75155e-05
2.80726e-06
-5.88343e-05
1.31885e-06
-5.87375e-05
-9.68549e-08
-5.74891e-05
-1.24839e-06
-5.51677e-05
-2.32139e-06
-5.18856e-05
-3.28206e-06
-4.7767e-05
-4.11861e-06
-4.29013e-05
-4.86576e-06
-3.75064e-05
-5.39491e-06
-3.18074e-05
-5.69892e-06
-2.60078e-05
-5.79965e-06
-2.02841e-05
-5.72365e-06
-1.47869e-05
-5.49719e-06
-9.63734e-06
-5.14961e-06
-4.90753e-06
-4.72982e-06
-6.05606e-07
-4.30192e-06
3.31954e-06
-3.92515e-06
6.9358e-06
-3.61626e-06
1.03181e-05
-3.38233e-06
1.35401e-05
-3.22197e-06
1.66905e-05
-3.15042e-06
1.98771e-05
-3.1866e-06
2.31779e-05
-3.30078e-06
2.66067e-05
-3.42878e-06
3.02146e-05
-3.60788e-06
3.39508e-05
-3.73619e-06
3.77272e-05
-3.77641e-06
4.14409e-05
-3.71371e-06
4.49892e-05
-3.54831e-06
4.82788e-05
-3.28964e-06
5.12293e-05
-2.95046e-06
5.37707e-05
-2.54141e-06
5.58384e-05
-2.06772e-06
5.73672e-05
-1.52876e-06
5.82896e-05
-9.22439e-07
5.85567e-05
-2.67121e-07
5.80702e-05
4.86566e-07
5.69057e-05
1.16442e-06
5.50865e-05
1.81926e-06
5.26577e-05
2.42875e-06
4.9688e-05
2.96975e-06
4.62502e-05
3.43778e-06
4.24152e-05
3.83503e-06
3.82487e-05
4.16651e-06
3.38105e-05
4.43812e-06
2.91555e-05
4.65503e-06
2.43349e-05
4.82057e-06
1.93991e-05
4.9358e-06
1.43967e-05
5.00242e-06
9.37088e-06
5.02584e-06
4.37696e-06
4.99393e-06
-4.9459e-07
4.87155e-06
-5.16264e-06
4.66805e-06
4.39221e-06
0.000929996
2.45918e-06
0.000926553
6.09908e-06
0.000922538
9.43205e-06
0.00091795
1.27233e-05
0.000912719
1.60463e-05
0.000906607
1.93863e-05
0.00089934
2.2698e-05
0.000890751
2.59232e-05
0.000880799
2.9028e-05
0.000869495
3.20241e-05
0.000856839
3.49192e-05
0.000842827
3.7687e-05
0.000827466
4.02819e-05
0.000810777
4.26569e-05
0.00079278
4.47692e-05
0.000773499
4.65777e-05
0.000752957
4.80435e-05
0.000731187
4.91337e-05
0.000708242
4.98249e-05
0.000684211
5.0107e-05
0.000659225
4.99836e-05
0.000633464
4.94696e-05
0.000607153
4.85918e-05
0.000580547
4.73858e-05
0.000553911
4.58963e-05
0.000527534
4.41774e-05
0.000501728
4.22758e-05
0.000476775
4.02067e-05
0.00045295
3.79472e-05
0.000430419
3.55194e-05
0.000409214
3.29703e-05
0.000389296
3.03516e-05
0.000370602
2.76915e-05
0.000353079
2.50057e-05
0.000336685
2.23157e-05
0.000321381
1.96567e-05
0.000307126
1.70613e-05
0.000293874
1.45718e-05
0.000281549
1.22277e-05
0.000270239
1.00616e-05
0.000259817
8.10085e-06
0.00025014
6.39505e-06
0.000241183
4.83766e-06
0.000232796
3.52169e-06
0.000224926
2.47468e-06
0.000217524
1.70377e-06
0.000210539
1.18486e-06
0.000203929
8.86335e-07
0.000197661
7.70795e-07
0.000191723
7.88826e-07
0.000186116
8.76644e-07
0.000180856
9.58348e-07
0.000175962
9.68749e-07
0.000171458
8.87957e-07
0.000167354
7.21676e-07
0.000163656
4.75884e-07
0.000160364
1.41677e-07
0.000157399
-2.21276e-07
0.000154746
-6.48505e-07
0.000152494
-1.1768e-06
0.000150618
-1.73164e-06
0.000149016
-2.13403e-06
0.000147618
-2.37798e-06
0.000146359
-2.45561e-06
0.000145193
-2.38209e-06
0.000144091
-2.18782e-06
0.000143048
-1.90742e-06
0.000142068
-1.56097e-06
0.000141138
-1.13743e-06
0.000140183
-5.74345e-07
0.000139078
1.82355e-07
0.000137743
1.06796e-06
0.000136011
2.219e-06
0.000133695
3.48017e-06
0.000130731
4.78381e-06
0.000127175
5.98391e-06
0.000123167
6.97805e-06
0.00011878
7.82529e-06
0.000114073
8.54169e-06
0.000109102
9.13775e-06
0.000103919
9.6209e-06
9.85796e-05
9.99433e-06
9.31434e-05
1.02569e-05
8.76758e-05
1.04034e-05
8.22506e-05
1.04276e-05
7.69525e-05
1.03239e-05
7.18666e-05
1.00799e-05
6.70538e-05
9.68432e-06
6.25836e-05
9.13831e-06
8.44673e-06
0.00107521
1.73279e-06
0.00107556
5.75031e-06
0.00107537
9.62623e-06
0.00107472
1.33731e-05
0.00107366
1.71042e-05
0.00107215
2.08975e-05
0.00107007
2.47762e-05
0.00106727
2.87194e-05
0.00106362
3.26828e-05
0.00105902
3.66223e-05
0.00105344
4.0499e-05
0.00104685
4.42754e-05
0.00103922
4.79149e-05
0.0010305
5.138e-05
0.00102064
5.46281e-05
0.0010096
5.76127e-05
0.00099736
6.0286e-05
0.000983891
6.26023e-05
0.000969195
6.45215e-05
0.000953292
6.60101e-05
0.00093623
6.70454e-05
0.000918085
6.76142e-05
0.000898964
6.77132e-05
0.000879001
6.73489e-05
0.000858358
6.65397e-05
0.000837227
6.53082e-05
0.000815842
6.36609e-05
0.000794412
6.16363e-05
0.000773079
5.92802e-05
0.00075198
5.66181e-05
0.000731264
5.36866e-05
0.000711084
5.05321e-05
0.00069157
4.72046e-05
0.000672829
4.37474e-05
0.000654956
4.01887e-05
0.000638036
3.65763e-05
0.000622126
3.29714e-05
0.000607269
2.94284e-05
0.000593498
2.59989e-05
0.000580825
2.2735e-05
0.000569252
1.96735e-05
0.000558801
1.68458e-05
0.00054937
1.42692e-05
0.000540968
1.1923e-05
0.000533553
9.89058e-06
0.000527053
8.20299e-06
0.000521412
6.82665e-06
0.000516555
5.74279e-06
0.000512404
4.92202e-06
0.000508861
4.33201e-06
0.000505793
3.94395e-06
0.000503031
3.72028e-06
0.000500379
3.62083e-06
0.00049765
3.61741e-06
0.000494685
3.68687e-06
0.000491346
3.81439e-06
0.000487492
3.99614e-06
0.000483041
4.22903e-06
0.000477891
4.50214e-06
0.000471887
4.82747e-06
0.000464826
5.32889e-06
0.000456785
5.90644e-06
0.000447875
6.53222e-06
0.000438194
7.22587e-06
0.000427858
7.95323e-06
0.000416991
8.67929e-06
0.000405716
9.368e-06
0.000394158
9.99652e-06
0.000382452
1.05693e-05
0.000370749
1.11283e-05
0.000359167
1.1764e-05
0.000347699
1.25368e-05
0.000336521
1.33971e-05
0.000325869
1.41317e-05
0.000316066
1.45865e-05
0.000307061
1.49888e-05
0.000298744
1.52959e-05
0.000291059
1.55099e-05
0.000283962
1.56391e-05
0.000277406
1.56938e-05
0.000271338
1.56886e-05
0.000265695
1.56368e-05
0.000260406
1.55459e-05
0.000255391
1.54185e-05
0.000250557
1.52622e-05
0.000245809
1.50713e-05
0.000241179
1.47099e-05
0.000236751
1.41123e-05
0.00023259
1.32998e-05
1.22905e-05
0.00112469
1.15184e-06
0.0011261
4.34218e-06
0.00112784
7.88624e-06
0.00112958
1.16331e-05
0.00113115
1.55312e-05
0.00113248
1.95674e-05
0.00113352
2.37355e-05
0.00113421
2.80263e-05
0.00113447
3.24211e-05
0.00113421
3.68872e-05
0.00113333
4.13787e-05
0.00113177
4.58388e-05
0.00112947
5.02157e-05
0.00112638
5.44682e-05
0.00112245
5.85523e-05
0.00111764
6.2423e-05
0.00111189
6.60349e-05
0.00110515
6.9342e-05
0.00109738
7.22998e-05
0.00108852
7.48655e-05
0.00107857
7.69982e-05
0.00106752
7.86603e-05
0.00105541
7.98217e-05
0.0010423
8.04639e-05
0.00102825
8.05868e-05
0.00101335
8.02089e-05
0.000997679
7.93317e-05
0.00098135
7.79653e-05
0.000964501
7.61293e-05
0.000947273
7.38465e-05
0.000929813
7.11465e-05
0.000912278
6.80672e-05
0.00089483
6.46524e-05
0.000877628
6.09493e-05
0.000860803
5.70142e-05
0.000844466
5.29133e-05
0.00082872
4.87175e-05
0.000813653
4.44952e-05
0.000799343
4.03092e-05
0.000785858
3.62195e-05
0.000773255
3.22763e-05
0.000761576
2.85253e-05
0.000750842
2.50028e-05
0.000741026
2.17394e-05
0.000732155
1.87609e-05
0.000724269
1.60892e-05
0.000717341
1.3755e-05
0.000711298
1.17857e-05
0.000706168
1.00518e-05
0.000701923
8.57672e-06
0.000698513
7.3548e-06
0.000695872
6.36037e-06
0.000693924
5.56891e-06
0.000692579
4.9624e-06
0.000691743
4.52371e-06
0.000691308
4.24865e-06
0.000691167
4.13749e-06
0.000691218
4.17794e-06
0.000691347
4.37314e-06
0.000691437
4.7374e-06
0.000691497
5.2689e-06
0.000691486
5.91756e-06
0.000691337
6.68129e-06
0.000690895
7.66799e-06
0.000690043
8.80518e-06
0.00068865
1.00724e-05
0.000686573
1.14449e-05
0.000683672
1.2898e-05
0.000679831
1.44102e-05
0.000674999
1.596e-05
0.000669229
1.75339e-05
0.000662652
1.91139e-05
0.000655393
2.0656e-05
0.000647376
2.21482e-05
0.000638384
2.35793e-05
0.00062859
2.47824e-05
0.000618127
2.57591e-05
0.000607116
2.65205e-05
0.000595691
2.70642e-05
0.000583993
2.73921e-05
0.000572167
2.75142e-05
0.000560361
2.74432e-05
0.000548717
2.71897e-05
0.000537378
2.67574e-05
0.000526503
2.61376e-05
0.000516269
2.53045e-05
0.000506765
2.42147e-05
0.000498011
2.28662e-05
0.000489974
2.13365e-05
1.964e-05
0.00111
-1.94338e-06
0.00111331
1.03041e-06
0.00111689
4.30776e-06
0.00112043
8.09144e-06
0.00112374
1.22213e-05
0.00112671
1.65908e-05
0.00112931
2.11441e-05
0.00113148
2.58496e-05
0.00113322
3.06846e-05
0.00113449
3.56194e-05
0.00113526
4.06074e-05
0.0011355
4.55923e-05
0.0011352
5.05185e-05
0.00113433
5.53348e-05
0.00113289
5.99927e-05
0.00113087
6.44442e-05
0.00112826
6.86438e-05
0.00112506
7.25488e-05
0.00112124
7.61206e-05
0.00111678
7.93259e-05
0.00111164
8.21316e-05
0.00110581
8.44972e-05
0.00109925
8.63809e-05
0.00109195
8.77643e-05
0.00108389
8.86454e-05
0.00107507
8.90255e-05
0.0010655
8.89031e-05
0.00105519
8.82704e-05
0.00104421
8.71157e-05
0.00103262
8.54392e-05
0.00102049
8.32687e-05
0.00100792
8.06437e-05
0.000994967
7.76028e-05
0.000981726
7.41902e-05
0.000968284
7.04555e-05
0.000954745
6.64531e-05
0.000941218
6.22438e-05
0.000927822
5.78917e-05
0.000914669
5.34616e-05
0.000901873
4.9016e-05
0.000889534
4.46157e-05
0.000877743
4.03161e-05
0.000866578
3.61675e-05
0.000856104
3.22131e-05
0.000846379
2.84861e-05
0.000837454
2.50148e-05
0.000829386
2.18227e-05
0.00082225
1.89214e-05
0.000815997
1.63047e-05
0.000810608
1.39663e-05
0.000806063
1.18997e-05
0.00080233
1.00928e-05
0.000799373
8.52641e-06
0.00079715
7.18532e-06
0.000795618
6.05567e-06
0.000794743
5.12343e-06
0.000794494
4.38654e-06
0.000794832
3.84012e-06
0.00079573
3.47546e-06
0.000797167
3.30006e-06
0.000799116
3.31975e-06
0.000801504
3.53016e-06
0.000804214
3.97105e-06
0.000807248
4.6336e-06
0.000810608
5.44531e-06
0.000814248
6.43263e-06
0.000818111
7.58177e-06
0.000822129
8.87943e-06
0.000826223
1.03167e-05
0.000830302
1.18813e-05
0.000834273
1.35628e-05
0.000838043
1.53433e-05
0.000841504
1.7195e-05
0.000844575
1.90777e-05
0.000847217
2.09367e-05
0.000849309
2.26903e-05
0.000850787
2.4282e-05
0.000851511
2.5796e-05
0.000851361
2.72139e-05
0.00085026
2.84933e-05
0.000848169
2.96051e-05
0.000845089
3.05231e-05
0.000841054
3.12249e-05
0.000836121
3.16902e-05
0.00083036
3.18986e-05
0.000823835
3.18304e-05
0.000816577
3.14726e-05
0.00080862
3.0823e-05
0.000800069
2.98873e-05
2.86726e-05
0.00114846
-7.60355e-06
0.00115356
-4.07478e-06
0.00115809
-2.18265e-07
0.00116204
4.13607e-06
0.00116535
8.91845e-06
0.00116792
1.40188e-05
0.0011697
1.93589e-05
0.00117066
2.48978e-05
0.00117073
3.06154e-05
0.00116987
3.64742e-05
0.00116807
4.24074e-05
0.00116532
4.8347e-05
0.00116161
5.42238e-05
0.00115698
5.99678e-05
0.00115146
6.55079e-05
0.00114513
7.07734e-05
0.00113808
7.56984e-05
0.0011304
8.0223e-05
0.00112223
8.4295e-05
0.00111368
8.78712e-05
0.0011049
9.09183e-05
0.00109598
9.34186e-05
0.00108699
9.53693e-05
0.00107798
9.67753e-05
0.00106898
9.76431e-05
0.00106002
9.79843e-05
0.00105111
9.78165e-05
0.00104222
9.71607e-05
0.0010333
9.60367e-05
0.00102428
9.44579e-05
0.00101511
9.24362e-05
0.00100576
8.99974e-05
0.000996185
8.71734e-05
0.000986378
8.39979e-05
0.000976329
8.05038e-05
0.000966056
7.67264e-05
0.000955593
7.27067e-05
0.000944992
6.8493e-05
0.000934315
6.41379e-05
0.000923636
5.96952e-05
0.000913032
5.52204e-05
0.000902578
5.077e-05
0.00089235
4.63946e-05
0.000882428
4.21355e-05
0.000872888
3.80257e-05
0.000863812
3.40916e-05
0.00085528
3.03539e-05
0.000847373
2.68287e-05
0.000840158
2.35195e-05
0.000833702
2.04221e-05
0.00082807
1.75321e-05
0.000823305
1.48582e-05
0.000819456
1.23751e-05
0.000816579
1.00624e-05
0.000814704
7.93055e-06
0.000813837
5.98991e-06
0.000813971
4.25315e-06
0.000815078
2.73287e-06
0.000817119
1.43422e-06
0.000820052
3.6779e-07
0.000823783
-4.12021e-07
0.000828248
-9.34902e-07
0.000833438
-1.21811e-06
0.000839324
-1.25321e-06
0.000845789
-1.0194e-06
0.000852736
-5.14098e-07
0.000860112
2.06012e-07
0.000867879
1.11199e-06
0.000875967
2.22866e-06
0.000884317
3.53176e-06
0.000892878
5.00134e-06
0.000901606
6.61523e-06
0.000910456
8.34504e-06
0.000919369
1.01648e-05
0.000928259
1.20473e-05
0.000936993
1.3956e-05
0.000945408
1.58666e-05
0.000953434
1.77701e-05
0.000961001
1.96469e-05
0.000968026
2.14683e-05
0.000974423
2.32085e-05
0.000980106
2.48402e-05
0.000984996
2.63349e-05
0.00098902
2.76655e-05
0.000992112
2.88069e-05
0.000994208
2.97349e-05
0.000995254
3.04264e-05
0.000995211
3.08655e-05
0.000994054
3.10444e-05
3.09593e-05
0.0012179
-1.36839e-05
0.00122371
-9.883e-06
0.00122921
-5.7152e-06
0.00123456
-1.21718e-06
0.00123943
4.0479e-06
0.0012438
9.64763e-06
0.00124746
1.56977e-05
0.0012502
2.21563e-05
0.00125189
2.89338e-05
0.00125239
3.5969e-05
0.0012516
4.31999e-05
0.00124939
5.05525e-05
0.00124567
5.79446e-05
0.00124035
6.52863e-05
0.00123338
7.248e-05
0.00122473
7.94241e-05
0.00121441
8.6016e-05
0.00120248
9.21543e-05
0.00118904
9.7741e-05
0.00117423
0.000102683
0.00115825
0.000106894
0.00114135
0.000110314
0.0011238
0.000112924
0.00110585
0.000114729
0.00108776
0.000115729
0.0010698
0.000115948
0.00105219
0.000115426
0.00103513
0.000114217
0.00101878
0.000112382
0.00100325
0.000109992
0.000988564
0.000107123
0.000974721
0.000103841
0.00096168
0.000100214
0.000949367
9.63107e-05
0.000937683
9.21881e-05
0.000926514
8.78946e-05
0.000915751
8.34699e-05
0.000905297
7.89468e-05
0.000895083
7.43527e-05
0.000885066
6.97115e-05
0.000875242
6.50448e-05
0.000865638
6.03736e-05
0.000856314
5.57191e-05
0.000847349
5.11006e-05
0.000838837
4.65375e-05
0.000830882
4.20471e-05
0.000823593
3.7642e-05
0.000817087
3.33354e-05
0.000811467
2.9139e-05
0.000806828
2.50609e-05
0.000803249
2.11111e-05
0.000800802
1.73057e-05
0.000799516
1.3661e-05
0.000799387
1.0191e-05
0.000800404
6.91407e-06
0.00080253
3.8633e-06
0.000805713
1.07013e-06
0.000809851
-1.40463e-06
0.000814875
-3.59025e-06
0.00082069
-5.44715e-06
0.00082725
-6.97174e-06
0.00083448
-8.16458e-06
0.000842291
-9.02942e-06
0.000850602
-9.56429e-06
0.000859361
-9.77798e-06
0.000868534
-9.68785e-06
0.000878057
-9.31644e-06
0.000887856
-8.68717e-06
0.000897914
-7.82877e-06
0.000908206
-6.76049e-06
0.000918712
-5.50452e-06
0.000929402
-4.07563e-06
0.000940243
-2.49527e-06
0.000951192
-7.843e-07
0.000962174
1.06523e-06
0.000973122
3.00775e-06
0.000983966
5.0228e-06
0.000994644
7.0924e-06
0.00100509
9.2042e-06
0.00101521
1.13415e-05
0.00102493
1.34907e-05
0.00103415
1.56191e-05
0.00104278
1.77072e-05
0.00105071
1.97323e-05
0.00105785
2.16709e-05
0.00106409
2.34979e-05
0.00106933
2.51845e-05
0.00107349
2.67046e-05
0.0010765
2.80356e-05
2.91571e-05
0.00116917
-2.04057e-05
0.00117672
-1.74293e-05
0.00118472
-1.37128e-05
0.0011929
-9.39925e-06
0.00120151
-4.5626e-06
0.00121033
8.25011e-07
0.00121906
6.96688e-06
0.00122763
1.35914e-05
0.0012358
2.07606e-05
0.00124334
2.84247e-05
0.00125004
3.65041e-05
0.00125567
4.49247e-05
0.00126001
5.36072e-05
0.00126284
6.24533e-05
0.00126397
7.13525e-05
0.0012632
8.01875e-05
0.00126038
8.88349e-05
0.00125537
9.71642e-05
0.00124807
0.000105041
0.00123842
0.000112331
0.00122641
0.000118907
0.00121207
0.000124655
0.00119551
0.000129482
0.00117693
0.000133306
0.0011566
0.00013606
0.00113485
0.000137705
0.00111204
0.000138236
0.00108857
0.000137684
0.00106484
0.000136117
0.0010412
0.000133625
0.00101801
0.000130315
0.000995545
0.000126306
0.000974039
0.000121721
0.00095367
0.000116679
0.000934562
0.000111296
0.000916788
0.000105669
0.000900376
9.98821e-05
0.000885321
9.40022e-05
0.000871592
8.80814e-05
0.000859143
8.21608e-05
0.000847916
7.6271e-05
0.000837856
7.04339e-05
0.000828912
6.46631e-05
0.000821049
5.89641e-05
0.000814251
5.33355e-05
0.000808525
4.77731e-05
0.000803893
4.22736e-05
0.000800394
3.68341e-05
0.000798072
3.14612e-05
0.00079696
2.61731e-05
0.000797079
2.09926e-05
0.000798431
1.59534e-05
0.000800991
1.11011e-05
0.000804697
6.48467e-06
0.000809471
2.14055e-06
0.000815141
-1.80744e-06
0.000821588
-5.37603e-06
0.000828693
-8.50972e-06
0.000836308
-1.12058e-05
0.00084433
-1.34692e-05
0.000852668
-1.53098e-05
0.000861246
-1.67419e-05
0.000870004
-1.77879e-05
0.000878921
-1.84808e-05
0.000887998
-1.88549e-05
0.000897252
-1.8942e-05
0.000906708
-1.87725e-05
0.000916394
-1.83731e-05
0.00092633
-1.77651e-05
0.000936536
-1.69664e-05
0.000947021
-1.59901e-05
0.000957792
-1.48458e-05
0.000968837
-1.35406e-05
0.000980133
-1.20805e-05
0.000991668
-1.04699e-05
0.00100339
-8.71599e-06
0.00101524
-6.8247e-06
0.00102713
-4.79875e-06
0.00103898
-2.64644e-06
0.0010507
-3.80955e-07
0.00106205
2.13974e-06
0.00107298
4.69632e-06
0.00108335
7.33094e-06
0.00109306
1.00269e-05
0.00110197
1.27579e-05
0.00110997
1.55013e-05
0.00111694
1.82121e-05
0.00112279
2.08571e-05
0.00112742
2.34029e-05
2.58171e-05
0.000969998
-2.92527e-05
0.000980287
-2.77189e-05
0.000991912
-2.53373e-05
0.00100469
-2.21774e-05
0.00101837
-1.82388e-05
0.00103271
-1.35189e-05
0.00104772
-8.04595e-06
0.00106316
-1.84249e-06
0.00107891
5.01226e-06
0.00109471
1.26198e-05
0.00111034
2.08789e-05
0.00112554
2.97174e-05
0.00114009
3.90631e-05
0.00115372
4.8819e-05
0.00116619
5.88815e-05
0.00117725
6.91339e-05
0.00118663
7.94505e-05
0.0011941
8.96953e-05
0.00119942
9.97218e-05
0.00120237
0.000109376
0.00120278
0.000118498
0.00120051
0.00012693
0.00119547
0.000134515
0.00118767
0.00014111
0.00117714
0.000146586
0.00116401
0.000150836
0.00114846
0.000153787
0.00113075
0.000155397
0.00111121
0.000155661
0.00109022
0.00015461
0.00106823
0.000152304
0.0010457
0.000148841
0.00102306
0.000144355
0.00100074
0.000139005
0.000979075
0.000132957
0.000958372
0.000126372
0.000938847
0.000119407
0.000920648
0.000112201
0.000903859
0.00010487
0.000888524
9.74966e-05
0.000874663
9.01312e-05
0.000862304
8.27938e-05
0.000851482
7.54848e-05
0.000842248
6.81982e-05
0.000834659
6.09239e-05
0.00082877
5.3662e-05
0.000824603
4.64414e-05
0.000822128
3.93084e-05
0.00082126
3.23292e-05
0.000821852
2.55819e-05
0.000823694
1.91501e-05
0.000826539
1.31085e-05
0.000830135
7.50549e-06
0.000834238
2.38165e-06
0.000838806
-2.42746e-06
0.000843747
-6.74921e-06
0.000848851
-1.04797e-05
0.00085395
-1.36086e-05
0.000858915
-1.61707e-05
0.000863701
-1.82551e-05
0.000868323
-1.99318e-05
0.000872817
-2.1236e-05
0.00087724
-2.22114e-05
0.000881665
-2.29057e-05
0.000886187
-2.33769e-05
0.000890927
-2.36816e-05
0.000896023
-2.38683e-05
0.000901619
-2.39695e-05
0.000907855
-2.40007e-05
0.00091485
-2.39615e-05
0.000922699
-2.38388e-05
0.000931464
-2.36108e-05
0.000941173
-2.32502e-05
0.000951821
-2.27284e-05
0.000963368
-2.20165e-05
0.00097574
-2.10886e-05
0.000988839
-1.99236e-05
0.00100255
-1.85062e-05
0.00101673
-1.68265e-05
0.00103122
-1.4875e-05
0.001046
-1.26398e-05
0.00106083
-1.01355e-05
0.00107553
-7.37028e-06
0.00108992
-4.36478e-06
0.00110384
-1.15297e-06
0.00111692
2.41445e-06
0.00112905
6.08793e-06
0.00114004
9.86635e-06
0.00114973
1.37097e-05
1.75685e-05
0.000707668
-4.17817e-05
0.000721621
-4.16718e-05
0.000736985
-4.0701e-05
0.000753627
-3.88191e-05
0.000771422
-3.60341e-05
0.000790252
-3.23487e-05
0.000809964
-2.77578e-05
0.000830389
-2.22684e-05
0.0008513
-1.58983e-05
0.000872583
-8.6636e-06
0.00089406
-5.9767e-07
0.000915675
8.10241e-06
0.000937131
1.76074e-05
0.000958232
2.77173e-05
0.00097878
3.83336e-05
0.000998562
4.93521e-05
0.00101735
6.06629e-05
0.0010349
7.21404e-05
0.00105098
8.36432e-05
0.00106534
9.50165e-05
0.00107775
0.000106095
0.00108797
0.000116703
0.00109583
0.000126663
0.00110114
0.0001358
0.00110378
0.00014394
0.0011037
0.000150919
0.0011009
0.00015659
0.00109546
0.000160836
0.00108753
0.000163592
0.00107728
0.000164856
0.00106492
0.000164662
0.0010507
0.000163062
0.00103492
0.000160139
0.00101792
0.000155998
0.00100012
0.00015076
0.000981936
0.000144558
0.000963811
0.000137532
0.00094619
0.000129821
0.000929496
0.000121564
0.000914105
0.000112888
0.000900322
0.000103914
0.000888355
9.4761e-05
0.000878292
8.55478e-05
0.000870087
7.64032e-05
0.000863548
6.74624e-05
0.000858374
5.88365e-05
0.000854228
5.0587e-05
0.000850805
4.27313e-05
0.000847891
3.52429e-05
0.000845389
2.8084e-05
0.000843276
2.12629e-05
0.00084155
1.48347e-05
0.000840184
8.87218e-06
0.000839076
3.48947e-06
0.000837879
-1.23084e-06
0.000836197
-5.06665e-06
0.00083364
-7.92362e-06
0.000829903
-9.871e-06
0.000824867
-1.11349e-05
0.000818622
-1.20104e-05
0.000811449
-1.27589e-05
0.000803774
-1.35606e-05
0.000796081
-1.45188e-05
0.000788856
-1.56797e-05
0.000782534
-1.70556e-05
0.000777497
-1.86448e-05
0.000774056
-2.04266e-05
0.000772443
-2.23571e-05
0.00077282
-2.43771e-05
0.000775276
-2.6418e-05
0.000779845
-2.84077e-05
0.000786509
-3.02746e-05
0.00079521
-3.19516e-05
0.00080586
-3.3378e-05
0.000818343
-3.44997e-05
0.000832525
-3.52702e-05
0.000848251
-3.565e-05
0.000865351
-3.56063e-05
0.000883637
-3.5112e-05
0.000902906
-3.41439e-05
0.000922952
-3.26856e-05
0.000943549
-3.07333e-05
0.000964467
-2.82879e-05
0.00098546
-2.53572e-05
0.00100626
-2.1958e-05
0.0010268
-1.81234e-05
0.0010468
-1.39135e-05
0.00106605
-9.37926e-06
0.00108433
-4.56845e-06
5.33893e-07
0.000450936
-5.71663e-05
0.00046776
-5.84954e-05
0.000485919
-5.88595e-05
0.000505305
-5.82059e-05
0.000525787
-5.65157e-05
0.000547208
-5.377e-05
0.000569419
-4.99688e-05
0.000592274
-4.51235e-05
0.000615649
-3.92734e-05
0.000639443
-3.24569e-05
0.000663581
-2.4736e-05
0.000687854
-1.61702e-05
0.000712303
-6.84196e-06
0.000736685
3.33553e-06
0.00076087
1.41488e-05
0.000784742
2.54801e-05
0.000808159
3.72456e-05
0.000830955
4.93442e-05
0.000852946
6.16519e-05
0.000873936
7.40265e-05
0.000893718
8.63129e-05
0.000912077
9.83434e-05
0.000928802
0.000109939
0.00094369
0.000120912
0.000956555
0.000131075
0.00096723
0.000140243
0.000975576
0.000148244
0.000981484
0.000154928
0.000984908
0.000160168
0.000985902
0.000163862
0.000984631
0.000165932
0.000981347
0.000166346
0.000976353
0.000165134
0.000969951
0.000162399
0.000962444
0.000158268
0.000954121
0.00015288
0.000945242
0.000146411
0.000936005
0.000139058
0.000926526
0.000131043
0.000916827
0.000122588
0.000906858
0.000113883
0.000896545
0.000105073
0.000885854
9.62393e-05
0.000874847
8.74096e-05
0.000863727
7.85829e-05
0.000852874
6.96897e-05
0.000842769
6.06917e-05
0.000833729
5.17719e-05
0.000825756
4.32158e-05
0.000818473
3.53668e-05
0.000811052
2.86837e-05
0.000802397
2.34898e-05
0.000791494
1.97747e-05
0.000777685
1.72991e-05
0.000760711
1.57431e-05
0.000740844
1.47999e-05
0.000718737
1.4184e-05
0.00069526
1.36059e-05
0.000671356
1.27691e-05
0.000647939
1.14063e-05
0.000625843
9.33694e-06
0.000605781
6.50163e-06
0.000588311
2.95091e-06
0.000573905
-1.27313e-06
0.000562792
-5.94266e-06
0.000555021
-1.08734e-05
0.000550539
-1.59451e-05
0.000549216
-2.10339e-05
0.00055087
-2.60315e-05
0.000555298
-3.08462e-05
0.000562292
-3.54017e-05
0.000571652
-3.96343e-05
0.000583192
-4.34913e-05
0.000596742
-4.69281e-05
0.000612148
-4.99062e-05
0.00062927
-5.23915e-05
0.000647973
-5.43535e-05
0.000668129
-5.57624e-05
0.000689608
-5.65906e-05
0.000712277
-5.68127e-05
0.000735996
-5.64049e-05
0.000760611
-5.53479e-05
0.000785951
-5.36279e-05
0.000811832
-5.12388e-05
0.000838057
-4.8183e-05
0.000864411
-4.44774e-05
0.000890654
-4.01562e-05
0.000916539
-3.52644e-05
0.000941827
-2.98559e-05
-2.39923e-05
0.000197068
-7.3469e-05
0.000214904
-7.63318e-05
0.000234244
-7.81993e-05
0.000254948
-7.89101e-05
0.00027692
-7.84882e-05
0.000300008
-7.68581e-05
0.000324056
-7.40168e-05
0.000348897
-6.99636e-05
0.000374363
-6.47397e-05
0.000400294
-5.83875e-05
0.000426516
-5.09589e-05
0.000452871
-4.25244e-05
0.000479191
-3.31627e-05
0.000505493
-2.29657e-05
0.000531691
-1.20493e-05
0.000557697
-5.26237e-07
0.000583459
1.14842e-05
0.000608874
2.39285e-05
0.00063386
3.66661e-05
0.000658322
4.95648e-05
0.000682132
6.25029e-05
0.000705147
7.53278e-05
0.000727218
8.78683e-05
0.000748181
9.99483e-05
0.00076787
0.000111387
0.000786112
0.000122001
0.000802742
0.000131614
0.000817608
0.000140062
0.000830573
0.000147203
0.000841513
0.000152923
0.000850297
0.000157149
0.000856797
0.000159846
0.000860913
0.000161018
0.000862611
0.000160701
0.000861921
0.000158958
0.000858925
0.000155876
0.000853776
0.00015156
0.000846715
0.000146119
0.000838098
0.000139661
0.000828402
0.000132284
0.00081821
0.000124075
0.000808164
0.000115119
0.000798871
0.000105533
0.000790715
9.55659e-05
0.000783586
8.57112e-05
0.000776755
7.65213e-05
0.000768943
6.85029e-05
0.000758646
6.20697e-05
0.000744435
5.74263e-05
0.000725251
5.45506e-05
0.000700658
5.3277e-05
0.000670786
5.33616e-05
0.000636368
5.41925e-05
0.000598937
5.47307e-05
0.000560255
5.44253e-05
0.000522129
5.29259e-05
0.000486237
5.0076e-05
0.000453932
4.59107e-05
0.00042611
4.05904e-05
0.00040319
3.43263e-05
0.000385196
2.73316e-05
0.000371897
1.98004e-05
0.000362952
1.18961e-05
0.000357931
3.74796e-06
0.000356092
-4.1035e-06
0.000357055
-1.18364e-05
0.00036051
-1.9401e-05
0.000366155
-2.66786e-05
0.000373717
-3.35933e-05
0.000382963
-4.0092e-05
0.0003937
-4.61391e-05
0.000405778
-5.17118e-05
0.000419083
-5.6797e-05
0.000433541
-6.13863e-05
0.000449109
-6.54739e-05
0.000465769
-6.90518e-05
0.000483522
-7.21065e-05
0.00050238
-7.46198e-05
0.000522356
-7.65669e-05
0.000543456
-7.7913e-05
0.000565672
-7.86205e-05
0.000588978
-7.86536e-05
0.000613322
-7.79722e-05
0.00063862
-7.65366e-05
0.000664757
-7.43209e-05
0.000691595
-7.1315e-05
0.000718959
-6.75206e-05
0.000746649
-6.29537e-05
0.000774444
-5.76509e-05
-5.16769e-05
-6.23661e-05
-8.82367e-05
-4.53109e-05
-9.33869e-05
-2.64151e-05
-9.70951e-05
-5.58148e-06
-9.97437e-05
1.70091e-05
-0.000101079
4.11723e-05
-0.000101021
6.67298e-05
-9.95743e-05
9.34529e-05
-9.66868e-05
0.000121115
-9.24022e-05
0.000149477
-8.67496e-05
0.000178322
-7.98033e-05
0.000207432
-7.16346e-05
0.000236607
-6.23374e-05
0.000265661
-5.20195e-05
0.000294467
-4.08556e-05
0.000322877
-2.89368e-05
0.000350761
-1.63995e-05
0.000378077
-3.38784e-06
0.000404693
1.00504e-05
0.000430661
2.35964e-05
0.000455902
3.72624e-05
0.000480374
5.08561e-05
0.000504032
6.42099e-05
0.000526808
7.71723e-05
0.000548607
8.95876e-05
0.000569312
0.000101296
0.00058879
0.000112136
0.000606899
0.000121954
0.000623498
0.000130604
0.000638465
0.000137955
0.000651717
0.000143897
0.000663222
0.00014834
0.000673016
0.000151224
0.000681202
0.000152515
0.000687959
0.000152201
0.000693534
0.000150302
0.000698217
0.000146877
0.000702255
0.00014208
0.000705705
0.000136211
0.000708349
0.00012964
0.000709676
0.000122747
0.000708814
0.000115981
0.000704526
0.000109821
0.000695345
0.000104747
0.000679919
0.000101138
0.00065739
9.90498e-05
0.000627603
9.82898e-05
0.000591126
9.8547e-05
0.000549302
9.92505e-05
0.000504158
9.96944e-05
0.000458192
9.9243e-05
0.00041407
9.74836e-05
0.000374025
9.42373e-05
0.000339286
8.94699e-05
0.000310444
8.32668e-05
0.000287582
7.57883e-05
0.000270423
6.72352e-05
0.000258501
5.78326e-05
0.00025128
4.7811e-05
0.000248214
3.73927e-05
0.000248761
2.67848e-05
0.0002524
1.61615e-05
0.000258678
5.6173e-06
0.000266653
-4.22709e-06
0.000276107
-1.35572e-05
0.000286746
-2.24754e-05
0.000298199
-3.08538e-05
0.000310152
-3.86317e-05
0.00032234
-4.57816e-05
0.000334551
-5.23023e-05
0.000346625
-5.82132e-05
0.000358463
-6.35501e-05
0.000370026
-6.83601e-05
0.000381335
-7.26956e-05
0.00039247
-7.66081e-05
0.00040356
-8.01418e-05
0.000414781
-8.33281e-05
0.000426341
-8.61792e-05
0.000438462
-8.86881e-05
0.000451374
-9.08251e-05
0.000465295
-9.25419e-05
0.000480411
-9.37691e-05
0.000496864
-9.44252e-05
0.000514742
-9.44144e-05
0.000534076
-9.36555e-05
0.000554828
-9.20663e-05
0.000576905
-8.95977e-05
0.00060018
-8.62292e-05
0.000624483
-8.19532e-05
-7.67975e-05
-0.00028839
-9.95404e-05
-0.000275177
-0.0001066
-0.000259672
-0.0001126
-0.000242073
-0.000117343
-0.00022233
-0.000120822
-0.000200543
-0.000122808
-0.00017682
-0.000123298
-0.000151332
-0.000122174
-0.000124262
-0.000119472
-9.58316e-05
-0.00011518
-6.62689e-05
-0.000109366
-3.58153e-05
-0.000102088
-4.70379e-06
-9.3449e-05
2.68473e-05
-8.35706e-05
5.85408e-05
-7.25491e-05
9.01688e-05
-6.05648e-05
0.000121548
-4.77785e-05
0.000152522
-3.43624e-05
0.000183075
-2.05024e-05
0.000213131
-6.45991e-06
0.000242216
8.17766e-06
0.00027032
2.27524e-05
0.000297506
3.70243e-05
0.000323805
5.08732e-05
0.000349243
6.41497e-05
0.000373817
7.67214e-05
0.000397508
8.84452e-05
0.000420281
9.91813e-05
0.000442084
0.0001088
0.00046285
0.000117189
0.000482485
0.000124262
0.00050086
0.000129965
0.000517794
0.000134291
0.000533022
0.000137286
0.000546169
0.000139054
0.000556705
0.000139766
0.000563933
0.00013965
0.000567031
0.000138982
0.000565175
0.000138067
0.000557622
0.000137192
0.000543773
0.000136597
0.000523326
0.000136428
0.000496446
0.000136701
0.000463929
0.000137263
0.000427263
0.000137804
0.000388396
0.000137916
0.000349496
0.00013719
0.000312736
0.000135308
0.000279924
0.000132062
0.00025228
0.000127339
0.000230416
0.000121107
0.000214478
0.000113421
0.000204315
0.000104401
0.000199565