/*--------------------------------*- C++ -*----------------------------------*\
| =========                 |                                                 |
| \\      /  F ield         | OpenFOAM: The Open Source CFD Toolbox           |
|  \\    /   O peration     | Version:  2312                                  |
|   \\  /    A nd           | Website:  www.openfoam.com                      |
|    \\/     M anipulation  |                                                 |
\*---------------------------------------------------------------------------*/
FoamFile
{
    version     2.0;
    format      ascii;
    arch        "LSB;label=32;scalar=64";
    class       volVectorField;
    location    "150000";
    object      U;
}
// * * * * * * * * * * * * * * * * * * * * * * * * * * * * * * * * * * * * * //

dimensions      [0 1 -1 0 0 0 0];

internalField   nonuniform List<vector> 
2685
(
(0.000819852 -2.59961e-05 0)
(0.000840351 -1.24596e-05 0)
(0.00083146 -4.11646e-06 0)
(0.000814731 3.60308e-06 0)
(0.00079714 1.11291e-05 0)
(0.000778897 1.78713e-05 0)
(0.000758494 2.34617e-05 0)
(0.000734844 2.79729e-05 0)
(0.000707744 3.16892e-05 0)
(0.000677617 3.48481e-05 0)
(0.000645025 3.7529e-05 0)
(0.000610344 3.96919e-05 0)
(0.000573779 4.1243e-05 0)
(0.000535512 4.20766e-05 0)
(0.000495815 4.2089e-05 0)
(0.000455083 4.11877e-05 0)
(0.000413798 3.93174e-05 0)
(0.00037248 3.64956e-05 0)
(0.000331661 3.28404e-05 0)
(0.000291846 2.85762e-05 0)
(0.000253485 2.40132e-05 0)
(0.00021694 1.94985e-05 0)
(0.000182466 1.5357e-05 0)
(0.000150214 1.18436e-05 0)
(0.000120248 9.10972e-06 0)
(9.25161e-05 7.1926e-06 0)
(6.68318e-05 6.02099e-06 0)
(4.30131e-05 5.37998e-06 0)
(2.09511e-05 4.85358e-06 0)
(6.0747e-07 3.95334e-06 0)
(-1.80181e-05 2.34202e-06 0)
(-3.47539e-05 -3.83711e-08 0)
(-4.93483e-05 -3.07511e-06 0)
(-6.16724e-05 -6.5439e-06 0)
(-7.16604e-05 -1.01988e-05 0)
(-7.92986e-05 -1.38212e-05 0)
(-8.45813e-05 -1.72498e-05 0)
(-8.75745e-05 -2.04052e-05 0)
(-8.84498e-05 -2.32399e-05 0)
(-8.74123e-05 -2.57156e-05 0)
(-8.46909e-05 -2.77749e-05 0)
(-8.04426e-05 -2.94447e-05 0)
(-7.48305e-05 -3.0741e-05 0)
(-6.8024e-05 -3.1619e-05 0)
(-6.02808e-05 -3.20491e-05 0)
(-5.19226e-05 -3.19798e-05 0)
(-4.32701e-05 -3.13659e-05 0)
(-3.46042e-05 -3.01757e-05 0)
(-2.61705e-05 -2.8397e-05 0)
(-1.81717e-05 -2.60472e-05 0)
(-1.076e-05 -2.31827e-05 0)
(-3.98978e-06 -1.98963e-05 0)
(2.13905e-06 -1.63251e-05 0)
(7.74161e-06 -1.26096e-05 0)
(1.29702e-05 -8.93458e-06 0)
(1.79083e-05 -5.47318e-06 0)
(2.26795e-05 -2.3778e-06 0)
(2.74299e-05 2.44324e-07 0)
(3.22953e-05 2.32266e-06 0)
(3.73533e-05 3.84131e-06 0)
(4.26497e-05 4.85611e-06 0)
(4.81792e-05 5.42409e-06 0)
(5.38351e-05 5.58988e-06 0)
(5.94719e-05 5.39433e-06 0)
(6.49353e-05 4.87719e-06 0)
(7.00789e-05 4.0841e-06 0)
(7.4773e-05 3.07486e-06 0)
(7.89052e-05 1.93036e-06 0)
(8.2374e-05 7.55473e-07 0)
(8.50804e-05 -3.27041e-07 0)
(8.69237e-05 -1.20201e-06 0)
(8.78132e-05 -1.78281e-06 0)
(8.7637e-05 -2.00135e-06 0)
(8.63836e-05 -1.82534e-06 0)
(8.41246e-05 -1.31628e-06 0)
(8.09167e-05 -5.62717e-07 0)
(7.6845e-05 3.55744e-07 0)
(7.20172e-05 1.39216e-06 0)
(6.65437e-05 2.5015e-06 0)
(6.05253e-05 3.63805e-06 0)
(5.40559e-05 4.75568e-06 0)
(4.72219e-05 5.80829e-06 0)
(4.01051e-05 6.7513e-06 0)
(3.27775e-05 7.54417e-06 0)
(2.53062e-05 8.15859e-06 0)
(1.77733e-05 8.57782e-06 0)
(1.02435e-05 8.79612e-06 0)
(2.80753e-06 8.83414e-06 0)
(-4.38058e-06 8.70483e-06 0)
(-1.11892e-05 8.41479e-06 0)
(0.00139337 1.57621e-05 0)
(0.00138651 2.74394e-05 0)
(0.00138272 3.69451e-05 0)
(0.00137882 4.65713e-05 0)
(0.00137322 5.63588e-05 0)
(0.00136538 6.59066e-05 0)
(0.00135533 7.4961e-05 0)
(0.00134328 8.34861e-05 0)
(0.00132927 9.15722e-05 0)
(0.00131329 9.93097e-05 0)
(0.00129529 0.000106707 0)
(0.00127525 0.000113698 0)
(0.00125319 0.000120175 0)
(0.00122912 0.000126012 0)
(0.00120306 0.000131069 0)
(0.00117504 0.000135192 0)
(0.00114512 0.000138225 0)
(0.00111336 0.000140032 0)
(0.00107982 0.00014051 0)
(0.00104459 0.00013961 0)
(0.00100784 0.000137344 0)
(0.000969765 0.000133785 0)
(0.000930671 0.000129065 0)
(0.000890916 0.000123361 0)
(0.000850903 0.00011689 0)
(0.000811038 0.000109896 0)
(0.000771738 0.000102585 0)
(0.000733414 9.516e-05 0)
(0.000696541 8.78008e-05 0)
(0.000661553 8.06388e-05 0)
(0.000628719 7.37203e-05 0)
(0.000598 6.69965e-05 0)
(0.000569256 6.04103e-05 0)
(0.00054231 5.38925e-05 0)
(0.000517063 4.73864e-05 0)
(0.000493426 4.09111e-05 0)
(0.000471286 3.4492e-05 0)
(0.000450784 2.8272e-05 0)
(0.000431625 2.23824e-05 0)
(0.000413796 1.68472e-05 0)
(0.000397522 1.17384e-05 0)
(0.000382514 7.11309e-06 0)
(0.000368633 3.10442e-06 0)
(0.000355651 -1.7834e-07 0)
(0.000343415 -2.68334e-06 0)
(0.000331903 -4.39157e-06 0)
(0.00032105 -5.40087e-06 0)
(0.000310788 -5.8979e-06 0)
(0.000301062 -6.06006e-06 0)
(0.000291834 -6.05817e-06 0)
(0.000283115 -6.15164e-06 0)
(0.000274937 -6.65828e-06 0)
(0.000267318 -7.80276e-06 0)
(0.000260271 -9.5743e-06 0)
(0.000253816 -1.18201e-05 0)
(0.00024798 -1.43603e-05 0)
(0.000242777 -1.71459e-05 0)
(0.000238162 -2.02255e-05 0)
(0.000233998 -2.35193e-05 0)
(0.000230378 -2.6677e-05 0)
(0.000227323 -2.92398e-05 0)
(0.000224731 -3.09155e-05 0)
(0.000222487 -3.15474e-05 0)
(0.000220496 -3.10831e-05 0)
(0.000218678 -2.95627e-05 0)
(0.00021698 -2.70924e-05 0)
(0.000215379 -2.3815e-05 0)
(0.000213874 -1.98812e-05 0)
(0.000212456 -1.54322e-05 0)
(0.000211054 -1.0593e-05 0)
(0.000209523 -5.47939e-06 0)
(0.000207692 -2.42722e-07 0)
(0.000205388 4.86331e-06 0)
(0.000202348 9.58999e-06 0)
(0.000198365 1.37254e-05 0)
(0.000193454 1.72136e-05 0)
(0.000187757 2.00424e-05 0)
(0.000181438 2.22289e-05 0)
(0.000174597 2.38301e-05 0)
(0.000167318 2.49233e-05 0)
(0.000159681 2.55921e-05 0)
(0.000151767 2.59159e-05 0)
(0.000143664 2.59605e-05 0)
(0.000135465 2.57707e-05 0)
(0.000127275 2.53718e-05 0)
(0.000119216 2.47632e-05 0)
(0.000111418 2.39092e-05 0)
(0.000103989 2.2797e-05 0)
(9.70264e-05 2.14302e-05 0)
(9.06393e-05 1.98126e-05 0)
(0.00161045 3.33615e-06 0)
(0.00160821 1.561e-05 0)
(0.00160907 2.77443e-05 0)
(0.00161042 3.95844e-05 0)
(0.00161089 5.13309e-05 0)
(0.00161 6.31658e-05 0)
(0.00160763 7.51504e-05 0)
(0.00160383 8.72235e-05 0)
(0.00159872 9.92643e-05 0)
(0.00159234 0.000111153 0)
(0.00158463 0.000122779 0)
(0.00157551 0.000134022 0)
(0.00156488 0.000144737 0)
(0.00155265 0.000154776 0)
(0.00153876 0.000163982 0)
(0.0015231 0.000172197 0)
(0.00150565 0.000179264 0)
(0.00148635 0.000185048 0)
(0.00146522 0.000189446 0)
(0.00144226 0.000192396 0)
(0.00141752 0.000193879 0)
(0.00139109 0.000193909 0)
(0.00136311 0.00019254 0)
(0.00133374 0.000189849 0)
(0.00130321 0.000185931 0)
(0.00127179 0.000180902 0)
(0.00123976 0.000174877 0)
(0.00120747 0.000167951 0)
(0.00117527 0.000160208 0)
(0.00114342 0.00015172 0)
(0.00111209 0.000142527 0)
(0.00108144 0.000132697 0)
(0.0010517 0.00012232 0)
(0.00102305 0.00011154 0)
(0.000995601 0.000100567 0)
(0.000969531 8.9622e-05 0)
(0.000944932 7.89182e-05 0)
(0.00092189 6.86197e-05 0)
(0.000900457 5.88725e-05 0)
(0.000880621 4.98361e-05 0)
(0.00086247 4.15919e-05 0)
(0.000845921 3.42145e-05 0)
(0.000830973 2.77856e-05 0)
(0.000817604 2.23579e-05 0)
(0.000805756 1.79963e-05 0)
(0.000795338 1.46901e-05 0)
(0.00078621 1.2355e-05 0)
(0.000778258 1.09379e-05 0)
(0.000771416 1.03386e-05 0)
(0.000765608 1.03959e-05 0)
(0.000760676 1.09762e-05 0)
(0.000756375 1.19428e-05 0)
(0.00075243 1.31268e-05 0)
(0.000748537 1.44085e-05 0)
(0.000744359 1.56762e-05 0)
(0.000739658 1.6798e-05 0)
(0.00073432 1.77217e-05 0)
(0.000728277 1.84313e-05 0)
(0.000721225 1.88116e-05 0)
(0.000712922 1.87801e-05 0)
(0.000703114 1.84155e-05 0)
(0.000691738 1.78763e-05 0)
(0.000678939 1.72465e-05 0)
(0.000664893 1.65202e-05 0)
(0.000649776 1.56295e-05 0)
(0.000633785 1.44808e-05 0)
(0.000617104 1.29949e-05 0)
(0.000599916 1.11935e-05 0)
(0.000582407 9.27674e-06 0)
(0.000564779 7.70694e-06 0)
(0.000547234 7.20418e-06 0)
(0.000529831 8.34815e-06 0)
(0.00051273 1.1017e-05 0)
(0.000496299 1.44677e-05 0)
(0.00048094 1.79629e-05 0)
(0.000466881 2.12019e-05 0)
(0.000453953 2.42513e-05 0)
(0.000441993 2.71674e-05 0)
(0.00043094 2.99459e-05 0)
(0.000420729 3.25629e-05 0)
(0.000411287 3.49775e-05 0)
(0.000402527 3.71262e-05 0)
(0.000394348 3.89283e-05 0)
(0.000386638 4.02954e-05 0)
(0.000379264 4.11362e-05 0)
(0.000372083 4.13604e-05 0)
(0.000365057 4.08954e-05 0)
(0.000358268 3.96994e-05 0)
(0.000351835 3.77881e-05 0)
(0.000345848 3.52167e-05 0)
(0.00168804 6.02682e-06 0)
(0.00168803 1.8621e-05 0)
(0.00168907 3.14764e-05 0)
(0.00169133 4.42163e-05 0)
(0.00169426 5.69581e-05 0)
(0.00169717 6.98721e-05 0)
(0.00169957 8.30622e-05 0)
(0.00170119 9.65419e-05 0)
(0.00170195 0.000110235 0)
(0.00170187 0.000124009 0)
(0.00170092 0.000137719 0)
(0.00169903 0.000151234 0)
(0.00169612 0.000164434 0)
(0.00169211 0.000177187 0)
(0.00168692 0.00018935 0)
(0.00168042 0.00020077 0)
(0.00167254 0.000211292 0)
(0.00166319 0.000220765 0)
(0.00165231 0.00022905 0)
(0.00163984 0.000236016 0)
(0.00162574 0.00024156 0)
(0.00160998 0.000245594 0)
(0.0015926 0.000248041 0)
(0.00157364 0.000248853 0)
(0.00155321 0.000248019 0)
(0.00153143 0.000245548 0)
(0.00150844 0.000241468 0)
(0.0014844 0.000235826 0)
(0.0014595 0.000228676 0)
(0.00143392 0.000220099 0)
(0.00140785 0.000210234 0)
(0.00138153 0.000199276 0)
(0.00135519 0.000187439 0)
(0.00132912 0.000174933 0)
(0.00130359 0.000161984 0)
(0.00127877 0.000148815 0)
(0.00125478 0.000135621 0)
(0.0012317 0.00012258 0)
(0.00120968 0.000109849 0)
(0.00118882 9.75885e-05 0)
(0.00116922 8.59214e-05 0)
(0.00115099 7.49703e-05 0)
(0.00113413 6.48206e-05 0)
(0.00111874 5.55477e-05 0)
(0.0011048 4.72066e-05 0)
(0.00109222 3.98083e-05 0)
(0.00108102 3.33583e-05 0)
(0.00107124 2.78281e-05 0)
(0.00106283 2.31802e-05 0)
(0.00105574 1.93822e-05 0)
(0.00104997 1.63751e-05 0)
(0.00104546 1.40461e-05 0)
(0.00104207 1.23023e-05 0)
(0.00103963 1.10747e-05 0)
(0.00103803 1.03118e-05 0)
(0.00103712 1.00395e-05 0)
(0.00103672 1.02771e-05 0)
(0.00103675 1.09992e-05 0)
(0.00103698 1.22511e-05 0)
(0.00103712 1.41102e-05 0)
(0.00103717 1.66029e-05 0)
(0.00103725 1.98364e-05 0)
(0.0010372 2.38593e-05 0)
(0.00103681 2.85242e-05 0)
(0.00103587 3.36509e-05 0)
(0.00103425 3.91134e-05 0)
(0.00103174 4.47689e-05 0)
(0.00102808 5.04602e-05 0)
(0.00102308 5.60273e-05 0)
(0.0010166 6.12846e-05 0)
(0.00100855 6.60883e-05 0)
(0.000999068 7.03289e-05 0)
(0.000988582 7.38233e-05 0)
(0.000977252 7.63681e-05 0)
(0.000964561 7.79321e-05 0)
(0.000950365 7.85514e-05 0)
(0.000935075 7.82984e-05 0)
(0.000918919 7.73073e-05 0)
(0.000902037 7.57038e-05 0)
(0.00088463 7.3608e-05 0)
(0.000866926 7.11676e-05 0)
(0.000849144 6.85414e-05 0)
(0.000831503 6.58606e-05 0)
(0.000814211 6.31965e-05 0)
(0.000797491 6.05366e-05 0)
(0.000781628 5.77844e-05 0)
(0.000766852 5.48041e-05 0)
(0.000753211 5.14527e-05 0)
(0.000740674 4.76391e-05 0)
(0.000729188 4.33575e-05 0)
(0.00166375 2.42874e-06 0)
(0.00166799 1.12906e-05 0)
(0.00167227 2.17856e-05 0)
(0.00167702 3.36953e-05 0)
(0.00168215 4.66206e-05 0)
(0.00168723 6.02208e-05 0)
(0.00169187 7.42896e-05 0)
(0.0016958 8.87297e-05 0)
(0.0016989 0.00010348 0)
(0.00170113 0.000118455 0)
(0.00170255 0.000133534 0)
(0.00170321 0.000148586 0)
(0.00170315 0.000163483 0)
(0.0017023 0.000178085 0)
(0.00170062 0.000192244 0)
(0.00169807 0.000205811 0)
(0.00169463 0.000218642 0)
(0.00169029 0.000230594 0)
(0.00168502 0.000241529 0)
(0.00167882 0.000251316 0)
(0.00167164 0.000259836 0)
(0.00166343 0.000266992 0)
(0.00165413 0.000272703 0)
(0.00164372 0.000276892 0)
(0.00163221 0.000279473 0)
(0.00161957 0.000280364 0)
(0.00160577 0.000279503 0)
(0.00159084 0.00027687 0)
(0.00157482 0.000272485 0)
(0.00155782 0.000266391 0)
(0.00153997 0.000258661 0)
(0.00152139 0.00024941 0)
(0.00150221 0.000238792 0)
(0.00148255 0.000226983 0)
(0.00146256 0.000214169 0)
(0.00144235 0.000200542 0)
(0.00142207 0.00018632 0)
(0.00140186 0.000171734 0)
(0.00138191 0.000157021 0)
(0.0013624 0.000142409 0)
(0.00134351 0.000128105 0)
(0.00132538 0.000114299 0)
(0.00130813 0.00010115 0)
(0.00129189 8.87945e-05 0)
(0.00127673 7.73326e-05 0)
(0.00126272 6.68509e-05 0)
(0.00124993 5.74228e-05 0)
(0.0012384 4.90646e-05 0)
(0.00122825 4.17754e-05 0)
(0.00121953 3.5536e-05 0)
(0.00121215 3.02997e-05 0)
(0.001206 2.59797e-05 0)
(0.001201 2.24731e-05 0)
(0.00119711 1.97037e-05 0)
(0.0011943 1.75965e-05 0)
(0.00119253 1.60881e-05 0)
(0.00119171 1.51579e-05 0)
(0.00119179 1.47537e-05 0)
(0.00119276 1.48437e-05 0)
(0.0011945 1.54627e-05 0)
(0.00119703 1.66252e-05 0)
(0.00120042 1.83043e-05 0)
(0.00120439 2.04483e-05 0)
(0.00120864 2.29883e-05 0)
(0.0012133 2.59384e-05 0)
(0.00121851 2.93146e-05 0)
(0.0012242 3.30963e-05 0)
(0.00123015 3.72702e-05 0)
(0.00123624 4.18377e-05 0)
(0.00124237 4.68125e-05 0)
(0.00124839 5.22157e-05 0)
(0.00125422 5.80146e-05 0)
(0.00125969 6.41008e-05 0)
(0.00126455 7.02677e-05 0)
(0.00126877 7.6319e-05 0)
(0.00127236 8.22293e-05 0)
(0.00127512 8.79138e-05 0)
(0.00127683 9.31681e-05 0)
(0.00127732 9.78106e-05 0)
(0.00127642 0.000101729 0)
(0.00127404 0.000104832 0)
(0.00127016 0.000107032 0)
(0.00126481 0.000108251 0)
(0.00125804 0.00010843 0)
(0.00124999 0.00010752 0)
(0.00124077 0.00010549 0)
(0.00123047 0.000102327 0)
(0.00121908 9.80522e-05 0)
(0.00120667 9.27168e-05 0)
(0.00119347 8.64105e-05 0)
(0.00171705 -1.37189e-05 0)
(0.0017242 -3.39567e-06 0)
(0.00173204 8.28559e-06 0)
(0.00173945 2.11908e-05 0)
(0.00174565 3.53974e-05 0)
(0.00175039 5.08024e-05 0)
(0.00175372 6.70818e-05 0)
(0.00175575 8.39678e-05 0)
(0.00175647 0.000101295 0)
(0.00175584 0.000118922 0)
(0.00175379 0.00013668 0)
(0.00175034 0.00015437 0)
(0.00174549 0.000171775 0)
(0.00173926 0.000188691 0)
(0.00173166 0.000204924 0)
(0.00172279 0.000220291 0)
(0.00171276 0.000234625 0)
(0.00170169 0.000247777 0)
(0.00168977 0.00025962 0)
(0.00167717 0.000270058 0)
(0.00166411 0.000279018 0)
(0.00165078 0.000286455 0)
(0.00163734 0.000292377 0)
(0.00162386 0.000296815 0)
(0.00161036 0.00029978 0)
(0.00159687 0.000301272 0)
(0.00158343 0.000301297 0)
(0.00157007 0.000299857 0)
(0.00155674 0.000296951 0)
(0.00154329 0.000292586 0)
(0.00152965 0.00028677 0)
(0.00151576 0.00027951 0)
(0.00150157 0.000270838 0)
(0.00148705 0.000260829 0)
(0.00147216 0.000249595 0)
(0.00145692 0.000237287 0)
(0.00144136 0.000224089 0)
(0.00142554 0.000210212 0)
(0.00140956 0.000195872 0)
(0.00139351 0.000181282 0)
(0.00137752 0.000166643 0)
(0.0013617 0.000152144 0)
(0.00134616 0.000137959 0)
(0.00133102 0.000124245 0)
(0.00131638 0.000111133 0)
(0.00130237 9.87408e-05 0)
(0.00128912 8.71426e-05 0)
(0.00127674 7.63988e-05 0)
(0.00126536 6.65251e-05 0)
(0.0012551 5.74831e-05 0)
(0.00124603 4.92246e-05 0)
(0.00123822 4.17221e-05 0)
(0.00123174 3.49506e-05 0)
(0.00122666 2.88953e-05 0)
(0.00122308 2.35421e-05 0)
(0.00122103 1.88621e-05 0)
(0.0012205 1.4867e-05 0)
(0.00122145 1.15853e-05 0)
(0.00122385 8.99659e-06 0)
(0.0012276 7.11691e-06 0)
(0.00123263 5.96887e-06 0)
(0.00123885 5.53158e-06 0)
(0.00124607 5.80099e-06 0)
(0.00125428 6.84026e-06 0)
(0.00126354 8.70539e-06 0)
(0.00127368 1.1362e-05 0)
(0.00128451 1.47276e-05 0)
(0.0012959 1.87382e-05 0)
(0.00130778 2.33255e-05 0)
(0.0013201 2.84085e-05 0)
(0.00133277 3.39142e-05 0)
(0.00134574 3.97587e-05 0)
(0.00135891 4.58363e-05 0)
(0.0013722 5.20798e-05 0)
(0.00138555 5.84224e-05 0)
(0.00139888 6.47178e-05 0)
(0.00141187 7.08401e-05 0)
(0.0014242 7.66804e-05 0)
(0.00143586 8.21535e-05 0)
(0.00144681 8.72074e-05 0)
(0.00145692 9.18018e-05 0)
(0.00146602 9.58932e-05 0)
(0.00147397 9.94359e-05 0)
(0.00148068 0.000102378 0)
(0.00148605 0.000104653 0)
(0.00148998 0.000106182 0)
(0.00149237 0.000106885 0)
(0.00149316 0.000106714 0)
(0.00149229 0.000105653 0)
(0.00148975 0.000103691 0)
(0.00182174 -3.79605e-05 0)
(0.00182958 -2.43881e-05 0)
(0.00183769 -9.82016e-06 0)
(0.00184614 5.78624e-06 0)
(0.00185492 2.228e-05 0)
(0.00186284 3.97735e-05 0)
(0.00186916 5.8559e-05 0)
(0.00187392 7.85103e-05 0)
(0.00187717 9.93233e-05 0)
(0.00187877 0.000120737 0)
(0.00187853 0.000142521 0)
(0.00187628 0.000164427 0)
(0.00187187 0.000186191 0)
(0.00186517 0.000207547 0)
(0.00185603 0.000228213 0)
(0.00184438 0.000247906 0)
(0.00183019 0.000266342 0)
(0.00181349 0.000283258 0)
(0.00179441 0.000298419 0)
(0.00177313 0.000311624 0)
(0.00174993 0.000322719 0)
(0.00172514 0.000331595 0)
(0.00169919 0.000338178 0)
(0.00167249 0.000342438 0)
(0.00164537 0.000344424 0)
(0.00161823 0.000344259 0)
(0.00159145 0.000342117 0)
(0.00156536 0.000338198 0)
(0.00154024 0.000332707 0)
(0.0015163 0.000325849 0)
(0.00149364 0.000317812 0)
(0.00147225 0.000308743 0)
(0.00145209 0.00029875 0)
(0.00143309 0.00028791 0)
(0.00141512 0.000276287 0)
(0.00139801 0.000263948 0)
(0.00138159 0.000250976 0)
(0.00136571 0.000237471 0)
(0.00135022 0.000223553 0)
(0.00133506 0.000209353 0)
(0.00132017 0.000195012 0)
(0.00130558 0.000180666 0)
(0.00129136 0.000166442 0)
(0.0012776 0.000152454 0)
(0.00126445 0.000138793 0)
(0.00125206 0.000125528 0)
(0.00124058 0.000112708 0)
(0.00123021 0.00010036 0)
(0.00122108 8.84895e-05 0)
(0.00121335 7.70932e-05 0)
(0.00120716 6.61659e-05 0)
(0.00120261 5.57147e-05 0)
(0.00119979 4.57798e-05 0)
(0.00119872 3.64084e-05 0)
(0.00119939 2.76493e-05 0)
(0.00120177 1.95738e-05 0)
(0.00120581 1.22293e-05 0)
(0.00121137 5.66027e-06 0)
(0.00121827 -7.79303e-08 0)
(0.00122641 -4.93596e-06 0)
(0.00123571 -8.87543e-06 0)
(0.00124606 -1.1888e-05 0)
(0.00125736 -1.39497e-05 0)
(0.00126948 -1.50459e-05 0)
(0.00128233 -1.52314e-05 0)
(0.00129582 -1.45764e-05 0)
(0.00130985 -1.31236e-05 0)
(0.00132433 -1.08955e-05 0)
(0.00133921 -7.92619e-06 0)
(0.00135446 -4.2632e-06 0)
(0.00137006 3.38636e-08 0)
(0.00138595 4.89696e-06 0)
(0.0014021 1.02463e-05 0)
(0.00141845 1.60002e-05 0)
(0.00143491 2.20684e-05 0)
(0.00145139 2.83432e-05 0)
(0.00146776 3.47356e-05 0)
(0.0014839 4.12303e-05 0)
(0.00149974 4.78024e-05 0)
(0.0015152 5.43801e-05 0)
(0.00153012 6.08861e-05 0)
(0.00154435 6.72029e-05 0)
(0.00155778 7.32413e-05 0)
(0.00157024 7.89124e-05 0)
(0.0015816 8.41222e-05 0)
(0.00159168 8.87776e-05 0)
(0.00160035 9.27938e-05 0)
(0.00160746 9.60998e-05 0)
(0.00161289 9.86349e-05 0)
(0.00161654 0.000100349 0)
(0.00174997 -5.55995e-05 0)
(0.00175935 -4.36801e-05 0)
(0.00177022 -3.00689e-05 0)
(0.00178203 -1.47245e-05 0)
(0.00179422 2.18807e-06 0)
(0.00180765 2.06261e-05 0)
(0.00182183 4.06046e-05 0)
(0.00183544 6.21461e-05 0)
(0.00184811 8.51303e-05 0)
(0.00185985 0.000109361 0)
(0.00187048 0.000134597 0)
(0.00187972 0.000160585 0)
(0.00188727 0.000187053 0)
(0.00189281 0.000213692 0)
(0.00189596 0.000240159 0)
(0.00189639 0.00026609 0)
(0.00189382 0.000291108 0)
(0.00188802 0.000314826 0)
(0.00187881 0.000336861 0)
(0.0018661 0.000356843 0)
(0.00184984 0.000374423 0)
(0.00183006 0.000389295 0)
(0.00180684 0.000401188 0)
(0.00178037 0.000409882 0)
(0.00175102 0.000415254 0)
(0.00171926 0.000417298 0)
(0.00168564 0.000416097 0)
(0.00165075 0.000411825 0)
(0.00161518 0.000404743 0)
(0.0015795 0.000395187 0)
(0.00154424 0.000383547 0)
(0.00150988 0.000370253 0)
(0.00147681 0.000355736 0)
(0.00144534 0.000340388 0)
(0.00141569 0.000324531 0)
(0.001388 0.000308404 0)
(0.00136235 0.000292168 0)
(0.00133876 0.000275919 0)
(0.00131718 0.000259694 0)
(0.00129757 0.000243499 0)
(0.00127983 0.000227319 0)
(0.00126388 0.000211144 0)
(0.00124964 0.000194977 0)
(0.00123705 0.000178829 0)
(0.00122606 0.000162735 0)
(0.00121666 0.000146734 0)
(0.00120889 0.000130865 0)
(0.00120277 0.00011519 0)
(0.00119839 9.97764e-05 0)
(0.00119581 8.46891e-05 0)
(0.00119505 7.00139e-05 0)
(0.00119615 5.58408e-05 0)
(0.00119912 4.22329e-05 0)
(0.00120384 2.92338e-05 0)
(0.00121024 1.68846e-05 0)
(0.00121815 5.3158e-06 0)
(0.00122728 -5.31677e-06 0)
(0.00123746 -1.49158e-05 0)
(0.00124855 -2.33823e-05 0)
(0.00126034 -3.06529e-05 0)
(0.00127264 -3.66896e-05 0)
(0.00128535 -4.14794e-05 0)
(0.00129838 -4.50351e-05 0)
(0.00131165 -4.73844e-05 0)
(0.00132513 -4.85856e-05 0)
(0.00133886 -4.87183e-05 0)
(0.00135288 -4.78748e-05 0)
(0.00136721 -4.61437e-05 0)
(0.00138191 -4.36016e-05 0)
(0.00139701 -4.03278e-05 0)
(0.00141252 -3.63939e-05 0)
(0.00142845 -3.18599e-05 0)
(0.00144481 -2.67812e-05 0)
(0.00146156 -2.12082e-05 0)
(0.00147868 -1.51908e-05 0)
(0.00149612 -8.77318e-06 0)
(0.00151381 -1.99599e-06 0)
(0.00153165 5.10412e-06 0)
(0.00154949 1.24788e-05 0)
(0.00156722 2.00578e-05 0)
(0.00158457 2.77572e-05 0)
(0.00160132 3.55497e-05 0)
(0.00161734 4.33771e-05 0)
(0.00163245 5.11651e-05 0)
(0.00164647 5.88397e-05 0)
(0.00165921 6.63322e-05 0)
(0.0016705 7.35118e-05 0)
(0.00168017 8.02685e-05 0)
(0.00168808 8.65063e-05 0)
(0.00169411 9.21338e-05 0)
(0.00144906 -7.57727e-05 0)
(0.00146237 -6.88108e-05 0)
(0.00147782 -5.93757e-05 0)
(0.00149571 -4.75501e-05 0)
(0.00151579 -3.3057e-05 0)
(0.00153726 -1.61006e-05 0)
(0.0015597 2.88833e-06 0)
(0.00158294 2.38873e-05 0)
(0.0016066 4.69679e-05 0)
(0.00163035 7.20317e-05 0)
(0.00165391 9.88694e-05 0)
(0.00167707 0.000127236 0)
(0.00169951 0.000156906 0)
(0.00172084 0.000187553 0)
(0.00174063 0.00021881 0)
(0.00175848 0.000250293 0)
(0.001774 0.00028159 0)
(0.00178679 0.00031226 0)
(0.0017965 0.000341834 0)
(0.0018028 0.000369831 0)
(0.0018054 0.000395766 0)
(0.00180405 0.000419167 0)
(0.00179857 0.000439604 0)
(0.00178888 0.000456711 0)
(0.00177504 0.000470181 0)
(0.00175719 0.000479774 0)
(0.00173553 0.000485333 0)
(0.0017104 0.000486806 0)
(0.00168224 0.000484254 0)
(0.00165162 0.000477873 0)
(0.00161917 0.000467979 0)
(0.00158556 0.00045496 0)
(0.00155149 0.000439245 0)
(0.00151761 0.000421298 0)
(0.00148449 0.000401596 0)
(0.00145261 0.0003806 0)
(0.00142237 0.000358727 0)
(0.00139404 0.000336337 0)
(0.00136778 0.000313739 0)
(0.00134368 0.000291194 0)
(0.00132177 0.000268909 0)
(0.0013021 0.000247028 0)
(0.0012847 0.00022563 0)
(0.00126964 0.000204731 0)
(0.00125702 0.000184284 0)
(0.0012469 0.000164211 0)
(0.00123936 0.000144409 0)
(0.00123441 0.00012477 0)
(0.00123195 0.000105247 0)
(0.0012318 8.58612e-05 0)
(0.00123371 6.66946e-05 0)
(0.00123733 4.79404e-05 0)
(0.00124225 2.98665e-05 0)
(0.00124806 1.27487e-05 0)
(0.00125459 -3.09021e-06 0)
(0.00126178 -1.73651e-05 0)
(0.00126939 -2.98828e-05 0)
(0.00127709 -4.05843e-05 0)
(0.00128467 -4.95664e-05 0)
(0.00129201 -5.69768e-05 0)
(0.00129906 -6.29684e-05 0)
(0.00130587 -6.76904e-05 0)
(0.00131253 -7.12713e-05 0)
(0.00131914 -7.38114e-05 0)
(0.00132581 -7.53971e-05 0)
(0.00133271 -7.61166e-05 0)
(0.00134004 -7.60603e-05 0)
(0.00134801 -7.53115e-05 0)
(0.00135683 -7.39413e-05 0)
(0.00136671 -7.20044e-05 0)
(0.0013778 -6.9535e-05 0)
(0.00139023 -6.65485e-05 0)
(0.00140407 -6.30452e-05 0)
(0.00141933 -5.90132e-05 0)
(0.00143599 -5.44305e-05 0)
(0.00145395 -4.92779e-05 0)
(0.00147308 -4.3538e-05 0)
(0.00149323 -3.7194e-05 0)
(0.00151418 -3.02306e-05 0)
(0.00153572 -2.26475e-05 0)
(0.00155772 -1.44733e-05 0)
(0.00158 -5.70105e-06 0)
(0.00160222 3.63394e-06 0)
(0.00162411 1.34607e-05 0)
(0.00164544 2.36697e-05 0)
(0.00166579 3.41155e-05 0)
(0.00168478 4.47078e-05 0)
(0.0017022 5.53356e-05 0)
(0.00171779 6.58746e-05 0)
(0.00173133 7.62099e-05 0)
(0.00105112 -0.000111664 0)
(0.00107044 -0.000109191 0)
(0.00109234 -0.000103765 0)
(0.00111654 -9.5455e-05 0)
(0.00114264 -8.44975e-05 0)
(0.00117036 -7.09311e-05 0)
(0.00119949 -5.46542e-05 0)
(0.00122979 -3.57062e-05 0)
(0.00126096 -1.41435e-05 0)
(0.00129268 9.93093e-06 0)
(0.00132474 3.64195e-05 0)
(0.00135716 6.51839e-05 0)
(0.00138965 9.59292e-05 0)
(0.00142176 0.0001284 0)
(0.00145319 0.000162278 0)
(0.00148363 0.000197188 0)
(0.00151275 0.000232737 0)
(0.00154019 0.000268494 0)
(0.00156558 0.000303983 0)
(0.00158855 0.000338688 0)
(0.00160875 0.000372069 0)
(0.00162583 0.000403569 0)
(0.00163946 0.000432637 0)
(0.00164938 0.000458744 0)
(0.00165535 0.000481389 0)
(0.00165724 0.000500125 0)
(0.00165498 0.000514588 0)
(0.00164864 0.000524521 0)
(0.00163842 0.000529776 0)
(0.00162462 0.000530322 0)
(0.00160753 0.000526248 0)
(0.00158744 0.000517777 0)
(0.00156475 0.00050527 0)
(0.00153997 0.00048919 0)
(0.00151367 0.000470085 0)
(0.00148649 0.000448547 0)
(0.00145906 0.000425173 0)
(0.00143208 0.000400529 0)
(0.00140619 0.000375076 0)
(0.001382 0.000349111 0)
(0.00136004 0.0003228 0)
(0.00134069 0.000296166 0)
(0.00132417 0.000269172 0)
(0.00131053 0.000241823 0)
(0.00129957 0.00021417 0)
(0.00129092 0.000186391 0)
(0.00128407 0.000158818 0)
(0.0012785 0.000131868 0)
(0.00127383 0.000106016 0)
(0.00126981 8.17069e-05 0)
(0.00126634 5.9244e-05 0)
(0.00126346 3.87586e-05 0)
(0.00126117 2.01959e-05 0)
(0.00125932 3.39338e-06 0)
(0.00125765 -1.17323e-05 0)
(0.00125566 -2.52409e-05 0)
(0.00125267 -3.71479e-05 0)
(0.00124805 -4.73894e-05 0)
(0.00124149 -5.59257e-05 0)
(0.001233 -6.2757e-05 0)
(0.00122283 -6.79316e-05 0)
(0.00121153 -7.15902e-05 0)
(0.00119982 -7.40033e-05 0)
(0.00118845 -7.55523e-05 0)
(0.00117813 -7.66167e-05 0)
(0.00116949 -7.75251e-05 0)
(0.00116302 -7.85303e-05 0)
(0.00115915 -7.97693e-05 0)
(0.00115817 -8.12675e-05 0)
(0.00116027 -8.2958e-05 0)
(0.00116553 -8.47069e-05 0)
(0.00117396 -8.63441e-05 0)
(0.0011855 -8.76836e-05 0)
(0.00120004 -8.85404e-05 0)
(0.00121742 -8.87412e-05 0)
(0.00123746 -8.81302e-05 0)
(0.00125994 -8.65719e-05 0)
(0.00128461 -8.39501e-05 0)
(0.00131121 -8.01713e-05 0)
(0.00133944 -7.51639e-05 0)
(0.001369 -6.88746e-05 0)
(0.00139956 -6.13225e-05 0)
(0.0014308 -5.25264e-05 0)
(0.00146232 -4.25293e-05 0)
(0.00149375 -3.14071e-05 0)
(0.00152485 -1.9281e-05 0)
(0.00155535 -6.24245e-06 0)
(0.00158488 7.57271e-06 0)
(0.00161313 2.19794e-05 0)
(0.00163975 3.67447e-05 0)
(0.000663306 -0.000159479 0)
(0.000687544 -0.000161163 0)
(0.000713931 -0.00016006 0)
(0.000742285 -0.000155974 0)
(0.000772364 -0.000148807 0)
(0.00080394 -0.000138499 0)
(0.00083677 -0.000125038 0)
(0.000870656 -0.000108427 0)
(0.000905394 -8.86959e-05 0)
(0.000940848 -6.59081e-05 0)
(0.000976877 -4.02269e-05 0)
(0.00101329 -1.18276e-05 0)
(0.00104996 1.90486e-05 0)
(0.00108679 5.21363e-05 0)
(0.00112337 8.71341e-05 0)
(0.00115955 0.00012374 0)
(0.00119518 0.000161612 0)
(0.00123002 0.00020038 0)
(0.00126377 0.000239615 0)
(0.00129617 0.000278844 0)
(0.0013269 0.000317552 0)
(0.00135565 0.000355182 0)
(0.00138208 0.000391151 0)
(0.00140588 0.000424856 0)
(0.00142675 0.000455697 0)
(0.00144443 0.000483108 0)
(0.00145868 0.000506572 0)
(0.00146933 0.000525643 0)
(0.00147626 0.00053996 0)
(0.00147943 0.000549245 0)
(0.00147902 0.000553347 0)
(0.00147536 0.000552287 0)
(0.00146892 0.000546235 0)
(0.00146017 0.00053546 0)
(0.00144956 0.000520294 0)
(0.00143753 0.000501116 0)
(0.00142451 0.000478346 0)
(0.00141085 0.00045243 0)
(0.00139679 0.000423875 0)
(0.00138243 0.000393254 0)
(0.00136773 0.000361188 0)
(0.00135257 0.000328381 0)
(0.00133684 0.000295587 0)
(0.00132053 0.000263573 0)
(0.00130382 0.000233113 0)
(0.00128716 0.000204714 0)
(0.00127126 0.000178403 0)
(0.00125681 0.000153808 0)
(0.00124409 0.000130239 0)
(0.00123284 0.000106976 0)
(0.00122218 8.37793e-05 0)
(0.00121057 6.09771e-05 0)
(0.00119628 3.92781e-05 0)
(0.00117799 1.97804e-05 0)
(0.00115498 3.8736e-06 0)
(0.00112718 -7.29225e-06 0)
(0.00109537 -1.33717e-05 0)
(0.00106081 -1.51104e-05 0)
(0.00102489 -1.4164e-05 0)
(0.000989051 -1.25199e-05 0)
(0.000954611 -1.18541e-05 0)
(0.000922759 -1.31976e-05 0)
(0.00089444 -1.6941e-05 0)
(0.000870428 -2.29866e-05 0)
(0.000851268 -3.09671e-05 0)
(0.000837132 -4.05194e-05 0)
(0.000827991 -5.12398e-05 0)
(0.000823702 -6.2689e-05 0)
(0.000824021 -7.44489e-05 0)
(0.000828654 -8.61399e-05 0)
(0.000837285 -9.74309e-05 0)
(0.000849609 -0.000108036 0)
(0.000865334 -0.000117713 0)
(0.000884194 -0.000126259 0)
(0.000905948 -0.000133502 0)
(0.000930375 -0.000139299 0)
(0.000957274 -0.000143528 0)
(0.000986449 -0.000146085 0)
(0.00101771 -0.000146882 0)
(0.00105086 -0.000145846 0)
(0.00108569 -0.000142914 0)
(0.00112199 -0.000138045 0)
(0.00115952 -0.000131223 0)
(0.00119801 -0.000122454 0)
(0.00123718 -0.000111769 0)
(0.0012767 -9.9231e-05 0)
(0.00131626 -8.49911e-05 0)
(0.00135547 -6.92099e-05 0)
(0.00139396 -5.20767e-05 0)
(0.00143141 -3.38245e-05 0)
(0.000281946 -0.000212126 0)
(0.000307843 -0.000218761 0)
(0.000335645 -0.000222318 0)
(0.000365847 -0.000222317 0)
(0.000397918 -0.000218815 0)
(0.000431806 -0.000211663 0)
(0.000467216 -0.000200833 0)
(0.000503952 -0.000186346 0)
(0.000541764 -0.000168309 0)
(0.000580417 -0.000146861 0)
(0.000619657 -0.000122197 0)
(0.000659241 -9.45483e-05 0)
(0.000698882 -6.41274e-05 0)
(0.000738466 -3.12273e-05 0)
(0.000777943 3.86438e-06 0)
(0.000817219 4.08776e-05 0)
(0.000856182 7.95079e-05 0)
(0.000894701 0.00011941 0)
(0.000932633 0.000160205 0)
(0.000969853 0.000201423 0)
(0.0010062 0.000242588 0)
(0.00104146 0.000283178 0)
(0.0010754 0.000322633 0)
(0.00110778 0.000360369 0)
(0.00113836 0.000395786 0)
(0.00116687 0.000428282 0)
(0.00119306 0.000457272 0)
(0.00121668 0.000482218 0)
(0.00123752 0.000502662 0)
(0.00125539 0.00051825 0)
(0.00127012 0.000528738 0)
(0.00128152 0.000533976 0)
(0.00128942 0.000533935 0)
(0.00129369 0.000528738 0)
(0.00129434 0.0005187 0)
(0.00129146 0.000504325 0)
(0.00128522 0.000486272 0)
(0.00127589 0.000465314 0)
(0.00126392 0.000442309 0)
(0.00124994 0.000418064 0)
(0.00123476 0.000393136 0)
(0.00121932 0.000367687 0)
(0.00120462 0.000341397 0)
(0.00119147 0.0003136 0)
(0.00118017 0.000283611 0)
(0.00117009 0.000251136 0)
(0.00115969 0.000216742 0)
(0.00114677 0.000182178 0)
(0.00112898 0.000150182 0)
(0.00110431 0.000123765 0)
(0.00107158 0.000105312 0)
(0.00103054 9.57883e-05 0)
(0.000981767 9.43236e-05 0)
(0.000927078 9.83436e-05 0)
(0.000869162 0.000104391 0)
(0.000810838 0.000109332 0)
(0.000754793 0.000110994 0)
(0.000703331 0.000108286 0)
(0.000658119 0.000101 0)
(0.00062009 8.94874e-05 0)
(0.000589519 7.43861e-05 0)
(0.000566202 5.64517e-05 0)
(0.000549689 3.64663e-05 0)
(0.000539405 1.51968e-05 0)
(0.000534458 -6.87787e-06 0)
(0.000533944 -2.92793e-05 0)
(0.000537375 -5.15277e-05 0)
(0.000544307 -7.32433e-05 0)
(0.000554301 -9.4122e-05 0)
(0.000566977 -0.000113921 0)
(0.000582015 -0.00013245 0)
(0.00059916 -0.000149557 0)
(0.000618214 -0.000165126 0)
(0.000639039 -0.000179059 0)