/*--------------------------------*- C++ -*----------------------------------*\
| =========                 |                                                 |
| \\      /  F ield         | OpenFOAM: The Open Source CFD Toolbox           |
|  \\    /   O peration     | Version:  2312                                  |
|   \\  /    A nd           | Website:  www.openfoam.com                      |
|    \\/     M anipulation  |                                                 |
\*---------------------------------------------------------------------------*/
FoamFile
{
    version     2.0;
    format      ascii;
    arch        "LSB;label=32;scalar=64";
    class       volScalarField;
    location    "52000";
    object      p;
}
// * * * * * * * * * * * * * * * * * * * * * * * * * * * * * * * * * * * * * //

dimensions      [0 2 -2 0 0 0 0];

internalField   nonuniform List<scalar> 
10800
(
4.87639e-07
4.73516e-07
4.59749e-07
4.49172e-07
4.41749e-07
4.36358e-07
4.31907e-07
4.27828e-07
4.23952e-07
4.20288e-07
4.16872e-07
4.13708e-07
4.10762e-07
4.07985e-07
4.0533e-07
4.02765e-07
4.00267e-07
3.97822e-07
3.95422e-07
3.93056e-07
3.90716e-07
3.88395e-07
3.86086e-07
3.83784e-07
3.81483e-07
3.7918e-07
3.76873e-07
3.74558e-07
3.72233e-07
3.69898e-07
3.6755e-07
3.65189e-07
3.62815e-07
3.60426e-07
3.58022e-07
3.55605e-07
3.53173e-07
3.50728e-07
3.48269e-07
3.45797e-07
3.43313e-07
3.40816e-07
3.38308e-07
3.35788e-07
3.33256e-07
3.3071e-07
3.28153e-07
3.25579e-07
3.22992e-07
3.20378e-07
3.17758e-07
3.1508e-07
3.12426e-07
3.09623e-07
3.06974e-07
3.0384e-07
3.01481e-07
2.97072e-07
2.96763e-07
2.86162e-07
4.39595e-07
4.37868e-07
4.35223e-07
4.32097e-07
4.28881e-07
4.25787e-07
4.22864e-07
4.20077e-07
4.17376e-07
4.14729e-07
4.12131e-07
4.09588e-07
4.07106e-07
4.04685e-07
4.02319e-07
3.99998e-07
3.97713e-07
3.95457e-07
3.93223e-07
3.91006e-07
3.88803e-07
3.86609e-07
3.84421e-07
3.82234e-07
3.80047e-07
3.77857e-07
3.75661e-07
3.73457e-07
3.71244e-07
3.6902e-07
3.66785e-07
3.64538e-07
3.62278e-07
3.60004e-07
3.57718e-07
3.55417e-07
3.53104e-07
3.50775e-07
3.48437e-07
3.4608e-07
3.43717e-07
3.41334e-07
3.38948e-07
3.36536e-07
3.34129e-07
3.31687e-07
3.29264e-07
3.26788e-07
3.24356e-07
3.21842e-07
3.19421e-07
3.16871e-07
3.14516e-07
3.11947e-07
3.09792e-07
3.07273e-07
3.05652e-07
3.03263e-07
3.02785e-07
3.00108e-07
4.30854e-07
4.30104e-07
4.2869e-07
4.26738e-07
4.24454e-07
4.22033e-07
4.19603e-07
4.17214e-07
4.14868e-07
4.12552e-07
4.10259e-07
4.07987e-07
4.05741e-07
4.03527e-07
4.01347e-07
3.99198e-07
3.97076e-07
3.94977e-07
3.92896e-07
3.90828e-07
3.88771e-07
3.86722e-07
3.84678e-07
3.82637e-07
3.80597e-07
3.78554e-07
3.76509e-07
3.74458e-07
3.72401e-07
3.70336e-07
3.68263e-07
3.6618e-07
3.64088e-07
3.61985e-07
3.59873e-07
3.57748e-07
3.55614e-07
3.53466e-07
3.51311e-07
3.4914e-07
3.46964e-07
3.44769e-07
3.42573e-07
3.40354e-07
3.38139e-07
3.35896e-07
3.33665e-07
3.31399e-07
3.29158e-07
3.2687e-07
3.24632e-07
3.22327e-07
3.20114e-07
3.17803e-07
3.15649e-07
3.13346e-07
3.11303e-07
3.09014e-07
3.07122e-07
3.04753e-07
4.19118e-07
4.18686e-07
4.17899e-07
4.16809e-07
4.15484e-07
4.13996e-07
4.12401e-07
4.1074e-07
4.09033e-07
4.0729e-07
4.05519e-07
4.03724e-07
4.01913e-07
4.00091e-07
3.98263e-07
3.96432e-07
3.94599e-07
3.92766e-07
3.90931e-07
3.89094e-07
3.87255e-07
3.85412e-07
3.83566e-07
3.81716e-07
3.79861e-07
3.78e-07
3.76134e-07
3.7426e-07
3.7238e-07
3.70492e-07
3.68597e-07
3.66693e-07
3.64782e-07
3.62862e-07
3.60934e-07
3.58997e-07
3.57053e-07
3.551e-07
3.53139e-07
3.51169e-07
3.49191e-07
3.47203e-07
3.45208e-07
3.432e-07
3.41186e-07
3.39155e-07
3.37118e-07
3.3506e-07
3.32995e-07
3.30902e-07
3.28802e-07
3.26664e-07
3.24522e-07
3.22332e-07
3.20143e-07
3.17893e-07
3.15652e-07
3.13332e-07
3.11038e-07
3.08664e-07
4.12417e-07
4.12203e-07
4.11772e-07
4.11126e-07
4.10283e-07
4.09269e-07
4.08118e-07
4.06861e-07
4.05522e-07
4.04118e-07
4.02662e-07
4.01161e-07
3.99625e-07
3.98059e-07
3.96469e-07
3.9486e-07
3.93235e-07
3.91597e-07
3.89949e-07
3.88292e-07
3.86625e-07
3.84952e-07
3.8327e-07
3.81583e-07
3.79889e-07
3.78189e-07
3.76483e-07
3.74771e-07
3.73054e-07
3.71331e-07
3.69603e-07
3.6787e-07
3.66133e-07
3.64391e-07
3.62645e-07
3.60894e-07
3.5914e-07
3.57381e-07
3.55619e-07
3.53853e-07
3.52083e-07
3.50308e-07
3.4853e-07
3.46746e-07
3.44956e-07
3.43161e-07
3.41357e-07
3.39545e-07
3.37722e-07
3.35885e-07
3.34029e-07
3.32147e-07
3.30229e-07
3.28264e-07
3.26233e-07
3.24125e-07
3.21928e-07
3.19652e-07
3.17302e-07
3.14972e-07
4.06896e-07
4.06734e-07
4.06409e-07
4.05925e-07
4.05292e-07
4.04526e-07
4.03645e-07
4.02667e-07
4.01608e-07
4.00481e-07
3.99294e-07
3.98057e-07
3.96776e-07
3.95456e-07
3.94102e-07
3.9272e-07
3.91313e-07
3.89885e-07
3.88439e-07
3.86976e-07
3.85499e-07
3.8401e-07
3.82509e-07
3.80998e-07
3.79478e-07
3.7795e-07
3.76415e-07
3.74874e-07
3.73327e-07
3.71776e-07
3.70221e-07
3.68662e-07
3.67101e-07
3.65537e-07
3.63972e-07
3.62405e-07
3.60838e-07
3.5927e-07
3.57702e-07
3.56135e-07
3.54566e-07
3.52998e-07
3.51429e-07
3.49858e-07
3.48283e-07
3.46704e-07
3.45117e-07
3.43521e-07
3.4191e-07
3.40285e-07
3.38638e-07
3.36974e-07
3.35283e-07
3.33573e-07
3.31817e-07
3.3002e-07
3.28146e-07
3.26218e-07
3.24231e-07
3.22313e-07
4.02549e-07
4.0243e-07
4.02192e-07
4.01836e-07
4.01366e-07
4.00788e-07
4.00112e-07
3.99348e-07
3.98506e-07
3.97594e-07
3.96622e-07
3.95595e-07
3.9452e-07
3.93401e-07
3.92244e-07
3.91052e-07
3.89831e-07
3.88582e-07
3.87311e-07
3.86018e-07
3.84708e-07
3.83382e-07
3.82042e-07
3.8069e-07
3.79327e-07
3.77956e-07
3.76577e-07
3.75193e-07
3.73804e-07
3.72411e-07
3.71016e-07
3.6962e-07
3.68224e-07
3.66829e-07
3.65436e-07
3.64045e-07
3.62659e-07
3.61276e-07
3.59898e-07
3.58527e-07
3.5716e-07
3.55801e-07
3.54447e-07
3.531e-07
3.51758e-07
3.50423e-07
3.49092e-07
3.47766e-07
3.4644e-07
3.45112e-07
3.43771e-07
3.42416e-07
3.41033e-07
3.39625e-07
3.38182e-07
3.36717e-07
3.35207e-07
3.33678e-07
3.32127e-07
3.30667e-07
3.99096e-07
3.99004e-07
3.98818e-07
3.98539e-07
3.98168e-07
3.97709e-07
3.97166e-07
3.96546e-07
3.95856e-07
3.95101e-07
3.94286e-07
3.93418e-07
3.92501e-07
3.9154e-07
3.9054e-07
3.89505e-07
3.88437e-07
3.87342e-07
3.86221e-07
3.85079e-07
3.83916e-07
3.82737e-07
3.81543e-07
3.80337e-07
3.7912e-07
3.77894e-07
3.76662e-07
3.75424e-07
3.74183e-07
3.72941e-07
3.71698e-07
3.70457e-07
3.69218e-07
3.67984e-07
3.66756e-07
3.65534e-07
3.64321e-07
3.63117e-07
3.61924e-07
3.60743e-07
3.59573e-07
3.58418e-07
3.57276e-07
3.56148e-07
3.55034e-07
3.53935e-07
3.52848e-07
3.51775e-07
3.50714e-07
3.49667e-07
3.4863e-07
3.47603e-07
3.46574e-07
3.45543e-07
3.445e-07
3.43455e-07
3.42395e-07
3.4135e-07
3.40325e-07
3.39424e-07
3.96331e-07
3.96255e-07
3.96104e-07
3.95875e-07
3.95571e-07
3.95192e-07
3.94742e-07
3.94226e-07
3.93646e-07
3.93009e-07
3.92316e-07
3.91574e-07
3.90785e-07
3.89955e-07
3.89086e-07
3.88182e-07
3.87246e-07
3.86283e-07
3.85294e-07
3.84282e-07
3.83251e-07
3.82203e-07
3.8114e-07
3.80064e-07
3.78979e-07
3.77885e-07
3.76786e-07
3.75683e-07
3.74578e-07
3.73474e-07
3.72372e-07
3.71274e-07
3.70182e-07
3.69098e-07
3.68024e-07
3.66961e-07
3.65911e-07
3.64877e-07
3.6386e-07
3.62861e-07
3.61882e-07
3.60925e-07
3.59991e-07
3.59082e-07
3.58199e-07
3.57343e-07
3.56515e-07
3.55716e-07
3.54945e-07
3.542e-07
3.5348e-07
3.52789e-07
3.52122e-07
3.51485e-07
3.50869e-07
3.50284e-07
3.49721e-07
3.49203e-07
3.48742e-07
3.48425e-07
3.94127e-07
3.94063e-07
3.93936e-07
3.93743e-07
3.93485e-07
3.93164e-07
3.92782e-07
3.92341e-07
3.91845e-07
3.91296e-07
3.90698e-07
3.90054e-07
3.89367e-07
3.8864e-07
3.87877e-07
3.87081e-07
3.86254e-07
3.854e-07
3.84521e-07
3.83621e-07
3.82701e-07
3.81764e-07
3.80814e-07
3.79852e-07
3.7888e-07
3.77902e-07
3.7692e-07
3.75935e-07
3.74951e-07
3.73969e-07
3.72993e-07
3.72023e-07
3.71062e-07
3.70114e-07
3.69179e-07
3.6826e-07
3.6736e-07
3.66482e-07
3.65626e-07
3.64796e-07
3.63994e-07
3.63222e-07
3.62483e-07
3.61779e-07
3.61113e-07
3.60487e-07
3.59902e-07
3.59363e-07
3.58867e-07
3.58419e-07
3.58019e-07
3.57672e-07
3.57378e-07
3.57141e-07
3.5696e-07
3.56842e-07
3.56787e-07
3.56813e-07
3.56936e-07
3.57228e-07
3.92397e-07
3.92342e-07
3.92231e-07
3.92064e-07
3.9184e-07
3.91561e-07
3.91228e-07
3.90843e-07
3.90409e-07
3.89927e-07
3.89401e-07
3.88832e-07
3.88224e-07
3.87579e-07
3.869e-07
3.86189e-07
3.85449e-07
3.84684e-07
3.83895e-07
3.83085e-07
3.82257e-07
3.81414e-07
3.80557e-07
3.79691e-07
3.78816e-07
3.77936e-07
3.77053e-07
3.7617e-07
3.7529e-07
3.74414e-07
3.73545e-07
3.72687e-07
3.71842e-07
3.71011e-07
3.70199e-07
3.69408e-07
3.68641e-07
3.679e-07
3.67189e-07
3.66511e-07
3.65868e-07
3.65265e-07
3.64704e-07
3.64189e-07
3.63723e-07
3.6331e-07
3.62952e-07
3.62654e-07
3.62417e-07
3.62249e-07
3.62152e-07
3.62133e-07
3.62193e-07
3.6234e-07
3.62576e-07
3.6291e-07
3.63346e-07
3.63902e-07
3.64594e-07
3.6548e-07
3.91078e-07
3.91029e-07
3.9093e-07
3.90781e-07
3.90582e-07
3.90333e-07
3.90036e-07
3.89692e-07
3.89303e-07
3.8887e-07
3.88397e-07
3.87885e-07
3.87337e-07
3.86753e-07
3.86138e-07
3.85494e-07
3.84822e-07
3.84126e-07
3.83408e-07
3.8267e-07
3.81915e-07
3.81146e-07
3.80366e-07
3.79576e-07
3.78779e-07
3.77979e-07
3.77178e-07
3.76378e-07
3.75582e-07
3.74794e-07
3.74015e-07
3.73249e-07
3.72499e-07
3.71768e-07
3.71059e-07
3.70374e-07
3.69718e-07
3.69094e-07
3.68506e-07
3.67956e-07
3.67449e-07
3.6699e-07
3.66581e-07
3.66227e-07
3.65933e-07
3.65704e-07
3.65543e-07
3.65456e-07
3.65449e-07
3.65528e-07
3.657e-07
3.65972e-07
3.66348e-07
3.66839e-07
3.6745e-07
3.68192e-07
3.69074e-07
3.70112e-07
3.71326e-07
3.72757e-07
3.90124e-07
3.90079e-07
3.89989e-07
3.89853e-07
3.8967e-07
3.89442e-07
3.8917e-07
3.88854e-07
3.88497e-07
3.881e-07
3.87665e-07
3.87193e-07
3.86687e-07
3.86149e-07
3.85581e-07
3.84984e-07
3.84362e-07
3.83717e-07
3.83051e-07
3.82367e-07
3.81667e-07
3.80954e-07
3.8023e-07
3.79499e-07
3.78762e-07
3.78022e-07
3.77282e-07
3.76546e-07
3.75816e-07
3.75094e-07
3.74384e-07
3.7369e-07
3.73013e-07
3.72359e-07
3.71729e-07
3.71128e-07
3.70559e-07
3.70026e-07
3.69533e-07
3.69085e-07
3.68685e-07
3.68338e-07
3.6805e-07
3.67825e-07
3.67668e-07
3.67586e-07
3.67583e-07
3.67668e-07
3.67846e-07
3.68127e-07
3.68517e-07
3.69025e-07
3.6966e-07
3.70433e-07
3.71353e-07
3.72432e-07
3.73684e-07
3.75123e-07
3.76772e-07
3.78657e-07
3.89504e-07
3.89462e-07
3.89377e-07
3.89248e-07
3.89077e-07
3.88862e-07
3.88606e-07
3.88308e-07
3.87972e-07
3.87597e-07
3.87186e-07
3.86741e-07
3.86262e-07
3.85753e-07
3.85215e-07
3.8465e-07
3.84061e-07
3.8345e-07
3.82818e-07
3.8217e-07
3.81506e-07
3.8083e-07
3.80144e-07
3.79451e-07
3.78754e-07
3.78055e-07
3.77357e-07
3.76664e-07
3.75977e-07
3.75301e-07
3.74638e-07
3.73992e-07
3.73366e-07
3.72763e-07
3.72188e-07
3.71644e-07
3.71134e-07
3.70664e-07
3.70237e-07
3.69859e-07
3.69533e-07
3.69265e-07
3.6906e-07
3.68924e-07
3.68863e-07
3.68883e-07
3.68992e-07
3.69196e-07
3.69505e-07
3.69927e-07
3.70471e-07
3.71147e-07
3.71966e-07
3.72938e-07
3.74078e-07
3.75398e-07
3.76915e-07
3.78644e-07
3.80605e-07
3.82819e-07
3.89198e-07
3.89157e-07
3.89074e-07
3.8895e-07
3.88784e-07
3.88576e-07
3.88327e-07
3.88038e-07
3.87712e-07
3.87348e-07
3.86949e-07
3.86516e-07
3.86051e-07
3.85557e-07
3.85034e-07
3.84484e-07
3.83911e-07
3.83317e-07
3.82703e-07
3.82071e-07
3.81426e-07
3.80768e-07
3.80102e-07
3.79428e-07
3.78751e-07
3.78072e-07
3.77395e-07
3.76723e-07
3.76059e-07
3.75405e-07
3.74766e-07
3.74144e-07
3.73544e-07
3.72968e-07
3.7242e-07
3.71904e-07
3.71425e-07
3.70987e-07
3.70594e-07
3.70251e-07
3.69963e-07
3.69735e-07
3.69573e-07
3.69482e-07
3.6947e-07
3.69543e-07
3.69709e-07
3.69975e-07
3.70352e-07
3.70846e-07
3.7147e-07
3.72233e-07
3.73146e-07
3.74223e-07
3.75478e-07
3.76923e-07
3.78579e-07
3.80458e-07
3.82583e-07
3.84969e-07
3.89196e-07
3.89155e-07
3.89073e-07
3.88948e-07
3.88782e-07
3.88574e-07
3.88325e-07
3.88037e-07
3.8771e-07
3.87346e-07
3.86947e-07
3.86514e-07
3.8605e-07
3.85555e-07
3.85032e-07
3.84482e-07
3.83909e-07
3.83315e-07
3.827e-07
3.82069e-07
3.81424e-07
3.80766e-07
3.80099e-07
3.79426e-07
3.78748e-07
3.7807e-07
3.77393e-07
3.76721e-07
3.76056e-07
3.75403e-07
3.74763e-07
3.74141e-07
3.73541e-07
3.72964e-07
3.72417e-07
3.71901e-07
3.71422e-07
3.70983e-07
3.7059e-07
3.70247e-07
3.69959e-07
3.69731e-07
3.69568e-07
3.69478e-07
3.69465e-07
3.69538e-07
3.69703e-07
3.6997e-07
3.70346e-07
3.7084e-07
3.71464e-07
3.72226e-07
3.7314e-07
3.74216e-07
3.7547e-07
3.76915e-07
3.7857e-07
3.80449e-07
3.82574e-07
3.8496e-07
3.89499e-07
3.89457e-07
3.89372e-07
3.89243e-07
3.89072e-07
3.88857e-07
3.88601e-07
3.88303e-07
3.87967e-07
3.87592e-07
3.87181e-07
3.86735e-07
3.86257e-07
3.85748e-07
3.85209e-07
3.84645e-07
3.84055e-07
3.83444e-07
3.82812e-07
3.82163e-07
3.815e-07
3.80823e-07
3.80137e-07
3.79444e-07
3.78747e-07
3.78048e-07
3.7735e-07
3.76656e-07
3.75969e-07
3.75292e-07
3.74629e-07
3.73983e-07
3.73356e-07
3.72753e-07
3.72178e-07
3.71633e-07
3.71123e-07
3.70653e-07
3.70226e-07
3.69847e-07
3.6952e-07
3.69252e-07
3.69047e-07
3.6891e-07
3.68849e-07
3.68868e-07
3.68976e-07
3.6918e-07
3.69488e-07
3.69909e-07
3.70452e-07
3.71127e-07
3.71945e-07
3.72917e-07
3.74056e-07
3.75375e-07
3.76891e-07
3.78618e-07
3.80579e-07
3.82792e-07
3.90116e-07
3.90071e-07
3.89981e-07
3.89844e-07
3.89662e-07
3.89434e-07
3.89162e-07
3.88846e-07
3.88489e-07
3.88092e-07
3.87656e-07
3.87184e-07
3.86678e-07
3.8614e-07
3.85571e-07
3.84975e-07
3.84353e-07
3.83707e-07
3.83041e-07
3.82357e-07
3.81657e-07
3.80943e-07
3.80219e-07
3.79487e-07
3.78749e-07
3.78009e-07
3.7727e-07
3.76533e-07
3.75802e-07
3.7508e-07
3.7437e-07
3.73674e-07
3.72998e-07
3.72342e-07
3.71712e-07
3.7111e-07
3.70541e-07
3.70007e-07
3.69514e-07
3.69064e-07
3.68664e-07
3.68317e-07
3.68027e-07
3.67801e-07
3.67643e-07
3.6756e-07
3.67557e-07
3.6764e-07
3.67818e-07
3.68097e-07
3.68486e-07
3.68993e-07
3.69627e-07
3.70398e-07
3.71316e-07
3.72393e-07
3.73644e-07
3.75082e-07
3.76728e-07
3.78612e-07
3.91067e-07
3.91018e-07
3.90919e-07
3.9077e-07
3.90571e-07
3.90322e-07
3.90024e-07
3.8968e-07
3.89291e-07
3.88858e-07
3.88385e-07
3.87873e-07
3.87324e-07
3.86741e-07
3.86125e-07
3.8548e-07
3.84808e-07
3.84112e-07
3.83393e-07
3.82655e-07
3.819e-07
3.81131e-07
3.8035e-07
3.79559e-07
3.78763e-07
3.77962e-07
3.7716e-07
3.7636e-07
3.75563e-07
3.74774e-07
3.73995e-07
3.73228e-07
3.72478e-07
3.71745e-07
3.71035e-07
3.7035e-07
3.69693e-07
3.69068e-07
3.68479e-07
3.67928e-07
3.67421e-07
3.6696e-07
3.6655e-07
3.66195e-07
3.659e-07
3.65669e-07
3.65506e-07
3.65418e-07
3.65409e-07
3.65487e-07
3.65658e-07
3.65927e-07
3.66302e-07
3.6679e-07
3.67399e-07
3.68139e-07
3.69019e-07
3.70055e-07
3.71266e-07
3.72694e-07
3.92383e-07
3.92328e-07
3.92217e-07
3.9205e-07
3.91826e-07
3.91547e-07
3.91213e-07
3.90828e-07
3.90394e-07
3.89912e-07
3.89385e-07
3.88816e-07
3.88208e-07
3.87563e-07
3.86883e-07
3.86172e-07
3.85432e-07
3.84666e-07
3.83877e-07
3.83067e-07
3.82238e-07
3.81394e-07
3.80537e-07
3.7967e-07
3.78795e-07
3.77914e-07
3.77031e-07
3.76147e-07
3.75266e-07
3.74389e-07
3.7352e-07
3.72661e-07
3.71814e-07
3.70983e-07
3.7017e-07
3.69378e-07
3.68609e-07
3.67867e-07
3.67155e-07
3.66476e-07
3.65832e-07
3.65227e-07
3.64665e-07
3.64148e-07
3.6368e-07
3.63265e-07
3.62906e-07
3.62606e-07
3.62367e-07
3.62197e-07
3.62098e-07
3.62077e-07
3.62135e-07
3.62279e-07
3.62512e-07
3.62844e-07
3.63277e-07
3.6383e-07
3.64519e-07
3.65402e-07
3.9411e-07
3.94046e-07
3.93918e-07
3.93726e-07
3.93468e-07
3.93147e-07
3.92764e-07
3.92323e-07
3.91827e-07
3.91278e-07
3.90679e-07
3.90035e-07
3.89348e-07
3.88621e-07
3.87857e-07
3.87061e-07
3.86233e-07
3.85379e-07
3.84499e-07
3.83598e-07
3.82678e-07
3.81741e-07
3.80789e-07
3.79827e-07
3.78855e-07
3.77876e-07
3.76893e-07
3.75907e-07
3.74922e-07
3.7394e-07
3.72962e-07
3.71991e-07
3.71029e-07
3.7008e-07
3.69144e-07
3.68224e-07
3.67323e-07
3.66442e-07
3.65585e-07
3.64754e-07
3.6395e-07
3.63177e-07
3.62436e-07
3.6173e-07
3.61062e-07
3.60434e-07
3.59847e-07
3.59305e-07
3.58808e-07
3.58357e-07
3.57955e-07
3.57605e-07
3.57308e-07
3.57068e-07
3.56884e-07
3.56763e-07
3.56704e-07
3.56727e-07
3.56846e-07
3.57135e-07
3.96311e-07
3.96235e-07
3.96084e-07
3.95855e-07
3.95551e-07
3.95172e-07
3.94722e-07
3.94205e-07
3.93626e-07
3.92987e-07
3.92295e-07
3.91552e-07
3.90763e-07
3.89932e-07
3.89063e-07
3.88158e-07
3.87222e-07
3.86258e-07
3.85269e-07
3.84256e-07
3.83225e-07
3.82176e-07
3.81112e-07
3.80036e-07
3.78949e-07
3.77855e-07
3.76755e-07
3.75651e-07
3.74545e-07
3.7344e-07
3.72336e-07
3.71237e-07
3.70144e-07
3.69059e-07
3.67983e-07
3.66919e-07
3.65868e-07
3.64832e-07
3.63813e-07
3.62812e-07
3.61831e-07
3.60873e-07
3.59937e-07
3.59026e-07
3.5814e-07
3.57282e-07
3.56452e-07
3.5565e-07
3.54876e-07
3.54129e-07
3.53406e-07
3.52711e-07
3.52042e-07
3.51401e-07
3.50782e-07
3.50193e-07
3.49626e-07
3.49105e-07
3.4864e-07
3.48319e-07
3.99073e-07
3.98981e-07
3.98796e-07
3.98517e-07
3.98146e-07
3.97686e-07
3.97143e-07
3.96523e-07
3.95832e-07
3.95077e-07
3.94262e-07
3.93394e-07
3.92476e-07
3.91515e-07
3.90514e-07
3.89478e-07
3.8841e-07
3.87314e-07
3.86193e-07
3.8505e-07
3.83887e-07
3.82707e-07
3.81512e-07
3.80305e-07
3.79087e-07
3.7786e-07
3.76626e-07
3.75388e-07
3.74146e-07
3.72902e-07
3.71658e-07
3.70416e-07
3.69176e-07
3.6794e-07
3.6671e-07
3.65487e-07
3.64272e-07
3.63066e-07
3.61871e-07
3.60688e-07
3.59517e-07
3.58359e-07
3.57214e-07
3.56085e-07
3.54968e-07
3.53866e-07
3.52777e-07
3.51701e-07
3.50637e-07
3.49588e-07
3.48547e-07
3.47517e-07
3.46484e-07
3.4545e-07
3.44403e-07
3.43353e-07
3.4229e-07
3.4124e-07
3.40211e-07
3.39305e-07
4.02524e-07
4.02405e-07
4.02168e-07
4.01812e-07
4.01341e-07
4.00763e-07
4.00087e-07
3.99322e-07
3.9848e-07
3.97568e-07
3.96595e-07
3.95568e-07
3.94492e-07
3.93373e-07
3.92215e-07
3.91023e-07
3.89801e-07
3.88552e-07
3.8728e-07
3.85987e-07
3.84675e-07
3.83348e-07
3.82007e-07
3.80654e-07
3.79291e-07
3.77918e-07
3.76538e-07
3.75153e-07
3.73762e-07
3.72369e-07
3.70972e-07
3.69575e-07
3.68177e-07
3.6678e-07
3.65386e-07
3.63993e-07
3.62605e-07
3.6122e-07
3.59841e-07
3.58466e-07
3.57098e-07
3.55736e-07
3.5438e-07
3.5303e-07
3.51686e-07
3.50348e-07
3.49014e-07
3.47685e-07
3.46356e-07
3.45025e-07
3.43681e-07
3.42322e-07
3.40935e-07
3.39523e-07
3.38076e-07
3.36606e-07
3.35092e-07
3.33559e-07
3.32003e-07
3.30538e-07
4.0687e-07
4.06707e-07
4.06382e-07
4.05898e-07
4.05265e-07
4.04498e-07
4.03617e-07
4.02639e-07
4.0158e-07
4.00452e-07
3.99266e-07
3.98028e-07
3.96746e-07
3.95425e-07
3.94071e-07
3.92689e-07
3.91281e-07
3.89853e-07
3.88405e-07
3.86942e-07
3.85464e-07
3.83973e-07
3.82471e-07
3.80959e-07
3.79438e-07
3.77909e-07
3.76373e-07
3.74831e-07
3.73283e-07
3.7173e-07
3.70173e-07
3.68613e-07
3.6705e-07
3.65485e-07
3.63917e-07
3.62349e-07
3.6078e-07
3.5921e-07
3.5764e-07
3.5607e-07
3.54499e-07
3.52928e-07
3.51356e-07
3.49783e-07
3.48205e-07
3.46623e-07
3.45033e-07
3.43434e-07
3.41819e-07
3.40191e-07
3.3854e-07
3.36872e-07
3.35178e-07
3.33463e-07
3.31703e-07
3.29902e-07
3.28023e-07
3.2609e-07
3.24099e-07
3.22175e-07
4.12389e-07
4.12175e-07
4.11744e-07
4.11098e-07
4.10254e-07
4.0924e-07
4.08089e-07
4.06832e-07
4.05492e-07
4.04088e-07
4.02631e-07
4.0113e-07
3.99594e-07
3.98027e-07
3.96436e-07
3.94826e-07
3.93201e-07
3.91563e-07
3.89914e-07
3.88255e-07
3.86588e-07
3.84913e-07
3.83231e-07
3.81542e-07
3.79847e-07
3.78145e-07
3.76438e-07
3.74725e-07
3.73006e-07
3.71282e-07
3.69553e-07
3.67818e-07
3.66079e-07
3.64335e-07
3.62587e-07
3.60834e-07
3.59078e-07
3.57317e-07
3.55552e-07
3.53784e-07
3.52011e-07
3.50234e-07
3.48453e-07
3.46666e-07
3.44874e-07
3.43075e-07
3.41268e-07
3.39453e-07
3.37627e-07
3.35786e-07
3.33926e-07
3.3204e-07
3.30118e-07
3.28149e-07
3.26113e-07
3.24e-07
3.21798e-07
3.19518e-07
3.17162e-07
3.14827e-07
4.19089e-07
4.18656e-07
4.17869e-07
4.16779e-07
4.15454e-07
4.13965e-07
4.12371e-07
4.10709e-07
4.09001e-07
4.07258e-07
4.05487e-07
4.03692e-07
4.0188e-07
4.00057e-07
3.98228e-07
3.96397e-07
3.94564e-07
3.92729e-07
3.90893e-07
3.89056e-07
3.87215e-07
3.85372e-07
3.83525e-07
3.81673e-07
3.79817e-07
3.77955e-07
3.76087e-07
3.74212e-07
3.7233e-07
3.70441e-07
3.68544e-07
3.66638e-07
3.64725e-07
3.62803e-07
3.60873e-07
3.58935e-07
3.56988e-07
3.55033e-07
3.5307e-07
3.51096e-07
3.49116e-07
3.47125e-07
3.45127e-07
3.43116e-07
3.41099e-07
3.39065e-07
3.37025e-07
3.34963e-07
3.32895e-07
3.30797e-07
3.28693e-07
3.26551e-07
3.24405e-07
3.2221e-07
3.20017e-07
3.17762e-07
3.15516e-07
3.13191e-07
3.10892e-07
3.08513e-07
4.30823e-07
4.30073e-07
4.28659e-07
4.26707e-07
4.24423e-07
4.22002e-07
4.19572e-07
4.17182e-07
4.14835e-07
4.1252e-07
4.10226e-07
4.07953e-07
4.05707e-07
4.03492e-07
4.01311e-07
3.99162e-07
3.97039e-07
3.94939e-07
3.92857e-07
3.90788e-07
3.8873e-07
3.8668e-07
3.84635e-07
3.82593e-07
3.80551e-07
3.78507e-07
3.7646e-07
3.74408e-07
3.72349e-07
3.70282e-07
3.68208e-07
3.66123e-07
3.64029e-07
3.61924e-07
3.5981e-07
3.57683e-07
3.55547e-07
3.53397e-07
3.51239e-07
3.49065e-07
3.46886e-07
3.44689e-07
3.42489e-07
3.40268e-07
3.38049e-07
3.35803e-07
3.33569e-07
3.31298e-07
3.29054e-07
3.26762e-07
3.2452e-07
3.22211e-07
3.19993e-07
3.17678e-07
3.15519e-07
3.13211e-07
3.11164e-07
3.08869e-07
3.06972e-07
3.04597e-07
4.39564e-07
4.37837e-07
4.35191e-07
4.32066e-07
4.28849e-07
4.25755e-07
4.22831e-07
4.20044e-07
4.17342e-07
4.14695e-07
4.12097e-07
4.09553e-07
4.07071e-07
4.04649e-07
4.02282e-07
3.9996e-07
3.97675e-07
3.95418e-07
3.93183e-07
3.90965e-07
3.88761e-07
3.86566e-07
3.84376e-07
3.82189e-07
3.8e-07
3.77808e-07
3.75611e-07
3.73405e-07
3.71191e-07
3.68966e-07
3.66729e-07
3.6448e-07
3.62218e-07
3.59942e-07
3.57654e-07
3.5535e-07
3.53035e-07
3.50704e-07
3.48363e-07
3.46004e-07
3.43638e-07
3.41251e-07
3.38862e-07
3.36447e-07
3.34038e-07
3.31592e-07
3.29165e-07
3.26685e-07
3.24249e-07
3.21731e-07
3.19307e-07
3.16752e-07
3.14392e-07
3.11819e-07
3.09659e-07
3.07136e-07
3.05509e-07
3.03115e-07
3.02631e-07
2.99949e-07
4.87607e-07
4.73484e-07
4.59717e-07
4.4914e-07
4.41717e-07
4.36325e-07
4.31874e-07
4.27795e-07
4.23919e-07
4.20254e-07
4.16837e-07
4.13672e-07
4.10726e-07
4.07949e-07
4.05293e-07
4.02727e-07
4.00228e-07
3.97783e-07
3.95381e-07
3.93014e-07
3.90674e-07
3.88352e-07
3.86041e-07
3.83737e-07
3.81435e-07
3.79131e-07
3.76822e-07
3.74506e-07
3.7218e-07
3.69843e-07
3.67493e-07
3.65131e-07
3.62754e-07
3.60363e-07
3.57957e-07
3.55538e-07
3.53103e-07
3.50656e-07
3.48194e-07
3.4572e-07
3.43233e-07
3.40733e-07
3.38222e-07
3.35698e-07
3.33163e-07
3.30614e-07
3.28053e-07
3.25475e-07
3.22885e-07
3.20267e-07
3.17643e-07
3.1496e-07
3.12302e-07
3.09494e-07
3.06841e-07
3.03701e-07
3.01338e-07
2.96923e-07
2.96608e-07
2.86002e-07
3.26076e-07
2.75502e-07
2.54639e-07
2.37067e-07
2.19483e-07
2.0172e-07
1.81919e-07
1.60732e-07
1.3603e-07
1.09414e-07
7.84614e-08
4.6031e-08
9.14299e-09
-2.78908e-08
-6.88254e-08
-1.07798e-07
-1.49921e-07
-1.87661e-07
-2.27912e-07
-2.6145e-07
-2.97031e-07
-3.24045e-07
-3.52932e-07
-3.71301e-07
-3.93133e-07
-4.01166e-07
-4.19619e-07
-4.141e-07
-4.37902e-07
-5.19446e-07
3.12194e-07
2.57061e-07
2.43197e-07
2.28193e-07
2.1128e-07
1.93927e-07
1.74434e-07
1.53393e-07
1.28885e-07
1.02625e-07
7.23041e-08
4.07301e-08
5.01896e-09
-3.06877e-08
-7.00884e-08
-1.07589e-07
-1.47913e-07
-1.84205e-07
-2.22674e-07
-2.55322e-07
-2.89952e-07
-3.16303e-07
-3.4594e-07
-3.63799e-07
-3.87615e-07
-3.9535e-07
-4.13527e-07
-4.16464e-07
-4.16986e-07
-5.58658e-07
3.00013e-07
2.54601e-07
2.41787e-07
2.27251e-07
2.09843e-07
1.91503e-07
1.71491e-07
1.50106e-07
1.25552e-07
9.91585e-08
6.90753e-08
3.75952e-08
2.44607e-09
-3.2906e-08
-7.14208e-08
-1.08325e-07
-1.4772e-07
-1.83645e-07
-2.21716e-07
-2.53869e-07
-2.88293e-07
-3.14694e-07
-3.43546e-07
-3.63013e-07
-3.85012e-07
-3.98446e-07
-4.12084e-07
-4.30286e-07
-4.06224e-07
-5.07635e-07
2.89848e-07
2.50511e-07
2.35624e-07
2.21598e-07
2.049e-07
1.87147e-07
1.67333e-07
1.45777e-07
1.21282e-07
9.47236e-08
6.4973e-08
3.35013e-08
-8.89338e-10
-3.60449e-08
-7.33626e-08
-1.10066e-07
-1.47995e-07
-1.83863e-07
-2.1998e-07
-2.52799e-07
-2.85025e-07
-3.1359e-07
-3.40181e-07
-3.63411e-07
-3.82287e-07
-4.02578e-07
-4.07923e-07
-4.38284e-07
-4.0577e-07
-4.76396e-07
2.80037e-07
2.47934e-07
2.32168e-07
2.19262e-07
2.03121e-07
1.84597e-07
1.64268e-07
1.42139e-07
1.17605e-07
9.06286e-08
6.11317e-08
2.93711e-08
-4.31631e-09
-3.96007e-08
-7.57286e-08
-1.12539e-07
-1.48859e-07
-1.85041e-07
-2.19293e-07
-2.53227e-07
-2.83483e-07
-3.14116e-07
-3.38161e-07
-3.65452e-07
-3.80201e-07
-4.06337e-07
-4.06481e-07
-4.38177e-07
-4.15747e-07
-4.50905e-07
2.71453e-07
2.46219e-07
2.29604e-07
2.16248e-07
2.00381e-07
1.81755e-07
1.61242e-07
1.3862e-07
1.13968e-07
8.65425e-08
5.71802e-08
2.50707e-08
-8.06967e-09
-4.3555e-08
-7.86496e-08
-1.15618e-07
-1.50453e-07
-1.87013e-07
-2.19503e-07
-2.54335e-07
-2.82607e-07
-3.14894e-07
-3.36988e-07
-3.66674e-07
-3.80125e-07
-4.07561e-07
-4.09652e-07
-4.35271e-07
-4.30077e-07
-4.44861e-07
2.64428e-07
2.44719e-07
2.27966e-07
2.13784e-07
1.98041e-07
1.79341e-07
1.58575e-07
1.35378e-07
1.10428e-07
8.25099e-08
5.30897e-08
2.06459e-08
-1.21968e-08
-4.77876e-08
-8.2175e-08
-1.19071e-07
-1.5287e-07
-1.89361e-07
-2.20724e-07
-2.55626e-07
-2.83044e-07
-3.15572e-07
-3.37681e-07
-3.67254e-07
-3.82673e-07
-4.08014e-07
-4.16691e-07
-4.35195e-07
-4.40778e-07
-4.49526e-07
2.59178e-07
2.43318e-07
2.27065e-07
2.11927e-07
1.9594e-07
1.77089e-07
1.55998e-07
1.32247e-07
1.0682e-07
7.84444e-08
4.87503e-08
1.60814e-08
-1.67581e-08
-5.22514e-08
-8.63297e-08
-1.22801e-07
-1.56118e-07
-1.91954e-07
-2.22966e-07
-2.57063e-07
-2.84737e-07
-3.16262e-07
-3.39844e-07
-3.67756e-07
-3.8663e-07
-4.09177e-07
-4.23358e-07
-4.38566e-07
-4.48993e-07
-4.57697e-07
2.55788e-07
2.42023e-07
2.2642e-07
2.10635e-07
1.94086e-07
1.74925e-07
1.53411e-07
1.2914e-07
1.03096e-07
7.42914e-08
4.4137e-08
1.13377e-08
-2.17395e-08
-5.69684e-08
-9.10503e-08
-1.2683e-07
-1.60074e-07
-1.94862e-07
-2.26017e-07
-2.58819e-07
-2.87239e-07
-3.17307e-07
-3.42558e-07
-3.68907e-07
-3.90491e-07
-4.11798e-07
-4.2909e-07
-4.44342e-07
-4.56719e-07
-4.66995e-07
2.54024e-07
2.40894e-07
2.2585e-07
2.09712e-07
1.9244e-07
1.72783e-07
1.50723e-07
1.25943e-07
9.91974e-08
6.99621e-08
3.9234e-08
6.33241e-09
-2.71039e-08
-6.20108e-08
-9.62314e-08
-1.31242e-07
-1.64533e-07
-1.98201e-07
-2.29539e-07
-2.61063e-07
-2.90045e-07
-3.18931e-07
-3.45265e-07
-3.70866e-07
-3.93963e-07
-4.15348e-07
-4.34209e-07
-4.50579e-07
-4.64529e-07
-4.76616e-07
2.53415e-07
2.40078e-07
2.2525e-07
2.08871e-07
1.90871e-07
1.70579e-07
1.47853e-07
1.22531e-07
9.50587e-08
6.53564e-08
3.402e-08
9.74809e-10
-3.28266e-08
-6.74605e-08
-1.01789e-07
-1.36112e-07
-1.69341e-07
-2.02042e-07
-2.33323e-07
-2.63843e-07
-2.92952e-07
-3.21098e-07
-3.47873e-07
-3.73294e-07
-3.97175e-07
-4.19127e-07
-4.39154e-07
-4.5684e-07
-4.72458e-07
-4.8633e-07
2.53384e-07
2.39616e-07
2.24629e-07
2.07914e-07
1.89205e-07
1.68197e-07
1.44727e-07
1.18796e-07
9.05991e-08
6.0377e-08
2.8444e-08
-4.81803e-09
-3.89333e-08
-7.33868e-08
-1.07719e-07
-1.41486e-07
-1.74477e-07
-2.06396e-07
-2.37351e-07
-2.67097e-07
-2.95982e-07
-3.23634e-07
-3.50474e-07
-3.75913e-07
-4.00302e-07
-4.22923e-07
-4.44015e-07
-4.63017e-07
-4.80282e-07
-4.96006e-07
2.53528e-07
2.39365e-07
2.23944e-07
2.06715e-07
1.87283e-07
1.6552e-07
1.41265e-07
1.1465e-07
8.57242e-08
5.49259e-08
2.24169e-08
-1.11323e-08
-4.55068e-08
-7.98605e-08
-1.14099e-07
-1.47411e-07
-1.80023e-07
-2.11264e-07
-2.41716e-07
-2.70778e-07
-2.99243e-07
-3.26446e-07
-3.53179e-07
-3.78621e-07
-4.03424e-07
-4.26638e-07
-4.48792e-07
-4.68989e-07
-4.87936e-07
-5.05358e-07
2.53597e-07
2.39117e-07
2.2311e-07
2.05207e-07
1.85011e-07
1.62458e-07
1.37384e-07
1.10008e-07
8.03291e-08
4.88941e-08
1.58167e-08
-1.8078e-08
-5.26756e-08
-8.69839e-08
-1.21062e-07
-1.53966e-07
-1.86106e-07
-2.16704e-07
-2.46533e-07
-2.74916e-07
-3.02827e-07
-3.29545e-07
-3.56036e-07
-3.81415e-07
-4.06516e-07
-4.30256e-07
-4.5338e-07
-4.74733e-07
-4.95282e-07
-5.14388e-07
2.53497e-07
2.38676e-07
2.22039e-07
2.03375e-07
1.82356e-07
1.5895e-07
1.33002e-07
1.04776e-07
7.42906e-08
4.21501e-08
8.48932e-09
-2.58004e-08
-6.06071e-08
-9.49e-08
-1.28775e-07
-1.61277e-07
-1.92879e-07
-2.22812e-07
-2.51927e-07
-2.79575e-07
-3.06812e-07
-3.32957e-07
-3.59064e-07
-3.84275e-07
-4.09528e-07
-4.33705e-07
-4.57679e-07
-4.80145e-07
-5.0223e-07
-5.22988e-07
2.53284e-07
2.38002e-07
2.20715e-07
2.01239e-07
1.79318e-07
1.5495e-07
1.28024e-07
9.88342e-08
6.74582e-08
3.453e-08
2.4741e-10
-3.44837e-08
-6.94993e-08
-1.03789e-07
-1.37424e-07
-1.69501e-07
-2.00495e-07
-2.29706e-07
-2.58008e-07
-2.84828e-07
-3.11257e-07
-3.367e-07
-3.62255e-07
-3.87153e-07
-4.1237e-07
-4.36865e-07
-4.61522e-07
-4.85055e-07
-5.08582e-07
-5.31011e-07
2.53138e-07
2.3718e-07
2.19184e-07
1.98828e-07
1.75878e-07
1.50384e-07
1.2232e-07
9.20186e-08
5.96393e-08
2.58272e-08
-9.13192e-09
-4.43475e-08
-7.95729e-08
-1.13852e-07
-1.47199e-07
-1.78801e-07
-2.09103e-07
-2.37503e-07
-2.64877e-07
-2.90738e-07
-3.16212e-07
-3.40777e-07
-3.6559e-07
-3.89969e-07
-4.14933e-07
-4.39558e-07
-4.64694e-07
-4.89205e-07
-5.14028e-07
-5.38196e-07
2.53313e-07
2.36378e-07
2.17498e-07
1.96098e-07
1.71926e-07
1.45089e-07
1.15685e-07
8.40961e-08
5.05804e-08
1.57828e-08
-1.99114e-08
-5.56429e-08
-9.10669e-08
-1.25305e-07
-1.58298e-07
-1.89347e-07
-2.18848e-07
-2.46324e-07
-2.72632e-07
-2.97378e-07
-3.21725e-07
-3.452e-07
-3.69064e-07
-3.92649e-07
-4.17129e-07
-4.41581e-07
-4.66987e-07
-4.92229e-07
-5.18225e-07
-5.44009e-07
2.53934e-07
2.35709e-07
2.1561e-07
1.92859e-07
1.67191e-07
1.38763e-07
1.07803e-07
7.4747e-08
3.99556e-08
4.07681e-09
-3.24026e-08
-6.86604e-08
-1.04253e-07
-1.38394e-07
-1.70942e-07
-2.01339e-07
-2.29908e-07
-2.56328e-07
-2.81401e-07
-3.04868e-07
-3.27879e-07
-3.50039e-07
-3.72696e-07
-3.9518e-07
-4.1888e-07
-4.42777e-07
-4.68158e-07
-4.9374e-07
-5.20676e-07
-5.47752e-07
2.54779e-07
2.35005e-07
2.132e-07
1.88678e-07
1.61203e-07
1.30946e-07
9.82254e-08
6.35308e-08
2.73318e-08
-9.70837e-09
-4.70066e-08
-8.37753e-08
-1.19485e-07
-1.53447e-07
-1.85442e-07
-2.15065e-07
-2.42553e-07
-2.6777e-07
-2.9141e-07
-3.13413e-07
-3.34827e-07
-3.55432e-07
-3.76549e-07
-3.97601e-07
-4.20123e-07
-4.43016e-07
-4.67953e-07
-4.93295e-07
-5.20778e-07
-5.48467e-07
2.55068e-07
2.33465e-07
2.09618e-07
1.82978e-07
1.53387e-07
1.21047e-07
8.63528e-08
4.98525e-08
1.21215e-08
-2.61447e-08
-6.42774e-08
-1.01515e-07
-1.37267e-07
-1.70934e-07
-2.02249e-07
-2.30948e-07