/*--------------------------------*- C++ -*----------------------------------*\
| =========                 |                                                 |
| \\      /  F ield         | OpenFOAM: The Open Source CFD Toolbox           |
|  \\    /   O peration     | Version:  2312                                  |
|   \\  /    A nd           | Website:  www.openfoam.com                      |
|    \\/     M anipulation  |                                                 |
\*---------------------------------------------------------------------------*/
FoamFile
{
    version     2.0;
    format      ascii;
    arch        "LSB;label=32;scalar=64";
    class       surfaceScalarField;
    location    "52000";
    object      phi;
}
// * * * * * * * * * * * * * * * * * * * * * * * * * * * * * * * * * * * * * //

dimensions      [0 3 -1 0 0 0 0];

oriented        oriented;

internalField   nonuniform List<scalar> 
21240
(
0.000664974
1.69227e-06
0.000661072
3.90244e-06
0.000655751
5.32092e-06
0.000649515
6.23646e-06
0.000642639
6.87516e-06
0.000635268
7.37173e-06
0.000627491
7.77661e-06
0.000619388
8.10288e-06
0.000611032
8.35654e-06
0.000602485
8.54658e-06
0.0005938
8.68528e-06
0.000585015
8.78496e-06
0.00057616
8.85524e-06
0.000567257
8.90245e-06
0.000558327
8.93039e-06
0.000549385
8.94152e-06
0.000540448
8.93769e-06
0.000531527
8.92044e-06
0.000522636
8.89111e-06
0.000513785
8.85078e-06
0.000504985
8.80025e-06
0.000496245
8.74012e-06
0.000487574
8.6708e-06
0.000478981
8.5926e-06
0.000470476
8.50573e-06
0.000462065
8.41032e-06
0.000453759
8.30651e-06
0.000445565
8.19428e-06
0.000437491
8.07378e-06
0.000429546
7.94486e-06
0.000421738
7.80774e-06
0.000414076
7.66205e-06
0.000406568
7.50832e-06
0.000399222
7.34577e-06
0.000392047
7.1755e-06
0.000385051
6.99597e-06
0.000378241
6.80937e-06
0.000371628
6.61275e-06
0.000365218
6.41033e-06
0.000359022
6.19643e-06
0.000353043
5.97906e-06
0.000347295
5.74749e-06
0.000341779
5.51663e-06
0.000336512
5.26639e-06
0.000331488
5.02433e-06
0.000326735
4.7531e-06
0.000322231
4.50343e-06
0.000318025
4.20606e-06
0.000314071
3.95451e-06
0.000310451
3.61961e-06
0.000307075
3.37652e-06
0.000304097
2.97772e-06
0.000301331
2.76602e-06
0.000299095
2.23558e-06
0.00029698
2.11569e-06
0.000295739
1.24044e-06
0.000294266
1.47311e-06
0.000294483
-2.16611e-07
0.000293327
1.15544e-06
-3.20776e-06
0.000296535
0.000667556
8.02995e-07
0.00066912
2.33798e-06
0.000670854
3.58758e-06
0.000672525
4.5656e-06
0.000674053
5.34646e-06
0.000675426
5.99891e-06
0.000676638
6.56462e-06
0.000677679
7.06197e-06
0.000678538
7.49801e-06
0.000679207
7.8772e-06
0.000679687
8.20514e-06
0.000679983
8.48877e-06
0.000680103
8.7351e-06
0.000680056
8.94997e-06
0.000679849
9.13773e-06
0.000679489
9.30128e-06
0.000678984
9.44279e-06
0.00067834
9.56382e-06
0.000677566
9.66582e-06
0.000676667
9.74985e-06
0.00067565
9.81703e-06
0.000674522
9.8679e-06
0.000673289
9.90331e-06
0.000671959
9.9233e-06
0.000670536
9.92862e-06
0.000669027
9.91885e-06
0.000667439
9.8949e-06
0.000665777
9.85581e-06
0.000664048
9.80287e-06
0.000662259
9.7344e-06
0.000660414
9.65247e-06
0.000658522
9.55421e-06
0.000656587
9.44313e-06
0.000654618
9.31447e-06
0.00065262
9.17411e-06
0.000650602
9.01421e-06
0.000648566
8.84462e-06
0.000646527
8.65244e-06
0.000644483
8.45411e-06
0.000642451
8.22827e-06
0.000640428
8.00228e-06
0.000638434
7.74084e-06
0.000636462
7.48929e-06
0.000634539
7.18926e-06
0.000632647
6.91581e-06
0.000630828
6.57236e-06
0.000629049
6.28308e-06
0.000627366
5.88829e-06
0.000625728
5.5932e-06
0.000624213
5.13417e-06
0.00062274
4.84962e-06
0.000621412
4.30586e-06
0.00062012
4.05829e-06
0.000618956
3.39902e-06
0.000617842
3.22939e-06
0.000616668
2.41503e-06
0.000615763
2.3784e-06
0.000614155
1.39066e-06
0.000613774
1.53651e-06
4.43531e-07
0.000610123
0.000666951
5.18726e-07
0.000667819
1.47037e-06
0.000669058
2.34766e-06
0.000670483
3.14067e-06
0.000671985
3.84527e-06
0.000673514
4.46908e-06
0.000675055
5.02434e-06
0.000676595
5.52215e-06
0.000678122
5.97032e-06
0.000679626
6.37376e-06
0.000681095
6.73602e-06
0.000682523
7.06034e-06
0.000683908
7.35027e-06
0.000685249
7.60926e-06
0.000686546
7.84061e-06
0.0006878
8.04692e-06
0.000689013
8.23044e-06
0.000690184
8.3927e-06
0.000691314
8.5352e-06
0.000692405
8.65883e-06
0.000693458
8.76477e-06
0.000694472
8.85342e-06
0.00069545
8.92579e-06
0.000696391
8.98179e-06
0.000697297
9.02241e-06
0.000698169
9.04701e-06
0.000699007
9.05674e-06
0.000699813
9.05037e-06
0.000700586
9.02944e-06
0.000701329
8.99192e-06
0.000702041
8.94013e-06
0.000702724
8.87088e-06
0.00070338
8.78773e-06
0.000704008
8.68586e-06
0.000704612
8.57073e-06
0.000705191
8.43511e-06
0.000705748
8.28736e-06
0.000706284
8.11671e-06
0.000706802
7.93581e-06
0.000707302
7.72875e-06
0.00070779
7.51436e-06
0.000708261
7.26941e-06
0.000708729
7.02156e-06
0.000709181
6.73724e-06
0.00070964
6.4564e-06
0.000710081
6.13135e-06
0.000710546
5.81855e-06
0.000710982
5.45184e-06
0.000711467
5.1087e-06
0.0007119
4.70031e-06
0.000712421
4.32876e-06
0.000712846
3.88076e-06
0.000713422
3.48255e-06
0.000713819
3.00233e-06
0.00071447
2.57867e-06
0.000714798
2.08668e-06
0.000715539
1.63744e-06
0.000715746
1.18385e-06
0.000716585
6.97293e-07
3.83851e-07
0.000716645
0.000666854
3.31588e-07
0.000667309
1.01564e-06
0.000667972
1.68439e-06
0.000668795
2.31712e-06
0.000669736
2.90464e-06
0.000670761
3.44404e-06
0.000671848
3.93688e-06
0.000672984
4.38681e-06
0.000674156
4.79775e-06
0.000675357
5.17292e-06
0.000676578
5.51484e-06
0.000677813
5.82555e-06
0.000679056
6.10705e-06
0.000680304
6.36129e-06
0.000681555
6.59031e-06
0.000682806
6.79592e-06
0.000684056
6.97982e-06
0.000685306
7.14332e-06
0.000686553
7.28763e-06
0.000687799
7.41359e-06
0.000689041
7.5221e-06
0.000690281
7.61367e-06
0.000691518
7.68897e-06
0.000692751
7.74824e-06
0.000693982
7.792e-06
0.000695209
7.82022e-06
0.000696432
7.83332e-06
0.000697651
7.83103e-06
0.000698867
7.8137e-06
0.000700078
7.78089e-06
0.000701285
7.73288e-06
0.000702487
7.66912e-06
0.000703685
7.58981e-06
0.000704876
7.49439e-06
0.000706064
7.38285e-06
0.000707245
7.25486e-06
0.000708422
7.10993e-06
0.00070959
6.94839e-06
0.000710757
6.7687e-06
0.000711914
6.57267e-06
0.000713071
6.35663e-06
0.000714215
6.12539e-06
0.000715366
5.87113e-06
0.000716499
5.60437e-06
0.000717645
5.3096e-06
0.000718769
5.0078e-06
0.000719918
4.66959e-06
0.000721035
4.33463e-06
0.000722195
3.94928e-06
0.000723309
3.58584e-06
0.000724489
3.14881e-06
0.000725603
2.76639e-06
0.000726814
2.27184e-06
0.000727929
1.88734e-06
0.000729181
1.32651e-06
0.0007303
9.67992e-07
0.000731608
3.29442e-07
0.000732746
4.60812e-08
0.000734191
-7.47602e-07
-9.14944e-07
0.000735489
0.000666738
2.59857e-07
0.00066697
7.84396e-07
0.000667356
1.2981e-06
0.000667879
1.79397e-06
0.000668518
2.2661e-06
0.000669251
2.7109e-06
0.000670061
3.12692e-06
0.000670933
3.51424e-06
0.000671857
3.87374e-06
0.000672824
4.20654e-06
0.000673825
4.51373e-06
0.000674854
4.79629e-06
0.000675906
5.05516e-06
0.000676976
5.29132e-06
0.00067806
5.50578e-06
0.000679157
5.69958e-06
0.000680263
5.87372e-06
0.000681377
6.0291e-06
0.000682498
6.16649e-06
0.000683625
6.2866e-06
0.000684757
6.38997e-06
0.000685894
6.47713e-06
0.000687034
6.54842e-06
0.000688178
6.60426e-06
0.000689326
6.64475e-06
0.000690476
6.67029e-06
0.000691628
6.68069e-06
0.000692783
6.67641e-06
0.00069394
6.65691e-06
0.000695098
6.62283e-06
0.000696257
6.57317e-06
0.000697418
6.50894e-06
0.000698579
6.42845e-06
0.00069974
6.33346e-06
0.000700902
6.22113e-06
0.000702062
6.09455e-06
0.000703223
5.94905e-06
0.000704381
5.78995e-06
0.00070554
5.60964e-06
0.000706696
5.4171e-06
0.000707853
5.19995e-06
0.000709005
4.97322e-06
0.000710159
4.71684e-06
0.000711308
4.45562e-06
0.00071246
4.15709e-06
0.000713606
3.86187e-06
0.000714758
3.5175e-06
0.000715903
3.18982e-06
0.000717058
2.79421e-06
0.000718207
2.43667e-06
0.000719375
1.98131e-06
0.000720543
1.59835e-06
0.000721744
1.07038e-06
0.000722962
6.69896e-07
0.000724245
4.34461e-08
0.000725549
-3.36042e-07
0.000726919
-1.04112e-06
0.000728368
-1.40291e-06
0.000729887
-2.26644e-06
-2.57936e-06
0.000731552
0.000666724
2.02544e-07
0.000666899
6.09392e-07
0.000667184
1.01349e-06
0.000667569
1.40832e-06
0.000668045
1.79017e-06
0.0006686
2.1561e-06
0.000669223
2.50406e-06
0.000669904
2.83283e-06
0.000670636
3.14184e-06
0.000671412
3.43095e-06
0.000672225
3.70026e-06
0.000673071
3.95002e-06
0.000673946
4.1806e-06
0.000674845
4.39243e-06
0.000675765
4.58598e-06
0.000676703
4.76178e-06
0.000677656
4.92033e-06
0.000678623
5.06218e-06
0.000679602
5.18775e-06
0.000680591
5.29755e-06
0.000681589
5.39187e-06
0.000682595
5.47113e-06
0.000683608
5.53545e-06
0.000684627
5.58524e-06
0.000685651
5.62043e-06
0.00068668
5.64142e-06
0.000687713
5.64789e-06
0.000688749
5.64034e-06
0.000689788
5.61811e-06
0.000690828
5.58194e-06
0.000691871
5.53065e-06
0.000692915
5.4654e-06
0.000693959
5.38433e-06
0.000695003
5.2893e-06
0.000696047
5.17737e-06
0.000697089
5.05161e-06
0.000698131
4.90741e-06
0.000699171
4.74978e-06
0.000700209
4.57152e-06
0.000701246
4.38077e-06
0.000702279
4.16624e-06
0.000703312
3.94104e-06
0.000704341
3.68748e-06
0.00070537
3.42649e-06
0.000706397
3.13034e-06
0.000707426
2.83232e-06
0.000708455
2.48916e-06
0.000709491
2.15372e-06
0.000710526
1.75872e-06
0.000711575
1.38764e-06
0.000712621
9.35763e-07
0.000713685
5.34048e-07
0.000714731
2.49698e-08
0.000715824
-4.23843e-07
0.000716907
-1.03911e-06
0.00071807
-1.4994e-06
0.000719246
-2.21675e-06
0.000720529
-2.68574e-06
0.000721806
-3.54368e-06
-4.00038e-06
0.000723227
0.000666708
1.60829e-07
0.000666834
4.84211e-07
0.00066704
8.06696e-07
0.000667325
1.12372e-06
0.000667682
1.43275e-06
0.000668107
1.73164e-06
0.000668592
2.01868e-06
0.000669132
2.29264e-06
0.000669722
2.55274e-06
0.000670354
2.79865e-06
0.000671025
3.029e-06
0.000671731
3.2439e-06
0.000672468
3.44348e-06
0.000673233
3.62785e-06
0.000674022
3.79713e-06
0.000674832
3.95151e-06
0.000675661
4.09118e-06
0.000676507
4.21642e-06
0.000677367
4.32741e-06
0.00067824
4.42443e-06
0.000679125
4.5076e-06
0.000680019
4.57718e-06
0.000680921
4.63319e-06
0.00068183
4.67587e-06
0.000682746
4.70511e-06
0.000683666
4.72118e-06
0.00068459
4.72376e-06
0.000685517
4.71319e-06
0.000686446
4.68892e-06
0.000687377
4.65142e-06
0.000688308
4.59978e-06
0.000689238
4.53476e-06
0.000690168
4.45493e-06
0.000691095
4.36152e-06
0.000692021
4.25234e-06
0.000692943
4.12941e-06
0.000693861
3.98937e-06
0.000694775
3.83551e-06
0.000695684
3.66272e-06
0.000696588
3.47631e-06
0.000697486
3.26843e-06
0.000698379
3.04765e-06
0.000699265
2.80189e-06
0.000700147
2.54489e-06
0.000701019
2.25802e-06
0.000701888
1.96297e-06
0.000702747
1.63058e-06
0.000703606
1.29473e-06
0.000704455
9.09595e-07
0.000705314
5.28354e-07
0.000706172
7.81984e-08
0.000707049
-3.42768e-07
0.000707928
-8.54286e-07
0.000708829
-1.32534e-06
0.000709715
-1.9246e-06
0.000710659
-2.4431e-06
0.000711589
-3.1468e-06
0.000712612
-3.70878e-06
0.000713612
-4.54423e-06
-5.1394e-06
0.000714751
0.000666699
1.28808e-07
0.000666795
3.87425e-07
0.000666956
6.45691e-07
0.00066718
9.00412e-07
0.000667463
1.14985e-06
0.000667802
1.39246e-06
0.000668194
1.62693e-06
0.000668634
1.85217e-06
0.00066912
2.06729e-06
0.000669647
2.27157e-06
0.000670211
2.46439e-06
0.00067081
2.64536e-06
0.000671439
2.81423e-06
0.000672096
2.97092e-06
0.000672778
3.11535e-06
0.000673482
3.24751e-06
0.000674206
3.36739e-06
0.000674947
3.47504e-06
0.000675704
3.57049e-06
0.000676474
3.65384e-06
0.000677257
3.7251e-06
0.00067805
3.78436e-06
0.000678851
3.83161e-06
0.00067966
3.86691e-06
0.000680475
3.89017e-06
0.000681295
3.90147e-06
0.000682118
3.90058e-06
0.000682944
3.88761e-06
0.00068377
3.86219e-06
0.000684597
3.82448e-06
0.000685423
3.77389e-06
0.000686247
3.71069e-06
0.000687068
3.63399e-06
0.000687885
3.54429e-06
0.000688698
3.44026e-06
0.000689504
3.32274e-06
0.000690304
3.1898e-06
0.000691096
3.04287e-06
0.00069188
2.87906e-06
0.000692656
2.70075e-06
0.00069342
2.50367e-06
0.000694176
2.29168e-06
0.00069492
2.05833e-06
0.000695655
1.8099e-06
0.000696376
1.53664e-06
0.000697091
1.24866e-06
0.00069779
9.31353e-07
0.000698484
6.01093e-07
0.000699157
2.36362e-07
0.000699826
-1.40871e-07
0.000700475
-5.70492e-07
0.000701136
-1.00364e-06
0.000701778
-1.49648e-06
0.000702439
-1.98659e-06
0.000703073
-2.55884e-06
0.000703744
-3.11357e-06
0.000704378
-3.7815e-06
0.000705075
-4.40491e-06
0.000705718
-5.18778e-06
-5.88014e-06
0.000706459
0.000666693
1.02648e-07
0.000666772
3.08597e-07
0.000666903
5.14416e-07
0.000667086
7.17774e-07
0.000667318
9.1744e-07
0.000667598
1.1123e-06
0.000667924
1.30134e-06
0.000668292
1.48367e-06
0.000668701
1.65854e-06
0.000669147
1.82529e-06
0.000669628
1.98342e-06
0.000670141
2.13248e-06
0.000670683
2.27215e-06
0.000671252
2.40217e-06
0.000671845
2.52237e-06
0.00067246
2.6326e-06
0.000673094
2.73276e-06
0.000673747
2.82276e-06
0.000674415
2.90256e-06
0.000675096
2.9721e-06
0.00067579
3.03135e-06
0.000676494
3.08029e-06
0.000677207
3.11883e-06
0.000677927
3.14697e-06
0.000678653
3.1646e-06
0.000679382
3.17166e-06
0.000680115
3.16801e-06
0.000680849
3.15358e-06
0.000681583
3.12813e-06
0.000682316
3.09158e-06
0.000683046
3.0436e-06
0.000683773
2.98408e-06
0.000684494
2.91258e-06
0.000685209
2.82901e-06
0.000685917
2.73272e-06
0.000686616
2.62368e-06
0.000687305
2.50102e-06
0.000687983
2.36477e-06
0.000688648
2.21378e-06
0.000689301
2.04821e-06
0.000689938
1.86649e-06
0.000690561
1.66904e-06
0.000691165
1.45373e-06
0.000691754
1.22138e-06
0.000692321
9.69023e-07
0.000692872
6.98094e-07
0.000693399
4.04473e-07
0.000693909
9.10756e-08
0.000694397
-2.51715e-07
0.000694874
-6.17689e-07
0.000695318
-1.01494e-06
0.000695752
-1.4373e-06
0.000696152
-1.89685e-06
0.000696549
-2.38365e-06
0.000696906
-2.91582e-06
0.00069727
-3.4776e-06
0.000697584
-4.09558e-06
0.000697924
-4.74423e-06
0.000698199
-5.46312e-06
-6.20984e-06
0.000698529
0.000666689
8.05905e-08
0.000666755
2.42216e-07
0.000666866
4.03808e-07
0.00066702
5.63637e-07
0.000667216
7.20813e-07
0.000667454
8.74519e-07
0.000667732
1.024e-06
0.000668047
1.16858e-06
0.000668398
1.30764e-06
0.000668782
1.44066e-06
0.000669198
1.56717e-06
0.000669644
1.68679e-06
0.000670117
1.79918e-06
0.000670615
1.90406e-06
0.000671136
2.00121e-06
0.000671679
2.09042e-06
0.00067224
2.17155e-06
0.000672818
2.24446e-06
0.000673412
2.30904e-06
0.000674019
2.3652e-06
0.000674637
2.41284e-06
0.000675265
2.45187e-06
0.000675902
2.48222e-06
0.000676545
2.50377e-06
0.000677193
2.51645e-06
0.000677845
2.52012e-06
0.000678498
2.51467e-06
0.000679152
2.49992e-06
0.000679804
2.47576e-06
0.000680454
2.44192e-06
0.000681099
2.39828e-06
0.000681739
2.34447e-06
0.000682371
2.28037e-06
0.000682995
2.20548e-06
0.000683608
2.11968e-06
0.000684209
2.02231e-06
0.000684797
1.91329e-06
0.00068537
1.79169e-06
0.000685926
1.65759e-06
0.000686465
1.50962e-06
0.000686983
1.34815e-06
0.000687481
1.1712e-06
0.000687955
9.79657e-07
0.000688406
7.70567e-07
0.000688829
5.45858e-07
0.000689226
3.01193e-07
0.000689589
4.12659e-08
0.000689929
-2.48514e-07
0.000690233
-5.55897e-07
0.000690508
-8.92546e-07
0.000690741
-1.24812e-06
0.000690944
-1.64087e-06
0.0006911
-2.05253e-06
0.000691228
-2.51179e-06
0.0006913
-2.98795e-06
0.000691349
-3.52673e-06
0.000691331
-4.07707e-06
0.000691298
-4.71167e-06
0.000691181
-5.34589e-06
-6.09451e-06
0.000691066
0.000666686
6.14725e-08
0.000666743
1.84721e-07
0.000666839
3.07975e-07
0.000666973
4.29965e-07
0.000667144
5.5005e-07
0.00066735
6.67638e-07
0.000667592
7.82177e-07
0.000667868
8.93156e-07
0.000668175
1.00011e-06
0.000668513
1.10262e-06
0.00066888
1.20032e-06
0.000669274
1.29287e-06
0.000669693
1.37998e-06
0.000670136
1.46139e-06
0.0006706
1.53689e-06
0.000671084
1.60629e-06
0.000671586
1.66941e-06
0.000672105
1.72612e-06
0.000672638
1.77629e-06
0.000673183
1.81979e-06
0.000673739
1.85653e-06
0.000674305
1.88639e-06
0.000674878
1.90928e-06
0.000675456
1.92507e-06
0.000676039
1.93369e-06
0.000676624
1.93496e-06
0.00067721
1.92883e-06
0.000677795
1.91504e-06
0.000678377
1.89356e-06
0.000678955
1.86406e-06
0.000679527
1.82651e-06
0.000680091
1.78046e-06
0.000680645
1.72595e-06
0.000681188
1.66231e-06
0.000681718
1.58971e-06
0.000682234
1.50719e-06
0.000682732
1.41514e-06
0.000683211
1.31215e-06
0.00068367
1.19898e-06
0.000684106
1.07352e-06
0.000684517
9.37241e-07
0.000684901
7.86906e-07
0.000685256
6.25155e-07
0.000685579
4.47043e-07
0.000685868
2.5723e-07
0.00068612
4.86397e-08
0.000686337
-1.75632e-07
0.000686514
-4.2479e-07
0.000686643
-6.85555e-07
0.000686728
-9.77769e-07
0.000686761
-1.28023e-06
0.000686744
-1.62413e-06
0.000686666
-1.97441e-06
0.000686535
-2.38077e-06
0.000686332
-2.78555e-06
0.000686074
-3.26833e-06
0.000685731
-3.73462e-06
0.000685332
-4.31202e-06
0.000684831
-4.84566e-06
-5.53984e-06
0.000684277
0.000666684
4.44583e-08
0.000666735
1.33577e-07
0.00066682
2.22712e-07
0.000666939
3.1097e-07
0.000667091
3.97904e-07
0.000667276
4.831e-07
0.000667492
5.66171e-07
0.000667738
6.46752e-07
0.000668014
7.24507e-07
0.000668317
7.99127e-07
0.000668647
8.70332e-07
0.000669002
9.37866e-07
0.000669381
1.0015e-06
0.000669781
1.06103e-06
0.000670202
1.11628e-06
0.000670641
1.16708e-06
0.000671097
1.21329e-06
0.000671568
1.25477e-06
0.000672053
1.29142e-06
0.00067255
1.32312e-06
0.000673057
1.34977e-06
0.000673572
1.37127e-06
0.000674094
1.38753e-06
0.00067462
1.39843e-06
0.00067515
1.40391e-06
0.000675681
1.4038e-06
0.000676212
1.39807e-06
0.00067674
1.38647e-06
0.000677265
1.369e-06
0.000677784
1.34535e-06
0.000678295
1.31554e-06
0.000678796
1.27912e-06
0.000679286
1.23622e-06
0.000679762
1.18617e-06
0.000680222
1.12925e-06
0.000680665
1.06449e-06
0.000681088
9.92443e-07
0.000681488
9.11635e-07
0.000681864
8.23097e-07
0.000682213
7.24598e-07
0.000682532
6.17958e-07
0.00068282
4.99748e-07
0.000683072
3.73118e-07
0.000683286
2.32793e-07
0.000683459
8.43358e-08
0.00068359
-8.22767e-08
0.000683673
-2.5875e-07
0.000683705
-4.56671e-07
0.000683681
-6.61729e-07
0.000683598
-8.95361e-07
0.000683452
-1.13356e-06
0.000683238
-1.41038e-06
0.00068295
-1.68635e-06
0.000682585
-2.01601e-06
0.000682134
-2.3347e-06
0.000681596
-2.73009e-06
0.000680958
-3.09627e-06
0.00068022
-3.57461e-06
0.000679366
-3.99125e-06
-4.57431e-06
0.0006784
0.000666682
2.89015e-08
0.000666729
8.68275e-08
0.000666807
1.44768e-07
0.000666916
2.02152e-07
0.000667055
2.58696e-07
0.000667224
3.14137e-07
0.000667422
3.68226e-07
0.000667648
4.2073e-07
0.000667901
4.7143e-07
0.00066818
5.20123e-07
0.000668484
5.66623e-07
0.000668811
6.10758e-07
0.00066916
6.52373e-07
0.00066953
6.91324e-07
0.000669918
7.27486e-07
0.000670325
7.6074e-07
0.000670747
7.90985e-07
0.000671184
8.18119e-07
0.000671633
8.42064e-07
0.000672093
8.62726e-07
0.000672563
8.80042e-07
0.000673041
8.93918e-07
0.000673524
9.04305e-07
0.000674011
9.11096e-07
0.000674501
9.14254e-07
0.000674991
9.13645e-07
0.00067548
9.09249e-07
0.000675965
9.00887e-07
0.000676446
8.88563e-07
0.000676919
8.72029e-07
0.000677383
8.51333e-07
0.000677836
8.26118e-07
0.000678276
7.96511e-07
0.0006787
7.61988e-07
0.000679107
7.22813e-07
0.000679493
6.78208e-07
0.000679857
6.2867e-07
0.000680195
5.73023e-07
0.000680506
5.1216e-07
0.000680787
4.44281e-07
0.000681034
3.70949e-07
0.000681244
2.89395e-07
0.000681415
2.02305e-07
0.000681542
1.05447e-07
0.000681622
3.98618e-09
0.000681653
-1.13065e-07
0.000681629
-2.34491e-07
0.000681544
-3.72007e-07
0.000681396
-5.13501e-07
0.000681177
-6.76564e-07
0.000680885
-8.41111e-07
0.00068051
-1.03522e-06
0.000680049
-1.22592e-06
0.000679492
-1.45835e-06
0.000678835
-1.67848e-06
0.000678064
-1.95911e-06
0.00067718
-2.21163e-06
0.000676159
-2.55388e-06
0.000675008
-2.84007e-06
-3.26133e-06
0.000673695
0.000666681
1.4266e-08
0.000666725
4.28543e-08
0.000666799
7.14492e-08
0.000666901
9.97708e-08
0.000667032
1.27682e-07
0.000667191
1.55055e-07
0.000667378
1.81768e-07
0.000667591
2.07707e-07
0.000667829
2.32764e-07
0.000668093
2.56839e-07
0.000668379
2.79838e-07
0.000668688
3.01675e-07
0.000669018
3.22274e-07
0.000669368
3.41558e-07
0.000669736
3.59466e-07
0.000670121
3.75934e-07
0.000670521
3.90911e-07
0.000670935
4.04341e-07
0.000671361
4.16185e-07
0.000671797
4.26392e-07
0.000672242
4.34929e-07
0.000672694
4.41744e-07
0.000673152
4.46812e-07
0.000673613
4.50076e-07
0.000674076
4.51515e-07
0.000674538
4.51058e-07
0.000674999
4.48696e-07
0.000675455
4.44332e-07
0.000675906
4.37972e-07
0.000676348
4.29481e-07
0.000676781
4.1889e-07
0.000677201
4.06004e-07
0.000677607
3.90901e-07
0.000677995
3.73293e-07
0.000678365
3.53338e-07
0.000678712
3.30605e-07
0.000679036
3.05386e-07
0.000679332
2.77031e-07
0.000679598
2.46056e-07
0.000679831
2.11465e-07
0.000680027
1.74151e-07
0.000680184
1.32573e-07
0.000680298
8.82506e-08
0.000680365
3.88269e-08
0.000680382
-1.33332e-08
0.000680342
-7.3011e-08
0.000680243
-1.34938e-07
0.000680076
-2.05441e-07
0.00067984
-2.77661e-07
0.000679525
-3.61435e-07
0.000679129
-4.45454e-07
0.00067864
-5.45448e-07
0.000678057
-6.42854e-07
0.000677361
-7.62989e-07
0.000676558
-8.75407e-07
0.00067562
-1.02104e-06
0.000674558
-1.14987e-06
0.000673333
-1.32833e-06
0.000671967
-1.47398e-06
-1.6949e-06
0.0006704
0.000666681
7.67498e-11
0.000666723
2.26158e-10
0.000666795
3.70616e-10
0.000666894
5.10062e-10
0.000667021
6.4438e-10
0.000667175
7.73515e-10
0.000667356
8.97454e-10
0.000667563
1.01615e-09
0.000667794
1.12952e-09
0.00066805
1.2375e-09
0.000668328
1.34007e-09
0.000668629
1.43734e-09
0.000668949
1.5294e-09
0.000669289
1.61637e-09
0.000669647
1.69832e-09
0.000670021
1.77532e-09
0.00067041
1.84749e-09
0.000670813
1.91503e-09
0.000671227
1.97822e-09
0.000671651
2.03732e-09
0.000672084
2.09262e-09
0.000672524
2.14438e-09
0.000672968
2.1929e-09
0.000673416
2.23838e-09
0.000673865
2.28113e-09
0.000674314
2.32143e-09
0.000674761
2.35971e-09
0.000675202
2.3963e-09
0.000675638
2.43167e-09
0.000676065
2.46609e-09
0.000676481
2.50003e-09
0.000676885
2.53386e-09
0.000677273
2.56777e-09
0.000677644
2.60228e-09
0.000677995
2.63769e-09
0.000678323
2.67437e-09
0.000678625
2.71252e-09
0.000678899
2.75294e-09
0.000679143
2.79522e-09
0.000679351
2.84091e-09
0.000679523
2.88968e-09
0.000679652
2.94542e-09
0.000679738
3.009e-09
0.000679773
3.0806e-09
0.000679757
3.15793e-09
0.000679681
3.23138e-09
0.000679542
3.30831e-09
0.000679333
3.39574e-09
0.000679052
3.49383e-09
0.000678687
3.60007e-09
0.000678238
3.71421e-09
0.000677689
3.83691e-09
0.000677042
3.96969e-09
0.000676275
4.11178e-09
0.000675395
4.26573e-09
0.00067437
4.42971e-09
0.000673215
4.60832e-09
0.000671882
4.7967e-09
0.000670403
5.00232e-09
5.21562e-09
0.000668703
0.000666681
-1.41131e-08
0.000666723
-4.24051e-08
0.000666795
-7.07123e-08
0.000666894
-9.87565e-08
0.000667021
-1.26401e-07
0.000667175
-1.53517e-07
0.000667356
-1.79984e-07
0.000667563
-2.05686e-07
0.000667794
-2.30518e-07
0.00066805
-2.54377e-07
0.000668329
-2.77173e-07
0.000668629
-2.98817e-07
0.00066895
-3.19232e-07
0.00066929
-3.38343e-07
0.000669647
-3.56088e-07
0.000670021
-3.72403e-07
0.000670411
-3.87236e-07
0.000670813
-4.00533e-07
0.000671227
-4.12251e-07
0.000671652
-4.2234e-07
0.000672084
-4.30767e-07
0.000672524
-4.3748e-07
0.000672969
-4.42452e-07
0.000673417
-4.45625e-07
0.000673866
-4.46979e-07
0.000674315
-4.46442e-07
0.000674761
-4.44005e-07
0.000675203
-4.39568e-07
0.000675639
-4.33138e-07
0.000676066
-4.24578e-07
0.000676482
-4.13919e-07
0.000676885
-4.00966e-07
0.000677274
-3.85796e-07
0.000677645
-3.6812e-07
0.000677995
-3.48095e-07
0.000678323
-3.25289e-07
0.000678626
-2.99994e-07
0.0006789
-2.71557e-07
0.000679144
-2.40497e-07
0.000679352
-2.05815e-07
0.000679524
-1.68406e-07
0.000679653
-1.26727e-07
0.000679739
-8.23018e-08
0.000679774
-3.27794e-08
0.000679758
1.96573e-08
0.000679682
7.94302e-08
0.000679543
1.41521e-07
0.000679335
2.12204e-07
0.000679054
2.84613e-07
0.000678689
3.68589e-07
0.000678239
4.52829e-07
0.00067769
5.53063e-07
0.000677043
6.50731e-07
0.000676276
7.71146e-07
0.000675397
8.83869e-07
0.000674371
1.02982e-06
0.000673217
1.15901e-06
0.000671884
1.33784e-06
0.000670405
1.4839e-06
1.70524e-06
0.000668705
0.000666681
-2.87512e-08
0.000666725
-8.63858e-08
0.000666799
-1.44044e-07
0.000666901
-2.01154e-07
0.000667032
-2.57435e-07
0.000667191
-3.12623e-07
0.000667378
-3.66471e-07
0.000667591
-4.18742e-07
0.000667829
-4.69221e-07
0.000668093
-5.17702e-07
0.00066838
-5.64002e-07
0.000668689
-6.07946e-07
0.000669019
-6.49381e-07
0.000669369
-6.88162e-07
0.000669737
-7.24165e-07
0.000670122
-7.57268e-07
0.000670522
-7.87372e-07
0.000670936
-8.14375e-07
0.000671362
-8.38196e-07
0.000671798
-8.58743e-07
0.000672243
-8.75951e-07
0.000672695
-8.89727e-07
0.000673153
-9.0002e-07
0.000673614
-9.06722e-07
0.000674077
-9.09797e-07
0.00067454
-9.0911e-07
0.000675
-9.0464e-07
0.000675457
-8.96207e-07
0.000675907
-8.83815e-07
0.00067635
-8.67214e-07
0.000676783
-8.46452e-07
0.000677203
-8.21172e-07
0.000677609
-7.91499e-07
0.000677997
-7.56909e-07
0.000678367
-7.17666e-07
0.000678715
-6.7299e-07
0.000679038
-6.23378e-07
0.000679334
-5.67652e-07
0.0006796
-5.06704e-07
0.000679833
-4.38736e-07
0.00068003
-3.65306e-07
0.000680187
-2.83646e-07
0.000680301
-1.96445e-07
0.000680368
-9.94805e-08
0.000680386
2.02367e-09
0.000680346
1.19391e-07
0.000680246
2.40947e-07
0.00068008
3.78617e-07
0.000679844
5.20293e-07
0.000679529
6.83561e-07
0.000679134
8.48328e-07
0.000678644
1.04266e-06
0.000678061
1.23362e-06
0.000677366
1.46632e-06
0.000676563
1.68675e-06
0.000675625
1.96768e-06
0.000674564
2.22055e-06
0.000673338
2.56315e-06
0.000671972
2.84973e-06
3.27138e-06
0.000670406
0.000666682
-4.43121e-08
0.000666729
-1.33147e-07
0.000666807
-2.22008e-07
0.000666916
-3.09999e-07
0.000667055
-3.96678e-07
0.000667224
-4.81629e-07
0.000667422
-5.64464e-07
0.000667648
-6.44819e-07
0.000667901
-7.22359e-07
0.00066818
-7.96773e-07
0.000668484
-8.67783e-07
0.000668811
-9.35132e-07
0.000669161
-9.98594e-07
0.00066953
-1.05796e-06
0.000669919
-1.11305e-06
0.000670326
-1.16371e-06
0.000670748
-1.20978e-06
0.000671185
-1.25113e-06
0.000671634
-1.28766e-06
0.000672095
-1.31925e-06
0.000672565
-1.3458e-06
0.000673042
-1.3672e-06
0.000673525
-1.38337e-06
0.000674013
-1.39419e-06
0.000674503
-1.39959e-06
0.000674993
-1.3994e-06
0.000675482
-1.39359e-06
0.000675968
-1.38193e-06
0.000676448
-1.3644e-06
0.000676922
-1.34068e-06
0.000677386
-1.31081e-06
0.000677839
-1.27433e-06
0.000678279
-1.23136e-06
0.000678703
-1.18125e-06
0.00067911
-1.12427e-06
0.000679496
-1.05944e-06
0.00067986
-9.87317e-07
0.000680199
-9.06434e-07
0.00068051
-8.17818e-07
0.000680791
-7.19234e-07
0.000681038
-6.12506e-07
0.000681249
-4.94201e-07
0.00068142
-3.67472e-07
0.000681547
-2.27042e-07
0.000681628
-7.84876e-08
0.000681659
8.8383e-08
0.000681635
2.64979e-07
0.00068155
4.6306e-07
0.000681402
6.68289e-07
0.000681184
9.02105e-07
0.000680891
1.14051e-06
0.000680517
1.41754e-06
0.000680056
1.69376e-06
0.000679499
2.02367e-06
0.000678843
2.34264e-06
0.000678073
2.73831e-06
0.000677188
3.10481e-06
0.000676168
3.58347e-06
0.000675017
4.0005e-06
4.58391e-06
0.000673705
0.000666684
-6.1332e-08
0.000666735
-1.84308e-07
0.00066682
-3.07298e-07
0.000666939
-4.29032e-07
0.000667091
-5.48871e-07
0.000667276
-6.66223e-07
0.000667492
-7.80536e-07
0.000667739
-8.91298e-07
0.000668014
-9.98047e-07
0.000668318
-1.10036e-06
0.000668648
-1.19787e-06
0.000669003
-1.29024e-06
0.000669382
-1.37718e-06
0.000669782
-1.45844e-06
0.000670203
-1.53379e-06
0.000670642
-1.60305e-06
0.000671098
-1.66604e-06
0.00067157
-1.72263e-06
0.000672055
-1.77269e-06
0.000672552
-1.81608e-06
0.000673059
-1.85272e-06
0.000673574
-1.88249e-06
0.000674096
-1.90529e-06
0.000674623
-1.921e-06
0.000675153
-1.92955e-06
0.000675684
-1.93075e-06
0.000676215
-1.92454e-06
0.000676744
-1.91069e-06
0.000677268
-1.88915e-06
0.000677787
-1.85959e-06
0.000678299
-1.82198e-06
0.0006788
-1.77587e-06
0.00067929
-1.7213e-06
0.000679766
-1.6576e-06
0.000680227
-1.58495e-06
0.00068067
-1.50237e-06
0.000681093
-1.41025e-06
0.000681494
-1.30718e-06
0.00068187
-1.19394e-06
0.000682219
-1.0684e-06
0.000682539
-9.32039e-07
0.000682826
-7.8161e-07
0.000683078
-6.1976e-07
0.000683293
-4.41542e-07
0.000683466
-2.51623e-07
0.000683597
-4.29759e-08
0.000683681
1.81568e-07
0.000683713
4.30858e-07
0.000683689
6.9178e-07
0.000683607
9.84168e-07
0.000683461
1.28681e-06
0.000683248
1.63092e-06
0.00068296
1.98141e-06
0.000682596
2.388e-06
0.000682145
2.79305e-06
0.000681607
3.27608e-06
0.00068097
3.74267e-06
0.000680233
4.32036e-06
0.000679379
4.85436e-06
5.54882e-06
0.000678414
0.000666686
-8.04572e-08
0.000666743
-2.41824e-07
0.000666839
-4.03165e-07
0.000666973
-5.62751e-07
0.000667144
-7.19695e-07
0.000667351
-8.73177e-07
0.000667593
-1.02245e-06
0.000667868
-1.16682e-06
0.000668176
-1.30568e-06
0.000668514
-1.43851e-06
0.000668881
-1.56485e-06
0.000669275
-1.6843e-06
0.000669694
-1.79653e-06
0.000670137
-1.90127e-06
0.000670602
-1.99827e-06
0.000671086
-2.08735e-06
0.000671588
-2.16836e-06
0.000672107
-2.24115e-06
0.00067264
-2.30563e-06
0.000673185
-2.36169e-06
0.000673742
-2.40923e-06
0.000674307
-2.44818e-06
0.000674881
-2.47844e-06
0.00067546
-2.49992e-06
0.000676043
-2.51253e-06
0.000676628
-2.51613e-06
0.000677214
-2.51062e-06
0.000677799
-2.49582e-06
0.000678382
-2.4716e-06
0.00067896
-2.43771e-06
0.000679532
-2.39401e-06
0.000680096
-2.34015e-06
0.000680651
-2.27599e-06
0.000681194
-2.20105e-06
0.000681724
-2.1152e-06
0.00068224
-2.01777e-06
0.000682738
-1.90869e-06
0.000683218
-1.78703e-06
0.000683677
-1.65285e-06
0.000684113
-1.50481e-06
0.000684525
-1.34327e-06
0.000684909
-1.16623e-06
0.000685264
-9.74597e-07
0.000685588
-7.65409e-07
0.000685877
-5.40596e-07
0.00068613
-2.95825e-07
0.000686347
-3.58684e-08
0.000686524
2.54215e-07
0.000686654
5.61721e-07
0.00068674
8.9852e-07
0.000686772
1.25426e-06
0.000686756
1.64719e-06
0.000686678
2.05905e-06
0.000686548
2.51851e-06
0.000686346
2.9949e-06
0.000686088
3.53391e-06
0.000685746
4.08453e-06
0.000685347
4.71936e-06
0.000684848
5.35392e-06
6.10277e-06
0.000684294
0.000666689
-1.02523e-07
0.000666755
-3.0823e-07
0.000666866
-5.13815e-07
0.00066702
-7.16946e-07
0.000667217
-9.16394e-07
0.000667455
-1.11104e-06
0.000667732