/*--------------------------------*- C++ -*----------------------------------*\
| =========                 |                                                 |
| \\      /  F ield         | OpenFOAM: The Open Source CFD Toolbox           |
|  \\    /   O peration     | Version:  2312                                  |
|   \\  /    A nd           | Website:  www.openfoam.com                      |
|    \\/     M anipulation  |                                                 |
\*---------------------------------------------------------------------------*/
FoamFile
{
    version     2.0;
    format      ascii;
    arch        "LSB;label=32;scalar=64";
    class       volScalarField;
    location    "115000";
    object      p;
}
// * * * * * * * * * * * * * * * * * * * * * * * * * * * * * * * * * * * * * //

dimensions      [0 2 -2 0 0 0 0];

internalField   nonuniform List<scalar> 
2715
(
5.34875e-07
5.20752e-07
5.06983e-07
4.96405e-07
4.8898e-07
4.83586e-07
4.79132e-07
4.75049e-07
4.71169e-07
4.675e-07
4.64078e-07
4.60909e-07
4.57957e-07
4.55173e-07
4.52511e-07
4.49938e-07
4.47432e-07
4.44979e-07
4.42569e-07
4.40194e-07
4.37844e-07
4.35513e-07
4.33192e-07
4.30878e-07
4.28565e-07
4.2625e-07
4.23929e-07
4.216e-07
4.19261e-07
4.1691e-07
4.14547e-07
4.12169e-07
4.09776e-07
4.07369e-07
4.04946e-07
4.02509e-07
4.00056e-07
3.97588e-07
3.95106e-07
3.92611e-07
3.90101e-07
3.87579e-07
3.85043e-07
3.82494e-07
3.79933e-07
3.77357e-07
3.74768e-07
3.72161e-07
3.69541e-07
3.66892e-07
3.64235e-07
3.6152e-07
3.58828e-07
3.55985e-07
3.53296e-07
3.5012e-07
3.4772e-07
3.43265e-07
3.42913e-07
3.32265e-07
4.86835e-07
4.85107e-07
4.82461e-07
4.79334e-07
4.76116e-07
4.73019e-07
4.70093e-07
4.67303e-07
4.64597e-07
4.61946e-07
4.59343e-07
4.56795e-07
4.54307e-07
4.51879e-07
4.49506e-07
4.47178e-07
4.44885e-07
4.4262e-07
4.40377e-07
4.38151e-07
4.35938e-07
4.33734e-07
4.31534e-07
4.29337e-07
4.27137e-07
4.24934e-07
4.22724e-07
4.20507e-07
4.18279e-07
4.1604e-07
4.13789e-07
4.11525e-07
4.09247e-07
4.06955e-07
4.04649e-07
4.02328e-07
3.99994e-07
3.97643e-07
3.95281e-07
3.92901e-07
3.90512e-07
3.88103e-07
3.85689e-07
3.83249e-07
3.80813e-07
3.78341e-07
3.75885e-07
3.73376e-07
3.7091e-07
3.68361e-07
3.65904e-07
3.63316e-07
3.60922e-07
3.58314e-07
3.56118e-07
3.53557e-07
3.51893e-07
3.49459e-07
3.48936e-07
3.46213e-07
4.78103e-07
4.77352e-07
4.75937e-07
4.73984e-07
4.71698e-07
4.69275e-07
4.66842e-07
4.64449e-07
4.62099e-07
4.5978e-07
4.57481e-07
4.55204e-07
4.52953e-07
4.50733e-07
4.48545e-07
4.46389e-07
4.4426e-07
4.42153e-07
4.40062e-07
4.37986e-07
4.35919e-07
4.33859e-07
4.31805e-07
4.29752e-07
4.277e-07
4.25645e-07
4.23586e-07
4.21521e-07
4.19449e-07
4.17369e-07
4.1528e-07
4.1318e-07
4.11071e-07
4.0895e-07
4.06818e-07
4.04673e-07
4.02518e-07
4.00349e-07
3.9817e-07
3.95976e-07
3.93774e-07
3.91554e-07
3.89331e-07
3.87084e-07
3.8484e-07
3.82567e-07
3.80304e-07
3.78005e-07
3.75731e-07
3.73407e-07
3.71133e-07
3.68791e-07
3.66539e-07
3.64188e-07
3.61993e-07
3.59647e-07
3.5756e-07
3.55225e-07
3.53286e-07
3.50868e-07
4.66377e-07
4.65944e-07
4.65156e-07
4.64065e-07
4.62738e-07
4.61248e-07
4.59651e-07
4.57986e-07
4.56275e-07
4.54529e-07
4.52753e-07
4.50954e-07
4.49137e-07
4.47309e-07
4.45474e-07
4.43637e-07
4.41797e-07
4.39956e-07
4.38112e-07
4.36266e-07
4.34418e-07
4.32565e-07
4.30709e-07
4.28847e-07
4.2698e-07
4.25107e-07
4.23228e-07
4.2134e-07
4.19446e-07
4.17543e-07
4.15632e-07
4.13712e-07
4.11783e-07
4.09845e-07
4.07898e-07
4.05942e-07
4.03977e-07
4.02002e-07
4.00019e-07
3.98025e-07
3.96023e-07
3.94009e-07
3.91987e-07
3.89951e-07
3.87908e-07
3.85848e-07
3.83779e-07
3.81688e-07
3.79589e-07
3.7746e-07
3.75323e-07
3.73147e-07
3.70966e-07
3.68734e-07
3.66503e-07
3.64209e-07
3.61923e-07
3.59558e-07
3.57219e-07
3.54798e-07
4.59691e-07
4.59477e-07
4.59045e-07
4.58398e-07
4.57552e-07
4.56537e-07
4.55383e-07
4.54123e-07
4.52781e-07
4.51373e-07
4.49912e-07
4.48408e-07
4.46866e-07
4.45294e-07
4.43698e-07
4.42082e-07
4.4045e-07
4.38805e-07
4.37149e-07
4.35483e-07
4.33808e-07
4.32124e-07
4.30433e-07
4.28734e-07
4.27029e-07
4.25317e-07
4.23598e-07
4.21873e-07
4.20142e-07
4.18405e-07
4.16662e-07
4.14913e-07
4.13159e-07
4.11399e-07
4.09635e-07
4.07865e-07
4.0609e-07
4.0431e-07
4.02526e-07
4.00737e-07
3.98943e-07
3.97144e-07
3.95339e-07
3.93528e-07
3.91711e-07
3.89885e-07
3.88052e-07
3.86208e-07
3.84352e-07
3.82481e-07
3.80589e-07
3.78671e-07
3.76714e-07
3.74707e-07
3.72633e-07
3.70479e-07
3.68235e-07
3.65913e-07
3.63512e-07
3.61133e-07
4.54186e-07
4.54024e-07
4.53698e-07
4.53212e-07
4.52578e-07
4.5181e-07
4.50927e-07
4.49946e-07
4.48884e-07
4.47753e-07
4.46563e-07
4.45322e-07
4.44035e-07
4.4271e-07
4.41351e-07
4.39962e-07
4.38549e-07
4.37114e-07
4.3566e-07
4.34189e-07
4.32703e-07
4.31205e-07
4.29694e-07
4.28173e-07
4.26642e-07
4.25103e-07
4.23556e-07
4.22002e-07
4.20442e-07
4.18877e-07
4.17307e-07
4.15733e-07
4.14155e-07
4.12574e-07
4.10991e-07
4.09406e-07
4.0782e-07
4.06232e-07
4.04642e-07
4.03052e-07
4.01461e-07
3.99868e-07
3.98274e-07
3.96676e-07
3.95074e-07
3.93466e-07
3.91849e-07
3.90221e-07
3.88577e-07
3.86917e-07
3.85235e-07
3.83535e-07
3.81806e-07
3.80056e-07
3.78259e-07
3.76419e-07
3.745e-07
3.72524e-07
3.70487e-07
3.68518e-07
4.49859e-07
4.4974e-07
4.49501e-07
4.49145e-07
4.48673e-07
4.48093e-07
4.47415e-07
4.46648e-07
4.45803e-07
4.44888e-07
4.43912e-07
4.42881e-07
4.41801e-07
4.40678e-07
4.39515e-07
4.38318e-07
4.3709e-07
4.35835e-07
4.34556e-07
4.33257e-07
4.31938e-07
4.30603e-07
4.29254e-07
4.27892e-07
4.26519e-07
4.25137e-07
4.23747e-07
4.22351e-07
4.20949e-07
4.19543e-07
4.18135e-07
4.16724e-07
4.15313e-07
4.13901e-07
4.12491e-07
4.11083e-07
4.09678e-07
4.08276e-07
4.06878e-07
4.05485e-07
4.04097e-07
4.02714e-07
4.01336e-07
3.99963e-07
3.98595e-07
3.97233e-07
3.95874e-07
3.94519e-07
3.93161e-07
3.918e-07
3.90424e-07
3.8903e-07
3.87607e-07
3.8616e-07
3.84678e-07
3.8317e-07
3.81616e-07
3.8004e-07
3.7844e-07
3.7693e-07
4.46428e-07
4.46336e-07
4.4615e-07
4.4587e-07
4.45498e-07
4.45037e-07
4.44492e-07
4.4387e-07
4.43177e-07
4.42419e-07
4.41601e-07
4.40729e-07
4.39808e-07
4.38842e-07
4.37837e-07
4.36796e-07
4.35723e-07
4.34622e-07
4.33494e-07
4.32345e-07
4.31175e-07
4.29988e-07
4.28785e-07
4.2757e-07
4.26343e-07
4.25108e-07
4.23865e-07
4.22616e-07
4.21364e-07
4.20109e-07
4.18853e-07
4.17598e-07
4.16345e-07
4.15096e-07
4.13852e-07
4.12614e-07
4.11383e-07
4.10161e-07
4.08949e-07
4.07747e-07
4.06557e-07
4.0538e-07
4.04214e-07
4.03063e-07
4.01924e-07
4.00798e-07
3.99683e-07
3.98581e-07
3.9749e-07
3.96412e-07
3.95342e-07
3.94282e-07
3.93216e-07
3.92147e-07
3.91063e-07
3.89976e-07
3.88873e-07
3.87782e-07
3.8671e-07
3.8576e-07
4.43688e-07
4.43612e-07
4.4346e-07
4.43231e-07
4.42925e-07
4.42545e-07
4.42094e-07
4.41575e-07
4.40993e-07
4.40353e-07
4.39657e-07
4.38911e-07
4.38119e-07
4.37284e-07
4.36411e-07
4.35502e-07
4.34562e-07
4.33592e-07
4.32597e-07
4.31579e-07
4.30541e-07
4.29486e-07
4.28415e-07
4.27331e-07
4.26237e-07
4.25135e-07
4.24026e-07
4.22913e-07
4.21797e-07
4.20682e-07
4.19568e-07
4.18457e-07
4.17352e-07
4.16254e-07
4.15165e-07
4.14087e-07
4.13022e-07
4.11971e-07
4.10936e-07
4.09919e-07
4.0892e-07
4.07943e-07
4.06988e-07
4.06057e-07
4.0515e-07
4.0427e-07
4.03416e-07
4.0259e-07
4.0179e-07
4.01016e-07
4.00264e-07
3.9954e-07
3.9884e-07
3.98166e-07
3.97513e-07
3.96887e-07
3.96282e-07
3.95721e-07
3.95215e-07
3.94851e-07
4.41512e-07
4.41448e-07
4.41319e-07
4.41126e-07
4.40867e-07
4.40545e-07
4.40161e-07
4.39718e-07
4.3922e-07
4.38668e-07
4.38068e-07
4.37421e-07
4.3673e-07
4.36e-07
4.35233e-07
4.34433e-07
4.33601e-07
4.32742e-07
4.31858e-07
4.30952e-07
4.30026e-07
4.29083e-07
4.28125e-07
4.27156e-07
4.26177e-07
4.25191e-07
4.242e-07
4.23206e-07
4.22212e-07
4.21221e-07
4.20233e-07
4.19252e-07
4.1828e-07
4.17319e-07
4.16371e-07
4.15439e-07
4.14524e-07
4.1363e-07
4.12759e-07
4.11912e-07
4.11092e-07
4.10302e-07
4.09544e-07
4.0882e-07
4.08133e-07
4.07484e-07
4.06877e-07
4.06312e-07
4.0579e-07
4.05314e-07
4.04885e-07
4.04508e-07
4.04182e-07
4.03912e-07
4.03696e-07
4.03541e-07
4.03446e-07
4.03432e-07
4.03512e-07
4.03761e-07
4.39811e-07
4.39755e-07
4.39644e-07
4.39476e-07
4.39252e-07
4.38971e-07
4.38637e-07
4.3825e-07
4.37814e-07
4.3733e-07
4.36801e-07
4.3623e-07
4.35619e-07
4.34971e-07
4.34288e-07
4.33574e-07
4.32831e-07
4.32061e-07
4.31267e-07
4.30453e-07
4.29619e-07
4.2877e-07
4.27908e-07
4.27035e-07
4.26154e-07
4.25267e-07
4.24377e-07
4.23486e-07
4.22597e-07
4.21712e-07
4.20834e-07
4.19966e-07
4.1911e-07
4.18269e-07
4.17446e-07
4.16643e-07
4.15863e-07
4.15109e-07
4.14384e-07
4.13691e-07
4.13033e-07
4.12414e-07
4.11836e-07
4.11303e-07
4.10818e-07
4.10385e-07
4.10006e-07
4.09685e-07
4.09425e-07
4.09232e-07
4.0911e-07
4.09064e-07
4.09096e-07
4.09213e-07
4.09417e-07
4.09717e-07
4.10118e-07
4.10637e-07
4.11291e-07
4.12137e-07
4.38522e-07
4.38473e-07
4.38374e-07
4.38224e-07
4.38024e-07
4.37774e-07
4.37476e-07
4.3713e-07
4.3674e-07
4.36306e-07
4.35831e-07
4.35317e-07
4.34766e-07
4.3418e-07
4.33562e-07
4.32914e-07
4.3224e-07
4.3154e-07
4.30818e-07
4.30076e-07
4.29317e-07
4.28543e-07
4.27758e-07
4.26963e-07
4.26161e-07
4.25355e-07
4.24547e-07
4.23741e-07
4.22938e-07
4.22142e-07
4.21356e-07
4.20582e-07
4.19823e-07
4.19083e-07
4.18364e-07
4.17669e-07
4.17003e-07
4.16368e-07
4.15767e-07
4.15205e-07
4.14686e-07
4.14212e-07
4.13789e-07
4.1342e-07
4.1311e-07
4.12863e-07
4.12684e-07
4.12578e-07
4.12551e-07
4.1261e-07
4.1276e-07
4.13008e-07
4.1336e-07
4.13824e-07
4.14408e-07
4.1512e-07
4.15972e-07
4.16978e-07
4.18158e-07
4.19554e-07
4.376e-07
4.37555e-07
4.37464e-07
4.37327e-07
4.37145e-07
4.36916e-07
4.36643e-07
4.36326e-07
4.35968e-07
4.35569e-07
4.35133e-07
4.34659e-07
4.34152e-07
4.33611e-07
4.33041e-07
4.32442e-07
4.31818e-07
4.3117e-07
4.30501e-07
4.29814e-07
4.29111e-07
4.28394e-07
4.27666e-07
4.2693e-07
4.26189e-07
4.25445e-07
4.247e-07
4.23959e-07
4.23223e-07
4.22495e-07
4.2178e-07
4.21079e-07
4.20395e-07
4.19733e-07
4.19096e-07
4.18487e-07
4.1791e-07
4.17368e-07
4.16866e-07
4.16407e-07
4.15997e-07
4.1564e-07
4.1534e-07
4.15103e-07
4.14933e-07
4.14836e-07
4.14819e-07
4.14887e-07
4.1505e-07
4.15313e-07
4.15686e-07
4.16175e-07
4.1679e-07
4.17541e-07
4.18438e-07
4.19493e-07
4.2072e-07
4.22133e-07
4.23754e-07
4.25611e-07
4.37012e-07
4.3697e-07
4.36885e-07
4.36756e-07
4.36584e-07
4.36369e-07
4.36112e-07
4.35814e-07
4.35477e-07
4.35101e-07
4.34689e-07
4.34243e-07
4.33763e-07
4.33252e-07
4.32713e-07
4.32147e-07
4.31556e-07
4.30942e-07
4.30309e-07
4.29658e-07
4.28992e-07
4.28314e-07
4.27625e-07
4.26929e-07
4.26229e-07
4.25527e-07
4.24826e-07
4.24128e-07
4.23438e-07
4.22758e-07
4.2209e-07
4.2144e-07
4.20809e-07
4.20201e-07
4.1962e-07
4.1907e-07
4.18555e-07
4.18078e-07
4.17644e-07
4.17258e-07
4.16925e-07
4.16649e-07
4.16436e-07
4.16291e-07
4.16219e-07
4.16229e-07
4.16327e-07
4.1652e-07
4.16817e-07
4.17226e-07
4.17757e-07
4.18418e-07
4.19221e-07
4.20178e-07
4.21301e-07
4.22603e-07
4.241e-07
4.25808e-07
4.27749e-07
4.29941e-07
4.3674e-07
4.36699e-07
4.36616e-07
4.36492e-07
4.36325e-07
4.36117e-07
4.35868e-07
4.35579e-07
4.35252e-07
4.34888e-07
4.34488e-07
4.34055e-07
4.33589e-07
4.33094e-07
4.3257e-07
4.3202e-07
4.31446e-07
4.3085e-07
4.30235e-07
4.29603e-07
4.28956e-07
4.28297e-07
4.27629e-07
4.26954e-07
4.26275e-07
4.25594e-07
4.24916e-07
4.24242e-07
4.23575e-07
4.22919e-07
4.22277e-07
4.21653e-07
4.21049e-07
4.2047e-07
4.19919e-07
4.19401e-07
4.18918e-07
4.18476e-07
4.18079e-07
4.17731e-07
4.17438e-07
4.17205e-07
4.17037e-07
4.16941e-07
4.16923e-07
4.16989e-07
4.17148e-07
4.17408e-07
4.17776e-07
4.18263e-07
4.18877e-07
4.1963e-07
4.20534e-07
4.216e-07
4.22844e-07
4.24278e-07
4.2592e-07
4.27786e-07
4.29898e-07
4.32269e-07
4.36772e-07
4.36731e-07
4.36649e-07
4.36524e-07
4.36358e-07
4.3615e-07
4.35901e-07
4.35612e-07
4.35286e-07
4.34922e-07
4.34523e-07
4.3409e-07
4.33625e-07
4.3313e-07
4.32607e-07
4.32058e-07
4.31485e-07
4.3089e-07
4.30276e-07
4.29644e-07
4.28999e-07
4.28341e-07
4.27674e-07
4.27e-07
4.26322e-07
4.25643e-07
4.24966e-07
4.24293e-07
4.23628e-07
4.22974e-07
4.22334e-07
4.21712e-07
4.2111e-07
4.20533e-07
4.19984e-07
4.19468e-07
4.18987e-07
4.18548e-07
4.18153e-07
4.17808e-07
4.17518e-07
4.17288e-07
4.17124e-07
4.17031e-07
4.17018e-07
4.17089e-07
4.17252e-07
4.17515e-07
4.17887e-07
4.18378e-07
4.18998e-07
4.19756e-07
4.20665e-07
4.21737e-07
4.22986e-07
4.24426e-07
4.26075e-07
4.27948e-07
4.30066e-07
4.32445e-07
4.37109e-07
4.37066e-07
4.36982e-07
4.36854e-07
4.36682e-07
4.36468e-07
4.36211e-07
4.35914e-07
4.35578e-07
4.35204e-07
4.34793e-07
4.34348e-07
4.3387e-07
4.33362e-07
4.32824e-07
4.3226e-07
4.31671e-07
4.31061e-07
4.3043e-07
4.29782e-07
4.29119e-07
4.28444e-07
4.27759e-07
4.27067e-07
4.26371e-07
4.25673e-07
4.24976e-07
4.24283e-07
4.23598e-07
4.22922e-07
4.22261e-07
4.21615e-07
4.2099e-07
4.20389e-07
4.19815e-07
4.19271e-07
4.18763e-07
4.18294e-07
4.17869e-07
4.17491e-07
4.17166e-07
4.16899e-07
4.16696e-07
4.16561e-07
4.16501e-07
4.16522e-07
4.1663e-07
4.16836e-07
4.17146e-07
4.17569e-07
4.18114e-07
4.18791e-07
4.1961e-07
4.20583e-07
4.21724e-07
4.23044e-07
4.24562e-07
4.2629e-07
4.28252e-07
4.30465e-07
4.37759e-07
4.37714e-07
4.37624e-07
4.37488e-07
4.37306e-07
4.37079e-07
4.36807e-07
4.36492e-07
4.36136e-07
4.35739e-07
4.35305e-07
4.34834e-07
4.34329e-07
4.33792e-07
4.33225e-07
4.3263e-07
4.32009e-07
4.31366e-07
4.30701e-07
4.30019e-07
4.29321e-07
4.2861e-07
4.27888e-07
4.27158e-07
4.26423e-07
4.25686e-07
4.24949e-07
4.24215e-07
4.23487e-07
4.22768e-07
4.22061e-07
4.2137e-07
4.20696e-07
4.20045e-07
4.19418e-07
4.1882e-07
4.18255e-07
4.17726e-07
4.17237e-07
4.16792e-07
4.16396e-07
4.16054e-07
4.1577e-07
4.15549e-07
4.15397e-07
4.15319e-07
4.15321e-07
4.15411e-07
4.15595e-07
4.15881e-07
4.16276e-07
4.1679e-07
4.17432e-07
4.1821e-07
4.19136e-07
4.20222e-07
4.21481e-07
4.22928e-07
4.24583e-07
4.26475e-07
4.38743e-07
4.38694e-07
4.38596e-07
4.38447e-07
4.38248e-07
4.38e-07
4.37703e-07
4.3736e-07
4.36972e-07
4.36541e-07
4.36069e-07
4.35559e-07
4.35012e-07
4.3443e-07
4.33817e-07
4.33175e-07
4.32505e-07
4.31811e-07
4.31095e-07
4.3036e-07
4.29608e-07
4.28842e-07
4.28065e-07
4.27278e-07
4.26485e-07
4.25689e-07
4.24891e-07
4.24096e-07
4.23304e-07
4.2252e-07
4.21746e-07
4.20985e-07
4.2024e-07
4.19514e-07
4.1881e-07
4.18131e-07
4.17481e-07
4.16863e-07
4.16281e-07
4.15738e-07
4.15238e-07
4.14785e-07
4.14384e-07
4.14038e-07
4.13752e-07
4.13531e-07
4.13379e-07
4.13302e-07
4.13305e-07
4.13394e-07
4.13576e-07
4.13858e-07
4.14246e-07
4.14748e-07
4.15371e-07
4.16126e-07
4.17021e-07
4.18073e-07
4.193e-07
4.20744e-07
4.40091e-07
4.40036e-07
4.39926e-07
4.39759e-07
4.39536e-07
4.39258e-07
4.38926e-07
4.38542e-07
4.38109e-07
4.37629e-07
4.37104e-07
4.36537e-07
4.35931e-07
4.35289e-07
4.34612e-07
4.33904e-07
4.33167e-07
4.32405e-07
4.31619e-07
4.30813e-07
4.29989e-07
4.2915e-07
4.28298e-07
4.27435e-07
4.26565e-07
4.2569e-07
4.24813e-07
4.23935e-07
4.23061e-07
4.22191e-07
4.21329e-07
4.20477e-07
4.19638e-07
4.18816e-07
4.18011e-07
4.17228e-07
4.16469e-07
4.15737e-07
4.15035e-07
4.14366e-07
4.13733e-07
4.1314e-07
4.12589e-07
4.12085e-07
4.1163e-07
4.11228e-07
4.10884e-07
4.10599e-07
4.10378e-07
4.10224e-07
4.10142e-07
4.10137e-07
4.10214e-07
4.10378e-07
4.10632e-07
4.10984e-07
4.1144e-07
4.12016e-07
4.12729e-07
4.13634e-07
4.41849e-07
4.41785e-07
4.41658e-07
4.41466e-07
4.41209e-07
4.40889e-07
4.40508e-07
4.40069e-07
4.39574e-07
4.39027e-07
4.38431e-07
4.37789e-07
4.37105e-07
4.36382e-07
4.35622e-07
4.34829e-07
4.34006e-07
4.33156e-07
4.32281e-07
4.31385e-07
4.3047e-07
4.29538e-07
4.28593e-07
4.27637e-07
4.26671e-07
4.257e-07
4.24724e-07
4.23746e-07
4.22769e-07
4.21795e-07
4.20827e-07
4.19865e-07
4.18914e-07
4.17974e-07
4.17049e-07
4.16141e-07
4.15251e-07
4.14383e-07
4.13539e-07
4.12721e-07
4.11932e-07
4.11173e-07
4.10448e-07
4.09758e-07
4.09107e-07
4.08496e-07
4.07927e-07
4.07404e-07
4.06927e-07
4.06498e-07
4.06118e-07
4.05791e-07
4.05517e-07
4.05303e-07
4.05145e-07
4.05052e-07
4.05022e-07
4.05075e-07
4.05224e-07
4.05543e-07
4.44078e-07
4.44003e-07
4.43852e-07
4.43624e-07
4.43321e-07
4.42943e-07
4.42495e-07
4.41981e-07
4.41403e-07
4.40768e-07
4.40078e-07
4.39339e-07
4.38553e-07
4.37726e-07
4.36861e-07
4.35961e-07
4.3503e-07
4.34071e-07
4.33087e-07
4.32081e-07
4.31055e-07
4.30013e-07
4.28956e-07
4.27888e-07
4.26809e-07
4.25723e-07
4.24632e-07
4.23538e-07
4.22442e-07
4.21347e-07
4.20254e-07
4.19166e-07
4.18085e-07
4.17012e-07
4.15949e-07
4.14899e-07
4.13862e-07
4.12841e-07
4.11838e-07
4.10853e-07
4.0989e-07
4.08949e-07
4.08031e-07
4.07139e-07
4.06274e-07
4.05437e-07
4.04629e-07
4.03851e-07
4.03102e-07
4.02381e-07
4.01684e-07
4.01017e-07
4.00376e-07
3.99765e-07
3.99179e-07
3.98623e-07
3.98091e-07
3.97605e-07
3.97177e-07
3.96892e-07
4.46868e-07
4.46776e-07
4.46591e-07
4.46313e-07
4.45943e-07
4.45485e-07
4.44944e-07
4.44327e-07
4.43638e-07
4.42886e-07
4.42074e-07
4.4121e-07
4.40296e-07
4.3934e-07
4.38344e-07
4.37313e-07
4.36251e-07
4.35161e-07
4.34046e-07
4.3291e-07
4.31754e-07
4.30582e-07
4.29395e-07
4.28196e-07
4.26988e-07
4.25771e-07
4.24548e-07
4.2332e-07
4.22089e-07
4.20857e-07
4.19626e-07
4.18396e-07
4.1717e-07
4.15949e-07
4.14734e-07
4.13527e-07
4.12328e-07
4.1114e-07
4.09963e-07
4.08798e-07
4.07647e-07
4.0651e-07
4.05387e-07
4.04279e-07
4.03187e-07
4.02109e-07
4.01046e-07
3.99997e-07
3.9896e-07
3.97939e-07
3.9693e-07
3.95933e-07
3.94934e-07
3.93936e-07
3.92927e-07
3.91916e-07
3.90892e-07
3.89884e-07
3.88897e-07
3.88034e-07
4.50343e-07
4.50224e-07
4.49987e-07
4.49632e-07
4.49163e-07
4.48587e-07
4.47913e-07
4.47151e-07
4.46312e-07
4.45403e-07
4.44434e-07
4.43411e-07
4.4234e-07
4.41226e-07
4.40073e-07
4.38887e-07
4.37671e-07
4.36429e-07
4.35164e-07
4.33879e-07
4.32576e-07
4.31257e-07
4.29926e-07
4.28582e-07
4.27229e-07
4.25868e-07
4.245e-07
4.23126e-07
4.21748e-07
4.20368e-07
4.18985e-07
4.17603e-07
4.16221e-07
4.1484e-07
4.13462e-07
4.12088e-07
4.10717e-07
4.09352e-07
4.07993e-07
4.0664e-07
4.05294e-07
4.03955e-07
4.02623e-07
4.01299e-07
3.9998e-07
3.9867e-07
3.97365e-07
3.96065e-07
3.94766e-07
3.93468e-07
3.9216e-07
3.90839e-07
3.89491e-07
3.88122e-07
3.86717e-07
3.8529e-07
3.8382e-07
3.82333e-07
3.80826e-07
3.79409e-07
4.5471e-07
4.54548e-07
4.54224e-07
4.53741e-07
4.53109e-07
4.52345e-07
4.51467e-07
4.50491e-07
4.49436e-07
4.48312e-07
4.47129e-07
4.45896e-07
4.44619e-07
4.43304e-07
4.41956e-07
4.4058e-07
4.39179e-07
4.37758e-07
4.36319e-07
4.34864e-07
4.33395e-07
4.31914e-07
4.30422e-07
4.28921e-07
4.27412e-07
4.25895e-07
4.24371e-07
4.22842e-07
4.21308e-07
4.1977e-07
4.18229e-07
4.16685e-07
4.15138e-07
4.13591e-07
4.12042e-07
4.10493e-07
4.08945e-07
4.07396e-07
4.05849e-07
4.04302e-07
4.02756e-07
4.01211e-07
3.99666e-07
3.9812e-07
3.96572e-07
3.95022e-07
3.93464e-07
3.91899e-07
3.90321e-07
3.8873e-07
3.87119e-07
3.85491e-07
3.83836e-07
3.82162e-07
3.80444e-07
3.78688e-07
3.7686e-07
3.74981e-07
3.73045e-07
3.71176e-07
4.60248e-07
4.60035e-07
4.59604e-07
4.5896e-07
4.58117e-07
4.57106e-07
4.55957e-07
4.54703e-07
4.53367e-07
4.51967e-07
4.50515e-07
4.49019e-07
4.47488e-07
4.45927e-07
4.44343e-07
4.4274e-07
4.41122e-07
4.39492e-07
4.37852e-07
4.36203e-07
4.34545e-07
4.32881e-07
4.3121e-07
4.29533e-07
4.2785e-07
4.26161e-07
4.24468e-07
4.22769e-07
4.21065e-07
4.19357e-07
4.17644e-07
4.15927e-07
4.14207e-07
4.12482e-07
4.10754e-07
4.09022e-07
4.07288e-07
4.0555e-07
4.0381e-07
4.02066e-07
4.0032e-07
3.98571e-07
3.96818e-07
3.95061e-07
3.93301e-07
3.91534e-07
3.89762e-07
3.87982e-07
3.86192e-07
3.8439e-07
3.8257e-07
3.80726e-07
3.78848e-07
3.76926e-07
3.74942e-07
3.72884e-07
3.70738e-07
3.68515e-07
3.66218e-07
3.6394e-07
4.66965e-07
4.66532e-07
4.65746e-07
4.64657e-07
4.63334e-07
4.61848e-07
4.60257e-07
4.58598e-07
4.56894e-07
4.55156e-07
4.53389e-07
4.516e-07
4.49794e-07
4.47977e-07
4.46156e-07
4.44332e-07
4.42507e-07
4.40681e-07
4.38855e-07
4.37027e-07
4.35197e-07
4.33364e-07
4.31529e-07
4.2969e-07
4.27847e-07
4.25999e-07
4.24145e-07
4.22286e-07
4.2042e-07
4.18547e-07
4.16668e-07
4.14781e-07
4.12887e-07
4.10986e-07
4.09078e-07
4.07161e-07
4.05239e-07
4.03308e-07
4.0137e-07
3.99424e-07
3.97472e-07
3.95511e-07
3.93544e-07
3.91565e-07
3.89582e-07
3.87584e-07
3.85581e-07
3.83558e-07
3.8153e-07
3.79476e-07
3.77417e-07
3.75322e-07
3.73225e-07
3.71082e-07
3.68942e-07
3.66741e-07
3.64551e-07
3.62283e-07
3.60041e-07
3.5772e-07
4.7871e-07
4.7796e-07
4.76547e-07
4.74597e-07
4.72315e-07
4.69897e-07
4.6747e-07
4.65083e-07
4.62741e-07
4.6043e-07
4.58142e-07
4.55875e-07
4.53635e-07
4.51428e-07
4.49254e-07
4.47113e-07
4.44999e-07
4.42908e-07
4.40836e-07
4.38777e-07
4.36731e-07
4.34692e-07
4.3266e-07
4.3063e-07
4.28602e-07
4.26573e-07
4.24541e-07
4.22505e-07
4.20463e-07
4.18414e-07
4.16358e-07
4.14293e-07
4.12219e-07
4.10136e-07
4.08044e-07
4.0594e-07
4.03828e-07
4.01704e-07
3.99573e-07
3.97428e-07
3.95279e-07
3.93112e-07
3.90945e-07
3.88757e-07
3.86574e-07
3.84364e-07
3.82168e-07
3.79938e-07
3.77735e-07
3.75486e-07
3.73289e-07
3.71028e-07
3.68859e-07
3.66596e-07
3.64492e-07
3.62241e-07
3.60255e-07
3.58024e-07
3.56194e-07
3.53886e-07
4.87461e-07
4.85734e-07
4.8309e-07
4.79966e-07
4.76752e-07
4.7366e-07
4.7074e-07
4.67957e-07
4.65259e-07
4.62618e-07
4.60025e-07
4.57488e-07
4.55012e-07
4.52597e-07
4.50238e-07
4.47925e-07
4.45649e-07
4.43401e-07
4.41177e-07
4.3897e-07
4.36777e-07
4.34594e-07
4.32418e-07
4.30244e-07
4.2807e-07
4.25893e-07
4.23711e-07
4.21522e-07
4.19325e-07
4.17118e-07
4.149e-07
4.12671e-07
4.1043e-07
4.08177e-07
4.05912e-07
4.03632e-07
4.01343e-07
3.99038e-07
3.96725e-07
3.94396e-07
3.9206e-07
3.89706e-07
3.8735e-07
3.84971e-07
3.82597e-07
3.8019e-07
3.77803e-07
3.75365e-07
3.72972e-07
3.70499e-07
3.68122e-07
3.65616e-07
3.63308e-07
3.60788e-07
3.58684e-07
3.5622e-07
3.54654e-07
3.52324e-07
3.51907e-07
3.49295e-07
5.35508e-07
5.21386e-07
5.0762e-07
4.97044e-07
4.89624e-07
4.84236e-07
4.79788e-07
4.75713e-07
4.71842e-07
4.68182e-07
4.64772e-07
4.61614e-07
4.58675e-07
4.55905e-07
4.53258e-07
4.507e-07
4.4821e-07
4.45775e-07
4.43384e-07
4.41028e-07
4.387e-07
4.3639e-07
4.34093e-07
4.31802e-07
4.29515e-07
4.27226e-07
4.24933e-07
4.22633e-07
4.20325e-07
4.18006e-07
4.15676e-07
4.13334e-07
4.10978e-07
4.0861e-07
4.06228e-07
4.03832e-07
4.01424e-07
3.99003e-07
3.9657e-07
3.94125e-07
3.91669e-07
3.89202e-07
3.86724e-07
3.84236e-07
3.81737e-07
3.79227e-07
3.76706e-07
3.7417e-07
3.71623e-07
3.6905e-07
3.66473e-07
3.63839e-07
3.61231e-07
3.58477e-07
3.55877e-07
3.52795e-07
3.50488e-07
3.46136e-07
3.45884e-07
3.35337e-07
3.38534e-07
3.37081e-07
3.32166e-07
3.26001e-07
3.19981e-07
3.15007e-07
3.11576e-07
3.09793e-07
3.09435e-07
3.10007e-07
3.10898e-07
3.1162e-07
3.11915e-07
3.11844e-07
3.11707e-07
3.47662e-07
3.43851e-07
3.37422e-07
3.31334e-07
3.26808e-07
3.24023e-07
3.2276e-07
3.22634e-07
3.2321e-07
3.23928e-07
3.24351e-07
3.24387e-07
3.24284e-07
3.24438e-07
3.25175e-07
3.26692e-07
3.28921e-07
3.31716e-07
3.34747e-07
3.37641e-07
3.40399e-07
3.43237e-07
3.45948e-07
3.47626e-07
3.46816e-07
3.42199e-07
3.29533e-07
2.99799e-07
2.65185e-07
8.51839e-08
3.4889e-07
3.4552e-07
3.41613e-07
3.38247e-07
3.3596e-07
3.34669e-07
3.33942e-07
3.3335e-07
3.32694e-07
3.32144e-07
3.32151e-07
3.33086e-07
3.34983e-07
3.37584e-07
3.40584e-07
3.43821e-07
3.47234e-07
3.50745e-07
3.544e-07
3.58373e-07
3.63038e-07
3.68318e-07
3.73529e-07
3.77859e-07
3.80523e-07
3.80272e-07
3.73005e-07
3.54553e-07
3.20687e-07
1.78016e-07
3.52486e-07
3.50275e-07
3.48374e-07
3.46884e-07
3.45851e-07
3.45218e-07
3.44852e-07
3.44685e-07
3.44811e-07
3.45497e-07
3.46944e-07
3.49183e-07
3.52082e-07
3.55357e-07
3.58732e-07
3.62115e-07
3.65682e-07
3.69782e-07
3.74777e-07
3.80892e-07
3.87972e-07
3.95484e-07
4.0283e-07
4.09854e-07
4.16164e-07
4.20405e-07
4.1922e-07
4.09294e-07
3.80087e-07
2.70756e-07
3.58901e-07
3.57367e-07
3.56493e-07
3.56045e-07
3.55865e-07
3.55918e-07
3.56245e-07
3.56928e-07
3.58058e-07
3.59689e-07
3.61784e-07
3.6423e-07
3.66919e-07
3.69886e-07
3.73363e-07
3.77716e-07
3.83201e-07
3.89816e-07
3.9739e-07
4.05729e-07
4.1451e-07
4.23568e-07
4.33109e-07
4.43274e-07
4.53462e-07
4.62205e-07
4.66987e-07
4.64495e-07
4.43091e-07
3.6288e-07
3.66753e-07
3.6581e-07
3.65637e-07
3.65957e-07
3.66555e-07
3.6737e-07
3.68447e-07
3.69866e-07
3.71689e-07
3.73933e-07
3.76592e-07
3.79679e-07
3.83272e-07
3.87553e-07
3.92715e-07
3.98843e-07
4.05928e-07
4.13818e-07
4.22309e-07
4.31349e-07
4.41167e-07
4.5221e-07
4.64749e-07
4.78424e-07
4.92308e-07
5.05326e-07
5.1572e-07
5.20222e-07
5.07866e-07
4.51889e-07
3.7566e-07
3.75275e-07
3.75702e-07
3.76661e-07
3.77927e-07
3.79418e-07
3.8116e-07
3.8323e-07
3.85705e-07
3.88643e-07
3.92095e-07
3.96121e-07
4.00793e-07
4.06182e-07
4.12331e-07
4.19234e-07
4.26855e-07
4.3525e-07
4.44655e-07
4.55449e-07
4.6795e-07
4.8218e-07
4.9785e-07
5.14423e-07
5.31486e-07
5.48654e-07
5.64501e-07
5.75714e-07
5.72825e-07
5.37038e-07
3.85081e-07
3.85266e-07
3.86244e-07
3.87764e-07
3.89615e-07
3.91716e-07
3.94089e-07
3.9681e-07
3.99969e-07
4.03639e-07
4.07881e-07
4.12749e-07
4.18293e-07
4.24561e-07
4.3161e-07
4.3952e-07
4.48422e-07
4.58531e-07
4.70069e-07
4.83147e-07
4.97768e-07
5.13795e-07
5.31108e-07
5.49836e-07
5.70182e-07
5.917e-07
6.12734e-07
6.30148e-07
6.36074e-07
6.16473e-07
3.94772e-07
3.95515e-07
3.97013e-07
3.99045e-07
4.0143e-07
4.04099e-07
4.07077e-07
4.10439e-07
4.14274e-07
4.1866e-07
4.23659e-07
4.2933e-07
4.35733e-07
4.4294e-07
4.51043e-07
4.60152e-07
4.70395e-07
4.81904e-07
4.94796e-07
5.09151e-07
5.2502e-07
5.42551e-07
5.62092e-07
5.83954e-07
6.0805e-07
6.33602e-07
6.59092e-07
6.81981e-07
6.95911e-07
6.89287e-07
4.04301e-07
4.05583e-07
4.07556e-07
4.10045e-07
4.12909e-07
4.16095e-07
4.19634e-07
4.23598e-07
4.2807e-07
4.33127e-07
4.38837e-07
4.45264e-07
4.52479e-07
4.60566e-07
4.69621e-07
4.79756e-07
4.91093e-07
5.03763e-07
5.17914e-07
5.33724e-07
5.51425e-07
5.71282e-07
5.93485e-07
6.18021e-07
6.44677e-07
6.72989e-07
7.02142e-07
7.29952e-07
7.50785e-07
7.54029e-07
4.13275e-07
4.1506e-07
4.1746e-07
4.20354e-07
4.23643e-07
4.27296e-07
4.31346e-07
4.3586e-07
4.40916e-07
4.4659e-07
4.52952e-07
4.60075e-07
4.68035e-07
4.76924e-07
4.86847e-07
4.97924e-07
5.10293e-07
5.24109e-07
5.3955e-07
5.56811e-07
5.761e-07
5.97608e-07
6.21496e-07
6.47835e-07
6.7664e-07
7.0776e-07
7.40553e-07
7.72741e-07
7.99278e-07
8.09764e-07
4.2124e-07
4.23469e-07
4.26234e-07
4.29469e-07
4.33115e-07
4.37165e-07
4.41652e-07
4.46639e-07
4.52198e-07
4.58402e-07
4.65324e-07
4.73042e-07
4.81639e-07
4.91213e-07
5.01876e-07
5.13756e-07
5.26998e-07
5.41766e-07
5.58244e-07
5.76629e-07
5.97138e-07
6.19989e-07
6.45415e-07
6.73606e-07
7.04675e-07
7.38386e-07
7.73986e-07
8.09277e-07
8.40041e-07
8.55441e-07
4.27753e-07
4.30345e-07
4.33401e-07
4.36902e-07
4.4083e-07
4.45194e-07
4.5003e-07
4.55395e-07
4.61357e-07
4.67986e-07
4.75357e-07
4.83551e-07
4.92659e-07
5.02782e-07
5.14037e-07
5.26557e-07
5.40495e-07
5.5602e-07
5.73324e-07
5.9262e-07
6.14142e-07
6.3813e-07
6.64833e-07
6.94437e-07
7.27038e-07
7.62414e-07
7.99937e-07
8.37572e-07
8.71623e-07
8.90519e-07
4.32415e-07
4.35264e-07
4.38524e-07
4.4221e-07
4.46332e-07
4.50914e-07
4.55994e-07
4.61625e-07
4.67868e-07
4.74794e-07
4.82479e-07
4.91006e-07
5.0047e-07
5.10974e-07
5.22641e-07
5.35606e-07
5.50025e-07
5.66073e-07
5.83949e-07
6.0387e-07
6.26079e-07
6.50823e-07
6.78356e-07
7.08876e-07
7.42507e-07
7.79072e-07
8.18002e-07
8.5729e-07
8.93485e-07
9.14575e-07
4.3492e-07
4.37906e-07
4.41272e-07
4.45053e-07
4.49276e-07
4.53972e-07
4.59179e-07
4.64949e-07
4.7134e-07
4.78421e-07
4.86269e-07
4.94969e-07
5.04618e-07
5.15321e-07
5.27202e-07
5.40398e-07
5.55067e-07
5.71388e-07
5.89561e-07
6.09807e-07
6.32372e-07
6.57507e-07
6.85475e-07
7.16481e-07
7.5066e-07
7.87839e-07
8.27461e-07
8.67548e-07
9.04791e-07
9.26978e-07
4.35102e-07
4.38094e-07
4.41464e-07
4.45248e-07
4.49474e-07
4.54173e-07
4.59385e-07
4.65159e-07
4.71555e-07
4.7864e-07
4.86494e-07
4.95199e-07
5.04853e-07
5.15562e-07
5.27448e-07
5.40651e-07
5.55327e-07
5.71656e-07
5.89837e-07
6.10092e-07
6.32668e-07
6.57815e-07
6.85797e-07
7.1682e-07
7.51019e-07
7.88222e-07
8.27875e-07
8.68e-07
9.05294e-07
9.27539e-07
4.32959e-07
4.35825e-07
4.39096e-07
4.42791e-07
4.46923e-07
4.51516e-07
4.56609e-07
4.62253e-07
4.6851e-07
4.7545e-07
4.8315e-07
4.91692e-07
5.01171e-07
5.11692e-07
5.23377e-07
5.36361e-07
5.50801e-07
5.66872e-07
5.84773e-07
6.04722e-07
6.26963e-07
6.51743e-07
6.79319e-07
7.09889e-07
7.4358e-07
7.8022e-07
8.19241e-07
8.58643e-07
8.94991e-07
9.16257e-07
4.28651e-07
4.31268e-07
4.34344e-07
4.37861e-07
4.41805e-07
4.46187e-07
4.51044e-07
4.56431e-07
4.62416e-07
4.69068e-07
4.76463e-07
4.84683e-07
4.93817e-07
5.03967e-07
5.15252e-07
5.27805e-07
5.41777e-07
5.57339e-07
5.74686e-07
5.94028e-07
6.15602e-07
6.3965e-07
6.66423e-07
6.96108e-07
7.28808e-07
7.64308e-07
8.01987e-07
8.39818e-07
8.74131e-07
8.9332e-07
4.22476e-07
4.2474e-07
4.27533e-07
4.3079e-07
4.3446e-07
4.38535e-07
4.43051e-07
4.48068e-07
4.53659e-07
4.59896e-07
4.66852e-07
4.74604e-07
4.83238e-07
4.92851e-07
5.03556e-07
5.15479e-07
5.28769e-07
5.4359e-07
5.60125e-07
5.78576e-07
5.99158e-07
6.22094e-07
6.47619e-07
6.75925e-07
7.07129e-07
7.41005e-07
7.76818e-07
8.12387e-07
8.43533e-07
8.59359e-07
4.14829e-07
4.16659e-07
4.19094e-07
4.22018e-07
4.25337e-07
4.29023e-07
4.3311e-07
4.37663e-07
4.42761e-07
4.48476e-07
4.54881e-07
4.62048e-07
4.70055e-07
4.78993e-07
4.88969e-07
5.00102e-07
5.12532e-07
5.26414e-07
5.41928e-07
5.59269e-07
5.7865e-07
6.00264e-07
6.24277e-07
6.50769e-07
6.79757e-07
7.11094e-07
7.44154e-07
7.7669e-07
8.03716e-07
8.14805e-07
4.0615e-07
4.07486e-07
4.09501e-07
4.12028e-07
4.14928e-07
4.18156e-07
4.2174e-07
4.25752e-07
4.30274e-07
4.35381e-07
4.41143e-07
4.47624e-07
4.54896e-07
4.63042e-07
4.72161e-07
4.82364e-07
4.93776e-07
5.06527e-07
5.20768e-07
5.36677e-07
5.54489e-07
5.74469e-07
5.96816e-07
6.21526e-07
6.48403e-07
6.76989e-07
7.06479e-07
7.34717e-07
7.56143e-07
7.6019e-07
3.96889e-07
3.97695e-07
3.99244e-07
4.0132e-07
4.0375e-07
4.06468e-07
4.09499e-07
4.12918e-07
4.16811e-07
4.21256e-07
4.26317e-07
4.32051e-07
4.3852e-07
4.45796e-07
4.53973e-07
4.6316e-07
4.73488e-07
4.85089e-07
4.98083e-07
5.12555e-07
5.28558e-07
5.46243e-07
5.65957e-07
5.88017e-07
6.12356e-07
6.38221e-07
6.64116e-07
6.87521e-07
7.0216e-07
6.96553e-07
3.87439e-07
3.87695e-07
3.88732e-07
3.90304e-07
3.92208e-07
3.94366e-07