/*--------------------------------*- C++ -*----------------------------------*\
| =========                 |                                                 |
| \\      /  F ield         | OpenFOAM: The Open Source CFD Toolbox           |
|  \\    /   O peration     | Version:  2312                                  |
|   \\  /    A nd           | Website:  www.openfoam.com                      |
|    \\/     M anipulation  |                                                 |
\*---------------------------------------------------------------------------*/
FoamFile
{
    version     2.0;
    format      ascii;
    arch        "LSB;label=32;scalar=64";
    class       volVectorField;
    location    "116000";
    object      U;
}
// * * * * * * * * * * * * * * * * * * * * * * * * * * * * * * * * * * * * * //

dimensions      [0 1 -1 0 0 0 0];

internalField   nonuniform List<vector> 
2715
(
(0.000267829 2.90309e-05 1.09341e-24)
(0.00027897 -3.63189e-06 0)
(0.000243927 -2.71672e-06 0)
(0.000228798 -3.45091e-06 0)
(0.000220969 -3.45612e-06 -2.55458e-23)
(0.000225836 -4.33457e-06 2.49972e-23)
(0.000227542 -4.45807e-06 0)
(0.000241382 -5.38029e-06 6.45338e-25)
(0.000247419 -4.92957e-06 0)
(0.000267162 -5.53968e-06 0)
(0.000274495 -4.56629e-06 -1.9525e-25)
(0.000297102 -4.83184e-06 0)
(0.000302939 -3.26849e-06 -4.2692e-26)
(0.000325469 -3.16871e-06 0)
(0.000327206 -1.05386e-06 2.37321e-24)
(0.000347401 -5.11745e-07 -2.3737e-24)
(0.00034354 1.64142e-06 0)
(0.00036013 1.81084e-06 -1.13876e-25)
(0.000350406 3.53511e-06 0)
(0.000363189 3.24913e-06 0)
(0.000348561 5.35859e-06 0)
(0.00035762 3.89582e-06 0)
(0.000339703 6.90698e-06 9.87044e-25)
(0.000344775 4.58987e-06 0)
(0.000325114 6.51518e-06 -3.84049e-23)
(0.000325666 8.52248e-06 3.69621e-23)
(0.000306265 3.85977e-07 0)
(0.000286806 1.45082e-05 0)
(0.000322696 5.41661e-05 0)
(-5.56172e-05 -7.09173e-05 1.65052e-24)
(0.000531081 4.85368e-05 6.39512e-23)
(0.000583349 1.31555e-05 -6.76825e-23)
(0.000556533 1.60174e-05 1.81215e-24)
(0.000550794 8.5319e-06 0)
(0.000541571 3.18051e-06 0)
(0.000556424 -1.28129e-06 2.45408e-23)
(0.000556173 -2.49198e-06 -2.12397e-24)
(0.000585602 -5.83671e-06 -2.26429e-23)
(0.000590863 -5.56598e-06 -5.6953e-25)
(0.000631802 -8.43615e-06 0)
(0.000639111 -6.82019e-06 -4.84246e-24)
(0.000687409 -9.48467e-06 5.45069e-24)
(0.000693277 -6.59519e-06 -8.30961e-25)
(0.000744358 -9.23997e-06 9.413e-25)
(0.000745425 -5.1741e-06 7.34786e-24)
(0.000795055 -8.04702e-06 -8.4997e-24)
(0.000788861 -2.91685e-06 -2.12722e-24)
(0.000833642 -6.80319e-06 3.33855e-24)
(0.00081985 -1.07777e-08 -1.03479e-23)
(0.000857726 -5.3903e-06 1.10054e-23)
(0.00083834 3.3382e-06 0)
(0.000865589 -4.04755e-06 -8.98603e-25)
(0.000846991 6.5549e-06 3.21806e-23)
(0.000854201 -3.53627e-06 2.61317e-24)
(0.000852593 1.19124e-05 -3.41252e-23)
(0.000811331 -7.7792e-06 0)
(0.000875415 3.23315e-05 0)
(0.000680841 -3.97022e-05 2.59721e-24)
(0.00099458 0.000111214 9.4543e-23)
(0.00039337 -5.24125e-05 -9.76906e-23)
(0.00070707 4.80669e-05 4.30151e-24)
(0.000758408 1.85845e-06 -5.81279e-23)
(0.00074961 2.87342e-06 5.88539e-23)
(0.000759939 -2.79062e-06 3.52155e-24)
(0.000757012 -7.50901e-06 0)
(0.000781084 -1.43625e-05 0)
(0.000781736 -1.60737e-05 -1.43807e-24)
(0.000817586 -2.16146e-05 0)
(0.000822426 -2.10007e-05 -9.11854e-24)
(0.000869431 -2.6146e-05 1.54421e-24)
(0.000877118 -2.2918e-05 1.24954e-23)
(0.000931645 -2.75859e-05 -5.43074e-24)
(0.000939793 -2.13614e-05 0)
(0.000997154 -2.58323e-05 0)
(0.00100335 -1.65331e-05 1.30288e-23)
(0.00105867 -2.17891e-05 -1.30472e-23)
(0.00106154 -9.35532e-06 -1.75724e-25)
(0.00111037 -1.65477e-05 0)
(0.00111095 -3.09275e-07 1.05586e-23)
(0.00114815 -1.14476e-05 -2.29004e-23)
(0.00115065 9.58832e-06 -1.72191e-24)
(0.00116841 -8.83576e-06 1.30508e-23)
(0.00118295 2.18953e-05 0)
(0.00116713 -1.06519e-05 -2.16929e-24)
(0.00121432 4.00366e-05 0)
(0.00113522 -2.21407e-05 0)
(0.00125899 7.42497e-05 5.01829e-24)
(0.0010581 -4.79286e-05 -8.70623e-23)
(0.00133479 0.000119829 8.60783e-23)
(0.000977435 -3.99672e-05 6.07249e-24)
(0.000839364 3.47069e-05 6.10875e-23)
(0.000882326 -3.27299e-06 -1.26851e-22)
(0.00088311 -2.74544e-06 3.58811e-23)
(0.000899224 -7.10268e-06 2.57732e-23)
(0.000900958 -1.12551e-05 0)
(0.00092718 -2.01005e-05 3.15865e-24)
(0.000932635 -2.25541e-05 -1.42835e-24)
(0.000967889 -3.07154e-05 0)
(0.000977595 -2.99989e-05 1.17783e-24)
(0.00102069 -3.78524e-05 -7.02762e-24)
(0.00103434 -3.34423e-05 6.66684e-24)
(0.00108224 -4.10122e-05 0)
(0.00109863 -3.23254e-05 -7.67212e-25)
(0.00114712 -4.0161e-05 8.97684e-25)
(0.00116496 -2.68544e-05 1.93863e-23)
(0.00120935 -3.62216e-05 -2.06999e-23)
(0.00122833 -1.78467e-05 -2.04301e-24)
(0.00126388 -3.0697e-05 3.39689e-24)
(0.00128555 -6.62914e-06 0)
(0.00130698 -2.61046e-05 -1.32937e-23)
(0.0013357 6.47051e-06 1.24998e-23)
(0.00133633 -2.37203e-05 1.88419e-24)
(0.00138037 2.30777e-05 0)
(0.00134927 -2.45916e-05 -2.20786e-24)
(0.00142226 4.42863e-05 0)
(0.00134409 -2.97705e-05 -5.00464e-24)
(0.00146591 6.98356e-05 -4.79104e-23)
(0.00132445 -3.55884e-05 -3.83882e-23)
(0.00151492 8.24326e-05 1.75077e-22)
(0.00130026 -2.125e-06 -9.50432e-23)
(0.000943374 2.06377e-05 0)
(0.000975809 -8.97328e-06 5.36858e-23)
(0.000981272 -1.34056e-05 -9.56695e-23)
(0.000997073 -1.92133e-05 2.62693e-23)
(0.0010032 -2.37604e-05 0)
(0.00102791 -3.37292e-05 -3.2496e-24)
(0.00103874 -3.57973e-05 2.99163e-24)
(0.00106947 -4.49748e-05 0)
(0.00108476 -4.35138e-05 2.31443e-24)
(0.0011208 -5.27407e-05 0)
(0.00114078 -4.71545e-05 7.58316e-25)
(0.00117967 -5.634e-05 0)
(0.00120344 -4.56966e-05 0)
(0.00124162 -5.53797e-05 0)
(0.00126815 -3.91591e-05 2.71636e-23)
(0.0013017 -5.07234e-05 -2.71681e-23)
(0.00133067 -2.8523e-05 0)
(0.00135576 -4.41563e-05 0)
(0.00138812 -1.52071e-05 0)
(0.00140116 -3.74767e-05 1.49676e-24)
(0.0014395 1.39379e-07 0)
(0.00143662 -3.16157e-05 3.83694e-24)
(0.00148487 1.68403e-05 0)
(0.00146159 -2.76242e-05 4.56751e-24)
(0.00152497 3.49949e-05 0)
(0.00147672 -2.42944e-05 5.14712e-24)
(0.00156082 5.09837e-05 -4.84102e-23)
(0.00148414 -1.49791e-05 1.25494e-22)
(0.00159444 4.96441e-05 -9.82004e-23)
(0.00148043 1.58743e-05 0)
(0.00102507 5.78232e-06 5.80701e-23)
(0.00104832 -1.5514e-05 -1.30271e-22)
(0.00105704 -2.35505e-05 9.3682e-23)
(0.00107142 -3.00225e-05 -2.67091e-23)
(0.00108046 -3.35059e-05 -2.70926e-23)
(0.00110178 -4.37324e-05 2.40949e-23)
(0.00111598 -4.66168e-05 2.27852e-23)
(0.0011423 -5.67452e-05 -4.31557e-23)
(0.00116092 -5.59628e-05 1.79455e-23)
(0.00119152 -6.56633e-05 0)
(0.00121454 -6.05212e-05 -7.81779e-25)
(0.00124757 -6.97294e-05 5.12967e-25)
(0.00127388 -5.9363e-05 -5.9442e-25)
(0.00130654 -6.85083e-05 8.28157e-25)
(0.00133484 -5.25837e-05 3.60641e-23)
(0.00136416 -6.28718e-05 -3.76131e-23)
(0.0013936 -4.14236e-05 -2.37448e-24)
(0.00141699 -5.46413e-05 3.67557e-24)
(0.00144752 -2.75802e-05 1.29589e-24)
(0.00146306 -4.55091e-05 -1.54306e-24)
(0.00149542 -1.24927e-05 0)
(0.00150168 -3.65656e-05 -3.68907e-23)
(0.00153697 2.75463e-06 6.85319e-23)
(0.0015329 -2.75485e-05 -3.55412e-23)
(0.00157213 1.70787e-05 -4.54168e-23)
(0.00155703 -1.67058e-05 4.01627e-23)
(0.00160127 2.70951e-05 4.92561e-23)
(0.00157399 -6.60864e-07 -1.45116e-22)
(0.00162597 2.72988e-05 1.92435e-22)
(0.0015812 1.94557e-05 -1.02234e-22)
(0.00108736 -8.58325e-06 -5.87637e-23)
(0.00110391 -2.30278e-05 1.24745e-23)
(0.0011144 -3.30178e-05 6.50849e-23)
(0.00112757 -4.09439e-05 -7.54057e-24)
(0.00113833 -4.51444e-05 2.76222e-23)
(0.00115683 -5.50623e-05 -1.78767e-23)
(0.0011727 -5.90815e-05 0)
(0.00119589 -6.88864e-05 0)
(0.00121578 -6.94886e-05 0)
(0.00124293 -7.81892e-05 1.93228e-24)
(0.00126642 -7.46446e-05 7.42164e-25)
(0.00129623 -8.21299e-05 -5.29434e-25)
(0.00132196 -7.37472e-05 0)
(0.00135228 -8.02545e-05 -1.68115e-26)
(0.00137865 -6.6959e-05 4.72219e-23)
(0.00140724 -7.34176e-05 -4.72285e-23)
(0.00143297 -5.5724e-05 4.20157e-25)
(0.00145809 -6.33986e-05 0)
(0.00148257 -4.20197e-05 -1.33748e-24)
(0.00150315 -5.18804e-05 1.59709e-24)
(0.00152641 -2.76343e-05 3.59817e-24)
(0.00154188 -3.97579e-05 0)
(0.0015643 -1.37624e-05 0)
(0.00157418 -2.67802e-05 0)
(0.00159636 -1.55082e-06 5.64825e-23)
(0.00159973 -1.18926e-05 -4.10688e-23)
(0.00162313 7.56756e-06 0)
(0.00161782 5.21104e-06 -8.11539e-23)
(0.00164548 1.36858e-05 -2.80633e-24)
(0.0016278 1.96365e-05 1.04981e-22)
(0.0011319 -2.17618e-05 0)
(0.00114421 -3.1835e-05 -8.46282e-24)
(0.00115544 -4.23032e-05 3.15061e-23)
(0.0011679 -5.14169e-05 -2.41162e-23)
(0.00117978 -5.70234e-05 0)
(0.00119627 -6.61912e-05 -6.87266e-24)
(0.00121288 -7.15818e-05 0)
(0.00123385 -8.04006e-05 0)
(0.00125413 -8.29049e-05 0)
(0.0012788 -8.98953e-05 4.90859e-24)
(0.00130202 -8.86576e-05 -1.26668e-23)
(0.00132944 -9.3562e-05 5.948e-24)
(0.00135413 -8.81012e-05 -1.44688e-24)
(0.0013826 -9.09623e-05 1.7373e-26)
(0.00140692 -8.14591e-05 6.0428e-23)
(0.00143474 -8.29533e-05 -6.05424e-23)
(0.00145717 -7.03159e-05 -4.34189e-25)
(0.00148315 -7.13261e-05 5.12157e-24)
(0.00150277 -5.68293e-05 -1.87447e-23)
(0.0015264 -5.78428e-05 2.46161e-23)
(0.00154287 -4.28641e-05 -1.77247e-23)
(0.00156411 -4.34811e-05 0)
(0.00157734 -2.95271e-05 0)
(0.00159629 -2.83639e-05 0)
(0.00160624 -1.73913e-05 -1.03029e-23)
(0.00162286 -1.22578e-05 0)
(0.00162958 -6.34194e-06 4.62068e-23)
(0.00164385 4.15569e-06 -4.56523e-23)
(0.00164683 4.38338e-06 -1.19499e-23)
(0.00165968 1.82757e-05 0)
(0.0011601 -3.37204e-05 8.97022e-24)
(0.00117033 -4.17591e-05 6.77546e-23)
(0.00118175 -5.19466e-05 -3.62448e-23)
(0.00119381 -6.16057e-05 -2.02377e-24)
(0.00120647 -6.88888e-05 -3.11115e-23)
(0.00122173 -7.73277e-05 0)
(0.00123865 -8.40788e-05 2.38981e-23)
(0.00125805 -9.17174e-05 -3.26729e-24)
(0.00127846 -9.61179e-05 -1.86415e-23)
(0.00130118 -0.0001013 -6.84518e-24)
(0.00132421 -0.000102362 6.88671e-24)
(0.00134942 -0.000104635 4.89083e-25)
(0.00137361 -0.000102051 1.73182e-25)
(0.00139984 -0.00010134 5.77926e-26)
(0.00142336 -9.5479e-05 7.59011e-23)
(0.00144916 -9.23201e-05 -7.5871e-23)
(0.00147046 -8.43126e-05 -4.79943e-25)
(0.00149489 -7.9464e-05 1.23214e-24)
(0.00151304 -7.07784e-05 1.45681e-24)
(0.00153581 -6.46875e-05 -1.46452e-23)
(0.00155048 -5.66922e-05 1.45567e-23)
(0.00157169 -4.91894e-05 4.0303e-23)
(0.0015828 -4.29563e-05 3.2164e-24)
(0.0016026 -3.34163e-05 -3.85658e-23)
(0.00161016 -2.96363e-05 0)
(0.00162859 -1.74909e-05 4.59175e-23)
(0.00163245 -1.6267e-05 2.22711e-24)
(0.00164956 -1.98154e-06 5.09642e-23)
(0.00164925 -2.62856e-06 -9.67044e-23)
(0.00166538 1.25047e-05 1.25499e-23)
(0.00117358 -4.46017e-05 -8.14139e-23)
(0.00118335 -5.23231e-05 8.21511e-23)
(0.00119472 -6.22252e-05 -2.47325e-23)
(0.00120674 -7.18641e-05 5.7159e-23)
(0.00121993 -8.0605e-05 -3.1967e-23)
(0.00123475 -8.85913e-05 -2.00285e-23)
(0.00125172 -9.64503e-05 2.09869e-23)
(0.00127027 -0.000103097 0)
(0.00129063 -0.000108967 -4.86074e-24)
(0.00131212 -0.000112717 1.91255e-24)
(0.00133497 -0.000115541 0)
(0.00135851 -0.000115754 -1.19475e-24)
(0.00138253 -0.000115313 1.1512e-24)
(0.00140672 -0.000111878 2.30794e-26)
(0.00143019 -0.000108655 9.44992e-23)
(0.00145365 -0.000102082 -9.44336e-23)
(0.00147512 -9.72863e-05 -1.91794e-26)
(0.00149702 -8.83882e-05 -5.64977e-24)
(0.00151566 -8.34644e-05 5.65728e-24)
(0.00153583 -7.28466e-05 0)
(0.00155133 -6.89739e-05 4.04464e-24)
(0.00157003 -5.67829e-05 -8.91298e-24)
(0.00158227 -5.46482e-05 0)
(0.00159991 -4.06876e-05 -5.32991e-23)
(0.0016086 -4.05308e-05 5.34644e-23)
(0.00162562 -2.46001e-05 4.73716e-23)
(0.00163012 -2.64405e-05 -1.07927e-22)
(0.00164712 -8.45372e-06 4.84972e-23)
(0.00164643 -1.24201e-05 -9.07162e-23)
(0.0016644 8.30388e-06 7.60591e-23)
(0.00117461 -5.47668e-05 -7.43013e-23)
(0.0011849 -6.32054e-05 1.37926e-22)
(0.0011963 -7.31339e-05 -9.04415e-23)
(0.00120864 -8.25259e-05 4.93152e-23)
(0.00122221 -9.22283e-05 -3.28904e-23)
(0.00123727 -0.000100085 -7.35892e-24)
(0.00125425 -0.000108701 3.13858e-23)
(0.00127269 -0.000114761 -2.49661e-23)
(0.00129292 -0.000121512 2.48198e-24)
(0.00131404 -0.000124421 -1.982e-24)
(0.00133669 -0.000128256 0)
(0.0013595 -0.000127241 1.03811e-24)
(0.00138337 -0.000127953 -1.35042e-24)
(0.00140639 -0.00012292 1.9857e-25)
(0.00142994 -0.000121046 1.16982e-22)
(0.00145176 -0.000112568 -1.1686e-22)
(0.00147374 -0.000109314 4.90913e-24)
(0.00149348 -9.83291e-05 -2.56567e-25)
(0.00151327 -9.50566e-05 -5.99052e-24)
(0.00153072 -8.23548e-05 0)
(0.0015482 -8.00807e-05 -4.19146e-24)
(0.00156361 -6.60226e-05 4.62223e-24)
(0.00157879 -6.52416e-05 4.17402e-23)
(0.00159255 -4.97958e-05 -3.05938e-23)
(0.00160527 -5.06335e-05 -1.13646e-23)
(0.00161778 -3.35639e-05 4.89668e-23)
(0.0016275 -3.60698e-05 -2.35344e-23)
(0.00163929 -1.69652e-05 9.17905e-23)
(0.00164511 -2.13351e-05 -2.10231e-22)
(0.00165715 6.66344e-07 1.05486e-22)
(0.00116651 -6.50018e-05 -5.70677e-23)
(0.00117763 -7.43393e-05 1.33813e-23)
(0.0011893 -8.45936e-05 8.42271e-23)
(0.00120227 -9.38727e-05 -1.73536e-23)
(0.00121627 -0.000104062 0)
(0.00123205 -0.00011202 7.4462e-24)
(0.00124921 -0.000121062 6.67888e-24)
(0.0012682 -0.000126946 2.72751e-23)
(0.00128844 -0.000134067 -1.29603e-23)
(0.00131002 -0.000136666 -6.91732e-24)
(0.00133257 -0.000140854 -4.16424e-24)
(0.00135565 -0.000139328 4.01401e-24)
(0.00137934 -0.000140357 8.5694e-25)
(0.0014024 -0.000134649 -1.16367e-25)
(0.00142581 -0.000133088 1.4338e-22)
(0.00144734 -0.000123851 -1.43605e-22)
(0.00146937 -0.000120909 5.78687e-25)
(0.00148843 -0.00010918 -6.39407e-24)
(0.00150868 -0.000106201 -8.48327e-24)
(0.00152499 -9.28536e-05 1.47678e-23)
(0.00154358 -9.08442e-05 2.29852e-23)
(0.00155724 -7.62559e-05 2.19823e-23)
(0.00157451 -7.57471e-05 -2.95493e-23)
(0.0015857 -5.9784e-05 1.11566e-23)
(0.00160188 -6.10195e-05 1.17892e-23)
(0.0016106 -4.31864e-05 0)
(0.00162572 -4.6409e-05 -2.56909e-23)
(0.00163184 -2.59534e-05 -9.51102e-23)
(0.00164589 -3.15846e-05 -4.21642e-24)
(0.00164933 -7.36232e-06 1.23262e-22)
(0.00115323 -7.60669e-05 3.86881e-23)
(0.00116518 -8.60482e-05 -9.03865e-23)
(0.0011774 -9.66894e-05 -9.41231e-24)
(0.00119123 -0.000106095 8.97061e-24)
(0.00120588 -0.000116494 0)
(0.00122267 -0.0001247 -7.72447e-24)
(0.00124037 -0.00013394 -6.93182e-24)
(0.00126034 -0.000139944 -6.02219e-24)
(0.00128099 -0.000147112 8.65318e-24)
(0.0013036 -0.000149738 -1.06685e-23)
(0.00132641 -0.000153853 0)
(0.0013505 -0.000152252 5.02786e-25)
(0.00137421 -0.00015306 -6.3649e-25)
(0.0013982 -0.000147219 -1.85514e-25)
(0.00142138 -0.000145322 1.75063e-22)
(0.00144373 -0.000135976 -1.75074e-22)
(0.00146534 -0.00013261 6.56194e-25)
(0.00148512 -0.000120869 6.82459e-24)
(0.00150486 -0.000117407 -3.07478e-24)
(0.00152177 -0.000104185 0)
(0.00153994 -0.000101675 1.48501e-23)
(0.00155407 -8.73212e-05 -1.92919e-23)
(0.00157121 -8.63612e-05 -1.0863e-23)
(0.00158266 -7.06332e-05 -1.1579e-23)
(0.0015992 -7.15642e-05 -1.22296e-23)
(0.00160786 -5.37748e-05 0)
(0.00162406 -5.6975e-05 1.33154e-23)
(0.00162968 -3.61198e-05 -1.37724e-23)
(0.00164564 -4.22244e-05 1.01114e-22)
(0.00164812 -1.68236e-05 -1.42447e-22)
(0.00113972 -8.85885e-05 -4.00263e-23)
(0.00115224 -9.88585e-05 1.72667e-22)
(0.00116512 -0.000109775 -7.05323e-23)
(0.00117987 -0.000119491 3.53921e-23)
(0.00119535 -0.000130007 -3.59001e-23)
(0.00121324 -0.000138558 7.78034e-24)
(0.00123183 -0.000147868 -6.89419e-24)
(0.00125301 -0.00015415 2.16632e-23)
(0.00127451 -0.000161189 -2.66505e-23)
(0.00129841 -0.000163988 -6.06637e-24)
(0.00132193 -0.000167784 2.66264e-24)
(0.00134728 -0.00016627 3.24059e-24)
(0.00137139 -0.000166566 -1.37484e-24)
(0.00139656 -0.000160774 1.1996e-24)
(0.0014197 -0.000158211 2.13117e-22)
(0.00144319 -0.00014896 -2.1313e-22)
(0.0014643 -0.000144828 5.5007e-24)
(0.0014852 -0.000133301 1.15169e-24)
(0.00150401 -0.000129022 -2.78944e-23)
(0.00152213 -0.000116175 -2.04824e-24)
(0.00153906 -0.000112832 1.36201e-23)
(0.0015545 -9.90202e-05 3.35723e-23)
(0.00157027 -9.72371e-05 -4.38016e-23)
(0.00158307 -8.21893e-05 -1.21353e-23)
(0.00159844 -8.23078e-05 1.27742e-23)
(0.00160826 -6.52861e-05 4.13917e-23)
(0.00162395 -6.76555e-05 -5.39596e-23)
(0.00163003 -4.7614e-05 1.31148e-22)
(0.00164687 -5.28064e-05 -2.20215e-22)
(0.00164827 -2.82915e-05 1.78019e-22)
(0.00112985 -0.000102819 -4.36056e-23)
(0.00114273 -0.000113205 -6.07329e-23)
(0.00115624 -0.000124269 1.21981e-22)
(0.00117187 -0.000134406 -3.94795e-23)
(0.00118826 -0.000145056 0)
(0.00120727 -0.000154029 -1.60345e-23)
(0.00122691 -0.00016334 3.32508e-23)
(0.00124938 -0.000169951 -2.63846e-23)
(0.00127196 -0.000176744 4.96701e-24)
(0.00129716 -0.000179726 5.7275e-24)
(0.0013216 -0.000183028 -5.77279e-24)
(0.00134813 -0.000181584 0)
(0.0013728 -0.000181167 0)
(0.00139894 -0.000175389 0)
(0.00142215 -0.000171963 2.59381e-22)
(0.00144641 -0.000162764 -2.59477e-22)
(0.00146701 -0.0001577 0)
(0.00148867 -0.000146344 -1.8668e-24)
(0.00150637 -0.000141126 0)
(0.00152542 -0.000128621 1.98447e-23)
(0.00154062 -0.000124369 -1.45556e-23)
(0.00155745 -0.000111093 1.11243e-23)
(0.00157083 -0.000108449 4.95655e-23)
(0.00158574 -9.4116e-05 -3.63494e-23)
(0.001598 -9.3433e-05 -2.66396e-23)
(0.0016109 -7.72258e-05 1.38733e-23)
(0.00162273 -7.88903e-05 5.90578e-23)
(0.00163302 -5.95874e-05 -1.79802e-22)
(0.00164524 -6.43082e-05 1.50315e-22)
(0.00165199 -4.0151e-05 -6.25534e-23)
(0.00112634 -0.000118924 -6.55043e-23)
(0.00113941 -0.000129468 1.74261e-22)
(0.00115328 -0.000140621 -9.64649e-23)
(0.00116961 -0.000151217 3.74553e-23)
(0.00118673 -0.000162025 -7.23051e-23)
(0.00120677 -0.000171449 2.06055e-23)
(0.00122731 -0.000180694 4.69794e-24)
(0.00125096 -0.000187589 4.80206e-23)
(0.00127444 -0.000193997 -2.1687e-23)
(0.00130077 -0.000197073 1.59145e-24)
(0.00132589 -0.000199689 -2.33042e-24)
(0.00135328 -0.000198196 2.00215e-24)
(0.00137827 -0.000196858 -1.50949e-24)
(0.00140486 -0.000190967 2.57207e-24)
(0.00142796 -0.000186488 3.15279e-22)
(0.00145229 -0.00017722 -3.15291e-22)
(0.00147237 -0.000171084 5.6354e-24)
(0.00149385 -0.000159797 3.14227e-24)
(0.00151064 -0.000153555 -2.77205e-23)
(0.00152951 -0.000141325 1.9093e-23)
(0.00154342 -0.000136116 0)
(0.00156036 -0.00012338 4.91835e-23)
(0.00157201 -0.000119814 -1.00798e-22)
(0.00158767 -0.000106343 1.00012e-23)
(0.00159764 -0.000104687 2.46851e-23)
(0.00161234 -8.97239e-05 1.16127e-22)
(0.0016211 -9.02142e-05 -4.36107e-23)
(0.00163466 -7.25892e-05 1.11335e-22)
(0.00164275 -7.57574e-05 -2.54711e-22)
(0.00165464 -5.37701e-05 1.60358e-22)
(0.00112848 -0.000136603 0)
(0.00114164 -0.000147551 -2.26858e-23)
(0.00115562 -0.000158867 1.08179e-23)
(0.00117243 -0.000169934 3.85283e-23)
(0.00118998 -0.00018092 -3.91595e-23)
(0.00121087 -0.000190759 -3.93966e-23)
(0.00123198 -0.000199867 3.13946e-23)
(0.0012566 -0.000206927 0)
(0.00128052 -0.000212799 -3.30531e-24)
(0.0013077 -0.000215809 6.12022e-24)
(0.00133294 -0.000217538 -6.57408e-25)
(0.00136089 -0.000215829 9.80697e-25)
(0.00138557 -0.000213352 -8.35806e-25)
(0.00141231 -0.000207208 -7.44353e-25)
(0.00143472 -0.000201484 3.84126e-22)
(0.00145879 -0.00019205 -3.84137e-22)
(0.00147793 -0.000184704 -1.12586e-25)
(0.00149883 -0.000173421 -9.31024e-24)
(0.0015146 -0.000166103 4.23964e-24)
(0.00153274 -0.00015408 -5.5103e-24)
(0.00154562 -0.00014798 -2.44817e-23)
(0.00156192 -0.000135663 3.69403e-23)
(0.00157251 -0.0001314 0)
(0.00158797 -0.000118571 -7.17212e-23)
(0.00159669 -0.000116363 4.23389e-23)
(0.00161207 -0.000102288 6.24191e-23)
(0.00161907 -0.000102248 -7.71253e-23)
(0.00163469 -8.57983e-05 1.61796e-23)
(0.00164011 -8.82585e-05 -3.32187e-23)
(0.00165582 -6.78125e-05 0)
(0.00113136 -0.000155476 -9.51384e-23)
(0.0011449 -0.000167191 1.644e-22)
(0.00115911 -0.000178873 -1.14876e-22)
(0.0011764 -0.000190396 0)
(0.0011944 -0.000201555 -3.57593e-23)
(0.00121603 -0.000211681 2.80076e-23)
(0.00123757 -0.000220579 7.07328e-24)
(0.00126294 -0.000227609 2.04643e-23)
(0.00128699 -0.000232819 -2.11933e-23)
(0.00131481 -0.00023554 0)
(0.00133974 -0.000236222 6.89701e-25)
(0.00136811 -0.000234103 -1.59548e-24)
(0.001392 -0.000230322 -2.32956e-24)
(0.00141894 -0.000223811 2.05886e-24)
(0.00144014 -0.000216684 4.69081e-22)
(0.00146422 -0.000207072 -4.69091e-22)
(0.00148195 -0.000198362 1.32232e-23)
(0.00150269 -0.000187171 3.69695e-24)
(0.00151712 -0.000178627 -4.88418e-24)
(0.00153491 -0.000166967 5.78087e-24)
(0.00154676 -0.000159845 0)
(0.00156253 -0.000148118 5.58657e-23)
(0.00157253 -0.000143094 -5.49089e-23)
(0.00158741 -0.000131022 0)
(0.0015959 -0.00012834 -7.8877e-23)
(0.00161102 -0.000115139 6.23549e-23)
(0.0016177 -0.000114855 0)
(0.00163417 -9.94025e-05 1.04693e-22)
(0.00163816 -0.000101671 -3.12876e-22)
(0.001657 -8.24461e-05 1.39291e-22)
(0.00113123 -0.000175733 -9.92138e-23)
(0.00114529 -0.000188384 1.25757e-22)
(0.00115998 -0.000200572 2.32656e-23)
(0.00117778 -0.000212441 4.06872e-23)
(0.00119639 -0.000223693 -4.1422e-23)
(0.00121865 -0.000233877 8.73171e-24)
(0.00124076 -0.000242496 -7.41941e-24)
(0.00126674 -0.000249253 0)
(0.00129109 -0.000253754 -4.34552e-24)
(0.00131944 -0.000255936 -9.90339e-25)
(0.00134427 -0.000255551 7.67687e-25)
(0.00137315 -0.000252803 -2.12303e-24)
(0.0013964 -0.000247725 2.02512e-24)
(0.0014239 -0.000240702 1.12837e-24)
(0.00144393 -0.000232177 5.74942e-22)
(0.0014687 -0.000222345 -5.75042e-22)
(0.00148482 -0.000212228 -2.28304e-24)
(0.00150641 -0.000201205 1.14238e-23)
(0.00151898 -0.000191297 -4.19316e-23)
(0.0015377 -0.000180205 2.44854e-23)
(0.00154776 -0.000171814 -6.94085e-24)
(0.00156427 -0.000160987 -1.42788e-23)
(0.00157299 -0.00015489 0)
(0.001588 -0.000143915 0)
(0.0015962 -0.000140508 1.62564e-23)
(0.0016105 -0.000128406 6.89815e-23)
(0.00161817 -0.000127889 -6.7757e-23)
(0.0016328 -0.00011337 3.54998e-23)
(0.00163871 -0.000115899 -1.12225e-22)
(0.00165527 -9.7522e-05 1.45661e-22)
(0.00112173 -0.000196898 -1.30498e-22)
(0.00113709 -0.000210455 8.03962e-23)
(0.0011533 -0.000223333 0)
(0.00117233 -0.000235591 0)
(0.00119247 -0.000247014 -3.67826e-23)
(0.00121591 -0.000257172 3.74442e-23)
(0.00123954 -0.000265584 2.48807e-23)
(0.00126657 -0.000271941 -3.03296e-23)
(0.00129228 -0.000275828 0)
(0.00132151 -0.000277287 1.67924e-24)
(0.00134733 -0.000275953 2.43381e-24)
(0.00137694 -0.000272342 -3.35137e-24)
(0.00140064 -0.000266114 2.08732e-24)
(0.00142883 -0.000258323 0)
(0.00144854 -0.000248552 7.06901e-22)
(0.00147419 -0.000238255 -7.06996e-22)
(0.00148908 -0.000226828 0)
(0.001512 -0.000215795 -5.98781e-24)
(0.00152236 -0.000204483 -2.08037e-23)
(0.00154303 -0.000193943 3.41144e-23)
(0.00154996 -0.000184026 1.48783e-23)
(0.00156898 -0.00017436 0)
(0.00157396 -0.000166652 5.01801e-23)
(0.00159162 -0.000157361 -6.55949e-23)
(0.00159622 -0.000152449 -7.09314e-23)
(0.00161236 -0.000142243 6.96769e-23)
(0.00161769 -0.000140742 0)
(0.00163198 -0.000127744 0)
(0.00163775 -0.000130434 -1.938e-22)
(0.00165046 -0.000112551 1.13607e-22)
(0.00110828 -0.000221944 5.61539e-23)
(0.00112537 -0.000236053 2.67198e-23)
(0.00114381 -0.000249471 1.2288e-23)
(0.00116476 -0.00026204 -1.11342e-23)
(0.00118733 -0.000273592 9.76734e-24)
(0.00121261 -0.000283586 -2.22961e-23)
(0.00123873 -0.000291697 3.10299e-23)
(0.00126734 -0.00029743 8.4837e-25)
(0.00129539 -0.000300602 1.38931e-24)
(0.0013257 -0.000301024 -4.03383e-24)
(0.00135349 -0.000298662 -3.68736e-25)
(0.00138357 -0.000293782 -4.38149e-24)
(0.00140866 -0.00028639 -1.68311e-24)
(0.00143679 -0.00027734 6.40996e-24)
(0.00145716 -0.000266412 8.72992e-22)
(0.00148252 -0.000255092 -8.72976e-22)
(0.00149713 -0.00024254 1.28787e-23)
(0.00152005 -0.000230903 1.02007e-24)
(0.00152887 -0.000218393 -1.39688e-23)
(0.00155045 -0.000207878 -3.95e-23)
(0.00155414 -0.000196541 6.53131e-23)
(0.0015756 -0.000187797 -5.0224e-23)
(0.00157525 -0.000178259 -4.32258e-25)
(0.00159719 -0.000171 -7.36948e-23)
(0.00159437 -0.000163704 9.10406e-23)
(0.00161601 -0.000156614 1.89918e-23)
(0.00161266 -0.000152351 0)
(0.00163132 -0.000142979 1.9664e-23)
(0.00162906 -0.000143391 4.00117e-23)
(0.00164045 -0.000128245 8.12534e-23)
(0.00110354 -0.000252416 -2.946e-23)
(0.00112178 -0.000266841 0)
(0.00114194 -0.000280586 3.51826e-23)
(0.00116451 -0.000293306 -3.74491e-23)
(0.00118919 -0.000304773 -1.99464e-23)
(0.00121612 -0.000314356 -3.77296e-23)
(0.00124447 -0.000321822 5.65566e-23)
(0.00127438 -0.000326569 -2.03627e-23)
(0.00130451 -0.000328617 2.58699e-24)
(0.00133543 -0.000327577 -3.00096e-24)
(0.00136496 -0.000323793 8.62359e-24)
(0.00139473 -0.000317182 -1.55146e-24)
(0.00142117 -0.000308338 -1.76571e-23)
(0.00144805 -0.000297544 8.12112e-24)
(0.00146945 -0.000285375 1.08569e-21)
(0.00149285 -0.000272499 -1.08566e-21)
(0.00150821 -0.000259002 1.47627e-23)
(0.00152889 -0.000246095 -2.29177e-23)
(0.0015379 -0.000232831 -2.64662e-23)
(0.00155765 -0.00022147 7.77801e-23)
(0.0015602 -0.000209382 -4.38188e-23)
(0.00158131 -0.000200576 1.82489e-23)
(0.00157714 -0.000189937 7.71214e-23)
(0.00160161 -0.000183904 -1.35946e-22)
(0.00159021 -0.000174483 5.81489e-23)
(0.00161835 -0.00017049 -4.02904e-23)
(0.00159944 -0.000162346 8.32465e-23)
(0.00162768 -0.000158255 -1.02137e-22)
(0.00160223 -0.000152911 0)
(0.0016204 -0.000144208 -4.25925e-23)
(0.00110014 -0.000287537 -3.05184e-23)
(0.00111998 -0.000302401 1.41301e-23)
(0.00114207 -0.000316389 -1.27658e-23)
(0.00116657 -0.000329111 0)
(0.00119341 -0.000340215 -2.46899e-23)
(0.0012222 -0.000349095 3.56416e-23)
(0.00125258 -0.000355479 -6.17085e-24)
(0.00128392 -0.000358851 3.86832e-24)
(0.00131574 -0.000359252 0)
(0.00134735 -0.000356363 0)
(0.00137813 -0.000350641 1.79449e-24)
(0.0014076 -0.000341981 8.01273e-24)
(0.00143497 -0.000331257 -5.97736e-24)
(0.00146047 -0.000318502 0)
(0.00148278 -0.000304836 1.36089e-21)
(0.00150377 -0.000290258 -1.36093e-21)
(0.0015204 -0.0002758 0)
(0.0015377 -0.000261392 -2.24746e-23)
(0.0015485 -0.000247633 1.74358e-23)
(0.0015639 -0.000234819 -9.45048e-24)
(0.00156829 -0.000222583 0)
(0.00158438 -0.000212496 0)
(0.00158059 -0.000201872 2.0548e-23)
(0.00160047 -0.000195125 -2.08894e-23)
(0.00158423 -0.000185033 -8.67981e-23)
(0.00161042 -0.000181742 1.06404e-22)
(0.00157436 -0.000170553 0)
(0.001607 -0.000170376 -2.18987e-23)
(0.00154215 -0.00015703 2.20312e-23)
(0.00157434 -0.00015759 -4.41037e-23)
(0.001091 -0.000326707 1.64254e-23)
(0.00111356 -0.000342249 -1.49361e-23)
(0.0011386 -0.000356596 1.35134e-23)
(0.00116612 -0.00036926 -4.08615e-23)
(0.00119591 -0.000379791 4.18449e-23)
(0.00122748 -0.000387677 2.24097e-23)
(0.0012604 -0.000392584 -2.2892e-23)
(0.00129394 -0.000394188 -4.86482e-25)
(0.00132764 -0.000392468 0)
(0.00136062 -0.000387361 0)
(0.00139252 -0.000379227 0)
(0.00142239 -0.000368255 1.0722e-23)
(0.0014502 -0.000355212 -1.08123e-23)
(0.0014751 -0.000340388 0)
(0.00149755 -0.000324832 1.71612e-21)
(0.00151692 -0.000308611 -1.7159e-21)
(0.00153394 -0.000292848 0)
(0.0015484 -0.000277094 -2.10761e-23)
(0.00156028 -0.000262522 3.12497e-23)
(0.00157071 -0.000248218 0)
(0.00157672 -0.000235525 0)
(0.00158404 -0.000223441 0)
(0.00158153 -0.000212881 -2.35814e-23)
(0.00158713 -0.000203429 9.37777e-23)
(0.00156904 -0.000193667 -9.17997e-23)
(0.00157466 -0.000187005 -9.39967e-23)
(0.00152579 -0.000175241 9.17877e-23)
(0.0015363 -0.00017297 2.31798e-23)
(0.00143005 -0.00015406 -2.32867e-23)
(0.0014588 -0.00016065 2.36082e-23)
(0.00108066 -0.000375778 1.40703e-22)
(0.00110687 -0.000390928 -1.27437e-22)
(0.00113584 -0.000404841 0)
(0.00116729 -0.000416765 0)
(0.00120078 -0.000426047 -2.70721e-23)
(0.00123583 -0.000432229 2.36831e-23)
(0.00127177 -0.000434987 0)
(0.00130797 -0.000434152 5.20829e-25)
(0.00134372 -0.000429691 0)
(0.00137836 -0.000421744 0)
(0.00141124 -0.000410616 6.00322e-24)
(0.00144172 -0.000396781 0)
(0.00146945 -0.000380862 -1.24802e-23)
(0.00149397 -0.000363515 1.69553e-23)
(0.00151544 -0.000345491 2.18887e-21)
(0.00153352 -0.000327295 -2.18878e-21)
(0.00154891 -0.000309567 2.36847e-23)
(0.00156087 -0.000292323 -2.98723e-23)
(0.00157037 -0.000276101 0)
(0.00157563 -0.000260318 -1.32148e-23)
(0.00157755 -0.00024588 0)
(0.0015736 -0.000231587 -1.33049e-23)
(0.00156385 -0.000219158 2.52441e-23)
(0.00154726 -0.000206063 0)
(0.00151783 -0.000194819 -1.0242e-22)
(0.00148459 -0.000182208 9.9963e-23)
(0.00141857 -0.000170402 0)
(0.00137129 -0.000159134 0)
(0.00123349 -0.000141361 1.96624e-22)
(0.001212 -0.000142111 -1.67057e-22)
(0.00107114 -0.000436232 0)
(0.00110128 -0.000452745 0)
(0.00113448 -0.000466768 0)
(0.00117054 -0.000477625 0)
(0.00120867 -0.000484842 0)
(0.00124799 -0.000488124 4.34658e-24)
(0.00128766 -0.000487355 0)
(0.00132699 -0.000482542 -1.75156e-23)
(0.00136521 -0.000473809 5.38683e-24)
(0.00140165 -0.000461454 4.57452e-23)
(0.00143551 -0.000445932 -6.57315e-23)
(0.00146629 -0.000427892 3.30928e-23)
(0.00149338 -0.000408027 -4.73241e-24)
(0.00151665 -0.000387104 0)
(0.00153575 -0.000365747 2.81904e-21)
(0.00155083 -0.000344542 -2.81693e-21)
(0.00156159 -0.000323853 0)
(0.00156795 -0.000303971 6.85679e-24)
(0.00156921 -0.000284903 5.92354e-23)
(0.00156424 -0.000266607 -1.03902e-22)
(0.00155179 -0.000248947 1.1846e-22)
(0.00152917 -0.00023161 5.89527e-23)
(0.00149537 -0.000214556 -1.45889e-22)
(0.00144623 -0.000196923 0)
(0.00138223 -0.000180333 0)
(0.00129783 -0.00016257 0)
(0.00119245 -0.000146675 0)
(0.00106865 -0.000126174 0)
(0.000904436 -0.000112442 0)
(0.000786896 -9.54794e-05 0)
(0.0010621 -0.000503468 1.44515e-23)
(0.00110037 -0.000516275 0)
(0.00114249 -0.000528033 0)
(0.00118623 -0.000536566 1.58144e-23)
(0.00123037 -0.000540847 -1.64226e-23)
(0.00127425 -0.000540592 8.46742e-24)
(0.0013174 -0.000535868 -1.28553e-23)
(0.00135917 -0.000526842 -7.13132e-24)
(0.00139881 -0.000513812 0)
(0.00143549 -0.000497192 -1.08544e-23)
(0.00146843 -0.000477585 0)
(0.00149698 -0.000455704 0)
(0.00152057 -0.000432301 0)
(0.00153887 -0.000408038 0)
(0.00155136 -0.000383334 3.69541e-21)
(0.00155769 -0.000358447 -3.69695e-21)
(0.00155679 -0.000333572 0)
(0.00154785 -0.000308759 0)
(0.00152905 -0.000284182 0)
(0.00149908 -0.000260217 0)
(0.00145563 -0.000237415 1.77612e-23)
(0.00139677 -0.000215154 1.64785e-23)
(0.00131878 -0.000191686 3.23713e-23)
(0.00121952 -0.000167263 -1.28544e-22)
(0.00109735 -0.000144 2.49503e-22)
(0.000951901 -0.000122355 -4.23008e-25)
(0.000787892 -9.86056e-05 -1.46335e-22)
(0.000608018 -7.53038e-05 0)