/*--------------------------------*- C++ -*----------------------------------*\
| =========                 |                                                 |
| \\      /  F ield         | OpenFOAM: The Open Source CFD Toolbox           |
|  \\    /   O peration     | Version:  2312                                  |
|   \\  /    A nd           | Website:  www.openfoam.com                      |
|    \\/     M anipulation  |                                                 |
\*---------------------------------------------------------------------------*/
FoamFile
{
    version     2.0;
    format      ascii;
    arch        "LSB;label=32;scalar=64";
    class       surfaceScalarField;
    location    "80000";
    object      phi;
}
// * * * * * * * * * * * * * * * * * * * * * * * * * * * * * * * * * * * * * //

dimensions      [0 3 -1 0 0 0 0];

oriented        oriented;

internalField   nonuniform List<scalar> 
21240
(
0.000664974
1.6923e-06
0.000661072
3.90254e-06
0.000655751
5.32108e-06
0.000649514
6.23669e-06
0.000642639
6.87546e-06
0.000635266
7.3721e-06
0.000627489
7.77706e-06
0.000619386
8.10341e-06
0.000611029
8.35714e-06
0.000602482
8.54726e-06
0.000593796
8.68604e-06
0.00058501
8.78581e-06
0.000576154
8.85617e-06
0.00056725
8.90346e-06
0.000558319
8.93149e-06
0.000549376
8.94271e-06
0.000540437
8.93896e-06
0.000531515
8.9218e-06
0.000522623
8.89255e-06
0.00051377
8.8523e-06
0.000504969
8.80185e-06
0.000496227
8.7418e-06
0.000487554
8.67256e-06
0.00047896
8.59443e-06
0.000470452
8.50763e-06
0.00046204
8.4123e-06
0.000453731
8.30855e-06
0.000445535
8.19639e-06
0.000437459
8.07595e-06
0.000429512
7.94708e-06
0.000421702
7.81002e-06
0.000414037
7.6644e-06
0.000406527
7.51072e-06
0.000399178
7.34823e-06
0.000392
7.17801e-06
0.000385002
6.99854e-06
0.00037819
6.812e-06
0.000371574
6.61545e-06
0.000365161
6.41309e-06
0.000358962
6.19927e-06
0.00035298
5.98197e-06
0.00034723
5.75049e-06
0.00034171
5.51972e-06
0.00033644
5.26958e-06
0.000331413
5.02763e-06
0.000326656
4.75652e-06
0.000322149
4.50697e-06
0.000317939
4.20974e-06
0.000313981
3.95835e-06
0.000310357
3.62361e-06
0.000306977
3.38069e-06
0.000303995
2.98207e-06
0.000301224
2.77055e-06
0.000298984
2.24029e-06
0.000296864
2.12035e-06
0.000295618
1.24544e-06
0.00029414
1.47808e-06
0.000294351
-2.10701e-07
0.00029319
1.16046e-06
-3.20251e-06
0.000296393
0.000667556
8.0305e-07
0.00066912
2.33815e-06
0.000670854
3.58788e-06
0.000672524
4.56603e-06
0.000674053
5.34701e-06
0.000675425
5.99961e-06
0.000676637
6.56545e-06
0.000677677
7.06294e-06
0.000678535
7.49913e-06
0.000679204
7.87847e-06
0.000679683
8.20656e-06
0.000679979
8.49034e-06
0.000680098
8.73683e-06
0.00068005
8.95186e-06
0.000679842
9.13977e-06
0.000679481
9.30349e-06
0.000678975
9.44516e-06
0.00067833
9.56634e-06
0.000677554
9.6685e-06
0.000676654
9.75269e-06
0.000675636
9.82002e-06
0.000674506
9.87105e-06
0.000673272
9.90661e-06
0.00067194
9.92676e-06
0.000670515
9.93223e-06
0.000669005
9.92261e-06
0.000667415
9.89881e-06
0.000665751
9.85986e-06
0.00066402
9.80707e-06
0.000662229
9.73873e-06
0.000660382
9.65695e-06
0.000658487
9.55883e-06
0.00065655
9.44789e-06
0.000654579
9.31937e-06
0.000652578
9.17915e-06
0.000650557
9.0194e-06
0.000648519
8.84997e-06
0.000646476
8.65795e-06
0.00064443
8.45977e-06
0.000642395
8.23411e-06
0.000640369
8.0083e-06
0.000638372
7.74706e-06
0.000636396
7.49571e-06
0.00063447
7.1959e-06
0.000632575
6.92268e-06
0.000630752
6.57948e-06
0.000628968
6.29048e-06
0.000627282
5.89597e-06
0.000625639
5.60121e-06
0.00062412
5.14246e-06
0.000622643
4.85834e-06
0.00062131
4.31483e-06
0.000620013
4.06782e-06
0.000618844
3.40869e-06
0.000617725
3.23985e-06
0.000616545
2.4254e-06
0.000615633
2.39001e-06
0.00061402
1.40186e-06
0.000613631
1.54985e-06
4.56209e-07
0.000609972
0.000666951
5.18808e-07
0.000667818
1.47063e-06
0.000669058
2.34809e-06
0.000670483
3.14128e-06
0.000671984
3.84606e-06
0.000673513
4.47006e-06
0.000675053
5.02551e-06
0.000676593
5.52352e-06
0.00067812
5.97189e-06
0.000679623
6.37554e-06
0.000681092
6.73799e-06
0.000682519
7.06253e-06
0.000683904
7.35266e-06
0.000685244
7.61187e-06
0.00068654
7.84343e-06
0.000687793
8.04996e-06
0.000689005
8.23369e-06
0.000690175
8.39617e-06
0.000691305
8.53889e-06
0.000692395
8.66273e-06
0.000693446
8.76889e-06
0.000694459
8.85775e-06
0.000695435
8.93034e-06
0.000696376
8.98656e-06
0.00069728
9.02739e-06
0.000698151
9.05221e-06
0.000698987
9.06215e-06
0.000699791
9.05599e-06
0.000700563
9.03528e-06
0.000701304
8.99797e-06
0.000702014
8.94639e-06
0.000702696
8.87736e-06
0.000703349
8.79443e-06
0.000703976
8.69278e-06
0.000704577
8.57787e-06
0.000705154
8.44248e-06
0.000705709
8.29497e-06
0.000706242
8.12458e-06
0.000706758
7.94393e-06
0.000707255
7.73713e-06
0.000707741
7.52303e-06
0.000708209
7.27837e-06
0.000708674
7.03084e-06
0.000709123
6.74683e-06
0.00070958
6.46635e-06
0.000710017
6.14165e-06
0.000710479
5.82927e-06
0.000710912
5.46292e-06
0.000711393
5.12029e-06
0.000711823
4.71226e-06
0.00071234
4.34135e-06
0.000712761
3.89371e-06
0.000713332
3.49633e-06
0.000713725
3.01643e-06
0.000714371
2.5939e-06
0.000714694
2.10212e-06
0.000715429
1.65443e-06
0.00071563
1.20086e-06
0.000716464
7.16572e-07
4.02912e-07
0.000716517
0.000666854
3.31691e-07
0.000667308
1.01596e-06
0.000667972
1.68492e-06
0.000668795
2.31789e-06
0.000669735
2.90564e-06
0.00067076
3.44528e-06
0.000671847
3.93836e-06
0.000672982
4.38854e-06
0.000674155
4.79973e-06
0.000675355
5.17515e-06
0.000676576
5.51733e-06
0.00067781
5.8283e-06
0.000679052
6.11005e-06
0.0006803
6.36456e-06
0.000681549
6.59384e-06
0.0006828
6.79972e-06
0.000684049
6.98388e-06
0.000685298
7.14765e-06
0.000686545
7.29222e-06
0.000687789
7.41846e-06
0.00068903
7.52723e-06
0.000690269
7.61906e-06
0.000691505
7.69463e-06
0.000692737
7.75417e-06
0.000693966
7.7982e-06
0.000695192
7.82669e-06
0.000696414
7.84005e-06
0.000697632
7.83804e-06
0.000698846
7.82097e-06
0.000700056
7.78843e-06
0.000701262
7.7407e-06
0.000702462
7.67722e-06
0.000703658
7.5982e-06
0.000704848
7.50306e-06
0.000706034
7.39182e-06
0.000707212
7.26413e-06
0.000708387
7.11952e-06
0.000709554
6.9583e-06
0.000710719
6.77895e-06
0.000711873
6.58327e-06
0.000713028
6.3676e-06
0.00071417
6.13673e-06
0.000715318
5.88289e-06
0.000716448
5.61655e-06
0.000717592
5.32225e-06
0.000718713
5.0209e-06
0.000719859
4.68324e-06
0.000720973
4.34879e-06
0.000722129
3.96409e-06
0.00072324
3.60119e-06
0.000724417
3.16493e-06
0.000725527
2.78305e-06
0.000726734
2.2894e-06
0.000727845
1.90541e-06
0.000729093
1.34568e-06
0.000730208
9.87569e-07
0.000731512
3.50159e-07
0.000732647
6.61643e-08
0.000734087
-7.23436e-07
-8.90857e-07
0.000735381
0.000666738
2.59973e-07
0.00066697
7.84768e-07
0.000667356
1.29874e-06
0.000667879
1.79488e-06
0.000668517
2.26729e-06
0.00066925
2.71238e-06
0.00067006
3.12869e-06
0.000670932
3.5163e-06
0.000671856
3.8761e-06
0.000672821
4.2092e-06
0.000673822
4.51669e-06
0.000674851
4.79956e-06
0.000675902
5.05874e-06
0.000676972
5.2952e-06
0.000678055
5.50997e-06
0.000679151
5.70409e-06
0.000680256
5.87854e-06
0.00068137
6.03423e-06
0.00068249
6.17193e-06
0.000683616
6.29236e-06
0.000684747
6.39604e-06
0.000685883
6.48352e-06
0.000687022
6.55511e-06
0.000688165
6.61127e-06
0.000689311
6.65208e-06
0.00069046
6.67793e-06
0.000691612
6.68865e-06
0.000692765
6.68468e-06
0.00069392
6.66551e-06
0.000695077
6.63175e-06
0.000696235
6.58241e-06
0.000697394
6.51852e-06
0.000698554
6.43837e-06
0.000699713
6.34372e-06
0.000700873
6.23175e-06
0.000702032
6.10553e-06
0.000703191
5.96041e-06
0.000704348
5.8017e-06
0.000705505
5.62179e-06
0.000706658
5.42966e-06
0.000707813
5.21296e-06
0.000708963
4.98668e-06
0.000710115
4.73078e-06
0.000711262
4.47005e-06
0.000712412
4.17206e-06
0.000713555
3.87737e-06
0.000714705
3.5336e-06
0.000715847
3.20649e-06
0.000717
2.81157e-06
0.000718146
2.45466e-06
0.000719311
2.00015e-06
0.000720476
1.61791e-06
0.000721675
1.09103e-06
0.000722889
6.91429e-07
0.000724167
6.75718e-08
0.000725468
-3.13456e-07
0.000726835
-1.01668e-06
0.000728279
-1.37767e-06
0.000729794
-2.23917e-06
-2.55145e-06
0.000731455
0.000666724
2.02685e-07
0.000666899
6.09825e-07
0.000667183
1.01423e-06
0.000667569
1.40937e-06
0.000668045
1.79153e-06
0.000668599
2.15779e-06
0.000669222
2.50608e-06
0.000669903
2.83519e-06
0.000670635
3.14453e-06
0.00067141
3.43399e-06
0.000672223
3.70365e-06
0.000673069
3.95376e-06
0.000673943
4.18469e-06
0.000674841
4.39688e-06
0.00067576
4.59078e-06
0.000676697
4.76694e-06
0.00067765
4.92584e-06
0.000678616
5.06805e-06
0.000679594
5.19398e-06
0.000680582
5.30414e-06
0.00068158
5.3988e-06
0.000682585
5.47842e-06
0.000683597
5.5431e-06
0.000684615
5.59325e-06
0.000685638
5.62879e-06
0.000686666
5.65014e-06
0.000687698
5.65697e-06
0.000688732
5.64979e-06
0.00068977
5.62792e-06
0.00069081
5.59211e-06
0.000691851
5.5412e-06
0.000692893
5.47633e-06
0.000693936
5.39564e-06
0.000694978
5.30101e-06
0.000696021
5.18948e-06
0.000697062
5.06414e-06
0.000698102
4.92036e-06
0.000699141
4.76318e-06
0.000700177
4.58537e-06
0.000701212
4.3951e-06
0.000702244
4.18106e-06
0.000703274
3.95638e-06
0.000704301
3.70337e-06
0.000705328
3.44295e-06
0.000706353
3.14743e-06
0.00070738
2.85005e-06
0.000708406
2.50761e-06
0.00070944
2.17287e-06
0.000710473
1.77867e-06
0.000711519
1.40832e-06
0.000712562
9.57279e-07
0.000713624
5.56215e-07
0.000714668
4.68332e-08
0.000715758
-3.99028e-07
0.000716839
-1.01334e-06
0.000717999
-1.47291e-06
0.000719171
-2.18887e-06
0.00072045
-2.65698e-06
0.000721724
-3.51308e-06
-3.96894e-06
0.000723142
0.000666708
1.60986e-07
0.000666834
4.84691e-07
0.00066704
8.07511e-07
0.000667325
1.12488e-06
0.000667682
1.43426e-06
0.000668106
1.73352e-06
0.000668591
2.02093e-06
0.000669131
2.29526e-06
0.00066972
2.55574e-06
0.000670352
2.80204e-06
0.000671023
3.03277e-06
0.000671729
3.24806e-06
0.000672465
3.44803e-06
0.000673229
3.6328e-06
0.000674018
3.80247e-06
0.000674827
3.95724e-06
0.000675656
4.09731e-06
0.000676501
4.22295e-06
0.000677361
4.33433e-06
0.000678233
4.43175e-06
0.000679117
4.51531e-06
0.00068001
4.58529e-06
0.000680911
4.64169e-06
0.00068182
4.68477e-06
0.000682734
4.7144e-06
0.000683653
4.73086e-06
0.000684576
4.73384e-06
0.000685502
4.72368e-06
0.000686431
4.69981e-06
0.00068736
4.66271e-06
0.00068829
4.61149e-06
0.000689219
4.54689e-06
0.000690147
4.46748e-06
0.000691074
4.37451e-06
0.000691997
4.26577e-06
0.000692918
4.14329e-06
0.000693835
4.00372e-06
0.000694748
3.85035e-06
0.000695655
3.67806e-06
0.000696558
3.49217e-06
0.000697454
3.28483e-06
0.000698346
3.06461e-06
0.00069923
2.81945e-06
0.00070011
2.56306e-06
0.00070098
2.27682e-06
0.000701848
1.98243e-06
0.000702705
1.65077e-06
0.000703562
1.31568e-06
0.000704409
9.31422e-07
0.000705267
5.51113e-07
0.000706122
1.02354e-07
0.000706996
-3.18526e-07
0.000707872
-8.28809e-07
0.000708772
-1.29874e-06
0.000709655
-1.89663e-06
0.000710596
-2.41402e-06
0.000711523
-3.11624e-06
0.000712544
-3.67719e-06
0.000713541
-4.51086e-06
-5.10493e-06
0.000714677
0.000666699
1.28978e-07
0.000666795
3.87946e-07
0.000666956
6.46577e-07
0.00066718
9.01673e-07
0.000667462
1.15149e-06
0.000667801
1.3945e-06
0.000668193
1.62937e-06
0.000668633
1.85502e-06
0.000669118
2.07055e-06
0.000669645
2.27525e-06
0.000670209
2.4685e-06
0.000670808
2.64989e-06
0.000671436
2.81919e-06
0.000672093
2.97631e-06
0.000672774
3.12117e-06
0.000673478
3.25376e-06
0.000674201
3.37406e-06
0.000674942
3.48214e-06
0.000675698
3.57802e-06
0.000676468
3.6618e-06
0.00067725
3.73349e-06
0.000678042
3.79318e-06
0.000678843
3.84085e-06
0.000679651
3.87658e-06
0.000680465
3.90027e-06
0.000681284
3.91199e-06
0.000682106
3.91153e-06
0.000682931
3.899e-06
0.000683757
3.87402e-06
0.000684583
3.83674e-06
0.000685408
3.78659e-06
0.000686231
3.72384e-06
0.000687051
3.6476e-06
0.000687867
3.55836e-06
0.000688678
3.45481e-06
0.000689483
3.33778e-06
0.000690282
3.20534e-06
0.000691073
3.05892e-06
0.000691855
2.89565e-06
0.00069263
2.7179e-06
0.000693393
2.52139e-06
0.000694148
2.31e-06
0.00069489
2.07728e-06
0.000695623
1.8295e-06
0.000696343
1.55693e-06
0.000697056
1.26966e-06
0.000697754
9.53091e-07
0.000698446
6.23563e-07
0.000699118
2.59521e-07
0.000699785
-1.16062e-07
0.000700432
-5.45012e-07
0.000701091
-9.77266e-07
0.000701731
-1.46902e-06
0.000702391
-1.95806e-06
0.000703023
-2.52901e-06
0.000703691
-3.08254e-06
0.000704324
-3.74897e-06
0.000705018
-4.37112e-06
0.00070566
-5.15224e-06
-5.84328e-06
0.000706398
0.000666693
1.02829e-07
0.000666772
3.09152e-07
0.000666903
5.15361e-07
0.000667085
7.1912e-07
0.000667318
9.19198e-07
0.000667598
1.11448e-06
0.000667923
1.30395e-06
0.000668291
1.48672e-06
0.0006687
1.66202e-06
0.000669146
1.82923e-06
0.000669627
1.9878e-06
0.000670139
2.13732e-06
0.000670681
2.27744e-06
0.000671249
2.40793e-06
0.000671842
2.52858e-06
0.000672456
2.63927e-06
0.000673091
2.73989e-06
0.000673742
2.83035e-06
0.00067441
2.9106e-06
0.000675091
2.98061e-06
0.000675784
3.04031e-06
0.000676488
3.0897e-06
0.0006772
3.1287e-06
0.000677919
3.15729e-06
0.000678644
3.17537e-06
0.000679373
3.18289e-06
0.000680105
3.17969e-06
0.000680838
3.16572e-06
0.000681572
3.14073e-06
0.000682304
3.10464e-06
0.000683033
3.05712e-06
0.000683759
2.99808e-06
0.000684479
2.92706e-06
0.000685194
2.84397e-06
0.0006859
2.74819e-06
0.000686599
2.63965e-06
0.000687286
2.51752e-06
0.000687963
2.38181e-06
0.000688628
2.23137e-06
0.000689279
2.06637e-06
0.000689915
1.88525e-06
0.000690537
1.68842e-06
0.000691141
1.47376e-06
0.000691728
1.24207e-06
0.000692294
9.90419e-07
0.000692844
7.20227e-07
0.00069337
4.27381e-07
0.000693878
1.14698e-07
0.000694365
-2.26856e-07
0.000694841
-5.91948e-07
0.000695284
-9.8823e-07
0.000695716
-1.40958e-06
0.000696115
-1.86803e-06
0.000696511
-2.35371e-06
0.000696866
-2.88459e-06
0.000697229
-3.44511e-06
0.000697542
-4.06162e-06
0.000697879
-4.70888e-06
0.000698153
-5.42609e-06
-6.17132e-06
0.000698481
0.000666689
8.07802e-08
0.000666755
2.42799e-07
0.000666866
4.048e-07
0.00066702
5.65049e-07
0.000667216
7.22658e-07
0.000667454
8.76808e-07
0.000667731
1.02674e-06
0.000668046
1.17178e-06
0.000668397
1.3113e-06
0.000668781
1.44479e-06
0.000669197
1.57178e-06
0.000669643
1.69188e-06
0.000670115
1.80475e-06
0.000670613
1.91011e-06
0.000671134
2.00774e-06
0.000671676
2.09743e-06
0.000672237
2.17905e-06
0.000672815
2.25244e-06
0.000673408
2.3175e-06
0.000674014
2.37414e-06
0.000674632
2.42225e-06
0.00067526
2.46176e-06
0.000675896
2.49258e-06
0.000676539
2.51461e-06
0.000677187
2.52776e-06
0.000677838
2.5319e-06
0.00067849
2.52692e-06
0.000679143
2.51265e-06
0.000679795
2.48896e-06
0.000680444
2.45561e-06
0.000681089
2.41244e-06
0.000681728
2.35913e-06
0.000682359
2.29551e-06
0.000682982
2.22113e-06
0.000683595
2.13584e-06
0.000684195
2.03899e-06
0.000684782
1.93051e-06
0.000685355
1.80946e-06
0.00068591
1.67592e-06
0.000686448
1.52853e-06
0.000686965
1.36767e-06
0.000687463
1.19135e-06
0.000687936
1.00046e-06
0.000688386
7.9205e-07
0.000688808
5.6804e-07
0.000689204
3.24079e-07
0.000689567
6.46137e-08
0.000689906
-2.23644e-07
0.000690209
-5.3025e-07
0.000690483
-8.66007e-07
0.000690715
-1.2206e-06
0.000690918
-1.61231e-06
0.000691073
-2.02287e-06
0.0006912
-2.48097e-06
0.000691271
-2.95588e-06
0.00069132
-3.49337e-06
0.0006913
-4.04229e-06
0.000691267
-4.67544e-06
0.000691149
-5.30805e-06
-6.05507e-06
0.000691033
0.000666686
6.16685e-08
0.000666743
1.85324e-07
0.000666839
3.09001e-07
0.000666973
4.31427e-07
0.000667143
5.51961e-07
0.00066735
6.70009e-07
0.000667592
7.85016e-07
0.000667867
8.96472e-07
0.000668175
1.00391e-06
0.000668512
1.10691e-06
0.000668879
1.2051e-06
0.000669273
1.29814e-06
0.000669692
1.38575e-06
0.000670134
1.46767e-06
0.000670598
1.54367e-06
0.000671082
1.61356e-06
0.000671584
1.67719e-06
0.000672102
1.73439e-06
0.000672635
1.78506e-06
0.00067318
1.82905e-06
0.000673736
1.86629e-06
0.000674301
1.89663e-06
0.000674873
1.92001e-06
0.000675452
1.93629e-06
0.000676034
1.9454e-06
0.000676619
1.94715e-06
0.000677204
1.9415e-06
0.000677789
1.9282e-06
0.00067837
1.9072e-06
0.000678948
1.87818e-06
0.000679519
1.84113e-06
0.000680083
1.79557e-06
0.000680637
1.74155e-06
0.000681179
1.67842e-06
0.000681709
1.60634e-06
0.000682224
1.52434e-06
0.000682721
1.43283e-06
0.0006832
1.33038e-06
0.000683658
1.21778e-06
0.000684094
1.0929e-06
0.000684505
9.57218e-07
0.000684888
8.07509e-07
0.000685242
6.46402e-07
0.000685566
4.68956e-07
0.000685854
2.79802e-07
0.000686106
7.17198e-08
0.000686322
-1.51221e-07
0.000686498
-3.99638e-07
0.000686627
-6.59557e-07
0.000686712
-9.50859e-07
0.000686744
-1.25235e-06
0.000686727
-1.59523e-06
0.000686648
-1.94443e-06
0.000686517
-2.34964e-06
0.000686314
-2.75321e-06
0.000686056
-3.23469e-06
0.000685713
-3.69962e-06
0.000685313
-4.27556e-06
0.000684813
-4.80767e-06
-5.50022e-06
0.000684258
0.000666684
4.46583e-08
0.000666735
1.34192e-07
0.00066682
2.23761e-07
0.000666939
3.12465e-07
0.000667091
3.99858e-07
0.000667276
4.85525e-07
0.000667492
5.69076e-07
0.000667738
6.50145e-07
0.000668013
7.28395e-07
0.000668317
8.03516e-07
0.000668647
8.75226e-07
0.000669002
9.43267e-07
0.00066938
1.00741e-06
0.00066978
1.06746e-06
0.000670201
1.12322e-06
0.00067064
1.17452e-06
0.000671096
1.22124e-06
0.000671567
1.26323e-06
0.000672051
1.30039e-06
0.000672548
1.33259e-06
0.000673054
1.35975e-06
0.000673569
1.38174e-06
0.000674091
1.3985e-06
0.000674617
1.40989e-06
0.000675147
1.41586e-06
0.000675678
1.41624e-06
0.000676208
1.41099e-06
0.000676736
1.39988e-06
0.000677261
1.3829e-06
0.000677779
1.35973e-06
0.00067829
1.33041e-06
0.000678791
1.29449e-06
0.00067928
1.25208e-06
0.000679756
1.20253e-06
0.000680217
1.14612e-06
0.000680659
1.08188e-06
0.000681081
1.01036e-06
0.000681482
9.30086e-07
0.000681857
8.42099e-07
0.000682206
7.44161e-07
0.000682525
6.38095e-07
0.000682812
5.2047e-07
0.000683064
3.94438e-07
0.000683279
2.54725e-07
0.000683451
1.06848e-07
0.000683582
-5.85157e-08
0.000683665
-2.34379e-07
0.000683697
-4.3152e-07
0.000683673
-6.35748e-07
0.000683591
-8.68498e-07
0.000683444
-1.10577e-06
0.00068323
-1.3816e-06
0.000682942
-1.65654e-06
0.000682578
-1.98509e-06
0.000682127
-2.30262e-06
0.000681589
-2.69676e-06
0.000680951
-3.06164e-06
0.000680214
-3.53856e-06
0.000679361
-3.95376e-06
-4.53522e-06
0.000678396
0.000666682
2.91033e-08
0.000666729
8.74489e-08
0.000666807
1.45827e-07
0.000666916
2.03663e-07
0.000667055
2.60671e-07
0.000667224
3.16588e-07
0.000667422
3.71164e-07
0.000667648
4.24162e-07
0.000667901
4.75363e-07
0.00066818
5.24563e-07
0.000668483
5.71574e-07
0.00066881
6.16222e-07
0.000669159
6.58353e-07
0.000669529
6.97821e-07
0.000669918
7.345e-07
0.000670324
7.68269e-07
0.000670746
7.99029e-07
0.000671183
8.26675e-07
0.000671632
8.5113e-07
0.000672092
8.72298e-07
0.000672562
8.90117e-07
0.000673039
9.04493e-07
0.000673522
9.15376e-07
0.00067401
9.22659e-07
0.000674499
9.26306e-07
0.000674989
9.26183e-07
0.000675478
9.2227e-07
0.000675963
9.1439e-07
0.000676444
9.02547e-07
0.000676917
8.86493e-07
0.000677381
8.66277e-07
0.000677834
8.41544e-07
0.000678274
8.12421e-07
0.000678698
7.78387e-07
0.000679104
7.39706e-07
0.000679491
6.95601e-07
0.000679854
6.46573e-07
0.000680193
5.91444e-07
0.000680504
5.31114e-07
0.000680784
4.63784e-07
0.000681031
3.9102e-07
0.000681242
3.10049e-07
0.000681413
2.23555e-07
0.00068154
1.27268e-07
0.000681621
2.59875e-08
0.000681652
-8.95754e-08
0.000681628
-2.10387e-07
0.000681544
-3.47209e-07
0.000681396
-4.8794e-07
0.000681178
-6.50171e-07
0.000680886
-8.13839e-07
0.000680511
-1.00701e-06
0.000680051
-1.19675e-06
0.000679494
-1.42813e-06
0.000678839
-1.64718e-06
0.000678069
-1.92663e-06
0.000677185
-2.17793e-06
0.000676165
-2.51885e-06
0.000675015
-2.80369e-06
-3.22344e-06
0.000673704
0.000666681
1.44676e-08
0.000666725
4.34752e-08
0.000666799
7.25072e-08
0.000666901
1.01281e-07
0.000667032
1.29657e-07
0.000667191
1.57507e-07
0.000667378
1.84707e-07
0.000667591
2.1114e-07
0.000667829
2.36699e-07
0.000668092
2.6128e-07
0.000668379
2.84791e-07
0.000668688
3.07142e-07
0.000669018
3.28256e-07
0.000669368
3.48057e-07
0.000669736
3.6648e-07
0.000670121
3.83463e-07
0.000670521
3.98952e-07
0.000670935
4.12893e-07
0.000671361
4.25244e-07
0.000671797
4.35953e-07
0.000672242
4.44989e-07
0.000672694
4.52299e-07
0.000673152
4.57857e-07
0.000673613
4.61606e-07
0.000674076
4.63527e-07
0.000674538
4.63547e-07
0.000674999
4.61659e-07
0.000675456
4.57765e-07
0.000675906
4.51873e-07
0.000676349
4.43848e-07
0.000676782
4.33722e-07
0.000677202
4.21301e-07
0.000677608
4.06664e-07
0.000677996
3.89525e-07
0.000678366
3.70041e-07
0.000678714
3.47785e-07
0.000679037
3.23048e-07
0.000679334
2.95182e-07
0.0006796
2.64704e-07
0.000679833
2.30618e-07
0.00068003
1.93817e-07
0.000680188
1.52756e-07
0.000680302
1.08957e-07
0.00068037
6.00386e-08
0.000680387
8.75072e-09
0.000680347
-5.02379e-08
0.000680249
-1.11546e-07
0.000680083
-1.81359e-07
0.000679848
-2.52853e-07
0.000679533
-3.3587e-07
0.000679139
-4.19093e-07
0.00067865
-5.18241e-07
0.000678068
-6.14754e-07
0.000677374
-7.33938e-07
0.000676572
-8.45358e-07
0.000675635
-9.8992e-07
0.000674575
-1.11764e-06
0.000673351
-1.2949e-06
0.000671987
-1.4393e-06
-1.65886e-06
0.000670422
0.000666681
2.75354e-10
0.000666723
8.40225e-10
0.000666795
1.41676e-09
0.000666894
2.00348e-09
0.000667021
2.59832e-09
0.000667175
3.19941e-09
0.000667356
3.80507e-09
0.000667563
4.41368e-09
0.000667795
5.02371e-09
0.00066805
5.63365e-09
0.000668329
6.2421e-09
0.000668629
6.84779e-09
0.00066895
7.4496e-09
0.00066929
8.04652e-09
0.000669648
8.63766e-09
0.000670022
9.22221e-09
0.000670411
9.79948e-09
0.000670814
1.03689e-08
0.000671228
1.09301e-08
0.000671652
1.14828e-08
0.000672085
1.20267e-08
0.000672525
1.2562e-08
0.00067297
1.30886e-08
0.000673418
1.36068e-08
0.000673867
1.41171e-08
0.000674316
1.46198e-08
0.000674763
1.51157e-08
0.000675205
1.56056e-08
0.000675641
1.60902e-08
0.000676068
1.65706e-08
0.000676485
1.70479e-08
0.000676888
1.75233e-08
0.000677277
1.79979e-08
0.000677648
1.84733e-08
0.000677999
1.89507e-08
0.000678328
1.94316e-08
0.000678631
1.9917e-08
0.000678905
2.04082e-08
0.000679149
2.09064e-08
0.000679358
2.14144e-08
0.00067953
2.19368e-08
0.000679661
2.24837e-08
0.000679747
2.30749e-08
0.000679783
2.37169e-08
0.000679767
2.43994e-08
0.000679692
2.50694e-08
0.000679555
2.57371e-08
0.000679347
2.64249e-08
0.000679067
2.7162e-08
0.000678703
2.79472e-08
0.000678255
2.87822e-08
0.000677707
2.96573e-08
0.000677062
3.05891e-08
0.000676296
3.15671e-08
0.000675418
3.26146e-08
0.000674395
3.37114e-08
0.000673242
3.4891e-08
0.000671911
3.61214e-08
0.000670434
3.74469e-08
3.88194e-08
0.000668737
0.000666681
-1.39187e-08
0.000666724
-4.18054e-08
0.000666795
-6.96895e-08
0.000666894
-9.72956e-08
0.000667021
-1.24489e-07
0.000667175
-1.51142e-07
0.000667356
-1.77137e-07
0.000667563
-2.02359e-07
0.000667795
-2.26704e-07
0.00066805
-2.50072e-07
0.000668329
-2.72372e-07
0.000668629
-2.93519e-07
0.00066895
-3.13435e-07
0.00066929
-3.32048e-07
0.000669648
-3.49296e-07
0.000670023
-3.65116e-07
0.000670412
-3.79457e-07
0.000670815
-3.92265e-07
0.000671229
-4.035e-07
0.000671654
-4.1311e-07
0.000672087
-4.21064e-07
0.000672527
-4.27309e-07
0.000672972
-4.3182e-07
0.00067342
-4.34539e-07
0.000673869
-4.35445e-07
0.000674318
-4.34466e-07
0.000674765
-4.31592e-07
0.000675207
-4.26724e-07
0.000675643
-4.19869e-07
0.000676071
-4.10888e-07
0.000676488
-3.99814e-07
0.000676892
-3.86448e-07
0.00067728
-3.70868e-07
0.000677652
-3.52784e-07
0.000678003
-3.32351e-07
0.000678332
-3.09138e-07
0.000678635
-2.83434e-07
0.00067891
-2.54586e-07
0.000679154
-2.23109e-07
0.000679363
-1.88005e-07
0.000679535
-1.50167e-07
0.000679666
-1.08057e-07
0.000679752
-6.32172e-08
0.000679789
-1.33829e-08
0.000679774
3.99825e-08
0.000679699
1.00132e-07
0.000679562
1.62701e-07
0.000679354
2.33903e-07
0.000679075
3.0688e-07
0.000678711
3.91443e-07
0.000678264
4.76308e-07
0.000677716
5.77177e-07
0.000677071
6.75534e-07
0.000676306
7.96646e-07
0.000675428
9.10144e-07
0.000674405
1.05687e-06
0.000673253
1.18693e-06
0.000671923
1.36661e-06
0.000670447
1.51366e-06
1.73592e-06
0.00066875
0.000666681
-2.85635e-08
0.000666725
-8.58059e-08
0.000666799
-1.43054e-07
0.000666901
-1.9974e-07
0.000667032
-2.55583e-07
0.000667191
-3.10323e-07
0.000667378
-3.63712e-07
0.000667591
-4.15518e-07
0.00066783
-4.65525e-07
0.000668093
-5.1353e-07
0.00066838
-5.5935e-07
0.00066869
-6.02813e-07
0.00066902
-6.43765e-07
0.00066937
-6.82065e-07
0.000669738
-7.17587e-07
0.000670123
-7.50213e-07
0.000670524
-7.79844e-07
0.000670938
-8.06376e-07
0.000671364
-8.29733e-07
0.000671801
-8.49821e-07
0.000672246
-8.66577e-07
0.000672699
-8.79907e-07
0.000673157
-8.89761e-07
0.000673618
-8.96032e-07
0.000674082
-8.98682e-07
0.000674545
-8.97578e-07
0.000675006
-8.92697e-07
0.000675463
-8.83861e-07
0.000675914
-8.71072e-07
0.000676357
-8.54081e-07
0.000676791
-8.32935e-07
0.000677211
-8.07275e-07
0.000677618
-7.77227e-07
0.000678007
-7.42266e-07
0.000678377
-7.02655e-07
0.000678726
-6.57613e-07
0.00067905
-6.07638e-07
0.000679347
-5.51549e-07
0.000679614
-4.90243e-07
0.000679848
-4.21919e-07
0.000680046
-3.4814e-07
0.000680204
-2.66135e-07
0.00068032
-1.78592e-07
0.000680388
-8.13049e-08
0.000680406
2.13963e-08
0.000680368
1.38672e-07
0.00068027
2.60651e-07
0.000680105
3.98773e-07
0.000679871
5.40921e-07
0.000679558
7.04653e-07
0.000679164
8.69929e-07
0.000678676
1.06477e-06
0.000678096
1.25631e-06
0.000677403
1.48955e-06
0.000676602
1.71062e-06
0.000675667
1.99214e-06
0.000674608
2.24574e-06
0.000673386
2.58896e-06
0.000672023
2.87641e-06
3.29868e-06
0.00067046
0.000666682
-4.41324e-08
0.000666729
-1.32592e-07
0.000666807
-2.21059e-07
0.000666916
-3.08644e-07
0.000667055
-3.94903e-07
0.000667224
-4.79423e-07
0.000667422
-5.61819e-07
0.000667649
-6.41728e-07
0.000667902
-7.18815e-07
0.000668181
-7.92773e-07
0.000668485
-8.63323e-07
0.000668813
-9.30211e-07
0.000669162
-9.93212e-07
0.000669532
-1.05212e-06
0.000669921
-1.10675e-06
0.000670328
-1.15695e-06
0.000670751
-1.20257e-06
0.000671188
-1.24348e-06
0.000671638
-1.27957e-06
0.000672099
-1.31072e-06
0.000672569
-1.33684e-06
0.000673047
-1.35782e-06
0.000673531
-1.37358e-06
0.000674019
-1.38399e-06
0.000674509
-1.389e-06
0.000675
-1.38843e-06
0.000675489
-1.38224e-06
0.000675976
-1.3702e-06
0.000676457
-1.3523e-06
0.000676931
-1.32823e-06
0.000677396
-1.29801e-06
0.00067785
-1.26118e-06
0.000678291
-1.21788e-06
0.000678716
-1.16744e-06
0.000679123
-1.11013e-06
0.000679511
-1.04498e-06
0.000679875
-9.72544e-07
0.000680215
-8.91347e-07
0.000680527
-8.02417e-07
0.000680809
-7.03522e-07
0.000681057
-5.96477e-07
0.000681269
-4.77857e-07
0.000681441
-3.50812e-07
0.00068157
-2.10094e-07
0.000681653
-6.13403e-08
0.000681685
1.06229e-07
0.000681663
2.83078e-07
0.00068158
4.81469e-07
0.000681434
6.87064e-07
0.000681217
9.21239e-07
0.000680927
1.16005e-06
0.000680555
1.43745e-06
0.000680097
1.71411e-06
0.000679542
2.04441e-06
0.000678889
2.36388e-06
0.000678121
2.75994e-06
0.00067724
3.12704e-06
0.000676223
3.60607e-06
0.000675075
4.02381e-06
4.60753e-06
0.000673766
0.000666684
-6.11619e-08
0.000666735
-1.83782e-07
0.00066682
-3.06399e-07
0.000666939
-4.27747e-07
0.000667092
-5.47188e-07
0.000667276
-6.64132e-07
0.000667493
-7.78028e-07
0.000667739
-8.88367e-07
0.000668015
-9.94687e-07
0.000668319
-1.09657e-06
0.000668649
-1.19364e-06
0.000669005
-1.28558e-06
0.000669383
-1.37208e-06
0.000669784
-1.45291e-06
0.000670205
-1.52783e-06
0.000670645
-1.59665e-06
0.000671102
-1.65922e-06
0.000671574
-1.71539e-06
0.000672059
-1.76503e-06
0.000672556
-1.80802e-06
0.000673064
-1.84426e-06
0.00067358
-1.87364e-06
0.000674102
-1.89606e-06
0.000674629
-1.9114e-06
0.00067516
-1.91958e-06
0.000675692
-1.92042e-06
0.000676224
-1.91387e-06
0.000676753
-1.89968e-06
0.000677279
-1.87781e-06
0.000677798
-1.84793e-06
0.00067831
-1.81001e-06
0.000678813
-1.7636e-06
0.000679304
-1.70873e-06
0.000679781
-1.64475e-06
0.000680243
-1.57181e-06
0.000680687
-1.48895e-06
0.000681111
-1.39657e-06
0.000681512
-1.29323e-06
0.00068189
-1.17973e-06
0.00068224
-1.05394e-06
0.000682561
-9.1732e-07
0.00068285
-7.66647e-07
0.000683104
-6.04553e-07
0.00068332
-4.26101e-07
0.000683494
-2.35955e-07
0.000683628
-2.72796e-08
0.000683713
1.97958e-07
0.000683747
4.47428e-07
0.000683725
7.08601e-07
0.000683645
1.00122e-06
0.000683501
1.30415e-06
0.00068329
1.64848e-06
0.000683005
1.9993e-06
0.000682643
2.4061e-06
0.000682196
2.81151e-06
0.000681661
3.29472e-06
0.000681026
3.76176e-06
0.000680293
4.33956e-06
0.000679442
4.87412e-06
5.56858e-06
0.000678481
0.000666686
-8.02979e-08
0.000666743
-2.41332e-07
0.000666839
-4.02323e-07
0.000666973
-5.61547e-07
0.000667144
-7.18117e-07
0.000667351
-8.71217e-07
0.000667593
-1.02009e-06
0.000667869
-1.16407e-06
0.000668177
-1.30253e-06
0.000668515
-1.43496e-06
0.000668882
-1.56089e-06
0.000669277
-1.67993e-06
0.000669696
-1.79176e-06
0.00067014
-1.89608e-06
0.000670604
-1.99268e-06
0.000671089
-2.08137e-06
0.000671592
-2.16198e-06
0.000672111
-2.23439e-06
0.000672644
-2.29848e-06
0.00067319
-2.35416e-06
0.000673748
-2.40134e-06
0.000674314
-2.43993e-06
0.000674888
-2.46985e-06
0.000675467
-2.49099e-06
0.000676051
-2.50326e-06
0.000676637
-2.50654e-06
0.000677224
-2.50072e-06
0.00067781
-2.48562e-06
0.000678393
-2.4611e-06
0.000678972
-2.42693e-06
0.000679545
-2.38296e-06
0.00068011
-2.32884e-06
0.000680666
-2.26442e-06
0.00068121
-2.18924e-06
0.000681742
-2.10315e-06
0.000682258
-2.00549e-06
0.000682758
-1.89619e-06
0.000683239
-1.77432e-06
0.000683699
-1.63994e-06
0.000684137
-1.4917e-06
0.00068455
-1.32997e-06
0.000684936
-1.15274e-06
0.000685292
-9.60925e-07
0.000685618
-7.51564e-07
0.000685908
-5.26582e-07
0.000686163
-2.81681e-07
0.000686382
-2.18639e-08
0.000686561
2.68885e-07
0.000686693
5.76496e-07
0.000686781
9.13391e-07
0.000686816
1.2693e-06
0.000686802
1.66233e-06
0.000686727
2.07438e-06
0.000686599
2.5339e-06
0.0006864
3.01052e-06
0.000686145
3.54951e-06
0.000685807
4.10042e-06
0.000685411
4.73513e-06
0.000684915
5.3701e-06
6.11863e-06
0.000684365
0.000666689
-1.02376e-07
0.000666755
-3.07774e-07
0.000666866
-5.13036e-07
0.00066702
-7.15832e-07
0.000667217
-9.14935e-07
0.000667455
-1.10923e-06
0.000667733
-1.29771e-06
0.000668048