/*--------------------------------*- C++ -*----------------------------------*\
| =========                 |                                                 |
| \\      /  F ield         | OpenFOAM: The Open Source CFD Toolbox           |
|  \\    /   O peration     | Version:  2312                                  |
|   \\  /    A nd           | Website:  www.openfoam.com                      |
|    \\/     M anipulation  |                                                 |
\*---------------------------------------------------------------------------*/
FoamFile
{
    version     2.0;
    format      ascii;
    arch        "LSB;label=32;scalar=64";
    class       surfaceScalarField;
    location    "6000";
    object      phi;
}
// * * * * * * * * * * * * * * * * * * * * * * * * * * * * * * * * * * * * * //

dimensions      [0 3 -1 0 0 0 0];

oriented        oriented;

internalField   nonuniform List<scalar> 
5309
(
0.00012913
3.77411e-05
0.000112278
1.68516e-05
9.84862e-05
1.3792e-05
8.89077e-05
9.57842e-06
8.41817e-05
4.72604e-06
8.34144e-05
7.67254e-07
8.49639e-05
-1.54947e-06
8.73563e-05
-2.3924e-06
8.9558e-05
-2.20166e-06
9.11839e-05
-1.62594e-06
9.22211e-05
-1.03717e-06
9.26825e-05
-4.6147e-07
9.25344e-05
1.48135e-07
9.1762e-05
7.72439e-07
9.02693e-05
1.49265e-06
8.83794e-05
1.88987e-06
8.5663e-05
2.71649e-06
8.32388e-05
2.42418e-06
7.98392e-05
3.39961e-06
7.79904e-05
1.84881e-06
7.46575e-05
3.33282e-06
7.42608e-05
3.96763e-07
7.17276e-05
2.5332e-06
7.305e-05
-1.32245e-06
7.14584e-05
1.59166e-06
7.51342e-05
-3.6758e-06
7.17292e-05
3.40497e-06
8.45781e-05
-1.28489e-05
5.93881e-05
2.51901e-05
-3.55462e-05
9.49342e-05
0.000214449
4.08717e-05
0.000209259
2.20413e-05
0.000204732
1.83186e-05
0.000200924
1.3387e-05
0.000199254
6.39515e-06
0.000199877
1.44371e-07
0.000202666
-4.33862e-06
0.000206181
-5.90687e-06
0.000209665
-5.68616e-06
0.00021273
-4.69015e-06
0.000215259
-3.56616e-06
0.000217191
-2.39364e-06
0.00021841
-1.07078e-06
0.000218951
2.30834e-07
0.000218542
1.90181e-06
0.000217506
2.9259e-06
0.000215147
5.07519e-06
0.000212991
4.58057e-06
0.000208916
7.47469e-06
0.000206866
3.89854e-06
0.000201865
8.33364e-06
0.000201327
9.35593e-07
0.000196379
7.48127e-06
0.000198289
-3.23291e-06
0.000193683
6.19718e-06
0.000199683
-9.67534e-06
0.000192676
1.04123e-05
0.000205537
-2.57106e-05
0.000203449
2.72787e-05
-3.89489e-05
0.000206851
0.00025171
3.48381e-05
0.000254188
1.95633e-05
0.000257683
1.48231e-05
0.00025984
1.12307e-05
0.000261076
5.15897e-06
0.000262591
-1.37109e-06
0.000264333
-6.0806e-06
0.000266793
-8.36616e-06
0.000269719
-8.61253e-06
0.000272833
-7.80399e-06
0.000275833
-6.56673e-06
0.000278577
-5.1378e-06
0.000280827
-3.32053e-06
0.000282714
-1.65607e-06
0.000283633
9.82427e-07
0.000284453
2.10655e-06
0.000283544
5.98371e-06
0.000283508
4.61655e-06
0.000280428
1.05546e-05
0.000280171
4.15554e-06
0.000275347
1.31581e-05
0.000275292
9.90086e-07
0.000270471
1.23026e-05
0.000270351
-3.11234e-06
0.000267133
9.41516e-06
0.000267791
-1.03333e-05
0.000267068
1.11351e-05
0.000266638
-2.52809e-05
0.000277152
1.67649e-05
-2.87171e-05
0.00026692
0.000271713
2.79541e-05
0.000274818
1.64583e-05
0.000279349
1.02916e-05
0.00028355
7.02963e-06
0.000286452
2.25756e-06
0.000288359
-3.27871e-06
0.000289942
-7.66361e-06
0.000291626
-1.00498e-05
0.000293768
-1.0755e-05
0.000296332
-1.03676e-05
0.000299057
-9.29147e-06
0.000301879
-7.95994e-06
0.000304373
-5.81477e-06
0.000306943
-4.22586e-06
0.000308504
-5.78677e-07
0.000310661
-5.00479e-08
0.000310574
6.07014e-06
0.000312313
2.87777e-06
0.000310164
1.27036e-05
0.000311272
3.04743e-06
0.000307899
1.65309e-05
0.000307386
1.503e-06
0.000304921
1.4768e-05
0.00030226
-4.51723e-07
0.000301558
1.01175e-05
0.000298332
-7.10693e-06
0.000299691
9.77616e-06
0.000293753
-1.93433e-05
0.000302978
7.54014e-06
-2.18412e-05
0.000296102
0.000284551
2.25488e-05
0.000286963
1.40456e-05
0.000290327
6.92784e-06
0.000294357
2.99991e-06
0.000297803
-1.18813e-06
0.00029988
-5.35589e-06
0.000301048
-8.83168e-06
0.000302134
-1.11361e-05
0.000303524
-1.2145e-05
0.000305359
-1.22021e-05
0.000307453
-1.13857e-05
0.000309908
-1.04147e-05
0.000312119
-8.02635e-06
0.00031481
-6.91661e-06
0.000316386
-2.15446e-06
0.000319106
-2.77075e-06
0.000319311
5.86557e-06
0.000321787
4.01454e-07
0.000320565
1.39261e-05
0.00032176
1.8518e-06
0.000320413
1.7878e-05
0.000318786
3.12988e-06
0.000318693
1.4862e-05
0.000314758
3.48246e-06
0.00031507
9.80565e-06
0.000310935
-2.97143e-06
0.000312682
8.02855e-06
0.000305876
-1.25366e-05
0.00031171
1.70551e-06
-1.70309e-05
0.0003069
0.000293732
1.88814e-05
0.000295294
1.24832e-05
0.000297147
5.07559e-06
0.000300094
5.24877e-08
0.00030275
-3.8444e-06
0.000304564
-7.16974e-06
0.000305716
-9.98333e-06
0.00030672
-1.21404e-05
0.000307876
-1.33009e-05
0.00030938
-1.37058e-05
0.000311051
-1.30568e-05
0.000313183
-1.25467e-05
0.00031503
-9.87328e-06
0.000317625
-9.51149e-06
0.000319
-3.53011e-06
0.000321801
-5.57165e-06
0.000322238
5.42827e-06
0.000324627
-1.98736e-06
0.000324456
1.40969e-05
0.000324961
1.34678e-06
0.000325452
1.73871e-05
0.000323021
5.56083e-06
0.000324107
1.37765e-05
0.000320552
7.0377e-06
0.000320522
9.83548e-06
0.000317023
5.27209e-07
0.000318028
7.02343e-06
0.000312689
-7.19748e-06
0.000314754
-3.58867e-07
-1.43519e-05
0.000312075
0.000300182
1.67753e-05
0.000301091
1.1574e-05
0.000302004
4.16339e-06
0.00030369
-1.6334e-06
0.000305522
-5.67719e-06
0.000306961
-8.60821e-06
0.000308029
-1.10512e-05
0.000309077
-1.31885e-05
0.000310256
-1.44799e-05
0.000311726
-1.51763e-05
0.000313224
-1.45539e-05
0.000315195
-1.45181e-05
0.000316772
-1.14501e-05
0.000319216
-1.19559e-05
0.000320451
-4.7653e-06
0.000323092
-8.21231e-06
0.00032382
4.7006e-06
0.000325736
-3.90316e-06
0.000326612
1.32202e-05
0.000326354
1.60494e-06
0.000328054
1.56872e-05
0.000325585
8.02989e-06
0.000326706
1.26556e-05
0.000324303
9.44082e-06
0.000323683
1.04553e-05
0.000321163
3.04735e-06
0.000321288
6.89847e-06
0.00031782
-3.72979e-06
0.000317736
-2.74459e-07
-1.24852e-05
0.000315869
0.000304555
1.57892e-05
0.000305156
1.0973e-05
0.000305535
3.785e-06
0.000306256
-2.35463e-06
0.000307202
-6.6231e-06
0.000308158
-9.56438e-06
0.000309114
-1.20074e-05
0.00031029
-1.43641e-05
0.000311675
-1.58652e-05
0.000313365
-1.68659e-05
0.000314933
-1.6122e-05
0.000316929
-1.65144e-05
0.000318382
-1.29029e-05
0.000320697
-1.42713e-05
0.000321891
-5.95925e-06
0.000324213
-1.05338e-05
0.000325368
3.54513e-06
0.000326691
-5.22596e-06
0.000328471
1.144e-05
0.000327726
2.34977e-06
0.000329945
1.34683e-05
0.000328042
9.93284e-06
0.000328717
1.19804e-05
0.000327477
1.06809e-05
0.000326554
1.13789e-05
0.000324704
4.89656e-06
0.000324369
7.23431e-06
0.000322034
-1.39515e-06
0.000321159
6.00127e-07
-1.07161e-05
0.00031939
0.000307547
1.54283e-05
0.000307994
1.05258e-05
0.000308078
3.7012e-06
0.000308095
-2.3717e-06
0.000308336
-6.8643e-06
0.000308908
-1.01364e-05
0.000309798
-1.28971e-05
0.000311123
-1.56891e-05
0.000312738
-1.74796e-05
0.000314709
-1.88375e-05
0.000316449
-1.78618e-05
0.000318566
-1.86313e-05
0.000320018
-1.43549e-05
0.000322215
-1.64687e-05
0.000323488
-7.23167e-06
0.00032545
-1.24966e-05
0.000327047
1.9481e-06
0.000327838
-6.01621e-06
0.00033024
9.03764e-06
0.000329413
3.17645e-06
0.000331659
1.12226e-05
0.000330634
1.09579e-05
0.00033084
1.17743e-05
0.000330478
1.10429e-05
0.000329585
1.22724e-05
0.000328213
6.26862e-06
0.000327617
7.82959e-06
0.000326102
1.20129e-07
0.000324955
1.74737e-06
-9.30732e-06
0.000323546
0.000309738
1.5327e-05
0.000309997
1.0266e-05
0.00030991
3.78883e-06
0.000309565
-2.02661e-06
0.000309432
-6.73133e-06
0.000309824
-1.05291e-05
0.000310699
-1.37719e-05
0.000312103
-1.70933e-05
0.000313832
-1.92083e-05
0.000316012
-2.10177e-05
0.000317932
-1.97814e-05
0.000320209
-2.09082e-05
0.000321775
-1.59212e-05
0.000323883
-1.85766e-05
0.000325343
-8.69167e-06
0.000326917
-1.40704e-05
0.000328949
-8.39262e-08
0.000329347
-6.41421e-06
0.000332105
6.27938e-06
0.000331518
3.76359e-06
0.00033352
9.22041e-06
0.000333398
1.10801e-05
0.00033335
1.18225e-05
0.000333477
1.09152e-05
0.000332931
1.28192e-05
0.000331828
7.37168e-06
0.000331255
8.40241e-06
0.000330101
1.27427e-06
0.000329181
2.66681e-06
-7.8138e-06
0.000327688
0.000311509
1.52751e-05
0.000311592
1.01829e-05
0.000311464
3.91684e-06
0.000311132
-1.69529e-06
0.000310982
-6.58066e-06
0.000311378
-1.09254e-05
0.000312243
-1.46364e-05
0.00031361
-1.84603e-05
0.000315272
-2.08711e-05
0.000317491
-2.32366e-05
0.000319505
-2.17951e-05
0.000321895
-2.32976e-05
0.000323646
-1.76728e-05
0.000325664
-2.05948e-05
0.000327402
-1.04296e-05
0.000328633
-1.53008e-05
0.000331035
-2.48619e-06
0.000331232
-6.6109e-06
0.000334066
3.44473e-06
0.000333965
3.86486e-06
0.000335616
7.56904e-06
0.000336285
1.04115e-05
0.00033626
1.18475e-05
0.000336614
1.0561e-05
0.000336503
1.29309e-05
0.000335697
8.17719e-06
0.000335187
8.91245e-06
0.000334334
2.12712e-06
0.000333568
3.4325e-06
-6.59459e-06
0.000332349
0.00031323
1.51123e-05
0.00031333
1.00826e-05
0.000313331
3.91591e-06
0.000313261
-1.62515e-06
0.00031331
-6.62958e-06
0.000313797
-1.14125e-05
0.000314624
-1.54629e-05
0.000315841
-1.96774e-05
0.000317256
-2.22858e-05
0.000319299
-2.52798e-05
0.000321265
-2.37614e-05
0.000323655
-2.56874e-05
0.000325627
-1.96448e-05
0.000327566
-2.25342e-05
0.000329661
-1.25248e-05
0.000330657
-1.62963e-05
0.000333322
-5.1508e-06
0.000333546
-6.83519e-06
0.00033625
7.40887e-07
0.000336759
3.35553e-06
0.000338104
6.22437e-06
0.000339343
9.17207e-06
0.000339586
1.16048e-05
0.000340039
1.01079e-05
0.000340337
1.2633e-05
0.000339883
8.63099e-06
0.000339502
9.29379e-06
0.000338865
2.76409e-06
0.00033832
3.97716e-06
-5.54341e-06
0.000337269
0.000315448
1.47026e-05
0.000315747
9.78353e-06
0.000315936
3.72738e-06
0.000316154
-1.84321e-06
0.000316436
-6.91129e-06
0.000317014
-1.19909e-05
0.000317777
-1.62261e-05
0.000318797
-2.06968e-05
0.000319865
-2.33545e-05
0.000321557
-2.69711e-05
0.000323331
-2.55362e-05
0.000325561
-2.79175e-05
0.000327735
-2.1818e-05
0.000329585
-2.43845e-05
0.000332063
-1.50025e-05
0.000332975
-1.72083e-05
0.000335804
-7.98029e-06
0.000336278
-7.30868e-06
0.000338719
-1.70062e-06
0.00033986
2.21435e-06
0.000341039
5.04525e-06
0.000342624
7.58777e-06
0.000343299
1.09297e-05
0.000343853
9.55333e-06
0.000344486
1.20001e-05
0.000344415
8.70198e-06
0.000344252
9.45717e-06
0.000343769
3.24747e-06
0.000343461
4.28453e-06
-4.64816e-06
0.000342566
0.000318536
1.40791e-05
0.00031901
9.30912e-06
0.000319288
3.4496e-06
0.000319661
-2.21629e-06
0.000320097
-7.34707e-06
0.000320735
-1.26289e-05
0.000321449
-1.694e-05
0.000322319
-2.15674e-05
0.000323081
-2.41168e-05
0.000324342
-2.8232e-05
0.000325827
-2.70204e-05
0.000327718
-2.98089e-05
0.000330005
-2.41045e-05
0.00033173
-2.61101e-05
0.000334547
-1.78196e-05
0.000335572
-1.82333e-05
0.000338467
-1.08748e-05
0.000339404
-8.24533e-06
0.000341568
-3.86486e-06
0.000343273
5.09407e-07
0.00034449
3.8281e-06
0.000346238
5.83937e-06
0.000347408
9.75969e-06
0.000348153
8.80826e-06
0.000349037
1.1116e-05
0.000349369
8.37025e-06
0.000349475
9.3513e-06
0.000349196
3.52617e-06
0.000349054
4.42676e-06
-3.98778e-06
0.000348394
0.000322295
1.34848e-05
0.00032277
8.83439e-06
0.000323013
3.20653e-06
0.000323409
-2.61258e-06
0.000323923
-7.86058e-06
0.00032461
-1.3316e-05
0.000325328
-1.76583e-05
0.000326166
-2.2405e-05
0.000326787
-2.47384e-05
0.00032767
-2.91147e-05
0.000328862
-2.82124e-05
0.00033028
-3.12266e-05
0.000332538
-2.63627e-05
0.000334083
-2.76553e-05
0.000337094
-2.08308e-05
0.00033841
-1.95495e-05
0.000341298
-1.37623e-05
0.000342852
-9.79976e-06
0.000344858
-5.87093e-06
0.00034701
-1.64208e-06
0.00034848
2.35844e-06
0.000350305
4.01359e-06
0.000351946
8.11951e-06
0.000352998
7.75626e-06
0.000354115
9.9988e-06
0.000354813
7.67192e-06
0.000355269
8.89506e-06
0.000355213
3.58232e-06
0.000355272
4.36787e-06
-3.4756e-06
0.00035476
0.00032609
1.31385e-05
-0.000325744
0.000326469
8.45581e-06
0.000326682
2.99337e-06
0.000327085
-3.01601e-06
0.000327664
-8.43917e-06
0.000328419
-1.4071e-05
0.0003292
-1.84399e-05
0.000330111
-2.33156e-05
0.00033081
-2.54379e-05
0.000331478
-2.97821e-05
0.000332492
-2.92266e-05
0.00033342
-3.21543e-05
0.000335497
-2.84395e-05
0.000336808
-2.89665e-05
0.000339763
-2.37856e-05
0.000341459
-2.12458e-05
0.000344286
-1.65895e-05
0.000346515
-1.20285e-05
0.000348594
-7.94996e-06
0.000351095
-4.14309e-06
0.000353004
4.49073e-07
0.00035495
2.06821e-06
0.000356987
6.08234e-06
0.000358452
6.29136e-06
0.000359839
8.61145e-06
0.000360879
6.63229e-06
0.000361717
8.05662e-06
0.000361953
3.3461e-06
0.000362236
4.08469e-06
-3.12825e-06
0.000361889
0.000329557
1.30402e-05
-0.000329459
0.000329901
8.11232e-06
0.000330201
2.69355e-06
0.000330679
-3.49472e-06
0.000331346
-9.10574e-06
0.000332182
-1.49072e-05
0.000333051
-1.93085e-05
0.000334054
-2.43194e-05
0.000334991
-2.6374e-05
0.000335639
-3.04301e-05
0.000336663
-3.02508e-05
0.00033725
-3.27413e-05
0.000339053
-3.02425e-05
0.000340139
-3.00531e-05
0.000342752
-2.63982e-05
0.00034477
-2.32641e-05
0.000347485
-1.93037e-05
0.000350293
-1.48365e-05
0.00035271
-1.03676e-05
0.000355521
-6.95389e-06
0.00035802
-2.04978e-06
0.000360241
-1.52647e-07
0.000362641
3.68172e-06
0.000364586
4.34677e-06
0.00036634
6.85683e-06
0.000367726
5.24663e-06
0.000368959
6.82394e-06
0.000369555
2.75006e-06
0.000370108
3.53107e-06
-2.98604e-06
0.000369966
0.000333014
1.3036e-05
-0.00033301
0.000333422
7.704e-06
0.000333903
2.21329e-06
0.000334506
-4.0984e-06
0.000335261
-9.86025e-06
0.00033615
-1.57964e-05
0.000337081
-2.02398e-05
0.000338095
-2.53326e-05
0.000339274
-2.75531e-05
0.000340029
-3.11851e-05
0.000341213
-3.14351e-05
0.000341736
-3.32645e-05
0.00034329
-3.17961e-05
0.000344279
-3.10427e-05
0.000346379
-2.84976e-05
0.000348534
-2.54194e-05
0.000351079
-2.18489e-05
0.000354206
-1.79628e-05
0.000357109
-1.32709e-05
0.000360254
-1.00992e-05
0.000363416
-5.21138e-06
0.000366186
-2.92324e-06
0.000369006
8.62093e-07
0.000371492
1.86092e-06
0.000373742
4.60653e-06
0.000375542
3.44694e-06
0.000377206
5.15975e-06
0.000378192
1.76381e-06
0.000379114
2.60989e-06
-3.0872e-06
0.000379215
0.000337283
1.30286e-05
-0.000337276
0.000337744
7.24317e-06
0.000338362
1.59524e-06
0.000339047
-4.78325e-06
0.000339833
-1.06465e-05
0.000340698
-1.66608e-05
0.000341634
-2.11762e-05
0.000342528
-2.62267e-05
0.000343796
-2.8821e-05
0.000344652
-3.2041e-05
0.00034599
-3.2773e-05
0.000346704
-3.39788e-05
0.000348122
-3.32137e-05
0.000349232
-3.21524e-05
0.000350906
-3.01716e-05
0.000353025
-2.75388e-05
0.000355394
-2.42181e-05
0.000358513
-2.10814e-05
0.000361825
-1.65826e-05
0.000365324
-1.35985e-05
0.000369117
-9.00498e-06
0.00037263
-6.43578e-06
0.000376082
-2.59004e-06
0.000379227
-1.28427e-06
0.000382133
1.70111e-06
0.000384498
1.08203e-06
0.000386697
2.9607e-06
0.000388153
3.07464e-07
0.000389505
1.2583e-06
-3.53662e-06
0.000389954
0.000342866
1.30028e-05
-0.00034284
0.000343303
6.80587e-06
0.00034396
9.38181e-07
0.00034465
-5.47317e-06
0.000345404
-1.14e-05
0.000346164
-1.74215e-05
0.000347046
-2.20584e-05
0.000347747
-2.69275e-05
0.000348884
-2.99581e-05
0.000349731
-3.28877e-05
0.000351043
-3.40848e-05
0.000352008
-3.49436e-05
0.000353376
-3.45822e-05
0.000354755
-3.35318e-05
0.000356316
-3.1732e-05
0.000358393
-2.96156e-05
0.000360712
-2.65374e-05
0.000363661
-2.40301e-05
0.00036716
-2.0082e-05
0.000370928
-1.73667e-05
0.000375202
-1.32786e-05
0.000379466
-1.07e-05
0.000383747
-6.87081e-06
0.000387773
-5.31014e-06
0.000391555
-2.08168e-06
0.000394729
-2.09145e-06
0.000397614
7.51828e-08
0.000399759
-1.8375e-06
0.000401674
-6.56136e-07
-4.44112e-06
0.000402578
0.000349762
1.28836e-05
-0.000349643
0.000350175
6.39254e-06
0.000350809
3.0444e-07
0.000351469
-6.1334e-06
0.000352166
-1.20964e-05
0.000352787
-1.8043e-05
0.000353562
-2.28329e-05
0.00035409
-2.74552e-05
0.000354941
-3.08098e-05
0.000355656
-3.36027e-05
0.00035672
-3.51488e-05
0.000357764
-3.59879e-05
0.000359049
-3.58672e-05
0.00036062
-3.51019e-05
0.000362327
-3.34399e-05
0.000364485
-3.17731e-05
0.000366987
-2.90397e-05
0.00036992
-2.69623e-05
0.000373524
-2.36869e-05
0.000377498
-2.13406e-05
0.000382079
-1.78589e-05
0.000386947
-1.55687e-05
0.000392054
-1.19774e-05
0.00039702
-1.02762e-05
0.00040194
-7.00153e-06
0.000406214
-6.36609e-06
0.000410238
-3.9483e-06
0.000413287
-4.88681e-06
0.000416104
-3.47263e-06
-5.96268e-06
0.000417625
0.000357401
1.24787e-05
-0.000356996
0.000357946
5.84774e-06
0.000358659
-4.09259e-07
0.00035937
-6.84386e-06
0.000360073
-1.27996e-05
0.000360621
-1.85905e-05
0.000361274
-2.34863e-05
0.000361707
-2.78886e-05
0.000362263
-3.13658e-05
0.000362787
-3.41265e-05
0.000363507
-3.58691e-05
0.000364396
-3.68769e-05
0.000365489
-3.69599e-05
0.000366989
-3.66022e-05
0.000368817
-3.52675e-05
0.00037108
-3.4036e-05
0.000373881
-3.18408e-05
0.000377079
-3.01601e-05
0.000380963
-2.75712e-05
0.000385294
-2.56714e-05
0.000390244
-2.28089e-05
0.000395607
-2.09318e-05
0.000401451
-1.78211e-05
0.000407329
-1.6154e-05
0.000413427
-1.31002e-05
0.000419023
-1.19621e-05
0.000424467
-9.3919e-06
0.000428872
-9.29233e-06
0.000433012
-7.61185e-06
-8.54509e-06
0.000435594
0.000365925
1.17173e-05
-0.000365163
0.000366654
5.11826e-06
0.000367562
-1.31707e-06
0.000368369
-7.6508e-06
0.000369125
-1.35559e-05
0.000369675
-1.91401e-05
0.000370214
-2.40251e-05
0.000370594
-2.82688e-05
0.000370936
-3.17081e-05
0.000371265
-3.44557e-05
0.000371689
-3.6293e-05
0.000372308
-3.74951e-05
0.000373157
-3.78089e-05
0.000374389
-3.78343e-05
0.000376133
-3.70121e-05
0.000378362
-3.6265e-05
0.000381321
-3.47991e-05
0.000384831
-3.36706e-05
0.000389135
-3.1875e-05
0.00039403
-3.05659e-05
0.000399659
-2.84381e-05
0.00040573
-2.70034e-05
0.000412468
-2.45587e-05
0.000419321
-2.3007e-05
0.00042663
-2.04091e-05
0.0004336
-1.89324e-05
0.000440692
-1.64838e-05
0.000446765
-1.53653e-05
0.000452722
-1.35688e-05
-1.27326e-05
0.000456909
0.000375752
1.03813e-05
-0.000374416
0.000376881
3.98961e-06
0.000377882
-2.31842e-06
0.000378827
-8.59497e-06
0.000379632
-1.43616e-05
0.000380184
-1.9692e-05
0.000380589
-2.44294e-05
0.000380848
-2.85279e-05
0.000381006
-3.18664e-05
0.000381118
-3.45675e-05
0.000381295
-3.64704e-05
0.000381625
-3.78248e-05
0.000382246
-3.84297e-05
0.000383192
-3.87811e-05
0.00038474
-3.85595e-05
0.000386821
-3.83461e-05
0.000389748
-3.77259e-05
0.000393381
-3.7304e-05
0.000398008
-3.65015e-05
0.000403395
-3.59531e-05
0.000409835
-3.48781e-05
0.000416845
-3.40135e-05
0.000424818
-3.25316e-05
0.000432994
-3.11835e-05
0.000441914
-2.93285e-05
0.000450523
-2.7542e-05
0.000459634
-2.55947e-05
0.000467707
-2.34377e-05
0.000476003
-2.18656e-05
-1.90881e-05
0.000482359
0.000387929
9.32727e-06
-0.000386875
0.000389156
2.76279e-06
0.000390373
-3.53505e-06
0.000391256
-9.47802e-06
0.000391959
-1.50645e-05
0.000392426
-2.01593e-05
0.00039267
-2.46733e-05
0.00039271
-2.85676e-05
0.000392631
-3.17877e-05
0.00039246
-3.43964e-05
0.000392357
-3.63677e-05
0.000392359
-3.78267e-05
0.000392713
-3.87833e-05
0.000393384
-3.94529e-05
0.000394705
-3.988e-05
0.000396597
-4.02385e-05
0.000399435
-4.05638e-05
0.000403045
-4.09142e-05
0.000407848
-4.13042e-05
0.000413511
-4.16163e-05
0.000420548
-4.19149e-05
0.000428366
-4.18311e-05
0.000437543
-4.17087e-05
0.00044718
-4.08204e-05
0.000457978
-4.01271e-05
0.000468657
-3.82209e-05
0.000480178
-3.71152e-05
0.000490817
-3.40767e-05
0.000501962
-3.30108e-05
-2.86179e-05
0.000511492
0.000405678
7.22555e-06
-0.000403576
0.000406803
1.63733e-06
0.000407664
-4.396e-06
0.000408333
-1.01466e-05
0.00040864
-1.53717e-05
0.000408566
-2.00847e-05
0.000408196
-2.43031e-05
0.00040759
-2.79625e-05
0.000406883
-3.10798e-05
0.000406088
-3.36018e-05
0.000405387
-3.56667e-05
0.000404809
-3.72488e-05
0.000404625
-3.85989e-05
0.000404818
-3.96461e-05
0.000405701
-4.07634e-05
0.000407215
-4.17525e-05
0.000409727
-4.3076e-05
0.000413086
-4.42728e-05
0.000417715
-4.59328e-05
0.000423326
-4.72279e-05
0.000430387
-4.89761e-05
0.000438455
-4.98982e-05
0.000447988
-5.12425e-05
0.000458358
-5.11896e-05
0.00047002
-5.17892e-05
0.000482199
-5.04005e-05
0.000495248
-5.01636e-05
0.000508347
-4.71762e-05
0.00052167
-4.63341e-05
-4.15654e-05
0.000534618
0.000421922
4.71714e-06
-0.000419414
0.000424743
-1.18342e-06
0.000426462
-6.11521e-06
0.000427344
-1.10287e-05
0.000427653
-1.56804e-05
0.000427462
-1.98936e-05
0.000426818
-2.36591e-05
0.000425773
-2.69175e-05
0.000424454
-2.97611e-05
0.000422972
-3.212e-05
0.000421483
-3.41774e-05
0.000420095
-3.58608e-05
0.000418977
-3.74805e-05
0.000418242
-3.89115e-05
0.000418051
-4.05721e-05
0.000418495
-4.21968e-05
0.00041971
-4.4291e-05
0.000421784
-4.63465e-05
0.000424839
-4.8988e-05
0.000428908
-5.12975e-05
0.000433962
-5.403e-05
0.000439996
-5.59322e-05
0.000446912
-5.81584e-05
0.00045486
-5.91377e-05
0.000463598
-6.0527e-05
0.000473549
-6.0351e-05
0.000483947
-6.05624e-05
0.000495545
-5.8774e-05
0.000506279
-5.70683e-05
-5.43108e-05
0.000519025
0.0004545
2.54823e-06
-0.000452331
0.000455104
-1.78801e-06
0.000455695
-6.7055e-06
0.000455644
-1.09778e-05
0.000454785
-1.48218e-05
0.000453167
-1.82755e-05
0.000450881
-2.13727e-05
0.000448045
-2.40812e-05
0.000444744
-2.64607e-05
0.00044113
-2.85061e-05
0.000437298
-3.03448e-05
0.000433431
-3.19938e-05
0.000429592
-3.36416e-05
0.000425979
-3.52988e-05
0.00042259
-3.71836e-05
0.000419625
-3.92316e-05
0.000416874
-4.15401e-05
0.000414479
-4.39512e-05
0.00041239
-4.68992e-05
0.000410672
-4.95788e-05
0.000408817
-5.21752e-05
0.000407042
-5.41576e-05
0.000404722
-5.58385e-05
0.000402263
-5.6679e-05
0.000398979
-5.72429e-05
0.000395749
-5.71204e-05
0.000392626
-5.74394e-05
0.000391438
-5.75866e-05
0.000391398
-5.70281e-05
-5.69214e-05
0.000394009
0.000489385
-1.02645e-06
-0.000485811
0.000491153
-3.55578e-06
0.000490801
-6.35315e-06
0.000488961
-9.13775e-06
0.000485862
-1.1723e-05
0.00048162
-1.40338e-05
0.00047632
-1.60721e-05
0.000470088
-1.78491e-05
0.000463015
-1.93881e-05
0.000455218
-2.07086e-05
0.000446725
-2.18527e-05
0.0004376
-2.28685e-05
0.000427784
-2.38252e-05
0.000417274
-2.47892e-05
0.000405921
-2.58309e-05
0.000393693
-2.70036e-05
0.000380501
-2.83475e-05
0.000366493
-2.99433e-05
0.000351789
-3.21952e-05
0.00033595
-3.37396e-05
0.00031838
-3.46058e-05
0.000298961
-3.47385e-05
0.000277188
-3.40658e-05
0.000253135
-3.26254e-05
0.000226541
-3.06493e-05
0.000197482
-2.80608e-05
0.000165114
-2.50715e-05
0.00012923
-2.17027e-05
9.19738e-05
-1.9772e-05
-1.9454e-05
5.45065e-05
0.00047472
-0.000475747
0.000471164
0.000464811
0.000455673
0.00044395
0.000429917
0.000413844
0.000395995
0.000376607
0.000355899
0.000334046
0.000311177
0.000287352
0.000262563
0.000236732
0.000209729
0.000181381
0.000151438
0.000119243
8.55032e-05
5.08974e-05
1.6159e-05
-1.79069e-05
-5.05322e-05
-8.11815e-05
-0.000109242
-0.000134314
-0.000156016
-0.000175788
-0.000195243
0.000387512
0.000365053
0.000342303
0.000319768
0.000297386
0.000274472
0.000250507
0.000225378
0.000199588
0.000173466
0.000143742
0.000115886
7.86842e-05
4.3454e-05
0.000471134
3.5528e-06
0.000464784
6.35028e-06
0.000455649
9.13503e-06
0.000443929
1.17205e-05
0.000429897
1.40315e-05
0.000413827
1.607e-05
0.00039598
1.78472e-05
0.000376594
1.93864e-05
0.000355886
2.07071e-05
0.000334035
2.18514e-05
0.000311168
2.28674e-05
0.000287343
2.38242e-05
0.000262555
2.47885e-05
0.000236725
2.58304e-05
0.000209721
2.70035e-05
0.000181373
2.83478e-05
0.000151429
2.99441e-05
0.000119232
3.21967e-05
8.54901e-05
3.37423e-05
5.088e-05
3.46101e-05
1.61357e-05
3.47443e-05
-1.79362e-05
3.40719e-05
-5.0566e-05
3.26297e-05
-8.12163e-05
3.06503e-05
-0.000109275
2.80586e-05
-0.000134343
2.50676e-05
-0.000156041
2.16984e-05
-0.000175813
1.97724e-05
1.94561e-05
-0.000195269
0.000491129
1.7826e-06
0.000490779
6.70111e-06
0.00048894
1.09738e-05
0.000485842
1.48182e-05
0.000481602
1.82722e-05
0.000476302
2.13697e-05
0.000470071
2.40785e-05
0.000462999
2.64583e-05
0.000455202
2.8504e-05
0.00044671
3.0343e-05
0.000437585
3.19923e-05
0.000427769
3.36404e-05
0.000417259
3.52979e-05
0.000405907
3.71831e-05
0.000393679
3.92316e-05
0.000380486
4.1541e-05
0.000366477
4.39528e-05
0.000351772
4.69016e-05
0.000335932
4.95822e-05
0.000318363
5.21797e-05
0.000298944
5.41631e-05
0.000277171
5.58447e-05
0.000253115
5.66857e-05
0.000226515
5.72499e-05
0.000197445
5.71286e-05
0.000165063
5.74505e-05
0.000129161
5.75997e-05
9.18915e-05
5.70422e-05
5.69351e-05
5.44125e-05
0.000455094
1.17905e-06
0.000455684
6.11074e-06
0.000455634
1.10245e-05
0.000454775
1.56765e-05
0.000453158
1.98901e-05
0.000450871
2.3656e-05
0.000448035
2.69147e-05
0.000444735
2.97586e-05
0.000441121
3.21179e-05
0.000437288
3.41757e-05
0.000433421
3.58595e-05
0.000429582
3.74797e-05
0.000425969
3.89111e-05
0.00042258
4.05722e-05
0.000419614
4.21974e-05
0.000416862
4.42923e-05
0.000414467
4.63485e-05
0.000412378
4.89908e-05
0.000410659
5.13011e-05
0.000408804
5.40346e-05
0.000407029
5.59377e-05
0.000404709
5.81651e-05
0.000402249
5.91454e-05
0.000398963
6.05359e-05
0.000395731
6.0361e-05
0.000392607
6.05738e-05
0.000391421
5.87859e-05
0.000391382
5.70817e-05
5.43249e-05
0.000393992
0.000424731
-1.64192e-06
0.000426451
4.3909e-06
0.000427334
1.0142e-05
0.000427643
1.53675e-05
0.000427452
2.00808e-05
0.000426808
2.42997e-05
0.000425763
2.79594e-05
0.000424445
3.10771e-05
0.000422963
3.35995e-05
0.000421474
3.56648e-05
0.000420086
3.72475e-05
0.000418968
3.85981e-05
0.000418233
3.96459e-05
0.000418041
4.07637e-05
0.000418485
4.17534e-05
0.0004197
4.30775e-05
0.000421774
4.42749e-05
0.000424829
4.59356e-05
0.000428899
4.72315e-05
0.000433953
4.89805e-05
0.000439987
4.99034e-05
0.000446904
5.12486e-05
0.000454853
5.11963e-05
0.000463592
5.17965e-05
0.000473545
5.04079e-05
0.000483947
5.0172e-05
0.000495548
4.71845e-05
0.000506286
4.63442e-05
4.15748e-05
0.000519036
0.000406793
-2.768e-06
0.000407654
3.5304e-06
0.000408322
9.47337e-06
0.00040863
1.506e-05
0.000408555
2.01552e-05
0.000408185
2.46696e-05
0.00040758
2.85643e-05
0.000406873
3.17848e-05
0.000406078
3.43939e-05
0.000405377
3.63658e-05
0.0004048
3.78253e-05
0.000404615
3.87826e-05
0.000404808
3.94528e-05
0.000405691
3.98805e-05
0.000407205
4.02395e-05
0.000409718
4.05653e-05
0.000413076
4.09162e-05
0.000417705
4.13068e-05
0.000423317
4.16196e-05
0.000430378
4.19189e-05
0.000438446
4.18355e-05
0.000447982
4.17133e-05
0.000458353
4.08252e-05
0.000470017
4.01317e-05
0.0004822
3.82253e-05
0.000495252
3.71197e-05
0.000508356
3.4081e-05
0.000521684
3.30158e-05
2.86225e-05
0.000534636
0.000389145
-3.99443e-06
0.000390362
2.31336e-06
0.000391245
8.59018e-06
0.000391948
1.43571e-05
0.000392415
1.96878e-05
0.000392659
2.44256e-05
0.000392699
2.85244e-05
0.000392621
3.18634e-05
0.00039245
3.4565e-05
0.000392347
3.64684e-05
0.000392349
3.78234e-05
0.000392702
3.8429e-05
0.000393374
3.8781e-05
0.000394695
3.85601e-05
0.000396587
3.8347e-05
0.000399425
3.77273e-05
0.000403035
3.73058e-05
0.000407838
3.65039e-05
0.000413502
3.59558e-05
0.00042054
3.48812e-05
0.000428359
3.40166e-05
0.000437538
3.25345e-05
0.000447177
3.11861e-05
0.000457978
2.93303e-05
0.00046866
2.75437e-05
0.000480184
2.55956e-05
0.000490826
2.34394e-05
0.000501974
2.18672e-05
1.90918e-05
0.000511505
0.000376871
-5.12312e-06
0.000377872
1.31229e-06
0.000378816
7.64611e-06
0.000379622
1.35514e-05
0.000380174
1.91359e-05
0.000380578
2.40213e-05
0.000380837
2.82653e-05
0.000380995
3.17052e-05
0.000381107
3.44531e-05
0.000381284
3.62911e-05
0.000381614
3.74938e-05
0.000382235
3.78083e-05
0.000383181
3.78342e-05
0.000384729
3.70126e-05
0.00038681
3.62657e-05
0.000389737
3.48003e-05
0.000393371
3.36719e-05
0.000397998
3.18769e-05
0.000403386
3.05676e-05
0.000409827
2.84401e-05
0.000416839
2.70047e-05
0.000424814
2.456e-05
0.000432993
2.30072e-05
0.000441914
2.04091e-05
0.000450525
1.89322e-05
0.000459637
1.64839e-05
0.000467709
1.53677e-05
0.000476004
1.35721e-05
1.27409e-05
0.000482355
0.000366644
-5.85211e-06
0.000367552
4.04553e-07
0.000368358
6.83949e-06
0.000369115
1.27953e-05
0.000369664
1.85865e-05
0.000370203
2.34825e-05
0.000370583
2.78851e-05
0.000370925
3.13629e-05
0.000371255
3.41238e-05
0.000371678
3.58672e-05
0.000372297
3.68755e-05
0.000373146
3.69592e-05
0.000374378
3.6602e-05
0.000376123
3.52677e-05
0.000378352
3.40364e-05
0.000381311
3.18416e-05
0.000384822
3.01608e-05
0.000389126
2.75725e-05
0.000394022
2.5672e-05
0.000399652
2.28098e-05
0.000405726
2.09313e-05
0.000412465
1.78211e-05
0.000419319
1.61528e-05
0.000426628
1.31005e-05
0.000433597
1.19627e-05
0.000440685
9.39585e-06
0.000446754
9.29891e-06
0.000452704
7.62179e-06
8.5601e-06
0.000456885
0.000357936
-6.39669e-06
0.00035865
-3.08661e-07
0.00035936
6.12934e-06
0.000360063
1.20922e-05
0.00036061
1.80392e-05
0.000361264
2.28291e-05
0.000361697
2.74517e-05
0.000362253
3.08069e-05
0.000362777
3.35999e-05
0.000363497
3.51471e-05
0.000364386
3.59864e-05
0.000365479
3.58665e-05
0.000366979
3.51015e-05
0.000368807
3.34399e-05
0.00037107
3.17733e-05
0.000373871
2.90401e-05
0.00037707
2.69627e-05
0.000380955
2.36872e-05
0.000385287
2.134e-05
0.000390238
1.78583e-05
0.000395603
1.5567e-05
0.000401446
1.19771e-05
0.000407323
1.02759e-05
0.000413419
7.00488e-06
0.000419011
6.37093e-06
0.000424448
3.95856e-06
0.000428848
4.89915e-06
0.00043298
3.48997e-06
5.98171e-06
0.000435558
0.000350166
-6.80963e-06
0.0003508
-9.42288e-07
0.00035146
5.46965e-06
0.000352156
1.13958e-05
0.000352777
1.74179e-05
0.000353552
2.20543e-05
0.00035408
2.69241e-05
0.000354931
2.99551e-05
0.000355646
3.2885e-05
0.00035671
3.40835e-05
0.000357754
3.49421e-05
0.000359039
3.45818e-05
0.000360609
3.35313e-05
0.000362317
3.17322e-05
0.000364475
2.96155e-05
0.000366978
2.65373e-05
0.000369911
2.40296e-05
0.000373517
2.00809e-05
0.000377492
1.73649e-05
0.000382073
1.32773e-05
0.000386941
1.0699e-05
0.000392046
6.87254e-06
0.000397008
5.3134e-06
0.000401923
2.09001e-06
0.000406192
2.1021e-06
0.000410211
-6.07786e-08
0.000413256
1.85426e-06
0.000416069
6.77524e-07
4.45995e-06
0.000417591
0.000343295
-7.24659e-06
0.000343952
-1.59909e-06
0.000344641
4.78032e-06
0.000345395
1.06421e-05
0.000346155
1.66578e-05
0.000347038
2.11719e-05
0.000347738
2.62237e-05
0.000348875