/*--------------------------------*- C++ -*----------------------------------*\
| =========                 |                                                 |
| \\      /  F ield         | OpenFOAM: The Open Source CFD Toolbox           |
|  \\    /   O peration     | Version:  2312                                  |
|   \\  /    A nd           | Website:  www.openfoam.com                      |
|    \\/     M anipulation  |                                                 |
\*---------------------------------------------------------------------------*/
FoamFile
{
    version     2.0;
    format      ascii;
    arch        "LSB;label=32;scalar=64";
    class       surfaceScalarField;
    location    "10000";
    object      phi;
}
// * * * * * * * * * * * * * * * * * * * * * * * * * * * * * * * * * * * * * //

dimensions      [0 3 -1 0 0 0 0];

oriented        oriented;

internalField   nonuniform List<scalar> 
5309
(
0.000108221
3.39049e-05
9.57394e-05
1.24812e-05
8.50776e-05
1.06619e-05
7.78803e-05
7.19727e-06
7.40929e-05
3.78734e-06
7.28596e-05
1.23339e-06
7.29567e-05
-9.71316e-08
7.41158e-05
-1.15912e-06
7.56308e-05
-1.51498e-06
7.80343e-05
-2.40346e-06
7.99707e-05
-1.93649e-06
8.22421e-05
-2.27136e-06
8.3094e-05
-8.51906e-07
8.38543e-05
-7.60293e-07
8.2815e-05
1.0393e-06
8.16317e-05
1.18334e-06
7.87895e-05
2.84216e-06
7.59661e-05
2.82341e-06
7.18448e-05
4.12126e-06
6.82988e-05
3.546e-06
6.37199e-05
4.57896e-06
6.06475e-05
3.07233e-06
5.64734e-05
4.1741e-06
5.49811e-05
1.4923e-06
5.19569e-05
3.02421e-06
5.31688e-05
-1.21183e-06
4.94688e-05
3.69992e-06
5.98741e-05
-1.04052e-05
3.46658e-05
2.52082e-05
-3.16173e-05
6.62832e-05
0.000191132
3.79048e-05
0.000186886
1.67267e-05
0.000183453
1.40956e-05
0.000180611
1.00387e-05
0.000178901
5.4978e-06
0.000178479
1.65491e-06
0.000178933
-5.51171e-07
0.000180964
-3.18955e-06
0.000183611
-4.16221e-06
0.000187654
-6.44648e-06
0.000191402
-5.68479e-06
0.00019585
-6.71952e-06
0.000198699
-3.70034e-06
0.000201615
-3.6768e-06
0.000202233
4.21258e-07
0.000202535
8.82015e-07
0.000200375
5.00152e-06
0.000197927
5.27186e-06
0.000193196
8.85239e-06
0.000188786
7.95598e-06
0.000182215
1.11501e-05
0.000177625
7.66191e-06
0.000170381
1.14182e-05
0.000168205
3.66789e-06
0.000160358
1.08717e-05
0.000164764
-5.61825e-06
0.000152537
1.59269e-05
0.000167554
-2.54224e-05
0.000159331
3.34315e-05
-3.87614e-05
0.000166475
0.00023386
3.30099e-05
0.00023552
1.50666e-05
0.000238094
1.15212e-05
0.000239661
8.47174e-06
0.000240645
4.51436e-06
0.000242346
-4.66932e-08
0.00024431
-2.51519e-06
0.000247234
-6.11292e-06
0.000250362
-7.29067e-06
0.000254649
-1.07332e-05
0.000258457
-9.49291e-06
0.000263208
-1.14703e-05
0.000266764
-7.25618e-06
0.000270814
-7.72663e-06
0.000273152
-1.9168e-06
0.00027548
-1.44674e-06
0.000275834
4.64834e-06
0.000275921
5.18444e-06
0.000273798
1.09759e-05
0.000271914
9.83964e-06
0.000267164
1.58994e-05
0.000264455
1.03715e-05
0.00025739
1.84834e-05
0.000255779
5.27812e-06
0.000246982
1.96694e-05
0.000248358
-6.99463e-06
0.000241619
2.26665e-05
0.000242507
-2.63112e-05
0.00024922
2.67193e-05
-3.03e-05
0.000240758
0.000260321
2.67073e-05
0.000262135
1.32528e-05
0.000265295
8.36055e-06
0.000268407
5.35998e-06
0.000270936
1.98573e-06
0.000273687
-2.79769e-06
0.000276629
-5.45695e-06
0.000280555
-1.00396e-05
0.000284041
-1.07765e-05
0.00028868
-1.53716e-05
0.000292423
-1.32368e-05
0.000297226
-1.62725e-05
0.000300964
-1.09943e-05
0.000305296
-1.20585e-05
0.000308608
-5.22943e-06
0.000311923
-4.76163e-06
0.000314155
2.41692e-06
0.000316206
3.13326e-06
0.000316508
1.06734e-05
0.000317277
9.07062e-06
0.000315206
1.79708e-05
0.000314702
1.08755e-05
0.00031061
2.25754e-05
0.000308907
6.98164e-06
0.000304552
2.40237e-05
0.000301124
-3.56623e-06
0.000300136
2.36546e-05
0.000292265
-1.844e-05
0.00030105
1.79335e-05
-2.16534e-05
0.000292404
0.000278757
2.14716e-05
0.000280072
1.19376e-05
0.000282479
5.95418e-06
0.000285515
2.32316e-06
0.000288312
-8.10542e-07
0.000291328
-5.81415e-06
0.000293942
-8.0703e-06
0.000297562
-1.36601e-05
0.000300568
-1.37826e-05
0.000304806
-1.96092e-05
0.000308253
-1.66843e-05
0.000312635
-2.0654e-05
0.000316473
-1.48331e-05
0.000320473
-1.60579e-05
0.000324295
-9.05143e-06
0.000327779
-8.24598e-06
0.000330922
-7.26428e-07
0.000333907
1.48227e-07
0.000335709
8.87142e-06
0.000337765
7.01505e-06
0.000338169
1.75667e-05
0.000338491
1.05539e-05
0.00033793
2.31359e-05
0.000335836
9.07573e-06
0.000335204
2.46561e-05
0.000329779
1.85877e-06
0.000331607
2.18258e-05
0.000321591
-8.4233e-06
0.000327387
1.21372e-05
-1.41081e-05
0.000319842
0.000292486
1.77122e-05
0.000293486
1.09379e-05
0.000294757
4.68335e-06
0.000297046
3.35742e-08
0.000299136
-2.89983e-06
0.000301728
-8.40703e-06
0.000303799
-1.01405e-05
0.000306819
-1.66805e-05
0.000309218
-1.61812e-05
0.000312639
-2.30309e-05
0.000315746
-1.97912e-05
0.000319352
-2.42603e-05
0.000323202
-1.86831e-05
0.000326694
-1.95497e-05
0.000330704
-1.30615e-05
0.000334142
-1.16837e-05
0.000337642
-4.22621e-06
0.000340893
-3.10287e-06
0.000343657
6.10737e-06
0.000345974
4.69785e-06
0.000348135
1.54063e-05
0.000348653
1.00359e-05
0.000350232
2.15568e-05
0.000348317
1.09907e-05
0.000349692
2.32812e-05
0.000344465
7.08502e-06
0.000346699
1.95918e-05
0.000338502
-2.26138e-07
0.00034043
1.02093e-05
-8.78535e-06
0.000335107
0.000302566
1.53136e-05
0.000303388
1.01163e-05
0.000303865
4.20657e-06
0.000305351
-1.45239e-06
0.00030691
-4.45903e-06
0.000309044
-1.05408e-05
0.000310679
-1.17757e-05
0.000312985
-1.89866e-05
0.000314931
-1.81269e-05
0.00031737
-2.54698e-05
0.000320135
-2.25561e-05
0.000322785
-2.69112e-05
0.000326402
-2.22997e-05
0.000329349
-2.24967e-05
0.000333215
-1.69273e-05
0.000336559
-1.5028e-05
0.000340216
-7.88334e-06
0.000343542
-6.42875e-06
0.000346983
2.66699e-06
0.000349383
2.29702e-06
0.000352493
1.22971e-05
0.00035331
9.2189e-06
0.000355819
1.90471e-05
0.000354537
1.22734e-05
0.000356525
2.12931e-05
0.000352773
1.08366e-05
0.000354084
1.82813e-05
0.000348815
5.0427e-06
0.000348192
1.08317e-05
-4.51528e-06
0.000343922
0.000309543
1.40332e-05
0.000310219
9.44057e-06
0.00031039
4.03566e-06
0.000311347
-2.40896e-06
0.000312449
-5.56189e-06
0.000314136
-1.22271e-05
0.000315547
-1.31868e-05
0.000317289
-2.07291e-05
0.000319095
-1.99331e-05
0.000320744
-2.71186e-05
0.000323249
-2.50612e-05
0.000325118
-2.87797e-05
0.000328298
-2.54799e-05
0.000330805
-2.50038e-05
0.000334282
-2.04047e-05
0.000337503
-1.8249e-05
0.000341202
-1.15816e-05
0.000344569
-9.79635e-06
0.000348479
-1.24314e-06
0.000351163
-3.86615e-07
0.000354778
8.68235e-06
0.000356164
7.83301e-06
0.000359023
1.61876e-05
0.000358662
1.26343e-05
0.000360549
1.94058e-05
0.000358503
1.28827e-05
0.000358919
1.78658e-05
0.000355817
8.14467e-06
0.000354343
1.2306e-05
-9.12847e-07
0.00035074
0.000313949
1.35286e-05
0.000314595
8.79471e-06
0.000314763
3.86772e-06
0.000315418
-3.06319e-06
0.000316226
-6.36998e-06
0.000317528
-1.35294e-05
0.000318912
-1.45708e-05
0.000320278
-2.2095e-05
0.000322155
-2.18104e-05
0.000323335
-2.82981e-05
0.000325654
-2.73801e-05
0.000327095
-3.02209e-05
0.000329803
-2.81879e-05
0.000332057
-2.72582e-05
0.000335091
-2.34388e-05
0.000338138
-2.12958e-05
0.000341736
-1.51793e-05
0.000345117
-1.31775e-05
0.000349247
-5.37267e-06
0.000352367
-3.50712e-06
0.000356316
4.73319e-06
0.000358485
5.66434e-06
0.000361541
1.31312e-05
0.000362277
1.18988e-05
0.000363941
1.77412e-05
0.000363345
1.3479e-05
0.000363395
1.78162e-05
0.000361599
9.94059e-06
0.0003602
1.37045e-05
2.00404e-06
0.000357283
0.000316477
1.33759e-05
0.00031712
8.15174e-06
0.000317427
3.55997e-06
0.00031796
-3.59609e-06
0.000318671
-7.08061e-06
0.000319694
-1.45522e-05
0.000321179
-1.60566e-05
0.000322337
-2.32527e-05
0.00032435
-2.3823e-05
0.000325382
-2.93302e-05
0.000327564
-2.95619e-05
0.000328942
-3.15995e-05
0.000331296
-3.05419e-05
0.000333502
-2.94642e-05
0.000336213
-2.61496e-05
0.000339091
-2.41736e-05
0.000342491
-1.85794e-05
0.000345806
-1.64928e-05
0.000349916
-9.48269e-06
0.000353407
-6.99787e-06
0.000357615
5.25054e-07
0.000360588
2.69168e-06
0.000363941
9.77791e-06
0.000365738
1.01019e-05
0.00036757
1.59092e-05
0.000367928
1.31211e-05
0.000368278
1.74661e-05
0.000367149
1.10695e-05
0.000366236
1.46172e-05
4.53171e-06
0.000363709
0.000317855
1.32536e-05
0.000318462
7.54461e-06
0.000318947
3.07562e-06
0.000319497
-4.14629e-06
0.000320303
-7.88649e-06
0.000321169
-1.54184e-05
0.000322789
-1.76769e-05
0.000323871
-2.43349e-05
0.000325974
-2.59259e-05
0.000327113
-3.04687e-05
0.000329202
-3.16506e-05
0.000330766
-3.31639e-05
0.000332945
-3.27214e-05
0.000335252
-3.17711e-05
0.000337838
-2.87349e-05
0.000340642
-2.69778e-05
0.000343866
-2.18036e-05
0.000347062
-1.96882e-05
0.000351
-1.34214e-05
0.000354642
-1.06394e-05
0.000358954
-3.78694e-06
0.000362604
-9.5848e-07
0.000366351
6.03053e-06
0.000369101
7.35222e-06
0.000371503
1.35072e-05
0.000372639
1.19855e-05
0.000373539
1.6566e-05
0.000373049
1.15593e-05
0.000372586
1.508e-05
6.49392e-06
0.000370624
0.000318753
1.30005e-05
0.000319352
6.94552e-06
0.000320036
2.39195e-06
0.000320687
-4.7971e-06
0.000321698
-8.89751e-06
0.000322506
-1.62273e-05
0.000324202
-1.93721e-05
0.000325301
-2.54342e-05
0.0003274
-2.80254e-05
0.000328791
-3.18592e-05
0.000330836
-3.36956e-05
0.000332681
-3.50092e-05
0.000334829
-3.48693e-05
0.000337286
-3.42284e-05
0.000339906
-3.13541e-05
0.000342747
-2.98189e-05
0.000345938
-2.49951e-05
0.000349055
-2.28054e-05
0.000352814
-1.71806e-05
0.000356446
-1.42711e-05
0.000360676
-8.01653e-06
0.000364728
-5.01037e-06
0.000368873
1.88496e-06
0.000372384
3.84128e-06
0.000375594
1.02969e-05
0.000377557
1.0023e-05
0.000379175
1.49482e-05
0.000379387
1.13474e-05
0.00037951
1.49567e-05
7.9707e-06
0.000378033
0.000319941
1.25527e-05
0.000320581
6.30569e-06
0.000321449
1.52414e-06
0.000322188
-5.53651e-06
0.000323376
-1.00849e-05
0.000324186
-1.70376e-05
0.000325854
-2.10401e-05
0.000327024
-2.66045e-05
0.000329027
-3.0028e-05
0.000330681
-3.35138e-05
0.000332709
-3.57234e-05
0.000334798
-3.70981e-05
0.000336976
-3.7047e-05
0.000339531
-3.67833e-05
0.000342242
-3.40657e-05
0.000345149
-3.27258e-05
0.000348457
-2.83028e-05
0.000351639
-2.59871e-05
0.00035535
-2.08922e-05
0.00035901
-1.79307e-05
0.000363103
-1.211e-05
0.000367286
-9.19298e-06
0.000371722
-2.55104e-06
0.000375744
-1.80406e-07
0.00037974
6.30022e-06
0.00038262
7.14332e-06
0.000385116
1.24517e-05
0.000386153
1.03103e-05
0.000387018
1.40917e-05
8.90226e-06
0.000386087
0.000322158
1.1987e-05
0.000322777
5.68639e-06
0.000323704
5.96987e-07
0.000324447
-6.2792e-06
0.000325692
-1.13299e-05
0.000326545
-1.78911e-05
0.000328108
-2.26033e-05
0.00032936
-2.78563e-05
0.000331189
-3.18566e-05
0.000332989
-3.53139e-05
0.000334962
-3.76966e-05
0.000337161
-3.92972e-05
0.000339361
-3.92464e-05
0.000341902
-3.93244e-05
0.000344682
-3.68457e-05
0.000347597
-3.56407e-05
0.000351041
-3.17474e-05
0.000354427
-2.93732e-05
0.000358258
-2.47228e-05
0.000362146
-2.18189e-05
0.000366308
-1.62718e-05
0.00037055
-1.34349e-05
0.000375193
-7.19404e-06
0.000379535
-4.52195e-06
0.000384084
1.75081e-06
0.000387819
3.40799e-06
0.000391281
8.98985e-06
0.000393281
8.31033e-06
0.000395096
1.22766e-05
9.10871e-06
0.00039489
0.000325645
1.15115e-05
0.000326114
5.21725e-06
0.00032695
-2.38334e-07
0.000327638
-6.96737e-06
0.000328831
-1.25231e-05
0.000329752
-1.88122e-05
0.00033117
-2.40213e-05
0.000332458
-2.91435e-05
0.000334048
-3.34468e-05
0.000335797
-3.70629e-05
0.000337616
-3.9516e-05
0.000339736
-4.14171e-05
0.000341908
-4.14182e-05
0.000344326
-4.17422e-05
0.000347118
-3.96383e-05
0.000349988
-3.85107e-05
0.000353466
-3.52253e-05
0.000357075
-3.29816e-05
0.000361114
-2.87619e-05
0.000365364
-2.60693e-05
0.000369931
-2.0839e-05
0.000374451
-1.79547e-05
0.000379414
-1.21567e-05
0.000384093
-9.20116e-06
0.000389052
-3.20814e-06
0.000393393
-9.33004e-07
0.000397769
4.61327e-06
0.000400707
5.37249e-06
0.000403661
9.32319e-06
8.43295e-06
0.000404337
0.000330064
1.12383e-05
-0.000329791
0.000330369
4.91281e-06
0.00033108
-9.49275e-07
0.000331718
-7.60578e-06
0.000332787
-1.35921e-05
0.000333736
-1.97617e-05
0.000334971
-2.52561e-05
0.000336201
-3.0373e-05
0.000337518
-3.47642e-05
0.000339044
-3.85892e-05
0.000340623
-4.10951e-05
0.000342488
-4.32817e-05
0.000344562
-4.34918e-05
0.000346795
-4.39752e-05
0.000349531
-4.2375e-05
0.000352371
-4.13506e-05
0.000355789
-3.86437e-05
0.000359526
-3.67177e-05
0.000363763
-3.29989e-05
0.000368318
-3.0625e-05
0.000373438
-2.59585e-05
0.000378525
-2.30422e-05
0.000384093
-1.77245e-05
0.000389372
-1.44797e-05
0.000394942
-8.77811e-06
0.000399835
-5.82642e-06
0.000404986
-5.37552e-07
0.00040873
1.62807e-06
0.000412762
5.29167e-06
6.6945e-06
0.0004145
0.000335028
1.11046e-05
-0.000334895
0.000335253
4.68847e-06
0.000335828
-1.525e-06
0.000336404
-8.18186e-06
0.00033728
-1.44672e-05
0.000338158
-2.06403e-05
0.000339176
-2.62738e-05
0.000340269
-3.14656e-05
0.000341353
-3.58489e-05
0.000342602
-3.9838e-05
0.000343949
-4.24419e-05
0.000345491
-4.4824e-05
0.000347398
-4.53989e-05
0.000349441
-4.6018e-05
0.000352046
-4.49801e-05
0.000354873
-4.4177e-05
0.000358237
-4.20084e-05
0.000361998
-4.04786e-05
0.000366394
-3.73946e-05
0.000371126
-3.53566e-05
0.000376674
-3.15067e-05
0.000382366
-2.87347e-05
0.000388727
-2.40849e-05
0.00039488
-2.06331e-05
0.000401488
-1.53866e-05
0.000407231
-1.15686e-05
0.000413378
-6.68525e-06
0.000417999
-2.9922e-06
0.000422921
3.68893e-07
3.87698e-06
0.000425739
0.000340031
1.10741e-05
-0.00034
0.000340196
4.52328e-06
0.000340633
-1.96257e-06
0.00034113
-8.67808e-06
0.000341814
-1.51518e-05
0.000342584
-2.14101e-05
0.000343435
-2.71249e-05
0.000344399
-3.243e-05
0.000345376
-3.68255e-05
0.000346428
-4.08897e-05
0.000347636
-4.36507e-05
0.000348932
-4.61192e-05
0.000350643
-4.71103e-05
0.000352516
-4.78911e-05
0.000354938
-4.74022e-05
0.000357691
-4.69293e-05
0.000361033
-4.53513e-05
0.000364763
-4.4208e-05
0.000369286
-4.19177e-05
0.000374142
-4.02126e-05
0.000379973
-3.73377e-05
0.000386093
-3.48549e-05
0.000393187
-3.11783e-05
0.000400216
-2.76623e-05
0.000408071
-2.32421e-05
0.00041514
-1.86375e-05
0.00042267
-1.42152e-05
0.000428679
-9.00107e-06
0.000434887
-5.8387e-06
-2.28234e-08
0.000438786
0.000344361
1.09647e-05
-0.000344251
0.000344612
4.27211e-06
0.000345062
-2.41233e-06
0.000345597
-9.21364e-06
0.000346245
-1.57997e-05
0.000346993
-2.21579e-05
0.00034781
-2.79417e-05
0.000348713
-3.33331e-05
0.00034969
-3.78025e-05
0.000350659
-4.18583e-05
0.000351806
-4.47984e-05
0.000352971
-4.72839e-05
0.000354505
-4.86444e-05
0.000356216
-4.96022e-05
0.000358449
-4.96348e-05
0.000361028
-4.95082e-05
0.000364313
-4.86366e-05
0.000367964
-4.78596e-05
0.000372561
-4.65143e-05
0.000377527
-4.51783e-05
0.000383617
-4.34279e-05
0.000390059
-4.1297e-05
0.000397766
-3.88849e-05
0.000405563
-3.54598e-05
0.000414563
-3.22423e-05
0.000423063
-2.71369e-05
0.000432359
-2.35111e-05
0.000440206
-1.68484e-05
0.000448409
-1.40418e-05
-5.66706e-06
0.000454053
0.000348655
1.06079e-05
-0.000348299
0.000349127
3.80016e-06
0.000349737
-3.0219e-06
0.000350417
-9.89404e-06
0.000351152
-1.65345e-05
0.000351931
-2.29369e-05
0.000352765
-2.87755e-05
0.00035361
-3.41778e-05
0.000354557
-3.875e-05
0.000355454
-4.27551e-05
0.000356517
-4.58612e-05
0.000357577
-4.83441e-05
0.000358953
-5.00205e-05
0.000360487
-5.11365e-05
0.000362545
-5.16921e-05
0.000364899
-5.18627e-05
0.000368055
-5.1792e-05
0.00037157
-5.1375e-05
0.000376152
-5.10961e-05
0.000381156
-5.01826e-05
0.000387479
-4.97504e-05
0.000394214
-4.80328e-05
0.000402522
-4.71925e-05
0.000411049
-4.39867e-05
0.000421232
-4.24256e-05
0.000431072
-3.69769e-05
0.000442356
-3.47951e-05
0.000452182
-2.66746e-05
0.000463094
-2.49536e-05
-1.35959e-05
0.000471023
0.000354523
1.00954e-05
-0.00035401
0.000355101
3.2217e-06
0.000355769
-3.69008e-06
0.000356476
-1.06008e-05
0.000357205
-1.72638e-05
0.000357906
-2.36374e-05
0.000358638
-2.95075e-05
0.000359315
-3.48547e-05
0.000360083
-3.95185e-05
0.000360798
-4.34697e-05
0.000361671
-4.67344e-05
0.000362552
-4.92252e-05
0.000363744
-5.12121e-05
0.000365073
-5.24662e-05
0.000366953
-5.35712e-05
0.000369089
-5.39987e-05
0.000372068
-5.47717e-05
0.000375408
-5.47151e-05
0.000379892
-5.55793e-05
0.000384821
-5.51119e-05
0.000391264
-5.61938e-05
0.000398172
-5.49408e-05
0.000407024
-5.6044e-05
0.000416194
-5.31567e-05
0.000427669
-5.39009e-05
0.000438907
-4.82143e-05
0.000452509
-4.83975e-05
0.000464643
-3.88085e-05
0.000478728
-3.9039e-05
-2.45582e-05
0.000489691
0.000361409
9.49254e-06
-0.000360806
0.000362045
2.5851e-06
0.000362738
-4.38262e-06
0.00036342
-1.12827e-05
0.000364095
-1.79395e-05
0.000364679
-2.42209e-05
0.000365248
-3.00767e-05
0.000365708
-3.53147e-05
0.000366214
-4.00241e-05
0.000366657
-4.39126e-05
0.000367251
-4.73289e-05
0.000367866
-4.98401e-05
0.000368807
-5.21534e-05
0.000369891
-5.35503e-05
0.000371545
-5.52249e-05
0.000373465
-5.5919e-05
0.000376227
-5.75339e-05
0.000379372
-5.78593e-05
0.000383667
-5.98741e-05
0.000388434
-5.98789e-05
0.000394784
-6.25445e-05
0.000401703
-6.18597e-05
0.000410783
-6.51238e-05
0.000420421
-6.27948e-05
0.000432848
-6.63284e-05
0.000445518
-6.08841e-05
0.00046136
-6.42392e-05
0.00047645
-5.3899e-05
0.000494379
-5.69677e-05
-3.98977e-05
0.000509718
0.000369727
8.85868e-06
-0.000369093
0.000370371
1.94122e-06
0.000371048
-5.05961e-06
0.000371666
-1.19006e-05
0.000372233
-1.85068e-05
0.000372662
-2.465e-05
0.000373017
-3.04314e-05
0.00037322
-3.55181e-05
0.000373404
-4.02079e-05
0.000373507
-4.40157e-05
0.000373729
-4.75504e-05
0.000373991
-5.01019e-05
0.000374562
-5.27243e-05
0.000375327
-5.43158e-05
0.00037663
-5.6528e-05
0.000378291
-5.75801e-05
0.000380713
-5.99554e-05
0.000383642
-6.0788e-05
0.000387555
-6.37871e-05
0.000392127
-6.44514e-05
0.000397984
-6.84015e-05
0.000404794
-6.86699e-05
0.000413402
-7.37319e-05
0.000423333
-7.27255e-05
0.000435648
-7.86438e-05
0.00044958
-7.48161e-05
0.000466382
-8.10409e-05
0.000484634
-7.21507e-05
0.000505687
-7.80206e-05
-6.15111e-05
0.0005273
0.000379502
7.79071e-06
-0.000378434
0.000380339
1.10476e-06
0.000381127
-5.84798e-06
0.000381752
-1.25253e-05
0.000382214
-1.8969e-05
0.000382477
-2.49125e-05
0.000382566
-3.05203e-05
0.000382463
-3.54154e-05
0.000382244
-3.99892e-05
0.000381943
-4.37152e-05
0.000381672
-4.72794e-05
0.000381498
-4.99276e-05
0.000381539
-5.27648e-05
0.000381897
-5.46744e-05
0.000382661
-5.72915e-05
0.000383984
-5.89038e-05
0.00038585
-6.18206e-05
0.000388503
-6.34414e-05
0.000391741
-6.70254e-05
0.000396025
-6.87352e-05
0.000400859
-7.32351e-05
0.000407209
-7.50204e-05
0.000414252
-8.07749e-05
0.000423816
-8.22888e-05
0.000434187
-8.90155e-05
0.000448304
-8.89331e-05
0.000463195
-9.59311e-05
0.000483408
-9.23638e-05
0.000503811
-9.84238e-05
-8.86182e-05
0.000530918
0.000390582
6.77026e-06
-0.000389561
0.000391893
-2.06859e-07
0.000392745
-6.69956e-06
0.000393353
-1.31331e-05
0.00039373
-1.93459e-05
0.000393844
-2.50273e-05
0.000393635
-3.03106e-05
0.000393193
-3.49741e-05
0.000392516
-3.93119e-05
0.000391773
-4.29725e-05
0.000390935
-4.64406e-05
0.000390267
-4.92602e-05
0.000389679
-5.21764e-05
0.000389549
-5.4544e-05
0.000389647
-5.73899e-05
0.000390497
-5.9754e-05
0.000391633
-6.29561e-05
0.000393775
-6.55836e-05
0.000396081
-6.93318e-05
0.000399603
-7.22565e-05
0.000402954
-7.65865e-05
0.000407759
-7.98254e-05
0.000412012
-8.50278e-05
0.000418714
-8.89905e-05
0.000424775
-9.50768e-05
0.000434835
-9.8993e-05
0.00044355
-0.000104646
0.000459129
-0.000107943
0.00047239
-0.000111685
-0.000113106
0.000496878
0.000406421
5.03168e-06
-0.000404682
0.000407145
-9.31438e-07
0.000408004
-7.55794e-06
0.000408494
-1.36229e-05
0.000408458
-1.93107e-05
0.000408009
-2.45779e-05
0.000407173
-2.94747e-05
0.000406094
-3.3895e-05
0.000404722
-3.79398e-05
0.000403278
-4.15286e-05
0.000401696
-4.4859e-05
0.000400303
-4.78671e-05
0.000398961
-5.08342e-05
0.000398084
-5.36674e-05
0.000397384
-5.66897e-05
0.000397359
-5.97291e-05
0.000397506
-6.31026e-05
0.000398425
-6.65025e-05
0.000399284
-7.0191e-05
0.000400776
-7.37486e-05
0.000401668
-7.74782e-05
0.00040281
-8.09676e-05
0.000402405
-8.46227e-05
0.000401853
-8.84393e-05
0.000399651
-9.28746e-05
0.000397698
-9.70402e-05
0.000393497
-0.000100444
0.0003901
-0.000104547
0.000384561
-0.000106146
-0.000113761
0.000385216
0.000422686
2.57735e-06
-0.000420231
0.000424943
-3.18878e-06
0.000425985
-8.59947e-06
0.00042631
-1.3948e-05
0.000426033
-1.90343e-05
0.000425211
-2.3755e-05
0.000423832
-2.80957e-05
0.000422009
-3.20721e-05
0.000419784
-3.57156e-05
0.00041733
-3.90743e-05
0.000414689
-4.22174e-05
0.000412061
-4.52392e-05
0.000409459
-4.82321e-05
0.000407079
-5.12874e-05
0.000404828
-5.44393e-05
0.000402806
-5.7707e-05
0.000400763
-6.10591e-05
0.000398696
-6.44359e-05
0.000396097
-6.75923e-05
0.000392777
-7.04285e-05
0.000388168
-7.28689e-05
0.000381998
-7.47981e-05
0.000373227
-7.58518e-05
0.000360563
-7.5775e-05
0.000342872
-7.51833e-05
0.000320733
-7.4901e-05
0.000294313
-7.40243e-05
0.000259838
-7.00719e-05
0.000218848
-6.51557e-05
-6.80487e-05
0.000173136
0.000451777
1.23052e-06
-0.00045043
0.000452457
-3.86845e-06
0.000452697
-8.83947e-06
0.000452105
-1.33566e-05
0.000450593
-1.75216e-05
0.000448217
-2.13792e-05
0.000445062
-2.49406e-05
0.000441211
-2.8222e-05
0.000436752
-3.12565e-05
0.000431781
-3.41024e-05
0.0004264
-3.68364e-05
0.000420707
-3.95466e-05
0.00041479
-4.23155e-05
0.000408708
-4.52055e-05
0.000402467
-4.8198e-05
0.00039579
-5.10302e-05
0.00038834
-5.36083e-05
0.000379761
-5.58578e-05
0.000369434
-5.72645e-05
0.00035657
-5.75646e-05
0.000340436
-5.67354e-05
0.000320628
-5.49896e-05
0.000297771
-5.29952e-05
0.000270452
-4.84561e-05
0.000234409
-3.91399e-05
0.000185003
-2.54951e-05
0.00012606
-1.5081e-05
6.88082e-05
-1.28201e-05
2.41547e-05
-2.05022e-05
-3.56288e-05
-8.26533e-06
0.000486356
-1.85468e-06
-0.000483271
0.000487097
-4.60891e-06
0.000485843
-7.58528e-06
0.000483032
-1.05456e-05
0.000478832
-1.33224e-05
0.00047331
-1.58566e-05
0.000466523
-1.8154e-05
0.000458536
-2.0235e-05
0.000449406
-2.21265e-05
0.00043916
-2.38561e-05
0.00042779
-2.54666e-05
0.000415245
-2.70014e-05
0.000401436
-2.85061e-05
0.000386238
-3.00082e-05
0.000369536
-3.14955e-05
0.000351465
-3.29596e-05
0.000332552
-3.46955e-05
0.000311654
-3.49595e-05
0.000287708
-3.33188e-05
0.000259444
-2.92998e-05
0.000225988
-2.32799e-05
0.000187512
-1.65137e-05
0.000144459
-9.94217e-06
0.000100499
-4.49591e-06
5.95239e-05
1.83508e-06
2.39605e-05
1.00682e-05
-6.06616e-06
1.49457e-05
-2.93552e-05
1.04689e-05
-4.76449e-05
-2.21249e-06
-1.66334e-05
-6.66402e-05
0.000467359
-0.000469213
0.00046275
0.000455164
0.000444619
0.000431296
0.00041544
0.000397286
0.000377051
0.000354924
0.000331068
0.000305602
0.0002786
0.000250094
0.000220086
0.00018859
0.000155631
0.000120935
8.59758e-05
5.2657e-05
2.33572e-05
7.73153e-08
-1.64364e-05
-2.63786e-05
-3.08745e-05
-2.90394e-05
-1.89712e-05
-4.02554e-06
6.44336e-06
4.23087e-06
-1.24025e-05
0.000391205
0.000369823
0.000347201
0.00032322
0.000298934
0.000274728
0.000250254
0.000225085
0.000198786
0.000171823
0.000142124
0.000113867
7.71017e-05
4.20461e-05
0.000462722
4.608e-06
0.000455137
7.58436e-06
0.000444593
1.05447e-05
0.000431271
1.33214e-05
0.000415416
1.58557e-05
0.000397262
1.81532e-05
0.000377028
2.02341e-05
0.000354903
2.21257e-05
0.000331047
2.38553e-05
0.000305582
2.54657e-05
0.000278581
2.70006e-05
0.000250076
2.85052e-05
0.000220069
3.00072e-05
0.000188574
3.14944e-05
0.000155616
3.29583e-05
0.000120922
3.46939e-05
8.59647e-05
3.49572e-05
5.26486e-05
3.3316e-05
2.3352e-05
2.92967e-05
7.496e-08
2.3277e-05
-1.64363e-05
1.65113e-05
-2.6377e-05
9.94065e-06
-3.08716e-05
4.4946e-06
-2.9034e-05
-1.8376e-06
-1.89626e-05
-1.00714e-05
-4.01475e-06
-1.49478e-05
6.45444e-06
-1.04692e-05
4.24175e-06
2.21269e-06
1.66309e-05
-1.23891e-05
0.000487071
3.86684e-06
0.000485818
8.83799e-06
0.000483007
1.33552e-05
0.000478808
1.75203e-05
0.000473286
2.13779e-05
0.0004665
2.49394e-05
0.000458513
2.82209e-05
0.000449384
3.12555e-05
0.000439137
3.41015e-05
0.000427768
3.68355e-05
0.000415222
3.95458e-05
0.000401413
4.23147e-05
0.000386215
4.52047e-05
0.000369513
4.81971e-05
0.000351442
5.1029e-05
0.000332529
5.36071e-05
0.00031163
5.58562e-05
0.000287683
5.72626e-05
0.000259418
5.75623e-05
0.000225962
5.67326e-05
0.000187487
5.49863e-05
0.000144437
5.29906e-05
0.000100482
4.84493e-05
5.95143e-05
3.91305e-05
2.39599e-05
2.5483e-05
-6.0592e-06
1.50713e-05
-2.93399e-05
1.28115e-05
-4.76224e-05
2.04952e-05
3.56277e-05
-6.66192e-05
0.000452437
3.18711e-06
0.000452677
8.59782e-06
0.000452086
1.39464e-05
0.000450573
1.90327e-05
0.000448198
2.37535e-05
0.000445043
2.80943e-05
0.000441193
3.20709e-05
0.000436734
3.57144e-05
0.000431762
3.90733e-05
0.000426381
4.22166e-05
0.000420688
4.52385e-05
0.000414772
4.82315e-05
0.000408689
5.12869e-05
0.000402448
5.44389e-05
0.00039577
5.77066e-05
0.000388318
6.10587e-05
0.000379739
6.44354e-05
0.00036941
6.75918e-05
0.000356545
7.04277e-05
0.00034041
7.28677e-05
0.0003206
7.47962e-05
0.000297741
7.5849e-05
0.000270419
7.57712e-05
0.000234372
7.51782e-05
0.00018496
7.48946e-05
0.000126017
7.40142e-05
6.87731e-05
7.00554e-05
2.41309e-05
6.51374e-05
6.80357e-05
-8.27708e-06
0.000424926
9.2933e-07
0.000425968
7.55609e-06
0.000426293
1.36211e-05
0.000426017
1.9309e-05
0.000425194
2.45763e-05
0.000423815
2.94732e-05
0.000421992
3.38936e-05
0.000419768
3.79386e-05
0.000417314
4.15276e-05
0.000414672
4.48581e-05
0.000412044
4.78665e-05
0.000409442
5.08338e-05
0.000407062
5.36672e-05
0.000404811
5.66896e-05
0.000402788
5.97293e-05
0.000400744
6.3103e-05
0.000398676
6.65031e-05
0.000396076
7.01916e-05
0.000392755
7.37494e-05
0.000388143
7.7479e-05
0.000381971
8.09686e-05
0.000373196
8.46236e-05
0.000360527
8.84407e-05
0.00034283
9.28755e-05
0.000320684
9.70408e-05
0.000294253
0.000100444
0.000259762
0.000104547
0.000218753
0.000106146
0.000113761
0.000173028
0.00040713
2.05009e-07
0.000407989
6.69755e-06
0.000408478
1.31312e-05
0.000408443
1.9344e-05
0.000407994
2.50256e-05
0.000407158
3.0309e-05
0.000406079
3.49727e-05
0.000404707
3.93107e-05
0.000403263
4.29715e-05
0.000401682
4.64398e-05
0.000400288
4.92597e-05
0.000398946
5.21761e-05
0.000398069
5.45441e-05
0.000397369
5.73902e-05
0.000397343
5.97547e-05
0.000397489
6.2957e-05
0.000398407
6.55851e-05
0.000399265
6.93335e-05
0.000400756
7.22589e-05
0.000401646
7.65891e-05
0.000402785
7.98291e-05
0.000402377
8.5032e-05
0.000401821
8.89963e-05
0.000399614
9.50829e-05
0.000397653
9.90016e-05
0.000393442
0.000104655
0.000390032
0.000107957
0.000384479
0.000111699
0.000113127
0.000385113
0.00039188
-1.10682e-06
0.000392731
5.84586e-06
0.000393339
1.25233e-05
0.000393716
1.89671e-05
0.000393831
2.49108e-05
0.000393621
3.05187e-05
0.00039318
3.5414e-05
0.000392503
3.9988e-05
0.00039176
4.37142e-05
0.000390921
4.72787e-05
0.000390254
4.99272e-05
0.000389665
5.27647e-05
0.000389535
5.46746e-05
0.000389633
5.72922e-05
0.000390482
5.89049e-05
0.000391617
6.1822e-05
0.000393759
6.34435e-05
0.000396064
6.7028e-05
0.000399585
6.87387e-05
0.000402934
7.32395e-05
0.000407737
7.50261e-05
0.000411988
8.07818e-05
0.000418686
8.22977e-05
0.000424743
8.90259e-05
0.000434798
8.89466e-05
0.000443507
9.59464e-05
0.000459081
9.23832e-05
0.000472336
9.84443e-05
8.86438e-05
0.000496819
0.000380326
-1.94332e-06
0.000381115
5.05756e-06
0.000381739
1.18986e-05
0.000382202
1.85049e-05
0.000382464
2.46482e-05
0.000382553
3.04299e-05
0.00038245
3.55168e-05
0.000382231
4.02068e-05
0.000381931
4.40149e-05
0.00038166
4.75498e-05
0.000381485
5.01016e-05
0.000381525
5.27244e-05
0.000381884
5.43162e-05
0.000382647
5.65289e-05
0.000383971
5.75814e-05
0.000385835
5.99575e-05
0.000388488
6.07906e-05
0.000391725
6.37907e-05
0.000396008
6.44557e-05
0.000400841
6.84073e-05
0.00040719
6.86768e-05
0.000414231
7.37409e-05
0.000423793
7.27359e-05
0.000434161
7.8657e-05
0.000448277
7.48309e-05
0.000463165
8.1059e-05
0.000483378
7.21699e-05
0.000503779
7.80431e-05
6.15333e-05
0.000530889
0.000370359
-2.5872e-06
0.000371036
4.38056e-06
0.000371654
1.12807e-05
0.000372221
1.79376e-05
0.00037265
2.42192e-05
0.000373005
3.00751e-05
0.000373209
3.53134e-05
0.000373392
4.0023e-05
0.000373495
4.39118e-05
0.000373717
4.73284e-05
0.000373979
4.98399e-05
0.000374549
5.21535e-05
0.000375315
5.35509e-05
0.000376617
5.52261e-05
0.000378278
5.59207e-05
0.000380699
5.75364e-05
0.000383627
5.78624e-05
0.00038754
5.98785e-05
0.000392111
5.9884e-05
0.000397967
6.25514e-05
0.000404777
6.18675e-05
0.000413383
6.5134e-05
0.000423313
6.28059e-05
0.000435628
6.63427e-05
0.00044956
6.08988e-05
0.000466361
6.42575e-05
0.000484615
5.39164e-05
0.00050567
5.69883e-05
3.99151e-05
0.000527288
0.000362034
-3.22379e-06
0.000362727
3.68805e-06
0.000363409
1.05988e-05
0.000364084
1.72619e-05
0.000364668
2.36357e-05
0.000365237
2.9506e-05
0.000365697
3.48534e-05
0.000366203
3.95175e-05
0.000366645
4.3469e-05
0.00036724
4.6734e-05
0.000367854
4.92252e-05
0.000368795
5.12125e-05
0.000369879
5.24671e-05
0.000371533
5.35726e-05
0.000373453
5.40008e-05
0.000376215
5.47745e-05
0.000379358
5.47188e-05
0.000383653
5.55841e-05
0.000388419
5.51177e-05
0.000394769
5.62013e-05
0.000401687
5.49492e-05
0.000410766
5.60549e-05
0.000420404
5.31682e-05
0.000432832
5.39152e-05
0.000445502
4.82285e-05
0.000461345
4.84145e-05
0.000476437
3.88239e-05
0.000494369
3.90565e-05
2.45719e-05
0.000509712
0.000355091
-3.80222e-06
0.000355759
3.01996e-06
0.000356466
9.89213e-06
0.000357195
1.65327e-05
0.000357895
2.29352e-05
0.000358627
2.87741e-05
0.000359304
3.41766e-05
0.000360073
3.87492e-05
0.000360787
4.27545e-05
0.00036166
4.5861e-05
0.000362541
4.83443e-05
0.000363732
5.00211e-05
0.000365062
5.11376e-05
0.000366941
5.16938e-05
0.000369076
5.18651e-05
0.000372056
5.17951e-05
0.000375395
5.13792e-05
0.000379878
5.11012e-05
0.000384807
5.0189e-05
0.00039125
4.97581e-05
0.000398158
4.80417e-05
0.000407009
4.72033e-05
0.000416179
4.39982e-05
0.000427655
4.24393e-05
0.000438893
3.69903e-05
0.000452497
3.48104e-05
0.000464633
2.66882e-05
0.000478721
2.49684e-05
1.36072e-05
0.000489686
0.000349118
-4.27411e-06
0.000349727
2.41054e-06
0.000350408
9.2118e-06