/*--------------------------------*- C++ -*----------------------------------*\
| =========                 |                                                 |
| \\      /  F ield         | OpenFOAM: The Open Source CFD Toolbox           |
|  \\    /   O peration     | Version:  2312                                  |
|   \\  /    A nd           | Website:  www.openfoam.com                      |
|    \\/     M anipulation  |                                                 |
\*---------------------------------------------------------------------------*/
FoamFile
{
    version     2.0;
    format      ascii;
    arch        "LSB;label=32;scalar=64";
    class       surfaceScalarField;
    location    "7000";
    object      phi;
}
// * * * * * * * * * * * * * * * * * * * * * * * * * * * * * * * * * * * * * //

dimensions      [0 3 -1 0 0 0 0];

oriented        oriented;

internalField   nonuniform List<scalar> 
5250
(
0.000469682
-4.28905e-06
0.000471661
-1.97894e-06
0.000472533
-8.71789e-07
0.000472797
-2.64309e-07
0.000472434
3.63131e-07
0.000471175
1.2585e-06
0.000469081
2.09459e-06
0.000466781
2.2997e-06
0.000465167
1.61448e-06
0.000464702
4.64544e-07
0.000464992
-2.89527e-07
0.000464923
6.80972e-08
0.00046355
1.37339e-06
0.000460532
3.01809e-06
0.000456369
4.1629e-06
0.000452137
4.23164e-06
0.000448802
3.33579e-06
0.000446844
1.95727e-06
0.000446278
5.66237e-07
0.000446744
-4.6555e-07
0.000447809
-1.06578e-06
0.000449101
-1.29183e-06
0.000450342
-1.24104e-06
0.000451377
-1.03429e-06
0.00045215
-7.73253e-07
0.000452675
-5.24803e-07
0.000452997
-3.2251e-07
0.000453172
-1.74735e-07
0.000453249
-7.67521e-08
0.000453266
-1.69009e-08
0.00045325
1.53973e-08
0.00045322
2.98769e-08
0.000453186
3.41244e-08
0.000453153
3.29443e-08
0.000453124
2.92872e-08
0.000453099
2.48213e-08
0.000453079
2.04138e-08
0.000453062
1.64592e-08
0.000453049
1.30912e-08
0.000453039
1.03115e-08
0.000453031
8.06224e-09
0.000453025
6.26492e-09
0.00045302
4.83991e-09
0.000453016
3.71521e-09
0.000453013
2.82953e-09
0.000453011
2.13246e-09
0.000453009
1.5835e-09
0.000453008
1.15059e-09
0.000453007
8.08663e-10
0.000453007
5.38346e-10
0.000453007
3.25061e-10
0.000453006
1.58613e-10
0.000453006
3.47512e-11
0.000453006
-8.0443e-11
0.000453007
-1.87651e-10
0.000453007
-2.632e-10
0.000453007
-3.18973e-10
0.000453008
-3.60393e-10
0.000453008
-3.90446e-10
0.000453008
-4.114e-10
0.000453009
-4.24825e-10
0.000453009
-4.32004e-10
0.00045301
-4.34017e-10
0.00045301
-4.31666e-10
0.000453011
-4.25926e-10
0.000453011
-4.17169e-10
0.000453011
-4.06377e-10
0.000453012
-3.9368e-10
0.000453012
-3.7978e-10
0.000453013
-3.65059e-10
0.000453013
-3.49458e-10
0.000453013
-3.33929e-10
0.000453014
-3.17941e-10
0.000453014
-3.02068e-10
0.000453014
-2.86759e-10
0.000453014
-2.71142e-10
0.000453015
-2.56369e-10
0.000453015
-2.42369e-10
0.000453015
-2.27592e-10
0.000453015
-2.15284e-10
0.000453016
-2.02093e-10
0.000453016
-1.89224e-10
0.000453016
-1.79515e-10
0.000453016
-1.6667e-10
0.000453016
-1.56369e-10
0.000453016
-1.48916e-10
0.000453017
-1.36288e-10
0.000453017
-1.27784e-10
0.000453017
-1.23388e-10
-1.11144e-10
0.000665704
-9.40635e-07
0.000663437
2.88045e-07
0.00066194
6.25362e-07
0.000660765
9.0996e-07
0.000659792
1.33647e-06
0.00065922
1.83088e-06
0.00065894
2.37387e-06
0.00065826
2.9796e-06
0.000656458
3.41669e-06
0.000653616
3.30661e-06
0.000650911
2.41587e-06
0.00064975
1.22879e-06
0.000650679
4.44224e-07
0.000653327
3.70246e-07
0.000656784
7.0598e-07
0.000660063
9.52325e-07
0.000662491
9.08073e-07
0.000663909
5.39689e-07
0.000664443
3.24124e-08
0.000664505
-5.28035e-07
0.000664297
-8.57754e-07
0.000663945
-9.39665e-07
0.000663522
-8.18331e-07
0.000663067
-5.7879e-07
0.000662599
-3.05657e-07
0.000662132
-5.77485e-08
0.000661685
1.24411e-07
0.000661261
2.49678e-07
0.000660868
3.16202e-07
0.000660512
3.38957e-07
0.000660195
3.32655e-07
0.000659915
3.09533e-07
0.000659671
2.78463e-07
0.000659458
2.45143e-07
0.000659275
2.12883e-07
0.000659116
1.83357e-07
0.000658979
1.57216e-07
0.000658861
1.34533e-07
0.000658759
1.15087e-07
0.000658671
9.85278e-08
0.000658595
8.4474e-08
0.000658528
7.25585e-08
0.000658471
6.24509e-08
0.000658421
5.38644e-08
0.000658377
4.65552e-08
0.000658339
4.03188e-08
0.000658305
3.49849e-08
0.000658276
3.04121e-08
0.00065825
2.6483e-08
0.000658228
2.31e-08
0.000658208
2.01818e-08
0.00065819
1.766e-08
0.000658175
1.54766e-08
0.000658161
1.35808e-08
0.000658149
1.19326e-08
0.000658139
1.04998e-08
0.000658129
9.25261e-09
0.00065812
8.16476e-09
0.000658113
7.21369e-09
0.000658106
6.38008e-09
0.0006581
5.64754e-09
0.000658095
5.00232e-09
0.00065809
4.43275e-09
0.000658085
3.92924e-09
0.000658081
3.48332e-09
0.000658078
3.08825e-09
0.000658075
2.73766e-09
0.000658072
2.42659e-09
0.000658069
2.15042e-09
0.000658067
1.90489e-09
0.000658065
1.68721e-09
0.000658063
1.49332e-09
0.000658062
1.32137e-09
0.00065806
1.16874e-09
0.000658059
1.03252e-09
0.000658058
9.12331e-10
0.000658057
8.05272e-10
0.000658056
7.09513e-10
0.000658055
6.26154e-10
0.000658054
5.50636e-10
0.000658053
4.83794e-10
0.000658053
4.26334e-10
0.000658052
3.72758e-10
0.000658052
3.26806e-10
0.000658051
2.87162e-10
0.000658051
2.49076e-10
0.00065805
2.17922e-10
0.00065805
1.90748e-10
0.00065805
1.62419e-10
1.42376e-10
0.000705594
2.60015e-06
0.000703075
2.80631e-06
0.000701038
2.66327e-06
0.000699359
2.58812e-06
0.000697806
2.88987e-06
0.000696186
3.45093e-06
0.000694629
3.93036e-06
0.000693531
4.0782e-06
0.000693152
3.79564e-06
0.000693378
3.08056e-06
0.000693659
2.13503e-06
0.000693582
1.30557e-06
0.000693206
8.20066e-07
0.000692843
7.33311e-07
0.00069261
9.39495e-07
0.000692359
1.20327e-06
0.000691944
1.32319e-06
0.000691232
1.25082e-06
0.00069023
1.03471e-06
0.000688934
7.68387e-07
0.000687541
5.35271e-07
0.000686223
3.77948e-07
0.000685102
3.02249e-07
0.000684234
2.8929e-07
0.000683619
3.09624e-07
0.000683224
3.37529e-07
0.000682986
3.62571e-07
0.000682858
3.77513e-07
0.000682795
3.78849e-07
0.000682766
3.68113e-07
0.00068275
3.48574e-07
0.000682736
3.23723e-07
0.000682718
2.96461e-07
0.000682694
2.68849e-07
0.000682665
2.42205e-07
0.000682631
2.17275e-07
0.000682594
1.94409e-07
0.000682555
1.73702e-07
0.000682515
1.55103e-07
0.000682475
1.3848e-07
0.000682435
1.23666e-07
0.000682398
1.10485e-07
0.000682361
9.87604e-08
0.000682327
8.83311e-08
0.000682294
7.90484e-08
0.000682264
7.07794e-08
0.000682235
6.3406e-08
0.000682209
5.6824e-08
0.000682184
5.09418e-08
0.000682162
4.56789e-08
0.000682141
4.09647e-08
0.000682122
3.67374e-08
0.000682105
3.29432e-08
0.000682089
2.95355e-08
0.000682074
2.64741e-08
0.000682061
2.37242e-08
0.000682049
2.12553e-08
0.000682038
1.90396e-08
0.000682028
1.70521e-08
0.000682019
1.52702e-08
0.000682011
1.36731e-08
0.000682004
1.22422e-08
0.000681997
1.09602e-08
0.000681992
9.81195e-09
0.000681986
8.78343e-09
0.000681982
7.86228e-09
0.000681977
7.03721e-09
0.000681973
6.29823e-09
0.00068197
5.63638e-09
0.000681967
5.04348e-09
0.000681964
4.51259e-09
0.000681961
4.03688e-09
0.000681959
3.61096e-09
0.000681957
3.22944e-09
0.000681955
2.88763e-09
0.000681953
2.58175e-09
0.000681952
2.30763e-09
0.000681951
2.06218e-09
0.000681949
1.84261e-09
0.000681948
1.64581e-09
0.000681947
1.46965e-09
0.000681946
1.3123e-09
0.000681946
1.17109e-09
0.000681945
1.04478e-09
0.000681944
9.32294e-10
0.000681944
8.31026e-10
0.000681943
7.40529e-10
0.000681943
6.60407e-10
0.000681942
5.87581e-10
5.22994e-10
0.000715685
6.71616e-06
0.000712248
6.24267e-06
0.000709058
5.85334e-06
0.000705959
5.68793e-06
0.000703079
5.7695e-06
0.00070065
5.87997e-06
0.000698822
5.75812e-06
0.000697597
5.30386e-06
0.000696805
4.58729e-06
0.000696132
3.75391e-06
0.000695338
2.92882e-06
0.000694404
2.23942e-06
0.000693431
1.79286e-06
0.000692564
1.6005e-06
0.000691915
1.58819e-06
0.000691474
1.64416e-06
0.000691132
1.66582e-06
0.000690767
1.61581e-06
0.000690307
1.49433e-06
0.000689752
1.32328e-06
0.000689145
1.14243e-06
0.000688539
9.83679e-07
0.000687979
8.62162e-07
0.000687491
7.77652e-07
0.00068708
7.21065e-07
0.000686735
6.82275e-07
0.000686445
6.52263e-07
0.000686198
6.24455e-07
0.000685982
5.94928e-07
0.000685788
5.62201e-07
0.00068561
5.26427e-07
0.000685445
4.8858e-07
0.000685292
4.49876e-07
0.000685149
4.11455e-07
0.000685017
3.74229e-07
0.000684896
3.38852e-07
0.000684784
3.05735e-07
0.000684683
2.75093e-07
0.000684591
2.46997e-07
0.000684508
2.21413e-07
0.000684434
1.9824e-07
0.000684367
1.77337e-07
0.000684307
1.58539e-07
0.000684254
1.41673e-07
0.000684206
1.26569e-07
0.000684164
1.1306e-07
0.000684126
1.00989e-07
0.000684093
9.0212e-08
0.000684063
8.05953e-08
0.000684037
7.20184e-08
0.000684013
6.43725e-08
0.000683993
5.75596e-08
0.000683974
5.14909e-08
0.000683957
4.60853e-08
0.000683943
4.12686e-08
0.000683929
3.69737e-08
0.000683918
3.31402e-08
0.000683907
2.97139e-08
0.000683897
2.6648e-08
0.000683889
2.39025e-08
0.000683881
2.14425e-08
0.000683874
1.92374e-08
0.000683868
1.72599e-08
0.000683862
1.54862e-08
0.000683857
1.38949e-08
0.000683852
1.24671e-08
0.000683848
1.11857e-08
0.000683844
1.00357e-08
0.000683841
9.00351e-09
0.000683838
8.07695e-09
0.000683835
7.24531e-09
0.000683833
6.49871e-09
0.000683831
5.82857e-09
0.000683829
5.22705e-09
0.000683827
4.68701e-09
0.000683825
4.20243e-09
0.000683824
3.76734e-09
0.000683822
3.37694e-09
0.000683821
3.02657e-09
0.00068382
2.7121e-09
0.000683819
2.43001e-09
0.000683818
2.17682e-09
0.000683817
1.94979e-09
0.000683817
1.74603e-09
0.000683816
1.56329e-09
0.000683816
1.39958e-09
0.000683815
1.25247e-09
0.000683815
1.12077e-09
0.000683814
1.00289e-09
8.96876e-10
0.000713981
1.04477e-05
0.000710545
9.67835e-06
0.000707277
9.1211e-06
0.000704307
8.65827e-06
0.000701892
8.18431e-06
0.00070017
7.60259e-06
0.000699055
6.87259e-06
0.000698343
6.01556e-06
0.000697814
5.11701e-06
0.000697274
4.29396e-06
0.00069656
3.64209e-06
0.00069561
3.19031e-06
0.000694487
2.91492e-06
0.000693321
2.76682e-06
0.000692222
2.68774e-06
0.000691246
2.61969e-06
0.000690392
2.52001e-06
0.000689636
2.37211e-06
0.000688948
2.18184e-06
0.000688304
1.96742e-06
0.000687696
1.75023e-06
0.000687132
1.54733e-06
0.000686626
1.36841e-06
0.000686188
1.21614e-06
0.00068582
1.08841e-06
0.000685522
9.80991e-07
0.000685285
8.89356e-07
0.0006851
8.0952e-07
0.000684956
7.38402e-07
0.000684844
6.73898e-07
0.000684756
6.14699e-07
0.000684685
5.60049e-07
0.000684625
5.09517e-07
0.000684574
4.62844e-07
0.000684528
4.19845e-07
0.000684486
3.80353e-07
0.000684448
3.44196e-07
0.000684412
3.1119e-07
0.000684378
2.81139e-07
0.000684345
2.53837e-07
0.000684314
2.29077e-07
0.000684285
2.06655e-07
0.000684257
1.86374e-07
0.000684231
1.68044e-07
0.000684206
1.51487e-07
0.000684183
1.36537e-07
0.000684161
1.2304e-07
0.00068414
1.10855e-07
0.000684121
9.98542e-08
0.000684103
8.99211e-08
0.000684086
8.09529e-08
0.000684071
7.28578e-08
0.000684057
6.5554e-08
0.000684044
5.89677e-08
0.000684032
5.30317e-08
0.000684021
4.76848e-08
0.000684012
4.28709e-08
0.000684003
3.85384e-08
0.000683995
3.46402e-08
0.000683988
3.11338e-08
0.000683981
2.79802e-08
0.000683975
2.51444e-08
0.00068397
2.25947e-08
0.000683965
2.03024e-08
0.000683961
1.82416e-08
0.000683957
1.6389e-08
0.000683953
1.47237e-08
0.00068395
1.32267e-08
0.000683947
1.18813e-08
0.000683945
1.06719e-08
0.000683942
9.58488e-09
0.00068394
8.60792e-09
0.000683938
7.7299e-09
0.000683937
6.94086e-09
0.000683935
6.2317e-09
0.000683934
5.59457e-09
0.000683932
5.02194e-09
0.000683931
4.50752e-09
0.00068393
4.04533e-09
0.000683929
3.63001e-09
0.000683928
3.25709e-09
0.000683928
2.92196e-09
0.000683927
2.62103e-09
0.000683926
2.35084e-09
0.000683926
2.10805e-09
0.000683925
1.89025e-09
0.000683925
1.69462e-09
0.000683925
1.51893e-09
0.000683924
1.3615e-09
1.22003e-09
0.00070971
1.38763e-05
0.000706541
1.28477e-05
0.000703726
1.19362e-05
0.000701399
1.09852e-05
0.000699621
9.96191e-06
0.000698317
8.90675e-06
0.000697321
7.86894e-06
0.000696436
6.89996e-06
0.000695501
6.05199e-06
0.000694439
5.3563e-06
0.000693272
4.8095e-06
0.000692081
4.38155e-06
0.000690958
4.03773e-06
0.000689974
3.75022e-06
0.000689166
3.4957e-06
0.000688533
3.25258e-06
0.000688048
3.00569e-06
0.000687669
2.75111e-06
0.000687357
2.49398e-06
0.000687081
2.24308e-06
0.000686824
2.00696e-06
0.00068658
1.79199e-06
0.000686347
1.60143e-06
0.000686127
1.43539e-06
0.000685924
1.29178e-06
0.000685738
1.16741e-06
0.000685568
1.05888e-06
0.000685414
9.63118e-07
0.000685275
8.77559e-07
0.000685149
8.00253e-07
0.000685034
7.29785e-07
0.000684929
6.65161e-07
0.000684832
6.05693e-07
0.000684744
5.50898e-07
0.000684664
5.00417e-07
0.00068459
4.53968e-07
0.000684523
4.11305e-07
0.000684462
3.72203e-07
0.000684407
3.36445e-07
0.000684357
3.03816e-07
0.000684312
2.74105e-07
0.000684271
2.47104e-07
0.000684235
2.22608e-07
0.000684203
2.00423e-07
0.000684174
1.8036e-07
0.000684148
1.62241e-07
0.000684125
1.45901e-07
0.000684105
1.31183e-07
0.000684087
1.17941e-07
0.000684071
1.06037e-07
0.000684056
9.53405e-08
0.000684044
8.57314e-08
0.000684032
7.70986e-08
0.000684022
6.9341e-08
0.000684012
6.23667e-08
0.000684004
5.60948e-08
0.000683996
5.04537e-08
0.000683989
4.53792e-08
0.000683983
4.08141e-08
0.000683978
3.67071e-08
0.000683973
3.30121e-08
0.000683968
2.96878e-08
0.000683964
2.66969e-08
0.00068396
2.40061e-08
0.000683957
2.15853e-08
0.000683954
1.94074e-08
0.000683951
1.74482e-08
0.000683949
1.56858e-08
0.000683947
1.41004e-08
0.000683945
1.26743e-08
0.000683943
1.13917e-08
0.000683941
1.0238e-08
0.00068394
9.20036e-09
0.000683938
8.26723e-09
0.000683937
7.42803e-09
0.000683936
6.67348e-09
0.000683935
5.99491e-09
0.000683934
5.38487e-09
0.000683933
4.83641e-09
0.000683933
4.34327e-09
0.000683932
3.90011e-09
0.000683931
3.50166e-09
0.000683931
3.14359e-09
0.00068393
2.82187e-09
0.00068393
2.53263e-09
0.00068393
2.27288e-09
0.000683929
2.0395e-09
0.000683929
1.82972e-09
0.000683929
1.6415e-09
1.4724e-09
0.000703358
1.68057e-05
0.000700863
1.53421e-05
0.000698866
1.39334e-05
0.000697325
1.25264e-05
0.000696135
1.11524e-05
0.000695169
9.8727e-06
0.000694294
8.74331e-06
0.000693411
7.78305e-06
0.000692486
6.97752e-06
0.000691539
6.30265e-06
0.000690616
5.73302e-06
0.000689756
5.24131e-06
0.000688989
4.80482e-06
0.000688329
4.4105e-06
0.000687775
4.04969e-06
0.000687315
3.71267e-06
0.000686929
3.3911e-06
0.000686598
3.08213e-06
0.000686305
2.78766e-06
0.000686036
2.51115e-06
0.000685788
2.25561e-06
0.000685557
2.02298e-06
0.000685344
1.81388e-06
0.000685152
1.62754e-06
0.000684982
1.46219e-06
0.000684834
1.31559e-06
0.000684707
1.18542e-06
0.000684601
1.06949e-06
0.000684512
9.65896e-07
0.00068444
8.7301e-07
0.00068438
7.89468e-07
0.000684331
7.14143e-07
0.000684291
6.46097e-07
0.000684257
5.84543e-07
0.000684229
5.28813e-07
0.000684204
4.78331e-07
0.000684183
4.3259e-07
0.000684164
3.91146e-07
0.000684147
3.53598e-07
0.000684131
3.19587e-07
0.000684116
2.88785e-07
0.000684103
2.60895e-07
0.000684089
2.35646e-07
0.000684077
2.1279e-07
0.000684065
1.92101e-07
0.000684054
1.73376e-07
0.000684044
1.56431e-07
0.000684034
1.41101e-07
0.000684025
1.27236e-07
0.000684016
1.14703e-07
0.000684008
1.03378e-07
0.000684
9.31504e-08
0.000683994
8.39181e-08
0.000683987
7.55876e-08
0.000683982
6.80734e-08
0.000683976
6.12976e-08
0.000683972
5.51893e-08
0.000683967
4.96839e-08
0.000683963
4.47231e-08
0.00068396
4.02536e-08
0.000683957
3.62275e-08
0.000683954
3.26012e-08
0.000683951
2.93354e-08
0.000683949
2.63946e-08
0.000683947
2.37467e-08
0.000683945
2.13627e-08
0.000683943
1.92166e-08
0.000683941
1.72846e-08
0.00068394
1.55457e-08
0.000683939
1.39805e-08
0.000683937
1.2572e-08
0.000683936
1.13043e-08
0.000683935
1.01636e-08
0.000683934
9.13723e-09
0.000683934
8.21372e-09
0.000683933
7.38291e-09
0.000683932
6.63546e-09
0.000683932
5.96313e-09
0.000683931
5.35839e-09
0.000683931
4.81444e-09
0.00068393
4.32533e-09
0.00068393
3.88543e-09
0.00068393
3.48989e-09
0.000683929
3.13433e-09
0.000683929
2.81458e-09
0.000683929
2.52723e-09
0.000683929
2.26896e-09
0.000683928
2.03675e-09
0.000683928
1.82821e-09
1.64082e-09
0.000695946
1.8734e-05
0.00069443
1.68579e-05
0.000693275
1.50881e-05
0.000692361
1.34407e-05
0.000691561
1.19522e-05
0.000690785
1.06493e-05
0.000689996
9.53242e-06
0.000689201
8.57764e-06
0.000688428
7.75101e-06
0.000687705
7.02488e-06
0.000687059
6.37914e-06
0.000686504
5.7964e-06
0.000686045
5.26429e-06
0.000685677
4.77788e-06
0.000685393
4.33433e-06
0.000685177
3.92795e-06
0.000685016
3.55243e-06
0.000684894
3.20443e-06
0.000684798
2.88352e-06
0.000684719
2.59007e-06
0.000684651
2.32403e-06
0.000684589
2.08474e-06
0.000684532
1.87095e-06
0.000684479
1.68073e-06
0.000684429
1.51177e-06
0.000684383
1.36161e-06
0.00068434
1.22791e-06
0.000684301
1.10856e-06
0.000684266
1.00171e-06
0.000684233
9.05793e-07
0.000684203
8.19452e-07
0.000684175
7.41555e-07
0.00068415
6.71143e-07
0.000684127
6.07401e-07
0.000684107
5.49633e-07
0.000684088
4.9724e-07
0.000684071
4.49702e-07
0.000684055
4.06562e-07
0.000684041
3.67418e-07
0.000684029
3.3191e-07
0.000684018
2.99719e-07
0.000684009
2.70553e-07
0.000684
2.44149e-07
0.000683993
2.20264e-07
0.000683986
1.98674e-07
0.00068398
1.79171e-07
0.000683975
1.6156e-07
0.00068397
1.45663e-07
0.000683966
1.31317e-07
0.000683963
1.1837e-07
0.000683959
1.06687e-07
0.000683956
9.61453e-08
0.000683954
8.66353e-08
0.000683951
7.80571e-08
0.000683949
7.03207e-08
0.000683947
6.33444e-08
0.000683945
5.70543e-08
0.000683943
5.13837e-08
0.000683942
4.62722e-08
0.00068394
4.16653e-08
0.000683939
3.75135e-08
0.000683938
3.37724e-08
0.000683937
3.04017e-08
0.000683936
2.73649e-08
0.000683935
2.46294e-08
0.000683934
2.21653e-08
0.000683933
1.99461e-08
0.000683933
1.79475e-08
0.000683932
1.61477e-08
0.000683932
1.45272e-08
0.000683931
1.30681e-08
0.000683931
1.17546e-08
0.00068393
1.05721e-08
0.00068393
9.50766e-09
0.00068393
8.5496e-09
0.000683929
7.68739e-09
0.000683929
6.91142e-09
0.000683929
6.21319e-09
0.000683929
5.58494e-09
0.000683928
5.01967e-09
0.000683928
4.5112e-09
0.000683928
4.05375e-09
0.000683928
3.64232e-09
0.000683928
3.27231e-09
0.000683928
2.93951e-09
0.000683927
2.6403e-09
0.000683927
2.37128e-09
0.000683927
2.12938e-09
0.000683927
1.91201e-09
1.7166e-09
0.000687607
1.96363e-05
0.000686953
1.75119e-05
0.000686454
1.55868e-05
0.000686018
1.38768e-05
0.000685589
1.23811e-05
0.000685159
1.10793e-05
0.000684748
9.94376e-06
0.000684381
8.94465e-06
0.000684076
8.05584e-06
0.00068384
7.26074e-06
0.000683671
6.54868e-06
0.000683559
5.90839e-06
0.000683493
5.32981e-06
0.000683464
4.80753e-06
0.00068346
4.33753e-06
0.000683475
3.91334e-06
0.0006835
3.52769e-06
0.000683528
3.17572e-06
0.000683557
2.85517e-06
0.000683582
2.56466e-06
0.000683604
2.30263e-06
0.000683621
2.06732e-06
0.000683635
1.85673e-06
0.000683647
1.66868e-06
0.000683658
1.50081e-06
0.000683669
1.35085e-06
0.00068368
1.21672e-06
0.000683692
1.09658e-06
0.000683705
9.88808e-07
0.000683719
8.9202e-07
0.000683733
8.04999e-07
0.000683748
7.26684e-07
0.000683763
6.56147e-07
0.000683778
5.92571e-07
0.000683792
5.35232e-07
0.000683806
4.83491e-07
0.000683819
4.36779e-07
0.000683831
3.94587e-07
0.000683842
3.56464e-07
0.000683852
3.22006e-07
0.000683861
2.90852e-07
0.000683869
2.62679e-07
0.000683876
2.37201e-07
0.000683882
2.14159e-07
0.000683887
1.93322e-07
0.000683892
1.74481e-07
0.000683896
1.5745e-07
0.000683899
1.42056e-07
0.000683903
1.28147e-07
0.000683905
1.1558e-07
0.000683908
1.0423e-07
0.00068391
9.39802e-08
0.000683912
8.47261e-08
0.000683914
7.63727e-08
0.000683915
6.88337e-08
0.000683916
6.20311e-08
0.000683918
5.5894e-08
0.000683919
5.03582e-08
0.000683919
4.53656e-08
0.00068392
4.08635e-08
0.000683921
3.68043e-08
0.000683922
3.31449e-08
0.000683922
2.98464e-08
0.000683923
2.68734e-08
0.000683923
2.41943e-08
0.000683923
2.17801e-08
0.000683924
1.9605e-08
0.000683924
1.76454e-08
0.000683924
1.58802e-08
0.000683925
1.42903e-08
0.000683925
1.28583e-08
0.000683925
1.15687e-08
0.000683925
1.04074e-08
0.000683925
9.36185e-09
0.000683925
8.42047e-09
0.000683926
7.57303e-09
0.000683926
6.81016e-09
0.000683926
6.12354e-09
0.000683926
5.50557e-09
0.000683926
4.94944e-09
0.000683926
4.44904e-09
0.000683926
3.99877e-09
0.000683926
3.5937e-09
0.000683926
3.22931e-09
0.000683926
2.90152e-09
0.000683926
2.60674e-09
0.000683926
2.34162e-09
0.000683926
2.10321e-09
0.000683926
1.88888e-09
1.69617e-09
0.000678092
1.94923e-05
0.000678313
1.72905e-05
0.000678549
1.53508e-05
0.000678769
1.36568e-05
0.000678973
1.21775e-05
0.000679174
1.08783e-05
0.000679385
9.73256e-06
0.000679611
8.71851e-06
0.000679851
7.81605e-06
0.0006801
7.01132e-06
0.000680354
6.2949e-06
0.000680607
5.65552e-06
0.000680855
5.08175e-06
0.000681096
4.56651e-06
0.000681328
4.10501e-06
0.000681551
3.69104e-06
0.000681761
3.31762e-06
0.000681957
2.97917e-06
0.00068214
2.67288e-06
0.000682307
2.39695e-06
0.000682461
2.14934e-06
0.0006826
1.92788e-06
0.000682727
1.73029e-06
0.000682841
1.55423e-06
0.000682944
1.39733e-06
0.000683038
1.25732e-06
0.000683123
1.13218e-06
0.000683199
1.02016e-06
0.000683268
9.19706e-07
0.000683331
8.29513e-07
0.000683387
7.4843e-07
0.000683438
6.75464e-07
0.000683485
6.09744e-07
0.000683527
5.50506e-07
0.000683565
4.97078e-07
0.0006836
4.48867e-07
0.000683631
4.05346e-07
0.00068366
3.66046e-07
0.000683686
3.3055e-07
0.000683709
2.98485e-07
0.00068373
2.69516e-07
0.00068375
2.43341e-07
0.000683767
2.19687e-07
0.000683783
1.98311e-07
0.000683797
1.78995e-07
0.00068381
1.6154e-07
0.000683822
1.45769e-07
0.000683833
1.31522e-07
0.000683842
1.18652e-07
0.000683851
1.07029e-07
0.000683858
9.65315e-08
0.000683865
8.7053e-08
0.000683871
7.84956e-08
0.000683877
7.07707e-08
0.000683882
6.37983e-08
0.000683887
5.75061e-08
0.000683891
5.18284e-08
0.000683894
4.6706e-08
0.000683898
4.20851e-08
0.000683901
3.79172e-08
0.000683903
3.41584e-08
0.000683906
3.07689e-08
0.000683908
2.77129e-08
0.00068391
2.49578e-08
0.000683911
2.24743e-08
0.000683913
2.02359e-08
0.000683914
1.82185e-08
0.000683916
1.64007e-08
0.000683917
1.47627e-08
0.000683918
1.3287e-08
0.000683919
1.19576e-08
0.000683919
1.07602e-08
0.00068392
9.68163e-09
0.000683921
8.71031e-09
0.000683921
7.83564e-09
0.000683922
7.04806e-09
0.000683922
6.33899e-09
0.000683923
5.70064e-09
0.000683923
5.12602e-09
0.000683923
4.60883e-09
0.000683924
4.14335e-09
0.000683924
3.72449e-09
0.000683924
3.34758e-09
0.000683925
3.00846e-09
0.000683925
2.70343e-09
0.000683925
2.42899e-09
0.000683925
2.18217e-09
0.000683925
1.96026e-09
0.000683925
1.76061e-09
1.58113e-09
0.000667854
1.81661e-05
0.000669108
1.60368e-05
0.000670275
1.4184e-05
0.000671359
1.25732e-05
0.000672369
1.11673e-05
0.000673313
9.93392e-06
0.000674196
8.84959e-06
0.000675021
7.89397e-06
0.000675789
7.04724e-06
0.000676505
6.296e-06
0.000677168
5.63137e-06
0.000677782
5.04213e-06
0.000678347
4.51631e-06
0.000678867
4.0462e-06
0.000679346
3.62692e-06
0.000679784
3.25255e-06
0.000680185
2.91651e-06
0.00068055
2.61389e-06
0.000680881
2.34183e-06
0.00068118
2.09809e-06
0.000681449
1.88033e-06
0.000681691
1.68614e-06
0.000681908
1.51318e-06
0.000682103
1.35917e-06
0.000682279
1.22191e-06
0.000682437
1.09936e-06
0.000682579
9.89748e-07
0.000682708
8.91537e-07
0.000682824
8.03415e-07
0.000682929
7.24257e-07
0.000683025
6.53086e-07
0.000683111
5.89052e-07
0.000683189
5.31406e-07
0.00068326
4.79486e-07
0.000683325
4.32704e-07
0.000683383
3.90533e-07
0.000683436
3.52506e-07
0.000683484
3.18204e-07
0.000683527
2.87253e-07
0.000683566
2.59319e-07
0.000683602
2.34101e-07
0.000683634
2.11332e-07
0.000683663
1.90769e-07
0.000683689
1.72198e-07
0.000683712
1.55423e-07
0.000683733
1.40271e-07
0.000683753
1.26584e-07
0.00068377
1.14221e-07
0.000683786
1.03055e-07
0.0006838
9.29702e-08
0.000683812
8.38628e-08
0.000683824
7.5639e-08
0.000683834
6.82136e-08
0.000683843
6.15101e-08
0.000683852
5.54588e-08
0.000683859
4.9997e-08
0.000683866
4.50679e-08
0.000683872
4.06201e-08
0.000683877
3.66071e-08
0.000683882
3.29868e-08
0.000683887
2.97212e-08
0.000683891
2.6776e-08
0.000683894
2.41199e-08
0.000683898
2.1725e-08
0.0006839
1.95658e-08
0.000683903
1.76192e-08
0.000683905
1.58647e-08
0.000683908
1.42833e-08
0.000683909
1.28582e-08
0.000683911
1.1574e-08
0.000683913
1.0417e-08
0.000683914
9.37464e-09
0.000683915
8.43565e-09
0.000683916
7.5899e-09
0.000683918
6.8282e-09
0.000683918
6.14222e-09
0.000683919
5.5246e-09
0.00068392
4.96844e-09
0.000683921
4.46782e-09
0.000683921
4.01718e-09
0.000683922
3.61148e-09
0.000683922
3.24651e-09
0.000683923
2.91796e-09
0.000683923
2.62236e-09
0.000683923
2.35653e-09
0.000683924
2.11721e-09
0.000683924
1.90207e-09
0.000683924
1.70867e-09
0.000683924
1.53452e-09
1.37814e-09
0.000657678
1.54784e-05
0.000660136
1.35791e-05
0.000662377
1.19428e-05
0.000664418
1.05317e-05
0.000666276
9.30943e-06
0.000667965
8.24488e-06
0.0006695
7.31524e-06
0.000670893
6.50073e-06
0.000672157
5.78298e-06
0.000673303
5.14992e-06
0.000674341
4.59333e-06
0.000675281
4.10263e-06
0.00067613
3.66657e-06
0.000676899
3.27792e-06
0.000677593
2.93232e-06
0.000678221
2.6248e-06
0.000678788
2.34981e-06
0.000679298
2.10319e-06
0.000679758
1.88231e-06
0.000680171
1.68506e-06
0.000680542
1.50928e-06
0.000680875
1.3528e-06
0.000681175
1.21361e-06
0.000681444
1.08977e-06
0.000681687
9.79456e-07
0.000681905
8.8101e-07
0.000682102
7.92977e-07
0.000682279
7.14118e-07
0.000682439
6.43373e-07
0.000682584
5.79833e-07
0.000682714
5.22714e-07
0.000682832
4.71333e-07
0.000682938
4.2509e-07
0.000683034
3.8345e-07
0.000683121
3.45942e-07
0.000683199
3.12143e-07
0.00068327
2.81677e-07
0.000683334
2.54205e-07
0.000683392
2.29428e-07
0.000683444
2.07074e-07
0.000683492
1.86903e-07
0.000683534
1.68697e-07
0.000683573
1.52262e-07
0.000683607
1.37424e-07
0.000683639
1.24026e-07
0.000683667
1.11928e-07
0.000683693
1.01003e-07
0.000683716
9.11374e-08
0.000683737
8.22281e-08
0.000683755
7.41829e-08
0.000683772
6.69181e-08
0.000683788
6.03585e-08
0.000683801
5.44362e-08
0.000683814
4.90895e-08
0.000683825
4.42631e-08
0.000683835
3.99066e-08
0.000683844
3.59749e-08
0.000683852
3.24268e-08
0.00068386
2.92253e-08
0.000683866
2.63369e-08
0.000683872
2.37312e-08
0.000683878
2.13808e-08
0.000683883
1.92611e-08
0.000683887
1.73495e-08
0.000683891
1.56258e-08
0.000683895
1.40718e-08
0.000683898
1.26709e-08
0.000683901
1.14081e-08
0.000683903
1.027e-08
0.000683906
9.24439e-09
0.000683908
8.32024e-09
0.00068391
7.48759e-09
0.000683911
6.73745e-09
0.000683913
6.06179e-09
0.000683914
5.45316e-09
0.000683915
4.90511e-09
0.000683917
4.41156e-09
0.000683918
3.96712e-09
0.000683918
3.56715e-09
0.000683919
3.20689e-09
0.00068392
2.88279e-09
0.000683921
2.59114e-09
0.000683921
2.32844e-09
0.000683922
2.09247e-09
0.000683922
1.87996e-09
0.000683923
1.68862e-09
0.000683923
1.51706e-09
0.000683923
1.36237e-09
0.000683924
1.22316e-09
1.09862e-09
0.000648659
1.13468e-05
0.000652346
9.89203e-06
0.000655635
8.65324e-06
0.000658571
7.59558e-06
0.000661194
6.68716e-06
0.000663537
5.90148e-06
0.000665633
5.21955e-06
0.000667508
4.62537e-06
0.000669187
4.1044e-06
0.00067069
3.64702e-06
0.000672036
3.2466e-06
0.000673244
2.89484e-06
0.000674328
2.58305e-06
0.0006753
2.30573e-06
0.000676172
2.05966e-06
0.000676956
1.84125e-06
0.000677659
1.64647e-06
0.00067829
1.47227e-06
0.000678856
1.31665e-06
0.000679363
1.178e-06
0.000679818
1.05467e-06
0.000680225
9.45045e-07
0.000680591
8.4762e-07
0.00068092
7.61003e-07
0.000681216
6.83881e-07
0.000681482
6.15072e-07
0.000681721
5.53548e-07
0.000681937
4.98435e-07
0.000682131
4.48992e-07
0.000682306
4.04583e-07
0.000682464
3.64661e-07
0.000682607
3.28749e-07
0.000682736
2.96431e-07
0.000682852
2.67334e-07
0.000682957
2.41129e-07
0.000683051
2.17521e-07
0.000683137
1.96247e-07
0.000683214
1.7707e-07
0.000683283
1.59779e-07
0.000683346
1.44185e-07
0.000683403
1.30118e-07
0.000683454
1.17426e-07
0.000683501
1.05972e-07
0.000683542
9.56345e-08
0.00068358
8.63025e-08
0.000683614
7.78778e-08
0.000683645
7.02716e-08
0.000683673
6.3404e-08
0.000683698
5.72032e-08
0.00068372
5.16044e-08
0.000683741
4.65493e-08
0.000683759
4.19853e-08
0.000683776
3.78648e-08
0.00068379
3.4145e-08
0.000683804
3.07873e-08
0.000683816
2.77565e-08
0.000683827
2.50212e-08
0.000683837
2.25528e-08
0.000683846
2.03254e-08
0.000683854
1.83158e-08
0.000683861
1.65029e-08
0.000683868
1.48676e-08
0.000683873
1.33927e-08
0.000683879
1.20626e-08
0.000683884
1.08633e-08
0.000683888
9.78189e-09
0.000683892
8.80709e-09
0.000683895
7.92833e-09
0.000683898
7.13643e-09
0.000683901
6.42266e-09
0.000683904
5.77963e-09
0.000683906
5.20024e-09
0.000683908
4.6782e-09
0.00068391
4.20823e-09
0.000683912
3.78454e-09
0.000683913
3.40346e-09
0.000683914
3.05996e-09
0.000683916
2.75078e-09
0.000683917
2.47279e-09
0.000683918
2.22193e-09
0.000683919
1.99679e-09
0.000683919
1.79397e-09
0.00068392
1.61114e-09
0.000683921
1.44751e-09
0.000683921
1.29967e-09
0.000683922
1.16676e-09
0.000683922
1.04803e-09
0.000683923
9.40449e-10
0.000683923
8.4395e-10
7.57711e-10
0.000641971
6.0083e-06
0.000646648
5.21566e-06
0.000650755
4.54635e-06
0.000654371
3.97873e-06
0.000657565
3.4938e-06
0.00066039
3.07634e-06
0.000662894
2.71556e-06
0.000665117
2.40239e-06
0.000667093
2.12867e-06
0.000668851
1.88901e-06
0.000670418
1.67968e-06
0.000671816
1.49614e-06
0.000673066
1.33371e-06
0.000674182
1.18943e-06
0.00067518
1.0616e-06
0.000676073
9.4832e-07
0.000676872
8.47467e-07
0.000677587
7.57409e-07
0.000678226
6.7708e-07
0.000678799
6.05595e-07
0.000679311
5.42063e-07
0.000679771
4.85621e-07
0.000680183
4.35485e-07
0.000680553
3.90924e-07
0.000680886
3.51258e-07
0.000681185
3.15873e-07
0.000681454
2.84238e-07
0.000681697
2.55904e-07
0.000681915
2.30486e-07
0.000682112
2.07657e-07
0.00068229
1.87136e-07
0.00068245
1.68679e-07
0.000682594
1.52069e-07
0.000682724
1.37117e-07
0.000682842
1.23653e-07
0.000682948
1.11526e-07
0.000683043
1.00599e-07
0.00068313
9.07506e-08
0.000683208
8.18731e-08
0.000683278
7.38683e-08
0.000683341
6.66488e-08
0.000683399
6.01363e-08
0.00068345
5.42604e-08
0.000683497
4.8958e-08
0.000683539
4.41726e-08
0.000683577
3.98531e-08
0.000683612
3.5954e-08
0.000683643
3.24342e-08
0.00068367
2.92566e-08
0.000683696
2.63879e-08
0.000683718
2.37981e-08
0.000683739
2.14602e-08
0.000683757
1.93497e-08
0.000683774
1.74448e-08
0.000683789
1.57254e-08
0.000683803