/*--------------------------------*- C++ -*----------------------------------*\
| =========                 |                                                 |
| \\      /  F ield         | OpenFOAM: The Open Source CFD Toolbox           |
|  \\    /   O peration     | Version:  2312                                  |
|   \\  /    A nd           | Website:  www.openfoam.com                      |
|    \\/     M anipulation  |                                                 |
\*---------------------------------------------------------------------------*/
FoamFile
{
    version     2.0;
    format      ascii;
    arch        "LSB;label=32;scalar=64";
    class       surfaceScalarField;
    location    "87000";
    object      phi;
}
// * * * * * * * * * * * * * * * * * * * * * * * * * * * * * * * * * * * * * //

dimensions      [0 3 -1 0 0 0 0];

oriented        oriented;

internalField   nonuniform List<scalar> 
5309
(
7.46023e-05
2.77333e-05
6.92163e-05
5.38603e-06
6.29307e-05
6.28558e-06
5.97331e-05
3.19758e-06
5.86324e-05
1.10066e-06
5.9379e-05
-7.46548e-07
6.06022e-05
-1.22318e-06
6.31314e-05
-2.52921e-06
6.5544e-05
-2.41264e-06
6.9077e-05
-3.53294e-06
7.19454e-05
-2.86848e-06
7.58299e-05
-3.88443e-06
7.85019e-05
-2.67207e-06
8.21558e-05
-3.6539e-06
8.40737e-05
-1.91787e-06
8.71603e-05
-3.0866e-06
8.79796e-05
-8.19327e-07
9.03411e-05
-2.36149e-06
8.9884e-05
4.57115e-07
9.16031e-05
-1.71913e-06
8.98471e-05
1.75603e-06
9.10749e-05
-1.22779e-06
8.79905e-05
3.08438e-06
8.88509e-05
-8.60365e-07
8.42572e-05
4.59371e-06
8.50707e-05
-8.13529e-07
7.64768e-05
8.5939e-06
8.5209e-05
-8.73221e-06
3.59316e-05
4.92774e-05
-3.48979e-05
7.08295e-05
0.000148653
3.3623e-05
0.000146354
7.68501e-06
0.000144079
8.56009e-06
0.000142795
4.48222e-06
0.000142602
1.29299e-06
0.000144325
-2.46919e-06
0.000146835
-3.7333e-06
0.000151089
-6.78254e-06
0.000155499
-6.82304e-06
0.000161565
-9.59921e-06
0.00016707
-8.37327e-06
0.000174156
-1.09708e-05
0.000179857
-8.37312e-06
0.000187161
-1.0958e-05
0.000192222
-6.97859e-06
0.000199074
-9.93798e-06
0.000202798
-4.54412e-06
0.000208878
-8.44147e-06
0.000210944
-1.60849e-06
0.000216364
-7.13956e-06
0.000216245
1.8758e-06
0.000221558
-6.54147e-06
0.000218311
6.33165e-06
0.000224713
-7.2622e-06
0.000215912
1.33946e-05
0.000226929
-1.18307e-05
0.000204415
3.1108e-05
0.000224491
-2.88083e-05
0.000204758
6.90108e-05
-3.61915e-05
0.000206051
0.000197835
3.15247e-05
0.000198579
6.94125e-06
0.00020006
7.07859e-06
0.000200984
3.55845e-06
0.000202317
-3.99781e-08
0.000204719
-4.87169e-06
0.000207736
-6.75007e-06
0.000212216
-1.12624e-05
0.000216881
-1.14883e-05
0.000223156
-1.58738e-05
0.000229016
-1.42329e-05
0.000236577
-1.85323e-05
0.000242941
-1.47367e-05
0.00025121
-1.92274e-05
0.000257367
-1.31357e-05
0.000265867
-1.84376e-05
0.000271232
-9.90946e-06
0.000279846
-1.70556e-05
0.000283777
-5.5387e-06
0.000292618
-1.59814e-05
0.000294408
8.58268e-08
0.0003038
-1.59334e-05
0.000302853
7.27859e-06
0.000313428
-1.78373e-05
0.000308638
1.81854e-05
0.000319988
-2.31814e-05
0.000315987
3.51091e-05
0.000320682
-3.35028e-05
0.0003361
5.35929e-05
-1.89084e-05
0.000318817
0.000234773
2.69004e-05
0.000234812
6.90156e-06
0.000236968
4.92295e-06
0.000239083
1.44369e-06
0.000240976
-1.93351e-06
0.000244207
-8.10233e-06
0.000247669
-1.02126e-05
0.00025232
-1.59132e-05
0.000257002
-1.61702e-05
0.00026304
-2.19114e-05
0.00026873
-1.99231e-05
0.000275896
-2.56984e-05
0.000282186
-2.10264e-05
0.000290125
-2.71666e-05
0.000296555
-1.95651e-05
0.000304976
-2.68586e-05
0.00031115
-1.60839e-05
0.000319842
-2.57476e-05
0.000325427
-1.11237e-05
0.000334195
-2.47493e-05
0.000339278
-4.99771e-06
0.000347919
-2.4574e-05
0.000352689
2.50901e-06
0.000360428
-2.55772e-05
0.00036655
1.20643e-05
0.000371136
-2.7768e-05
0.000383124
2.3121e-05
0.000378448
-2.88267e-05
0.00040533
2.67113e-05
-8.81832e-06
0.00039524
0.000263535
2.21351e-05
0.000263145
7.2913e-06
0.000265079
2.98962e-06
0.000267718
-1.19563e-06
0.000270217
-4.43216e-06
0.000273085
-1.09709e-05
0.000276439
-1.35667e-05
0.000280538
-2.00115e-05
0.000285024
-2.06568e-05
0.000290208
-2.70952e-05
0.000295664
-2.53791e-05
0.00030174
-3.17751e-05
0.000307944
-2.72301e-05
0.000314653
-3.38753e-05
0.000321372
-2.62847e-05
0.000328451
-3.39368e-05
0.000335542
-2.31757e-05
0.000342697
-3.29025e-05
0.000350229
-1.86556e-05
0.000357153
-3.16729e-05
0.000365438
-1.32825e-05
0.000371575
-3.07108e-05
0.00038123
-7.14667e-06
0.000385716
-3.00625e-05
0.000398219
-4.39586e-07
0.000399124
-2.86726e-05
0.000417292
4.95279e-06
0.00041165
-2.3185e-05
0.000435686
2.67602e-06
-7.61942e-06
0.000434487
0.000286335
1.81208e-05
0.000285906
7.72094e-06
0.000287297
1.59826e-06
0.000289419
-3.31766e-06
0.000291792
-6.80514e-06
0.000294272
-1.34505e-05
0.000297496
-1.67909e-05
0.000300917
-2.34326e-05
0.00030521
-2.49497e-05
0.000309413
-3.12981e-05
0.000314649
-3.06147e-05
0.000319501
-3.66277e-05
0.000325596
-3.3325e-05
0.000330911
-3.919e-05
0.00033779
-3.31637e-05
0.000343346
-3.94928e-05
0.000351011
-3.08407e-05
0.00035655
-3.84414e-05
0.000365166
-2.72718e-05
0.000370356
-3.68634e-05
0.000380242
-2.31678e-05
0.000384609
-3.50787e-05
0.000396371
-1.89078e-05
0.000399151
-3.28428e-05
0.000413721
-1.50094e-05
0.000414005
-2.89567e-05
0.000431809
-1.28514e-05
0.000430222
-2.15979e-05
0.000447484
-1.45857e-05
-1.26865e-05
0.000452551
0.00030411
1.51285e-05
0.000304095
7.73654e-06
0.000304808
8.84987e-07
0.000306343
-4.85235e-06
0.000308591
-9.05319e-06
0.000310615
-1.5475e-05
0.000313571
-1.97468e-05
0.000316263
-2.61247e-05
0.000320194
-2.88811e-05
0.000323506
-3.46098e-05
0.000328348
-3.54566e-05
0.000332166
-4.04458e-05
0.000337903
-3.90615e-05
0.000342103
-4.33904e-05
0.000348735
-3.9796e-05
0.00035315
-4.39073e-05
0.000360744
-3.84344e-05
0.000365181
-4.28782e-05
0.000373887
-3.59781e-05
0.00037811
-4.10867e-05
0.00038816
-3.32177e-05
0.000391903
-3.88212e-05
0.000403601
-3.06061e-05
0.000406571
-3.58132e-05
0.000420054
-2.8492e-05
0.000422416
-3.13187e-05
0.000436801
-2.72365e-05
0.000440307
-2.51037e-05
0.000452287
-2.65655e-05
-1.98282e-05
0.000459428
0.000317356
1.31439e-05
0.000317712
7.38042e-06
0.00031815
4.47288e-07
0.000319163
-5.86572e-06
0.000321141
-1.10311e-05
0.000322802
-1.71354e-05
0.000325396
-2.23411e-05
0.000327536
-2.82647e-05
0.000330977
-3.23221e-05
0.000333635
-3.72675e-05
0.000337913
-3.97349e-05
0.000341001
-4.35336e-05
0.000346137
-4.41973e-05
0.000349588
-4.68417e-05
0.000355622
-4.58302e-05
0.000359342
-4.76276e-05
0.00036635
-4.54425e-05
0.000370242
-4.677e-05
0.000378322
-4.40574e-05
0.000382294
-4.50587e-05
0.000391539
-4.24629e-05
0.000395556
-4.28383e-05
0.000405976
-4.1026e-05
0.000410143
-3.99803e-05
0.000421436
-3.97856e-05
0.000426361
-3.62432e-05
0.000437541
-3.84169e-05
0.000444427
-3.19895e-05
0.000453926
-3.60647e-05
-2.79762e-05
0.000462074
0.000326503
1.20176e-05
0.000327088
6.79521e-06
0.000327581
-4.54663e-08
0.000328288
-6.57296e-06
0.000329915
-1.26579e-05
0.000331328
-1.85487e-05
0.000333523
-2.45356e-05
0.000335302
-3.00445e-05
0.000338179
-3.51986e-05
0.000340416
-3.95045e-05
0.00034402
-4.33388e-05
0.000346667
-4.6181e-05
0.000351036
-4.8566e-05
0.000354081
-4.98865e-05
0.000359274
-5.10233e-05
0.000362704
-5.10573e-05
0.000368781
-5.15195e-05
0.000372597
-5.05865e-05
0.000379599
-5.10596e-05
0.000383841
-4.93004e-05
0.000391759
-5.03805e-05
0.000396543
-4.76229e-05
0.000405248
-4.97304e-05
0.000410844
-4.55768e-05
0.000420009
-4.895e-05
0.000426859
-4.3094e-05
0.000436019
-4.75768e-05
0.000444237
-4.0207e-05
0.000453344
-4.51719e-05
-3.65804e-05
0.000461948
0.000332055
1.1486e-05
0.000332787
6.06322e-06
0.000333439
-6.97536e-07
0.000334059
-7.19276e-06
0.000335356
-1.39549e-05
0.000336615
-1.9808e-05
0.000338428
-2.63483e-05
0.000340005
-3.16216e-05
0.000342334
-3.75282e-05
0.000344331
-4.15009e-05
0.000347263
-4.62708e-05
0.000349683
-4.86012e-05
0.000353262
-5.21453e-05
0.000356139
-5.27629e-05
0.000360436
-5.5321e-05
0.000363823
-5.44442e-05
0.00036889
-5.65867e-05
0.000372859
-5.45552e-05
0.000378719
-5.69193e-05
0.00038337
-5.39518e-05
0.000390001
-5.7011e-05
0.000395476
-5.30983e-05
0.000402803
-5.70576e-05
0.000409273
-5.20463e-05
0.000417191
-5.68688e-05
0.000424714
-5.06169e-05
0.000433239
-5.61014e-05
0.000441529
-4.84972e-05
0.00045091
-5.4553e-05
-4.51734e-05
0.000459503
0.000334725
1.12281e-05
0.000335454
5.33488e-06
0.000336238
-1.48162e-06
0.000336954
-7.90873e-06
0.000338031
-1.50321e-05
0.000339204
-2.09809e-05
0.000340712
-2.78561e-05
0.000342197
-3.31074e-05
0.000344093
-3.94237e-05
0.000345968
-4.33759e-05
0.000348348
-4.86513e-05
0.000350665
-5.09179e-05
0.000353584
-5.50641e-05
0.000356408
-5.55876e-05
0.000359946
-5.88585e-05
0.000363374
-5.7872e-05
0.000367593
-6.08061e-05
0.000371727
-5.86889e-05
0.00037667
-6.18622e-05
0.000381618
-5.88999e-05
0.00038731
-6.27033e-05
0.000393169
-5.89571e-05
0.000399641
-6.35292e-05
0.000406454
-5.88596e-05
0.000413762
-6.41768e-05
0.000421464
-5.83194e-05
0.00042972
-6.43565e-05
0.000438164
-5.69418e-05
0.000447429
-6.38182e-05
-5.42237e-05
0.00045648
0.000335301
1.08806e-05
0.000336019
4.61675e-06
0.000336867
-2.32943e-06
0.000337723
-8.76515e-06
0.000338709
-1.60172e-05
0.000339863
-2.21353e-05
0.000341185
-2.91776e-05
0.000342651
-3.4574e-05
0.000344284
-4.10562e-05
0.000346109
-4.52012e-05
0.000348136
-5.06786e-05
0.000350401
-5.31825e-05
0.00035289
-5.75534e-05
0.000355684
-5.83818e-05
0.000358721
-6.18952e-05
0.000362158
-6.13091e-05
0.000365825
-6.44733e-05
0.000370016
-6.28799e-05
0.000374391
-6.62374e-05
0.00037943
-6.39387e-05
0.000384589
-6.78623e-05
0.000390539
-6.49074e-05
0.000396568
-6.95576e-05
0.00040345
-6.57422e-05
0.000410441
-7.11673e-05
0.000418225
-6.61036e-05
0.000426261
-7.2392e-05
0.000434884
-6.5565e-05
0.000443995
-7.29292e-05
-6.36341e-05
0.000453405
0.000334732
1.02946e-05
0.000335523
3.82594e-06
0.000336406
-3.21312e-06
0.000337385
-9.74362e-06
0.000338383
-1.7015e-05
0.000339585
-2.33377e-05
0.000340849
-3.04418e-05
0.000342351
-3.60757e-05
0.000343886
-4.25908e-05
0.000345714
-4.70299e-05
0.000347581
-5.25453e-05
0.000349822
-5.54233e-05
0.000352098
-5.98293e-05
0.000354849
-6.11328e-05
0.000357627
-6.46735e-05
0.000361008
-6.46896e-05
0.00036439
-6.7856e-05
0.000368514
-6.70036e-05
0.000372599
-7.03219e-05
0.000377562
-6.89018e-05
0.00038244
-7.2741e-05
0.000388319
-7.07859e-05
0.000394084
-7.53228e-05
0.00040093
-7.25878e-05
0.000407666
-7.79037e-05
0.000415501
-7.39383e-05
0.000423267
-8.01582e-05
0.000432078
-7.43763e-05
0.000440905
-8.17562e-05
-7.33804e-05
0.000450652
0.000334375
9.52874e-06
0.000335231
2.97075e-06
0.000336122
-4.10403e-06
0.000337172
-1.07944e-05
0.000338227
-1.80694e-05
0.000339508
-2.46186e-05
0.000340799
-3.17335e-05
0.000342363
-3.76392e-05
0.000343899
-4.41272e-05
0.000345757
-4.88881e-05
0.000347577
-5.43649e-05
0.0003498
-5.76463e-05
0.000351979
-6.20086e-05
0.000354662
-6.38158e-05
0.0003573
-6.73114e-05
0.000360562
-6.79517e-05
0.000363772
-7.10664e-05
0.000367735
-7.09662e-05
0.000371625
-7.4212e-05
0.0003764
-7.36764e-05
0.000381066
-7.7407e-05
0.000386754
-7.6474e-05
0.000392283
-8.08514e-05
0.000398977
-7.9282e-05
0.00040544
-8.43673e-05
0.000413212
-8.17104e-05
0.000420656
-8.76018e-05
0.000429537
-8.32571e-05
0.000437985
-9.02045e-05
-8.33754e-05
0.00044798
0.000335338
8.72692e-06
0.000336196
2.11312e-06
0.00033707
-4.97805e-06
0.000338144
-1.18686e-05
0.000339248
-1.91736e-05
0.00034059
-2.59608e-05
0.000341927
-3.30704e-05
0.00034353
-3.92423e-05
0.00034508
-4.56764e-05
0.000346935
-5.07435e-05
0.000348712
-5.61419e-05
0.000350868
-5.98023e-05
0.000352942
-6.40827e-05
0.000355488
-6.63616e-05
0.000357965
-6.97883e-05
0.000361021
-7.10078e-05
0.000364028
-7.40735e-05
0.000367725
-7.46631e-05
0.000371385
-7.78714e-05
0.000375846
-7.81382e-05
0.000380265
-8.18252e-05
0.000385612
-8.18212e-05
0.000390881
-8.61204e-05
0.000397236
-8.5637e-05
0.00040343
-9.05616e-05
0.000410906
-8.91866e-05
0.000418072
-9.47672e-05
0.000426748
-9.19337e-05
0.000434901
-9.83569e-05
-9.32907e-05
0.000444816
0.000338432
8.10067e-06
-0.000337806
0.000339179
1.36645e-06
0.000339973
-5.77184e-06
0.000340985
-1.28812e-05
0.000342065
-2.02533e-05
0.000343375
-2.7271e-05
0.000344684
-3.43785e-05
0.000346223
-4.0782e-05
0.000347698
-4.7151e-05
0.000349435
-5.24805e-05
0.00035107
-5.77767e-05
0.000353036
-6.17687e-05
0.000354893
-6.59401e-05
0.000357179
-6.86477e-05
0.000359376
-7.19852e-05
0.000362113
-7.37449e-05
0.000364797
-7.67569e-05
0.000368127
-7.79934e-05
0.00037144
-8.11843e-05
0.000375496
-8.21938e-05
0.000379564
-8.58933e-05
0.000384472
-8.67299e-05
0.000389407
-9.10546e-05
0.000395306
-9.1536e-05
0.000401198
-9.64538e-05
0.000408231
-9.62203e-05
0.000415136
-0.000101672
0.000423436
-0.000100234
0.000431355
-0.000106276
-0.000102964
0.000441029
0.000343448
7.76455e-06
-0.000343112
0.000343991
8.23406e-07
0.000344649
-6.43023e-06
0.000345513
-1.37448e-05
0.000346467
-2.12071e-05
0.000347612
-2.84168e-05
0.000348766
-3.55323e-05
0.000350091
-4.21067e-05
0.000351353
-4.84129e-05
0.000352808
-5.39362e-05
0.000354159
-5.91279e-05
0.000355778
-6.33872e-05
0.000357284
-6.74461e-05
0.000359174
-7.05378e-05
0.00036097
-7.37811e-05
0.000363287
-7.60617e-05
0.000365541
-7.90107e-05
0.000368443
-8.08962e-05
0.000371317
-8.40582e-05
0.000374942
-8.58183e-05
0.000378581
-8.95329e-05
0.000383048
-9.11967e-05
0.000387591
-9.55975e-05
0.000393027
-9.69715e-05
0.0003986
-0.000102027
0.000405146
-0.000102766
0.000411836
-0.000108362
0.000419642
-0.000108041
0.000427452
-0.000114086
-0.000112179
0.000436667
0.000349073
7.6124e-06
-0.000348921
0.000349452
4.44958e-07
0.000349997
-6.97595e-06
0.000350698
-1.44457e-05
0.000351473
-2.19815e-05
0.000352365
-2.93086e-05
0.000353265
-3.64326e-05
0.000354255
-4.30971e-05
0.000355196
-4.93533e-05
0.000356244
-5.49844e-05
0.000357216
-6.01002e-05
0.000358378
-6.45488e-05
0.000359469
-6.85372e-05
0.000360888
-7.19564e-05
0.000362254
-7.51477e-05
0.000364118
-7.79252e-05
0.000365939
-8.08317e-05
0.000368426
-8.33839e-05
0.000370865
-8.64963e-05
0.000374116
-8.90699e-05
0.000377315
-9.27319e-05
0.000381438
-9.53192e-05
0.000385548
-9.97077e-05
0.000390636
-0.00010206
0.000395822
-0.000107213
0.000401971
-0.000108915
0.000408382
-0.000114772
0.000415697
-0.000115356
0.000423393
-0.000121782
-0.000120807
0.000432021
0.000354319
7.53957e-06
-0.000354246
0.000354577
1.86784e-07
0.000355005
-7.40345e-06
0.000355521
-1.49613e-05
0.000356076
-2.25365e-05
0.000356676
-2.99087e-05
0.000357279
-3.70361e-05
0.000357903
-4.37208e-05
0.0003585
-4.99505e-05
0.000359131
-5.56149e-05
0.000359741
-6.07109e-05
0.000360463
-6.52704e-05
0.0003612
-6.92745e-05
0.000362184
-7.29404e-05
0.000363217
-7.61807e-05
0.000364673
-7.93807e-05
0.000366174
-8.23326e-05
0.000368294
-8.55047e-05
0.0003704
-8.86021e-05
0.000373333
-9.2003e-05
0.000376149
-9.55476e-05
0.000380002
-9.91719e-05
0.000383646
-0.000103352
0.000388499
-0.000106913
0.000393137
-0.000111852
0.000399029
-0.000114807
0.000404871
-0.000120614
0.000411792
-0.000122277
0.000419031
-0.000129021
-0.000128736
0.00042696
0.000357414
7.21533e-06
-0.000357089
0.000357854
-2.53541e-07
0.000358346
-7.89601e-06
0.000358871
-1.54854e-05
0.000359391
-2.30566e-05
0.000359893
-3.04107e-05
0.000360367
-3.75099e-05
0.000360803
-4.41574e-05
0.000361212
-5.0359e-05
0.000361594
-5.59969e-05
0.000361987
-6.11047e-05
0.000362417
-6.56997e-05
0.000362932
-6.97901e-05
0.000363592
-7.35997e-05
0.00036441
-7.69993e-05
0.000365514
-8.04841e-05
0.000366803
-8.3622e-05
0.000368549
-8.72509e-05
0.000370422
-9.0475e-05
0.00037297
-9.45513e-05
0.000375478
-9.80556e-05
0.000378959
-0.000102652
0.000382143
-0.000106536
0.000386673
-0.000111442
0.000390615
-0.000115794
0.00039624
-0.000120432
0.000401094
-0.000125468
0.000407694
-0.000128878
0.000413706
-0.000135033
-0.000135937
0.000420908
0.000360461
6.59691e-06
-0.000359842
0.00036111
-9.03111e-07
0.000361764
-8.54912e-06
0.000362419
-1.6141e-05
0.000363031
-2.36685e-05
0.000363578
-3.09577e-05
0.00036404
-3.79717e-05
0.000364411
-4.45288e-05
0.000364706
-5.06535e-05
0.000364923
-5.62137e-05
0.000365122
-6.13043e-05
0.0003653
-6.5877e-05
0.000365569
-7.00593e-05
0.000365901
-7.39325e-05
0.000366452
-7.75501e-05
0.00036716
-8.11916e-05
0.000368181
-8.46438e-05
0.000369456
-8.85254e-05
0.000371066
-9.20853e-05
0.000373064
-9.65489e-05
0.000375289
-0.000100281
0.000378147
-0.00010551
0.000380937
-0.000109326
0.000384817
-0.000115322
0.000388073
-0.00011905
0.000393087
-0.000125446
0.000396642
-0.000129023
0.000402632
-0.000134867
0.000406332
-0.000138733
-0.000142124
0.000412518
0.000367113
6.04195e-06
-0.000366558
0.000367679
-1.46878e-06
0.000368245
-9.11586e-06
0.000368801
-1.66964e-05
0.000369282
-2.41499e-05
0.000369664
-3.1339e-05
0.000369904
-3.82125e-05
0.000370012
-4.46368e-05
0.000369983
-5.06237e-05
0.000369845
-5.60762e-05
0.000369638
-6.10975e-05
0.000369397
-6.56353e-05
0.000369213
-6.9876e-05
0.000369091
-7.38098e-05
0.000369186
-7.76454e-05
0.000369415
-8.14204e-05
0.00037001
-8.52391e-05
0.000370756
-8.92715e-05
0.000371981
-9.331e-05
0.000373348
-9.79156e-05
0.000375239
-0.000102172
0.000377291
-0.000107562
0.000379732
-0.000111767
0.000382522
-0.000118112
0.000385172
-0.0001217
0.000388728
-0.000129001
0.000390829
-0.000131125
0.000394937
-0.000138975
0.000395139
-0.000138936
-0.000145862
0.000398878
0.000375363
5.51488e-06
-0.000374836
0.000375857
-1.96247e-06
0.000376316
-9.57428e-06
0.00037669
-1.70704e-05
0.000376923
-2.43832e-05
0.000376995
-3.14109e-05
0.000376867
-3.80851e-05
0.000376556
-4.43256e-05
0.000376056
-5.01236e-05
0.000375424
-5.54438e-05
0.000374683
-6.03572e-05
0.000373917
-6.48694e-05
0.000373179
-6.91379e-05
0.000372548
-7.31785e-05
0.000372107
-7.72043e-05
0.00037187
-8.11838e-05
0.000371964
-8.53329e-05
0.000372252
-8.95596e-05
0.000372973
-9.40309e-05
0.000373771
-9.87134e-05
0.000375127
-0.000103528
0.000376324
-0.000108759
0.000378115
-0.000113559
0.00037936
-0.000119357
0.000380939
-0.000123279
0.000381674
-0.000129736
0.000381643
-0.000131094
0.000381114
-0.000138446
0.000376549
-0.000134371
-0.000143352
0.000374038
0.000383313
4.66745e-06
-0.000382465
0.000383998
-2.64779e-06
0.000384523
-1.00992e-05
0.000384847
-1.73945e-05
0.000384934
-2.44703e-05
0.000384759
-3.12354e-05
0.0003843
-3.76268e-05
0.000383581
-4.36066e-05
0.000382623
-4.91648e-05
0.000381488
-5.43089e-05
0.000380218
-5.90873e-05
0.00037891
-6.35618e-05
0.000377617
-6.78451e-05
0.000376457
-7.20187e-05
0.000375473
-7.62201e-05
0.000374759
-8.04692e-05
0.000374315
-8.48892e-05
0.00037414
-8.93848e-05
0.000374204
-9.40947e-05
0.000374336
-9.88453e-05
0.00037466
-0.000103852
0.000374698
-0.000108797
0.00037484
-0.000113701
0.000373773
-0.00011829
0.000372483
-0.00012199
0.000368578
-0.000125831
0.000363959
-0.000126474
0.000355066
-0.000129553
0.000343467
-0.000122772
-0.000128624
0.00032874
0.000393455
3.75022e-06
-0.000392537
0.000394252
-3.44554e-06
0.000394699
-1.0546e-05
0.000394878
-1.75731e-05
0.000394762
-2.43544e-05
0.000394262
-3.07354e-05
0.000393384
-3.6749e-05
0.000392167
-4.23897e-05
0.000390658
-4.76559e-05
0.000388921
-5.2572e-05
0.000387027
-5.71927e-05
0.000385067
-6.16017e-05
0.00038312
-6.58983e-05
0.000381291
-7.01902e-05
0.000379637
-7.45658e-05
0.000378236
-7.90684e-05
0.000377051
-8.37041e-05
0.000376072
-8.84058e-05
0.00037509
-9.31126e-05
0.0003739
-9.76549e-05
0.000372203
-0.000102155
0.000369809
-0.000106404
0.000366392
-0.000110283
0.00036109
-0.000112987
0.000353692
-0.000114592
0.000342437
-0.000114577
0.000328588
-0.000112625
0.000307922
-0.000108887
0.000285101
-9.99508e-05
-9.64802e-05
0.000252957
0.000407042
2.53318e-06
-0.000405825
0.000407816
-4.21981e-06
0.000408312
-1.1042e-05
0.000408274
-1.75349e-05
0.000407651
-2.3731e-05
0.000406539
-2.96233e-05
0.000404983
-3.51929e-05
0.000403023
-4.04298e-05
0.000400718
-4.53515e-05
0.000398146
-4.99995e-05
0.000395395
-5.44422e-05
0.000392556
-5.87619e-05
0.000389704
-6.30469e-05
0.000386898
-6.7384e-05
0.000384168
-7.18364e-05
0.000381517
-7.64173e-05
0.00037887
-8.10565e-05
0.000376067
-8.56032e-05
0.000372794
-8.98394e-05
0.000368647
-9.35083e-05
0.000362898
-9.64055e-05
0.00035525
-9.87559e-05
0.000345009
-0.000100042
0.000331611
-9.95901e-05
0.000314116
-9.70963e-05
0.000291536
-9.19969e-05
0.000263424
-8.45131e-05
0.000229138
-7.46008e-05
0.000191455
-6.22683e-05
-5.07811e-05
0.000145756
0.000422716
-4.50777e-08
-0.000420138
0.000424094
-5.59771e-06
0.000424503
-1.14508e-05
0.0004242
-1.7232e-05
0.000423239
-2.27695e-05
0.000421611
-2.79956e-05
0.000419338
-3.29195e-05
0.00041648
-3.75723e-05
0.000413124
-4.19951e-05
0.000409361
-4.62367e-05
0.000405286
-5.03668e-05
0.000400978
-5.44538e-05
0.00039649
-5.85596e-05
0.000391808
-6.27017e-05
0.000386824
-6.6852e-05
0.000381379
-7.0973e-05
0.00037523
-7.49076e-05
0.000368014
-7.83866e-05
0.000359292
-8.11178e-05
0.000348653
-8.28695e-05
0.000335337
-8.30886e-05
0.00031819
-8.16094e-05
0.000296393
-7.82456e-05
0.000269699
-7.28961e-05
0.000238393
-6.57902e-05
0.000201983
-5.55872e-05
0.000159471
-4.20008e-05
0.000114043
-2.91722e-05
7.26906e-05
-2.09163e-05
-1.71028e-05
3.90124e-05
0.000447962
-2.7212e-07
-0.000447735
0.000448465
-6.10119e-06
0.000448236
-1.1222e-05
0.000446998
-1.59932e-05
0.000444713
-2.04846e-05
0.000441449
-2.47316e-05
0.000437276
-2.87472e-05
0.000432257
-3.2553e-05
0.000426453
-3.61905e-05
0.000419931
-3.97152e-05
0.000412764
-4.32001e-05
0.000405005
-4.66943e-05
0.000396682
-5.02364e-05
0.000387721
-5.37411e-05
0.000377694
-5.68248e-05
0.000366163
-5.94425e-05
0.000352631
-6.13753e-05
0.000336336
-6.20915e-05
0.000316632
-6.14139e-05
0.000293356
-5.95935e-05
0.000267562
-5.72947e-05
0.000237421
-5.14682e-05
0.000201267
-4.20915e-05
0.000159389
-3.10185e-05
0.000114503
-2.0904e-05
7.18437e-05
-1.29277e-05
3.59586e-05
-6.11576e-06
8.7004e-06
-1.91398e-06
-9.94511e-06
-2.27081e-06
-5.75215e-06
-2.12958e-05
0.000481754
-2.79199e-06
-0.000479234
0.000481409
-5.756e-06
0.0004791
-8.91349e-06
0.000475157
-1.20497e-05
0.000469685
-1.50131e-05
0.000462712
-1.77586e-05
0.000454259
-2.02939e-05
0.000444351
-2.26452e-05
0.000432996
-2.48353e-05
0.000420172
-2.68919e-05
0.000405814
-2.88422e-05
0.000389822
-3.07019e-05
0.000372056
-3.24707e-05
0.000352396
-3.40808e-05
0.000331044
-3.54731e-05
0.000308201
-3.65986e-05
0.000282201
-3.53755e-05
0.00025172
-3.16105e-05
0.000216075
-2.57696e-05
0.000175893
-1.94112e-05
0.000132302
-1.37041e-05
9.01238e-05
-9.28954e-06
5.28836e-05
-4.85131e-06
2.24667e-05
-6.01582e-07
-8.42697e-07
2.40532e-06
-1.67094e-05
2.93903e-06
-2.54943e-05
2.66917e-06
-2.97653e-05
2.35702e-06
-3.34256e-05
1.38941e-06
-4.13458e-07
-3.87643e-05
0.00045795
-0.000460742
0.000452194
0.00044328
0.000431231
0.000416218
0.000398459
0.000378165
0.00035552
0.000330685
0.000303793
0.00027495
0.000244249
0.000211778
0.000177697
0.000142224
0.000105625
7.02498e-05
3.86393e-05
1.28697e-05
-6.54149e-06
-2.02455e-05
-2.95351e-05
-3.43864e-05
-3.4988e-05
-3.25826e-05
-2.96436e-05
-2.69744e-05
-2.46174e-05
-2.3228e-05
-2.36415e-05
0.0003977
0.000375858
0.000353187
0.000328342
0.000301671
0.000275738
0.000250781
0.000224754
0.000197627
0.000169898
0.000140047
0.000111413
7.51541e-05
4.04225e-05
0.000451953
5.76792e-06
0.000443026
8.92723e-06
0.000430961
1.20653e-05
0.00041593
1.50309e-05
0.000398151
1.7779e-05
0.000377833
2.03173e-05
0.000355161
2.2672e-05
0.000330296
2.4866e-05
0.000303369
2.69269e-05
0.000274487
2.88816e-05
0.000243741
3.07458e-05
0.000211223
3.25184e-05
0.000177092
3.41306e-05
0.000141568
3.55239e-05
0.000104937
3.66317e-05
6.95689e-05
3.53678e-05
3.80162e-05
3.15527e-05
1.23401e-05
2.56761e-05
-6.96032e-06
1.93004e-05
-2.05782e-05
1.36179e-05
-2.97807e-05
9.20253e-06
-3.45303e-05
4.74952e-06
-3.50401e-05
5.0987e-07
-3.2571e-05
-2.46908e-06
-2.95873e-05
-2.98376e-06
-2.68476e-05
-2.73973e-06
-2.43959e-05
-2.45162e-06
-2.29166e-05
-1.47936e-06
3.54812e-07
-2.32714e-05
0.000481256
6.1214e-06
0.000478938
1.12447e-05
0.000474984
1.60196e-05
0.0004695
2.05153e-05
0.000462511
2.47672e-05
0.00045404
2.87885e-05
0.000444111
3.26009e-05
0.000432731
3.6246e-05
0.000419879
3.97795e-05
0.000405486
4.32741e-05
0.000389454
4.67784e-05
0.000371641
5.03306e-05
0.000351929
5.38428e-05
0.000330529
5.69242e-05
0.000307617
5.95432e-05
0.000281522
6.14632e-05
0.000250916
6.21591e-05
0.000215137
6.14546e-05
0.000174823
5.9614e-05
0.000131166
5.72754e-05
8.90198e-05
5.13486e-05
5.1886e-05
4.18833e-05
2.16166e-05
3.07793e-05
-1.51417e-06
2.06617e-05
-1.71836e-05
1.26856e-05
-2.57802e-05
5.8569e-06
-2.99471e-05
1.71531e-06
-3.35988e-05
2.17238e-06
5.74593e-06
-3.899e-05
0.000448344
5.62192e-06
0.000448109
1.14794e-05
0.000446864
1.72649e-05
0.000444572
2.28074e-05
0.0004413
2.80395e-05
0.000437117
3.29706e-05
0.000432087
3.76317e-05
0.000426269
4.20642e-05
0.000419731
4.63168e-05
0.000412546
5.04592e-05
0.000404765
5.45597e-05
0.000396416
5.86795e-05
0.000387423
6.28352e-05
0.00037735
6.69978e-05
0.000365763
7.11296e-05
0.000352157
7.50696e-05
0.000335768
7.85477e-05
0.000315954
8.12691e-05
0.000292569
8.29986e-05
0.000266664
8.3181e-05
0.000236355
8.16572e-05
0.000200007
7.82318e-05
0.000157976
7.28105e-05
0.000113016
6.56216e-05
7.04377e-05
5.52636e-05
3.47183e-05
4.15763e-05
7.65881e-06
2.87748e-05
-1.07782e-05
2.06093e-05
1.69622e-05
-2.19944e-05
0.000424012
4.25225e-06
0.000424414
1.10773e-05
0.000424105
1.75745e-05
0.000423136
2.37761e-05
0.0004215
2.9675e-05
0.000419218
3.52525e-05
0.000416352
4.04986e-05
0.000412985
4.5431e-05
0.00040921
5.00914e-05
0.000405121
5.45481e-05
0.000400797
5.88834e-05
0.000396292
6.31852e-05
0.000391587
6.75403e-05
0.000386573
7.20111e-05
0.000381093
7.66098e-05
0.000374898
8.12643e-05
0.000367624
8.58219e-05
0.000358831
9.00625e-05
0.000348103
9.37268e-05
0.000334666
9.66171e-05
0.000317372
9.89521e-05
0.000295401
0.000100202
0.000268518
9.96936e-05
0.000237019
9.7121e-05
0.000200359
9.19232e-05
0.000157601
8.4334e-05
0.000112085
7.42908e-05
7.08469e-05
6.18478e-05
5.03209e-05
3.74883e-05
0.000407752
3.47844e-06
0.000408245
1.05845e-05
0.000408202
1.76176e-05
0.000407573
2.44047e-05
0.000406455
3.07926e-05
0.000404893
3.6815e-05
0.000402926
4.24658e-05
0.000400613
4.77438e-05
0.000398031
5.26734e-05
0.00039527
5.73093e-05
0.000392418
6.17355e-05
0.000389552
6.6051e-05
0.000386729
7.03635e-05
0.000383979
7.47606e-05
0.000381304
7.92851e-05
0.000378627
8.39415e-05
0.000375786
8.86626e-05
0.000372463
9.33851e-05
0.000368249
9.79414e-05
0.000362413
0.000102452
0.000354659
0.000106706
0.000344284
0.000110577
0.00033072
0.000113258
0.000313009
0.000114832
0.000290173
0.000114759
0.00026176
0.000112747
0.000227178
0.000108874
0.000189142
9.98836e-05
9.61895e-05
0.000143273
0.000394212
2.68593e-06
0.000394655
1.01415e-05
0.00039483
1.74425e-05
0.000394709
2.45251e-05
0.000394204
3.12981e-05
0.00039332
3.76988e-05
0.000392097
4.36894e-05
0.00039058
4.92601e-05
0.000388835
5.44187e-05
0.000386931
5.92134e-05
0.00038496
6.37065e-05
0.000383001
6.80101e-05
0.000381158
7.22062e-05
0.000379488
7.64309e-05
0.000378068
8.0705e-05
0.00037686
8.51494e-05
0.000375852
8.96703e-05
0.000374833
9.44045e-05
0.000373595
9.91792e-05
0.000371837
0.00010421
0.000369371
0.000109173
0.000365852
0.000114096
0.000360424
0.000118686
0.000352851
0.000122404
0.000341394
0.000126216
0.000327279
0.000126862
0.000306288
0.000129864
0.000283131
0.000123041
0.000128833
0.000250487
0.000383971
2.00296e-06
0.000384494
9.61941e-06
0.000384815
1.71214e-05
0.000384898
2.44413e-05
0.000384719
3.14777e-05
0.000384256
3.81617e-05
0.000383531
4.44139e-05
0.000382567
5.0225e-05
0.000381424
5.55609e-05
0.000380147
6.04913e-05
0.000378829
6.50237e-05
0.000377526
6.93135e-05
0.000376354
7.33784e-05
0.000375355
7.74294e-05
0.000374624
8.14362e-05
0.00037416
8.56134e-05
0.000373962
8.98688e-05
0.000373995
9.43715e-05
0.000374091
9.90824e-05
0.000374369
0.000103932
0.000374353
0.00010919
0.000374421
0.000114028
0.000373258
0.000119848
0.000371852
0.00012381
0.000367781
0.000130287
0.000362987
0.000131657
0.000353802
0.000139049
0.000341961
0.000134881
0.000144014
0.000326781
0.000375846
1.51108e-06
0.000376303
9.16305e-06
0.000376674
1.67499e-05
0.000376905
2.42108e-05
0.000376973
3.14092e-05
0.000376842
3.8293e-05
0.000376526
4.47298e-05
0.000376021
5.07304e-05
0.000375382
5.61995e-05
0.000374635
6.12387e-05
0.000373861
6.57977e-05
0.000373113
7.00612e-05
0.000372471
7.40206e-05
0.000372017
7.78835e-05
0.000371765
8.16877e-05
0.000371841
8.55378e-05
0.000372107
8.9602e-05
0.000372803
9.36759e-05
0.00037357
9.83158e-05
0.000374891
0.000102611
0.000376039
0.000108041
0.000377782
0.000112286
0.000378947
0.000118683
0.000380457
0.0001223
0.00038106
0.000129684
0.000380923
0.000131795
0.000380187
0.000139785
0.000375432
0.000139636
0.000146797
0.000372648
0.000367684
9.4752e-07
0.000368249
8.59828e-06
0.000368802
1.61965e-05
0.000369281
2.37318e-05
0.00036966
3.10305e-05
0.000369897
3.80554e-05
0.000370001
4.46255e-05
0.000369967
5.07645e-05
0.000369825
5.63419e-05
0.000369612
6.14514e-05
0.000369364
6.60463e-05
0.000369172
7.02525e-05
0.00036904
7.4153e-05
0.000369124
7.77992e-05
0.000369339
8.14727e-05
0.000369919
8.49576e-05
0.000370645
8.88763e-05
0.00037185
9.24711e-05
0.000373186
9.69793e-05
0.000375052
0.000100746
0.000377059
0.000106034
0.000379466
0.000109879
0.000382192
0.000115957
0.000384794
0.000119698
0.000388264
0.000126214
0.000390284
0.000129774
0.000394287
0.000135783
0.00039433
0.000139593
0.000143173
0.000397954
0.000361117
2.9976e-07
0.000361769
7.94608e-06
0.000362424
1.55419e-05
0.000363034
2.31211e-05
0.00036358
3.04848e-05
0.00036404
3.75953e-05
0.00036441
4.42559e-05
0.000364702
5.04726e-05
0.000364916
5.61281e-05
0.000365111
6.12557e-05
0.000365284
6.58738e-05
0.000365547
6.99891e-05
0.000365872
7.38278e-05
0.000366415
7.72566e-05
0.000367111
8.0777e-05
0.000368121
8.39471e-05
0.000369378
8.76195e-05
0.000370973
9.08763e-05
0.000372945
9.50073e-05
0.000375148
9.85419e-05
0.000377973
0.00010321
0.000380732
0.000107119
0.000384571
0.000112118
0.000387782
0.000116487
0.000392755
0.000121242
0.000396239
0.000126289