/*--------------------------------*- C++ -*----------------------------------*\
| =========                 |                                                 |
| \\      /  F ield         | OpenFOAM: The Open Source CFD Toolbox           |
|  \\    /   O peration     | Version:  2312                                  |
|   \\  /    A nd           | Website:  www.openfoam.com                      |
|    \\/     M anipulation  |                                                 |
\*---------------------------------------------------------------------------*/
FoamFile
{
    version     2.0;
    format      ascii;
    arch        "LSB;label=32;scalar=64";
    class       surfaceScalarField;
    location    "69000";
    object      phi;
}
// * * * * * * * * * * * * * * * * * * * * * * * * * * * * * * * * * * * * * //

dimensions      [0 3 -1 0 0 0 0];

oriented        oriented;

internalField   nonuniform List<scalar> 
21240
(
0.000664974
1.69224e-06
0.000661072
3.90237e-06
0.000655751
5.32079e-06
0.000649515
6.23628e-06
0.00064264
6.87493e-06
0.000635269
7.37144e-06
0.000627492
7.77627e-06
0.00061939
8.10248e-06
0.000611034
8.35609e-06
0.000602488
8.54606e-06
0.000593803
8.68471e-06
0.000585019
8.78433e-06
0.000576164
8.85455e-06
0.000567262
8.9017e-06
0.000558333
8.92958e-06
0.000549392
8.94066e-06
0.000540455
8.93677e-06
0.000531536
8.91948e-06
0.000522646
8.8901e-06
0.000513796
8.84971e-06
0.000504997
8.79914e-06
0.000496258
8.73897e-06
0.000487588
8.66961e-06
0.000478997
8.59138e-06
0.000470493
8.50447e-06
0.000462084
8.40904e-06
0.000453778
8.3052e-06
0.000445585
8.19295e-06
0.000437513
8.07244e-06
0.000429569
7.9435e-06
0.000421763
7.80637e-06
0.000414102
7.66068e-06
0.000406595
7.50695e-06
0.000399251
7.3444e-06
0.000392077
7.17413e-06
0.000385082
6.99461e-06
0.000378274
6.80802e-06
0.000371663
6.61141e-06
0.000365254
6.409e-06
0.000359059
6.19512e-06
0.000353081
5.97777e-06
0.000347335
5.74621e-06
0.000341819
5.51537e-06
0.000336554
5.26514e-06
0.000331531
5.0231e-06
0.000326779
4.75189e-06
0.000322277
4.50223e-06
0.000318072
4.20488e-06
0.000314119
3.95336e-06
0.0003105
3.61847e-06
0.000307125
3.37541e-06
0.000304148
2.97663e-06
0.000301383
2.76498e-06
0.000299149
2.23456e-06
0.000297034
2.11478e-06
0.000295794
1.23956e-06
0.000294322
1.47231e-06
0.000294539
-2.17285e-07
0.000293385
1.15464e-06
-3.20733e-06
0.000296592
0.000667556
8.0295e-07
0.00066912
2.33784e-06
0.000670854
3.58734e-06
0.000672525
4.56527e-06
0.000674054
5.34602e-06
0.000675427
5.99837e-06
0.000676639
6.56397e-06
0.00067768
7.06122e-06
0.000678539
7.49716e-06
0.000679209
7.87624e-06
0.00067969
8.20407e-06
0.000679987
8.48759e-06
0.000680107
8.73381e-06
0.00068006
8.94858e-06
0.000679854
9.13623e-06
0.000679495
9.29968e-06
0.000678991
9.44108e-06
0.000678348
9.56201e-06
0.000677574
9.66391e-06
0.000676676
9.74784e-06
0.00067566
9.81493e-06
0.000674534
9.86572e-06
0.000673302
9.90104e-06
0.000671973
9.92095e-06
0.000670551
9.9262e-06
0.000669043
9.91637e-06
0.000667456
9.89235e-06
0.000665796
9.8532e-06
0.000664068
9.80021e-06
0.00066228
9.73169e-06
0.000660437
9.64972e-06
0.000658546
9.55143e-06
0.000656613
9.44032e-06
0.000654645
9.31163e-06
0.000652648
9.17125e-06
0.000650632
9.01134e-06
0.000648598
8.84174e-06
0.00064656
8.64956e-06
0.000644517
8.45122e-06
0.000642487
8.22538e-06
0.000640466
7.99939e-06
0.000638474
7.73797e-06
0.000636503
7.48643e-06
0.000634581
7.18641e-06
0.000632692
6.91296e-06
0.000630874
6.56953e-06
0.000629096
6.28027e-06
0.000627415
5.88551e-06
0.000625778
5.59044e-06
0.000624265
5.13145e-06
0.000622794
4.84693e-06
0.000621467
4.30323e-06
0.000620176
4.0557e-06
0.000619014
3.39654e-06
0.000617902
3.22692e-06
0.000616729
2.41277e-06
0.000615825
2.37609e-06
0.000614219
1.38872e-06
0.00061384
1.53436e-06
4.41956e-07
0.00061019
0.000666951
5.1866e-07
0.000667819
1.47017e-06
0.000669059
2.34732e-06
0.000670484
3.14019e-06
0.000671985
3.84464e-06
0.000673515
4.46831e-06
0.000675056
5.02342e-06
0.000676596
5.52108e-06
0.000678124
5.96911e-06
0.000679628
6.3724e-06
0.000681097
6.73451e-06
0.000682526
7.05869e-06
0.000683912
7.34846e-06
0.000685253
7.60731e-06
0.000686551
7.83851e-06
0.000687806
8.04468e-06
0.000689019
8.22806e-06
0.00069019
8.39018e-06
0.000691322
8.53254e-06
0.000692414
8.65604e-06
0.000693467
8.76185e-06
0.000694482
8.85037e-06
0.00069546
8.92262e-06
0.000696403
8.97851e-06
0.00069731
9.01902e-06
0.000698183
9.04352e-06
0.000699022
9.05315e-06
0.000699829
9.04668e-06
0.000700603
9.02567e-06
0.000701347
8.98807e-06
0.00070206
8.9362e-06
0.000702745
8.86688e-06
0.000703401
8.78366e-06
0.000704031
8.68173e-06
0.000704636
8.56655e-06
0.000705217
8.43088e-06
0.000705775
8.28309e-06
0.000706312
8.1124e-06
0.000706832
7.93146e-06
0.000707333
7.72437e-06
0.000707823
7.50996e-06
0.000708296
7.26499e-06
0.000708765
7.01712e-06
0.000709218
6.73279e-06
0.000709679
6.45193e-06
0.000710122
6.12689e-06
0.000710588
5.81408e-06
0.000711026
5.44739e-06
0.000711513
5.10425e-06
0.000711948
4.6959e-06
0.000712471
4.32433e-06
0.000712898
3.87643e-06
0.000713475
3.47817e-06
0.000713874
2.9981e-06
0.000714526
2.57435e-06
0.000714856
2.0826e-06
0.000715599
1.63319e-06
0.000715808
1.18002e-06
0.000716649
6.93135e-07
3.80321e-07
0.000716711
0.000666854
3.31504e-07
0.000667309
1.01538e-06
0.000667972
1.68395e-06
0.000668796
2.31651e-06
0.000669736
2.90384e-06
0.000670762
3.44306e-06
0.000671849
3.93571e-06
0.000672985
4.38545e-06
0.000674158
4.79621e-06
0.000675359
5.17119e-06
0.000676581
5.51292e-06
0.000677816
5.82345e-06
0.00067906
6.10475e-06
0.000680308
6.35881e-06
0.000681559
6.58765e-06
0.000682811
6.79308e-06
0.000684062
6.9768e-06
0.000685312
7.14013e-06
0.00068656
7.28427e-06
0.000687806
7.41007e-06
0.00068905
7.51841e-06
0.00069029
7.60982e-06
0.000691528
7.68497e-06
0.000692762
7.74409e-06
0.000693994
7.78771e-06
0.000695221
7.8158e-06
0.000696446
7.82876e-06
0.000697666
7.82635e-06
0.000698883
7.80889e-06
0.000700095
7.77597e-06
0.000701303
7.72785e-06
0.000702506
7.66399e-06
0.000703705
7.58458e-06
0.000704898
7.48906e-06
0.000706087
7.37743e-06
0.000707269
7.24936e-06
0.000708447
7.10435e-06
0.000709617
6.94274e-06
0.000710785
6.76298e-06
0.000711943
6.56689e-06
0.000713102
6.35078e-06
0.000714248
6.11949e-06
0.0007154
5.86517e-06
0.000716534
5.59838e-06
0.000717682
5.30355e-06
0.000718808
5.00171e-06
0.000719958
4.66345e-06
0.000721077
4.32848e-06
0.000722238
3.94307e-06
0.000723354
3.57964e-06
0.000724536
3.14255e-06
0.000725653
2.76019e-06
0.000726865
2.26556e-06
0.000727982
1.88119e-06
0.000729236
1.32025e-06
0.000730357
9.61984e-07
0.000731667
3.23323e-07
0.000732806
4.06473e-08
0.000734253
-7.54013e-07
-9.20697e-07
0.000735554
0.000666738
2.5976e-07
0.00066697
7.8409e-07
0.000667356
1.29758e-06
0.000667879
1.79323e-06
0.000668518
2.26514e-06
0.000669251
2.70972e-06
0.000670062
3.12551e-06
0.000670934
3.51261e-06
0.000671859
3.87188e-06
0.000672826
4.20445e-06
0.000673827
4.51142e-06
0.000674857
4.79375e-06
0.000675909
5.0524e-06
0.00067698
5.28833e-06
0.000678065
5.50258e-06
0.000679162
5.69617e-06
0.000680268
5.87009e-06
0.000681383
6.02526e-06
0.000682505
6.16245e-06
0.000683633
6.28236e-06
0.000684766
6.38554e-06
0.000685903
6.47251e-06
0.000687044
6.54361e-06
0.000688189
6.59927e-06
0.000689337
6.63959e-06
0.000690488
6.66496e-06
0.000691642
6.6752e-06
0.000692797
6.67076e-06
0.000693955
6.65111e-06
0.000695114
6.61688e-06
0.000696275
6.56707e-06
0.000697436
6.50271e-06
0.000698599
6.42209e-06
0.000699761
6.32697e-06
0.000700924
6.21452e-06
0.000702085
6.08782e-06
0.000703247
5.94222e-06
0.000704407
5.78301e-06
0.000705567
5.60259e-06
0.000706724
5.40995e-06
0.000707882
5.19271e-06
0.000709036
4.96589e-06
0.000710192
4.70941e-06
0.000711342
4.44811e-06
0.000712496
4.1495e-06
0.000713644
3.85422e-06
0.000714797
3.50977e-06
0.000715944
3.18205e-06
0.0007171
2.78635e-06
0.000718251
2.42879e-06
0.00071942
1.97332e-06
0.00072059
1.59037e-06
0.000721794
1.06223e-06
0.000723013
6.61759e-07
0.000724299
3.45038e-08
0.000725605
-3.43883e-07
0.000726977
-1.04934e-06
0.000728429
-1.41089e-06
0.00072995
-2.27485e-06
-2.58731e-06
0.000731616
0.000666724
2.02425e-07
0.000666899
6.0903e-07
0.000667184
1.01288e-06
0.00066757
1.40746e-06
0.000668046
1.78905e-06
0.000668601
2.15472e-06
0.000669224
2.50242e-06
0.000669905
2.83093e-06
0.000670638
3.13967e-06
0.000671414
3.42853e-06
0.000672227
3.69757e-06
0.000673074
3.94708e-06
0.000673949
4.17739e-06
0.000674848
4.38897e-06
0.000675769
4.58227e-06
0.000676707
4.75782e-06
0.000677661
4.91612e-06
0.000678629
5.05773e-06
0.000679608
5.18307e-06
0.000680598
5.29263e-06
0.000681597
5.38672e-06
0.000682603
5.46576e-06
0.000683617
5.52986e-06
0.000684637
5.57944e-06
0.000685662
5.61442e-06
0.000686692
5.63521e-06
0.000687725
5.64148e-06
0.000688762
5.63375e-06
0.000689802
5.61134e-06
0.000690844
5.57498e-06
0.000691888
5.52352e-06
0.000692932
5.4581e-06
0.000693978
5.37687e-06
0.000695023
5.28168e-06
0.000696068
5.1696e-06
0.000697112
5.04369e-06
0.000698155
4.89933e-06
0.000699196
4.74157e-06
0.000700236
4.56316e-06
0.000701273
4.37228e-06
0.000702308
4.15761e-06
0.000703342
3.93228e-06
0.000704373
3.67859e-06
0.000705403
3.41747e-06
0.000706432
3.12119e-06
0.000707463
2.82304e-06
0.000708493
2.47974e-06
0.000709531
2.14419e-06
0.000710568
1.74905e-06
0.000711619
1.37788e-06
0.000712666
9.25881e-07
0.000713733
5.24181e-07
0.000714779
1.57279e-08
0.000715875
-4.34194e-07
0.000716959
-1.04954e-06
0.000718125
-1.50966e-06
0.000719303
-2.22725e-06
0.000720588
-2.69602e-06
0.000721868
-3.55438e-06
-4.01068e-06
0.000723291
0.000666708
1.60696e-07
0.000666834
4.83803e-07
0.000667041
8.06007e-07
0.000667325
1.12275e-06
0.000667683
1.43148e-06
0.000668107
1.73008e-06
0.000668593
2.01683e-06
0.000669133
2.29049e-06
0.000669723
2.5503e-06
0.000670355
2.79591e-06
0.000671027
3.02596e-06
0.000671734
3.24057e-06
0.000672471
3.43986e-06
0.000673236
3.62394e-06
0.000674025
3.79292e-06
0.000674836
3.94702e-06
0.000675666
4.08642e-06
0.000676512
4.21138e-06
0.000677373
4.3221e-06
0.000678247
4.41886e-06
0.000679132
4.50177e-06
0.000680027
4.57109e-06
0.00068093
4.62685e-06
0.00068184
4.66929e-06
0.000682756
4.6983e-06
0.000683677
4.71413e-06
0.000684602
4.71648e-06
0.00068553
4.7057e-06
0.00068646
4.68121e-06
0.000687392
4.6435e-06
0.000688324
4.59166e-06
0.000689255
4.52644e-06
0.000690186
4.44641e-06
0.000691115
4.35281e-06
0.000692041
4.24344e-06
0.000692964
4.12032e-06
0.000693883
3.9801e-06
0.000694799
3.82607e-06
0.000695709
3.65309e-06
0.000696615
3.46651e-06
0.000697514
3.25846e-06
0.000698409
3.03751e-06
0.000699296
2.79159e-06
0.000700179
2.53443e-06
0.000701052
2.24739e-06
0.000701923
1.95219e-06
0.000702783
1.61964e-06
0.000703644
1.28363e-06
0.000704495
8.98282e-07
0.000705356
5.16844e-07
0.000706215
6.62292e-08
0.000707094
-3.54412e-07
0.000707976
-8.66214e-07
0.000708879
-1.33741e-06
0.000709767
-1.93699e-06
0.000710712
-2.45551e-06
0.000711645
-3.15953e-06
0.00071267
-3.72138e-06
0.000713673
-4.55727e-06
-5.15214e-06
0.000714814
0.000666699
1.2866e-07
0.000666796
3.86974e-07
0.000666957
6.4493e-07
0.00066718
8.99334e-07
0.000667463
1.14845e-06
0.000667802
1.39074e-06
0.000668194
1.62488e-06
0.000668635
1.84979e-06
0.000669121
2.06458e-06
0.000669648
2.26854e-06
0.000670213
2.46103e-06
0.000670812
2.64167e-06
0.000671442
2.81022e-06
0.000672099
2.96659e-06
0.000672781
3.1107e-06
0.000673486
3.24254e-06
0.00067421
3.36211e-06
0.000674952
3.46945e-06
0.000675709
3.5646e-06
0.000676481
3.64765e-06
0.000677264
3.71862e-06
0.000678057
3.77761e-06
0.00067886
3.82457e-06
0.000679669
3.8596e-06
0.000680485
3.88259e-06
0.000681305
3.89363e-06
0.000682129
3.89248e-06
0.000682956
3.87927e-06
0.000683783
3.8536e-06
0.000684611
3.81565e-06
0.000685438
3.76482e-06
0.000686263
3.70138e-06
0.000687085
3.62446e-06
0.000687903
3.53453e-06
0.000688717
3.43028e-06
0.000689524
3.31254e-06
0.000690325
3.17939e-06
0.000691119
3.03224e-06
0.000691904
2.86822e-06
0.000692681
2.6897e-06
0.000693447
2.4924e-06
0.000694204
2.2802e-06
0.000694949
2.04665e-06
0.000695685
1.798e-06
0.000696408
1.52453e-06
0.000697124
1.23634e-06
0.000697825
9.18829e-07
0.00069852
5.88395e-07
0.000699195
2.23524e-07
0.000699866
-1.5432e-07
0.000700516
-5.84044e-07
0.000701179
-1.01734e-06
0.000701823
-1.51043e-06
0.000702487
-2.0007e-06
0.000703123
-2.57329e-06
0.000703796
-3.12813e-06
0.000704433
-3.79646e-06
0.000705131
-4.41988e-06
0.000705777
-5.20326e-06
-5.89546e-06
0.00070652
0.000666693
1.02487e-07
0.000666772
3.08106e-07
0.000666903
5.13588e-07
0.000667086
7.16602e-07
0.000667318
9.1592e-07
0.000667599
1.11043e-06
0.000667924
1.29911e-06
0.000668293
1.48109e-06
0.000668702
1.65559e-06
0.000669149
1.82199e-06
0.00066963
1.97976e-06
0.000670143
2.12846e-06
0.000670686
2.26778e-06
0.000671255
2.39745e-06
0.000671848
2.5173e-06
0.000672463
2.62719e-06
0.000673099
2.727e-06
0.000673751
2.81668e-06
0.00067442
2.89614e-06
0.000675102
2.96536e-06
0.000675796
3.02429e-06
0.000676501
3.07291e-06
0.000677215
3.11115e-06
0.000677935
3.13899e-06
0.000678661
3.15632e-06
0.000679392
3.16309e-06
0.000680125
3.15916e-06
0.00068086
3.14444e-06
0.000681595
3.11872e-06
0.000682329
3.0819e-06
0.00068306
3.03365e-06
0.000683787
2.97387e-06
0.00068451
2.90211e-06
0.000685226
2.81828e-06
0.000685935
2.72174e-06
0.000686635
2.61244e-06
0.000687324
2.48953e-06
0.000688004
2.35303e-06
0.00068867
2.20179e-06
0.000689324
2.03597e-06
0.000689962
1.854e-06
0.000690586
1.6563e-06
0.000691192
1.44074e-06
0.000691782
1.20813e-06
0.000692351
9.55521e-07
0.000692903
6.84338e-07
0.000693431
3.90446e-07
0.000693943
7.68523e-08
0.000694433
-2.66456e-07
0.000694911
-6.32678e-07
0.000695357
-1.03024e-06
0.000695793
-1.45285e-06
0.000696195
-1.91273e-06
0.000696594
-2.39979e-06
0.000696953
-2.93235e-06
0.00069732
-3.49435e-06
0.000697636
-4.11281e-06
0.000697978
-4.7616e-06
0.000698255
-5.48109e-06
-6.22782e-06
0.000698588
0.000666689
8.04179e-08
0.000666755
2.41691e-07
0.000666866
4.02921e-07
0.00066702
5.62381e-07
0.000667217
7.19183e-07
0.000667455
8.72512e-07
0.000667732
1.02161e-06
0.000668047
1.16581e-06
0.000668399
1.30448e-06
0.000668783
1.43712e-06
0.0006692
1.56325e-06
0.000669646
1.68249e-06
0.000670119
1.7945e-06
0.000670618
1.899e-06
0.000671139
1.99577e-06
0.000671682
2.08461e-06
0.000672243
2.16537e-06
0.000672822
2.23793e-06
0.000673416
2.30215e-06
0.000674024
2.35796e-06
0.000674643
2.40525e-06
0.000675272
2.44394e-06
0.000675909
2.47396e-06
0.000676553
2.49518e-06
0.000677201
2.50754e-06
0.000677854
2.51089e-06
0.000678508
2.50513e-06
0.000679162
2.49007e-06
0.000679815
2.46561e-06
0.000680466
2.43147e-06
0.000681112
2.38753e-06
0.000681752
2.33344e-06
0.000682385
2.26904e-06
0.00068301
2.19386e-06
0.000683624
2.10778e-06
0.000684226
2.01012e-06
0.000684815
1.90082e-06
0.000685389
1.77893e-06
0.000685946
1.64454e-06
0.000686486
1.49628e-06
0.000687005
1.33452e-06
0.000687504
1.15727e-06
0.000687979
9.6543e-07
0.000688431
7.56036e-07
0.000688856
5.31021e-07
0.000689254
2.86073e-07
0.000689619
2.61182e-08
0.00068996
-2.64518e-07
0.000690266
-5.72186e-07
0.000690542
-9.09147e-07
0.000690777
-1.26509e-06
0.000690982
-1.65819e-06
0.00069114
-2.07027e-06
0.00069127
-2.52988e-06
0.000691344
-3.00652e-06
0.000691395
-3.54564e-06
0.000691379
-4.09654e-06
0.000691349
-4.73144e-06
0.000691234
-5.36633e-06
-6.11516e-06
0.000691122
0.000666686
6.12899e-08
0.000666743
1.84165e-07
0.000666839
3.07036e-07
0.000666973
4.28636e-07
0.000667144
5.48326e-07
0.000667351
6.65514e-07
0.000667593
7.79651e-07
0.000667868
8.90224e-07
0.000668176
9.96773e-07
0.000668514
1.09888e-06
0.000668881
1.19617e-06
0.000669276
1.28831e-06
0.000669695
1.37502e-06
0.000670138
1.45603e-06
0.000670603
1.53114e-06
0.000671087
1.60014e-06
0.00067159
1.66287e-06
0.000672108
1.7192e-06
0.000672642
1.76899e-06
0.000673187
1.81211e-06
0.000673744
1.84849e-06
0.00067431
1.87798e-06
0.000674884
1.90052e-06
0.000675463
1.91595e-06
0.000676046
1.92423e-06
0.000676632
1.92516e-06
0.000677218
1.91868e-06
0.000677804
1.90457e-06
0.000678387
1.88276e-06
0.000678965
1.85293e-06
0.000679538
1.81506e-06
0.000680102
1.76869e-06
0.000680658
1.71386e-06
0.000681201
1.6499e-06
0.000681732
1.57699e-06
0.000682248
1.49416e-06
0.000682747
1.40179e-06
0.000683228
1.29847e-06
0.000683687
1.18498e-06
0.000684124
1.0592e-06
0.000684536
9.2259e-07
0.000684922
7.71922e-07
0.000685277
6.09834e-07
0.000685602
4.31382e-07
0.000685892
2.41235e-07
0.000686145
3.2482e-08
0.000686364
-1.92602e-07
0.000686542
-4.42089e-07
0.000686673
-7.0325e-07
0.000686759
-9.9587e-07
0.000686793
-1.29878e-06
0.000686778
-1.64311e-06
0.000686702
-1.99389e-06
0.000686572
-2.4007e-06
0.000686372
-2.80605e-06
0.000686116
-3.2893e-06
0.000685775
-3.75623e-06
0.000685378
-4.3341e-06
0.00068488
-4.86849e-06
-5.56309e-06
0.000684328
0.000666684
4.42672e-08
0.000666735
1.32995e-07
0.00066682
2.2173e-07
0.000666939
3.0958e-07
0.000667091
3.96101e-07
0.000667276
4.80881e-07
0.000667492
5.6353e-07
0.000667739
6.43687e-07
0.000668014
7.21017e-07
0.000668318
7.95211e-07
0.000668648
8.6599e-07
0.000669004
9.331e-07
0.000669382
9.96314e-07
0.000669783
1.05543e-06
0.000670204
1.11026e-06
0.000670643
1.16064e-06
0.0006711
1.20644e-06
0.000671571
1.24752e-06
0.000672057
1.28377e-06
0.000672554
1.31508e-06
0.000673061
1.34134e-06
0.000673576
1.36245e-06
0.000674098
1.37834e-06
0.000674626
1.38887e-06
0.000675156
1.39398e-06
0.000675687
1.39351e-06
0.000676219
1.38741e-06
0.000676748
1.37546e-06
0.000677273
1.35765e-06
0.000677792
1.33364e-06
0.000678304
1.30349e-06
0.000678806
1.26673e-06
0.000679296
1.22349e-06
0.000679773
1.17309e-06
0.000680234
1.11584e-06
0.000680677
1.05073e-06
0.000681101
9.78335e-07
0.000681502
8.97178e-07
0.000681879
8.08288e-07
0.000682229
7.0943e-07
0.000682549
6.02424e-07
0.000682837
4.83843e-07
0.00068309
3.56838e-07
0.000683305
2.16151e-07
0.000683479
6.73991e-08
0.000683611
-9.99997e-08
0.000683696
-2.76819e-07
0.000683729
-4.75163e-07
0.000683706
-6.80688e-07
0.000683625
-9.14801e-07
0.00068348
-1.15352e-06
0.000683268
-1.43086e-06
0.000682981
-1.70741e-06
0.000682618
-2.03763e-06
0.000682169
-2.35696e-06
0.000681633
-2.75295e-06
0.000680996
-3.11985e-06
0.000680261
-3.59881e-06
0.000679409
-4.01631e-06
-4.6e-06
0.000678446
0.000666682
2.87038e-08
0.000666729
8.62256e-08
0.000666807
1.43753e-07
0.000666916
2.00715e-07
0.000667055
2.56832e-07
0.000667224
3.11841e-07
0.000667422
3.65495e-07
0.000667648
4.17561e-07
0.000667902
4.67821e-07
0.000668181
5.16074e-07
0.000668485
5.62134e-07
0.000668812
6.05829e-07
0.000669161
6.47007e-07
0.000669531
6.85523e-07
0.00066992
7.21254e-07
0.000670327
7.5408e-07
0.000670749
7.83902e-07
0.000671186
8.10617e-07
0.000671636
8.34148e-07
0.000672096
8.544e-07
0.000672566
8.71312e-07
0.000673044
8.84789e-07
0.000673528
8.94782e-07
0.000674015
9.01183e-07
0.000674505
9.03956e-07
0.000674996
9.02968e-07
0.000675485
8.98195e-07
0.000675971
8.89461e-07
0.000676452
8.76768e-07
0.000676926
8.59866e-07
0.00067739
8.38805e-07
0.000677844
8.13226e-07
0.000678284
7.83254e-07
0.000678709
7.48367e-07
0.000679116
7.08827e-07
0.000679503
6.63853e-07
0.000679867
6.13945e-07
0.000680206
5.57922e-07
0.000680518
4.96682e-07
0.000680799
4.28422e-07
0.000681047
3.54707e-07
0.000681258
2.72766e-07
0.000681429
1.85286e-07
0.000681557
8.80537e-08
0.000681639
-1.43504e-08
0.000681671
-1.31641e-07
0.000681648
-2.53519e-07
0.000681564
-3.91533e-07
0.000681417
-5.33558e-07
0.000681199
-6.97168e-07
0.000680908
-8.62297e-07
0.000680534
-1.057e-06
0.000680075
-1.24835e-06
0.000679519
-1.48143e-06
0.000678864
-1.70228e-06
0.000678095
-1.98362e-06
0.000677212
-2.23696e-06
0.000676193
-2.57998e-06
0.000675044
-2.86709e-06
-3.28916e-06
0.000673733
0.000666681
1.40633e-08
0.000666725
4.22378e-08
0.000666799
7.04092e-08
0.000666901
9.83003e-08
0.000667032
1.25775e-07
0.000667191
1.52706e-07
0.000667378
1.78974e-07
0.000667591
2.04465e-07
0.00066783
2.29072e-07
0.000668093
2.52696e-07
0.00066838
2.75245e-07
0.000668689
2.96633e-07
0.000669019
3.16783e-07
0.000669369
3.35622e-07
0.000669737
3.53088e-07
0.000670122
3.69117e-07
0.000670523
3.83659e-07
0.000670937
3.9666e-07
0.000671363
4.08079e-07
0.000671799
4.17865e-07
0.000672244
4.25985e-07
0.000672697
4.32389e-07
0.000673155
4.37051e-07
0.000673616
4.39912e-07
0.000674079
4.40954e-07
0.000674542
4.40104e-07
0.000675003
4.37352e-07
0.000675459
4.32601e-07
0.00067591
4.25857e-07
0.000676353
4.16983e-07
0.000676786
4.0601e-07
0.000677206
3.92743e-07
0.000677612
3.77259e-07
0.000678002
3.59269e-07
0.000678371
3.38929e-07
0.00067872
3.15807e-07
0.000679043
2.90195e-07
0.00067934
2.6144e-07
0.000679606
2.30058e-07
0.00067984
1.95052e-07
0.000680037
1.57315e-07
0.000680195
1.15309e-07
0.000680309
7.05663e-08
0.000680377
2.07826e-08
0.000680395
-3.22852e-08
0.000680355
-9.23344e-08
0.000680256
-1.5476e-07
0.000680091
-2.25801e-07
0.000679856
-2.98598e-07
0.000679542
-3.82975e-07
0.000679147
-4.67632e-07
0.000678658
-5.68287e-07
0.000678076
-6.66401e-07
0.000677382
-7.87266e-07
0.00067658
-9.00475e-07
0.000675644
-1.04691e-06
0.000674583
-1.17663e-06
0.000673359
-1.35599e-06
0.000671995
-1.50264e-06
-1.72454e-06
0.00067043
0.000666681
-1.28282e-10
0.000666723
-3.99227e-10
0.000666795
-6.83267e-10
0.000666894
-9.79729e-10
0.000667021
-1.28748e-09
0.000667175
-1.60536e-09
0.000667356
-1.93228e-09
0.000667563
-2.26722e-09
0.000667795
-2.60921e-09
0.00066805
-2.95732e-09
0.000668329
-3.31069e-09
0.000668629
-3.66848e-09
0.00066895
-4.02989e-09
0.00066929
-4.39414e-09
0.000669648
-4.76047e-09
0.000670022
-5.1282e-09
0.000670411
-5.49678e-09
0.000670814
-5.86573e-09
0.000671228
-6.23467e-09
0.000671652
-6.60326e-09
0.000672085
-6.9712e-09
0.000672525
-7.33824e-09
0.00067297
-7.70416e-09
0.000673418
-8.06884e-09
0.000673867
-8.43222e-09
0.000674316
-8.79435e-09
0.000674763
-9.15535e-09
0.000675205
-9.51543e-09
0.000675641
-9.8748e-09
0.000676068
-1.02338e-08
0.000676484
-1.05928e-08
0.000676888
-1.09524e-08
0.000677277
-1.13129e-08
0.000677648
-1.16751e-08
0.000677999
-1.20394e-08
0.000678327
-1.24063e-08
0.00067863
-1.27763e-08
0.000678904
-1.31498e-08
0.000679148
-1.35276e-08
0.000679357
-1.39117e-08
0.000679528
-1.43066e-08
0.000679658
-1.47216e-08
0.000679744
-1.51744e-08
0.000679781
-1.56537e-08
0.000679765
-1.6143e-08
0.000679689
-1.65973e-08
0.000679551
-1.70593e-08
0.000679343
-1.75463e-08
0.000679062
-1.8066e-08
0.000678698
-1.86101e-08
0.000678249
-1.91823e-08
0.000677701
-1.9776e-08
0.000677055
-2.04031e-08
0.000676289
-2.10551e-08
0.00067541
-2.17484e-08
0.000674386
-2.24688e-08
0.000673232
-2.32381e-08
0.0006719
-2.40354e-08
0.000670422
-2.48879e-08
-2.57679e-08
0.000668724
0.000666681
-1.43191e-08
0.000666723
-4.30314e-08
0.000666795
-7.17685e-08
0.000666894
-1.0025e-07
0.000667021
-1.28337e-07
0.000667175
-1.559e-07
0.000667356
-1.82819e-07
0.000667563
-2.08976e-07
0.000667794
-2.34264e-07
0.00066805
-2.5858e-07
0.000668329
-2.81832e-07
0.000668629
-3.03932e-07
0.00066895
-3.24802e-07
0.00066929
-3.44366e-07
0.000669647
-3.6256e-07
0.000670022
-3.79321e-07
0.000670411
-3.94597e-07
0.000670813
-4.08332e-07
0.000671227
-4.20484e-07
0.000671652
-4.31003e-07
0.000672085
-4.39856e-07
0.000672524
-4.4699e-07
0.000672969
-4.52379e-07
0.000673417
-4.55966e-07
0.000673866
-4.57731e-07
0.000674315
-4.57601e-07
0.000674761
-4.55567e-07
0.000675203
-4.51532e-07
0.000675639
-4.45502e-07
0.000676066
-4.37342e-07
0.000676483
-4.27084e-07
0.000676886
-4.14532e-07
0.000677275
-3.99764e-07
0.000677646
-3.82494e-07
0.000677996
-3.62879e-07
0.000678324
-3.40488e-07
0.000678627
-3.15614e-07
0.000678902
-2.87606e-07
0.000679145
-2.56981e-07
0.000679354
-2.22741e-07
0.000679525
-1.85776e-07
0.000679655
-1.44545e-07
0.000679741
-1.00564e-07
0.000679777
-5.14756e-08
0.000679761
-2.77921e-10
0.000679685
5.93441e-08
0.000679547
1.20845e-07
0.000679338
1.90899e-07
0.000679058
2.62662e-07
0.000678693
3.4597e-07
0.000678244
4.295e-07
0.000677696
5.28985e-07
0.000677049
6.25856e-07
0.000676283
7.45433e-07
0.000675404
8.57265e-07
0.000674379
1.00228e-06
0.000673225
1.13047e-06
0.000671893
1.30826e-06
0.000670415
1.4532e-06
1.67336e-06
0.000668716
0.000666681
-2.89555e-08
0.000666725
-8.70069e-08
0.000666799
-1.45091e-07
0.000666901
-2.02635e-07
0.000667032
-2.59355e-07
0.000667191
-3.14987e-07
0.000667378
-3.69282e-07
0.000667591
-4.22004e-07
0.000667829
-4.72934e-07
0.000668093
-5.21869e-07
0.000668379
-5.68621e-07
0.000668688
-6.13018e-07
0.000669019
-6.54903e-07
0.000669368
-6.94133e-07
0.000669736
-7.30581e-07
0.000670121
-7.64127e-07
0.000670521
-7.9467e-07
0.000670935
-8.22108e-07
0.000671361
-8.46361e-07
0.000671797
-8.67334e-07
0.000672242
-8.84966e-07
0.000672694
-8.99161e-07
0.000673152
-9.0987e-07
0.000673613
-9.16984e-07
0.000674076
-9.20468e-07
0.000674538
-9.20187e-07
0.000674999
-9.1612e-07
0.000675455
-9.0809e-07
0.000675906
-8.96099e-07
0.000676349
-8.79899e-07
0.000676781
-8.59539e-07
0.000677201
-8.34661e-07
0.000677607
-8.05394e-07
0.000677995
-7.71214e-07
0.000678365
-7.32385e-07
0.000678713
-6.88129e-07
0.000679036
-6.38945e-07
0.000679332
-5.83655e-07
0.000679598
-5.23159e-07
0.000679831
-4.55654e-07
0.000680028
-3.82708e-07
0.000680185
-3.01546e-07
0.000680299
-2.14855e-07
0.000680366
-1.1837e-07
0.000680383
-1.69705e-08
0.000680343
9.91056e-08
0.000680244
2.20155e-07
0.000680077
3.57252e-07
0.000679842
4.98281e-07
0.000679527
6.60851e-07
0.000679132
8.24875e-07
0.000678642
1.01844e-06
0.000678059
1.20858e-06
0.000677364
1.44041e-06
0.000676562
1.65993e-06
0.000675624
1.9399e-06
0.000674563
2.19174e-06
0.000673338
2.53326e-06
0.000671972
2.81869e-06
3.23914e-06
0.000670407
0.000666682
-4.45127e-08
0.000666729
-1.33757e-07
0.000666807
-2.23036e-07
0.000666916
-3.11452e-07
0.000667055
-3.98561e-07
0.000667224
-4.83948e-07
0.000667422
-5.67221e-07
0.000667648
-6.48018e-07
0.000667901
-7.26001e-07
0.00066818
-8.00859e-07
0.000668484
-8.72313e-07
0.000668811
-9.40105e-07
0.00066916
-1.00401e-06
0.000669529
-1.06381e-06
0.000669918
-1.11934e-06
0.000670325
-1.17043e-06
0.000670747
-1.21693e-06
0.000671183
-1.25872e-06
0.000671633
-1.29567e-06
0.000672093
-1.32767e-06
0.000672563
-1.35464e-06
0.00067304
-1.37645e-06
0.000673523
-1.39303e-06
0.00067401
-1.40425e-06
0.0006745
-1.41006e-06
0.00067499
-1.41027e-06
0.000675479
-1.40486e-06
0.000675964
-1.39359e-06
0.000676445
-1.37646e-06
0.000676918
-1.35314e-06
0.000677382
-1.32366e-06
0.000677835
-1.28758e-06
0.000678275
-1.24502e-06
0.000678699
-1.19531e-06
0.000679105
-1.13875e-06
0.000679491
-1.07434e-06
0.000679855
-1.00264e-06
0.000680194
-9.22195e-07
0.000680504
-8.34024e-07
0.000680785
-7.35893e-07
0.000681032
-6.29628e-07
0.000681242
-5.11791e-07
0.000681413
-3.85543e-07
0.00068154
-2.456e-07
0.00068162
-9.75123e-08
0.000681651
6.83465e-08
0.000681627
2.44445e-07
0.000681542
4.41909e-07
0.000681394
6.46476e-07
0.000681175
8.79602e-07
0.000680883
1.11727e-06
0.000680508
1.39353e-06
0.000680047
1.66892e-06
0.00067949
1.99797e-06
0.000678834
2.316e-06
0.000678063
2.71072e-06
0.000677178
3.07617e-06
0.000676158
3.55376e-06
0.000675007
3.96961e-06
4.55183e-06
0.000673694
0.000666684
-6.15268e-08
0.000666735
-1.849e-07
0.00066682
-3.08295e-07
0.000666939
-4.30441e-07
0.000667091
-5.50698e-07
0.000667276
-6.68472e-07
0.000667492
-7.8321e-07
0.000667738
-8.944e-07
0.000668014
-1.00158e-06
0.000668317
-1.10432e-06
0.000668647
-1.20226e-06
0.000669002
-1.29506e-06
0.00066938
-1.38243e-06
0.000669781
-1.46411e-06
0.000670201
-1.53989e-06
0.00067064
-1.60957e-06
0.000671097
-1.67298e-06
0.000671568
-1.72998e-06
0.000672053
-1.78044e-06
0.000672549
-1.82424e-06
0.000673056
-1.86129e-06
0.000673571
-1.89145e-06
0.000674092
-1.91466e-06
0.000674619
-1.93076e-06
0.000675149
-1.9397e-06
0.00067568
-1.94129e-06
0.00067621
-1.93547e-06
0.000676739
-1.92201e-06
0.000677263
-1.90085e-06
0.000677781
-1.87168e-06
0.000678292
-1.83446e-06
0.000678793
-1.78874e-06
0.000679283
-1.73456e-06
0.000679759
-1.67126e-06
0.000680219
-1.59901e-06
0.000680662
-1.51684e-06
0.000681084
-1.42514e-06
0.000681484
-1.3225e-06
0.00068186
-1.2097e-06
0.000682209
-1.08461e-06
0.000682528
-9.48711e-07
0.000682815
-7.98767e-07
0.000683067
-6.37416e-07
0.000683281
-4.59708e-07
0.000683454
-2.70293e-07
0.000683584
-6.19928e-08
0.000683667
1.61484e-07
0.000683699
4.10218e-07
0.000683675
6.70495e-07
0.000683592
9.62201e-07
0.000683445
1.26411e-06
0.000683231
1.60746e-06
0.000682943
1.95713e-06
0.000682578
2.36288e-06
0.000682127
2.76699e-06
0.000681589
3.24909e-06
0.00068095
3.71463e-06
0.000680213
4.29129e-06
0.000679358
4.82409e-06
5.51744e-06
0.000678393
0.000666686
-8.06439e-08
0.000666743
-2.42392e-07
0.000666839
-4.04121e-07
0.000666973
-5.64102e-07
0.000667144
-7.21445e-07
0.00066735
-8.75331e-07
0.000667592
-1.02501e-06
0.000667868
-1.16979e-06
0.000668175
-1.30906e-06
0.000668513
-1.4423e-06
0.00066888
-1.56905e-06
0.000669274
-1.68892e-06
0.000669693
-1.80156e-06
0.000670135
-1.90669e-06
0.0006706
-2.0041e-06
0.000671084
-2.09359e-06
0.000671586
-2.17499e-06
0.000672104
-2.24818e-06
0.000672636
-2.31305e-06
0.000673182
-2.3695e-06
0.000673738
-2.41743e-06
0.000674303
-2.45676e-06
0.000674876
-2.4874e-06
0.000675454
-2.50926e-06
0.000676037
-2.52224e-06
0.000676622
-2.52622e-06
0.000677207
-2.52108e-06
0.000677792
-2.50665e-06
0.000678374
-2.48279e-06
0.000678952
-2.44928e-06
0.000679523
-2.40595e-06
0.000680087
-2.35247e-06
0.000680641
-2.28869e-06
0.000681184
-2.21413e-06
0.000681714
-2.12866e-06
0.000682228
-2.03163e-06
0.000682726
-1.92296e-06
0.000683205
-1.80171e-06
0.000683664
-1.66796e-06
0.000684099
-1.52036e-06
0.00068451
-1.35927e-06
0.000684894
-1.18269e-06
0.000685248
-9.91547e-07
0.000685571
-7.82856e-07
0.000685859
-5.5856e-07
0.000686112
-3.14297e-07
0.000686328
-5.4625e-08
0.000686504
2.34277e-07
0.000686633
5.41222e-07
0.000686718
8.77391e-07
0.00068675
1.23242e-06
0.000686732
1.62462e-06
0.000686654
2.03567e-06
0.000686522
2.49434e-06
0.00068632
2.96982e-06
0.000686061
3.50795e-06
0.000685718
4.05751e-06
0.000685318
4.6914e-06
0.000684817
5.32474e-06
6.07259e-06
0.000684262
0.000666689
-1.027e-07
0.000666755
-3.08767e-07
0.000666866
-5.14719e-07
0.00066702
-7.18223e-07