/*--------------------------------*- C++ -*----------------------------------*\
| =========                 |                                                 |
| \\      /  F ield         | OpenFOAM: The Open Source CFD Toolbox           |
|  \\    /   O peration     | Version:  2312                                  |
|   \\  /    A nd           | Website:  www.openfoam.com                      |
|    \\/     M anipulation  |                                                 |
\*---------------------------------------------------------------------------*/
FoamFile
{
    version     2.0;
    format      ascii;
    arch        "LSB;label=32;scalar=64";
    class       surfaceScalarField;
    location    "66000";
    object      phi;
}
// * * * * * * * * * * * * * * * * * * * * * * * * * * * * * * * * * * * * * //

dimensions      [0 3 -1 0 0 0 0];

oriented        oriented;

internalField   nonuniform List<scalar> 
5250
(
0.000100729
-4.23573e-06
0.00010469
-3.96111e-06
0.000108383
-3.69311e-06
0.000111816
-3.43315e-06
0.000114998
-3.18243e-06
0.00011794
-2.94194e-06
0.000120653
-2.71245e-06
0.000123147
-2.49454e-06
0.000125436
-2.28862e-06
0.000127531
-2.09494e-06
0.000129445
-1.9136e-06
0.000131189
-1.74457e-06
0.000132777
-1.58769e-06
0.00013422
-1.44273e-06
0.000135529
-1.30933e-06
0.000136716
-1.18709e-06
0.000137791
-1.07554e-06
0.000138766
-9.74161e-07
0.000139648
-8.82383e-07
0.000140448
-7.99627e-07
0.000141173
-7.25292e-07
0.000141832
-6.58773e-07
0.000142431
-5.99467e-07
0.000142978
-5.46781e-07
0.000143478
-5.00139e-07
0.000143937
-4.58984e-07
0.00014436
-4.22785e-07
0.000144751
-3.91034e-07
0.000145114
-3.6325e-07
0.000145453
-3.38982e-07
0.000145771
-3.17804e-07
0.00014607
-2.99322e-07
0.000146353
-2.83172e-07
0.000146622
-2.69021e-07
0.000146879
-2.56573e-07
0.000147125
-2.45564e-07
0.00014736
-2.35761e-07
0.000147587
-2.26966e-07
0.000147806
-2.19009e-07
0.000148018
-2.11747e-07
0.000148223
-2.05062e-07
0.000148422
-1.98858e-07
0.000148615
-1.9306e-07
0.000148803
-1.87612e-07
0.000148985
-1.82477e-07
0.000149163
-1.77635e-07
0.000149336
-1.73083e-07
0.000149505
-1.68828e-07
0.00014967
-1.64883e-07
0.000149831
-1.61267e-07
0.000149989
-1.5799e-07
0.000150144
-1.55061e-07
0.000150296
-1.52477e-07
0.000150447
-1.50234e-07
0.000150595
-1.48325e-07
0.000150742
-1.46745e-07
0.000150887
-1.45488e-07
0.000151032
-1.44536e-07
0.000151176
-1.43863e-07
0.000151319
-1.43436e-07
0.000151462
-1.4322e-07
0.000151605
-1.4318e-07
0.000151749
-1.4328e-07
0.000151892
-1.43477e-07
0.000152036
-1.43733e-07
0.00015218
-1.43992e-07
0.000152324
-1.44209e-07
0.000152468
-1.44318e-07
0.000152613
-1.44274e-07
0.000152757
-1.44008e-07
0.0001529
-1.43474e-07
0.000153043
-1.4261e-07
0.000153184
-1.41373e-07
0.000153324
-1.39713e-07
0.000153461
-1.376e-07
0.000153596
-1.34986e-07
0.000153728
-1.31881e-07
0.000153857
-1.28222e-07
0.000153981
-1.24071e-07
0.0001541
-1.19373e-07
0.000154214
-1.14162e-07
0.000154323
-1.08531e-07
0.000154425
-1.02211e-07
0.000154521
-9.58369e-08
0.000154609
-8.81231e-08
0.00015469
-8.13478e-08
0.000154761
-7.10954e-08
0.000154826
-6.48071e-08
-4.81554e-08
0.000297876
-1.03092e-05
0.000303668
-9.75245e-06
0.000309181
-9.2061e-06
0.000314421
-8.67292e-06
0.000319393
-8.15519e-06
0.000324106
-7.65485e-06
0.000328567
-7.17346e-06
0.000332785
-6.71226e-06
0.000336768
-6.27216e-06
0.000340527
-5.85381e-06
0.000344071
-5.45761e-06
0.00034741
-5.08371e-06
0.000350555
-4.73209e-06
0.000353515
-4.40251e-06
0.0003563
-4.09458e-06
0.000358921
-3.80779e-06
0.000361387
-3.54147e-06
0.000363707
-3.29488e-06
0.000365892
-3.06716e-06
0.00036795
-2.8574e-06
0.000369889
-2.66464e-06
0.000371718
-2.48788e-06
0.000373445
-2.3261e-06
0.000375076
-2.17828e-06
0.00037662
-2.0434e-06
0.000378081
-1.92048e-06
0.000379467
-1.80853e-06
0.000380782
-1.70662e-06
0.000382033
-1.61383e-06
0.000383223
-1.52929e-06
0.000384358
-1.45219e-06
0.00038544
-1.38172e-06
0.000386474
-1.31717e-06
0.000387463
-1.25785e-06
0.00038841
-1.20317e-06
0.000389317
-1.15257e-06
0.000390186
-1.10559e-06
0.000391021
-1.0618e-06
0.000391823
-1.02087e-06
0.000392594
-9.82477e-07
0.000393335
-9.46391e-07
0.000394049
-9.1241e-07
0.000394736
-8.80386e-07
0.000395399
-8.50214e-07
0.000396038
-8.21831e-07
0.000396656
-7.95208e-07
0.000397253
-7.70343e-07
0.000397831
-7.47244e-07
0.000398392
-7.25922e-07
0.000398937
-7.0638e-07
0.000399468
-6.88599e-07
0.000399985
-6.72537e-07
0.000400491
-6.58124e-07
0.000400986
-6.45262e-07
0.000401472
-6.33827e-07
0.000401949
-6.2368e-07
0.000402418
-6.14668e-07
0.00040288
-6.06637e-07
0.000403335
-5.99434e-07
0.000403785
-5.92913e-07
0.000404229
-5.86938e-07
0.000404667
-5.81371e-07
0.0004051
-5.7609e-07
0.000405527
-5.70944e-07
0.000405949
-5.65806e-07
0.000406366
-5.60491e-07
0.000406776
-5.54863e-07
0.000407181
-5.48711e-07
0.000407578
-5.41899e-07
0.000407969
-5.34225e-07
0.000408351
-5.2556e-07
0.000408724
-5.15774e-07
0.000409087
-5.04721e-07
0.00040944
-4.92432e-07
0.000409781
-4.7869e-07
0.00041011
-4.63797e-07
0.000410425
-4.47327e-07
0.000410727
-4.30015e-07
0.000411014
-4.10968e-07
0.000411286
-3.91676e-07
0.000411542
-3.70235e-07
0.000411783
-3.49704e-07
0.000412007
-3.25874e-07
0.000412217
-3.05353e-07
0.000412407
-2.7858e-07
0.000412586
-2.60244e-07
0.000412744
-2.28655e-07
0.000412895
-2.16268e-07
-1.75307e-07
0.000470815
-1.45654e-05
0.000474892
-1.38295e-05
0.000478793
-1.31078e-05
0.000482524
-1.24036e-05
0.000486089
-1.17197e-05
0.000489492
-1.10584e-05
0.00049274
-1.04217e-05
0.000495839
-9.81087e-06
0.000498794
-9.22715e-06
0.000501611
-8.67123e-06
0.000504297
-8.14358e-06
0.000506858
-7.64438e-06
0.000509299
-7.17357e-06
0.000511628
-6.73093e-06
0.000513849
-6.31602e-06
0.00051597
-5.92826e-06
0.000517995
-5.5669e-06
0.000519931
-5.23109e-06
0.000521784
-4.91985e-06
0.000523559
-4.63212e-06
0.000525261
-4.36675e-06
0.000526896
-4.12256e-06
0.000528468
-3.89833e-06
0.000529982
-3.69281e-06
0.000531444
-3.50475e-06
0.000532856
-3.33294e-06
0.000534224
-3.17615e-06
0.00053555
-3.03317e-06
0.000536839
-2.90284e-06
0.000538094
-2.784e-06
0.000539317
-2.6755e-06
0.000540512
-2.57623e-06
0.00054168
-2.48512e-06
0.000542823
-2.40115e-06
0.000543943
-2.32338e-06
0.000545042
-2.25091e-06
0.000546119
-2.18296e-06
0.000547176
-2.11881e-06
0.000548213
-2.05783e-06
0.00054923
-1.99949e-06
0.000550227
-1.94336e-06
0.000551204
-1.8891e-06
0.00055216
-1.83648e-06
0.000553095
-1.78539e-06
0.000554009
-1.73582e-06
0.000554902
-1.68784e-06
0.000555773
-1.6416e-06
0.000556623
-1.59733e-06
0.000557452
-1.55528e-06
0.000558262
-1.51574e-06
0.000559052
-1.47896e-06
0.000559825
-1.44521e-06
0.000560581
-1.41464e-06
0.000561323
-1.38736e-06
0.000562053
-1.36336e-06
0.000562772
-1.34256e-06
0.000563482
-1.32473e-06
0.000564185
-1.30968e-06
0.000564883
-1.29708e-06
0.000565576
-1.28667e-06
0.000566268
-1.27815e-06
0.000566957
-1.27127e-06
0.000567647
-1.26575e-06
0.000568337
-1.26132e-06
0.000569029
-1.25771e-06
0.000569723
-1.25454e-06
0.00057042
-1.25144e-06
0.000571119
-1.24793e-06
0.000571821
-1.24346e-06
0.000572524
-1.23756e-06
0.000573228
-1.22937e-06
0.000573931
-1.21882e-06
0.000574631
-1.20456e-06
0.000575326
-1.18741e-06
0.000576012
-1.16522e-06
0.000576689
-1.14032e-06
0.000577351
-1.10925e-06
0.000577997
-1.07657e-06
0.000578623
-1.03658e-06
0.000579229
-9.97361e-07
0.000579807
-9.49009e-07
0.000580364
-9.05911e-07
0.000580887
-8.49699e-07
0.000581389
-8.06921e-07
0.000581853
-7.4251e-07
0.000582299
-7.05904e-07
0.000582701
-6.3142e-07
0.000583094
-6.0857e-07
-5.19753e-07
0.000624636
-1.58116e-05
0.000625813
-1.50062e-05
0.000626922
-1.42171e-05
0.000627967
-1.34478e-05
0.000628948
-1.27015e-05
0.00062987
-1.19804e-05
0.000630735
-1.12867e-05
0.000631546
-1.06218e-05
0.000632306
-9.98686e-06
0.000633017
-9.38267e-06
0.000633683
-8.80965e-06
0.000634307
-8.26793e-06
0.000634891
-7.75744e-06
0.000635438
-7.27787e-06
0.000635951
-6.82878e-06
0.000636432
-6.40952e-06
0.000636884
-6.01935e-06
0.000637311
-5.65735e-06
0.000637713
-5.32253e-06
0.000638095
-5.01376e-06
0.000638458
-4.72986e-06
0.000638805
-4.46959e-06
0.000639138
-4.23168e-06
0.00063946
-4.01486e-06
0.000639773
-3.81784e-06
0.00064008
-3.63934e-06
0.000640382
-3.47808e-06
0.000640681
-3.33282e-06
0.000640981
-3.20228e-06
0.000641282
-3.08521e-06
0.000641587
-2.98034e-06
0.000641897
-2.88639e-06
0.000642214
-2.80211e-06
0.000642539
-2.72627e-06
0.000642874
-2.6577e-06
0.000643218
-2.59531e-06
0.000643573
-2.53809e-06
0.000643939
-2.4851e-06
0.000644317
-2.43546e-06
0.000644706
-2.38837e-06
0.000645106
-2.3431e-06
0.000645516
-2.29907e-06
0.000645935
-2.25584e-06
0.000646363
-2.2131e-06
0.000646798
-2.17073e-06
0.000647238
-2.12872e-06
0.000647684
-2.08717e-06
0.000648133
-2.04627e-06
0.000648584
-2.00625e-06
0.000649036
-1.96751e-06
0.000649487
-1.93046e-06
0.000649938
-1.89571e-06
0.000650387
-1.86385e-06
0.000650835
-1.8356e-06
0.000651283
-1.81146e-06
0.000651733
-1.792e-06
0.000652185
-1.77736e-06
0.000652643
-1.76769e-06
0.000653109
-1.76274e-06
0.000653585
-1.76225e-06
0.000654072
-1.76575e-06
0.000654574
-1.7728e-06
0.000655091
-1.78303e-06
0.000655626
-1.79599e-06
0.000656179
-1.81144e-06
0.000656754
-1.82899e-06
0.000657351
-1.8482e-06
0.000657971
-1.86881e-06
0.000658618
-1.88957e-06
0.000659291
-1.91066e-06
0.000659991
-1.92941e-06
0.000660719
-1.94705e-06
0.000661473
-1.95898e-06
0.000662254
-1.9684e-06
0.000663057
-1.96826e-06
0.000663882
-1.96491e-06
0.000664721
-1.94788e-06
0.000665573
-1.92868e-06
0.000666427
-1.89104e-06
0.000667285
-1.85558e-06
0.000668131
-1.79496e-06
0.000668972
-1.74644e-06
0.000669784
-1.66171e-06
0.000670584
-1.60728e-06
0.00067134
-1.49809e-06
0.000672082
-1.44844e-06
0.000672765
-1.31434e-06
0.000673439
-1.28278e-06
-1.12336e-06
0.000727092
-1.45929e-05
0.000725914
-1.38284e-05
0.000724776
-1.30786e-05
0.000723675
-1.2347e-05
0.00072261
-1.16365e-05
0.000721579
-1.09497e-05
0.000720581
-1.02884e-05
0.000719614
-9.65432e-06
0.000718675
-9.04869e-06
0.000717765
-8.47232e-06
0.000716881
-7.92577e-06
0.000716023
-7.40929e-06
0.000715188
-6.92293e-06
0.000714377
-6.46654e-06
0.000713588
-6.03982e-06
0.000712821
-5.64226e-06
0.000712074
-5.27324e-06
0.000711349
-4.932e-06
0.000710644
-4.61759e-06
0.000709959
-4.32897e-06
0.000709294
-4.06497e-06
0.000708649
-3.82438e-06
0.000708024
-3.60598e-06
0.000707417
-3.40861e-06
0.000706831
-3.23116e-06
0.000706264
-3.07258e-06
0.000705718
-2.93184e-06
0.000705193
-2.80789e-06
0.00070469
-2.69958e-06
0.00070421
-2.60564e-06
0.000703755
-2.52468e-06
0.000703324
-2.45514e-06
0.000702917
-2.39538e-06
0.000702534
-2.34377e-06
0.000702175
-2.29873e-06
0.000701839
-2.25884e-06
0.000701524
-2.22289e-06
0.000701228
-2.18987e-06
0.000700952
-2.15894e-06
0.000700693
-2.12944e-06
0.000700451
-2.10087e-06
0.000700225
-2.07285e-06
0.000700014
-2.04521e-06
0.000699819
-2.01793e-06
0.000699639
-1.99111e-06
0.000699475
-1.96496e-06
0.000699328
-1.93963e-06
0.000699197
-1.91527e-06
0.000699082
-1.8919e-06
0.000698985
-1.86965e-06
0.000698903
-1.84859e-06
0.000698836
-1.82915e-06
0.000698784
-1.8118e-06
0.000698746
-1.79745e-06
0.000698721
-1.78692e-06
0.000698711
-1.78134e-06
0.000698715
-1.78145e-06
0.000698735
-1.78797e-06
0.000698774
-1.80115e-06
0.000698832
-1.82098e-06
0.000698914
-1.84721e-06
0.00069902
-1.87923e-06
0.000699154
-1.91665e-06
0.000699316
-1.95872e-06
0.00069951
-2.00509e-06
0.000699737
-2.05538e-06
0.000699997
-2.10884e-06
0.000700294
-2.16594e-06
0.000700629
-2.22453e-06
0.000701005
-2.28642e-06
0.000701423
-2.34694e-06
0.000701885
-2.40988e-06
0.000702394
-2.46711e-06
0.000702951
-2.5254e-06
0.000703554
-2.57208e-06
0.000704208
-2.61875e-06
0.000704906
-2.64594e-06
0.000705652
-2.67422e-06
0.000706433
-2.67206e-06
0.000707255
-2.67734e-06
0.000708096
-2.63634e-06
0.000708968
-2.61837e-06
0.000709837
-2.5311e-06
0.000710726
-2.49572e-06
0.000711586
-2.35826e-06
0.000712455
-2.31772e-06
0.000713271
-2.1298e-06
0.000714089
-2.10122e-06
-1.86639e-06
0.000769415
-1.21672e-05
0.000767095
-1.15087e-05
0.000764877
-1.086e-05
0.000762754
-1.02245e-05
0.000760723
-9.60518e-06
0.000758778
-9.0047e-06
0.000756915
-8.4251e-06
0.000755128
-7.8681e-06
0.000753415
-7.33506e-06
0.00075177
-6.8271e-06
0.000750189
-6.34491e-06
0.000748668
-5.88878e-06
0.000747204
-5.45901e-06
0.000745794
-5.05581e-06
0.000744433
-4.67917e-06
0.00074312
-4.32887e-06
0.000741851
-4.00461e-06
0.000740625
-3.70598e-06
0.00073944
-3.43228e-06
0.000738293
-3.18262e-06
0.000737184
-2.956e-06
0.000736111
-2.75128e-06
0.000735072
-2.5673e-06
0.000734067
-2.40301e-06
0.000733093
-2.25756e-06
0.000732151
-2.13029e-06
0.00073124
-2.02066e-06
0.00073036
-1.92818e-06
0.000729513
-1.85225e-06
0.000728699
-1.79199e-06
0.000727921
-1.74614e-06
0.000727178
-1.71301e-06
0.000726473
-1.69046e-06
0.000725806
-1.67608e-06
0.000725174
-1.66738e-06
0.000724578
-1.66197e-06
0.000724012
-1.65777e-06
0.000723476
-1.65313e-06
0.000722964
-1.6469e-06
0.000722473
-1.63842e-06
0.000721999
-1.62747e-06
0.000721541
-1.61425e-06
0.000721095
-1.59934e-06
0.00072066
-1.58357e-06
0.000720237
-1.56798e-06
0.000719826
-1.55368e-06
0.000719428
-1.54162e-06
0.000719045
-1.53261e-06
0.000718681
-1.52708e-06
0.000718336
-1.52531e-06
0.000718015
-1.52729e-06
0.000717719
-1.53324e-06
0.00071745
-1.54323e-06
0.000717211
-1.55776e-06
0.000717001
-1.57722e-06
0.000716822
-1.60239e-06
0.000716674
-1.63382e-06
0.000716559
-1.67207e-06
0.000716475
-1.71749e-06
0.000716424
-1.77003e-06
0.000716406
-1.82969e-06
0.000716423
-1.89581e-06
0.000716474
-1.96814e-06
0.000716562
-2.04586e-06
0.000716685
-2.1285e-06
0.000716845
-2.21577e-06
0.000717043
-2.30648e-06
0.000717279
-2.40168e-06
0.000717553
-2.49847e-06
0.000717866
-2.60004e-06
0.00071822
-2.70045e-06
0.000718616
-2.80593e-06
0.000719055
-2.90596e-06
0.00071954
-3.01113e-06
0.000720072
-3.10394e-06
0.000720656
-3.20229e-06
0.000721287
-3.277e-06
0.000721973
-3.3601e-06
0.000722702
-3.4016e-06
0.000723486
-3.46091e-06
0.000724301
-3.45153e-06
0.000725164
-3.48164e-06
0.000726038
-3.40479e-06
0.000726949
-3.40701e-06
0.000727842
-3.25132e-06
0.00072876
-3.23573e-06
0.000729629
-2.99794e-06
0.000730509
-2.98163e-06
-2.6681e-06
0.000785024
-9.57581e-06
0.000782533
-9.01693e-06
0.000780136
-8.46321e-06
0.000777829
-7.91761e-06
0.000775607
-7.38279e-06
0.000773463
-6.86146e-06
0.000771394
-6.35623e-06
0.000769395
-5.86911e-06
0.000767462
-5.40149e-06
0.00076559
-4.95482e-06
0.000763775
-4.53034e-06
0.000762015
-4.12852e-06
0.000760306
-3.74987e-06
0.000758645
-3.39485e-06
0.000757029
-3.06359e-06
0.000755456
-2.7561e-06
0.000753924
-2.47233e-06
0.00075243
-2.2122e-06
0.000750974
-1.97552e-06
0.000749553
-1.76186e-06
0.000748167
-1.57027e-06
0.000746815
-1.3996e-06
0.000745497
-1.24878e-06
0.000744211
-1.11677e-06
0.000742956
-1.00272e-06
0.000741731
-9.06005e-07
0.000740537
-8.26253e-07
0.000739372
-7.63321e-07
0.000738237
-7.1713e-07
0.000737133
-6.87445e-07
0.00073606
-6.73623e-07
0.000735021
-6.74405e-07
0.000734019
-6.87815e-07
0.000733054
-7.11206e-07
0.000732128
-7.41455e-07
0.000731241
-7.75266e-07
0.000730393
-8.09491e-07
0.000729581
-8.41399e-07
0.000728803
-8.68894e-07
0.000728055
-8.90638e-07
0.000727334
-9.06114e-07
0.000726635
-9.15604e-07
0.000725956
-9.20118e-07
0.000725294
-9.21286e-07
0.000724647
-9.21152e-07
0.000724015
-9.21999e-07
0.0007234
-9.26025e-07
0.000722802
-9.35226e-07
0.000722226
-9.5109e-07
0.000721676
-9.74731e-07
0.000721155
-1.00659e-06
0.000720669
-1.04723e-06
0.000720223
-1.09666e-06
0.00071982
-1.15506e-06
0.000719465
-1.22243e-06
0.000719162
-1.29892e-06
0.000718912
-1.38453e-06
0.000718719
-1.4791e-06
0.000718584
-1.58237e-06
0.000718508
-1.69377e-06
0.000718491
-1.81291e-06
0.000718534
-1.93853e-06
0.000718636
-2.07e-06
0.000718796
-2.206e-06
0.000719013
-2.34573e-06
0.000719286
-2.48859e-06
0.000719613
-2.63324e-06
0.000719992
-2.78077e-06
0.000720422
-2.92818e-06
0.000720901
-3.0794e-06
0.000721429
-3.22808e-06
0.000722005
-3.3823e-06
0.000722629
-3.52985e-06
0.000723303
-3.68498e-06
0.000724024
-3.82536e-06
0.000724798
-3.97605e-06
0.000725618
-4.09681e-06
0.000726491
-4.23358e-06
0.000727404
-4.31458e-06
0.000728369
-4.42552e-06
0.000729358
-4.44084e-06
0.000730392
-4.51601e-06
0.000731427
-4.43921e-06
0.000732496
-4.47619e-06
0.000733532
-4.28717e-06
0.000734591
-4.29444e-06
0.000735578
-3.9856e-06
0.000736577
-3.98045e-06
-3.56067e-06
0.000812394
-7.02687e-06
0.000809901
-6.52419e-06
0.000807461
-6.02308e-06
0.000805072
-5.52819e-06
0.000802731
-5.04201e-06
0.000800436
-4.56652e-06
0.000798184
-4.10431e-06
0.000795973
-3.65752e-06
0.000793799
-3.22801e-06
0.000791661
-2.81701e-06
0.000789556
-2.42546e-06
0.000787482
-2.05448e-06
0.000785438
-1.70587e-06
0.000783423
-1.37996e-06
0.000781437
-1.07671e-06
0.000779477
-7.96152e-07
0.000777543
-5.38276e-07
0.000775633
-3.02784e-07
0.000773747
-8.90238e-08
0.000771885
1.00201e-07
0.000770047
2.67012e-07
0.000768234
4.13691e-07
0.000766445
5.40423e-07
0.00076468
6.47965e-07
0.00076294
7.37234e-07
0.000761225
8.09116e-07
0.000759534
8.64298e-07
0.000757868
9.0321e-07
0.000756225
9.26043e-07
0.000754604
9.32874e-07
0.000753007
9.23906e-07
0.000751433
8.997e-07
0.000749884
8.61438e-07
0.000748361
8.11081e-07
0.000746868
7.51288e-07
0.000745408
6.85277e-07
0.000743982
6.16501e-07
0.000742592
5.48296e-07
0.00074124
4.8356e-07
0.000739925
4.24449e-07
0.000738646
3.72209e-07
0.000737404
3.27109e-07
0.000736195
2.88421e-07
0.000735019
2.54504e-07
0.000733875
2.2298e-07
0.000732762
1.90927e-07
0.000731681
1.55253e-07
0.000730633
1.12891e-07
0.000729621
6.12338e-08
0.000728647
-1.34234e-09
0.000727715
-7.44083e-08
0.000726829
-1.61588e-07
0.000725995
-2.6251e-07
0.000725218
-3.77353e-07
0.000724501
-5.06024e-07
0.000723851
-6.48445e-07
0.00072327
-8.04334e-07
0.000722764
-9.73087e-07
0.000722336
-1.15359e-06
0.000721987
-1.34492e-06
0.00072172
-1.54588e-06
0.000721536
-1.75429e-06
0.000721434
-1.96889e-06
0.000721416
-2.18743e-06
0.000721479
-2.40865e-06
0.000721621
-2.63131e-06
0.000721842
-2.85409e-06
0.000722139
-3.07774e-06
0.000722511
-3.29956e-06
0.000722955
-3.52353e-06
0.00072347
-3.74332e-06
0.000724056
-3.96781e-06
0.000724709
-4.18322e-06
0.00072543
-4.40656e-06
0.000726215
-4.6103e-06
0.000727066
-4.82628e-06
0.000727971
-5.0025e-06
0.000728937
-5.19938e-06
0.000729945
-5.3221e-06
0.000731004
-5.48469e-06
0.000732083
-5.52009e-06
0.000733202
-5.63543e-06
0.000734312
-5.54838e-06
0.000735448
-5.61271e-06
0.000736537
-5.37561e-06
0.000737641
-5.39855e-06
0.000738655
-5.00018e-06
0.000739677
-5.00188e-06
-4.45449e-06
0.000859675
-4.30451e-06
0.000856985
-3.83444e-06
0.000854325
-3.36314e-06
0.00085169
-2.89317e-06
0.000849077
-2.42888e-06
0.000846486
-1.97591e-06
0.000843919
-1.53666e-06
0.000841373
-1.11215e-06
0.00083885
-7.04417e-07
0.000836348
-3.15591e-07
0.000833868
5.49685e-08
0.000831404
4.09674e-07
0.000828957
7.40561e-07
0.000826527
1.04977e-06
0.000824114
1.33674e-06
0.000821717
1.60101e-06
0.000819336
1.84263e-06
0.000816971
2.06178e-06
0.000814624
2.25853e-06
0.000812291
2.43297e-06
0.000809972
2.5857e-06
0.000807668
2.71752e-06
0.00080538
2.82911e-06
0.000803107
2.92113e-06
0.000800849
2.99437e-06
0.000798609
3.0497e-06
0.000796385
3.08805e-06
0.000794178
3.11027e-06
0.000791987
3.1171e-06
0.000789811
3.10912e-06
0.000787648
3.0868e-06
0.000785497
3.05065e-06
0.000783357
3.00133e-06
0.000781228
2.93985e-06
0.000779112
2.86773e-06
0.00077701
2.78699e-06
0.000774927
2.70009e-06
0.000772865
2.60968e-06
0.00077083
2.51836e-06
0.000768826
2.42833e-06
0.000766858
2.34113e-06
0.000764927
2.2575e-06
0.000763038
2.17725e-06
0.000761194
2.09931e-06
0.000759395
2.02183e-06
0.000757643
1.94228e-06
0.000755941
1.85777e-06
0.000754288
1.7653e-06
0.000752688
1.66213e-06
0.00075114
1.54589e-06
0.000749651
1.41505e-06
0.000748221
1.26845e-06
0.000746853
1.10571e-06
0.000745549
9.26692e-07
0.000744311
7.31569e-07
0.000743142
5.20384e-07
0.000742045
2.93032e-07
0.000741022
5.00876e-08
0.000740069
-2.01287e-07
0.000739193
-4.69119e-07
0.000738397
-7.49585e-07
0.000737683
-1.04005e-06
0.000737053
-1.33919e-06
0.00073651
-1.64387e-06
0.000736054
-1.9527e-06
0.000735686
-2.26359e-06
0.000735407
-2.57524e-06
0.000735217
-2.88725e-06
0.000735114
-3.19682e-06
0.000735097
-3.50682e-06
0.000735165
-3.81077e-06
0.000735314
-4.11697e-06
0.000735541
-4.41045e-06
0.000735844
-4.70919e-06
0.000736215
-4.98201e-06
0.000736654
-5.2652e-06
0.00073715
-5.49822e-06
0.000737703
-5.75235e-06
0.000738297
-5.91583e-06
0.000738936
-6.12429e-06
0.000739596
-6.18013e-06
0.00074029
-6.32923e-06
0.000740979
-6.23765e-06
0.000741691
-6.32413e-06
0.000742369
-6.0535e-06
0.000743059
-6.08887e-06
0.000743685
-5.6261e-06
0.000744316
-5.63316e-06
-4.99443e-06
0.000902448
-1.46033e-06
0.000899637
-1.02367e-06
0.000896863
-5.88318e-07
0.000894129
-1.59815e-07
0.000891425
2.75582e-07
0.000888749
7.00339e-07
0.000886099
1.11259e-06
0.000883476
1.51123e-06
0.000880877
1.89402e-06
0.000878302
2.25996e-06
0.000875748
2.60848e-06
0.000873219
2.93859e-06
0.000870712
3.24839e-06
0.000868224
3.53728e-06
0.000865756
3.80513e-06
0.000863305
4.0517e-06
0.000860871
4.27683e-06
0.000858452
4.4805e-06
0.000856048
4.66292e-06
0.000853656
4.82442e-06
0.000851277
4.96537e-06
0.000848908
5.08633e-06
0.000846549
5.18791e-06
0.000844199
5.27078e-06
0.000841858
5.33564e-06
0.000839525
5.38322e-06
0.000837198
5.4143e-06
0.000834879
5.42972e-06
0.000832566
5.43031e-06
0.000830258
5.4169e-06
0.000827954
5.39029e-06
0.000825654
5.3513e-06
0.000823354
5.30077e-06
0.000821055
5.23958e-06
0.000818754
5.16873e-06
0.000816451
5.08941e-06
0.000814148
5.00292e-06
0.000811847
4.91066e-06
0.000809552
4.81401e-06
0.000807266
4.71415e-06
0.000804995
4.61186e-06
0.000802745
4.5074e-06
0.000800522
4.40041e-06
0.000798332
4.28991e-06
0.000796179
4.1744e-06
0.000794069
4.05194e-06
0.000792007
3.92037e-06
0.000789995
3.77742e-06
0.000788036
3.62108e-06
0.000786132
3.44984e-06
0.000784284
3.26261e-06
0.000782494
3.05902e-06
0.00078076
2.83907e-06
0.000779083
2.60352e-06
0.000777462
2.35286e-06
0.000775894
2.08823e-06
0.000774378
1.80967e-06
0.000772909
1.5182e-06
0.000771494
1.21427e-06
0.000770127
8.97669e-07
0.000768808
5.69111e-07
0.000767538
2.30755e-07
0.00076632
-1.22023e-07
0.000765158
-4.81024e-07
0.000764052
-8.46691e-07
0.000763004
-1.21638e-06
0.000762018
-1.58934e-06
0.000761095
-1.9634e-06
0.000760234
-2.33614e-06
0.000759435
-2.70822e-06
0.000758698
-3.07361e-06
0.000758019
-3.43797e-06
0.000757395
-3.78674e-06
0.000756822
-4.13576e-06
0.000756294
-4.45441e-06
0.000755808
-4.77831e-06
0.000755356
-5.04699e-06
0.000754937
-5.33282e-06
0.000754544
-5.52314e-06
0.000754176
-5.75624e-06
0.000753828
-5.83243e-06
0.0007535
-6.00116e-06
0.000753188
-5.92573e-06
0.000752892
-6.02805e-06
0.00075261
-5.77086e-06
0.000752339
-5.81823e-06
0.00075208
-5.36708e-06
0.000751828
-5.38101e-06
-4.7537e-06
0.000907608
1.07805e-06
0.000905124
1.45975e-06
0.000902694
1.8416e-06
0.000900312
2.22244e-06
0.000897988
2.59988e-06
0.000895719
2.96951e-06
0.000893503
3.32874e-06
0.000891337
3.67652e-06
0.00088922
4.01166e-06
0.000887147
4.33252e-06
0.000885118
4.63771e-06
0.00088313
4.92661e-06
0.00088118
5.19845e-06
0.000879265
5.4524e-06
0.000877382
5.68801e-06
0.000875528
5.90509e-06
0.000873702
6.10351e-06
0.000871899
6.28326e-06
0.000870117
6.44447e-06
0.000868354
6.58741e-06
0.000866607
6.7124e-06
0.000864874
6.81988e-06
0.000863151
6.91034e-06
0.000861438
6.98439e-06
0.000859731
7.04265e-06
0.000858028
7.0858e-06
0.000856328
7.11457e-06
0.000854628
7.12967e-06
0.000852926
7.13186e-06
0.000851221
7.12186e-06
0.000849511
7.10041e-06
0.000847794
7.06819e-06
0.000846069
7.02592e-06
0.000844335
6.97429e-06
0.000842589
6.91407e-06
0.000840833
6.84606e-06
0.000839064
6.77107e-06
0.000837285
6.68982e-06
0.000835496
6.60286e-06
0.0008337
6.51048e-06
0.000831899
6.41268e-06
0.000830098
6.30905e-06
0.000828299
6.19875e-06
0.000826509
6.08057e-06
0.00082473
5.95301e-06
0.000822968
5.81441e-06
0.000821225
5.66314e-06
0.000819504
5.49775e-06
0.000817808
5.31713e-06
0.000816138
5.1206e-06
0.000814492
4.90794e-06
0.000812872
4.6794e-06
0.000811275
4.43558e-06
0.000809701
4.17747e-06
0.000808148
3.90607e-06
0.000806614
3.62269e-06
0.000805095
3.32809e-06
0.00080359
3.02355e-06
0.000802095
2.70915e-06
0.000800607
2.38582e-06
0.000799123
2.05288e-06
0.000797642
1.71181e-06
0.000796159
1.36163e-06
0.000794672
1.00504e-06
0.000793184
6.41478e-07
0.000791693
2.74507e-07
0.000790208
-1.03519e-07
0.000788729
-4.84378e-07
0.000787256
-8.63812e-07
0.000785789
-1.24056e-06
0.000784326
-1.61076e-06
0.000782864
-1.97627e-06
0.000781403
-2.32586e-06
0.000779937
-2.66992e-06
0.000778467
-2.98452e-06
0.000776987
-3.29742e-06
0.000775499
-3.55956e-06
0.000773997
-3.8309e-06
0.000772493
-4.01858e-06
0.000770975
-4.2388e-06
0.000769469
-4.32591e-06
0.000767956
-4.4883e-06
0.000766478
-4.44752e-06
0.000765002
-4.55204e-06
0.000763592
-4.36148e-06
0.000762191
-4.41711e-06
0.000760893
-4.06881e-06
0.000759603
-4.09078e-06
-3.60134e-06
0.000856185
2.83547e-06
0.000854512
3.13186e-06
0.000852926
3.42838e-06
0.000851426
3.72222e-06
0.000850013
4.01235e-06
0.000848685
4.29771e-06
0.000847438
4.57618e-06
0.000846268
4.84608e-06
0.000845174
5.10622e-06
0.000844151
5.35543e-06
0.000843196
5.5928e-06
0.000842304
5.81776e-06
0.000841473
6.02971e-06
0.000840698
6.22802e-06
0.000839973
6.41228e-06
0.000839296
6.58232e-06
0.000838661
6.73809e-06
0.000838065
6.87958e-06
0.000837503
7.00689e-06
0.00083697
7.12021e-06
0.000836463
7.21981e-06
0.000835976
7.30601e-06
0.000835508
7.3792e-06
0.000835052
7.43984e-06
0.000834606
7.48839e-06
0.000834167
7.52539e-06
0.00083373
7.55136e-06
0.000833293
7.56688e-06
0.000832852
7.57249e-06
0.000832405
7.56876e-06
0.000831949
7.55623e-06
0.000831482
7.53545e-06
0.000831001
7.50695e-06
0.000830504
7.47124e-06
0.000829989
7.4288e-06
0.000829456
7.38003e-06
0.000828901
7.32525e-06
0.000828327
7.26464e-06
0.000827731
7.19819e-06
0.000827116
7.12564e-06
0.000826482
7.04652e-06
0.000825831
6.96008e-06
0.000825165
6.86537e-06
0.000824484
6.76126e-06
0.00082379
6.64659e-06
0.000823084
6.52022e-06
0.000822366
6.38122e-06
0.000821635
6.22891e-06
0.000820889
6.06295e-06
0.000820127
5.88339e-06
0.000819344
5.69059e-06
0.000818538
5.48522e-06
0.000817706
5.26808e-06
0.000816843
5.04019e-06
0.000815947
4.80234e-06
0.000815014
4.5556e-06
0.000814041
4.30031e-06
0.000813028
4.03737e-06
0.00081197
3.76643e-06
0.000810868
3.48838e-06
0.000809719
3.20215e-06
0.000808521
2.90901e-06
0.000807276
2.6073e-06
0.000805981
2.29939e-06
0.000804639
1.9836e-06
0.00080325
1.66389e-06
0.000801808
1.33859e-06
0.00080031
1.0132e-06
0.00079876
6.8676e-07
0.000797154
3.64834e-07
0.000795495
4.82486e-08
0.000793786
-2.67125e-07
0.000792026
-5.6541e-07
0.000790208
-8.52471e-07
0.000788339
-1.11541e-06
0.000786411
-1.36968e-06
0.000784437
-1.58562e-06
0.000782408
-1.80166e-06
0.000780348
-1.95848e-06
0.000778243
-2.13394e-06
0.000776136
-2.21898e-06
0.000774001
-2.35327e-06
0.000771907
-2.35334e-06
0.000769803
-2.4484e-06
0.000767795
-2.3529e-06
0.000765791
-2.41299e-06
0.000763941
-2.21927e-06
0.0007621
-2.24932e-06
-1.97009e-06
0.000750774
3.42846e-06
0.000750295
3.61054e-06
0.000749931
3.79281e-06
0.000749679
3.97419e-06
0.000749537
4.15379e-06
0.000749505
4.33037e-06
0.000749578
4.50264e-06
0.000749755
4.66971e-06
0.00075003
4.83089e-06
0.0007504
4.98555e-06
0.00075086
5.13308e-06
0.000751404
5.27304e-06
0.000752029
5.40505e-06
0.000752728
5.52881e-06
0.000753496
5.64409e-06
0.000754328
5.75078e-06
0.000755217
5.84883e-06
0.000756159
5.93825e-06
0.000757146
6.01909e-06
0.000758175
6.09146e-06
0.000759239
6.15553e-06
0.000760334
6.21151e-06
0.000761453
6.25962e-06
0.000762593
6.30016e-06
0.000763748
6.33341e-06
0.000764914
6.3597e-06
0.000766086
6.37935e-06
0.00076726
6.3927e-06
0.000768432
6.40006e-06
0.000769599
6.40175e-06
0.000770758
6.39808e-06
0.000771904
6.38933e-06
0.000773035
6.37578e-06
0.000774148
6.35763e-06
0.000775242
6.33507e-06
0.000776314
6.30819e-06
0.000777362
6.27701e-06
0.000778385
6.24143e-06
0.000779382
6.20121e-06
0.000780352
6.15598e-06
0.000781293
6.10524e-06
0.000782205
6.04839e-06
0.000783086
5.98476e-06
0.000783933
5.91366e-06
0.000784745
5.83444e-06
0.000785519
5.74657e-06
0.000786251
5.64966e-06
0.000786936
5.54351e-06
0.000787571
5.42813e-06
0.000788151
5.30372e-06
0.000788671
5.17059e-06
0.000789127
5.02917e-06
0.000789515
4.87988e-06
0.000789832
4.72327e-06
0.000790074
4.5596e-06
0.000790241
4.38936e-06
0.000790329
4.21246e-06
0.000790337
4.02934e-06
0.000790264
3.83947e-06
0.000790108
3.64345e-06
0.00078987
3.44028e-06
0.000789548
3.23112e-06
0.000789141
3.01453e-06
0.000788648
2.79276e-06
0.000788067
2.56405e-06
0.000787399
2.33222e-06
0.000786642
2.09512e-06
0.000785797
1.85836e-06
0.000784864
1.62006e-06
0.000783842
1.38699e-06
0.000782733
1.15714e-06
0.00078153
9.36199e-07
0.00078024
7.23827e-07
0.000778865
5.2272e-07
0.000777414
3.35786e-07
0.000775886
1.58261e-07
0.000774298
2.08675e-09
0.000772643
-1.46025e-07
0.000770949
-2.64752e-07
0.000769208
-3.92705e-07
0.000767462
-4.7302e-07
0.000765689
-5.80297e-07
0.000763953
-6.17473e-07
0.000762209
-7.04481e-07
0.00076055
-6.94027e-07
0.000758896
-7.5865e-07
0.000757377
-7.00086e-07
0.000755864
-7.37244e-07
-6.37493e-07
0.000615179
2.45707e-06
0.000616268
2.52202e-06
0.000617473
2.58746e-06
0.000618794
2.65279e-06
0.000620231
2.71757e-06
0.00062178
2.78146e-06
0.000623438
2.84412e-06
0.000625202
2.90533e-06
0.000627069
2.96469e-06
0.000629032
3.02197e-06
0.000631088
3.07695e-06
0.000633232
3.12946e-06
0.000635458
3.17938e-06
0.00063776
3.22661e-06
0.000640133
3.27106e-06
0.000642571
3.31268e-06
0.000645068
3.35145e-06
0.000647619
3.38737e-06
0.000650218
3.42046e-06
0.000652859
3.45075e-06
0.000655536
3.4783e-06
0.000658244
3.50315e-06
0.000660978
3.5254e-06
0.000663733
3.54511e-06
0.000666504
3.56237e-06
0.000669287
3.57727e-06
0.000672076
3.5899e-06
0.000674869
3.60035e-06
0.00067766
3.60871e-06
0.000680447
3.61505e-06
0.000683225
3.61945e-06
0.000685993
3.62196e-06
0.000688746
3.62262e-06
0.000691482
3.62145e-06
0.000694199
3.61843e-06
0.000696893
3.6135e-06
0.000699564
3.60655e-06