/*--------------------------------*- C++ -*----------------------------------*\
| =========                 |                                                 |
| \\      /  F ield         | OpenFOAM: The Open Source CFD Toolbox           |
|  \\    /   O peration     | Version:  2312                                  |
|   \\  /    A nd           | Website:  www.openfoam.com                      |
|    \\/     M anipulation  |                                                 |
\*---------------------------------------------------------------------------*/
FoamFile
{
    version     2.0;
    format      ascii;
    arch        "LSB;label=32;scalar=64";
    class       volVectorField;
    location    "66000";
    object      U;
}
// * * * * * * * * * * * * * * * * * * * * * * * * * * * * * * * * * * * * * //

dimensions      [0 1 -1 0 0 0 0];

internalField   nonuniform List<vector> 
2685
(
(0.000147987 -3.16079e-06 0)
(0.000154134 -2.83774e-06 0)
(0.000159872 -2.52945e-06 0)
(0.000165215 -2.23763e-06 0)
(0.000170174 -1.96361e-06 0)
(0.000174765 -1.70833e-06 0)
(0.000179003 -1.47239e-06 0)
(0.000182905 -1.25607e-06 0)
(0.00018649 -1.05936e-06 0)
(0.000189774 -8.82008e-07 0)
(0.000192778 -7.23524e-07 0)
(0.000195518 -5.83241e-07 0)
(0.000198014 -4.60337e-07 0)
(0.000200284 -3.53865e-07 0)
(0.000202345 -2.62781e-07 0)
(0.000204215 -1.85976e-07 0)
(0.000205909 -1.22293e-07 0)
(0.000207444 -7.05537e-08 0)
(0.000208834 -2.95763e-08 0)
(0.000210093 1.80869e-09 0)
(0.000211235 2.47426e-08 0)
(0.000212271 4.03262e-08 0)
(0.000213213 4.96094e-08 0)
(0.000214071 5.35825e-08 0)
(0.000214855 5.31703e-08 0)
(0.000215573 4.9227e-08 0)
(0.000216233 4.25331e-08 0)
(0.000216842 3.37935e-08 0)
(0.000217407 2.36378e-08 0)
(0.000217933 1.26204e-08 0)
(0.000218425 1.2224e-09 0)
(0.000218887 -1.01461e-08 0)
(0.000219323 -2.11432e-08 0)
(0.000219737 -3.14912e-08 0)
(0.00022013 -4.09731e-08 0)
(0.000220507 -4.94273e-08 0)
(0.000220867 -5.67432e-08 0)
(0.000221214 -6.28562e-08 0)
(0.000221548 -6.77443e-08 0)
(0.000221871 -7.14246e-08 0)
(0.000222183 -7.39514e-08 0)
(0.000222486 -7.54138e-08 0)
(0.00022278 -7.59335e-08 0)
(0.000223065 -7.566e-08 0)
(0.000223342 -7.47642e-08 0)
(0.000223612 -7.34297e-08 0)
(0.000223875 -7.18442e-08 0)
(0.000224132 -7.01904e-08 0)
(0.000224382 -6.86382e-08 0)
(0.000224626 -6.73392e-08 0)
(0.000224866 -6.64213e-08 0)
(0.0002251 -6.59862e-08 0)
(0.000225331 -6.61055e-08 0)
(0.000225558 -6.68201e-08 0)
(0.000225782 -6.81398e-08 0)
(0.000226003 -7.00496e-08 0)
(0.000226222 -7.25172e-08 0)
(0.00022644 -7.55045e-08 0)
(0.000226656 -7.89715e-08 0)
(0.000226871 -8.28787e-08 0)
(0.000227086 -8.71856e-08 0)
(0.000227301 -9.1846e-08 0)
(0.000227516 -9.68112e-08 0)
(0.000227731 -1.0202e-07 0)
(0.000227947 -1.07409e-07 0)
(0.000228163 -1.12896e-07 0)
(0.000228379 -1.18402e-07 0)
(0.000228595 -1.2382e-07 0)
(0.000228812 -1.29058e-07 0)
(0.000229028 -1.33998e-07 0)
(0.000229244 -1.38542e-07 0)
(0.000229459 -1.4258e-07 0)
(0.000229672 -1.46023e-07 0)
(0.000229883 -1.48797e-07 0)
(0.000230091 -1.50828e-07 0)
(0.000230295 -1.52092e-07 0)
(0.000230496 -1.52523e-07 0)
(0.000230691 -1.52141e-07 0)
(0.00023088 -1.50873e-07 0)
(0.000231063 -1.48752e-07 0)
(0.000231238 -1.45691e-07 0)
(0.000231405 -1.41683e-07 0)
(0.000231563 -1.36614e-07 0)
(0.000231711 -1.3034e-07 0)
(0.000231849 -1.22662e-07 0)
(0.000231977 -1.13142e-07 0)
(0.000232091 -1.01015e-07 0)
(0.00023219 -8.67958e-08 0)
(0.000232289 -6.18213e-08 0)
(0.000442329 -2.41471e-05 0)
(0.000451227 -2.26917e-05 0)
(0.000459705 -2.12659e-05 0)
(0.000467769 -1.98769e-05 0)
(0.000475428 -1.85309e-05 0)
(0.000482691 -1.72333e-05 0)
(0.00048957 -1.59881e-05 0)
(0.000496077 -1.47988e-05 0)
(0.000502227 -1.36678e-05 0)
(0.000508031 -1.25969e-05 0)
(0.000513507 -1.15871e-05 0)
(0.000518667 -1.06388e-05 0)
(0.000523527 -9.75165e-06 0)
(0.000528103 -8.92505e-06 0)
(0.00053241 -8.15775e-06 0)
(0.000536462 -7.44816e-06 0)
(0.000540275 -6.79433e-06 0)
(0.000543862 -6.19403e-06 0)
(0.000547239 -5.64482e-06 0)
(0.000550419 -5.14404e-06 0)
(0.000553415 -4.68897e-06 0)
(0.000556239 -4.27678e-06 0)
(0.000558904 -3.90463e-06 0)
(0.000561421 -3.56969e-06 0)
(0.0005638 -3.26916e-06 0)
(0.000566052 -3.00032e-06 0)
(0.000568186 -2.76055e-06 0)
(0.00057021 -2.54729e-06 0)
(0.000572133 -2.3581e-06 0)
(0.000573963 -2.19064e-06 0)
(0.000575705 -2.04267e-06 0)
(0.000577367 -1.91208e-06 0)
(0.000578953 -1.79689e-06 0)
(0.000580469 -1.69525e-06 0)
(0.00058192 -1.60547e-06 0)
(0.000583309 -1.52601e-06 0)
(0.000584641 -1.45551e-06 0)
(0.000585918 -1.39276e-06 0)
(0.000587145 -1.3367e-06 0)
(0.000588324 -1.2864e-06 0)
(0.000589457 -1.24106e-06 0)
(0.000590548 -1.19998e-06 0)
(0.000591598 -1.16258e-06 0)
(0.00059261 -1.12836e-06 0)
(0.000593585 -1.0969e-06 0)
(0.000594528 -1.06791e-06 0)
(0.000595438 -1.04116e-06 0)
(0.000596319 -1.01652e-06 0)
(0.000597173 -9.93902e-07 0)
(0.000598002 -9.73261e-07 0)
(0.000598809 -9.5455e-07 0)
(0.000599594 -9.37715e-07 0)
(0.000600361 -9.22668e-07 0)
(0.000601111 -9.09294e-07 0)
(0.000601847 -8.97435e-07 0)
(0.000602568 -8.86915e-07 0)
(0.000603278 -8.77548e-07 0)
(0.000603976 -8.69165e-07 0)
(0.000604664 -8.61626e-07 0)
(0.000605343 -8.54816e-07 0)
(0.000606013 -8.48648e-07 0)
(0.000606674 -8.43013e-07 0)
(0.000607328 -8.37823e-07 0)
(0.000607973 -8.32903e-07 0)
(0.00060861 -8.28123e-07 0)
(0.000609239 -8.23224e-07 0)
(0.00060986 -8.1804e-07 0)
(0.000610471 -8.12263e-07 0)
(0.000611073 -8.05709e-07 0)
(0.000611664 -7.98074e-07 0)
(0.000612244 -7.89165e-07 0)
(0.000612811 -7.78713e-07 0)
(0.000613363 -7.66532e-07 0)
(0.0006139 -7.52367e-07 0)
(0.000614421 -7.36122e-07 0)
(0.000614924 -7.17462e-07 0)
(0.000615407 -6.96565e-07 0)
(0.00061587 -6.72922e-07 0)
(0.000616312 -6.47081e-07 0)
(0.000616731 -6.18544e-07 0)
(0.000617128 -5.87731e-07 0)
(0.000617499 -5.55133e-07 0)
(0.000617851 -5.19294e-07 0)
(0.00061817 -4.84329e-07 0)
(0.00061848 -4.42376e-07 0)
(0.000618738 -4.08493e-07 0)
(0.000619024 -3.55152e-07 0)
(0.000619195 -3.30353e-07 0)
(0.000619507 -2.5051e-07 0)
(0.000703061 -4.31186e-05 0)
(0.000709311 -4.0925e-05 0)
(0.000715295 -3.87727e-05 0)
(0.000721019 -3.66715e-05 0)
(0.00072649 -3.46301e-05 0)
(0.000731716 -3.26554e-05 0)
(0.000736704 -3.07532e-05 0)
(0.000741464 -2.8928e-05 0)
(0.000746004 -2.71833e-05 0)
(0.000750332 -2.55213e-05 0)
(0.000754459 -2.39437e-05 0)
(0.000758393 -2.2451e-05 0)
(0.000762144 -2.10431e-05 0)
(0.000765721 -1.97193e-05 0)
(0.000769133 -1.84782e-05 0)
(0.000772388 -1.73178e-05 0)
(0.000775497 -1.62359e-05 0)
(0.000778467 -1.52297e-05 0)
(0.000781308 -1.42961e-05 0)
(0.000784027 -1.34316e-05 0)
(0.000786634 -1.26328e-05 0)
(0.000789136 -1.18959e-05 0)
(0.00079154 -1.12169e-05 0)
(0.000793854 -1.05922e-05 0)
(0.000796085 -1.00177e-05 0)
(0.000798239 -9.4897e-06 0)
(0.000800323 -9.00439e-06 0)
(0.000802343 -8.55812e-06 0)
(0.000804304 -8.14736e-06 0)
(0.000806211 -7.76871e-06 0)
(0.000808069 -7.41893e-06 0)
(0.000809882 -7.09495e-06 0)
(0.000811653 -6.79392e-06 0)
(0.000813386 -6.5132e-06 0)
(0.000815083 -6.25042e-06 0)
(0.000816747 -6.00346e-06 0)
(0.000818378 -5.77045e-06 0)
(0.000819979 -5.54983e-06 0)
(0.000821549 -5.34027e-06 0)
(0.00082309 -5.14074e-06 0)
(0.0008246 -4.95048e-06 0)
(0.000826081 -4.76899e-06 0)
(0.00082753 -4.59604e-06 0)
(0.000828949 -4.4316e-06 0)
(0.000830336 -4.27584e-06 0)
(0.00083169 -4.12902e-06 0)
(0.000833013 -3.99145e-06 0)
(0.000834304 -3.86344e-06 0)
(0.000835563 -3.7452e-06 0)
(0.000836792 -3.63683e-06 0)
(0.000837992 -3.53827e-06 0)
(0.000839163 -3.44931e-06 0)
(0.00084031 -3.36957e-06 0)
(0.000841433 -3.29854e-06 0)
(0.000842536 -3.2356e-06 0)
(0.000843622 -3.18004e-06 0)
(0.000844693 -3.13107e-06 0)
(0.000845752 -3.0879e-06 0)
(0.000846803 -3.04968e-06 0)
(0.000847846 -3.01554e-06 0)
(0.000848884 -2.98461e-06 0)
(0.000849919 -2.95593e-06 0)
(0.000850954 -2.92861e-06 0)
(0.000851989 -2.90162e-06 0)
(0.000853026 -2.8741e-06 0)
(0.000854065 -2.84498e-06 0)
(0.000855108 -2.8135e-06 0)
(0.000856154 -2.77861e-06 0)
(0.000857206 -2.73967e-06 0)
(0.000858259 -2.69576e-06 0)
(0.000859316 -2.64635e-06 0)
(0.000860371 -2.5909e-06 0)
(0.000861425 -2.52884e-06 0)
(0.00086247 -2.4606e-06 0)
(0.00086351 -2.38507e-06 0)
(0.000864529 -2.30453e-06 0)
(0.000865539 -2.21617e-06 0)
(0.000866514 -2.12533e-06 0)
(0.00086748 -2.02563e-06 0)
(0.000868388 -1.92744e-06 0)
(0.0008693 -1.81776e-06 0)
(0.000870119 -1.71625e-06 0)
(0.000870976 -1.59672e-06 0)
(0.00087168 -1.49837e-06 0)
(0.000872496 -1.36641e-06 0)
(0.000873049 -1.28208e-06 0)
(0.000873868 -1.13074e-06 0)
(0.000874205 -1.07731e-06 0)
(0.000875119 -8.9423e-07 0)
(0.000936012 -5.25515e-05 0)
(0.00093783 -4.99162e-05 0)
(0.000939545 -4.73332e-05 0)
(0.00094116 -4.48143e-05 0)
(0.00094268 -4.23693e-05 0)
(0.000944109 -4.00062e-05 0)
(0.000945449 -3.77314e-05 0)
(0.000946707 -3.555e-05 0)
(0.000947885 -3.34656e-05 0)
(0.000948989 -3.14805e-05 0)
(0.000950023 -2.95964e-05 0)
(0.00095099 -2.78136e-05 0)
(0.000951896 -2.6132e-05 0)
(0.000952745 -2.45508e-05 0)
(0.00095354 -2.30684e-05 0)
(0.000954286 -2.16828e-05 0)
(0.000954986 -2.03917e-05 0)
(0.000955645 -1.91921e-05 0)
(0.000956267 -1.80807e-05 0)
(0.000956856 -1.70539e-05 0)
(0.000957414 -1.61079e-05 0)
(0.000957947 -1.52387e-05 0)
(0.000958457 -1.4442e-05 0)
(0.000958948 -1.37138e-05 0)
(0.000959424 -1.30496e-05 0)
(0.000959889 -1.24454e-05 0)
(0.000960345 -1.18969e-05 0)
(0.000960795 -1.14e-05 0)
(0.000961244 -1.09506e-05 0)
(0.000961695 -1.05446e-05 0)
(0.000962149 -1.01777e-05 0)
(0.00096261 -9.8458e-06 0)
(0.00096308 -9.54474e-06 0)
(0.000963561 -9.27048e-06 0)
(0.000964055 -9.01912e-06 0)
(0.000964564 -8.787e-06 0)
(0.000965089 -8.57073e-06 0)
(0.00096563 -8.36721e-06 0)
(0.000966188 -8.17365e-06 0)
(0.000966763 -7.98761e-06 0)
(0.000967354 -7.80705e-06 0)
(0.000967962 -7.63033e-06 0)
(0.000968584 -7.45624e-06 0)
(0.00096922 -7.28407e-06 0)
(0.000969867 -7.11356e-06 0)
(0.000970524 -6.94493e-06 0)
(0.000971189 -6.77884e-06 0)
(0.000971861 -6.6164e-06 0)
(0.000972536 -6.45907e-06 0)
(0.000973214 -6.30855e-06 0)
(0.000973892 -6.16667e-06 0)
(0.000974568 -6.03521e-06 0)
(0.000975243 -5.91559e-06 0)
(0.000975916 -5.80896e-06 0)
(0.000976588 -5.71569e-06 0)
(0.000977261 -5.6359e-06 0)
(0.000977937 -5.56882e-06 0)
(0.000978619 -5.51377e-06 0)
(0.000979311 -5.46943e-06 0)
(0.000980016 -5.43498e-06 0)
(0.000980738 -5.40924e-06 0)
(0.000981479 -5.39163e-06 0)
(0.000982243 -5.38136e-06 0)
(0.000983031 -5.37778e-06 0)
(0.000983848 -5.38012e-06 0)
(0.000984692 -5.38705e-06 0)
(0.000985571 -5.3971e-06 0)
(0.000986483 -5.40805e-06 0)
(0.000987434 -5.41702e-06 0)
(0.000988421 -5.42182e-06 0)
(0.000989454 -5.41735e-06 0)
(0.000990521 -5.40359e-06 0)
(0.000991639 -5.37216e-06 0)
(0.000992784 -5.32804e-06 0)
(0.000993983 -5.25808e-06 0)
(0.000995191 -5.17536e-06 0)
(0.000996459 -5.05972e-06 0)
(0.000997703 -4.93601e-06 0)
(0.000999019 -4.77283e-06 0)
(0.00100026 -4.61324e-06 0)
(0.0010016 -4.40471e-06 0)
(0.00100278 -4.2226e-06 0)
(0.00100414 -3.9719e-06 0)
(0.0010052 -3.78852e-06 0)
(0.00100658 -3.4961e-06 0)
(0.00100741 -3.33919e-06 0)
(0.00100887 -3.00009e-06 0)
(0.00100937 -2.90267e-06 0)
(0.00101101 -2.50592e-06 0)
(0.00109151 -5.16575e-05 0)
(0.00108971 -4.89969e-05 0)
(0.00108798 -4.63886e-05 0)
(0.0010863 -4.38445e-05 0)
(0.00108468 -4.1375e-05 0)
(0.00108311 -3.89887e-05 0)
(0.00108159 -3.66926e-05 0)
(0.00108011 -3.44918e-05 0)
(0.00107869 -3.23905e-05 0)
(0.0010773 -3.03912e-05 0)
(0.00107596 -2.84957e-05 0)
(0.00107465 -2.67045e-05 0)
(0.00107338 -2.50174e-05 0)
(0.00107215 -2.34335e-05 0)
(0.00107095 -2.19515e-05 0)
(0.00106979 -2.05692e-05 0)
(0.00106865 -1.92843e-05 0)
(0.00106755 -1.80937e-05 0)
(0.00106648 -1.69942e-05 0)
(0.00106544 -1.5982e-05 0)
(0.00106443 -1.50531e-05 0)
(0.00106344 -1.42036e-05 0)
(0.00106249 -1.34293e-05 0)
(0.00106157 -1.27259e-05 0)
(0.00106067 -1.20893e-05 0)
(0.00105981 -1.15153e-05 0)
(0.00105898 -1.09995e-05 0)
(0.00105817 -1.05377e-05 0)
(0.0010574 -1.01257e-05 0)
(0.00105666 -9.75918e-06 0)
(0.00105596 -9.43395e-06 0)
(0.0010553 -9.14574e-06 0)
(0.00105467 -8.89039e-06 0)
(0.00105408 -8.66387e-06 0)
(0.00105352 -8.4624e-06 0)
(0.001053 -8.28248e-06 0)
(0.00105251 -8.12089e-06 0)
(0.00105206 -7.97452e-06 0)
(0.00105163 -7.84039e-06 0)
(0.00105123 -7.71562e-06 0)
(0.00105085 -7.59751e-06 0)
(0.0010505 -7.48374e-06 0)
(0.00105017 -7.37251e-06 0)
(0.00104987 -7.26261e-06 0)
(0.00104959 -7.15334e-06 0)
(0.00104933 -7.04444e-06 0)
(0.0010491 -6.93582e-06 0)
(0.00104889 -6.82759e-06 0)
(0.0010487 -6.71991e-06 0)
(0.00104854 -6.61352e-06 0)
(0.00104841 -6.50946e-06 0)
(0.0010483 -6.40996e-06 0)
(0.00104821 -6.31752e-06 0)
(0.00104814 -6.23583e-06 0)
(0.00104809 -6.16806e-06 0)
(0.00104807 -6.11783e-06 0)
(0.00104806 -6.08716e-06 0)
(0.00104808 -6.0777e-06 0)
(0.00104812 -6.08919e-06 0)
(0.0010482 -6.1207e-06 0)
(0.0010483 -6.17038e-06 0)
(0.00104844 -6.23575e-06 0)
(0.00104862 -6.31503e-06 0)
(0.00104884 -6.40578e-06 0)
(0.00104911 -6.50703e-06 0)
(0.00104942 -6.61748e-06 0)
(0.00104979 -6.73555e-06 0)
(0.0010502 -6.86168e-06 0)
(0.00105068 -6.99058e-06 0)
(0.00105121 -7.12545e-06 0)
(0.00105181 -7.25392e-06 0)
(0.00105246 -7.38408e-06 0)
(0.0010532 -7.49411e-06 0)
(0.00105399 -7.60003e-06 0)
(0.00105487 -7.66872e-06 0)
(0.00105579 -7.72887e-06 0)
(0.00105683 -7.73198e-06 0)
(0.00105788 -7.72872e-06 0)
(0.00105908 -7.64388e-06 0)
(0.00106022 -7.5696e-06 0)
(0.00106155 -7.37921e-06 0)
(0.00106272 -7.24162e-06 0)
(0.00106419 -6.93526e-06 0)
(0.0010653 -6.75994e-06 0)
(0.0010669 -6.33479e-06 0)
(0.00106782 -6.16366e-06 0)
(0.0010696 -5.62136e-06 0)
(0.00107015 -5.50756e-06 0)
(0.0010722 -4.84944e-06 0)
(0.00115588 -4.43322e-05 0)
(0.00115232 -4.19774e-05 0)
(0.00114892 -3.96646e-05 0)
(0.00114567 -3.74047e-05 0)
(0.00114255 -3.52069e-05 0)
(0.00113957 -3.30792e-05 0)
(0.00113672 -3.10285e-05 0)
(0.00113399 -2.90603e-05 0)
(0.00113136 -2.71789e-05 0)
(0.00112885 -2.53873e-05 0)
(0.00112643 -2.36878e-05 0)
(0.00112411 -2.20815e-05 0)
(0.00112187 -2.05689e-05 0)
(0.00111972 -1.91497e-05 0)
(0.00111764 -1.78232e-05 0)
(0.00111564 -1.65885e-05 0)
(0.0011137 -1.54439e-05 0)
(0.00111183 -1.43875e-05 0)
(0.00111003 -1.34165e-05 0)
(0.00110828 -1.25277e-05 0)
(0.00110659 -1.17173e-05 0)
(0.00110495 -1.09813e-05 0)
(0.00110337 -1.03158e-05 0)
(0.00110184 -9.71749e-06 0)
(0.00110035 -9.18322e-06 0)
(0.00109892 -8.71046e-06 0)
(0.00109753 -8.29676e-06 0)
(0.00109618 -7.93947e-06 0)
(0.00109489 -7.63541e-06 0)
(0.00109364 -7.38057e-06 0)
(0.00109245 -7.17e-06 0)
(0.00109131 -6.99784e-06 0)
(0.00109022 -6.85754e-06 0)
(0.00108919 -6.74228e-06 0)
(0.00108822 -6.64549e-06 0)
(0.0010873 -6.56128e-06 0)
(0.00108643 -6.48484e-06 0)
(0.00108561 -6.41252e-06 0)
(0.00108482 -6.34181e-06 0)
(0.00108407 -6.27116e-06 0)
(0.00108335 -6.19985e-06 0)
(0.00108265 -6.12784e-06 0)
(0.00108197 -6.05573e-06 0)
(0.00108131 -5.98462e-06 0)
(0.00108067 -5.91592e-06 0)
(0.00108004 -5.85116e-06 0)
(0.00107943 -5.79152e-06 0)
(0.00107885 -5.73789e-06 0)
(0.00107829 -5.69035e-06 0)
(0.00107775 -5.64897e-06 0)
(0.00107725 -5.61327e-06 0)
(0.00107679 -5.5838e-06 0)
(0.00107637 -5.56106e-06 0)
(0.00107598 -5.54734e-06 0)
(0.00107565 -5.54482e-06 0)
(0.00107535 -5.5571e-06 0)
(0.00107511 -5.587e-06 0)
(0.00107491 -5.6375e-06 0)
(0.00107476 -5.71051e-06 0)
(0.00107466 -5.80679e-06 0)
(0.00107461 -5.92681e-06 0)
(0.00107461 -6.06898e-06 0)
(0.00107466 -6.2328e-06 0)
(0.00107476 -6.41588e-06 0)
(0.00107492 -6.61698e-06 0)
(0.00107513 -6.83518e-06 0)
(0.0010754 -7.06706e-06 0)
(0.00107573 -7.31537e-06 0)
(0.00107611 -7.57126e-06 0)
(0.00107655 -7.84328e-06 0)
(0.00107705 -8.11322e-06 0)
(0.00107761 -8.39766e-06 0)
(0.00107824 -8.66517e-06 0)
(0.00107893 -8.94376e-06 0)
(0.0010797 -9.18363e-06 0)
(0.00108052 -9.43178e-06 0)
(0.00108145 -9.60928e-06 0)
(0.00108241 -9.79984e-06 0)
(0.00108352 -9.87242e-06 0)
(0.00108459 -9.98252e-06 0)
(0.00108588 -9.90527e-06 0)
(0.00108701 -9.92537e-06 0)
(0.00108849 -9.66005e-06 0)
(0.0010896 -9.60251e-06 0)
(0.00109128 -9.12617e-06 0)
(0.00109221 -9.02903e-06 0)
(0.00109412 -8.33799e-06 0)
(0.0010947 -8.25931e-06 0)
(0.00109691 -7.3694e-06 0)
(0.00117943 -3.52684e-05 0)
(0.00117561 -3.33121e-05 0)
(0.00117195 -3.138e-05 0)
(0.00116842 -2.94836e-05 0)
(0.00116503 -2.76324e-05 0)
(0.00116176 -2.58338e-05 0)
(0.0011586 -2.40942e-05 0)
(0.00115555 -2.24194e-05 0)
(0.0011526 -2.0814e-05 0)
(0.00114975 -1.92819e-05 0)
(0.00114699 -1.78258e-05 0)
(0.00114431 -1.64475e-05 0)
(0.00114171 -1.5149e-05 0)
(0.00113918 -1.39313e-05 0)
(0.00113673 -1.27943e-05 0)
(0.00113434 -1.17377e-05 0)
(0.00113201 -1.07609e-05 0)
(0.00112974 -9.86332e-06 0)
(0.00112753 -9.04341e-06 0)
(0.00112537 -8.29917e-06 0)
(0.00112327 -7.62783e-06 0)
(0.00112122 -7.02564e-06 0)
(0.00111922 -6.48866e-06 0)
(0.00111726 -6.0134e-06 0)
(0.00111536 -5.59711e-06 0)
(0.0011135 -5.23796e-06 0)
(0.00111169 -4.93497e-06 0)
(0.00110992 -4.68757e-06 0)
(0.00110819 -4.49496e-06 0)
(0.00110651 -4.35543e-06 0)
(0.00110488 -4.26573e-06 0)
(0.0011033 -4.22061e-06 0)
(0.00110176 -4.21281e-06 0)
(0.00110029 -4.23344e-06 0)
(0.00109887 -4.27277e-06 0)
(0.00109751 -4.32111e-06 0)
(0.00109621 -4.36972e-06 0)
(0.00109497 -4.41152e-06 0)
(0.00109378 -4.44148e-06 0)
(0.00109263 -4.45673e-06 0)
(0.00109153 -4.45656e-06 0)
(0.00109047 -4.44223e-06 0)
(0.00108944 -4.41675e-06 0)
(0.00108843 -4.38457e-06 0)
(0.00108745 -4.35095e-06 0)
(0.00108649 -4.32151e-06 0)
(0.00108555 -4.30134e-06 0)
(0.00108464 -4.29479e-06 0)
(0.00108376 -4.3046e-06 0)
(0.00108292 -4.33251e-06 0)
(0.00108211 -4.37885e-06 0)
(0.00108135 -4.4448e-06 0)
(0.00108065 -4.53037e-06 0)
(0.00108001 -4.63657e-06 0)
(0.00107944 -4.76391e-06 0)
(0.00107895 -4.91392e-06 0)
(0.00107853 -5.0875e-06 0)
(0.0010782 -5.28547e-06 0)
(0.00107796 -5.50815e-06 0)
(0.0010778 -5.75457e-06 0)
(0.00107773 -6.0243e-06 0)
(0.00107775 -6.3145e-06 0)
(0.00107786 -6.62421e-06 0)
(0.00107805 -6.95025e-06 0)
(0.00107834 -7.29081e-06 0)
(0.00107871 -7.64483e-06 0)
(0.00107915 -8.00802e-06 0)
(0.00107969 -8.38437e-06 0)
(0.00108029 -8.76375e-06 0)
(0.00108098 -9.15843e-06 0)
(0.00108173 -9.54788e-06 0)
(0.00108256 -9.95616e-06 0)
(0.00108346 -1.03459e-05 0)
(0.00108443 -1.07583e-05 0)
(0.00108548 -1.11286e-05 0)
(0.00108659 -1.15268e-05 0)
(0.0010878 -1.18409e-05 0)
(0.00108905 -1.21967e-05 0)
(0.00109043 -1.2398e-05 0)
(0.00109178 -1.26781e-05 0)
(0.00109333 -1.26954e-05 0)
(0.00109473 -1.28736e-05 0)
(0.00109646 -1.26364e-05 0)
(0.0010978 -1.27087e-05 0)
(0.00109972 -1.2165e-05 0)
(0.00110084 -1.21591e-05 0)
(0.00110299 -1.12909e-05 0)
(0.00110367 -1.12607e-05 0)
(0.00110615 -1.00938e-05 0)
(0.00122047 -2.70991e-05 0)
(0.00121669 -2.54058e-05 0)
(0.00121299 -2.37205e-05 0)
(0.00120937 -2.20527e-05 0)
(0.00120582 -2.04129e-05 0)
(0.00120235 -1.88127e-05 0)
(0.00119894 -1.72607e-05 0)
(0.00119559 -1.57634e-05 0)
(0.0011923 -1.43249e-05 0)
(0.00118907 -1.29507e-05 0)
(0.00118589 -1.1645e-05 0)
(0.00118276 -1.04078e-05 0)
(0.00117967 -9.24163e-06 0)
(0.00117663 -8.14928e-06 0)
(0.00117363 -7.13179e-06 0)
(0.00117067 -6.18919e-06 0)
(0.00116775 -5.32145e-06 0)
(0.00116486 -4.52818e-06 0)
(0.00116202 -3.80886e-06 0)
(0.00115921 -3.16202e-06 0)
(0.00115643 -2.58547e-06 0)
(0.0011537 -2.07682e-06 0)
(0.00115099 -1.63305e-06 0)
(0.00114833 -1.25076e-06 0)
(0.0011457 -9.26759e-07 0)
(0.00114311 -6.58585e-07 0)
(0.00114056 -4.4483e-07 0)
(0.00113804 -2.85151e-07 0)
(0.00113556 -1.79875e-07 0)
(0.00113311 -1.29193e-07 0)
(0.0011307 -1.32172e-07 0)
(0.00112832 -1.858e-07 0)
(0.00112598 -2.84361e-07 0)
(0.00112367 -4.19354e-07 0)
(0.00112141 -5.80035e-07 0)
(0.00111919 -7.54434e-07 0)
(0.00111703 -9.3063e-07 0)
(0.00111492 -1.0979e-06 0)
(0.00111286 -1.24776e-06 0)
(0.00111086 -1.37452e-06 0)
(0.00110891 -1.47571e-06 0)
(0.00110702 -1.55202e-06 0)
(0.00110518 -1.60712e-06 0)
(0.0011034 -1.64729e-06 0)
(0.00110166 -1.6807e-06 0)
(0.00109996 -1.71668e-06 0)
(0.00109832 -1.76456e-06 0)
(0.00109672 -1.83305e-06 0)
(0.00109517 -1.92907e-06 0)
(0.00109368 -2.05823e-06 0)
(0.00109225 -2.22362e-06 0)
(0.00109089 -2.42665e-06 0)
(0.0010896 -2.66743e-06 0)
(0.00108839 -2.94618e-06 0)
(0.00108726 -3.26215e-06 0)
(0.00108624 -3.61482e-06 0)
(0.00108531 -4.00312e-06 0)
(0.0010845 -4.42507e-06 0)
(0.0010838 -4.87817e-06 0)
(0.00108321 -5.36045e-06 0)
(0.00108275 -5.86961e-06 0)
(0.00108241 -6.40025e-06 0)
(0.0010822 -6.94935e-06 0)
(0.00108211 -7.51136e-06 0)
(0.00108214 -8.08311e-06 0)
(0.0010823 -8.66178e-06 0)
(0.00108257 -9.24285e-06 0)
(0.00108296 -9.82961e-06 0)
(0.00108346 -1.04125e-05 0)
(0.00108408 -1.1005e-05 0)
(0.00108479 -1.15863e-05 0)
(0.00108562 -1.21851e-05 0)
(0.00108655 -1.27589e-05 0)
(0.00108758 -1.336e-05 0)
(0.00108871 -1.39068e-05 0)
(0.00108994 -1.44934e-05 0)
(0.00109126 -1.49686e-05 0)
(0.00109266 -1.55071e-05 0)
(0.00109416 -1.58354e-05 0)
(0.00109567 -1.62812e-05 0)
(0.00109734 -1.63639e-05 0)
(0.0010989 -1.66781e-05 0)
(0.00110072 -1.64125e-05 0)
(0.00110219 -1.65832e-05 0)
(0.00110418 -1.58893e-05 0)
(0.00110539 -1.5944e-05 0)
(0.00110757 -1.47895e-05 0)
(0.00110832 -1.47881e-05 0)
(0.0011108 -1.32094e-05 0)
(0.00129153 -1.87063e-05 0)
(0.00128747 -1.7129e-05 0)
(0.00128346 -1.5556e-05 0)
(0.00127949 -1.40003e-05 0)
(0.00127556 -1.24631e-05 0)
(0.00127166 -1.0952e-05 0)
(0.00126779 -9.48032e-06 0)
(0.00126395 -8.05619e-06 0)
(0.00126015 -6.68634e-06 0)
(0.00125638 -5.37527e-06 0)
(0.00125264 -4.12771e-06 0)
(0.00124894 -2.95058e-06 0)
(0.00124526 -1.84551e-06 0)
(0.0012416 -8.12559e-07 0)
(0.00123797 1.47222e-07 0)
(0.00123436 1.0327e-06 0)
(0.00123078 1.84357e-06 0)
(0.00122722 2.58057e-06 0)
(0.00122368 3.24455e-06 0)
(0.00122017 3.83672e-06 0)
(0.00121669 4.35854e-06 0)
(0.00121322 4.81134e-06 0)
(0.00120978 5.19689e-06 0)
(0.00120635 5.51762e-06 0)
(0.00120296 5.77649e-06 0)
(0.00119958 5.97677e-06 0)
(0.00119624 6.12162e-06 0)
(0.00119291 6.2137e-06 0)
(0.00118961 6.25481e-06 0)
(0.00118634 6.24598e-06 0)
(0.00118309 6.18773e-06 0)
(0.00117985 6.08087e-06 0)
(0.00117663 5.92738e-06 0)
(0.00117343 5.73132e-06 0)
(0.00117025 5.49923e-06 0)
(0.00116708 5.24012e-06 0)
(0.00116394 4.96464e-06 0)
(0.00116083 4.684e-06 0)
(0.00115776 4.40865e-06 0)
(0.00115473 4.14709e-06 0)
(0.00115175 3.90501e-06 0)
(0.00114882 3.68485e-06 0)
(0.00114596 3.48558e-06 0)
(0.00114315 3.30277e-06 0)
(0.00114042 3.1291e-06 0)
(0.00113776 2.95498e-06 0)
(0.00113517 2.76973e-06 0)
(0.00113265 2.56244e-06 0)
(0.00113021 2.3234e-06 0)
(0.00112785 2.04419e-06 0)
(0.00112557 1.71893e-06 0)
(0.00112338 1.34415e-06 0)
(0.00112128 9.17957e-07 0)
(0.00111927 4.38971e-07 0)
(0.00111737 -9.3171e-08 0)
(0.00111556 -6.78517e-07 0)
(0.00111386 -1.31607e-06 0)
(0.00111227 -2.00381e-06 0)
(0.00111079 -2.7395e-06 0)
(0.00110942 -3.51561e-06 0)
(0.00110816 -4.32693e-06 0)
(0.00110703 -5.16488e-06 0)
(0.00110602 -6.02433e-06 0)
(0.00110514 -6.89559e-06 0)
(0.00110439 -7.77351e-06 0)
(0.00110377 -8.65281e-06 0)
(0.00110329 -9.5293e-06 0)
(0.00110294 -1.04047e-05 0)
(0.00110271 -1.1271e-05 0)
(0.00110263 -1.21408e-05 0)
(0.00110266 -1.29934e-05 0)
(0.00110284 -1.38586e-05 0)
(0.00110311 -1.46884e-05 0)
(0.00110352 -1.55419e-05 0)
(0.00110401 -1.63209e-05 0)
(0.00110464 -1.71399e-05 0)
(0.00110532 -1.78099e-05 0)
(0.00110613 -1.85519e-05 0)
(0.00110698 -1.90191e-05 0)
(0.00110791 -1.96305e-05 0)
(0.0011089 -1.97733e-05 0)
(0.00110989 -2.02089e-05 0)
(0.00111098 -1.99006e-05 0)
(0.00111194 -2.01483e-05 0)
(0.00111314 -1.92885e-05 0)
(0.00111394 -1.93835e-05 0)
(0.00111526 -1.79305e-05 0)
(0.00111575 -1.79449e-05 0)
(0.00111725 -1.5946e-05 0)
(0.00135579 -9.46549e-06 0)
(0.00135155 -7.95748e-06 0)
(0.00134735 -6.44905e-06 0)
(0.00134322 -4.95076e-06 0)
(0.00133915 -3.47916e-06 0)
(0.00133512 -2.04214e-06 0)
(0.00133112 -6.41986e-07 0)
(0.00132716 7.15433e-07 0)
(0.00132325 2.02162e-06 0)
(0.00131937 3.27169e-06 0)
(0.00131553 4.46183e-06 0)
(0.00131171 5.58541e-06 0)
(0.00130793 6.64017e-06 0)
(0.00130419 7.6256e-06 0)
(0.00130047 8.54045e-06 0)
(0.00129678 9.38326e-06 0)
(0.00129312 1.01535e-05 0)
(0.00128948 1.08513e-05 0)
(0.00128586 1.14772e-05 0)
(0.00128227 1.20323e-05 0)
(0.00127869 1.25174e-05 0)
(0.00127513 1.29344e-05 0)
(0.00127158 1.32855e-05 0)
(0.00126805 1.35727e-05 0)
(0.00126454 1.37985e-05 0)
(0.00126103 1.39654e-05 0)
(0.00125754 1.4076e-05 0)
(0.00125405 1.41333e-05 0)
(0.00125058 1.414e-05 0)
(0.00124711 1.40988e-05 0)
(0.00124365 1.40124e-05 0)
(0.0012402 1.3883e-05 0)
(0.00123675 1.37131e-05 0)
(0.0012333 1.35057e-05 0)
(0.00122985 1.32643e-05 0)
(0.0012264 1.29934e-05 0)
(0.00122295 1.26985e-05 0)
(0.00121949 1.23861e-05 0)
(0.00121604 1.20625e-05 0)
(0.00121261 1.17335e-05 0)
(0.00120919 1.14035e-05 0)
(0.00120579 1.10748e-05 0)
(0.00120244 1.07472e-05 0)
(0.00119912 1.04181e-05 0)
(0.00119586 1.00826e-05 0)
(0.00119267 9.73386e-06 0)
(0.00118954 9.36377e-06 0)
(0.00118648 8.96361e-06 0)
(0.0011835 8.52519e-06 0)
(0.0011806 8.04179e-06 0)
(0.00117779 7.50891e-06 0)
(0.00117506 6.92337e-06 0)
(0.00117242 6.28467e-06 0)
(0.00116986 5.59369e-06 0)
(0.00116739 4.85168e-06 0)
(0.001165 4.0599e-06 0)
(0.00116268 3.21835e-06 0)
(0.00116045 2.32732e-06 0)
(0.00115828 1.38556e-06 0)
(0.0011562 3.97753e-07 0)
(0.00115418 -6.342e-07 0)
(0.00115224 -1.70342e-06 0)
(0.00115037 -2.80584e-06 0)
(0.00114859 -3.93276e-06 0)
(0.00114688 -5.08008e-06 0)
(0.00114527 -6.23888e-06 0)
(0.00114374 -7.40525e-06 0)
(0.00114232 -8.5742e-06 0)
(0.00114097 -9.735e-06 0)
(0.00113974 -1.08937e-05 0)
(0.00113857 -1.20287e-05 0)
(0.00113753 -1.31646e-05 0)
(0.00113653 -1.42513e-05 0)
(0.00113566 -1.53476e-05 0)
(0.00113481 -1.63477e-05 0)
(0.00113408 -1.73749e-05 0)
(0.00113334 -1.82222e-05 0)
(0.00113274 -1.91351e-05 0)
(0.00113207 -1.973e-05 0)
(0.00113157 -2.04749e-05 0)
(0.00113095 -2.06908e-05 0)
(0.00113055 -2.12245e-05 0)
(0.00112994 -2.0929e-05 0)
(0.00112963 -2.1243e-05 0)
(0.00112903 -2.03305e-05 0)
(0.00112881 -2.04653e-05 0)
(0.00112819 -1.88926e-05 0)
(0.00112807 -1.89256e-05 0)
(0.00112739 -1.67476e-05 0)
(0.0013633 -2.5093e-07 0)
(0.00135953 1.11689e-06 0)
(0.00135585 2.48741e-06 0)
(0.00135224 3.85245e-06 0)
(0.0013487 5.19495e-06 0)
(0.00134525 6.50571e-06 0)
(0.00134189 7.78297e-06 0)
(0.00133861 9.02051e-06 0)
(0.0013354 1.02124e-05 0)
(0.00133226 1.1353e-05 0)
(0.00132918 1.24383e-05 0)
(0.00132617 1.34675e-05 0)
(0.00132321 1.44369e-05 0)
(0.00132032 1.53431e-05 0)
(0.00131747 1.6184e-05 0)
(0.00131467 1.69589e-05 0)
(0.00131191 1.76674e-05 0)
(0.00130919 1.83093e-05 0)
(0.0013065 1.8885e-05 0)
(0.00130384 1.93952e-05 0)
(0.00130121 1.98413e-05 0)
(0.0012986 2.02248e-05 0)
(0.00129601 2.05475e-05 0)
(0.00129343 2.08115e-05 0)
(0.00129087 2.10191e-05 0)
(0.00128831 2.11725e-05 0)
(0.00128576 2.12741e-05 0)
(0.00128321 2.13267e-05 0)
(0.00128066 2.13328e-05 0)
(0.00127811 2.12951e-05 0)
(0.00127555 2.12163e-05 0)
(0.00127298 2.10989e-05 0)
(0.0012704 2.09456e-05 0)
(0.0012678 2.07592e-05 0)
(0.00126519 2.05425e-05 0)
(0.00126257 2.02986e-05 0)
(0.00125992 2.00307e-05 0)
(0.00125726 1.9742e-05 0)
(0.00125459 1.94355e-05 0)
(0.0012519 1.91131e-05 0)
(0.0012492 1.8776e-05 0)
(0.00124649 1.84238e-05 0)
(0.00124379 1.80544e-05 0)
(0.0012411 1.7664e-05 0)
(0.00123842 1.72478e-05 0)
(0.00123576 1.67995e-05 0)
(0.00123313 1.63131e-05 0)
(0.00123054 1.57824e-05 0)
(0.00122797 1.52025e-05 0)
(0.00122545 1.45694e-05 0)
(0.00122296 1.38811e-05 0)
(0.00122051 1.31373e-05 0)
(0.0012181 1.23391e-05 0)
(0.00121572 1.14893e-05 0)
(0.00121338 1.05911e-05 0)
(0.00121106 9.64892e-06 0)
(0.00120877 8.66563e-06 0)
(0.00120651 7.64565e-06 0)
(0.00120426 6.59029e-06 0)
(0.00120202 5.50105e-06 0)
(0.0011998 4.37612e-06 0)
(0.00119757 3.22012e-06 0)
(0.00119535 2.03215e-06 0)
(0.00119313 8.19004e-07 0)
(0.00119089 -4.20249e-07 0)
(0.00118866 -1.6754e-06 0)
(0.00118642 -2.9437e-06 0)
(0.0011842 -4.21745e-06 0)
(0.00118198 -5.49246e-06 0)
(0.00117979 -6.76592e-06 0)
(0.00117758 -8.01985e-06 0)
(0.0011754 -9.26728e-06 0)
(0.00117319 -1.04622e-05 0)
(0.00117103 -1.165e-05 0)
(0.00116878 -1.27362e-05 0)
(0.00116663 -1.38305e-05 0)
(0.00116433 -1.47446e-05 0)
(0.00116218 -1.57058e-05 0)
(0.00115981 -1.63612e-05 0)
(0.00115768 -1.71466e-05 0)
(0.00115523 -1.74356e-05 0)
(0.0011532 -1.80114e-05 0)
(0.00115064 -1.78203e-05 0)
(0.00114882 -1.81809e-05 0)
(0.00114614 -1.74184e-05 0)
(0.00114469 -1.75981e-05 0)
(0.00114181 -1.6229e-05 0)
(0.00114095 -1.62916e-05 0)
(0.00113773 -1.43713e-05 0)
(0.00128557 7.17838e-06 0)
(0.001283 8.2976e-06 0)
(0.00128055 9.41862e-06 0)
(0.00127823 1.05318e-05 0)
(0.00127605 1.16367e-05 0)
(0.00127399 1.27272e-05 0)
(0.00127206 1.37916e-05 0)
(0.00127025 1.48233e-05 0)
(0.00126855 1.58186e-05 0)
(0.00126697 1.67731e-05 0)
(0.00126548 1.76832e-05 0)
(0.0012641 1.85459e-05 0)
(0.00126281 1.93584e-05 0)
(0.00126161 2.01184e-05 0)
(0.00126048 2.08246e-05 0)
(0.00125943 2.14763e-05 0)
(0.00125845 2.20733e-05 0)
(0.00125753 2.26155e-05 0)
(0.00125666 2.31032e-05 0)
(0.00125584 2.35372e-05 0)
(0.00125506 2.39184e-05 0)
(0.00125432 2.42482e-05 0)
(0.0012536 2.4528e-05 0)
(0.00125291 2.47596e-05 0)
(0.00125224 2.49446e-05 0)
(0.00125157 2.50851e-05 0)
(0.00125092 2.51832e-05 0)
(0.00125026 2.52409e-05 0)
(0.00124961 2.52605e-05 0)
(0.00124894 2.5244e-05 0)
(0.00124827 2.51938e-05 0)
(0.00124758 2.51119e-05 0)
(0.00124686 2.50004e-05 0)
(0.00124613 2.48613e-05 0)
(0.00124537 2.46966e-05 0)
(0.00124459 2.45081e-05 0)
(0.00124377 2.42976e-05 0)
(0.00124293 2.40663e-05 0)
(0.00124205 2.3815e-05 0)
(0.00124114 2.35435e-05 0)
(0.0012402 2.32507e-05 0)
(0.00123924 2.29343e-05 0)
(0.00123825 2.25909e-05 0)
(0.00123724 2.22162e-05 0)
(0.00123621 2.18055e-05 0)
(0.00123516 2.13538e-05 0)
(0.00123409 2.08566e-05 0)
(0.001233 2.03105e-05 0)
(0.0012319 1.9713e-05 0)
(0.00123077 1.90637e-05 0)
(0.00122961 1.8363e-05 0)
(0.00122842 1.76131e-05 0)
(0.00122719 1.68167e-05 0)
(0.00122592 1.59777e-05 0)
(0.0012246 1.50994e-05 0)
(0.00122323 1.41861e-05 0)
(0.00122181 1.32398e-05 0)
(0.00122032 1.22643e-05 0)
(0.00121876 1.12591e-05 0)
(0.00121715 1.02279e-05 0)
(0.00121546 9.1677e-06 0)
(0.0012137 8.08312e-06 0)
(0.00121187 6.96911e-06 0)
(0.00120996 5.83424e-06 0)
(0.00120798 4.67439e-06 0)