/*--------------------------------*- C++ -*----------------------------------*\
| =========                 |                                                 |
| \\      /  F ield         | OpenFOAM: The Open Source CFD Toolbox           |
|  \\    /   O peration     | Version:  2312                                  |
|   \\  /    A nd           | Website:  www.openfoam.com                      |
|    \\/     M anipulation  |                                                 |
\*---------------------------------------------------------------------------*/
FoamFile
{
    version     2.0;
    format      ascii;
    arch        "LSB;label=32;scalar=64";
    class       surfaceScalarField;
    location    "84000";
    object      phi;
}
// * * * * * * * * * * * * * * * * * * * * * * * * * * * * * * * * * * * * * //

dimensions      [0 3 -1 0 0 0 0];

oriented        oriented;

internalField   nonuniform List<scalar> 
21240
(
0.000664974
1.69227e-06
0.000661072
3.90245e-06
0.000655751
5.32094e-06
0.000649514
6.23651e-06
0.000642639
6.87524e-06
0.000635267
7.37184e-06
0.000627491
7.77677e-06
0.000619388
8.10309e-06
0.000611031
8.35681e-06
0.000602484
8.54691e-06
0.000593798
8.68569e-06
0.000585013
8.78546e-06
0.000576157
8.85583e-06
0.000567254
8.90313e-06
0.000558323
8.93118e-06
0.00054938
8.94243e-06
0.000540441
8.93871e-06
0.00053152
8.92159e-06
0.000522627
8.89239e-06
0.000513775
8.85219e-06
0.000504973
8.8018e-06
0.000496232
8.74181e-06
0.000487559
8.67265e-06
0.000478964
8.5946e-06
0.000470456
8.50787e-06
0.000462044
8.41262e-06
0.000453735
8.30895e-06
0.000445538
8.19688e-06
0.000437462
8.07653e-06
0.000429514
7.94775e-06
0.000421703
7.81077e-06
0.000414038
7.66523e-06
0.000406526
7.51164e-06
0.000399177
7.34923e-06
0.000391998
7.17908e-06
0.000384998
6.99968e-06
0.000378185
6.8132e-06
0.000371568
6.6167e-06
0.000365154
6.41439e-06
0.000358953
6.2006e-06
0.00035297
5.98335e-06
0.000347218
5.75188e-06
0.000341697
5.52114e-06
0.000336426
5.271e-06
0.000331397
5.02906e-06
0.000326639
4.75794e-06
0.00032213
4.50839e-06
0.000317919
4.21113e-06
0.00031396
3.95973e-06
0.000310335
3.62494e-06
0.000306953
3.382e-06
0.000303969
2.98331e-06
0.000301198
2.77177e-06
0.000298956
2.24142e-06
0.000296835
2.12139e-06
0.000295588
1.2464e-06
0.000294109
1.47895e-06
0.000294319
-2.09941e-07
0.000293158
1.16108e-06
-3.20245e-06
0.000296361
0.000667556
8.02995e-07
0.00066912
2.33799e-06
0.000670854
3.58761e-06
0.000672525
4.56568e-06
0.000674053
5.34658e-06
0.000675426
5.9991e-06
0.000676638
6.56488e-06
0.000677679
7.06233e-06
0.000678537
7.49848e-06
0.000679206
7.87778e-06
0.000679686
8.20586e-06
0.000679982
8.48963e-06
0.000680101
8.73612e-06
0.000680053
8.95117e-06
0.000679845
9.13911e-06
0.000679485
9.30286e-06
0.000678979
9.44458e-06
0.000678335
9.56582e-06
0.000677559
9.66805e-06
0.000676659
9.75232e-06
0.000675641
9.81975e-06
0.000674512
9.87088e-06
0.000673278
9.90655e-06
0.000671946
9.92682e-06
0.000670521
9.93241e-06
0.000669011
9.92293e-06
0.000667421
9.89927e-06
0.000665757
9.86046e-06
0.000664026
9.80782e-06
0.000662234
9.73964e-06
0.000660387
9.658e-06
0.000658492
9.56004e-06
0.000656554
9.44925e-06
0.000654583
9.32088e-06
0.000652581
9.18081e-06
0.00065056
9.02119e-06
0.000648521
8.8519e-06
0.000646478
8.66001e-06
0.00064443
8.46196e-06
0.000642394
8.23641e-06
0.000640367
8.01071e-06
0.000638369
7.74955e-06
0.000636392
7.49831e-06
0.000634464
7.19856e-06
0.000632568
6.92543e-06
0.000630744
6.58226e-06
0.000628959
6.29335e-06
0.000627271
5.89883e-06
0.000625627
5.60417e-06
0.000624106
5.14536e-06
0.000622627
4.86135e-06
0.000621292
4.31772e-06
0.000619993
4.07087e-06
0.000618823
3.41153e-06
0.000617702
3.24292e-06
0.00061652
2.42813e-06
0.000615606
2.3931e-06
0.000613991
1.40444e-06
0.000613599
1.55302e-06
4.58795e-07
0.000609938
0.000666951
5.18723e-07
0.000667819
1.47038e-06
0.000669058
2.3477e-06
0.000670483
3.14076e-06
0.000671985
3.84542e-06
0.000673514
4.46932e-06
0.000675055
5.02468e-06
0.000676594
5.52261e-06
0.000678122
5.97092e-06
0.000679625
6.37452e-06
0.000681094
6.73694e-06
0.000682522
7.06146e-06
0.000683907
7.35159e-06
0.000685247
7.6108e-06
0.000686544
7.84239e-06
0.000687798
8.04895e-06
0.00068901
8.23273e-06
0.00069018
8.39527e-06
0.00069131
8.53807e-06
0.0006924
8.66201e-06
0.000693452
8.76826e-06
0.000694466
8.85724e-06
0.000695442
8.92995e-06
0.000696383
8.98631e-06
0.000697288
9.02728e-06
0.000698158
9.05225e-06
0.000698995
9.06236e-06
0.000699799
9.05636e-06
0.000700571
9.03582e-06
0.000701312
8.9987e-06
0.000702023
8.9473e-06
0.000702705
8.87845e-06
0.000703358
8.79571e-06
0.000703985
8.69424e-06
0.000704586
8.57952e-06
0.000705163
8.44431e-06
0.000705718
8.29698e-06
0.000706251
8.12675e-06
0.000706767
7.94628e-06
0.000707264
7.73963e-06
0.000707749
7.5257e-06
0.000708217
7.28117e-06
0.000708682
7.0338e-06
0.00070913
6.7499e-06
0.000709586
6.46958e-06
0.000710023
6.14494e-06
0.000710484
5.83273e-06
0.000710916
5.4664e-06
0.000711397
5.12395e-06
0.000711826
4.71589e-06
0.000712342
4.34519e-06
0.000712763
3.89747e-06
0.000713333
3.50036e-06
0.000713724
3.02031e-06
0.000714369
2.59813e-06
0.000714691
2.10612e-06
0.000715425
1.65888e-06
0.000715625
1.20501e-06
0.000716456
7.21289e-07
4.07321e-07
0.000716508
0.000666854
3.31581e-07
0.000667309
1.01564e-06
0.000667972
1.68442e-06
0.000668795
2.31721e-06
0.000669736
2.9048e-06
0.000670761
3.4443e-06
0.000671848
3.93726e-06
0.000672984
4.38734e-06
0.000674156
4.79844e-06
0.000675357
5.1738e-06
0.000676578
5.51592e-06
0.000677813
5.82686e-06
0.000679056
6.10859e-06
0.000680303
6.3631e-06
0.000681553
6.5924e-06
0.000682804
6.79831e-06
0.000684054
6.98252e-06
0.000685303
7.14635e-06
0.00068655
7.291e-06
0.000687795
7.41733e-06
0.000689037
7.52621e-06
0.000690276
7.61816e-06
0.000691512
7.69386e-06
0.000692745
7.75354e-06
0.000693974
7.79772e-06
0.0006952
7.82637e-06
0.000696423
7.83991e-06
0.000697641
7.83807e-06
0.000698856
7.82119e-06
0.000700065
7.78884e-06
0.000701271
7.74131e-06
0.000702472
7.67802e-06
0.000703668
7.5992e-06
0.000704858
7.50427e-06
0.000706045
7.39323e-06
0.000707223
7.26574e-06
0.000708399
7.12133e-06
0.000709565
6.9603e-06
0.00071073
6.78115e-06
0.000711884
6.58565e-06
0.00071304
6.37017e-06
0.000714182
6.13947e-06
0.00071533
5.88582e-06
0.00071646
5.61962e-06
0.000717604
5.32552e-06
0.000718725
5.02429e-06
0.00071987
4.68684e-06
0.000720984
4.35247e-06
0.00072214
3.96799e-06
0.000723251
3.60514e-06
0.000724427
3.16912e-06
0.000725537
2.78724e-06
0.000726744
2.29386e-06
0.000727854
1.90982e-06
0.000729102
1.35039e-06
0.000730216
9.92205e-07
0.00073152
3.55099e-07
0.000732654
7.08462e-08
0.000734093
-7.17834e-07
-8.85333e-07
0.000735386
0.000666738
2.59842e-07
0.00066697
7.84382e-07
0.000667356
1.29812e-06
0.000667879
1.79404e-06
0.000668518
2.26626e-06
0.000669251
2.71117e-06
0.000670061
3.12733e-06
0.000670933
3.51481e-06
0.000671857
3.87449e-06
0.000672823
4.20751e-06
0.000673824
4.51493e-06
0.000674854
4.79775e-06
0.000675905
5.0569e-06
0.000676975
5.29335e-06
0.000678059
5.50813e-06
0.000679155
5.70228e-06
0.000680261
5.87677e-06
0.000681375
6.03252e-06
0.000682496
6.1703e-06
0.000683622
6.29083e-06
0.000684754
6.39461e-06
0.00068589
6.48222e-06
0.00068703
6.55395e-06
0.000688173
6.61025e-06
0.000689319
6.65122e-06
0.000690468
6.67724e-06
0.00069162
6.68814e-06
0.000692774
6.68436e-06
0.00069393
6.66538e-06
0.000695087
6.63182e-06
0.000696245
6.58269e-06
0.000697404
6.51901e-06
0.000698565
6.43907e-06
0.000699724
6.34464e-06
0.000700885
6.23288e-06
0.000702043
6.10687e-06
0.000703203
5.96198e-06
0.00070436
5.80347e-06
0.000705517
5.62378e-06
0.000706671
5.43185e-06
0.000707826
5.21536e-06
0.000708976
4.98926e-06
0.000710128
4.73357e-06
0.000711275
4.47301e-06
0.000712425
4.17522e-06
0.000713569
3.88068e-06
0.000714718
3.53712e-06
0.000715861
3.21012e-06
0.000717013
2.81542e-06
0.00071816
2.45862e-06
0.000719324
2.00435e-06
0.000720489
1.62221e-06
0.000721688
1.09562e-06
0.000722901
6.96109e-07
0.000724179
7.27972e-08
0.00072548
-3.08652e-07
0.000726846
-1.01147e-06
0.00072829
-1.37235e-06
0.000729805
-2.23345e-06
-2.54552e-06
0.000731465
0.000666724
2.02524e-07
0.000666899
6.09366e-07
0.000667184
1.01349e-06
0.000667569
1.40838e-06
0.000668045
1.79031e-06
0.0006686
2.15636e-06
0.000669223
2.50447e-06
0.000669904
2.83342e-06
0.000670636
3.14263e-06
0.000671412
3.43198e-06
0.000672225
3.70155e-06
0.000673071
3.9516e-06
0.000673946
4.18248e-06
0.000674844
4.39465e-06
0.000675764
4.58855e-06
0.000676701
4.76473e-06
0.000677655
4.92367e-06
0.000678621
5.06594e-06
0.000679599
5.19195e-06
0.000680588
5.3022e-06
0.000681586
5.39698e-06
0.000682591
5.47672e-06
0.000683604
5.54154e-06
0.000684622
5.59185e-06
0.000685646
5.62755e-06
0.000686674
5.64908e-06
0.000687706
5.6561e-06
0.000688741
5.64911e-06
0.000689779
5.62746e-06
0.000690819
5.59186e-06
0.000691861
5.54116e-06
0.000692903
5.47651e-06
0.000693946
5.39605e-06
0.000694989
5.30164e-06
0.000696032
5.19035e-06
0.000697073
5.06523e-06
0.000698114
4.92168e-06
0.000699152
4.76472e-06
0.000700189
4.58715e-06
0.000701224
4.39709e-06
0.000702256
4.18328e-06
0.000703286
3.95881e-06
0.000704314
3.70602e-06
0.000705341
3.44579e-06
0.000706366
3.1505e-06
0.000707393
2.8533e-06
0.000708419
2.51108e-06
0.000709453
2.17651e-06
0.000710486
1.78253e-06
0.000711532
1.4123e-06
0.000712575
9.61479e-07
0.000713637
5.60502e-07
0.000714681
5.11579e-08
0.000715771
-3.94209e-07
0.000716852
-1.0083e-06
0.000718012
-1.46781e-06
0.000719184
-2.1835e-06
0.000720463
-2.65149e-06
0.000721737
-3.50728e-06
-3.96294e-06
0.000723154
0.000666708
1.60802e-07
0.000666834
4.84166e-07
0.00066704
8.0667e-07
0.000667325
1.12375e-06
0.000667682
1.43287e-06
0.000668107
1.73188e-06
0.000668592
2.01909e-06
0.000669133
2.29323e-06
0.000669722
2.55355e-06
0.000670354
2.79972e-06
0.000671025
3.03035e-06
0.000671731
3.24555e-06
0.000672468
3.44547e-06
0.000673233
3.63021e-06
0.000674021
3.79987e-06
0.000674831
3.95466e-06
0.00067566
4.09476e-06
0.000676506
4.22045e-06
0.000677366
4.33191e-06
0.000678239
4.42942e-06
0.000679122
4.5131e-06
0.000680016
4.58321e-06
0.000680918
4.63976e-06
0.000681827
4.683e-06
0.000682741
4.71281e-06
0.000683661
4.72945e-06
0.000684584
4.73263e-06
0.000685511
4.72267e-06
0.000686439
4.69901e-06
0.000687369
4.66214e-06
0.000688299
4.61115e-06
0.000689229
4.54678e-06
0.000690157
4.46761e-06
0.000691084
4.37487e-06
0.000692008
4.26638e-06
0.000692929
4.14414e-06
0.000693846
4.00481e-06
0.000694759
3.85168e-06
0.000695667
3.67962e-06
0.00069657
3.49396e-06
0.000697466
3.28686e-06
0.000698358
3.06686e-06
0.000699242
2.82193e-06
0.000700122
2.56574e-06
0.000700993
2.27973e-06
0.000701861
1.98552e-06
0.000702718
1.65409e-06
0.000703575
1.31917e-06
0.000704422
9.3516e-07
0.00070528
5.55034e-07
0.000706135
1.06591e-07
0.000707009
-3.14311e-07
0.000707885
-8.24327e-07
0.000708785
-1.2941e-06
0.000709668
-1.89171e-06
0.000710609
-2.40895e-06
0.000711537
-3.11089e-06
0.000712557
-3.67172e-06
0.000713555
-4.50515e-06
-5.099e-06
0.000714691
0.000666699
1.28774e-07
0.000666796
3.87361e-07
0.000666957
6.45638e-07
0.00066718
9.00409e-07
0.000667463
1.14993e-06
0.000667802
1.39267e-06
0.000668194
1.62731e-06
0.000668634
1.85274e-06
0.00066912
2.0681e-06
0.000669647
2.27265e-06
0.000670211
2.46577e-06
0.00067081
2.64706e-06
0.000671439
2.8163e-06
0.000672096
2.97338e-06
0.000672778
3.11822e-06
0.000673481
3.25081e-06
0.000674205
3.37115e-06
0.000674946
3.47928e-06
0.000675703
3.57524e-06
0.000676473
3.65911e-06
0.000677255
3.73092e-06
0.000678048
3.79075e-06
0.000678849
3.83856e-06
0.000679658
3.87446e-06
0.000680472
3.89833e-06
0.000681291
3.91024e-06
0.000682114
3.90999e-06
0.000682939
3.89767e-06
0.000683765
3.87291e-06
0.000684591
3.83587e-06
0.000685416
3.78596e-06
0.00068624
3.72345e-06
0.00068706
3.64746e-06
0.000687876
3.55847e-06
0.000688687
3.45516e-06
0.000689493
3.33839e-06
0.000690292
3.2062e-06
0.000691083
3.06003e-06
0.000691866
2.897e-06
0.000692641
2.71949e-06
0.000693404
2.52323e-06
0.000694159
2.31207e-06
0.000694901
2.07959e-06
0.000695635
1.83203e-06
0.000696355
1.55968e-06
0.000697068
1.27261e-06
0.000697766
9.56265e-07
0.000698458
6.26908e-07
0.00069913
2.63054e-07
0.000699797
-1.1221e-07
0.000700445
-5.40997e-07
0.000701104
-9.73118e-07
0.000701744
-1.46467e-06
0.000702404
-1.95357e-06
0.000703036
-2.52429e-06
0.000703705
-3.07767e-06
0.000704338
-3.74388e-06
0.000705032
-4.36587e-06
0.000705674
-5.1468e-06
-5.83763e-06
0.000706412
0.000666693
1.02605e-07
0.000666772
3.08512e-07
0.000666903
5.14334e-07
0.000667086
7.17736e-07
0.000667318
9.17489e-07
0.000667598
1.11247e-06
0.000667924
1.30168e-06
0.000668292
1.48422e-06
0.000668701
1.65933e-06
0.000669148
1.82636e-06
0.000669628
1.9848e-06
0.000670141
2.13421e-06
0.000670683
2.27425e-06
0.000671252
2.40468e-06
0.000671845
2.52531e-06
0.00067246
2.63601e-06
0.000673094
2.73665e-06
0.000673746
2.82716e-06
0.000674414
2.90749e-06
0.000675096
2.97759e-06
0.000675789
3.03741e-06
0.000676493
3.08693e-06
0.000677205
3.12609e-06
0.000677925
3.15485e-06
0.00067865
3.17311e-06
0.00067938
3.18083e-06
0.000680112
3.17784e-06
0.000680845
3.16409e-06
0.000681579
3.13933e-06
0.000682311
3.10348e-06
0.000683041
3.05621e-06
0.000683767
2.99742e-06
0.000684488
2.92666e-06
0.000685203
2.84382e-06
0.00068591
2.7483e-06
0.000686608
2.64002e-06
0.000687296
2.51815e-06
0.000687973
2.38269e-06
0.000688638
2.23252e-06
0.000689289
2.06776e-06
0.000689926
1.88689e-06
0.000690548
1.6903e-06
0.000691151
1.47587e-06
0.000691739
1.24441e-06
0.000692306
9.92982e-07
0.000692855
7.22995e-07
0.000693381
4.30366e-07
0.00069389
1.17853e-07
0.000694377
-2.23422e-07
0.000694853
-5.88355e-07
0.000695296
-9.8444e-07
0.000695729
-1.40564e-06
0.000696128
-1.86391e-06
0.000696524
-2.34946e-06
0.00069688
-2.88016e-06
0.000697243
-3.44055e-06
0.000697556
-4.05689e-06
0.000697894
-4.704e-06
0.000698168
-5.42107e-06
-6.1661e-06
0.000698497
0.000666689
8.05397e-08
0.000666755
2.42111e-07
0.000666866
4.03695e-07
0.00066702
5.63561e-07
0.000667217
7.20819e-07
0.000667454
8.74651e-07
0.000667732
1.0243e-06
0.000668047
1.16909e-06
0.000668398
1.3084e-06
0.000668783
1.4417e-06
0.000669199
1.56854e-06
0.000669645
1.68851e-06
0.000670117
1.80129e-06
0.000670616
1.90659e-06
0.000671137
2.00418e-06
0.000671679
2.09388e-06
0.00067224
2.17551e-06
0.000672818
2.24895e-06
0.000673412
2.31409e-06
0.000674018
2.37081e-06
0.000674637
2.41905e-06
0.000675265
2.45869e-06
0.000675901
2.48967e-06
0.000676544
2.51187e-06
0.000677192
2.52521e-06
0.000677844
2.52955e-06
0.000678497
2.52479e-06
0.00067915
2.51075e-06
0.000679802
2.4873e-06
0.000680451
2.45419e-06
0.000681096
2.41127e-06
0.000681735
2.35822e-06
0.000682367
2.29486e-06
0.00068299
2.22074e-06
0.000683603
2.13572e-06
0.000684204
2.03913e-06
0.000684791
1.93092e-06
0.000685364
1.81013e-06
0.000685919
1.67685e-06
0.000686457
1.52972e-06
0.000686975
1.36911e-06
0.000687472
1.19302e-06
0.000687946
1.00237e-06
0.000688396
7.94183e-07
0.000688819
5.70393e-07
0.000689215
3.26628e-07
0.000689578
6.73343e-08
0.000689916
-2.20631e-07
0.00069022
-5.27061e-07
0.000690494
-8.62667e-07
0.000690727
-1.2171e-06
0.00069093
-1.60867e-06
0.000691085
-2.01906e-06
0.000691213
-2.47704e-06
0.000691285
-2.95182e-06
0.000691333
-3.4892e-06
0.000691314
-4.038e-06
0.000691281
-4.67105e-06
0.000691164
-5.30358e-06
-6.05046e-06
0.000691048
0.000666686
6.14139e-08
0.000666743
1.84595e-07
0.000666839
3.0783e-07
0.000666973
4.29849e-07
0.000667144
5.5001e-07
0.000667351
6.67721e-07
0.000667592
7.82426e-07
0.000667868
8.93614e-07
0.000668176
1.00082e-06
0.000668514
1.10362e-06
0.000668881
1.20164e-06
0.000669274
1.29456e-06
0.000669694
1.38206e-06
0.000670136
1.46391e-06
0.000670601
1.53987e-06
0.000671085
1.60975e-06
0.000671587
1.6734e-06
0.000672105
1.73065e-06
0.000672638
1.78138e-06
0.000673183
1.82547e-06
0.00067374
1.86282e-06
0.000674305
1.8933e-06
0.000674878
1.91684e-06
0.000675456
1.93329e-06
0.000676039
1.94259e-06
0.000676624
1.94455e-06
0.00067721
1.93912e-06
0.000677794
1.92605e-06
0.000678376
1.90529e-06
0.000678954
1.87653e-06
0.000679526
1.83972e-06
0.000680089
1.79443e-06
0.000680643
1.74068e-06
0.000681186
1.67782e-06
0.000681716
1.606e-06
0.000682231
1.52428e-06
0.000682729
1.43303e-06
0.000683208
1.33084e-06
0.000683667
1.2185e-06
0.000684102
1.09387e-06
0.000684513
9.5844e-07
0.000684897
8.08969e-07
0.000685251
6.48094e-07
0.000685575
4.70865e-07
0.000685863
2.81919e-07
0.000686116
7.40136e-08
0.000686332
-1.48646e-07
0.000686508
-3.96903e-07
0.000686638
-6.56656e-07
0.000686723
-9.47813e-07
0.000686755
-1.24916e-06
0.000686738
-1.59192e-06
0.00068666
-1.94099e-06
0.000686529
-2.3461e-06
0.000686327
-2.74958e-06
0.000686069
-3.23099e-06
0.000685726
-3.69586e-06
0.000685327
-4.27174e-06
0.000684827
-4.80384e-06
-5.49631e-06
0.000684273
0.000666684
4.43922e-08
0.000666735
1.3343e-07
0.00066682
2.22537e-07
0.000666939
3.10814e-07
0.000667091
3.97818e-07
0.000667276
4.83131e-07
0.000667492
5.66365e-07
0.000667738
6.47152e-07
0.000668014
7.25156e-07
0.000668318
8.00066e-07
0.000668648
8.716e-07
0.000669003
9.395e-07
0.000669381
1.00354e-06
0.000669782
1.0635e-06
0.000670202
1.11922e-06
0.000670642
1.17051e-06
0.000671098
1.21724e-06
0.000671569
1.25928e-06
0.000672054
1.2965e-06
0.000672551
1.32879e-06
0.000673057
1.35606e-06
0.000673573
1.37819e-06
0.000674094
1.39511e-06
0.000674621
1.40668e-06
0.000675151
1.41284e-06
0.000675682
1.41343e-06
0.000676213
1.4084e-06
0.000676741
1.39752e-06
0.000677266
1.38078e-06
0.000677784
1.35787e-06
0.000678295
1.3288e-06
0.000678796
1.29314e-06
0.000679286
1.251e-06
0.000679762
1.20172e-06
0.000680223
1.14559e-06
0.000680665
1.08161e-06
0.000681088
1.01035e-06
0.000681488
9.30344e-07
0.000681864
8.42614e-07
0.000682213
7.44925e-07
0.000682533
6.391e-07
0.00068282
5.21707e-07
0.000683072
3.95899e-07
0.000683287
2.56396e-07
0.00068346
1.08714e-07
0.00068359
-5.63814e-08
0.000683674
-2.32089e-07
0.000683706
-4.29075e-07
0.000683682
-6.3315e-07
0.0006836
-8.65767e-07
0.000683454
-1.10292e-06
0.000683241
-1.37865e-06
0.000682953
-1.65351e-06
0.000682589
-1.98199e-06
0.000682139
-2.29947e-06
0.000681602
-2.69357e-06
0.000680964
-3.05844e-06
0.000680228
-3.53535e-06
0.000679374
-3.9506e-06
-4.53205e-06
0.00067841
0.000666682
2.88287e-08
0.000666729
8.66624e-08
0.000666807
1.44563e-07
0.000666916
2.01958e-07
0.000667055
2.58564e-07
0.000667224
3.14115e-07
0.000667422
3.68361e-07
0.000667648
4.21067e-07
0.000667901
4.72013e-07
0.00066818
5.20993e-07
0.000668484
5.6782e-07
0.000668811
6.1232e-07
0.000669161
6.54335e-07
0.00066953
6.93721e-07
0.000669919
7.3035e-07
0.000670326
7.64099e-07
0.000670748
7.94869e-07
0.000671185
8.22553e-07
0.000671634
8.47072e-07
0.000672095
8.6833e-07
0.000672564
8.86263e-07
0.000673042
9.00774e-07
0.000673525
9.11813e-07
0.000674013
9.19271e-07
0.000674502
9.23109e-07
0.000674992
9.23194e-07
0.000675481
9.19502e-07
0.000675967
9.11855e-07
0.000676448
9.00255e-07
0.000676921
8.84452e-07
0.000677385
8.64494e-07
0.000677838
8.40024e-07
0.000678278
8.11167e-07
0.000678703
7.774e-07
0.000679109
7.38987e-07
0.000679496
6.95148e-07
0.00067986
6.46383e-07
0.000680198
5.91513e-07
0.00068051
5.31437e-07
0.00068079
4.64351e-07
0.000681037
3.91824e-07
0.000681248
3.11079e-07
0.000681419
2.24799e-07
0.000681547
1.28711e-07
0.000681628
2.7602e-08
0.000681659
-8.77083e-08
0.000681636
-2.08362e-07
0.000681552
-3.4504e-07
0.000681404
-4.85644e-07
0.000681186
-6.47771e-07
0.000680894
-8.11346e-07
0.00068052
-1.00444e-06
0.000680061
-1.19412e-06
0.000679504
-1.42546e-06
0.000678849
-1.6445e-06
0.00067808
-1.92396e-06
0.000677197
-2.1753e-06
0.000676178
-2.51626e-06
0.000675028
-2.8012e-06
-3.221e-06
0.000673717
0.000666681
1.41872e-08
0.000666725
4.26725e-08
0.000666799
7.12176e-08
0.000666901
9.95417e-08
0.000667032
1.27506e-07
0.000667191
1.54982e-07
0.000667378
1.81845e-07
0.000667591
2.07979e-07
0.00066783
2.33276e-07
0.000668093
2.57632e-07
0.00066838
2.80953e-07
0.000668689
3.0315e-07
0.000669019
3.24144e-07
0.000669369
3.43859e-07
0.000669737
3.62228e-07
0.000670122
3.79187e-07
0.000670522
3.94683e-07
0.000670936
4.08659e-07
0.000671362
4.21071e-07
0.000671799
4.31868e-07
0.000672244
4.41015e-07
0.000672696
4.48458e-07
0.000673154
4.5417e-07
0.000673615
4.58092e-07
0.000674078
4.60203e-07
0.000674541
4.60429e-07
0.000675001
4.5876e-07
0.000675458
4.55097e-07
0.000675909
4.49445e-07
0.000676352
4.41669e-07
0.000676784
4.31798e-07
0.000677205
4.19637e-07
0.000677611
4.05263e-07
0.000678
3.88388e-07
0.00067837
3.69168e-07
0.000678718
3.47173e-07
0.000679041
3.22694e-07
0.000679338
2.9508e-07
0.000679604
2.64849e-07
0.000679838
2.31e-07
0.000680035
1.94428e-07
0.000680193
1.53585e-07
0.000680307
1.09989e-07
0.000680375
6.12593e-08
0.000680392
1.01283e-08
0.000680353
-4.86207e-08
0.000680255
-1.0979e-07
0.000680089
-1.79486e-07
0.000679854
-2.50876e-07
0.00067954
-3.33802e-07
0.000679146
-4.1695e-07
0.000678658
-5.16048e-07
0.000678076
-6.12534e-07
0.000677382
-7.31714e-07
0.000676581
-8.43156e-07
0.000675645
-9.87759e-07
0.000674585
-1.11555e-06
0.000673362
-1.2929e-06
0.000671998
-1.43744e-06
-1.65712e-06
0.000670434
0.000666681
-6.81163e-12
0.000666724
2.97637e-11
0.000666795
1.15554e-10
0.000666894
2.4888e-10
0.000667021
4.28083e-10
0.000667175
6.51437e-10
0.000667356
9.17167e-10
0.000667563
1.22343e-09
0.000667795
1.5683e-09
0.00066805
1.94978e-09
0.000668329
2.36582e-09
0.000668629
2.81441e-09
0.00066895
3.29353e-09
0.00066929
3.80115e-09
0.000669648
4.33526e-09
0.000670022
4.89386e-09
0.000670412
5.47494e-09
0.000670814
6.07656e-09
0.000671229
6.69683e-09
0.000671653
7.33396e-09
0.000672086
7.98621e-09
0.000672526
8.65194e-09
0.000672971
9.32957e-09
0.000673419
1.00176e-08
0.000673868
1.07146e-08
0.000674317
1.14193e-08
0.000674764
1.21306e-08
0.000675206
1.28473e-08
0.000675642
1.35685e-08
0.000676069
1.42934e-08
0.000676486
1.50212e-08
0.00067689
1.57514e-08
0.000677279
1.64834e-08
0.00067765
1.72169e-08
0.000678001
1.79517e-08
0.00067833
1.86872e-08
0.000678633
1.94233e-08
0.000678908
2.0159e-08
0.000679152
2.08947e-08
0.000679361
2.16302e-08
0.000679533
2.23698e-08
0.000679664
2.31187e-08
0.00067975
2.38929e-08
0.000679786
2.47267e-08
0.000679771
2.55946e-08
0.000679696
2.64154e-08
0.000679559
2.72272e-08
0.000679351
2.80375e-08
0.000679072
2.8867e-08
0.000678708
2.97135e-08
0.000678261
3.05936e-08
0.000677713
3.14919e-08
0.000677068
3.24274e-08
0.000676303
3.33808e-08
0.000675425
3.43799e-08
0.000674402
3.54e-08
0.00067325
3.64744e-08
0.00067192
3.75733e-08
0.000670444
3.87294e-08
3.9916e-08
0.000668747
0.000666681
-1.42004e-08
0.000666724
-4.26122e-08
0.000666795
-7.0986e-08
0.000666894
-9.90444e-08
0.000667021
-1.26652e-07
0.000667175
-1.53683e-07
0.000667356
-1.80017e-07
0.000667563
-2.05542e-07
0.000667795
-2.30152e-07
0.00066805
-2.53749e-07
0.000668329
-2.76241e-07
0.000668629
-2.97546e-07
0.00066895
-3.17586e-07
0.00066929
-3.3629e-07
0.000669648
-3.53596e-07
0.000670023
-3.69443e-07
0.000670412
-3.83783e-07
0.000670815
-3.96561e-07
0.000671229
-4.07739e-07
0.000671654
-4.17268e-07
0.000672087
-4.25117e-07
0.000672527
-4.31235e-07
0.000672971
-4.35599e-07
0.00067342
-4.38152e-07
0.000673869
-4.38876e-07
0.000674318
-4.377e-07
0.000674765
-4.34615e-07
0.000675207
-4.29526e-07
0.000675643
-4.2244e-07
0.000676071
-4.13221e-07
0.000676488
-4.01903e-07
0.000676892
-3.88289e-07
0.000677281
-3.72459e-07
0.000677652
-3.54125e-07
0.000678004
-3.33443e-07
0.000678332
-3.09984e-07
0.000678636
-2.84039e-07
0.000678911
-2.54956e-07
0.000679155
-2.23252e-07
0.000679365
-1.8793e-07
0.000679537
-1.49885e-07
0.000679668
-1.07583e-07
0.000679754
-6.25642e-08
0.000679791
-1.25756e-08
0.000679776
4.09976e-08
0.000679701
1.01275e-07
0.000679564
1.63953e-07
0.000679357
2.35241e-07
0.000679078
3.08292e-07
0.000678715
3.92905e-07
0.000678267
4.77805e-07
0.00067772
5.78677e-07
0.000677076
6.7702e-07
0.000676311
7.98082e-07
0.000675434
9.11513e-07
0.000674411
1.05813e-06
0.000673259
1.18807e-06
0.000671929
1.36758e-06
0.000670454
1.51446e-06
1.7365e-06
0.000668757
0.000666681
-2.88408e-08
0.000666725
-8.66004e-08
0.000666799
-1.44331e-07
0.000666901
-2.01463e-07
0.000667032
-2.57716e-07
0.000667191
-3.12827e-07
0.000667378
-3.66552e-07
0.000667591
-4.18656e-07
0.00066783
-4.68924e-07
0.000668093
-5.17155e-07
0.00066838
-5.63166e-07
0.000668689
-6.06785e-07
0.00066902
-6.4786e-07
0.000669369
-6.8625e-07
0.000669738
-7.21831e-07
0.000670123
-7.54485e-07
0.000670523
-7.84115e-07
0.000670937
-8.1062e-07
0.000671363
-8.33923e-07
0.0006718
-8.53932e-07
0.000672245
-8.70587e-07
0.000672698
-8.83793e-07
0.000673156
-8.93505e-07
0.000673617
-8.99615e-07
0.000674081
-9.02089e-07
0.000674544
-9.00793e-07
0.000675005
-8.95709e-07
0.000675462
-8.86659e-07
0.000675913
-8.73647e-07
0.000676356
-8.56425e-07
0.000676789
-8.35043e-07
0.00067721
-8.09144e-07
0.000677617
-7.78855e-07
0.000678006
-7.43654e-07
0.000678377
-7.03804e-07
0.000678725
-6.58527e-07
0.000679049
-6.08321e-07
0.000679347
-5.5201e-07
0.000679614
-4.9049e-07
0.000679848
-4.21963e-07
0.000680046
-3.4799e-07
0.000680204
-2.65806e-07
0.00068032
-1.78094e-07
0.000680388
-8.06569e-08
0.000680406
2.2239e-08
0.000680368
1.3961e-07
0.00068027
2.61686e-07
0.000680106
3.99885e-07
0.000679872
5.421e-07
0.000679559
7.05867e-07
0.000679166
8.71163e-07
0.000678678
1.06599e-06
0.000678098
1.25749e-06
0.000677405
1.49066e-06
0.000676605
1.71165e-06
0.00067567
1.99304e-06
0.000674612
2.24651e-06
0.00067339
2.58954e-06
0.000672027
2.8768e-06
3.29883e-06
0.000670465
0.000666682
-4.44024e-08
0.000666729
-1.33366e-07
0.000666807
-2.22303e-07
0.000666916
-3.10322e-07
0.000667055
-3.96979e-07
0.000667224
-4.81862e-07
0.000667422
-5.64584e-07
0.000667648
-6.44783e-07
0.000667901
-7.22125e-07
0.000668181
-7.96303e-07
0.000668485
-8.6704e-07
0.000668812
-9.3408e-07
0.000669161
-9.972e-07
0.000669531
-1.05619e-06
0.00066992
-1.11089e-06
0.000670327
-1.16111e-06
0.000670749
-1.20673e-06
0.000671186
-1.24762e-06
0.000671636
-1.28365e-06
0.000672097
-1.31473e-06
0.000672567
-1.34075e-06
0.000673045
-1.36161e-06
0.000673529
-1.37724e-06
0.000674016
-1.38749e-06
0.000674507
-1.39233e-06
0.000674998
-1.39157e-06
0.000675487
-1.38518e-06
0.000675973
-1.37294e-06
0.000676454
-1.35483e-06
0.000676929
-1.33054e-06
0.000677394
-1.30009e-06
0.000677848
-1.26304e-06
0.000678288
-1.21951e-06
0.000678713
-1.16883e-06
0.000679121
-1.1113e-06
0.000679508
-1.04593e-06
0.000679873
-9.73269e-07
0.000680213
-8.91862e-07
0.000680525
-8.02728e-07
0.000680807
-7.0364e-07
0.000681055
-5.96412e-07
0.000681267
-4.77625e-07
0.00068144
-3.50426e-07
0.000681568
-2.09575e-07
0.000681651
-6.07035e-08
0.000681684
1.07016e-07
0.000681662
2.83949e-07
0.000681579
4.82393e-07
0.000681433
6.88035e-07
0.000681217
9.22223e-07
0.000680927
1.16104e-06
0.000680555
1.43841e-06
0.000680097
1.71504e-06
0.000679542
2.04524e-06
0.00067889
2.36463e-06
0.000678122
2.76054e-06
0.000677241
3.1275e-06
0.000676224
3.60632e-06
0.000675077
4.02387e-06
4.60733e-06
0.000673769
0.000666684
-6.14216e-08
0.000666735
-1.84526e-07
0.00066682
-3.07595e-07
0.000666939
-4.2936e-07
0.000667091
-5.49185e-07
0.000667276
-6.66477e-07
0.000667492
-7.80686e-07
0.000667739
-8.91304e-07
0.000668014
-9.97869e-07
0.000668318
-1.09996e-06
0.000668648
-1.19721e-06
0.000669003
-1.2893e-06
0.000669382
-1.37592e-06
0.000669783
-1.45682e-06
0.000670204
-1.5318e-06
0.000670643
-1.60065e-06
0.0006711
-1.66322e-06
0.000671571
-1.71936e-06
0.000672057
-1.76895e-06
0.000672554
-1.81187e-06
0.000673061
-1.84802e-06
0.000673577
-1.87728e-06
0.000674099
-1.89957e-06
0.000674626
-1.91476e-06
0.000675157
-1.92278e-06
0.000675689
-1.92345e-06
0.00067622
-1.9167e-06
0.00067675
-1.90232e-06
0.000677275
-1.88025e-06
0.000677795
-1.85015e-06
0.000678307
-1.81202e-06
0.000678809
-1.76539e-06
0.0006793
-1.7103e-06
0.000679777
-1.6461e-06
0.000680239
-1.57295e-06
0.000680683
-1.48988e-06
0.000681107
-1.39729e-06
0.000681509
-1.29376e-06
0.000681886
-1.18007e-06
0.000682236
-1.0541e-06
0.000682557
-9.17314e-07
0.000682846
-7.6649e-07
0.0006831
-6.04254e-07
0.000683316
-4.25683e-07
0.000683491
-2.35425e-07
0.000683624
-2.66756e-08
0.00068371
1.98694e-07
0.000683744
4.482e-07
0.000683723
7.0941e-07
0.000683643
1.00202e-06
0.000683499
1.30496e-06
0.000683288
1.64924e-06
0.000683003
2.00001e-06
0.000682642
2.4067e-06
0.000682194
2.81203e-06
0.00068166
3.29508e-06
0.000681025
3.76198e-06
0.000680292
4.33956e-06
0.000679442
4.87394e-06
5.56813e-06
0.000678481
0.000666686
-8.05443e-08
0.000666743
-2.42038e-07
0.000666839
-4.03458e-07
0.000666973
-5.63078e-07
0.000667144
-7.20011e-07
0.000667351
-8.7344e-07
0.000667593
-1.02261e-06
0.000667868
-1.16685e-06
0.000668176
-1.30555e-06
0.000668514
-1.43817e-06
0.000668881
-1.56427e-06
0.000669275
-1.68345e-06
0.000669695
-1.79539e-06
0.000670138
-1.89979e-06
0.000670602
-1.99644e-06
0.000671087
-2.08515e-06
0.000671589
-2.16576e-06
0.000672108
-2.23814e-06
0.000672641
-2.30219e-06
0.000673187
-2.3578e-06
0.000673744
-2.40489e-06
0.00067431
-2.44337e-06
0.000674884
-2.47316e-06
0.000675463
-2.49416e-06
0.000676047
-2.50628e-06
0.000676633
-2.50939e-06
0.000677219
-2.50339e-06
0.000677805
-2.4881e-06
0.000678388
-2.46339e-06
0.000678967
-2.42902e-06
0.00067954
-2.38485e-06
0.000680105
-2.33052e-06
0.000680661
-2.2659e-06
0.000681205
-2.19052e-06
0.000681736
-2.10422e-06
0.000682253
-2.00637e-06
0.000682753
-1.89688e-06
0.000683234
-1.77482e-06
0.000683694
-1.64027e-06
0.000684132
-1.49187e-06
0.000684544
-1.32998e-06
0.00068493
-1.15261e-06
0.000685287
-9.60669e-07
0.000685612
-7.51203e-07
0.000685903
-5.2612e-07
0.000686157
-2.81156e-07
0.000686377
-2.1288e-08
0.000686556
2.69546e-07
0.000686688
5.77192e-07
0.000686776
9.14058e-07
0.000686811
1.26996e-06
0.000686798
1.66291e-06
0.000686723
2.07493e-06
0.000686595
2.53432e-06
0.000686396
3.01087e-06
0.000686142
3.54968e-06
0.000685803
4.10047e-06
0.000685408
4.73495e-06
0.000684912
5.36974e-06
6.118e-06
0.000684362
0.000666689
-1.02606e-07
0.000666755
-3.08434e-07
0.000666866
-5.14096e-07
0.00066702
-7.17262e-07
0.000667217
-9.16704e-07
0.000667455
-1.11131e-06
0.000667732
-1.30006e-06
0.000668047
-1.48208e-06
0.000668398