/*--------------------------------*- C++ -*----------------------------------*\
| =========                 |                                                 |
| \\      /  F ield         | OpenFOAM: The Open Source CFD Toolbox           |
|  \\    /   O peration     | Version:  2312                                  |
|   \\  /    A nd           | Website:  www.openfoam.com                      |
|    \\/     M anipulation  |                                                 |
\*---------------------------------------------------------------------------*/
FoamFile
{
    version     2.0;
    format      ascii;
    arch        "LSB;label=32;scalar=64";
    class       volVectorField;
    location    "22000";
    object      U;
}
// * * * * * * * * * * * * * * * * * * * * * * * * * * * * * * * * * * * * * //

dimensions      [0 1 -1 0 0 0 0];

internalField   nonuniform List<vector> 
2685
(
(0.000402819 -4.87179e-09 0)
(0.000402826 -4.44482e-09 0)
(0.000402832 -4.03429e-09 0)
(0.000402837 -3.64061e-09 0)
(0.000402841 -3.26187e-09 0)
(0.000402844 -2.8998e-09 0)
(0.000402848 -2.55641e-09 0)
(0.00040285 -2.23366e-09 0)
(0.000402853 -1.93313e-09 0)
(0.000402854 -1.65589e-09 0)
(0.000402856 -1.40242e-09 0)
(0.000402858 -1.17268e-09 0)
(0.000402859 -9.66229e-10 0)
(0.00040286 -7.822e-10 0)
(0.000402861 -6.19445e-10 0)
(0.000402862 -4.76666e-10 0)
(0.000402862 -3.52472e-10 0)
(0.000402863 -2.4535e-10 0)
(0.000402863 -1.53739e-10 0)
(0.000402864 -7.61642e-11 0)
(0.000402864 -1.1264e-11 0)
(0.000402864 4.22912e-11 0)
(0.000402865 8.58046e-11 0)
(0.000402865 1.20483e-10 0)
(0.000402865 1.47416e-10 0)
(0.000402865 1.67623e-10 0)
(0.000402865 1.82099e-10 0)
(0.000402865 1.91743e-10 0)
(0.000402865 1.9729e-10 0)
(0.000402865 1.99339e-10 0)
(0.000402865 1.98453e-10 0)
(0.000402865 1.95198e-10 0)
(0.000402865 1.90117e-10 0)
(0.000402865 1.83679e-10 0)
(0.000402865 1.76341e-10 0)
(0.000402865 1.6873e-10 0)
(0.000402865 1.60809e-10 0)
(0.000402865 1.52711e-10 0)
(0.000402865 1.44553e-10 0)
(0.000402865 1.36413e-10 0)
(0.000402865 1.28343e-10 0)
(0.000402865 1.20408e-10 0)
(0.000402865 1.12663e-10 0)
(0.000402865 1.05146e-10 0)
(0.000402865 9.78673e-11 0)
(0.000402865 9.0824e-11 0)
(0.000402865 8.40259e-11 0)
(0.000402865 7.749e-11 0)
(0.000402865 7.12345e-11 0)
(0.000402865 6.52856e-11 0)
(0.000402865 5.96567e-11 0)
(0.000402865 5.43657e-11 0)
(0.000402865 4.94187e-11 0)
(0.000402865 4.47976e-11 0)
(0.000402865 4.05098e-11 0)
(0.000402865 3.65057e-11 0)
(0.000402865 3.28292e-11 0)
(0.000402865 2.9479e-11 0)
(0.000402865 2.64628e-11 0)
(0.000402865 2.37984e-11 0)
(0.000402865 2.14413e-11 0)
(0.000402865 1.94072e-11 0)
(0.000402865 1.76373e-11 0)
(0.000402865 1.6103e-11 0)
(0.000402865 1.47934e-11 0)
(0.000402865 1.36185e-11 0)
(0.000402865 1.26099e-11 0)
(0.000402865 1.17001e-11 0)
(0.000402865 1.08646e-11 0)
(0.000402865 1.01408e-11 0)
(0.000402865 9.44697e-12 0)
(0.000402865 8.82068e-12 0)
(0.000402865 8.27555e-12 0)
(0.000402865 7.72953e-12 0)
(0.000402865 7.26767e-12 0)
(0.000402865 6.84867e-12 0)
(0.000402865 6.44222e-12 0)
(0.000402865 6.09189e-12 0)
(0.000402865 5.76741e-12 0)
(0.000402865 5.42948e-12 0)
(0.000402865 5.13411e-12 0)
(0.000402865 4.82525e-12 0)
(0.000402865 4.53247e-12 0)
(0.000402865 4.23357e-12 0)
(0.000402865 3.95299e-12 0)
(0.000402865 3.67287e-12 0)
(0.000402865 3.40298e-12 0)
(0.000402865 3.15161e-12 0)
(0.000402865 2.85747e-12 0)
(0.000862157 -2.70877e-08 0)
(0.00086217 -2.2774e-08 0)
(0.000862182 -1.91012e-08 0)
(0.000862193 -1.60146e-08 0)
(0.000862202 -1.34421e-08 0)
(0.000862211 -1.13082e-08 0)
(0.000862218 -9.54187e-09 0)
(0.000862225 -8.07965e-09 0)
(0.000862231 -6.86714e-09 0)
(0.000862236 -5.85881e-09 0)
(0.000862241 -5.01721e-09 0)
(0.000862245 -4.31181e-09 0)
(0.000862248 -3.71794e-09 0)
(0.000862251 -3.21572e-09 0)
(0.000862254 -2.78911e-09 0)
(0.000862257 -2.42515e-09 0)
(0.000862259 -2.11334e-09 0)
(0.000862261 -1.84515e-09 0)
(0.000862262 -1.61358e-09 0)
(0.000862264 -1.41292e-09 0)
(0.000862265 -1.23844e-09 0)
(0.000862267 -1.08624e-09 0)
(0.000862268 -9.53057e-10 0)
(0.000862269 -8.36222e-10 0)
(0.000862269 -7.33446e-10 0)
(0.00086227 -6.42789e-10 0)
(0.000862271 -5.62572e-10 0)
(0.000862271 -4.91443e-10 0)
(0.000862272 -4.28266e-10 0)
(0.000862273 -3.72089e-10 0)
(0.000862273 -3.22123e-10 0)
(0.000862273 -2.77611e-10 0)
(0.000862274 -2.37914e-10 0)
(0.000862274 -2.02401e-10 0)
(0.000862274 -1.70643e-10 0)
(0.000862274 -1.4216e-10 0)
(0.000862275 -1.16799e-10 0)
(0.000862275 -9.42869e-11 0)
(0.000862275 -7.42373e-11 0)
(0.000862275 -5.6472e-11 0)
(0.000862275 -4.08032e-11 0)
(0.000862275 -2.71288e-11 0)
(0.000862276 -1.53041e-11 0)
(0.000862276 -5.04239e-12 0)
(0.000862276 3.82435e-12 0)
(0.000862276 1.15308e-11 0)
(0.000862276 1.81439e-11 0)
(0.000862276 2.36483e-11 0)
(0.000862276 2.80925e-11 0)
(0.000862276 3.14263e-11 0)
(0.000862276 3.38059e-11 0)
(0.000862276 3.53855e-11 0)
(0.000862276 3.63503e-11 0)
(0.000862276 3.6959e-11 0)
(0.000862276 3.72948e-11 0)
(0.000862276 3.74617e-11 0)
(0.000862276 3.74187e-11 0)
(0.000862276 3.70331e-11 0)
(0.000862276 3.63132e-11 0)
(0.000862276 3.51605e-11 0)
(0.000862276 3.36058e-11 0)
(0.000862276 3.17512e-11 0)
(0.000862276 2.96272e-11 0)
(0.000862276 2.73989e-11 0)
(0.000862276 2.51978e-11 0)
(0.000862276 2.3053e-11 0)
(0.000862276 2.1126e-11 0)
(0.000862276 1.94096e-11 0)
(0.000862276 1.79227e-11 0)
(0.000862276 1.67007e-11 0)
(0.000862276 1.56915e-11 0)
(0.000862276 1.48685e-11 0)
(0.000862276 1.42457e-11 0)
(0.000862276 1.37203e-11 0)
(0.000862276 1.33288e-11 0)
(0.000862276 1.302e-11 0)
(0.000862276 1.27471e-11 0)
(0.000862276 1.25337e-11 0)
(0.000862276 1.23619e-11 0)
(0.000862276 1.21862e-11 0)
(0.000862276 1.20434e-11 0)
(0.000862276 1.19214e-11 0)
(0.000862276 1.17797e-11 0)
(0.000862276 1.16636e-11 0)
(0.000862276 1.15195e-11 0)
(0.000862276 1.14026e-11 0)
(0.000862276 1.12533e-11 0)
(0.000862276 1.11534e-11 0)
(0.000862276 1.09582e-11 0)
(0.00101653 -6.67008e-08 0)
(0.00101654 -6.12671e-08 0)
(0.00101655 -5.55468e-08 0)
(0.00101656 -4.98962e-08 0)
(0.00101657 -4.45338e-08 0)
(0.00101658 -3.95745e-08 0)
(0.00101659 -3.5066e-08 0)
(0.0010166 -3.10142e-08 0)
(0.00101661 -2.74001e-08 0)
(0.00101661 -2.41916e-08 0)
(0.00101662 -2.13516e-08 0)
(0.00101663 -1.88416e-08 0)
(0.00101663 -1.6625e-08 0)
(0.00101664 -1.46679e-08 0)
(0.00101664 -1.294e-08 0)
(0.00101664 -1.14141e-08 0)
(0.00101665 -1.00665e-08 0)
(0.00101665 -8.87613e-09 0)
(0.00101665 -7.82459e-09 0)
(0.00101665 -6.89567e-09 0)
(0.00101666 -6.07512e-09 0)
(0.00101666 -5.35043e-09 0)
(0.00101666 -4.71051e-09 0)
(0.00101666 -4.14561e-09 0)
(0.00101666 -3.64709e-09 0)
(0.00101666 -3.20726e-09 0)
(0.00101666 -2.81931e-09 0)
(0.00101667 -2.47721e-09 0)
(0.00101667 -2.17562e-09 0)
(0.00101667 -1.90977e-09 0)
(0.00101667 -1.67556e-09 0)
(0.00101667 -1.46929e-09 0)
(0.00101667 -1.28768e-09 0)
(0.00101667 -1.12777e-09 0)
(0.00101667 -9.8694e-10 0)
(0.00101667 -8.63144e-10 0)
(0.00101667 -7.54195e-10 0)
(0.00101667 -6.58321e-10 0)
(0.00101667 -5.73864e-10 0)
(0.00101667 -4.994e-10 0)
(0.00101667 -4.33785e-10 0)
(0.00101667 -3.75908e-10 0)
(0.00101667 -3.24918e-10 0)
(0.00101667 -2.79955e-10 0)
(0.00101667 -2.40304e-10 0)
(0.00101667 -2.05421e-10 0)
(0.00101667 -1.74707e-10 0)
(0.00101667 -1.47777e-10 0)
(0.00101667 -1.24156e-10 0)
(0.00101667 -1.03473e-10 0)
(0.00101667 -8.54607e-11 0)
(0.00101667 -6.97909e-11 0)
(0.00101667 -5.62903e-11 0)
(0.00101667 -4.4697e-11 0)
(0.00101667 -3.47409e-11 0)
(0.00101667 -2.62397e-11 0)
(0.00101667 -1.88995e-11 0)
(0.00101667 -1.26144e-11 0)
(0.00101667 -7.22573e-12 0)
(0.00101667 -2.61053e-12 0)
(0.00101667 1.21534e-12 0)
(0.00101667 4.318e-12 0)
(0.00101667 6.72067e-12 0)
(0.00101667 8.38061e-12 0)
(0.00101667 9.46067e-12 0)
(0.00101667 9.95475e-12 0)
(0.00101667 1.00222e-11 0)
(0.00101667 9.79791e-12 0)
(0.00101667 9.37982e-12 0)
(0.00101667 8.88981e-12 0)
(0.00101667 8.47186e-12 0)
(0.00101667 8.08616e-12 0)
(0.00101667 7.89578e-12 0)
(0.00101667 7.81398e-12 0)
(0.00101667 7.88925e-12 0)
(0.00101667 8.07671e-12 0)
(0.00101667 8.39862e-12 0)
(0.00101667 8.7231e-12 0)
(0.00101667 9.17692e-12 0)
(0.00101667 9.55673e-12 0)
(0.00101667 1.00192e-11 0)
(0.00101667 1.03759e-11 0)
(0.00101667 1.08173e-11 0)
(0.00101667 1.1084e-11 0)
(0.00101667 1.14807e-11 0)
(0.00101667 1.16346e-11 0)
(0.00101667 1.19664e-11 0)
(0.00101667 1.20192e-11 0)
(0.00101667 1.23033e-11 0)
(0.00105294 -7.69961e-08 0)
(0.00105294 -7.18008e-08 0)
(0.00105294 -6.61192e-08 0)
(0.00105294 -6.0324e-08 0)
(0.00105294 -5.46642e-08 0)
(0.00105294 -4.9292e-08 0)
(0.00105294 -4.42918e-08 0)
(0.00105294 -3.97013e-08 0)
(0.00105294 -3.55274e-08 0)
(0.00105295 -3.1758e-08 0)
(0.00105295 -2.83696e-08 0)
(0.00105295 -2.53335e-08 0)
(0.00105295 -2.26186e-08 0)
(0.00105295 -2.01941e-08 0)
(0.00105295 -1.80305e-08 0)
(0.00105295 -1.61005e-08 0)
(0.00105296 -1.43788e-08 0)
(0.00105296 -1.28429e-08 0)
(0.00105296 -1.14723e-08 0)
(0.00105296 -1.0249e-08 0)
(0.00105296 -9.15674e-09 0)
(0.00105296 -8.1811e-09 0)
(0.00105296 -7.30934e-09 0)
(0.00105296 -6.53013e-09 0)
(0.00105296 -5.83344e-09 0)
(0.00105296 -5.21037e-09 0)
(0.00105297 -4.65299e-09 0)
(0.00105297 -4.15427e-09 0)
(0.00105297 -3.70799e-09 0)
(0.00105297 -3.30859e-09 0)
(0.00105297 -2.95114e-09 0)
(0.00105297 -2.63126e-09 0)
(0.00105297 -2.34508e-09 0)
(0.00105297 -2.0891e-09 0)
(0.00105297 -1.86011e-09 0)
(0.00105297 -1.65538e-09 0)
(0.00105297 -1.47236e-09 0)
(0.00105297 -1.30883e-09 0)
(0.00105297 -1.16275e-09 0)
(0.00105297 -1.03224e-09 0)
(0.00105297 -9.15725e-10 0)
(0.00105297 -8.117e-10 0)
(0.00105297 -7.18862e-10 0)
(0.00105297 -6.36007e-10 0)
(0.00105297 -5.62021e-10 0)
(0.00105297 -4.96035e-10 0)
(0.00105297 -4.37175e-10 0)
(0.00105297 -3.84762e-10 0)
(0.00105297 -3.38125e-10 0)
(0.00105297 -2.96625e-10 0)
(0.00105297 -2.59753e-10 0)
(0.00105297 -2.26963e-10 0)
(0.00105297 -1.97831e-10 0)
(0.00105297 -1.72013e-10 0)
(0.00105297 -1.49126e-10 0)
(0.00105297 -1.2898e-10 0)
(0.00105297 -1.1122e-10 0)
(0.00105297 -9.56087e-11 0)
(0.00105297 -8.19099e-11 0)
(0.00105297 -6.98643e-11 0)
(0.00105297 -5.93093e-11 0)
(0.00105297 -5.01138e-11 0)
(0.00105297 -4.20899e-11 0)
(0.00105297 -3.52481e-11 0)
(0.00105297 -2.93981e-11 0)
(0.00105297 -2.45167e-11 0)
(0.00105297 -2.04724e-11 0)
(0.00105297 -1.71554e-11 0)
(0.00105297 -1.44088e-11 0)
(0.00105297 -1.21853e-11 0)
(0.00105297 -1.02232e-11 0)
(0.00105297 -8.58963e-12 0)
(0.00105297 -7.02958e-12 0)
(0.00105297 -5.62792e-12 0)
(0.00105297 -4.20962e-12 0)
(0.00105297 -2.91258e-12 0)
(0.00105297 -1.5041e-12 0)
(0.00105297 -2.91435e-13 0)
(0.00105297 1.07958e-12 0)
(0.00105297 2.19128e-12 0)
(0.00105297 3.47246e-12 0)
(0.00105297 4.4146e-12 0)
(0.00105297 5.59999e-12 0)
(0.00105297 6.31376e-12 0)
(0.00105297 7.39777e-12 0)
(0.00105297 7.88299e-12 0)
(0.00105297 8.86389e-12 0)
(0.00105297 9.10306e-12 0)
(0.00105297 1.00142e-11 0)
(0.00105945 -6.13117e-08 0)
(0.00105945 -6.01618e-08 0)
(0.00105945 -5.79371e-08 0)
(0.00105945 -5.50075e-08 0)
(0.00105946 -5.16577e-08 0)
(0.00105946 -4.80996e-08 0)
(0.00105946 -4.44864e-08 0)
(0.00105947 -4.09253e-08 0)
(0.00105947 -3.74885e-08 0)
(0.00105947 -3.42221e-08 0)
(0.00105947 -3.11527e-08 0)
(0.00105948 -2.82936e-08 0)
(0.00105948 -2.56481e-08 0)
(0.00105948 -2.32132e-08 0)
(0.00105948 -2.09815e-08 0)
(0.00105948 -1.89429e-08 0)
(0.00105949 -1.70858e-08 0)
(0.00105949 -1.53979e-08 0)
(0.00105949 -1.38668e-08 0)
(0.00105949 -1.24799e-08 0)
(0.00105949 -1.12255e-08 0)
(0.00105949 -1.00922e-08 0)
(0.00105949 -9.06928e-09 0)
(0.0010595 -8.14685e-09 0)
(0.0010595 -7.31564e-09 0)
(0.0010595 -6.56714e-09 0)
(0.0010595 -5.89349e-09 0)
(0.0010595 -5.2875e-09 0)
(0.0010595 -4.7426e-09 0)
(0.0010595 -4.25279e-09 0)
(0.0010595 -3.8126e-09 0)
(0.0010595 -3.41711e-09 0)
(0.0010595 -3.06186e-09 0)
(0.0010595 -2.74281e-09 0)
(0.0010595 -2.45625e-09 0)
(0.0010595 -2.19889e-09 0)
(0.0010595 -1.96777e-09 0)
(0.0010595 -1.76022e-09 0)
(0.0010595 -1.57387e-09 0)
(0.0010595 -1.40651e-09 0)
(0.0010595 -1.25627e-09 0)
(0.0010595 -1.12141e-09 0)
(0.0010595 -1.0004e-09 0)
(0.0010595 -8.91852e-10 0)
(0.0010595 -7.94489e-10 0)
(0.0010595 -7.07227e-10 0)
(0.0010595 -6.29036e-10 0)
(0.0010595 -5.59018e-10 0)
(0.0010595 -4.96361e-10 0)
(0.0010595 -4.40296e-10 0)
(0.0010595 -3.90159e-10 0)
(0.0010595 -3.45337e-10 0)
(0.0010595 -3.05272e-10 0)
(0.0010595 -2.69536e-10 0)
(0.0010595 -2.37665e-10 0)
(0.0010595 -2.09333e-10 0)
(0.0010595 -1.84156e-10 0)
(0.0010595 -1.61812e-10 0)
(0.0010595 -1.41982e-10 0)
(0.0010595 -1.24384e-10 0)
(0.0010595 -1.08733e-10 0)
(0.0010595 -9.4878e-11 0)
(0.0010595 -8.25631e-11 0)
(0.0010595 -7.17456e-11 0)
(0.0010595 -6.22307e-11 0)
(0.0010595 -5.39757e-11 0)
(0.0010595 -4.68167e-11 0)
(0.0010595 -4.07068e-11 0)
(0.0010595 -3.54104e-11 0)
(0.0010595 -3.09426e-11 0)
(0.0010595 -2.69861e-11 0)
(0.0010595 -2.36171e-11 0)
(0.0010595 -2.05183e-11 0)
(0.0010595 -1.78133e-11 0)
(0.0010595 -1.51918e-11 0)
(0.0010595 -1.29057e-11 0)
(0.0010595 -1.05473e-11 0)
(0.0010595 -8.55915e-12 0)
(0.0010595 -6.40478e-12 0)
(0.0010595 -4.67881e-12 0)
(0.0010595 -2.70356e-12 0)
(0.0010595 -1.27774e-12 0)
(0.0010595 5.34697e-13 0)
(0.0010595 1.62621e-12 0)
(0.0010595 3.29756e-12 0)
(0.0010595 4.05084e-12 0)
(0.0010595 5.60869e-12 0)
(0.0010595 5.99657e-12 0)
(0.0010595 7.47737e-12 0)
(0.00106045 -8.15877e-08 0)
(0.00106045 -7.73104e-08 0)
(0.00106045 -7.26429e-08 0)
(0.00106045 -6.77782e-08 0)
(0.00106045 -6.28683e-08 0)
(0.00106045 -5.80286e-08 0)
(0.00106045 -5.33426e-08 0)
(0.00106045 -4.88681e-08 0)
(0.00106045 -4.46417e-08 0)
(0.00106045 -4.06844e-08 0)
(0.00106045 -3.70045e-08 0)
(0.00106045 -3.36018e-08 0)
(0.00106045 -3.04697e-08 0)
(0.00106045 -2.75973e-08 0)
(0.00106045 -2.49709e-08 0)
(0.00106045 -2.25756e-08 0)
(0.00106045 -2.03952e-08 0)
(0.00106045 -1.8414e-08 0)
(0.00106045 -1.66162e-08 0)
(0.00106045 -1.49866e-08 0)
(0.00106045 -1.3511e-08 0)
(0.00106045 -1.21758e-08 0)
(0.00106045 -1.09686e-08 0)
(0.00106045 -9.87775e-09 0)
(0.00106045 -8.89245e-09 0)
(0.00106045 -8.00292e-09 0)
(0.00106045 -7.20019e-09 0)
(0.00106045 -6.47605e-09 0)
(0.00106045 -5.82303e-09 0)
(0.00106045 -5.23435e-09 0)
(0.00106045 -4.70383e-09 0)
(0.00106045 -4.22588e-09 0)
(0.00106045 -3.79543e-09 0)
(0.00106045 -3.40791e-09 0)
(0.00106045 -3.05913e-09 0)
(0.00106045 -2.7453e-09 0)
(0.00106045 -2.46301e-09 0)
(0.00106045 -2.20914e-09 0)
(0.00106045 -1.9809e-09 0)
(0.00106045 -1.77573e-09 0)
(0.00106045 -1.59132e-09 0)
(0.00106045 -1.42562e-09 0)
(0.00106045 -1.27674e-09 0)
(0.00106045 -1.143e-09 0)
(0.00106045 -1.02284e-09 0)
(0.00106045 -9.14925e-10 0)
(0.00106046 -8.18017e-10 0)
(0.00106046 -7.31018e-10 0)
(0.00106046 -6.52936e-10 0)
(0.00106046 -5.82873e-10 0)
(0.00106046 -5.20008e-10 0)
(0.00106046 -4.63624e-10 0)
(0.00106046 -4.13035e-10 0)
(0.00106046 -3.67698e-10 0)
(0.00106046 -3.2707e-10 0)
(0.00106046 -2.90723e-10 0)
(0.00106046 -2.5822e-10 0)
(0.00106046 -2.29196e-10 0)
(0.00106046 -2.03264e-10 0)
(0.00106046 -1.80128e-10 0)
(0.00106046 -1.59435e-10 0)
(0.00106046 -1.40991e-10 0)
(0.00106046 -1.24493e-10 0)
(0.00106046 -1.09837e-10 0)
(0.00106046 -9.67852e-11 0)
(0.00106046 -8.52764e-11 0)
(0.00106046 -7.50813e-11 0)
(0.00106046 -6.61888e-11 0)
(0.00106046 -5.83045e-11 0)
(0.00106046 -5.14774e-11 0)
(0.00106046 -4.5359e-11 0)
(0.00106046 -4.0053e-11 0)
(0.00106046 -3.5184e-11 0)
(0.00106046 -3.09483e-11 0)
(0.00106046 -2.69144e-11 0)
(0.00106046 -2.34389e-11 0)
(0.00106046 -1.99708e-11 0)
(0.00106046 -1.70667e-11 0)
(0.00106046 -1.40212e-11 0)
(0.00106046 -1.15994e-11 0)
(0.00106046 -8.87719e-12 0)
(0.00106046 -6.92076e-12 0)
(0.00106046 -4.44913e-12 0)
(0.00106046 -2.94717e-12 0)
(0.00106046 -6.74795e-13 0)
(0.00106046 3.53728e-13 0)
(0.00106046 2.48342e-12 0)
(0.00106046 3.01126e-12 0)
(0.00106046 5.06998e-12 0)
(0.00106054 -6.46242e-08 0)
(0.00106054 -6.18729e-08 0)
(0.00106055 -5.88639e-08 0)
(0.00106055 -5.56775e-08 0)
(0.00106055 -5.23891e-08 0)
(0.00106055 -4.90651e-08 0)
(0.00106055 -4.57614e-08 0)
(0.00106055 -4.25235e-08 0)
(0.00106056 -3.93864e-08 0)
(0.00106056 -3.63761e-08 0)
(0.00106056 -3.35109e-08 0)
(0.00106056 -3.08023e-08 0)
(0.00106056 -2.82566e-08 0)
(0.00106056 -2.58758e-08 0)
(0.00106056 -2.36587e-08 0)
(0.00106056 -2.16015e-08 0)
(0.00106056 -1.96987e-08 0)
(0.00106056 -1.79436e-08 0)
(0.00106056 -1.63285e-08 0)
(0.00106057 -1.48454e-08 0)
(0.00106057 -1.3486e-08 0)
(0.00106057 -1.2242e-08 0)
(0.00106057 -1.11052e-08 0)
(0.00106057 -1.00678e-08 0)
(0.00106057 -9.12204e-09 0)
(0.00106057 -8.26077e-09 0)
(0.00106057 -7.47714e-09 0)
(0.00106057 -6.76472e-09 0)
(0.00106057 -6.11749e-09 0)
(0.00106057 -5.52988e-09 0)
(0.00106057 -4.99668e-09 0)
(0.00106057 -4.51309e-09 0)
(0.00106057 -4.0747e-09 0)
(0.00106057 -3.67746e-09 0)
(0.00106057 -3.31764e-09 0)
(0.00106057 -2.99184e-09 0)
(0.00106057 -2.69694e-09 0)
(0.00106057 -2.43011e-09 0)
(0.00106057 -2.18876e-09 0)
(0.00106057 -1.97054e-09 0)
(0.00106057 -1.77331e-09 0)
(0.00106057 -1.59513e-09 0)
(0.00106057 -1.4342e-09 0)
(0.00106057 -1.28893e-09 0)
(0.00106057 -1.15782e-09 0)
(0.00106057 -1.03954e-09 0)
(0.00106057 -9.32884e-10 0)
(0.00106057 -8.36751e-10 0)
(0.00106057 -7.50134e-10 0)
(0.00106057 -6.72132e-10 0)
(0.00106057 -6.01898e-10 0)
(0.00106057 -5.38698e-10 0)
(0.00106057 -4.81824e-10 0)
(0.00106057 -4.30695e-10 0)
(0.00106057 -3.84741e-10 0)
(0.00106057 -3.43499e-10 0)
(0.00106057 -3.06494e-10 0)
(0.00106057 -2.73345e-10 0)
(0.00106057 -2.43626e-10 0)
(0.00106057 -2.17034e-10 0)
(0.00106057 -1.93183e-10 0)
(0.00106057 -1.71858e-10 0)
(0.00106057 -1.52727e-10 0)
(0.00106057 -1.35663e-10 0)
(0.00106057 -1.20384e-10 0)
(0.00106057 -1.06827e-10 0)
(0.00106057 -9.4711e-11 0)
(0.00106057 -8.40419e-11 0)
(0.00106057 -7.4488e-11 0)
(0.00106057 -6.61186e-11 0)
(0.00106057 -5.85574e-11 0)
(0.00106057 -5.19449e-11 0)
(0.00106057 -4.58523e-11 0)
(0.00106057 -4.05421e-11 0)
(0.00106057 -3.54978e-11 0)
(0.00106057 -3.11558e-11 0)
(0.00106057 -2.68621e-11 0)
(0.00106057 -2.32705e-11 0)
(0.00106057 -1.95366e-11 0)
(0.00106057 -1.65778e-11 0)
(0.00106057 -1.32649e-11 0)
(0.00106057 -1.08903e-11 0)
(0.00106057 -7.9008e-12 0)
(0.00106057 -6.08917e-12 0)
(0.00106057 -3.34171e-12 0)
(0.00106057 -2.10624e-12 0)
(0.00106057 4.9154e-13 0)
(0.00106057 1.12877e-12 0)
(0.00106057 3.67924e-12 0)
(0.00106059 -9.34476e-08 0)
(0.00106059 -8.62338e-08 0)
(0.00106059 -7.94859e-08 0)
(0.00106059 -7.31685e-08 0)
(0.00106059 -6.72567e-08 0)
(0.00106059 -6.17317e-08 0)
(0.00106059 -5.65783e-08 0)
(0.00106059 -5.17822e-08 0)
(0.00106059 -4.73292e-08 0)
(0.00106059 -4.32048e-08 0)
(0.00106059 -3.93938e-08 0)
(0.00106059 -3.58802e-08 0)
(0.00106059 -3.26476e-08 0)
(0.00106059 -2.96792e-08 0)
(0.00106059 -2.69584e-08 0)
(0.00106059 -2.44684e-08 0)
(0.00106059 -2.21931e-08 0)
(0.00106059 -2.01167e-08 0)
(0.00106059 -1.82241e-08 0)
(0.00106058 -1.65008e-08 0)
(0.00106058 -1.49333e-08 0)
(0.00106058 -1.35086e-08 0)
(0.00106058 -1.22149e-08 0)
(0.00106058 -1.10408e-08 0)
(0.00106058 -9.97611e-09 0)
(0.00106058 -9.01112e-09 0)
(0.00106058 -8.13698e-09 0)
(0.00106058 -7.34556e-09 0)
(0.00106058 -6.62935e-09 0)
(0.00106058 -5.98151e-09 0)
(0.00106058 -5.39574e-09 0)
(0.00106058 -4.86629e-09 0)
(0.00106058 -4.38792e-09 0)
(0.00106058 -3.95585e-09 0)
(0.00106058 -3.5657e-09 0)
(0.00106058 -3.2135e-09 0)
(0.00106058 -2.89561e-09 0)
(0.00106058 -2.60875e-09 0)
(0.00106058 -2.34991e-09 0)
(0.00106058 -2.11637e-09 0)
(0.00106058 -1.90568e-09 0)
(0.00106058 -1.71562e-09 0)
(0.00106058 -1.54417e-09 0)
(0.00106058 -1.38951e-09 0)
(0.00106058 -1.25e-09 0)
(0.00106058 -1.12417e-09 0)
(0.00106058 -1.01068e-09 0)
(0.00106058 -9.08343e-10 0)
(0.00106058 -8.16075e-10 0)
(0.00106058 -7.32913e-10 0)
(0.00106058 -6.57956e-10 0)
(0.00106058 -5.90427e-10 0)
(0.00106058 -5.29581e-10 0)
(0.00106058 -4.74799e-10 0)
(0.00106058 -4.25476e-10 0)
(0.00106058 -3.81121e-10 0)
(0.00106058 -3.41228e-10 0)
(0.00106058 -3.05406e-10 0)
(0.00106058 -2.73205e-10 0)
(0.00106058 -2.44321e-10 0)
(0.00106058 -2.18353e-10 0)
(0.00106058 -1.9508e-10 0)
(0.00106058 -1.7415e-10 0)
(0.00106058 -1.55431e-10 0)
(0.00106058 -1.38604e-10 0)
(0.00106058 -1.23611e-10 0)
(0.00106058 -1.1013e-10 0)
(0.00106058 -9.81781e-11 0)
(0.00106058 -8.73947e-11 0)
(0.00106058 -7.78675e-11 0)
(0.00106058 -6.91942e-11 0)
(0.00106058 -6.15537e-11 0)
(0.00106058 -5.44739e-11 0)
(0.00106058 -4.82752e-11 0)
(0.00106058 -4.23817e-11 0)
(0.00106058 -3.72964e-11 0)
(0.00106058 -3.22876e-11 0)
(0.00106058 -2.80977e-11 0)
(0.00106058 -2.37661e-11 0)
(0.00106058 -2.03411e-11 0)
(0.00106058 -1.65259e-11 0)
(0.00106058 -1.37977e-11 0)
(0.00106058 -1.03737e-11 0)
(0.00106058 -8.30325e-12 0)
(0.00106058 -5.14916e-12 0)
(0.00106058 -3.73452e-12 0)
(0.00106058 -7.21943e-13 0)
(0.00106058 1.50372e-14 0)
(0.00106058 3.0067e-12 0)
(0.00106059 -7.44679e-08 0)
(0.00106059 -6.84293e-08 0)
(0.00106059 -6.29687e-08 0)
(0.00106059 -5.79941e-08 0)
(0.00106059 -5.34349e-08 0)
(0.00106059 -4.92375e-08 0)
(0.00106059 -4.53605e-08 0)
(0.00106059 -4.17717e-08 0)
(0.00106059 -3.84454e-08 0)
(0.00106059 -3.53606e-08 0)
(0.00106059 -3.24995e-08 0)
(0.00106059 -2.98469e-08 0)
(0.00106059 -2.73892e-08 0)
(0.00106059 -2.51138e-08 0)
(0.00106059 -2.30093e-08 0)
(0.00106059 -2.10647e-08 0)
(0.00106059 -1.92699e-08 0)
(0.00106059 -1.76151e-08 0)
(0.00106059 -1.6091e-08 0)
(0.00106059 -1.46886e-08 0)
(0.00106059 -1.33996e-08 0)
(0.00106059 -1.2216e-08 0)
(0.00106059 -1.113e-08 0)
(0.00106059 -1.01346e-08 0)
(0.00106059 -9.22293e-09 0)
(0.00106059 -8.3886e-09 0)
(0.00106059 -7.62564e-09 0)
(0.00106059 -6.92843e-09 0)
(0.00106059 -6.29174e-09 0)
(0.00106059 -5.71068e-09 0)
(0.00106059 -5.18072e-09 0)
(0.00106059 -4.69765e-09 0)
(0.00106059 -4.25757e-09 0)
(0.00106059 -3.85689e-09 0)
(0.00106059 -3.49229e-09 0)
(0.00106059 -3.1607e-09 0)
(0.00106059 -2.85931e-09 0)
(0.00106059 -2.58552e-09 0)
(0.00106059 -2.33694e-09 0)
(0.00106059 -2.11137e-09 0)
(0.00106059 -1.90679e-09 0)
(0.00106059 -1.72136e-09 0)
(0.00106059 -1.55334e-09 0)
(0.00106059 -1.40119e-09 0)
(0.00106059 -1.26346e-09 0)
(0.00106059 -1.13885e-09 0)
(0.00106059 -1.02615e-09 0)
(0.00106059 -9.24255e-10 0)
(0.00106059 -8.32164e-10 0)
(0.00106059 -7.48971e-10 0)
(0.00106059 -6.73821e-10 0)
(0.00106059 -6.05977e-10 0)
(0.00106059 -5.44724e-10 0)
(0.00106059 -4.89467e-10 0)
(0.00106059 -4.39616e-10 0)
(0.00106059 -3.94698e-10 0)
(0.00106059 -3.54212e-10 0)
(0.00106059 -3.17786e-10 0)
(0.00106059 -2.84979e-10 0)
(0.00106059 -2.55503e-10 0)
(0.00106059 -2.28964e-10 0)
(0.00106059 -2.05153e-10 0)
(0.00106059 -1.83714e-10 0)
(0.00106059 -1.64518e-10 0)
(0.00106059 -1.47229e-10 0)
(0.00106059 -1.31789e-10 0)
(0.00106059 -1.17855e-10 0)
(0.00106059 -1.05449e-10 0)
(0.00106059 -9.41901e-11 0)
(0.00106059 -8.41849e-11 0)
(0.00106059 -7.50105e-11 0)
(0.00106059 -6.68807e-11 0)
(0.00106059 -5.9296e-11 0)
(0.00106059 -5.26245e-11 0)
(0.00106059 -4.62527e-11 0)
(0.00106059 -4.07401e-11 0)
(0.00106059 -3.52994e-11 0)
(0.00106059 -3.07471e-11 0)
(0.00106059 -2.60353e-11 0)
(0.00106059 -2.23158e-11 0)
(0.00106059 -1.81656e-11 0)
(0.00106059 -1.52047e-11 0)
(0.00106059 -1.14736e-11 0)
(0.00106059 -9.22461e-12 0)
(0.00106059 -5.77045e-12 0)
(0.00106059 -4.23009e-12 0)
(0.00106059 -9.09925e-13 0)
(0.00106059 -1.07234e-13 0)
(0.00106059 3.22578e-12 0)
(0.00106062 -9.55182e-08 0)
(0.00106062 -8.65174e-08 0)
(0.00106062 -7.84573e-08 0)
(0.00106062 -7.1213e-08 0)
(0.00106061 -6.46807e-08 0)
(0.00106061 -5.87742e-08 0)
(0.00106061 -5.34215e-08 0)
(0.00106061 -4.8562e-08 0)
(0.00106061 -4.41443e-08 0)
(0.0010606 -4.01243e-08 0)
(0.0010606 -3.64638e-08 0)
(0.0010606 -3.31292e-08 0)
(0.0010606 -3.00911e-08 0)
(0.0010606 -2.73232e-08 0)
(0.0010606 -2.48016e-08 0)
(0.0010606 -2.25052e-08 0)
(0.00106059 -2.04144e-08 0)
(0.00106059 -1.85116e-08 0)
(0.00106059 -1.67807e-08 0)
(0.00106059 -1.52068e-08 0)
(0.00106059 -1.37764e-08 0)
(0.00106059 -1.24769e-08 0)
(0.00106059 -1.1297e-08 0)
(0.00106059 -1.02262e-08 0)
(0.00106059 -9.25467e-09 0)
(0.00106059 -8.37373e-09 0)
(0.00106059 -7.5752e-09 0)
(0.00106059 -6.85166e-09 0)
(0.00106059 -6.19629e-09 0)
(0.00106059 -5.60286e-09 0)
(0.00106059 -5.06567e-09 0)
(0.00106059 -4.57951e-09 0)
(0.00106059 -4.13963e-09 0)
(0.00106059 -3.74168e-09 0)
(0.00106059 -3.3817e-09 0)
(0.00106059 -3.0561e-09 0)
(0.00106059 -2.7616e-09 0)
(0.00106059 -2.49524e-09 0)
(0.00106059 -2.25431e-09 0)
(0.00106059 -2.03639e-09 0)
(0.00106059 -1.83927e-09 0)
(0.00106059 -1.66097e-09 0)
(0.00106059 -1.49968e-09 0)
(0.00106059 -1.35378e-09 0)
(0.00106059 -1.22181e-09 0)
(0.00106059 -1.10245e-09 0)
(0.00106059 -9.94492e-10 0)
(0.00106059 -8.96871e-10 0)
(0.00106059 -8.08598e-10 0)
(0.00106059 -7.28806e-10 0)
(0.00106059 -6.56672e-10 0)
(0.00106059 -5.91497e-10 0)
(0.00106059 -5.32598e-10 0)
(0.00106059 -4.79413e-10 0)
(0.00106059 -4.31373e-10 0)
(0.00106059 -3.88031e-10 0)
(0.00106059 -3.48906e-10 0)
(0.00106059 -3.13655e-10 0)
(0.00106059 -2.81862e-10 0)
(0.00106059 -2.53268e-10 0)
(0.00106059 -2.27503e-10 0)
(0.00106059 -2.04383e-10 0)
(0.00106059 -1.83559e-10 0)
(0.00106059 -1.64913e-10 0)
(0.00106059 -1.48099e-10 0)
(0.00106059 -1.33064e-10 0)
(0.00106059 -1.19447e-10 0)
(0.00106059 -1.07273e-10 0)
(0.00106059 -9.61508e-11 0)
(0.00106059 -8.62027e-11 0)
(0.00106059 -7.69968e-11 0)
(0.00106059 -6.87795e-11 0)
(0.00106059 -6.10415e-11 0)
(0.00106059 -5.41928e-11 0)
(0.00106059 -4.76038e-11 0)
(0.00106059 -4.18815e-11 0)
(0.00106059 -3.62069e-11 0)
(0.00106059 -3.14546e-11 0)
(0.00106059 -2.65212e-11 0)
(0.00106059 -2.2633e-11 0)
(0.00106059 -1.82831e-11 0)
(0.00106059 -1.51919e-11 0)
(0.00106059 -1.12782e-11 0)
(0.00106059 -8.93638e-12 0)
(0.00106059 -5.30237e-12 0)
(0.00106059 -3.70088e-12 0)
(0.00106059 -1.81999e-13 0)
(0.00106059 6.56217e-13 0)
(0.00106059 4.23827e-12 0)
(0.00106063 -7.0948e-08 0)
(0.00106062 -6.384e-08 0)
(0.00106062 -5.76075e-08 0)
(0.00106062 -5.21172e-08 0)
(0.00106061 -4.72575e-08 0)
(0.00106061 -4.29355e-08 0)
(0.00106061 -3.90745e-08 0)
(0.00106061 -3.56108e-08 0)
(0.00106061 -3.24914e-08 0)
(0.0010606 -2.96725e-08 0)
(0.0010606 -2.71172e-08 0)
(0.0010606 -2.47949e-08 0)
(0.0010606 -2.26796e-08 0)
(0.0010606 -2.07492e-08 0)
(0.0010606 -1.89849e-08 0)
(0.0010606 -1.73704e-08 0)
(0.00106059 -1.58916e-08 0)
(0.00106059 -1.45361e-08 0)
(0.00106059 -1.3293e-08 0)
(0.00106059 -1.21526e-08 0)
(0.00106059 -1.11062e-08 0)
(0.00106059 -1.0146e-08 0)
(0.00106059 -9.26493e-09 0)
(0.00106059 -8.45665e-09 0)
(0.00106059 -7.71529e-09 0)
(0.00106059 -7.03552e-09 0)
(0.00106059 -6.41244e-09 0)
(0.00106059 -5.84156e-09 0)
(0.00106059 -5.31875e-09 0)
(0.00106059 -4.8402e-09 0)
(0.00106059 -4.40241e-09 0)
(0.00106059 -4.00215e-09 0)
(0.00106059 -3.63641e-09 0)
(0.00106059 -3.30244e-09 0)
(0.00106059 -2.99768e-09 0)
(0.00106059 -2.71977e-09 0)
(0.00106059 -2.46652e-09 0)
(0.00106059 -2.23588e-09 0)
(0.00106059 -2.02599e-09 0)
(0.00106059 -1.8351e-09 0)
(0.00106059 -1.66158e-09 0)
(0.00106059 -1.50394e-09 0)
(0.00106059 -1.36079e-09 0)
(0.00106059 -1.23089e-09 0)
(0.00106059 -1.11304e-09 0)
(0.00106059 -1.00617e-09 0)
(0.00106059 -9.09274e-10 0)
(0.00106059 -8.21464e-10 0)
(0.00106059 -7.41895e-10 0)
(0.00106059 -6.69831e-10 0)
(0.00106059 -6.04565e-10 0)
(0.00106059 -5.45499e-10 0)
(0.00106059 -4.92034e-10 0)
(0.00106059 -4.43679e-10 0)
(0.00106059 -3.99921e-10 0)
(0.00106059 -3.60368e-10 0)
(0.00106059 -3.24588e-10 0)
(0.00106059 -2.92293e-10 0)
(0.00106059 -2.63118e-10 0)
(0.00106059 -2.36866e-10 0)
(0.00106059 -2.13209e-10 0)
(0.00106059 -1.9201e-10 0)
(0.00106059 -1.72937e-10 0)
(0.00106059 -1.55895e-10 0)
(0.00106059 -1.40531e-10 0)
(0.00106059 -1.26792e-10 0)
(0.00106059 -1.14301e-10 0)
(0.00106059 -1.03088e-10 0)
(0.00106059 -9.275e-11 0)
(0.00106059 -8.34279e-11 0)
(0.00106059 -7.46918e-11 0)
(0.00106059 -6.68199e-11 0)
(0.00106059 -5.9311e-11 0)
(0.00106059 -5.26144e-11 0)
(0.00106059 -4.61048e-11 0)
(0.00106059 -4.04298e-11 0)
(0.00106059 -3.47616e-11 0)
(0.00106059 -3.0017e-11 0)
(0.00106059 -2.50657e-11 0)
(0.00106059 -2.11803e-11 0)
(0.00106059 -1.68073e-11 0)
(0.00106059 -1.3725e-11 0)
(0.00106059 -9.78126e-12 0)
(0.00106059 -7.45131e-12 0)
(0.00106059 -3.76677e-12 0)
(0.00106059 -2.17259e-12 0)
(0.00106059 1.42784e-12 0)
(0.00106059 2.26524e-12 0)
(0.00106059 5.98023e-12 0)
(0.00106065 -7.73556e-08 0)
(0.00106065 -6.95168e-08 0)
(0.00106064 -6.25623e-08 0)
(0.00106064 -5.63765e-08 0)
(0.00106063 -5.08602e-08 0)
(0.00106063 -4.59287e-08 0)
(0.00106063 -4.15097e-08 0)
(0.00106062 -3.75413e-08 0)
(0.00106062 -3.39708e-08 0)
(0.00106062 -3.07529e-08 0)
(0.00106061 -2.78485e-08 0)
(0.00106061 -2.52239e-08 0)
(0.00106061 -2.28498e-08 0)
(0.00106061 -2.07007e-08 0)
(0.0010606 -1.8754e-08 0)
(0.0010606 -1.699e-08 0)
(0.0010606 -1.53911e-08 0)
(0.0010606 -1.39416e-08 0)
(0.0010606 -1.26275e-08 0)
(0.0010606 -1.14361e-08 0)
(0.0010606 -1.03563e-08 0)
(0.00106059 -9.37754e-09 0)
(0.00106059 -8.4907e-09 0)
(0.00106059 -7.68728e-09 0)
(0.00106059 -6.95962e-09 0)
(0.00106059 -6.3007e-09 0)
(0.00106059 -5.70417e-09 0)
(0.00106059 -5.16421e-09 0)
(0.00106059 -4.67552e-09 0)
(0.00106059 -4.23328e-09 0)
(0.00106059 -3.83311e-09 0)
(0.00106059 -3.471e-09 0)
(0.00106059 -3.14331e-09 0)
(0.00106059 -2.84672e-09 0)
(0.00106059 -2.57824e-09 0)
(0.00106059 -2.33517e-09 0)
(0.00106059 -2.11504e-09 0)
(0.00106059 -1.91567e-09 0)
(0.00106059 -1.73504e-09 0)
(0.00106059 -1.57137e-09 0)
(0.00106059 -1.42304e-09 0)
(0.00106059 -1.28857e-09 0)
(0.00106059 -1.16667e-09 0)
(0.00106059 -1.05617e-09 0)
(0.00106059 -9.56003e-10 0)
(0.00106059 -8.65192e-10 0)
(0.00106059 -7.82845e-10 0)
(0.00106059 -7.08184e-10 0)
(0.00106059 -6.40482e-10 0)
(0.00106059 -5.79119e-10 0)
(0.00106059 -5.23497e-10 0)
(0.00106059 -4.73121e-10 0)
(0.00106059 -4.27477e-10 0)
(0.00106059 -3.86144e-10 0)
(0.00106059 -3.48673e-10 0)
(0.00106059 -3.14731e-10 0)
(0.00106059 -2.83949e-10 0)
(0.00106059 -2.56112e-10 0)
(0.00106059 -2.30931e-10 0)
(0.00106059 -2.08283e-10 0)
(0.00106059 -1.87907e-10 0)
(0.00106059 -1.69717e-10 0)
(0.00106059 -1.53411e-10 0)
(0.00106059 -1.38909e-10 0)
(0.00106059 -1.25855e-10 0)
(0.00106059 -1.14189e-10 0)
(0.00106059 -1.03523e-10 0)