/*--------------------------------*- C++ -*----------------------------------*\
| =========                 |                                                 |
| \\      /  F ield         | OpenFOAM: The Open Source CFD Toolbox           |
|  \\    /   O peration     | Version:  2312                                  |
|   \\  /    A nd           | Website:  www.openfoam.com                      |
|    \\/     M anipulation  |                                                 |
\*---------------------------------------------------------------------------*/
FoamFile
{
    version     2.0;
    format      ascii;
    arch        "LSB;label=32;scalar=64";
    class       volScalarField;
    location    "160000";
    object      p;
}
// * * * * * * * * * * * * * * * * * * * * * * * * * * * * * * * * * * * * * //

dimensions      [0 2 -2 0 0 0 0];

internalField   nonuniform List<scalar> 
10800
(
5.98638e-07
5.84511e-07
5.70734e-07
5.60144e-07
5.52703e-07
5.4729e-07
5.42812e-07
5.38703e-07
5.34793e-07
5.3109e-07
5.27631e-07
5.2442e-07
5.21425e-07
5.18594e-07
5.15882e-07
5.13256e-07
5.10693e-07
5.08181e-07
5.05709e-07
5.03268e-07
5.0085e-07
4.98447e-07
4.96052e-07
4.93659e-07
4.91264e-07
4.88863e-07
4.86452e-07
4.84029e-07
4.81592e-07
4.79139e-07
4.76668e-07
4.74177e-07
4.71666e-07
4.69135e-07
4.66583e-07
4.64009e-07
4.61413e-07
4.58797e-07
4.56159e-07
4.53499e-07
4.50819e-07
4.48119e-07
4.45397e-07
4.42655e-07
4.39892e-07
4.37108e-07
4.34302e-07
4.3147e-07
4.28617e-07
4.25727e-07
4.22823e-07
4.19851e-07
4.16896e-07
4.13779e-07
4.10816e-07
4.07345e-07
4.04664e-07
3.99891e-07
3.99237e-07
3.8829e-07
5.50623e-07
5.48892e-07
5.46239e-07
5.43102e-07
5.39871e-07
5.36756e-07
5.33809e-07
5.30994e-07
5.28261e-07
5.25578e-07
5.2294e-07
5.20354e-07
5.17824e-07
5.15352e-07
5.1293e-07
5.10551e-07
5.08204e-07
5.05881e-07
5.03578e-07
5.01288e-07
4.99007e-07
4.96732e-07
4.94459e-07
4.92183e-07
4.89902e-07
4.87614e-07
4.85315e-07
4.83003e-07
4.80677e-07
4.78335e-07
4.75976e-07
4.73599e-07
4.71203e-07
4.68786e-07
4.66351e-07
4.63892e-07
4.61415e-07
4.58915e-07
4.56396e-07
4.53852e-07
4.51292e-07
4.48704e-07
4.46105e-07
4.4347e-07
4.40833e-07
4.38149e-07
4.35477e-07
4.32741e-07
4.30041e-07
4.27248e-07
4.24541e-07
4.21691e-07
4.19031e-07
4.16143e-07
4.13663e-07
4.108e-07
4.08829e-07
4.06072e-07
4.0522e-07
4.02149e-07
5.41955e-07
5.412e-07
5.39779e-07
5.37816e-07
5.35517e-07
5.33078e-07
5.30626e-07
5.2821e-07
5.25834e-07
5.23485e-07
5.21155e-07
5.18842e-07
5.16551e-07
5.14289e-07
5.12057e-07
5.09852e-07
5.07671e-07
5.05508e-07
5.03359e-07
5.0122e-07
4.99088e-07
4.9696e-07
4.94833e-07
4.92704e-07
4.90571e-07
4.88432e-07
4.86285e-07
4.84128e-07
4.81959e-07
4.79777e-07
4.77581e-07
4.7537e-07
4.73144e-07
4.709e-07
4.6864e-07
4.66361e-07
4.64065e-07
4.61749e-07
4.59417e-07
4.57062e-07
4.54694e-07
4.52299e-07
4.49893e-07
4.47457e-07
4.45016e-07
4.42537e-07
4.40062e-07
4.37541e-07
4.35038e-07
4.32476e-07
4.29955e-07
4.27356e-07
4.24836e-07
4.22206e-07
4.19719e-07
4.17068e-07
4.14663e-07
4.11998e-07
4.09715e-07
4.06949e-07
5.30296e-07
5.2986e-07
5.29067e-07
5.27967e-07
5.26629e-07
5.25124e-07
5.2351e-07
5.21825e-07
5.2009e-07
5.18317e-07
5.16512e-07
5.14679e-07
5.12826e-07
5.10959e-07
5.09082e-07
5.07198e-07
5.05309e-07
5.03416e-07
5.01517e-07
4.99612e-07
4.977e-07
4.95781e-07
4.93855e-07
4.9192e-07
4.89975e-07
4.88021e-07
4.86055e-07
4.84078e-07
4.82089e-07
4.80086e-07
4.78071e-07
4.76042e-07
4.73999e-07
4.71941e-07
4.69869e-07
4.67781e-07
4.65678e-07
4.63559e-07
4.61426e-07
4.59274e-07
4.57108e-07
4.54922e-07
4.52721e-07
4.50498e-07
4.4826e-07
4.45995e-07
4.43714e-07
4.414e-07
4.39069e-07
4.36698e-07
4.34309e-07
4.31872e-07
4.29421e-07
4.26912e-07
4.24395e-07
4.21809e-07
4.1922e-07
4.16534e-07
4.13851e-07
4.11084e-07
5.23715e-07
5.23499e-07
5.23062e-07
5.22408e-07
5.21552e-07
5.20523e-07
5.19353e-07
5.18074e-07
5.16709e-07
5.15276e-07
5.13787e-07
5.12252e-07
5.10676e-07
5.09067e-07
5.07431e-07
5.05772e-07
5.04094e-07
5.024e-07
5.00691e-07
4.98968e-07
4.97233e-07
4.95487e-07
4.93729e-07
4.9196e-07
4.9018e-07
4.8839e-07
4.86589e-07
4.84777e-07
4.82955e-07
4.81122e-07
4.79279e-07
4.77425e-07
4.75561e-07
4.73686e-07
4.718e-07
4.69904e-07
4.67997e-07
4.66078e-07
4.64149e-07
4.62209e-07
4.60257e-07
4.58292e-07
4.56316e-07
4.54325e-07
4.52321e-07
4.50302e-07
4.48267e-07
4.46214e-07
4.44139e-07
4.42039e-07
4.39905e-07
4.37731e-07
4.35502e-07
4.33206e-07
4.3082e-07
4.28356e-07
4.25801e-07
4.23163e-07
4.20443e-07
4.17738e-07
5.18325e-07
5.1816e-07
5.17828e-07
5.17335e-07
5.16691e-07
5.1591e-07
5.15012e-07
5.14013e-07
5.12931e-07
5.11777e-07
5.10561e-07
5.09291e-07
5.07973e-07
5.06614e-07
5.05217e-07
5.03789e-07
5.02332e-07
5.00851e-07
4.99347e-07
4.97824e-07
4.96282e-07
4.94724e-07
4.9315e-07
4.91563e-07
4.89962e-07
4.88348e-07
4.86723e-07
4.85087e-07
4.83441e-07
4.81785e-07
4.8012e-07
4.78445e-07
4.76763e-07
4.75072e-07
4.73373e-07
4.71667e-07
4.69953e-07
4.68233e-07
4.66505e-07
4.64769e-07
4.63026e-07
4.61274e-07
4.59512e-07
4.5774e-07
4.55954e-07
4.54154e-07
4.52335e-07
4.50497e-07
4.48635e-07
4.46753e-07
4.44842e-07
4.42909e-07
4.40934e-07
4.38921e-07
4.36852e-07
4.34713e-07
4.32476e-07
4.30175e-07
4.2781e-07
4.25513e-07
5.14134e-07
5.14012e-07
5.1377e-07
5.13406e-07
5.12925e-07
5.12335e-07
5.11643e-07
5.1086e-07
5.09996e-07
5.0906e-07
5.0806e-07
5.07003e-07
5.05895e-07
5.04739e-07
5.03543e-07
5.02308e-07
5.0104e-07
4.99743e-07
4.98418e-07
4.97069e-07
4.95698e-07
4.94308e-07
4.929e-07
4.91476e-07
4.90038e-07
4.88587e-07
4.87124e-07
4.85651e-07
4.84168e-07
4.82677e-07
4.81179e-07
4.79674e-07
4.78164e-07
4.7665e-07
4.75131e-07
4.73609e-07
4.72085e-07
4.70558e-07
4.69029e-07
4.675e-07
4.65968e-07
4.64436e-07
4.62902e-07
4.61368e-07
4.59831e-07
4.58293e-07
4.56749e-07
4.55197e-07
4.5363e-07
4.52043e-07
4.50431e-07
4.48793e-07
4.47122e-07
4.45423e-07
4.43677e-07
4.41892e-07
4.40043e-07
4.3816e-07
4.36243e-07
4.34413e-07
5.10855e-07
5.1076e-07
5.1057e-07
5.10285e-07
5.09904e-07
5.09432e-07
5.08875e-07
5.08238e-07
5.07528e-07
5.06751e-07
5.05911e-07
5.05015e-07
5.04068e-07
5.03073e-07
5.02037e-07
5.00962e-07
4.99853e-07
4.98712e-07
4.97543e-07
4.96348e-07
4.95131e-07
4.93893e-07
4.92637e-07
4.91364e-07
4.90078e-07
4.88778e-07
4.87468e-07
4.86149e-07
4.84821e-07
4.83488e-07
4.8215e-07
4.80808e-07
4.79464e-07
4.78119e-07
4.76775e-07
4.75431e-07
4.7409e-07
4.72752e-07
4.71418e-07
4.7009e-07
4.68766e-07
4.67448e-07
4.66136e-07
4.6483e-07
4.63528e-07
4.62234e-07
4.60945e-07
4.59666e-07
4.58388e-07
4.57112e-07
4.55829e-07
4.5454e-07
4.53235e-07
4.5192e-07
4.50581e-07
4.49228e-07
4.47847e-07
4.46464e-07
4.45087e-07
4.4383e-07
5.08281e-07
5.08204e-07
5.08048e-07
5.07813e-07
5.075e-07
5.07111e-07
5.06648e-07
5.06116e-07
5.05519e-07
5.04861e-07
5.04146e-07
5.03379e-07
5.02563e-07
5.01703e-07
5.00801e-07
4.99862e-07
4.98889e-07
4.97885e-07
4.96852e-07
4.95794e-07
4.94714e-07
4.93612e-07
4.92493e-07
4.91359e-07
4.9021e-07
4.8905e-07
4.87881e-07
4.86704e-07
4.85521e-07
4.84334e-07
4.83146e-07
4.81957e-07
4.80769e-07
4.79585e-07
4.78405e-07
4.77231e-07
4.76066e-07
4.7491e-07
4.73765e-07
4.72632e-07
4.71513e-07
4.70409e-07
4.69321e-07
4.68251e-07
4.67198e-07
4.66167e-07
4.65151e-07
4.64149e-07
4.63166e-07
4.62203e-07
4.61256e-07
4.60328e-07
4.59412e-07
4.58513e-07
4.57621e-07
4.56746e-07
4.5588e-07
4.55046e-07
4.54256e-07
4.53605e-07
5.06284e-07
5.06219e-07
5.06087e-07
5.05889e-07
5.05624e-07
5.05294e-07
5.049e-07
5.04446e-07
5.03934e-07
5.03367e-07
5.0275e-07
5.02084e-07
5.01373e-07
5.00621e-07
4.99829e-07
4.99002e-07
4.98142e-07
4.97253e-07
4.96336e-07
4.95394e-07
4.9443e-07
4.93448e-07
4.92448e-07
4.91433e-07
4.90407e-07
4.8937e-07
4.88326e-07
4.87276e-07
4.86223e-07
4.85168e-07
4.84115e-07
4.83064e-07
4.82019e-07
4.80981e-07
4.79953e-07
4.78936e-07
4.77933e-07
4.76946e-07
4.75977e-07
4.75028e-07
4.74101e-07
4.73199e-07
4.72325e-07
4.71479e-07
4.70662e-07
4.69871e-07
4.69114e-07
4.68393e-07
4.67709e-07
4.67066e-07
4.66462e-07
4.659e-07
4.6538e-07
4.64905e-07
4.64473e-07
4.64091e-07
4.63758e-07
4.63494e-07
4.63315e-07
4.63301e-07
5.04775e-07
5.04718e-07
5.04604e-07
5.04432e-07
5.04202e-07
5.03915e-07
5.03572e-07
5.03176e-07
5.02729e-07
5.02232e-07
5.01689e-07
5.01102e-07
5.00474e-07
4.99807e-07
4.99103e-07
4.98366e-07
4.97599e-07
4.96803e-07
4.95981e-07
4.95137e-07
4.94272e-07
4.93389e-07
4.92491e-07
4.91579e-07
4.90657e-07
4.89727e-07
4.88792e-07
4.87853e-07
4.86913e-07
4.85975e-07
4.85042e-07
4.84114e-07
4.83196e-07
4.82289e-07
4.81397e-07
4.80522e-07
4.79666e-07
4.78832e-07
4.78024e-07
4.77244e-07
4.76495e-07
4.75778e-07
4.75096e-07
4.74453e-07
4.73851e-07
4.73296e-07
4.7279e-07
4.72336e-07
4.71939e-07
4.71601e-07
4.71326e-07
4.71118e-07
4.70979e-07
4.70916e-07
4.70931e-07
4.71031e-07
4.71222e-07
4.71521e-07
4.71946e-07
4.7256e-07
5.03687e-07
5.03637e-07
5.03536e-07
5.03383e-07
5.03179e-07
5.02923e-07
5.02618e-07
5.02265e-07
5.01865e-07
5.01421e-07
5.00935e-07
5.00408e-07
4.99843e-07
4.99242e-07
4.98607e-07
4.97941e-07
4.97247e-07
4.96526e-07
4.95781e-07
4.95015e-07
4.94231e-07
4.93429e-07
4.92615e-07
4.91788e-07
4.90953e-07
4.90112e-07
4.89268e-07
4.88422e-07
4.87579e-07
4.8674e-07
4.85908e-07
4.85085e-07
4.84276e-07
4.83481e-07
4.82706e-07
4.81952e-07
4.81225e-07
4.80525e-07
4.79856e-07
4.79221e-07
4.78623e-07
4.78066e-07
4.77556e-07
4.77095e-07
4.7669e-07
4.76343e-07
4.7606e-07
4.75846e-07
4.75704e-07
4.75642e-07
4.75664e-07
4.75777e-07
4.75986e-07
4.763e-07
4.76724e-07
4.77269e-07
4.77943e-07
4.78764e-07
4.79751e-07
4.8095e-07
5.02974e-07
5.02929e-07
5.02836e-07
5.02697e-07
5.02511e-07
5.02279e-07
5.02e-07
5.01678e-07
5.01313e-07
5.00907e-07
5.00461e-07
4.99979e-07
4.9946e-07
4.98908e-07
4.98325e-07
4.97713e-07
4.97074e-07
4.9641e-07
4.95724e-07
4.95019e-07
4.94296e-07
4.93559e-07
4.92809e-07
4.9205e-07
4.91283e-07
4.90512e-07
4.8974e-07
4.88969e-07
4.88201e-07
4.87442e-07
4.86692e-07
4.85954e-07
4.85233e-07
4.8453e-07
4.8385e-07
4.83195e-07
4.82569e-07
4.81975e-07
4.81418e-07
4.80903e-07
4.80432e-07
4.80011e-07
4.79644e-07
4.79337e-07
4.79094e-07
4.78921e-07
4.78824e-07
4.78808e-07
4.78882e-07
4.7905e-07
4.79322e-07
4.79706e-07
4.80209e-07
4.80841e-07
4.81613e-07
4.82537e-07
4.83624e-07
4.84891e-07
4.86358e-07
4.8806e-07
5.02602e-07
5.02559e-07
5.02473e-07
5.02343e-07
5.02169e-07
5.01951e-07
5.0169e-07
5.01389e-07
5.01047e-07
5.00666e-07
5.00249e-07
4.99796e-07
4.9931e-07
4.98792e-07
4.98244e-07
4.97669e-07
4.97068e-07
4.96444e-07
4.958e-07
4.95137e-07
4.94459e-07
4.93766e-07
4.93063e-07
4.92352e-07
4.91636e-07
4.90916e-07
4.90196e-07
4.8948e-07
4.88768e-07
4.88065e-07
4.87374e-07
4.86698e-07
4.86041e-07
4.85405e-07
4.84794e-07
4.84213e-07
4.83663e-07
4.83151e-07
4.8268e-07
4.82255e-07
4.8188e-07
4.81561e-07
4.81302e-07
4.8111e-07
4.80989e-07
4.80946e-07
4.80989e-07
4.81124e-07
4.81359e-07
4.81702e-07
4.82162e-07
4.82749e-07
4.83474e-07
4.84347e-07
4.85382e-07
4.86591e-07
4.8799e-07
4.89594e-07
4.91426e-07
4.93507e-07
5.02549e-07
5.02508e-07
5.02425e-07
5.023e-07
5.02132e-07
5.01923e-07
5.01672e-07
5.01382e-07
5.01052e-07
5.00686e-07
5.00284e-07
4.99847e-07
4.99379e-07
4.9888e-07
4.98352e-07
4.97798e-07
4.9722e-07
4.96619e-07
4.95999e-07
4.95361e-07
4.94708e-07
4.94043e-07
4.93368e-07
4.92685e-07
4.91998e-07
4.91309e-07
4.90622e-07
4.89938e-07
4.89261e-07
4.88594e-07
4.8794e-07
4.87302e-07
4.86685e-07
4.86092e-07
4.85525e-07
4.8499e-07
4.8449e-07
4.8403e-07
4.83613e-07
4.83245e-07
4.82931e-07
4.82675e-07
4.82484e-07
4.82363e-07
4.82319e-07
4.82358e-07
4.82488e-07
4.82716e-07
4.83051e-07
4.83502e-07
4.84078e-07
4.84791e-07
4.85651e-07
4.86671e-07
4.87865e-07
4.89247e-07
4.90835e-07
4.92642e-07
4.94692e-07
4.96999e-07
5.02802e-07
5.02761e-07
5.02678e-07
5.02554e-07
5.02388e-07
5.0218e-07
5.01932e-07
5.01643e-07
5.01317e-07
5.00954e-07
5.00556e-07
5.00123e-07
4.99659e-07
4.99165e-07
4.98643e-07
4.98094e-07
4.97522e-07
4.96928e-07
4.96314e-07
4.95684e-07
4.95039e-07
4.94382e-07
4.93716e-07
4.93043e-07
4.92366e-07
4.91688e-07
4.91011e-07
4.90339e-07
4.89675e-07
4.89021e-07
4.88381e-07
4.87759e-07
4.87157e-07
4.8658e-07
4.86031e-07
4.85514e-07
4.85033e-07
4.84592e-07
4.84197e-07
4.83851e-07
4.83559e-07
4.83328e-07
4.83162e-07
4.83068e-07
4.83052e-07
4.8312e-07
4.83281e-07
4.83541e-07
4.83911e-07
4.84397e-07
4.85011e-07
4.85763e-07
4.86665e-07
4.87728e-07
4.88967e-07
4.90397e-07
4.92037e-07
4.93899e-07
4.96005e-07
4.98369e-07
5.03358e-07
5.03316e-07
5.03232e-07
5.03105e-07
5.02935e-07
5.02723e-07
5.02469e-07
5.02174e-07
5.01841e-07
5.0147e-07
5.01063e-07
5.00622e-07
5.00149e-07
4.99645e-07
4.99113e-07
4.98555e-07
4.97972e-07
4.97368e-07
4.96744e-07
4.96104e-07
4.95449e-07
4.94782e-07
4.94106e-07
4.93423e-07
4.92736e-07
4.92048e-07
4.91362e-07
4.90681e-07
4.90007e-07
4.89343e-07
4.88694e-07
4.88062e-07
4.87451e-07
4.86864e-07
4.86304e-07
4.85776e-07
4.85284e-07
4.84832e-07
4.84424e-07
4.84064e-07
4.83758e-07
4.83511e-07
4.83328e-07
4.83215e-07
4.83178e-07
4.83223e-07
4.83358e-07
4.8359e-07
4.83927e-07
4.84376e-07
4.84949e-07
4.85655e-07
4.86504e-07
4.87508e-07
4.88678e-07
4.9003e-07
4.9158e-07
4.93343e-07
4.9534e-07
4.97587e-07
5.04226e-07
5.04182e-07
5.04093e-07
5.03959e-07
5.0378e-07
5.03556e-07
5.03288e-07
5.02978e-07
5.02627e-07
5.02237e-07
5.01809e-07
5.01346e-07
5.00849e-07
5.00321e-07
4.99764e-07
4.9918e-07
4.98571e-07
4.97939e-07
4.97288e-07
4.9662e-07
4.95936e-07
4.95241e-07
4.94536e-07
4.93824e-07
4.93107e-07
4.92389e-07
4.91673e-07
4.90961e-07
4.90255e-07
4.8956e-07
4.88878e-07
4.88213e-07
4.87567e-07
4.86944e-07
4.86347e-07
4.85781e-07
4.85248e-07
4.84753e-07
4.843e-07
4.83893e-07
4.83536e-07
4.83234e-07
4.82993e-07
4.82817e-07
4.82712e-07
4.82683e-07
4.82737e-07
4.82881e-07
4.83121e-07
4.83465e-07
4.8392e-07
4.84495e-07
4.85198e-07
4.86041e-07
4.87041e-07
4.88205e-07
4.89544e-07
4.91073e-07
4.92813e-07
4.94788e-07
5.05423e-07
5.05375e-07
5.05278e-07
5.05133e-07
5.04938e-07
5.04694e-07
5.04404e-07
5.04067e-07
5.03687e-07
5.03265e-07
5.02803e-07
5.02303e-07
5.01768e-07
5.012e-07
5.00601e-07
4.99974e-07
4.99322e-07
4.98646e-07
4.97949e-07
4.97234e-07
4.96504e-07
4.95761e-07
4.95008e-07
4.94247e-07
4.93482e-07
4.92714e-07
4.91947e-07
4.91183e-07
4.90425e-07
4.89676e-07
4.88939e-07
4.88217e-07
4.87513e-07
4.86829e-07
4.8617e-07
4.85538e-07
4.84937e-07
4.84371e-07
4.83842e-07
4.83355e-07
4.82914e-07
4.82523e-07
4.82185e-07
4.81906e-07
4.8169e-07
4.81543e-07
4.81468e-07
4.81471e-07
4.81558e-07
4.81736e-07
4.82009e-07
4.82385e-07
4.82872e-07
4.83482e-07
4.84219e-07
4.85091e-07
4.86108e-07
4.87287e-07
4.88645e-07
4.90217e-07
5.06977e-07
5.06923e-07
5.06815e-07
5.06652e-07
5.06434e-07
5.06162e-07
5.05838e-07
5.05463e-07
5.0504e-07
5.04571e-07
5.0406e-07
5.03507e-07
5.02917e-07
5.02292e-07
5.01634e-07
5.00946e-07
5.00231e-07
4.99492e-07
4.98732e-07
4.97952e-07
4.97156e-07
4.96347e-07
4.95527e-07
4.94699e-07
4.93865e-07
4.93028e-07
4.9219e-07
4.91355e-07
4.90524e-07
4.897e-07
4.88887e-07
4.88087e-07
4.87302e-07
4.86535e-07
4.8579e-07
4.85068e-07
4.84374e-07
4.8371e-07
4.83079e-07
4.82484e-07
4.81928e-07
4.81416e-07
4.8095e-07
4.80535e-07
4.80172e-07
4.79867e-07
4.79624e-07
4.79445e-07
4.79336e-07
4.79301e-07
4.79342e-07
4.79467e-07
4.79678e-07
4.79983e-07
4.80384e-07
4.80892e-07
4.81511e-07
4.82256e-07
4.83142e-07
4.8422e-07
5.08931e-07
5.08869e-07
5.08745e-07
5.08557e-07
5.08307e-07
5.07994e-07
5.07623e-07
5.07194e-07
5.06712e-07
5.06179e-07
5.05599e-07
5.04975e-07
5.0431e-07
5.03608e-07
5.02871e-07
5.02103e-07
5.01306e-07
5.00485e-07
4.99641e-07
4.98778e-07
4.97897e-07
4.97003e-07
4.96097e-07
4.95182e-07
4.94261e-07
4.93336e-07
4.92409e-07
4.91483e-07
4.90561e-07
4.89644e-07
4.88735e-07
4.87837e-07
4.86951e-07
4.86081e-07
4.85228e-07
4.84396e-07
4.83587e-07
4.82802e-07
4.82045e-07
4.81319e-07
4.80625e-07
4.79967e-07
4.79346e-07
4.78766e-07
4.78229e-07
4.77737e-07
4.77293e-07
4.769e-07
4.76559e-07
4.76275e-07
4.76047e-07
4.75882e-07
4.75777e-07
4.75736e-07
4.75758e-07
4.75856e-07
4.76026e-07
4.76288e-07
4.76651e-07
4.77182e-07
5.11346e-07
5.11273e-07
5.11126e-07
5.10903e-07
5.10607e-07
5.10239e-07
5.09802e-07
5.093e-07
5.08737e-07
5.08118e-07
5.07447e-07
5.06728e-07
5.05966e-07
5.05164e-07
5.04325e-07
5.03455e-07
5.02555e-07
5.0163e-07
5.00682e-07
4.99714e-07
4.9873e-07
4.97731e-07
4.96721e-07
4.95701e-07
4.94674e-07
4.93643e-07
4.92609e-07
4.91575e-07
4.90543e-07
4.89515e-07
4.88494e-07
4.8748e-07
4.86476e-07
4.85485e-07
4.84508e-07
4.83547e-07
4.82604e-07
4.81681e-07
4.80781e-07
4.79904e-07
4.79053e-07
4.78229e-07
4.77435e-07
4.76672e-07
4.7594e-07
4.75243e-07
4.7458e-07
4.73955e-07
4.73366e-07
4.72815e-07
4.72302e-07
4.71827e-07
4.71386e-07
4.70979e-07
4.70604e-07
4.7027e-07
4.69973e-07
4.69731e-07
4.69552e-07
4.69516e-07
5.14309e-07
5.14219e-07
5.14038e-07
5.13766e-07
5.13404e-07
5.12957e-07
5.12428e-07
5.11825e-07
5.11154e-07
5.10421e-07
5.09631e-07
5.08789e-07
5.07902e-07
5.06974e-07
5.06009e-07
5.05012e-07
5.03986e-07
5.02934e-07
5.01861e-07
5.00768e-07
4.9966e-07
4.98537e-07
4.97404e-07
4.96261e-07
4.95111e-07
4.93956e-07
4.92799e-07
4.9164e-07
4.90482e-07
4.89327e-07
4.88176e-07
4.87031e-07
4.85893e-07
4.84765e-07
4.83647e-07
4.82542e-07
4.81451e-07
4.80374e-07
4.79315e-07
4.78273e-07
4.7725e-07
4.76247e-07
4.75265e-07
4.74305e-07
4.73367e-07
4.72451e-07
4.71557e-07
4.70686e-07
4.69834e-07
4.69003e-07
4.68188e-07
4.67393e-07
4.66612e-07
4.6585e-07
4.65093e-07
4.64342e-07
4.63583e-07
4.62847e-07
4.62142e-07
4.61562e-07
5.17942e-07
5.17826e-07
5.17593e-07
5.17245e-07
5.16785e-07
5.1622e-07
5.1556e-07
5.14815e-07
5.13994e-07
5.13107e-07
5.12161e-07
5.11165e-07
5.10123e-07
5.0904e-07
5.07922e-07
5.06774e-07
5.05598e-07
5.04399e-07
5.0318e-07
5.01944e-07
5.00693e-07
4.9943e-07
4.98157e-07
4.96876e-07
4.95588e-07
4.94296e-07
4.93001e-07
4.91704e-07
4.90408e-07
4.89112e-07
4.87819e-07
4.86531e-07
4.85247e-07
4.83969e-07
4.827e-07
4.81439e-07
4.80187e-07
4.78947e-07
4.77717e-07
4.76501e-07
4.75297e-07
4.74107e-07
4.72931e-07
4.71769e-07
4.7062e-07
4.69486e-07
4.68364e-07
4.67256e-07
4.66157e-07
4.6507e-07
4.63986e-07
4.62906e-07
4.61818e-07
4.60718e-07
4.59583e-07
4.58431e-07
4.57245e-07
4.56058e-07
4.54863e-07
4.53761e-07
5.22451e-07
5.22292e-07
5.21974e-07
5.21499e-07
5.20878e-07
5.20126e-07
5.19263e-07
5.18306e-07
5.17271e-07
5.16171e-07
5.15015e-07
5.13811e-07
5.12566e-07
5.11286e-07
5.09976e-07
5.08641e-07
5.07285e-07
5.05911e-07
5.04522e-07
5.03121e-07
5.01709e-07
5.00289e-07
4.98861e-07
4.97428e-07
4.9599e-07
4.94549e-07
4.93105e-07
4.9166e-07
4.90214e-07
4.88769e-07
4.87325e-07
4.85883e-07
4.84444e-07
4.83009e-07
4.81578e-07
4.80153e-07
4.78734e-07
4.77321e-07
4.75915e-07
4.74517e-07
4.73127e-07
4.71744e-07
4.7037e-07
4.69003e-07
4.67642e-07
4.66287e-07
4.64935e-07
4.63587e-07
4.62235e-07
4.6088e-07
4.59514e-07
4.58137e-07
4.56739e-07
4.55326e-07
4.53885e-07
4.52422e-07
4.50911e-07
4.49372e-07
4.47788e-07
4.46264e-07
5.2811e-07
5.27899e-07
5.27473e-07
5.26836e-07
5.26005e-07
5.25007e-07
5.23876e-07
5.22642e-07
5.21329e-07
5.19955e-07
5.18531e-07
5.17068e-07
5.15572e-07
5.14049e-07
5.12507e-07
5.10948e-07
5.09379e-07
5.078e-07
5.06214e-07
5.04623e-07
5.03028e-07
5.01429e-07
4.99827e-07
4.98223e-07
4.96617e-07
4.9501e-07
4.93401e-07
4.91793e-07
4.90184e-07
4.88575e-07
4.86966e-07
4.85359e-07
4.83752e-07
4.82148e-07
4.80546e-07
4.78946e-07
4.7735e-07
4.75757e-07
4.74169e-07
4.72584e-07
4.71003e-07
4.69427e-07
4.67856e-07
4.66288e-07
4.64725e-07
4.63164e-07
4.61606e-07
4.60049e-07
4.58491e-07
4.56931e-07
4.55364e-07
4.53787e-07
4.52192e-07
4.50571e-07
4.48909e-07
4.47194e-07
4.45403e-07
4.43536e-07
4.41599e-07
4.39673e-07
5.34937e-07
5.34508e-07
5.33728e-07
5.32647e-07
5.31336e-07
5.29865e-07
5.28292e-07
5.26655e-07
5.24976e-07
5.23265e-07
5.2153e-07
5.19775e-07
5.18007e-07
5.16231e-07
5.14454e-07
5.12678e-07
5.10905e-07
5.09134e-07
5.07366e-07
5.056e-07
5.03836e-07
5.02073e-07
5.00311e-07
4.9855e-07
4.96788e-07
4.95026e-07
4.93263e-07
4.91499e-07
4.89733e-07
4.87965e-07
4.86196e-07
4.84425e-07
4.82652e-07
4.80878e-07
4.79103e-07
4.77326e-07
4.7555e-07
4.73772e-07
4.71995e-07
4.70217e-07
4.68441e-07
4.66663e-07
4.64889e-07
4.63112e-07
4.61339e-07
4.59561e-07
4.57788e-07
4.56007e-07
4.54232e-07
4.52443e-07
4.50662e-07
4.48857e-07
4.47062e-07
4.45232e-07
4.43417e-07
4.41549e-07
4.39702e-07
4.37782e-07
4.359e-07
4.33953e-07
5.46754e-07
5.46007e-07
5.44601e-07
5.42661e-07
5.40392e-07
5.37992e-07
5.35585e-07
5.33223e-07
5.30908e-07
5.28628e-07
5.26373e-07
5.24144e-07
5.21946e-07
5.19783e-07
5.17657e-07
5.15567e-07
5.13508e-07
5.11476e-07
5.09465e-07
5.07473e-07
5.05495e-07
5.0353e-07
5.01575e-07
4.99626e-07
4.97684e-07
4.95744e-07
4.93807e-07
4.91869e-07
4.89931e-07
4.87991e-07
4.86049e-07
4.84104e-07
4.82157e-07
4.80205e-07
4.78251e-07
4.76292e-07
4.74332e-07
4.72367e-07
4.70403e-07
4.68432e-07
4.66464e-07
4.64488e-07
4.6252e-07
4.6054e-07
4.58573e-07
4.5659e-07
4.54629e-07
4.52644e-07
4.50697e-07
4.48715e-07
4.46796e-07
4.44825e-07
4.4296e-07
4.41015e-07
4.39246e-07
4.37348e-07
4.35734e-07
4.33892e-07
4.32471e-07
4.30573e-07
5.55572e-07
5.53849e-07
5.51211e-07
5.48098e-07
5.44898e-07
5.41825e-07
5.38927e-07
5.3617e-07
5.33502e-07
5.30894e-07
5.28338e-07
5.25841e-07
5.23409e-07
5.21043e-07
5.18735e-07
5.16476e-07
5.14257e-07
5.12071e-07
5.09912e-07
5.07773e-07
5.05653e-07
5.03546e-07
5.01449e-07
4.99358e-07
4.97272e-07
4.95187e-07
4.93102e-07
4.91014e-07
4.88923e-07
4.86828e-07
4.84728e-07
4.82621e-07
4.8051e-07
4.78391e-07
4.76269e-07
4.74139e-07
4.72006e-07
4.69865e-07
4.67724e-07
4.65575e-07
4.63428e-07
4.61271e-07
4.59122e-07
4.56958e-07
4.54809e-07
4.52637e-07
4.50494e-07
4.48311e-07
4.46182e-07
4.43986e-07
4.41893e-07
4.39687e-07
4.37686e-07
4.35492e-07
4.33721e-07
4.31617e-07
4.30419e-07
4.28475e-07
4.28449e-07
4.26258e-07
6.03646e-07
5.89528e-07
5.7577e-07
5.65207e-07
5.57803e-07
5.52436e-07
5.48013e-07
5.43966e-07
5.40127e-07
5.36503e-07
5.33132e-07
5.30017e-07
5.27125e-07
5.24405e-07
5.21811e-07
5.1931e-07
5.16881e-07
5.14509e-07
5.12185e-07
5.099e-07
5.07644e-07
5.05412e-07
5.03196e-07
5.0099e-07
4.98791e-07
4.96596e-07
4.944e-07
4.92202e-07
4.90001e-07
4.87794e-07
4.85582e-07
4.83363e-07
4.81137e-07
4.78904e-07
4.76664e-07
4.74419e-07
4.72167e-07
4.69911e-07
4.67651e-07
4.65387e-07
4.6312e-07
4.60851e-07
4.5858e-07
4.56308e-07
4.54035e-07
4.51759e-07
4.49483e-07
4.47201e-07
4.44918e-07
4.42619e-07
4.40325e-07
4.37989e-07
4.35683e-07
4.33249e-07
4.30969e-07
4.28234e-07
4.26258e-07
4.22286e-07
4.22403e-07
4.12213e-07
4.27566e-07
3.75502e-07
3.53106e-07
3.34174e-07
3.15108e-07
2.95821e-07
2.74368e-07
2.51485e-07
2.2507e-07
1.96751e-07
1.64327e-07
1.305e-07
9.28353e-08
5.51481e-08
1.46538e-08
-2.37929e-08
-6.38178e-08
-9.95843e-08
-1.35767e-07
-1.65914e-07
-1.95751e-07
-2.1809e-07
-2.40254e-07
-2.53417e-07
-2.67667e-07
-2.70173e-07
-2.79272e-07
-2.68567e-07
-2.76991e-07
-3.34123e-07
4.1299e-07
3.56114e-07
3.40773e-07
3.24494e-07
3.06161e-07
2.8734e-07
2.66239e-07
2.43575e-07
2.17428e-07
1.89569e-07
1.57876e-07
1.2502e-07
8.86228e-08
5.23461e-08
1.34299e-08
-2.35214e-08
-6.17722e-08
-9.62456e-08
-1.31091e-07
-1.60354e-07
-1.89976e-07
-2.12025e-07
-2.35007e-07
-2.4844e-07
-2.64502e-07
-2.68255e-07
-2.77336e-07
-2.75702e-07
-2.65375e-07
-3.71879e-07
4.00306e-07
3.53427e-07
3.39162e-07
3.23394e-07
3.04523e-07
2.84689e-07
2.63052e-07
2.40066e-07
2.13883e-07
1.85947e-07
1.54498e-07
1.21807e-07
8.59506e-08
5.0094e-08
1.1981e-08
-2.43462e-08
-6.19097e-08
-9.59161e-08
-1.30466e-07
-1.59331e-07
-1.88371e-07
-2.10685e-07
-2.33038e-07
-2.47721e-07
-2.62637e-07
-2.70352e-07
-2.76332e-07
-2.86388e-07
-2.57197e-07
-3.32811e-07
3.89627e-07
3.48781e-07
3.32316e-07
3.17079e-07
2.98982e-07
2.79776e-07
2.58343e-07
2.35254e-07
2.0913e-07
1.81129e-07
1.49992e-07
1.17443e-07
8.22714e-08
4.67743e-08
9.68479e-09
-2.62589e-08
-6.26136e-08
-9.62712e-08
-1.29257e-07
-1.58587e-07
-1.86445e-07
-2.09894e-07
-2.31107e-07
-2.48225e-07
-2.61347e-07
-2.74184e-07
-2.74265e-07
-2.93409e-07
-2.59284e-07
-3.12714e-07
3.79247e-07
3.45728e-07
3.28448e-07
3.14398e-07
2.96785e-07
2.7679e-07
2.54805e-07
2.31176e-07
2.04991e-07
1.76649e-07
1.45717e-07
1.12995e-07
7.8411e-08
4.29393e-08
6.81844e-09
-2.90205e-08
-6.41215e-08
-9.78648e-08
-1.29597e-07
-1.59511e-07
-1.85995e-07
-2.10907e-07
-2.30434e-07
-2.50437e-07
-2.60842e-07
-2.77754e-07
-2.74437e-07
-2.94189e-07
-2.68501e-07
-2.91484e-07
3.70085e-07
3.43548e-07
3.25399e-07
3.10822e-07
2.93463e-07
2.73387e-07
2.51211e-07
2.27126e-07
2.00802e-07
1.72073e-07
1.41221e-07
1.08249e-07
7.40948e-08
3.85574e-08
3.25143e-09
-3.25673e-08
-6.65463e-08
-1.00445e-07
-1.30904e-07
-1.6132e-07
-1.86503e-07
-2.12611e-07
-2.30927e-07
-2.52603e-07
-2.62133e-07
-2.80111e-07
-2.78201e-07
-2.93391e-07
-2.80985e-07
-2.87238e-07
3.62472e-07
3.41554e-07
3.23292e-07
3.0779e-07
2.90524e-07
2.70391e-07
2.47953e-07
2.23297e-07
1.96645e-07
1.67456e-07
1.36507e-07
1.03246e-07
6.931e-08
3.37174e-08
-1.02038e-09
-3.6727e-08
-6.98781e-08
-1.03677e-07
-1.33241e-07
-1.63741e-07
-1.88258e-07
-2.14715e-07
-2.32949e-07
-2.54842e-07
-2.65491e-07
-2.82357e-07
-2.84766e-07
-2.95034e-07
-2.91486e-07
-2.91685e-07
3.5664e-07
3.39645e-07
3.21866e-07
3.05326e-07
2.87785e-07
2.6749e-07
2.44729e-07
2.19497e-07
1.92364e-07
1.62696e-07
1.31477e-07
9.79569e-08
6.402e-08
2.84519e-08
-5.98953e-09
-4.14096e-08
-7.40836e-08
-1.07449e-07
-1.36604e-07
-1.66663e-07
-1.91195e-07
-2.17196e-07
-2.36313e-07
-2.57476e-07
-2.70507e-07
-2.85608e-07
-2.92274e-07
-2.99705e-07
-3.00583e-07
-3.00156e-07
3.52669e-07
3.37797e-07
3.20653e-07
3.03383e-07
2.85255e-07
2.64611e-07
2.4144e-07
2.15643e-07
1.87912e-07
1.57744e-07
1.26105e-07
9.23484e-08
5.82351e-08
2.27591e-08
-1.16015e-08
-4.65972e-08
-7.90583e-08
-1.11765e-07
-1.40828e-07
-1.70133e-07
-1.95007e-07
-2.20234e-07
-2.40444e-07
-2.6084e-07
-2.7589e-07
-2.90331e-07
-2.99648e-07
-3.0699e-07
-3.10063e-07
-3.11005e-07
3.50299e-07
3.36062e-07
3.19481e-07
3.01774e-07
2.82893e-07
2.61692e-07
2.37989e-07
2.11621e-07
1.83221e-07
1.52521e-07
1.20361e-07
8.63589e-08
5.1969e-08
1.66031e-08
-1.77849e-08
-5.23126e-08
-8.46669e-08
-1.16657e-07
-1.45697e-07
-1.74209e-07
-1.99389e-07
-2.23935e-07
-2.44982e-07
-2.65018e-07
-2.8147e-07
-2.9613e-07
-3.0716e-07
-3.15477e-07
-3.20391e-07
-3.23038e-07
3.49042e-07
3.34587e-07
3.18239e-07
3.0021e-07
2.80559e-07
2.5865e-07
2.34291e-07
2.07312e-07
1.78211e-07
1.4694e-07
1.14208e-07
7.99215e-08
4.52221e-08
9.93758e-09
-2.44912e-08
-5.8585e-08
-9.08098e-08
-1.22142e-07
-1.51065e-07
-1.78899e-07
-2.04176e-07
-2.2826e-07
-2.49781e-07
-2.69818e-07
-2.87199e-07
-3.02524e-07
-3.14935e-07
-3.24677e-07
-3.31481e-07
-3.36146e-07
3.48339e-07
3.33424e-07
3.16897e-07
2.98468e-07
2.78069e-07
2.55375e-07
2.30265e-07
2.02615e-07
1.72792e-07
1.4091e-07
1.07584e-07
7.29655e-08
3.79584e-08
2.70829e-09
-3.17289e-08
-6.54483e-08
-9.74706e-08
-1.28228e-07
-1.56902e-07
-1.84169e-07
-2.09339e-07
-2.33107e-07
-2.54839e-07
-2.75044e-07
-2.93104e-07
-3.0927e-07
-3.22959e-07
-3.34314e-07
-3.43068e-07
-3.50088e-07
3.47752e-07
3.32417e-07
3.15425e-07
2.96422e-07
2.75258e-07
2.51747e-07
2.25825e-07
1.97437e-07
1.66863e-07
1.34331e-07
1.00398e-07
6.54019e-08
3.00955e-08
-5.16106e-09
-3.957e-08
-7.29622e-08
-1.04712e-07
-1.34945e-07
-1.63265e-07
-1.90014e-07
-2.14938e-07
-2.38421e-07
-2.60216e-07
-2.80593e-07
-2.99223e-07
-3.16213e-07
-3.31164e-07
-3.44129e-07
-3.54958e-07
-3.64381e-07
3.47021e-07
3.31348e-07
3.13737e-07
2.94005e-07
2.72025e-07
2.47666e-07
2.20883e-07
1.91685e-07
1.60312e-07
1.27082e-07
9.25203e-08
5.71074e-08
2.1502e-08
-1.37901e-08
-4.81455e-08
-8.12317e-08
-1.1266e-07
-1.42379e-07
-1.70268e-07
-1.96489e-07
-2.21071e-07
-2.44229e-07
-2.6598e-07
-2.86458e-07
-3.05561e-07
-3.23295e-07
-3.39441e-07
-3.53982e-07
-3.66884e-07
-3.78796e-07
3.4606e-07
3.30016e-07
3.11733e-07
2.91187e-07
2.68324e-07
2.43057e-07
2.15342e-07
1.85246e-07
1.53002e-07
1.19011e-07
8.37832e-08
4.79135e-08
1.19966e-08
-2.33499e-08
-5.76366e-08
-9.0414e-08
-1.21481e-07
-1.50661e-07
-1.78059e-07
-2.03696e-07
-2.27854e-07
-2.50594e-07
-2.72204e-07
-2.92654e-07
-3.12128e-07
-3.30452e-07
-3.47708e-07
-3.63679e-07
-3.78624e-07
-3.92893e-07
3.44915e-07
3.28365e-07
3.09383e-07
2.87976e-07
2.64143e-07
2.37856e-07
2.09089e-07
1.77975e-07
1.44759e-07
1.09925e-07
7.39756e-08
3.76038e-08
1.3564e-09
-3.40565e-08
-6.82561e-08
-1.00704e-07
-1.31361e-07
-1.59952e-07
-1.86784e-07
-2.11757e-07
-2.3539e-07
-2.57596e-07
-2.78936e-07
-2.99203e-07
-3.18895e-07
-3.37627e-07
-3.55835e-07
-3.73034e-07
-3.8987e-07
-4.06274e-07
3.43751e-07
3.26469e-07
3.06721e-07
2.8438e-07
2.59443e-07
2.31962e-07
2.01969e-07
1.69678e-07
1.35364e-07
9.95843e-08
6.28449e-08
2.59226e-08
-1.06699e-08
-4.61499e-08
-8.02278e-08
-1.12307e-07
-1.42481e-07
-1.70413e-07
-1.96577e-07
-2.20789e-07
-2.43766e-07
-2.65306e-07
-2.86203e-07
-3.06114e-07
-3.25811e-07
-3.4474e-07
-3.63652e-07
-3.81841e-07
-4.00278e-07
-4.18549e-07
3.42802e-07
3.2448e-07
3.03772e-07
2.80325e-07
2.54081e-07
2.25179e-07
1.93743e-07
1.60089e-07
1.2453e-07
8.7694e-08
5.00977e-08
1.2583e-08
-2.43516e-08
-5.98808e-08
-9.37767e-08
-1.25425e-07
-1.55016e-07
-1.82197e-07
-2.07567e-07
-2.30903e-07
-2.53064e-07
-2.7379e-07
-2.94042e-07
-3.13402e-07
-3.32842e-07
-3.51721e-07
-3.7102e-07
-3.89897e-07
-4.09565e-07
-4.29329e-07
3.42179e-07
3.22501e-07
3.00475e-07
2.75593e-07
2.47756e-07
2.17173e-07
1.84068e-07
1.48854e-07
1.11904e-07
7.39007e-08
3.53927e-08
-2.7381e-09
-3.99877e-08
-7.55234e-08
-1.09151e-07
-1.40282e-07
-1.69167e-07
-1.95486e-07
-2.19911e-07
-2.42238e-07
-2.63406e-07
-2.83153e-07
-3.02532e-07
-3.21124e-07
-3.40011e-07
-3.58555e-07
-3.77854e-07
-3.97069e-07
-4.17485e-07
-4.3832e-07
3.41598e-07
3.20274e-07
2.96469e-07
2.69732e-07
2.39975e-07
2.07451e-07
1.7246e-07
1.355e-07
9.7019e-08
5.77524e-08
1.82958e-08
-2.04503e-08
-5.79625e-08
-9.34344e-08
-1.26684e-07
-1.57189e-07
-1.85228e-07
-2.10552e-07
-2.33867e-07
-2.55026e-07
-2.75002e-07
-2.93571e-07
-3.11838e-07
-3.29398e-07
-3.47422e-07
-3.65275e-07
-3.84163e-07
-4.03246e-07
-4.23864e-07
-4.45172e-07
3.40296e-07
3.17062e-07
2.91099e-07
2.62116e-07
2.30108e-07
1.9537e-07
1.58272e-07
1.19381e-07
7.9237e-08
3.86236e-08
-1.79964e-09
-4.1134e-08
-7.88278e-08
-1.14132e-07
-1.46867e-07
-1.76608e-07
-2.03641e-07
-2.27818e-07