/*--------------------------------*- C++ -*----------------------------------*\
| =========                 |                                                 |
| \\      /  F ield         | OpenFOAM: The Open Source CFD Toolbox           |
|  \\    /   O peration     | Version:  2312                                  |
|   \\  /    A nd           | Website:  www.openfoam.com                      |
|    \\/     M anipulation  |                                                 |
\*---------------------------------------------------------------------------*/
FoamFile
{
    version     2.0;
    format      ascii;
    arch        "LSB;label=32;scalar=64";
    class       surfaceScalarField;
    location    "10000";
    object      phi;
}
// * * * * * * * * * * * * * * * * * * * * * * * * * * * * * * * * * * * * * //

dimensions      [0 3 -1 0 0 0 0];

oriented        oriented;

internalField   nonuniform List<scalar> 
21240
(
0.000664977
1.68988e-06
0.000661082
3.89506e-06
0.000655773
5.3083e-06
0.000649555
6.21839e-06
0.000642704
6.85084e-06
0.000635364
7.33994e-06
0.000627627
7.73677e-06
0.000619573
8.05472e-06
0.000611274
8.29855e-06
0.000602798
8.4761e-06
0.000594197
8.60101e-06
0.000585511
8.68642e-06
0.000576771
8.73939e-06
0.000568006
8.76501e-06
0.000559237
8.76957e-06
0.000550481
8.75589e-06
0.000541758
8.72265e-06
0.000533088
8.67019e-06
0.000524487
8.6014e-06
0.000515969
8.51789e-06
0.000507549
8.41937e-06
0.000499246
8.30313e-06
0.000491082
8.1642e-06
0.000483081
8.00118e-06
0.000475258
7.82279e-06
0.000467617
7.64081e-06
0.000460163
7.45425e-06
0.000452919
7.24444e-06
0.000445933
6.98573e-06
0.000439272
6.66054e-06
0.000433006
6.26597e-06
0.000427199
5.8076e-06
0.000421901
5.29738e-06
0.000417159
4.74251e-06
0.000413005
4.15359e-06
0.000409468
3.53769e-06
0.000406556
2.91165e-06
0.000404265
2.29055e-06
0.000402561
1.70411e-06
0.000401397
1.16401e-06
0.000400696
7.01602e-07
0.000400386
3.09559e-07
0.000400381
5.54523e-09
0.000400603
-2.22323e-07
0.000400975
-3.72077e-07
0.00040147
-4.94878e-07
0.000402006
-5.35734e-07
0.000402602
-5.96492e-07
0.00040317
-5.68094e-07
0.000403787
-6.1725e-07
0.000404311
-5.23632e-07
0.000404921
-6.10346e-07
0.000405341
-4.19484e-07
0.000405949
-6.08079e-07
0.000406163
-2.14258e-07
0.000406815
-6.51704e-07
0.000406605
2.09713e-07
0.000407438
-8.32777e-07
0.000406311
1.12649e-06
-1.42338e-06
0.000407735
0.000667557
7.99172e-07
0.000669127
2.32561e-06
0.000670869
3.56578e-06
0.000672554
4.53369e-06
0.000674101
5.30352e-06
0.000675498
5.94336e-06
0.00067674
6.49475e-06
0.000677818
6.97676e-06
0.00067872
7.3961e-06
0.000679441
7.75551e-06
0.000679982
8.06e-06
0.000680351
8.31778e-06
0.000680554
8.53625e-06
0.000680599
8.71968e-06
0.000680498
8.87021e-06
0.000680265
8.9892e-06
0.000679908
9.07974e-06
0.000679431
9.14715e-06
0.000678839
9.1932e-06
0.000678146
9.21162e-06
0.000677369
9.19562e-06
0.000676526
9.14681e-06
0.000675616
9.07365e-06
0.000674636
8.98112e-06
0.000673592
8.86673e-06
0.000672512
8.72128e-06
0.000671434
8.53223e-06
0.000670389
8.28934e-06
0.000669383
7.99187e-06
0.000668392
7.65098e-06
0.000667374
7.28474e-06
0.00066628
6.90164e-06
0.000665076
6.50129e-06
0.000663755
6.06306e-06
0.000662339
5.56971e-06
0.000660875
5.00194e-06
0.000659424
4.36272e-06
0.00065805
3.66386e-06
0.000656811
2.94384e-06
0.000655747
2.22769e-06
0.000654879
1.56945e-06
0.000654214
9.74189e-07
0.000653735
4.85091e-07
0.000653431
8.13028e-08
0.000653295
-2.36128e-07
0.000653296
-4.95353e-07
0.000653405
-6.44861e-07
0.000653601
-7.92921e-07
0.000653873
-8.39571e-07
0.000654192
-9.36034e-07
0.000654576
-9.08078e-07
0.000654958
-9.91808e-07
0.000655443
-9.05035e-07
0.00065583
-9.95162e-07
0.000656459
-8.42761e-07
0.000656749
-9.42162e-07
0.000657662
-7.03128e-07
0.000657604
-7.74762e-07
0.00065921
-4.79691e-07
-3.83381e-07
0.00065817
0.000666952
5.13451e-07
0.000667824
1.45378e-06
0.000669071
2.3189e-06
0.000670506
3.09886e-06
0.00067202
3.78931e-06
0.000673566
4.3973e-06
0.000675126
4.93489e-06
0.000676689
5.41352e-06
0.000678245
5.84079e-06
0.00067978
6.22056e-06
0.000681284
6.55556e-06
0.000682752
6.84957e-06
0.000684182
7.10672e-06
0.000685572
7.3297e-06
0.000686922
7.51958e-06
0.000688234
7.67738e-06
0.000689508
7.80579e-06
0.000690746
7.90887e-06
0.000691951
7.98888e-06
0.000693119
8.04313e-06
0.000694248
8.06651e-06
0.000695338
8.05724e-06
0.000696392
8.01981e-06
0.000697412
7.96054e-06
0.000698397
7.88181e-06
0.000699339
7.77906e-06
0.00070023
7.64213e-06
0.000701058
7.46075e-06
0.00070182
7.23023e-06
0.000702514
6.95696e-06
0.000703143
6.65511e-06
0.000703705
6.33974e-06
0.000704188
6.01858e-06
0.000704564
5.6875e-06
0.0007048
5.33377e-06
0.000704859
4.94266e-06
0.000704719
4.50213e-06
0.00070437
4.01337e-06
0.00070383
3.48355e-06
0.000703125
2.93271e-06
0.000702313
2.38114e-06
0.000701437
1.85086e-06
0.000700566
1.35619e-06
0.000699734
9.12925e-07
0.000698982
5.15607e-07
0.00069831
1.77331e-07
0.000697779
-1.1462e-07
0.000697336
-3.49221e-07
0.000697063
-5.66896e-07
0.000696861
-7.33962e-07
0.00069686
-9.06663e-07
0.000696888
-1.02007e-06
0.000697156
-1.17318e-06
0.000697394
-1.23313e-06
0.000697938
-1.38706e-06
0.000698372
-1.37638e-06
0.000699229
-1.55983e-06
0.00069989
-1.43583e-06
0.000701097
-1.68698e-06
-1.38028e-06
0.000702094
0.000666855
3.255e-07
0.000667312
9.96684e-07
0.000667979
1.65154e-06
0.000668809
2.26937e-06
0.000669757
2.84081e-06
0.000670792
3.36251e-06
0.000671891
3.83586e-06
0.00067304
4.26467e-06
0.000674228
4.65267e-06
0.000675446
5.00236e-06
0.000676686
5.3156e-06
0.000677941
5.59462e-06
0.000679206
5.84191e-06
0.000680476
6.05903e-06
0.00068175
6.2462e-06
0.000683023
6.40391e-06
0.000684295
6.5344e-06
0.000685563
6.64074e-06
0.000686827
6.72446e-06
0.000688086
6.78399e-06
0.000689337
6.81616e-06
0.000690574
6.81975e-06
0.000691796
6.79772e-06
0.000693001
6.75547e-06
0.000694188
6.69565e-06
0.000695351
6.61523e-06
0.000696488
6.50596e-06
0.000697587
6.36084e-06
0.000698639
6.17816e-06
0.00069963
5.96621e-06
0.000700547
5.73815e-06
0.000701377
5.50972e-06
0.000702108
5.2879e-06
0.000702722
5.07311e-06
0.000703204
4.8517e-06
0.000703536
4.61076e-06
0.000703708
4.33022e-06
0.000703716
4.00553e-06
0.000703572
3.62797e-06
0.000703292
3.21272e-06
0.000702911
2.76128e-06
0.000702459
2.30334e-06
0.000701979
1.83633e-06
0.000701495
1.39672e-06
0.000701046
9.64162e-07
0.000700642
5.81661e-07
0.000700321
2.06074e-07
0.000700084
-1.11736e-07
0.000699969
-4.51782e-07
0.000699942
-7.06792e-07
0.000700047
-1.01242e-06
0.000700237
-1.21e-06
0.000700572
-1.50756e-06
0.000700989
-1.65033e-06
0.000701572
-1.97033e-06
0.000702247
-2.05072e-06
0.000703115
-2.42876e-06
0.000704109
-2.42913e-06
0.000705333
-2.91119e-06
-2.80745e-06
0.00070676
0.000666738
2.538e-07
0.00066697
7.64565e-07
0.000667359
1.26344e-06
0.000667884
1.74352e-06
0.000668527
2.19872e-06
0.000669264
2.62511e-06
0.000670079
3.02108e-06
0.000670957
3.38679e-06
0.000671886
3.72295e-06
0.000672859
4.03012e-06
0.000673865
4.30891e-06
0.000674899
4.56046e-06
0.000675955
4.78608e-06
0.000677028
4.98638e-06
0.000678113
5.16109e-06
0.000679207
5.3103e-06
0.000680305
5.43561e-06
0.000681407
5.53922e-06
0.000682509
5.62199e-06
0.000683611
5.68278e-06
0.000684707
5.71966e-06
0.000685795
5.73224e-06
0.000686869
5.72285e-06
0.000687929
5.69572e-06
0.000688972
5.65319e-06
0.000689993
5.59342e-06
0.000690989
5.51036e-06
0.000691951
5.39923e-06
0.00069287
5.25934e-06
0.000693738
5.09811e-06
0.00069455
4.9262e-06
0.000695303
4.75671e-06
0.000695995
4.59526e-06
0.000696625
4.44307e-06
0.000697188
4.28855e-06
0.000697678
4.12093e-06
0.000698087
3.921e-06
0.00069841
3.68268e-06
0.000698644
3.39392e-06
0.000698793
3.06443e-06
0.000698863
2.69051e-06
0.00069887
2.29643e-06
0.000698831
1.87604e-06
0.000698764
1.46298e-06
0.000698691
1.03735e-06
0.000698632
6.40525e-07
0.000698608
2.30864e-07
0.000698621
-1.24987e-07
0.000698671
-5.02021e-07
0.000698783
-8.18533e-07
0.00069896
-1.18924e-06
0.000699223
-1.47334e-06
0.00069957
-1.85449e-06
0.000700028
-2.10881e-06
0.000700579
-2.52143e-06
0.000701273
-2.74454e-06
0.000702068
-3.22361e-06
0.000703046
-3.407e-06
0.000704134
-3.99912e-06
-4.1282e-06
0.000705455
0.000666725
1.95955e-07
0.0006669
5.88988e-07
0.000667185
9.7833e-07
0.000667571
1.35745e-06
0.000668048
1.72249e-06
0.000668602
2.07029e-06
0.000669225
2.39866e-06
0.000669905
2.70644e-06
0.000670635
2.99291e-06
0.000671408
3.25747e-06
0.000672217
3.49991e-06
0.000673057
3.72063e-06
0.000673922
3.9203e-06
0.00067481
4.09904e-06
0.000675714
4.25636e-06
0.000676633
4.39221e-06
0.00067756
4.50773e-06
0.000678495
4.60451e-06
0.000679434
4.68295e-06
0.000680375
4.742e-06
0.000681314
4.78042e-06
0.000682248
4.7984e-06
0.000683173
4.7981e-06
0.000684086
4.7828e-06
0.000684985
4.75407e-06
0.000685868
4.71033e-06
0.000686731
4.64708e-06
0.000687569
4.56124e-06
0.000688375
4.45345e-06
0.000689143
4.33061e-06
0.000689867
4.20173e-06
0.000690547
4.07688e-06
0.000691183
3.95966e-06
0.000691776
3.84961e-06
0.000692328
3.73634e-06
0.000692839
3.60969e-06
0.000693307
3.45339e-06
0.000693729
3.26093e-06
0.000694101
3.02184e-06
0.000694423
2.74214e-06
0.000694695
2.41856e-06
0.000694923
2.06866e-06
0.00069511
1.68915e-06
0.000695268
1.30481e-06
0.000695402
9.03554e-07
0.000695525
5.17141e-07
0.000695637
1.1906e-07
0.000695778
-2.65858e-07
0.000695948
-6.71934e-07
0.000696167
-1.03826e-06
0.000696425
-1.44703e-06
0.000696751
-1.79965e-06
0.000697125
-2.22778e-06
0.000697589
-2.57256e-06
0.000698108
-3.04132e-06
0.000698748
-3.38453e-06
0.000699446
-3.92088e-06
0.000700302
-4.2636e-06
0.000701209
-4.90622e-06
-5.23955e-06
0.000702321
0.000666708
1.54515e-07
0.000666832
4.64629e-07
0.000667038
7.72978e-07
0.00066732
1.07499e-06
0.000667675
1.36802e-06
0.000668095
1.64971e-06
0.000668576
1.91831e-06
0.000669109
2.17265e-06
0.00066969
2.41204e-06
0.000670312
2.63537e-06
0.000670971
2.84113e-06
0.000671662
3.02981e-06
0.000672381
3.20173e-06
0.000673123
3.35671e-06
0.000673885
3.49413e-06
0.000674663
3.61387e-06
0.000675454
3.7168e-06
0.000676255
3.80402e-06
0.000677062
3.87564e-06
0.000677874
3.93068e-06
0.000678686
3.96825e-06
0.000679495
3.98882e-06
0.000680299
3.99437e-06
0.000681094
3.98744e-06
0.000681879
3.96901e-06
0.000682652
3.93761e-06
0.000683409
3.88984e-06
0.000684147
3.82373e-06
0.00068486
3.7406e-06
0.000685544
3.64645e-06
0.000686197
3.54872e-06
0.000686819
3.4547e-06
0.000687412
3.36641e-06
0.00068798
3.28195e-06
0.000688524
3.1922e-06
0.000689046
3.08776e-06
0.000689544
2.95568e-06
0.000690015
2.78972e-06
0.000690455
2.58223e-06
0.00069086
2.33656e-06
0.000691228
2.05114e-06
0.000691559
1.73765e-06
0.000691853
1.39494e-06
0.000692119
1.03906e-06
0.000692359
6.63192e-07
0.00069259
2.85921e-07
0.000692814
-1.05047e-07
0.000693035
-4.86506e-07
0.000693254
-8.90978e-07
0.000693493
-1.27713e-06
0.000693743
-1.69669e-06
0.000694035
-2.09171e-06
0.000694347
-2.54011e-06
0.000694725
-2.95039e-06
0.00069513
-3.44619e-06
0.000695624
-3.87881e-06
0.000696147
-4.4444e-06
0.000696791
-4.90767e-06
0.000697455
-5.5702e-06
-6.06729e-06
0.000698283
0.000666698
1.22956e-07
0.000666794
3.69285e-07
0.000666952
6.14502e-07
0.000667172
8.55413e-07
0.000667449
1.09018e-06
0.000667782
1.31713e-06
0.000668165
1.53489e-06
0.000668596
1.74244e-06
0.000669069
1.9388e-06
0.000669581
2.12295e-06
0.000670128
2.29412e-06
0.000670706
2.45214e-06
0.000671311
2.597e-06
0.000671939
2.72835e-06
0.000672588
2.84561e-06
0.000673253
2.94859e-06
0.000673932
3.03792e-06
0.000674621
3.11437e-06
0.000675319
3.17783e-06
0.000676023
3.22741e-06
0.000676728
3.26243e-06
0.000677434
3.28348e-06
0.000678136
3.2923e-06
0.000678832
3.29085e-06
0.000679522
3.2797e-06
0.000680202
3.25739e-06
0.00068087
3.22125e-06
0.000681524
3.17e-06
0.00068216
3.10523e-06
0.000682774
3.03201e-06
0.000683366
2.95642e-06
0.000683937
2.88361e-06
0.000684489
2.81462e-06
0.000685025
2.74657e-06
0.000685545
2.6717e-06
0.000686051
2.58136e-06
0.000686542
2.4655e-06
0.000687013
2.31815e-06
0.000687461
2.13417e-06
0.000687883
1.91482e-06
0.000688274
1.66048e-06
0.000688633
1.37814e-06
0.000688958
1.06967e-06
0.000689253
7.44634e-07
0.000689514
4.02549e-07
0.000689744
5.55233e-08
0.000689957
-3.18131e-07
0.000690162
-6.91168e-07
0.000690352
-1.08092e-06
0.000690546
-1.47198e-06
0.000690736
-1.88642e-06
0.000690945
-2.30063e-06
0.000691155
-2.74988e-06
0.000691402
-3.19713e-06
0.00069165
-3.69499e-06
0.000691957
-4.1859e-06
0.000692265
-4.75159e-06
0.000692654
-5.29688e-06
0.000693036
-5.95197e-06
-6.56333e-06
0.000693532
0.000666692
9.7416e-08
0.000666769
2.92397e-07
0.000666897
4.86599e-07
0.000667075
6.77699e-07
0.000667301
8.64391e-07
0.000667572
1.04544e-06
0.000667887
1.21984e-06
0.000668243
1.38674e-06
0.000668636
1.5453e-06
0.000669065
1.69467e-06
0.000669525
1.83428e-06
0.000670013
1.9639e-06
0.000670526
2.08336e-06
0.000671063
2.19221e-06
0.000671618
2.2899e-06
0.000672191
2.37623e-06
0.000672777
2.45169e-06
0.000673374
2.51678e-06
0.000673981
2.57129e-06
0.000674594
2.61438e-06
0.000675211
2.64556e-06
0.000675829
2.66538e-06
0.000676446
2.67534e-06
0.00067706
2.67691e-06
0.000677669
2.67035e-06
0.000678272
2.65427e-06
0.000678867
2.62658e-06
0.000679451
2.5864e-06
0.00068002
2.53542e-06
0.000680575
2.47777e-06
0.000681113
2.4184e-06
0.000681635
2.36081e-06
0.000682145
2.30541e-06
0.000682642
2.24884e-06
0.000683129
2.18466e-06
0.000683606
2.10508e-06
0.000684069
2.00254e-06
0.000684515
1.87153e-06
0.00068494
1.70909e-06
0.00068534
1.515e-06
0.000685709
1.29122e-06
0.000686047
1.04101e-06
0.000686348
7.68196e-07
0.000686616
4.76445e-07
0.00068685
1.68541e-07
0.000687062
-1.56334e-07
0.000687238
-4.94118e-07
0.000687391
-8.44218e-07
0.000687517
-1.2065e-06
0.000687628
-1.58356e-06
0.000687717
-1.97517e-06
0.000687803
-2.38608e-06
0.000687868
-2.81553e-06
0.000687942
-3.27075e-06
0.000687996
-3.74926e-06
0.000688073
-4.2628e-06
0.000688125
-4.80367e-06
0.00068822
-5.39179e-06
0.000688279
-6.01132e-06
-6.68987e-06
0.000688406
0.000666688
7.6099e-08
0.000666752
2.28316e-07
0.000666859
3.79962e-07
0.000667007
5.29325e-07
0.000667196
6.75455e-07
0.000667424
8.17454e-07
0.000667689
9.54574e-07
0.00066799
1.08618e-06
0.000668324
1.21161e-06
0.000668688
1.33017e-06
0.000669081
1.44139e-06
0.0006695
1.54508e-06
0.000669942
1.64102e-06
0.000670406
1.72878e-06
0.000670888
1.80784e-06
0.000671386
1.87806e-06
0.000671898
1.93977e-06
0.000672421
1.99331e-06
0.000672954
2.0384e-06
0.000673494
2.07433e-06
0.000674039
2.10073e-06
0.000674586
2.11808e-06
0.000675134
2.12762e-06
0.00067568
2.13044e-06
0.000676224
2.12659e-06
0.000676764
2.11482e-06
0.000677297
2.0935e-06
0.000677821
2.06201e-06
0.000678335
2.02194e-06
0.000678836
1.97653e-06
0.000679325
1.92971e-06
0.000679802
1.88379e-06
0.000680268
1.83882e-06
0.000680726
1.79142e-06
0.000681174
1.73644e-06
0.000681612
1.66708e-06
0.000682036
1.57785e-06
0.000682444
1.46374e-06
0.00068283
1.32334e-06
0.00068319
1.15537e-06
0.000683518
9.62746e-07
0.000683813
7.46113e-07
0.00068407
5.10794e-07
0.00068429
2.56697e-07
0.000684469
-1.0214e-08
0.000684612
-2.99499e-07
0.000684715
-5.96793e-07
0.000684783
-9.12224e-07
0.000684812
-1.23603e-06
0.000684811
-1.58272e-06
0.000684773
-1.93684e-06
0.000684709
-2.32242e-06
0.000684608
-2.71379e-06
0.000684487
-3.14971e-06
0.000684325
-3.58728e-06
0.00068415
-4.08851e-06
0.000683929
-4.58271e-06
0.000683706
-5.16869e-06
0.000683424
-5.72903e-06
-6.42258e-06
0.000683157
0.000666685
5.77991e-08
0.00066674
1.73358e-07
0.000666831
2.88499e-07
0.000666959
4.0197e-07
0.000667121
5.13089e-07
0.000667317
6.21206e-07
0.000667546
7.25784e-07
0.000667806
8.26358e-07
0.000668095
9.22415e-07
0.000668412
1.01343e-06
0.000668754
1.09904e-06
0.00066912
1.17906e-06
0.000669508
1.25331e-06
0.000669915
1.32141e-06
0.00067034
1.38294e-06
0.000670781
1.43776e-06
0.000671234
1.48613e-06
0.000671699
1.52826e-06
0.000672174
1.5639e-06
0.000672656
1.59245e-06
0.000673143
1.61364e-06
0.000673633
1.62788e-06
0.000674124
1.63613e-06
0.000674616
1.63914e-06
0.000675105
1.63686e-06
0.000675592
1.62821e-06
0.000676074
1.61196e-06
0.000676548
1.58766e-06
0.000677013
1.55672e-06
0.000677468
1.52158e-06
0.000677913
1.48527e-06
0.000678347
1.4492e-06
0.000678773
1.41328e-06
0.00067919
1.37442e-06
0.000679597
1.32868e-06
0.000679994
1.27038e-06
0.000680376
1.1957e-06
0.00068074
1.10031e-06
0.000681079
9.83847e-07
0.00068139
8.44538e-07
0.000681667
6.85659e-07
0.000681907
5.06293e-07
0.000682106
3.12144e-07
0.000682261
1.00958e-07
0.000682375
-1.23892e-07
0.000682442
-3.6623e-07
0.000682461
-6.15754e-07
0.000682434
-8.85048e-07
0.000682357
-1.1594e-06
0.000682234
-1.4598e-06
0.00068206
-1.76248e-06
0.000681839
-2.10163e-06
0.000681563
-2.43824e-06
0.000681241
-2.82741e-06
0.000680858
-3.20475e-06
0.000680429
-3.65924e-06
0.000679931
-4.08475e-06
0.000679387
-4.62446e-06
0.000678762
-5.10446e-06
-5.75417e-06
0.000678094
0.000666683
4.16518e-08
0.000666731
1.249e-07
0.000666812
2.07853e-07
0.000666924
2.89631e-07
0.000667068
3.69762e-07
0.000667241
4.47794e-07
0.000667443
5.23355e-07
0.000667674
5.96115e-07
0.00066793
6.65707e-07
0.000668212
7.31748e-07
0.000668517
7.93974e-07
0.000668844
8.5225e-07
0.000669191
9.06422e-07
0.000669556
9.56195e-07
0.000669938
1.00125e-06
0.000670334
1.0415e-06
0.000670743
1.07711e-06
0.000671163
1.10822e-06
0.000671592
1.1346e-06
0.000672029
1.15583e-06
0.000672471
1.17168e-06
0.000672916
1.18247e-06
0.000673364
1.18889e-06
0.000673811
1.19144e-06
0.000674258
1.19002e-06
0.000674703
1.18379e-06
0.000675143
1.17188e-06
0.000675576
1.15401e-06
0.000676002
1.13126e-06
0.000676418
1.10536e-06
0.000676825
1.07851e-06
0.000677222
1.0515e-06
0.000677611
1.02419e-06
0.000677992
9.94042e-07
0.000678362
9.58256e-07
0.00067872
9.12459e-07
0.000679062
8.54128e-07
0.000679382
7.79812e-07
0.000679676
6.89708e-07
0.000679939
5.81967e-07
0.000680165
4.59634e-07
0.00068035
3.21128e-07
0.000680491
1.71622e-07
0.000680583
8.5105e-09
0.000680626
-1.67057e-07
0.000680616
-3.56225e-07
0.000680551
-5.50575e-07
0.000680429
-7.63139e-07
0.000680248
-9.78432e-07
0.000680007
-1.21816e-06
0.000679701
-1.4572e-06
0.000679331
-1.73085e-06
0.00067889
-1.99788e-06
0.000678378
-2.31534e-06
0.000677789
-2.61536e-06
0.00067712
-2.99027e-06
0.000676363
-3.32835e-06
0.000675518
-3.77905e-06
0.000674572
-4.15846e-06
-4.7083e-06
0.000673526
0.000666681
2.69901e-08
0.000666725
8.09228e-08
0.000666798
1.34666e-07
0.0006669
1.87659e-07
0.000667031
2.39602e-07
0.000667188
2.90212e-07
0.000667372
3.39252e-07
0.000667582
3.86511e-07
0.000667816
4.3175e-07
0.000668073
4.74724e-07
0.000668352
5.15262e-07
0.000668651
5.53272e-07
0.000668968
5.88644e-07
0.000669303
6.21181e-07
0.000669654
6.50679e-07
0.000670018
6.77076e-07
0.000670395
7.00477e-07
0.000670782
7.20944e-07
0.000671179
7.38323e-07
0.000671582
7.52327e-07
0.000671991
7.62834e-07
0.000672403
7.70044e-07
0.000672818
7.74385e-07
0.000673233
7.76143e-07
0.000673648
7.75237e-07
0.000674061
7.71112e-07
0.000674469
7.63241e-07
0.000674872
7.51446e-07
0.000675267
7.3646e-07
0.000675653
7.19349e-07
0.00067603
7.01499e-07
0.000676398
6.83301e-07
0.000676757
6.64649e-07
0.000677108
6.43776e-07
0.000677447
6.18934e-07
0.000677772
5.87181e-07
0.000678079
5.47028e-07
0.000678363
4.96068e-07
0.000678618
4.34656e-07
0.000678839
3.61274e-07
0.00067902
2.78252e-07
0.000679157
1.84066e-07
0.000679246
8.26398e-08
0.000679285
-2.99842e-08
0.000679267
-1.48975e-07
0.000679189
-2.7897e-07
0.000679051
-4.12215e-07
0.000678847
-5.59281e-07
0.000678576
-7.07598e-07
0.000678233
-8.74692e-07
0.000677816
-1.04007e-06
0.000677317
-1.23225e-06
0.000676737
-1.41758e-06
0.000676064
-1.64222e-06
0.000675299
-1.85077e-06
0.000674427
-2.11814e-06
0.000673452
-2.35307e-06
0.00067235
-2.67719e-06
0.000671131
-2.94002e-06
-3.33916e-06
0.000669762
0.00066668
1.32645e-08
0.000666722
3.97668e-08
0.00066679
6.61761e-08
0.000666885
9.22186e-08
0.000667007
1.1775e-07
0.000667155
1.42634e-07
0.000667327
1.66754e-07
0.000667524
1.90006e-07
0.000667743
2.12272e-07
0.000667985
2.33437e-07
0.000668247
2.53419e-07
0.000668528
2.72164e-07
0.000668827
2.89611e-07
0.000669142
3.05668e-07
0.000669473
3.20244e-07
0.000669816
3.33308e-07
0.000670172
3.44894e-07
0.000670538
3.55016e-07
0.000670913
3.636e-07
0.000671294
3.70527e-07
0.000671681
3.75755e-07
0.000672072
3.79369e-07
0.000672465
3.81544e-07
0.000672859
3.82386e-07
0.000673252
3.81859e-07
0.000673644
3.79724e-07
0.000674031
3.75774e-07
0.000674413
3.69937e-07
0.000674786
3.62549e-07
0.000675152
3.54054e-07
0.000675508
3.45062e-07
0.000675856
3.35701e-07
0.000676194
3.25931e-07
0.000676523
3.14904e-07
0.00067684
3.01859e-07
0.000677142
2.85377e-07
0.000677424
2.64815e-07
0.000677682
2.38939e-07
0.000677908
2.07973e-07
0.000678098
1.71026e-07
0.000678247
1.29318e-07
0.00067835
8.18928e-08
0.000678401
3.08531e-08
0.000678398
-2.63269e-08
0.000678335
-8.6445e-08
0.000678209
-1.52535e-07
0.000678017
-2.2023e-07
0.000677753
-2.95394e-07
0.000677416
-3.71026e-07
0.000676998
-4.56843e-07
0.0006765
-5.41417e-07
0.000675908
-6.40564e-07
0.000675226
-7.35524e-07
0.000674436
-8.51937e-07
0.000673544
-9.58901e-07
0.000672524
-1.0981e-06
0.000671389
-1.21857e-06
0.0006701
-1.38816e-06
0.000668683
-1.52268e-06
-1.73268e-06
0.000667077
0.00066668
-7.98595e-12
0.00066672
-2.44092e-11
0.000666786
-4.08073e-11
0.000666878
-5.94734e-11
0.000666996
-7.87395e-11
0.000667139
-9.48599e-11
0.000667306
-1.10812e-10
0.000667496
-1.33306e-10
0.000667708
-1.59648e-10
0.000667942
-1.78884e-10
0.000668195
-1.90277e-10
0.000668468
-2.09356e-10
0.000668758
-2.46473e-10
0.000669064
-2.8718e-10
0.000669384
-3.07421e-10
0.000669718
-3.08278e-10
0.000670063
-3.22778e-10
0.000670418
-3.78864e-10
0.000670782
-4.60282e-10
0.000671154
-5.15328e-10
0.00067153
-5.10917e-10
0.00067191
-4.76559e-10
0.000672292
-4.88351e-10
0.000672675
-6.02779e-10
0.000673057
-7.97851e-10
0.000673438
-9.77356e-10
0.000673815
-1.03662e-09
0.000674186
-9.44377e-10
0.000674549
-7.78638e-10
0.000674904
-6.94449e-10
0.00067525
-8.45119e-10
0.000675587
-1.30277e-09
0.000675915
-2.0225e-09
0.000676232
-2.86032e-09
0.000676538
-3.62861e-09
0.000676827
-4.16309e-09
0.000677097
-4.36649e-09
0.00067734
-4.22527e-09
0.000677552
-3.79651e-09
0.000677726
-3.17861e-09
0.000677858
-2.47987e-09
0.000677941
-1.79365e-09
0.000677973
-1.18599e-09
0.000677948
-6.94185e-10
0.000677862
-3.22055e-10
0.000677709
-6.3846e-11
0.000677489
9.81635e-11
0.000677193
1.85036e-10
0.000676822
2.17239e-10
0.000676365
2.11752e-10
0.000675823
1.81369e-10
0.000675183
1.35131e-10
0.000674447
8.06735e-11
0.000673595
2.11136e-11
0.000672636
-4.26151e-11
0.000671538
-1.08025e-10
0.00067032
-1.74215e-10
0.000668932
-2.42879e-10
0.000667409
-3.14275e-10
-3.88551e-10
0.000665677
0.00066668
-1.32804e-08
0.00066672
-3.98153e-08
0.000666786
-6.62573e-08
0.000666878
-9.2337e-08
0.000666996
-1.17906e-07
0.000667139
-1.42822e-07
0.000667306
-1.66975e-07
0.000667496
-1.90271e-07
0.000667708
-2.12589e-07
0.000667942
-2.33793e-07
0.000668195
-2.53798e-07
0.000668468
-2.72581e-07
0.000668758
-2.90102e-07
0.000669064
-3.0624e-07
0.000669384
-3.20856e-07
0.000669718
-3.33921e-07
0.000670063
-3.45536e-07
0.000670418
-3.55769e-07
0.000670782
-3.64515e-07
0.000671153
-3.71552e-07
0.00067153
-3.76771e-07
0.00067191
-3.80317e-07
0.000672292
-3.82516e-07
0.000672675
-3.83586e-07
0.000673057
-3.83446e-07
0.000673438
-3.81667e-07
0.000673815
-3.77835e-07
0.000674186
-3.71816e-07
0.000674549
-3.64099e-07
0.000674904
-3.55436e-07
0.00067525
-3.46743e-07
0.000675587
-3.38289e-07
0.000675914
-3.29949e-07
0.000676232
-3.20587e-07
0.000676538
-3.09068e-07
0.000676827
-2.93651e-07
0.000677096
-2.73495e-07
0.000677339
-2.47341e-07
0.000677551
-2.15525e-07
0.000677725
-1.77352e-07
0.000677857
-1.34256e-07
0.000677941
-8.54663e-08
0.000677973
-3.32089e-08
0.000677947
2.4928e-08
0.000677861
8.57974e-08
0.000677709
1.52403e-07
0.000677488
2.20421e-07
0.000677193
2.95757e-07
0.000676821
3.71454e-07
0.000676364
4.57259e-07
0.000675823
5.41774e-07
0.000675182
6.40828e-07
0.000674446
7.3568e-07
0.000673595
8.51972e-07
0.000672636
9.5881e-07
0.000671538
1.09788e-06
0.000670319
1.21822e-06
0.000668931
1.38767e-06
0.000667409
1.52205e-06
1.7319e-06
0.000665677
0.00066668
-2.70058e-08
0.000666722
-8.09707e-08
0.00066679
-1.34746e-07
0.000666885
-1.87775e-07
0.000667007
-2.39757e-07
0.000667155
-2.90398e-07
0.000667327
-3.3947e-07
0.000667524
-3.86773e-07
0.000667743
-4.32063e-07
0.000667985
-4.75075e-07
0.000668246
-5.15636e-07
0.000668528
-5.53683e-07
0.000668827
-5.89127e-07
0.000669142
-6.21745e-07
0.000669473
-6.51282e-07
0.000669816
-6.77682e-07
0.000670172
-7.01111e-07
0.000670538
-7.21687e-07
0.000670913
-7.39225e-07
0.000671294
-7.53336e-07
0.000671681
-7.63835e-07
0.000672072
-7.70977e-07
0.000672465
-7.7534e-07
0.000672859
-7.7732e-07
0.000673252
-7.76794e-07
0.000673643
-7.7302e-07
0.000674031
-7.65267e-07
0.000674412
-7.53295e-07
0.000674786
-7.37985e-07
0.000675151
-7.20707e-07
0.000675508
-7.03145e-07
0.000675855
-6.85834e-07
0.000676194
-6.68582e-07
0.000676523
-6.49343e-07
0.00067684
-6.26005e-07
0.000677141
-5.95303e-07
0.000677423
-5.55557e-07
0.00067768
-5.04331e-07
0.000677907
-4.42091e-07
0.000678097
-3.67508e-07
0.000678246
-2.83123e-07
0.000678348
-1.876e-07
0.0006784
-8.49826e-08
0.000678396
2.85876e-08
0.000678334
1.48323e-07
0.000678207
2.78826e-07
0.000678015
4.12391e-07
0.000677751
5.59627e-07
0.000677415
7.08007e-07
0.000676997
8.75089e-07
0.000676498
1.04041e-06
0.000675907
1.23249e-06
0.000675225
1.41772e-06
0.000674434
1.64223e-06
0.000673543
1.85066e-06
0.000672523
2.1179e-06
0.000671388
2.3527e-06
0.000670099
2.67668e-06
0.000668682
2.93937e-06
3.33838e-06
0.000667075
0.000666681
-4.16671e-08
0.000666725
-1.24947e-07
0.000666798
-2.07931e-07
0.0006669
-2.89745e-07
0.000667031
-3.69913e-07
0.000667188
-4.47976e-07
0.000667372
-5.23567e-07
0.000667582
-5.96371e-07
0.000667816
-6.66013e-07
0.000668073
-7.32091e-07
0.000668352
-7.94338e-07
0.000668651
-8.52651e-07
0.000668968
-9.06893e-07
0.000669303
-9.56744e-07
0.000669654
-1.00184e-06
0.000670018
-1.04209e-06
0.000670395
-1.07773e-06
0.000670782
-1.10894e-06
0.000671178
-1.13548e-06
0.000671582
-1.15681e-06
0.000671991
-1.17266e-06
0.000672403
-1.18339e-06
0.000672818
-1.18983e-06
0.000673233
-1.19259e-06
0.000673648
-1.19153e-06
0.00067406
-1.18564e-06
0.000674469
-1.17385e-06
0.000674871
-1.15581e-06
0.000675266
-1.13274e-06
0.000675652
-1.10668e-06
0.000676029
-1.0801e-06
0.000676397
-1.05394e-06
0.000676756
-1.02798e-06
0.000677107
-9.99415e-07
0.000677446
-9.65093e-07
0.000677771
-9.20326e-07
0.000678078
-8.62404e-07
0.000678361
-7.87844e-07
0.000678616
-6.96948e-07
0.000678836
-5.8805e-07
0.000679018
-4.64396e-07
0.000679155
-3.24589e-07
0.000679244
-1.73916e-07
0.000679282
-9.95074e-09
0.000679264
1.66405e-07
0.000679187
3.56064e-07
0.000679049
5.50727e-07
0.000678845
7.63455e-07
0.000678574
9.78811e-07
0.00067823
1.21853e-06
0.000677813
1.4575e-06
0.000677315
1.73106e-06
0.000676735
1.99799e-06
0.000676061
2.31533e-06
0.000675297
2.61522e-06
0.000674425
2.99e-06
0.00067345
3.32795e-06
0.000672348
3.77851e-06
0.000671129
4.15779e-06
4.70748e-06
0.00066976
0.000666683
-5.7814e-08
0.000666731
-1.73403e-07
0.000666812
-2.88575e-07
0.000666924
-4.0208e-07
0.000667068
-5.13235e-07
0.000667241
-6.21382e-07
0.000667443
-7.2599e-07
0.000667674
-8.26605e-07
0.00066793
-9.22711e-07
0.000668212
-1.01376e-06
0.000668517
-1.09939e-06
0.000668844
-1.17945e-06
0.000669191
-1.25377e-06
0.000669556
-1.32195e-06
0.000669938
-1.38351e-06
0.000670334
-1.43833e-06
0.000670743
-1.48673e-06
0.000671163
-1.52896e-06
0.000671592
-1.56474e-06
0.000672029
-1.5934e-06
0.000672471
-1.61459e-06
0.000672916
-1.62876e-06
0.000673363
-1.63702e-06
0.000673811
-1.64023e-06
0.000674258
-1.6383e-06
0.000674702
-1.62998e-06
0.000675142
-1.61385e-06
0.000675576
-1.5894e-06
0.000676001
-1.55815e-06
0.000676417
-1.52284e-06
0.000676824
-1.48677e-06
0.000677221
-1.45151e-06
0.00067761
-1.41688e-06
0.00067799
-1.37953e-06
0.00067836
-1.33519e-06
0.000678718
-1.2779e-06
0.000679059
-1.20363e-06
0.000679379
-1.10802e-06
0.000679673
-9.90817e-07
0.000679936
-8.50412e-07
0.000680162
-6.90275e-07
0.000680347
-5.09668e-07
0.000680487
-3.1441e-07
0.000680579
-1.02319e-07
0.000680623
1.2322e-07
0.000680613
3.66041e-07
0.000680548
6.15871e-07
0.000680426
8.85323e-07
0.000680245
1.15974e-06
0.000680003
1.46012e-06
0.000679698
1.76275e-06
0.000679327
2.1018e-06
0.000678887
2.43831e-06
0.000678375
2.82735e-06
0.000677785
3.20457e-06
0.000677117
3.65892e-06
0.00067636
4.08431e-06
0.000675515
4.62388e-06
0.000674569
5.10375e-06
5.75331e-06
0.000673523
0.000666685
-7.61132e-08
0.00066674
-2.28359e-07
0.000666831
-3.80035e-07
0.000666959
-5.2943e-07
0.000667121
-6.75595e-07
0.000667317
-8.17623e-07
0.000667546
-9.5477e-07
0.000667806
-1.08642e-06
0.000668095
-1.21189e-06
0.000668412
-1.33048e-06
0.000668754
-1.44173e-06
0.00066912
-1.54545e-06
0.000669508
-1.64145e-06
0.000669915
-1.72928e-06
0.00067034
-1.80838e-06
0.00067078
-1.8786e-06
0.000671234
-1.94034e-06
0.000671699
-1.99398e-06
0.000672173
-2.03921e-06
0.000672655
-2.07524e-06
0.000673142
-2.10162e-06
0.000673632
-2.11891e-06
0.000674124
-2.12847e-06
0.000674615
-2.13147e-06
0.000675105
-2.12796e-06
0.000675591
-2.1165e-06
0.000676073
-2.09529e-06
0.000676547
-2.06366e-06
0.000677012
-2.0233e-06
0.000677467
-1.97772e-06
0.000677911
-1.93112e-06
0.000678346
-1.88594e-06
0.000678771
-1.84217e-06
0.000679188
-1.79619e-06
0.000679595
-1.74255e-06
0.000679991
-1.67416e-06
0.000680373
-1.58534e-06
0.000680736
-1.47105e-06
0.000681075
-1.32996e-06
0.000681386
-1.16097e-06
0.000681663
-9.67164e-07
0.000681902
-7.49357e-07
0.000682101
-5.12979e-07
0.000682257
-2.58024e-07
0.00068237
9.5174e-09
0.000682437
2.99287e-07
0.000682456
5.96875e-07
0.000682429
9.12456e-07
0.000682352
1.23632e-06
0.00068223
1.583e-06
0.000682055
1.93707e-06
0.000681835
2.32255e-06
0.000681559
2.71382e-06
0.000681237
3.14961e-06
0.000680854
3.58706e-06
0.000680425
4.08816e-06
0.000679927
4.58223e-06
0.000679383
5.16806e-06
0.000678758
5.72827e-06
6.42167e-06
0.00067809
0.000666688
-9.74295e-08
0.000666752
-2.92438e-07