/*--------------------------------*- C++ -*----------------------------------*\
| =========                 |                                                 |
| \\      /  F ield         | OpenFOAM: The Open Source CFD Toolbox           |
|  \\    /   O peration     | Version:  2312                                  |
|   \\  /    A nd           | Website:  www.openfoam.com                      |
|    \\/     M anipulation  |                                                 |
\*---------------------------------------------------------------------------*/
FoamFile
{
    version     2.0;
    format      ascii;
    arch        "LSB;label=32;scalar=64";
    class       volVectorField;
    location    "159000";
    object      U;
}
// * * * * * * * * * * * * * * * * * * * * * * * * * * * * * * * * * * * * * //

dimensions      [0 1 -1 0 0 0 0];

internalField   nonuniform List<vector> 
2685
(
(7.27723e-05 -3.63712e-06 0)
(7.23313e-05 -3.47911e-06 0)
(7.14291e-05 -3.2459e-06 0)
(7.01364e-05 -2.95135e-06 0)
(6.85204e-05 -2.5964e-06 0)
(6.66414e-05 -2.18077e-06 0)
(6.45527e-05 -1.70813e-06 0)
(6.22993e-05 -1.18597e-06 0)
(5.99194e-05 -6.24829e-07 0)
(5.74437e-05 -3.75584e-08 0)
(5.48965e-05 5.61809e-07 0)
(5.22955e-05 1.1581e-06 0)
(4.96526e-05 1.73573e-06 0)
(4.69766e-05 2.27867e-06 0)
(4.42756e-05 2.77079e-06 0)
(4.15609e-05 3.19663e-06 0)
(3.88494e-05 3.54228e-06 0)
(3.61595e-05 3.79758e-06 0)
(3.35145e-05 3.96243e-06 0)
(3.09625e-05 4.04642e-06 0)
(2.8566e-05 4.05634e-06 0)
(2.63769e-05 4.00051e-06 0)
(2.44372e-05 3.8841e-06 0)
(2.27802e-05 3.71121e-06 0)
(2.1429e-05 3.486e-06 0)
(2.03973e-05 3.21219e-06 0)
(1.96879e-05 2.89255e-06 0)
(1.92913e-05 2.52764e-06 0)
(1.91966e-05 2.12726e-06 0)
(1.93592e-05 1.70609e-06 0)
(1.9746e-05 1.29273e-06 0)
(2.03292e-05 9.05998e-07 0)
(2.10795e-05 5.5652e-07 0)
(2.19617e-05 2.49762e-07 0)
(2.29379e-05 -7.92338e-09 0)
(2.39746e-05 -2.12057e-07 0)
(2.50378e-05 -3.60702e-07 0)
(2.60955e-05 -4.5391e-07 0)
(2.71217e-05 -4.94279e-07 0)
(2.8096e-05 -4.89104e-07 0)
(2.89949e-05 -4.51057e-07 0)
(2.97937e-05 -3.89318e-07 0)
(3.04776e-05 -3.09667e-07 0)
(3.1038e-05 -2.15992e-07 0)
(3.14711e-05 -1.11375e-07 0)
(3.17764e-05 1.6746e-09 0)
(3.19555e-05 1.21268e-07 0)
(3.20086e-05 2.46731e-07 0)
(3.19515e-05 3.80768e-07 0)
(3.18012e-05 5.15605e-07 0)
(3.15638e-05 6.46178e-07 0)
(3.12501e-05 7.68458e-07 0)
(3.08724e-05 8.79115e-07 0)
(3.04445e-05 9.75399e-07 0)
(2.99817e-05 1.0551e-06 0)
(2.95002e-05 1.11641e-06 0)
(2.90168e-05 1.15783e-06 0)
(2.85486e-05 1.17846e-06 0)
(2.81129e-05 1.17856e-06 0)
(2.77286e-05 1.15928e-06 0)
(2.74161e-05 1.12114e-06 0)
(2.71942e-05 1.06445e-06 0)
(2.70812e-05 9.89362e-07 0)
(2.70898e-05 8.95378e-07 0)
(2.723e-05 7.8487e-07 0)
(2.75128e-05 6.60856e-07 0)
(2.79479e-05 5.25776e-07 0)
(2.85422e-05 3.82201e-07 0)
(2.93005e-05 2.32458e-07 0)
(3.02246e-05 7.91305e-08 0)
(3.1315e-05 -7.56119e-08 0)
(3.25688e-05 -2.29225e-07 0)
(3.39827e-05 -3.79841e-07 0)
(3.55494e-05 -5.24976e-07 0)
(3.72629e-05 -6.63188e-07 0)
(3.91117e-05 -7.91956e-07 0)
(4.1088e-05 -9.10348e-07 0)
(4.31765e-05 -1.01559e-06 0)
(4.53687e-05 -1.10742e-06 0)
(4.76448e-05 -1.18251e-06 0)
(4.99984e-05 -1.24191e-06 0)
(5.24021e-05 -1.28136e-06 0)
(5.48562e-05 -1.30533e-06 0)
(5.73173e-05 -1.30704e-06 0)
(5.98044e-05 -1.3001e-06 0)
(6.2236e-05 -1.26568e-06 0)
(6.46911e-05 -1.24053e-06 0)
(6.69844e-05 -1.13205e-06 0)
(6.98309e-05 -1.21024e-06 0)
(0.000202975 4.35871e-06 0)
(0.000200936 6.5409e-06 0)
(0.000198587 8.2887e-06 0)
(0.000195991 9.65189e-06 0)
(0.000193238 1.06616e-05 0)
(0.000190377 1.135e-05 0)
(0.00018744 1.17538e-05 0)
(0.000184453 1.19119e-05 0)
(0.000181438 1.18656e-05 0)
(0.000178415 1.16572e-05 0)
(0.000175402 1.13301e-05 0)
(0.000172412 1.09266e-05 0)
(0.000169453 1.04841e-05 0)
(0.000166534 1.00285e-05 0)
(0.000163663 9.56942e-06 0)
(0.000160855 9.09845e-06 0)
(0.000158136 8.5932e-06 0)
(0.000155548 8.02607e-06 0)
(0.000153154 7.37431e-06 0)
(0.000151004 6.61748e-06 0)
(0.00014914 5.74284e-06 0)
(0.000147593 4.75742e-06 0)
(0.000146379 3.68523e-06 0)
(0.000145511 2.55968e-06 0)
(0.000144994 1.42309e-06 0)
(0.000144827 3.19421e-07 0)
(0.000144985 -6.95018e-07 0)
(0.000145485 -1.59622e-06 0)
(0.00014633 -2.38216e-06 0)
(0.00014749 -3.06252e-06 0)
(0.000148942 -3.62931e-06 0)
(0.000150627 -4.07253e-06 0)
(0.00015249 -4.38944e-06 0)
(0.000154484 -4.58393e-06 0)
(0.000156565 -4.66098e-06 0)
(0.00015869 -4.62691e-06 0)
(0.000160819 -4.49062e-06 0)
(0.000162913 -4.26411e-06 0)
(0.000164932 -3.9623e-06 0)
(0.000166836 -3.60217e-06 0)
(0.000168603 -3.19742e-06 0)
(0.000170227 -2.75822e-06 0)
(0.000171711 -2.30034e-06 0)
(0.00017306 -1.83984e-06 0)
(0.000174277 -1.39036e-06 0)
(0.000175371 -9.62475e-07 0)
(0.000176352 -5.63742e-07 0)
(0.000177234 -1.9919e-07 0)
(0.000178024 1.29416e-07 0)
(0.000178727 4.16376e-07 0)
(0.000179363 6.57701e-07 0)
(0.000179947 8.49974e-07 0)
(0.0001805 9.90107e-07 0)
(0.000181038 1.07539e-06 0)
(0.000181582 1.10348e-06 0)
(0.00018215 1.07277e-06 0)
(0.000182762 9.82523e-07 0)
(0.00018344 8.32929e-07 0)
(0.000184207 6.24061e-07 0)
(0.000185079 3.56485e-07 0)
(0.000186076 3.22384e-08 0)
(0.000187212 -3.45055e-07 0)
(0.000188502 -7.71484e-07 0)
(0.000189959 -1.24239e-06 0)
(0.000191601 -1.75148e-06 0)
(0.000193435 -2.29065e-06 0)
(0.000195467 -2.85267e-06 0)
(0.000197699 -3.42905e-06 0)
(0.000200136 -4.01275e-06 0)
(0.000202773 -4.5952e-06 0)
(0.000205612 -5.17026e-06 0)
(0.000208641 -5.72969e-06 0)
(0.000211861 -6.26888e-06 0)
(0.000215252 -6.78001e-06 0)
(0.000218819 -7.26056e-06 0)
(0.00022253 -7.70262e-06 0)
(0.000226398 -8.10634e-06 0)
(0.000230375 -8.46256e-06 0)
(0.000234491 -8.77518e-06 0)
(0.000238674 -9.03144e-06 0)
(0.000242982 -9.24186e-06 0)
(0.000247294 -9.38476e-06 0)
(0.000251741 -9.48506e-06 0)
(0.000256078 -9.49909e-06 0)
(0.000260643 -9.47936e-06 0)
(0.000264816 -9.3501e-06 0)
(0.000269659 -9.15638e-06 0)
(0.000273086 -8.93277e-06 0)
(0.00027928 -8.28349e-06 0)
(0.000448081 5.21927e-06 0)
(0.000440776 6.39987e-06 0)
(0.00043395 7.27196e-06 0)
(0.000427656 7.94573e-06 0)
(0.00042183 8.5261e-06 0)
(0.000416468 9.07049e-06 0)
(0.000411576 9.60186e-06 0)
(0.000407159 1.01264e-05 0)
(0.000403219 1.06434e-05 0)
(0.000399757 1.11513e-05 0)
(0.00039677 1.16509e-05 0)
(0.000394239 1.21434e-05 0)
(0.000392123 1.2625e-05 0)
(0.000390351 1.30805e-05 0)
(0.000388835 1.34782e-05 0)
(0.000387488 1.37691e-05 0)
(0.000386244 1.38945e-05 0)
(0.000385072 1.37957e-05 0)
(0.000383955 1.34234e-05 0)
(0.000382908 1.27513e-05 0)
(0.000381994 1.17792e-05 0)
(0.000381299 1.05336e-05 0)
(0.000380885 9.06279e-06 0)
(0.000380797 7.41725e-06 0)
(0.000381034 5.64933e-06 0)
(0.000381668 3.8074e-06 0)
(0.000382598 1.91066e-06 0)
(0.000383772 9.05215e-09 0)
(0.000385128 -1.79544e-06 0)
(0.000386585 -3.41042e-06 0)
(0.000388115 -4.80845e-06 0)
(0.000389698 -5.99177e-06 0)
(0.000391306 -6.9634e-06 0)
(0.000392922 -7.7285e-06 0)
(0.000394535 -8.29295e-06 0)
(0.000396129 -8.66007e-06 0)
(0.000397681 -8.83445e-06 0)
(0.000399172 -8.82686e-06 0)
(0.000400588 -8.6541e-06 0)
(0.000401937 -8.33456e-06 0)
(0.000403227 -7.89279e-06 0)
(0.00040444 -7.36461e-06 0)
(0.000405555 -6.77751e-06 0)
(0.000406575 -6.15491e-06 0)
(0.000407513 -5.51807e-06 0)
(0.000408387 -4.88515e-06 0)
(0.000409213 -4.27184e-06 0)
(0.000410006 -3.69213e-06 0)
(0.000410779 -3.16084e-06 0)
(0.000411544 -2.68734e-06 0)
(0.000412312 -2.28211e-06 0)
(0.000413092 -1.95518e-06 0)
(0.000413896 -1.71649e-06 0)
(0.000414735 -1.57479e-06 0)
(0.000415623 -1.53794e-06 0)
(0.000416572 -1.61056e-06 0)
(0.000417597 -1.7956e-06 0)
(0.000418705 -2.09318e-06 0)
(0.00041991 -2.50221e-06 0)
(0.000421222 -3.01811e-06 0)
(0.000422665 -3.63574e-06 0)
(0.00042425 -4.34584e-06 0)
(0.000425996 -5.13887e-06 0)
(0.000427907 -6.00141e-06 0)
(0.000430002 -6.92336e-06 0)
(0.000432279 -7.89081e-06 0)
(0.000434758 -8.89299e-06 0)
(0.000437427 -9.9139e-06 0)
(0.000440308 -1.09436e-05 0)
(0.000443377 -1.19652e-05 0)
(0.000446663 -1.29715e-05 0)
(0.000450124 -1.39453e-05 0)
(0.000453801 -1.48839e-05 0)
(0.000457631 -1.57689e-05 0)
(0.000461675 -1.66031e-05 0)
(0.000465837 -1.73659e-05 0)
(0.000470217 -1.80661e-05 0)
(0.000474661 -1.86809e-05 0)
(0.000479345 -1.9222e-05 0)
(0.000484002 -1.96719e-05 0)
(0.000488969 -2.00306e-05 0)
(0.000493733 -2.03117e-05 0)
(0.000499003 -2.04582e-05 0)
(0.00050369 -2.0588e-05 0)
(0.000509397 -2.04657e-05 0)
(0.000513638 -2.04977e-05 0)
(0.000520201 -1.99998e-05 0)
(0.000523201 -2.00258e-05 0)
(0.000531676 -1.90387e-05 0)
(0.00081594 3.52652e-05 0)
(0.00081235 3.66475e-05 0)
(0.000808127 3.73307e-05 0)
(0.000803313 3.73999e-05 0)
(0.000798063 3.69382e-05 0)
(0.000792479 3.60084e-05 0)
(0.000786649 3.467e-05 0)
(0.000780667 3.29834e-05 0)
(0.000774623 3.10002e-05 0)
(0.000768602 2.87746e-05 0)
(0.000762682 2.63917e-05 0)
(0.000756936 2.39878e-05 0)
(0.000751432 2.17337e-05 0)
(0.000746229 1.97792e-05 0)
(0.000741376 1.81864e-05 0)
(0.00073691 1.68907e-05 0)
(0.000732847 1.57163e-05 0)
(0.000729206 1.44464e-05 0)
(0.00072604 1.291e-05 0)
(0.000723392 1.10442e-05 0)
(0.000721234 8.87955e-06 0)
(0.000719507 6.48616e-06 0)
(0.000718117 3.94516e-06 0)
(0.000716979 1.34886e-06 0)
(0.000715975 -1.21127e-06 0)
(0.000715046 -3.66099e-06 0)
(0.000714064 -5.93315e-06 0)
(0.000713036 -7.92704e-06 0)
(0.000711999 -9.6084e-06 0)
(0.000710949 -1.09712e-05 0)
(0.000709847 -1.19975e-05 0)
(0.00070867 -1.27053e-05 0)
(0.000707446 -1.31574e-05 0)
(0.000706205 -1.33913e-05 0)
(0.000704967 -1.33919e-05 0)
(0.000703757 -1.31343e-05 0)
(0.000702593 -1.26161e-05 0)
(0.000701488 -1.18601e-05 0)
(0.000700449 -1.09038e-05 0)
(0.000699458 -9.80005e-06 0)
(0.000698481 -8.62919e-06 0)
(0.000697546 -7.4706e-06 0)
(0.000696715 -6.38654e-06 0)
(0.00069602 -5.4174e-06 0)
(0.000695471 -4.58333e-06 0)
(0.000695071 -3.88817e-06 0)
(0.000694818 -3.32553e-06 0)
(0.0006947 -2.88336e-06 0)
(0.000694705 -2.55007e-06 0)
(0.000694817 -2.31617e-06 0)
(0.000695022 -2.1771e-06 0)
(0.000695304 -2.13072e-06 0)
(0.000695655 -2.17914e-06 0)
(0.000696064 -2.32568e-06 0)
(0.000696536 -2.57659e-06 0)
(0.000697068 -2.93519e-06 0)
(0.000697673 -3.41219e-06 0)
(0.000698355 -4.01124e-06 0)
(0.000699141 -4.73442e-06 0)
(0.00070003 -5.57467e-06 0)
(0.000701043 -6.53006e-06 0)
(0.000702174 -7.59155e-06 0)
(0.00070345 -8.75505e-06 0)
(0.000704857 -1.00047e-05 0)
(0.000706429 -1.13328e-05 0)
(0.000708144 -1.27186e-05 0)
(0.000710043 -1.41531e-05 0)
(0.000712094 -1.56128e-05 0)
(0.000714348 -1.70882e-05 0)
(0.000716751 -1.85559e-05 0)
(0.000719377 -2.00048e-05 0)
(0.000722139 -2.14176e-05 0)
(0.00072515 -2.27781e-05 0)
(0.000728266 -2.40838e-05 0)
(0.000731675 -2.53042e-05 0)
(0.000735128 -2.64646e-05 0)
(0.000738949 -2.75011e-05 0)
(0.000742697 -2.84905e-05 0)
(0.000746954 -2.9302e-05 0)
(0.000750923 -3.01063e-05 0)
(0.000755666 -3.06482e-05 0)
(0.000759721 -3.12665e-05 0)
(0.000765049 -3.1486e-05 0)
(0.000768956 -3.19356e-05 0)
(0.000775078 -3.17759e-05 0)
(0.00077844 -3.209e-05 0)
(0.000785752 -3.1515e-05 0)
(0.000787919 -3.17108e-05 0)
(0.000797097 -3.07842e-05 0)
(0.00101874 2.21641e-05 0)
(0.00102313 2.45565e-05 0)
(0.00102781 2.66311e-05 0)
(0.00103279 2.84335e-05 0)
(0.00103798 2.99556e-05 0)
(0.00104324 3.11916e-05 0)
(0.00104848 3.2139e-05 0)
(0.00105368 3.27997e-05 0)
(0.00105879 3.31859e-05 0)
(0.00106379 3.3307e-05 0)
(0.00106867 3.31768e-05 0)
(0.00107342 3.28167e-05 0)
(0.00107805 3.2243e-05 0)
(0.00108262 3.14696e-05 0)
(0.00108719 3.05188e-05 0)
(0.00109184 2.94092e-05 0)
(0.00109659 2.81204e-05 0)
(0.00110144 2.65947e-05 0)
(0.0011063 2.47966e-05 0)
(0.00111106 2.27511e-05 0)
(0.00111554 2.05238e-05 0)
(0.00111958 1.81635e-05 0)
(0.00112311 1.57197e-05 0)
(0.00112605 1.3294e-05 0)
(0.00112828 1.09974e-05 0)
(0.00112974 8.90606e-06 0)
(0.00113038 7.06475e-06 0)
(0.0011301 5.46915e-06 0)
(0.00112878 4.11349e-06 0)
(0.00112634 2.99517e-06 0)
(0.00112279 2.08755e-06 0)
(0.00111808 1.33214e-06 0)
(0.00111216 6.39437e-07 0)
(0.00110504 -5.30692e-08 0)
(0.00109681 -7.32445e-07 0)
(0.00108758 -1.37549e-06 0)
(0.0010775 -1.96029e-06 0)
(0.00106678 -2.48057e-06 0)
(0.00105568 -2.94821e-06 0)
(0.00104445 -3.37842e-06 0)
(0.00103332 -3.75804e-06 0)
(0.00102247 -4.05804e-06 0)
(0.00101208 -4.27777e-06 0)
(0.0010023 -4.43206e-06 0)
(0.00099328 -4.53282e-06 0)
(0.000985139 -4.582e-06 0)
(0.000977943 -4.58134e-06 0)
(0.000971714 -4.53274e-06 0)
(0.000966437 -4.44601e-06 0)
(0.000962055 -4.33465e-06 0)
(0.000958495 -4.22277e-06 0)
(0.000955664 -4.13589e-06 0)
(0.00095347 -4.10571e-06 0)
(0.00095182 -4.15625e-06 0)
(0.000950637 -4.31463e-06 0)
(0.000949836 -4.60019e-06 0)
(0.000949344 -5.02824e-06 0)
(0.000949101 -5.60306e-06 0)
(0.000949067 -6.33265e-06 0)
(0.000949195 -7.21623e-06 0)
(0.000949462 -8.25458e-06 0)
(0.000949827 -9.44287e-06 0)
(0.000950293 -1.07646e-05 0)
(0.000950823 -1.22097e-05 0)
(0.000951449 -1.37586e-05 0)
(0.00095212 -1.54042e-05 0)
(0.00095291 -1.71146e-05 0)
(0.000953734 -1.88932e-05 0)
(0.000954727 -2.0692e-05 0)
(0.000955738 -2.25328e-05 0)
(0.000956996 -2.4345e-05 0)
(0.00095824 -2.61813e-05 0)
(0.000959846 -2.79363e-05 0)
(0.000961372 -2.97116e-05 0)
(0.000963426 -3.13464e-05 0)
(0.000965277 -3.30177e-05 0)
(0.000967896 -3.44755e-05 0)
(0.000970091 -3.6011e-05 0)
(0.000973408 -3.72315e-05 0)
(0.00097592 -3.86023e-05 0)
(0.000980085 -3.95129e-05 0)
(0.000982813 -4.06907e-05 0)
(0.000988011 -4.12125e-05 0)
(0.000990744 -4.21712e-05 0)
(0.000997211 -4.22385e-05 0)
(0.00099959 -4.29473e-05 0)
(0.00100762 -4.25491e-05 0)
(0.00100912 -4.29551e-05 0)
(0.00101904 -4.22055e-05 0)
(0.00109098 1.4689e-05 0)
(0.00109744 1.53224e-05 0)
(0.0011047 1.57592e-05 0)
(0.00111257 1.59631e-05 0)
(0.00112094 1.58913e-05 0)
(0.00112979 1.55262e-05 0)
(0.0011391 1.48637e-05 0)
(0.00114891 1.38989e-05 0)
(0.00115918 1.26327e-05 0)
(0.00116987 1.10943e-05 0)
(0.00118097 9.33902e-06 0)
(0.00119249 7.43175e-06 0)
(0.00120441 5.43893e-06 0)
(0.00121675 3.42119e-06 0)
(0.00122949 1.43193e-06 0)
(0.00124262 -4.90694e-07 0)
(0.00125611 -2.33317e-06 0)
(0.00126992 -4.08956e-06 0)
(0.00128397 -5.73796e-06 0)
(0.00129815 -7.23941e-06 0)
(0.00131237 -8.53314e-06 0)
(0.00132653 -9.52219e-06 0)
(0.00134054 -1.01028e-05 0)
(0.0013543 -1.02078e-05 0)
(0.0013677 -9.79784e-06 0)
(0.00138057 -8.83074e-06 0)
(0.00139273 -7.27973e-06 0)
(0.001404 -5.15448e-06 0)
(0.00141422 -2.4628e-06 0)
(0.00142319 7.75575e-07 0)
(0.00143072 4.51172e-06 0)
(0.00143659 8.65459e-06 0)
(0.00144059 1.31005e-05 0)
(0.00144264 1.772e-05 0)
(0.00144263 2.23208e-05 0)
(0.00144037 2.67312e-05 0)
(0.00143578 3.07533e-05 0)
(0.00142879 3.42099e-05 0)
(0.00141939 3.69716e-05 0)
(0.00140768 3.89233e-05 0)
(0.00139389 3.99693e-05 0)
(0.00137829 4.00334e-05 0)
(0.00136121 3.90958e-05 0)
(0.00134302 3.72193e-05 0)
(0.00132416 3.45331e-05 0)
(0.00130507 3.12245e-05 0)
(0.00128613 2.7513e-05 0)
(0.0012677 2.3625e-05 0)
(0.00125007 1.97566e-05 0)
(0.00123347 1.60602e-05 0)
(0.00121808 1.26326e-05 0)
(0.00120401 9.52422e-06 0)
(0.00119131 6.74579e-06 0)
(0.00118 4.27895e-06 0)
(0.00117002 2.08944e-06 0)
(0.00116132 1.2567e-07 0)
(0.00115381 -1.6515e-06 0)
(0.00114734 -3.29794e-06 0)
(0.0011418 -4.84499e-06 0)
(0.00113704 -6.34951e-06 0)
(0.00113295 -7.82321e-06 0)
(0.00112939 -9.31898e-06 0)
(0.00112635 -1.08307e-05 0)
(0.00112362 -1.24171e-05 0)
(0.00112128 -1.40376e-05 0)
(0.00111907 -1.57605e-05 0)
(0.0011172 -1.75142e-05 0)
(0.00111532 -1.93881e-05 0)
(0.00111381 -2.12641e-05 0)
(0.00111217 -2.32599e-05 0)
(0.001111 -2.52244e-05 0)
(0.00110958 -2.73245e-05 0)
(0.00110882 -2.93491e-05 0)
(0.00110767 -3.15333e-05 0)
(0.00110747 -3.35776e-05 0)
(0.00110669 -3.58174e-05 0)
(0.00110726 -3.78225e-05 0)
(0.00110695 -4.00774e-05 0)
(0.00110854 -4.19595e-05 0)
(0.00110878 -4.41719e-05 0)
(0.00111167 -4.58234e-05 0)
(0.00111244 -4.79166e-05 0)
(0.00111691 -4.92204e-05 0)
(0.00111805 -5.10925e-05 0)
(0.00112434 -5.19535e-05 0)
(0.00112557 -5.3457e-05 0)
(0.00113389 -5.38546e-05 0)
(0.00113475 -5.47655e-05 0)
(0.00114517 -5.48327e-05 0)
(0.00111122 -2.4074e-06 0)
(0.00112001 -3.8925e-06 0)
(0.00112932 -5.28395e-06 0)
(0.00113897 -6.64671e-06 0)
(0.00114892 -8.01513e-06 0)
(0.00115914 -9.4367e-06 0)
(0.0011696 -1.09489e-05 0)
(0.00118028 -1.25865e-05 0)
(0.00119126 -1.43818e-05 0)
(0.00120263 -1.63414e-05 0)
(0.00121446 -1.84636e-05 0)
(0.00122679 -2.07476e-05 0)
(0.00123966 -2.31798e-05 0)
(0.00125311 -2.57332e-05 0)
(0.00126718 -2.83674e-05 0)
(0.00128189 -3.10358e-05 0)
(0.00129724 -3.36879e-05 0)
(0.00131324 -3.62689e-05 0)
(0.00132985 -3.87121e-05 0)
(0.00134705 -4.09396e-05 0)
(0.00136477 -4.28687e-05 0)
(0.00138294 -4.44071e-05 0)
(0.00140146 -4.5458e-05 0)
(0.00142021 -4.59265e-05 0)
(0.00143911 -4.57156e-05 0)
(0.00145807 -4.47321e-05 0)
(0.00147698 -4.28848e-05 0)
(0.00149571 -4.00879e-05 0)
(0.0015141 -3.62873e-05 0)
(0.00153195 -3.14526e-05 0)
(0.00154904 -2.55881e-05 0)
(0.00156516 -1.87373e-05 0)
(0.00158005 -1.09644e-05 0)
(0.00159329 -2.38085e-06 0)
(0.00160459 6.80924e-06 0)
(0.00161363 1.63723e-05 0)
(0.00162002 2.60828e-05 0)
(0.00162357 3.5705e-05 0)
(0.0016242 4.49641e-05 0)
(0.00162185 5.35031e-05 0)
(0.00161648 6.10234e-05 0)
(0.0016081 6.72683e-05 0)
(0.0015968 7.2042e-05 0)
(0.00158278 7.52316e-05 0)
(0.00156626 7.6813e-05 0)
(0.00154757 7.6848e-05 0)
(0.0015271 7.5475e-05 0)
(0.00150533 7.28761e-05 0)
(0.00148275 6.92576e-05 0)
(0.00145985 6.48146e-05 0)
(0.00143709 5.97452e-05 0)
(0.00141487 5.4224e-05 0)
(0.00139352 4.84438e-05 0)
(0.00137325 4.25632e-05 0)
(0.00135425 3.67629e-05 0)
(0.00133656 3.11572e-05 0)
(0.00132028 2.58727e-05 0)
(0.00130533 2.09352e-05 0)
(0.00129175 1.64106e-05 0)
(0.00127936 1.22476e-05 0)
(0.00126824 8.48134e-06 0)
(0.00125807 5.0135e-06 0)
(0.00124896 1.86208e-06 0)
(0.00124055 -1.10599e-06 0)
(0.00123303 -3.84316e-06 0)
(0.00122595 -6.49723e-06 0)
(0.00121964 -8.98791e-06 0)
(0.00121354 -1.14821e-05 0)
(0.00120821 -1.38746e-05 0)
(0.00120288 -1.63653e-05 0)
(0.00119836 -1.87869e-05 0)
(0.00119368 -2.13792e-05 0)
(0.00118997 -2.39107e-05 0)
(0.00118596 -2.67013e-05 0)
(0.00118322 -2.94094e-05 0)
(0.00118001 -3.24604e-05 0)
(0.00117848 -3.53488e-05 0)
(0.00117622 -3.86633e-05 0)
(0.00117622 -4.16576e-05 0)
(0.001175 -4.51567e-05 0)
(0.00117681 -4.80969e-05 0)
(0.00117658 -5.161e-05 0)
(0.00118043 -5.42828e-05 0)
(0.00118095 -5.75537e-05 0)
(0.00118705 -5.97626e-05 0)
(0.0011879 -6.24398e-05 0)
(0.00119639 -6.40922e-05 0)
(0.00119705 -6.57058e-05 0)
(0.00120791 -6.69551e-05 0)
(0.00114075 -2.34339e-05 0)
(0.00114839 -2.55302e-05 0)
(0.0011555 -2.67247e-05 0)
(0.0011621 -2.73678e-05 0)
(0.00116827 -2.79228e-05 0)
(0.00117415 -2.8788e-05 0)
(0.0011799 -3.0207e-05 0)
(0.00118567 -3.22603e-05 0)
(0.00119164 -3.4923e-05 0)
(0.00119796 -3.814e-05 0)
(0.00120473 -4.18333e-05 0)
(0.00121208 -4.59077e-05 0)
(0.00122016 -5.02656e-05 0)
(0.00122911 -5.48153e-05 0)
(0.00123905 -5.94703e-05 0)
(0.00125008 -6.415e-05 0)
(0.00126225 -6.87769e-05 0)
(0.00127561 -7.32733e-05 0)
(0.00129018 -7.75585e-05 0)
(0.00130594 -8.1546e-05 0)
(0.00132289 -8.51426e-05 0)
(0.00134101 -8.82424e-05 0)
(0.00136027 -9.07194e-05 0)
(0.00138065 -9.24246e-05 0)
(0.00140212 -9.32016e-05 0)
(0.00142461 -9.28917e-05 0)
(0.00144799 -9.13445e-05 0)
(0.00147213 -8.8419e-05 0)
(0.00149686 -8.39963e-05 0)
(0.00152195 -7.79841e-05 0)
(0.00154715 -7.03308e-05 0)
(0.00157214 -6.10317e-05 0)
(0.00159657 -5.01502e-05 0)
(0.00162004 -3.77959e-05 0)
(0.00164208 -2.41186e-05 0)
(0.00166237 -9.38453e-06 0)
(0.00168066 6.12248e-06 0)
(0.00169655 2.20919e-05 0)
(0.00170937 3.81345e-05 0)
(0.00171863 5.39155e-05 0)
(0.00172416 6.9045e-05 0)
(0.00172579 8.30156e-05 0)
(0.00172343 9.53685e-05 0)
(0.00171706 0.000105721 0)
(0.00170677 0.000113784 0)
(0.00169278 0.000119365 0)
(0.00167544 0.000122406 0)
(0.00165521 0.000122957 0)
(0.00163264 0.000121216 0)
(0.0016083 0.000117469 0)
(0.00158283 0.000112115 0)
(0.00155681 0.000105548 0)
(0.00153082 9.81994e-05 0)
(0.00150526 9.03881e-05 0)
(0.00148056 8.24273e-05 0)
(0.00145692 7.44782e-05 0)
(0.00143461 6.67286e-05 0)
(0.00141361 5.92216e-05 0)
(0.0013941 5.20843e-05 0)
(0.00137588 4.52974e-05 0)
(0.00135912 3.8963e-05 0)
(0.00134352 3.30149e-05 0)
(0.00132926 2.75478e-05 0)
(0.00131595 2.24524e-05 0)
(0.00130386 1.77952e-05 0)
(0.00129252 1.34221e-05 0)
(0.00128229 9.39801e-06 0)
(0.00127262 5.53491e-06 0)
(0.00126394 1.89249e-06 0)
(0.00125571 -1.76554e-06 0)
(0.00124851 -5.3293e-06 0)
(0.00124169 -9.08412e-06 0)
(0.00123593 -1.28242e-05 0)
(0.00123052 -1.68998e-05 0)
(0.00122632 -2.09608e-05 0)
(0.00122244 -2.55213e-05 0)
(0.00122 -2.99726e-05 0)
(0.00121776 -3.50508e-05 0)
(0.00121731 -3.97587e-05 0)
(0.00121674 -4.51978e-05 0)
(0.00121847 -4.98543e-05 0)
(0.00121938 -5.5348e-05 0)
(0.00122341 -5.95912e-05 0)
(0.00122531 -6.47713e-05 0)
(0.00123169 -6.83479e-05 0)
(0.00123386 -7.27336e-05 0)
(0.00124263 -7.55465e-05 0)
(0.00124419 -7.83162e-05 0)
(0.00125522 -8.05321e-05 0)
(0.00115919 -3.40575e-05 0)
(0.0011599 -3.4366e-05 0)
(0.00115844 -3.47501e-05 0)
(0.00115434 -3.52781e-05 0)
(0.00114767 -3.60235e-05 0)
(0.0011391 -3.7029e-05 0)
(0.00112954 -3.8333e-05 0)
(0.00111989 -4.00426e-05 0)
(0.00111091 -4.23254e-05 0)
(0.0011032 -4.53284e-05 0)
(0.00109722 -4.91653e-05 0)
(0.00109327 -5.39241e-05 0)
(0.00109154 -5.95703e-05 0)
(0.00109209 -6.59906e-05 0)
(0.00109494 -7.30269e-05 0)
(0.00110008 -8.04997e-05 0)
(0.00110745 -8.82291e-05 0)
(0.00111696 -9.60424e-05 0)
(0.00112856 -0.000103782 0)
(0.00114217 -0.000111301 0)
(0.00115773 -0.000118459 0)
(0.00117521 -0.000125111 0)
(0.00119457 -0.000131115 0)
(0.0012158 -0.000136317 0)
(0.00123888 -0.000140555 0)
(0.00126378 -0.000143641 0)
(0.00129047 -0.000145368 0)
(0.00131886 -0.000145508 0)
(0.00134883 -0.00014383 0)
(0.00138022 -0.000140106 0)
(0.00141278 -0.00013414 0)
(0.00144622 -0.000125772 0)
(0.00148021 -0.000114909 0)
(0.00151432 -0.00010154 0)
(0.00154812 -8.57415e-05 0)
(0.00158109 -6.76803e-05 0)
(0.00161271 -4.7656e-05 0)
(0.00164242 -2.60717e-05 0)
(0.00166993 -3.38536e-06 0)
(0.00169493 1.99505e-05 0)
(0.00171667 4.33541e-05 0)
(0.00173447 6.62927e-05 0)
(0.00174807 8.8258e-05 0)
(0.00175721 0.000108649 0)
(0.00176168 0.000126908 0)
(0.00176134 0.000142542 0)
(0.0017562 0.000155169 0)
(0.00174636 0.000164478 0)
(0.00173212 0.000170329 0)
(0.00171384 0.000172685 0)
(0.00169212 0.00017172 0)
(0.00166754 0.000167705 0)
(0.00164091 0.00016112 0)
(0.00161292 0.000152476 0)
(0.0015844 0.000142419 0)
(0.00155591 0.000131494 0)
(0.00152816 0.000120272 0)
(0.00150143 0.000109112 0)
(0.00147619 9.83604e-05 0)
(0.00145244 8.81375e-05 0)
(0.00143047 7.85933e-05 0)
(0.00141005 6.96964e-05 0)
(0.00139137 6.14897e-05 0)
(0.00137411 5.38784e-05 0)
(0.00135842 4.6851e-05 0)
(0.00134396 4.02883e-05 0)
(0.00133088 3.41406e-05 0)
(0.00131893 2.82716e-05 0)
(0.00130817 2.26319e-05 0)
(0.00129854 1.70744e-05 0)
(0.0012899 1.15624e-05 0)
(0.0012825 5.89545e-06 0)
(0.00127596 1.49746e-07 0)
(0.00127091 -5.975e-06 0)
(0.0012664 -1.21616e-05 0)
(0.00126364 -1.89416e-05 0)
(0.00126115 -2.5583e-05 0)
(0.00126075 -3.30611e-05 0)
(0.00126028 -3.994e-05 0)
(0.00126207 -4.78871e-05 0)
(0.00126353 -5.44771e-05 0)
(0.00126704 -6.23673e-05 0)
(0.00127019 -6.79975e-05 0)
(0.00127448 -7.52043e-05 0)
(0.00127913 -7.94208e-05 0)
(0.00128309 -8.53079e-05 0)
(0.00128946 -8.79719e-05 0)
(0.00129203 -9.15708e-05 0)
(0.00130048 -9.29604e-05 0)
(0.00111816 -3.34135e-05 0)
(0.00108772 -2.45312e-05 0)
(0.00105454 -1.27946e-05 0)
(0.00102065 -8.41625e-07 0)
(0.000987628 8.75848e-06 0)
(0.000956953 1.42997e-05 0)
(0.000929759 1.51353e-05 0)
(0.000906735 1.14866e-05 0)
(0.00088831 4.07432e-06 0)
(0.00087461 -6.21109e-06 0)
(0.000865345 -1.86174e-05 0)
(0.00086025 -3.24284e-05 0)
(0.000859088 -4.70617e-05 0)
(0.000861472 -6.20599e-05 0)
(0.000866979 -7.70731e-05 0)
(0.000875195 -9.18423e-05 0)
(0.000885741 -0.000106186 0)
(0.000898296 -0.000119983 0)
(0.000912601 -0.00013316 0)
(0.000928472 -0.000145674 0)
(0.000945791 -0.000157497 0)
(0.000964521 -0.000168597 0)
(0.000984675 -0.000178928 0)
(0.00100634 -0.000188405 0)
(0.00102961 -0.0001969 0)
(0.00105465 -0.000204224 0)
(0.00108157 -0.00021014 0)
(0.0011105 -0.000214351 0)
(0.00114148 -0.000216532 0)
(0.00117454 -0.000216336 0)
(0.00120957 -0.000213426 0)
(0.00124641 -0.000207506 0)
(0.00128479 -0.000198351 0)
(0.00132438 -0.000185827 0)
(0.00136477 -0.000169915 0)
(0.00140548 -0.000150715 0)
(0.00144603 -0.000128448 0)
(0.00148588 -0.00010345 0)
(0.00152447 -7.61188e-05 0)
(0.0015612 -4.70303e-05 0)
(0.00159575 -1.68e-05 0)
(0.00162784 1.39529e-05 0)
(0.00165685 4.45569e-05 0)
(0.00168209 7.43173e-05 0)
(0.00170323 0.000102634 0)
(0.00171996 0.000128825 0)
(0.00173208 0.000152297 0)
(0.00173934 0.000172518 0)
(0.00174175 0.000189099 0)
(0.00173925 0.000201716 0)
(0.00173208 0.000210242 0)
(0.0017204 0.000214628 0)
(0.00170471 0.00021505 0)
(0.00168539 0.000211766 0)
(0.00166321 0.000205248 0)
(0.0016387 0.000196009 0)
(0.00161278 0.00018471 0)
(0.00158598 0.000171969 0)
(0.00155918 0.000158439 0)
(0.00153277 0.00014465 0)
(0.00150742 0.000131055 0)
(0.00148327 0.000117973 0)
(0.00146077 0.000105582 0)
(0.00143987 9.40079e-05 0)
(0.00142078 8.3186e-05 0)
(0.00140342 7.31467e-05 0)
(0.00138775 6.36558e-05 0)
(0.00137387 5.47465e-05 0)
(0.00136139 4.60864e-05 0)
(0.0013508 3.77654e-05 0)
(0.00134117 2.94146e-05 0)
(0.00133369 2.116e-05 0)
(0.00132653 1.26783e-05 0)
(0.00132201 4.01975e-06 0)
(0.00131702 -4.87288e-06 0)
(0.0013154 -1.41678e-05 0)
(0.0013121 -2.33401e-05 0)
(0.00131316 -3.32028e-05 0)
(0.00131108 -4.21946e-05 0)
(0.00131453 -5.22902e-05 0)
(0.00131334 -6.02111e-05 0)
(0.00131882 -6.98275e-05 0)
(0.00131824 -7.56075e-05 0)
(0.00132485 -8.4233e-05 0)
(0.00132441 -8.753e-05 0)
(0.00133065 -9.51423e-05 0)
(0.00133001 -9.61315e-05 0)
(0.00133411 -0.000101488 0)
(0.00133324 -0.000100125 0)
(0.000902681 9.26757e-05 0)
(0.000847606 0.000108303 0)
(0.000799455 0.000113321 0)
(0.000760068 0.000109901 0)
(0.000730023 0.00010009 0)
(0.00070885 8.54572e-05 0)
(0.000695587 6.7241e-05 0)
(0.000689192 4.65425e-05 0)
(0.00068864 2.42882e-05 0)
(0.000692759 1.1222e-06 0)
(0.000700584 -2.2238e-05 0)
(0.000711469 -4.51761e-05 0)
(0.000724684 -6.72858e-05 0)
(0.000739598 -8.82962e-05 0)
(0.000755666 -0.000108056 0)
(0.000772423 -0.000126514 0)
(0.000789477 -0.000143696 0)
(0.000806524 -0.000159692 0)
(0.000823347 -0.000174633 0)
(0.000839824 -0.000188675 0)
(0.000855932 -0.00020198 0)
(0.000871752 -0.000214693 0)
(0.000887456 -0.000226919 0)
(0.000903322 -0.000238696 0)
(0.00091969 -0.000249982 0)
(0.000936969 -0.000260621 0)
(0.000955583 -0.000270354 0)
(0.000975956 -0.000278804 0)
(0.000998459 -0.000285514 0)
(0.00102339 -0.000289963 0)
(0.00105091 -0.000291616 0)
(0.00108108 -0.000289975 0)
(0.00111381 -0.00028461 0)
(0.00114888 -0.000275217 0)
(0.00118599 -0.000261625 0)
(0.00122474 -0.000243822 0)
(0.00126469 -0.000221945 0)
(0.00130533 -0.000196278 0)
(0.0013462 -0.000167218 0)
(0.00138678 -0.000135266 0)
(0.00142656 -0.000100975 0)
(0.001465 -6.50684e-05 0)
(0.00150176 -2.82842e-05 0)
(0.00153649 8.62567e-06 0)
(0.0015687 4.49153e-05 0)
(0.0015977 7.9833e-05 0)
(0.00162326 0.000112737 0)
(0.001645 0.000142927 0)
(0.00166273 0.000169836 0)
(0.00167614 0.000192945 0)
(0.00168521 0.000211904 0)
(0.00168978 0.000226434 0)
(0.00169003 0.00023646 0)
(0.00168599 0.000241998 0)
(0.00167808 0.000243272 0)
(0.00166651 0.00024059 0)
(0.00165191 0.000234422 0)
(0.00163464 0.000225295 0)
(0.00161548 0.000213804 0)
(0.00159484 0.000200579 0)
(0.00157354 0.000186173 0)
(0.00155193 0.000171179 0)
(0.00153072 0.000155948 0)
(0.00151015 0.000140961 0)
(0.00149068 0.00012626 0)
(0.0014725 0.000112225 0)
(0.00145573 9.85694e-05 0)
(0.00144061 8.56873e-05 0)
(0.00142685 7.30041e-05 0)
(0.00141501 6.10631e-05 0)
(0.00140412 4.90203e-05 0)
(0.00139548 3.76264e-05 0)
(0.00138708 2.58254e-05 0)
(0.00138154 1.45796e-05 0)
(0.00137512 2.84955e-06 0)
(0.00137268 -8.40238e-06 0)
(0.00136761 -1.9826e-05 0)
(0.00136814 -3.11447e-05 0)
(0.00136322 -4.18579e-05 0)
(0.00136645 -5.33579e-05 0)
(0.00136052 -6.26027e-05 0)
(0.00136624 -7.37612e-05 0)
(0.00135814 -7.9771e-05 0)
(0.00136533 -8.92125e-05 0)
(0.00135376 -9.04319e-05 0)
(0.00136031 -9.76076e-05 0)
(0.00134556 -9.40861e-05 0)
(0.00134984 -9.86776e-05 0)
(0.00133387 -9.08957e-05 0)
(0.000686463 0.000206343 0)
(0.000659759 0.000192254 0)
(0.000643191 0.000171634 0)
(0.000635323 0.000146519 0)
(0.000634952 0.000118428 0)
(0.000641006 8.84961e-05 0)
(0.000652494 5.76291e-05 0)
(0.000668367 2.66291e-05 0)
(0.000687337 -3.84875e-06 0)
(0.00070869 -3.31808e-05 0)
(0.000732065 -6.08577e-05 0)
(0.000756666 -8.65698e-05 0)
(0.000781733 -0.000110116 0)
(0.000806612 -0.000131402 0)
(0.000830703 -0.000150445 0)
(0.000853476 -0.000167359 0)
(0.000874472 -0.000182352 0)
(0.000893308 -0.000195712 0)
(0.000909684 -0.000207788 0)
(0.000923394 -0.000218966 0)
(0.000934353 -0.000229644 0)
(0.000942613 -0.000240203 0)
(0.000948392 -0.000250967 0)
(0.000952087 -0.000262178 0)
(0.000954275 -0.000273958 0)
(0.000955686 -0.000286283 0)
(0.000957165 -0.000298947 0)
(0.000959604 -0.000311543 0)
(0.000963868 -0.000323462 0)
(0.00097073 -0.000333943 0)
(0.000980801 -0.000342129 0)
(0.00099449 -0.000347166 0)
(0.00101199 -0.000348289 0)
(0.00103329 -0.000344897 0)
(0.00105818 -0.000336594 0)
(0.00108631 -0.000323213 0)
(0.00111726 -0.000304791 0)
(0.00115052 -0.000281558 0)
(0.00118561 -0.000253904 0)
(0.00122195 -0.000222349 0)
(0.00125908 -0.000187495 0)
(0.00129649 -0.000150031 0)
(0.00133372 -0.000110655 0)
(0.00137022 -7.01733e-05 0)
(0.00140569 -2.93907e-05 0)
(0.0014398 1.09043e-05 0)
(0.00147212 4.99817e-05 0)
(0.00150206 8.71107e-05 0)
(0.00152942 0.000121662 0)
(0.00155378 0.000153015 0)
(0.00157498 0.000180684 0)
(0.00159266 0.000204233 0)
(0.0016068 0.000223394 0)
(0.00161716 0.000237975 0)
(0.00162387 0.000247966 0)
(0.00162686 0.000253455 0)
(0.00162645 0.000254693 0)
(0.00162272 0.000252031 0)
(0.00161618 0.000245913 0)
(0.00160704 0.000236874 0)
(0.00159593 0.000225419 0)
(0.00158314 0.000212159 0)
(0.00156929 0.000197511 0)
(0.0015547 0.000182081 0)
(0.0015399 0.000166067 0)
(0.00152519 0.000150045 0)
(0.00151089 0.000133891 0)