/*--------------------------------*- C++ -*----------------------------------*\
| =========                 |                                                 |
| \\      /  F ield         | OpenFOAM: The Open Source CFD Toolbox           |
|  \\    /   O peration     | Version:  2312                                  |
|   \\  /    A nd           | Website:  www.openfoam.com                      |
|    \\/     M anipulation  |                                                 |
\*---------------------------------------------------------------------------*/
FoamFile
{
    version     2.0;
    format      ascii;
    arch        "LSB;label=32;scalar=64";
    class       volScalarField;
    location    "161000";
    object      p;
}
// * * * * * * * * * * * * * * * * * * * * * * * * * * * * * * * * * * * * * //

dimensions      [0 2 -2 0 0 0 0];

internalField   nonuniform List<scalar> 
2715
(
5.96824e-07
5.82698e-07
5.68924e-07
5.58338e-07
5.50903e-07
5.45497e-07
5.41027e-07
5.36927e-07
5.33028e-07
5.29337e-07
5.25892e-07
5.22697e-07
5.19717e-07
5.16905e-07
5.14212e-07
5.11606e-07
5.09067e-07
5.06579e-07
5.04133e-07
5.0172e-07
4.99332e-07
4.96961e-07
4.946e-07
4.92244e-07
4.89888e-07
4.87528e-07
4.85161e-07
4.82785e-07
4.80397e-07
4.77996e-07
4.7558e-07
4.73147e-07
4.70698e-07
4.68231e-07
4.65746e-07
4.63243e-07
4.60722e-07
4.58183e-07
4.55625e-07
4.53051e-07
4.50458e-07
4.47849e-07
4.45223e-07
4.42579e-07
4.39919e-07
4.3724e-07
4.34544e-07
4.31826e-07
4.29092e-07
4.26324e-07
4.23547e-07
4.20705e-07
4.17886e-07
4.14909e-07
4.12091e-07
4.08769e-07
4.06243e-07
4.0163e-07
4.01139e-07
3.90373e-07
5.488e-07
5.4707e-07
5.4442e-07
5.41287e-07
5.3806e-07
5.34953e-07
5.32014e-07
5.29208e-07
5.26485e-07
5.23815e-07
5.21191e-07
5.18619e-07
5.16106e-07
5.13652e-07
5.1125e-07
5.08892e-07
5.06567e-07
5.0427e-07
5.01992e-07
4.99731e-07
4.9748e-07
4.95237e-07
4.92998e-07
4.90759e-07
4.88517e-07
4.8627e-07
4.84014e-07
4.81749e-07
4.79472e-07
4.77182e-07
4.74878e-07
4.72558e-07
4.70222e-07
4.67869e-07
4.655e-07
4.63112e-07
4.60708e-07
4.58283e-07
4.55845e-07
4.53383e-07
4.5091e-07
4.48412e-07
4.45906e-07
4.43369e-07
4.40832e-07
4.38253e-07
4.35689e-07
4.33065e-07
4.30482e-07
4.27809e-07
4.25227e-07
4.22506e-07
4.1998e-07
4.1723e-07
4.14892e-07
4.12177e-07
4.10358e-07
4.07759e-07
4.07065e-07
4.04159e-07
5.40109e-07
5.39356e-07
5.37937e-07
5.35978e-07
5.33685e-07
5.31252e-07
5.28808e-07
5.26402e-07
5.24037e-07
5.217e-07
5.19383e-07
5.17085e-07
5.14812e-07
5.12567e-07
5.10355e-07
5.08171e-07
5.06013e-07
5.03875e-07
5.01752e-07
4.99642e-07
4.9754e-07
4.95444e-07
4.93351e-07
4.91258e-07
4.89164e-07
4.87065e-07
4.84961e-07
4.82849e-07
4.80728e-07
4.78597e-07
4.76455e-07
4.74299e-07
4.72132e-07
4.69949e-07
4.67754e-07
4.65543e-07
4.63318e-07
4.61076e-07
4.58821e-07
4.56547e-07
4.54262e-07
4.51954e-07
4.49639e-07
4.47298e-07
4.44954e-07
4.42578e-07
4.40208e-07
4.37798e-07
4.35408e-07
4.32964e-07
4.30565e-07
4.28092e-07
4.25702e-07
4.23206e-07
4.20858e-07
4.1835e-07
4.16091e-07
4.13577e-07
4.11445e-07
4.08836e-07
5.28424e-07
5.27989e-07
5.27199e-07
5.26102e-07
5.2477e-07
5.23271e-07
5.21664e-07
5.19988e-07
5.18264e-07
5.16503e-07
5.1471e-07
5.12893e-07
5.11056e-07
5.09206e-07
5.07348e-07
5.05486e-07
5.03619e-07
5.0175e-07
4.99876e-07
4.97999e-07
4.96117e-07
4.9423e-07
4.92336e-07
4.90436e-07
4.88529e-07
4.86614e-07
4.84691e-07
4.82757e-07
4.80815e-07
4.78861e-07
4.76897e-07
4.74922e-07
4.72935e-07
4.70937e-07
4.68927e-07
4.66904e-07
4.6487e-07
4.62822e-07
4.60762e-07
4.58688e-07
4.56602e-07
4.545e-07
4.52387e-07
4.50254e-07
4.4811e-07
4.45943e-07
4.43763e-07
4.41554e-07
4.39332e-07
4.37075e-07
4.34804e-07
4.3249e-07
4.30167e-07
4.27792e-07
4.25413e-07
4.2297e-07
4.20529e-07
4.17997e-07
4.15471e-07
4.12859e-07
5.21803e-07
5.21588e-07
5.21153e-07
5.20502e-07
5.19651e-07
5.18628e-07
5.17466e-07
5.16196e-07
5.14841e-07
5.1342e-07
5.11944e-07
5.10422e-07
5.08863e-07
5.07271e-07
5.05654e-07
5.04015e-07
5.02358e-07
5.00687e-07
4.99003e-07
4.97307e-07
4.95601e-07
4.93884e-07
4.92159e-07
4.90424e-07
4.8868e-07
4.86927e-07
4.85167e-07
4.83397e-07
4.8162e-07
4.79834e-07
4.78039e-07
4.76237e-07
4.74427e-07
4.72608e-07
4.70782e-07
4.68947e-07
4.67105e-07
4.65254e-07
4.63396e-07
4.61529e-07
4.59653e-07
4.57769e-07
4.55876e-07
4.53972e-07
4.52058e-07
4.50133e-07
4.48196e-07
4.46243e-07
4.44273e-07
4.42281e-07
4.40259e-07
4.38199e-07
4.36088e-07
4.33915e-07
4.31666e-07
4.29341e-07
4.26927e-07
4.24437e-07
4.2187e-07
4.19319e-07
5.16367e-07
5.16202e-07
5.15873e-07
5.15384e-07
5.14744e-07
5.13969e-07
5.13078e-07
5.12088e-07
5.11015e-07
5.09872e-07
5.08668e-07
5.07411e-07
5.06108e-07
5.04765e-07
5.03386e-07
5.01977e-07
5.00541e-07
4.99082e-07
4.97602e-07
4.96103e-07
4.94589e-07
4.93059e-07
4.91516e-07
4.8996e-07
4.88393e-07
4.86815e-07
4.85228e-07
4.83632e-07
4.82027e-07
4.80415e-07
4.78796e-07
4.7717e-07
4.75538e-07
4.739e-07
4.72257e-07
4.7061e-07
4.68957e-07
4.673e-07
4.65638e-07
4.63971e-07
4.623e-07
4.60623e-07
4.58939e-07
4.57248e-07
4.55547e-07
4.53835e-07
4.52107e-07
4.50365e-07
4.48604e-07
4.46826e-07
4.45026e-07
4.43208e-07
4.41354e-07
4.39465e-07
4.37514e-07
4.35504e-07
4.33402e-07
4.31242e-07
4.29019e-07
4.26867e-07
5.12119e-07
5.11999e-07
5.11758e-07
5.11398e-07
5.10922e-07
5.10336e-07
5.09651e-07
5.08876e-07
5.08021e-07
5.07095e-07
5.06107e-07
5.05062e-07
5.03968e-07
5.02828e-07
5.01647e-07
5.00431e-07
4.99182e-07
4.97905e-07
4.96602e-07
4.95277e-07
4.93931e-07
4.92568e-07
4.91188e-07
4.89794e-07
4.88387e-07
4.86969e-07
4.85541e-07
4.84105e-07
4.82661e-07
4.81211e-07
4.79755e-07
4.78296e-07
4.76833e-07
4.75367e-07
4.739e-07
4.72432e-07
4.70964e-07
4.69496e-07
4.68029e-07
4.66564e-07
4.651e-07
4.63637e-07
4.62177e-07
4.60719e-07
4.59262e-07
4.57806e-07
4.56348e-07
4.54885e-07
4.53408e-07
4.51917e-07
4.50405e-07
4.48872e-07
4.47311e-07
4.45727e-07
4.441e-07
4.42438e-07
4.40717e-07
4.38967e-07
4.37186e-07
4.35494e-07
5.08778e-07
5.08684e-07
5.08496e-07
5.08213e-07
5.07836e-07
5.0737e-07
5.06819e-07
5.06189e-07
5.05487e-07
5.04719e-07
5.03889e-07
5.03005e-07
5.0207e-07
5.0109e-07
5.00068e-07
4.9901e-07
4.97918e-07
4.96796e-07
4.95647e-07
4.94473e-07
4.93279e-07
4.92065e-07
4.90835e-07
4.89589e-07
4.88331e-07
4.87062e-07
4.85784e-07
4.84498e-07
4.83206e-07
4.8191e-07
4.80611e-07
4.7931e-07
4.78009e-07
4.76709e-07
4.75411e-07
4.74116e-07
4.72827e-07
4.71542e-07
4.70265e-07
4.68994e-07
4.67732e-07
4.66477e-07
4.65231e-07
4.63995e-07
4.62766e-07
4.61547e-07
4.60338e-07
4.59139e-07
4.57947e-07
4.5676e-07
4.5557e-07
4.54376e-07
4.53171e-07
4.51961e-07
4.50732e-07
4.49493e-07
4.4823e-07
4.46972e-07
4.45723e-07
4.44595e-07
5.06133e-07
5.06057e-07
5.05903e-07
5.05671e-07
5.05361e-07
5.04976e-07
5.04519e-07
5.03993e-07
5.03403e-07
5.02754e-07
5.02048e-07
5.01291e-07
5.00487e-07
4.99639e-07
4.98751e-07
4.97826e-07
4.96869e-07
4.95881e-07
4.94866e-07
4.93827e-07
4.92767e-07
4.91687e-07
4.90591e-07
4.89481e-07
4.88358e-07
4.87225e-07
4.86084e-07
4.84937e-07
4.83785e-07
4.82632e-07
4.81478e-07
4.80325e-07
4.79176e-07
4.78031e-07
4.76893e-07
4.75763e-07
4.74643e-07
4.73535e-07
4.72439e-07
4.71359e-07
4.70294e-07
4.69248e-07
4.6822e-07
4.67212e-07
4.66224e-07
4.65257e-07
4.6431e-07
4.63382e-07
4.62475e-07
4.61592e-07
4.60729e-07
4.59888e-07
4.59063e-07
4.58258e-07
4.57466e-07
4.56696e-07
4.55937e-07
4.55216e-07
4.54542e-07
4.54008e-07
5.0406e-07
5.03995e-07
5.03865e-07
5.03669e-07
5.03407e-07
5.0308e-07
5.02691e-07
5.02243e-07
5.01737e-07
5.01178e-07
5.00568e-07
4.99912e-07
4.99211e-07
4.98469e-07
4.97689e-07
4.96874e-07
4.96028e-07
4.95153e-07
4.94251e-07
4.93326e-07
4.9238e-07
4.91416e-07
4.90436e-07
4.89443e-07
4.88438e-07
4.87425e-07
4.86405e-07
4.85381e-07
4.84355e-07
4.83329e-07
4.82305e-07
4.81287e-07
4.80274e-07
4.79271e-07
4.78279e-07
4.77299e-07
4.76336e-07
4.7539e-07
4.74464e-07
4.7356e-07
4.7268e-07
4.71826e-07
4.71002e-07
4.70208e-07
4.69444e-07
4.68714e-07
4.68019e-07
4.67363e-07
4.66746e-07
4.66173e-07
4.65642e-07
4.65157e-07
4.64716e-07
4.64325e-07
4.63979e-07
4.63689e-07
4.63451e-07
4.63287e-07
4.6321e-07
4.633e-07
5.02468e-07
5.02412e-07
5.02299e-07
5.02129e-07
5.01902e-07
5.01618e-07
5.01279e-07
5.00887e-07
5.00445e-07
4.99954e-07
4.99418e-07
4.98839e-07
4.98218e-07
4.9756e-07
4.96867e-07
4.9614e-07
4.95384e-07
4.946e-07
4.93791e-07
4.92961e-07
4.9211e-07
4.91243e-07
4.90361e-07
4.89467e-07
4.88564e-07
4.87653e-07
4.86738e-07
4.85821e-07
4.84904e-07
4.83989e-07
4.8308e-07
4.82179e-07
4.81288e-07
4.8041e-07
4.79548e-07
4.78704e-07
4.77881e-07
4.77081e-07
4.76308e-07
4.75566e-07
4.74856e-07
4.7418e-07
4.7354e-07
4.72941e-07
4.72386e-07
4.7188e-07
4.71425e-07
4.71025e-07
4.70683e-07
4.70404e-07
4.7019e-07
4.70046e-07
4.69975e-07
4.69982e-07
4.7007e-07
4.70248e-07
4.70518e-07
4.70902e-07
4.71413e-07
4.72115e-07
5.01293e-07
5.01244e-07
5.01143e-07
5.00992e-07
5.0079e-07
5.00537e-07
5.00235e-07
4.99885e-07
4.9949e-07
4.9905e-07
4.98569e-07
4.98048e-07
4.97489e-07
4.96895e-07
4.96268e-07
4.95611e-07
4.94925e-07
4.94214e-07
4.93479e-07
4.92724e-07
4.91951e-07
4.91162e-07
4.9036e-07
4.89548e-07
4.88727e-07
4.87902e-07
4.87073e-07
4.86245e-07
4.85419e-07
4.84598e-07
4.83786e-07
4.82984e-07
4.82195e-07
4.81424e-07
4.80672e-07
4.79943e-07
4.79241e-07
4.78568e-07
4.77927e-07
4.77321e-07
4.76753e-07
4.76229e-07
4.75752e-07
4.75327e-07
4.74959e-07
4.74651e-07
4.74408e-07
4.74236e-07
4.74138e-07
4.74122e-07
4.74192e-07
4.74356e-07
4.74618e-07
4.74987e-07
4.7547e-07
4.76076e-07
4.76814e-07
4.77702e-07
4.78757e-07
4.80027e-07
5.0049e-07
5.00444e-07
5.00353e-07
5.00215e-07
5.0003e-07
4.99799e-07
4.99523e-07
4.99203e-07
4.98841e-07
4.98439e-07
4.97997e-07
4.97519e-07
4.97005e-07
4.96458e-07
4.9588e-07
4.95274e-07
4.94641e-07
4.93984e-07
4.93306e-07
4.92608e-07
4.91894e-07
4.91165e-07
4.90425e-07
4.89675e-07
4.88919e-07
4.88159e-07
4.87398e-07
4.86639e-07
4.85885e-07
4.85138e-07
4.84402e-07
4.83679e-07
4.82973e-07
4.82286e-07
4.81623e-07
4.80985e-07
4.80377e-07
4.79803e-07
4.79267e-07
4.78772e-07
4.78323e-07
4.77925e-07
4.77583e-07
4.77301e-07
4.77084e-07
4.76939e-07
4.76871e-07
4.76885e-07
4.7699e-07
4.77192e-07
4.77499e-07
4.77918e-07
4.78459e-07
4.79132e-07
4.79945e-07
4.80912e-07
4.82045e-07
4.83361e-07
4.84878e-07
4.86629e-07
5.00024e-07
4.99981e-07
4.99896e-07
4.99766e-07
4.99593e-07
4.99376e-07
4.99117e-07
4.98817e-07
4.98477e-07
4.98098e-07
4.97683e-07
4.97233e-07
4.96749e-07
4.96234e-07
4.9569e-07
4.95118e-07
4.94521e-07
4.93901e-07
4.93261e-07
4.92603e-07
4.91929e-07
4.91242e-07
4.90545e-07
4.8984e-07
4.89129e-07
4.88416e-07
4.87703e-07
4.86993e-07
4.86289e-07
4.85594e-07
4.84912e-07
4.84244e-07
4.83596e-07
4.8297e-07
4.82369e-07
4.81798e-07
4.81259e-07
4.80759e-07
4.803e-07
4.79887e-07
4.79526e-07
4.7922e-07
4.78975e-07
4.78797e-07
4.78692e-07
4.78666e-07
4.78725e-07
4.78878e-07
4.79131e-07
4.79493e-07
4.79974e-07
4.80582e-07
4.81329e-07
4.82226e-07
4.83285e-07
4.8452e-07
4.85945e-07
4.87578e-07
4.89439e-07
4.91549e-07
4.99876e-07
4.99835e-07
4.99752e-07
4.99627e-07
4.9946e-07
4.99251e-07
4.99e-07
4.9871e-07
4.98382e-07
4.98016e-07
4.97614e-07
4.97179e-07
4.96711e-07
4.96213e-07
4.95687e-07
4.95134e-07
4.94556e-07
4.93957e-07
4.93338e-07
4.92701e-07
4.9205e-07
4.91387e-07
4.90713e-07
4.90032e-07
4.89347e-07
4.8866e-07
4.87974e-07
4.87293e-07
4.86618e-07
4.85953e-07
4.85302e-07
4.84667e-07
4.84053e-07
4.83462e-07
4.82899e-07
4.82367e-07
4.8187e-07
4.81413e-07
4.81e-07
4.80636e-07
4.80325e-07
4.80073e-07
4.79886e-07
4.79769e-07
4.7973e-07
4.79773e-07
4.79908e-07
4.80141e-07
4.80481e-07
4.80937e-07
4.81519e-07
4.82237e-07
4.83103e-07
4.84129e-07
4.8533e-07
4.86719e-07
4.88314e-07
4.90129e-07
4.92186e-07
4.94502e-07
5.00033e-07
4.99992e-07
4.9991e-07
4.99785e-07
4.99619e-07
4.99411e-07
4.99162e-07
4.98873e-07
4.98546e-07
4.98182e-07
4.97782e-07
4.97349e-07
4.96884e-07
4.96389e-07
4.95865e-07
4.95315e-07
4.94742e-07
4.94146e-07
4.93531e-07
4.92899e-07
4.92252e-07
4.91593e-07
4.90925e-07
4.9025e-07
4.8957e-07
4.88889e-07
4.8821e-07
4.87535e-07
4.86868e-07
4.86211e-07
4.85568e-07
4.84942e-07
4.84336e-07
4.83755e-07
4.83202e-07
4.82681e-07
4.82195e-07
4.8175e-07
4.81349e-07
4.80998e-07
4.80701e-07
4.80464e-07
4.80292e-07
4.80191e-07
4.80168e-07
4.80229e-07
4.80383e-07
4.80635e-07
4.80996e-07
4.81474e-07
4.82079e-07
4.82821e-07
4.83713e-07
4.84766e-07
4.85994e-07
4.87411e-07
4.89036e-07
4.90884e-07
4.92976e-07
4.95325e-07
5.00495e-07
5.00453e-07
5.00369e-07
5.00241e-07
5.0007e-07
4.99856e-07
4.99601e-07
4.99305e-07
4.98969e-07
4.98596e-07
4.98187e-07
4.97744e-07
4.97267e-07
4.9676e-07
4.96225e-07
4.95662e-07
4.95076e-07
4.94467e-07
4.93839e-07
4.93194e-07
4.92533e-07
4.91861e-07
4.91179e-07
4.9049e-07
4.89796e-07
4.89101e-07
4.88407e-07
4.87718e-07
4.87036e-07
4.86364e-07
4.85706e-07
4.85064e-07
4.84443e-07
4.83845e-07
4.83274e-07
4.82735e-07
4.82231e-07
4.81766e-07
4.81344e-07
4.8097e-07
4.8065e-07
4.80387e-07
4.80188e-07
4.80058e-07
4.80003e-07
4.8003e-07
4.80145e-07
4.80356e-07
4.80671e-07
4.81099e-07
4.81648e-07
4.82328e-07
4.83151e-07
4.84127e-07
4.85271e-07
4.86592e-07
4.88107e-07
4.89833e-07
4.91793e-07
4.94004e-07
5.0127e-07
5.01226e-07
5.01136e-07
5.01001e-07
5.0082e-07
5.00594e-07
5.00324e-07
5.00011e-07
4.99657e-07
4.99263e-07
4.98832e-07
4.98365e-07
4.97863e-07
4.9733e-07
4.96767e-07
4.96176e-07
4.95561e-07
4.94922e-07
4.94263e-07
4.93587e-07
4.92895e-07
4.9219e-07
4.91475e-07
4.90753e-07
4.90026e-07
4.89296e-07
4.88568e-07
4.87843e-07
4.87124e-07
4.86415e-07
4.85718e-07
4.85037e-07
4.84375e-07
4.83735e-07
4.8312e-07
4.82535e-07
4.81983e-07
4.81467e-07
4.80992e-07
4.80562e-07
4.80182e-07
4.79855e-07
4.79588e-07
4.79385e-07
4.79251e-07
4.79193e-07
4.79216e-07
4.79326e-07
4.79532e-07
4.7984e-07
4.80258e-07
4.80793e-07
4.81455e-07
4.82252e-07
4.83199e-07
4.84312e-07
4.85602e-07
4.8708e-07
4.88765e-07
4.90683e-07
5.02377e-07
5.02328e-07
5.02231e-07
5.02083e-07
5.01886e-07
5.0164e-07
5.01346e-07
5.01006e-07
5.00622e-07
5.00195e-07
4.99728e-07
4.99222e-07
4.98681e-07
4.98105e-07
4.97499e-07
4.96863e-07
4.96201e-07
4.95515e-07
4.94808e-07
4.94083e-07
4.93341e-07
4.92585e-07
4.91819e-07
4.91044e-07
4.90263e-07
4.8948e-07
4.88696e-07
4.87915e-07
4.87139e-07
4.8637e-07
4.85613e-07
4.8487e-07
4.84143e-07
4.83436e-07
4.82752e-07
4.82095e-07
4.81467e-07
4.80872e-07
4.80314e-07
4.79796e-07
4.79323e-07
4.78897e-07
4.78525e-07
4.78209e-07
4.77954e-07
4.77765e-07
4.77648e-07
4.77607e-07
4.77648e-07
4.77776e-07
4.77998e-07
4.78319e-07
4.78748e-07
4.79297e-07
4.79971e-07
4.80779e-07
4.81729e-07
4.82836e-07
4.84119e-07
4.85616e-07
5.03844e-07
5.0379e-07
5.0368e-07
5.03515e-07
5.03295e-07
5.0302e-07
5.02691e-07
5.02312e-07
5.01883e-07
5.01409e-07
5.0089e-07
5.0033e-07
4.99732e-07
4.99097e-07
4.9843e-07
4.97731e-07
4.97005e-07
4.96254e-07
4.9548e-07
4.94687e-07
4.93876e-07
4.93051e-07
4.92214e-07
4.91368e-07
4.90515e-07
4.89658e-07
4.888e-07
4.87942e-07
4.87088e-07
4.86241e-07
4.85402e-07
4.84575e-07
4.83762e-07
4.82966e-07
4.8219e-07
4.81436e-07
4.80708e-07
4.80008e-07
4.7934e-07
4.78707e-07
4.78111e-07
4.77556e-07
4.77046e-07
4.76584e-07
4.76173e-07
4.75817e-07
4.7552e-07
4.75287e-07
4.75119e-07
4.75023e-07
4.75001e-07
4.75058e-07
4.75199e-07
4.75431e-07
4.75756e-07
4.76183e-07
4.76716e-07
4.77372e-07
4.78168e-07
4.79153e-07
5.05717e-07
5.05654e-07
5.05528e-07
5.05338e-07
5.05084e-07
5.04768e-07
5.04392e-07
5.03958e-07
5.03469e-07
5.02929e-07
5.02341e-07
5.01708e-07
5.01033e-07
5.0032e-07
4.99571e-07
4.98791e-07
4.97981e-07
4.97144e-07
4.96285e-07
4.95405e-07
4.94507e-07
4.93593e-07
4.92667e-07
4.91731e-07
4.90788e-07
4.89839e-07
4.88887e-07
4.87935e-07
4.86985e-07
4.86039e-07
4.851e-07
4.8417e-07
4.83251e-07
4.82346e-07
4.81457e-07
4.80586e-07
4.79736e-07
4.7891e-07
4.78109e-07
4.77337e-07
4.76595e-07
4.75886e-07
4.75213e-07
4.74578e-07
4.73983e-07
4.73432e-07
4.72925e-07
4.72466e-07
4.72057e-07
4.71701e-07
4.71399e-07
4.71154e-07
4.70967e-07
4.70841e-07
4.70775e-07
4.70777e-07
4.70848e-07
4.71006e-07
4.71265e-07
4.71687e-07
5.08056e-07
5.07981e-07
5.07832e-07
5.07607e-07
5.07307e-07
5.06935e-07
5.06492e-07
5.05984e-07
5.05414e-07
5.04787e-07
5.04106e-07
5.03377e-07
5.02603e-07
5.01789e-07
5.00937e-07
5.00052e-07
4.99136e-07
4.98194e-07
4.97228e-07
4.96242e-07
4.95237e-07
4.94216e-07
4.93183e-07
4.92139e-07
4.91086e-07
4.90028e-07
4.88966e-07
4.87902e-07
4.86838e-07
4.85777e-07
4.8472e-07
4.83669e-07
4.82627e-07
4.81596e-07
4.80577e-07
4.79572e-07
4.78583e-07
4.77612e-07
4.76661e-07
4.75731e-07
4.74825e-07
4.73944e-07
4.7309e-07
4.72264e-07
4.71467e-07
4.70701e-07
4.69967e-07
4.69267e-07
4.686e-07
4.67968e-07
4.6737e-07
4.66806e-07
4.66274e-07
4.65772e-07
4.65297e-07
4.64857e-07
4.64448e-07
4.64089e-07
4.63792e-07
4.63635e-07
5.10948e-07
5.10857e-07
5.10675e-07
5.104e-07
5.10034e-07
5.09581e-07
5.09047e-07
5.08437e-07
5.07757e-07
5.07015e-07
5.06214e-07
5.05362e-07
5.04462e-07
5.0352e-07
5.0254e-07
5.01526e-07
5.00483e-07
4.99412e-07
4.98319e-07
4.97205e-07
4.96073e-07
4.94927e-07
4.93767e-07
4.92597e-07
4.91419e-07
4.90234e-07
4.89044e-07
4.87852e-07
4.86658e-07
4.85466e-07
4.84276e-07
4.8309e-07
4.81909e-07
4.80736e-07
4.79572e-07
4.78417e-07
4.77274e-07
4.76144e-07
4.75028e-07
4.73928e-07
4.72843e-07
4.71777e-07
4.70728e-07
4.69698e-07
4.68687e-07
4.67696e-07
4.66723e-07
4.6577e-07
4.64832e-07
4.63912e-07
4.63004e-07
4.62111e-07
4.61228e-07
4.60359e-07
4.59492e-07
4.58626e-07
4.57749e-07
4.56886e-07
4.56051e-07
4.55339e-07
5.14519e-07
5.14401e-07
5.14167e-07
5.13816e-07
5.13351e-07
5.12781e-07
5.12114e-07
5.11361e-07
5.10531e-07
5.09634e-07
5.08677e-07
5.07668e-07
5.06612e-07
5.05515e-07
5.0438e-07
5.03214e-07
5.02019e-07
5.00799e-07
4.99558e-07
4.98299e-07
4.97023e-07
4.95734e-07
4.94433e-07
4.93122e-07
4.91803e-07
4.90477e-07
4.89147e-07
4.87814e-07
4.86478e-07
4.85142e-07
4.83807e-07
4.82473e-07
4.81142e-07
4.79816e-07
4.78495e-07
4.7718e-07
4.75872e-07
4.74573e-07
4.73282e-07
4.72001e-07
4.70731e-07
4.69471e-07
4.68222e-07
4.66984e-07
4.65757e-07
4.6454e-07
4.63332e-07
4.62134e-07
4.60942e-07
4.59757e-07
4.58572e-07
4.57388e-07
4.5619e-07
4.54978e-07
4.53732e-07
4.52457e-07
4.51142e-07
4.49817e-07
4.48483e-07
4.47241e-07
5.18973e-07
5.18813e-07
5.18492e-07
5.18013e-07
5.17388e-07
5.16631e-07
5.1576e-07
5.14795e-07
5.13751e-07
5.12639e-07
5.11471e-07
5.10254e-07
5.08994e-07
5.07698e-07
5.06371e-07
5.05017e-07
5.0364e-07
5.02244e-07
5.00832e-07
4.99406e-07
4.97967e-07
4.96519e-07
4.95061e-07
4.93596e-07
4.92124e-07
4.90647e-07
4.89166e-07
4.87681e-07
4.86194e-07
4.84705e-07
4.83215e-07
4.81725e-07
4.80235e-07
4.78747e-07
4.77261e-07
4.75778e-07
4.74299e-07
4.72823e-07
4.71351e-07
4.69884e-07
4.68422e-07
4.66965e-07
4.65513e-07
4.64065e-07
4.62619e-07
4.61177e-07
4.59734e-07
4.5829e-07
4.5684e-07
4.55383e-07
4.5391e-07
4.52422e-07
4.50908e-07
4.49373e-07
4.47802e-07
4.46207e-07
4.44563e-07
4.42888e-07
4.41164e-07
4.39497e-07
5.24586e-07
5.24373e-07
5.23946e-07
5.23305e-07
5.22469e-07
5.21465e-07
5.20327e-07
5.19084e-07
5.17761e-07
5.16375e-07
5.14939e-07
5.13461e-07
5.11949e-07
5.1041e-07
5.08849e-07
5.07271e-07
5.05679e-07
5.04077e-07
5.02467e-07
5.0085e-07
4.99226e-07
4.97597e-07
4.95963e-07
4.94326e-07
4.92684e-07
4.91039e-07
4.89391e-07
4.87741e-07
4.86088e-07
4.84432e-07
4.82775e-07
4.81117e-07
4.79457e-07
4.77796e-07
4.76136e-07
4.74475e-07
4.72814e-07
4.71155e-07
4.69496e-07
4.67838e-07
4.66182e-07
4.64526e-07
4.62873e-07
4.61219e-07
4.59566e-07
4.57913e-07
4.56258e-07
4.54601e-07
4.52939e-07
4.5127e-07
4.49591e-07
4.47898e-07
4.46182e-07
4.44436e-07
4.42645e-07
4.40796e-07
4.38869e-07
4.36859e-07
4.34775e-07
4.32699e-07
5.31373e-07
5.30943e-07
5.3016e-07
5.29076e-07
5.2776e-07
5.26283e-07
5.24702e-07
5.23056e-07
5.21366e-07
5.19644e-07
5.17896e-07
5.16126e-07
5.14342e-07
5.12549e-07
5.10753e-07
5.08957e-07
5.07161e-07
5.05366e-07
5.03573e-07
5.0178e-07
4.99986e-07
4.98193e-07
4.96398e-07
4.94602e-07
4.92803e-07
4.91002e-07
4.89197e-07
4.87389e-07
4.85578e-07
4.83762e-07
4.81942e-07
4.80117e-07
4.78289e-07
4.76456e-07
4.74619e-07
4.72778e-07
4.70935e-07
4.69087e-07
4.67237e-07
4.65382e-07
4.63527e-07
4.61666e-07
4.59806e-07
4.57939e-07
4.56073e-07
4.54198e-07
4.52326e-07
4.5044e-07
4.48558e-07
4.46657e-07
4.4476e-07
4.42835e-07
4.40916e-07
4.38957e-07
4.37008e-07
4.35001e-07
4.33012e-07
4.30943e-07
4.28911e-07
4.26811e-07
5.43164e-07
5.42416e-07
5.41008e-07
5.39064e-07
5.36789e-07
5.34382e-07
5.31967e-07
5.29596e-07
5.2727e-07
5.24978e-07
5.2271e-07
5.20466e-07
5.18251e-07
5.1607e-07
5.13925e-07
5.11814e-07
5.09733e-07
5.07676e-07
5.05639e-07
5.03619e-07
5.01612e-07
4.99615e-07
4.97626e-07
4.95642e-07
4.93662e-07
4.91682e-07
4.89702e-07
4.8772e-07
4.85734e-07
4.83744e-07
4.8175e-07
4.7975e-07
4.77744e-07
4.75732e-07
4.73714e-07
4.71689e-07
4.69659e-07
4.67621e-07
4.65581e-07
4.63531e-07
4.6148e-07
4.59419e-07
4.57361e-07
4.55288e-07
4.53225e-07
4.51142e-07
4.49077e-07
4.46984e-07
4.44925e-07
4.42828e-07
4.40789e-07
4.38694e-07
4.36701e-07
4.34625e-07
4.3272e-07
4.30682e-07
4.28924e-07
4.26934e-07
4.25363e-07
4.23311e-07
5.5196e-07
5.50235e-07
5.47595e-07
5.44478e-07
5.41273e-07
5.38193e-07
5.35288e-07
5.32521e-07
5.29843e-07
5.27222e-07
5.24653e-07
5.22142e-07
5.19694e-07
5.17309e-07
5.14982e-07
5.12702e-07
5.10461e-07
5.08251e-07
5.06065e-07
5.039e-07
5.01749e-07
4.9961e-07
4.9748e-07
4.95353e-07
4.93229e-07
4.91103e-07
4.88975e-07
4.86842e-07
4.84703e-07
4.82556e-07
4.80402e-07
4.78239e-07
4.76068e-07
4.73888e-07
4.71699e-07
4.69501e-07
4.67296e-07
4.65081e-07
4.62861e-07
4.6063e-07
4.58399e-07
4.56154e-07
4.53912e-07
4.51653e-07
4.49406e-07
4.47131e-07
4.44881e-07
4.42588e-07
4.40345e-07
4.38032e-07
4.35817e-07
4.33485e-07
4.31353e-07
4.29025e-07
4.27116e-07
4.24868e-07
4.23523e-07
4.21427e-07
4.21249e-07
4.18898e-07
6.00025e-07
5.85905e-07
5.72145e-07
5.61578e-07
5.54169e-07
5.48794e-07
5.44363e-07
5.40307e-07
5.36457e-07
5.32822e-07
5.29437e-07
5.26307e-07
5.23399e-07
5.20661e-07
5.18048e-07
5.15527e-07
5.13075e-07
5.1068e-07
5.0833e-07
5.06017e-07
5.03732e-07
5.01468e-07
4.99219e-07
4.96977e-07
4.9474e-07
4.92504e-07
4.90265e-07
4.88021e-07
4.85771e-07
4.83514e-07
4.81247e-07
4.78971e-07
4.76685e-07
4.74389e-07
4.72083e-07
4.69767e-07
4.67443e-07
4.65111e-07
4.62771e-07
4.60424e-07
4.58071e-07
4.55712e-07
4.53348e-07
4.5098e-07
4.48606e-07
4.46226e-07
4.43842e-07
4.41449e-07
4.3905e-07
4.36633e-07
4.34215e-07
4.3175e-07
4.29313e-07
4.26742e-07
4.24321e-07
4.21441e-07
4.19315e-07
4.15189e-07
4.15148e-07
4.04782e-07
3.96366e-07
3.94636e-07
3.89424e-07
3.82957e-07
3.76639e-07
3.71379e-07
3.67672e-07
3.65618e-07
3.64981e-07
3.65249e-07
3.65797e-07
3.66124e-07
3.65978e-07
3.65425e-07
3.64757e-07
4.05347e-07
4.01313e-07
3.9467e-07
3.88354e-07
3.83587e-07
3.80558e-07
3.79046e-07
3.78663e-07
3.78959e-07
3.79359e-07
3.79419e-07
3.79051e-07
3.7851e-07
3.78193e-07
3.78426e-07
3.79405e-07
3.81039e-07
3.83163e-07
3.85419e-07
3.87425e-07
3.89163e-07
3.90817e-07
3.92124e-07
3.92091e-07
3.89153e-07
3.81858e-07
3.65681e-07
3.31447e-07
2.912e-07
9.51872e-08
4.06647e-07
4.0307e-07
3.98959e-07
3.95379e-07
3.92864e-07
3.91325e-07
3.9033e-07
3.89448e-07
3.88486e-07
3.8761e-07
3.87272e-07
3.87841e-07
3.89345e-07
3.91521e-07
3.94055e-07
3.96769e-07
3.99592e-07
4.02434e-07
4.05333e-07
4.08462e-07
4.12172e-07
4.16332e-07
4.20197e-07
4.22896e-07
4.23565e-07
4.2081e-07
4.10279e-07
3.87639e-07
3.48066e-07
1.91537e-07
4.10351e-07
4.07932e-07
4.05819e-07
4.04112e-07
4.02853e-07
4.0198e-07
4.01353e-07
4.00909e-07
4.00743e-07
4.01128e-07
4.02262e-07
4.04168e-07
4.06703e-07
4.09571e-07
4.12478e-07
4.15327e-07
4.183e-07
4.21753e-07
4.26047e-07
4.31382e-07
4.37556e-07
4.43985e-07
4.50044e-07
4.55543e-07
4.6e-07
4.6191e-07
4.57707e-07
4.43871e-07
4.09098e-07
2.87883e-07
4.16896e-07
4.15151e-07
4.14064e-07
4.13408e-07
4.13019e-07
4.12852e-07
4.12942e-07
4.13368e-07
4.14224e-07
4.15562e-07
4.17341e-07
4.19443e-07
4.21752e-07
4.24301e-07
4.27321e-07
4.31181e-07
4.36137e-07
4.42175e-07
4.49104e-07
4.56696e-07
4.64585e-07
4.7261e-07
4.80966e-07
4.89736e-07
4.98205e-07
5.04786e-07
5.06802e-07
5.00688e-07
4.74039e-07
3.83738e-07
4.24908e-07
4.23759e-07
4.23385e-07
4.2351e-07
4.23916e-07
4.24526e-07
4.25377e-07
4.26548e-07
4.281e-07
4.30052e-07
4.324e-07
4.35155e-07
4.38391e-07
4.42291e-07
4.47048e-07
4.52741e-07
4.59347e-07
4.66688e-07
4.74536e-07
4.82828e-07
4.91807e-07
5.01926e-07
5.13404e-07
5.2579e-07
5.38071e-07
5.49111e-07
5.57e-07
5.5819e-07
5.41028e-07
4.76517e-07
4.34033e-07
4.3345e-07
4.33687e-07
4.34465e-07
4.35552e-07
4.36851e-07
4.3838e-07
4.40214e-07
4.42433e-07
4.451e-07
4.48265e-07
4.51988e-07
4.56334e-07
4.61368e-07
4.67128e-07
4.73598e-07
4.80734e-07
4.88586e-07
4.9739e-07
5.07531e-07
5.19321e-07
5.32735e-07
5.47416e-07
5.6277e-07
5.78376e-07
5.93789e-07
6.07397e-07
6.15628e-07
6.08448e-07
5.65521e-07
4.43728e-07
4.43722e-07
4.44522e-07
4.45875e-07
4.4756e-07
4.49483e-07
4.51657e-07
4.54159e-07
4.57078e-07
4.60495e-07
4.64469e-07
4.69052e-07
4.74286e-07
4.80217e-07
4.86895e-07
4.94403e-07
5.02868e-07
5.12505e-07
5.23536e-07
5.36049e-07
5.50017e-07
5.65255e-07
5.81623e-07
5.99273e-07
6.18375e-07
6.38361e-07
6.57399e-07
6.72175e-07
6.74359e-07
6.48843e-07
4.53751e-07
4.54316e-07
4.55648e-07
4.57527e-07
4.59762e-07
4.62268e-07
4.65063e-07
4.68223e-07
4.71838e-07
4.75989e-07
4.80742e-07
4.86152e-07
4.92274e-07
4.99179e-07
5.06956e-07
5.15711e-07
5.25568e-07
5.3665e-07
5.49066e-07
5.6288e-07
5.78125e-07
5.94946e-07
6.13702e-07
6.34686e-07
6.57718e-07
6.81905e-07
7.05639e-07
7.2627e-07
7.37029e-07
7.25598e-07
4.63674e-07
4.64792e-07
4.66613e-07
4.68965e-07
4.71692e-07
4.74732e-07
4.78105e-07
4.81884e-07
4.86156e-07
4.91002e-07
4.96489e-07
5.02682e-07
5.09646e-07
5.17463e-07
5.26225e-07
5.36041e-07
5.47029e-07
5.59313e-07
5.73038e-07
5.88379e-07
6.05566e-07
6.24859e-07
6.46423e-07
6.70185e-07
6.95873e-07
7.23001e-07
7.50708e-07
7.76669e-07
7.94866e-07
7.94298e-07
4.73103e-07
4.7474e-07
4.77005e-07
4.79777e-07
4.82945e-07
4.86467e-07
4.90369e-07
4.94719e-07
4.99597e-07
5.05084e-07
5.1125e-07
5.18165e-07
5.25905e-07
5.34558e-07
5.44225e-07
5.55027e-07
5.67098e-07
5.80592e-07
5.95681e-07
6.12557e-07
6.31417e-07
6.52439e-07
6.7576e-07
7.01427e-07
7.2944e-07
7.59646e-07
7.91315e-07
8.22009e-07
8.46393e-07
8.54018e-07
4.81581e-07
4.83682e-07
4.8633e-07
4.89457e-07
4.92998e-07
4.96933e-07
5.01291e-07
5.06135e-07
5.11539e-07
5.17581e-07
5.24334e-07
5.31874e-07
5.40283e-07
5.49655e-07
5.60103e-07
5.71751e-07
5.84744e-07
5.99245e-07
6.15432e-07
6.33498e-07
6.53654e-07
6.76109e-07
7.01092e-07
7.28787e-07
7.5929e-07
7.92321e-07
8.27033e-07
8.61145e-07
8.9024e-07
9.03653e-07
4.88663e-07
4.91147e-07
4.94105e-07
4.97514e-07
5.0135e-07
5.05615e-07
5.10341e-07
5.15585e-07
5.21417e-07
5.2791e-07
5.3514e-07
5.43186e-07
5.52137e-07
5.62094e-07
5.73173e-07
5.85507e-07
5.99246e-07
6.1456e-07
6.3164e-07
6.50694e-07
6.71954e-07
6.9566e-07
7.22053e-07
7.51307e-07
7.835e-07
8.1838e-07
8.55274e-07
8.92105e-07
9.25039e-07
9.42585e-07
4.93938e-07
4.96704e-07
4.99884e-07
5.03492e-07
5.07537e-07
5.12036e-07
5.17026e-07
5.22557e-07
5.28696e-07
5.35512e-07
5.43083e-07
5.51491e-07
5.6083e-07
5.71205e-07
5.82735e-07
5.95557e-07
6.09827e-07
6.25721e-07
6.43436e-07
6.6319e-07
6.85225e-07
7.09785e-07
7.37123e-07
7.6743e-07
8.00824e-07
8.37116e-07
8.75713e-07
9.14575e-07
9.50151e-07
9.70421e-07
4.97094e-07
5.0002e-07
5.03325e-07
5.07044e-07
5.11203e-07
5.15831e-07
5.20967e-07
5.26659e-07
5.32969e-07
5.39966e-07
5.47727e-07
5.56338e-07
5.65893e-07
5.765e-07
5.88283e-07
6.0138e-07
6.15949e-07
6.3217e-07
6.50245e-07
6.70396e-07
6.9287e-07
7.17922e-07
7.45813e-07
7.76752e-07
8.10872e-07
8.47997e-07
8.87561e-07
9.27563e-07
9.64646e-07
9.86537e-07
4.97951e-07
5.00906e-07
5.04234e-07
5.07971e-07
5.12147e-07
5.16793e-07
5.21951e-07
5.27669e-07
5.34008e-07
5.41034e-07
5.48826e-07
5.57468e-07
5.67058e-07
5.77704e-07
5.89529e-07
6.02673e-07
6.17295e-07
6.33576e-07
6.51718e-07
6.71948e-07
6.94514e-07
7.19673e-07
7.47693e-07
7.78787e-07
8.13097e-07
8.50456e-07
8.90317e-07
9.30696e-07
9.68281e-07
9.90761e-07
4.96493e-07
4.99347e-07
5.02598e-07
5.06261e-07
5.10355e-07
5.14909e-07
5.19965e-07
5.25573e-07
5.31796e-07
5.38699e-07
5.46361e-07
5.54865e-07
5.64307e-07
5.74795e-07
5.86452e-07
5.99414e-07
6.13842e-07
6.29913e-07
6.4783e-07
6.67818e-07
6.90124e-07
7.15005e-07
7.42727e-07
7.73501e-07
8.07468e-07
8.44469e-07
8.8396e-07
9.23948e-07
9.61032e-07
9.83057e-07
4.92882e-07
4.95512e-07
4.98584e-07
5.02082e-07
5.05999e-07
5.10354e-07
5.1519e-07
5.20561e-07
5.2653e-07
5.33167e-07
5.40546e-07
5.4875e-07
5.57871e-07
5.68015e-07
5.79301e-07
5.91864e-07
6.05861e-07
6.21466e-07
6.38878e-07
6.58316e-07
6.80024e-07
7.04254e-07
7.31269e-07
7.61274e-07
7.94397e-07
8.30454e-07
8.68866e-07
9.07631e-07
9.43148e-07
9.63619e-07
4.87397e-07
4.89696e-07
4.92501e-07
4.95752e-07
4.99406e-07
5.03468e-07
5.07978e-07
5.12996e-07
5.1859e-07
5.2483e-07
5.31789e-07
5.39545e-07
5.48188e-07
5.57816e-07
5.68547e-07
5.80509e-07
5.93855e-07
6.08754e-07
6.25398e-07
6.43995e-07
6.64777e-07
6.87976e-07
7.13843e-07
7.42586e-07
7.74341e-07
8.08927e-07
8.45688e-07
8.82516e-07
9.15369e-07
9.33051e-07
4.80423e-07
4.8231e-07
4.84774e-07
4.87705e-07
4.9102e-07
4.94706e-07
4.98801e-07
5.03371e-07
5.08489e-07
5.14224e-07
5.20649e-07
5.27836e-07
5.35869e-07
5.44842e-07
5.54864e-07
5.66059e-07
5.7857e-07
5.92559e-07
6.08212e-07
6.25734e-07
6.45352e-07
6.67282e-07
6.91717e-07
7.18773e-07
7.48494e-07
7.80731e-07
8.1493e-07
8.4898e-07
8.78146e-07
8.91774e-07
4.72394e-07
4.73809e-07
4.75871e-07
4.78419e-07
4.81329e-07
4.84569e-07
4.88176e-07
4.92219e-07
4.96777e-07
5.0192e-07
5.07716e-07
5.14233e-07
5.21545e-07
5.29741e-07
5.38922e-07
5.49205e-07
5.6072e-07
5.73607e-07
5.88026e-07
6.04162e-07
6.22254e-07
6.42576e-07
6.65363e-07
6.90677e-07
7.18389e-07
7.4808e-07
7.78973e-07
8.09009e-07
8.32954e-07
8.40341e-07
4.63756e-07
4.64662e-07
4.66275e-07
4.68387e-07
4.70841e-07
4.73586e-07
4.76654e-07
4.8012e-07
4.84063e-07
4.88558e-07
4.93666e-07
4.99448e-07
5.0597e-07
5.13308e-07
5.21557e-07
5.30832e-07
5.41268e-07
5.53008e-07
5.66186e-07
5.80908e-07
5.97255e-07
6.15379e-07
6.35618e-07
6.58314e-07
6.83498e-07
7.1055e-07
7.38065e-07
7.63578e-07
7.81139e-07
7.79705e-07
4.54894e-07
4.55272e-07
4.56393e-07