/*--------------------------------*- C++ -*----------------------------------*\
| =========                 |                                                 |
| \\      /  F ield         | OpenFOAM: The Open Source CFD Toolbox           |
|  \\    /   O peration     | Version:  2312                                  |
|   \\  /    A nd           | Website:  www.openfoam.com                      |
|    \\/     M anipulation  |                                                 |
\*---------------------------------------------------------------------------*/
FoamFile
{
    version     2.0;
    format      ascii;
    arch        "LSB;label=32;scalar=64";
    class       volScalarField;
    location    "68000";
    object      p;
}
// * * * * * * * * * * * * * * * * * * * * * * * * * * * * * * * * * * * * * //

dimensions      [0 2 -2 0 0 0 0];

internalField   nonuniform List<scalar> 
2685
(
-2.15777e-08
-1.8368e-08
-1.54674e-08
-1.28568e-08
-1.05168e-08
-8.42813e-09
-6.57202e-09
-4.93005e-09
-3.48445e-09
-2.21817e-09
-1.11495e-09
-1.59362e-10
6.63159e-10
1.36628e-09
1.96278e-09
2.46455e-09
2.88261e-09
3.22711e-09
3.5074e-09
3.73198e-09
3.90864e-09
4.04438e-09
4.14554e-09
4.21778e-09
4.26614e-09
4.29505e-09
4.30843e-09
4.30965e-09
4.30164e-09
4.28686e-09
4.26741e-09
4.24499e-09
4.22099e-09
4.19651e-09
4.17238e-09
4.14916e-09
4.12724e-09
4.10677e-09
4.08778e-09
4.0701e-09
4.05347e-09
4.03751e-09
4.02177e-09
4.00571e-09
3.98877e-09
3.97034e-09
3.9498e-09
3.92655e-09
3.9e-09
3.86961e-09
3.83492e-09
3.79552e-09
3.7511e-09
3.70145e-09
3.64647e-09
3.58614e-09
3.52053e-09
3.44982e-09
3.37422e-09
3.29406e-09
3.2097e-09
3.12156e-09
3.0301e-09
2.93581e-09
2.83915e-09
2.74058e-09
2.64051e-09
2.53933e-09
2.43738e-09
2.33492e-09
2.2322e-09
2.12937e-09
2.02651e-09
1.92362e-09
1.82063e-09
1.71734e-09
1.61347e-09
1.50865e-09
1.40236e-09
1.29402e-09
1.18291e-09
1.0683e-09
9.4926e-10
8.24973e-10
6.94369e-10
5.5658e-10
4.10718e-10
2.55084e-10
9.12374e-11
-2.16701e-08
-1.84619e-08
-1.55654e-08
-1.29607e-08
-1.06279e-08
-8.54727e-09
-6.6995e-09
-5.06582e-09
-3.62818e-09
-2.36927e-09
-1.27264e-09
-3.2272e-10
4.95143e-10
1.19468e-09
1.7887e-09
2.28908e-09
2.70681e-09
3.05201e-09
3.33394e-09
3.56107e-09
3.74109e-09
3.88093e-09
3.98685e-09
4.06442e-09
4.11861e-09
4.15379e-09
4.17378e-09
4.1819e-09
4.18098e-09
4.17345e-09
4.16131e-09
4.14622e-09
4.12951e-09
4.11223e-09
4.09514e-09
4.07881e-09
4.06356e-09
4.04954e-09
4.03674e-09
4.02501e-09
4.01406e-09
4.00352e-09
3.99291e-09
3.98168e-09
3.96921e-09
3.95487e-09
3.93798e-09
3.91792e-09
3.89405e-09
3.86582e-09
3.83272e-09
3.79437e-09
3.75048e-09
3.70087e-09
3.64549e-09
3.58437e-09
3.51767e-09
3.44561e-09
3.36851e-09
3.28676e-09
3.20077e-09
3.11102e-09
3.01799e-09
2.9222e-09
2.82414e-09
2.72431e-09
2.62315e-09
2.52109e-09
2.41851e-09
2.31572e-09
2.21297e-09
2.11047e-09
2.00829e-09
1.90648e-09
1.80492e-09
1.70345e-09
1.60174e-09
1.49939e-09
1.39581e-09
1.2904e-09
1.18239e-09
1.07082e-09
9.54998e-10
8.33201e-10
7.05537e-10
5.6829e-10
4.24069e-10
2.64707e-10
9.89589e-11
-2.30129e-08
-1.97951e-08
-1.68849e-08
-1.42625e-08
-1.19081e-08
-9.80222e-09
-7.92579e-09
-6.26033e-09
-4.7881e-09
-3.49214e-09
-2.35637e-09
-1.36559e-09
-5.05504e-10
2.3725e-10
8.75122e-10
1.41967e-09
1.88155e-09
2.27059e-09
2.59577e-09
2.86529e-09
3.08662e-09
3.26652e-09
3.41107e-09
3.52574e-09
3.61539e-09
3.68433e-09
3.73635e-09
3.77473e-09
3.80234e-09
3.8216e-09
3.83456e-09
3.84294e-09
3.84816e-09
3.85134e-09
3.85336e-09
3.8549e-09
3.85639e-09
3.85809e-09
3.86008e-09
3.86227e-09
3.86445e-09
3.86628e-09
3.86733e-09
3.86709e-09
3.86501e-09
3.86047e-09
3.85285e-09
3.84149e-09
3.82575e-09
3.80507e-09
3.77891e-09
3.74685e-09
3.70855e-09
3.66379e-09
3.61249e-09
3.55466e-09
3.49046e-09
3.42013e-09
3.34405e-09
3.26266e-09
3.17648e-09
3.08606e-09
2.992e-09
2.89489e-09
2.7953e-09
2.69379e-09
2.59088e-09
2.48704e-09
2.38271e-09
2.27825e-09
2.17402e-09
2.07024e-09
1.96715e-09
1.8648e-09
1.76328e-09
1.66236e-09
1.562e-09
1.46151e-09
1.36087e-09
1.25863e-09
1.15517e-09
1.04768e-09
9.37811e-10
8.20251e-10
6.99329e-10
5.65435e-10
4.27739e-10
2.69734e-10
1.08823e-10
-2.58601e-08
-2.26433e-08
-1.97182e-08
-1.70663e-08
-1.46696e-08
-1.25101e-08
-1.05703e-08
-8.83312e-09
-7.28217e-09
-5.90174e-09
-4.6769e-09
-3.59352e-09
-2.63832e-09
-1.79882e-09
-1.06339e-09
-4.21233e-10
1.37681e-10
6.22602e-10
1.04203e-09
1.40374e-09
1.71482e-09
1.98172e-09
2.21026e-09
2.40571e-09
2.57276e-09
2.71561e-09
2.83798e-09
2.94312e-09
3.03386e-09
3.11265e-09
3.18158e-09
3.24242e-09
3.29664e-09
3.3455e-09
3.38997e-09
3.43086e-09
3.46875e-09
3.50408e-09
3.53709e-09
3.56788e-09
3.5964e-09
3.62248e-09
3.64584e-09
3.66611e-09
3.68284e-09
3.69552e-09
3.70358e-09
3.70644e-09
3.70354e-09
3.69435e-09
3.67842e-09
3.65538e-09
3.62498e-09
3.58708e-09
3.54165e-09
3.48878e-09
3.42863e-09
3.36151e-09
3.2878e-09
3.208e-09
3.12265e-09
3.03243e-09
2.93801e-09
2.84012e-09
2.73947e-09
2.63674e-09
2.53258e-09
2.42751e-09
2.32209e-09
2.21663e-09
2.11161e-09
2.00711e-09
1.90357e-09
1.8008e-09
1.69928e-09
1.59833e-09
1.49865e-09
1.3987e-09
1.29981e-09
1.1989e-09
1.09868e-09
9.93591e-10
8.88848e-10
7.75083e-10
6.61544e-10
5.33421e-10
4.05949e-10
2.57137e-10
1.10502e-10
-2.98575e-08
-2.66666e-08
-2.37378e-08
-2.10564e-08
-1.86071e-08
-1.63749e-08
-1.43452e-08
-1.25036e-08
-1.08364e-08
-9.33015e-09
-7.97208e-09
-6.74992e-09
-5.65208e-09
-4.66756e-09
-3.78601e-09
-2.99776e-09
-2.29388e-09
-1.66614e-09
-1.10688e-09
-6.08964e-10
-1.65839e-10
2.28493e-10
5.79478e-10
8.92049e-10
1.17069e-09
1.41944e-09
1.64196e-09
1.84147e-09
2.02084e-09
2.18257e-09
2.32886e-09
2.46163e-09
2.58254e-09
2.69302e-09
2.79431e-09
2.88748e-09
2.97341e-09
3.05282e-09
3.12625e-09
3.1941e-09
3.25657e-09
3.31374e-09
3.36554e-09
3.41177e-09
3.45213e-09
3.48627e-09
3.51376e-09
3.53416e-09
3.54703e-09
3.55197e-09
3.54864e-09
3.5368e-09
3.51629e-09
3.48708e-09
3.44924e-09
3.40295e-09
3.34848e-09
3.28622e-09
3.21663e-09
3.14028e-09
3.0578e-09
2.96988e-09
2.87724e-09
2.7806e-09
2.68073e-09
2.57826e-09
2.47393e-09
2.36824e-09
2.26184e-09
2.15504e-09
2.04847e-09
1.94217e-09
1.83682e-09
1.73205e-09
1.6288e-09
1.52594e-09
1.42504e-09
1.32367e-09
1.22457e-09
1.1233e-09
1.02451e-09
9.20815e-10
8.198e-10
7.10089e-10
6.0331e-10
4.83179e-10
3.66428e-10
2.31573e-10
1.01104e-10
-3.38912e-08
-3.07512e-08
-2.78398e-08
-2.51461e-08
-2.26589e-08
-2.03668e-08
-1.82578e-08
-1.63202e-08
-1.45426e-08
-1.29143e-08
-1.1425e-08
-1.00647e-08
-8.82356e-09
-7.69266e-09
-6.66313e-09
-5.72632e-09
-4.87418e-09
-4.09954e-09
-3.39576e-09
-2.75655e-09
-2.17598e-09
-1.64852e-09
-1.16905e-09
-7.32933e-10
-3.35907e-10
2.59087e-11
3.56013e-10
6.57542e-10
9.33305e-10
1.18582e-09
1.41733e-09
1.62984e-09
1.82513e-09
2.00479e-09
2.17024e-09
2.32273e-09
2.46334e-09
2.59296e-09
2.71238e-09
2.82223e-09
2.923e-09
3.01502e-09
3.09847e-09
3.17341e-09
3.23974e-09
3.29729e-09
3.3458e-09
3.38499e-09
3.41456e-09
3.43426e-09
3.44387e-09
3.44328e-09
3.43248e-09
3.41156e-09
3.38072e-09
3.34024e-09
3.2905e-09
3.23193e-09
3.16514e-09
3.09085e-09
3.00978e-09
2.92271e-09
2.83047e-09
2.73387e-09
2.63375e-09
2.53086e-09
2.42598e-09
2.31968e-09
2.21267e-09
2.10523e-09
1.99807e-09
1.89108e-09
1.78512e-09
1.67953e-09
1.57558e-09
1.47171e-09
1.37006e-09
1.26761e-09
1.16799e-09
1.06598e-09
9.67458e-10
8.64154e-10
7.65052e-10
6.57984e-10
5.558e-10
4.41945e-10
3.33501e-10
2.09988e-10
9.2524e-11
-3.73359e-08
-3.42668e-08
-3.13948e-08
-2.87119e-08
-2.62099e-08
-2.38807e-08
-2.17165e-08
-1.9709e-08
-1.78489e-08
-1.61267e-08
-1.45336e-08
-1.30616e-08
-1.17024e-08
-1.04481e-08
-9.29147e-09
-8.2258e-09
-7.24436e-09
-6.34067e-09
-5.50861e-09
-4.74252e-09
-4.03728e-09
-3.3883e-09
-2.79144e-09
-2.24236e-09
-1.73678e-09
-1.27084e-09
-8.41217e-10
-4.44901e-10
-7.91609e-11
2.58483e-10
5.70267e-10
8.58201e-10
1.12409e-09
1.36958e-09
1.59618e-09
1.80538e-09
1.99851e-09
2.17666e-09
2.34082e-09
2.4919e-09
2.63065e-09
2.75762e-09
2.8732e-09
2.97758e-09
3.07081e-09
3.15278e-09
3.22332e-09
3.28215e-09
3.32904e-09
3.36377e-09
3.3862e-09
3.3963e-09
3.3942e-09
3.38014e-09
3.35451e-09
3.31779e-09
3.2705e-09
3.21287e-09
3.14618e-09
3.07141e-09
2.98941e-09
2.90108e-09
2.80732e-09
2.70901e-09
2.60708e-09
2.50232e-09
2.39549e-09
2.28722e-09
2.17824e-09
2.06884e-09
1.95978e-09
1.85096e-09
1.74333e-09
1.63615e-09
1.53088e-09
1.42574e-09
1.32323e-09
1.21995e-09
1.12014e-09
1.01798e-09
9.20354e-10
8.18049e-10
7.2156e-10
6.17337e-10
5.20323e-10
4.11978e-10
3.12022e-10
1.97062e-10
9.13264e-11
-4.01923e-08
-3.72136e-08
-3.4405e-08
-3.17606e-08
-2.92742e-08
-2.69384e-08
-2.47461e-08
-2.26917e-08
-2.07708e-08
-1.89777e-08
-1.73049e-08
-1.57451e-08
-1.42924e-08
-1.29392e-08
-1.16776e-08
-1.05017e-08
-9.4081e-09
-8.39211e-09
-7.44783e-09
-6.56956e-09
-5.75259e-09
-4.99265e-09
-4.28796e-09
-3.63493e-09
-3.02915e-09
-2.46678e-09
-1.94469e-09
-1.46007e-09
-1.0103e-09
-5.92968e-10
-2.05824e-10
1.53188e-10
4.85962e-10
7.94237e-10
1.07958e-09
1.34339e-09
1.58703e-09
1.81188e-09
2.01924e-09
2.21025e-09
2.38589e-09
2.54697e-09
2.69409e-09
2.82764e-09
2.94779e-09
3.05451e-09
3.14761e-09
3.22683e-09
3.29184e-09
3.34236e-09
3.37819e-09
3.39931e-09
3.40585e-09
3.39821e-09
3.37699e-09
3.34315e-09
3.2989e-09
3.23691e-09
3.16614e-09
3.08694e-09
2.99979e-09
2.90575e-09
2.80582e-09
2.70108e-09
2.59268e-09
2.48205e-09
2.36978e-09
2.25652e-09
2.14284e-09
2.02927e-09
1.91648e-09
1.80451e-09
1.69411e-09
1.58471e-09
1.47754e-09
1.37106e-09
1.26753e-09
1.16385e-09
1.06408e-09
9.62649e-10
8.66393e-10
7.66247e-10
6.72877e-10
5.7271e-10
4.81131e-10
3.79408e-10
2.87853e-10
1.82461e-10
8.74623e-11
-4.2883e-08
-4.00152e-08
-3.7288e-08
-3.46992e-08
-3.22458e-08
-2.99248e-08
-2.77317e-08
-2.56564e-08
-2.36897e-08
-2.183e-08
-2.00783e-08
-1.843e-08
-1.68823e-08
-1.54295e-08
-1.40659e-08
-1.27815e-08
-1.15744e-08
-1.04432e-08
-9.38369e-09
-8.39148e-09
-7.46318e-09
-6.59573e-09
-5.78346e-09
-5.02279e-09
-4.31153e-09
-3.64736e-09
-3.02758e-09
-2.4495e-09
-1.9106e-09
-1.40859e-09
-9.41329e-10
-5.06848e-10
-1.03307e-10
2.71012e-10
6.1775e-10
9.38498e-10
1.23484e-09
1.50836e-09
1.76054e-09
1.99273e-09
2.20612e-09
2.40175e-09
2.58041e-09
2.74269e-09
2.8889e-09
3.01913e-09
3.13328e-09
3.2311e-09
3.31229e-09
3.37652e-09
3.42357e-09
3.45338e-09
3.46606e-09
3.46193e-09
3.44153e-09
3.40555e-09
3.3536e-09
3.29514e-09
3.22345e-09
3.14064e-09
3.04853e-09
2.94861e-09
2.84198e-09
2.7295e-09
2.6128e-09
2.49547e-09
2.37567e-09
2.25526e-09
2.13437e-09
2.01387e-09
1.89439e-09
1.77665e-09
1.66083e-09
1.54711e-09
1.43587e-09
1.3266e-09
1.2202e-09
1.11517e-09
1.01366e-09
9.12412e-10
8.15492e-10
7.1717e-10
6.24085e-10
5.27528e-10
4.37026e-10
3.41103e-10
2.5184e-10
1.56128e-10
6.67105e-11
-4.56147e-08
-4.28872e-08
-4.02614e-08
-3.77392e-08
-3.53217e-08
-3.30068e-08
-3.08018e-08
-2.87074e-08
-2.67183e-08
-2.4813e-08
-2.29939e-08
-2.12658e-08
-1.96216e-08
-1.80569e-08
-1.65721e-08
-1.51712e-08
-1.3848e-08
-1.2596e-08
-1.14127e-08
-1.02963e-08
-9.24424e-09
-8.2532e-09
-7.31975e-09
-6.44136e-09
-5.61604e-09
-4.84169e-09
-4.11599e-09
-3.43654e-09
-2.80105e-09
-2.20734e-09
-1.65331e-09
-1.13696e-09
-6.56415e-10
-2.09865e-10
2.04408e-10
5.88043e-10
9.42618e-10
1.26967e-09
1.57069e-09
1.84717e-09
2.1005e-09
2.33198e-09
2.54271e-09
2.73356e-09
2.90515e-09
3.05788e-09
3.19192e-09
3.30729e-09
3.40388e-09
3.48156e-09
3.54023e-09
3.57992e-09
3.60082e-09
3.60338e-09
3.58825e-09
3.55642e-09
3.50917e-09
3.44829e-09
3.37462e-09
3.28965e-09
3.19482e-09
3.09179e-09
2.98189e-09
2.86734e-09
2.74872e-09
2.62483e-09
2.49901e-09
2.37263e-09
2.24635e-09
2.11956e-09
1.99427e-09
1.87054e-09
1.74807e-09
1.62771e-09
1.50884e-09
1.39295e-09
1.27887e-09
1.16816e-09
1.0593e-09
9.53627e-10
8.4915e-10
7.47269e-10
6.45497e-10
5.45767e-10
4.44205e-10
3.44686e-10
2.40811e-10
1.4141e-10
3.61165e-11
-4.83109e-08
-4.57359e-08
-4.32294e-08
-4.07939e-08
-3.84301e-08
-3.61473e-08
-3.39384e-08
-3.18012e-08
-2.97382e-08
-2.77651e-08
-2.58739e-08
-2.40576e-08
-2.23159e-08
-2.065e-08
-1.90599e-08
-1.75445e-08
-1.61004e-08
-1.47246e-08
-1.34157e-08
-1.2173e-08
-1.09946e-08
-9.87834e-09
-8.82221e-09
-7.82438e-09
-6.88305e-09
-5.99631e-09
-5.16222e-09
-4.37878e-09
-3.64403e-09
-2.95598e-09
-2.31268e-09
-1.71221e-09
-1.15268e-09
-6.32219e-10
-1.49006e-10
2.98761e-10
7.12823e-10
1.09485e-09
1.44643e-09
1.76908e-09
2.06422e-09
2.3332e-09
2.57726e-09
2.79746e-09
2.99474e-09
3.16986e-09
3.32343e-09
3.45595e-09
3.56778e-09
3.65927e-09
3.73071e-09
3.78247e-09
3.81498e-09
3.82881e-09
3.82472e-09
3.80367e-09
3.76672e-09
3.71516e-09
3.65018e-09
3.57318e-09
3.48541e-09
3.38826e-09
3.28291e-09
3.17083e-09
3.05266e-09
2.92952e-09
2.80224e-09
2.67214e-09
2.53977e-09
2.40894e-09
2.27731e-09
2.14872e-09
2.02094e-09
1.89087e-09
1.76464e-09
1.6403e-09
1.51519e-09
1.39461e-09
1.27348e-09
1.15763e-09
1.03789e-09
9.24218e-10
8.03097e-10
6.89062e-10
5.6227e-10
4.43819e-10
3.05764e-10
1.78554e-10
2.49008e-11
-5.06016e-08
-4.81138e-08
-4.56822e-08
-4.33023e-08
-4.09795e-08
-3.87111e-08
-3.64991e-08
-3.43495e-08
-3.22677e-08
-3.02535e-08
-2.83038e-08
-2.64188e-08
-2.4601e-08
-2.2851e-08
-2.11684e-08
-1.95526e-08
-1.80035e-08
-1.65207e-08
-1.51037e-08
-1.37517e-08
-1.24639e-08
-1.12391e-08
-1.00762e-08
-8.9738e-09
-7.93053e-09
-6.94489e-09
-6.01531e-09
-5.14015e-09
-4.3177e-09
-3.5462e-09
-2.82381e-09
-2.14868e-09
-1.51897e-09
-9.3281e-10
-3.88365e-10
1.162e-10
5.82702e-10
1.01294e-09
1.40871e-09
1.77172e-09
2.10362e-09
2.40593e-09
2.68007e-09
2.92738e-09
3.14909e-09
3.3463e-09
3.52002e-09
3.67112e-09
3.80037e-09
3.90846e-09
3.99602e-09
4.06362e-09
4.11182e-09
4.14124e-09
4.15255e-09
4.14652e-09
4.12399e-09
4.08596e-09
4.03349e-09
3.96778e-09
3.89e-09
3.80151e-09
3.7035e-09
3.59731e-09
3.4839e-09
3.36466e-09
3.24032e-09
3.1122e-09
2.98059e-09
2.84715e-09
2.71106e-09
2.57308e-09
2.43196e-09
2.29603e-09
2.15436e-09
2.01601e-09
1.87431e-09
1.73169e-09
1.59732e-09
1.46419e-09
1.32128e-09
1.185e-09
1.03581e-09
8.95742e-10
7.35969e-10
5.86881e-10
4.0881e-10
2.42145e-10
3.57044e-11
-5.20211e-08
-4.96196e-08
-4.72515e-08
-4.4921e-08
-4.26306e-08
-4.03833e-08
-3.81828e-08
-3.60318e-08
-3.39319e-08
-3.18855e-08
-2.98956e-08
-2.79644e-08
-2.60932e-08
-2.42832e-08
-2.25355e-08
-2.08511e-08
-1.92309e-08
-1.76752e-08
-1.61838e-08
-1.47567e-08
-1.33936e-08
-1.20939e-08
-1.08571e-08
-9.68211e-09
-8.56795e-09
-7.51344e-09
-6.51727e-09
-5.57798e-09
-4.69404e-09
-3.86382e-09
-3.08562e-09
-2.35768e-09
-1.67819e-09
-1.04529e-09
-4.57126e-10
8.81957e-11
5.92557e-10
1.05782e-09
1.48581e-09
1.87831e-09
2.23702e-09
2.56362e-09
2.85971e-09
3.12683e-09
3.36643e-09
3.57988e-09
3.76842e-09
3.9332e-09
4.07523e-09
4.19542e-09
4.29453e-09
4.37328e-09
4.43231e-09
4.47222e-09
4.49364e-09
4.49725e-09
4.48381e-09
4.45417e-09
4.40929e-09
4.3502e-09
4.27802e-09
4.19392e-09
4.09909e-09
3.99474e-09
3.88196e-09
3.76191e-09
3.6355e-09
3.50386e-09
3.36754e-09
3.2277e-09
3.08425e-09
2.93868e-09
2.79037e-09
2.64184e-09
2.49044e-09
2.33955e-09
2.18556e-09
2.03727e-09
1.87041e-09
1.71046e-09
1.54411e-09
1.38267e-09
1.20885e-09
1.0434e-09
8.57568e-10
6.80492e-10
4.78051e-10
2.84489e-10
5.76838e-11
-5.26572e-08
-5.03047e-08
-4.79739e-08
-4.56693e-08
-4.33958e-08
-4.11573e-08
-3.89576e-08
-3.68004e-08
-3.46893e-08
-3.26274e-08
-3.06177e-08
-2.86624e-08
-2.67635e-08
-2.49231e-08
-2.31425e-08
-2.14232e-08
-1.97662e-08
-1.81722e-08
-1.66417e-08
-1.5175e-08
-1.3772e-08
-1.24326e-08
-1.11562e-08
-9.94233e-09
-8.79004e-09
-7.69838e-09
-6.66617e-09
-5.69213e-09
-4.77482e-09
-3.91273e-09
-3.10423e-09
-2.3476e-09
-1.64107e-09
-9.82816e-10
-3.7098e-10
1.96318e-10
7.20961e-10
1.20483e-09
1.64978e-09
2.05767e-09
2.43028e-09
2.76937e-09
3.07663e-09
3.35369e-09
3.60206e-09
3.82318e-09
4.01838e-09
4.18884e-09
4.33566e-09
4.45978e-09
4.56208e-09
4.64332e-09
4.70418e-09
4.74533e-09
4.76742e-09
4.77118e-09
4.75736e-09
4.72678e-09
4.68043e-09
4.61927e-09
4.54449e-09
4.45717e-09
4.35858e-09
4.24979e-09
4.13206e-09
4.00637e-09
3.87383e-09
3.73527e-09
3.5915e-09
3.44323e-09
3.29089e-09
3.13533e-09
2.97644e-09
2.81535e-09
2.65106e-09
2.4856e-09
2.31682e-09
2.14773e-09
1.97334e-09
1.79964e-09
1.6206e-09
1.44365e-09
1.25956e-09
1.07597e-09
8.85068e-10
6.95654e-10
4.93942e-10
2.9447e-10
8.22847e-11
-5.27707e-08
-5.0435e-08
-4.81177e-08
-4.58239e-08
-4.35584e-08
-4.13255e-08
-3.91292e-08
-3.69734e-08
-3.48617e-08
-3.2797e-08
-3.07825e-08
-2.88206e-08
-2.69138e-08
-2.50641e-08
-2.32719e-08
-2.15411e-08
-1.98719e-08
-1.8265e-08
-1.67212e-08
-1.52406e-08
-1.38236e-08
-1.24699e-08
-1.11793e-08
-9.95118e-09
-8.78485e-09
-7.67939e-09
-6.63373e-09
-5.64663e-09
-4.71674e-09
-3.84257e-09
-3.02254e-09
-2.25497e-09
-1.53813e-09
-8.70215e-10
-2.49386e-10
3.2623e-10
8.58519e-10
1.34937e-09
1.80064e-09
2.21417e-09
2.59177e-09
2.93517e-09
3.24605e-09
3.52601e-09
3.77655e-09
3.99908e-09
4.19491e-09
4.36524e-09
4.51114e-09
4.63363e-09
4.73358e-09
4.81182e-09
4.86916e-09
4.90633e-09
4.92393e-09
4.92321e-09
4.90474e-09
4.86943e-09
4.81834e-09
4.75246e-09
4.67294e-09
4.58083e-09
4.47737e-09
4.36354e-09
4.24059e-09
4.10939e-09
3.97108e-09
3.82638e-09
3.67628e-09
3.52135e-09
3.36237e-09
3.19985e-09
3.03422e-09
2.86614e-09
2.69549e-09
2.52321e-09
2.34846e-09
2.17267e-09
1.99403e-09
1.81475e-09
1.63242e-09
1.44965e-09
1.26337e-09
1.07592e-09
8.85241e-10
6.92432e-10
4.97969e-10
2.99728e-10
1.03071e-10
-5.523e-08
-5.28856e-08
-5.05536e-08
-4.82392e-08
-4.59475e-08
-4.36832e-08
-4.14506e-08
-3.92538e-08
-3.70966e-08
-3.49826e-08
-3.29149e-08
-3.08966e-08
-2.89304e-08
-2.70185e-08
-2.51632e-08
-2.33674e-08
-2.16304e-08
-1.99545e-08
-1.83407e-08
-1.67897e-08
-1.53021e-08
-1.3878e-08
-1.25175e-08
-1.12202e-08
-9.98571e-09
-8.81332e-09
-7.70214e-09
-6.65113e-09
-5.65908e-09
-4.72464e-09
-3.84633e-09
-3.02256e-09
-2.25166e-09
-1.53185e-09
-8.61328e-10
-2.38224e-10
3.39346e-10
8.73282e-10
1.36548e-09
1.81783e-09
2.23219e-09
2.61037e-09
2.95413e-09
3.26517e-09
3.54511e-09
3.79546e-09
4.01767e-09
4.21305e-09
4.38282e-09
4.52808e-09
4.64983e-09
4.74898e-09
4.82637e-09
4.88278e-09
4.91901e-09
4.93602e-09
4.93415e-09
4.91464e-09
4.87834e-09
4.8263e-09
4.7595e-09
4.67911e-09
4.58617e-09
4.48193e-09
4.36739e-09
4.24378e-09
4.11196e-09
3.97308e-09
3.82785e-09
3.67727e-09
3.5219e-09
3.3625e-09
3.19959e-09
3.03361e-09
2.86522e-09
2.69429e-09
2.52178e-09
2.34683e-09
2.1709e-09
1.99218e-09
1.81289e-09
1.63059e-09
1.44788e-09
1.26173e-09
1.0744e-09
8.83898e-10
6.91273e-10
4.97107e-10
2.99182e-10
1.02995e-10
-5.53697e-08
-5.30077e-08
-5.06596e-08
-4.83301e-08
-4.60243e-08
-4.37468e-08
-4.1502e-08
-3.9294e-08
-3.71267e-08
-3.50041e-08
-3.29292e-08
-3.0905e-08
-2.8934e-08
-2.70187e-08
-2.5161e-08
-2.33631e-08
-2.16261e-08
-1.99512e-08
-1.83394e-08
-1.67912e-08
-1.53071e-08
-1.38872e-08
-1.25314e-08
-1.12393e-08
-1.00104e-08
-8.84391e-09
-7.73895e-09
-6.69438e-09
-5.70892e-09
-4.7812e-09
-3.90967e-09
-3.09272e-09
-2.3286e-09
-1.61552e-09
-9.51634e-10
-3.35037e-10
2.36188e-10
7.63972e-10
1.25025e-09
1.69694e-09
2.10595e-09
2.47913e-09
2.81829e-09
3.12518e-09
3.40147e-09
3.64875e-09
3.86849e-09
4.06206e-09
4.23071e-09
4.37555e-09
4.49759e-09
4.59771e-09
4.67669e-09
4.73526e-09
4.7741e-09
4.79393e-09
4.79541e-09
4.77936e-09
4.74661e-09
4.69814e-09
4.63496e-09
4.55823e-09
4.46907e-09
4.36872e-09
4.2583e-09
4.13906e-09
4.01198e-09
3.87816e-09
3.73842e-09
3.59358e-09
3.44432e-09
3.29107e-09
3.13467e-09
2.97499e-09
2.81316e-09
2.64819e-09
2.48214e-09
2.31284e-09
2.14335e-09
1.96886e-09
1.79518e-09
1.61624e-09
1.43948e-09
1.25575e-09
1.0726e-09
8.81992e-10
6.9298e-10
4.91995e-10
2.93195e-10
8.21018e-11
-5.48883e-08
-5.24661e-08
-5.00678e-08
-4.76989e-08
-4.53637e-08
-4.30652e-08
-4.08074e-08
-3.85938e-08
-3.64265e-08
-3.43085e-08
-3.22431e-08
-3.02331e-08
-2.82806e-08
-2.63873e-08
-2.45546e-08
-2.27841e-08
-2.1077e-08
-1.94343e-08
-1.78563e-08
-1.63431e-08
-1.4895e-08
-1.35117e-08
-1.21928e-08
-1.09378e-08
-9.7457e-09
-8.61564e-09
-7.54645e-09
-6.53682e-09
-5.58533e-09
-4.69039e-09
-3.85036e-09
-3.06352e-09
-2.32806e-09
-1.64214e-09
-1.00382e-09
-4.11198e-10
1.37691e-10
6.44786e-10
1.11201e-09
1.54123e-09
1.9343e-09
2.29301e-09
2.61911e-09
2.91427e-09
3.1801e-09
3.41812e-09
3.62973e-09
3.81624e-09
3.97885e-09
4.11859e-09
4.23642e-09
4.33314e-09
4.40949e-09
4.46611e-09
4.50364e-09
4.52273e-09
4.52406e-09
4.5084e-09
4.47661e-09
4.42965e-09
4.36856e-09
4.29449e-09
4.20862e-09
4.11212e-09
4.00621e-09
3.89201e-09
3.77068e-09
3.64312e-09
3.51042e-09
3.37311e-09
3.23231e-09
3.08795e-09
2.94153e-09
2.79239e-09
2.64302e-09
2.49074e-09
2.3389e-09
2.18374e-09
2.0339e-09
1.8677e-09
1.70784e-09
1.5414e-09
1.37984e-09
1.20593e-09
1.04042e-09
8.54988e-10
6.78277e-10
4.76431e-10
2.83399e-10
5.75886e-11
-5.35793e-08
-5.10581e-08
-4.85761e-08
-4.61305e-08
-4.37391e-08
-4.14018e-08
-3.9117e-08
-3.68897e-08
-3.47258e-08
-3.26273e-08
-3.05917e-08
-2.86192e-08
-2.67123e-08
-2.48727e-08
-2.31001e-08
-2.13947e-08
-1.97567e-08
-1.81859e-08
-1.66821e-08
-1.52449e-08
-1.38738e-08
-1.25678e-08
-1.13259e-08
-1.0147e-08
-9.02986e-09
-7.97304e-09
-6.97505e-09
-6.03432e-09
-5.14921e-09
-4.31797e-09
-3.53875e-09
-2.80966e-09
-2.1288e-09
-1.49425e-09
-9.04081e-10
-3.56378e-10
1.50769e-10
6.19264e-10
1.05099e-09
1.44779e-09
1.81141e-09
2.1435e-09
2.44563e-09
2.71929e-09
2.96586e-09
3.18663e-09
3.38275e-09
3.55525e-09
3.70504e-09
3.83295e-09
3.93967e-09
4.02585e-09
4.09209e-09
4.13897e-09
4.16712e-09
4.1772e-09
4.16998e-09
4.14632e-09
4.10719e-09
4.05364e-09
3.98686e-09
3.90805e-09
3.81852e-09
3.71949e-09
3.61237e-09
3.49816e-09
3.37834e-09
3.25352e-09
3.12495e-09
2.99286e-09
2.85889e-09
2.72217e-09
2.58348e-09
2.44156e-09
2.30472e-09
2.16267e-09
2.02378e-09
1.88168e-09
1.73912e-09
1.60266e-09
1.46811e-09
1.32414e-09
1.18698e-09
1.03706e-09
8.96427e-10
7.36287e-10
5.86937e-10
4.088e-10
2.42085e-10
3.58141e-11
-5.13389e-08
-4.86795e-08
-4.60949e-08
-4.35881e-08
-4.11454e-08
-3.87769e-08
-3.64824e-08
-3.42571e-08
-3.20972e-08
-3.00271e-08
-2.80414e-08
-2.61317e-08
-2.42972e-08
-2.25391e-08
-2.08577e-08
-1.92527e-08
-1.77213e-08
-1.62604e-08
-1.48687e-08
-1.35452e-08
-1.22887e-08
-1.10971e-08
-9.9684e-09
-8.90069e-09
-7.89221e-09
-6.94114e-09
-6.04554e-09
-5.2034e-09
-4.4127e-09
-3.6714e-09
-2.97748e-09
-2.32895e-09
-1.72384e-09
-1.16022e-09
-6.36162e-10
-1.49783e-10
3.0075e-10
7.17211e-10
1.1013e-09
1.45465e-09
1.77883e-09
2.07533e-09
2.34553e-09
2.59067e-09
2.81184e-09
3.00995e-09
3.18581e-09
3.34003e-09
3.47309e-09
3.5854e-09
3.6773e-09
3.74909e-09
3.80116e-09
3.83395e-09
3.84808e-09
3.84426e-09
3.82347e-09
3.78675e-09
3.73531e-09
3.67035e-09
3.59329e-09
3.50532e-09
3.40779e-09
3.30184e-09
3.189e-09
3.07008e-09
2.94732e-09
2.82059e-09
2.69082e-09
2.55853e-09
2.42745e-09
2.29582e-09
2.16683e-09
2.03844e-09
1.90769e-09
1.7802e-09
1.65468e-09
1.52841e-09
1.40657e-09
1.28398e-09
1.16666e-09
1.04548e-09
9.30469e-10
8.08091e-10
6.92939e-10
5.65142e-10
4.45849e-10
3.07047e-10
1.79238e-10
2.50305e-11
-4.87076e-08
-4.58738e-08
-4.31422e-08
-4.05133e-08
-3.79876e-08
-3.5563e-08
-3.32458e-08
-3.10409e-08
-2.89504e-08
-2.69455e-08
-2.5026e-08
-2.31988e-08
-2.14596e-08
-1.98022e-08
-1.82253e-08
-1.67349e-08
-1.53264e-08
-1.39928e-08
-1.27308e-08
-1.15386e-08
-1.0414e-08
-9.3537e-09
-8.35438e-09
-7.41309e-09
-6.52759e-09
-5.69578e-09
-4.91541e-09
-4.18404e-09
-3.49924e-09
-2.8587e-09
-2.26022e-09
-1.70172e-09
-1.18121e-09
-6.96753e-10
-2.46521e-10
1.71234e-10
5.58183e-10
9.15934e-10
1.24605e-09
1.55006e-09
1.82947e-09
2.08568e-09
2.31997e-09
2.5334e-09
2.72686e-09
2.90095e-09
3.05606e-09
3.19236e-09
3.30984e-09
3.40841e-09
3.48793e-09
3.54833e-09
3.58962e-09
3.61205e-09
3.61607e-09
3.60236e-09
3.57191e-09
3.52604e-09
3.46589e-09
3.39282e-09
3.30838e-09
3.21391e-09
3.11089e-09
3.00047e-09
2.88385e-09
2.75924e-09
2.64167e-09
2.5187e-09
2.3939e-09
2.26833e-09
2.14178e-09
2.01598e-09
1.89162e-09
1.76839e-09
1.6471e-09
1.52715e-09
1.41007e-09
1.2947e-09
1.18258e-09
1.07223e-09
9.65009e-10
8.58973e-10
7.55575e-10
6.52327e-10
5.51229e-10
4.48367e-10
3.4771e-10
2.42745e-10
1.42463e-10
3.62749e-11
-4.60666e-08
-4.30598e-08
-4.01942e-08
-3.74689e-08
-3.48815e-08
-3.24295e-08
-3.01089e-08
-2.79111e-08
-2.58267e-08
-2.38526e-08
-2.199e-08
-2.02353e-08
-1.85845e-08
-1.70336e-08
-1.55782e-08
-1.42065e-08
-1.29156e-08
-1.17043e-08
-1.05689e-08
-9.50487e-09
-8.50813e-09
-7.57613e-09
-6.70337e-09
-5.88565e-09
-5.1202e-09
-4.40459e-09
-3.73618e-09
-3.11219e-09
-2.52994e-09
-1.9869e-09
-1.48079e-09
-1.00949e-09
-5.7103e-10
-1.636e-10
2.14508e-10
5.64941e-10
8.89367e-10
1.18944e-09
1.46671e-09
1.72264e-09
1.95854e-09
2.1756e-09
2.37483e-09
2.55702e-09
2.72274e-09
2.87228e-09
3.00572e-09
3.12292e-09
3.22364e-09
3.30753e-09
3.3743e-09
3.42374e-09
3.45578e-09
3.47058e-09
3.46858e-09
3.45043e-09
3.41608e-09
3.37016e-09
3.31066e-09
3.23915e-09
3.1573e-09
3.06645e-09
2.96813e-09
2.86356e-09
2.75449e-09
2.64485e-09
2.522e-09
2.39993e-09
2.27831e-09
2.15672e-09
2.03568e-09
1.91563e-09
1.79726e-09
1.6807e-09
1.56613e-09
1.45391e-09
1.34355e-09
1.23596e-09
1.12963e-09
1.02675e-09
9.24088e-10
8.2572e-10
7.25964e-10
6.31452e-10
5.33538e-10
4.41712e-10
3.44588e-10
2.54145e-10
1.57432e-10
6.69814e-11
-4.34817e-08
-4.03316e-08
-3.73552e-08
-3.45478e-08
-3.19036e-08
-2.94157e-08
-2.70771e-08
-2.48824e-08
-2.28274e-08
-2.09067e-08
-1.91128e-08
-1.74384e-08
-1.58771e-08
-1.4422e-08
-1.3065e-08
-1.17993e-08
-1.06209e-08
-9.52533e-09
-8.50675e-09
-7.55918e-09
-6.67757e-09
-5.85681e-09
-5.09474e-09
-4.38803e-09
-3.73234e-09
-3.12351e-09
-2.55796e-09
-2.03263e-09
-1.54473e-09
-1.09162e-09
-6.70874e-10
-2.80223e-10
8.23937e-11
4.1886e-10
7.30875e-10
1.01991e-09
1.28739e-09
1.53477e-09
1.76342e-09
1.97459e-09
2.16938e-09
2.34877e-09
2.51355e-09
2.66431e-09
2.80143e-09
2.92504e-09
3.0351e-09
3.13141e-09
3.21368e-09
3.28158e-09
3.33483e-09
3.37322e-09
3.39671e-09
3.40545e-09
3.39975e-09
3.38016e-09
3.34833e-09
3.30145e-09
3.24376e-09
3.17599e-09
3.09898e-09
3.01382e-09
2.92167e-09
2.82361e-09
2.72073e-09
2.61393e-09
2.50343e-09
2.39088e-09
2.27723e-09
2.16316e-09
2.0492e-09
1.93596e-09
1.82348e-09
1.71246e-09
1.60234e-09
1.49434e-09
1.38693e-09
1.28237e-09
1.17758e-09
1.07662e-09
9.73949e-10
8.76409e-10
7.7497e-10
6.80294e-10
5.78859e-10
4.86016e-10
3.8311e-10
2.90376e-10
1.83924e-10
8.78379e-11
-4.07301e-08
-3.7458e-08
-3.43893e-08
-3.15168e-08
-2.88329e-08
-2.63299e-08
-2.40002e-08
-2.18358e-08
-1.98275e-08
-1.79659e-08
-1.62419e-08
-1.46472e-08
-1.31734e-08
-1.18123e-08
-1.05562e-08
-9.39815e-09
-8.331e-09
-7.34798e-09
-6.44261e-09
-5.60881e-09
-4.84099e-09
-4.13409e-09
-3.48361e-09
-2.88507e-09
-2.334e-09
-1.82616e-09
-1.35782e-09
-9.25657e-10
-5.26713e-10
-1.58255e-10
1.82212e-10
4.96925e-10
7.87876e-10
1.05686e-09
1.30554e-09
1.53552e-09
1.74822e-09
1.9448e-09
2.12638e-09
2.29398e-09
2.44852e-09
2.59073e-09
2.72117e-09
2.84019e-09
2.94797e-09
3.04452e-09
3.12974e-09
3.2034e-09
3.26524e-09
3.31501e-09
3.35246e-09
3.37747e-09
3.39001e-09
3.39018e-09
3.37823e-09
3.35457e-09
3.31969e-09
3.27403e-09
3.21851e-09
3.15393e-09
3.08112e-09
3.00096e-09
2.91433e-09
2.82212e-09
2.72516e-09
2.62428e-09
2.52017e-09
2.41371e-09
2.3056e-09
2.19661e-09
2.08708e-09
1.97777e-09
1.86859e-09
1.76048e-09
1.65271e-09
1.54673e-09
1.4408e-09
1.33738e-09
1.23313e-09
1.13225e-09
1.02898e-09
9.30182e-10
8.26687e-10
7.28982e-10
6.23556e-10
5.25328e-10
4.15814e-10
3.14685e-10
1.98626e-10
9.17768e-11
-3.73843e-08
-3.40055e-08
-3.0865e-08
-2.79526e-08
-2.52577e-08
-2.27692e-08
-2.04753e-08
-1.83642e-08
-1.64243e-08
-1.46447e-08
-1.30148e-08
-1.15241e-08
-1.01625e-08
-8.92048e-09
-7.78875e-09
-6.75824e-09
-5.82034e-09
-4.96726e-09
-4.19184e-09
-3.48732e-09
-2.84729e-09
-2.26578e-09
-1.73724e-09
-1.25656e-09
-8.19096e-10
-4.20562e-10
-5.70862e-11
2.74818e-10
5.78287e-10
8.56138e-10
1.11089e-09
1.34481e-09
1.55988e-09
1.75788e-09
1.94042e-09
2.10888e-09
2.26447e-09
2.40823e-09
2.54105e-09
2.66371e-09
2.77686e-09
2.88096e-09
2.97634e-09
3.06314e-09
3.14139e-09
3.21099e-09
3.27173e-09
3.32336e-09
3.36556e-09
3.39803e-09
3.42051e-09
3.43278e-09
3.43472e-09
3.42632e-09
3.40767e-09
3.37899e-09
3.34057e-09
3.29278e-09
3.23615e-09
3.17127e-09
3.09881e-09
3.01946e-09
2.93398e-09
2.84317e-09
2.74781e-09
2.64873e-09
2.54665e-09
2.44238e-09
2.33648e-09
2.2297e-09
2.12233e-09
2.01508e-09
1.90788e-09
1.80156e-09
1.69549e-09
1.59094e-09
1.48637e-09
1.3839e-09
1.28055e-09
1.17994e-09
1.07688e-09
9.7725e-10
8.72804e-10
7.72523e-10
6.64274e-10
5.60892e-10
4.45868e-10
3.36248e-10
2.11609e-10
9.30137e-11
-3.34454e-08
-2.99759e-08
-2.67824e-08
-2.38508e-08
-2.11661e-08
-1.87135e-08
-1.6478e-08
-1.44452e-08
-1.26009e-08
-1.09314e-08
-9.4231e-09
-8.06326e-09
-6.83963e-09
-5.74055e-09
-4.755e-09
-3.87257e-09
-3.08363e-09
-2.37924e-09
-1.7511e-09
-1.19145e-09
-6.93122e-10
-2.49527e-10
1.4534e-10
4.96947e-10
8.10259e-10
1.08978e-09
1.33959e-09
1.56335e-09
1.76429e-09
1.94528e-09
2.10883e-09
2.25713e-09
2.39209e-09
2.51537e-09
2.62838e-09
2.73235e-09
2.82834e-09
2.9172e-09
2.99965e-09
3.07621e-09
3.14725e-09
3.21298e-09
3.27344e-09
3.32852e-09
3.37802e-09
3.42162e-09
3.45894e-09
3.48953e-09
3.51294e-09
3.52873e-09
3.53649e-09
3.53587e-09
3.52661e-09
3.50858e-09
3.48174e-09
3.44616e-09
3.40203e-09
3.34963e-09
3.28936e-09
3.22166e-09
3.14711e-09
3.0663e-09
2.97993e-09
2.88868e-09
2.79328e-09
2.69446e-09
2.59288e-09
2.48925e-09
2.38408e-09
2.27804e-09
2.17142e-09
2.06488e-09
1.95845e-09
1.85284e-09
1.74766e-09
1.64387e-09
1.54036e-09
1.43869e-09
1.33646e-09
1.23641e-09
1.13412e-09
1.03425e-09
9.2943e-10
8.27252e-10
7.16374e-10
6.08407e-10
4.87111e-10
3.69187e-10
2.33203e-10
1.016e-10
-2.95193e-08
-2.59891e-08
-2.27679e-08
-1.98379e-08
-1.71811e-08
-1.47796e-08
-1.26155e-08
-1.06714e-08
-8.93026e-09
-7.37581e-09
-5.99233e-09
-4.7649e-09
-3.67938e-09
-2.72244e-09
-1.88159e-09
-1.14514e-09
-5.02233e-10
5.72184e-11
5.42515e-10
9.62208e-10
1.32412e-09
1.6354e-09
1.90253e-09
2.13137e-09
2.32722e-09
2.49482e-09
2.63839e-09
2.76166e-09
2.8679e-09
2.95994e-09
3.04023e-09
3.11086e-09
3.1736e-09
3.22993e-09
3.28106e-09
3.32799e-09
3.3715e-09
3.41216e-09
3.45039e-09
3.4864e-09
3.52027e-09
3.55194e-09
3.58122e-09
3.60779e-09
3.63128e-09
3.6512e-09
3.66702e-09
3.67816e-09
3.68404e-09
3.68408e-09
3.67773e-09
3.66454e-09
3.64414e-09
3.61627e-09
3.5808e-09
3.53769e-09