/*--------------------------------*- C++ -*----------------------------------*\
| =========                 |                                                 |
| \\      /  F ield         | OpenFOAM: The Open Source CFD Toolbox           |
|  \\    /   O peration     | Version:  2312                                  |
|   \\  /    A nd           | Website:  www.openfoam.com                      |
|    \\/     M anipulation  |                                                 |
\*---------------------------------------------------------------------------*/
FoamFile
{
    version     2.0;
    format      ascii;
    arch        "LSB;label=32;scalar=64";
    class       volVectorField;
    location    "68000";
    object      U;
}
// * * * * * * * * * * * * * * * * * * * * * * * * * * * * * * * * * * * * * //

dimensions      [0 1 -1 0 0 0 0];

internalField   nonuniform List<vector> 
2685
(
(0.000129143 -4.01003e-06 0)
(0.000136276 -3.65617e-06 0)
(0.000142979 -3.31146e-06 0)
(0.000149257 -2.97871e-06 0)
(0.000155118 -2.66027e-06 0)
(0.000160574 -2.35802e-06 0)
(0.000165636 -2.07343e-06 0)
(0.00017032 -1.80758e-06 0)
(0.000174641 -1.56117e-06 0)
(0.000178617 -1.33455e-06 0)
(0.000182265 -1.12782e-06 0)
(0.000185603 -9.40748e-07 0)
(0.000188652 -7.72923e-07 0)
(0.000191429 -6.23712e-07 0)
(0.000193954 -4.92328e-07 0)
(0.000196245 -3.77847e-07 0)
(0.00019832 -2.7925e-07 0)
(0.000200197 -1.95442e-07 0)
(0.000201893 -1.25285e-07 0)
(0.000203425 -6.76147e-08 0)
(0.000204807 -2.12626e-08 0)
(0.000206054 1.49269e-08 0)
(0.000207181 4.20833e-08 0)
(0.000208199 6.12982e-08 0)
(0.00020912 7.36155e-08 0)
(0.000209956 8.00238e-08 0)
(0.000210717 8.14507e-08 0)
(0.000211411 7.87577e-08 0)
(0.000212048 7.27379e-08 0)
(0.000212633 6.41135e-08 0)
(0.000213175 5.35355e-08 0)
(0.000213679 4.15841e-08 0)
(0.000214151 2.87695e-08 0)
(0.000214594 1.55346e-08 0)
(0.000215014 2.25752e-09 0)
(0.000215414 -1.07444e-08 0)
(0.000215796 -2.32106e-08 0)
(0.000216163 -3.49325e-08 0)
(0.000216519 -4.57487e-08 0)
(0.000216863 -5.55392e-08 0)
(0.000217199 -6.42207e-08 0)
(0.000217526 -7.17404e-08 0)
(0.000217846 -7.80729e-08 0)
(0.00021816 -8.32144e-08 0)
(0.000218468 -8.71842e-08 0)
(0.00021877 -9.00287e-08 0)
(0.000219068 -9.18211e-08 0)
(0.00021936 -9.26591e-08 0)
(0.000219647 -9.26618e-08 0)
(0.000219928 -9.19667e-08 0)
(0.000220205 -9.07246e-08 0)
(0.000220477 -8.90935e-08 0)
(0.000220743 -8.72315e-08 0)
(0.000221005 -8.52911e-08 0)
(0.000221261 -8.34134e-08 0)
(0.000221512 -8.17233e-08 0)
(0.000221759 -8.03271e-08 0)
(0.000222001 -7.93073e-08 0)
(0.000222239 -7.87243e-08 0)
(0.000222473 -7.86127e-08 0)
(0.000222703 -7.89917e-08 0)
(0.00022293 -7.98641e-08 0)
(0.000223154 -8.12325e-08 0)
(0.000223376 -8.30931e-08 0)
(0.000223595 -8.54441e-08 0)
(0.000223812 -8.82753e-08 0)
(0.000224029 -9.15703e-08 0)
(0.000224243 -9.53035e-08 0)
(0.000224458 -9.94336e-08 0)
(0.000224671 -1.03916e-07 0)
(0.000224884 -1.08678e-07 0)
(0.000225097 -1.13657e-07 0)
(0.00022531 -1.18748e-07 0)
(0.000225522 -1.23874e-07 0)
(0.000225735 -1.28907e-07 0)
(0.000225947 -1.33767e-07 0)
(0.000226159 -1.38309e-07 0)
(0.00022637 -1.4247e-07 0)
(0.00022658 -1.46088e-07 0)
(0.000226789 -1.49121e-07 0)
(0.000226996 -1.51384e-07 0)
(0.000227201 -1.52786e-07 0)
(0.000227402 -1.53164e-07 0)
(0.0002276 -1.52062e-07 0)
(0.000227792 -1.49637e-07 0)
(0.000227977 -1.44153e-07 0)
(0.000228158 -1.36713e-07 0)
(0.000228315 -1.23992e-07 0)
(0.000228508 -1.01866e-07 0)
(0.000414548 -2.75975e-05 0)
(0.000424438 -2.60847e-05 0)
(0.000433889 -2.45809e-05 0)
(0.000442902 -2.30961e-05 0)
(0.000451483 -2.16392e-05 0)
(0.000459638 -2.02181e-05 0)
(0.000467375 -1.88394e-05 0)
(0.000474704 -1.75089e-05 0)
(0.000481637 -1.62312e-05 0)
(0.000488186 -1.501e-05 0)
(0.000494365 -1.3848e-05 0)
(0.000500189 -1.27474e-05 0)
(0.000505672 -1.17092e-05 0)
(0.000510831 -1.07342e-05 0)
(0.000515679 -9.82216e-06 0)
(0.000520234 -8.97252e-06 0)
(0.000524512 -8.18416e-06 0)
(0.000528527 -7.45554e-06 0)
(0.000532296 -6.78477e-06 0)
(0.000535833 -6.16962e-06 0)
(0.000539155 -5.60764e-06 0)
(0.000542274 -5.09619e-06 0)
(0.000545205 -4.63247e-06 0)
(0.000547963 -4.2136e-06 0)
(0.000550558 -3.83665e-06 0)
(0.000553004 -3.49868e-06 0)
(0.000555312 -3.19677e-06 0)
(0.000557493 -2.92806e-06 0)
(0.000559557 -2.68976e-06 0)
(0.000561514 -2.47922e-06 0)
(0.000563371 -2.29387e-06 0)
(0.000565139 -2.13128e-06 0)
(0.000566823 -1.98915e-06 0)
(0.00056843 -1.86532e-06 0)
(0.000569968 -1.75775e-06 0)
(0.00057144 -1.66452e-06 0)
(0.000572853 -1.58387e-06 0)
(0.000574211 -1.51414e-06 0)
(0.000575518 -1.45383e-06 0)
(0.000576778 -1.40155e-06 0)
(0.000577993 -1.35606e-06 0)
(0.000579167 -1.31626e-06 0)
(0.000580302 -1.28117e-06 0)
(0.0005814 -1.24993e-06 0)
(0.000582464 -1.22178e-06 0)
(0.000583495 -1.19607e-06 0)
(0.000584495 -1.17223e-06 0)
(0.000585465 -1.14979e-06 0)
(0.000586407 -1.12838e-06 0)
(0.000587322 -1.10771e-06 0)
(0.00058821 -1.08761e-06 0)
(0.000589075 -1.06797e-06 0)
(0.000589915 -1.04877e-06 0)
(0.000590734 -1.03e-06 0)
(0.000591532 -1.01173e-06 0)
(0.000592311 -9.9399e-07 0)
(0.000593072 -9.76873e-07 0)
(0.000593816 -9.60433e-07 0)
(0.000594544 -9.44736e-07 0)
(0.000595259 -9.29806e-07 0)
(0.00059596 -9.15676e-07 0)
(0.00059665 -9.02336e-07 0)
(0.000597328 -8.89799e-07 0)
(0.000597996 -8.78053e-07 0)
(0.000598654 -8.67101e-07 0)
(0.000599303 -8.56925e-07 0)
(0.000599943 -8.47487e-07 0)
(0.000600576 -8.38742e-07 0)
(0.0006012 -8.30605e-07 0)
(0.000601816 -8.22997e-07 0)
(0.000602425 -8.15824e-07 0)
(0.000603025 -8.08954e-07 0)
(0.000603618 -8.02326e-07 0)
(0.000604202 -7.95717e-07 0)
(0.000604777 -7.89093e-07 0)
(0.000605342 -7.82145e-07 0)
(0.000605897 -7.74742e-07 0)
(0.00060644 -7.66677e-07 0)
(0.000606972 -7.57385e-07 0)
(0.000607489 -7.4731e-07 0)
(0.000607996 -7.34631e-07 0)
(0.000608479 -7.21894e-07 0)
(0.000608961 -7.03549e-07 0)
(0.000609399 -6.88568e-07 0)
(0.000609866 -6.603e-07 0)
(0.000610236 -6.45647e-07 0)
(0.000610717 -5.99476e-07 0)
(0.000610966 -5.90129e-07 0)
(0.000611538 -5.13629e-07 0)
(0.000683356 -4.83352e-05 0)
(0.000690293 -4.60417e-05 0)
(0.000696939 -4.37616e-05 0)
(0.0007033 -4.15088e-05 0)
(0.00070938 -3.92957e-05 0)
(0.000715185 -3.71328e-05 0)
(0.000720724 -3.50294e-05 0)
(0.000726003 -3.2993e-05 0)
(0.000731032 -3.10298e-05 0)
(0.000735819 -2.9145e-05 0)
(0.000740373 -2.73423e-05 0)
(0.000744705 -2.56245e-05 0)
(0.000748824 -2.39933e-05 0)
(0.000752739 -2.24497e-05 0)
(0.000756461 -2.09938e-05 0)
(0.00076 -1.9625e-05 0)
(0.000763365 -1.8342e-05 0)
(0.000766565 -1.71432e-05 0)
(0.00076961 -1.60263e-05 0)
(0.000772509 -1.49887e-05 0)
(0.000775271 -1.40275e-05 0)
(0.000777906 -1.31395e-05 0)
(0.000780421 -1.23212e-05 0)
(0.000782825 -1.15688e-05 0)
(0.000785126 -1.08788e-05 0)
(0.000787333 -1.0247e-05 0)
(0.000789451 -9.66971e-06 0)
(0.000791489 -9.1429e-06 0)
(0.000793453 -8.6627e-06 0)
(0.000795351 -8.22533e-06 0)
(0.000797187 -7.8271e-06 0)
(0.000798967 -7.46445e-06 0)
(0.000800697 -7.13398e-06 0)
(0.000802382 -6.83247e-06 0)
(0.000804026 -6.55684e-06 0)
(0.000805633 -6.30421e-06 0)
(0.000807208 -6.07187e-06 0)
(0.000808753 -5.85731e-06 0)
(0.000810271 -5.6582e-06 0)
(0.000811765 -5.47244e-06 0)
(0.000813236 -5.29812e-06 0)
(0.000814686 -5.13358e-06 0)
(0.000816116 -4.97736e-06 0)
(0.000817526 -4.82825e-06 0)
(0.000818917 -4.68526e-06 0)
(0.000820288 -4.54763e-06 0)
(0.000821638 -4.41483e-06 0)
(0.000822968 -4.28656e-06 0)
(0.000824276 -4.16271e-06 0)
(0.000825561 -4.04338e-06 0)
(0.000826822 -3.92881e-06 0)
(0.00082806 -3.81932e-06 0)
(0.000829272 -3.71529e-06 0)
(0.000830459 -3.61705e-06 0)
(0.000831622 -3.5249e-06 0)
(0.000832759 -3.439e-06 0)
(0.000833872 -3.35944e-06 0)
(0.000834963 -3.28613e-06 0)
(0.000836032 -3.21895e-06 0)
(0.000837082 -3.15764e-06 0)
(0.000838114 -3.1019e-06 0)
(0.000839132 -3.05137e-06 0)
(0.000840137 -3.00568e-06 0)
(0.000841132 -2.96438e-06 0)
(0.000842119 -2.92697e-06 0)
(0.0008431 -2.89295e-06 0)
(0.000844077 -2.86162e-06 0)
(0.000845052 -2.83248e-06 0)
(0.000846027 -2.8045e-06 0)
(0.000847002 -2.77744e-06 0)
(0.000847981 -2.74975e-06 0)
(0.000848961 -2.72182e-06 0)
(0.000849949 -2.69124e-06 0)
(0.000850935 -2.65962e-06 0)
(0.000851935 -2.62307e-06 0)
(0.000852925 -2.58541e-06 0)
(0.000853938 -2.53989e-06 0)
(0.000854926 -2.4948e-06 0)
(0.00085595 -2.43744e-06 0)
(0.000856919 -2.38538e-06 0)
(0.000857955 -2.31321e-06 0)
(0.000858878 -2.25711e-06 0)
(0.000859933 -2.16653e-06 0)
(0.000860767 -2.11189e-06 0)
(0.000861867 -1.99801e-06 0)
(0.000862545 -1.95242e-06 0)
(0.000863746 -1.80918e-06 0)
(0.000864165 -1.78171e-06 0)
(0.000865575 -1.60328e-06 0)
(0.000929791 -5.91029e-05 0)
(0.000931976 -5.63119e-05 0)
(0.000934037 -5.35417e-05 0)
(0.000935977 -5.08088e-05 0)
(0.000937799 -4.81276e-05 0)
(0.000939507 -4.55107e-05 0)
(0.000941106 -4.29686e-05 0)
(0.000942599 -4.05101e-05 0)
(0.000943992 -3.81424e-05 0)
(0.000945289 -3.58709e-05 0)
(0.000946495 -3.37e-05 0)
(0.000947615 -3.16324e-05 0)
(0.000948654 -2.967e-05 0)
(0.000949617 -2.78136e-05 0)
(0.000950508 -2.6063e-05 0)
(0.000951333 -2.44173e-05 0)
(0.000952096 -2.28749e-05 0)
(0.000952802 -2.14337e-05 0)
(0.000953455 -2.00909e-05 0)
(0.00095406 -1.88437e-05 0)
(0.000954622 -1.76887e-05 0)
(0.000955143 -1.66223e-05 0)
(0.00095563 -1.56409e-05 0)
(0.000956084 -1.47403e-05 0)
(0.000956511 -1.39165e-05 0)
(0.000956914 -1.31652e-05 0)
(0.000957297 -1.24821e-05 0)
(0.000957663 -1.18628e-05 0)
(0.000958017 -1.1303e-05 0)
(0.00095836 -1.07983e-05 0)
(0.000958698 -1.03446e-05 0)
(0.000959032 -9.93789e-06 0)
(0.000959366 -9.57418e-06 0)
(0.000959703 -9.24972e-06 0)
(0.000960046 -8.96084e-06 0)
(0.000960397 -8.70394e-06 0)
(0.000960759 -8.47547e-06 0)
(0.000961134 -8.27193e-06 0)
(0.000961525 -8.08989e-06 0)
(0.000961933 -7.92602e-06 0)
(0.00096236 -7.77714e-06 0)
(0.000962807 -7.64023e-06 0)
(0.000963274 -7.51246e-06 0)
(0.000963762 -7.39123e-06 0)
(0.000964271 -7.27415e-06 0)
(0.000964801 -7.15916e-06 0)
(0.000965351 -7.04448e-06 0)
(0.000965919 -6.92875e-06 0)
(0.000966505 -6.81096e-06 0)
(0.000967107 -6.69062e-06 0)
(0.000967722 -6.56762e-06 0)
(0.000968349 -6.44237e-06 0)
(0.000968986 -6.31559e-06 0)
(0.000969629 -6.18853e-06 0)
(0.000970278 -6.0626e-06 0)
(0.00097093 -5.93956e-06 0)
(0.000971583 -5.8212e-06 0)
(0.000972236 -5.70931e-06 0)
(0.000972888 -5.60554e-06 0)
(0.000973538 -5.51117e-06 0)
(0.000974186 -5.42709e-06 0)
(0.000974834 -5.35382e-06 0)
(0.000975485 -5.29116e-06 0)
(0.000976139 -5.23919e-06 0)
(0.000976802 -5.1966e-06 0)
(0.000977473 -5.16388e-06 0)
(0.000978161 -5.13856e-06 0)
(0.000978862 -5.12252e-06 0)
(0.000979589 -5.11168e-06 0)
(0.00098033 -5.11001e-06 0)
(0.000981107 -5.11074e-06 0)
(0.000981899 -5.12068e-06 0)
(0.000982738 -5.12834e-06 0)
(0.000983586 -5.14525e-06 0)
(0.000984503 -5.15179e-06 0)
(0.000985411 -5.1688e-06 0)
(0.00098642 -5.16223e-06 0)
(0.000987385 -5.17151e-06 0)
(0.000988505 -5.13713e-06 0)
(0.00098951 -5.1323e-06 0)
(0.000990761 -5.05483e-06 0)
(0.000991771 -5.03349e-06 0)
(0.00099318 -4.89935e-06 0)
(0.000994128 -4.86484e-06 0)
(0.000995736 -4.66395e-06 0)
(0.000996524 -4.62594e-06 0)
(0.000998394 -4.35339e-06 0)
(0.000998878 -4.32657e-06 0)
(0.00100111 -3.98521e-06 0)
(0.00109721 -5.85637e-05 0)
(0.00109538 -5.57192e-05 0)
(0.0010936 -5.28953e-05 0)
(0.00109188 -5.01091e-05 0)
(0.0010902 -4.73754e-05 0)
(0.00108858 -4.47069e-05 0)
(0.001087 -4.21144e-05 0)
(0.00108547 -3.96074e-05 0)
(0.00108397 -3.71934e-05 0)
(0.00108252 -3.48785e-05 0)
(0.0010811 -3.26671e-05 0)
(0.00107972 -3.05625e-05 0)
(0.00107837 -2.85667e-05 0)
(0.00107706 -2.66805e-05 0)
(0.00107577 -2.49038e-05 0)
(0.0010745 -2.3236e-05 0)
(0.00107327 -2.16755e-05 0)
(0.00107206 -2.02204e-05 0)
(0.00107087 -1.88681e-05 0)
(0.00106971 -1.76154e-05 0)
(0.00106857 -1.64589e-05 0)
(0.00106746 -1.5395e-05 0)
(0.00106637 -1.44198e-05 0)
(0.0010653 -1.35294e-05 0)
(0.00106426 -1.27194e-05 0)
(0.00106324 -1.19855e-05 0)
(0.00106225 -1.13233e-05 0)
(0.00106128 -1.07282e-05 0)
(0.00106034 -1.01959e-05 0)
(0.00105942 -9.72199e-06 0)
(0.00105853 -9.30222e-06 0)
(0.00105767 -8.93248e-06 0)
(0.00105684 -8.60882e-06 0)
(0.00105604 -8.32737e-06 0)
(0.00105527 -8.08441e-06 0)
(0.00105453 -7.87625e-06 0)
(0.00105383 -7.69921e-06 0)
(0.00105317 -7.54962e-06 0)
(0.00105254 -7.42379e-06 0)
(0.00105195 -7.31819e-06 0)
(0.0010514 -7.22941e-06 0)
(0.00105089 -7.1543e-06 0)
(0.00105041 -7.08989e-06 0)
(0.00104998 -7.03344e-06 0)
(0.00104957 -6.98226e-06 0)
(0.0010492 -6.93391e-06 0)
(0.00104886 -6.88598e-06 0)
(0.00104854 -6.83662e-06 0)
(0.00104826 -6.78419e-06 0)
(0.00104799 -6.72787e-06 0)
(0.00104775 -6.66708e-06 0)
(0.00104754 -6.60188e-06 0)
(0.00104735 -6.53243e-06 0)
(0.00104718 -6.4591e-06 0)
(0.00104703 -6.38244e-06 0)
(0.00104691 -6.30312e-06 0)
(0.00104681 -6.22246e-06 0)
(0.00104673 -6.14212e-06 0)
(0.00104667 -6.06461e-06 0)
(0.00104663 -5.99313e-06 0)
(0.00104661 -5.93063e-06 0)
(0.00104661 -5.88128e-06 0)
(0.00104662 -5.84643e-06 0)
(0.00104666 -5.83037e-06 0)
(0.00104672 -5.83083e-06 0)
(0.0010468 -5.85219e-06 0)
(0.00104692 -5.88775e-06 0)
(0.00104706 -5.94347e-06 0)
(0.00104724 -6.00826e-06 0)
(0.00104745 -6.09237e-06 0)
(0.00104772 -6.1792e-06 0)
(0.00104801 -6.28719e-06 0)
(0.00104838 -6.38955e-06 0)
(0.00104875 -6.51923e-06 0)
(0.00104923 -6.62935e-06 0)
(0.0010497 -6.77825e-06 0)
(0.00105032 -6.88348e-06 0)
(0.00105087 -7.04588e-06 0)
(0.00105167 -7.12671e-06 0)
(0.00105229 -7.29296e-06 0)
(0.0010533 -7.32405e-06 0)
(0.00105397 -7.48222e-06 0)
(0.00105524 -7.43602e-06 0)
(0.0010559 -7.57408e-06 0)
(0.0010575 -7.42684e-06 0)
(0.00105807 -7.53328e-06 0)
(0.00106004 -7.27408e-06 0)
(0.0010604 -7.33616e-06 0)
(0.00106283 -6.97807e-06 0)
(0.00116914 -5.07276e-05 0)
(0.00116529 -4.81903e-05 0)
(0.00116161 -4.56658e-05 0)
(0.00115809 -4.31701e-05 0)
(0.00115472 -4.07169e-05 0)
(0.00115149 -3.83185e-05 0)
(0.0011484 -3.59848e-05 0)
(0.00114544 -3.37239e-05 0)
(0.0011426 -3.15428e-05 0)
(0.00113987 -2.94475e-05 0)
(0.00113725 -2.74427e-05 0)
(0.00113473 -2.5532e-05 0)
(0.00113231 -2.3718e-05 0)
(0.00112997 -2.20023e-05 0)
(0.00112771 -2.03857e-05 0)
(0.00112553 -1.88683e-05 0)
(0.00112342 -1.7449e-05 0)
(0.00112137 -1.61266e-05 0)
(0.00111939 -1.48992e-05 0)
(0.00111746 -1.37645e-05 0)
(0.00111559 -1.27202e-05 0)
(0.00111378 -1.17635e-05 0)
(0.00111201 -1.08913e-05 0)
(0.00111029 -1.01002e-05 0)
(0.00110861 -9.38684e-06 0)
(0.00110698 -8.74727e-06 0)
(0.00110539 -8.17734e-06 0)
(0.00110384 -7.67266e-06 0)
(0.00110233 -7.22889e-06 0)
(0.00110087 -6.84197e-06 0)
(0.00109944 -6.50827e-06 0)
(0.00109805 -6.22467e-06 0)
(0.0010967 -5.98849e-06 0)
(0.0010954 -5.79725e-06 0)
(0.00109413 -5.64842e-06 0)
(0.0010929 -5.53908e-06 0)
(0.00109171 -5.4657e-06 0)
(0.00109058 -5.4239e-06 0)
(0.00108949 -5.40848e-06 0)
(0.00108846 -5.41369e-06 0)
(0.00108747 -5.43353e-06 0)
(0.00108654 -5.46225e-06 0)
(0.00108567 -5.49458e-06 0)
(0.00108484 -5.52623e-06 0)
(0.00108406 -5.55369e-06 0)
(0.00108332 -5.57461e-06 0)
(0.00108261 -5.58733e-06 0)
(0.00108194 -5.5913e-06 0)
(0.00108129 -5.58654e-06 0)
(0.00108067 -5.57409e-06 0)
(0.00108006 -5.55538e-06 0)
(0.00107948 -5.53232e-06 0)
(0.00107891 -5.50688e-06 0)
(0.00107836 -5.48066e-06 0)
(0.00107783 -5.45509e-06 0)
(0.00107733 -5.43084e-06 0)
(0.00107685 -5.40873e-06 0)
(0.0010764 -5.38935e-06 0)
(0.00107598 -5.37367e-06 0)
(0.0010756 -5.36397e-06 0)
(0.00107526 -5.36154e-06 0)
(0.00107496 -5.3713e-06 0)
(0.0010747 -5.3935e-06 0)
(0.00107448 -5.43536e-06 0)
(0.0010743 -5.49363e-06 0)
(0.00107417 -5.5775e-06 0)
(0.00107409 -5.67809e-06 0)
(0.00107406 -5.80768e-06 0)
(0.00107408 -5.94973e-06 0)
(0.00107414 -6.12342e-06 0)
(0.00107427 -6.30076e-06 0)
(0.00107443 -6.51544e-06 0)
(0.00107468 -6.71942e-06 0)
(0.00107495 -6.97343e-06 0)
(0.00107533 -7.19366e-06 0)
(0.00107568 -7.48638e-06 0)
(0.00107622 -7.70922e-06 0)
(0.00107665 -8.03842e-06 0)
(0.00107736 -8.24489e-06 0)
(0.00107786 -8.60343e-06 0)
(0.0010788 -8.76834e-06 0)
(0.00107933 -9.14096e-06 0)
(0.00108055 -9.23506e-06 0)
(0.00108107 -9.59469e-06 0)
(0.00108265 -9.59156e-06 0)
(0.00108309 -9.89565e-06 0)
(0.00108508 -9.78431e-06 0)
(0.00108536 -9.97322e-06 0)
(0.00108782 -9.77359e-06 0)
(0.00119642 -4.08647e-05 0)
(0.00119236 -3.87589e-05 0)
(0.00118845 -3.66496e-05 0)
(0.00118469 -3.45512e-05 0)
(0.00118108 -3.24763e-05 0)
(0.0011776 -3.04364e-05 0)
(0.00117425 -2.84425e-05 0)
(0.00117102 -2.65038e-05 0)
(0.00116791 -2.46272e-05 0)
(0.00116489 -2.2818e-05 0)
(0.00116198 -2.10809e-05 0)
(0.00115915 -1.94203e-05 0)
(0.00115641 -1.78391e-05 0)
(0.00115375 -1.63394e-05 0)
(0.00115116 -1.49236e-05 0)
(0.00114864 -1.35935e-05 0)
(0.00114618 -1.23497e-05 0)
(0.00114377 -1.11912e-05 0)
(0.00114143 -1.01172e-05 0)
(0.00113913 -9.12626e-06 0)
(0.00113689 -8.21695e-06 0)
(0.00113469 -7.38801e-06 0)
(0.00113254 -6.63706e-06 0)
(0.00113043 -5.96147e-06 0)
(0.00112836 -5.35864e-06 0)
(0.00112633 -4.82572e-06 0)
(0.00112434 -4.35936e-06 0)
(0.00112239 -3.95566e-06 0)
(0.00112047 -3.61045e-06 0)
(0.0011186 -3.31959e-06 0)
(0.00111676 -3.07939e-06 0)
(0.00111496 -2.88694e-06 0)
(0.0011132 -2.74026e-06 0)
(0.00111147 -2.63818e-06 0)
(0.00110979 -2.57998e-06 0)
(0.00110813 -2.56483e-06 0)
(0.00110652 -2.59109e-06 0)
(0.00110495 -2.65579e-06 0)
(0.00110342 -2.75423e-06 0)
(0.00110195 -2.87996e-06 0)
(0.00110052 -3.02506e-06 0)
(0.00109914 -3.1809e-06 0)
(0.00109782 -3.3387e-06 0)
(0.00109656 -3.49049e-06 0)
(0.00109535 -3.62944e-06 0)
(0.0010942 -3.75058e-06 0)
(0.00109309 -3.85067e-06 0)
(0.00109203 -3.9287e-06 0)
(0.001091 -3.98549e-06 0)
(0.00109001 -4.02383e-06 0)
(0.00108904 -4.0479e-06 0)
(0.0010881 -4.06287e-06 0)
(0.00108719 -4.07439e-06 0)
(0.00108629 -4.08758e-06 0)
(0.00108542 -4.10721e-06 0)
(0.00108458 -4.13651e-06 0)
(0.00108377 -4.17799e-06 0)
(0.001083 -4.23319e-06 0)
(0.00108228 -4.30382e-06 0)
(0.0010816 -4.39216e-06 0)
(0.00108098 -4.49821e-06 0)
(0.00108043 -4.62615e-06 0)
(0.00107994 -4.77386e-06 0)
(0.00107953 -4.94824e-06 0)
(0.0010792 -5.14276e-06 0)
(0.00107894 -5.36768e-06 0)
(0.00107877 -5.60948e-06 0)
(0.00107868 -5.88431e-06 0)
(0.00107868 -6.1678e-06 0)
(0.00107876 -6.48809e-06 0)
(0.00107893 -6.80296e-06 0)
(0.00107918 -7.16395e-06 0)
(0.00107953 -7.49744e-06 0)
(0.00107993 -7.89735e-06 0)
(0.00108046 -8.23612e-06 0)
(0.00108099 -8.6772e-06 0)
(0.00108171 -9.00758e-06 0)
(0.00108235 -9.49408e-06 0)
(0.00108328 -9.80098e-06 0)
(0.00108399 -1.03337e-05 0)
(0.00108518 -1.05987e-05 0)
(0.00108591 -1.11654e-05 0)
(0.00108742 -1.13665e-05 0)
(0.00108812 -1.19305e-05 0)
(0.00109001 -1.20469e-05 0)
(0.00109059 -1.25372e-05 0)
(0.00109294 -1.25623e-05 0)
(0.00109329 -1.28728e-05 0)
(0.00109617 -1.28309e-05 0)
(0.00123976 -3.22991e-05 0)
(0.00123591 -3.04806e-05 0)
(0.00123215 -2.86454e-05 0)
(0.00122847 -2.68062e-05 0)
(0.00122488 -2.49751e-05 0)
(0.00122136 -2.31626e-05 0)
(0.00121791 -2.13773e-05 0)
(0.00121453 -1.96285e-05 0)
(0.00121121 -1.79273e-05 0)
(0.00120795 -1.62837e-05 0)
(0.00120474 -1.47025e-05 0)
(0.00120159 -1.31874e-05 0)
(0.00119848 -1.17445e-05 0)
(0.00119542 -1.03736e-05 0)
(0.00119239 -9.07614e-06 0)
(0.0011894 -7.85613e-06 0)
(0.00118645 -6.71557e-06 0)
(0.00118353 -5.65506e-06 0)
(0.00118065 -4.67389e-06 0)
(0.00117779 -3.77162e-06 0)
(0.00117497 -2.9469e-06 0)
(0.00117218 -2.19747e-06 0)
(0.00116941 -1.52201e-06 0)
(0.00116668 -9.19357e-07 0)
(0.00116397 -3.87872e-07 0)
(0.0011613 7.45336e-08 0)
(0.00115865 4.70339e-07 0)
(0.00115603 8.02507e-07 0)
(0.00115344 1.07456e-06 0)
(0.00115087 1.29044e-06 0)
(0.00114834 1.45419e-06 0)
(0.00114584 1.56947e-06 0)
(0.00114337 1.63914e-06 0)
(0.00114093 1.66495e-06 0)
(0.00113852 1.64755e-06 0)
(0.00113614 1.58682e-06 0)
(0.0011338 1.48268e-06 0)
(0.00113149 1.33583e-06 0)
(0.0011292 1.14877e-06 0)
(0.00112695 9.26353e-07 0)
(0.00112474 6.75966e-07 0)
(0.00112256 4.07025e-07 0)
(0.00112042 1.30304e-07 0)
(0.00111834 -1.43319e-07 0)
(0.0011163 -4.03621e-07 0)
(0.00111431 -6.42265e-07 0)
(0.00111238 -8.53132e-07 0)
(0.00111051 -1.03311e-06 0)
(0.00110868 -1.18199e-06 0)
(0.00110691 -1.30264e-06 0)
(0.00110519 -1.4006e-06 0)
(0.00110351 -1.48338e-06 0)
(0.00110188 -1.56001e-06 0)
(0.00110029 -1.63947e-06 0)
(0.00109876 -1.73075e-06 0)
(0.00109727 -1.84104e-06 0)
(0.00109583 -1.9767e-06 0)
(0.00109445 -2.14204e-06 0)
(0.00109313 -2.33922e-06 0)
(0.00109188 -2.57068e-06 0)
(0.00109071 -2.83606e-06 0)
(0.00108962 -3.13855e-06 0)
(0.00108862 -3.47426e-06 0)
(0.00108771 -3.84884e-06 0)
(0.00108691 -4.25233e-06 0)
(0.00108621 -4.69448e-06 0)
(0.00108562 -5.15768e-06 0)
(0.00108515 -5.66144e-06 0)
(0.00108479 -6.17154e-06 0)
(0.00108456 -6.7252e-06 0)
(0.00108444 -7.26248e-06 0)
(0.00108444 -7.8553e-06 0)
(0.00108456 -8.39891e-06 0)
(0.00108478 -9.02668e-06 0)
(0.00108515 -9.55779e-06 0)
(0.00108556 -1.02249e-05 0)
(0.00108618 -1.07274e-05 0)
(0.00108676 -1.14443e-05 0)
(0.00108765 -1.19037e-05 0)
(0.00108836 -1.26778e-05 0)
(0.00108956 -1.30773e-05 0)
(0.00109034 -1.38968e-05 0)
(0.00109189 -1.4216e-05 0)
(0.00109267 -1.50314e-05 0)
(0.00109463 -1.52509e-05 0)
(0.00109528 -1.59605e-05 0)
(0.00109772 -1.60773e-05 0)
(0.00109813 -1.65268e-05 0)
(0.0011011 -1.6576e-05 0)
(0.0013119 -2.3977e-05 0)
(0.00130787 -2.22834e-05 0)
(0.00130389 -2.05634e-05 0)
(0.00129996 -1.88336e-05 0)
(0.00129607 -1.71052e-05 0)
(0.00129223 -1.53904e-05 0)
(0.00128844 -1.37026e-05 0)
(0.00128467 -1.20434e-05 0)
(0.00128093 -1.04176e-05 0)
(0.00127722 -8.83769e-06 0)
(0.00127354 -7.31424e-06 0)
(0.00126989 -5.85267e-06 0)
(0.00126628 -4.45554e-06 0)
(0.00126269 -3.13152e-06 0)
(0.00125913 -1.88426e-06 0)
(0.00125558 -7.13027e-07 0)
(0.00125206 3.82046e-07 0)
(0.00124856 1.39897e-06 0)
(0.00124508 2.33716e-06 0)
(0.00124162 3.19675e-06 0)
(0.00123818 3.97873e-06 0)
(0.00123476 4.68493e-06 0)
(0.00123136 5.31641e-06 0)
(0.00122798 5.87437e-06 0)
(0.00122461 6.36068e-06 0)
(0.00122127 6.77764e-06 0)
(0.00121794 7.12766e-06 0)
(0.00121464 7.41321e-06 0)
(0.00121135 7.63689e-06 0)
(0.00120808 7.80155e-06 0)
(0.00120484 7.91037e-06 0)
(0.00120161 7.96681e-06 0)
(0.00119841 7.97445e-06 0)
(0.00119522 7.93672e-06 0)
(0.00119206 7.85653e-06 0)
(0.00118893 7.73593e-06 0)
(0.00118581 7.57611e-06 0)
(0.00118271 7.37769e-06 0)
(0.00117963 7.14136e-06 0)
(0.00117657 6.86867e-06 0)
(0.00117352 6.56292e-06 0)
(0.00117049 6.22951e-06 0)
(0.00116747 5.87612e-06 0)
(0.00116447 5.51203e-06 0)
(0.0011615 5.14741e-06 0)
(0.00115857 4.79201e-06 0)
(0.00115567 4.45433e-06 0)
(0.00115281 4.14054e-06 0)
(0.00115001 3.85393e-06 0)
(0.00114727 3.5945e-06 0)
(0.00114458 3.3588e-06 0)
(0.00114196 3.14052e-06 0)
(0.00113941 2.93056e-06 0)
(0.00113692 2.71898e-06 0)
(0.0011345 2.49465e-06 0)
(0.00113216 2.24797e-06 0)
(0.00112989 1.96959e-06 0)
(0.00112771 1.6527e-06 0)
(0.0011256 1.29291e-06 0)
(0.00112359 8.86304e-07 0)
(0.00112166 4.31824e-07 0)
(0.00111983 -7.45193e-08 0)
(0.0011181 -6.29308e-07 0)
(0.00111647 -1.23858e-06 0)
(0.00111494 -1.89153e-06 0)
(0.00111352 -2.59973e-06 0)
(0.00111219 -3.33767e-06 0)
(0.00111099 -4.12738e-06 0)
(0.00110989 -4.92437e-06 0)
(0.00110893 -5.77532e-06 0)
(0.00110807 -6.60042e-06 0)
(0.00110734 -7.49201e-06 0)
(0.00110673 -8.31283e-06 0)
(0.00110625 -9.23649e-06 0)
(0.00110589 -1.00278e-05 0)
(0.00110565 -1.09888e-05 0)
(0.00110556 -1.17307e-05 0)
(0.00110554 -1.27426e-05 0)
(0.00110572 -1.34163e-05 0)
(0.00110588 -1.44867e-05 0)
(0.00110634 -1.50701e-05 0)
(0.00110663 -1.6181e-05 0)
(0.00110738 -1.66489e-05 0)
(0.00110774 -1.77354e-05 0)
(0.0011088 -1.80664e-05 0)
(0.00110914 -1.89996e-05 0)
(0.00111053 -1.91945e-05 0)
(0.00111075 -1.97803e-05 0)
(0.00111248 -1.98875e-05 0)
(0.00137427 -1.48795e-05 0)
(0.00137002 -1.32764e-05 0)
(0.00136583 -1.16355e-05 0)
(0.00136168 -9.97553e-06 0)
(0.00135759 -8.3132e-06 0)
(0.00135355 -6.66112e-06 0)
(0.00134956 -5.02747e-06 0)
(0.00134565 -3.42828e-06 0)
(0.00134178 -1.87412e-06 0)
(0.00133794 -3.64651e-07 0)
(0.00133414 1.09468e-06 0)
(0.00133039 2.49558e-06 0)
(0.00132667 3.83477e-06 0)
(0.00132298 5.1051e-06 0)
(0.00131933 6.3026e-06 0)
(0.00131572 7.42735e-06 0)
(0.00131215 8.47844e-06 0)
(0.0013086 9.45434e-06 0)
(0.00130507 1.03536e-05 0)
(0.00130158 1.11763e-05 0)
(0.00129811 1.19231e-05 0)
(0.00129466 1.2594e-05 0)
(0.00129123 1.31905e-05 0)
(0.00128782 1.37144e-05 0)
(0.00128442 1.41679e-05 0)
(0.00128105 1.45531e-05 0)
(0.00127768 1.48723e-05 0)
(0.00127433 1.51282e-05 0)
(0.001271 1.53235e-05 0)
(0.00126767 1.54608e-05 0)
(0.00126436 1.55431e-05 0)
(0.00126105 1.55732e-05 0)
(0.00125775 1.55538e-05 0)
(0.00125446 1.5488e-05 0)
(0.00125118 1.53786e-05 0)
(0.0012479 1.52285e-05 0)
(0.00124463 1.50403e-05 0)
(0.00124136 1.48166e-05 0)
(0.00123809 1.45598e-05 0)
(0.00123483 1.42722e-05 0)
(0.00123156 1.39565e-05 0)
(0.0012283 1.36155e-05 0)
(0.00122502 1.32532e-05 0)
(0.00122174 1.28742e-05 0)
(0.00121846 1.24841e-05 0)
(0.00121519 1.20887e-05 0)
(0.00121191 1.16933e-05 0)
(0.00120866 1.13024e-05 0)
(0.00120542 1.09184e-05 0)
(0.00120222 1.05421e-05 0)
(0.00119905 1.01713e-05 0)
(0.00119593 9.80232e-06 0)
(0.00119287 9.42837e-06 0)
(0.00118987 9.0421e-06 0)
(0.00118694 8.63417e-06 0)
(0.00118408 8.19666e-06 0)
(0.0011813 7.72156e-06 0)
(0.0011786 7.20393e-06 0)
(0.00117599 6.63916e-06 0)
(0.00117346 6.02532e-06 0)
(0.00117101 5.36295e-06 0)
(0.00116865 4.65043e-06 0)
(0.00116636 3.89221e-06 0)
(0.00116416 3.08204e-06 0)
(0.00116202 2.22976e-06 0)
(0.00115998 1.32039e-06 0)
(0.00115799 3.79002e-07 0)
(0.00115609 -6.22507e-07 0)
(0.00115424 -1.63568e-06 0)
(0.00115249 -2.71626e-06 0)
(0.00115079 -3.77503e-06 0)
(0.0011492 -4.92035e-06 0)
(0.00114764 -5.99273e-06 0)
(0.00114622 -7.19121e-06 0)
(0.00114482 -8.24278e-06 0)
(0.00114358 -9.48601e-06 0)
(0.00114233 -1.04787e-05 0)
(0.00114129 -1.17657e-05 0)
(0.00114017 -1.26673e-05 0)
(0.00113931 -1.39938e-05 0)
(0.00113831 -1.4773e-05 0)
(0.00113761 -1.6111e-05 0)
(0.00113669 -1.67387e-05 0)
(0.00113615 -1.80141e-05 0)
(0.00113525 -1.84708e-05 0)
(0.00113486 -1.9545e-05 0)
(0.00113394 -1.98372e-05 0)
(0.00113372 -2.05034e-05 0)
(0.0011327 -2.06869e-05 0)
(0.00137609 -5.46724e-06 0)
(0.00137215 -3.99958e-06 0)
(0.00136831 -2.51053e-06 0)
(0.00136454 -1.00646e-06 0)
(0.00136086 5.0184e-07 0)
(0.00135727 2.00329e-06 0)
(0.00135377 3.49075e-06 0)
(0.00135034 4.94802e-06 0)
(0.001347 6.36435e-06 0)
(0.00134376 7.73837e-06 0)
(0.00134061 9.06657e-06 0)
(0.00133753 1.03428e-05 0)
(0.00133452 1.15603e-05 0)
(0.00133159 1.27193e-05 0)
(0.00132873 1.38178e-05 0)
(0.00132593 1.48508e-05 0)
(0.00132319 1.58155e-05 0)
(0.00132051 1.67108e-05 0)
(0.00131787 1.75363e-05 0)
(0.00131529 1.82918e-05 0)
(0.00131274 1.89772e-05 0)
(0.00131023 1.95933e-05 0)
(0.00130776 2.01411e-05 0)
(0.00130531 2.06224e-05 0)
(0.00130289 2.10387e-05 0)
(0.00130049 2.1392e-05 0)
(0.00129811 2.16844e-05 0)
(0.00129575 2.19182e-05 0)
(0.00129339 2.20959e-05 0)
(0.00129105 2.222e-05 0)
(0.00128871 2.22933e-05 0)
(0.00128637 2.23184e-05 0)
(0.00128403 2.22981e-05 0)
(0.00128168 2.2235e-05 0)
(0.00127933 2.2132e-05 0)
(0.00127698 2.19917e-05 0)
(0.00127461 2.18167e-05 0)
(0.00127223 2.16095e-05 0)
(0.00126983 2.13727e-05 0)
(0.00126742 2.11087e-05 0)
(0.00126499 2.08199e-05 0)
(0.00126254 2.05088e-05 0)
(0.00126006 2.01783e-05 0)
(0.00125757 1.9831e-05 0)
(0.00125506 1.94699e-05 0)
(0.00125252 1.90975e-05 0)
(0.00124997 1.87158e-05 0)
(0.00124741 1.8326e-05 0)
(0.00124483 1.79278e-05 0)
(0.00124226 1.75197e-05 0)
(0.00123968 1.70982e-05 0)
(0.00123712 1.66591e-05 0)
(0.00123457 1.61959e-05 0)
(0.00123205 1.57031e-05 0)
(0.00122956 1.51734e-05 0)
(0.0012271 1.4602e-05 0)
(0.00122467 1.3983e-05 0)
(0.00122229 1.33146e-05 0)
(0.00121994 1.25939e-05 0)
(0.00121763 1.18222e-05 0)
(0.00121535 1.10008e-05 0)
(0.00121311 1.01317e-05 0)
(0.0012109 9.22101e-06 0)
(0.00120873 8.26708e-06 0)
(0.00120656 7.28196e-06 0)
(0.00120444 6.25516e-06 0)
(0.00120231 5.2073e-06 0)
(0.00120021 4.10972e-06 0)
(0.00119809 3.00688e-06 0)
(0.00119601 1.84208e-06 0)
(0.00119387 6.99325e-07 0)
(0.0011918 -5.28831e-07 0)
(0.00118963 -1.68955e-06 0)
(0.00118758 -2.97144e-06 0)
(0.00118538 -4.11792e-06 0)
(0.00118338 -5.44856e-06 0)
(0.00118114 -6.54886e-06 0)
(0.00117921 -7.91826e-06 0)
(0.00117689 -8.93236e-06 0)
(0.00117506 -1.03178e-05 0)
(0.00117259 -1.12031e-05 0)
(0.0011709 -1.25629e-05 0)
(0.0011682 -1.3289e-05 0)
(0.00116673 -1.45498e-05 0)
(0.00116368 -1.51037e-05 0)
(0.00116253 -1.61422e-05 0)
(0.00115902 -1.6538e-05 0)
(0.00115834 -1.71729e-05 0)
(0.00115423 -1.74672e-05 0)
(0.00129016 2.65389e-06 0)
(0.00128716 3.86784e-06 0)
(0.00128429 5.09393e-06 0)
(0.00128158 6.32783e-06 0)
(0.001279 7.56538e-06 0)
(0.00127657 8.79725e-06 0)
(0.00127427 1.00121e-05 0)
(0.00127211 1.12101e-05 0)
(0.0012701 1.2388e-05 0)
(0.00126822 1.35337e-05 0)
(0.00126647 1.46404e-05 0)
(0.00126484 1.57047e-05 0)
(0.00126333 1.6723e-05 0)
(0.00126194 1.76924e-05 0)
(0.00126065 1.86096e-05 0)
(0.00125946 1.94719e-05 0)
(0.00125836 2.02774e-05 0)
(0.00125736 2.10255e-05 0)
(0.00125643 2.17158e-05 0)
(0.00125558 2.23481e-05 0)
(0.0012548 2.29225e-05 0)
(0.00125407 2.34396e-05 0)
(0.0012534 2.39003e-05 0)
(0.00125278 2.4306e-05 0)
(0.0012522 2.4658e-05 0)
(0.00125165 2.49579e-05 0)
(0.00125113 2.52075e-05 0)
(0.00125064 2.54088e-05 0)
(0.00125016 2.55639e-05 0)
(0.00124969 2.56747e-05 0)
(0.00124923 2.57436e-05 0)
(0.00124877 2.57728e-05 0)
(0.00124831 2.57646e-05 0)
(0.00124784 2.57211e-05 0)
(0.00124736 2.56449e-05 0)
(0.00124686 2.55381e-05 0)
(0.00124634 2.5403e-05 0)
(0.0012458 2.52417e-05 0)
(0.00124524 2.50563e-05 0)
(0.00124464 2.48487e-05 0)
(0.00124402 2.46207e-05 0)
(0.00124336 2.43741e-05 0)
(0.00124267 2.41104e-05 0)
(0.00124194 2.38312e-05 0)
(0.00124118 2.35375e-05 0)
(0.00124037 2.32302e-05 0)
(0.00123954 2.2909e-05 0)
(0.00123866 2.25732e-05 0)
(0.00123776 2.22203e-05 0)
(0.00123683 2.18478e-05 0)
(0.00123587 2.14509e-05 0)
(0.00123488 2.10255e-05 0)
(0.00123388 2.05658e-05 0)
(0.00123285 2.00678e-05 0)
(0.00123181 1.9526e-05 0)
(0.00123075 1.89389e-05 0)
(0.00122966 1.83027e-05 0)
(0.00122855 1.76193e-05 0)
(0.00122741 1.68875e-05 0)
(0.00122624 1.61118e-05 0)
(0.00122503 1.52932e-05 0)
(0.00122377 1.44369e-05 0)
(0.00122247 1.35458e-05 0)
(0.00122112 1.26224e-05 0)