/*--------------------------------*- C++ -*----------------------------------*\
| =========                 |                                                 |
| \\      /  F ield         | OpenFOAM: The Open Source CFD Toolbox           |
|  \\    /   O peration     | Version:  2312                                  |
|   \\  /    A nd           | Website:  www.openfoam.com                      |
|    \\/     M anipulation  |                                                 |
\*---------------------------------------------------------------------------*/
FoamFile
{
    version     2.0;
    format      ascii;
    arch        "LSB;label=32;scalar=64";
    class       volScalarField;
    location    "137000";
    object      p;
}
// * * * * * * * * * * * * * * * * * * * * * * * * * * * * * * * * * * * * * //

dimensions      [0 2 -2 0 0 0 0];

internalField   nonuniform List<scalar> 
10800
(
5.5169e-07
5.37566e-07
5.23795e-07
5.13212e-07
5.05782e-07
5.00381e-07
4.95919e-07
4.91827e-07
4.87937e-07
4.84256e-07
4.80822e-07
4.77638e-07
4.74671e-07
4.71871e-07
4.69191e-07
4.66599e-07
4.64073e-07
4.61599e-07
4.59166e-07
4.56767e-07
4.54392e-07
4.52034e-07
4.49686e-07
4.47342e-07
4.44997e-07
4.42649e-07
4.40294e-07
4.37929e-07
4.35551e-07
4.33161e-07
4.30755e-07
4.28333e-07
4.25894e-07
4.23438e-07
4.20964e-07
4.18473e-07
4.15964e-07
4.13438e-07
4.10895e-07
4.08335e-07
4.05758e-07
4.03166e-07
4.00558e-07
3.97933e-07
3.95293e-07
3.92636e-07
3.89962e-07
3.87266e-07
3.84555e-07
3.81811e-07
3.79057e-07
3.76241e-07
3.73444e-07
3.70493e-07
3.67693e-07
3.644e-07
3.61884e-07
3.57304e-07
3.56829e-07
3.46052e-07
5.03659e-07
5.0193e-07
4.99282e-07
4.96151e-07
4.92928e-07
4.89825e-07
4.86892e-07
4.84093e-07
4.81378e-07
4.78716e-07
4.761e-07
4.73538e-07
4.71036e-07
4.68592e-07
4.66202e-07
4.63855e-07
4.61542e-07
4.59257e-07
4.56991e-07
4.54742e-07
4.52504e-07
4.50273e-07
4.48045e-07
4.45818e-07
4.43588e-07
4.41352e-07
4.39108e-07
4.36854e-07
4.34588e-07
4.32309e-07
4.30016e-07
4.27708e-07
4.25384e-07
4.23043e-07
4.20687e-07
4.18312e-07
4.15922e-07
4.13513e-07
4.1109e-07
4.08646e-07
4.06191e-07
4.03712e-07
4.01226e-07
3.98711e-07
3.96197e-07
3.93642e-07
3.91103e-07
3.88506e-07
3.85949e-07
3.83305e-07
3.80751e-07
3.7806e-07
3.75562e-07
3.72845e-07
3.70537e-07
3.67858e-07
3.66074e-07
3.63514e-07
3.62864e-07
3.60006e-07
4.94948e-07
4.94196e-07
4.92779e-07
4.90822e-07
4.88531e-07
4.86103e-07
4.83663e-07
4.81262e-07
4.78903e-07
4.76573e-07
4.74263e-07
4.71972e-07
4.69707e-07
4.67471e-07
4.65267e-07
4.63093e-07
4.60945e-07
4.58817e-07
4.56705e-07
4.54605e-07
4.52514e-07
4.50429e-07
4.48347e-07
4.46265e-07
4.44182e-07
4.42095e-07
4.40002e-07
4.37902e-07
4.35793e-07
4.33673e-07
4.31543e-07
4.294e-07
4.27245e-07
4.25076e-07
4.22895e-07
4.20698e-07
4.18489e-07
4.16262e-07
4.14024e-07
4.11768e-07
4.09501e-07
4.07214e-07
4.0492e-07
4.026e-07
4.00279e-07
3.97926e-07
3.95581e-07
3.93196e-07
3.90833e-07
3.88417e-07
3.86047e-07
3.83605e-07
3.8125e-07
3.78791e-07
3.76483e-07
3.74021e-07
3.71812e-07
3.69351e-07
3.67282e-07
3.64732e-07
4.83246e-07
4.82812e-07
4.82022e-07
4.80928e-07
4.79597e-07
4.78101e-07
4.76498e-07
4.74826e-07
4.73106e-07
4.7135e-07
4.69563e-07
4.67752e-07
4.65921e-07
4.64079e-07
4.62228e-07
4.60374e-07
4.58515e-07
4.56655e-07
4.5479e-07
4.52922e-07
4.5105e-07
4.49172e-07
4.47289e-07
4.454e-07
4.43503e-07
4.41599e-07
4.39686e-07
4.37765e-07
4.35834e-07
4.33893e-07
4.31942e-07
4.2998e-07
4.28007e-07
4.26023e-07
4.24028e-07
4.22021e-07
4.20003e-07
4.17973e-07
4.15932e-07
4.13877e-07
4.11812e-07
4.09733e-07
4.07642e-07
4.05535e-07
4.03417e-07
4.01279e-07
3.9913e-07
3.96954e-07
3.94767e-07
3.92547e-07
3.90315e-07
3.8804e-07
3.85756e-07
3.83419e-07
3.81078e-07
3.78672e-07
3.7627e-07
3.73786e-07
3.71318e-07
3.68766e-07
4.76597e-07
4.76382e-07
4.75948e-07
4.75298e-07
4.74449e-07
4.73428e-07
4.72269e-07
4.71001e-07
4.6965e-07
4.68233e-07
4.66762e-07
4.65246e-07
4.63692e-07
4.62106e-07
4.60495e-07
4.58863e-07
4.57213e-07
4.5555e-07
4.53873e-07
4.52186e-07
4.50488e-07
4.48781e-07
4.47064e-07
4.45339e-07
4.43605e-07
4.41863e-07
4.40113e-07
4.38355e-07
4.36589e-07
4.34815e-07
4.33034e-07
4.31245e-07
4.29449e-07
4.27645e-07
4.25834e-07
4.24016e-07
4.2219e-07
4.20358e-07
4.18518e-07
4.16671e-07
4.14817e-07
4.12955e-07
4.11085e-07
4.09205e-07
4.07317e-07
4.05417e-07
4.03507e-07
4.01582e-07
3.99643e-07
3.97684e-07
3.95701e-07
3.93685e-07
3.91626e-07
3.89513e-07
3.87328e-07
3.85063e-07
3.82705e-07
3.80262e-07
3.7774e-07
3.75238e-07
4.71133e-07
4.70969e-07
4.70641e-07
4.70153e-07
4.69515e-07
4.68742e-07
4.67853e-07
4.66866e-07
4.65796e-07
4.64657e-07
4.63457e-07
4.62205e-07
4.60906e-07
4.59568e-07
4.58195e-07
4.56791e-07
4.55362e-07
4.53909e-07
4.52436e-07
4.50945e-07
4.49438e-07
4.47917e-07
4.46383e-07
4.44836e-07
4.43279e-07
4.41711e-07
4.40135e-07
4.3855e-07
4.36957e-07
4.35357e-07
4.33751e-07
4.32139e-07
4.30521e-07
4.28899e-07
4.27272e-07
4.25641e-07
4.24006e-07
4.22368e-07
4.20726e-07
4.19082e-07
4.17433e-07
4.1578e-07
4.14123e-07
4.1246e-07
4.1079e-07
4.09111e-07
4.07419e-07
4.05714e-07
4.03989e-07
4.02247e-07
4.00479e-07
3.98691e-07
3.96872e-07
3.95023e-07
3.9312e-07
3.91167e-07
3.89131e-07
3.87037e-07
3.84881e-07
3.82792e-07
4.66854e-07
4.66734e-07
4.66494e-07
4.66135e-07
4.6566e-07
4.65076e-07
4.64392e-07
4.6362e-07
4.62767e-07
4.61844e-07
4.60859e-07
4.59818e-07
4.58728e-07
4.57592e-07
4.56417e-07
4.55205e-07
4.53962e-07
4.52691e-07
4.51395e-07
4.50076e-07
4.48738e-07
4.47382e-07
4.46011e-07
4.44625e-07
4.43228e-07
4.4182e-07
4.40402e-07
4.38977e-07
4.37544e-07
4.36106e-07
4.34664e-07
4.33218e-07
4.31769e-07
4.30319e-07
4.28868e-07
4.27417e-07
4.25967e-07
4.24518e-07
4.23072e-07
4.21627e-07
4.20185e-07
4.18747e-07
4.1731e-07
4.15877e-07
4.14446e-07
4.13017e-07
4.11589e-07
4.10161e-07
4.08727e-07
4.07284e-07
4.05823e-07
4.04341e-07
4.02828e-07
4.01288e-07
3.99709e-07
3.98099e-07
3.96438e-07
3.9475e-07
3.93035e-07
3.9141e-07
4.63478e-07
4.63385e-07
4.63198e-07
4.62915e-07
4.6254e-07
4.62075e-07
4.61525e-07
4.60898e-07
4.60198e-07
4.59433e-07
4.58607e-07
4.57725e-07
4.56794e-07
4.55818e-07
4.54801e-07
4.53747e-07
4.52661e-07
4.51544e-07
4.50401e-07
4.49234e-07
4.48047e-07
4.4684e-07
4.45618e-07
4.44381e-07
4.43132e-07
4.41872e-07
4.40604e-07
4.39328e-07
4.38048e-07
4.36764e-07
4.35477e-07
4.3419e-07
4.32903e-07
4.31618e-07
4.30336e-07
4.29059e-07
4.27787e-07
4.26522e-07
4.25265e-07
4.24016e-07
4.22777e-07
4.21548e-07
4.20329e-07
4.19121e-07
4.17922e-07
4.16735e-07
4.15556e-07
4.14388e-07
4.13229e-07
4.12081e-07
4.10935e-07
4.09791e-07
4.08638e-07
4.0748e-07
4.06305e-07
4.05122e-07
4.03918e-07
4.02722e-07
4.01541e-07
4.00482e-07
4.60798e-07
4.60722e-07
4.60568e-07
4.60337e-07
4.60029e-07
4.59645e-07
4.59189e-07
4.58665e-07
4.58078e-07
4.57431e-07
4.56728e-07
4.55974e-07
4.55173e-07
4.54328e-07
4.53444e-07
4.52524e-07
4.51571e-07
4.50589e-07
4.4958e-07
4.48547e-07
4.47493e-07
4.4642e-07
4.45331e-07
4.44228e-07
4.43114e-07
4.4199e-07
4.40858e-07
4.39721e-07
4.38581e-07
4.37439e-07
4.36297e-07
4.35158e-07
4.34022e-07
4.32892e-07
4.3177e-07
4.30656e-07
4.29554e-07
4.28464e-07
4.27389e-07
4.26329e-07
4.25287e-07
4.24263e-07
4.2326e-07
4.22278e-07
4.21319e-07
4.20384e-07
4.19473e-07
4.18586e-07
4.17719e-07
4.16875e-07
4.16053e-07
4.15256e-07
4.1448e-07
4.13726e-07
4.12989e-07
4.12275e-07
4.11578e-07
4.1092e-07
4.10314e-07
4.0985e-07
4.58687e-07
4.58623e-07
4.58493e-07
4.58298e-07
4.58037e-07
4.57711e-07
4.57324e-07
4.56876e-07
4.56373e-07
4.55816e-07
4.55209e-07
4.54555e-07
4.53857e-07
4.53118e-07
4.52342e-07
4.51532e-07
4.50689e-07
4.49819e-07
4.48922e-07
4.48003e-07
4.47063e-07
4.46105e-07
4.45132e-07
4.44146e-07
4.43149e-07
4.42144e-07
4.41134e-07
4.40119e-07
4.39104e-07
4.38089e-07
4.37077e-07
4.36071e-07
4.35072e-07
4.34082e-07
4.33105e-07
4.32142e-07
4.31196e-07
4.30268e-07
4.29361e-07
4.28477e-07
4.27619e-07
4.26788e-07
4.25987e-07
4.25218e-07
4.24484e-07
4.23786e-07
4.23129e-07
4.22509e-07
4.2193e-07
4.21394e-07
4.20904e-07
4.20462e-07
4.20068e-07
4.19727e-07
4.19435e-07
4.19202e-07
4.19025e-07
4.18924e-07
4.18915e-07
4.19074e-07
4.57056e-07
4.57e-07
4.56888e-07
4.56718e-07
4.56491e-07
4.56209e-07
4.55871e-07
4.55481e-07
4.5504e-07
4.54552e-07
4.54018e-07
4.53441e-07
4.52823e-07
4.52168e-07
4.51478e-07
4.50755e-07
4.50002e-07
4.49223e-07
4.48419e-07
4.47593e-07
4.46749e-07
4.45887e-07
4.45012e-07
4.44124e-07
4.43228e-07
4.42326e-07
4.41419e-07
4.4051e-07
4.39603e-07
4.38699e-07
4.37801e-07
4.36912e-07
4.36033e-07
4.35169e-07
4.3432e-07
4.33491e-07
4.32684e-07
4.31902e-07
4.31147e-07
4.30423e-07
4.29732e-07
4.29079e-07
4.28465e-07
4.27895e-07
4.27372e-07
4.26897e-07
4.26472e-07
4.26104e-07
4.25796e-07
4.25553e-07
4.25378e-07
4.25276e-07
4.25249e-07
4.25305e-07
4.25444e-07
4.25677e-07
4.26006e-07
4.26451e-07
4.27028e-07
4.27796e-07
4.5584e-07
4.55791e-07
4.55691e-07
4.5554e-07
4.55338e-07
4.55086e-07
4.54786e-07
4.54437e-07
4.54043e-07
4.53606e-07
4.53126e-07
4.52607e-07
4.52051e-07
4.5146e-07
4.50836e-07
4.50182e-07
4.495e-07
4.48792e-07
4.48062e-07
4.47311e-07
4.46543e-07
4.45759e-07
4.44963e-07
4.44157e-07
4.43343e-07
4.42525e-07
4.41704e-07
4.40883e-07
4.40066e-07
4.39255e-07
4.38452e-07
4.37661e-07
4.36884e-07
4.36125e-07
4.35386e-07
4.34671e-07
4.33983e-07
4.33325e-07
4.327e-07
4.32113e-07
4.31567e-07
4.31067e-07
4.30615e-07
4.30216e-07
4.29873e-07
4.29591e-07
4.29375e-07
4.29232e-07
4.29167e-07
4.29185e-07
4.29292e-07
4.29495e-07
4.298e-07
4.30214e-07
4.30745e-07
4.31402e-07
4.32195e-07
4.33141e-07
4.34258e-07
4.3559e-07
4.54994e-07
4.54949e-07
4.54858e-07
4.5472e-07
4.54536e-07
4.54306e-07
4.54031e-07
4.53712e-07
4.53352e-07
4.5295e-07
4.52511e-07
4.52034e-07
4.51522e-07
4.50978e-07
4.50403e-07
4.49799e-07
4.4917e-07
4.48516e-07
4.47841e-07
4.47148e-07
4.46437e-07
4.45713e-07
4.44978e-07
4.44234e-07
4.43484e-07
4.4273e-07
4.41976e-07
4.41224e-07
4.40477e-07
4.39739e-07
4.39011e-07
4.38297e-07
4.37601e-07
4.36925e-07
4.36273e-07
4.35648e-07
4.35055e-07
4.34496e-07
4.33977e-07
4.335e-07
4.3307e-07
4.32693e-07
4.32371e-07
4.3211e-07
4.31915e-07
4.31793e-07
4.31749e-07
4.31791e-07
4.31925e-07
4.32158e-07
4.32498e-07
4.32953e-07
4.33532e-07
4.34246e-07
4.35103e-07
4.36117e-07
4.373e-07
4.38667e-07
4.4024e-07
4.42048e-07
4.54485e-07
4.54443e-07
4.54357e-07
4.54228e-07
4.54055e-07
4.5384e-07
4.53581e-07
4.53282e-07
4.52943e-07
4.52566e-07
4.52152e-07
4.51703e-07
4.51221e-07
4.50708e-07
4.50166e-07
4.49596e-07
4.49002e-07
4.48385e-07
4.47748e-07
4.47093e-07
4.46423e-07
4.4574e-07
4.45046e-07
4.44346e-07
4.4364e-07
4.42932e-07
4.42224e-07
4.41521e-07
4.40823e-07
4.40136e-07
4.39461e-07
4.38802e-07
4.38163e-07
4.37546e-07
4.36956e-07
4.36396e-07
4.3587e-07
4.35384e-07
4.3494e-07
4.34542e-07
4.34196e-07
4.33906e-07
4.33677e-07
4.33517e-07
4.3343e-07
4.33424e-07
4.33506e-07
4.33682e-07
4.3396e-07
4.3435e-07
4.34859e-07
4.35499e-07
4.36279e-07
4.37211e-07
4.38309e-07
4.39584e-07
4.41053e-07
4.42731e-07
4.4464e-07
4.46801e-07
4.54293e-07
4.54252e-07
4.54169e-07
4.54044e-07
4.53877e-07
4.53669e-07
4.53419e-07
4.5313e-07
4.52802e-07
4.52437e-07
4.52037e-07
4.51603e-07
4.51136e-07
4.5064e-07
4.50115e-07
4.49564e-07
4.48988e-07
4.48391e-07
4.47775e-07
4.47141e-07
4.46493e-07
4.45832e-07
4.45162e-07
4.44485e-07
4.43803e-07
4.43121e-07
4.4244e-07
4.41763e-07
4.41094e-07
4.40435e-07
4.3979e-07
4.39163e-07
4.38556e-07
4.37973e-07
4.37419e-07
4.36896e-07
4.36409e-07
4.35962e-07
4.35559e-07
4.35206e-07
4.34907e-07
4.34668e-07
4.34495e-07
4.34393e-07
4.34369e-07
4.34429e-07
4.34582e-07
4.34834e-07
4.35195e-07
4.35673e-07
4.36278e-07
4.37022e-07
4.37916e-07
4.38971e-07
4.40204e-07
4.41626e-07
4.43256e-07
4.45109e-07
4.47207e-07
4.49564e-07
4.54405e-07
4.54364e-07
4.54282e-07
4.54157e-07
4.53991e-07
4.53783e-07
4.53535e-07
4.53247e-07
4.5292e-07
4.52557e-07
4.52158e-07
4.51726e-07
4.51262e-07
4.50767e-07
4.50245e-07
4.49696e-07
4.49124e-07
4.4853e-07
4.47916e-07
4.47286e-07
4.46641e-07
4.45985e-07
4.45319e-07
4.44646e-07
4.43969e-07
4.43292e-07
4.42616e-07
4.41945e-07
4.41281e-07
4.40628e-07
4.3999e-07
4.39369e-07
4.38769e-07
4.38194e-07
4.37647e-07
4.37132e-07
4.36653e-07
4.36215e-07
4.35822e-07
4.35479e-07
4.35191e-07
4.34963e-07
4.34802e-07
4.34712e-07
4.34701e-07
4.34775e-07
4.34941e-07
4.35208e-07
4.35585e-07
4.36079e-07
4.36702e-07
4.37462e-07
4.38375e-07
4.3945e-07
4.40703e-07
4.42147e-07
4.438e-07
4.45677e-07
4.478e-07
4.50182e-07
4.54821e-07
4.54779e-07
4.54695e-07
4.54567e-07
4.54396e-07
4.54183e-07
4.53928e-07
4.53632e-07
4.53297e-07
4.52924e-07
4.52515e-07
4.52072e-07
4.51596e-07
4.5109e-07
4.50554e-07
4.49993e-07
4.49407e-07
4.48799e-07
4.48172e-07
4.47527e-07
4.46868e-07
4.46197e-07
4.45516e-07
4.44828e-07
4.44136e-07
4.43443e-07
4.42751e-07
4.42064e-07
4.41384e-07
4.40715e-07
4.40059e-07
4.3942e-07
4.38802e-07
4.38207e-07
4.3764e-07
4.37105e-07
4.36605e-07
4.36144e-07
4.35727e-07
4.35358e-07
4.35043e-07
4.34787e-07
4.34594e-07
4.34471e-07
4.34423e-07
4.34457e-07
4.3458e-07
4.34798e-07
4.3512e-07
4.35556e-07
4.36115e-07
4.36809e-07
4.37646e-07
4.38636e-07
4.39795e-07
4.41135e-07
4.42673e-07
4.44423e-07
4.46407e-07
4.48642e-07
4.55551e-07
4.55506e-07
4.55417e-07
4.55281e-07
4.551e-07
4.54874e-07
4.54604e-07
4.54291e-07
4.53937e-07
4.53543e-07
4.53112e-07
4.52644e-07
4.52143e-07
4.51609e-07
4.51046e-07
4.50456e-07
4.4984e-07
4.49202e-07
4.48543e-07
4.47866e-07
4.47174e-07
4.4647e-07
4.45755e-07
4.45033e-07
4.44306e-07
4.43576e-07
4.42848e-07
4.42123e-07
4.41405e-07
4.40696e-07
4.4e-07
4.3932e-07
4.38658e-07
4.38019e-07
4.37405e-07
4.36821e-07
4.3627e-07
4.35755e-07
4.35282e-07
4.34853e-07
4.34474e-07
4.3415e-07
4.33884e-07
4.33683e-07
4.33551e-07
4.33495e-07
4.3352e-07
4.33633e-07
4.33841e-07
4.34153e-07
4.34575e-07
4.35117e-07
4.35789e-07
4.36598e-07
4.37557e-07
4.38678e-07
4.39973e-07
4.41457e-07
4.43152e-07
4.45083e-07
4.56611e-07
4.56563e-07
4.56465e-07
4.56317e-07
4.5612e-07
4.55874e-07
4.5558e-07
4.55239e-07
4.54854e-07
4.54427e-07
4.53959e-07
4.53453e-07
4.52911e-07
4.52335e-07
4.51727e-07
4.51091e-07
4.50428e-07
4.49742e-07
4.49034e-07
4.48307e-07
4.47564e-07
4.46807e-07
4.46039e-07
4.45263e-07
4.44482e-07
4.43697e-07
4.42912e-07
4.42129e-07
4.41351e-07
4.40581e-07
4.39822e-07
4.39077e-07
4.38348e-07
4.3764e-07
4.36954e-07
4.36295e-07
4.35665e-07
4.35068e-07
4.34507e-07
4.33987e-07
4.33512e-07
4.33084e-07
4.32709e-07
4.3239e-07
4.32133e-07
4.31942e-07
4.31822e-07
4.31778e-07
4.31816e-07
4.31942e-07
4.32162e-07
4.32484e-07
4.32914e-07
4.3346e-07
4.3413e-07
4.34934e-07
4.3588e-07
4.36986e-07
4.38268e-07
4.39768e-07
4.58033e-07
4.57979e-07
4.57869e-07
4.57704e-07
4.57483e-07
4.57207e-07
4.56878e-07
4.56498e-07
4.56069e-07
4.55593e-07
4.55074e-07
4.54513e-07
4.53913e-07
4.53277e-07
4.52608e-07
4.51908e-07
4.5118e-07
4.50427e-07
4.49651e-07
4.48855e-07
4.48043e-07
4.47215e-07
4.46376e-07
4.45527e-07
4.44671e-07
4.43811e-07
4.4295e-07
4.42089e-07
4.41231e-07
4.4038e-07
4.39537e-07
4.38706e-07
4.37889e-07
4.37088e-07
4.36307e-07
4.35548e-07
4.34815e-07
4.3411e-07
4.33436e-07
4.32796e-07
4.32194e-07
4.31633e-07
4.31116e-07
4.30647e-07
4.30229e-07
4.29866e-07
4.29561e-07
4.29319e-07
4.29143e-07
4.29036e-07
4.29003e-07
4.2905e-07
4.2918e-07
4.29401e-07
4.29714e-07
4.30129e-07
4.30649e-07
4.31293e-07
4.32076e-07
4.33052e-07
4.59861e-07
4.59798e-07
4.59672e-07
4.59482e-07
4.59227e-07
4.5891e-07
4.58533e-07
4.58098e-07
4.57608e-07
4.57067e-07
4.56477e-07
4.55842e-07
4.55166e-07
4.5445e-07
4.53699e-07
4.52916e-07
4.52103e-07
4.51264e-07
4.50402e-07
4.49518e-07
4.48617e-07
4.477e-07
4.4677e-07
4.4583e-07
4.44882e-07
4.43928e-07
4.42971e-07
4.42014e-07
4.41058e-07
4.40106e-07
4.39161e-07
4.38224e-07
4.37298e-07
4.36385e-07
4.35489e-07
4.3461e-07
4.33752e-07
4.32916e-07
4.32106e-07
4.31323e-07
4.30571e-07
4.29851e-07
4.29167e-07
4.2852e-07
4.27912e-07
4.27348e-07
4.26827e-07
4.26355e-07
4.25931e-07
4.2556e-07
4.25239e-07
4.24974e-07
4.24764e-07
4.24617e-07
4.2453e-07
4.24512e-07
4.24559e-07
4.24693e-07
4.24926e-07
4.25329e-07
4.62157e-07
4.62082e-07
4.61933e-07
4.61707e-07
4.61406e-07
4.61032e-07
4.60588e-07
4.60079e-07
4.59507e-07
4.58878e-07
4.58195e-07
4.57464e-07
4.56687e-07
4.5587e-07
4.55015e-07
4.54126e-07
4.53207e-07
4.52261e-07
4.51291e-07
4.503e-07
4.4929e-07
4.48265e-07
4.47226e-07
4.46176e-07
4.45118e-07
4.44053e-07
4.42984e-07
4.41912e-07
4.40841e-07
4.39772e-07
4.38706e-07
4.37647e-07
4.36595e-07
4.35554e-07
4.34524e-07
4.33508e-07
4.32507e-07
4.31524e-07
4.3056e-07
4.29616e-07
4.28696e-07
4.278e-07
4.26929e-07
4.26087e-07
4.25272e-07
4.24489e-07
4.23736e-07
4.23016e-07
4.22328e-07
4.21673e-07
4.21048e-07
4.20452e-07
4.19885e-07
4.19351e-07
4.18845e-07
4.18375e-07
4.17932e-07
4.17539e-07
4.17205e-07
4.17017e-07
4.65007e-07
4.64916e-07
4.64733e-07
4.64457e-07
4.6409e-07
4.63636e-07
4.631e-07
4.62488e-07
4.61806e-07
4.61061e-07
4.60258e-07
4.59402e-07
4.58499e-07
4.57553e-07
4.56569e-07
4.55551e-07
4.54502e-07
4.53427e-07
4.52328e-07
4.51208e-07
4.5007e-07
4.48917e-07
4.47751e-07
4.46573e-07
4.45387e-07
4.44194e-07
4.42996e-07
4.41794e-07
4.40591e-07
4.39388e-07
4.38187e-07
4.3699e-07
4.35798e-07
4.34612e-07
4.33434e-07
4.32265e-07
4.31107e-07
4.29961e-07
4.28828e-07
4.2771e-07
4.26607e-07
4.25521e-07
4.24451e-07
4.23399e-07
4.22365e-07
4.21348e-07
4.20348e-07
4.19366e-07
4.18398e-07
4.17448e-07
4.16511e-07
4.1559e-07
4.14677e-07
4.13768e-07
4.1285e-07
4.11934e-07
4.11008e-07
4.10102e-07
4.0922e-07
4.08464e-07
4.68538e-07
4.6842e-07
4.68185e-07
4.67832e-07
4.67367e-07
4.66795e-07
4.66126e-07
4.6537e-07
4.64538e-07
4.63637e-07
4.62677e-07
4.61664e-07
4.60604e-07
4.59502e-07
4.58363e-07
4.57191e-07
4.5599e-07
4.54764e-07
4.53516e-07
4.52249e-07
4.50966e-07
4.49669e-07
4.48359e-07
4.47039e-07
4.45711e-07
4.44376e-07
4.43035e-07
4.4169e-07
4.40343e-07
4.38995e-07
4.37646e-07
4.36299e-07
4.34954e-07
4.33612e-07
4.32275e-07
4.30943e-07
4.29617e-07
4.28299e-07
4.26988e-07
4.25687e-07
4.24394e-07
4.23111e-07
4.21837e-07
4.20573e-07
4.19318e-07
4.18073e-07
4.16837e-07
4.15609e-07
4.14385e-07
4.13166e-07
4.11941e-07
4.10709e-07
4.09454e-07
4.0818e-07
4.06872e-07
4.05546e-07
4.04182e-07
4.02806e-07
4.01413e-07
4.00112e-07
4.72955e-07
4.72794e-07
4.72471e-07
4.71991e-07
4.71364e-07
4.70604e-07
4.69731e-07
4.68763e-07
4.67715e-07
4.66599e-07
4.65427e-07
4.64205e-07
4.6294e-07
4.61638e-07
4.60304e-07
4.58943e-07
4.57559e-07
4.56155e-07
4.54735e-07
4.533e-07
4.51852e-07
4.50394e-07
4.48926e-07
4.47451e-07
4.45968e-07
4.44479e-07
4.42985e-07
4.41488e-07
4.39987e-07
4.38484e-07
4.36979e-07
4.35473e-07
4.33967e-07
4.32461e-07
4.30957e-07
4.29454e-07
4.27953e-07
4.26455e-07
4.24961e-07
4.23469e-07
4.21981e-07
4.20496e-07
4.19014e-07
4.17534e-07
4.16055e-07
4.14576e-07
4.13094e-07
4.11608e-07
4.10112e-07
4.08606e-07
4.07083e-07
4.05546e-07
4.03985e-07
4.02406e-07
4.00791e-07
3.99143e-07
3.97432e-07
3.95675e-07
3.93862e-07
3.92116e-07
4.78534e-07
4.78321e-07
4.77893e-07
4.77251e-07
4.76413e-07
4.75406e-07
4.74264e-07
4.73017e-07
4.7169e-07
4.70299e-07
4.68857e-07
4.67374e-07
4.65855e-07
4.64308e-07
4.6274e-07
4.61153e-07
4.59553e-07
4.57942e-07
4.56322e-07
4.54694e-07
4.53059e-07
4.51419e-07
4.49774e-07
4.48124e-07
4.46469e-07
4.44811e-07
4.43149e-07
4.41484e-07
4.39815e-07
4.38144e-07
4.3647e-07
4.34794e-07
4.33116e-07
4.31436e-07
4.29755e-07
4.28072e-07
4.26389e-07
4.24705e-07
4.2302e-07
4.21336e-07
4.19651e-07
4.17965e-07
4.16279e-07
4.14592e-07
4.12904e-07
4.11213e-07
4.09519e-07
4.0782e-07
4.06115e-07
4.04401e-07
4.02673e-07
4.00926e-07
3.9915e-07
3.97336e-07
3.95465e-07
3.93526e-07
3.915e-07
3.89401e-07
3.87232e-07
3.85082e-07
4.85288e-07
4.84857e-07
4.84073e-07
4.82987e-07
4.81668e-07
4.80188e-07
4.78602e-07
4.76952e-07
4.75257e-07
4.73528e-07
4.71773e-07
4.69996e-07
4.68203e-07
4.66402e-07
4.64596e-07
4.62789e-07
4.60983e-07
4.59177e-07
4.57372e-07
4.55567e-07
4.53761e-07
4.51954e-07
4.50146e-07
4.48335e-07
4.46522e-07
4.44706e-07
4.42885e-07
4.41061e-07
4.39232e-07
4.37398e-07
4.3556e-07
4.33716e-07
4.31867e-07
4.30013e-07
4.28154e-07
4.26289e-07
4.2442e-07
4.22545e-07
4.20667e-07
4.18783e-07
4.16895e-07
4.15001e-07
4.13104e-07
4.11199e-07
4.09292e-07
4.07373e-07
4.05454e-07
4.03518e-07
4.01581e-07
3.99621e-07
3.97661e-07
3.95669e-07
3.93679e-07
3.91647e-07
3.89622e-07
3.87539e-07
3.85471e-07
3.83327e-07
3.81212e-07
3.79023e-07
4.97058e-07
4.96309e-07
4.94899e-07
4.92952e-07
4.90674e-07
4.88262e-07
4.85842e-07
4.83464e-07
4.81132e-07
4.78832e-07
4.76555e-07
4.74301e-07
4.72076e-07
4.69884e-07
4.67728e-07
4.65604e-07
4.6351e-07
4.6144e-07
4.5939e-07
4.57355e-07
4.55334e-07
4.53322e-07
4.51317e-07
4.49317e-07
4.4732e-07
4.45324e-07
4.43327e-07
4.41327e-07
4.39323e-07
4.37314e-07
4.35301e-07
4.3328e-07
4.31253e-07
4.29218e-07
4.27177e-07
4.25126e-07
4.23071e-07
4.21005e-07
4.18935e-07
4.16854e-07
4.14771e-07
4.12674e-07
4.10579e-07
4.08467e-07
4.06362e-07
4.04235e-07
4.02124e-07
3.99982e-07
3.97872e-07
3.95719e-07
3.93621e-07
3.91464e-07
3.89403e-07
3.87252e-07
3.85265e-07
3.83138e-07
3.81279e-07
3.79181e-07
3.7749e-07
3.75323e-07
5.05831e-07
5.04105e-07
5.01463e-07
4.98343e-07
4.95133e-07
4.92048e-07
4.89135e-07
4.86361e-07
4.83674e-07
4.81043e-07
4.78463e-07
4.75939e-07
4.73479e-07
4.71081e-07
4.68739e-07
4.66445e-07
4.64189e-07
4.61963e-07
4.59761e-07
4.57579e-07
4.55412e-07
4.53256e-07
4.51108e-07
4.48964e-07
4.46822e-07
4.44678e-07
4.42532e-07
4.4038e-07
4.38222e-07
4.36056e-07
4.33882e-07
4.31698e-07
4.29505e-07
4.27301e-07
4.25088e-07
4.22864e-07
4.20632e-07
4.18388e-07
4.16137e-07
4.13874e-07
4.11607e-07
4.09325e-07
4.07044e-07
4.04742e-07
4.0245e-07
4.00127e-07
3.97828e-07
3.95481e-07
3.93183e-07
3.90809e-07
3.88533e-07
3.86134e-07
3.83935e-07
3.81531e-07
3.79544e-07
3.77205e-07
3.75767e-07
3.73571e-07
3.7329e-07
3.70821e-07
5.53887e-07
5.39766e-07
5.26002e-07
5.15431e-07
5.08016e-07
5.02635e-07
4.98195e-07
4.94129e-07
4.90269e-07
4.86621e-07
4.83224e-07
4.8008e-07
4.77156e-07
4.74403e-07
4.71774e-07
4.69236e-07
4.66767e-07
4.64354e-07
4.61986e-07
4.59655e-07
4.57352e-07
4.5507e-07
4.52801e-07
4.50542e-07
4.48286e-07
4.46031e-07
4.43774e-07
4.41511e-07
4.39242e-07
4.36965e-07
4.34678e-07
4.32382e-07
4.30074e-07
4.27756e-07
4.25426e-07
4.23086e-07
4.20736e-07
4.18376e-07
4.16006e-07
4.13627e-07
4.1124e-07
4.08846e-07
4.06443e-07
4.04033e-07
4.01616e-07
3.99191e-07
3.96758e-07
3.94314e-07
3.91862e-07
3.89388e-07
3.86912e-07
3.84385e-07
3.81886e-07
3.79246e-07
3.76762e-07
3.73803e-07
3.71617e-07
3.67399e-07
3.67279e-07
3.56866e-07
3.8558e-07
3.34491e-07
3.12921e-07
2.94753e-07
2.76465e-07
2.58018e-07
2.37425e-07
2.15486e-07
1.89953e-07
1.62586e-07
1.30887e-07
9.78229e-08
6.04287e-08
2.30156e-08
-1.80518e-08
-5.7068e-08
-9.89455e-08
-1.36478e-07
-1.7635e-07
-2.098e-07
-2.45471e-07
-2.73042e-07
-3.03413e-07
-3.23866e-07
-3.49194e-07
-3.60517e-07
-3.84948e-07
-3.83243e-07
-4.12551e-07
-5.06362e-07
3.71422e-07
3.15673e-07
3.01095e-07
2.85516e-07
2.67919e-07
2.4991e-07
2.29645e-07
2.07888e-07
1.82582e-07
1.55618e-07
1.24593e-07
9.24371e-08
5.62585e-08
2.02121e-08
-1.92979e-08
-5.68204e-08
-9.68896e-08
-1.32979e-07
-1.71061e-07
-2.03573e-07
-2.38188e-07
-2.65085e-07
-2.95529e-07
-3.15474e-07
-3.41716e-07
-3.53952e-07
-3.75681e-07
-3.86811e-07
-3.89111e-07
-5.28214e-07
3.59032e-07
3.13092e-07
2.99562e-07
2.84489e-07
2.66389e-07
2.47382e-07
2.26593e-07
2.045e-07
1.79153e-07
1.5208e-07
1.21302e-07
8.92689e-08
5.36581e-08
1.79953e-08
-2.06229e-08
-5.75252e-08
-9.66457e-08
-1.32345e-07
-1.69908e-07
-2.01905e-07
-2.35973e-07
-2.62952e-07
-2.92193e-07
-3.13827e-07
-3.37372e-07
-3.55351e-07
-3.71373e-07
-3.96423e-07
-3.75638e-07
-4.7042e-07
3.48647e-07
3.08754e-07
2.93103e-07
2.78543e-07
2.61162e-07
2.42784e-07
2.22197e-07
1.99966e-07
1.74683e-07
1.47493e-07
1.17048e-07
8.50851e-08
5.02263e-08
1.48338e-08
-2.25975e-08
-5.92143e-08
-9.68497e-08
-1.32357e-07
-1.6785e-07
-2.00356e-07
-2.31977e-07
-2.60781e-07
-2.87378e-07
-3.12135e-07
-3.31913e-07
-3.5569e-07
-3.62998e-07
-3.97104e-07
-3.72125e-07
-4.35254e-07
3.38594e-07
3.05951e-07
2.89449e-07
2.76056e-07
2.59215e-07
2.40041e-07
2.18928e-07
1.96143e-07
1.70822e-07
1.4325e-07
1.13053e-07
8.08608e-08
4.66807e-08
1.1251e-08
-2.50325e-08
-6.161e-08
-9.76783e-08
-1.33257e-07
-1.66924e-07
-2.00089e-07
-2.29712e-07
-2.59843e-07
-2.8378e-07
-3.11238e-07
-3.27349e-07
-3.54479e-07
-3.58734e-07
-3.90387e-07
-3.78405e-07
-4.09643e-07
3.29761e-07
3.04017e-07
2.86678e-07
2.728e-07
2.56222e-07
2.36958e-07
2.15667e-07
1.9241e-07
1.66969e-07
1.38988e-07
1.08908e-07
7.64373e-08
4.2765e-08
7.25065e-09
-2.80706e-08
-6.46106e-08
-9.92937e-08
-1.34918e-07
-1.66944e-07
-2.00423e-07
-2.28251e-07
-2.59034e-07
-2.81352e-07
-3.09631e-07
-3.24877e-07
-3.51328e-07
-3.58353e-07
-3.82625e-07
-3.84445e-07
-3.98495e-07
3.22486e-07
3.02293e-07
2.84849e-07
2.70093e-07
2.53627e-07
2.34301e-07
2.12761e-07
1.88941e-07
1.63193e-07
1.34751e-07
1.04601e-07
7.18516e-08
3.84478e-08
2.92422e-09
-3.17383e-08
-6.80389e-08
-1.01748e-07
-1.37015e-07
-1.6797e-07
-2.01038e-07
-2.28017e-07
-2.58309e-07
-2.80504e-07
-3.07732e-07
-3.24509e-07
-3.48054e-07
-3.5974e-07
-3.77879e-07
-3.86654e-07
-3.96463e-07
3.17e-07
3.00669e-07
2.83725e-07
2.67981e-07
2.51265e-07
2.31786e-07
2.09931e-07
1.85554e-07
1.59338e-07
1.30443e-07
1.00031e-07
6.70725e-08
3.36874e-08
-1.7062e-09
-3.6033e-08
-7.18423e-08
-1.05016e-07
-1.39494e-07
-1.69965e-07
-2.01999e-07
-2.28912e-07
-2.57883e-07
-2.80857e-07
-3.06207e-07
-3.25096e-07
-3.45943e-07
-3.61016e-07
-3.76253e-07
-3.87702e-07
-3.96868e-07
3.13382e-07
2.99136e-07
2.82842e-07
2.66417e-07
2.49144e-07
2.29337e-07
2.07077e-07
1.82164e-07
1.55356e-07
1.26006e-07
9.51765e-08
6.20567e-08
2.84998e-08
-6.66716e-09
-4.08929e-08
-7.60513e-08
-1.0897e-07
-1.42431e-07
-1.72717e-07
-2.03469e-07
-2.30538e-07
-2.58054e-07
-2.81734e-07
-3.05568e-07
-3.25772e-07
-3.45349e-07
-3.61839e-07
-3.76618e-07
-3.88813e-07
-3.98801e-07
3.11383e-07
2.97754e-07
2.82028e-07
2.6521e-07
2.47217e-07
2.2689e-07
2.04103e-07
1.78653e-07
1.51181e-07
1.21356e-07
9.00113e-08
5.67289e-08
2.29063e-08
-1.20188e-08
-4.6238e-08
-8.07256e-08
-1.13458e-07
-1.45906e-07
-1.75999e-07
-2.0556e-07
-2.32603e-07
-2.58952e-07
-2.8288e-07
-3.0581e-07
-3.26491e-07
-3.45668e-07
-3.62683e-07
-3.77711e-07
-3.90531e-07
-4.01428e-07
3.1052e-07
2.96669e-07
2.81164e-07
2.6407e-07
2.45351e-07
2.2436e-07
2.00926e-07
1.74901e-07
1.4674e-07
1.164e-07
8.45009e-08
5.1011e-08
1.69092e-08
-1.78243e-08
-5.20216e-08
-8.59149e-08
-1.1839e-07
-1.49959e-07
-1.79697e-07
-2.08282e-07
-2.35016e-07
-2.60513e-07
-2.84278e-07
-3.06678e-07
-3.27389e-07
-3.46499e-07
-3.63796e-07
-3.79264e-07
-3.92779e-07
-4.04592e-07
3.10218e-07
2.95922e-07
2.80251e-07
2.62795e-07
2.43366e-07
2.21634e-07
1.97467e-07
1.70806e-07
1.41942e-07
1.11045e-07
7.85839e-08
4.48274e-08
1.04674e-08
-2.41434e-08
-5.82618e-08
-9.16578e-08
-1.23775e-07
-1.54594e-07
-1.83825e-07
-2.11593e-07
-2.37817e-07
-2.62624e-07
-2.86011e-07
-3.08013e-07
-3.28593e-07
-3.47708e-07
-3.65232e-07
-3.81165e-07
-3.95361e-07
-4.08154e-07
3.10062e-07
2.95363e-07
2.79251e-07
2.61258e-07
2.41101e-07
2.18592e-07
1.93642e-07
1.66277e-07
1.36692e-07
1.0519e-07
7.21667e-08
3.80896e-08
3.49394e-09
-3.10514e-08
-6.50415e-08
-9.80102e-08
-1.29695e-07
-1.5984e-07
-1.88468e-07
-2.15486e-07
-2.41099e-07
-2.65252e-07
-2.88177e-07
-3.09771e-07
-3.30179e-07
-3.49242e-07
-3.67002e-07
-3.83305e-07
-3.98224e-07
-4.11866e-07
3.09802e-07
2.9478e-07
2.78078e-07
2.59394e-07
2.38459e-07
2.15143e-07
1.89368e-07
1.61225e-07
1.30881e-07
9.87218e-08
6.51242e-08
3.06798e-08
-4.14226e-09
-3.86625e-08
-7.2494e-08
-1.05072e-07
-1.36278e-07
-1.65778e-07
-1.93746e-07
-2.20024e-07
-2.44961e-07
-2.68446e-07
-2.90845e-07
-3.1199e-07
-3.32168e-07
-3.51127e-07
-3.69061e-07
-3.85692e-07
-4.01253e-07
-4.15714e-07
3.09351e-07
2.9398e-07
2.76638e-07
2.5718e-07
2.35406e-07
2.11221e-07
1.84554e-07
1.55548e-07
1.24379e-07
9.1499e-08
5.72963e-08
2.24406e-08
-1.2615e-08
-4.71367e-08
-8.07936e-08
-1.12989e-07
-1.43685e-07
-1.72531e-07
-1.99795e-07
-2.25304e-07
-2.49512e-07
-2.72276e-07
-2.94085e-07
-3.14712e-07
-3.34591e-07
-3.53363e-07
-3.71409e-07
-3.88275e-07
-4.04425e-07
-4.19571e-07
3.08767e-07
2.92921e-07
2.74916e-07
2.54634e-07
2.31935e-07
2.06772e-07
1.79102e-07
1.49116e-07
1.17028e-07
8.33451e-08
4.84858e-08
1.31721e-08
-2.2134e-08
-5.66726e-08
-9.01399e-08
-1.2194e-07
-1.52088e-07
-1.80246e-07
-2.0675e-07
-2.31441e-07
-2.54845e-07
-2.76825e-07
-2.97949e-07
-3.17981e-07
-3.37449e-07
-3.55954e-07
-3.73997e-07
-3.91023e-07
-4.07652e-07
-4.23394e-07
3.08227e-07
2.91685e-07
2.72953e-07
2.51775e-07
2.28021e-07
2.0171e-07
1.72869e-07
1.41753e-07
1.08623e-07
7.40388e-08
3.84569e-08
2.63833e-09
-3.29345e-08
-6.7491e-08
-1.00742e-07
-1.32112e-07
-1.61655e-07
-1.89067e-07
-2.14739e-07
-2.38538e-07
-2.61049e-07
-2.82156e-07
-3.02485e-07
-3.2182e-07
-3.40745e-07
-3.58882e-07
-3.76773e-07
-3.93876e-07
-4.10833e-07
-4.27112e-07
3.07971e-07
2.9043e-07
2.70791e-07
2.48551e-07
2.2354e-07
1.95859e-07
1.65638e-07
1.3321e-07
9.88991e-08
6.33059e-08
2.69333e-08
-9.42844e-09
-4.52707e-08
-7.9825e-08
-1.12812e-07
-1.4369e-07
-1.72553e-07
-1.99135e-07
-2.23885e-07
-2.46696e-07
-2.68215e-07
-2.88336e-07
-3.07753e-07
-3.2626e-07
-3.44504e-07
-3.62125e-07
-3.79714e-07
-3.96749e-07
-4.13893e-07
-4.30586e-07
3.08126e-07
2.89277e-07
2.68375e-07
2.44755e-07
2.18209e-07
1.88907e-07
1.57083e-07
1.23156e-07
8.75172e-08
5.08114e-08
1.35904e-08
-2.33343e-08
-5.94272e-08
-9.39349e-08
-1.26588e-07
-1.56891e-07
-1.84974e-07
-2.10625e-07
-2.34344e-07
-2.56054e-07
-2.76465e-07
-2.95472e-07
-3.13849e-07
-3.31372e-07
-3.48783e-07
-3.65706e-07
-3.82811e-07
-3.9959e-07
-4.16714e-07
-4.33665e-07
3.0844e-07
2.88001e-07
2.65367e-07
2.39943e-07
2.1155e-07
1.80378e-07
1.46742e-07
1.11135e-07
7.40319e-08
3.61224e-08
-1.98634e-09
-3.94709e-08
-7.57708e-08
-1.10163e-07
-1.42388e-07
-1.72014e-07
-1.99201e-07
-2.23803e-07
-2.46359e-07
-2.66836e-07
-2.85999e-07
-3.0374e-07
-3.20925e-07
-3.37274e-07
-3.53687e-07
-3.6967e-07
-3.86103e-07
-4.02323e-07
-4.19203e-07
-4.36059e-07
3.08138e-07
2.85842e-07
2.61123e-07
2.33533e-07
2.02971e-07
1.69665e-07
1.33999e-07
9.65333e-08
5.78359e-08
1.86445e-08
-2.03718e-08
-5.83891e-08
-9.48233e-08
-1.29002e-07
-1.60677e-07
-1.895e-07
-2.15651e-07