/*--------------------------------*- C++ -*----------------------------------*\
| =========                 |                                                 |
| \\      /  F ield         | OpenFOAM: The Open Source CFD Toolbox           |
|  \\    /   O peration     | Version:  2312                                  |
|   \\  /    A nd           | Website:  www.openfoam.com                      |
|    \\/     M anipulation  |                                                 |
\*---------------------------------------------------------------------------*/
FoamFile
{
    version     2.0;
    format      ascii;
    arch        "LSB;label=32;scalar=64";
    class       surfaceScalarField;
    location    "156000";
    object      phi;
}
// * * * * * * * * * * * * * * * * * * * * * * * * * * * * * * * * * * * * * //

dimensions      [0 3 -1 0 0 0 0];

oriented        oriented;

internalField   nonuniform List<scalar> 
21240
(
0.000664976
1.69064e-06
0.000661078
3.89787e-06
0.000655765
5.31365e-06
0.000649538
6.22669e-06
0.000642675
6.86307e-06
0.000635317
7.35749e-06
0.000627557
7.76045e-06
0.000619472
8.08503e-06
0.000611135
8.33723e-06
0.000602608
8.52606e-06
0.000593945
8.66383e-06
0.000585182
8.76286e-06
0.000576349
8.83277e-06
0.000567469
8.87991e-06
0.000558561
8.90808e-06
0.000549641
8.91975e-06
0.000540725
8.91676e-06
0.000531824
8.90065e-06
0.000522951
8.87276e-06
0.000514117
8.83414e-06
0.000505331
8.78559e-06
0.000496604
8.72769e-06
0.000487943
8.66082e-06
0.000479358
8.58527e-06
0.000470856
8.50121e-06
0.000462448
8.40874e-06
0.00045414
8.30797e-06
0.000445941
8.19883e-06
0.000437859
8.08144e-06
0.000429904
7.95558e-06
0.000422082
7.82147e-06
0.000414404
7.67867e-06
0.000406876
7.52767e-06
0.000399508
7.36765e-06
0.000392309
7.19968e-06
0.000385287
7.02219e-06
0.000378449
6.83734e-06
0.000371807
6.64214e-06
0.000365366
6.44082e-06
0.000359139
6.22766e-06
0.000353128
6.01074e-06
0.000347349
5.77918e-06
0.000341801
5.54813e-06
0.000336503
5.29718e-06
0.000331449
5.05441e-06
0.000326667
4.78179e-06
0.000322136
4.53103e-06
0.000317904
4.23162e-06
0.000313926
3.97883e-06
0.000310284
3.64126e-06
0.000306887
3.39696e-06
0.000303893
2.9949e-06
0.000301111
2.782e-06
0.000298863
2.2478e-06
0.000296737
2.12571e-06
0.00029549
1.24656e-06
0.000294013
1.47742e-06
0.000294233
-2.19571e-07
0.000293081
1.152e-06
-3.22592e-06
0.000296307
0.000667557
8.00179e-07
0.000669125
2.32958e-06
0.000670865
3.57384e-06
0.000672545
4.54688e-06
0.000674085
5.32312e-06
0.000675471
5.97138e-06
0.000676698
6.53327e-06
0.000677756
7.02722e-06
0.000678633
7.4603e-06
0.000679322
7.83698e-06
0.000679823
8.16288e-06
0.000680141
8.44495e-06
0.000680284
8.69022e-06
0.000680259
8.90453e-06
0.000680075
9.09223e-06
0.000679738
9.25623e-06
0.000679256
9.39869e-06
0.000678636
9.52117e-06
0.000677883
9.6251e-06
0.000677006
9.71154e-06
0.00067601
9.78158e-06
0.000674902
9.83573e-06
0.000673688
9.87482e-06
0.000672374
9.89885e-06
0.000670967
9.90853e-06
0.000669472
9.90341e-06
0.000667896
9.88432e-06
0.000666245
9.85027e-06
0.000664524
9.80251e-06
0.00066274
9.73926e-06
0.000660899
9.66259e-06
0.000659008
9.56952e-06
0.000657072
9.46355e-06
0.0006551
9.33981e-06
0.000653095
9.2042e-06
0.000651069
9.04873e-06
0.000649023
8.88338e-06
0.00064697
8.69493e-06
0.000644911
8.50016e-06
0.000642861
8.27721e-06
0.000640818
8.05408e-06
0.000638802
7.79453e-06
0.000636805
7.54516e-06
0.000634857
7.24591e-06
0.000632937
6.97411e-06
0.000631089
6.6302e-06
0.000629277
6.34232e-06
0.000627563
5.94567e-06
0.00062589
5.65213e-06
0.000624342
5.18954e-06
0.000622831
4.90726e-06
0.000621468
4.35779e-06
0.000620137
4.11394e-06
0.000618938
3.44622e-06
0.000617781
3.2826e-06
0.000616571
2.45642e-06
0.00061562
2.42881e-06
0.000613975
1.42573e-06
0.000613542
1.5844e-06
4.75922e-07
0.00060984
0.000666952
5.14391e-07
0.000667824
1.45778e-06
0.000669071
2.32734e-06
0.000670505
3.11313e-06
0.000672017
3.81104e-06
0.000673559
4.42873e-06
0.000675114
4.97843e-06
0.00067667
5.47127e-06
0.000678215
5.91507e-06
0.000679738
6.31474e-06
0.000681227
6.67384e-06
0.000682676
6.99564e-06
0.000684082
7.28367e-06
0.000685446
7.54141e-06
0.000686766
7.77212e-06
0.000688043
7.97843e-06
0.00068928
8.16255e-06
0.000690475
8.32602e-06
0.00069163
8.47032e-06
0.000692745
8.59631e-06
0.000693821
8.70516e-06
0.00069486
8.79722e-06
0.000695861
8.8735e-06
0.000696826
8.93385e-06
0.000697755
8.97921e-06
0.00069865
9.00891e-06
0.00069951
9.02407e-06
0.000700337
9.02335e-06
0.000701131
9.00831e-06
0.000701894
8.97679e-06
0.000702625
8.93113e-06
0.000703327
8.86798e-06
0.000703999
8.79101e-06
0.000704644
8.69509e-06
0.000705262
8.58597e-06
0.000705855
8.45592e-06
0.000706424
8.31384e-06
0.000706971
8.14814e-06
0.000707499
7.97244e-06
0.000708007
7.76949e-06
0.000708501
7.5598e-06
0.000708978
7.31791e-06
0.000709448
7.07428e-06
0.000709903
6.79178e-06
0.000710362
6.5148e-06
0.000710802
6.19012e-06
0.000711263
5.8811e-06
0.000711696
5.51312e-06
0.000712174
5.17409e-06
0.000712601
4.76264e-06
0.000713112
4.39607e-06
0.000713527
3.94315e-06
0.000714089
3.55135e-06
0.000714471
3.06431e-06
0.000715105
2.64888e-06
0.000715413
2.14838e-06
0.000716132
1.70926e-06
0.000716312
1.24628e-06
0.000717125
7.70851e-07
4.50189e-07
0.000717151
0.000666855
3.26016e-07
0.000667313
9.9945e-07
0.000667983
1.65811e-06
0.000668814
2.28139e-06
0.000669765
2.86013e-06
0.000670803
3.39145e-06
0.000671904
3.87693e-06
0.000673055
4.32024e-06
0.000674245
4.72531e-06
0.000675464
5.09537e-06
0.000676705
5.43295e-06
0.000677961
5.74009e-06
0.000679226
6.01877e-06
0.000680496
6.27096e-06
0.000681769
6.49868e-06
0.000683044
6.70372e-06
0.000684319
6.88777e-06
0.000685593
7.0521e-06
0.000686865
7.19792e-06
0.000688136
7.32604e-06
0.000689403
7.4373e-06
0.000690668
7.5322e-06
0.000691931
7.61137e-06
0.000693189
7.675e-06
0.000694445
7.72357e-06
0.000695697
7.757e-06
0.000696945
7.77566e-06
0.000698189
7.7792e-06
0.00069943
7.76799e-06
0.000700665
7.74142e-06
0.000701896
7.69988e-06
0.000703122
7.64254e-06
0.000704343
7.56982e-06
0.000705557
7.48076e-06
0.000706768
7.37574e-06
0.00070797
7.25382e-06
0.000709168
7.11519e-06
0.000710357
6.9592e-06
0.000711544
6.78545e-06
0.00071272
6.59425e-06
0.000713896
6.38373e-06
0.000715057
6.15642e-06
0.000716224
5.90729e-06
0.000717372
5.6434e-06
0.000718534
5.35347e-06
0.000719671
5.05336e-06
0.000720832
4.71988e-06
0.00072196
4.38531e-06
0.000723129
4.00478e-06
0.000724251
3.64025e-06
0.000725439
3.20833e-06
0.000726559
2.82333e-06
0.000727776
2.33446e-06
0.000728894
1.94625e-06
0.000730151
1.39185e-06
0.00073127
1.02945e-06
0.000732581
3.97532e-07
0.000733719
1.09214e-07
0.000735159
-6.69914e-07
-8.36758e-07
0.000736446
0.000666739
2.53307e-07
0.000666974
7.647e-07
0.000667366
1.26591e-06
0.000667898
1.7501e-06
0.000668546
2.21138e-06
0.000669292
2.64618e-06
0.000670115
3.05308e-06
0.000671004
3.43217e-06
0.000671945
3.78434e-06
0.000672929
4.11072e-06
0.00067395
4.4124e-06
0.000674999
4.69035e-06
0.000676073
4.9455e-06
0.000677165
5.17882e-06
0.000678272
5.3913e-06
0.000679392
5.58397e-06
0.000680522
5.75779e-06
0.00068166
5.91363e-06
0.000682806
6.05223e-06
0.000683958
6.17428e-06
0.000685115
6.28026e-06
0.000686276
6.37066e-06
0.000687442
6.44578e-06
0.000688611
6.50599e-06
0.000689783
6.55135e-06
0.000690958
6.58217e-06
0.000692136
6.59828e-06
0.000693315
6.59998e-06
0.000694496
6.58678e-06
0.000695678
6.55915e-06
0.000696862
6.51616e-06
0.000698046
6.45861e-06
0.000699231
6.38497e-06
0.000700415
6.29664e-06
0.000701599
6.19113e-06
0.000702782
6.07098e-06
0.000703965
5.93209e-06
0.000705146
5.77897e-06
0.000706326
5.60493e-06
0.000707503
5.41772e-06
0.00070868
5.20641e-06
0.000709852
4.98419e-06
0.000711026
4.73316e-06
0.000712194
4.47545e-06
0.000713366
4.18182e-06
0.00071453
3.88898e-06
0.000715701
3.54917e-06
0.000716864
3.2228e-06
0.000718037
2.83175e-06
0.000719202
2.47464e-06
0.000720386
2.02415e-06
0.000721569
1.64084e-06
0.000722785
1.11817e-06
0.000724015
7.16661e-07
0.000725309
9.80655e-08
0.000726626
-2.88085e-07
0.000728011
-9.86976e-07
0.000729467
-1.34719e-06
0.000731003
-2.20623e-06
-2.51154e-06
0.000732678
0.000666725
1.94479e-07
0.000666904
5.86019e-07
0.000667195
9.75568e-07
0.000667588
1.35673e-06
0.000668073
1.72584e-06
0.00066864
2.08e-06
0.000669276
2.41718e-06
0.000669972
2.73618e-06
0.000670719
3.03643e-06
0.000671512
3.31782e-06
0.000672344
3.58043e-06
0.00067321
3.82454e-06
0.000674105
4.05047e-06
0.000675025
4.25865e-06
0.000675967
4.44952e-06
0.000676927
4.6236e-06
0.000677904
4.78133e-06
0.000678894
4.92324e-06
0.000679897
5.04972e-06
0.00068091
5.16122e-06
0.000681932
5.25798e-06
0.000682962
5.34039e-06
0.000684
5.40852e-06
0.000685043
5.46271e-06
0.000686091
5.50283e-06
0.000687144
5.52923e-06
0.000688201
5.54154e-06
0.000689261
5.54017e-06
0.000690323
5.52445e-06
0.000691387
5.49496e-06
0.000692453
5.4506e-06
0.000693519
5.39231e-06
0.000694586
5.31835e-06
0.000695652
5.23031e-06
0.000696718
5.12547e-06
0.000697782
5.00648e-06
0.000698845
4.86915e-06
0.000699906
4.71787e-06
0.000700965
4.5461e-06
0.000702022
4.36107e-06
0.000703076
4.15256e-06
0.000704128
3.93231e-06
0.000705177
3.68426e-06
0.000706225
3.42734e-06
0.00070727
3.13625e-06
0.000708318
2.84134e-06
0.000709364
2.50274e-06
0.000710418
2.16921e-06
0.000711472
1.77814e-06
0.000712539
1.40768e-06
0.000713603
9.59331e-07
0.000714687
5.57331e-07
0.000715755
5.03574e-08
0.000716867
-3.95329e-07
0.000717972
-1.00738e-06
0.000719152
-1.46837e-06
0.000720349
-2.18311e-06
0.000721652
-2.65043e-06
0.000722952
-3.50666e-06
-3.95715e-06
0.000724398
0.000666709
1.51668e-07
0.000666838
4.57631e-07
0.00066705
7.63539e-07
0.000667342
1.06496e-06
0.000667708
1.35942e-06
0.000668143
1.6448e-06
0.000668641
1.91944e-06
0.000669195
2.18212e-06
0.000669799
2.43209e-06
0.000670448
2.66902e-06
0.000671137
2.89156e-06
0.000671862
3.09978e-06
0.000672619
3.29382e-06
0.000673403
3.47376e-06
0.000674213
3.63968e-06
0.000675045
3.79176e-06
0.000675896
3.93015e-06
0.000676764
4.05507e-06
0.000677647
4.16666e-06
0.000678544
4.26517e-06
0.000679451
4.35065e-06
0.000680368
4.42331e-06
0.000681293
4.48311e-06
0.000682226
4.53023e-06
0.000683164
4.5645e-06
0.000684107
4.5861e-06
0.000685054
4.5947e-06
0.000686004
4.59051e-06
0.000686955
4.57296e-06
0.000687908
4.54241e-06
0.00068886
4.49795e-06
0.000689813
4.44018e-06
0.000690763
4.36773e-06
0.000691712
4.2816e-06
0.000692658
4.17976e-06
0.0006936
4.0639e-06
0.000694538
3.93095e-06
0.000695473
3.78374e-06
0.000696401
3.61761e-06
0.000697325
3.43719e-06
0.000698242
3.23541e-06
0.000699155
3.01978e-06
0.000700059
2.77942e-06
0.00070096
2.52652e-06
0.000701852
2.24424e-06
0.000702741
1.95218e-06
0.00070362
1.62391e-06
0.000704499
1.2903e-06
0.000705368
9.09001e-07
0.000706247
5.28883e-07
0.000707124
8.22233e-08
0.000708022
-3.40248e-07
0.000708921
-8.49106e-07
0.000709846
-1.32052e-06
0.000710756
-1.91738e-06
0.000711724
-2.43591e-06
0.000712679
-3.13858e-06
0.000713729
-3.70033e-06
0.00071476
-4.53738e-06
-5.12724e-06
0.00071593
0.0006667
1.18616e-07
0.0006668
3.57846e-07
0.000666965
5.97656e-07
0.000667195
8.34991e-07
0.000667487
1.06817e-06
0.000667836
1.29569e-06
0.000668239
1.51628e-06
0.000668692
1.72886e-06
0.000669192
1.93258e-06
0.000669734
2.12672e-06
0.000670315
2.31066e-06
0.000670931
2.48401e-06
0.000671578
2.64651e-06
0.000672254
2.79804e-06
0.000672955
2.93848e-06
0.000673679
3.06779e-06
0.000674423
3.18593e-06
0.000675185
3.29289e-06
0.000675963
3.38866e-06
0.000676755
3.47327e-06
0.000677559
3.5467e-06
0.000678373
3.60896e-06
0.000679197
3.65997e-06
0.000680027
3.69974e-06
0.000680863
3.7281e-06
0.000681704
3.74506e-06
0.000682549
3.75033e-06
0.000683395
3.74393e-06
0.000684243
3.72543e-06
0.00068509
3.6949e-06
0.000685937
3.65171e-06
0.000686781
3.596e-06
0.000687622
3.52691e-06
0.000688459
3.44474e-06
0.00068929
3.34826e-06
0.000690116
3.23805e-06
0.000690935
3.11236e-06
0.000691746
2.97225e-06
0.000692548
2.81518e-06
0.000693343
2.64301e-06
0.000694126
2.45198e-06
0.000694901
2.24524e-06
0.000695663
2.01718e-06
0.000696416
1.77296e-06
0.000697157
1.50412e-06
0.00069789
1.21914e-06
0.000698608
9.05271e-07
0.000699322
5.76616e-07
0.000700017
2.14376e-07
0.000700707
-1.61776e-07
0.000701379
-5.89567e-07
0.000702062
-1.02336e-06
0.000702729
-1.5157e-06
0.000703416
-2.00751e-06
0.000704078
-2.58005e-06
0.000704779
-3.13616e-06
0.000705446
-3.80576e-06
0.000706175
-4.42966e-06
0.000706855
-5.21716e-06
-5.90666e-06
0.000707634
0.000666694
9.15231e-08
0.000666775
2.76314e-07
0.000666911
4.61983e-07
0.0006671
6.46346e-07
0.00066734
8.28234e-07
0.000667629
1.00657e-06
0.000667965
1.18039e-06
0.000668345
1.34883e-06
0.000668766
1.51114e-06
0.000669226
1.6667e-06
0.000669722
1.81499e-06
0.00067025
1.95557e-06
0.000670809
2.08808e-06
0.000671394
2.21226e-06
0.000672005
2.32787e-06
0.000672638
2.43474e-06
0.000673291
2.53272e-06
0.000673962
2.62169e-06
0.00067465
2.70151e-06
0.000675351
2.77212e-06
0.000676064
2.83338e-06
0.000676788
2.88522e-06
0.00067752
2.9275e-06
0.00067826
2.96011e-06
0.000679005
2.9829e-06
0.000679754
2.99571e-06
0.000680506
2.99834e-06
0.00068126
2.99062e-06
0.000682013
2.97225e-06
0.000682765
2.94306e-06
0.000683514
2.90266e-06
0.000684259
2.85084e-06
0.000684999
2.78712e-06
0.000685732
2.71126e-06
0.000686458
2.62266e-06
0.000687175
2.52108e-06
0.000687881
2.40575e-06
0.000688577
2.27643e-06
0.00068926
2.13217e-06
0.000689931
1.97275e-06
0.000690586
1.79697e-06
0.000691226
1.60467e-06
0.000691849
1.39432e-06
0.000692456
1.16593e-06
0.000693043
9.17458e-07
0.000693613
6.49214e-07
0.000694159
3.58351e-07
0.00069469
4.64289e-08
0.000695199
-2.9458e-07
0.000695698
-6.60977e-07
0.000696166
-1.05812e-06
0.000696625
-1.48205e-06
0.000697052
-1.94264e-06
0.000697477
-2.43228e-06
0.000697864
-2.96721e-06
0.00069826
-3.53244e-06
0.00069861
-4.15509e-06
0.000698987
-4.80665e-06
0.000699303
-5.53335e-06
-6.28054e-06
0.000699677
0.00066669
6.86541e-08
0.000666758
2.0757e-07
0.000666873
3.47525e-07
0.000667032
4.86946e-07
0.000667235
6.25006e-07
0.000667481
7.60935e-07
0.000667767
8.94017e-07
0.000668093
1.0236e-06
0.000668455
1.14909e-06
0.000668851
1.26998e-06
0.000669281
1.3858e-06
0.00066974
1.49616e-06
0.000670227
1.6007e-06
0.00067074
1.69911e-06
0.000671277
1.79113e-06
0.000671835
1.87653e-06
0.000672413
1.95508e-06
0.000673008
2.02663e-06
0.000673619
2.09098e-06
0.000674243
2.14799e-06
0.000674879
2.1975e-06
0.000675525
2.23934e-06
0.000676179
2.27337e-06
0.000676839
2.29939e-06
0.000677505
2.31725e-06
0.000678174
2.32673e-06
0.000678845
2.32764e-06
0.000679516
2.31971e-06
0.000680185
2.30274e-06
0.000680852
2.27639e-06
0.000681514
2.24045e-06
0.00068217
2.19447e-06
0.000682819
2.13825e-06
0.000683459
2.07119e-06
0.000684089
1.99314e-06
0.000684707
1.90329e-06
0.000685311
1.8016e-06
0.0006859
1.68693e-06
0.000686473
1.55946e-06
0.000687028
1.41755e-06
0.000687563
1.26179e-06
0.000688078
1.08978e-06
0.00068857
9.02822e-07
0.000689038
6.97358e-07
0.00068948
4.75907e-07
0.000689896
2.33428e-07
0.000690277
-2.33115e-08
0.000690638
-3.13746e-07
0.000690964
-6.20777e-07
0.000691261
-9.58679e-07
0.000691519
-1.31565e-06
0.000691748
-1.71134e-06
0.000691932
-2.12615e-06
0.000692089
-2.58988e-06
0.000692193
-3.07121e-06
0.000692277
-3.61565e-06
0.000692295
-4.17367e-06
0.000692303
-4.81428e-06
0.000692229
-5.45969e-06
-6.21303e-06
0.000692162
0.000666686
4.88526e-08
0.000666746
1.48082e-07
0.000666845
2.48441e-07
0.000666983
3.48826e-07
0.00066716
4.4866e-07
0.000667373
5.47401e-07
0.000667623
6.44536e-07
0.000667907
7.39583e-07
0.000668224
8.32101e-07
0.000668572
9.21681e-07
0.00066895
1.00795e-06
0.000669355
1.09058e-06
0.000669787
1.16924e-06
0.000670242
1.24365e-06
0.00067072
1.31356e-06
0.000671218
1.37873e-06
0.000671734
1.43894e-06
0.000672266
1.49398e-06
0.000672814
1.54368e-06
0.000673374
1.58785e-06
0.000673945
1.62631e-06
0.000674525
1.65887e-06
0.000675113
1.68537e-06
0.000675707
1.7056e-06
0.000676305
1.71939e-06
0.000676905
1.72649e-06
0.000677506
1.72675e-06
0.000678106
1.71983e-06
0.000678703
1.7056e-06
0.000679296
1.68365e-06
0.000679883
1.65387e-06
0.000680461
1.61569e-06
0.00068103
1.5691e-06
0.000681588
1.51332e-06
0.000682133
1.44846e-06
0.000682663
1.37345e-06
0.000683176
1.28865e-06
0.00068367
1.19248e-06
0.000684144
1.08577e-06
0.000684595
9.66181e-07
0.000685022
8.35297e-07
0.000685422
6.89614e-07
0.000685793
5.31982e-07
0.000686133
3.57097e-07
0.000686439
1.70059e-07
0.000686708
-3.60502e-08
0.000686946
-2.60405e-07
0.000687142
-5.09937e-07
0.000687293
-7.71696e-07
0.0006874
-1.06627e-06
0.000687456
-1.3717e-06
0.000687465
-1.72001e-06
0.000687414
-2.07545e-06
0.000687313
-2.48818e-06
0.000687142
-2.90056e-06
0.000686918
-3.39152e-06
0.000686612
-3.86835e-06
0.000686253
-4.45515e-06
0.000685797
-5.00306e-06
-5.70657e-06
0.00068529
0.000666684
3.12925e-08
0.000666737
9.53427e-08
0.000666825
1.60572e-07
0.000666947
2.26258e-07
0.000667104
2.92025e-07
0.000667294
3.5751e-07
0.000667516
4.22365e-07
0.000667769
4.86255e-07
0.000668053
5.48867e-07
0.000668364
6.09905e-07
0.000668703
6.69089e-07
0.000669068
7.26154e-07
0.000669456
7.80852e-07
0.000669867
8.32942e-07
0.000670298
8.82206e-07
0.000670748
9.28429e-07
0.000671216
9.71422e-07
0.000671699
1.01099e-06
0.000672196
1.04695e-06
0.000672704
1.07913e-06
0.000673223
1.10737e-06
0.000673751
1.13145e-06
0.000674285
1.15125e-06
0.000674824
1.16652e-06
0.000675366
1.17714e-06
0.00067591
1.18283e-06
0.000676453
1.18348e-06
0.000676994
1.17874e-06
0.000677531
1.16853e-06
0.000678063
1.15243e-06
0.000678586
1.13037e-06
0.0006791
1.10182e-06
0.000679602
1.06681e-06
0.000680091
1.02457e-06
0.000680564
9.75315e-07
0.00068102
9.17955e-07
0.000681455
8.53005e-07
0.000681869
7.78859e-07
0.000682258
6.96538e-07
0.000682621
6.03649e-07
0.000682954
5.02051e-07
0.000683255
3.88123e-07
0.000683522
2.65128e-07
0.000683752
1.27645e-07
0.000683939
-1.74452e-08
0.000684088
-1.85053e-07
0.000684189
-3.61347e-07
0.00068424
-5.60532e-07
0.000684236
-7.67782e-07
0.000684174
-1.00495e-06
0.00068405
-1.24769e-06
0.000683861
-1.5304e-06
0.000683599
-1.81343e-06
0.000683262
-2.15139e-06
0.000682841
-2.47997e-06
0.000682336
-2.88601e-06
0.000681733
-3.26535e-06
0.000681034
-3.75639e-06
0.000680221
-4.19011e-06
-4.78704e-06
0.000679302
0.000666683
1.53549e-08
0.000666731
4.74306e-08
0.00066681
8.07028e-08
0.000666922
1.1479e-07
0.000667064
1.49481e-07
0.000667237
1.84563e-07
0.00066744
2.19829e-07
0.000667671
2.55074e-07
0.00066793
2.90103e-07
0.000668215
3.24723e-07
0.000668525
3.58752e-07
0.000668859
3.92004e-07
0.000669216
4.24304e-07
0.000669594
4.55473e-07
0.00066999
4.85345e-07
0.000670405
5.1375e-07
0.000670836
5.40535e-07
0.000671281
5.65537e-07
0.00067174
5.88612e-07
0.000672209
6.09597e-07
0.000672688
6.28354e-07
0.000673175
6.44706e-07
0.000673668
6.5852e-07
0.000674165
6.69602e-07
0.000674664
6.77823e-07
0.000675164
6.82955e-07
0.000675662
6.84886e-07
0.000676158
6.83337e-07
0.000676648
6.78216e-07
0.000677131
6.69174e-07
0.000677606
6.56168e-07
0.000678069
6.38736e-07
0.000678519
6.16922e-07
0.000678953
5.90092e-07
0.00067937
5.58439e-07
0.000679767
5.2107e-07
0.000680141
4.78424e-07
0.000680491
4.29206e-07
0.000680813
3.74281e-07
0.000681105
3.1172e-07
0.000681364
2.43091e-07
0.000681587
1.65477e-07
0.00068177
8.15842e-08
0.00068191
-1.16882e-08
0.000682007
-1.14347e-07
0.000682052
-2.30592e-07
0.000682044
-3.52904e-07
0.000681976
-4.92621e-07
0.000681845
-6.37433e-07
0.000681646
-8.05162e-07
0.000681374
-9.75594e-07
0.00068102
-1.17701e-06
0.000680583
-1.37646e-06
0.000680051
-1.61898e-06
0.000679422
-1.851e-06
0.00067868
-2.14457e-06
0.000677828
-2.41249e-06
0.000676842
-2.77045e-06
0.000675728
-3.07607e-06
-3.51527e-06
0.000674456
0.000666682
4.87985e-10
0.000666726
2.72651e-09
0.000666801
6.16041e-09
0.000666905
1.07207e-08
0.000667038
1.63397e-08
0.0006672
2.29392e-08
0.000667389
3.04371e-08
0.000667605
3.87491e-08
0.000667848
4.77898e-08
0.000668115
5.74702e-08
0.000668406
6.76983e-08
0.00066872
7.83755e-08
0.000669054
8.94007e-08
0.000669409
1.00666e-07
0.000669783
1.12065e-07
0.000670173
1.23485e-07
0.000670579
1.34819e-07
0.000670998
1.45951e-07
0.00067143
1.56774e-07
0.000671872
1.67165e-07
0.000672324
1.77013e-07
0.000672782
1.86187e-07
0.000673246
1.94574e-07
0.000673714
2.02024e-07
0.000674183
2.08425e-07
0.000674653
2.1361e-07
0.00067512
2.17471e-07
0.000675583
2.19814e-07
0.000676041
2.20552e-07
0.000676491
2.19443e-07
0.000676931
2.1642e-07
0.000677358
2.11182e-07
0.000677771
2.03721e-07
0.000678168
1.93642e-07
0.000678545
1.81018e-07
0.000678901
1.65305e-07
0.000679233
1.4673e-07
0.000679537
1.24523e-07
0.000679813
9.91457e-08
0.000680055
6.94948e-08
0.000680261
3.64949e-08
0.000680428
-8.93947e-10
0.000680552
-4.27342e-08
0.000680631
-9.09757e-08
0.00068066
-1.43229e-07
0.000680633
-2.03254e-07
0.000680547
-2.66813e-07
0.000680394
-3.40321e-07
0.000680174
-4.1677e-07
0.000679875
-5.06226e-07
0.000679497
-5.97277e-07
0.000679025
-7.05814e-07
0.000678462
-8.13308e-07
0.000677788
-9.45071e-07
0.000677008
-1.07095e-06
0.000676095
-1.23145e-06
0.00067506
-1.37745e-06
0.000673864
-1.5741e-06
0.000672529
-1.74097e-06
-1.98311e-06
0.000670996
0.000666681
-1.38424e-08
0.000666724
-4.03255e-08
0.000666796
-6.55112e-08
0.000666896
-8.93032e-08
0.000667024
-1.1163e-07
0.000667179
-1.32435e-07
0.000667361
-1.51681e-07
0.000667569
-1.69337e-07
0.000667802
-1.85383e-07
0.00066806
-1.9981e-07
0.00066834
-2.12616e-07
0.000668642
-2.23812e-07
0.000668965
-2.33424e-07
0.000669307
-2.41484e-07
0.000669667
-2.4803e-07
0.000670044
-2.53129e-07
0.000670436
-2.56821e-07
0.000670841
-2.59171e-07
0.000671258
-2.60235e-07
0.000671685
-2.60121e-07
0.000672121
-2.58872e-07
0.000672564
-2.56582e-07
0.000673012
-2.53318e-07
0.000673463
-2.49228e-07
0.000673916
-2.44351e-07
0.000674368
-2.38771e-07
0.000674818
-2.32672e-07
0.000675264
-2.26072e-07
0.000675704
-2.191e-07
0.000676135
-2.11826e-07
0.000676556
-2.04391e-07
0.000676964
-1.96928e-07
0.000677357
-1.89439e-07
0.000677733
-1.82114e-07
0.000678089
-1.74928e-07
0.000678422
-1.68174e-07
0.000678731
-1.61757e-07
0.000679011
-1.55769e-07
0.000679261
-1.50466e-07
0.000679476
-1.45737e-07
0.000679654
-1.41798e-07
0.000679792
-1.38592e-07
0.000679886
-1.36509e-07
0.00067993
-1.35435e-07
0.000679922
-1.35594e-07
0.000679856
-1.36764e-07
0.000679728
-1.39162e-07
0.000679531
-1.42742e-07
0.000679261
-1.47512e-07
0.000678909
-1.53992e-07
0.000678474
-1.6176e-07
0.000677939
-1.71159e-07
0.000677308
-1.81995e-07
0.000676557
-1.94752e-07
0.000675696
-2.0917e-07
0.000674689
-2.25304e-07
0.000673555
-2.4343e-07
0.000672245
-2.63339e-07
0.000670789
-2.85568e-07
-3.09024e-07
0.000669115
0.000666681
-2.8039e-08
0.000666723
-8.28371e-08
0.000666794
-1.36381e-07
0.000666893
-1.88264e-07
0.00066702
-2.38283e-07
0.000667174
-2.86261e-07
0.000667354
-3.32039e-07
0.00066756
-3.75471e-07
0.000667791
-4.16428e-07
0.000668046
-4.54798e-07
0.000668324
-4.90488e-07
0.000668624
-5.23423e-07
0.000668944
-5.53548e-07
0.000669283
-5.80825e-07
0.00066964
-6.05232e-07
0.000670014
-6.26758e-07
0.000670403
-6.45407e-07
0.000670805
-6.61184e-07
0.000671218
-6.74115e-07
0.000671643
-6.84224e-07
0.000672075
-6.91554e-07
0.000672515
-6.96136e-07
0.00067296
-6.98029e-07
0.000673408
-6.97274e-07
0.000673857
-6.93939e-07
0.000674306
-6.88049e-07
0.000674753
-6.79693e-07
0.000675196
-6.68873e-07
0.000675633
-6.5569e-07
0.000676061
-6.40116e-07
0.000676479
-6.22276e-07
0.000676884
-6.02104e-07
0.000677275
-5.79748e-07
0.000677647
-5.55016e-07
0.000678001
-5.28174e-07
0.000678331
-4.98893e-07
0.000678637
-4.67541e-07
0.000678915
-4.33557e-07
0.000679162
-3.97565e-07
0.000679375
-3.58664e-07
0.000679551
-3.17749e-07
0.000679686
-2.73458e-07
0.000679776
-2.27221e-07
0.000679818
-1.76844e-07
0.000679807
-1.24739e-07
0.000679738
-6.74443e-08
0.000679607
-8.66943e-09
0.000679406
5.84722e-08
0.000679133
1.25423e-07
0.000678777
2.02281e-07
0.000678337
2.78064e-07
0.000677798
3.68055e-07
0.000677162
4.54055e-07
0.000676406
5.60869e-07
0.000675538
6.58444e-07
0.000674526
7.8723e-07
0.000673385
8.97494e-07
0.000672066
1.0554e-06
0.000670602
1.17851e-06
1.37531e-06
0.000668918
0.000666681
-4.24685e-08
0.000666724
-1.26204e-07
0.000666797
-2.08732e-07
0.000666898
-2.89334e-07
0.000667027
-3.67667e-07
0.000667184
-4.43417e-07
0.000667369
-5.16298e-07
0.000667579
-5.86045e-07
0.000667815
-6.52421e-07
0.000668076
-7.15209e-07
0.000668359
-7.74225e-07
0.000668665
-8.29309e-07
0.000668992
-8.80329e-07
0.000669338
-9.27175e-07
0.000669703
-9.69767e-07
0.000670084
-1.00803e-06
0.000670481
-1.04193e-06
0.000670891
-1.07142e-06
0.000671313
-1.09648e-06
0.000671746
-1.1171e-06
0.000672188
-1.13328e-06
0.000672637
-1.14503e-06
0.000673091
-1.15236e-06
0.000673549
-1.15528e-06
0.000674009
-1.15382e-06
0.000674469
-1.14796e-06
0.000674927
-1.13776e-06
0.000675381
-1.12316e-06
0.00067583
-1.10426e-06
0.000676271
-1.0809e-06
0.000676702
-1.05323e-06
0.000677121
-1.021e-06
0.000677525
-9.84422e-07
0.000677913
-9.43088e-07
0.000678282
-8.97332e-07
0.00067863
-8.465e-07
0.000678954
-7.91142e-07
0.00067925
-7.30219e-07
0.000679517
-6.64647e-07
0.000679752
-5.92791e-07
0.00067995
-5.16209e-07
0.000680109
-4.32322e-07
0.000680225
-3.43742e-07
0.000680295
-2.46391e-07
0.000680315
-1.44512e-07
0.000680279
-3.16655e-08
0.000680183
8.75329e-08
0.00068002
2.20725e-07
0.000679789
3.5668e-07
0.000679479
5.12447e-07
0.000679089
6.68546e-07
0.000678604
8.52243e-07
0.000678027
1.03138e-06
0.000677338
1.2501e-06
0.000676541
1.45531e-06
0.000675609
1.71873e-06
0.000674554
1.95266e-06
0.000673336
2.27409e-06
0.000671976
2.53772e-06
2.93478e-06
0.000670417
0.000666682
-5.76654e-08
0.000666728
-1.71915e-07
0.000666804
-2.84996e-07
0.00066691
-3.95866e-07
0.000667047
-5.04018e-07
0.000667212
-6.0899e-07
0.000667406
-7.10355e-07
0.000667628
-8.07723e-07
0.000667876
-9.00737e-07
0.00066815
-9.89077e-07
0.000668448
-1.07246e-06
0.00066877
-1.15065e-06
0.000669113
-1.22345e-06
0.000669476
-1.29066e-06
0.000669859
-1.35217e-06
0.000670259
-1.40785e-06
0.000670674
-1.45762e-06
0.000671104
-1.50141e-06
0.000671547
-1.53916e-06
0.000672001
-1.57083e-06
0.000672464
-1.59641e-06
0.000672935
-1.61586e-06
0.000673412
-1.6292e-06
0.000673893
-1.63637e-06
0.000674376
-1.63741e-06
0.000674861
-1.63225e-06
0.000675344
-1.62094e-06
0.000675824
-1.60336e-06
0.000676299
-1.57957e-06
0.000676768
-1.54937e-06
0.000677227
-1.51288e-06
0.000677676
-1.46975e-06
0.000678112
-1.42019e-06
0.000678532
-1.36366e-06
0.000678936
-1.3005e-06
0.000679319
-1.22986e-06
0.00067968
-1.15233e-06
0.000680017
-1.06662e-06
0.000680326
-9.73726e-07
0.000680604
-8.71626e-07
0.00068085
-7.62035e-07
0.00068106
-6.41797e-07
0.00068123
-5.13846e-07
0.000681357
-3.73262e-07
0.000681437
-2.25242e-07
0.000681468
-6.22828e-08
0.000681444
1.11417e-07
0.00068136
3.04729e-07
0.000681213
5.04219e-07
0.000680995
7.30346e-07
0.000680703
9.60149e-07
0.000680329
1.2264e-06
0.000679869
1.49102e-06
0.000679313
1.80692e-06
0.000678657
2.11103e-06
0.000677886
2.48931e-06
0.000677001
2.83738e-06
0.00067598
3.29528e-06
0.000674828
3.6899e-06
4.24968e-06
0.000673513
0.000666683
-7.41756e-08
0.000666733
-2.21595e-07
0.000666816
-3.67882e-07
0.000666931
-5.11618e-07
0.00066708
-6.52105e-07
0.000667259
-7.88703e-07
0.00066747
-9.20826e-07
0.00066771
-1.04794e-06
0.000667979
-1.16955e-06
0.000668275
-1.28524e-06
0.000668597
-1.39463e-06
0.000668944
-1.4974e-06
0.000669314
-1.59329e-06
0.000669705
-1.68207e-06
0.000670116
-1.76357e-06
0.000670546
-1.83763e-06
0.000670993
-1.90416e-06
0.000671454
-1.96306e-06
0.00067193
-2.01427e-06
0.000672416
-2.05773e-06
0.000672913
-2.09343e-06
0.000673419
-2.12131e-06
0.000673931
-2.14139e-06
0.000674448
-2.1536e-06
0.000674969
-2.15796e-06
0.000675491
-2.15439e-06
0.000676013
-2.14292e-06
0.000676533
-2.12342e-06
0.000677049
-2.0959e-06
0.00067756
-2.06016e-06
0.000678064
-2.01626e-06
0.000678558
-1.96384e-06
0.000679041
-1.90302e-06
0.00067951
-1.83326e-06
0.000679964
-1.75477e-06
0.000680401
-1.66674e-06
0.000680818
-1.56955e-06
0.000681214
-1.46199e-06
0.000681585
-1.34476e-06
0.000681929
-1.21603e-06
0.000682244
-1.07709e-06
0.000682528
-9.25087e-07
0.000682776
-7.62349e-07
0.000682987
-5.8443e-07
0.000683157
-3.95358e-07
0.000683284
-1.88376e-07
0.000683364
3.09939e-08
0.000683393
2.75782e-07
0.000683366
5.31063e-07
0.000683281
8.15748e-07
0.000683131
1.11014e-06
0.000682914
1.44354e-06
0.000682622
1.78298e-06
0.000682253
2.17581e-06
0.000681797
2.56676e-06
0.000681253
3.0329e-06
0.000680609
3.48199e-06
0.000679864
4.03988e-06
0.000679002
4.55244e-06
5.225e-06
0.000678026
0.000666685
-9.26482e-08
0.000666741
-2.77214e-07
0.000666834
-4.60666e-07
0.000666963
-6.41129e-07
0.000667129
-8.17658e-07
0.000667329
-9.89392e-07
0.000667564
-1.15554e-06
0.000667831
-1.3154e-06
0.00066813
-1.46834e-06
0.000668459
-1.61382e-06
0.000668816
-1.7514e-06
0.000669199
-1.88067e-06
0.000669607
-2.00134e-06
0.000670038
-2.11316e-06
0.00067049
-2.21594e-06
0.000670962
-2.30953e-06
0.000671452
-2.39383e-06
0.000671958
-2.46877e-06
0.000672478
-2.53429e-06
0.00067301
-2.59035e-06
0.000673554
-2.63695e-06
0.000674107
-2.67406e-06
0.000674667
-2.70169e-06
0.000675233
-2.71981e-06
0.000675804
-2.72841e-06
0.000676377
-2.72746e-06
0.000676951
-2.71693e-06
0.000677524
-2.69675e-06
0.000678095
-2.66685e-06
0.000678662
-2.62712e-06
0.000679223
-2.57745e-06
0.000679777
-2.51764e-06
0.000680321
-2.44758e-06
0.000680855
-2.36694e-06
0.000681376
-2.2756e-06
0.000681882
-2.17308e-06
0.000682372
-2.05926e-06
0.000682843
-1.93345e-06
0.000683294
-1.7956e-06
0.000683723
-1.6447e-06
0.000684127
-1.48083e-06
0.000684504
-1.3025e-06
0.000684852
-1.11015e-06
0.000685169
-9.01506e-07
0.000685451
-6.77734e-07
0.000685698
-4.35453e-07
0.000685907
-1.77377e-07
0.000686077
1.05471e-07
0.0006862
4.08037e-07
0.000686279
7.37085e-07
0.000686304
1.08514e-06
0.00068628
1.46774e-06
0.000686193
1.8694e-06
0.000686053
2.31554e-06
0.000685841
2.77882e-06
0.000685573
3.30171e-06
0.000685219
3.83608e-06
0.000684806
4.45248e-06
0.000684291
5.06685e-06
5.79603e-06
0.00068372
0.000666688
-1.13925e-07
0.000666752
-3.41328e-07
0.000666859
-5.67589e-07
0.000667008