/*--------------------------------*- C++ -*----------------------------------*\
| =========                 |                                                 |
| \\      /  F ield         | OpenFOAM: The Open Source CFD Toolbox           |
|  \\    /   O peration     | Version:  2312                                  |
|   \\  /    A nd           | Website:  www.openfoam.com                      |
|    \\/     M anipulation  |                                                 |
\*---------------------------------------------------------------------------*/
FoamFile
{
    version     2.0;
    format      ascii;
    arch        "LSB;label=32;scalar=64";
    class       surfaceScalarField;
    location    "185000";
    object      phi;
}
// * * * * * * * * * * * * * * * * * * * * * * * * * * * * * * * * * * * * * //

dimensions      [0 3 -1 0 0 0 0];

oriented        oriented;

internalField   nonuniform List<scalar> 
21240
(
0.00066497
1.69659e-06
0.000661055
3.91485e-06
0.000655714
5.34102e-06
0.00064945
6.26403e-06
0.00064254
6.90998e-06
0.000635127
7.41354e-06
0.000627302
7.82508e-06
0.000619144
8.15761e-06
0.000610727
8.41705e-06
0.000602115
8.61236e-06
0.000593359
8.75577e-06
0.000584499
8.85954e-06
0.000575566
8.93323e-06
0.000566583
8.98313e-06
0.00055757
9.013e-06
0.000548545
9.02528e-06
0.000539523
9.02178e-06
0.000530519
9.00408e-06
0.000521545
8.97349e-06
0.000512614
8.93114e-06
0.000503736
8.87786e-06
0.000494922
8.81433e-06
0.000486181
8.74101e-06
0.000477523
8.65831e-06
0.000468956
8.56655e-06
0.00046049
8.46597e-06
0.000452133
8.35685e-06
0.000443894
8.23932e-06
0.00043578
8.11368e-06
0.0004278
7.97991e-06
0.000419962
7.83844e-06
0.000412273
7.68903e-06
0.000404741
7.53237e-06
0.000397373
7.36781e-06
0.000390176
7.1966e-06
0.000383159
7.01732e-06
0.000376327
6.83224e-06
0.000369688
6.63847e-06
0.000363248
6.4403e-06
0.000357016
6.23206e-06
0.000350994
6.02172e-06
0.000345195
5.79858e-06
0.000339618
5.57735e-06
0.00033428
5.33807e-06
0.000329172
5.10785e-06
0.000324322
4.84972e-06
0.000319709
4.6135e-06
0.000315378
4.33083e-06
0.000311284
4.09374e-06
0.00030751
3.77448e-06
0.000303964
3.54626e-06
0.0003008
3.16321e-06
0.000297834
2.96615e-06
0.000295384
2.45014e-06
0.000293046
2.33858e-06
0.000291568
1.47796e-06
0.000289844
1.72347e-06
0.000289782
6.21284e-08
0.000288349
1.43292e-06
-2.9617e-06
0.000291311
0.000667553
8.10386e-07
0.000669107
2.36054e-06
0.000670823
3.62524e-06
0.000672469
4.61795e-06
0.000673966
5.41294e-06
0.000675301
6.07893e-06
0.000676468
6.65751e-06
0.000677459
7.16703e-06
0.000678261
7.61444e-06
0.00067887
8.00409e-06
0.000679284
8.34149e-06
0.00067951
8.63351e-06
0.000679556
8.8871e-06
0.000679431
9.10803e-06
0.000679144
9.30061e-06
0.000678701
9.46771e-06
0.000678112
9.61147e-06
0.000677382
9.73343e-06
0.000676521
9.83509e-06
0.000675534
9.91752e-06
0.00067443
9.9819e-06
0.000673216
1.00289e-05
0.000671897
1.00593e-05
0.000670482
1.00735e-05
0.000668977
1.00722e-05
0.000667387
1.00552e-05
0.000665721
1.00236e-05
0.000663983
9.97654e-06
0.000662181
9.91565e-06
0.000660322
9.83937e-06
0.00065841
9.75005e-06
0.000656454
9.64499e-06
0.000654459
9.52794e-06
0.000652432
9.39436e-06
0.000650379
9.25029e-06
0.000648308
9.08818e-06
0.000646222
8.9179e-06
0.000644134
8.72691e-06
0.000642042
8.53143e-06
0.000639964
8.31072e-06
0.000637894
8.09145e-06
0.000635853
7.8394e-06
0.000633832
7.59851e-06
0.000631858
7.31222e-06
0.000629913
7.05316e-06
0.000628035
6.72772e-06
0.000626192
6.45614e-06
0.00062444
6.08333e-06
0.000622725
5.8087e-06
0.000621124
5.37498e-06
0.000619557
5.11321e-06
0.000618123
4.59689e-06
0.000616715
4.37458e-06
0.000615423
3.74252e-06
0.000614159
3.60266e-06
0.000612825
2.81122e-06
0.000611733
2.81616e-06
0.000609952
1.84252e-06
0.000609326
2.05945e-06
9.68456e-07
0.000605396
0.000666947
5.29999e-07
0.000667804
1.50394e-06
0.000669026
2.40292e-06
0.000670427
3.217e-06
0.000671898
3.94191e-06
0.000673392
4.58517e-06
0.00067489
5.15893e-06
0.000676383
5.6742e-06
0.000677859
6.13871e-06
0.000679306
6.55726e-06
0.000680714
6.93331e-06
0.000682077
7.27004e-06
0.000683394
7.57092e-06
0.000684662
7.83935e-06
0.000685884
8.0786e-06
0.000687061
8.29123e-06
0.000688193
8.47948e-06
0.000689281
8.6449e-06
0.000690327
8.789e-06
0.000691332
8.91272e-06
0.000692297
9.01731e-06
0.000693222
9.10324e-06
0.00069411
9.17164e-06
0.000694961
9.22253e-06
0.000695776
9.25704e-06
0.000696557
9.27471e-06
0.000697303
9.27685e-06
0.000698017
9.26243e-06
0.0006987
9.23319e-06
0.000699352
9.18735e-06
0.000699974
9.12739e-06
0.000700569
9.05046e-06
0.000701137
8.96018e-06
0.000701679
8.85223e-06
0.000702197
8.7319e-06
0.000702693
8.59274e-06
0.000703168
8.44255e-06
0.000703623
8.27177e-06
0.000704063
8.09186e-06
0.000704485
7.88881e-06
0.000704897
7.67935e-06
0.000705293
7.44317e-06
0.000705687
7.20446e-06
0.000706065
6.93407e-06
0.000706452
6.66663e-06
0.000706819
6.36085e-06
0.000707209
6.06559e-06
0.000707569
5.72338e-06
0.000707976
5.40174e-06
0.000708328
5.02268e-06
0.000708765
4.67677e-06
0.000709099
4.26226e-06
0.000709579
3.8949e-06
0.000709871
3.45101e-06
0.000710407
3.06587e-06
0.000710608
2.61041e-06
0.000711212
2.21209e-06
0.000711265
1.79032e-06
0.000711947
1.37714e-06
1.08337e-06
0.000711832
0.000666851
3.46007e-07
0.000667296
1.05852e-06
0.000667944
1.75531e-06
0.000668745
2.41536e-06
0.000669658
3.02927e-06
0.000670649
3.59399e-06
0.000671697
4.11095e-06
0.000672788
4.58368e-06
0.00067391
5.01597e-06
0.000675057
5.41096e-06
0.000676219
5.77106e-06
0.000677391
6.09824e-06
0.000678567
6.39443e-06
0.000679745
6.66155e-06
0.000680922
6.90159e-06
0.000682097
7.11635e-06
0.000683269
7.30753e-06
0.000684437
7.47647e-06
0.000685602
7.62441e-06
0.000686762
7.75227e-06
0.000687919
7.86101e-06
0.000689071
7.95124e-06
0.000690219
8.02376e-06
0.000691362
8.07894e-06
0.000692502
8.11745e-06
0.000693637
8.13944e-06
0.000694768
8.14548e-06
0.000695895
8.13557e-06
0.000697018
8.11016e-06
0.000698136
8.06916e-06
0.000699251
8.01291e-06
0.00070036
7.94134e-06
0.000701466
7.85452e-06
0.000702565
7.75263e-06
0.000703662
7.63522e-06
0.000704752
7.50306e-06
0.000705839
7.35475e-06
0.000706919
7.19227e-06
0.000707998
7.01244e-06
0.000709068
6.81956e-06
0.00071014
6.60724e-06
0.000711199
6.38397e-06
0.000712266
6.13776e-06
0.000713315
5.8844e-06
0.00071438
5.60236e-06
0.000715421
5.31986e-06
0.000716487
4.99933e-06
0.00071752
4.6899e-06
0.000718595
4.32737e-06
0.000719622
3.99556e-06
0.000720712
3.58653e-06
0.000721733
3.24099e-06
0.000722848
2.77976e-06
0.000723864
2.43554e-06
0.000725015
1.91441e-06
0.00072603
1.59613e-06
0.000727239
1.00238e-06
0.00072828
7.49624e-07
0.000729587
7.05554e-08
-6.99351e-08
0.00073074
0.000666736
2.76735e-07
0.000666958
8.36014e-07
0.00066733
1.38425e-06
0.000667831
1.91359e-06
0.000668442
2.41805e-06
0.000669143
2.89387e-06
0.000669914
3.33944e-06
0.000670743
3.75469e-06
0.000671619
4.14038e-06
0.000672532
4.49754e-06
0.000673476
4.82714e-06
0.000674444
5.13009e-06
0.000675431
5.40726e-06
0.000676433
5.65958e-06
0.000677447
5.88805e-06
0.00067847
6.09368e-06
0.0006795
6.27749e-06
0.000680536
6.44041e-06
0.000681577
6.58327e-06
0.000682622
6.70686e-06
0.000683671
6.8118e-06
0.000684724
6.89876e-06
0.000685779
6.96817e-06
0.000686838
7.02065e-06
0.000687899
7.05643e-06
0.000688962
7.07612e-06
0.000690028
7.07969e-06
0.000691096
7.06786e-06
0.000692166
7.04022e-06
0.000693237
6.99779e-06
0.00069431
6.93957e-06
0.000695384
6.86714e-06
0.00069646
6.77862e-06
0.000697536
6.67657e-06
0.000698614
6.5577e-06
0.000699691
6.42621e-06
0.000700769
6.27655e-06
0.000701846
6.11569e-06
0.000702924
5.93442e-06
0.000703999
5.74418e-06
0.000705076
5.53004e-06
0.00070615
5.31054e-06
0.000707226
5.06172e-06
0.000708297
4.81335e-06
0.000709372
4.52735e-06
0.00071044
4.25113e-06
0.000711515
3.9245e-06
0.000712583
3.62229e-06
0.00071366
3.25009e-06
0.000714731
2.92503e-06
0.000715817
2.49988e-06
0.000716901
2.15701e-06
0.000718013
1.66779e-06
0.000719133
1.31574e-06
0.000720301
7.46958e-07
0.000721498
3.98402e-07
0.000722761
-2.60572e-07
0.00072408
-5.68835e-07
0.000725505
-1.35476e-06
-1.62357e-06
0.000727059
0.00066672
2.23115e-07
0.000666886
6.70432e-07
0.000667156
1.11443e-06
0.000667521
1.54814e-06
0.000667972
1.96762e-06
0.000668496
2.36973e-06
0.000669083
2.75223e-06
0.000669724
3.11374e-06
0.000670411
3.45354e-06
0.000671137
3.77135e-06
0.000671897
4.06714e-06
0.000672686
4.34108e-06
0.0006735
4.59345e-06
0.000674335
4.82465e-06
0.000675188
5.03509e-06
0.000676056
5.22531e-06
0.000676938
5.39583e-06
0.000677831
5.54722e-06
0.000678734
5.67999e-06
0.000679646
5.79472e-06
0.000680566
5.89179e-06
0.000681493
5.97178e-06
0.000682426
6.03493e-06
0.000683365
6.08184e-06
0.000684309
6.11258e-06
0.000685257
6.12781e-06
0.00068621
6.12735e-06
0.000687166
6.11201e-06
0.000688125
6.08123e-06
0.000689086
6.03616e-06
0.00069005
5.97567e-06
0.000691016
5.90146e-06
0.000691983
5.81155e-06
0.000692951
5.70855e-06
0.000693919
5.58916e-06
0.000694888
5.45749e-06
0.000695857
5.3082e-06
0.000696824
5.1478e-06
0.000697791
4.96775e-06
0.000698757
4.77836e-06
0.000699721
4.56619e-06
0.000700684
4.34746e-06
0.000701644
4.10116e-06
0.000702605
3.85263e-06
0.000703563
3.56935e-06
0.000704524
3.29068e-06
0.000705482
2.96658e-06
0.000706446
2.6579e-06
0.000707408
2.28816e-06
0.000708382
1.95068e-06
0.000709352
1.52965e-06
0.000710343
1.16667e-06
0.000711324
6.86691e-07
0.000712335
3.04927e-07
0.000713338
-2.56234e-07
0.000714403
-6.66739e-07
0.000715469
-1.32643e-06
0.00071664
-1.7397e-06
0.000717807
-2.52217e-06
-2.92696e-06
0.000719111
0.000666706
1.84057e-07
0.000666823
5.5319e-07
0.000667017
9.20794e-07
0.000667283
1.28186e-06
0.000667617
1.6336e-06
0.000668013
1.97362e-06
0.000668465
2.29999e-06
0.000668968
2.61127e-06
0.000669515
2.90653e-06
0.000670101
3.18522e-06
0.000670722
3.44586e-06
0.000671375
3.68848e-06
0.000672055
3.91313e-06
0.00067276
4.11983e-06
0.000673486
4.30868e-06
0.000674232
4.47985e-06
0.000674994
4.63356e-06
0.000675771
4.77013e-06
0.000676561
4.8898e-06
0.000677363
4.99296e-06
0.000678175
5.07983e-06
0.000678996
5.15083e-06
0.000679825
5.20611e-06
0.00068066
5.24613e-06
0.000681502
5.27092e-06
0.000682349
5.28102e-06
0.0006832
5.27628e-06
0.000684055
5.25735e-06
0.000684912
5.22384e-06
0.000685772
5.1766e-06
0.000686632
5.11483e-06
0.000687494
5.03979e-06
0.000688356
4.95002e-06
0.000689217
4.84745e-06
0.000690076
4.72963e-06
0.000690934
4.59954e-06
0.000691789
4.45327e-06
0.000692642
4.29543e-06
0.000693489
4.11985e-06
0.000694334
3.93375e-06
0.000695173
3.7275e-06
0.000696008
3.5124e-06
0.000696835
3.27355e-06
0.00069766
3.02851e-06
0.000698474
2.75441e-06
0.000699287
2.4783e-06
0.000700088
2.16516e-06
0.00070089
1.85636e-06
0.000701679
1.49859e-06
0.000702475
1.15462e-06
0.000703262
7.4324e-07
0.000704069
3.59696e-07
0.000704868
-1.12027e-07
0.0007057
-5.27133e-07
0.000706515
-1.07198e-06
0.000707379
-1.53052e-06
0.000708222
-2.16964e-06
0.000709151
-2.66853e-06
0.000710054
-3.42507e-06
-3.95868e-06
0.000711086
0.000666696
1.54489e-07
0.000666786
4.6371e-07
0.000666935
7.71887e-07
0.000667141
1.07535e-06
0.000667403
1.37207e-06
0.000667716
1.66026e-06
0.000668078
1.93836e-06
0.000668484
2.20503e-06
0.000668931
2.45921e-06
0.000669416
2.69998e-06
0.000669936
2.92656e-06
0.000670486
3.13844e-06
0.000671064
3.3353e-06
0.000671666
3.51698e-06
0.000672292
3.68335e-06
0.000672937
3.8344e-06
0.000673601
3.97014e-06
0.00067428
4.09067e-06
0.000674974
4.19608e-06
0.00067568
4.28658e-06
0.000676398
4.3623e-06
0.000677125
4.42349e-06
0.000677861
4.47027e-06
0.000678604
4.50295e-06
0.000679353
4.52159e-06
0.000680108
4.52655e-06
0.000680866
4.5178e-06
0.000681628
4.49576e-06
0.000682392
4.46023e-06
0.000683156
4.41178e-06
0.000683921
4.34996e-06
0.000684686
4.27553e-06
0.000685448
4.18766e-06
0.000686208
4.08745e-06
0.000686964
3.97349e-06
0.000687716
3.84745e-06
0.000688462
3.707e-06
0.000689203
3.55476e-06
0.000689936
3.38704e-06
0.000690662
3.20788e-06
0.000691378
3.01157e-06
0.000692086
2.80432e-06
0.000692782
2.57741e-06
0.00069347
2.3404e-06
0.000694144
2.08009e-06
0.000694812
1.81112e-06
0.000695463
1.51382e-06
0.000696109
1.21034e-06
0.000696736
8.71568e-07
0.000697359
5.31211e-07
0.000697955
1.47579e-07
0.000698556
-2.4096e-07
0.000699133
-6.89274e-07
0.00069973
-1.12382e-06
0.000700297
-1.6397e-06
0.000700897
-2.12993e-06
0.000701457
-2.72961e-06
0.000702071
-3.28243e-06
0.000702627
-3.98196e-06
-4.60222e-06
0.000703271
0.000666691
1.30517e-07
0.000666763
3.91373e-07
0.000666884
6.51341e-07
0.000667051
9.07593e-07
0.000667265
1.1586e-06
0.000667522
1.40296e-06
0.000667821
1.6394e-06
0.000668159
1.86679e-06
0.000668534
2.08414e-06
0.000668944
2.29062e-06
0.000669385
2.48553e-06
0.000669855
2.66833e-06
0.000670352
2.83856e-06
0.000670873
2.99591e-06
0.000671416
3.14014e-06
0.000671979
3.2711e-06
0.000672561
3.3887e-06
0.000673158
3.49292e-06
0.000673771
3.58374e-06
0.000674396
3.66126e-06
0.000675033
3.72555e-06
0.000675679
3.77674e-06
0.000676335
3.81494e-06
0.000676997
3.84035e-06
0.000677666
3.85305e-06
0.000678339
3.85328e-06
0.000679016
3.84108e-06
0.000679695
3.81673e-06
0.000680375
3.7802e-06
0.000681055
3.73178e-06
0.000681734
3.67136e-06
0.00068241
3.59929e-06
0.000683082
3.51526e-06
0.00068375
3.41974e-06
0.000684411
3.31212e-06
0.000685066
3.1931e-06
0.000685711
3.06159e-06
0.000686347
2.91862e-06
0.000686972
2.76249e-06
0.000687585
2.59475e-06
0.000688184
2.41283e-06
0.000688769
2.21907e-06
0.000689337
2.00962e-06
0.000689889
1.78797e-06
0.000690421
1.54843e-06
0.000690936
1.2962e-06
0.000691426
1.02307e-06
0.0006919
7.36706e-07
0.000692346
4.25692e-07
0.000692777
9.99859e-08
0.000693184
-2.5907e-07
0.000693576
-6.33501e-07
0.000693932
-1.04444e-06
0.00069428
-1.47232e-06
0.000694585
-1.94424e-06
0.000694892
-2.43707e-06
0.000695145
-2.9828e-06
0.000695417
-3.5543e-06
0.000695621
-4.18617e-06
-4.85124e-06
0.00069587
0.000666687
1.10329e-07
0.000666748
3.30551e-07
0.000666849
5.49926e-07
0.00066699
7.6621e-07
0.000667171
9.78196e-07
0.000667389
1.18476e-06
0.000667644
1.38488e-06
0.000667933
1.57761e-06
0.000668255
1.76209e-06
0.000668608
1.9376e-06
0.00066899
2.10349e-06
0.000669399
2.25924e-06
0.000669833
2.40438e-06
0.000670291
2.53856e-06
0.000670769
2.6615e-06
0.000671267
2.77297e-06
0.000671783
2.87284e-06
0.000672315
2.96101e-06
0.000672861
3.03747e-06
0.00067342
3.10219e-06
0.000673991
3.15525e-06
0.000674571
3.1967e-06
0.000675159
3.22666e-06
0.000675754
3.24524e-06
0.000676355
3.25258e-06
0.000676959
3.2488e-06
0.000677566
3.23405e-06
0.000678174
3.20847e-06
0.000678782
3.17218e-06
0.000679389
3.12532e-06
0.000679992
3.06798e-06
0.000680591
3.00027e-06
0.000681184
2.92223e-06
0.00068177
2.83392e-06
0.000682347
2.73531e-06
0.000682914
2.62641e-06
0.000683468
2.50711e-06
0.000684009
2.37733e-06
0.000684535
2.23685e-06
0.000685044
2.08542e-06
0.000685534
1.92273e-06
0.000686005
1.7483e-06
0.000686453
1.56182e-06
0.000686879
1.36242e-06
0.000687277
1.15002e-06
0.00068765
9.22996e-07
0.000687991
6.81952e-07
0.000688304
4.23929e-07
0.000688578
1.51411e-07
0.000688826
-1.48144e-07
0.000689031
-4.63811e-07
0.000689205
-8.07099e-07
0.000689328
-1.16734e-06
0.000689421
-1.56546e-06
0.000689455
-1.97835e-06
0.000689462
-2.4446e-06
0.000689399
-2.919e-06
0.000689315
-3.47087e-06
0.000689144
-4.01465e-06
-4.6731e-06
0.000688966
0.000666684
9.27473e-08
0.000666737
2.77629e-07
0.000666825
4.61652e-07
0.000666949
6.43022e-07
0.000667106
8.20765e-07
0.000667297
9.93972e-07
0.00066752
1.1618e-06
0.000667774
1.32346e-06
0.000668058
1.47824e-06
0.00066837
1.62549e-06
0.000668709
1.76467e-06
0.000669073
1.89528e-06
0.00066946
2.0169e-06
0.00066987
2.1292e-06
0.000670299
2.23188e-06
0.000670748
2.32472e-06
0.000671213
2.40757e-06
0.000671693
2.48034e-06
0.000672188
2.54296e-06
0.000672695
2.59543e-06
0.000673212
2.63779e-06
0.000673739
2.67007e-06
0.000674273
2.69241e-06
0.000674813
2.70488e-06
0.000675358
2.70764e-06
0.000675906
2.7008e-06
0.000676456
2.68455e-06
0.000677005
2.65898e-06
0.000677553
2.62432e-06
0.000678098
2.58061e-06
0.000678638
2.52811e-06
0.000679171
2.4668e-06
0.000679697
2.39697e-06
0.000680212
2.31847e-06
0.000680716
2.23164e-06
0.000681206
2.13612e-06
0.000681681
2.03235e-06
0.000682138
1.91964e-06
0.000682577
1.79867e-06
0.000682994
1.66826e-06
0.000683387
1.52951e-06
0.000683755
1.38039e-06
0.000684094
1.22276e-06
0.000684403
1.0533e-06
0.000684678
8.75094e-07
0.000684918
6.82632e-07
0.000685119
4.81513e-07
0.00068528
2.62622e-07
0.000685396
3.53987e-08
0.000685469
-2.20572e-07
0.000685486
-4.81362e-07
0.000685454
-7.74978e-07
0.000685359
-1.07187e-06
0.000685209
-1.41561e-06
0.000684985
-1.75465e-06
0.000684703
-2.16232e-06
0.000684333
-2.54972e-06
0.000683903
-3.04011e-06
0.000683369
-3.48058e-06
-4.07777e-06
0.000682773
0.000666682
7.69254e-08
0.00066673
2.30031e-07
0.00066681
3.82237e-07
0.00066692
5.32125e-07
0.000667062
6.78904e-07
0.000667234
8.21837e-07
0.000667436
9.60229e-07
0.000667666
1.09343e-06
0.000667923
1.22084e-06
0.000668207
1.34192e-06
0.000668515
1.45619e-06
0.000668847
1.56324e-06
0.000669202
1.6627e-06
0.000669577
1.75426e-06
0.000669971
1.83769e-06
0.000670383
1.91278e-06
0.000670811
1.9794e-06
0.000671254
2.03746e-06
0.00067171
2.08693e-06
0.000672177
2.12778e-06
0.000672655
2.16009e-06
0.000673141
2.1839e-06
0.000673634
2.19934e-06
0.000674133
2.20649e-06
0.000674635
2.20556e-06
0.000675139
2.19665e-06
0.000675644
2.17998e-06
0.000676147
2.15565e-06
0.000676647
2.12396e-06
0.000677143
2.08494e-06
0.000677632
2.03895e-06
0.000678113
1.98594e-06
0.000678584
1.92635e-06
0.000679042
1.85997e-06
0.000679486
1.78734e-06
0.000679914
1.70805e-06
0.000680324
1.62284e-06
0.000680713
1.53081e-06
0.000681078
1.4331e-06
0.000681418
1.32819e-06
0.00068173
1.2178e-06
0.000682011
1.09949e-06
0.000682258
9.75732e-07
0.000682469
8.42636e-07
0.000682639
7.04483e-07
0.000682767
5.54829e-07
0.000682848
4.00791e-07
0.000682879
2.31231e-07
0.000682855
5.93593e-08
0.000682773
-1.3792e-07
0.000682625
-3.34119e-07
0.000682411
-5.60802e-07
0.000682122
-7.82355e-07
0.000681755
-1.04894e-06
0.000681301
-1.30035e-06
0.000680758
-1.61941e-06
0.000680113
-1.90478e-06
0.000679366
-2.2936e-06
0.000678501
-2.61519e-06
-3.09667e-06
0.00067752
0.000666681
6.22115e-08
0.000666726
1.85784e-07
0.000666799
3.0838e-07
0.000666903
4.28937e-07
0.000667035
5.46824e-07
0.000667195
6.61446e-07
0.000667383
7.72242e-07
0.000667598
8.78681e-07
0.000667838
9.80275e-07
0.000668104
1.07658e-06
0.000668393
1.16721e-06
0.000668704
1.25181e-06
0.000669037
1.3301e-06
0.000669389
1.40183e-06
0.00066976
1.4668e-06
0.000670148
1.52486e-06
0.000670552
1.5759e-06
0.000670969
1.61987e-06
0.000671399
1.65675e-06
0.000671841
1.68656e-06
0.000672291
1.70938e-06
0.00067275
1.72532e-06
0.000673215
1.73449e-06
0.000673684
1.73703e-06
0.000674157
1.73318e-06
0.00067463
1.72305e-06
0.000675103
1.70692e-06
0.000675574
1.68493e-06
0.00067604
1.65738e-06
0.000676501
1.62439e-06
0.000676954
1.58637e-06
0.000677396
1.54331e-06
0.000677827
1.4957e-06
0.000678243
1.44349e-06
0.000678643
1.38729e-06
0.000679025
1.32666e-06
0.000679385
1.26247e-06
0.000679722
1.19421e-06
0.000680032
1.12265e-06
0.000680314
1.04684e-06
0.000680563
9.68339e-07
0.000680777
8.85079e-07
0.000680954
7.9961e-07
0.000681088
7.08436e-07
0.000681176
6.15864e-07
0.000681216
5.15518e-07
0.000681202
4.14828e-07
0.000681129
3.03473e-07
0.000680996
1.9315e-07
0.000680789
6.85244e-08
0.000680511
-5.57502e-08
0.000680151
-2.00944e-07
0.000679706
-3.3729e-07
0.000679164
-5.07332e-07
0.000678524
-6.5983e-07
0.000677769
-8.64409e-07
0.0006769
-1.03558e-06
0.000675894
-1.28792e-06
0.000674757
-1.47844e-06
-1.79634e-06
0.000673457
0.000666681
4.80479e-08
0.000666723
1.43273e-07
0.000666794
2.37351e-07
0.000666894
3.29651e-07
0.000667021
4.19695e-07
0.000667175
5.07016e-07
0.000667356
5.91168e-07
0.000667563
6.71729e-07
0.000667795
7.48319e-07
0.000668051
8.20584e-07
0.00066833
8.88233e-07
0.000668631
9.50987e-07
0.000668952
1.00865e-06
0.000669293
1.06102e-06
0.000669652
1.10799e-06
0.000670028
1.14941e-06
0.000670418
1.18526e-06
0.000670822
1.21553e-06
0.000671239
1.24021e-06
0.000671666
1.25938e-06
0.000672102
1.27313e-06
0.000672546
1.28162e-06
0.000672996
1.28502e-06
0.000673449
1.2835e-06
0.000673905
1.27729e-06
0.000674361
1.2666e-06
0.000674817
1.25171e-06
0.000675269
1.23285e-06
0.000675716
1.21033e-06
0.000676156
1.18438e-06
0.000676587
1.15536e-06
0.000677007
1.12349e-06
0.000677413
1.08921e-06
0.000677804
1.05266e-06
0.000678177
1.01428e-06
0.000678529
9.74202e-07
0.000678859
9.32958e-07
0.000679163
8.90414e-07
0.000679438
8.47338e-07
0.000679682
8.03255e-07
0.000679891
7.59259e-07
0.000680061
7.1443e-07
0.000680191
6.70305e-07
0.000680274
6.25131e-07
0.000680309
5.81264e-07
0.000680288
5.35866e-07
0.000680211
4.92212e-07
0.000680069
4.45821e-07
0.000679859
4.02593e-07
0.000679573
3.54297e-07
0.000679207
3.1047e-07
0.000678748
2.5793e-07
0.000678197
2.13531e-07
0.000677536
1.53837e-07
0.000676768
1.08223e-07
0.000675867
3.72698e-08
0.000674843
-1.21395e-08
0.000673658
-1.03136e-07
0.000672334
-1.53862e-07
-2.72913e-07
0.00067081
0.000666681
3.38947e-08
0.000666723
1.0097e-07
0.000666794
1.66694e-07
0.000666893
2.30917e-07
0.000667019
2.93272e-07
0.000667173
3.53419e-07
0.000667353
4.11036e-07
0.000667559
4.65824e-07
0.000667789
5.17507e-07
0.000668044
5.65832e-07
0.000668322
6.1058e-07
0.000668621
6.51576e-07
0.000668941
6.88661e-07
0.00066928
7.21749e-07
0.000669638
7.50737e-07
0.000670012
7.75587e-07
0.0006704
7.96304e-07
0.000670803
8.1292e-07
0.000671218
8.25498e-07
0.000671643
8.34149e-07
0.000672077
8.39023e-07
0.000672519
8.40252e-07
0.000672965
8.38152e-07
0.000673416
8.32851e-07
0.000673869
8.24618e-07
0.000674322
8.13786e-07
0.000674773
8.00511e-07
0.00067522
7.8529e-07
0.000675662
7.68331e-07
0.000676097
7.50028e-07
0.000676521
7.30717e-07
0.000676934
7.10665e-07
0.000677333
6.90425e-07
0.000677715
6.7045e-07
0.000678079
6.50749e-07
0.000678421
6.32162e-07
0.000678739
6.14848e-07
0.00067903
5.99164e-07
0.000679292
5.85684e-07
0.00067952
5.74711e-07
0.000679713
5.66359e-07
0.000679866
5.61465e-07
0.000679976
5.60296e-07
0.000680038
5.62984e-07
0.00068005
5.69787e-07
0.000680004
5.81416e-07
0.000679899
5.97475e-07
0.000679726
6.19143e-07
0.000679482
6.4573e-07
0.000679158
6.78329e-07
0.000678753
7.16376e-07
0.00067825
7.60677e-07
0.000677652
8.11372e-07
0.000676938
8.68226e-07
0.000676114
9.32109e-07
0.000675149
1.00233e-06
0.000674056
1.07999e-06
0.00067279
1.16381e-06
0.00067138
1.2561e-06
1.35315e-06
0.000669753
0.000666681
1.93407e-08
0.000666725
5.72111e-08
0.000666798
9.39346e-08
0.000666899
1.29452e-07
0.000667029
1.63514e-07
0.000667186
1.95886e-07
0.000667371
2.26366e-07
0.000667582
2.54777e-07
0.000667819
2.80963e-07
0.00066808
3.04763e-07
0.000668364
3.26065e-07
0.000668671
3.44768e-07
0.000668999
3.60817e-07
0.000669347
3.74168e-07
0.000669712
3.84825e-07
0.000670095
3.92771e-07
0.000670493
3.98119e-07
0.000670906
4.00864e-07
0.00067133
4.01143e-07
0.000671765
3.9915e-07
0.000672209
3.94974e-07
0.00067266
3.89017e-07
0.000673117
3.81244e-07
0.000673578
3.72202e-07
0.00067404
3.61934e-07
0.000674503
3.51054e-07
0.000674964
3.39612e-07
0.000675421
3.2798e-07
0.000675873
3.16698e-07
0.000676317
3.06125e-07
0.000676751
2.96602e-07
0.000677173
2.88678e-07
0.000677581
2.82658e-07
0.000677972
2.79184e-07
0.000678344
2.78479e-07
0.000678695
2.81587e-07
0.000679022
2.88168e-07
0.000679321
2.99495e-07
0.000679592
3.15187e-07
0.000679829
3.3722e-07
0.000680031
3.6476e-07
0.000680192
3.99934e-07
0.000680311
4.41232e-07
0.000680383
4.91615e-07
0.000680404
5.48797e-07
0.000680368
6.17179e-07
0.000680273
6.92498e-07
0.000680111
7.81521e-07
0.000679879
8.77343e-07
0.000679567
9.90183e-07
0.000679175
1.1089e-06
0.000678686
1.24919e-06
0.000678104
1.39334e-06
0.000677407
1.56559e-06
0.000676601
1.73757e-06
0.000675656
1.94755e-06
0.000674586
2.14968e-06
0.000673345
2.40475e-06
0.000671963
2.63823e-06
2.94717e-06
0.000670369
0.000666682
3.94099e-09
0.000666728
1.09075e-08
0.000666805
1.70493e-08
0.000666912
2.22971e-08
0.000667049
2.65239e-08
0.000667216
2.96364e-08
0.00066741
3.1564e-08
0.000667633
3.22499e-08
0.000667882
3.16462e-08
0.000668157
2.97104e-08
0.000668457
2.64247e-08
0.00066878
2.17655e-08
0.000669125
1.57538e-08
0.000669491
8.37808e-09
0.000669876
6.75847e-11
0.000670278
-9.26192e-09
0.000670696
-1.99645e-08
0.000671128
-3.16785e-08
0.000671574
-4.42191e-08
0.00067203
-5.73764e-08
0.000672496
-7.09448e-08
0.00067297
-8.4658e-08
0.000673449
-9.8276e-08
0.000673933
-1.11469e-07
0.000674419
-1.23955e-07
0.000674905
-1.35335e-07
0.00067539
-1.45319e-07
0.000675872
-1.53422e-07
0.000676348
-1.59319e-07
0.000676816
-1.62423e-07
0.000677275
-1.6245e-07
0.000677723
-1.58674e-07
0.000678156
-1.50879e-07
0.000678573
-1.38141e-07
0.000678972
-1.20377e-07
0.00067935
-9.6406e-08
0.000679705
-6.64512e-08
0.000680033
-2.90413e-08
0.000680335
1.35517e-08
0.000680604
6.79202e-08
0.000680839
1.298e-07
0.000681036
2.02952e-07
0.000681193
2.84985e-07
0.000681303
3.80781e-07
0.000681366
4.8598e-07
0.000681375
6.0818e-07
0.000681328
7.3972e-07
0.000681217
8.92297e-07
0.000681041
1.05365e-06
0.000680789
1.24154e-06
0.000680462
1.43639e-06
0.000680046
1.66568e-06
0.000679541
1.89792e-06
0.00067893
2.17627e-06
0.000678218
2.45009e-06
0.000677378
2.78739e-06
0.000676421
3.10681e-06
0.000675309
3.51605e-06
0.000674064
3.88366e-06
4.38048e-06
0.000672631
0.000666683
-1.26661e-08
0.000666733
-3.89615e-08
0.000666816
-6.60333e-08
0.000666932
-9.36518e-08
0.00066708
-1.21749e-07
0.00066726
-1.50257e-07
0.000667471
-1.79106e-07
0.000667711
-2.08228e-07
0.000667981
-2.37557e-07
0.000668277
-2.67022e-07
0.0006686
-2.96544e-07
0.000668948
-3.26035e-07
0.000669319
-3.55402e-07
0.000669712
-3.84537e-07
0.000670126
-4.13319e-07
0.000670558
-4.41636e-07
0.000671007
-4.69387e-07
0.000671472
-4.96401e-07
0.00067195
-5.22499e-07
0.000672441
-5.47458e-07
0.000672941
-5.71061e-07
0.000673449
-5.93026e-07
0.000673964
-6.13095e-07
0.000674483
-6.30919e-07
0.000675006
-6.46208e-07
0.000675529
-6.58535e-07
0.000676051
-6.67586e-07
0.00067657
-6.72841e-07
0.000677085
-6.7399e-07
0.000677593
-6.70382e-07
0.000678092
-6.61731e-07
0.000678581
-6.47223e-07
0.000679057
-6.26663e-07
0.000679518
-5.99001e-07
0.000679961
-5.6422e-07
0.000680386
-5.20931e-07
0.000680789
-4.69438e-07
0.000681168
-4.07839e-07
0.000681518
-3.36955e-07
0.00068184
-2.53828e-07
0.00068213
-1.6033e-07
0.000682386
-5.29355e-08
0.000682607
6.41531e-08
0.000682786
2.01864e-07
0.000682921
3.50988e-07
0.000683007
5.21706e-07
0.000683042
7.04603e-07
0.000683021
9.13665e-07
0.00068294
1.13437e-06
0.000682794
1.38817e-06
0.000682578
1.65151e-06
0.000682286
1.95776e-06
0.000681915
2.26913e-06
0.000681454
2.63753e-06
0.000680901
3.00278e-06
0.000680243
3.44582e-06
0.000679479
3.87097e-06
0.00067859
4.40468e-06
0.000677579
4.89449e-06
5.53777e-06
0.000676422
0.000666685
-3.09954e-08
0.00066674
-9.40947e-08
0.000666832
-1.57981e-07
0.00066696
-2.22e-07
0.000667125
-2.85861e-07
0.000667324
-3.49294e-07
0.000667557
-4.12052e-07
0.000667822
-4.73912e-07
0.000668119
-5.34674e-07
0.000668446
-5.9415e-07
0.000668802
-6.52167e-07
0.000669185
-7.08558e-07
0.000669592
-7.63167e-07
0.000670024
-8.1584e-07
0.000670477
-8.66432e-07
0.00067095
-9.1479e-07
0.000671441
-9.60762e-07
0.000671949
-1.00417e-06
0.000672471
-1.04482e-06
0.000673006
-1.0825e-06
0.000673552
-1.11698e-06
0.000674107
-1.14798e-06
0.000674669
-1.17526e-06
0.000675237
-1.19847e-06
0.000675808
-1.2173e-06
0.000676381
-1.23135e-06
0.000676954
-1.24029e-06
0.000677524
-1.24361e-06
0.000678091
-1.24096e-06
0.000678653
-1.23171e-06
0.000679206
-1.21553e-06
0.000679751
-1.19162e-06
0.000680284
-1.15972e-06
0.000680804
-1.1188e-06
0.000681308
-1.06876e-06
0.000681796
-1.00821e-06
0.000682263
-9.37338e-07
0.00068271
-8.54237e-07
0.000683132
-7.59594e-07
0.000683529
-6.50697e-07
0.000683898
-5.29083e-07
0.000684236
-3.90854e-07
0.000684539
-2.38887e-07
0.000684809
-6.78237e-08
0.000685043
1.17251e-07
0.000685235
3.29208e-07
0.000685383
5.56841e-07
0.000685483
8.13252e-07
0.000685532
1.08508e-06
0.000685528
1.39264e-06
0.000685465
1.71458e-06
0.000685341
2.0818e-06
0.000685149
2.46061e-06
0.000684889
2.89796e-06
0.000684551
3.3412e-06
0.000684135
3.86172e-06
0.000683628
4.37779e-06
0.000683035
4.99768e-06
0.000682335
5.59472e-06
6.33214e-06
0.00068154
0.000666687
-5.17804e-08
0.00066675
-1.56582e-07
0.000666854
-2.62112e-07
0.000666999
-3.67214e-07
0.000667185
-4.71333e-07
0.000667409
-5.73964e-07
0.000667672
-6.74648e-07
0.000667971
-7.72976e-07
0.000668305
-8.68594e-07
0.000668672
-9.61193e-07
0.00066907
-1.0505e-06
0.000669498
-1.13629e-06
0.000669953
-1.21835e-06
0.000670434
-1.2965e-06
0.000670938
-1.37057e-06
0.000671464
-1.44043e-06
0.000672009
-1.50591e-06
0.000672572
-1.56685e-06
0.00067315
-1.62308e-06
0.000673742
-1.67441e-06
0.000674345
-1.72064e-06
0.000674959
-1.76152e-06
0.000675581
-1.79682e-06
0.000676208
-1.82622e-06
0.00067684
-1.84945e-06
0.000677475
-1.86611e-06
0.000678111
-1.87588e-06
0.000678745
-1.8783e-06
0.000679377
-1.87299e-06
0.000680005
-1.85939e-06
0.000680627
-1.83709e-06
0.00068124
-1.80539e-06
0.000681845
-1.76392e-06
0.000682438
-1.71179e-06
0.000683018
-1.64869e-06
0.000683583
-1.57347e-06
0.000684132
-1.48601e-06
0.000684662
-1.38475e-06
0.000685172
-1.26988e-06
0.000685661
-1.13928e-06
0.000686125
-9.93634e-07
0.000686565
-8.29992e-07
0.000686976
-6.49878e-07
0.000687357
-4.49117e-07
0.000687705
-2.30662e-07
0.000688027
7.38128e-09
0.000688311
2.72955e-07
0.000688558
5.65791e-07
0.000688764
8.793e-07
0.00068893
1.22653e-06
0.000689049
1.59578e-06
0.000689125
2.00575e-06
0.000689147
2.43872e-06
0.000689123
2.9211e-06
0.000689038
3.42711e-06
0.000688906
3.99353e-06
0.0006887
4.58375e-06
0.00068845
5.24768e-06
0.00068811
5.93455e-06
6.70912e-06
0.000687733
0.000666691
-7.58058e-08
0.000666763
-2.28836e-07
0.000666883
-3.82467e-07
0.000667051
-5.34903e-07
0.000667265
-6.85231e-07
0.000667524
-8.32627e-07
0.000667825
-9.76361e-07
0.000668168
-1.11581e-06
0.00066855
-1.25043e-06
0.000668969
-1.37982e-06
0.000669422
-1.50362e-06
0.000669907