/*--------------------------------*- C++ -*----------------------------------*\
| =========                 |                                                 |
| \\      /  F ield         | OpenFOAM: The Open Source CFD Toolbox           |
|  \\    /   O peration     | Version:  2312                                  |
|   \\  /    A nd           | Website:  www.openfoam.com                      |
|    \\/     M anipulation  |                                                 |
\*---------------------------------------------------------------------------*/
FoamFile
{
    version     2.0;
    format      ascii;
    arch        "LSB;label=32;scalar=64";
    class       volScalarField;
    location    "188000";
    object      p;
}
// * * * * * * * * * * * * * * * * * * * * * * * * * * * * * * * * * * * * * //

dimensions      [0 2 -2 0 0 0 0];

internalField   nonuniform List<scalar> 
2715
(
7.27354e-07
7.13239e-07
6.99488e-07
6.88935e-07
6.81545e-07
6.76194e-07
6.71791e-07
6.67766e-07
6.63953e-07
6.60358e-07
6.57018e-07
6.53936e-07
6.5108e-07
6.48398e-07
6.45845e-07
6.43386e-07
6.41001e-07
6.38676e-07
6.364e-07
6.34165e-07
6.31962e-07
6.29784e-07
6.27624e-07
6.25478e-07
6.23341e-07
6.2121e-07
6.19082e-07
6.16956e-07
6.1483e-07
6.12704e-07
6.10576e-07
6.08447e-07
6.06317e-07
6.04186e-07
6.02054e-07
5.99923e-07
5.97794e-07
5.95666e-07
5.93541e-07
5.9142e-07
5.89304e-07
5.87193e-07
5.85086e-07
5.82986e-07
5.80891e-07
5.78801e-07
5.76715e-07
5.74631e-07
5.72551e-07
5.70463e-07
5.68383e-07
5.66269e-07
5.64188e-07
5.6199e-07
5.59942e-07
5.57461e-07
5.55717e-07
5.52026e-07
5.52393e-07
5.42426e-07
6.79259e-07
6.77538e-07
6.74906e-07
6.71801e-07
6.68612e-07
6.65553e-07
6.62672e-07
6.59935e-07
6.5729e-07
6.54707e-07
6.52179e-07
6.49713e-07
6.47314e-07
6.44983e-07
6.42712e-07
6.40494e-07
6.38317e-07
6.36175e-07
6.34062e-07
6.31973e-07
6.29903e-07
6.27849e-07
6.25808e-07
6.23776e-07
6.21751e-07
6.1973e-07
6.17713e-07
6.15697e-07
6.13682e-07
6.11667e-07
6.09652e-07
6.07636e-07
6.05621e-07
6.03604e-07
6.01589e-07
5.99574e-07
5.97562e-07
5.95549e-07
5.93543e-07
5.91536e-07
5.89538e-07
5.87538e-07
5.85552e-07
5.83558e-07
5.81586e-07
5.79598e-07
5.77644e-07
5.75658e-07
5.73731e-07
5.71746e-07
5.69867e-07
5.67886e-07
5.66111e-07
5.64159e-07
5.62635e-07
5.60801e-07
5.59879e-07
5.58237e-07
5.58544e-07
5.56697e-07
6.70387e-07
6.69643e-07
6.68242e-07
6.66309e-07
6.6405e-07
6.61662e-07
6.5927e-07
6.56926e-07
6.54631e-07
6.52373e-07
6.50144e-07
6.47942e-07
6.45773e-07
6.43642e-07
6.41551e-07
6.39498e-07
6.37478e-07
6.35487e-07
6.3352e-07
6.31574e-07
6.29645e-07
6.27732e-07
6.2583e-07
6.23939e-07
6.22056e-07
6.2018e-07
6.18309e-07
6.16442e-07
6.14578e-07
6.12716e-07
6.10857e-07
6.08999e-07
6.07143e-07
6.05289e-07
6.03437e-07
6.01587e-07
5.99741e-07
5.97896e-07
5.96057e-07
5.94219e-07
5.92389e-07
5.90559e-07
5.88742e-07
5.86921e-07
5.85119e-07
5.83309e-07
5.81526e-07
5.79729e-07
5.77975e-07
5.76195e-07
5.74485e-07
5.72734e-07
5.71098e-07
5.69395e-07
5.67882e-07
5.66255e-07
5.6493e-07
5.6339e-07
5.62292e-07
5.60712e-07
6.58516e-07
6.58088e-07
6.57312e-07
6.56238e-07
6.54935e-07
6.53475e-07
6.51914e-07
6.50292e-07
6.48631e-07
6.4694e-07
6.45226e-07
6.43496e-07
6.41754e-07
6.40008e-07
6.38262e-07
6.36519e-07
6.34781e-07
6.33049e-07
6.31321e-07
6.29599e-07
6.2788e-07
6.26166e-07
6.24455e-07
6.22748e-07
6.21043e-07
6.19341e-07
6.17641e-07
6.15944e-07
6.14249e-07
6.12556e-07
6.10865e-07
6.09177e-07
6.07492e-07
6.0581e-07
6.04132e-07
6.02458e-07
6.00789e-07
5.99124e-07
5.97466e-07
5.95813e-07
5.94167e-07
5.92527e-07
5.90895e-07
5.89268e-07
5.87652e-07
5.86038e-07
5.84437e-07
5.82835e-07
5.81249e-07
5.79656e-07
5.78082e-07
5.76494e-07
5.74928e-07
5.73337e-07
5.71771e-07
5.70162e-07
5.68585e-07
5.66936e-07
5.65332e-07
5.6365e-07
6.51603e-07
6.51394e-07
6.50971e-07
6.5034e-07
6.49516e-07
6.48528e-07
6.47408e-07
6.46187e-07
6.4489e-07
6.43533e-07
6.4213e-07
6.40688e-07
6.39216e-07
6.37719e-07
6.36205e-07
6.34677e-07
6.3314e-07
6.31596e-07
6.30048e-07
6.28497e-07
6.26943e-07
6.25389e-07
6.23835e-07
6.22281e-07
6.20728e-07
6.19177e-07
6.17628e-07
6.16081e-07
6.14538e-07
6.12999e-07
6.11463e-07
6.09933e-07
6.08408e-07
6.06889e-07
6.05376e-07
6.03871e-07
6.02374e-07
6.00885e-07
5.99405e-07
5.97934e-07
5.96473e-07
5.95022e-07
5.93581e-07
5.9215e-07
5.90729e-07
5.89317e-07
5.87913e-07
5.86517e-07
5.85127e-07
5.83741e-07
5.82356e-07
5.80968e-07
5.79572e-07
5.78159e-07
5.7672e-07
5.75242e-07
5.7371e-07
5.72115e-07
5.70458e-07
5.68801e-07
6.45856e-07
6.45699e-07
6.45384e-07
6.44914e-07
6.443e-07
6.43557e-07
6.42704e-07
6.41759e-07
6.40738e-07
6.39653e-07
6.38515e-07
6.3733e-07
6.36106e-07
6.3485e-07
6.33565e-07
6.32257e-07
6.3093e-07
6.29587e-07
6.28232e-07
6.26867e-07
6.25493e-07
6.24114e-07
6.22729e-07
6.21342e-07
6.19952e-07
6.18562e-07
6.17172e-07
6.15784e-07
6.14398e-07
6.13016e-07
6.11639e-07
6.10268e-07
6.08903e-07
6.07545e-07
6.06196e-07
6.04857e-07
6.03527e-07
6.02209e-07
6.00902e-07
5.99608e-07
5.98326e-07
5.97058e-07
5.95802e-07
5.94559e-07
5.93329e-07
5.92111e-07
5.90903e-07
5.89705e-07
5.88512e-07
5.87324e-07
5.86133e-07
5.8494e-07
5.83732e-07
5.82511e-07
5.81262e-07
5.79995e-07
5.78691e-07
5.77381e-07
5.76046e-07
5.74772e-07
6.41242e-07
6.41127e-07
6.40897e-07
6.40553e-07
6.40099e-07
6.39541e-07
6.3889e-07
6.38155e-07
6.37346e-07
6.36472e-07
6.35542e-07
6.34562e-07
6.33539e-07
6.32477e-07
6.31381e-07
6.30256e-07
6.29107e-07
6.27935e-07
6.26746e-07
6.25542e-07
6.24325e-07
6.23099e-07
6.21864e-07
6.20624e-07
6.19379e-07
6.18133e-07
6.16886e-07
6.1564e-07
6.14397e-07
6.13158e-07
6.11925e-07
6.10699e-07
6.09481e-07
6.08273e-07
6.07075e-07
6.0589e-07
6.04719e-07
6.03562e-07
6.0242e-07
6.01295e-07
6.00187e-07
5.99097e-07
5.98026e-07
5.96974e-07
5.95939e-07
5.94925e-07
5.93927e-07
5.92948e-07
5.91983e-07
5.91034e-07
5.90096e-07
5.89171e-07
5.88247e-07
5.87328e-07
5.86395e-07
5.85451e-07
5.84472e-07
5.83477e-07
5.82482e-07
5.81581e-07
6.37494e-07
6.37405e-07
6.37227e-07
6.36958e-07
6.36602e-07
6.3616e-07
6.3564e-07
6.35046e-07
6.34385e-07
6.33663e-07
6.32886e-07
6.3206e-07
6.31189e-07
6.30279e-07
6.29333e-07
6.28356e-07
6.27353e-07
6.26326e-07
6.25278e-07
6.24213e-07
6.23134e-07
6.22043e-07
6.20943e-07
6.19835e-07
6.18723e-07
6.17608e-07
6.16492e-07
6.15378e-07
6.14266e-07
6.1316e-07
6.12061e-07
6.1097e-07
6.09889e-07
6.0882e-07
6.07765e-07
6.06726e-07
6.05703e-07
6.04699e-07
6.03714e-07
6.02751e-07
6.01811e-07
6.00894e-07
6.00002e-07
5.99137e-07
5.98297e-07
5.97485e-07
5.96699e-07
5.95941e-07
5.95209e-07
5.94503e-07
5.93819e-07
5.93158e-07
5.92514e-07
5.91891e-07
5.91283e-07
5.90702e-07
5.90129e-07
5.89573e-07
5.89045e-07
5.88637e-07
6.34408e-07
6.34335e-07
6.3419e-07
6.33971e-07
6.33679e-07
6.33316e-07
6.32885e-07
6.32391e-07
6.31837e-07
6.31228e-07
6.30568e-07
6.29862e-07
6.29113e-07
6.28325e-07
6.27503e-07
6.2665e-07
6.25769e-07
6.24864e-07
6.23938e-07
6.22993e-07
6.22034e-07
6.21061e-07
6.20079e-07
6.19088e-07
6.18093e-07
6.17095e-07
6.16096e-07
6.15099e-07
6.14106e-07
6.13119e-07
6.1214e-07
6.11172e-07
6.10216e-07
6.09274e-07
6.08349e-07
6.07442e-07
6.06556e-07
6.05693e-07
6.04855e-07
6.04043e-07
6.0326e-07
6.02508e-07
6.01788e-07
6.01102e-07
6.00452e-07
5.99839e-07
5.99264e-07
5.9873e-07
5.98237e-07
5.97786e-07
5.97378e-07
5.97014e-07
5.96692e-07
5.96415e-07
5.96177e-07
5.95977e-07
5.95816e-07
5.95716e-07
5.95685e-07
5.95791e-07
6.31861e-07
6.318e-07
6.31677e-07
6.31492e-07
6.31245e-07
6.30937e-07
6.30571e-07
6.30148e-07
6.29673e-07
6.29148e-07
6.28577e-07
6.27963e-07
6.27309e-07
6.26618e-07
6.25894e-07
6.2514e-07
6.24359e-07
6.23554e-07
6.22727e-07
6.21882e-07
6.21022e-07
6.20149e-07
6.19265e-07
6.18374e-07
6.17478e-07
6.16579e-07
6.1568e-07
6.14784e-07
6.13892e-07
6.13008e-07
6.12133e-07
6.1127e-07
6.10422e-07
6.09591e-07
6.0878e-07
6.0799e-07
6.07225e-07
6.06488e-07
6.0578e-07
6.05104e-07
6.04463e-07
6.0386e-07
6.03297e-07
6.02777e-07
6.02303e-07
6.01877e-07
6.01501e-07
6.0118e-07
6.00914e-07
6.00708e-07
6.00561e-07
6.0048e-07
6.00462e-07
6.00515e-07
6.00639e-07
6.00841e-07
6.01121e-07
6.01493e-07
6.01972e-07
6.02611e-07
6.29769e-07
6.29716e-07
6.29609e-07
6.29448e-07
6.29233e-07
6.28964e-07
6.28644e-07
6.28274e-07
6.27856e-07
6.27393e-07
6.26888e-07
6.26344e-07
6.25762e-07
6.25145e-07
6.24497e-07
6.23819e-07
6.23116e-07
6.22389e-07
6.21642e-07
6.20876e-07
6.20095e-07
6.19302e-07
6.18498e-07
6.17687e-07
6.16872e-07
6.16054e-07
6.15237e-07
6.14423e-07
6.13615e-07
6.12815e-07
6.12027e-07
6.11252e-07
6.10495e-07
6.09756e-07
6.0904e-07
6.0835e-07
6.07687e-07
6.07056e-07
6.0646e-07
6.05901e-07
6.05383e-07
6.0491e-07
6.04484e-07
6.04111e-07
6.03792e-07
6.03533e-07
6.03337e-07
6.03208e-07
6.0315e-07
6.03169e-07
6.03268e-07
6.03452e-07
6.03726e-07
6.04094e-07
6.04562e-07
6.05139e-07
6.05834e-07
6.06656e-07
6.07621e-07
6.0877e-07
6.28073e-07
6.28025e-07
6.2793e-07
6.27785e-07
6.27592e-07
6.27351e-07
6.27063e-07
6.2673e-07
6.26353e-07
6.25935e-07
6.25478e-07
6.24983e-07
6.24454e-07
6.23892e-07
6.23299e-07
6.22679e-07
6.22034e-07
6.21366e-07
6.20678e-07
6.19972e-07
6.19252e-07
6.18519e-07
6.17777e-07
6.17027e-07
6.16274e-07
6.15518e-07
6.14764e-07
6.14014e-07
6.1327e-07
6.12536e-07
6.11815e-07
6.11109e-07
6.10421e-07
6.09755e-07
6.09113e-07
6.085e-07
6.07918e-07
6.07371e-07
6.06862e-07
6.06396e-07
6.05977e-07
6.05608e-07
6.05293e-07
6.05038e-07
6.04847e-07
6.04724e-07
6.04676e-07
6.04707e-07
6.04824e-07
6.05031e-07
6.05337e-07
6.05746e-07
6.06267e-07
6.06907e-07
6.07673e-07
6.08576e-07
6.0963e-07
6.1085e-07
6.12252e-07
6.1386e-07
6.26731e-07
6.26687e-07
6.26599e-07
6.26466e-07
6.26287e-07
6.26064e-07
6.25798e-07
6.2549e-07
6.2514e-07
6.24752e-07
6.24327e-07
6.23867e-07
6.23373e-07
6.22848e-07
6.22294e-07
6.21713e-07
6.21107e-07
6.2048e-07
6.19833e-07
6.19169e-07
6.1849e-07
6.17799e-07
6.17099e-07
6.16392e-07
6.15681e-07
6.14968e-07
6.14257e-07
6.13551e-07
6.12852e-07
6.12162e-07
6.11487e-07
6.10827e-07
6.10187e-07
6.0957e-07
6.0898e-07
6.0842e-07
6.07893e-07
6.07404e-07
6.06957e-07
6.06555e-07
6.06204e-07
6.05908e-07
6.05672e-07
6.05501e-07
6.05401e-07
6.05377e-07
6.05436e-07
6.05584e-07
6.05828e-07
6.06177e-07
6.06637e-07
6.07218e-07
6.0793e-07
6.0878e-07
6.09782e-07
6.10945e-07
6.12282e-07
6.13806e-07
6.1554e-07
6.17506e-07
6.25716e-07
6.25674e-07
6.2559e-07
6.25463e-07
6.25293e-07
6.25081e-07
6.24827e-07
6.24533e-07
6.242e-07
6.23829e-07
6.23423e-07
6.22982e-07
6.22509e-07
6.22005e-07
6.21473e-07
6.20914e-07
6.20332e-07
6.19727e-07
6.19104e-07
6.18463e-07
6.17807e-07
6.1714e-07
6.16463e-07
6.15779e-07
6.15091e-07
6.14402e-07
6.13714e-07
6.1303e-07
6.12354e-07
6.11688e-07
6.11036e-07
6.104e-07
6.09785e-07
6.09193e-07
6.08628e-07
6.08094e-07
6.07595e-07
6.07136e-07
6.06719e-07
6.06351e-07
6.06035e-07
6.05776e-07
6.05581e-07
6.05455e-07
6.05403e-07
6.05433e-07
6.05551e-07
6.05764e-07
6.06081e-07
6.06509e-07
6.07059e-07
6.0774e-07
6.08563e-07
6.09539e-07
6.10682e-07
6.12003e-07
6.1352e-07
6.15246e-07
6.17201e-07
6.194e-07
6.25012e-07
6.24971e-07
6.24888e-07
6.24764e-07
6.24597e-07
6.24388e-07
6.24139e-07
6.2385e-07
6.23522e-07
6.23157e-07
6.22757e-07
6.22322e-07
6.21856e-07
6.21359e-07
6.20833e-07
6.20282e-07
6.19705e-07
6.19107e-07
6.1849e-07
6.17854e-07
6.17204e-07
6.16541e-07
6.15869e-07
6.15189e-07
6.14504e-07
6.13818e-07
6.13133e-07
6.12451e-07
6.11776e-07
6.11112e-07
6.1046e-07
6.09824e-07
6.09209e-07
6.08616e-07
6.08051e-07
6.07516e-07
6.07017e-07
6.06556e-07
6.06138e-07
6.05769e-07
6.05452e-07
6.05194e-07
6.04999e-07
6.04874e-07
6.04825e-07
6.04858e-07
6.04981e-07
6.05201e-07
6.05527e-07
6.05968e-07
6.06533e-07
6.07233e-07
6.08079e-07
6.09084e-07
6.10261e-07
6.11625e-07
6.13192e-07
6.14977e-07
6.17002e-07
6.19279e-07
6.24615e-07
6.24573e-07
6.24489e-07
6.24363e-07
6.24193e-07
6.23982e-07
6.23729e-07
6.23435e-07
6.23103e-07
6.22733e-07
6.22327e-07
6.21887e-07
6.21413e-07
6.20909e-07
6.20375e-07
6.19815e-07
6.19229e-07
6.18621e-07
6.17992e-07
6.17345e-07
6.16682e-07
6.16006e-07
6.15319e-07
6.14624e-07
6.13924e-07
6.1322e-07
6.12517e-07
6.11816e-07
6.11121e-07
6.10435e-07
6.09761e-07
6.09102e-07
6.08462e-07
6.07843e-07
6.0725e-07
6.06687e-07
6.06156e-07
6.05663e-07
6.05212e-07
6.04807e-07
6.04454e-07
6.04156e-07
6.0392e-07
6.03752e-07
6.03657e-07
6.03643e-07
6.03715e-07
6.03882e-07
6.04152e-07
6.04534e-07
6.05037e-07
6.05671e-07
6.06448e-07
6.0738e-07
6.0848e-07
6.09761e-07
6.11243e-07
6.12938e-07
6.14869e-07
6.17052e-07
6.24525e-07
6.24481e-07
6.24394e-07
6.24262e-07
6.24086e-07
6.23865e-07
6.23601e-07
6.23295e-07
6.22949e-07
6.22564e-07
6.2214e-07
6.2168e-07
6.21187e-07
6.2066e-07
6.20104e-07
6.19519e-07
6.18908e-07
6.18273e-07
6.17617e-07
6.16941e-07
6.16248e-07
6.1554e-07
6.14821e-07
6.14091e-07
6.13355e-07
6.12615e-07
6.11873e-07
6.11133e-07
6.10396e-07
6.09667e-07
6.08948e-07
6.08242e-07
6.07552e-07
6.06881e-07
6.06234e-07
6.05614e-07
6.05024e-07
6.04468e-07
6.03951e-07
6.03477e-07
6.0305e-07
6.02675e-07
6.02357e-07
6.02102e-07
6.01915e-07
6.01801e-07
6.01769e-07
6.01824e-07
6.01974e-07
6.02226e-07
6.02591e-07
6.03076e-07
6.03692e-07
6.0445e-07
6.05362e-07
6.0644e-07
6.077e-07
6.09158e-07
6.10834e-07
6.12753e-07
6.24756e-07
6.2471e-07
6.24616e-07
6.24475e-07
6.24286e-07
6.24049e-07
6.23767e-07
6.23439e-07
6.23068e-07
6.22655e-07
6.22202e-07
6.21711e-07
6.21184e-07
6.20622e-07
6.20028e-07
6.19403e-07
6.18751e-07
6.18073e-07
6.17372e-07
6.1665e-07
6.15909e-07
6.15152e-07
6.14381e-07
6.13599e-07
6.12809e-07
6.12012e-07
6.11212e-07
6.10412e-07
6.09613e-07
6.08819e-07
6.08033e-07
6.07257e-07
6.06494e-07
6.05748e-07
6.05021e-07
6.04317e-07
6.0364e-07
6.02993e-07
6.0238e-07
6.01804e-07
6.01269e-07
6.00781e-07
6.00342e-07
5.99959e-07
5.99635e-07
5.99376e-07
5.99188e-07
5.99076e-07
5.99047e-07
5.99107e-07
5.99263e-07
5.99523e-07
5.99895e-07
6.00389e-07
6.01012e-07
6.01778e-07
6.02697e-07
6.03788e-07
6.05067e-07
6.06574e-07
6.25335e-07
6.25283e-07
6.25181e-07
6.25025e-07
6.24818e-07
6.24558e-07
6.24247e-07
6.23888e-07
6.23481e-07
6.23029e-07
6.22533e-07
6.21996e-07
6.2142e-07
6.20806e-07
6.20158e-07
6.19478e-07
6.18767e-07
6.18029e-07
6.17265e-07
6.16479e-07
6.15672e-07
6.14848e-07
6.14008e-07
6.13155e-07
6.12292e-07
6.11421e-07
6.10544e-07
6.09665e-07
6.08784e-07
6.07906e-07
6.07033e-07
6.06166e-07
6.0531e-07
6.04464e-07
6.03635e-07
6.02824e-07
6.02035e-07
6.01269e-07
6.00532e-07
5.99825e-07
5.99152e-07
5.98518e-07
5.97925e-07
5.97378e-07
5.96879e-07
5.96434e-07
5.96047e-07
5.95721e-07
5.95462e-07
5.95275e-07
5.95165e-07
5.95137e-07
5.95197e-07
5.95352e-07
5.95607e-07
5.95973e-07
5.96456e-07
5.97076e-07
5.97848e-07
5.98827e-07
6.26294e-07
6.26236e-07
6.2612e-07
6.25945e-07
6.25711e-07
6.25419e-07
6.2507e-07
6.24667e-07
6.24211e-07
6.23705e-07
6.23152e-07
6.22553e-07
6.21912e-07
6.2123e-07
6.20511e-07
6.19757e-07
6.18971e-07
6.18155e-07
6.17312e-07
6.16444e-07
6.15554e-07
6.14645e-07
6.13718e-07
6.12776e-07
6.11821e-07
6.10856e-07
6.09883e-07
6.08905e-07
6.07923e-07
6.0694e-07
6.05958e-07
6.0498e-07
6.04009e-07
6.03048e-07
6.02098e-07
6.01161e-07
6.00239e-07
5.99335e-07
5.98449e-07
5.97588e-07
5.96752e-07
5.95945e-07
5.95169e-07
5.94428e-07
5.93724e-07
5.9306e-07
5.92438e-07
5.91863e-07
5.91337e-07
5.90862e-07
5.90441e-07
5.9008e-07
5.89777e-07
5.89541e-07
5.89371e-07
5.89276e-07
5.89258e-07
5.89338e-07
5.8953e-07
5.89904e-07
6.27682e-07
6.27616e-07
6.27482e-07
6.2728e-07
6.27011e-07
6.26675e-07
6.26274e-07
6.25812e-07
6.25291e-07
6.24714e-07
6.24085e-07
6.23406e-07
6.2268e-07
6.21912e-07
6.21103e-07
6.20257e-07
6.19376e-07
6.18464e-07
6.17523e-07
6.16555e-07
6.15564e-07
6.14551e-07
6.1352e-07
6.12471e-07
6.11408e-07
6.10333e-07
6.09247e-07
6.08153e-07
6.07053e-07
6.0595e-07
6.04844e-07
6.03738e-07
6.02635e-07
6.01536e-07
6.00442e-07
5.99357e-07
5.98281e-07
5.97217e-07
5.96169e-07
5.95137e-07
5.94121e-07
5.93124e-07
5.92145e-07
5.91188e-07
5.90255e-07
5.89348e-07
5.88469e-07
5.87619e-07
5.86798e-07
5.86009e-07
5.85251e-07
5.84527e-07
5.83833e-07
5.83175e-07
5.82548e-07
5.8196e-07
5.81408e-07
5.80915e-07
5.80492e-07
5.80226e-07
6.29566e-07
6.29487e-07
6.29329e-07
6.2909e-07
6.28772e-07
6.28377e-07
6.27907e-07
6.27366e-07
6.26759e-07
6.26089e-07
6.25362e-07
6.2458e-07
6.23748e-07
6.2287e-07
6.2195e-07
6.2099e-07
6.19994e-07
6.18966e-07
6.17907e-07
6.16821e-07
6.1571e-07
6.14576e-07
6.13423e-07
6.12251e-07
6.11063e-07
6.09861e-07
6.08647e-07
6.07423e-07
6.0619e-07
6.04951e-07
6.03706e-07
6.02458e-07
6.01208e-07
5.99957e-07
5.98708e-07
5.97461e-07
5.96218e-07
5.94981e-07
5.93751e-07
5.92529e-07
5.91315e-07
5.90112e-07
5.88921e-07
5.87741e-07
5.8657e-07
5.85408e-07
5.84258e-07
5.83122e-07
5.81996e-07
5.80883e-07
5.79777e-07
5.7868e-07
5.77585e-07
5.76498e-07
5.75408e-07
5.74324e-07
5.73235e-07
5.72168e-07
5.71131e-07
5.70225e-07
6.32035e-07
6.3194e-07
6.31747e-07
6.31457e-07
6.31071e-07
6.30593e-07
6.30028e-07
6.29382e-07
6.28661e-07
6.27871e-07
6.27017e-07
6.26105e-07
6.25141e-07
6.24128e-07
6.2307e-07
6.21973e-07
6.2084e-07
6.19673e-07
6.18475e-07
6.17251e-07
6.16001e-07
6.14728e-07
6.13435e-07
6.12124e-07
6.10795e-07
6.09451e-07
6.08094e-07
6.06725e-07
6.05345e-07
6.03956e-07
6.02558e-07
6.01154e-07
5.99744e-07
5.9833e-07
5.96912e-07
5.95492e-07
5.9407e-07
5.92647e-07
5.91223e-07
5.898e-07
5.88377e-07
5.86955e-07
5.85533e-07
5.84113e-07
5.82694e-07
5.81279e-07
5.79862e-07
5.78446e-07
5.77022e-07
5.75589e-07
5.74141e-07
5.7268e-07
5.71196e-07
5.69694e-07
5.68158e-07
5.66598e-07
5.64996e-07
5.63384e-07
5.61765e-07
5.60256e-07
6.35219e-07
6.35096e-07
6.34851e-07
6.34483e-07
6.33997e-07
6.33399e-07
6.32699e-07
6.31906e-07
6.31031e-07
6.30082e-07
6.29068e-07
6.27994e-07
6.26867e-07
6.25693e-07
6.24474e-07
6.23216e-07
6.21923e-07
6.20597e-07
6.19243e-07
6.17863e-07
6.16458e-07
6.15032e-07
6.13585e-07
6.1212e-07
6.10638e-07
6.09141e-07
6.07629e-07
6.06104e-07
6.04566e-07
6.03017e-07
6.01458e-07
5.99889e-07
5.98311e-07
5.96724e-07
5.9513e-07
5.93529e-07
5.91922e-07
5.90308e-07
5.88688e-07
5.87062e-07
5.8543e-07
5.83794e-07
5.82151e-07
5.80503e-07
5.78848e-07
5.77184e-07
5.75505e-07
5.73807e-07
5.72087e-07
5.70345e-07
5.6857e-07
5.66767e-07
5.64924e-07
5.63046e-07
5.6111e-07
5.59124e-07
5.57064e-07
5.5496e-07
5.52811e-07
5.50742e-07
6.39326e-07
6.39158e-07
6.38823e-07
6.38325e-07
6.37674e-07
6.36886e-07
6.35978e-07
6.34969e-07
6.33875e-07
6.32707e-07
6.31475e-07
6.30187e-07
6.2885e-07
6.2747e-07
6.26051e-07
6.24597e-07
6.23114e-07
6.21604e-07
6.2007e-07
6.18513e-07
6.16937e-07
6.15341e-07
6.13728e-07
6.12098e-07
6.10452e-07
6.08791e-07
6.07116e-07
6.05427e-07
6.03724e-07
6.02009e-07
6.00281e-07
5.98541e-07
5.96789e-07
5.95025e-07
5.93249e-07
5.91463e-07
5.89664e-07
5.87855e-07
5.86034e-07
5.84201e-07
5.82355e-07
5.80496e-07
5.78622e-07
5.76733e-07
5.74824e-07
5.72895e-07
5.70942e-07
5.68967e-07
5.66966e-07
5.64941e-07
5.62886e-07
5.60798e-07
5.58663e-07
5.5648e-07
5.54216e-07
5.5188e-07
5.49442e-07
5.46935e-07
5.44354e-07
5.41834e-07
6.44644e-07
6.44427e-07
6.43987e-07
6.43328e-07
6.42466e-07
6.41429e-07
6.40249e-07
6.38959e-07
6.37581e-07
6.36133e-07
6.34627e-07
6.33073e-07
6.31477e-07
6.29846e-07
6.28186e-07
6.26501e-07
6.24795e-07
6.23071e-07
6.2133e-07
6.19574e-07
6.17803e-07
6.16018e-07
6.1422e-07
6.12408e-07
6.10583e-07
6.08744e-07
6.06892e-07
6.05027e-07
6.03148e-07
6.01256e-07
5.9935e-07
5.9743e-07
5.95495e-07
5.93547e-07
5.91584e-07
5.89606e-07
5.87614e-07
5.85607e-07
5.83585e-07
5.81547e-07
5.79494e-07
5.77424e-07
5.75337e-07
5.73232e-07
5.7111e-07
5.68968e-07
5.66806e-07
5.64621e-07
5.62409e-07
5.60165e-07
5.5788e-07
5.55546e-07
5.53148e-07
5.50677e-07
5.48125e-07
5.45489e-07
5.42752e-07
5.39931e-07
5.37022e-07
5.34118e-07
6.51157e-07
6.50719e-07
6.49922e-07
6.48818e-07
6.47473e-07
6.45959e-07
6.44335e-07
6.42637e-07
6.40889e-07
6.39099e-07
6.37276e-07
6.35424e-07
6.3355e-07
6.31659e-07
6.29757e-07
6.27846e-07
6.25929e-07
6.24004e-07
6.22073e-07
6.20133e-07
6.18185e-07
6.16228e-07
6.1426e-07
6.12282e-07
6.10292e-07
6.08289e-07
6.06273e-07
6.04243e-07
6.02197e-07
6.00136e-07
5.98058e-07
5.95963e-07
5.9385e-07
5.91719e-07
5.8957e-07
5.87401e-07
5.85214e-07
5.83006e-07
5.80779e-07
5.7853e-07
5.76262e-07
5.7397e-07
5.71659e-07
5.69321e-07
5.66964e-07
5.64576e-07
5.62167e-07
5.59721e-07
5.57255e-07
5.54744e-07
5.52213e-07
5.49631e-07
5.47033e-07
5.44375e-07
5.41707e-07
5.38968e-07
5.36222e-07
5.33374e-07
5.30522e-07
5.27581e-07
6.62773e-07
6.62017e-07
6.60592e-07
6.58623e-07
6.56315e-07
6.53867e-07
6.51402e-07
6.48973e-07
6.46581e-07
6.44215e-07
6.41865e-07
6.3953e-07
6.37217e-07
6.3493e-07
6.3267e-07
6.30437e-07
6.28226e-07
6.26032e-07
6.2385e-07
6.21676e-07
6.19507e-07
6.1734e-07
6.15172e-07
6.13001e-07
6.10823e-07
6.08637e-07
6.0644e-07
6.04231e-07
6.02007e-07
5.99767e-07
5.97511e-07
5.95235e-07
5.9294e-07
5.90625e-07
5.88289e-07
5.8593e-07
5.83551e-07
5.81147e-07
5.78723e-07
5.76272e-07
5.73802e-07
5.71303e-07
5.68789e-07
5.6624e-07
5.63683e-07
5.61085e-07
5.58487e-07
5.5584e-07
5.53209e-07
5.50515e-07
5.47861e-07
5.45125e-07
5.42468e-07
5.39696e-07
5.37067e-07
5.34272e-07
5.31721e-07
5.28906e-07
5.2647e-07
5.23545e-07
6.71398e-07
6.69665e-07
6.67009e-07
6.63865e-07
6.60625e-07
6.57499e-07
6.54539e-07
6.51708e-07
6.48957e-07
6.46255e-07
6.43595e-07
6.40985e-07
6.38431e-07
6.35932e-07
6.33482e-07
6.31073e-07
6.28695e-07
6.2634e-07
6.24002e-07
6.21678e-07
6.19361e-07
6.17048e-07
6.14735e-07
6.12418e-07
6.10095e-07
6.07762e-07
6.05416e-07
6.03055e-07
6.00677e-07
5.98279e-07
5.95862e-07
5.93422e-07
5.9096e-07
5.88473e-07
5.85963e-07
5.83425e-07
5.80864e-07
5.78275e-07
5.75663e-07
5.73021e-07
5.70359e-07
5.67663e-07
5.64953e-07
5.62205e-07
5.5945e-07
5.56646e-07
5.53851e-07
5.5099e-07
5.48165e-07
5.45243e-07
5.4241e-07
5.39432e-07
5.36645e-07
5.33628e-07
5.31021e-07
5.28028e-07
5.25932e-07
5.23045e-07
5.22067e-07
5.18865e-07
7.19396e-07
7.05266e-07
6.91485e-07
6.80886e-07
6.73435e-07
6.68009e-07
6.63516e-07
6.59389e-07
6.55459e-07
6.51734e-07
6.48251e-07
6.45015e-07
6.41993e-07
6.39133e-07
6.36392e-07
6.33734e-07
6.31139e-07
6.28594e-07
6.26088e-07
6.23612e-07
6.21157e-07
6.18717e-07
6.16283e-07
6.1385e-07
6.11414e-07
6.0897e-07
6.06515e-07
6.04045e-07
6.01558e-07
5.99051e-07
5.96524e-07
5.93974e-07
5.914e-07
5.888e-07
5.86176e-07
5.83525e-07
5.80848e-07
5.78145e-07
5.75415e-07
5.7266e-07
5.6988e-07
5.67074e-07
5.64243e-07
5.61388e-07
5.5851e-07
5.55606e-07
5.52679e-07
5.49724e-07
5.46748e-07
5.43733e-07
5.40705e-07
5.37607e-07
5.34531e-07
5.3129e-07
5.2821e-07
5.24617e-07
5.21827e-07
5.16935e-07
5.16179e-07
5.05139e-07
5.49875e-07
5.49557e-07
5.45812e-07
5.40815e-07
5.35894e-07
5.3192e-07
5.29379e-07
5.28394e-07
5.2876e-07
5.30013e-07
5.31576e-07
5.3299e-07
5.33989e-07
5.34624e-07
5.35193e-07
5.59223e-07
5.56276e-07
5.5062e-07
5.45299e-07
5.41536e-07
5.39471e-07
5.38873e-07
5.39366e-07
5.40552e-07
5.41914e-07
5.43032e-07
5.4379e-07
5.44393e-07
5.45213e-07
5.46561e-07
5.48641e-07
5.51421e-07
5.54804e-07
5.58525e-07
5.62241e-07
5.65946e-07
5.6992e-07
5.74104e-07
5.77788e-07
5.79734e-07
5.78897e-07
5.71735e-07
5.50338e-07
5.2486e-07
3.70249e-07
5.59602e-07
5.56976e-07
5.53712e-07
5.50964e-07
5.49293e-07
5.48635e-07
5.48551e-07
5.48616e-07
5.48616e-07
5.48706e-07
5.49319e-07
5.50812e-07
5.53213e-07
5.56284e-07
5.59748e-07
5.6348e-07
5.67457e-07
5.71621e-07
5.76023e-07
5.80811e-07
5.86383e-07
5.92824e-07
5.99622e-07
6.06081e-07
6.1157e-07
6.15191e-07
6.13509e-07
6.0287e-07
5.78889e-07
4.59603e-07
5.62095e-07
5.60577e-07
5.59278e-07
5.58331e-07
5.57828e-07
5.57737e-07
5.57932e-07
5.58327e-07
5.58994e-07
5.60165e-07
5.62039e-07
5.64671e-07
5.67951e-07
5.71643e-07
5.75517e-07
5.79492e-07
5.83711e-07
5.88482e-07
5.94149e-07
6.00997e-07
6.08999e-07
6.17792e-07
6.26839e-07
6.36027e-07
6.45181e-07
6.53336e-07
6.57662e-07
6.55205e-07
6.36208e-07
5.47985e-07
5.67274e-07
5.66366e-07
5.66012e-07
5.66009e-07
5.66244e-07
5.66719e-07
5.67485e-07
5.68612e-07
5.70173e-07
5.72217e-07
5.74719e-07
5.77585e-07
5.80729e-07
5.84184e-07
5.88168e-07
5.93018e-07
5.98987e-07
6.06107e-07
6.14275e-07
6.23388e-07
6.33248e-07
6.43686e-07
6.54902e-07
6.67174e-07
6.8021e-07
6.92863e-07
7.02976e-07
7.07634e-07
6.96342e-07
6.34855e-07
5.73673e-07
5.73287e-07
5.73546e-07
5.74216e-07
5.75139e-07
5.76291e-07
5.77733e-07
5.79535e-07
5.81746e-07
5.84376e-07
5.87419e-07
5.90889e-07
5.94867e-07
5.99527e-07
6.05051e-07
6.11545e-07
6.19041e-07
6.27458e-07
6.36669e-07
6.46647e-07
6.57587e-07
6.69905e-07
6.83998e-07
6.99772e-07
7.16548e-07
7.33391e-07
7.4885e-07
7.6014e-07
7.57473e-07
7.179e-07
5.80907e-07
5.81011e-07
5.81799e-07
5.83034e-07
5.84551e-07
5.86309e-07
5.88348e-07
5.90738e-07
5.93537e-07
5.96792e-07
6.00549e-07
6.04875e-07
6.09853e-07
6.15568e-07
6.22079e-07
6.29406e-07
6.37544e-07
6.46562e-07
6.56683e-07
6.68272e-07
6.81681e-07
6.97058e-07
7.1431e-07
7.33077e-07
7.52969e-07
7.73718e-07
7.94295e-07
8.11873e-07
8.17999e-07
7.96352e-07
5.88484e-07
5.89089e-07
5.90363e-07
5.92093e-07
5.94129e-07
5.96431e-07
5.99038e-07
6.02018e-07
6.05442e-07
6.09373e-07
6.13872e-07
6.19e-07
6.24823e-07
6.31403e-07
6.38806e-07
6.47118e-07
6.56473e-07
6.67084e-07
6.79187e-07
6.92955e-07
7.08485e-07
7.25772e-07
7.44769e-07
7.65578e-07
7.88455e-07
8.13244e-07
8.38702e-07
8.62006e-07
8.76103e-07
8.68474e-07
5.9616e-07
5.97251e-07
5.98979e-07
6.01161e-07
6.03672e-07
6.06484e-07
6.09637e-07
6.13201e-07
6.17247e-07
6.2184e-07
6.27045e-07
6.32926e-07
6.39554e-07
6.47013e-07
6.554e-07
6.64835e-07
6.75461e-07
6.87434e-07
7.00907e-07
7.1601e-07
7.32856e-07
7.51609e-07
7.72604e-07
7.96212e-07
8.22571e-07
8.51201e-07
8.80812e-07
9.08989e-07
9.30109e-07
9.33345e-07
6.0352e-07
6.05078e-07
6.0722e-07
6.09805e-07
6.12742e-07
6.16018e-07
6.19677e-07
6.23786e-07
6.28412e-07
6.33623e-07
6.39484e-07
6.46068e-07
6.53457e-07
6.61743e-07
6.71034e-07
6.81452e-07
6.93136e-07
7.06237e-07
7.20927e-07
7.37403e-07
7.55915e-07
7.76753e-07
8.00191e-07
8.26363e-07
8.55217e-07
8.86387e-07
9.19138e-07
9.51489e-07
9.78536e-07
9.89621e-07
6.10191e-07
6.12178e-07
6.14687e-07
6.17625e-07
6.20937e-07
6.24629e-07
6.28744e-07
6.33345e-07
6.38497e-07
6.44265e-07
6.50721e-07
6.57943e-07
6.66018e-07
6.75047e-07
6.85143e-07
6.96436e-07
7.09075e-07
7.23228e-07
7.39094e-07
7.56893e-07
7.76868e-07
7.99263e-07
8.24308e-07
8.5216e-07
8.829e-07
9.16392e-07
9.5215e-07
9.88178e-07
1.02002e-06
1.03644e-06
6.15739e-07
6.18094e-07
6.20909e-07
6.24138e-07
6.27761e-07
6.31798e-07
6.36295e-07
6.41308e-07
6.469e-07
6.53135e-07
6.60089e-07
6.67842e-07
6.76489e-07
6.86135e-07
6.96898e-07
7.08914e-07
7.2234e-07
7.37353e-07
7.54157e-07
7.72974e-07
7.94051e-07
8.17642e-07
8.44017e-07
8.73407e-07
9.05979e-07
9.41593e-07
9.79673e-07
1.01817e-06
1.05317e-06
1.07297e-06
6.19747e-07
6.22388e-07
6.25436e-07
6.28884e-07
6.32742e-07
6.37041e-07
6.41829e-07
6.47156e-07
6.53083e-07
6.59675e-07
6.67008e-07
6.75167e-07
6.84249e-07
6.94363e-07
7.05633e-07
7.18198e-07
7.32218e-07
7.47877e-07
7.65383e-07
7.84964e-07
8.06877e-07
8.31391e-07
8.58787e-07
8.89294e-07
9.23069e-07
9.5996e-07
9.9943e-07
1.03949e-06
1.07657e-06
1.09851e-06
6.21867e-07
6.24678e-07
6.27865e-07
6.31449e-07
6.35455e-07
6.39921e-07
6.44891e-07
6.50415e-07
6.56551e-07
6.63365e-07
6.70935e-07
6.79348e-07
6.88702e-07
6.99108e-07
7.10692e-07
7.23596e-07
7.37982e-07
7.54036e-07
7.71968e-07
7.9201e-07
8.14423e-07
8.39475e-07
8.67448e-07
8.9857e-07
9.33003e-07
9.70603e-07
1.01084e-06
1.05172e-06
1.08981e-06
1.11267e-06
6.21828e-07
6.24695e-07
6.27922e-07
6.31548e-07
6.35604e-07
6.40127e-07
6.45158e-07
6.50746e-07
6.5695e-07
6.63839e-07
6.71489e-07
6.79988e-07
6.89434e-07
6.99939e-07
7.11628e-07
7.24644e-07
7.39151e-07
7.55333e-07
7.73401e-07
7.93586e-07
8.16146e-07
8.4135e-07
8.69474e-07
9.00742e-07
9.35309e-07
9.73013e-07
1.01331e-06
1.05417e-06
1.09223e-06
1.1149e-06
6.19507e-07
6.22294e-07
6.25457e-07
6.29031e-07
6.33039e-07
6.37507e-07
6.42473e-07
6.47988e-07
6.54114e-07
6.6092e-07
6.68485e-07
6.76894e-07
6.86245e-07
6.96646e-07
7.08221e-07
7.21113e-07
7.35484e-07
7.51515e-07
7.69414e-07
7.8941e-07
8.11754e-07
8.36708e-07
8.6454e-07
8.95464e-07
9.29618e-07
9.66819e-07
1.00648e-06
1.04654e-06
1.08353e-06
1.10495e-06
6.14947e-07
6.17523e-07
6.20521e-07
6.23951e-07
6.2781e-07
6.32111e-07
6.36886e-07
6.4219e-07
6.4809e-07
6.54659e-07
6.61975e-07
6.7012e-07
6.79189e-07
6.89284e-07
7.00529e-07
7.13063e-07
7.27042e-07
7.42646e-07
7.60075e-07
7.79551e-07
8.01319e-07
8.25627e-07
8.52729e-07
8.82814e-07
9.15996e-07
9.5207e-07
9.9041e-07
1.02889e-06
1.06378e-06
1.08291e-06
6.08359e-07
6.10606e-07
6.13342e-07
6.16537e-07
6.20151e-07
6.24177e-07
6.28643e-07
6.33607e-07
6.39144e-07
6.45331e-07
6.52244e-07
6.59961e-07
6.68571e-07
6.78172e-07
6.88883e-07
7.00836e-07
7.14185e-07
7.291e-07
7.45774e-07
7.64417e-07
7.85263e-07
8.08552e-07
8.34524e-07
8.63346e-07
8.95077e-07
9.29424e-07
9.65661e-07
1.00162e-06
1.03322e-06
1.04892e-06
6.00085e-07
6.01905e-07
6.04292e-07
6.07168e-07
6.10449e-07
6.14103e-07
6.18154e-07
6.22665e-07
6.27718e-07
6.33394e-07
6.39766e-07
6.46909e-07
6.54901e-07
6.63837e-07
6.73827e-07
6.84998e-07
6.97495e-07
7.1148e-07
7.27132e-07
7.44643e-07
7.64219e-07
7.86069e-07
8.10415e-07
8.37442e-07
8.67227e-07
8.99433e-07
9.33104e-07
9.65831e-07
9.92889e-07
1.0035e-06
5.90557e-07
5.91874e-07
5.93841e-07
5.96324e-07
5.99195e-07
6.02394e-07
6.05942e-07
6.09907e-07
6.14378e-07
6.19438e-07
6.25158e-07
6.31606e-07
6.38853e-07
6.46985e-07
6.56103e-07
6.66326e-07
6.77789e-07
6.90646e-07
7.05068e-07
7.21242e-07
7.39363e-07
7.59596e-07
7.82062e-07
8.06786e-07
8.33752e-07
8.62776e-07
8.93014e-07
9.2182e-07
9.43452e-07
9.47085e-07
5.80235e-07
5.81e-07
5.82488e-07
5.84516e-07
5.86909e-07
5.89586e-07
5.9256e-07
5.95905e-07
5.99715e-07
6.04075e-07
6.09052e-07
6.14706e-07
6.21101e-07
6.28312e-07
6.36431e-07
6.45563e-07
6.55824e-07
6.67338e-07
6.80244e-07
6.94714e-07
7.10977e-07
7.29287e-07
7.49794e-07
7.72379e-07
7.96707e-07
8.22249e-07
8.48047e-07
8.71561e-07
8.86237e-07
8.8033e-07
5.69584e-07
5.69769e-07
5.70737e-07
5.72259e-07
5.74123e-07
5.76229e-07
5.78583e-07
5.81263e-07
5.84366e-07
5.87975e-07
5.92156e-07
5.96958e-07
6.02435e-07
6.08652e-07
6.15693e-07
6.23664e-07
6.32684e-07
6.42871e-07
6.54327e-07
6.67108e-07
6.81239e-07
6.9684e-07
7.14266e-07
7.33794e-07
7.55173e-07
7.77399e-07
7.98718e-07
8.16257e-07
8.22628e-07
8.0436e-07
5.58995e-07