/*--------------------------------*- C++ -*----------------------------------*\
| =========                 |                                                 |
| \\      /  F ield         | OpenFOAM: The Open Source CFD Toolbox           |
|  \\    /   O peration     | Version:  2312                                  |
|   \\  /    A nd           | Website:  www.openfoam.com                      |
|    \\/     M anipulation  |                                                 |
\*---------------------------------------------------------------------------*/
FoamFile
{
    version     2.0;
    format      ascii;
    arch        "LSB;label=32;scalar=64";
    class       volVectorField;
    location    "49000";
    object      U;
}
// * * * * * * * * * * * * * * * * * * * * * * * * * * * * * * * * * * * * * //

dimensions      [0 1 -1 0 0 0 0];

internalField   nonuniform List<vector> 
2715
(
(0.000267512 2.90149e-05 9.56373e-25)
(0.000278474 -3.60228e-06 0)
(0.000243619 -2.68532e-06 0)
(0.000228153 -3.41582e-06 0)
(0.000220855 -3.45526e-06 -2.10288e-23)
(0.000225157 -4.29941e-06 2.05841e-23)
(0.000227609 -4.46848e-06 0)
(0.000240721 -5.35782e-06 5.01718e-25)
(0.000247737 -4.9512e-06 0)
(0.000266691 -5.54169e-06 0)
(0.000275197 -4.6038e-06 -1.2258e-25)
(0.000297029 -4.85507e-06 0)
(0.000304135 -3.31135e-06 -6.01896e-27)
(0.000325909 -3.18659e-06 0)
(0.00032884 -1.06724e-06 4.90671e-24)
(0.000348124 -4.69685e-07 -4.90719e-24)
(0.000345046 1.69322e-06 0)
(0.000360036 1.94839e-06 -1.51028e-25)
(0.000350133 3.78787e-06 0)
(0.000359787 3.41555e-06 0)
(0.000342865 5.94987e-06 0)
(0.000346528 4.12232e-06 0)
(0.000322625 7.61451e-06 1.10558e-24)
(0.000319825 4.45978e-06 0)
(0.000289857 7.63619e-06 -4.06597e-23)
(0.000280664 5.5618e-06 3.91157e-23)
(0.000247538 6.59284e-07 0)
(0.000224757 1.16295e-05 0)
(0.000227879 3.5649e-05 0)
(-8.63968e-05 -5.31506e-05 1.58189e-24)
(0.000530885 4.84916e-05 5.50933e-23)
(0.000582422 1.31744e-05 -5.82986e-23)
(0.000556452 1.59856e-05 1.52636e-24)
(0.000549477 8.52585e-06 0)
(0.000541934 3.10327e-06 0)
(0.0005549 -1.29024e-06 1.97243e-23)
(0.000557011 -2.59679e-06 -2.114e-24)
(0.000583974 -5.87425e-06 -1.77633e-23)
(0.000592252 -5.71309e-06 -4.21208e-25)
(0.000630362 -8.52479e-06 0)
(0.000641179 -7.00853e-06 -2.66997e-24)
(0.000686535 -9.61812e-06 3.04458e-24)
(0.000696138 -6.79836e-06 3.4269e-25)
(0.000744341 -9.37013e-06 3.3658e-25)
(0.000749039 -5.30223e-06 1.45543e-23)
(0.000795824 -8.01586e-06 -1.69295e-23)
(0.000792611 -2.72867e-06 -2.74187e-24)
(0.000834253 -6.24263e-06 4.60239e-24)
(0.000821683 1.00252e-06 -1.27562e-23)
(0.000855746 -3.52311e-06 1.35541e-23)
(0.000833465 5.53221e-06 0)
(0.000856165 1.28774e-07 -1.03606e-24)
(0.000826245 1.09006e-05 3.58315e-23)
(0.000830011 4.70058e-06 2.09295e-24)
(0.000801492 1.81042e-05 -3.72398e-23)
(0.000763634 7.26068e-06 0)
(0.000774312 3.55653e-05 0)
(0.000598529 -1.51772e-05 2.61701e-24)
(0.000830426 0.000113192 9.27483e-23)
(0.000205828 -3.71481e-05 -9.58257e-23)
(0.000707261 4.80431e-05 3.72533e-24)
(0.000757155 1.89914e-06 -4.91146e-23)
(0.000750101 2.8587e-06 4.97402e-23)
(0.000758115 -2.75626e-06 2.92993e-24)
(0.000758101 -7.59986e-06 0)
(0.000778796 -1.43616e-05 0)
(0.000783504 -1.62111e-05 -1.13646e-24)
(0.00081497 -2.16693e-05 0)
(0.000824952 -2.12369e-05 -6.52687e-24)
(0.000866784 -2.62973e-05 1.54315e-24)
(0.00088049 -2.32659e-05 7.56589e-24)
(0.000929376 -2.78297e-05 -2.95577e-24)
(0.000944065 -2.17864e-05 0)
(0.000995653 -2.60791e-05 0)
(0.00100845 -1.69112e-05 2.64988e-23)
(0.0010581 -2.17407e-05 -2.65172e-23)
(0.00106699 -9.37191e-06 -2.55127e-25)
(0.0011103 -1.54991e-05 0)
(0.00111516 6.03742e-07 1.3056e-23)
(0.0011468 -8.11875e-06 -2.78251e-23)
(0.00114987 1.21512e-05 -1.64114e-24)
(0.00116208 -1.38645e-06 1.5235e-23)
(0.00117064 2.70585e-05 0)
(0.00114807 2.48101e-06 -2.41271e-24)
(0.00118081 4.89089e-05 0)
(0.00108883 -2.32622e-06 0)
(0.00119391 8.98558e-05 5.27643e-24)
(0.000953628 -2.68171e-05 -8.7537e-23)
(0.00123551 0.00015735 8.65076e-23)
(0.000768031 -2.644e-05 6.11632e-24)
(0.000839908 3.47287e-05 5.22231e-23)
(0.000880756 -3.25959e-06 -1.07742e-22)
(0.000884074 -2.7766e-06 3.04411e-23)
(0.000896957 -7.09566e-06 2.152e-23)
(0.000902626 -1.13693e-05 0)
(0.00092427 -2.01563e-05 2.54219e-24)
(0.000935121 -2.27754e-05 -1.11885e-24)
(0.000964404 -3.08681e-05 0)
(0.000981017 -3.0357e-05 8.64283e-25)
(0.00101685 -3.81276e-05 -4.5052e-24)
(0.00103883 -3.39491e-05 4.29013e-24)
(0.00107836 -4.14088e-05 0)
(0.00110431 -3.29359e-05 5.16853e-25)
(0.00114352 -4.0582e-05 2.5732e-25)
(0.00117188 -2.74056e-05 3.81661e-23)
(0.00120621 -3.63422e-05 -4.07808e-23)
(0.00123633 -1.79199e-05 -2.6202e-24)
(0.00126084 -2.98033e-05 4.70656e-24)
(0.00129389 -5.34838e-06 0)
(0.00130259 -2.29292e-05 -1.6025e-23)
(0.00134254 1.08605e-05 1.50582e-23)
(0.00132712 -1.63241e-05 2.18259e-24)
(0.00138201 3.25079e-05 0)
(0.0013283 -1.14048e-05 -2.50265e-24)
(0.00141365 6.23682e-05 0)
(0.00129936 -1.05099e-05 -5.41729e-24)
(0.00144124 0.000102096 -5.01653e-23)
(0.00123944 -1.16641e-05 -3.81017e-23)
(0.00146666 0.000134231 1.78155e-22)
(0.00116658 3.41404e-05 -9.6246e-23)
(0.000943975 2.06909e-05 0)
(0.000974003 -8.98576e-06 4.51202e-23)
(0.000982349 -1.34148e-05 -8.02056e-23)
(0.000994593 -1.92039e-05 2.18987e-23)
(0.00100497 -2.38508e-05 0)
(0.00102473 -3.37787e-05 -2.61539e-24)
(0.00104131 -3.60321e-05 2.35398e-24)
(0.00106562 -4.51689e-05 0)
(0.00108832 -4.39214e-05 1.66988e-24)
(0.0011164 -5.31177e-05 0)
(0.00114556 -4.77329e-05 4.32383e-25)
(0.00117491 -5.69223e-05 0)
(0.00120968 -4.6374e-05 0)
(0.0012367 -5.60968e-05 0)
(0.00127611 -3.97043e-05 5.29734e-23)
(0.00129673 -5.12949e-05 -5.29778e-23)
(0.0013405 -2.83777e-05 0)
(0.00135047 -4.39176e-05 0)
(0.00139969 -1.32346e-05 0)
(0.00139452 -3.52215e-05 1.84106e-24)
(0.00145198 5.91423e-06 0)
(0.00142612 -2.58018e-05 4.50668e-24)
(0.00149635 2.92781e-05 0)
(0.00144279 -1.62179e-05 5.12843e-24)
(0.00153202 5.80073e-05 0)
(0.00144326 -5.61438e-06 5.57152e-24)
(0.00155816 8.84311e-05 -5.15555e-23)
(0.00142967 1.19274e-05 1.31359e-22)
(0.0015739 0.000101052 -1.01926e-22)
(0.00140016 5.98709e-05 0)
(0.00102534 5.84155e-06 4.93571e-23)
(0.00104641 -1.55298e-05 -1.10132e-22)
(0.00105774 -2.35738e-05 7.84257e-23)
(0.00106899 -2.99733e-05 -2.22165e-23)
(0.0010817 -3.36799e-05 -2.19252e-23)
(0.00109879 -4.37958e-05 1.95276e-23)
(0.00111786 -4.69586e-05 1.75406e-23)
(0.00113878 -5.69599e-05 -3.2588e-23)
(0.00116363 -5.64928e-05 1.32912e-23)
(0.00118755 -6.61075e-05 0)
(0.00121832 -6.12361e-05 -4.45762e-25)
(0.00124328 -7.04529e-05 1.74106e-25)
(0.00127905 -6.01761e-05 7.72151e-25)
(0.00130211 -6.94688e-05 1.47532e-25)
(0.00134175 -5.32237e-05 6.80149e-23)
(0.00135975 -6.38232e-05 -7.09554e-23)
(0.00140256 -4.12597e-05 -3.09031e-24)
(0.00141258 -5.49489e-05 5.08931e-24)
(0.0014586 -2.53829e-05 1.65486e-24)
(0.00145822 -4.39884e-05 -1.89802e-24)
(0.00150813 -6.26664e-06 0)
(0.00149511 -3.14318e-05 -4.31494e-23)
(0.00154979 1.58825e-05 7.94516e-23)
(0.00152241 -1.63877e-05 -4.08888e-23)
(0.00158219 4.04497e-05 -5.07426e-23)
(0.00153932 3.48943e-06 4.48112e-23)
(0.00160342 6.26404e-05 5.3135e-23)
(0.00154559 3.29764e-05 -1.54785e-22)
(0.00161445 7.38162e-05 2.01792e-22)
(0.00153868 7.57911e-05 -1.06452e-22)
(0.00108709 -8.56854e-06 -4.98143e-23)
(0.00110201 -2.29762e-05 1.11606e-23)
(0.00111445 -3.31483e-05 5.46137e-23)
(0.00112534 -4.08219e-05 -6.22134e-24)
(0.00113869 -4.54343e-05 2.23063e-23)
(0.00115428 -5.50464e-05 -1.45184e-23)
(0.00117347 -5.95894e-05 0)
(0.00119306 -6.90229e-05 0)
(0.00121709 -7.02266e-05 0)
(0.0012399 -7.85706e-05 1.24278e-24)
(0.00126851 -7.56241e-05 3.96137e-25)
(0.00129313 -8.2821e-05 -1.79695e-25)
(0.00132514 -7.48882e-05 0)
(0.00134933 -8.12256e-05 -1.94702e-25)
(0.00138327 -6.80032e-05 8.7176e-23)
(0.00140469 -7.44226e-05 -8.71826e-23)
(0.00143939 -5.6063e-05 6.03021e-25)
(0.00145614 -6.37956e-05 0)
(0.00149099 -4.04851e-05 -1.70798e-24)
(0.00150178 -5.0416e-05 1.98135e-24)
(0.00153657 -2.23365e-05 4.36202e-24)
(0.00154051 -3.4326e-05 0)
(0.00157508 -2.09918e-06 0)
(0.00157151 -1.4268e-05 0)
(0.00160544 1.90206e-05 6.39503e-23)
(0.00159335 1.14155e-05 -4.6403e-23)
(0.00162676 3.87187e-05 0)
(0.00160445 4.43931e-05 -8.76521e-23)
(0.00163971 5.60251e-05 -1.43802e-24)
(0.00160503 7.94794e-05 1.11443e-22)
(0.00113115 -2.18371e-05 0)
(0.00114242 -3.16616e-05 -7.13118e-24)
(0.00115487 -4.25793e-05 2.61314e-23)
(0.00116591 -5.1206e-05 -2.0036e-23)
(0.00117935 -5.74929e-05 0)
(0.00119412 -6.60356e-05 -5.48941e-24)
(0.00121267 -7.2331e-05 0)
(0.0012316 -8.03804e-05 0)
(0.00125424 -8.39596e-05 0)
(0.00127655 -9.00939e-05 2.7766e-24)
(0.00130266 -9.0052e-05 -6.58168e-24)
(0.00132735 -9.40497e-05 1.98336e-24)
(0.00135555 -8.97871e-05 3.33642e-27)
(0.00138091 -9.17061e-05 2.01205e-25)
(0.00140951 -8.32294e-05 1.08351e-22)
(0.00143378 -8.36939e-05 -1.08468e-22)
(0.00146132 -7.16526e-05 -6.2316e-25)
(0.00148326 -7.13813e-05 6.68157e-24)
(0.00150884 -5.67104e-05 -2.38648e-23)
(0.00152779 -5.5842e-05 3.05903e-23)
(0.00155091 -3.96036e-05 -2.17084e-23)
(0.00156655 -3.70964e-05 0)
(0.00158679 -2.08063e-05 0)
(0.00159876 -1.42878e-05 0)
(0.00161563 -8.46245e-07 -1.17763e-23)
(0.00162322 1.33562e-05 0)
(0.00163635 2.0257e-05 5.15183e-23)
(0.00163901 4.52372e-05 -5.09001e-23)
(0.00164806 4.38899e-05 -1.31896e-23)
(0.00164796 7.82019e-05 0)
(0.00115909 -3.38947e-05 7.61665e-24)
(0.00116868 -4.14714e-05 5.67971e-23)
(0.0011808 -5.23523e-05 -3.06797e-23)
(0.00119203 -6.12597e-05 -2.00778e-24)
(0.00120555 -6.95481e-05 -2.54567e-23)
(0.00121984 -7.69967e-05 0)
(0.00123784 -8.5093e-05 1.81593e-23)
(0.00125613 -9.14956e-05 -3.25857e-24)
(0.00127784 -9.75414e-05 -1.3538e-23)
(0.00129934 -0.000101253 -3.90862e-24)
(0.00132397 -0.000104252 3.93233e-24)
(0.00134784 -0.000104828 1.15712e-25)
(0.00137399 -0.000104405 -2.01957e-25)
(0.0013988 -0.000101732 2.48002e-25)
(0.00142473 -9.81558e-05 1.3202e-22)
(0.00144906 -9.26443e-05 -1.31988e-22)
(0.00147327 -8.68956e-05 -6.77906e-25)
(0.00149622 -7.90115e-05 1.63848e-24)
(0.0015178 -7.23885e-05 1.86337e-24)
(0.001539 -6.20455e-05 -1.80479e-23)
(0.0015575 -5.58023e-05 1.79388e-23)
(0.00157682 -4.20213e-05 4.82229e-23)
(0.00159193 -3.73679e-05 3.3208e-24)
(0.00160908 -1.85312e-05 -4.5579e-23)
(0.00162038 -1.67087e-05 0)
(0.00163484 8.69829e-06 5.26316e-23)
(0.00164174 6.9985e-06 1.95177e-24)
(0.00165334 3.90408e-05 5.65338e-23)
(0.00165494 3.44259e-05 -1.08665e-22)
(0.00166529 7.20291e-05 1.3989e-23)
(0.00117247 -4.48754e-05 -6.88616e-23)
(0.00118185 -5.19407e-05 6.94216e-23)
(0.00119359 -6.27459e-05 -2.04541e-23)
(0.00120511 -7.14019e-05 4.70587e-23)
(0.00121876 -8.14277e-05 -2.61341e-23)
(0.00123301 -8.81198e-05 -1.56256e-23)
(0.00125059 -9.76953e-05 1.65338e-23)
(0.00126851 -0.000102708 0)
(0.00128963 -0.000110722 -3.35665e-24)
(0.00131043 -0.000112466 1.15483e-24)
(0.00133428 -0.000117886 0)
(0.00135709 -0.000115699 3.50697e-25)
(0.00138241 -0.000118293 -4.0017e-25)
(0.00140586 -0.000111979 2.28349e-26)
(0.00143103 -0.000112192 1.59542e-22)
(0.0014538 -0.000102086 -1.59475e-22)
(0.00147746 -0.000101048 -2.04031e-26)
(0.00149877 -8.7624e-05 -7.35565e-24)
(0.00152016 -8.66711e-05 7.35884e-24)
(0.00153978 -6.99919e-05 0)
(0.00155857 -7.017e-05 4.96146e-24)
(0.00157652 -4.96771e-05 -1.07779e-23)
(0.00159248 -5.15811e-05 0)
(0.00160866 -2.63684e-05 -6.30494e-23)
(0.00162127 -3.02262e-05 6.31547e-23)
(0.00163541 3.19526e-07 5.50317e-23)
(0.00164382 -5.56455e-06 -1.24909e-22)
(0.00165581 3.04128e-05 5.58402e-23)
(0.00165927 2.24097e-05 -1.02637e-22)
(0.00167012 6.4958e-05 8.61211e-23)
(0.00117346 -5.5097e-05 -6.27984e-23)
(0.00118355 -6.27606e-05 1.16068e-22)
(0.00119506 -7.37183e-05 -7.56876e-23)
(0.00120715 -8.20108e-05 4.03915e-23)
(0.00122088 -9.31507e-05 -2.68685e-23)
(0.00123566 -9.95576e-05 -5.83988e-24)
(0.0012529 -0.00011009 2.37356e-23)
(0.00127104 -0.000114305 -1.87867e-23)
(0.00129166 -0.000123481 1.70347e-24)
(0.00131244 -0.000124095 -1.19676e-24)
(0.0013357 -0.00013091 0)
(0.00135813 -0.000127102 -5.62061e-25)
(0.00138293 -0.000131379 -9.59943e-25)
(0.00140557 -0.000122948 1.82158e-24)
(0.0014305 -0.000125219 1.91836e-22)
(0.00145197 -0.000112547 -1.91611e-22)
(0.00147592 -0.000113974 6.64817e-24)
(0.00149538 -9.76747e-05 -6.4429e-25)
(0.00151784 -9.95098e-05 -7.76958e-24)
(0.00153508 -7.98851e-05 0)
(0.00155595 -8.29472e-05 -5.14156e-24)
(0.00157105 -5.97527e-05 5.60169e-24)
(0.0015902 -6.42888e-05 5.00592e-23)
(0.0016032 -3.68978e-05 -3.67835e-23)
(0.00162011 -4.28702e-05 -1.34329e-23)
(0.00163086 -1.06488e-05 5.75985e-23)
(0.00164457 -1.81808e-05 -2.77808e-23)
(0.00165305 1.9584e-05 1.06297e-22)
(0.00166269 1.00073e-05 -2.42961e-22)
(0.00166991 5.50042e-05 1.21199e-22)
(0.00116533 -6.53141e-05 -4.81664e-23)
(0.0011764 -7.38817e-05 1.18425e-23)
(0.00118798 -8.51695e-05 7.05114e-23)
(0.00120088 -9.33633e-05 -1.42785e-23)
(0.0012148 -0.000104992 0)
(0.00123054 -0.000111525 5.88022e-24)
(0.00124767 -0.000122482 5.0979e-24)
(0.00126664 -0.000126545 1.92969e-23)
(0.00128693 -0.000136105 -9.73717e-24)
(0.0013085 -0.000136425 -4.48098e-24)
(0.00133128 -0.000143639 -8.83272e-25)
(0.00135437 -0.00013932 1.548e-24)
(0.00137858 -0.000144006 -8.08145e-25)
(0.00140168 -0.000134883 -3.27922e-25)
(0.00142605 -0.000137621 2.28408e-22)
(0.00144768 -0.000124173 -2.28743e-22)
(0.00147133 -0.000126136 8.01796e-25)
(0.00149053 -0.000109112 -8.26026e-24)
(0.00151326 -0.000111524 -1.04816e-23)
(0.00152971 -9.13686e-05 1.8603e-23)
(0.00155179 -9.50022e-05 2.81605e-23)
(0.00156542 -7.15355e-05 2.64938e-23)
(0.00158713 -7.66173e-05 -3.58827e-23)
(0.00159771 -4.91159e-05 1.34589e-23)
(0.00161903 -5.56672e-05 1.41741e-23)
(0.00162598 -2.31443e-05 0)
(0.00164655 -3.14438e-05 -3.04951e-23)
(0.00164913 7.24747e-06 -1.12109e-22)
(0.0016689 -3.50139e-06 -4.30634e-24)
(0.00166697 4.3296e-05 1.44282e-22)
(0.001152 -7.63074e-05 3.25673e-23)
(0.00116398 -8.56209e-05 -7.63858e-23)
(0.001176 -9.72077e-05 -7.84157e-24)
(0.00118986 -0.00010565 7.37916e-24)
(0.00120429 -0.000117363 0)
(0.00122118 -0.000124313 -6.09996e-24)
(0.00123867 -0.000135304 -5.29096e-24)
(0.00125881 -0.000139698 -4.36695e-24)
(0.00127927 -0.00014911 5.31743e-24)
(0.00130214 -0.000149714 -6.46241e-24)
(0.00132484 -0.000156635 0)
(0.00134932 -0.000152542 -1.21377e-24)
(0.00137309 -0.000156775 1.09053e-24)
(0.00139766 -0.000147871 -4.04372e-25)
(0.00142121 -0.000150038 2.71077e-22)
(0.00144437 -0.000136902 -2.71088e-22)
(0.00146687 -0.000138214 8.88672e-25)
(0.0014877 -0.000121701 8.77215e-24)
(0.00150908 -0.000123426 -4.02445e-24)
(0.00152725 -0.000104044 0)
(0.00154803 -0.000107011 1.81729e-23)
(0.00156343 -8.45439e-05 -2.36395e-23)
(0.00158423 -8.90655e-05 -1.31663e-23)
(0.00159652 -6.26098e-05 -1.39684e-23)
(0.00161766 -6.88028e-05 -1.47035e-23)
(0.00162607 -3.70482e-05 0)
(0.00164752 -4.53135e-05 1.58994e-23)
(0.00165107 -6.75504e-06 -1.65873e-23)
(0.0016729 -1.79851e-05 1.20326e-22)
(0.00167129 2.9639e-05 -1.69958e-22)
(0.00113843 -8.87261e-05 -3.3702e-23)
(0.00115098 -9.84837e-05 1.45354e-22)
(0.00116365 -0.000110202 -5.91246e-23)
(0.00117843 -0.000119148 2.88225e-23)
(0.00119368 -0.000130771 -2.92362e-23)
(0.00121168 -0.000138325 6.10282e-24)
(0.00123002 -0.00014912 -5.1989e-24)
(0.0012514 -0.00015412 1.48111e-23)
(0.00127265 -0.000163083 -1.80016e-23)
(0.00129689 -0.000164258 -2.5736e-24)
(0.00132017 -0.000170494 2.67188e-24)
(0.00134608 -0.000166956 -1.20362e-24)
(0.00137002 -0.00017027 -1.38983e-24)
(0.00139609 -0.000161963 3.24088e-24)
(0.0014192 -0.000163031 3.20861e-22)
(0.00144403 -0.000150633 -3.20873e-22)
(0.00146537 -0.000150738 7.22381e-24)
(0.0014882 -0.000135201 1.22254e-24)
(0.00150769 -0.00013568 -3.51613e-23)
(0.00152836 -0.000117579 -2.25872e-24)
(0.0015466 -0.000119322 1.68645e-23)
(0.00156514 -9.84548e-05 4.0912e-23)
(0.00158297 -0.000101807 -5.34014e-23)
(0.00159907 -7.71975e-05 -1.47586e-23)
(0.00161716 -8.22561e-05 1.55416e-23)
(0.00162988 -5.24481e-05 5.01559e-23)
(0.00164864 -5.95402e-05 -6.54556e-23)
(0.00165658 -2.28737e-05 1.58739e-22)
(0.00167659 -3.27975e-05 -2.66694e-22)
(0.00167884 1.30609e-05 2.15338e-22)
(0.00112845 -0.000102851 -3.70497e-23)
(0.00114135 -0.000112897 -5.0772e-23)
(0.00115467 -0.000124586 1.01756e-22)
(0.0011703 -0.000134185 -3.26486e-23)
(0.00118648 -0.000145691 0)
(0.00120556 -0.000153976 -1.255e-23)
(0.00122501 -0.000164453 2.44487e-23)
(0.0012476 -0.000170173 -1.92635e-23)
(0.00127 -0.000178503 3.16746e-24)
(0.00129545 -0.000180338 2.10125e-24)
(0.00131974 -0.00018563 -2.11787e-24)
(0.00134673 -0.000182722 0)
(0.00137131 -0.000184828 0)
(0.00139826 -0.000177177 0)
(0.00142147 -0.000176863 3.79749e-22)
(0.00144708 -0.000165245 -3.79847e-22)
(0.00146783 -0.000163904 0)
(0.00149159 -0.000149369 -2.38216e-24)
(0.00150965 -0.000148434 0)
(0.00153182 -0.00013164 2.44426e-23)
(0.00154766 -0.000132066 -1.7946e-23)
(0.00156873 -0.00011286 1.35814e-23)
(0.00158308 -0.000115008 6.03702e-23)
(0.00160321 -9.24069e-05 -4.42963e-23)
(0.00161668 -9.63173e-05 -3.24682e-23)
(0.00163527 -6.87646e-05 1.68854e-23)
(0.00164832 -7.46645e-05 7.22936e-23)
(0.00166407 -4.02912e-05 -2.20286e-22)
(0.00167738 -4.89337e-05 1.84478e-22)
(0.00168909 -5.124e-06 -7.67852e-23)
(0.0011248 -0.000118864 -5.53432e-23)
(0.00113787 -0.000129231 1.4671e-22)
(0.00115158 -0.000140826 -8.07255e-23)
(0.00116789 -0.000151122 3.03961e-23)
(0.00118482 -0.00016253 -5.7991e-23)
(0.00120489 -0.000171583 1.69664e-23)
(0.00122527 -0.00018166 4.67905e-24)
(0.001249 -0.000188078 3.32355e-23)
(0.00127234 -0.000195607 -1.42185e-23)
(0.00129884 -0.000198052 6.53094e-25)
(0.00132389 -0.000202162 1.47753e-24)
(0.0013516 -0.000199823 -3.75772e-24)
(0.00137664 -0.000200444 -1.52492e-24)
(0.0014038 -0.000193395 5.01991e-24)
(0.00142713 -0.000191431 4.48831e-22)
(0.00145246 -0.000180547 -4.48841e-22)
(0.00147299 -0.000177549 7.23835e-24)
(0.00149616 -0.000163972 3.76068e-24)
(0.00151367 -0.000161507 -3.44742e-23)
(0.00153528 -0.000145968 2.36318e-23)
(0.00155012 -0.00014508 0)
(0.00157126 -0.000127491 5.98788e-23)
(0.00158391 -0.000128549 -1.22748e-22)
(0.0016055 -0.000107982 1.20364e-23)
(0.00161616 -0.000110907 2.99395e-23)
(0.00163852 -8.5829e-05 1.4249e-22)
(0.00164708 -9.05801e-05 -5.35282e-23)
(0.00166976 -5.90978e-05 1.37844e-22)
(0.00167618 -6.60961e-05 -3.1559e-22)
(0.00169868 -2.55717e-05 1.99085e-22)
(0.00112679 -0.000136467 0)
(0.00113995 -0.000147373 -1.91051e-23)
(0.00115376 -0.000158973 9.00178e-24)
(0.00117055 -0.000169944 3.11975e-23)
(0.00118791 -0.000181312 -3.17086e-23)
(0.00120882 -0.00019106 -2.99996e-23)
(0.00122974 -0.000200706 2.37745e-23)
(0.00125446 -0.000207666 0)
(0.00127817 -0.000214275 -1.36072e-24)
(0.00130555 -0.000217146 3.1823e-24)
(0.00133065 -0.000219879 3.28168e-25)
(0.00135892 -0.000217946 3.97812e-24)
(0.0013836 -0.000216835 -2.84988e-24)
(0.00141085 -0.000210296 -1.25735e-24)
(0.00143352 -0.000206409 5.31792e-22)
(0.00145835 -0.000196262 -5.31801e-22)
(0.00147817 -0.00019134 -1.06302e-25)
(0.00150026 -0.000178801 -1.15864e-23)
(0.00151727 -0.000174595 5.35639e-24)
(0.00153731 -0.000160413 -6.70388e-24)
(0.00155208 -0.000158134 -2.97214e-23)
(0.00157142 -0.000142201 4.47828e-23)
(0.00158444 -0.00014234 0)
(0.00160457 -0.000123689 -8.74911e-23)
(0.00161575 -0.000126159 5.16301e-23)
(0.00163788 -0.00010322 7.70038e-23)
(0.00164644 -0.000107748 -9.51607e-23)
(0.0016712 -7.86344e-05 2.00705e-23)
(0.00167612 -8.51828e-05 -4.14108e-23)
(0.00170395 -4.7407e-05 0)
(0.00112956 -0.00015528 -8.05439e-23)
(0.00114307 -0.000167043 1.38405e-22)
(0.00115712 -0.000178902 -9.60139e-23)
(0.00117436 -0.00019047 0)
(0.00119216 -0.000201867 -2.80384e-23)
(0.00121379 -0.000212098 2.21135e-23)
(0.00123511 -0.000221335 5.09929e-24)
(0.00126057 -0.000228536 1.24688e-23)
(0.00128436 -0.000234206 -1.30844e-23)
(0.0013124 -0.000237165 0)
(0.00133705 -0.00023847 -3.44288e-25)
(0.00136584 -0.000236645 -4.72348e-24)
(0.0013895 -0.000233719 -2.86603e-24)
(0.0014171 -0.000227512 3.64886e-24)
(0.00143826 -0.000221565 6.31682e-22)
(0.00146328 -0.000212157 -6.31688e-22)
(0.00148137 -0.000205083 1.66262e-23)
(0.00150339 -0.000193797 4.34973e-24)
(0.00151889 -0.000187506 -6.02064e-24)
(0.00153842 -0.000175093 7.03306e-24)
(0.00155241 -0.000170995 0)
(0.00157056 -0.000157244 6.73119e-23)
(0.00158401 -0.000156092 -6.62706e-23)
(0.00160222 -0.000139821 0)
(0.00161528 -0.000141784 -9.6534e-23)
(0.00163514 -0.000121128 7.64034e-23)
(0.00164664 -0.000126021 0)
(0.00166991 -9.88491e-05 1.31651e-22)
(0.00167739 -0.000106409 -3.94769e-22)
(0.00170622 -7.03256e-05 1.76466e-22)
(0.00112933 -0.000175479 -8.40431e-23)
(0.0011433 -0.000188231 1.06409e-22)
(0.00115787 -0.000200548 1.93351e-23)
(0.00117552 -0.000212529 3.27528e-23)
(0.00119398 -0.00022396 -3.33443e-23)
(0.00121614 -0.000234341 6.68608e-24)
(0.00123809 -0.000243216 -5.34883e-24)
(0.00126403 -0.000250278 0)
(0.00128819 -0.000255116 -2.23006e-24)
(0.00131662 -0.000257735 6.7832e-26)
(0.00134121 -0.000257786 5.06305e-24)
(0.00137041 -0.000255639 -7.54648e-24)
(0.00139339 -0.000251123 4.21537e-24)
(0.00142156 -0.00024488 1.68451e-24)
(0.00144133 -0.000237084 7.53442e-22)
(0.00146724 -0.000228185 -7.53539e-22)
(0.00148323 -0.000219044 -2.86926e-24)
(0.00150654 -0.000209011 1.38377e-23)
(0.00151941 -0.000200457 -5.05867e-23)
(0.00154049 -0.000190159 2.94764e-23)
(0.00155178 -0.000183693 -8.25734e-24)
(0.00157125 -0.000172904 -1.71434e-23)
(0.00158283 -0.000169525 0)
(0.00160126 -0.000156815 0)
(0.00161454 -0.000157156 1.97997e-23)
(0.00163253 -0.000140084 8.49996e-23)
(0.00164748 -0.000144558 -8.34906e-23)
(0.00166627 -0.000120207 4.44094e-23)
(0.00168043 -0.000129037 -1.43247e-22)
(0.00170279 -9.46373e-05 1.85471e-22)
(0.0011197 -0.000196565 -1.10769e-22)
(0.00113489 -0.000210247 6.82877e-23)
(0.00115102 -0.000223247 0)
(0.0011698 -0.000235642 0)
(0.00118988 -0.000247239 -2.83986e-23)
(0.00121304 -0.000257622 2.89094e-23)
(0.00123666 -0.00026629 1.62842e-23)
(0.00126341 -0.000272985 -1.94338e-23)
(0.00128914 -0.000277215 0)
(0.00131814 -0.000279158 -5.39158e-25)
(0.00134402 -0.000278262 6.91187e-24)
(0.00137355 -0.000275334 -9.0028e-24)
(0.0013973 -0.000269641 3.22577e-24)
(0.00142574 -0.00026279 0)
(0.00144546 -0.000253643 9.01998e-22)
(0.0014719 -0.000244604 -9.02087e-22)
(0.0014867 -0.00023389 0)
(0.00151124 -0.000224486 -7.21126e-24)
(0.00152146 -0.000214005 -2.46741e-23)
(0.00154488 -0.000205441 4.04968e-23)
(0.00155187 -0.000196542 1.75964e-23)
(0.00157495 -0.000188917 0)
(0.00158086 -0.000182553 5.99897e-23)
(0.00160367 -0.000174553 -7.81862e-23)
(0.0016112 -0.000171603 -8.59426e-23)
(0.0016327 -0.000160341 8.44226e-23)
(0.00164436 -0.000162047 0)
(0.0016627 -0.000143295 0)
(0.0016791 -0.000151457 -2.46464e-22)
(0.00169337 -0.000120671 1.44531e-22)
(0.00110602 -0.000221512 4.79147e-23)
(0.00112293 -0.000235759 2.2512e-23)
(0.00114128 -0.000249302 1.01634e-23)
(0.00116194 -0.000262022 -8.97863e-24)
(0.00118447 -0.000273759 7.58246e-24)
(0.0012094 -0.000283993 -1.56395e-23)
(0.00123557 -0.000292384 2.20029e-23)
(0.00126376 -0.000298463 8.2413e-25)
(0.00129197 -0.000302022 -9.14362e-25)
(0.00132179 -0.000302922 5.25755e-24)
(0.0013499 -0.000301073 -5.05005e-24)
(0.00137946 -0.000296847 -6.73786e-24)
(0.00140505 -0.000290104 -1.69886e-24)
(0.00143275 -0.000281943 8.79855e-24)
(0.00145376 -0.000271789 1.08537e-21)
(0.00147898 -0.000261679 -1.08535e-21)
(0.00149429 -0.000249997 1.53791e-23)
(0.00151768 -0.000240037 1.10486e-24)
(0.00152707 -0.000228452 -1.65038e-23)
(0.00155032 -0.000220282 -4.62723e-23)
(0.00155427 -0.000209843 7.62617e-23)
(0.00157937 -0.000204241 -5.8592e-23)
(0.00157891 -0.000195419 -2.28768e-25)
(0.00160715 -0.00019187 -8.74443e-23)
(0.00160421 -0.000184983 1.07947e-22)
(0.00163464 -0.000181131 2.26978e-23)
(0.00163247 -0.000177305 0)
(0.00166019 -0.000168336 2.41689e-23)
(0.00166302 -0.000170787 5.04828e-23)
(0.00167886 -0.000149476 1.03618e-22)
(0.00110102 -0.000251875 -2.51464e-23)
(0.00111908 -0.000266454 0)
(0.00113912 -0.000280326 2.85358e-23)
(0.00116141 -0.000293213 -3.06408e-23)
(0.00118599 -0.000304867 -1.53588e-23)
(0.0012126 -0.000314709 -2.61198e-23)
(0.0012409 -0.000322462 3.53814e-23)
(0.00127043 -0.000327577 -1.08422e-23)
(0.00130061 -0.000330028 1.6833e-25)
(0.00133105 -0.000329485 -6.6174e-24)
(0.00136083 -0.000326251 1.71844e-23)
(0.00138999 -0.000320291 -4.01788e-24)
(0.00141698 -0.000312176 -2.38416e-23)
(0.00144311 -0.000302219 1.0608e-23)
(0.00146546 -0.000290975 1.31634e-21)
(0.00148798 -0.000279173 -1.3163e-21)
(0.00150473 -0.000266811 1.7329e-23)
(0.00152453 -0.00025534 -2.67883e-23)
(0.00153534 -0.000243434 -3.04578e-23)
(0.00155459 -0.000234125 8.97617e-23)
(0.00155915 -0.00022356 -5.06044e-23)
(0.00158105 -0.000217804 2.11941e-23)
(0.00157856 -0.000208548 8.98377e-23)
(0.00160663 -0.00020693 -1.58532e-22)
(0.00159557 -0.000198042 6.76715e-23)
(0.00163185 -0.000199875 -4.77181e-23)
(0.0016107 -0.000190529 1.00848e-22)
(0.00165184 -0.000192748 -1.24098e-22)
(0.00162159 -0.000184655 0)
(0.00165247 -0.000179739 -5.41086e-23)
(0.00109736 -0.000286849 -2.60439e-23)
(0.00111704 -0.000301875 1.18498e-23)
(0.00113892 -0.000315996 -1.04471e-23)
(0.00116318 -0.000328897 0)
(0.00118979 -0.000340193 -1.75316e-23)
(0.00121833 -0.00034935 2.58624e-23)
(0.0012485 -0.000356024 -3.68966e-24)
(0.00127957 -0.00035979 1.35836e-24)
(0.00131123 -0.000360595 0)
(0.00134251 -0.000358239 0)
(0.00137324 -0.000353067 3.08224e-24)
(0.00140232 -0.000345104 1.05737e-23)
(0.00142984 -0.000335108 -7.90678e-24)
(0.00145485 -0.000323229 0)
(0.00147768 -0.000310505 1.61081e-21)
(0.00149793 -0.000296995 -1.61083e-21)
(0.00151566 -0.000283743 0)
(0.00153181 -0.00027065 -2.57917e-23)
(0.00154451 -0.00025847 2.01332e-23)
(0.00155823 -0.000247384 -1.08268e-23)
(0.00156556 -0.000237249 0)
(0.00157959 -0.000229616 0)
(0.00157977 -0.000221581 2.35635e-23)
(0.00159807 -0.000218458 -2.40792e-23)
(0.00158583 -0.000210759 -1.00333e-22)
(0.00161301 -0.000212886 1.23377e-22)
(0.00157746 -0.000202047 0)
(0.0016172 -0.00020995 -2.57755e-23)
(0.00154255 -0.000191996 2.63717e-23)
(0.00159087 -0.00020428 -5.38231e-23)
(0.00108791 -0.000325829 1.40414e-23)
(0.00111029 -0.000341529 -1.25256e-23)
(0.00113509 -0.000356017 1.10589e-23)
(0.00116235 -0.000368861 -3.09824e-23)
(0.00119185 -0.0003796 3.1728e-23)
(0.00122317 -0.000387767 1.22468e-23)
(0.00125579 -0.000392984 -1.25104e-23)
(0.00128908 -0.00039499 2.09632e-24)
(0.00132247 -0.000393697 0)
(0.00135521 -0.000389138 0)
(0.00138681 -0.000381573 0)
(0.00141648 -0.000371325 1.33909e-23)
(0.00144406 -0.00035901 -1.35038e-23)
(0.0014688 -0.000345106 0)
(0.00149116 -0.000330455 1.98561e-21)
(0.00151033 -0.000315359 -1.98538e-21)
(0.00152753 -0.000300706 0)
(0.00154153 -0.000286304 -2.37607e-23)
(0.00155403 -0.000273147 3.52852e-23)
(0.00156333 -0.000260524 0)
(0.00157079 -0.000249809 0)
(0.00157565 -0.000239922 0)
(0.00157608 -0.000232217 -2.60698e-23)
(0.00157708 -0.000225628 1.05108e-22)
(0.00156384 -0.000219609 -1.02891e-22)
(0.00156211 -0.00021665 -1.06913e-22)
(0.00151846 -0.000208377 1.04401e-22)
(0.00152044 -0.000211349 2.72835e-23)
(0.00141083 -0.000191506 -2.78747e-23)
(0.0014405 -0.000209356 2.97769e-23)
(0.00107722 -0.000374642 1.18584e-22)
(0.00110321 -0.000389966 -1.07248e-22)
(0.00113191 -0.000404039 0)
(0.00116306 -0.000416143 0)
(0.00119624 -0.00042565 -1.65672e-23)
(0.00123097 -0.000432111 1.5565e-23)
(0.00126659 -0.000435203 0)
(0.00130248 -0.000434766 -2.24432e-24)
(0.00133789 -0.000430764 0)
(0.00137223 -0.000423355 0)
(0.00140475 -0.000412832 7.37061e-24)
(0.00143499 -0.000399701 0)
(0.00146237 -0.000384547 -1.45787e-23)
(0.00148674 -0.000368086 1.97544e-23)
(0.00150787 -0.000350983 2.47929e-21)
(0.00152589 -0.000333862 -2.47918e-21)
(0.00154089 -0.000317192 2.64348e-23)
(0.00155275 -0.000301219 -3.32673e-23)
(0.00156166 -0.000286188 0)
(0.00156643 -0.000271938 -1.44892e-23)
(0.00156741 -0.000258947 0)
(0.00156181 -0.000246649 -1.44981e-23)
(0.00155087 -0.000236196 2.7908e-23)
(0.00152999 -0.000225665 0)
(0.00149975 -0.000217276 -1.12318e-22)
(0.00145663 -0.000207685 1.09625e-22)
(0.00139193 -0.000199797 0)
(0.0013246 -0.000191046 0)
(0.00119125 -0.000177088 2.24793e-22)
(0.00114062 -0.000181077 -1.90138e-22)
(0.00106729 -0.00043469 0)
(0.0010972 -0.000451341 0)
(0.00113011 -0.000465514 0)
(0.00116584 -0.000476552 0)
(0.00120363 -0.000484 0)
(0.00124258 -0.000487567 1.51087e-24)
(0.00128188 -0.000487147 0)
(0.00132083 -0.000482745 -2.60694e-23)
(0.00135867 -0.000474497 1.12684e-23)
(0.00139471 -0.000462697 5.73268e-23)
(0.00142819 -0.000447818 -7.88207e-23)
(0.00145859 -0.000430489 3.89364e-23)
(0.00148532 -0.000411424 -5.47235e-24)
(0.00150824 -0.000391354 0)
(0.00152698 -0.00037093 3.13027e-21)
(0.00154169 -0.000350687 -3.12796e-21)
(0.00155196 -0.000331028 0)
(0.00155776 -0.000312171 7.57337e-24)
(0.00155802 -0.000294142 6.46481e-23)
(0.00155189 -0.000276863 -1.1311e-22)
(0.00153722 -0.000260178 1.28641e-22)
(0.00151211 -0.000243934 6.36643e-23)
(0.00147395 -0.000227788 -1.57386e-22)
(0.00141996 -0.000211524 0)
(0.0013486 -0.000195985 0)
(0.00125497 -0.000180378 0)
(0.00113971 -0.000165519 0)
(0.000998435 -0.000147887 0)
(0.000830802 -0.000136303 0)
(0.000681291 -0.000120602 0)
(0.00105783 -0.000501648 1.17852e-23)
(0.00109578 -0.000514649 0)
(0.00113751 -0.000526576 0)
(0.00118084 -0.000535301 7.26051e-24)
(0.00122455 -0.000539825 -1.62372e-23)
(0.00126802 -0.000539874 3.19581e-23)
(0.00131074 -0.000535516 -2.48211e-23)
(0.00135207 -0.000526923 -1.01743e-23)
(0.00139126 -0.000514394 0)
(0.00142748 -0.000498349 -1.23151e-23)
(0.00145996 -0.000479386 0)
(0.00148804 -0.000458219 0)
(0.00151116 -0.000435573 0)
(0.00152898 -0.000412101 0)
(0.00154091 -0.000388173 4.02845e-21)
(0.00154655 -0.000364063 -4.03014e-21)
(0.00154478 -0.000339942 0)
(0.00153463 -0.000315804 0)
(0.00151428 -0.000291856 0)
(0.00148205 -0.000268355 0)
(0.0014357 -0.00024594 1.90115e-23)
(0.0013726 -0.000223477 1.77414e-23)
(0.00128919 -0.000199566 3.47228e-23)
(0.00118297 -0.000174317 -1.36243e-22)
(0.00105205 -0.00015075 2.63787e-22)
(0.000896263 -0.000127798 -1.16388e-24)
(0.000720304 -0.000102917 -1.53426e-22)
(0.00052727 -8.06818e-05 0)