/*--------------------------------*- C++ -*----------------------------------*\
| =========                 |                                                 |
| \\      /  F ield         | OpenFOAM: The Open Source CFD Toolbox           |
|  \\    /   O peration     | Version:  2312                                  |
|   \\  /    A nd           | Website:  www.openfoam.com                      |
|    \\/     M anipulation  |                                                 |
\*---------------------------------------------------------------------------*/
FoamFile
{
    version     2.0;
    format      ascii;
    arch        "LSB;label=32;scalar=64";
    class       volScalarField;
    location    "105000";
    object      p;
}
// * * * * * * * * * * * * * * * * * * * * * * * * * * * * * * * * * * * * * //

dimensions      [0 2 -2 0 0 0 0];

internalField   nonuniform List<scalar> 
2715
(
3.71525e-07
3.21204e-07
3.00411e-07
2.83008e-07
2.6556e-07
2.4802e-07
2.28409e-07
2.07521e-07
1.83096e-07
1.56892e-07
1.26349e-07
9.44753e-08
5.81595e-08
2.18338e-08
-1.83988e-08
-5.65823e-08
-9.80391e-08
-1.35148e-07
-1.7521e-07
-2.08702e-07
-2.45345e-07
-2.73563e-07
-3.05718e-07
-3.27526e-07
-3.55592e-07
-3.6891e-07
-3.97485e-07
-3.97814e-07
-4.3346e-07
-5.36132e-07
3.57706e-07
3.02869e-07
2.89049e-07
2.74217e-07
2.57443e-07
2.4031e-07
2.21008e-07
2.00274e-07
1.76041e-07
1.50195e-07
1.20279e-07
8.92543e-08
5.41011e-08
1.90832e-08
-1.96379e-08
-5.63745e-08
-9.6061e-08
-1.31705e-07
-1.69942e-07
-2.02481e-07
-2.37791e-07
-2.65367e-07
-2.97297e-07
-3.18477e-07
-3.47105e-07
-3.61057e-07
-3.86292e-07
-4.00198e-07
-4.06784e-07
-5.56021e-07
3.45567e-07
3.00426e-07
2.87635e-07
2.7329e-07
2.56029e-07
2.37927e-07
2.18107e-07
1.9703e-07
1.72749e-07
1.46773e-07
1.17093e-07
8.61613e-08
5.15702e-08
1.69001e-08
-2.0918e-08
-5.7067e-08
-9.57348e-08
-1.31026e-07
-1.6863e-07
-2.00804e-07
-2.35612e-07
-2.63092e-07
-2.93764e-07
-3.1669e-07
-3.42372e-07
-3.62595e-07
-3.81487e-07
-4.10042e-07
-3.91845e-07
-4.93659e-07
3.35438e-07
2.96378e-07
2.81523e-07
2.67701e-07
2.51125e-07
2.33623e-07
2.13996e-07
1.92754e-07
1.68527e-07
1.42394e-07
1.1304e-07
8.21235e-08
4.8288e-08
1.38195e-08
-2.27793e-08
-5.87164e-08
-9.58314e-08
-1.31042e-07
-1.66466e-07
-1.99176e-07
-2.31154e-07
-2.60842e-07
-2.88405e-07
-3.1482e-07
-3.3612e-07
-3.62589e-07
-3.71708e-07
-4.10033e-07
-3.86925e-07
-4.55086e-07
3.25665e-07
2.9382e-07
2.7809e-07
2.65405e-07
2.49396e-07
2.31109e-07
2.10966e-07
1.89159e-07
1.64892e-07
1.38348e-07
1.0924e-07
7.80512e-08
4.49065e-08
1.03446e-08
-2.50668e-08
-6.10349e-08
-9.65032e-08
-1.31865e-07
-1.65287e-07
-1.98745e-07
-2.28551e-07
-2.59696e-07
-2.84265e-07
-3.13559e-07
-3.30756e-07
-3.60778e-07
-3.66554e-07
-4.02151e-07
-3.92885e-07
-4.27915e-07
3.17112e-07
2.92122e-07
2.75572e-07
2.6243e-07
2.46688e-07
2.28302e-07
2.07974e-07
1.85679e-07
1.61287e-07
1.34309e-07
1.05317e-07
7.38128e-08
4.11852e-08
6.4937e-09
-2.79225e-08
-6.39041e-08
-9.7915e-08
-1.33367e-07
-1.65029e-07
-1.98855e-07
-2.26715e-07
-2.58503e-07
-2.81316e-07
-3.11352e-07
-3.27669e-07
-3.56746e-07
-3.65743e-07
-3.93084e-07
-3.98263e-07
-4.15684e-07
3.10119e-07
2.90642e-07
2.73994e-07
2.59999e-07
2.44372e-07
2.25915e-07
2.05337e-07
1.82473e-07
1.57771e-07
1.30317e-07
1.01247e-07
6.94446e-08
3.70825e-08
2.36374e-09
-3.13872e-08
-6.71351e-08
-1.00152e-07
-1.35223e-07
-1.65789e-07
-1.99133e-07
-2.26122e-07
-2.57256e-07
-2.79979e-07
-3.08689e-07
-3.26708e-07
-3.52429e-07
-3.66368e-07
-3.87265e-07
-3.99542e-07
-4.12703e-07
3.04918e-07
2.89266e-07
2.73124e-07
2.58168e-07
2.42298e-07
2.23688e-07
2.02789e-07
1.79368e-07
1.54189e-07
1.26277e-07
9.69298e-08
6.49178e-08
3.25528e-08
-2.02361e-09
-3.54628e-08
-7.06813e-08
-1.03189e-07
-1.37394e-07
-1.67512e-07
-1.99676e-07
-2.26656e-07
-2.56232e-07
-2.79839e-07
-3.06348e-07
-3.2662e-07
-3.49283e-07
-3.66699e-07
-3.8454e-07
-3.99269e-07
-4.11818e-07
3.01586e-07
2.87988e-07
2.72501e-07
2.56895e-07
2.40474e-07
2.21541e-07
2.00227e-07
1.76275e-07
1.5049e-07
1.22133e-07
9.23431e-08
6.01857e-08
2.76147e-08
-6.70228e-09
-4.00826e-08
-7.45887e-08
-1.06892e-07
-1.39976e-07
-1.69968e-07
-2.00688e-07
-2.27882e-07
-2.55788e-07
-2.80141e-07
-3.04892e-07
-3.26462e-07
-3.47641e-07
-3.66334e-07
-3.83594e-07
-3.98852e-07
-4.12128e-07
2.99876e-07
2.86876e-07
2.71958e-07
2.55984e-07
2.38855e-07
2.1941e-07
1.97559e-07
1.73078e-07
1.46614e-07
1.17796e-07
8.74657e-08
5.51668e-08
2.22954e-08
-1.17433e-08
-4.51585e-08
-7.89335e-08
-1.11093e-07
-1.43073e-07
-1.72904e-07
-2.02306e-07
-2.29482e-07
-2.56068e-07
-2.80621e-07
-3.04303e-07
-3.26219e-07
-3.46838e-07
-3.65841e-07
-3.83183e-07
-3.98842e-07
-4.12828e-07
2.99308e-07
2.86079e-07
2.71375e-07
2.55148e-07
2.37305e-07
2.17207e-07
1.94703e-07
1.69654e-07
1.42488e-07
1.13169e-07
8.22662e-08
4.97775e-08
1.66015e-08
-1.72185e-08
-5.06381e-08
-8.37767e-08
-1.15697e-07
-1.46735e-07
-1.76207e-07
-2.04551e-07
-2.31374e-07
-2.57e-07
-2.8129e-07
-3.04307e-07
-3.26089e-07
-3.46461e-07
-3.65532e-07
-3.83068e-07
-3.99169e-07
-4.13772e-07
2.99298e-07
2.85631e-07
2.70766e-07
2.54189e-07
2.35646e-07
2.1482e-07
1.9158e-07
1.65901e-07
1.38026e-07
1.08159e-07
7.66842e-08
4.39396e-08
1.04923e-08
-2.31908e-08
-5.65404e-08
-8.91601e-08
-1.20717e-07
-1.50969e-07
-1.79903e-07
-2.07373e-07
-2.33618e-07
-2.58466e-07
-2.82264e-07
-3.04746e-07
-3.26233e-07
-3.46404e-07
-3.65477e-07
-3.83187e-07
-3.99668e-07
-4.14876e-07
2.99446e-07
2.85384e-07
2.70084e-07
2.52982e-07
2.3372e-07
2.1213e-07
1.88108e-07
1.6173e-07
1.33133e-07
1.02667e-07
7.06269e-08
3.75652e-08
3.87987e-09
-2.97342e-08
-6.29515e-08
-9.51365e-08
-1.26241e-07
-1.558e-07
-1.84087e-07
-2.10765e-07
-2.36322e-07
-2.60436e-07
-2.83654e-07
-3.05592e-07
-3.26737e-07
-3.46643e-07
-3.65711e-07
-3.83478e-07
-4.00344e-07
-4.15971e-07
2.99506e-07
2.85127e-07
2.69243e-07
2.51462e-07
2.31435e-07
2.09048e-07
1.84207e-07
1.57056e-07
1.27702e-07
9.65807e-08
6.39708e-08
3.05405e-08
-3.36623e-09
-3.69588e-08
-7.00059e-08
-1.018e-07
-1.324e-07
-1.61303e-07
-1.88881e-07
-2.14784e-07
-2.39585e-07
-2.6296e-07
-2.85527e-07
-3.06892e-07
-3.27624e-07
-3.47225e-07
-3.66205e-07
-3.83993e-07
-4.01125e-07
-4.17127e-07
2.9939e-07
2.8467e-07
2.68156e-07
2.49612e-07
2.28758e-07
2.05513e-07
1.79791e-07
1.5178e-07
1.21608e-07
8.97666e-08
5.65598e-08
2.27147e-08
-1.14164e-08
-4.50169e-08
-7.78747e-08
-1.0929e-07
-1.39353e-07
-1.67593e-07
-1.94418e-07
-2.19524e-07
-2.43513e-07
-2.66106e-07
-2.87954e-07
-3.08688e-07
-3.28929e-07
-3.48159e-07
-3.66975e-07
-3.84711e-07
-4.02044e-07
-4.18303e-07
2.99159e-07
2.83976e-07
2.6681e-07
2.47453e-07
2.2569e-07
2.01477e-07
1.74765e-07
1.4578e-07
1.147e-07
8.20561e-08
4.82034e-08
1.3897e-08
-2.04738e-08
-5.40978e-08
-8.67512e-08
-1.17775e-07
-1.47264e-07
-1.74809e-07
-2.00829e-07
-2.25089e-07
-2.48197e-07
-2.69945e-07
-2.90985e-07
-3.11019e-07
-3.30662e-07
-3.49455e-07
-3.67993e-07
-3.85627e-07
-4.03053e-07
-4.19526e-07
2.98995e-07
2.83133e-07
2.65251e-07
2.4501e-07
2.22209e-07
1.96864e-07
1.68997e-07
1.38889e-07
1.06781e-07
7.3238e-08
3.86745e-08
3.86113e-09
-3.07654e-08
-6.44122e-08
-9.68366e-08
-1.27431e-07
-1.56296e-07
-1.83086e-07
-2.08237e-07
-2.31574e-07
-2.53725e-07
-2.74538e-07
-2.94675e-07
-3.13907e-07
-3.32839e-07
-3.51099e-07
-3.69233e-07
-3.86699e-07
-4.04092e-07
-4.20765e-07
2.99149e-07
2.82307e-07
2.63528e-07
2.42237e-07
2.18201e-07
1.91504e-07
1.62277e-07
1.30869e-07
9.75942e-08
6.30477e-08
2.77058e-08
-7.65072e-09
-4.25366e-08
-7.61847e-08
-1.08335e-07
-1.3844e-07
-1.66608e-07
-1.92561e-07
-2.16762e-07
-2.39081e-07
-2.60187e-07
-2.79951e-07
-2.9909e-07
-3.17385e-07
-3.35498e-07
-3.53077e-07
-3.70694e-07
-3.87855e-07
-4.05125e-07
-4.21901e-07
2.99742e-07
2.81611e-07
2.61598e-07
2.38946e-07
2.13397e-07
1.85098e-07
1.5429e-07
1.21397e-07
8.68119e-08
5.11604e-08
1.49819e-08
-2.09359e-08
-5.6064e-08
-8.96686e-08
-1.21478e-07
-1.51011e-07
-1.78389e-07
-2.03407e-07
-2.26554e-07
-2.4775e-07
-2.67705e-07
-2.86299e-07
-3.04324e-07
-3.21534e-07
-3.387e-07
-3.5542e-07
-3.72379e-07
-3.89052e-07
-4.06045e-07
-4.22785e-07
3.00526e-07
2.80827e-07
2.59127e-07
2.34705e-07
2.0733e-07
1.77182e-07
1.44584e-07
1.1003e-07
7.39982e-08
3.71533e-08
9.84753e-11
-3.63763e-08
-7.17055e-08
-1.05198e-07
-1.36577e-07
-1.6544e-07
-1.91916e-07
-2.15886e-07
-2.37853e-07
-2.57803e-07
-2.76472e-07
-2.93759e-07
-3.10525e-07
-3.26477e-07
-3.42542e-07
-3.5818e-07
-3.74324e-07
-3.9022e-07
-4.06768e-07
-4.23127e-07
3.00779e-07
2.79263e-07
2.55487e-07
2.2892e-07
1.99407e-07
1.67155e-07
1.32557e-07
9.61679e-08
5.85615e-08
2.04481e-08
-1.75034e-08
-5.45068e-08
-8.99683e-08
-1.23253e-07
-1.54085e-07
-1.82154e-07
-2.07594e-07
-2.30384e-07
-2.51013e-07
-2.69568e-07
-2.86761e-07
-3.02579e-07
-3.17877e-07
-3.32388e-07
-3.47124e-07
-3.61442e-07
-3.76537e-07
-3.91315e-07
-4.07171e-07
-4.22609e-07
3.00046e-07
2.76387e-07
2.50201e-07
2.21107e-07
1.8907e-07
1.54374e-07
1.17495e-07
7.90589e-08
3.97341e-08
2.79797e-10
-3.85713e-08
-7.60428e-08
-1.11525e-07
-1.44453e-07
-1.74572e-07
-2.01679e-07
-2.2592e-07
-2.47377e-07
-2.66492e-07
-2.83467e-07
-2.98951e-07
-3.13083e-07
-3.26642e-07
-3.39493e-07
-3.52581e-07
-3.65321e-07
-3.79e-07
-3.92309e-07
-4.07102e-07
-4.20958e-07
2.98043e-07
2.71729e-07
2.42649e-07
2.10518e-07
1.75452e-07
1.37867e-07
9.83586e-08
5.76335e-08
1.64494e-08
-2.43858e-08
-6.40869e-08
-1.01893e-07
-1.37199e-07
-1.69529e-07
-1.98678e-07
-2.24576e-07
-2.47408e-07
-2.67358e-07
-2.84809e-07
-3.00025e-07
-3.13558e-07
-3.25727e-07
-3.37222e-07
-3.48125e-07
-3.59169e-07
-3.69987e-07
-3.81711e-07
-3.93145e-07
-4.06319e-07
-4.17936e-07
2.94342e-07
2.64613e-07
2.31799e-07
1.95863e-07
1.57127e-07
1.16154e-07
7.36523e-08
3.04183e-08
-1.27121e-08
-5.48882e-08
-9.52942e-08
-1.3319e-07
-1.68003e-07
-1.99359e-07
-2.27149e-07
-2.51461e-07
-2.72573e-07
-2.90786e-07
-3.0644e-07
-3.19777e-07
-3.31186e-07
-3.4108e-07
-3.50134e-07
-3.58694e-07
-3.67247e-07
-3.75659e-07
-3.84719e-07
-3.9372e-07
-4.04386e-07
-4.13335e-07
2.87134e-07
2.53197e-07
2.1566e-07
1.75021e-07
1.3191e-07
8.70199e-08
4.11803e-08
-4.71794e-09
-4.97822e-08
-9.31353e-08
-1.33956e-07
-1.71537e-07
-2.05369e-07
-2.35193e-07
-2.61034e-07
-2.8316e-07
-3.02012e-07
-3.18045e-07
-3.31637e-07
-3.42982e-07
-3.52201e-07
-3.59571e-07
-3.65786e-07
-3.71467e-07
-3.77049e-07
-3.82486e-07
-3.88202e-07
-3.93969e-07
-4.01098e-07
-4.06949e-07
2.72319e-07
2.32551e-07
1.89476e-07
1.43406e-07
9.5218e-08
4.60168e-08
-3.21407e-09
-5.15824e-08
-9.82085e-08
-1.42217e-07
-1.82805e-07
-2.19335e-07
-2.51413e-07
-2.78915e-07
-3.02002e-07
-3.21088e-07
-3.36784e-07
-3.49747e-07
-3.60518e-07
-3.69376e-07
-3.76328e-07
-3.81193e-07
-3.84347e-07
-3.86502e-07
-3.88434e-07
-3.90476e-07
-3.92546e-07
-3.9423e-07
-3.96956e-07
-3.99322e-07
2.55559e-07
2.09116e-07
1.56648e-07
1.01717e-07
4.64706e-08
-8.0668e-09
-6.12421e-08
-1.12341e-07
-1.6051e-07
-2.04862e-07
-2.44644e-07
-2.79367e-07
-3.08869e-07
-3.33293e-07
-3.5299e-07
-3.68391e-07
-3.80028e-07
-3.88526e-07
-3.94588e-07
-3.98996e-07
-4.02508e-07
-4.05123e-07
-4.05841e-07
-4.04041e-07
-4.00896e-07
-3.98973e-07
-3.98133e-07
-3.95738e-07
-3.93359e-07
-3.93566e-07
1.93818e-07
1.37493e-07
7.9819e-08
2.05838e-08
-3.91584e-08
-9.78046e-08
-1.53865e-07
-2.06135e-07
-2.53626e-07
-2.95543e-07
-3.31368e-07
-3.60997e-07
-3.84824e-07
-4.03697e-07
-4.18554e-07
-4.29742e-07
-4.37144e-07
-4.40364e-07
-4.39062e-07
-4.34026e-07
-4.285e-07
-4.26993e-07
-4.27644e-07
-4.23684e-07
-4.13876e-07
-4.05305e-07
-4.02628e-07
-4.03088e-07
-4.02715e-07
-3.99799e-07
1.64193e-07
9.49977e-08
2.02541e-08
-5.32056e-08
-1.22265e-07
-1.8632e-07
-2.45219e-07
-2.98362e-07
-3.44788e-07
-3.83584e-07
-4.14228e-07
-4.36853e-07
-4.52358e-07
-4.62524e-07
-4.69869e-07
-4.77459e-07
-4.86729e-07
-4.93535e-07
-4.90529e-07
-4.74574e-07
-4.50967e-07
-4.31773e-07
-4.24419e-07
-4.25286e-07
-4.2538e-07
-4.2191e-07
-4.16955e-07
-4.12106e-07
-4.09054e-07
-4.07772e-07
-7.53207e-08
-1.52004e-07
-2.29174e-07
-3.04919e-07
-3.74786e-07
-4.35468e-07
-4.8529e-07
-5.23479e-07
-5.49635e-07
-5.63727e-07
-5.66346e-07
-5.58968e-07
-5.44015e-07
-5.25041e-07
-5.06415e-07
-4.9279e-07
-4.8669e-07
-4.87847e-07
-4.91455e-07
-4.91134e-07
-4.84496e-07
-4.73876e-07
-4.60739e-07
-4.46921e-07
-4.35089e-07
-4.27054e-07
-4.22013e-07
-4.18603e-07
-4.16434e-07
-4.15382e-07
3.12785e-07
3.13525e-07
3.14966e-07
3.16992e-07
3.19124e-07
3.20761e-07
3.21772e-07
3.2216e-07
3.21359e-07
3.17526e-07
3.08599e-07
2.93344e-07
2.49375e-07
2.19042e-07
5.62449e-09
-1.59817e-07
-2.3723e-07
-3.13211e-07
-3.83273e-07
-4.44081e-07
-4.93949e-07
-5.32104e-07
-5.58145e-07
-5.72042e-07
-5.74387e-07
-5.66667e-07
-5.51316e-07
-5.31915e-07
-5.12873e-07
-4.98897e-07
-4.92572e-07
-4.93661e-07
-4.97329e-07
-4.9708e-07
-4.90423e-07
-4.79698e-07
-4.66412e-07
-4.52398e-07
-4.40344e-07
-4.32166e-07
-4.27071e-07
-4.23667e-07
-4.21541e-07
-4.2056e-07
8.93009e-08
1.42685e-08
-5.94788e-08
-1.28793e-07
-1.93055e-07
-2.52107e-07
-3.05354e-07
-3.51831e-07
-3.90624e-07
-4.2121e-07
-4.43726e-07
-4.5908e-07
-4.69069e-07
-4.76239e-07
-4.83681e-07
-4.9291e-07
-4.99777e-07
-4.96816e-07
-4.80758e-07
-4.5683e-07
-4.37195e-07
-4.29528e-07
-4.3029e-07
-4.30319e-07
-4.26821e-07
-4.21733e-07
-4.16781e-07
-4.13686e-07
-4.12429e-07
1.32449e-07
7.44495e-08
1.49211e-08
-4.50747e-08
-1.03937e-07
-1.60177e-07
-2.1259e-07
-2.60182e-07
-3.02158e-07
-3.37997e-07
-3.67598e-07
-3.91362e-07
-4.10152e-07
-4.24928e-07
-4.36069e-07
-4.43424e-07
-4.46574e-07
-4.45159e-07
-4.39955e-07
-4.34206e-07
-4.32489e-07
-4.32995e-07
-4.28876e-07
-4.18784e-07
-4.09838e-07
-4.06897e-07
-4.07309e-07
-4.06953e-07
-4.04134e-07
2.04603e-07
1.51918e-07
9.67437e-08
4.12573e-08
-1.35016e-08
-6.6874e-08
-1.18144e-07
-1.66454e-07
-2.10917e-07
-2.50778e-07
-2.85547e-07
-3.15066e-07
-3.39486e-07
-3.59165e-07
-3.74537e-07
-3.8613e-07
-3.94562e-07
-4.00538e-07
-4.04842e-07
-4.08239e-07
-4.10729e-07
-4.11294e-07
-4.09298e-07
-4.05912e-07
-4.03749e-07
-4.02746e-07
-4.00269e-07
-3.97867e-07
-3.9821e-07
2.28524e-07
1.85216e-07
1.3889e-07
9.0456e-08
4.10285e-08
-8.40788e-09
-5.69618e-08
-1.03753e-07
-1.47903e-07
-1.88607e-07
-2.25227e-07
-2.57369e-07
-2.84911e-07
-3.08018e-07
-3.27106e-07
-3.4279e-07
-3.5573e-07
-3.6647e-07
-3.75289e-07
-3.82193e-07
-3.86991e-07
-3.90051e-07
-3.92097e-07
-3.93928e-07
-3.95907e-07
-3.9797e-07
-3.99731e-07
-4.02618e-07
-4.0529e-07
2.49491e-07
2.1173e-07
1.70855e-07
1.27506e-07
8.23869e-08
3.63335e-08
-9.7636e-09
-5.50109e-08
-9.85297e-08
-1.39495e-07
-1.77199e-07
-2.11131e-07
-2.41034e-07
-2.66933e-07
-2.89102e-07
-3.07988e-07
-3.24048e-07
-3.37663e-07
-3.49027e-07
-3.58261e-07
-3.65641e-07
-3.71863e-07
-3.77573e-07
-3.83222e-07
-3.88794e-07
-3.94715e-07
-4.00797e-07
-4.0833e-07
-4.147e-07
2.61192e-07
2.28156e-07
1.91981e-07
1.53007e-07
1.11804e-07
6.90832e-08
2.56408e-08
-1.76869e-08
-6.00469e-08
-1.00621e-07
-1.38667e-07
-1.7361e-07
-2.05078e-07
-2.32964e-07
-2.5736e-07
-2.7855e-07
-2.96837e-07
-3.12566e-07
-3.25982e-07
-3.37473e-07
-3.47465e-07
-3.56641e-07
-3.65372e-07
-3.74157e-07
-3.82891e-07
-3.92367e-07
-4.01907e-07
-4.13215e-07
-4.22892e-07
2.68512e-07
2.39218e-07
2.06856e-07
1.71555e-07
1.33742e-07
9.40112e-08
5.30713e-08
1.16793e-08
-2.93541e-08
-6.92417e-08
-1.0722e-07
-1.42682e-07
-1.75155e-07
-2.04434e-07
-2.30454e-07
-2.53404e-07
-2.73474e-07
-2.9105e-07
-3.06401e-07
-3.2009e-07
-3.32444e-07
-3.4417e-07
-3.55368e-07
-3.6679e-07
-3.78082e-07
-3.90398e-07
-4.02543e-07
-4.16554e-07
-4.29081e-07
2.73339e-07
2.46946e-07
2.17626e-07
1.85359e-07
1.50435e-07
1.13332e-07
7.46762e-08
3.51345e-08
-4.53009e-09
-4.35839e-08
-8.12465e-08
-1.16909e-07
-1.50006e-07
-1.80286e-07
-2.07549e-07
-2.31947e-07
-2.53564e-07
-2.72855e-07
-2.90021e-07
-3.05731e-07
-3.20127e-07
-3.34014e-07
-3.4726e-07
-3.60842e-07
-3.74172e-07
-3.8857e-07
-4.02711e-07
-4.18474e-07
-4.33372e-07
2.7635e-07
2.52372e-07
2.25585e-07
1.95847e-07
1.6337e-07
1.28548e-07
9.19352e-08
5.41046e-08
1.57709e-08
-2.23973e-08
-5.96085e-08
-9.52718e-08
-1.28749e-07
-1.59771e-07
-1.88025e-07
-2.13659e-07
-2.36649e-07
-2.57499e-07
-2.76297e-07
-2.93779e-07
-3.09929e-07
-3.25633e-07
-3.4062e-07
-3.55936e-07
-3.70928e-07
-3.86823e-07
-4.02507e-07
-4.19401e-07
-4.35948e-07
2.7806e-07
2.56144e-07
2.31498e-07
2.03899e-07
1.73528e-07
1.40706e-07
1.05925e-07
6.96628e-08
3.25888e-08
-4.69507e-09
-4.13923e-08
-7.69422e-08
-1.10649e-07
-1.42243e-07
-1.71319e-07
-1.98022e-07
-2.22227e-07
-2.44459e-07
-2.64699e-07
-2.83709e-07
-3.01386e-07
-3.18619e-07
-3.35109e-07
-3.51814e-07
-3.6818e-07
-3.85169e-07
-4.02e-07
-4.19599e-07
-4.3707e-07
2.78926e-07
2.58723e-07
2.35857e-07
2.10085e-07
1.81561e-07
1.50526e-07
1.17404e-07
8.25828e-08
4.66941e-08
1.02755e-08
-2.58784e-08
-6.12439e-08
-9.50813e-08
-1.27129e-07
-1.56902e-07
-1.84537e-07
-2.09823e-07
-2.33272e-07
-2.54798e-07
-2.7514e-07
-2.94169e-07
-3.12708e-07
-3.305e-07
-3.48344e-07
-3.65819e-07
-3.83636e-07
-4.01237e-07
-4.19252e-07
-4.3706e-07
2.79719e-07
2.60753e-07
2.3925e-07
2.14992e-07
1.8807e-07
1.58615e-07
1.26974e-07
9.34595e-08
5.86682e-08
2.30765e-08
-1.25287e-08
-4.76669e-08
-8.15658e-08
-1.13976e-07
-1.44344e-07
-1.72795e-07
-1.99046e-07
-2.23581e-07
-2.46265e-07
-2.67793e-07
-2.88029e-07
-3.07715e-07
-3.2662e-07
-3.45431e-07
-3.63768e-07
-3.82233e-07
-4.00285e-07
-4.1852e-07
-4.3629e-07
2.80634e-07
2.62564e-07
2.4211e-07
2.1909e-07
1.93521e-07
1.65427e-07
1.35083e-07
1.02731e-07
6.89359e-08
3.41145e-08
-9.59435e-10
-3.58512e-08
-6.97658e-08
-1.02468e-07
-1.33348e-07
-1.62519e-07
-1.89633e-07
-2.15146e-07
-2.38877e-07
-2.61478e-07
-2.82788e-07
-3.03495e-07
-3.2335e-07
-3.42983e-07
-3.61988e-07
-3.80936e-07
-3.99238e-07
-4.17518e-07
-4.35091e-07
2.81559e-07
2.64204e-07
2.44635e-07
2.22654e-07
1.98218e-07
1.71278e-07
1.42055e-07
1.10727e-07
7.78243e-08
4.37065e-08
9.12817e-09
-2.55191e-08
-5.9427e-08
-9.23739e-08
-1.23704e-07
-1.53519e-07
-1.81412e-07
-2.07816e-07
-2.32494e-07
-2.56072e-07
-2.78337e-07
-2.99956e-07
-3.20615e-07
-3.40946e-07
-3.60459e-07
-3.79758e-07
-3.9816e-07
-4.16375e-07
-4.33644e-07
2.82328e-07
2.65626e-07
2.46871e-07
2.258e-07
2.02332e-07
1.76382e-07
1.4813e-07
1.17707e-07
8.55994e-08
5.21214e-08
1.79934e-08
-1.64239e-08
-5.03239e-08
-8.34885e-08
-1.1523e-07
-1.45634e-07
-1.74245e-07
-2.0147e-07
-2.27015e-07
-2.51487e-07
-2.74609e-07
-2.97035e-07
-3.18391e-07
-3.39292e-07
-3.59205e-07
-3.78715e-07
-3.97141e-07
-4.15151e-07
-4.3209e-07
2.82856e-07
2.66785e-07
2.48794e-07
2.28551e-07
2.05941e-07
1.80872e-07
1.53476e-07
1.23868e-07
9.24741e-08
5.95877e-08
2.58639e-08
-8.33742e-09
-4.22448e-08
-7.56098e-08
-1.07749e-07
-1.38704e-07
-1.67997e-07
-1.95987e-07
-2.22348e-07
-2.47636e-07
-2.7155e-07
-2.94683e-07
-3.16659e-07
-3.38011e-07
-3.58252e-07
-3.77846e-07
-3.96239e-07
-4.13923e-07
-4.30475e-07
2.83179e-07
2.67694e-07
2.50384e-07
2.30907e-07
2.09095e-07
1.84844e-07
1.58218e-07
1.29363e-07
9.86184e-08
6.62969e-08
3.29319e-08
-1.05582e-09
-3.49989e-08
-6.85439e-08
-1.01091e-07
-1.3256e-07
-1.62529e-07
-1.91235e-07
-2.18386e-07
-2.44429e-07
-2.69087e-07
-2.92853e-07
-3.15384e-07
-3.37104e-07
-3.57598e-07
-3.77195e-07
-3.9547e-07
-4.12757e-07
-4.28794e-07
2.8349e-07
2.68441e-07
2.51658e-07
2.32901e-07
2.11854e-07
1.88384e-07
1.62455e-07
1.34319e-07
1.04168e-07
7.24058e-08
3.93495e-08
5.59177e-09
-2.84327e-08
-6.21193e-08
-9.51167e-08
-1.27046e-07
-1.57725e-07
-1.87081e-07
-2.15037e-07
-2.41764e-07
-2.67153e-07
-2.91478e-07
-3.14528e-07
-3.36541e-07
-3.57238e-07
-3.76754e-07
-3.94866e-07
-4.11638e-07
-4.27106e-07
2.84e-07
2.69113e-07
2.5268e-07
2.34626e-07
2.14309e-07
1.91573e-07
1.66273e-07
1.38841e-07
1.09235e-07
7.80382e-08
4.52314e-08
1.17357e-08
-2.24356e-08
-5.62021e-08
-8.9731e-08
-1.22033e-07
-1.53509e-07
-1.83407e-07
-2.12244e-07
-2.3954e-07
-2.65702e-07
-2.90492e-07
-3.14047e-07
-3.36302e-07
-3.57135e-07
-3.76562e-07
-3.9439e-07
-4.10652e-07
-4.25364e-07
2.84857e-07
2.69755e-07
2.53579e-07
2.36241e-07
2.16579e-07
1.94494e-07
1.6976e-07
1.43025e-07
1.13919e-07
8.3287e-08
5.06656e-08
1.74637e-08
-1.69329e-08
-5.07073e-08
-8.48804e-08
-1.17431e-07
-1.49857e-07
-1.80116e-07
-2.10015e-07
-2.37653e-07
-2.64767e-07
-2.89787e-07
-3.13979e-07
-3.36305e-07
-3.57323e-07
-3.76591e-07
-3.94118e-07
-4.09813e-07
-4.23764e-07
2.86024e-07
2.7035e-07
2.5455e-07
2.37926e-07
2.18778e-07
1.97226e-07
1.7302e-07
1.46959e-07
1.18313e-07
8.82125e-08
5.57302e-08
2.28159e-08
-1.1862e-08
-4.56168e-08
-8.05233e-08
-1.13232e-07
-1.46762e-07
-1.7719e-07
-2.08401e-07
-2.36048e-07
-2.6447e-07
-2.89255e-07
-3.14487e-07
-3.36397e-07
-3.57921e-07
-3.76776e-07
-3.94129e-07
-4.09304e-07
-4.22411e-07
2.87356e-07
2.71027e-07
2.55884e-07
2.39813e-07
2.20989e-07
1.9985e-07
1.76175e-07
1.50715e-07
1.22514e-07
9.28467e-08
6.05078e-08
2.77863e-08
-7.15243e-09
-4.09831e-08
-7.66001e-08
-1.09532e-07
-1.44175e-07
-1.74746e-07
-2.07381e-07
-2.34817e-07
-2.64879e-07
-2.88897e-07
-3.15849e-07
-3.36393e-07
-3.59357e-07
-3.76815e-07
-3.94684e-07
-4.09196e-07
-4.21469e-07
2.88785e-07
2.71949e-07
2.57774e-07
2.41949e-07
2.23279e-07
2.02459e-07
1.7934e-07
1.54355e-07
1.26608e-07
9.72116e-08
6.50787e-08
3.23485e-08
-2.73524e-09
-3.6893e-08
-7.3038e-08
-1.06498e-07
-1.41996e-07
-1.73034e-07
-2.06822e-07
-2.34283e-07
-2.65851e-07
-2.88989e-07
-3.18071e-07
-3.36329e-07
-3.62286e-07
-3.76171e-07
-3.971e-07
-4.08945e-07
-4.2175e-07
2.90316e-07
2.73578e-07
2.60265e-07
2.44327e-07
2.25726e-07
2.05155e-07
1.82605e-07
1.57927e-07
1.30653e-07
1.0133e-07
6.94883e-08
3.64848e-08
1.42131e-09
-3.3412e-08
-6.97947e-08
-1.04261e-07
-1.40133e-07
-1.72281e-07
-2.06527e-07
-2.34875e-07
-2.67042e-07
-2.90284e-07
-3.20594e-07
-3.37164e-07
-3.66354e-07
-3.75235e-07
-4.02646e-07
-4.07283e-07
-4.2428e-07
2.92063e-07
2.76149e-07
2.63301e-07
2.47098e-07
2.28595e-07
2.08209e-07
1.86143e-07
1.61589e-07
1.34743e-07
1.05301e-07
7.37657e-08
4.02406e-08
5.29441e-09
-3.05383e-08
-6.69205e-08
-1.02846e-07
-1.38635e-07
-1.72537e-07
-2.06409e-07
-2.36706e-07
-2.68196e-07
-2.9319e-07
-3.22675e-07
-3.4017e-07
-3.70139e-07
-3.75959e-07
-4.11242e-07
-4.01137e-07
-4.36184e-07
2.94674e-07
2.79625e-07
2.65634e-07
2.48873e-07
2.3116e-07
2.11294e-07
1.89794e-07
1.65279e-07
1.38838e-07
1.09147e-07
7.78735e-08
4.36551e-08
8.78733e-09
-2.8234e-08
-6.46041e-08
-1.02173e-07
-1.37831e-07
-1.73717e-07
-2.06843e-07
-2.39257e-07
-2.69331e-07
-2.97268e-07
-3.23841e-07
-3.4538e-07
-3.71712e-07
-3.80901e-07
-4.1868e-07
-3.95165e-07
-4.63225e-07
2.98789e-07
2.85823e-07
2.71312e-07
2.53856e-07
2.3553e-07
2.15471e-07
1.94131e-07
1.69562e-07
1.43271e-07
1.13251e-07
8.19496e-08
4.69725e-08
1.18845e-08
-2.63565e-08
-6.29614e-08
-1.02077e-07
-1.37849e-07
-1.75903e-07
-2.08538e-07
-2.43767e-07
-2.71618e-07
-3.0256e-07
-3.25711e-07
-3.51481e-07
-3.71603e-07
-3.90338e-07
-4.18342e-07
-3.9977e-07
-5.01056e-07
3.01256e-07
2.87254e-07
2.72251e-07
2.55289e-07
2.3795e-07
2.18412e-07
1.97414e-07
1.72892e-07
1.46726e-07
1.16468e-07
8.5067e-08
4.95244e-08
1.40772e-08
-2.50699e-08
-6.22782e-08
-1.02406e-07
-1.38549e-07
-1.77214e-07
-2.10246e-07
-2.45927e-07
-2.73909e-07
-3.06087e-07
-3.2752e-07
-3.56155e-07
-3.70093e-07
-3.95017e-07
-4.08405e-07
-4.14428e-07
-5.62447e-07
3.19718e-07
2.98733e-07
2.8115e-07
2.63509e-07
2.45754e-07
2.25905e-07
2.04751e-07
1.80032e-07
1.53501e-07
1.22607e-07
9.03434e-08
5.36241e-08
1.68507e-08
-2.38259e-08
-6.2503e-08
-1.04426e-07
-1.42054e-07
-1.82567e-07
-2.16571e-07
-2.53582e-07
-2.82231e-07
-3.14568e-07
-3.36643e-07
-3.64573e-07
-3.77936e-07
-4.05866e-07
-4.05978e-07
-4.40464e-07
-5.41109e-07
-4.15128e-07
-4.08316e-07
-4.01791e-07
-4.03884e-07
-4.0998e-07
-4.19263e-07
-4.26612e-07
-4.32218e-07
-4.36289e-07
-4.3886e-07
-4.39963e-07
-4.39892e-07
-4.39049e-07
-4.3773e-07
-4.36224e-07
-4.34584e-07
-4.32854e-07
-4.31078e-07
-4.2914e-07
-4.27243e-07
-4.25296e-07
-4.23586e-07
-4.22502e-07
-4.22529e-07
-4.25249e-07
-4.30515e-07
-4.37111e-07
-4.31076e-07
-3.96475e-07
-3.25457e-07
-4.15386e-07
-4.09641e-07
-4.03739e-07
-4.03616e-07
-4.11344e-07
-4.2311e-07
-4.34242e-07
-4.43137e-07
-4.49877e-07
-4.5452e-07
-4.57141e-07
-4.57909e-07
-4.57457e-07
-4.5623e-07
-4.54521e-07
-4.52685e-07
-4.50547e-07
-4.48308e-07
-4.45828e-07
-4.43085e-07
-4.4038e-07
-4.37288e-07
-4.3468e-07
-4.31666e-07
-4.28628e-07
-4.23856e-07
-4.15978e-07
-4.05506e-07
-3.92129e-07
-3.81529e-07
-4.15688e-07
-4.11254e-07
-4.07382e-07
-4.08617e-07
-4.15243e-07
-4.26e-07
-4.38852e-07
-4.50747e-07
-4.60643e-07
-4.68185e-07
-4.73384e-07
-4.76328e-07
-4.77164e-07
-4.76654e-07
-4.75023e-07
-4.72878e-07
-4.70433e-07
-4.67588e-07
-4.64828e-07
-4.61467e-07
-4.5814e-07
-4.54126e-07
-4.49712e-07
-4.4451e-07
-4.37791e-07
-4.30446e-07
-4.21598e-07
-4.14239e-07
-4.0403e-07
-3.91309e-07
-4.15888e-07
-4.12825e-07
-4.1127e-07
-4.14055e-07
-4.21043e-07
-4.31016e-07
-4.43561e-07
-4.56808e-07
-4.68939e-07
-4.79234e-07
-4.87202e-07
-4.93004e-07
-4.96483e-07
-4.97922e-07
-4.97755e-07
-4.95992e-07
-4.9363e-07
-4.90296e-07
-4.86803e-07
-4.82813e-07
-4.78421e-07
-4.73899e-07
-4.68322e-07
-4.62706e-07
-4.55627e-07
-4.48979e-07
-4.41311e-07
-4.33888e-07
-4.24793e-07
-4.14616e-07
-4.15759e-07
-4.14114e-07
-4.14939e-07
-4.19647e-07
-4.27578e-07
-4.37788e-07
-4.49533e-07
-4.626e-07
-4.75722e-07
-4.87757e-07
-4.98187e-07
-5.06475e-07
-5.12946e-07
-5.17009e-07
-5.19548e-07
-5.1993e-07
-5.19072e-07
-5.16731e-07
-5.13275e-07
-5.09154e-07
-5.03977e-07
-4.9876e-07
-4.92443e-07
-4.86312e-07
-4.79346e-07
-4.72488e-07
-4.64998e-07
-4.57221e-07
-4.49079e-07
-4.41068e-07
-4.15022e-07
-4.14778e-07
-4.17843e-07
-4.24569e-07
-4.33833e-07
-4.44738e-07
-4.56628e-07
-4.69083e-07
-4.821e-07
-4.94641e-07
-5.06511e-07
-5.1672e-07
-5.25566e-07
-5.32229e-07
-5.37457e-07
-5.407e-07
-5.42403e-07
-5.42531e-07
-5.4107e-07
-5.38475e-07
-5.34435e-07
-5.29624e-07
-5.23689e-07
-5.1725e-07
-5.10038e-07
-5.02364e-07
-4.93955e-07
-4.85043e-07
-4.7566e-07
-4.66574e-07
-4.13375e-07
-4.14434e-07
-4.1946e-07
-4.28078e-07
-4.38816e-07
-4.50795e-07
-4.63366e-07
-4.76169e-07
-4.88741e-07
-5.01351e-07
-5.13223e-07
-5.24664e-07
-5.34671e-07
-5.43455e-07
-5.50796e-07
-5.56593e-07
-5.60866e-07
-5.63671e-07
-5.64956e-07
-5.64934e-07
-5.63471e-07
-5.60852e-07
-5.56943e-07
-5.52026e-07
-5.45937e-07
-5.38951e-07
-5.30883e-07
-5.22116e-07
-5.12601e-07
-5.03193e-07
-4.10534e-07
-4.12741e-07
-4.19393e-07
-4.29626e-07
-4.41783e-07
-4.54967e-07
-4.685e-07
-4.82051e-07
-4.95068e-07
-5.0799e-07
-5.19547e-07
-5.3152e-07
-5.41754e-07
-5.51717e-07
-5.60217e-07
-5.67827e-07
-5.74064e-07
-5.79169e-07
-5.82881e-07
-5.85426e-07
-5.86603e-07
-5.8666e-07
-5.85404e-07
-5.83075e-07
-5.7952e-07
-5.74988e-07
-5.69478e-07
-5.63261e-07
-5.56631e-07
-5.49918e-07
-4.06321e-07
-4.0955e-07
-4.17464e-07
-4.28931e-07
-4.42313e-07
-4.56649e-07
-4.71244e-07
-4.85706e-07
-4.99533e-07
-5.13053e-07
-5.25269e-07
-5.37343e-07
-5.47879e-07
-5.58256e-07
-5.67362e-07
-5.75849e-07
-5.83202e-07
-5.89708e-07
-5.95149e-07
-5.99595e-07
-6.0297e-07
-6.05241e-07
-6.06471e-07
-6.06564e-07
-6.05743e-07
-6.03852e-07
-6.01297e-07
-5.97862e-07
-5.94235e-07
-5.90123e-07
-4.00805e-07
-4.04872e-07
-4.13702e-07
-4.26049e-07
-4.40379e-07
-4.55682e-07
-4.71244e-07
-4.86591e-07
-5.01339e-07
-5.15528e-07
-5.28578e-07
-5.41089e-07
-5.52421e-07
-5.63113e-07
-5.72743e-07
-5.81652e-07
-5.89702e-07
-5.9689e-07
-6.03352e-07
-6.0876e-07
-6.13597e-07
-6.17184e-07
-6.20303e-07
-6.22068e-07
-6.23442e-07
-6.23453e-07
-6.23146e-07
-6.21543e-07
-6.19739e-07
-6.16774e-07
-3.94351e-07
-3.99024e-07
-4.08468e-07
-4.21366e-07
-4.3632e-07
-4.52314e-07
-4.68623e-07
-4.84735e-07
-5.00303e-07
-5.15156e-07
-5.29075e-07
-5.42132e-07
-5.54193e-07
-5.65391e-07
-5.75603e-07
-5.85024e-07
-5.93612e-07
-6.0132e-07
-6.08362e-07
-6.14397e-07
-6.19991e-07
-6.24317e-07
-6.2844e-07
-6.31068e-07
-6.33704e-07
-6.34685e-07
-6.35761e-07
-6.35071e-07
-6.34532e-07
-6.32098e-07
-3.8762e-07
-3.92669e-07
-4.02465e-07
-4.15631e-07
-4.309e-07
-4.4728e-07
-4.64052e-07
-4.80694e-07
-4.96854e-07
-5.123e-07
-5.26879e-07
-5.40537e-07
-5.5323e-07
-5.64975e-07
-5.75774e-07
-5.85678e-07
-5.94719e-07
-6.02912e-07
-6.10315e-07
-6.16858e-07
-6.22772e-07
-6.27612e-07
-6.32094e-07
-6.35397e-07
-6.38426e-07
-6.40109e-07
-6.41799e-07
-6.41727e-07
-6.42271e-07
-6.39987e-07
-3.81504e-07
-3.86746e-07
-3.96688e-07
-4.09907e-07
-4.25246e-07
-4.41749e-07
-4.58719e-07
-4.7564e-07
-4.9215e-07
-5.08001e-07
-5.23035e-07
-5.37165e-07
-5.50347e-07
-5.62568e-07
-5.73838e-07
-5.8418e-07
-5.93621e-07
-6.02186e-07
-6.09904e-07
-6.1679e-07
-6.22874e-07
-6.28137e-07
-6.32635e-07
-6.36325e-07
-6.39276e-07
-6.41388e-07
-6.42795e-07
-6.43397e-07
-6.4383e-07
-6.41033e-07
-3.76978e-07
-3.8229e-07
-3.92253e-07
-4.05416e-07
-4.20696e-07
-4.37174e-07
-4.54178e-07
-4.71203e-07
-4.87885e-07
-5.03972e-07
-5.19296e-07
-5.33755e-07
-5.47291e-07
-5.59878e-07
-5.71512e-07
-5.82202e-07
-5.9196e-07
-6.00803e-07
-6.08749e-07
-6.1582e-07
-6.22032e-07
-6.27394e-07
-6.31921e-07
-6.3562e-07
-6.38506e-07
-6.40567e-07
-6.41775e-07
-6.42057e-07
-6.41456e-07
-6.40232e-07
-3.74874e-07
-3.80197e-07
-3.90151e-07
-4.03273e-07
-4.18512e-07
-4.3497e-07
-4.51991e-07
-4.69077e-07
-4.85869e-07
-5.02114e-07
-5.17639e-07
-5.32335e-07
-5.46136e-07
-5.59008e-07
-5.70936e-07
-5.81918e-07
-5.91957e-07
-6.01055e-07
-6.09207e-07
-6.1649e-07
-6.22883e-07
-6.28386e-07
-6.33006e-07
-6.36748e-07
-6.39611e-07
-6.41581e-07
-6.42642e-07
-6.42819e-07
-6.42224e-07
-6.41027e-07
-3.75656e-07
-3.80976e-07
-3.90972e-07
-4.04179e-07
-4.19538e-07
-4.36147e-07
-4.53348e-07
-4.7064e-07
-4.87665e-07
-5.04166e-07
-5.1997e-07
-5.34968e-07
-5.49091e-07
-5.62303e-07
-5.74589e-07
-5.85946e-07
-5.96376e-07
-6.05889e-07
-6.14496e-07
-6.22128e-07
-6.2881e-07
-6.34548e-07
-6.39349e-07
-6.43211e-07
-6.46121e-07
-6.48053e-07
-6.4899e-07
-6.4896e-07
-6.48072e-07
-6.4648e-07
-3.79258e-07
-3.8456e-07
-3.94639e-07
-4.08042e-07
-4.23661e-07
-4.40564e-07
-4.58073e-07
-4.75673e-07
-4.93001e-07
-5.09798e-07
-5.25894e-07
-5.41181e-07
-5.55593e-07
-5.69101e-07
-5.81688e-07
-5.93354e-07
-6.04099e-07
-6.13925e-07
-6.22826e-07
-6.30787e-07
-6.37793e-07
-6.43829e-07
-6.48886e-07
-6.52947e-07
-6.56006e-07
-6.58028e-07
-6.58977e-07
-6.5878e-07
-6.57484e-07
-6.55254e-07
-3.8511e-07
-3.90327e-07
-4.00441e-07
-4.14025e-07
-4.29877e-07
-4.47022e-07
-4.64751e-07
-4.82536e-07
-5.00008e-07
-5.16916e-07
-5.33091e-07
-5.48435e-07