/*--------------------------------*- C++ -*----------------------------------*\
| =========                 |                                                 |
| \\      /  F ield         | OpenFOAM: The Open Source CFD Toolbox           |
|  \\    /   O peration     | Version:  2312                                  |
|   \\  /    A nd           | Website:  www.openfoam.com                      |
|    \\/     M anipulation  |                                                 |
\*---------------------------------------------------------------------------*/
FoamFile
{
    version     2.0;
    format      ascii;
    arch        "LSB;label=32;scalar=64";
    class       volVectorField;
    location    "21000";
    object      U;
}
// * * * * * * * * * * * * * * * * * * * * * * * * * * * * * * * * * * * * * //

dimensions      [0 1 -1 0 0 0 0];

internalField   nonuniform List<vector> 
2685
(
(0.000350751 -4.02269e-05 0)
(0.000347028 -3.27542e-05 0)
(0.000340247 -2.576e-05 0)
(0.000336189 -1.98929e-05 0)
(0.000333515 -1.59271e-05 0)
(0.000331085 -1.36299e-05 0)
(0.000328905 -1.238e-05 0)
(0.00032725 -1.1629e-05 0)
(0.000326337 -1.10422e-05 0)
(0.000326161 -1.04872e-05 0)
(0.000326632 -9.94439e-06 0)
(0.000327645 -9.40941e-06 0)
(0.000329118 -8.87288e-06 0)
(0.000330988 -8.32245e-06 0)
(0.000333195 -7.75792e-06 0)
(0.000335682 -7.19829e-06 0)
(0.000338397 -6.66522e-06 0)
(0.000341291 -6.15941e-06 0)
(0.000344312 -5.66059e-06 0)
(0.000347403 -5.15552e-06 0)
(0.000350507 -4.66134e-06 0)
(0.000353581 -4.21676e-06 0)
(0.000356595 -3.8437e-06 0)
(0.000359526 -3.5159e-06 0)
(0.000362347 -3.17522e-06 0)
(0.000365028 -2.7822e-06 0)
(0.000367536 -2.35929e-06 0)
(0.000369853 -1.99976e-06 0)
(0.000371995 -1.82329e-06 0)
(0.00037401 -1.89456e-06 0)
(0.000375966 -2.1683e-06 0)
(0.000377916 -2.50787e-06 0)
(0.000379878 -2.7548e-06 0)
(0.000381832 -2.79338e-06 0)
(0.000383717 -2.58589e-06 0)
(0.000385458 -2.16595e-06 0)
(0.000386995 -1.62508e-06 0)
(0.000388321 -1.08456e-06 0)
(0.000389468 -6.52177e-07 0)
(0.000390491 -3.94848e-07 0)
(0.000391438 -3.32581e-07 0)
(0.00039234 -4.41556e-07 0)
(0.00039322 -6.72289e-07 0)
(0.000394088 -9.60032e-07 0)
(0.000394956 -1.23725e-06 0)
(0.000395845 -1.45222e-06 0)
(0.000396781 -1.57801e-06 0)
(0.000397787 -1.60345e-06 0)
(0.000398876 -1.52735e-06 0)
(0.000400053 -1.36133e-06 0)
(0.000401308 -1.12724e-06 0)
(0.000402625 -8.50662e-07 0)
(0.000403982 -5.5603e-07 0)
(0.000405355 -2.64332e-07 0)
(0.000406716 7.46841e-09 0)
(0.000408037 2.46305e-07 0)
(0.000409283 4.42842e-07 0)
(0.000410424 5.91093e-07 0)
(0.00041143 6.87471e-07 0)
(0.000412277 7.31886e-07 0)
(0.000412949 7.28341e-07 0)
(0.000413442 6.8397e-07 0)
(0.000413762 6.08401e-07 0)
(0.000413927 5.12892e-07 0)
(0.000413964 4.0853e-07 0)
(0.000413901 3.0529e-07 0)
(0.000413771 2.12028e-07 0)
(0.000413606 1.32937e-07 0)
(0.000413433 7.0895e-08 0)
(0.00041327 2.54522e-08 0)
(0.00041313 -5.39251e-09 0)
(0.000413019 -2.43496e-08 0)
(0.000412937 -3.43408e-08 0)
(0.000412882 -3.80792e-08 0)
(0.000412851 -3.7834e-08 0)
(0.000412838 -3.53639e-08 0)
(0.000412839 -3.20038e-08 0)
(0.000412849 -2.84205e-08 0)
(0.000412864 -2.49982e-08 0)
(0.000412883 -2.20134e-08 0)
(0.000412903 -1.93906e-08 0)
(0.000412923 -1.71054e-08 0)
(0.000412942 -1.51337e-08 0)
(0.000412959 -1.34328e-08 0)
(0.000412974 -1.19568e-08 0)
(0.000412988 -1.0671e-08 0)
(0.000413 -9.54263e-09 0)
(0.000413011 -8.53936e-09 0)
(0.00041302 -7.63407e-09 0)
(0.000413028 -6.81065e-09 0)
(0.000956696 4.13691e-05 0)
(0.000939108 3.83049e-05 0)
(0.000924686 3.52746e-05 0)
(0.000909574 3.22053e-05 0)
(0.000894179 2.87799e-05 0)
(0.000879544 2.49354e-05 0)
(0.000866341 2.08359e-05 0)
(0.000854716 1.67535e-05 0)
(0.000844593 1.29271e-05 0)
(0.000835784 9.48807e-06 0)
(0.000828129 6.45143e-06 0)
(0.000821546 3.76865e-06 0)
(0.000815963 1.37772e-06 0)
(0.000811312 -7.64589e-07 0)
(0.000807546 -2.67469e-06 0)
(0.000804621 -4.35105e-06 0)
(0.00080249 -5.78453e-06 0)
(0.000801094 -6.96413e-06 0)
(0.00080037 -7.88567e-06 0)
(0.000800254 -8.55664e-06 0)
(0.000800687 -8.99768e-06 0)
(0.000801602 -9.23275e-06 0)
(0.000802913 -9.28477e-06 0)
(0.000804531 -9.18023e-06 0)
(0.000806374 -8.95197e-06 0)
(0.000808391 -8.63167e-06 0)
(0.000810559 -8.23889e-06 0)
(0.000812875 -7.78655e-06 0)
(0.000815303 -7.30614e-06 0)
(0.000817765 -6.85241e-06 0)
(0.000820159 -6.47275e-06 0)
(0.000822414 -6.17804e-06 0)
(0.000824505 -5.93307e-06 0)
(0.000826427 -5.66771e-06 0)
(0.000828209 -5.32225e-06 0)
(0.00082994 -4.90218e-06 0)
(0.000831692 -4.48075e-06 0)
(0.000833476 -4.14572e-06 0)
(0.000835261 -3.9326e-06 0)
(0.000837005 -3.80422e-06 0)
(0.000838692 -3.68244e-06 0)
(0.000840321 -3.49563e-06 0)
(0.000841881 -3.22254e-06 0)
(0.000843372 -2.90731e-06 0)
(0.000844803 -2.63964e-06 0)
(0.000846165 -2.51428e-06 0)
(0.000847424 -2.5891e-06 0)
(0.000848572 -2.86366e-06 0)
(0.000849621 -3.29292e-06 0)
(0.000850601 -3.81091e-06 0)
(0.000851561 -4.35058e-06 0)
(0.000852562 -4.85628e-06 0)
(0.000853671 -5.28653e-06 0)
(0.000854936 -5.60944e-06 0)
(0.000856381 -5.7971e-06 0)
(0.000858001 -5.8238e-06 0)
(0.00085976 -5.66863e-06 0)
(0.000861599 -5.3218e-06 0)
(0.000863443 -4.79228e-06 0)
(0.000865216 -4.11116e-06 0)
(0.000866848 -3.32808e-06 0)
(0.000868276 -2.50252e-06 0)
(0.000869462 -1.6956e-06 0)
(0.000870388 -9.63588e-07 0)
(0.000871054 -3.51718e-07 0)
(0.000871487 1.12896e-07 0)
(0.000871719 4.25559e-07 0)
(0.000871794 5.99283e-07 0)
(0.000871755 6.57917e-07 0)
(0.000871639 6.31193e-07 0)
(0.000871479 5.49872e-07 0)
(0.000871304 4.41354e-07 0)
(0.000871133 3.26638e-07 0)
(0.00087098 2.19834e-07 0)
(0.000870851 1.28898e-07 0)
(0.00087075 5.69427e-08 0)
(0.000870676 3.73512e-09 0)
(0.000870626 -3.26978e-08 0)
(0.000870596 -5.52012e-08 0)
(0.000870582 -6.6852e-08 0)
(0.000870581 -7.07896e-08 0)
(0.000870587 -6.96154e-08 0)
(0.0008706 -6.52838e-08 0)
(0.000870615 -5.92583e-08 0)
(0.000870631 -5.25784e-08 0)
(0.000870648 -4.59274e-08 0)
(0.000870664 -3.97078e-08 0)
(0.00087068 -3.41176e-08 0)
(0.000870694 -2.92231e-08 0)
(0.000870707 -2.50121e-08 0)
(0.00121472 6.37842e-05 0)
(0.00119973 6.22194e-05 0)
(0.00118663 5.94584e-05 0)
(0.00117326 5.57739e-05 0)
(0.00115929 5.15018e-05 0)
(0.00114509 4.68284e-05 0)
(0.00113114 4.18493e-05 0)
(0.0011178 3.66928e-05 0)
(0.00110517 3.15394e-05 0)
(0.00109326 2.65788e-05 0)
(0.00108203 2.19562e-05 0)
(0.00107149 1.77269e-05 0)
(0.00106165 1.38682e-05 0)
(0.00105255 1.03239e-05 0)
(0.00104423 7.04267e-06 0)
(0.00103669 3.992e-06 0)
(0.00102994 1.16013e-06 0)
(0.00102394 -1.44264e-06 0)
(0.00101867 -3.78708e-06 0)
(0.00101409 -5.8426e-06 0)
(0.00101018 -7.59383e-06 0)
(0.00100688 -9.04655e-06 0)
(0.00100414 -1.02139e-05 0)
(0.00100193 -1.11022e-05 0)
(0.0010002 -1.17185e-05 0)
(0.000998905 -1.20892e-05 0)
(0.000998004 -1.22611e-05 0)
(0.000997432 -1.22958e-05 0)
(0.000997137 -1.22416e-05 0)
(0.000997075 -1.21167e-05 0)
(0.000997203 -1.19157e-05 0)
(0.000997464 -1.16333e-05 0)
(0.000997798 -1.12872e-05 0)
(0.000998194 -1.09148e-05 0)
(0.000998681 -1.05354e-05 0)
(0.000999288 -1.01408e-05 0)
(0.00100002 -9.70782e-06 0)
(0.00100085 -9.21111e-06 0)
(0.00100171 -8.65396e-06 0)
(0.00100254 -8.08895e-06 0)
(0.00100329 -7.60133e-06 0)
(0.00100395 -7.26964e-06 0)
(0.00100459 -7.1195e-06 0)
(0.00100528 -7.10408e-06 0)
(0.00100607 -7.12468e-06 0)
(0.00100694 -7.07712e-06 0)
(0.00100785 -6.89601e-06 0)
(0.00100872 -6.58304e-06 0)
(0.00100947 -6.21013e-06 0)
(0.00101002 -5.88939e-06 0)
(0.00101039 -5.72794e-06 0)
(0.00101062 -5.7884e-06 0)
(0.00101078 -6.06824e-06 0)
(0.00101095 -6.50198e-06 0)
(0.00101119 -6.98164e-06 0)
(0.00101156 -7.38615e-06 0)
(0.00101204 -7.6092e-06 0)
(0.00101264 -7.57851e-06 0)
(0.00101332 -7.26487e-06 0)
(0.00101405 -6.68223e-06 0)
(0.00101478 -5.87926e-06 0)
(0.00101549 -4.92537e-06 0)
(0.00101617 -3.89793e-06 0)
(0.00101677 -2.87306e-06 0)
(0.00101731 -1.91777e-06 0)
(0.00101776 -1.08369e-06 0)
(0.00101813 -4.02917e-07 0)
(0.00101841 1.13066e-07 0)
(0.00101861 4.66201e-07 0)
(0.00101873 6.73921e-07 0)
(0.00101879 7.62139e-07 0)
(0.00101881 7.59857e-07 0)
(0.00101879 6.95273e-07 0)
(0.00101876 5.93566e-07 0)
(0.00101872 4.7535e-07 0)
(0.00101868 3.56051e-07 0)
(0.00101864 2.46115e-07 0)
(0.00101861 1.51504e-07 0)
(0.00101858 7.47785e-08 0)
(0.00101857 1.60229e-08 0)
(0.00101856 -2.65596e-08 0)
(0.00101856 -5.53514e-08 0)
(0.00101856 -7.30904e-08 0)
(0.00101857 -8.24058e-08 0)
(0.00101858 -8.56095e-08 0)
(0.00101859 -8.46109e-08 0)
(0.0010186 -8.09082e-08 0)
(0.00101861 -7.56241e-08 0)
(0.00101862 -6.9561e-08 0)
(0.00101864 -6.32586e-08 0)
(0.00129271 0.000101197 0)
(0.00127772 9.9384e-05 0)
(0.00126341 9.63128e-05 0)
(0.00124957 9.21106e-05 0)
(0.00123613 8.71136e-05 0)
(0.00122312 8.16395e-05 0)
(0.00121065 7.59109e-05 0)
(0.00119875 7.00803e-05 0)
(0.00118738 6.42549e-05 0)
(0.00117647 5.85051e-05 0)
(0.00116601 5.28689e-05 0)
(0.00115605 4.73539e-05 0)
(0.00114665 4.19506e-05 0)
(0.0011379 3.66592e-05 0)
(0.0011298 3.15113e-05 0)
(0.00112235 2.65678e-05 0)
(0.00111549 2.18976e-05 0)
(0.00110914 1.75556e-05 0)
(0.00110324 1.35801e-05 0)
(0.00109774 9.99436e-06 0)
(0.0010926 6.80483e-06 0)
(0.00108782 3.99585e-06 0)
(0.0010834 1.54118e-06 0)
(0.00107934 -5.79043e-07 0)
(0.00107565 -2.36939e-06 0)
(0.00107232 -3.83503e-06 0)
(0.00106935 -5.00841e-06 0)
(0.00106673 -5.94369e-06 0)
(0.00106444 -6.69242e-06 0)
(0.00106247 -7.27459e-06 0)
(0.00106076 -7.67553e-06 0)
(0.00105928 -7.88485e-06 0)
(0.00105801 -7.92331e-06 0)
(0.0010569 -7.85321e-06 0)
(0.00105595 -7.75565e-06 0)
(0.00105513 -7.6786e-06 0)
(0.00105442 -7.61025e-06 0)
(0.00105381 -7.49665e-06 0)
(0.00105332 -7.28982e-06 0)
(0.00105293 -6.995e-06 0)
(0.00105264 -6.67877e-06 0)
(0.00105243 -6.43267e-06 0)
(0.00105228 -6.32375e-06 0)
(0.00105217 -6.35657e-06 0)
(0.00105208 -6.46259e-06 0)
(0.001052 -6.52876e-06 0)
(0.00105191 -6.4579e-06 0)
(0.0010518 -6.22143e-06 0)
(0.00105166 -5.87114e-06 0)
(0.0010515 -5.52027e-06 0)
(0.00105131 -5.3025e-06 0)
(0.00105111 -5.32213e-06 0)
(0.00105089 -5.61553e-06 0)
(0.00105067 -6.13837e-06 0)
(0.00105045 -6.78017e-06 0)
(0.00105026 -7.39666e-06 0)
(0.00105011 -7.84694e-06 0)
(0.00104999 -8.02458e-06 0)
(0.00104992 -7.87642e-06 0)
(0.00104989 -7.40531e-06 0)
(0.0010499 -6.66037e-06 0)
(0.00104995 -5.72142e-06 0)
(0.00105003 -4.68105e-06 0)
(0.00105016 -3.62878e-06 0)
(0.00105032 -2.63979e-06 0)
(0.00105051 -1.76852e-06 0)
(0.00105071 -1.04724e-06 0)
(0.00105092 -4.88059e-07 0)
(0.00105112 -8.51848e-08 0)
(0.00105132 1.7985e-07 0)
(0.00105151 3.31271e-07 0)
(0.00105167 3.94384e-07 0)
(0.0010518 3.94439e-07 0)
(0.0010519 3.53618e-07 0)
(0.00105198 2.89917e-07 0)
(0.00105204 2.17202e-07 0)
(0.00105207 1.45266e-07 0)
(0.0010521 8.03108e-08 0)
(0.00105211 2.56697e-08 0)
(0.00105211 -1.77222e-08 0)
(0.00105211 -5.00133e-08 0)
(0.0010521 -7.23629e-08 0)
(0.00105209 -8.63796e-08 0)
(0.00105209 -9.37668e-08 0)
(0.00105208 -9.61383e-08 0)
(0.00105208 -9.49069e-08 0)
(0.00105207 -9.12369e-08 0)
(0.00105207 -8.60417e-08 0)
(0.00105207 -8.00079e-08 0)
(0.00105207 -7.36256e-08 0)
(0.0013327 0.000141182 0)
(0.00131414 0.000135341 0)
(0.00129605 0.000128728 0)
(0.00127872 0.000121468 0)
(0.00126231 0.000113781 0)
(0.00124692 0.000105914 0)
(0.00123257 9.80854e-05 0)
(0.00121922 9.04434e-05 0)
(0.00120683 8.30428e-05 0)
(0.00119537 7.58565e-05 0)
(0.00118489 6.88206e-05 0)
(0.00117539 6.18906e-05 0)
(0.00116683 5.50795e-05 0)
(0.00115912 4.84656e-05 0)
(0.00115211 4.21683e-05 0)
(0.00114566 3.63056e-05 0)
(0.00113963 3.09548e-05 0)
(0.00113394 2.6139e-05 0)
(0.0011285 2.18379e-05 0)
(0.00112327 1.80062e-05 0)
(0.00111826 1.45845e-05 0)
(0.00111345 1.15077e-05 0)
(0.00110887 8.72139e-06 0)
(0.00110453 6.19839e-06 0)
(0.00110044 3.93977e-06 0)
(0.00109662 1.9538e-06 0)
(0.00109307 2.26813e-07 0)
(0.00108979 -1.27102e-06 0)
(0.00108679 -2.56596e-06 0)
(0.00108405 -3.65969e-06 0)
(0.00108155 -4.53758e-06 0)
(0.00107927 -5.19315e-06 0)
(0.00107721 -5.65879e-06 0)
(0.00107536 -5.99947e-06 0)
(0.00107371 -6.27988e-06 0)
(0.00107223 -6.52589e-06 0)
(0.0010709 -6.70776e-06 0)
(0.00106968 -6.77989e-06 0)
(0.00106858 -6.7264e-06 0)
(0.00106761 -6.58295e-06 0)
(0.00106676 -6.4271e-06 0)
(0.00106604 -6.34081e-06 0)
(0.00106541 -6.36331e-06 0)
(0.00106485 -6.46616e-06 0)
(0.0010643 -6.56486e-06 0)
(0.00106375 -6.56055e-06 0)
(0.00106317 -6.39012e-06 0)
(0.0010626 -6.0588e-06 0)
(0.00106206 -5.64279e-06 0)
(0.00106158 -5.26253e-06 0)
(0.00106118 -5.03905e-06 0)
(0.00106086 -5.05128e-06 0)
(0.0010606 -5.30991e-06 0)
(0.00106035 -5.75551e-06 0)
(0.00106008 -6.27845e-06 0)
(0.00105977 -6.75096e-06 0)
(0.00105939 -7.05969e-06 0)
(0.00105895 -7.12881e-06 0)
(0.00105848 -6.92912e-06 0)
(0.00105801 -6.47563e-06 0)
(0.00105756 -5.81729e-06 0)
(0.00105716 -5.02239e-06 0)
(0.00105685 -4.16407e-06 0)
(0.00105663 -3.309e-06 0)
(0.0010565 -2.51023e-06 0)
(0.00105646 -1.80413e-06 0)
(0.0010565 -1.21071e-06 0)
(0.00105659 -7.3579e-07 0)
(0.00105672 -3.73854e-07 0)
(0.00105687 -1.14152e-07 0)
(0.00105702 5.80898e-08 0)
(0.00105717 1.59523e-07 0)
(0.00105731 2.06818e-07 0)
(0.00105742 2.15437e-07 0)
(0.00105752 1.98672e-07 0)
(0.00105759 1.6703e-07 0)
(0.00105765 1.28432e-07 0)
(0.0010577 8.85019e-08 0)
(0.00105773 5.08814e-08 0)
(0.00105775 1.79331e-08 0)
(0.00105776 -9.31025e-09 0)
(0.00105777 -3.0825e-08 0)
(0.00105778 -4.6934e-08 0)
(0.00105778 -5.82402e-08 0)
(0.00105778 -6.54879e-08 0)
(0.00105778 -6.94447e-08 0)
(0.00105779 -7.08315e-08 0)
(0.00105779 -7.02854e-08 0)
(0.00105779 -6.83439e-08 0)
(0.00105779 -6.54431e-08 0)
(0.00134617 0.000185001 0)
(0.001329 0.000177953 0)
(0.00131192 0.000170081 0)
(0.00129517 0.000161546 0)
(0.00127902 0.000152522 0)
(0.00126365 0.000143177 0)
(0.00124914 0.00013363 0)
(0.00123552 0.000123933 0)
(0.00122279 0.000114102 0)
(0.00121091 0.000104182 0)
(0.0011998 9.4296e-05 0)
(0.00118939 8.46448e-05 0)
(0.0011796 7.54614e-05 0)
(0.00117038 6.69448e-05 0)
(0.00116173 5.92102e-05 0)
(0.00115364 5.22768e-05 0)
(0.00114616 4.60937e-05 0)
(0.00113929 4.05814e-05 0)
(0.00113301 3.56574e-05 0)
(0.00112728 3.12408e-05 0)
(0.00112205 2.72486e-05 0)
(0.00111725 2.36055e-05 0)
(0.00111282 2.02599e-05 0)
(0.00110869 1.71893e-05 0)
(0.00110482 1.43848e-05 0)
(0.00110119 1.18309e-05 0)
(0.00109779 9.50778e-06 0)
(0.00109462 7.39922e-06 0)
(0.00109166 5.50828e-06 0)
(0.0010889 3.85319e-06 0)
(0.00108633 2.44252e-06 0)
(0.00108396 1.26379e-06 0)
(0.00108179 2.78293e-07 0)
(0.00107982 -5.58369e-07 0)
(0.00107801 -1.27449e-06 0)
(0.00107635 -1.87232e-06 0)
(0.00107481 -2.34592e-06 0)
(0.00107339 -2.69894e-06 0)
(0.00107208 -2.9588e-06 0)
(0.00107091 -3.17344e-06 0)
(0.00106989 -3.39082e-06 0)
(0.00106899 -3.63316e-06 0)
(0.00106818 -3.88489e-06 0)
(0.0010674 -4.09811e-06 0)
(0.00106663 -4.21657e-06 0)
(0.00106585 -4.20687e-06 0)
(0.00106508 -4.07857e-06 0)
(0.00106435 -3.88565e-06 0)
(0.00106372 -3.71171e-06 0)
(0.0010632 -3.64346e-06 0)
(0.00106281 -3.74191e-06 0)
(0.00106252 -4.02276e-06 0)
(0.00106228 -4.45228e-06 0)
(0.00106203 -4.95763e-06 0)
(0.00106174 -5.44647e-06 0)
(0.00106138 -5.82951e-06 0)
(0.00106094 -6.0389e-06 0)
(0.00106043 -6.03878e-06 0)
(0.00105989 -5.82703e-06 0)
(0.00105936 -5.42997e-06 0)
(0.00105886 -4.8928e-06 0)
(0.00105842 -4.26911e-06 0)
(0.00105807 -3.61169e-06 0)
(0.00105782 -2.96592e-06 0)
(0.00105765 -2.36624e-06 0)
(0.00105757 -1.83511e-06 0)
(0.00105755 -1.38405e-06 0)
(0.00105759 -1.0156e-06 0)
(0.00105767 -7.2574e-07 0)
(0.00105778 -5.06534e-07 0)
(0.0010579 -3.47456e-07 0)
(0.00105802 -2.36859e-07 0)
(0.00105813 -1.64298e-07 0)
(0.00105824 -1.20208e-07 0)
(0.00105833 -9.62743e-08 0)
(0.00105841 -8.59424e-08 0)
(0.00105847 -8.41633e-08 0)
(0.00105852 -8.71753e-08 0)
(0.00105856 -9.23504e-08 0)
(0.00105859 -9.77468e-08 0)
(0.00105861 -1.02222e-07 0)
(0.00105863 -1.05118e-07 0)
(0.00105864 -1.06267e-07 0)
(0.00105864 -1.05746e-07 0)
(0.00105865 -1.03745e-07 0)
(0.00105865 -1.00519e-07 0)
(0.00105865 -9.63444e-08 0)
(0.00105865 -9.14871e-08 0)
(0.00105865 -8.61867e-08 0)
(0.00105865 -8.06465e-08 0)
(0.00129568 0.000216314 0)
(0.00128153 0.000208903 0)
(0.00126826 0.000200617 0)
(0.00125584 0.000191547 0)
(0.0012443 0.000181798 0)
(0.00123359 0.000171485 0)
(0.00122358 0.000160751 0)
(0.00121404 0.000149781 0)
(0.00120473 0.000138803 0)
(0.00119545 0.000128051 0)
(0.0011861 0.000117694 0)
(0.00117675 0.000107789 0)
(0.00116753 9.83032e-05 0)
(0.00115866 8.91678e-05 0)
(0.00115031 8.03412e-05 0)
(0.00114264 7.18427e-05 0)
(0.0011357 6.37567e-05 0)
(0.00112951 5.6205e-05 0)
(0.00112401 4.92979e-05 0)
(0.00111913 4.30913e-05 0)
(0.00111476 3.75758e-05 0)
(0.00111082 3.2697e-05 0)
(0.0011072 2.83817e-05 0)
(0.00110385 2.45515e-05 0)
(0.0011007 2.11277e-05 0)
(0.00109773 1.80377e-05 0)
(0.00109492 1.5229e-05 0)
(0.00109227 1.26779e-05 0)
(0.00108976 1.03836e-05 0)
(0.00108739 8.3491e-06 0)
(0.00108516 6.5681e-06 0)
(0.00108308 5.01552e-06 0)
(0.00108116 3.66394e-06 0)
(0.00107938 2.49462e-06 0)
(0.00107774 1.49792e-06 0)
(0.00107621 6.65604e-07 0)
(0.00107479 -2.52515e-08 0)
(0.00107347 -6.08779e-07 0)
(0.00107228 -1.12396e-06 0)
(0.00107121 -1.59909e-06 0)
(0.00107025 -2.04009e-06 0)
(0.00106937 -2.42939e-06 0)
(0.00106852 -2.73607e-06 0)
(0.00106769 -2.93433e-06 0)
(0.00106688 -3.02065e-06 0)
(0.0010661 -3.0198e-06 0)
(0.00106538 -2.98044e-06 0)
(0.00106476 -2.96109e-06 0)
(0.00106425 -3.01556e-06 0)
(0.00106386 -3.17764e-06 0)
(0.00106355 -3.45083e-06 0)
(0.0010633 -3.80799e-06 0)
(0.00106305 -4.19919e-06 0)
(0.00106277 -4.56417e-06 0)
(0.00106242 -4.84575e-06 0)
(0.001062 -5.00071e-06 0)
(0.00106151 -5.00619e-06 0)
(0.00106098 -4.86093e-06 0)
(0.00106044 -4.58214e-06 0)
(0.00105991 -4.19964e-06 0)
(0.00105942 -3.74927e-06 0)
(0.001059 -3.26686e-06 0)
(0.00105865 -2.78376e-06 0)
(0.00105839 -2.32438e-06 0)
(0.0010582 -1.90543e-06 0)
(0.00105808 -1.53636e-06 0)
(0.00105802 -1.2207e-06 0)
(0.00105801 -9.5753e-07 0)
(0.00105804 -7.43086e-07 0)
(0.00105809 -5.72007e-07 0)
(0.00105815 -4.38354e-07 0)
(0.00105823 -3.36089e-07 0)
(0.0010583 -2.59305e-07 0)
(0.00105837 -2.02937e-07 0)
(0.00105843 -1.62717e-07 0)
(0.00105848 -1.34839e-07 0)
(0.00105853 -1.16091e-07 0)
(0.00105857 -1.03856e-07 0)
(0.0010586 -9.60112e-08 0)
(0.00105863 -9.11227e-08 0)
(0.00105865 -8.80436e-08 0)
(0.00105867 -8.59169e-08 0)
(0.00105868 -8.41445e-08 0)
(0.00105869 -8.23456e-08 0)
(0.0010587 -8.03081e-08 0)
(0.0010587 -7.79354e-08 0)
(0.00105871 -7.52084e-08 0)
(0.00105871 -7.21564e-08 0)
(0.00105871 -6.88365e-08 0)
(0.00105871 -6.53178e-08 0)
(0.00125492 0.000249339 0)
(0.00123378 0.000236936 0)
(0.00121499 0.000224362 0)
(0.00119845 0.000211774 0)
(0.00118406 0.000199343 0)
(0.00117171 0.000187268 0)
(0.00116119 0.000175713 0)
(0.00115226 0.00016474 0)
(0.00114466 0.00015427 0)
(0.00113815 0.000144114 0)
(0.00113259 0.000134049 0)
(0.00112784 0.000123906 0)
(0.00112381 0.00011363 0)
(0.00112034 0.000103295 0)
(0.00111728 9.30694e-05 0)
(0.00111448 8.31759e-05 0)
(0.00111183 7.384e-05 0)
(0.00110926 6.52479e-05 0)
(0.00110676 5.75123e-05 0)
(0.00110432 5.06604e-05 0)
(0.00110195 4.46486e-05 0)
(0.00109966 3.93897e-05 0)
(0.00109745 3.47772e-05 0)
(0.0010953 3.07012e-05 0)
(0.00109323 2.70607e-05 0)
(0.00109121 2.37743e-05 0)
(0.00108926 2.07869e-05 0)
(0.00108736 1.80673e-05 0)
(0.00108552 1.55981e-05 0)
(0.00108374 1.33662e-05 0)
(0.00108205 1.13596e-05 0)
(0.00108043 9.56856e-06 0)
(0.0010789 7.98619e-06 0)
(0.00107744 6.60401e-06 0)
(0.00107607 5.4048e-06 0)
(0.00107476 4.35751e-06 0)
(0.00107355 3.42749e-06 0)
(0.00107243 2.58386e-06 0)
(0.0010714 1.80994e-06 0)
(0.00107044 1.10841e-06 0)
(0.00106954 4.96946e-07 0)
(0.00106867 -5.6536e-09 0)
(0.00106784 -3.9122e-07 0)
(0.00106704 -6.72311e-07 0)
(0.00106629 -8.82558e-07 0)
(0.0010656 -1.06735e-06 0)
(0.00106501 -1.2692e-06 0)
(0.00106453 -1.51972e-06 0)
(0.00106413 -1.83438e-06 0)
(0.00106381 -2.20588e-06 0)
(0.00106353 -2.60807e-06 0)
(0.00106324 -3.00495e-06 0)
(0.00106294 -3.3586e-06 0)
(0.00106258 -3.63589e-06 0)
(0.00106218 -3.81358e-06 0)
(0.00106172 -3.88102e-06 0)
(0.00106124 -3.84e-06 0)
(0.00106075 -3.70256e-06 0)
(0.00106027 -3.48773e-06 0)
(0.00105983 -3.21785e-06 0)
(0.00105944 -2.91536e-06 0)
(0.0010591 -2.60032e-06 0)
(0.00105884 -2.289e-06 0)
(0.00105863 -1.99329e-06 0)
(0.00105848 -1.72088e-06 0)
(0.00105839 -1.4759e-06 0)
(0.00105834 -1.25972e-06 0)
(0.00105832 -1.0718e-06 0)
(0.00105833 -9.1041e-07 0)
(0.00105835 -7.73214e-07 0)
(0.00105839 -6.57572e-07 0)
(0.00105843 -5.60789e-07 0)
(0.00105847 -4.80296e-07 0)
(0.00105852 -4.13718e-07 0)
(0.00105856 -3.58871e-07 0)
(0.0010586 -3.13766e-07 0)
(0.00105863 -2.76652e-07 0)
(0.00105866 -2.46015e-07 0)
(0.00105869 -2.20567e-07 0)
(0.00105871 -1.99239e-07 0)
(0.00105872 -1.81147e-07 0)
(0.00105874 -1.65574e-07 0)
(0.00105875 -1.51953e-07 0)
(0.00105875 -1.39855e-07 0)
(0.00105876 -1.28957e-07 0)
(0.00105876 -1.19021e-07 0)
(0.00105876 -1.09878e-07 0)
(0.00105876 -1.01408e-07 0)
(0.00105876 -9.3527e-08 0)
(0.00105876 -8.6176e-08 0)
(0.00127622 0.000316924 0)
(0.00124359 0.000296937 0)
(0.00121377 0.000276719 0)
(0.00118715 0.000256711 0)
(0.00116409 0.000237232 0)
(0.00114479 0.000218507 0)
(0.00112919 0.000200677 0)
(0.00111704 0.000183796 0)
(0.00110796 0.000167876 0)
(0.00110149 0.000152926 0)
(0.00109712 0.000138982 0)
(0.00109433 0.00012608 0)
(0.00109262 0.000114217 0)
(0.00109155 0.000103336 0)
(0.00109081 9.33357e-05 0)
(0.00109017 8.41134e-05 0)
(0.00108953 7.55953e-05 0)
(0.00108886 6.77478e-05 0)
(0.00108815 6.05664e-05 0)
(0.00108742 5.40554e-05 0)
(0.00108668 4.82086e-05 0)
(0.00108593 4.29966e-05 0)
(0.00108516 3.8365e-05 0)
(0.00108435 3.42407e-05 0)
(0.0010835 3.05437e-05 0)
(0.00108261 2.71998e-05 0)
(0.00108166 2.41498e-05 0)
(0.00108067 2.13516e-05 0)
(0.00107965 1.87801e-05 0)
(0.0010786 1.64241e-05 0)
(0.00107754 1.42813e-05 0)
(0.00107647 1.23514e-05 0)
(0.00107542 1.06281e-05 0)
(0.00107437 9.09415e-06 0)
(0.00107336 7.72244e-06 0)
(0.0010724 6.48348e-06 0)
(0.00107149 5.35526e-06 0)
(0.00107063 4.32911e-06 0)
(0.00106981 3.4104e-06 0)
(0.00106902 2.61082e-06 0)
(0.00106826 1.93802e-06 0)
(0.00106753 1.38653e-06 0)
(0.00106683 9.34617e-07 0)
(0.00106618 5.48742e-07 0)
(0.0010656 1.92341e-07 0)
(0.0010651 -1.65142e-07 0)
(0.00106468 -5.41986e-07 0)
(0.00106432 -9.43075e-07 0)
(0.00106399 -1.35797e-06 0)
(0.00106369 -1.76466e-06 0)
(0.00106339 -2.13785e-06 0)
(0.00106307 -2.45536e-06 0)
(0.00106272 -2.70058e-06 0)
(0.00106234 -2.86382e-06 0)
(0.00106193 -2.94296e-06 0)
(0.0010615 -2.94273e-06 0)
(0.00106108 -2.87309e-06 0)
(0.00106067 -2.7473e-06 0)
(0.00106028 -2.58005e-06 0)
(0.00105993 -2.38582e-06 0)
(0.00105963 -2.17764e-06 0)
(0.00105937 -1.96624e-06 0)
(0.00105915 -1.75973e-06 0)
(0.00105898 -1.56369e-06 0)
(0.00105885 -1.38147e-06 0)
(0.00105876 -1.21467e-06 0)
(0.00105869 -1.06371e-06 0)
(0.00105865 -9.28234e-07 0)
(0.00105862 -8.07478e-07 0)
(0.00105861 -7.00489e-07 0)
(0.00105861 -6.06266e-07 0)
(0.00105862 -5.23815e-07 0)
(0.00105863 -4.52154e-07 0)
(0.00105865 -3.90313e-07 0)
(0.00105866 -3.37332e-07 0)
(0.00105868 -2.92256e-07 0)
(0.00105869 -2.54135e-07 0)
(0.0010587 -2.22048e-07 0)
(0.00105872 -1.95117e-07 0)
(0.00105873 -1.72536e-07 0)
(0.00105873 -1.53576e-07 0)
(0.00105874 -1.37597e-07 0)
(0.00105874 -1.24046e-07 0)
(0.00105875 -1.12458e-07 0)
(0.00105875 -1.02452e-07 0)
(0.00105875 -9.37168e-08 0)
(0.00105875 -8.60062e-08 0)
(0.00105875 -7.91268e-08 0)
(0.00105876 -7.29289e-08 0)
(0.00105876 -6.72972e-08 0)
(0.00129915 0.000398324 0)
(0.00127026 0.000373408 0)
(0.00124234 0.000346943 0)
(0.00121593 0.000319682 0)
(0.00119156 0.000292302 0)
(0.00116959 0.000265352 0)
(0.00115019 0.000239271 0)
(0.00113335 0.00021447 0)
(0.00111898 0.000191363 0)
(0.00110694 0.000170317 0)
(0.0010971 0.000151548 0)
(0.00108931 0.000135049 0)
(0.00108338 0.0001206 0)
(0.00107907 0.000107859 0)
(0.00107614 9.64746e-05 0)
(0.00107432 8.61742e-05 0)
(0.00107334 7.6799e-05 0)
(0.00107298 6.82881e-05 0)
(0.00107301 6.0635e-05 0)
(0.00107327 5.38411e-05 0)
(0.00107363 4.78831e-05 0)
(0.001074 4.27014e-05 0)
(0.00107431 3.82047e-05 0)
(0.00107452 3.42844e-05 0)
(0.00107463 3.08299e-05 0)
(0.00107461 2.77423e-05 0)
(0.00107447 2.49427e-05 0)
(0.00107423 2.23768e-05 0)
(0.00107389 2.00139e-05 0)
(0.00107347 1.78402e-05 0)
(0.00107298 1.58499e-05 0)
(0.00107243 1.40355e-05 0)
(0.00107184 1.23834e-05 0)
(0.00107123 1.08749e-05 0)
(0.00107062 9.49157e-06 0)
(0.00107001 8.22161e-06 0)
(0.0010694 7.06259e-06 0)
(0.0010688 6.01881e-06 0)
(0.00106819 5.09536e-06 0)
(0.00106757 4.29126e-06 0)
(0.00106697 3.59489e-06 0)
(0.00106639 2.98478e-06 0)
(0.00106584 2.4331e-06 0)
(0.00106534 1.9127e-06 0)
(0.0010649 1.40307e-06 0)
(0.00106451 8.95749e-07 0)
(0.00106416 3.92088e-07 0)
(0.00106383 -9.78954e-08 0)
(0.00106352 -5.55028e-07 0)
(0.00106322 -9.62799e-07 0)
(0.0010629 -1.31047e-06 0)
(0.00106257 -1.59087e-06 0)
(0.00106222 -1.80102e-06 0)
(0.00106186 -1.94282e-06 0)
(0.0010615 -2.02198e-06 0)
(0.00106114 -2.04657e-06 0)
(0.0010608 -2.02589e-06 0)
(0.00106048 -1.96963e-06 0)
(0.00106018 -1.88716e-06 0)
(0.00105992 -1.78696e-06 0)
(0.00105969 -1.6762e-06 0)
(0.0010595 -1.56055e-06 0)
(0.00105933 -1.44416e-06 0)
(0.0010592 -1.32985e-06 0)
(0.00105909 -1.21934e-06 0)
(0.001059 -1.1136e-06 0)
(0.00105894 -1.01313e-06 0)
(0.00105889 -9.1817e-07 0)
(0.00105885 -8.28895e-07 0)
(0.00105883 -7.45449e-07 0)
(0.00105881 -6.67976e-07 0)
(0.0010588 -5.96597e-07 0)
(0.00105879 -5.3137e-07 0)
(0.00105879 -4.72269e-07 0)
(0.00105879 -4.19163e-07 0)
(0.00105879 -3.71809e-07 0)
(0.00105879 -3.29864e-07 0)
(0.0010588 -2.92912e-07 0)
(0.0010588 -2.60491e-07 0)
(0.0010588 -2.32119e-07 0)
(0.0010588 -2.07317e-07 0)
(0.0010588 -1.85629e-07 0)
(0.0010588 -1.66634e-07 0)
(0.0010588 -1.49954e-07 0)
(0.0010588 -1.35257e-07 0)
(0.0010588 -1.22255e-07 0)
(0.0010588 -1.10705e-07 0)
(0.00105879 -1.00402e-07 0)
(0.00105879 -9.11725e-08 0)
(0.00105879 -8.28743e-08 0)
(0.00121966 0.000450349 0)
(0.00120702 0.000425352 0)
(0.00119321 0.00039804 0)
(0.00117905 0.000369284 0)
(0.00116511 0.000339864 0)
(0.00115175 0.000310391 0)
(0.0011391 0.000281333 0)
(0.00112721 0.000253104 0)
(0.00111619 0.00022611 0)
(0.00110618 0.000200723 0)
(0.00109741 0.000177223 0)
(0.00109005 0.000155765 0)
(0.00108416 0.000136397 0)
(0.00107968 0.000119089 0)
(0.00107641 0.000103767 0)
(0.00107414 9.03291e-05 0)
(0.00107262 7.86581e-05 0)
(0.00107164 6.86201e-05 0)
(0.00107102 6.00658e-05 0)
(0.00107064 5.28326e-05 0)
(0.00107041 4.6748e-05 0)
(0.00107027 4.16352e-05 0)
(0.00107019 3.73192e-05 0)
(0.00107016 3.36341e-05 0)
(0.00107014 3.04318e-05 0)
(0.00107013 2.75904e-05 0)
(0.00107012 2.50196e-05 0)
(0.00107008 2.26611e-05 0)
(0.00107002 2.04829e-05 0)
(0.00106991 1.84689e-05 0)
(0.00106975 1.66092e-05 0)
(0.00106954 1.48938e-05 0)
(0.00106928 1.33114e-05 0)
(0.00106897 1.18515e-05 0)
(0.00106861 1.05075e-05 0)
(0.00106822 9.27672e-06 0)
(0.00106777 8.1589e-06 0)
(0.00106729 7.15223e-06 0)
(0.00106678 6.24993e-06 0)
(0.00106626 5.4385e-06 0)
(0.00106575 4.69918e-06 0)
(0.00106527 4.01166e-06 0)
(0.00106482 3.35826e-06 0)
(0.00106442 2.72772e-06 0)
(0.00106406 2.11712e-06 0)
(0.00106374 1.53076e-06 0)
(0.00106344 9.78572e-07 0)
(0.00106316 4.7305e-07 0)
(0.00106289 2.44405e-08 0)
(0.00106262 -3.61184e-07 0)
(0.00106234 -6.81763e-07 0)
(0.00106205 -9.38381e-07 0)
(0.00106177 -1.13366e-06 0)
(0.00106149 -1.27272e-06 0)
(0.00106121 -1.36237e-06 0)
(0.00106094 -1.40994e-06 0)
(0.00106069 -1.42279e-06 0)
(0.00106045 -1.40799e-06 0)
(0.00106024 -1.37209e-06 0)
(0.00106004 -1.32088e-06 0)
(0.00105987 -1.25921e-06 0)
(0.00105971 -1.19091e-06 0)
(0.00105958 -1.11884e-06 0)
(0.00105946 -1.04502e-06 0)
(0.00105936 -9.70794e-07 0)
(0.00105927 -8.97051e-07 0)
(0.0010592 -8.24441e-07 0)
(0.00105914 -7.53506e-07 0)
(0.00105908 -6.84769e-07 0)
(0.00105904 -6.18764e-07 0)
(0.001059 -5.5602e-07 0)
(0.00105897 -4.97028e-07 0)
(0.00105894 -4.42194e-07 0)
(0.00105892 -3.9181e-07 0)
(0.0010589 -3.46029e-07 0)
(0.00105889 -3.04864e-07 0)
(0.00105887 -2.682e-07 0)
(0.00105886 -2.35817e-07 0)
(0.00105885 -2.07416e-07 0)
(0.00105884 -1.82649e-07 0)
(0.00105883 -1.61142e-07 0)
(0.00105883 -1.42517e-07 0)
(0.00105882 -1.26412e-07 0)
(0.00105882 -1.12486e-07 0)
(0.00105881 -1.00431e-07 0)
(0.00105881 -8.99737e-08 0)
(0.0010588 -8.08731e-08 0)
(0.0010588 -7.29233e-08 0)
(0.00105879 -6.59483e-08 0)
(0.00105879 -5.97997e-08 0)
(0.00101041 0.000454131 0)
(0.0010237 0.000431567 0)
(0.00103475 0.000406562 0)
(0.00104402 0.00037991 0)
(0.00105178 0.000352266 0)
(0.0010581 0.000324139 0)
(0.00106296 0.000295933 0)
(0.00106639 0.000268012 0)
(0.00106854 0.000240748 0)
(0.00106965 0.000214531 0)
(0.00107001 0.000189751 0)
(0.00106984 0.000166757 0)
(0.00106932 0.00014581 0)
(0.00106859 0.000127052 0)
(0.00106776 0.000110497 0)
(0.00106691 9.60519e-05 0)
(0.0010661 8.3554e-05 0)
(0.00106541 7.28093e-05 0)
(0.00106488 6.36193e-05 0)
(0.00106452 5.57929e-05 0)
(0.00106435 4.91479e-05 0)
(0.00106436 4.35087e-05 0)
(0.00106454 3.8707e-05 0)
(0.00106484 3.45874e-05 0)
(0.00106525 3.10146e-05 0)
(0.00106571 2.78807e-05 0)
(0.00106618 2.51053e-05 0)
(0.00106662 2.26324e-05 0)
(0.00106698 2.0422e-05 0)
(0.00106725 1.84431e-05 0)
(0.00106741 1.66679e-05 0)
(0.00106745 1.50708e-05 0)
(0.00106737 1.36287e-05 0)
(0.00106718 1.23223e-05 0)
(0.0010669 1.11357e-05 0)
(0.00106653 1.00548e-05 0)
(0.0010661 9.06563e-06 0)
(0.00106564 8.15315e-06 0)
(0.00106516 7.30086e-06 0)
(0.0010647 6.49256e-06 0)
(0.00106427 5.71468e-06 0)
(0.00106388 4.95862e-06 0)
(0.00106354 4.22201e-06 0)
(0.00106325 3.50832e-06 0)
(0.001063 2.82601e-06 0)
(0.00106278 2.18567e-06 0)
(0.00106258 1.59786e-06 0)
(0.00106239 1.07148e-06 0)
(0.0010622 6.1051e-07 0)
(0.00106201 2.16586e-07 0)
(0.00106181 -1.10312e-07 0)
(0.00106161 -3.7332e-07 0)
(0.00106141 -5.79152e-07 0)
(0.00106121 -7.34744e-07 0)
(0.00106102 -8.46857e-07 0)
(0.00106083 -9.22205e-07 0)
(0.00106065 -9.6725e-07 0)
(0.00106047 -9.87946e-07 0)
(0.00106031 -9.89589e-07 0)
(0.00106015 -9.76732e-07 0)
(0.00106001 -9.5312e-07 0)
(0.00105988 -9.21684e-07 0)
(0.00105976 -8.84599e-07 0)
(0.00105965 -8.43405e-07 0)
(0.00105955 -7.9918e-07 0)
(0.00105946 -7.52712e-07 0)