/*--------------------------------*- C++ -*----------------------------------*\
| =========                 |                                                 |
| \\      /  F ield         | OpenFOAM: The Open Source CFD Toolbox           |
|  \\    /   O peration     | Version:  2312                                  |
|   \\  /    A nd           | Website:  www.openfoam.com                      |
|    \\/     M anipulation  |                                                 |
\*---------------------------------------------------------------------------*/
FoamFile
{
    version     2.0;
    format      ascii;
    arch        "LSB;label=32;scalar=64";
    class       volVectorField;
    location    "26000";
    object      U;
}
// * * * * * * * * * * * * * * * * * * * * * * * * * * * * * * * * * * * * * //

dimensions      [0 1 -1 0 0 0 0];

internalField   nonuniform List<vector> 
10800
(
(0.000992484 4.94176e-06 0)
(0.000990039 1.24573e-05 0)
(0.000986873 1.74783e-05 0)
(0.000980502 2.06617e-05 0)
(0.00097109 2.27444e-05 0)
(0.000959802 2.42376e-05 0)
(0.000947703 2.53761e-05 0)
(0.000935329 2.62349e-05 0)
(0.000922823 2.6838e-05 0)
(0.000910162 2.72106e-05 0)
(0.000897302 2.73904e-05 0)
(0.000884238 2.74203e-05 0)
(0.000871009 2.73383e-05 0)
(0.000857668 2.71723e-05 0)
(0.000844268 2.69406e-05 0)
(0.000830846 2.66547e-05 0)
(0.00081743 2.63228e-05 0)
(0.000804036 2.59513e-05 0)
(0.000790681 2.55456e-05 0)
(0.00077738 2.51107e-05 0)
(0.000764148 2.46502e-05 0)
(0.000751 2.41673e-05 0)
(0.000737952 2.36639e-05 0)
(0.000725017 2.31419e-05 0)
(0.000712209 2.26022e-05 0)
(0.00069954 2.20463e-05 0)
(0.000687024 2.14741e-05 0)
(0.000674673 2.08872e-05 0)
(0.0006625 2.0285e-05 0)
(0.000650518 1.96691e-05 0)
(0.000638741 1.90381e-05 0)
(0.00062718 1.83945e-05 0)
(0.00061585 1.77358e-05 0)
(0.000604761 1.7066e-05 0)
(0.000593931 1.63806e-05 0)
(0.000583365 1.56862e-05 0)
(0.000573088 1.49752e-05 0)
(0.000563098 1.42586e-05 0)
(0.000553425 1.35234e-05 0)
(0.00054406 1.2788e-05 0)
(0.000535048 1.20301e-05 0)
(0.000526354 1.12807e-05 0)
(0.000518059 1.05012e-05 0)
(0.000510074 9.74358e-06 0)
(0.000502561 8.94256e-06 0)
(0.000495307 8.185e-06 0)
(0.000488667 7.35952e-06 0)
(0.000482118 6.60866e-06 0)
(0.000476521 5.751e-06 0)
(0.000470522 5.00625e-06 0)
(0.000466364 4.11422e-06 0)
(0.000460382 3.32814e-06 0)
(0.00045875 2.44659e-06 0)
(0.000451098 1.36044e-06 0)
(0.000455174 8.28962e-07 0)
(0.000440705 -1.61811e-06 0)
(0.000459808 -1.49435e-07 0)
(0.000423605 -7.95336e-06 0)
(0.000482696 1.89094e-06 0)
(0.000387768 -2.4238e-05 0)
(0.00100003 5.80178e-06 0)
(0.00100172 1.49913e-05 0)
(0.00100423 2.15208e-05 0)
(0.00100706 2.60825e-05 0)
(0.00100979 2.94392e-05 0)
(0.00101219 3.2119e-05 0)
(0.00101422 3.43695e-05 0)
(0.00101589 3.62772e-05 0)
(0.00101727 3.78747e-05 0)
(0.00101838 3.91926e-05 0)
(0.00101923 4.02722e-05 0)
(0.00101982 4.11593e-05 0)
(0.00102015 4.18944e-05 0)
(0.00102021 4.25075e-05 0)
(0.00102002 4.30187e-05 0)
(0.0010196 4.34404e-05 0)
(0.00101895 4.37814e-05 0)
(0.00101809 4.40483e-05 0)
(0.00101703 4.42467e-05 0)
(0.00101577 4.43811e-05 0)
(0.00101434 4.44552e-05 0)
(0.00101274 4.44715e-05 0)
(0.00101098 4.4432e-05 0)
(0.00100906 4.43377e-05 0)
(0.00100701 4.41897e-05 0)
(0.00100481 4.39877e-05 0)
(0.00100251 4.37326e-05 0)
(0.00100007 4.34234e-05 0)
(0.000997565 4.30613e-05 0)
(0.000994922 4.26436e-05 0)
(0.000992246 4.21734e-05 0)
(0.000989428 4.16454e-05 0)
(0.000986634 4.10656e-05 0)
(0.000983671 4.04245e-05 0)
(0.000980811 3.97343e-05 0)
(0.000977726 3.89771e-05 0)
(0.000974866 3.81766e-05 0)
(0.000971671 3.72997e-05 0)
(0.000968894 3.6391e-05 0)
(0.000965579 3.53894e-05 0)
(0.000963 3.43781e-05 0)
(0.000959521 3.32442e-05 0)
(0.000957305 3.21412e-05 0)
(0.000953552 3.08616e-05 0)
(0.000951954 2.96864e-05 0)
(0.000947704 2.82369e-05 0)
(0.000947128 2.70237e-05 0)
(0.000941961 2.53593e-05 0)
(0.000943071 2.41662e-05 0)
(0.000936218 2.22046e-05 0)
(0.000940123 2.11303e-05 0)
(0.000930211 1.87248e-05 0)
(0.00093878 1.79329e-05 0)
(0.000923381 1.4833e-05 0)
(0.000939775 1.45797e-05 0)
(0.00091463 1.03974e-05 0)
(0.000944221 1.10096e-05 0)
(0.000901951 5.30847e-06 0)
(0.000954016 6.80052e-06 0)
(0.000882286 -1.4922e-10 0)
(0.000999989 1.96226e-06 0)
(0.00100078 5.76304e-06 0)
(0.00100224 9.28728e-06 0)
(0.00100423 1.24511e-05 0)
(0.00100654 1.52518e-05 0)
(0.00100897 1.77344e-05 0)
(0.00101139 1.99536e-05 0)
(0.00101376 2.19525e-05 0)
(0.00101607 2.37583e-05 0)
(0.00101833 2.53875e-05 0)
(0.00102055 2.68534e-05 0)
(0.00102272 2.81693e-05 0)
(0.00102484 2.93495e-05 0)
(0.00102689 3.04079e-05 0)
(0.00102888 3.1357e-05 0)
(0.0010308 3.22062e-05 0)
(0.00103265 3.29638e-05 0)
(0.00103444 3.36353e-05 0)
(0.00103617 3.42264e-05 0)
(0.00103783 3.47401e-05 0)
(0.00103945 3.5181e-05 0)
(0.00104099 3.55503e-05 0)
(0.0010425 3.5852e-05 0)
(0.00104393 3.60851e-05 0)
(0.00104533 3.62539e-05 0)
(0.00104666 3.6355e-05 0)
(0.00104796 3.63939e-05 0)
(0.00104918 3.63642e-05 0)
(0.00105039 3.62739e-05 0)
(0.0010515 3.61123e-05 0)
(0.00105263 3.58921e-05 0)
(0.00105364 3.55961e-05 0)
(0.0010547 3.52444e-05 0)
(0.0010556 3.48103e-05 0)
(0.00105662 3.43257e-05 0)
(0.0010574 3.37487e-05 0)
(0.00105839 3.31301e-05 0)
(0.00105905 3.24049e-05 0)
(0.00106006 3.16528e-05 0)
(0.00106055 3.0773e-05 0)
(0.00106164 2.98898e-05 0)
(0.00106193 2.88478e-05 0)
(0.00106318 2.7839e-05 0)
(0.0010632 2.66258e-05 0)
(0.00106473 2.55007e-05 0)
(0.00106434 2.41051e-05 0)
(0.00106634 2.28788e-05 0)
(0.00106536 2.12873e-05 0)
(0.00106812 1.99817e-05 0)
(0.00106622 1.81796e-05 0)
(0.00107016 1.68254e-05 0)
(0.00106684 1.48013e-05 0)
(0.0010726 1.3439e-05 0)
(0.00106708 1.11971e-05 0)
(0.00107564 9.87802e-06 0)
(0.00106672 7.47517e-06 0)
(0.00107955 6.26206e-06 0)
(0.0010654 3.89965e-06 0)
(0.00108476 2.82364e-06 0)
(0.00106265 1.00233e-06 0)
(0.00100001 1.74127e-06 0)
(0.00100047 5.1582e-06 0)
(0.00100128 8.4182e-06 0)
(0.00100239 1.14449e-05 0)
(0.00100374 1.41975e-05 0)
(0.00100526 1.6673e-05 0)
(0.00100689 1.88931e-05 0)
(0.00100858 2.08875e-05 0)
(0.00101033 2.26832e-05 0)
(0.00101212 2.4301e-05 0)
(0.00101394 2.57565e-05 0)
(0.00101578 2.70625e-05 0)
(0.00101764 2.82314e-05 0)
(0.00101952 2.92748e-05 0)
(0.0010214 3.02047e-05 0)
(0.00102328 3.10309e-05 0)
(0.00102516 3.17628e-05 0)
(0.00102703 3.24069e-05 0)
(0.00102891 3.29698e-05 0)
(0.00103078 3.34556e-05 0)
(0.00103265 3.3869e-05 0)
(0.00103451 3.42121e-05 0)
(0.00103637 3.44888e-05 0)
(0.00103822 3.46996e-05 0)
(0.00104007 3.48477e-05 0)
(0.00104191 3.49319e-05 0)
(0.00104375 3.49556e-05 0)
(0.00104558 3.49155e-05 0)
(0.00104741 3.4816e-05 0)
(0.00104922 3.46514e-05 0)
(0.00105104 3.44275e-05 0)
(0.00105283 3.41364e-05 0)
(0.00105465 3.37857e-05 0)
(0.00105641 3.33645e-05 0)
(0.00105822 3.28835e-05 0)
(0.00105995 3.2328e-05 0)
(0.00106175 3.17124e-05 0)
(0.00106345 3.10181e-05 0)
(0.00106525 3.02632e-05 0)
(0.00106691 2.94257e-05 0)
(0.00106872 2.85269e-05 0)
(0.00107031 2.75426e-05 0)
(0.00107215 2.64947e-05 0)
(0.00107367 2.53619e-05 0)
(0.00107556 2.41593e-05 0)
(0.00107699 2.28792e-05 0)
(0.00107895 2.15151e-05 0)
(0.00108026 2.00948e-05 0)
(0.00108236 1.85605e-05 0)
(0.0010835 1.7017e-05 0)
(0.0010858 1.53009e-05 0)
(0.00108671 1.36699e-05 0)
(0.00108931 1.17571e-05 0)
(0.0010899 1.01081e-05 0)
(0.00109292 7.97901e-06 0)
(0.00109306 6.43718e-06 0)
(0.00109669 4.05878e-06 0)
(0.00109617 2.82618e-06 0)
(0.00110068 1.1205e-07 0)
(0.00109918 -5.32165e-07 0)
(0.001 1.15275e-06 0)
(0.00100023 3.43075e-06 0)
(0.00100067 5.64314e-06 0)
(0.00100134 7.7582e-06 0)
(0.0010022 9.75455e-06 0)
(0.00100323 1.16219e-05 0)
(0.00100441 1.33589e-05 0)
(0.00100569 1.49695e-05 0)
(0.00100705 1.64598e-05 0)
(0.00100848 1.78359e-05 0)
(0.00100996 1.91031e-05 0)
(0.00101149 2.02664e-05 0)
(0.00101305 2.13304e-05 0)
(0.00101465 2.23e-05 0)
(0.00101627 2.31802e-05 0)
(0.00101791 2.39756e-05 0)
(0.00101956 2.46907e-05 0)
(0.00102123 2.53295e-05 0)
(0.00102291 2.58951e-05 0)
(0.00102459 2.63904e-05 0)
(0.00102629 2.68178e-05 0)
(0.00102799 2.7179e-05 0)
(0.0010297 2.74758e-05 0)
(0.00103141 2.77092e-05 0)
(0.00103313 2.78802e-05 0)
(0.00103485 2.79894e-05 0)
(0.00103657 2.8037e-05 0)
(0.0010383 2.80234e-05 0)
(0.00104003 2.79478e-05 0)
(0.00104176 2.78108e-05 0)
(0.00104349 2.76105e-05 0)
(0.00104523 2.73482e-05 0)
(0.00104696 2.70201e-05 0)
(0.00104869 2.66297e-05 0)
(0.00105043 2.61696e-05 0)
(0.00105216 2.56475e-05 0)
(0.00105389 2.50501e-05 0)
(0.00105561 2.43926e-05 0)
(0.00105733 2.36516e-05 0)
(0.00105905 2.28552e-05 0)
(0.00106076 2.19631e-05 0)
(0.00106247 2.10257e-05 0)
(0.00106417 1.99737e-05 0)
(0.00106587 1.88953e-05 0)
(0.00106755 1.76727e-05 0)
(0.00106925 1.64571e-05 0)
(0.00107091 1.50505e-05 0)
(0.00107262 1.37077e-05 0)
(0.00107425 1.20994e-05 0)
(0.00107599 1.06491e-05 0)
(0.00107759 8.81324e-06 0)
(0.0010794 7.28824e-06 0)
(0.00108097 5.18425e-06 0)
(0.0010829 3.63705e-06 0)
(0.00108446 1.20252e-06 0)
(0.00108662 -2.76832e-07 0)
(0.00108814 -3.12788e-06 0)
(0.00109061 -4.38677e-06 0)
(0.00109197 -7.78908e-06 0)
(0.00109476 -8.61383e-06 0)
(0.001 9.26711e-07 0)
(0.00100017 2.7713e-06 0)
(0.00100051 4.58861e-06 0)
(0.001001 6.35971e-06 0)
(0.00100165 8.06714e-06 0)
(0.00100242 9.69702e-06 0)
(0.00100331 1.12401e-05 0)
(0.0010043 1.26914e-05 0)
(0.00100537 1.40494e-05 0)
(0.00100651 1.53146e-05 0)
(0.0010077 1.64884e-05 0)
(0.00100895 1.75726e-05 0)
(0.00101024 1.85697e-05 0)
(0.00101158 1.9482e-05 0)
(0.00101294 2.03124e-05 0)
(0.00101434 2.10637e-05 0)
(0.00101576 2.17388e-05 0)
(0.0010172 2.23407e-05 0)
(0.00101866 2.28716e-05 0)
(0.00102013 2.33342e-05 0)
(0.00102162 2.373e-05 0)
(0.00102313 2.40612e-05 0)
(0.00102464 2.43288e-05 0)
(0.00102616 2.45344e-05 0)
(0.00102769 2.46784e-05 0)
(0.00102923 2.47622e-05 0)
(0.00103077 2.47851e-05 0)
(0.00103232 2.47489e-05 0)
(0.00103387 2.46516e-05 0)
(0.00103543 2.44955e-05 0)
(0.00103698 2.4277e-05 0)
(0.00103854 2.39997e-05 0)
(0.0010401 2.36575e-05 0)
(0.00104166 2.32567e-05 0)
(0.00104321 2.27871e-05 0)
(0.00104476 2.22594e-05 0)
(0.00104631 2.16572e-05 0)
(0.00104786 2.09989e-05 0)
(0.00104939 2.02577e-05 0)
(0.00105094 1.94648e-05 0)
(0.00105246 1.85769e-05 0)
(0.001054 1.76456e-05 0)
(0.0010555 1.66017e-05 0)
(0.00105704 1.55293e-05 0)
(0.00105852 1.43175e-05 0)
(0.00106007 1.31029e-05 0)
(0.00106152 1.17085e-05 0)
(0.0010631 1.03538e-05 0)
(0.00106452 8.75747e-06 0)
(0.00106615 7.27059e-06 0)
(0.00106752 5.4475e-06 0)
(0.00106924 3.84667e-06 0)
(0.00107054 1.76346e-06 0)
(0.00107237 7.85521e-08 0)
(0.00107358 -2.3226e-06 0)
(0.00107563 -4.05539e-06 0)
(0.00107672 -6.8744e-06 0)
(0.00107912 -8.59967e-06 0)
(0.00107996 -1.19786e-05 0)
(0.00108268 -1.35961e-05 0)
(0.001 7.3231e-07 0)
(0.00100013 2.19029e-06 0)
(0.00100037 3.62866e-06 0)
(0.00100074 5.03471e-06 0)
(0.00100121 6.39702e-06 0)
(0.0010018 7.70625e-06 0)
(0.00100248 8.95549e-06 0)
(0.00100326 1.01402e-05 0)
(0.00100411 1.12579e-05 0)
(0.00100503 1.23073e-05 0)
(0.00100601 1.32883e-05 0)
(0.00100704 1.42012e-05 0)
(0.00100813 1.50468e-05 0)
(0.00100926 1.58259e-05 0)
(0.00101042 1.65394e-05 0)
(0.00101162 1.71887e-05 0)
(0.00101285 1.77748e-05 0)
(0.00101411 1.82993e-05 0)
(0.00101539 1.87631e-05 0)
(0.00101669 1.91676e-05 0)
(0.00101801 1.95136e-05 0)
(0.00101934 1.98022e-05 0)
(0.00102068 2.00338e-05 0)
(0.00102204 2.02094e-05 0)
(0.00102341 2.03286e-05 0)
(0.00102478 2.03927e-05 0)
(0.00102616 2.04004e-05 0)
(0.00102754 2.03532e-05 0)
(0.00102893 2.02489e-05 0)
(0.00103032 2.00893e-05 0)
(0.00103171 1.9871e-05 0)
(0.0010331 1.95969e-05 0)
(0.00103448 1.92614e-05 0)
(0.00103587 1.88695e-05 0)
(0.00103724 1.84123e-05 0)
(0.00103862 1.78984e-05 0)
(0.00103998 1.73138e-05 0)
(0.00104135 1.66727e-05 0)
(0.00104269 1.59534e-05 0)
(0.00104404 1.51794e-05 0)
(0.00104536 1.43164e-05 0)
(0.0010467 1.34032e-05 0)
(0.00104799 1.23858e-05 0)
(0.00104931 1.13268e-05 0)
(0.00105057 1.01411e-05 0)
(0.00105188 8.92977e-06 0)
(0.0010531 7.55849e-06 0)
(0.00105441 6.18881e-06 0)
(0.00105558 4.60868e-06 0)
(0.00105691 3.07539e-06 0)
(0.00105804 1.25445e-06 0)
(0.00105943 -4.44358e-07 0)
(0.00106053 -2.54624e-06 0)
(0.00106202 -4.39826e-06 0)
(0.00106304 -6.82825e-06 0)
(0.00106469 -8.8079e-06 0)
(0.00106559 -1.1646e-05 0)
(0.00106745 -1.37227e-05 0)
(0.00106813 -1.70997e-05 0)
(0.00107016 -1.92167e-05 0)
(0.001 5.83385e-07 0)
(0.0010001 1.74606e-06 0)
(0.00100029 2.89672e-06 0)
(0.00100057 4.02748e-06 0)
(0.00100095 5.13083e-06 0)
(0.00100142 6.20006e-06 0)
(0.00100197 7.22952e-06 0)
(0.00100259 8.21476e-06 0)
(0.00100329 9.15241e-06 0)
(0.00100405 1.00401e-05 0)
(0.00100487 1.08764e-05 0)
(0.00100574 1.16602e-05 0)
(0.00100666 1.2391e-05 0)
(0.00100763 1.30685e-05 0)
(0.00100863 1.36925e-05 0)
(0.00100967 1.4263e-05 0)
(0.00101075 1.47803e-05 0)
(0.00101184 1.52446e-05 0)
(0.00101297 1.56562e-05 0)
(0.00101411 1.60157e-05 0)
(0.00101528 1.63231e-05 0)
(0.00101646 1.6579e-05 0)
(0.00101765 1.67833e-05 0)
(0.00101886 1.69366e-05 0)
(0.00102007 1.70383e-05 0)
(0.00102129 1.7089e-05 0)
(0.00102252 1.70878e-05 0)
(0.00102375 1.70352e-05 0)
(0.00102499 1.69298e-05 0)
(0.00102622 1.67723e-05 0)
(0.00102745 1.65603e-05 0)
(0.00102868 1.62952e-05 0)
(0.00102991 1.59732e-05 0)
(0.00103113 1.55967e-05 0)
(0.00103234 1.516e-05 0)
(0.00103354 1.46672e-05 0)
(0.00103473 1.411e-05 0)
(0.00103592 1.3495e-05 0)
(0.00103708 1.28096e-05 0)
(0.00103824 1.20654e-05 0)
(0.00103937 1.12428e-05 0)
(0.0010405 1.0361e-05 0)
(0.00104159 9.38995e-06 0)
(0.00104269 8.3612e-06 0)
(0.00104374 7.22802e-06 0)
(0.00104481 6.04175e-06 0)
(0.00104582 4.7298e-06 0)
(0.00104687 3.37487e-06 0)
(0.00104781 1.86356e-06 0)
(0.00104885 3.28097e-07 0)
(0.00104973 -1.40935e-06 0)
(0.00105077 -3.13965e-06 0)
(0.00105158 -5.14368e-06 0)
(0.00105266 -7.08769e-06 0)
(0.0010534 -9.41189e-06 0)
(0.00105456 -1.15829e-05 0)
(0.00105518 -1.42929e-05 0)
(0.00105644 -1.66959e-05 0)
(0.00105683 -1.98833e-05 0)
(0.00105811 -2.251e-05 0)
(0.001 4.65929e-07 0)
(0.00100008 1.3951e-06 0)
(0.00100024 2.31626e-06 0)
(0.00100047 3.22404e-06 0)
(0.00100078 4.11316e-06 0)
(0.00100116 4.97873e-06 0)
(0.00100162 5.81637e-06 0)
(0.00100214 6.62235e-06 0)
(0.00100272 7.39354e-06 0)
(0.00100336 8.12743e-06 0)
(0.00100406 8.82196e-06 0)
(0.00100481 9.47552e-06 0)
(0.0010056 1.00868e-05 0)
(0.00100643 1.06551e-05 0)
(0.0010073 1.11795e-05 0)
(0.00100821 1.16598e-05 0)
(0.00100914 1.20955e-05 0)
(0.00101011 1.24866e-05 0)
(0.0010111 1.28329e-05 0)
(0.00101211 1.31344e-05 0)
(0.00101314 1.33911e-05 0)
(0.00101419 1.36029e-05 0)
(0.00101525 1.37696e-05 0)
(0.00101632 1.38912e-05 0)
(0.0010174 1.39674e-05 0)
(0.00101849 1.39981e-05 0)
(0.00101958 1.39826e-05 0)
(0.00102068 1.39209e-05 0)
(0.00102177 1.38119e-05 0)
(0.00102287 1.36554e-05 0)
(0.00102396 1.34501e-05 0)
(0.00102504 1.31957e-05 0)
(0.00102612 1.28903e-05 0)
(0.00102719 1.25338e-05 0)
(0.00102825 1.21233e-05 0)
(0.00102929 1.16593e-05 0)
(0.00103032 1.11375e-05 0)
(0.00103134 1.05592e-05 0)
(0.00103233 9.91845e-06 0)
(0.0010333 9.21783e-06 0)
(0.00103425 8.44852e-06 0)
(0.00103519 7.61568e-06 0)
(0.00103608 6.70621e-06 0)
(0.00103697 5.72924e-06 0)
(0.0010378 4.66517e-06 0)
(0.00103863 3.52956e-06 0)
(0.0010394 2.29272e-06 0)
(0.00104018 9.80855e-07 0)
(0.00104087 -4.51316e-07 0)
(0.0010416 -1.95902e-06 0)
(0.00104221 -3.61118e-06 0)
(0.00104291 -5.33518e-06 0)
(0.00104342 -7.23942e-06 0)
(0.00104408 -9.20875e-06 0)
(0.00104449 -1.14127e-05 0)
(0.00104514 -1.3663e-05 0)
(0.00104541 -1.62246e-05 0)
(0.00104606 -1.87904e-05 0)
(0.00104608 -2.17785e-05 0)
(0.00104664 -2.4686e-05 0)
(0.001 3.68698e-07 0)
(0.00100007 1.10418e-06 0)
(0.0010002 1.83398e-06 0)
(0.0010004 2.55429e-06 0)
(0.00100066 3.26134e-06 0)
(0.00100098 3.95152e-06 0)
(0.00100137 4.62152e-06 0)
(0.00100181 5.26834e-06 0)
(0.00100231 5.88936e-06 0)
(0.00100286 6.48232e-06 0)
(0.00100347 7.04528e-06 0)
(0.00100411 7.57664e-06 0)
(0.0010048 8.07503e-06 0)
(0.00100553 8.5394e-06 0)
(0.00100629 8.96887e-06 0)
(0.00100709 9.36276e-06 0)
(0.00100792 9.72052e-06 0)
(0.00100877 1.00417e-05 0)
(0.00100965 1.03259e-05 0)
(0.00101055 1.05728e-05 0)
(0.00101147 1.07822e-05 0)
(0.0010124 1.09536e-05 0)
(0.00101335 1.10869e-05 0)
(0.0010143 1.11817e-05 0)
(0.00101527 1.12376e-05 0)
(0.00101624 1.12541e-05 0)
(0.00101721 1.12309e-05 0)
(0.00101819 1.11672e-05 0)
(0.00101917 1.10625e-05 0)
(0.00102014 1.09159e-05 0)
(0.0010211 1.07266e-05 0)
(0.00102206 1.04936e-05 0)
(0.00102301 1.02159e-05 0)
(0.00102394 9.89196e-06 0)
(0.00102486 9.52083e-06 0)
(0.00102576 9.10032e-06 0)
(0.00102664 8.62956e-06 0)
(0.0010275 8.10549e-06 0)
(0.00102834 7.52743e-06 0)
(0.00102915 6.89117e-06 0)
(0.00102992 6.19647e-06 0)
(0.00103068 5.43741e-06 0)
(0.00103139 4.6147e-06 0)
(0.00103207 3.71983e-06 0)
(0.0010327 2.75532e-06 0)
(0.00103331 1.7088e-06 0)
(0.00103385 5.86047e-07 0)
(0.00103437 -6.31363e-07 0)
(0.00103481 -1.93148e-06 0)
(0.00103525 -3.34329e-06 0)
(0.00103558 -4.84659e-06 0)
(0.00103592 -6.48558e-06 0)
(0.00103612 -8.22356e-06 0)
(0.00103637 -1.01283e-05 0)
(0.00103642 -1.21373e-05 0)
(0.00103658 -1.43555e-05 0)
(0.00103643 -1.66783e-05 0)
(0.00103649 -1.92678e-05 0)
(0.00103608 -2.19508e-05 0)
(0.00103594 -2.49748e-05 0)
(0.001 2.85717e-07 0)
(0.00100006 8.55765e-07 0)
(0.00100017 1.42173e-06 0)
(0.00100034 1.98087e-06 0)
(0.00100057 2.53046e-06 0)
(0.00100085 3.06785e-06 0)
(0.00100119 3.59056e-06 0)
(0.00100158 4.0963e-06 0)
(0.00100201 4.58298e-06 0)
(0.0010025 5.04877e-06 0)
(0.00100303 5.49205e-06 0)
(0.0010036 5.91137e-06 0)
(0.00100421 6.30553e-06 0)
(0.00100485 6.67347e-06 0)
(0.00100553 7.01429e-06 0)
(0.00100624 7.32722e-06 0)
(0.00100698 7.61162e-06 0)
(0.00100775 7.8669e-06 0)
(0.00100853 8.09257e-06 0)
(0.00100934 8.28815e-06 0)
(0.00101017 8.45325e-06 0)
(0.00101101 8.5874e-06 0)
(0.00101186 8.69026e-06 0)
(0.00101272 8.76129e-06 0)
(0.00101359 8.80017e-06 0)
(0.00101446 8.80621e-06 0)
(0.00101533 8.77911e-06 0)
(0.00101621 8.71794e-06 0)
(0.00101708 8.62242e-06 0)
(0.00101794 8.49126e-06 0)
(0.0010188 8.32427e-06 0)
(0.00101965 8.11963e-06 0)
(0.00102048 7.87737e-06 0)
(0.0010213 7.59488e-06 0)
(0.00102209 7.27261e-06 0)
(0.00102287 6.90683e-06 0)
(0.00102362 6.49874e-06 0)
(0.00102435 6.04287e-06 0)
(0.00102504 5.54184e-06 0)
(0.0010257 4.98747e-06 0)
(0.00102632 4.38479e-06 0)
(0.00102691 3.7215e-06 0)
(0.00102745 3.00666e-06 0)
(0.00102795 2.22147e-06 0)
(0.00102839 1.38177e-06 0)
(0.00102879 4.58579e-07 0)
(0.00102912 -5.20881e-07 0)
(0.00102941 -1.60164e-06 0)
(0.00102961 -2.73813e-06 0)
(0.00102977 -4.00223e-06 0)
(0.00102983 -5.31889e-06 0)
(0.00102984 -6.80096e-06 0)
(0.00102973 -8.32404e-06 0)
(0.00102959 -1.00665e-05 0)
(0.00102927 -1.18247e-05 0)
(0.00102897 -1.38823e-05 0)
(0.00102842 -1.59075e-05 0)
(0.00102791 -1.83515e-05 0)
(0.00102704 -2.06728e-05 0)
(0.00102625 -2.35879e-05 0)
(0.001 2.12941e-07 0)
(0.00100005 6.37839e-07 0)
(0.00100015 1.05984e-06 0)
(0.00100031 1.47701e-06 0)
(0.00100051 1.8874e-06 0)
(0.00100076 2.28912e-06 0)
(0.00100106 2.68038e-06 0)
(0.00100141 3.05947e-06 0)
(0.0010018 3.42485e-06 0)
(0.00100223 3.77511e-06 0)
(0.00100271 4.10896e-06 0)
(0.00100322 4.42526e-06 0)
(0.00100377 4.723e-06 0)
(0.00100435 5.00126e-06 0)
(0.00100497 5.25926e-06 0)
(0.00100561 5.49626e-06 0)
(0.00100628 5.71167e-06 0)
(0.00100698 5.9049e-06 0)
(0.00100769 6.07548e-06 0)
(0.00100843 6.22288e-06 0)
(0.00100918 6.34673e-06 0)
(0.00100994 6.44652e-06 0)
(0.00101072 6.52193e-06 0)
(0.0010115 6.57238e-06 0)
(0.00101229 6.59761e-06 0)
(0.00101309 6.59689e-06 0)
(0.00101388 6.57002e-06 0)
(0.00101467 6.51602e-06 0)
(0.00101546 6.43479e-06 0)
(0.00101623 6.32496e-06 0)
(0.001017 6.18665e-06 0)
(0.00101776 6.01789e-06 0)
(0.00101849 5.81914e-06 0)
(0.00101921 5.58757e-06 0)
(0.00101991 5.3243e-06 0)
(0.00102058 5.0251e-06 0)
(0.00102122 4.69228e-06 0)
(0.00102183 4.31949e-06 0)
(0.0010224 3.91101e-06 0)
(0.00102294 3.4572e-06 0)
(0.00102343 2.96566e-06 0)
(0.00102388 2.42161e-06 0)
(0.00102427 1.83814e-06 0)
(0.00102461 1.19233e-06 0)
(0.00102489 5.06354e-07 0)
(0.00102511 -2.55712e-07 0)
(0.00102526 -1.05687e-06 0)
(0.00102534 -1.95371e-06 0)
(0.00102533 -2.88605e-06 0)
(0.00102524 -3.943e-06 0)
(0.00102505 -5.02488e-06 0)
(0.00102478 -6.27332e-06 0)
(0.00102438 -7.52499e-06 0)
(0.0010239 -9.00608e-06 0)
(0.00102325 -1.04497e-05 0)
(0.00102253 -1.22185e-05 0)
(0.00102159 -1.38766e-05 0)
(0.00102059 -1.60063e-05 0)
(0.00101928 -1.78947e-05 0)
(0.00101791 -2.04772e-05 0)
(0.001 1.47368e-07 0)
(0.00100005 4.41443e-07 0)
(0.00100014 7.33578e-07 0)
(0.00100028 1.02247e-06 0)
(0.00100046 1.30683e-06 0)
(0.0010007 1.58537e-06 0)
(0.00100097 1.85687e-06 0)
(0.00100129 2.12018e-06 0)
(0.00100165 2.37421e-06 0)
(0.00100205 2.61797e-06 0)
(0.00100248 2.85055e-06 0)
(0.00100295 3.0711e-06 0)
(0.00100346 3.27889e-06 0)
(0.001004 3.47321e-06 0)
(0.00100457 3.65346e-06 0)
(0.00100516 3.81907e-06 0)
(0.00100578 3.96956e-06 0)
(0.00100643 4.10445e-06 0)
(0.00100709 4.22335e-06 0)
(0.00100777 4.32582e-06 0)
(0.00100847 4.41156e-06 0)
(0.00100918 4.48011e-06 0)
(0.00100989 4.53124e-06 0)
(0.00101062 4.56444e-06 0)
(0.00101135 4.57951e-06 0)
(0.00101208 4.57583e-06 0)
(0.00101281 4.55328e-06 0)
(0.00101354 4.51101e-06 0)
(0.00101426 4.44902e-06 0)
(0.00101497 4.36614e-06 0)
(0.00101567 4.26256e-06 0)
(0.00101636 4.1366e-06 0)
(0.00101702 3.98882e-06 0)
(0.00101766 3.81674e-06 0)
(0.00101828 3.62157e-06 0)
(0.00101887 3.39961e-06 0)
(0.00101943 3.15318e-06 0)
(0.00101995 2.87666e-06 0)
(0.00102043 2.57426e-06 0)
(0.00102086 2.23735e-06 0)
(0.00102125 1.87328e-06 0)
(0.00102159 1.46871e-06 0)
(0.00102187 1.03613e-06 0)
(0.00102208 5.54736e-07 0)
(0.00102223 4.55115e-08 0)
(0.00102231 -5.24247e-07 0)
(0.0010223 -1.11977e-06 0)
(0.00102221 -1.79329e-06 0)
(0.00102203 -2.48742e-06 0)
(0.00102175 -3.28493e-06 0)
(0.00102135 -4.09122e-06 0)
(0.00102085 -5.03838e-06 0)
(0.00102021 -5.97157e-06 0)
(0.00101945 -7.10282e-06 0)
(0.00101852 -8.17878e-06 0)
(0.00101746 -9.54088e-06 0)
(0.00101619 -1.07743e-05 0)
(0.00101478 -1.24305e-05 0)
(0.0010131 -1.38285e-05 0)
(0.00101125 -1.58605e-05 0)
(0.001 8.6604e-08 0)
(0.00100005 2.59428e-07 0)
(0.00100013 4.31134e-07 0)
(0.00100026 6.00971e-07 0)
(0.00100044 7.68192e-07 0)
(0.00100065 9.32058e-07 0)
(0.00100091 1.09186e-06 0)
(0.00100121 1.24691e-06 0)
(0.00100155 1.3966e-06 0)
(0.00100193 1.54031e-06 0)
(0.00100234 1.6775e-06 0)
(0.00100279 1.80768e-06 0)
(0.00100326 1.93037e-06 0)
(0.00100377 2.04515e-06 0)
(0.00100431 2.15164e-06 0)
(0.00100487 2.24949e-06 0)
(0.00100546 2.33838e-06 0)
(0.00100607 2.418e-06 0)
(0.0010067 2.4881e-06 0)
(0.00100735 2.5484e-06 0)
(0.00100801 2.59869e-06 0)
(0.00100868 2.63868e-06 0)
(0.00100936 2.66821e-06 0)
(0.00101004 2.68695e-06 0)
(0.00101073 2.69476e-06 0)
(0.00101143 2.69124e-06 0)
(0.00101212 2.67632e-06 0)
(0.0010128 2.64943e-06 0)
(0.00101348 2.61059e-06 0)
(0.00101414 2.55903e-06 0)
(0.0010148 2.49491e-06 0)
(0.00101543 2.41708e-06 0)
(0.00101605 2.32601e-06 0)
(0.00101664 2.21999e-06 0)
(0.0010172 2.09994e-06 0)
(0.00101773 1.96332e-06 0)
(0.00101823 1.81184e-06 0)
(0.00101869 1.64165e-06 0)
(0.00101911 1.45576e-06 0)
(0.00101947 1.24826e-06 0)
(0.00101979 1.02438e-06 0)
(0.00102005 7.74914e-07 0)
(0.00102025 5.08733e-07 0)
(0.00102038 2.11433e-07 0)
(0.00102043 -1.0215e-07 0)
(0.00102041 -4.54717e-07 0)
(0.0010203 -8.21775e-07 0)
(0.00102009 -1.23966e-06 0)
(0.00101978 -1.6679e-06 0)
(0.00101937 -2.16421e-06 0)
(0.00101883 -2.66197e-06 0)
(0.00101816 -3.2536e-06 0)
(0.00101735 -3.82994e-06 0)
(0.00101639 -4.53972e-06 0)
(0.00101526 -5.20409e-06 0)
(0.00101396 -6.06332e-06 0)
(0.00101245 -6.82392e-06 0)
(0.00101075 -7.87547e-06 0)
(0.00100879 -8.73479e-06 0)
(0.0010066 -1.00351e-05 0)
(0.001 2.86038e-08 0)
(0.00100004 8.56834e-08 0)
(0.00100013 1.42394e-07 0)
(0.00100026 1.98492e-07 0)
(0.00100042 2.53733e-07 0)
(0.00100063 3.07874e-07 0)
(0.00100089 3.60683e-07 0)
(0.00100118 4.11936e-07 0)
(0.0010015 4.61425e-07 0)
(0.00100187 5.08953e-07 0)
(0.00100227 5.54338e-07 0)
(0.0010027 5.97411e-07 0)
(0.00100317 6.38018e-07 0)
(0.00100366 6.76013e-07 0)
(0.00100419 7.1127e-07 0)
(0.00100473 7.43663e-07 0)
(0.0010053 7.7309e-07 0)
(0.0010059 7.9944e-07 0)
(0.00100651 8.22631e-07 0)
(0.00100714 8.42561e-07 0)
(0.00100778 8.5916e-07 0)
(0.00100843 8.72325e-07 0)
(0.00100909 8.82003e-07 0)
(0.00100976 8.88073e-07 0)
(0.00101043 8.90497e-07 0)
(0.0010111 8.89125e-07 0)
(0.00101177 8.83941e-07 0)
(0.00101243 8.74742e-07 0)
(0.00101309 8.61545e-07 0)
(0.00101373 8.44069e-07 0)
(0.00101436 8.22384e-07 0)
(0.00101497 7.96085e-07 0)
(0.00101556 7.65341e-07 0)
(0.00101612 7.29551e-07 0)
(0.00101666 6.89056e-07 0)
(0.00101717 6.42952e-07 0)
(0.00101763 5.91867e-07 0)
(0.00101806 5.34424e-07 0)
(0.00101844 4.71734e-07 0)
(0.00101878 4.01679e-07 0)
(0.00101906 3.2617e-07 0)
(0.00101928 2.41915e-07 0)
(0.00101943 1.52149e-07 0)
(0.00101952 5.17006e-08 0)
(0.00101953 -5.40452e-08 0)
(0.00101945 -1.7331e-07 0)
(0.00101928 -2.97301e-07 0)
(0.00101902 -4.38947e-07 0)
(0.00101865 -5.83692e-07 0)
(0.00101816 -7.52159e-07 0)
(0.00101754 -9.20449e-07 0)
(0.00101679 -1.12164e-06 0)
(0.00101589 -1.31654e-06 0)
(0.00101483 -1.55845e-06 0)
(0.0010136 -1.78311e-06 0)
(0.00101217 -2.07674e-06 0)
(0.00101054 -2.33379e-06 0)
(0.00100868 -2.69431e-06 -3.64555e-38)
(0.00100657 -2.98425e-06 0)
(0.00100421 -3.43179e-06 0)
(0.001 -2.84942e-08 0)
(0.00100004 -8.53617e-08 0)
(0.00100013 -1.41869e-07 0)
(0.00100026 -1.97771e-07 0)
(0.00100042 -2.52822e-07 0)
(0.00100063 -3.06779e-07 0)
(0.00100089 -3.5941e-07 0)
(0.00100118 -4.10492e-07 0)
(0.0010015 -4.59815e-07 0)
(0.00100187 -5.07183e-07 0)
(0.00100227 -5.52415e-07 0)
(0.0010027 -5.9534e-07 0)
(0.00100317 -6.35803e-07 0)
(0.00100366 -6.7366e-07 0)
(0.00100419 -7.08783e-07 0)
(0.00100473 -7.41047e-07 0)
(0.0010053 -7.7035e-07 0)
(0.0010059 -7.9658e-07 0)
(0.00100651 -8.19655e-07 0)
(0.00100714 -8.39472e-07 0)
(0.00100778 -8.55963e-07 0)
(0.00100843 -8.69024e-07 0)
(0.00100909 -8.78599e-07 0)
(0.00100976 -8.84569e-07 0)
(0.00101043 -8.86896e-07 0)
(0.0010111 -8.8543e-07 0)
(0.00101177 -8.80152e-07 0)
(0.00101243 -8.70863e-07 0)
(0.00101309 -8.57575e-07 0)
(0.00101373 -8.40008e-07 0)
(0.00101436 -8.18233e-07 0)
(0.00101497 -7.91844e-07 0)
(0.00101556 -7.61009e-07 0)
(0.00101613 -7.25128e-07 0)
(0.00101666 -6.84539e-07 0)
(0.00101717 -6.38341e-07 0)
(0.00101763 -5.87158e-07 0)
(0.00101806 -5.29615e-07 0)
(0.00101844 -4.6682e-07 0)
(0.00101878 -3.96656e-07 0)
(0.00101906 -3.21033e-07 0)
(0.00101928 -2.3666e-07 0)
(0.00101943 -1.46767e-07 0)
(0.00101952 -4.61864e-08 0)
(0.00101953 5.97029e-08 0)
(0.00101945 1.79114e-07 0)
(0.00101928 3.03254e-07 0)
(0.00101902 4.45055e-07 0)
(0.00101865 5.89965e-07 0)
(0.00101816 7.5861e-07 0)
(0.00101754 9.27091e-07 0)
(0.00101679 1.12848e-06 0)
(0.00101589 1.3236e-06 0)
(0.00101483 1.56574e-06 0)
(0.0010136 1.79064e-06 0)
(0.00101217 2.08453e-06 0)
(0.00101054 2.34186e-06 0)
(0.00100868 2.70268e-06 3.64555e-38)
(0.00100657 2.99294e-06 0)
(0.00100421 3.44079e-06 0)
(0.001 -8.64954e-08 0)
(0.00100005 -2.59109e-07 0)
(0.00100013 -4.30613e-07 0)
(0.00100026 -6.00257e-07 0)
(0.00100044 -7.6729e-07 0)
(0.00100065 -9.30973e-07 0)
(0.00100091 -1.0906e-06 0)
(0.00100121 -1.24548e-06 0)
(0.00100155 -1.395e-06 0)
(0.00100193 -1.53855e-06 0)
(0.00100234 -1.6756e-06 0)
(0.00100279 -1.80563e-06 0)
(0.00100326 -1.92818e-06 0)
(0.00100377 -2.04282e-06 0)
(0.00100431 -2.14918e-06 0)
(0.00100488 -2.2469e-06 0)
(0.00100546 -2.33567e-06 0)
(0.00100607 -2.41517e-06 0)
(0.0010067 -2.48516e-06 0)
(0.00100735 -2.54534e-06 0)
(0.00100801 -2.59553e-06 0)
(0.00100868 -2.63542e-06 0)
(0.00100936 -2.66485e-06 0)
(0.00101004 -2.68348e-06 0)
(0.00101073 -2.6912e-06 0)
(0.00101143 -2.68759e-06 0)
(0.00101212 -2.67257e-06 0)
(0.0010128 -2.64559e-06 0)
(0.00101348 -2.60667e-06 0)
(0.00101414 -2.55501e-06 0)
(0.0010148 -2.49081e-06 0)
(0.00101543 -2.41289e-06 0)
(0.00101605 -2.32173e-06 0)
(0.00101664 -2.21562e-06 0)
(0.0010172 -2.09548e-06 0)
(0.00101773 -1.95876e-06 0)
(0.00101823 -1.80719e-06 0)
(0.00101869 -1.63689e-06 0)
(0.00101911 -1.45091e-06 0)
(0.00101947 -1.2433e-06 0)
(0.00101979 -1.01931e-06 0)
(0.00102005 -7.69727e-07 0)
(0.00102025 -5.03428e-07 0)
(0.00102038 -2.06003e-07 0)
(0.00102043 1.07706e-07 0)
(0.00102041 4.60411e-07 0)
(0.0010203 8.2762e-07 0)
(0.00102009 1.24567e-06 0)
(0.00101979 1.67407e-06 0)
(0.00101937 2.17056e-06 0)
(0.00101883 2.66851e-06 0)
(0.00101816 3.26034e-06 0)
(0.00101735 3.83688e-06 0)
(0.00101639 4.54689e-06 0)
(0.00101526 5.21149e-06 0)
(0.00101396 6.07098e-06 0)
(0.00101245 6.83186e-06 0)
(0.00101075 7.88369e-06 0)
(0.00100879 8.74332e-06 0)
(0.0010066 1.00439e-05 0)
(0.001 -1.47262e-07 0)
(0.00100005 -4.41131e-07 0)
(0.00100014 -7.33069e-07 0)
(0.00100028 -1.02177e-06 0)
(0.00100046 -1.30595e-06 0)
(0.0010007 -1.58431e-06 0)
(0.00100097 -1.85564e-06 0)
(0.00100129 -2.11878e-06 0)
(0.00100165 -2.37265e-06 0)
(0.00100205 -2.61626e-06 0)
(0.00100248 -2.84869e-06 0)
(0.00100296 -3.0691e-06 0)
(0.00100346 -3.27675e-06 0)
(0.001004 -3.47093e-06 0)
(0.00100457 -3.65106e-06 0)
(0.00100516 -3.81654e-06 0)
(0.00100578 -3.96691e-06 0)
(0.00100643 -4.10168e-06 0)
(0.00100709 -4.22047e-06 0)
(0.00100777 -4.32283e-06 0)
(0.00100847 -4.40847e-06 0)
(0.00100918 -4.47692e-06 0)
(0.0010099 -4.52795e-06 0)
(0.00101062 -4.56105e-06 0)
(0.00101135 -4.57604e-06 0)
(0.00101208 -4.57226e-06 0)
(0.00101281 -4.54962e-06 0)
(0.00101354 -4.50727e-06 0)
(0.00101426 -4.44519e-06 0)
(0.00101497 -4.36222e-06 0)
(0.00101567 -4.25856e-06 0)
(0.00101636 -4.13251e-06 0)
(0.00101702 -3.98464e-06 0)
(0.00101766 -3.81247e-06 0)
(0.00101828 -3.61722e-06 0)
(0.00101887 -3.39516e-06 0)
(0.00101943 -3.14864e-06 0)
(0.00101995 -2.87203e-06 0)
(0.00102043 -2.56953e-06 0)
(0.00102087 -2.23252e-06 0)
(0.00102125 -1.86834e-06 0)
(0.00102159 -1.46366e-06 0)
(0.00102187 -1.03097e-06 0)
(0.00102208 -5.49455e-07 0)
(0.00102223 -4.01068e-08 0)
(0.00102231 5.29783e-07 0)
(0.0010223 1.12545e-06 0)
(0.00102221 1.79912e-06 0)
(0.00102203 2.49342e-06 0)
(0.00102175 3.2911e-06 0)
(0.00102136 4.09756e-06 0)
(0.00102085 5.04491e-06 0)
(0.00102021 5.9783e-06 0)
(0.00101945 7.10976e-06 0)