/*--------------------------------*- C++ -*----------------------------------*\
| =========                 |                                                 |
| \\      /  F ield         | OpenFOAM: The Open Source CFD Toolbox           |
|  \\    /   O peration     | Version:  2312                                  |
|   \\  /    A nd           | Website:  www.openfoam.com                      |
|    \\/     M anipulation  |                                                 |
\*---------------------------------------------------------------------------*/
FoamFile
{
    version     2.0;
    format      ascii;
    arch        "LSB;label=32;scalar=64";
    class       surfaceScalarField;
    location    "101000";
    object      phi;
}
// * * * * * * * * * * * * * * * * * * * * * * * * * * * * * * * * * * * * * //

dimensions      [0 3 -1 0 0 0 0];

oriented        oriented;

internalField   nonuniform List<scalar> 
21240
(
0.000664974
1.69238e-06
0.000661072
3.90275e-06
0.00065575
5.32142e-06
0.000649513
6.23715e-06
0.000642637
6.87604e-06
0.000635264
7.37278e-06
0.000627486
7.77784e-06
0.000619382
8.10428e-06
0.000611024
8.3581e-06
0.000602476
8.54828e-06
0.000593789
8.68713e-06
0.000585002
8.78695e-06
0.000576144
8.85736e-06
0.00056724
8.90468e-06
0.000558307
8.93273e-06
0.000549363
8.94396e-06
0.000540423
8.94021e-06
0.0005315
8.92305e-06
0.000522606
8.89378e-06
0.000513752
8.8535e-06
0.000504949
8.80301e-06
0.000496206
8.74292e-06
0.000487533
8.67363e-06
0.000478937
8.59544e-06
0.000470429
8.50858e-06
0.000462016
8.41317e-06
0.000453706
8.30936e-06
0.000445509
8.19713e-06
0.000437432
8.07663e-06
0.000429485
7.9477e-06
0.000421674
7.81058e-06
0.000414009
7.66491e-06
0.000406498
7.51119e-06
0.000399149
7.34868e-06
0.000391971
7.17845e-06
0.000384972
6.99898e-06
0.000378159
6.81247e-06
0.000371544
6.61595e-06
0.00036513
6.41366e-06
0.00035893
6.19992e-06
0.000352947
5.98274e-06
0.000347196
5.75138e-06
0.000341675
5.52077e-06
0.000336404
5.27081e-06
0.000331375
5.02906e-06
0.000326617
4.75817e-06
0.000322108
4.50887e-06
0.000317896
4.21191e-06
0.000313935
3.9608e-06
0.000310309
3.62636e-06
0.000306925
3.38375e-06
0.00030394
2.98545e-06
0.000301166
2.77427e-06
0.000298921
2.24434e-06
0.000296797
2.12462e-06
0.000295547
1.25009e-06
0.000294064
1.48302e-06
0.000294268
-2.04787e-07
0.000293102
1.16598e-06
-3.19673e-06
0.000296299
0.000667556
8.03181e-07
0.00066912
2.33854e-06
0.000670853
3.58852e-06
0.000672523
4.56691e-06
0.000674051
5.34812e-06
0.000675423
6.00092e-06
0.000676634
6.56695e-06
0.000677674
7.06462e-06
0.000678531
7.50097e-06
0.000679199
7.88045e-06
0.000679677
8.20868e-06
0.000679971
8.49257e-06
0.00068009
8.73915e-06
0.00068004
8.95426e-06
0.00067983
9.14223e-06
0.000679468
9.30599e-06
0.000678961
9.44769e-06
0.000678315
9.56888e-06
0.000677538
9.67103e-06
0.000676636
9.7552e-06
0.000675617
9.82249e-06
0.000674486
9.87347e-06
0.000673251
9.90897e-06
0.000671917
9.92904e-06
0.000670491
9.93443e-06
0.00066898
9.92472e-06
0.000667388
9.90082e-06
0.000665724
9.86178e-06
0.000663991
9.80889e-06
0.000662199
9.74046e-06
0.000660351
9.65859e-06
0.000658455
9.5604e-06
0.000656517
9.44939e-06
0.000654545
9.32082e-06
0.000652543
9.18056e-06
0.000650521
9.0208e-06
0.000648482
8.85138e-06
0.000646439
8.65939e-06
0.000644391
8.46128e-06
0.000642355
8.23572e-06
0.000640328
8.01003e-06
0.00063833
7.74896e-06
0.000636353
7.4978e-06
0.000634426
7.19823e-06
0.00063253
6.92527e-06
0.000630705
6.58239e-06
0.000628921
6.29373e-06
0.000627233
5.89961e-06
0.000625588
5.60526e-06
0.000624068
5.14698e-06
0.000622588
4.86333e-06
0.000621253
4.32035e-06
0.000619954
4.0739e-06
0.000618783
3.41532e-06
0.00061766
3.24716e-06
0.000616477
2.43321e-06
0.000615561
2.39878e-06
0.000613945
1.411e-06
0.000613551
1.56057e-06
4.67246e-07
0.000609887
0.000666951
5.19009e-07
0.000667818
1.47121e-06
0.000669058
2.34903e-06
0.000670482
3.14257e-06
0.000671982
3.84767e-06
0.000673511
4.47196e-06
0.000675051
5.02769e-06
0.000676589
5.52595e-06
0.000678116
5.97456e-06
0.000679618
6.37842e-06
0.000681085
6.74106e-06
0.000682512
7.06576e-06
0.000683895
7.35605e-06
0.000685234
7.61537e-06
0.000686529
7.84704e-06
0.000687782
8.05364e-06
0.000688992
8.23744e-06
0.000690161
8.39995e-06
0.000691289
8.54269e-06
0.000692378
8.66654e-06
0.000693428
8.77267e-06
0.00069444
8.86151e-06
0.000695415
8.93405e-06
0.000696353
8.99021e-06
0.000697257
9.03097e-06
0.000698126
9.05571e-06
0.000698961
9.06557e-06
0.000699764
9.05931e-06
0.000700534
9.03851e-06
0.000701273
9.00112e-06
0.000701983
8.94945e-06
0.000702663
8.88035e-06
0.000703315
8.79735e-06
0.00070394
8.69565e-06
0.00070454
8.58071e-06
0.000705115
8.44531e-06
0.000705669
8.29781e-06
0.000706201
8.12745e-06
0.000706715
7.94686e-06
0.000707211
7.74018e-06
0.000707694
7.5262e-06
0.000708162
7.28172e-06
0.000708625
7.03438e-06
0.000709073
6.75064e-06
0.000709528
6.47043e-06
0.000709964
6.14609e-06
0.000710423
5.83406e-06
0.000710855
5.46817e-06
0.000711334
5.12597e-06
0.000711763
4.71851e-06
0.000712278
4.34811e-06
0.000712697
3.90113e-06
0.000713267
3.50439e-06
0.000713657
3.02524e-06
0.0007143
2.60352e-06
0.000714621
2.11253e-06
0.000715354
1.66593e-06
0.000715552
1.21313e-06
0.000716382
7.30459e-07
4.17456e-07
0.000716432
0.000666854
3.31947e-07
0.000667308
1.0167e-06
0.000667971
1.68614e-06
0.000668794
2.31954e-06
0.000669734
2.90771e-06
0.000670758
3.44774e-06
0.000671845
3.94118e-06
0.000672979
4.39169e-06
0.00067415
4.80319e-06
0.00067535
5.17889e-06
0.00067657
5.52132e-06
0.000677803
5.83251e-06
0.000679045
6.11446e-06
0.000680291
6.36913e-06
0.000681539
6.59856e-06
0.000682788
6.80455e-06
0.000684037
6.98881e-06
0.000685284
7.15264e-06
0.00068653
7.29727e-06
0.000687773
7.42353e-06
0.000689013
7.53231e-06
0.00069025
7.62413e-06
0.000691485
7.69967e-06
0.000692716
7.75917e-06
0.000693944
7.80314e-06
0.000695168
7.83157e-06
0.000696389
7.84486e-06
0.000697605
7.84277e-06
0.000698818
7.82563e-06
0.000700026
7.79302e-06
0.00070123
7.74522e-06
0.000702429
7.68168e-06
0.000703624
7.6026e-06
0.000704812
7.50743e-06
0.000705997
7.39616e-06
0.000707173
7.26847e-06
0.000708347
7.12387e-06
0.000709512
6.96271e-06
0.000710676
6.78342e-06
0.000711828
6.58786e-06
0.000712982
6.37231e-06
0.000714122
6.14165e-06
0.000715268
5.888e-06
0.000716397
5.62195e-06
0.000717539
5.32792e-06
0.000718658
5.02697e-06
0.000719803
4.68967e-06
0.000720915
4.35573e-06
0.00072207
3.97148e-06
0.000723179
3.60921e-06
0.000724354
3.17351e-06
0.000725462
2.79238e-06
0.000726667
2.29939e-06
0.000727776
1.91624e-06
0.000729023
1.35729e-06
0.000730135
1.00005e-06
0.000731438
3.63468e-07
0.000732571
7.98225e-08
0.000734008
-7.07097e-07
-8.73842e-07
0.0007353
0.000666738
2.60273e-07
0.000666969
7.85669e-07
0.000667355
1.30022e-06
0.000667878
1.7969e-06
0.000668516
2.26982e-06
0.000669248
2.71538e-06
0.000670057
3.13213e-06
0.000670929
3.52015e-06
0.000671852
3.88032e-06
0.000672817
4.21377e-06
0.000673817
4.52157e-06
0.000674844
4.80471e-06
0.000675895
5.06413e-06
0.000676963
5.30081e-06
0.000678046
5.51576e-06
0.00067914
5.71003e-06
0.000680244
5.8846e-06
0.000681357
6.04039e-06
0.000682476
6.17816e-06
0.000683601
6.29864e-06
0.000684731
6.40234e-06
0.000685865
6.48983e-06
0.000687003
6.56141e-06
0.000688145
6.61754e-06
0.00068929
6.6583e-06
0.000690437
6.6841e-06
0.000691587
6.69477e-06
0.000692739
6.69074e-06
0.000693893
6.6715e-06
0.000695049
6.63767e-06
0.000696206
6.58827e-06
0.000697363
6.52432e-06
0.000698522
6.44412e-06
0.00069968
6.34944e-06
0.000700838
6.23745e-06
0.000701996
6.11124e-06
0.000703153
5.96614e-06
0.000704309
5.80748e-06
0.000705464
5.62764e-06
0.000706617
5.43564e-06
0.00070777
5.21906e-06
0.000708918
4.99299e-06
0.000710069
4.73729e-06
0.000711214
4.47686e-06
0.000712363
4.17914e-06
0.000713505
3.88485e-06
0.000714653
3.54145e-06
0.000715794
3.21484e-06
0.000716945
2.82037e-06
0.00071809
2.4641e-06
0.000719254
2.01015e-06
0.000720417
1.62871e-06
0.000721614
1.10256e-06
0.000722827
7.0397e-07
0.000724102
8.16265e-08
0.000725402
-2.9954e-07
0.000726767
-1.0015e-06
0.000728208
-1.36135e-06
0.000729722
-2.22142e-06
-2.53265e-06
0.000731381
0.000666724
2.03051e-07
0.000666899
6.10888e-07
0.000667183
1.01596e-06
0.000667568
1.41173e-06
0.000668043
1.79448e-06
0.000668598
2.16129e-06
0.00066922
2.5101e-06
0.0006699
2.83968e-06
0.000670631
3.14947e-06
0.000671405
3.43933e-06
0.000672218
3.70935e-06
0.000673062
3.95979e-06
0.000673936
4.191e-06
0.000674833
4.40344e-06
0.000675751
4.59756e-06
0.000676687
4.7739e-06
0.000677639
4.93296e-06
0.000678604
5.07529e-06
0.000679581
5.20131e-06
0.000680568
5.31154e-06
0.000681564
5.40625e-06
0.000682568
5.48588e-06
0.000683579
5.55056e-06
0.000684596
5.60069e-06
0.000685618
5.6362e-06
0.000686644
5.6575e-06
0.000687675
5.66427e-06
0.000688709
5.65703e-06
0.000689745
5.6351e-06
0.000690783
5.59923e-06
0.000691823
5.54824e-06
0.000692864
5.48332e-06
0.000693906
5.40258e-06
0.000694948
5.30792e-06
0.000695989
5.19637e-06
0.000697029
5.07103e-06
0.000698068
4.92726e-06
0.000699105
4.77014e-06
0.00070014
4.5924e-06
0.000701174
4.40224e-06
0.000702204
4.18834e-06
0.000703234
3.96386e-06
0.00070426
3.71105e-06
0.000705286
3.45093e-06
0.000706309
3.15569e-06
0.000707335
2.85872e-06
0.00070836
2.51666e-06
0.000709392
2.18246e-06
0.000710424
1.78874e-06
0.000711469
1.41905e-06
0.000712511
9.68569e-07
0.000713571
5.68221e-07
0.000714615
5.89624e-08
0.000715704
-3.85008e-07
0.000716784
-9.98628e-07
0.000717942
-1.4572e-06
0.000719112
-2.17214e-06
0.00072039
-2.63907e-06
0.000721662
-3.49385e-06
-3.94853e-06
0.000723078
0.000666708
1.61399e-07
0.000666833
4.85891e-07
0.00066704
8.09463e-07
0.000667324
1.12755e-06
0.000667681
1.4376e-06
0.000668105
1.73748e-06
0.000668589
2.02548e-06
0.000669129
2.30035e-06
0.000669717
2.56133e-06
0.000670348
2.80809e-06
0.000671018
3.03924e-06
0.000671723
3.2549e-06
0.000672459
3.4552e-06
0.000673222
3.64026e-06
0.000674009
3.81018e-06
0.000674818
3.96516e-06
0.000675646
4.10541e-06
0.00067649
4.23119e-06
0.000677348
4.34268e-06
0.00067822
4.44018e-06
0.000679102
4.5238e-06
0.000679994
4.5938e-06
0.000680895
4.65021e-06
0.000681802
4.69327e-06
0.000682715
4.72288e-06
0.000683634
4.73929e-06
0.000684556
4.74221e-06
0.000685481
4.73198e-06
0.000686408
4.70803e-06
0.000687336
4.67087e-06
0.000688265
4.61957e-06
0.000689193
4.5549e-06
0.00069012
4.47544e-06
0.000691046
4.38242e-06
0.000691969
4.27365e-06
0.000692888
4.15116e-06
0.000693804
4.01159e-06
0.000694716
3.85827e-06
0.000695622
3.68603e-06
0.000696524
3.50025e-06
0.00069742
3.29303e-06
0.000698311
3.07299e-06
0.000699194
2.82802e-06
0.000700073
2.57192e-06
0.000700942
2.28596e-06
0.000701809
1.99196e-06
0.000702665
1.66067e-06
0.000703521
1.32608e-06
0.000704368
9.42317e-07
0.000705224
5.62709e-07
0.000706078
1.14723e-07
0.000706952
-3.05695e-07
0.000707826
-8.15183e-07
0.000708725
-1.28407e-06
0.000709608
-1.88106e-06
0.000710548
-2.39733e-06
0.000711474
-3.09852e-06
0.000712493
-3.65824e-06
0.00071349
-4.49061e-06
-5.08337e-06
0.000714625
0.000666699
1.29435e-07
0.000666795
3.89271e-07
0.000666956
6.48734e-07
0.000667179
9.04617e-07
0.000667461
1.15518e-06
0.0006678
1.39888e-06
0.000668191
1.6344e-06
0.000668631
1.86065e-06
0.000669115
2.07674e-06
0.000669641
2.28194e-06
0.000670205
2.47565e-06
0.000670802
2.65745e-06
0.000671431
2.82712e-06
0.000672086
2.98456e-06
0.000672767
3.1297e-06
0.000673469
3.26253e-06
0.000674192
3.38303e-06
0.000674932
3.49127e-06
0.000675687
3.58728e-06
0.000676456
3.67114e-06
0.000677237
3.74289e-06
0.000678028
3.80262e-06
0.000678828
3.8503e-06
0.000679635
3.88602e-06
0.000680449
3.90966e-06
0.000681267
3.92134e-06
0.000682088
3.92081e-06
0.000682912
3.9082e-06
0.000683737
3.88313e-06
0.000684562
3.84578e-06
0.000685386
3.79554e-06
0.000686208
3.73271e-06
0.000687027
3.65639e-06
0.000687842
3.56709e-06
0.000688652
3.46349e-06
0.000689457
3.34643e-06
0.000690255
3.21398e-06
0.000691046
3.06758e-06
0.000691827
2.90434e-06
0.000692601
2.72668e-06
0.000693364
2.53027e-06
0.000694117
2.31904e-06
0.000694859
2.08651e-06
0.000695592
1.83899e-06
0.000696311
1.56668e-06
0.000697023
1.27977e-06
0.00069772
9.63559e-07
0.000698412
6.34503e-07
0.000699084
2.70859e-07
0.00069975
-1.03735e-07
0.000700397
-5.3226e-07
0.000701055
-9.63742e-07
0.000701695
-1.45479e-06
0.000702353
-1.94284e-06
0.000702985
-2.51291e-06
0.000703653
-3.06529e-06
0.000704285
-3.73068e-06
0.000704979
-4.35153e-06
0.000705619
-5.1314e-06
-5.82103e-06
0.000706357
0.000666693
1.03323e-07
0.000666771
3.10589e-07
0.000666902
5.17697e-07
0.000667085
7.22308e-07
0.000667317
9.2319e-07
0.000667596
1.11922e-06
0.000667921
1.3094e-06
0.000668289
1.49282e-06
0.000668697
1.66873e-06
0.000669143
1.83648e-06
0.000669623
1.99555e-06
0.000670135
2.14551e-06
0.000670676
2.28604e-06
0.000671244
2.41687e-06
0.000671835
2.53783e-06
0.000672449
2.64878e-06
0.000673083
2.74961e-06
0.000673734
2.84025e-06
0.0006744
2.92063e-06
0.000675081
2.99074e-06
0.000675773
3.05051e-06
0.000676476
3.09993e-06
0.000677187
3.13894e-06
0.000677906
3.16751e-06
0.00067863
3.18554e-06
0.000679358
3.193e-06
0.000680089
3.18973e-06
0.000680822
3.17566e-06
0.000681554
3.15057e-06
0.000682286
3.11438e-06
0.000683014
3.06676e-06
0.00068374
3.00762e-06
0.000684459
2.9365e-06
0.000685173
2.85333e-06
0.000685879
2.75747e-06
0.000686577
2.64888e-06
0.000687264
2.52671e-06
0.000687941
2.39099e-06
0.000688604
2.24057e-06
0.000689255
2.07563e-06
0.000689891
1.89459e-06
0.000690512
1.69789e-06
0.000691115
1.48338e-06
0.000691702
1.25192e-06
0.000692269
1.00051e-06
0.000692818
7.30656e-07
0.000693343
4.38151e-07
0.000693852
1.25899e-07
0.000694338
-2.15077e-07
0.000694814
-5.79559e-07
0.000695257
-9.7527e-07
0.000695689
-1.39585e-06
0.000696087
-1.85359e-06
0.000696483
-2.33831e-06
0.000696838
-2.86833e-06
0.000697201
-3.4277e-06
0.000697513
-4.04318e-06
0.000697851
-4.68912e-06
0.000698125
-5.4051e-06
-6.14887e-06
0.000698452
0.000666689
8.1307e-08
0.000666755
2.44329e-07
0.000666865
4.07288e-07
0.000667019
5.68445e-07
0.000667215
7.2691e-07
0.000667453
8.81863e-07
0.00066773
1.03255e-06
0.000668044
1.17828e-06
0.000668395
1.31844e-06
0.000668778
1.45251e-06
0.000669194
1.58003e-06
0.000669639
1.70061e-06
0.000670111
1.8139e-06
0.000670608
1.91964e-06
0.000671129
2.01758e-06
0.00067167
2.10755e-06
0.00067223
2.18939e-06
0.000672807
2.26297e-06
0.0006734
2.32818e-06
0.000674006
2.38491e-06
0.000674623
2.43309e-06
0.00067525
2.47263e-06
0.000675886
2.50345e-06
0.000676528
2.52545e-06
0.000677175
2.53855e-06
0.000677825
2.54262e-06
0.000678477
2.53755e-06
0.00067913
2.52317e-06
0.000679781
2.49936e-06
0.00068043
2.46588e-06
0.000681074
2.42259e-06
0.000681712
2.36915e-06
0.000682343
2.30541e-06
0.000682966
2.23092e-06
0.000683578
2.14553e-06
0.000684178
2.04859e-06
0.000684765
1.94004e-06
0.000685337
1.81896e-06
0.000685892
1.6854e-06
0.000686429
1.53804e-06
0.000686947
1.37723e-06
0.000687444
1.201e-06
0.000687917
1.01024e-06
0.000688367
8.02021e-07
0.000688789
5.78221e-07
0.000689185
3.34546e-07
0.000689548
7.52807e-08
0.000689886
-2.12315e-07
0.00069019
-5.18535e-07
0.000690464
-8.53723e-07
0.000690696
-1.20775e-06
0.000690899
-1.59872e-06
0.000691054
-2.00857e-06
0.000691182
-2.46576e-06
0.000691253
-2.93983e-06
0.000691302
-3.47621e-06
0.000691283
-4.02411e-06
0.000691249
-4.65596e-06
0.000691132
-5.28737e-06
-6.03292e-06
0.000691016
0.000666686
6.22216e-08
0.000666743
1.8693e-07
0.000666839
3.11613e-07
0.000666972
4.34991e-07
0.000667143
5.56423e-07
0.000667349
6.75313e-07
0.000667591
7.91106e-07
0.000667866
9.03289e-07
0.000668173
1.0114e-06
0.00066851
1.11501e-06
0.000668877
1.21376e-06
0.00066927
1.3073e-06
0.000669688
1.39535e-06
0.00067013
1.47765e-06
0.000670594
1.55399e-06
0.000671077
1.62417e-06
0.000671579
1.68803e-06
0.000672096
1.74542e-06
0.000672628
1.79623e-06
0.000673173
1.84032e-06
0.000673728
1.87762e-06
0.000674293
1.90799e-06
0.000674865
1.93136e-06
0.000675443
1.9476e-06
0.000676025
1.95664e-06
0.000676609
1.95831e-06
0.000677194
1.95254e-06
0.000677778
1.93912e-06
0.00067836
1.91798e-06
0.000678937
1.88882e-06
0.000679508
1.85161e-06
0.000680071
1.8059e-06
0.000680625
1.75173e-06
0.000681167
1.68846e-06
0.000681696
1.61624e-06
0.000682211
1.53413e-06
0.000682708
1.44251e-06
0.000683187
1.33999e-06
0.000683645
1.22733e-06
0.000684081
1.10244e-06
0.000684491
9.66767e-07
0.000684875
8.17115e-07
0.000685229
6.5609e-07
0.000685553
4.7879e-07
0.000685841
2.89796e-07
0.000686094
8.1893e-08
0.00068631
-1.40596e-07
0.000686486
-3.88664e-07
0.000686616
-6.48184e-07
0.000686701
-9.38958e-07
0.000686733
-1.23992e-06
0.000686716
-1.58212e-06
0.000686638
-1.93065e-06
0.000686508
-2.335e-06
0.000686306
-2.73776e-06
0.000686048
-3.21818e-06
0.000685706
-3.68213e-06
0.000685306
-4.25681e-06
0.000684807
-4.78777e-06
-5.47886e-06
0.000684253
0.000666684
4.52311e-08
0.000666735
1.35856e-07
0.00066682
2.26465e-07
0.000666939
3.16155e-07
0.000667091
4.04478e-07
0.000667275
4.91017e-07
0.000667491
5.7538e-07
0.000667737
6.57201e-07
0.000668012
7.36144e-07
0.000668315
8.11896e-07
0.000668645
8.84179e-07
0.000668999
9.52734e-07
0.000669377
1.01734e-06
0.000669777
1.07778e-06
0.000670197
1.13388e-06
0.000670636
1.18548e-06
0.000671092
1.23243e-06
0.000671562
1.27461e-06
0.000672047
1.31191e-06
0.000672543
1.34421e-06
0.000673049
1.37142e-06
0.000673564
1.39343e-06
0.000674085
1.41017e-06
0.000674611
1.42151e-06
0.00067514
1.4274e-06
0.000675671
1.42767e-06
0.000676201
1.42229e-06
0.000676729
1.41103e-06
0.000677253
1.39389e-06
0.000677771
1.37055e-06
0.000678282
1.34105e-06
0.000678783
1.30494e-06
0.000679272
1.26235e-06
0.000679748
1.21263e-06
0.000680208
1.15605e-06
0.000680651
1.09166e-06
0.000681073
1.01999e-06
0.000681474
9.3961e-07
0.00068185
8.51529e-07
0.000682198
7.5353e-07
0.000682518
6.4743e-07
0.000682805
5.29811e-07
0.000683057
4.03812e-07
0.000683272
2.64175e-07
0.000683445
1.16382e-07
0.000683576
-4.85983e-08
0.00068366
-2.24292e-07
0.000683692
-4.21124e-07
0.000683669
-6.25006e-07
0.000683587
-8.57293e-07
0.000683441
-1.09408e-06
0.000683229
-1.3693e-06
0.000682941
-1.64362e-06
0.000682578
-1.97138e-06
0.000682128
-2.28813e-06
0.000681591
-2.68129e-06
0.000680954
-3.04523e-06
0.000680219
-3.52097e-06
0.000679366
-3.93507e-06
-4.51515e-06
0.000678402
0.000666682
2.96894e-08
0.000666729
8.91508e-08
0.000666807
1.48594e-07
0.000666916
2.07437e-07
0.000667055
2.65396e-07
0.000667223
3.22203e-07
0.000667421
3.77608e-07
0.000667647
4.31374e-07
0.0006679
4.83281e-07
0.000668179
5.33124e-07
0.000668482
5.80718e-07
0.000668809
6.25888e-07
0.000669158
6.6848e-07
0.000669527
7.08351e-07
0.000669916
7.45375e-07
0.000670322
7.79434e-07
0.000670744
8.1043e-07
0.00067118
8.3826e-07
0.000671629
8.6285e-07
0.000672089
8.84107e-07
0.000672559
9.01971e-07
0.000673036
9.16352e-07
0.000673519
9.27201e-07
0.000674006
9.34417e-07
0.000674495
9.37965e-07
0.000674985
9.37716e-07
0.000675474
9.33653e-07
0.000675959
9.25602e-07
0.00067644
9.13572e-07
0.000676913
8.97319e-07
0.000677377
8.76895e-07
0.00067783
8.51949e-07
0.00067827
8.22612e-07
0.000678694
7.88368e-07
0.000679101
7.49484e-07
0.000679487
7.05188e-07
0.000679851
6.55982e-07
0.00068019
6.00697e-07
0.000680501
5.4023e-07
0.000680782
4.72792e-07
0.000681029
3.99946e-07
0.00068124
3.18929e-07
0.000681412
2.32422e-07
0.00068154
1.36159e-07
0.000681621
3.48666e-08
0.000681653
-8.03864e-08
0.00068163
-2.0106e-07
0.000681546
-3.37625e-07
0.000681399
-4.78045e-07
0.000681182
-6.3989e-07
0.000680891
-8.03148e-07
0.000680518
-9.95796e-07
0.000680059
-1.18497e-06
0.000679503
-1.41566e-06
0.000678849
-1.634e-06
0.00067808
-1.91257e-06
0.000677198
-2.16301e-06
0.00067618
-2.50286e-06
0.000675032
-2.78666e-06
-3.20513e-06
0.000673722
0.000666681
1.50609e-08
0.000666725
4.5197e-08
0.000666799
7.5305e-08
0.000666901
1.05097e-07
0.000667032
1.34432e-07
0.000667191
1.6318e-07
0.000667377
1.91216e-07
0.00066759
2.18423e-07
0.000667829
2.44693e-07
0.000668092
2.69921e-07
0.000668379
2.94017e-07
0.000668688
3.16891e-07
0.000669018
3.38466e-07
0.000669367
3.58668e-07
0.000669735
3.77433e-07
0.00067012
3.94701e-07
0.00067052
4.1042e-07
0.000670934
4.24538e-07
0.00067136
4.37015e-07
0.000671796
4.47803e-07
0.000672241
4.56871e-07
0.000672693
4.64172e-07
0.000673151
4.69682e-07
0.000673612
4.73346e-07
0.000674075
4.75149e-07
0.000674537
4.75024e-07
0.000674998
4.72963e-07
0.000675455
4.68875e-07
0.000675906
4.62771e-07
0.000676348
4.54519e-07
0.000676781
4.44156e-07
0.000677202
4.31491e-07
0.000677608
4.16608e-07
0.000677997
3.99224e-07
0.000678367
3.79499e-07
0.000678715
3.57012e-07
0.000679039
3.32056e-07
0.000679335
3.03989e-07
0.000679602
2.73328e-07
0.000679836
2.39087e-07
0.000680034
2.02156e-07
0.000680192
1.61e-07
0.000680307
1.1713e-07
0.000680375
6.81713e-08
0.000680393
1.6802e-08
0.000680355
-4.19444e-08
0.000680257
-1.03152e-07
0.000680092
-1.72798e-07
0.000679858
-2.44085e-07
0.000679545
-3.26809e-07
0.000679151
-4.09685e-07
0.000678664
-5.08401e-07
0.000678084
-6.04435e-07
0.000677391
-7.23037e-07
0.000676591
-8.33826e-07
0.000675656
-9.77638e-07
0.000674597
-1.10456e-06
0.000673375
-1.28089e-06
0.000672013
-1.42434e-06
-1.64278e-06
0.000670451
0.000666681
8.67662e-10
0.000666723
2.56368e-09
0.000666795
4.2145e-09
0.000666894
5.81808e-09
0.000667021
7.37018e-09
0.000667175
8.86728e-09
0.000667356
1.03064e-08
0.000667563
1.16853e-08
0.000667795
1.30019e-08
0.00066805
1.42547e-08
0.000668329
1.54426e-08
0.000668629
1.65648e-08
0.00066895
1.76212e-08
0.00066929
1.86116e-08
0.000669648
1.95366e-08
0.000670022
2.0397e-08
0.000670411
2.1194e-08
0.000670814
2.19294e-08
0.000671228
2.2605e-08
0.000671653
2.32228e-08
0.000672086
2.3786e-08
0.000672526
2.42967e-08
0.000672971
2.47581e-08
0.000673419
2.51742e-08
0.000673869
2.55479e-08
0.000674318
2.58836e-08
0.000674765
2.61848e-08
0.000675207
2.64574e-08
0.000675643
2.67045e-08
0.000676071
2.69312e-08
0.000676488
2.71426e-08
0.000676892
2.73436e-08
0.000677281
2.75383e-08
0.000677652
2.77342e-08
0.000678004
2.79341e-08
0.000678333
2.81434e-08
0.000678637
2.83697e-08
0.000678912
2.86162e-08
0.000679156
2.88851e-08
0.000679366
2.91885e-08
0.000679539
2.95248e-08
0.00067967
2.99111e-08
0.000679757
3.03691e-08
0.000679794
3.09185e-08
0.000679779
3.15696e-08
0.000679705
3.22325e-08
0.000679569
3.2925e-08
0.000679362
3.37169e-08
0.000679084
3.4615e-08
0.000678721
3.56082e-08
0.000678275
3.66981e-08
0.000677729
3.78945e-08
0.000677085
3.92096e-08
0.000676321
4.06414e-08
0.000675445
4.22161e-08
0.000674424
4.39098e-08
0.000673273
4.57776e-08
0.000671945
4.77642e-08
0.00067047
4.99532e-08
5.22377e-08
0.000668775
0.000666681
-1.33323e-08
0.000666724
-4.01043e-08
0.000666795
-6.69259e-08
0.000666894
-9.35276e-08
0.000667021
-1.19776e-07
0.000667176
-1.45546e-07
0.000667357
-1.70719e-07
0.000667563
-1.95183e-07
0.000667795
-2.18833e-07
0.000668051
-2.4157e-07
0.00066833
-2.63303e-07
0.00066863
-2.83945e-07
0.000668951
-3.03419e-07
0.000669292
-3.21652e-07
0.00066965
-3.38578e-07
0.000670024
-3.54135e-07
0.000670414
-3.6827e-07
0.000670817
-3.80927e-07
0.000671231
-3.92061e-07
0.000671656
-4.01622e-07
0.00067209
-4.09572e-07
0.00067253
-4.15859e-07
0.000672975
-4.20452e-07
0.000673423
-4.23291e-07
0.000673873
-4.24353e-07
0.000674323
-4.23562e-07
0.00067477
-4.20903e-07
0.000675213
-4.16276e-07
0.000675649
-4.09683e-07
0.000676077
-4.00982e-07
0.000676494
-3.902e-07
0.000676899
-3.77139e-07
0.000677288
-3.61869e-07
0.00067766
-3.44098e-07
0.000678012
-3.23978e-07
0.000678341
-3.01074e-07
0.000678645
-2.75671e-07
0.000678921
-2.47113e-07
0.000679166
-2.15912e-07
0.000679376
-1.81065e-07
0.000679549
-1.43465e-07
0.00067968
-1.01569e-07
0.000679768
-5.69232e-08
0.000679806
-7.32458e-09
0.000679791
4.60354e-08
0.000679718
1.06088e-07
0.000679582
1.68631e-07
0.000679376
2.39846e-07
0.000679097
3.12863e-07
0.000678736
3.97508e-07
0.00067829
4.82521e-07
0.000677744
5.83593e-07
0.000677101
6.82223e-07
0.000676338
8.03646e-07
0.000675463
9.17547e-07
0.000674442
1.0647e-06
0.000673292
1.19532e-06
0.000671965
1.37555e-06
0.000670491
1.52334e-06
1.74625e-06
0.000668797
0.000666681
-2.79908e-08
0.000666725
-8.41442e-08
0.000666799
-1.40354e-07
0.000666901
-1.96059e-07
0.000667033
-2.50981e-07
0.000667192
-3.04859e-07
0.000667379
-3.57448e-07
0.000667592
-4.08517e-07
0.000667831
-4.57849e-07
0.000668095
-5.05243e-07
0.000668382
-5.50514e-07
0.000668691
-5.93491e-07
0.000669022
-6.3402e-07
0.000669372
-6.71956e-07
0.000669741
-7.07175e-07
0.000670126
-7.39555e-07
0.000670527
-7.68996e-07
0.000670941
-7.95393e-07
0.000671368
-8.18667e-07
0.000671805
-8.38722e-07
0.000672251
-8.55491e-07
0.000672704
-8.68879e-07
0.000673162
-8.78833e-07
0.000673624
-8.85243e-07
0.000674088
-8.88068e-07
0.000674552
-8.8717e-07
0.000675013
-8.82526e-07
0.000675471
-8.73952e-07
0.000675923
-8.61447e-07
0.000676367
-8.44759e-07
0.0006768
-8.23932e-07
0.000677222
-7.98603e-07
0.000677629
-7.68894e-07
0.000678019
-7.34279e-07
0.00067839
-6.95014e-07
0.000678739
-6.50317e-07
0.000679064
-6.00682e-07
0.000679362
-5.44926e-07
0.00067963
-4.8394e-07
0.000679865
-4.15923e-07
0.000680064
-3.42433e-07
0.000680223
-2.607e-07
0.00068034
-1.73414e-07
0.000680409
-7.63678e-08
0.000680428
2.62161e-08
0.000680391
1.4329e-07
0.000680295
2.65135e-07
0.000680131
4.03153e-07
0.000679899
5.45261e-07
0.000679588
7.08997e-07
0.000679196
8.74326e-07
0.00067871
1.06924e-06
0.000678131
1.26092e-06
0.000677441
1.49431e-06
0.000676643
1.71565e-06
0.00067571
1.99742e-06
0.000674654
2.25143e-06
0.000673434
2.59497e-06
0.000672075
2.88299e-06
3.30563e-06
0.000670515
0.000666682
-4.35791e-08
0.000666729
-1.30987e-07
0.000666807
-2.18452e-07
0.000666916
-3.0509e-07
0.000667056
-3.9046e-07
0.000667225
-4.74151e-07
0.000667423
-5.55777e-07
0.00066765
-6.34977e-07
0.000667903
-7.11418e-07
0.000668183
-7.84791e-07
0.000668487
-8.54819e-07
0.000668815
-9.21245e-07
0.000669165
-9.83845e-07
0.000669535
-1.04241e-06
0.000669925
-1.09676e-06
0.000670332
-1.14673e-06
0.000670755
-1.19219e-06
0.000671193
-1.23298e-06
0.000671643
-1.269e-06
0.000672105
-1.30014e-06
0.000672575
-1.32629e-06
0.000673054
-1.34734e-06
0.000673538
-1.36322e-06
0.000674027
-1.37379e-06
0.000674518
-1.37899e-06
0.000675009
-1.37864e-06
0.000675499
-1.3727e-06
0.000675986
-1.36095e-06
0.000676468
-1.34336e-06
0.000676943
-1.31961e-06
0.000677409
-1.28973e-06
0.000677864
-1.25326e-06
0.000678305
-1.21032e-06
0.000678731
-1.16025e-06
0.000679139
-1.10332e-06
0.000679527
-1.03855e-06
0.000679893
-9.66488e-07
0.000680234
-8.85661e-07
0.000680547
-7.97094e-07
0.00068083
-6.9855e-07
0.000681079
-5.91844e-07
0.000681292
-4.7355e-07
0.000681465
-3.4681e-07
0.000681595
-2.06378e-07
0.00068168
-5.79047e-08
0.000681713
1.0944e-07
0.000681692
2.86082e-07
0.000681611
4.84305e-07
0.000681467
6.89755e-07
0.000681252
9.238e-07
0.000680964
1.16253e-06
0.000680593
1.43987e-06
0.000680138
1.71654e-06
0.000679585
2.04684e-06
0.000678934
2.36642e-06
0.000678169
2.76253e-06
0.000677291
3.12986e-06
0.000676277
3.60897e-06
0.000675133
4.02711e-06
4.61089e-06
0.000673827
0.000666684
-6.06337e-08
0.000666735
-1.8225e-07
0.00066682
-3.03912e-07
0.00066694
-4.24358e-07
0.000667092
-5.42952e-07
0.000667277
-6.59107e-07
0.000667494
-7.72272e-07
0.000667741
-8.8194e-07
0.000668017
-9.87648e-07
0.000668321
-1.08898e-06
0.000668652
-1.18556e-06
0.000669008
-1.27706e-06
0.000669387
-1.3632e-06
0.000669788
-1.4437e-06
0.00067021
-1.51837e-06
0.00067065
-1.58699e-06
0.000671107
-1.64941e-06
0.00067158
-1.70549e-06
0.000672066
-1.75508e-06
0.000672564
-1.79807e-06
0.000673072
-1.83437e-06
0.000673588
-1.86383e-06
0.000674112
-1.88639e-06
0.00067464
-1.9019e-06
0.000675171
-1.91028e-06
0.000675704
-1.91137e-06
0.000676236
-1.90509e-06
0.000676766
-1.8912e-06
0.000677293
-1.86965e-06
0.000677813
-1.84011e-06
0.000678326
-1.80255e-06
0.000678829
-1.75651e-06
0.000679321
-1.70203e-06
0.000679799
-1.63844e-06
0.000680262
-1.56591e-06
0.000680707
-1.48346e-06
0.000681132
-1.39148e-06
0.000681534
-1.28855e-06
0.000681913
-1.17545e-06
0.000682264
-1.05005e-06
0.000682586
-9.13815e-07
0.000682876
-7.63511e-07
0.000683131
-6.01774e-07
0.000683349
-4.23662e-07
0.000683524
-2.3384e-07
0.000683659
-2.55019e-08
0.000683746
1.99437e-07
0.000683782
4.48638e-07
0.000683762
7.09573e-07
0.000683684
1.00197e-06
0.000683542
1.30471e-06
0.000683333
1.64885e-06
0.00068305
1.99954e-06
0.00068269
2.40618e-06
0.000682245
2.81154e-06
0.000681713
3.29461e-06
0.000681081
3.7617e-06
0.000680351
4.33933e-06
0.000679504
4.8741e-06
5.56829e-06
0.000678546
0.000666686
-7.98002e-08
0.000666743
-2.39889e-07
0.00066684
-3.99981e-07
0.000666974
-5.58357e-07
0.000667145
-7.14132e-07
0.000667352
-8.66492e-07
0.000667595
-1.01468e-06
0.000667871
-1.15803e-06
0.000668179
-1.29592e-06
0.000668518
-1.42784e-06
0.000668885
-1.55331e-06
0.00066928
-1.67196e-06
0.000669701
-1.78344e-06
0.000670144
-1.88748e-06
0.00067061
-1.98385e-06
0.000671095
-2.07236e-06
0.000671599
-2.15285e-06
0.000672118
-2.22518e-06
0.000672653
-2.28925e-06
0.000673199
-2.34496e-06
0.000673757
-2.3922e-06
0.000674324
-2.4309e-06
0.000674899
-2.46096e-06
0.000675479
-2.48229e-06
0.000676064
-2.49479e-06
0.000676651
-2.49832e-06
0.000677238
-2.49278e-06
0.000677825
-2.47799e-06
0.000678409
-2.45381e-06
0.000678989
-2.41999e-06
0.000679563
-2.37639e-06
0.000680129
-2.32267e-06
0.000680686
-2.25866e-06
0.000681231
-2.18389e-06
0.000681764
-2.09822e-06
0.000682281
-2.00099e-06
0.000682782
-1.89213e-06
0.000683264
-1.77068e-06
0.000683725
-1.63673e-06
0.000684164
-1.48892e-06
0.000684578
-1.32761e-06
0.000684965
-1.1508e-06
0.000685323
-9.59392e-07
0.00068565
-7.50424e-07
0.000685942
-5.25827e-07
0.000686197
-2.81288e-07
0.000686419
-2.18226e-08
0.000686599
2.68516e-07
0.000686733
5.75793e-07
0.000686822
9.12378e-07
0.000686859
1.268e-06
0.000686847
1.66072e-06
0.000686774
2.0725e-06
0.000686648
2.53171e-06
0.000686452
3.00812e-06
0.0006862
3.54679e-06
0.000685864
4.09756e-06
0.000685471
4.73187e-06
0.000684979
5.36683e-06
6.11479e-06
0.000684432
0.000666689
-1.01914e-07
0.000666755
-3.06435e-07
0.000666866
-5.10863e-07
0.000667021
-7.12873e-07
0.000667218
-9.1124e-07
0.000667456
-1.10485e-06
0.000667734
-1.2927e-06
0.00066805