/*--------------------------------*- C++ -*----------------------------------*\
| =========                 |                                                 |
| \\      /  F ield         | OpenFOAM: The Open Source CFD Toolbox           |
|  \\    /   O peration     | Version:  2312                                  |
|   \\  /    A nd           | Website:  www.openfoam.com                      |
|    \\/     M anipulation  |                                                 |
\*---------------------------------------------------------------------------*/
FoamFile
{
    version     2.0;
    format      ascii;
    arch        "LSB;label=32;scalar=64";
    class       volVectorField;
    location    "101000";
    object      U;
}
// * * * * * * * * * * * * * * * * * * * * * * * * * * * * * * * * * * * * * //

dimensions      [0 1 -1 0 0 0 0];

internalField   nonuniform List<vector> 
10800
(
(0.000992484 4.94202e-06 0)
(0.000990038 1.24581e-05 0)
(0.000986872 1.74797e-05 0)
(0.000980499 2.06636e-05 0)
(0.000971086 2.27469e-05 0)
(0.000959795 2.42407e-05 0)
(0.000947693 2.53799e-05 0)
(0.000935316 2.62394e-05 0)
(0.000922806 2.68433e-05 0)
(0.00091014 2.72167e-05 0)
(0.000897274 2.73975e-05 0)
(0.000884205 2.74283e-05 0)
(0.000870969 2.73473e-05 0)
(0.000857621 2.71825e-05 0)
(0.000844212 2.6952e-05 0)
(0.000830781 2.66676e-05 0)
(0.000817354 2.63373e-05 0)
(0.000803949 2.59675e-05 0)
(0.000790581 2.55638e-05 0)
(0.000777265 2.5131e-05 0)
(0.000764018 2.46729e-05 0)
(0.000750853 2.41928e-05 0)
(0.000737785 2.36924e-05 0)
(0.000724828 2.31738e-05 0)
(0.000711996 2.2638e-05 0)
(0.0006993 2.20863e-05 0)
(0.000686755 2.15189e-05 0)
(0.000674371 2.09373e-05 0)
(0.000662162 2.03409e-05 0)
(0.00065014 1.97315e-05 0)
(0.000638318 1.91077e-05 0)
(0.000626707 1.84721e-05 0)
(0.000615322 1.78221e-05 0)
(0.000604173 1.71618e-05 0)
(0.000593275 1.64866e-05 0)
(0.000582637 1.58034e-05 0)
(0.000572278 1.51044e-05 0)
(0.0005622 1.44006e-05 0)
(0.000552429 1.36792e-05 0)
(0.000542959 1.29582e-05 0)
(0.000533829 1.22157e-05 0)
(0.000525012 1.14819e-05 0)
(0.000516575 1.07193e-05 0)
(0.000508449 9.97846e-06 0)
(0.000500768 9.19489e-06 0)
(0.000493354 8.45412e-06 0)
(0.000486514 7.64564e-06 0)
(0.000479792 6.91183e-06 0)
(0.000473952 6.06955e-06 0)
(0.000467779 5.34117e-06 0)
(0.00046332 4.4564e-06 0)
(0.00045719 3.68635e-06 0)
(0.000455167 2.79716e-06 0)
(0.000447442 1.737e-06 0)
(0.000450986 1.169e-06 0)
(0.000436595 -1.24461e-06 0)
(0.000454999 1.29434e-07 0)
(0.000419029 -7.7058e-06 0)
(0.000477358 2.04927e-06 0)
(0.000382633 -2.44683e-05 0)
(0.00100003 5.80271e-06 0)
(0.00100172 1.49941e-05 0)
(0.00100423 2.15255e-05 0)
(0.00100706 2.60891e-05 0)
(0.00100979 2.94477e-05 0)
(0.00101219 3.21295e-05 0)
(0.00101421 3.43822e-05 0)
(0.00101588 3.62921e-05 0)
(0.00101725 3.78919e-05 0)
(0.00101836 3.92123e-05 0)
(0.00101921 4.02945e-05 0)
(0.0010198 4.11844e-05 0)
(0.00102012 4.19225e-05 0)
(0.00102017 4.2539e-05 0)
(0.00101998 4.30536e-05 0)
(0.00101955 4.34793e-05 0)
(0.00101889 4.38246e-05 0)
(0.00101802 4.40962e-05 0)
(0.00101695 4.42997e-05 0)
(0.00101568 4.44398e-05 0)
(0.00101424 4.45201e-05 0)
(0.00101262 4.45434e-05 0)
(0.00101085 4.45117e-05 0)
(0.00100891 4.4426e-05 0)
(0.00100685 4.42874e-05 0)
(0.00100463 4.40959e-05 0)
(0.00100231 4.38525e-05 0)
(0.000999855 4.3556e-05 0)
(0.000997322 4.32081e-05 0)
(0.000994653 4.2806e-05 0)
(0.000991949 4.2353e-05 0)
(0.000989101 4.18435e-05 0)
(0.000986272 4.12846e-05 0)
(0.000983273 4.06656e-05 0)
(0.000980372 4.00002e-05 0)
(0.000977244 3.92688e-05 0)
(0.000974335 3.84976e-05 0)
(0.000971089 3.76504e-05 0)
(0.000968255 3.6776e-05 0)
(0.00096488 3.58081e-05 0)
(0.000962234 3.48362e-05 0)
(0.000958685 3.37397e-05 0)
(0.000956391 3.26816e-05 0)
(0.000952557 3.14421e-05 0)
(0.000950868 3.03177e-05 0)
(0.000946525 2.89096e-05 0)
(0.000945846 2.77531e-05 0)
(0.000940572 2.61287e-05 0)
(0.000941568 2.49989e-05 0)
(0.00093459 2.30712e-05 0)
(0.000938376 2.20678e-05 0)
(0.000928311 1.96822e-05 0)
(0.000936769 1.89709e-05 0)
(0.00092117 1.58636e-05 0)
(0.000937486 1.5705e-05 0)
(0.000912057 1.14649e-05 0)
(0.00094165 1.21933e-05 0)
(0.000898932 6.34884e-06 0)
(0.000951158 7.98808e-06 0)
(0.000878649 9.31562e-07 0)
(0.000999989 1.96363e-06 0)
(0.00100078 5.76716e-06 0)
(0.00100224 9.29417e-06 0)
(0.00100423 1.24608e-05 0)
(0.00100654 1.52643e-05 0)
(0.00100897 1.77499e-05 0)
(0.00101139 1.99721e-05 0)
(0.00101375 2.19742e-05 0)
(0.00101606 2.37832e-05 0)
(0.00101832 2.54159e-05 0)
(0.00102053 2.68854e-05 0)
(0.0010227 2.82052e-05 0)
(0.00102482 2.93896e-05 0)
(0.00102686 3.04524e-05 0)
(0.00102885 3.14062e-05 0)
(0.00103076 3.22606e-05 0)
(0.00103261 3.30238e-05 0)
(0.00103439 3.37014e-05 0)
(0.00103611 3.42992e-05 0)
(0.00103777 3.48202e-05 0)
(0.00103938 3.52692e-05 0)
(0.00104092 3.56473e-05 0)
(0.00104241 3.59587e-05 0)
(0.00104384 3.62024e-05 0)
(0.00104523 3.6383e-05 0)
(0.00104655 3.6497e-05 0)
(0.00104784 3.65502e-05 0)
(0.00104905 3.6536e-05 0)
(0.00105025 3.64629e-05 0)
(0.00105135 3.632e-05 0)
(0.00105247 3.61204e-05 0)
(0.00105347 3.58466e-05 0)
(0.00105453 3.55195e-05 0)
(0.00105541 3.51115e-05 0)
(0.00105642 3.46559e-05 0)
(0.00105719 3.41092e-05 0)
(0.00105818 3.35245e-05 0)
(0.00105881 3.2834e-05 0)
(0.00105982 3.21209e-05 0)
(0.00106029 3.12801e-05 0)
(0.00106138 3.04412e-05 0)
(0.00106164 2.94423e-05 0)
(0.00106291 2.8483e-05 0)
(0.00106288 2.73159e-05 0)
(0.00106444 2.62455e-05 0)
(0.001064 2.48975e-05 0)
(0.00106606 2.37302e-05 0)
(0.00106499 2.21854e-05 0)
(0.00106783 2.09421e-05 0)
(0.00106582 1.91825e-05 0)
(0.00106988 1.78924e-05 0)
(0.00106641 1.5902e-05 0)
(0.00107234 1.46044e-05 0)
(0.0010666 1.23828e-05 0)
(0.00107539 1.11277e-05 0)
(0.00106617 8.72699e-06 0)
(0.00107932 7.57669e-06 0)
(0.00106473 5.19662e-06 0)
(0.00108454 4.18269e-06 0)
(0.00106183 2.32689e-06 0)
(0.00100001 1.74304e-06 0)
(0.00100047 5.16354e-06 0)
(0.00100128 8.42712e-06 0)
(0.00100239 1.14575e-05 0)
(0.00100374 1.42138e-05 0)
(0.00100526 1.6693e-05 0)
(0.00100688 1.89169e-05 0)
(0.00100858 2.09152e-05 0)
(0.00101032 2.2715e-05 0)
(0.00101211 2.4337e-05 0)
(0.00101392 2.57969e-05 0)
(0.00101576 2.71074e-05 0)
(0.00101762 2.82811e-05 0)
(0.00101949 2.93296e-05 0)
(0.00102137 3.02649e-05 0)
(0.00102324 3.10969e-05 0)
(0.00102512 3.18348e-05 0)
(0.00102699 3.24856e-05 0)
(0.00102886 3.30557e-05 0)
(0.00103073 3.35491e-05 0)
(0.00103259 3.39709e-05 0)
(0.00103445 3.4323e-05 0)
(0.00103631 3.46096e-05 0)
(0.00103815 3.4831e-05 0)
(0.00104 3.49908e-05 0)
(0.00104183 3.50876e-05 0)
(0.00104367 3.5125e-05 0)
(0.00104549 3.51e-05 0)
(0.00104732 3.50165e-05 0)
(0.00104913 3.48697e-05 0)
(0.00105095 3.46647e-05 0)
(0.00105274 3.43942e-05 0)
(0.00105455 3.40655e-05 0)
(0.00105631 3.36684e-05 0)
(0.00105813 3.32125e-05 0)
(0.00105986 3.26847e-05 0)
(0.00106167 3.20978e-05 0)
(0.00106336 3.14349e-05 0)
(0.00106518 3.07122e-05 0)
(0.00106683 2.991e-05 0)
(0.00106867 2.90465e-05 0)
(0.00107026 2.81013e-05 0)
(0.00107213 2.70916e-05 0)
(0.00107365 2.60013e-05 0)
(0.00107558 2.4839e-05 0)
(0.001077 2.36043e-05 0)
(0.00107903 2.22818e-05 0)
(0.00108032 2.0909e-05 0)
(0.0010825 1.94159e-05 0)
(0.00108362 1.7921e-05 0)
(0.00108603 1.6244e-05 0)
(0.00108691 1.46616e-05 0)
(0.00108964 1.27828e-05 0)
(0.00109018 1.11811e-05 0)
(0.00109338 9.07794e-06 0)
(0.00109343 7.58197e-06 0)
(0.00109729 5.21957e-06 0)
(0.00109665 4.03522e-06 0)
(0.00110144 1.32847e-06 0)
(0.00109976 7.42609e-07 0)
(0.001 1.15497e-06 0)
(0.00100023 3.43739e-06 0)
(0.00100067 5.6542e-06 0)
(0.00100133 7.77367e-06 0)
(0.0010022 9.77445e-06 0)
(0.00100323 1.16462e-05 0)
(0.0010044 1.33877e-05 0)
(0.00100568 1.50029e-05 0)
(0.00100704 1.64979e-05 0)
(0.00100847 1.78788e-05 0)
(0.00100995 1.91509e-05 0)
(0.00101147 2.03193e-05 0)
(0.00101304 2.13886e-05 0)
(0.00101463 2.23637e-05 0)
(0.00101624 2.32497e-05 0)
(0.00101788 2.40512e-05 0)
(0.00101953 2.47728e-05 0)
(0.0010212 2.54184e-05 0)
(0.00102287 2.59913e-05 0)
(0.00102455 2.64945e-05 0)
(0.00102625 2.69301e-05 0)
(0.00102794 2.73003e-05 0)
(0.00102965 2.76066e-05 0)
(0.00103136 2.78505e-05 0)
(0.00103307 2.80325e-05 0)
(0.00103479 2.81538e-05 0)
(0.00103652 2.82142e-05 0)
(0.00103824 2.82146e-05 0)
(0.00103997 2.81537e-05 0)
(0.00104171 2.80331e-05 0)
(0.00104344 2.78496e-05 0)
(0.00104517 2.76063e-05 0)
(0.00104691 2.72975e-05 0)
(0.00104865 2.69287e-05 0)
(0.00105039 2.64904e-05 0)
(0.00105212 2.59929e-05 0)
(0.00105386 2.54197e-05 0)
(0.0010556 2.47901e-05 0)
(0.00105733 2.40755e-05 0)
(0.00105906 2.33104e-05 0)
(0.00106079 2.24467e-05 0)
(0.00106252 2.15438e-05 0)
(0.00106424 2.05217e-05 0)
(0.00106597 1.94809e-05 0)
(0.00106768 1.82887e-05 0)
(0.00106941 1.71137e-05 0)
(0.00107111 1.57368e-05 0)
(0.00107285 1.44375e-05 0)
(0.00107454 1.28567e-05 0)
(0.00107631 1.14529e-05 0)
(0.00107798 9.64058e-06 0)
(0.00107982 8.16589e-06 0)
(0.00108147 6.07979e-06 0)
(0.00108344 4.58802e-06 0)
(0.00108508 2.16264e-06 0)
(0.00108727 7.43612e-07 0)
(0.00108889 -2.1127e-06 0)
(0.0010914 -3.30713e-06 0)
(0.00109288 -6.73326e-06 0)
(0.0010957 -7.48561e-06 0)
(0.001 9.29179e-07 0)
(0.00100017 2.77869e-06 0)
(0.00100051 4.6009e-06 0)
(0.001001 6.37689e-06 0)
(0.00100164 8.08923e-06 0)
(0.00100242 9.72403e-06 0)
(0.00100331 1.1272e-05 0)
(0.00100429 1.27284e-05 0)
(0.00100536 1.40914e-05 0)
(0.0010065 1.53618e-05 0)
(0.00100769 1.65408e-05 0)
(0.00100894 1.76305e-05 0)
(0.00101023 1.8633e-05 0)
(0.00101156 1.9551e-05 0)
(0.00101292 2.03873e-05 0)
(0.00101432 2.11448e-05 0)
(0.00101573 2.18264e-05 0)
(0.00101717 2.2435e-05 0)
(0.00101863 2.2973e-05 0)
(0.0010201 2.3443e-05 0)
(0.00102159 2.38467e-05 0)
(0.00102309 2.41864e-05 0)
(0.00102461 2.44628e-05 0)
(0.00102613 2.4678e-05 0)
(0.00102766 2.48319e-05 0)
(0.00102919 2.49266e-05 0)
(0.00103074 2.49608e-05 0)
(0.00103229 2.4937e-05 0)
(0.00103384 2.48524e-05 0)
(0.00103539 2.47104e-05 0)
(0.00103695 2.45062e-05 0)
(0.00103852 2.4245e-05 0)
(0.00104008 2.39188e-05 0)
(0.00104164 2.3536e-05 0)
(0.0010432 2.3084e-05 0)
(0.00104477 2.25765e-05 0)
(0.00104632 2.19934e-05 0)
(0.00104788 2.13576e-05 0)
(0.00104943 2.06369e-05 0)
(0.00105099 1.98686e-05 0)
(0.00105253 1.9002e-05 0)
(0.00105409 1.80975e-05 0)
(0.00105561 1.70751e-05 0)
(0.00105718 1.60315e-05 0)
(0.00105868 1.48408e-05 0)
(0.00106026 1.36568e-05 0)
(0.00106174 1.22818e-05 0)
(0.00106336 1.09595e-05 0)
(0.00106481 9.37929e-06 0)
(0.00106649 7.9263e-06 0)
(0.0010679 6.114e-06 0)
(0.00106967 4.54824e-06 0)
(0.00107102 2.46778e-06 0)
(0.00107291 8.20147e-07 0)
(0.00107418 -1.58661e-06 0)
(0.0010763 -3.27651e-06 0)
(0.00107745 -6.11085e-06 0)
(0.00107991 -7.78597e-06 0)
(0.00108082 -1.11951e-05 0)
(0.00108362 -1.27542e-05 0)
(0.001 7.35073e-07 0)
(0.00100013 2.19856e-06 0)
(0.00100037 3.64241e-06 0)
(0.00100073 5.05393e-06 0)
(0.00100121 6.4217e-06 0)
(0.0010018 7.73637e-06 0)
(0.00100248 8.99105e-06 0)
(0.00100325 1.01812e-05 0)
(0.0010041 1.13043e-05 0)
(0.00100502 1.23593e-05 0)
(0.001006 1.33458e-05 0)
(0.00100703 1.42644e-05 0)
(0.00100812 1.51157e-05 0)
(0.00100924 1.59006e-05 0)
(0.00101041 1.66202e-05 0)
(0.00101161 1.72756e-05 0)
(0.00101284 1.78681e-05 0)
(0.00101409 1.83991e-05 0)
(0.00101537 1.88697e-05 0)
(0.00101667 1.92814e-05 0)
(0.00101798 1.96348e-05 0)
(0.00101932 1.99313e-05 0)
(0.00102066 2.0171e-05 0)
(0.00102202 2.03553e-05 0)
(0.00102338 2.04836e-05 0)
(0.00102476 2.05573e-05 0)
(0.00102614 2.05751e-05 0)
(0.00102752 2.05387e-05 0)
(0.00102891 2.04454e-05 0)
(0.00103031 2.0298e-05 0)
(0.0010317 2.0092e-05 0)
(0.00103309 1.98314e-05 0)
(0.00103448 1.95094e-05 0)
(0.00103588 1.91325e-05 0)
(0.00103726 1.869e-05 0)
(0.00103864 1.81926e-05 0)
(0.00104002 1.76237e-05 0)
(0.00104139 1.70008e-05 0)
(0.00104275 1.6298e-05 0)
(0.00104412 1.55437e-05 0)
(0.00104545 1.46979e-05 0)
(0.00104681 1.38058e-05 0)
(0.00104812 1.28056e-05 0)
(0.00104947 1.1769e-05 0)
(0.00105075 1.06001e-05 0)
(0.00105209 9.41253e-06 0)
(0.00105334 8.05682e-06 0)
(0.00105468 6.71209e-06 0)
(0.00105589 5.14538e-06 0)
(0.00105726 3.63833e-06 0)
(0.00105842 1.82739e-06 0)
(0.00105986 1.55825e-07 0)
(0.00106099 -1.9415e-06 0)
(0.00106253 -3.76637e-06 0)
(0.0010636 -6.20045e-06 0)
(0.0010653 -8.15265e-06 0)
(0.00106626 -1.10042e-05 0)
(0.00106818 -1.30503e-05 0)
(0.0010689 -1.64515e-05 0)
(0.00107101 -1.85345e-05 0)
(0.001 5.86369e-07 0)
(0.0010001 1.75497e-06 0)
(0.00100029 2.91151e-06 0)
(0.00100057 4.0481e-06 0)
(0.00100095 5.15723e-06 0)
(0.00100141 6.23219e-06 0)
(0.00100196 7.26736e-06 0)
(0.00100259 8.25827e-06 0)
(0.00100328 9.20159e-06 0)
(0.00100404 1.0095e-05 0)
(0.00100486 1.09369e-05 0)
(0.00100573 1.17264e-05 0)
(0.00100666 1.24629e-05 0)
(0.00100762 1.31462e-05 0)
(0.00100862 1.3776e-05 0)
(0.00100966 1.43525e-05 0)
(0.00101073 1.48758e-05 0)
(0.00101183 1.53463e-05 0)
(0.00101295 1.57644e-05 0)
(0.0010141 1.61304e-05 0)
(0.00101526 1.64446e-05 0)
(0.00101644 1.67076e-05 0)
(0.00101764 1.69192e-05 0)
(0.00101884 1.70801e-05 0)
(0.00102006 1.71897e-05 0)
(0.00102128 1.72487e-05 0)
(0.00102251 1.72561e-05 0)
(0.00102375 1.72127e-05 0)
(0.00102498 1.71166e-05 0)
(0.00102622 1.69691e-05 0)
(0.00102746 1.67673e-05 0)
(0.00102869 1.65132e-05 0)
(0.00102992 1.62022e-05 0)
(0.00103115 1.58377e-05 0)
(0.00103237 1.54128e-05 0)
(0.00103358 1.4933e-05 0)
(0.00103478 1.43882e-05 0)
(0.00103598 1.37872e-05 0)
(0.00103715 1.31147e-05 0)
(0.00103833 1.23854e-05 0)
(0.00103947 1.15758e-05 0)
(0.00104062 1.07097e-05 0)
(0.00104173 9.7514e-06 0)
(0.00104285 8.73884e-06 0)
(0.00104392 7.61759e-06 0)
(0.00104502 6.4478e-06 0)
(0.00104604 5.14609e-06 0)
(0.00104713 3.80753e-06 0)
(0.0010481 2.30376e-06 0)
(0.00104917 7.84383e-07 0)
(0.00105008 -9.49076e-07 0)
(0.00105116 -2.66255e-06 0)
(0.001052 -4.66578e-06 0)
(0.00105312 -6.59184e-06 0)
(0.0010539 -8.921e-06 0)
(0.0010551 -1.10743e-05 0)
(0.00105576 -1.37977e-05 0)
(0.00105707 -1.61826e-05 0)
(0.0010575 -1.93936e-05 0)
(0.00105884 -2.20008e-05 0)
(0.001 4.69092e-07 0)
(0.00100008 1.40453e-06 0)
(0.00100024 2.33189e-06 0)
(0.00100047 3.2458e-06 0)
(0.00100078 4.14099e-06 0)
(0.00100116 5.01256e-06 0)
(0.00100161 5.85613e-06 0)
(0.00100213 6.66797e-06 0)
(0.00100272 7.44497e-06 0)
(0.00100336 8.18463e-06 0)
(0.00100405 8.88488e-06 0)
(0.0010048 9.54414e-06 0)
(0.00100559 1.01611e-05 0)
(0.00100642 1.0735e-05 0)
(0.00100729 1.12652e-05 0)
(0.0010082 1.17512e-05 0)
(0.00100914 1.21927e-05 0)
(0.0010101 1.25897e-05 0)
(0.00101109 1.29419e-05 0)
(0.0010121 1.32495e-05 0)
(0.00101313 1.35123e-05 0)
(0.00101418 1.37304e-05 0)
(0.00101524 1.39036e-05 0)
(0.00101631 1.4032e-05 0)
(0.0010174 1.4115e-05 0)
(0.00101849 1.41529e-05 0)
(0.00101958 1.41447e-05 0)
(0.00102068 1.40907e-05 0)
(0.00102178 1.39895e-05 0)
(0.00102288 1.38413e-05 0)
(0.00102397 1.36443e-05 0)
(0.00102506 1.33989e-05 0)
(0.00102615 1.31023e-05 0)
(0.00102722 1.27553e-05 0)
(0.00102829 1.23542e-05 0)
(0.00102934 1.19004e-05 0)
(0.00103038 1.13884e-05 0)
(0.00103141 1.08209e-05 0)
(0.00103241 1.01901e-05 0)
(0.0010334 9.5007e-06 0)
(0.00103436 8.74146e-06 0)
(0.00103531 7.92017e-06 0)
(0.00103622 7.02048e-06 0)
(0.00103712 6.05529e-06 0)
(0.00103798 5.00036e-06 0)
(0.00103883 3.87667e-06 0)
(0.00103962 2.64796e-06 0)
(0.00104042 1.34799e-06 0)
(0.00104113 -7.74865e-08 0)
(0.00104189 -1.57364e-06 0)
(0.00104253 -3.22179e-06 0)
(0.00104325 -4.93519e-06 0)
(0.0010438 -6.83954e-06 0)
(0.00104449 -8.79914e-06 0)
(0.00104493 -1.10076e-05 0)
(0.00104562 -1.32489e-05 0)
(0.0010459 -1.58208e-05 0)
(0.0010466 -1.83785e-05 0)
(0.00104664 -2.13839e-05 0)
(0.00104725 -2.4284e-05 0)
(0.001 3.72004e-07 0)
(0.00100007 1.11402e-06 0)
(0.0010002 1.85027e-06 0)
(0.0010004 2.57695e-06 0)
(0.00100066 3.29026e-06 0)
(0.00100098 3.98662e-06 0)
(0.00100137 4.66268e-06 0)
(0.00100181 5.31548e-06 0)
(0.00100231 5.94238e-06 0)
(0.00100286 6.54114e-06 0)
(0.00100346 7.10982e-06 0)
(0.00100411 7.64681e-06 0)
(0.0010048 8.15079e-06 0)
(0.00100552 8.62067e-06 0)
(0.00100629 9.05562e-06 0)
(0.00100709 9.45496e-06 0)
(0.00100791 9.81815e-06 0)
(0.00100877 1.01448e-05 0)
(0.00100964 1.04344e-05 0)
(0.00101054 1.06868e-05 0)
(0.00101146 1.09017e-05 0)
(0.0010124 1.10787e-05 0)
(0.00101334 1.12177e-05 0)
(0.0010143 1.13182e-05 0)
(0.00101527 1.138e-05 0)
(0.00101624 1.14025e-05 0)
(0.00101722 1.13854e-05 0)
(0.0010182 1.1328e-05 0)
(0.00101918 1.12297e-05 0)
(0.00102016 1.10897e-05 0)
(0.00102112 1.09072e-05 0)
(0.00102209 1.06812e-05 0)
(0.00102304 1.04105e-05 0)
(0.00102398 1.0094e-05 0)
(0.00102491 9.73018e-06 0)
(0.00102582 9.31743e-06 0)
(0.00102671 8.8542e-06 0)
(0.00102758 8.33819e-06 0)
(0.00102842 7.76777e-06 0)
(0.00102925 7.13981e-06 0)
(0.00103003 6.45269e-06 0)
(0.0010308 5.70204e-06 0)
(0.00103152 4.88663e-06 0)
(0.00103222 4.00018e-06 0)
(0.00103287 3.04242e-06 0)
(0.00103349 2.00412e-06 0)
(0.00103405 8.87144e-07 0)
(0.00103459 -3.22477e-07 0)
(0.00103505 -1.61866e-06 0)
(0.00103551 -3.02345e-06 0)
(0.00103586 -4.52458e-06 0)
(0.00103623 -6.15729e-06 0)
(0.00103645 -7.89584e-06 0)
(0.00103672 -9.7954e-06 0)
(0.00103679 -1.18083e-05 0)
(0.00103698 -1.40224e-05 0)
(0.00103685 -1.63534e-05 0)
(0.00103694 -1.89401e-05 0)
(0.00103654 -2.16365e-05 0)
(0.00103644 -2.4659e-05 0)
(0.001 2.89127e-07 0)
(0.00100006 8.65903e-07 0)
(0.00100017 1.43849e-06 0)
(0.00100034 2.00415e-06 0)
(0.00100057 2.56013e-06 0)
(0.00100085 3.10379e-06 0)
(0.00100119 3.63265e-06 0)
(0.00100158 4.14439e-06 0)
(0.00100201 4.63697e-06 0)
(0.0010025 5.10852e-06 0)
(0.00100302 5.55743e-06 0)
(0.0010036 5.98228e-06 0)
(0.0010042 6.38185e-06 0)
(0.00100485 6.75509e-06 0)
(0.00100553 7.10112e-06 0)
(0.00100624 7.41918e-06 0)
(0.00100698 7.70863e-06 0)
(0.00100775 7.96889e-06 0)
(0.00100853 8.19951e-06 0)
(0.00100934 8.39999e-06 0)
(0.00101017 8.56997e-06 0)
(0.00101101 8.70898e-06 0)
(0.00101186 8.81671e-06 0)
(0.00101272 8.89263e-06 0)
(0.00101359 8.93643e-06 0)
(0.00101447 8.94744e-06 0)
(0.00101535 8.92535e-06 0)
(0.00101623 8.86928e-06 0)
(0.0010171 8.77889e-06 0)
(0.00101797 8.65299e-06 0)
(0.00101883 8.4913e-06 0)
(0.00101968 8.29212e-06 0)
(0.00102052 8.05532e-06 0)
(0.00102134 7.77849e-06 0)
(0.00102215 7.46184e-06 0)
(0.00102293 7.1019e-06 0)
(0.00102369 6.69954e-06 0)
(0.00102442 6.24967e-06 0)
(0.00102513 5.75441e-06 0)
(0.0010258 5.20614e-06 0)
(0.00102643 4.60917e-06 0)
(0.00102703 3.952e-06 0)
(0.00102758 3.24267e-06 0)
(0.00102809 2.46355e-06 0)
(0.00102855 1.629e-06 0)
(0.00102896 7.11715e-07 0)
(0.00102931 -2.63356e-07 0)
(0.00102961 -1.33889e-06 0)
(0.00102983 -2.47234e-06 0)
(0.00103001 -3.73195e-06 0)
(0.00103008 -5.0468e-06 0)
(0.00103011 -6.5249e-06 0)
(0.00103001 -8.04785e-06 0)
(0.0010299 -9.78735e-06 0)
(0.00102959 -1.15478e-05 0)
(0.00102931 -1.36038e-05 0)
(0.00102877 -1.56341e-05 0)
(0.00102829 -1.80777e-05 0)
(0.00102743 -2.04075e-05 0)
(0.00102666 -2.3324e-05 0)
(0.001 2.16418e-07 0)
(0.00100005 6.48161e-07 0)
(0.00100015 1.07689e-06 0)
(0.00100031 1.50065e-06 0)
(0.00100051 1.91749e-06 0)
(0.00100076 2.32551e-06 0)
(0.00100106 2.72291e-06 0)
(0.00100141 3.108e-06 0)
(0.0010018 3.47921e-06 0)
(0.00100223 3.83514e-06 0)
(0.00100271 4.1745e-06 0)
(0.00100322 4.49616e-06 0)
(0.00100377 4.7991e-06 0)
(0.00100435 5.08241e-06 0)
(0.00100497 5.34531e-06 0)
(0.00100561 5.5871e-06 0)
(0.00100628 5.80716e-06 0)
(0.00100698 6.00493e-06 0)
(0.0010077 6.17994e-06 0)
(0.00100843 6.33169e-06 0)
(0.00100919 6.4598e-06 0)
(0.00100995 6.56378e-06 0)
(0.00101073 6.64333e-06 0)
(0.00101152 6.69787e-06 0)
(0.00101231 6.72715e-06 0)
(0.0010131 6.73047e-06 0)
(0.0010139 6.70762e-06 0)
(0.00101469 6.65766e-06 0)
(0.00101548 6.58047e-06 0)
(0.00101627 6.47472e-06 0)
(0.00101704 6.34049e-06 0)
(0.0010178 6.17587e-06 0)
(0.00101854 5.98128e-06 0)
(0.00101927 5.75395e-06 0)
(0.00101997 5.4949e-06 0)
(0.00102065 5.20004e-06 0)
(0.00102129 4.8715e-06 0)
(0.00102191 4.50313e-06 0)
(0.00102249 4.09894e-06 0)
(0.00102304 3.6496e-06 0)
(0.00102354 3.16228e-06 0)
(0.001024 2.62267e-06 0)
(0.0010244 2.04324e-06 0)
(0.00102475 1.40174e-06 0)
(0.00102504 7.19431e-07 0)
(0.00102528 -3.85434e-08 0)
(0.00102543 -8.36502e-07 0)
(0.00102553 -1.72952e-06 0)
(0.00102553 -2.65896e-06 0)
(0.00102546 -3.71227e-06 0)
(0.00102528 -4.79209e-06 0)
(0.00102502 -6.03756e-06 0)
(0.00102463 -7.28839e-06 0)
(0.00102417 -8.76737e-06 0)
(0.00102353 -1.02117e-05 0)
(0.00102282 -1.19793e-05 0)
(0.00102189 -1.36398e-05 0)
(0.0010209 -1.57693e-05 0)
(0.0010196 -1.76621e-05 0)
(0.00101825 -2.02458e-05 0)
(0.001 1.50876e-07 0)
(0.00100005 4.51841e-07 0)
(0.00100014 7.50729e-07 0)
(0.00100028 1.04623e-06 0)
(0.00100046 1.33702e-06 0)
(0.0010007 1.62183e-06 0)
(0.00100097 1.89942e-06 0)
(0.00100129 2.16863e-06 0)
(0.00100165 2.42838e-06 0)
(0.00100205 2.67766e-06 0)
(0.00100248 2.91557e-06 0)
(0.00100296 3.14127e-06 0)
(0.00100346 3.35401e-06 0)
(0.001004 3.5531e-06 0)
(0.00100457 3.73793e-06 0)
(0.00100517 3.90796e-06 0)
(0.00100579 4.06269e-06 0)
(0.00100643 4.20166e-06 0)
(0.0010071 4.3245e-06 0)
(0.00100778 4.43076e-06 0)
(0.00100848 4.52017e-06 0)
(0.00100919 4.59227e-06 0)
(0.00100991 4.64684e-06 0)
(0.00101064 4.68339e-06 0)
(0.00101137 4.70173e-06 0)
(0.00101211 4.70125e-06 0)
(0.00101284 4.68184e-06 0)
(0.00101357 4.64267e-06 0)
(0.0010143 4.58375e-06 0)
(0.00101501 4.50392e-06 0)
(0.00101572 4.40338e-06 0)
(0.0010164 4.28046e-06 0)
(0.00101707 4.13572e-06 0)
(0.00101772 3.96671e-06 0)
(0.00101835 3.77462e-06 0)
(0.00101894 3.55577e-06 0)
(0.00101951 3.31246e-06 0)
(0.00102003 3.03912e-06 0)
(0.00102052 2.73987e-06 0)
(0.00102097 2.40619e-06 0)
(0.00102136 2.0453e-06 0)
(0.00102171 1.64398e-06 0)
(0.00102199 1.21456e-06 0)
(0.00102222 7.36407e-07 0)
(0.00102238 2.30251e-07 0)
(0.00102246 -3.36356e-07 0)
(0.00102247 -9.29004e-07 0)
(0.00102239 -1.59935e-06 0)
(0.00102222 -2.29069e-06 0)
(0.00102195 -3.08504e-06 0)
(0.00102157 -3.8889e-06 0)
(0.00102107 -4.83328e-06 0)
(0.00102044 -5.76461e-06 0)
(0.00101969 -6.89345e-06 0)
(0.00101877 -7.96816e-06 0)
(0.00101772 -9.32825e-06 0)
(0.00101646 -1.05611e-05 0)
(0.00101506 -1.22158e-05 0)
(0.00101338 -1.3614e-05 0)
(0.00101154 -1.56454e-05 0)
(0.001 9.01056e-08 0)
(0.00100005 2.69796e-07 0)
(0.00100013 4.48214e-07 0)
(0.00100026 6.24596e-07 0)
(0.00100044 7.9818e-07 0)
(0.00100065 9.68215e-07 0)
(0.00100091 1.13398e-06 0)
(0.00100121 1.2948e-06 0)
(0.00100155 1.45003e-06 0)
(0.00100193 1.59907e-06 0)
(0.00100234 1.74137e-06 0)
(0.00100279 1.87643e-06 0)
(0.00100327 2.00379e-06 0)
(0.00100378 2.12301e-06 0)
(0.00100432 2.23374e-06 0)
(0.00100488 2.3356e-06 0)
(0.00100547 2.42831e-06 0)
(0.00100608 2.51154e-06 0)
(0.00100671 2.58508e-06 0)
(0.00100736 2.64863e-06 0)
(0.00100802 2.702e-06 0)
(0.00100869 2.74492e-06 0)
(0.00100938 2.77723e-06 0)
(0.00101007 2.7986e-06 0)
(0.00101076 2.80895e-06 0)
(0.00101145 2.80784e-06 0)
(0.00101215 2.79525e-06 0)
(0.00101284 2.77061e-06 0)
(0.00101352 2.73397e-06 0)
(0.00101419 2.68454e-06 0)
(0.00101485 2.62252e-06 0)
(0.00101549 2.54677e-06 0)
(0.00101611 2.45777e-06 0)
(0.0010167 2.35382e-06 0)
(0.00101727 2.23585e-06 0)
(0.00101781 2.10136e-06 0)
(0.00101832 1.95202e-06 0)
(0.00101878 1.78402e-06 0)
(0.00101921 1.60038e-06 0)
(0.00101958 1.3952e-06 0)
(0.00101991 1.17368e-06 0)
(0.00102017 9.267e-07 0)
(0.00102038 6.63042e-07 0)
(0.00102052 3.68397e-07 0)
(0.00102058 5.74913e-08 0)
(0.00102057 -2.92322e-07 0)
(0.00102047 -6.56675e-07 0)
(0.00102027 -1.0716e-06 0)
(0.00101997 -1.49687e-06 0)
(0.00101957 -1.98996e-06 0)
(0.00101904 -2.48464e-06 0)
(0.00101838 -3.07293e-06 0)
(0.00101758 -3.64611e-06 0)
(0.00101663 -4.3524e-06 0)
(0.0010155 -5.01351e-06 0)
(0.00101421 -5.8691e-06 0)
(0.00101271 -6.62634e-06 0)
(0.00101101 -7.67416e-06 0)
(0.00100905 -8.53e-06 0)
(0.00100687 -9.82654e-06 0)
(0.001 3.20555e-08 0)
(0.00100004 9.5889e-08 0)
(0.00100013 1.59188e-07 0)
(0.00100026 2.21692e-07 0)
(0.00100042 2.83143e-07 0)
(0.00100064 3.43286e-07 0)
(0.00100089 4.01878e-07 0)
(0.00100118 4.58687e-07 0)
(0.00100151 5.13496e-07 0)
(0.00100187 5.66102e-07 0)
(0.00100227 6.16321e-07 0)
(0.00100271 6.6398e-07 0)
(0.00100317 7.08925e-07 0)
(0.00100367 7.5101e-07 0)
(0.00100419 7.90111e-07 0)
(0.00100474 8.26106e-07 0)
(0.00100532 8.589e-07 0)
(0.00100591 8.88387e-07 0)
(0.00100652 9.14493e-07 0)
(0.00100715 9.37123e-07 0)
(0.0010078 9.56222e-07 0)
(0.00100845 9.71694e-07 0)
(0.00100912 9.83499e-07 0)
(0.00100979 9.91529e-07 0)
(0.00101046 9.95762e-07 0)
(0.00101114 9.96062e-07 0)
(0.00101181 9.92427e-07 0)
(0.00101248 9.84673e-07 0)
(0.00101313 9.72831e-07 0)
(0.00101378 9.56639e-07 0)
(0.00101442 9.36184e-07 0)
(0.00101503 9.11079e-07 0)
(0.00101563 8.81509e-07 0)
(0.0010162 8.46895e-07 0)
(0.00101674 8.0759e-07 0)
(0.00101725 7.62714e-07 0)
(0.00101773 7.12905e-07 0)
(0.00101816 6.56815e-07 0)
(0.00101855 5.95557e-07 0)
(0.0010189 5.27047e-07 0)
(0.00101918 4.53185e-07 0)
(0.00101941 3.70736e-07 0)
(0.00101958 2.82892e-07 0)
(0.00101967 1.84573e-07 0)
(0.00101969 8.11694e-08 0)
(0.00101962 -3.54756e-08 0)
(0.00101946 -1.5659e-07 0)
(0.00101921 -2.95075e-07 0)
(0.00101885 -4.36487e-07 0)
(0.00101837 -6.01338e-07 0)
(0.00101776 -7.65763e-07 0)
(0.00101702 -9.62725e-07 0)
(0.00101613 -1.15312e-06 0)
(0.00101507 -1.39014e-06 0)
(0.00101384 -1.60958e-06 0)
(0.00101242 -1.89757e-06 0)
(0.0010108 -2.14858e-06 0)
(0.00100894 -2.50266e-06 -3.87166e-38)
(0.00100684 -2.78567e-06 0)
(0.00100448 -3.22593e-06 0)
(0.001 -2.51221e-08 0)
(0.00100004 -7.54067e-08 0)
(0.00100013 -1.2551e-07 0)
(0.00100026 -1.75203e-07 0)
(0.00100042 -2.24256e-07 0)
(0.00100064 -2.72439e-07 0)
(0.00100089 -3.19532e-07 0)
(0.00100118 -3.65323e-07 0)
(0.00100151 -4.09612e-07 0)
(0.00100187 -4.52208e-07 0)
(0.00100227 -4.92935e-07 0)
(0.00100271 -5.31625e-07 0)
(0.00100318 -5.68128e-07 0)
(0.00100367 -6.02298e-07 0)
(0.0010042 -6.34007e-07 0)
(0.00100475 -6.63127e-07 0)
(0.00100532 -6.89551e-07 0)
(0.00100591 -7.13162e-07 0)
(0.00100653 -7.33869e-07 0)
(0.00100716 -7.51562e-07 0)
(0.0010078 -7.66162e-07 0)
(0.00100846 -7.77553e-07 0)
(0.00100912 -7.8567e-07 0)
(0.00100979 -7.90378e-07 0)
(0.00101047 -7.91625e-07 0)
(0.00101114 -7.89242e-07 0)
(0.00101182 -7.83197e-07 0)
(0.00101248 -7.73267e-07 0)
(0.00101314 -7.59451e-07 0)
(0.00101379 -7.41443e-07 0)
(0.00101443 -7.19298e-07 0)
(0.00101504 -6.92582e-07 0)
(0.00101564 -6.61446e-07 0)
(0.00101621 -6.25264e-07 0)
(0.00101675 -5.8435e-07 0)
(0.00101727 -5.37776e-07 0)
(0.00101774 -4.86144e-07 0)
(0.00101818 -4.28049e-07 0)
(0.00101857 -3.64578e-07 0)
(0.00101891 -2.93578e-07 0)
(0.0010192 -2.16936e-07 0)
(0.00101943 -1.31329e-07 0)
(0.00101959 -3.99375e-08 0)
(0.00101969 6.24172e-08 0)
(0.00101971 1.70421e-07 0)
(0.00101964 2.923e-07 0)
(0.00101948 4.19253e-07 0)
(0.00101923 5.64224e-07 0)
(0.00101887 7.12759e-07 0)
(0.00101839 8.85453e-07 0)
(0.00101778 1.05854e-06 0)
(0.00101704 1.26504e-06 0)
(0.00101615 1.46593e-06 0)
(0.0010151 1.71436e-06 0)
(0.00101387 1.94634e-06 0)
(0.00101245 2.24784e-06 0)
(0.00101082 2.51372e-06 0)
(0.00100897 2.88362e-06 3.87166e-38)
(0.00100687 3.18406e-06 0)
(0.00100451 3.64253e-06 0)
(0.001 -8.32335e-08 0)
(0.00100005 -2.49496e-07 0)
(0.00100013 -4.14838e-07 0)
(0.00100026 -5.78531e-07 0)
(0.00100044 -7.39839e-07 0)
(0.00100066 -8.98038e-07 0)
(0.00100092 -1.05243e-06 0)
(0.00100122 -1.20235e-06 0)
(0.00100155 -1.34718e-06 0)
(0.00100193 -1.48632e-06 0)
(0.00100235 -1.61925e-06 0)
(0.00100279 -1.74545e-06 0)
(0.00100327 -1.86447e-06 0)
(0.00100378 -1.97588e-06 0)
(0.00100432 -2.07931e-06 0)
(0.00100489 -2.17439e-06 0)
(0.00100548 -2.26082e-06 0)
(0.00100609 -2.33826e-06 0)
(0.00100672 -2.40648e-06 0)
(0.00100737 -2.46516e-06 0)
(0.00100803 -2.51411e-06 0)
(0.00100871 -2.553e-06 0)
(0.00100939 -2.58169e-06 0)
(0.00101008 -2.5998e-06 0)
(0.00101078 -2.6072e-06 0)
(0.00101148 -2.60347e-06 0)
(0.00101217 -2.58851e-06 0)
(0.00101286 -2.56173e-06 0)
(0.00101354 -2.52315e-06 0)
(0.00101421 -2.47195e-06 0)
(0.00101487 -2.40827e-06 0)
(0.00101552 -2.33095e-06 0)
(0.00101614 -2.24041e-06 0)
(0.00101674 -2.13493e-06 0)
(0.00101731 -2.01538e-06 0)
(0.00101785 -1.87921e-06 0)
(0.00101835 -1.72808e-06 0)
(0.00101882 -1.5581e-06 0)
(0.00101925 -1.37226e-06 0)
(0.00101963 -1.1646e-06 0)
(0.00101995 -9.40318e-07 0)
(0.00102022 -6.90167e-07 0)
(0.00102043 -4.23001e-07 0)
(0.00102057 -1.24352e-07 0)
(0.00102064 1.90882e-07 0)
(0.00102062 5.45594e-07 0)
(0.00102052 9.15477e-07 0)
(0.00102033 1.33665e-06 0)
(0.00102003 1.76886e-06 0)
(0.00101963 2.26964e-06 0)
(0.0010191 2.77279e-06 0)
(0.00101845 3.37037e-06 0)
(0.00101765 3.95379e-06 0)
(0.0010167 4.6712e-06 0)
(0.00101558 5.34457e-06 0)
(0.00101429 6.21328e-06 0)
(0.00101279 6.98507e-06 0)
(0.00101109 8.04814e-06 0)
(0.00100914 8.92112e-06 0)
(0.00100696 1.0235e-05 0)
(0.001 -1.44154e-07 0)
(0.00100005 -4.31989e-07 0)
(0.00100014 -7.18093e-07 0)
(0.00100028 -1.00118e-06 0)
(0.00100047 -1.27998e-06 0)
(0.0010007 -1.55322e-06 0)
(0.00100097 -1.81969e-06 0)
(0.00100129 -2.07825e-06 0)
(0.00100165 -2.32784e-06 0)
(0.00100205 -2.56745e-06 0)
(0.00100249 -2.7962e-06 0)
(0.00100296 -3.01325e-06 0)
(0.00100347 -3.21785e-06 0)
(0.00100401 -3.40931e-06 0)
(0.00100458 -3.58703e-06 0)
(0.00100518 -3.75043e-06 0)
(0.00100581 -3.89904e-06 0)
(0.00100645 -4.03237e-06 0)
(0.00100712 -4.15002e-06 0)
(0.0010078 -4.25155e-06 0)
(0.0010085 -4.33664e-06 0)
(0.00100921 -4.40484e-06 0)
(0.00100994 -4.45589e-06 0)
(0.00101067 -4.48927e-06 0)
(0.0010114 -4.50478e-06 0)
(0.00101214 -4.50175e-06 0)
(0.00101288 -4.48006e-06 0)
(0.00101361 -4.43884e-06 0)
(0.00101434 -4.37807e-06 0)
(0.00101506 -4.29653e-06 0)
(0.00101576 -4.19441e-06 0)
(0.00101645 -4.06999e-06 0)
(0.00101713 -3.9238e-06 0)
(0.00101778 -3.75332e-06 0)
(0.0010184 -3.55974e-06 0)
(0.001019 -3.33931e-06 0)
(0.00101957 -3.0943e-06 0)
(0.0010201 -2.81908e-06 0)
(0.00102059 -2.51775e-06 0)
(0.00102104 -2.18175e-06 0)
(0.00102144 -1.81823e-06 0)
(0.00102178 -1.41396e-06 0)
(0.00102207 -9.81209e-07 0)
(0.0010223 -4.99346e-07 0)
(0.00102246 1.10082e-08 0)
(0.00102255 5.82263e-07 0)
(0.00102256 1.18021e-06 0)
(0.00102249 1.85659e-06 0)
(0.00102232 2.55461e-06 0)
(0.00102205 3.35638e-06 0)
(0.00102167 4.16832e-06 0)
(0.00102119 5.12153e-06 0)
(0.00102056 6.06258e-06 0)
(0.00101981 7.20193e-06 0)
(0.0010189 8.28831e-06 0)
(0.00101785 9.66073e-06 0)