/*--------------------------------*- C++ -*----------------------------------*\
| =========                 |                                                 |
| \\      /  F ield         | OpenFOAM: The Open Source CFD Toolbox           |
|  \\    /   O peration     | Version:  2312                                  |
|   \\  /    A nd           | Website:  www.openfoam.com                      |
|    \\/     M anipulation  |                                                 |
\*---------------------------------------------------------------------------*/
FoamFile
{
    version     2.0;
    format      ascii;
    arch        "LSB;label=32;scalar=64";
    class       volScalarField;
    location    "130000";
    object      p;
}
// * * * * * * * * * * * * * * * * * * * * * * * * * * * * * * * * * * * * * //

dimensions      [0 2 -2 0 0 0 0];

internalField   nonuniform List<scalar> 
2715
(
5.3929e-07
5.25167e-07
5.114e-07
5.00824e-07
4.93402e-07
4.88011e-07
4.83561e-07
4.79483e-07
4.75609e-07
4.71946e-07
4.68532e-07
4.65369e-07
4.62425e-07
4.5965e-07
4.56997e-07
4.54433e-07
4.51936e-07
4.49494e-07
4.47094e-07
4.4473e-07
4.42392e-07
4.40071e-07
4.37763e-07
4.35461e-07
4.3316e-07
4.30858e-07
4.2855e-07
4.26234e-07
4.23909e-07
4.21573e-07
4.19224e-07
4.16861e-07
4.14484e-07
4.12093e-07
4.09687e-07
4.07267e-07
4.04833e-07
4.02385e-07
3.99923e-07
3.97448e-07
3.94961e-07
3.92462e-07
3.89951e-07
3.87428e-07
3.84893e-07
3.82346e-07
3.79787e-07
3.7721e-07
3.74623e-07
3.72007e-07
3.69386e-07
3.66708e-07
3.64052e-07
3.6125e-07
3.586e-07
3.55468e-07
3.53106e-07
3.48703e-07
3.48396e-07
3.37783e-07
4.91245e-07
4.89518e-07
4.86873e-07
4.83748e-07
4.80532e-07
4.77438e-07
4.74516e-07
4.7173e-07
4.69029e-07
4.66384e-07
4.63787e-07
4.61245e-07
4.58764e-07
4.56344e-07
4.53979e-07
4.51659e-07
4.49375e-07
4.4712e-07
4.44887e-07
4.42671e-07
4.40469e-07
4.38275e-07
4.36087e-07
4.33901e-07
4.31714e-07
4.29523e-07
4.27326e-07
4.25122e-07
4.22908e-07
4.20683e-07
4.18447e-07
4.16197e-07
4.13936e-07
4.1166e-07
4.09372e-07
4.07068e-07
4.04753e-07
4.02421e-07
4.0008e-07
3.97721e-07
3.95356e-07
3.9297e-07
3.90582e-07
3.88168e-07
3.8576e-07
3.83316e-07
3.80891e-07
3.78414e-07
3.75982e-07
3.73468e-07
3.71047e-07
3.68498e-07
3.66144e-07
3.63578e-07
3.61426e-07
3.58913e-07
3.57299e-07
3.54918e-07
3.54451e-07
3.51787e-07
4.82501e-07
4.81751e-07
4.80337e-07
4.78385e-07
4.76101e-07
4.73681e-07
4.71251e-07
4.68862e-07
4.66517e-07
4.64202e-07
4.61909e-07
4.59637e-07
4.57392e-07
4.55179e-07
4.52999e-07
4.5085e-07
4.48729e-07
4.4663e-07
4.44549e-07
4.42481e-07
4.40424e-07
4.38375e-07
4.36331e-07
4.3429e-07
4.32248e-07
4.30205e-07
4.28159e-07
4.26107e-07
4.24048e-07
4.21982e-07
4.19907e-07
4.17822e-07
4.15729e-07
4.13623e-07
4.11509e-07
4.09381e-07
4.07245e-07
4.05095e-07
4.02937e-07
4.00763e-07
3.98584e-07
3.96387e-07
3.94188e-07
3.91967e-07
3.89749e-07
3.87504e-07
3.85271e-07
3.83003e-07
3.8076e-07
3.78471e-07
3.76232e-07
3.73928e-07
3.71715e-07
3.69406e-07
3.67256e-07
3.64959e-07
3.62926e-07
3.60647e-07
3.5877e-07
3.56412e-07
4.70763e-07
4.70331e-07
4.69544e-07
4.68454e-07
4.67129e-07
4.65641e-07
4.64047e-07
4.62385e-07
4.60678e-07
4.58936e-07
4.57165e-07
4.5537e-07
4.53559e-07
4.51737e-07
4.49909e-07
4.48077e-07
4.46245e-07
4.44411e-07
4.42576e-07
4.40739e-07
4.38899e-07
4.37056e-07
4.35209e-07
4.33358e-07
4.31502e-07
4.2964e-07
4.27772e-07
4.25897e-07
4.24015e-07
4.22125e-07
4.20228e-07
4.18322e-07
4.16409e-07
4.14486e-07
4.12556e-07
4.10617e-07
4.0867e-07
4.06714e-07
4.04751e-07
4.02778e-07
4.00798e-07
3.98807e-07
3.96809e-07
3.94799e-07
3.92783e-07
3.90751e-07
3.88713e-07
3.86654e-07
3.84589e-07
3.82496e-07
3.80398e-07
3.78262e-07
3.76123e-07
3.73936e-07
3.71751e-07
3.69502e-07
3.67264e-07
3.64944e-07
3.6265e-07
3.60279e-07
4.64059e-07
4.63846e-07
4.63414e-07
4.62768e-07
4.61924e-07
4.60911e-07
4.5976e-07
4.58503e-07
4.57163e-07
4.55759e-07
4.54302e-07
4.52802e-07
4.51265e-07
4.49699e-07
4.48108e-07
4.46498e-07
4.44873e-07
4.43235e-07
4.41586e-07
4.39928e-07
4.3826e-07
4.36585e-07
4.34903e-07
4.33214e-07
4.31519e-07
4.29817e-07
4.28109e-07
4.26396e-07
4.24676e-07
4.22952e-07
4.21222e-07
4.19486e-07
4.17746e-07
4.16002e-07
4.14253e-07
4.12499e-07
4.10742e-07
4.0898e-07
4.07215e-07
4.05445e-07
4.03672e-07
4.01894e-07
4.00113e-07
3.98325e-07
3.96533e-07
3.94733e-07
3.92927e-07
3.91111e-07
3.89284e-07
3.87443e-07
3.85584e-07
3.837e-07
3.81781e-07
3.79817e-07
3.77791e-07
3.75689e-07
3.73498e-07
3.71226e-07
3.6888e-07
3.66551e-07
4.58536e-07
4.58374e-07
4.58049e-07
4.57564e-07
4.56931e-07
4.56165e-07
4.55284e-07
4.54306e-07
4.53247e-07
4.52119e-07
4.50932e-07
4.49695e-07
4.48413e-07
4.47092e-07
4.45738e-07
4.44355e-07
4.42947e-07
4.41518e-07
4.40071e-07
4.38607e-07
4.37129e-07
4.35638e-07
4.34135e-07
4.32623e-07
4.31101e-07
4.29571e-07
4.28034e-07
4.26491e-07
4.24942e-07
4.23389e-07
4.21831e-07
4.2027e-07
4.18705e-07
4.17139e-07
4.1557e-07
4.14001e-07
4.1243e-07
4.1086e-07
4.09288e-07
4.07717e-07
4.06146e-07
4.04574e-07
4.03001e-07
4.01427e-07
3.9985e-07
3.98268e-07
3.96679e-07
3.95081e-07
3.93469e-07
3.91842e-07
3.90193e-07
3.88526e-07
3.8683e-07
3.85111e-07
3.83349e-07
3.81548e-07
3.79675e-07
3.77751e-07
3.75767e-07
3.73849e-07
4.54186e-07
4.54067e-07
4.5383e-07
4.53474e-07
4.53003e-07
4.52425e-07
4.51749e-07
4.50984e-07
4.50141e-07
4.49229e-07
4.48256e-07
4.47229e-07
4.46153e-07
4.45033e-07
4.43875e-07
4.42682e-07
4.4146e-07
4.4021e-07
4.38937e-07
4.37644e-07
4.36332e-07
4.35004e-07
4.33662e-07
4.32308e-07
4.30944e-07
4.2957e-07
4.28189e-07
4.26803e-07
4.25411e-07
4.24016e-07
4.22618e-07
4.21219e-07
4.1982e-07
4.18422e-07
4.17026e-07
4.15632e-07
4.14241e-07
4.12855e-07
4.11474e-07
4.10098e-07
4.08728e-07
4.07364e-07
4.06006e-07
4.04655e-07
4.03308e-07
4.01968e-07
4.00632e-07
3.993e-07
3.97968e-07
3.96636e-07
3.95293e-07
3.93937e-07
3.92553e-07
3.91145e-07
3.89699e-07
3.88228e-07
3.86713e-07
3.85179e-07
3.83625e-07
3.8216e-07
4.50732e-07
4.50639e-07
4.50454e-07
4.50175e-07
4.49804e-07
4.49344e-07
4.48801e-07
4.48181e-07
4.47489e-07
4.46734e-07
4.45918e-07
4.45049e-07
4.44132e-07
4.4317e-07
4.42169e-07
4.41132e-07
4.40064e-07
4.38967e-07
4.37845e-07
4.36701e-07
4.35537e-07
4.34356e-07
4.3316e-07
4.31952e-07
4.30733e-07
4.29505e-07
4.2827e-07
4.2703e-07
4.25786e-07
4.24541e-07
4.23296e-07
4.22051e-07
4.2081e-07
4.19572e-07
4.1834e-07
4.17115e-07
4.15898e-07
4.1469e-07
4.13493e-07
4.12307e-07
4.11134e-07
4.09974e-07
4.08827e-07
4.07695e-07
4.06577e-07
4.05473e-07
4.04382e-07
4.03304e-07
4.02237e-07
4.01184e-07
4.0014e-07
3.99107e-07
3.98073e-07
3.97039e-07
3.95992e-07
3.94941e-07
3.93875e-07
3.92822e-07
3.91789e-07
3.9088e-07
4.47965e-07
4.4789e-07
4.47738e-07
4.4751e-07
4.47205e-07
4.46826e-07
4.46376e-07
4.45858e-07
4.45279e-07
4.4464e-07
4.43947e-07
4.43204e-07
4.42414e-07
4.41583e-07
4.40713e-07
4.39807e-07
4.38871e-07
4.37906e-07
4.36915e-07
4.35902e-07
4.34869e-07
4.33819e-07
4.32754e-07
4.31676e-07
4.30589e-07
4.29493e-07
4.28391e-07
4.27286e-07
4.26178e-07
4.25071e-07
4.23966e-07
4.22865e-07
4.2177e-07
4.20682e-07
4.19604e-07
4.18538e-07
4.17484e-07
4.16446e-07
4.15424e-07
4.14421e-07
4.13437e-07
4.12475e-07
4.11536e-07
4.10621e-07
4.09732e-07
4.0887e-07
4.08036e-07
4.07231e-07
4.06455e-07
4.05706e-07
4.04981e-07
4.04283e-07
4.03609e-07
4.02964e-07
4.02341e-07
4.01747e-07
4.01176e-07
4.0065e-07
4.00179e-07
3.99852e-07
4.45761e-07
4.45697e-07
4.45569e-07
4.45376e-07
4.45118e-07
4.44797e-07
4.44414e-07
4.43973e-07
4.43476e-07
4.42926e-07
4.42328e-07
4.41683e-07
4.40995e-07
4.40267e-07
4.39503e-07
4.38706e-07
4.37878e-07
4.37022e-07
4.36142e-07
4.35239e-07
4.34318e-07
4.33379e-07
4.32427e-07
4.31463e-07
4.30489e-07
4.29509e-07
4.28524e-07
4.27537e-07
4.2655e-07
4.25565e-07
4.24585e-07
4.23612e-07
4.22649e-07
4.21696e-07
4.20758e-07
4.19835e-07
4.18931e-07
4.18048e-07
4.17188e-07
4.16353e-07
4.15546e-07
4.14769e-07
4.14025e-07
4.13315e-07
4.12643e-07
4.1201e-07
4.11418e-07
4.10871e-07
4.1037e-07
4.09917e-07
4.0951e-07
4.09155e-07
4.08853e-07
4.08607e-07
4.08417e-07
4.0829e-07
4.08225e-07
4.0824e-07
4.08352e-07
4.08632e-07
4.44031e-07
4.43976e-07
4.43865e-07
4.43697e-07
4.43473e-07
4.43194e-07
4.4286e-07
4.42475e-07
4.4204e-07
4.41557e-07
4.4103e-07
4.40461e-07
4.39852e-07
4.39206e-07
4.38525e-07
4.37813e-07
4.37073e-07
4.36306e-07
4.35515e-07
4.34704e-07
4.33874e-07
4.33029e-07
4.32171e-07
4.31302e-07
4.30425e-07
4.29543e-07
4.28658e-07
4.27772e-07
4.26889e-07
4.2601e-07
4.25139e-07
4.24277e-07
4.23428e-07
4.22595e-07
4.21779e-07
4.20984e-07
4.20212e-07
4.19467e-07
4.18751e-07
4.18068e-07
4.17421e-07
4.16812e-07
4.16245e-07
4.15724e-07
4.15251e-07
4.14832e-07
4.14468e-07
4.14164e-07
4.1392e-07
4.13744e-07
4.13639e-07
4.13611e-07
4.13662e-07
4.13799e-07
4.14025e-07
4.14349e-07
4.14774e-07
4.15318e-07
4.15997e-07
4.16869e-07
4.42712e-07
4.42662e-07
4.42564e-07
4.42414e-07
4.42215e-07
4.41966e-07
4.41668e-07
4.41323e-07
4.40934e-07
4.40501e-07
4.40027e-07
4.39514e-07
4.38965e-07
4.38381e-07
4.37765e-07
4.37119e-07
4.36446e-07
4.35749e-07
4.35029e-07
4.3429e-07
4.33533e-07
4.32763e-07
4.3198e-07
4.31189e-07
4.3039e-07
4.29588e-07
4.28784e-07
4.27982e-07
4.27183e-07
4.26392e-07
4.25611e-07
4.24842e-07
4.24088e-07
4.23353e-07
4.2264e-07
4.21952e-07
4.21292e-07
4.20664e-07
4.20071e-07
4.19516e-07
4.19004e-07
4.18539e-07
4.18124e-07
4.17764e-07
4.17464e-07
4.17227e-07
4.17059e-07
4.16967e-07
4.16953e-07
4.17024e-07
4.17188e-07
4.1745e-07
4.17817e-07
4.18297e-07
4.18897e-07
4.19628e-07
4.20498e-07
4.21524e-07
4.22724e-07
4.2414e-07
4.41758e-07
4.41713e-07
4.41623e-07
4.41486e-07
4.41304e-07
4.41076e-07
4.40803e-07
4.40487e-07
4.40129e-07
4.39732e-07
4.39296e-07
4.38824e-07
4.38317e-07
4.37778e-07
4.37208e-07
4.36611e-07
4.35988e-07
4.35342e-07
4.34675e-07
4.33989e-07
4.33288e-07
4.32573e-07
4.31848e-07
4.31114e-07
4.30375e-07
4.29633e-07
4.28892e-07
4.28153e-07
4.2742e-07
4.26696e-07
4.25983e-07
4.25286e-07
4.24606e-07
4.23948e-07
4.23315e-07
4.2271e-07
4.22137e-07
4.216e-07
4.21103e-07
4.2065e-07
4.20245e-07
4.19894e-07
4.196e-07
4.19369e-07
4.19206e-07
4.19117e-07
4.19108e-07
4.19185e-07
4.19355e-07
4.19627e-07
4.20009e-07
4.20508e-07
4.21134e-07
4.21896e-07
4.22805e-07
4.23872e-07
4.25111e-07
4.26538e-07
4.28173e-07
4.30043e-07
4.41139e-07
4.41097e-07
4.41012e-07
4.40883e-07
4.40712e-07
4.40497e-07
4.4024e-07
4.39942e-07
4.39605e-07
4.3923e-07
4.38819e-07
4.38373e-07
4.37894e-07
4.37384e-07
4.36845e-07
4.36279e-07
4.35689e-07
4.35077e-07
4.34444e-07
4.33794e-07
4.33129e-07
4.32452e-07
4.31765e-07
4.3107e-07
4.30371e-07
4.2967e-07
4.28971e-07
4.28275e-07
4.27586e-07
4.26908e-07
4.26242e-07
4.25593e-07
4.24964e-07
4.24359e-07
4.2378e-07
4.23232e-07
4.22719e-07
4.22245e-07
4.21814e-07
4.21431e-07
4.21101e-07
4.20828e-07
4.20619e-07
4.20478e-07
4.20411e-07
4.20425e-07
4.20527e-07
4.20723e-07
4.21023e-07
4.21437e-07
4.21972e-07
4.22639e-07
4.23448e-07
4.24411e-07
4.2554e-07
4.26849e-07
4.28353e-07
4.30068e-07
4.32016e-07
4.34216e-07
4.40834e-07
4.40793e-07
4.40711e-07
4.40586e-07
4.4042e-07
4.40212e-07
4.39963e-07
4.39674e-07
4.39347e-07
4.38983e-07
4.38583e-07
4.3815e-07
4.37685e-07
4.37189e-07
4.36666e-07
4.36116e-07
4.35542e-07
4.34947e-07
4.34332e-07
4.337e-07
4.33053e-07
4.32394e-07
4.31726e-07
4.31051e-07
4.30373e-07
4.29692e-07
4.29014e-07
4.2834e-07
4.27674e-07
4.27018e-07
4.26377e-07
4.25753e-07
4.2515e-07
4.24571e-07
4.2402e-07
4.23502e-07
4.23019e-07
4.22577e-07
4.2218e-07
4.21833e-07
4.2154e-07
4.21308e-07
4.21141e-07
4.21046e-07
4.21029e-07
4.21097e-07
4.21258e-07
4.21518e-07
4.21887e-07
4.22373e-07
4.22988e-07
4.23741e-07
4.24645e-07
4.25712e-07
4.26956e-07
4.2839e-07
4.30034e-07
4.319e-07
4.34012e-07
4.36384e-07
4.40834e-07
4.40793e-07
4.40711e-07
4.40587e-07
4.4042e-07
4.40212e-07
4.39963e-07
4.39674e-07
4.39347e-07
4.38983e-07
4.38584e-07
4.38151e-07
4.37686e-07
4.3719e-07
4.36667e-07
4.36117e-07
4.35543e-07
4.34948e-07
4.34333e-07
4.33701e-07
4.33055e-07
4.32397e-07
4.31729e-07
4.31054e-07
4.30376e-07
4.29696e-07
4.29018e-07
4.28344e-07
4.27678e-07
4.27023e-07
4.26382e-07
4.25758e-07
4.25155e-07
4.24577e-07
4.24026e-07
4.23508e-07
4.23026e-07
4.22585e-07
4.22188e-07
4.21842e-07
4.21549e-07
4.21316e-07
4.21149e-07
4.21054e-07
4.21037e-07
4.21105e-07
4.21266e-07
4.21527e-07
4.21896e-07
4.22383e-07
4.22999e-07
4.23752e-07
4.24657e-07
4.25724e-07
4.26969e-07
4.28404e-07
4.30048e-07
4.31915e-07
4.34027e-07
4.364e-07
4.41139e-07
4.41097e-07
4.41012e-07
4.40884e-07
4.40712e-07
4.40497e-07
4.40241e-07
4.39943e-07
4.39606e-07
4.39231e-07
4.3882e-07
4.38374e-07
4.37896e-07
4.37386e-07
4.36848e-07
4.36283e-07
4.35693e-07
4.35081e-07
4.34449e-07
4.338e-07
4.33136e-07
4.32459e-07
4.31772e-07
4.31078e-07
4.3038e-07
4.2968e-07
4.28981e-07
4.28286e-07
4.27598e-07
4.26921e-07
4.26256e-07
4.25608e-07
4.2498e-07
4.24376e-07
4.23798e-07
4.23251e-07
4.22739e-07
4.22266e-07
4.21837e-07
4.21455e-07
4.21126e-07
4.20854e-07
4.20645e-07
4.20504e-07
4.20437e-07
4.20452e-07
4.20555e-07
4.20755e-07
4.21058e-07
4.21473e-07
4.22009e-07
4.22677e-07
4.23487e-07
4.24451e-07
4.25581e-07
4.26891e-07
4.28397e-07
4.30114e-07
4.32063e-07
4.34264e-07
4.41758e-07
4.41713e-07
4.41623e-07
4.41487e-07
4.41304e-07
4.41076e-07
4.40804e-07
4.40488e-07
4.40131e-07
4.39734e-07
4.39298e-07
4.38827e-07
4.3832e-07
4.37782e-07
4.37213e-07
4.36617e-07
4.35994e-07
4.35349e-07
4.34683e-07
4.33998e-07
4.33298e-07
4.32584e-07
4.3186e-07
4.31127e-07
4.30389e-07
4.29649e-07
4.28909e-07
4.28171e-07
4.2744e-07
4.26717e-07
4.26006e-07
4.2531e-07
4.24632e-07
4.23975e-07
4.23344e-07
4.22741e-07
4.2217e-07
4.21634e-07
4.21139e-07
4.20688e-07
4.20285e-07
4.19936e-07
4.19644e-07
4.19415e-07
4.19253e-07
4.19164e-07
4.19157e-07
4.19236e-07
4.19409e-07
4.19684e-07
4.20068e-07
4.20569e-07
4.21196e-07
4.2196e-07
4.22871e-07
4.2394e-07
4.25182e-07
4.26611e-07
4.28247e-07
4.30121e-07
4.42711e-07
4.42662e-07
4.42563e-07
4.42414e-07
4.42215e-07
4.41966e-07
4.41669e-07
4.41324e-07
4.40935e-07
4.40503e-07
4.4003e-07
4.39518e-07
4.38969e-07
4.38386e-07
4.37771e-07
4.37126e-07
4.36454e-07
4.35758e-07
4.35039e-07
4.34301e-07
4.33547e-07
4.32777e-07
4.31996e-07
4.31206e-07
4.30409e-07
4.29608e-07
4.28807e-07
4.28006e-07
4.2721e-07
4.2642e-07
4.25641e-07
4.24874e-07
4.24123e-07
4.2339e-07
4.22679e-07
4.21994e-07
4.21336e-07
4.2071e-07
4.20119e-07
4.19568e-07
4.19059e-07
4.18596e-07
4.18184e-07
4.17828e-07
4.1753e-07
4.17296e-07
4.1713e-07
4.17038e-07
4.17026e-07
4.171e-07
4.17267e-07
4.17532e-07
4.17902e-07
4.18385e-07
4.18987e-07
4.19721e-07
4.20593e-07
4.21622e-07
4.22825e-07
4.24244e-07
4.44029e-07
4.43974e-07
4.43863e-07
4.43696e-07
4.43472e-07
4.43193e-07
4.4286e-07
4.42475e-07
4.42041e-07
4.41559e-07
4.41033e-07
4.40464e-07
4.39856e-07
4.39211e-07
4.38532e-07
4.37821e-07
4.37082e-07
4.36316e-07
4.35527e-07
4.34717e-07
4.3389e-07
4.33046e-07
4.3219e-07
4.31323e-07
4.30448e-07
4.29568e-07
4.28685e-07
4.27802e-07
4.26921e-07
4.26044e-07
4.25175e-07
4.24317e-07
4.2347e-07
4.22639e-07
4.21826e-07
4.21034e-07
4.20266e-07
4.19524e-07
4.18811e-07
4.18132e-07
4.17487e-07
4.16882e-07
4.16319e-07
4.15802e-07
4.15333e-07
4.14917e-07
4.14555e-07
4.14252e-07
4.14011e-07
4.13838e-07
4.13737e-07
4.13712e-07
4.13767e-07
4.13908e-07
4.14137e-07
4.14463e-07
4.14891e-07
4.15438e-07
4.16121e-07
4.16998e-07
4.45758e-07
4.45694e-07
4.45566e-07
4.45374e-07
4.45116e-07
4.44795e-07
4.44413e-07
4.43972e-07
4.43476e-07
4.42927e-07
4.42329e-07
4.41685e-07
4.40999e-07
4.40272e-07
4.39509e-07
4.38713e-07
4.37887e-07
4.37033e-07
4.36154e-07
4.35254e-07
4.34334e-07
4.33398e-07
4.32447e-07
4.31485e-07
4.30514e-07
4.29536e-07
4.28554e-07
4.2757e-07
4.26586e-07
4.25604e-07
4.24627e-07
4.23657e-07
4.22696e-07
4.21747e-07
4.20812e-07
4.19893e-07
4.18993e-07
4.18114e-07
4.17257e-07
4.16426e-07
4.15623e-07
4.14851e-07
4.1411e-07
4.13405e-07
4.12737e-07
4.12109e-07
4.11522e-07
4.10979e-07
4.10479e-07
4.10027e-07
4.09623e-07
4.09272e-07
4.08974e-07
4.08733e-07
4.08546e-07
4.08423e-07
4.0836e-07
4.0838e-07
4.08495e-07
4.08779e-07
4.4796e-07
4.47885e-07
4.47733e-07
4.47505e-07
4.47201e-07
4.46822e-07
4.46372e-07
4.45856e-07
4.45277e-07
4.44639e-07
4.43947e-07
4.43205e-07
4.42417e-07
4.41586e-07
4.40717e-07
4.39814e-07
4.38879e-07
4.37915e-07
4.36927e-07
4.35916e-07
4.34885e-07
4.33837e-07
4.32774e-07
4.317e-07
4.30614e-07
4.29522e-07
4.28423e-07
4.2732e-07
4.26216e-07
4.25112e-07
4.2401e-07
4.22913e-07
4.21821e-07
4.20738e-07
4.19664e-07
4.18601e-07
4.17552e-07
4.16518e-07
4.155e-07
4.14501e-07
4.13522e-07
4.12565e-07
4.11631e-07
4.10722e-07
4.09838e-07
4.08982e-07
4.08153e-07
4.07352e-07
4.06577e-07
4.05829e-07
4.05105e-07
4.04411e-07
4.03742e-07
4.03102e-07
4.02483e-07
4.01893e-07
4.01325e-07
4.00803e-07
4.00336e-07
4.00013e-07
4.50724e-07
4.50632e-07
4.50446e-07
4.50168e-07
4.49797e-07
4.49337e-07
4.48795e-07
4.48175e-07
4.47485e-07
4.4673e-07
4.45916e-07
4.45048e-07
4.44131e-07
4.43171e-07
4.42171e-07
4.41136e-07
4.40069e-07
4.38974e-07
4.37854e-07
4.36712e-07
4.35551e-07
4.34372e-07
4.33179e-07
4.31973e-07
4.30757e-07
4.29532e-07
4.283e-07
4.27063e-07
4.25823e-07
4.24582e-07
4.2334e-07
4.221e-07
4.20862e-07
4.19629e-07
4.18401e-07
4.17181e-07
4.15968e-07
4.14765e-07
4.13573e-07
4.12392e-07
4.11223e-07
4.10068e-07
4.08927e-07
4.07799e-07
4.06685e-07
4.05585e-07
4.04498e-07
4.03425e-07
4.02365e-07
4.0132e-07
4.00283e-07
3.99255e-07
3.98222e-07
3.97189e-07
3.96143e-07
3.95095e-07
3.94034e-07
3.92985e-07
3.91956e-07
3.91051e-07
4.54175e-07
4.54056e-07
4.53819e-07
4.53463e-07
4.52993e-07
4.52415e-07
4.51739e-07
4.50975e-07
4.50133e-07
4.49222e-07
4.4825e-07
4.47224e-07
4.46149e-07
4.4503e-07
4.43874e-07
4.42683e-07
4.41462e-07
4.40214e-07
4.38943e-07
4.37651e-07
4.36342e-07
4.35016e-07
4.33677e-07
4.32326e-07
4.30964e-07
4.29594e-07
4.28217e-07
4.26834e-07
4.25446e-07
4.24055e-07
4.22661e-07
4.21267e-07
4.19872e-07
4.18478e-07
4.17087e-07
4.15698e-07
4.14312e-07
4.12932e-07
4.11556e-07
4.10185e-07
4.08821e-07
4.07463e-07
4.0611e-07
4.04765e-07
4.03425e-07
4.02092e-07
4.00763e-07
3.99439e-07
3.98113e-07
3.96784e-07
3.95442e-07
3.94084e-07
3.92699e-07
3.91293e-07
3.89852e-07
3.88388e-07
3.86878e-07
3.85348e-07
3.83795e-07
3.82333e-07
4.58521e-07
4.58359e-07
4.58034e-07
4.57549e-07
4.56917e-07
4.56151e-07
4.5527e-07
4.54292e-07
4.53234e-07
4.52106e-07
4.5092e-07
4.49684e-07
4.48402e-07
4.47083e-07
4.4573e-07
4.44348e-07
4.42942e-07
4.41515e-07
4.40069e-07
4.38607e-07
4.37131e-07
4.35642e-07
4.34142e-07
4.32632e-07
4.31114e-07
4.29587e-07
4.28054e-07
4.26514e-07
4.24969e-07
4.2342e-07
4.21866e-07
4.2031e-07
4.1875e-07
4.17188e-07
4.15625e-07
4.14061e-07
4.12496e-07
4.10931e-07
4.09365e-07
4.078e-07
4.06234e-07
4.04668e-07
4.03101e-07
4.01533e-07
3.9996e-07
3.98384e-07
3.96798e-07
3.95204e-07
3.93596e-07
3.91974e-07
3.90331e-07
3.88672e-07
3.86986e-07
3.85279e-07
3.83524e-07
3.81726e-07
3.7985e-07
3.77921e-07
3.75934e-07
3.74017e-07
4.6404e-07
4.63827e-07
4.63395e-07
4.6275e-07
4.61906e-07
4.60892e-07
4.59742e-07
4.58485e-07
4.57146e-07
4.55742e-07
4.54286e-07
4.52786e-07
4.5125e-07
4.49684e-07
4.48094e-07
4.46485e-07
4.44861e-07
4.43224e-07
4.41577e-07
4.3992e-07
4.38255e-07
4.36582e-07
4.34902e-07
4.33215e-07
4.31523e-07
4.29824e-07
4.2812e-07
4.2641e-07
4.24695e-07
4.22974e-07
4.21249e-07
4.19518e-07
4.17784e-07
4.16044e-07
4.14301e-07
4.12553e-07
4.10802e-07
4.09047e-07
4.07288e-07
4.05525e-07
4.03759e-07
4.01988e-07
4.00213e-07
3.98433e-07
3.96648e-07
3.94857e-07
3.93058e-07
3.9125e-07
3.89432e-07
3.87599e-07
3.85746e-07
3.83868e-07
3.81951e-07
3.79987e-07
3.77957e-07
3.75851e-07
3.73658e-07
3.71387e-07
3.69039e-07
3.66714e-07
4.70739e-07
4.70306e-07
4.6952e-07
4.68429e-07
4.67105e-07
4.65616e-07
4.64022e-07
4.6236e-07
4.60653e-07
4.58911e-07
4.57139e-07
4.55345e-07
4.53534e-07
4.51712e-07
4.49884e-07
4.48053e-07
4.46221e-07
4.44388e-07
4.42554e-07
4.40717e-07
4.38879e-07
4.37037e-07
4.35192e-07
4.33343e-07
4.3149e-07
4.29631e-07
4.27766e-07
4.25894e-07
4.24016e-07
4.22131e-07
4.20238e-07
4.18337e-07
4.16429e-07
4.14512e-07
4.12588e-07
4.10655e-07
4.08715e-07
4.06765e-07
4.04809e-07
4.02843e-07
4.0087e-07
3.98886e-07
3.96896e-07
3.94892e-07
3.92883e-07
3.90857e-07
3.88825e-07
3.86772e-07
3.84711e-07
3.82622e-07
3.80527e-07
3.78395e-07
3.76258e-07
3.74074e-07
3.71891e-07
3.69648e-07
3.67414e-07
3.65102e-07
3.62815e-07
3.60445e-07
4.82473e-07
4.81723e-07
4.80309e-07
4.78357e-07
4.76073e-07
4.73652e-07
4.71222e-07
4.68832e-07
4.66486e-07
4.6417e-07
4.61876e-07
4.59604e-07
4.57358e-07
4.55144e-07
4.52964e-07
4.50815e-07
4.48693e-07
4.46594e-07
4.44513e-07
4.42446e-07
4.40389e-07
4.38341e-07
4.36298e-07
4.34258e-07
4.32219e-07
4.30178e-07
4.28135e-07
4.26086e-07
4.24031e-07
4.21969e-07
4.19899e-07
4.1782e-07
4.15731e-07
4.13632e-07
4.11524e-07
4.09403e-07
4.07274e-07
4.05132e-07
4.02981e-07
4.00816e-07
3.98645e-07
3.96457e-07
3.94266e-07
3.92054e-07
3.89845e-07
3.87609e-07
3.85384e-07
3.83125e-07
3.80892e-07
3.78611e-07
3.76381e-07
3.74084e-07
3.71878e-07
3.69575e-07
3.67428e-07
3.65132e-07
3.63095e-07
3.60813e-07
3.58926e-07
3.56562e-07
4.91213e-07
4.89485e-07
4.8684e-07
4.83714e-07
4.80498e-07
4.77403e-07
4.74479e-07
4.71692e-07
4.6899e-07
4.66343e-07
4.63744e-07
4.612e-07
4.58718e-07
4.56296e-07
4.53929e-07
4.51608e-07
4.49322e-07
4.47066e-07
4.44831e-07
4.42615e-07
4.40412e-07
4.38218e-07
4.36031e-07
4.33845e-07
4.3166e-07
4.29471e-07
4.27277e-07
4.25075e-07
4.22865e-07
4.20644e-07
4.18413e-07
4.16169e-07
4.13914e-07
4.11644e-07
4.09363e-07
4.07067e-07
4.04759e-07
4.02436e-07
4.00104e-07
3.97753e-07
3.95397e-07
3.9302e-07
3.90641e-07
3.88236e-07
3.85837e-07
3.83402e-07
3.80986e-07
3.78517e-07
3.76094e-07
3.73588e-07
3.71176e-07
3.68634e-07
3.66289e-07
3.6373e-07
3.61585e-07
3.59076e-07
3.57466e-07
3.55087e-07
3.54619e-07
3.51952e-07
5.39255e-07
5.25132e-07
5.11365e-07
5.00787e-07
4.93364e-07
4.87972e-07
4.83521e-07
4.79441e-07
4.75564e-07
4.71899e-07
4.68481e-07
4.65316e-07
4.62369e-07
4.59591e-07
4.56936e-07
4.54369e-07
4.5187e-07
4.49425e-07
4.47024e-07
4.44658e-07
4.42318e-07
4.39997e-07
4.37688e-07
4.35387e-07
4.33087e-07
4.30786e-07
4.2848e-07
4.26168e-07
4.23847e-07
4.21514e-07
4.1917e-07
4.16814e-07
4.14443e-07
4.12059e-07
4.09661e-07
4.07249e-07
4.04824e-07
4.02385e-07
3.99932e-07
3.97468e-07
3.94991e-07
3.92501e-07
3.90001e-07
3.87488e-07
3.84964e-07
3.82427e-07
3.79879e-07
3.77313e-07
3.74736e-07
3.72132e-07
3.69522e-07
3.66854e-07
3.64211e-07
3.61419e-07
3.58784e-07
3.55661e-07
3.53318e-07
3.4892e-07
3.48628e-07
3.38048e-07
3.44152e-07
3.42799e-07
3.37987e-07
3.31923e-07
3.25993e-07
3.21099e-07
3.17735e-07
3.1601e-07
3.15703e-07
3.16325e-07
3.17271e-07
3.18059e-07
3.18426e-07
3.18431e-07
3.18374e-07
3.53326e-07
3.49585e-07
3.43218e-07
3.3719e-07
3.32724e-07
3.29995e-07
3.28783e-07
3.28704e-07
3.29329e-07
3.30103e-07
3.30592e-07
3.30701e-07
3.30671e-07
3.30896e-07
3.317e-07
3.33283e-07
3.35578e-07
3.38449e-07
3.41571e-07
3.44577e-07
3.47465e-07
3.50461e-07
3.53373e-07
3.55316e-07
3.5486e-07
3.5071e-07
3.38756e-07
3.10325e-07
2.76931e-07
1.00269e-07
3.54501e-07
3.51188e-07
3.47331e-07
3.44014e-07
3.41777e-07
3.4054e-07
3.39871e-07
3.3934e-07
3.38748e-07
3.38258e-07
3.38323e-07
3.3931e-07
3.41255e-07
3.43906e-07
3.46959e-07
3.50256e-07
3.53742e-07
3.57339e-07
3.61094e-07
3.65177e-07
3.69967e-07
3.75405e-07
3.80828e-07
3.85436e-07
3.8846e-07
3.88699e-07
3.82179e-07
3.64849e-07
3.3229e-07
1.92676e-07
3.58024e-07
3.55868e-07
3.54018e-07
3.52574e-07
3.51587e-07
3.51004e-07
3.50689e-07
3.50575e-07
3.50751e-07
3.51482e-07
3.52969e-07
3.55248e-07
3.58188e-07
3.61512e-07
3.64949e-07
3.68407e-07
3.72058e-07
3.76246e-07
3.81331e-07
3.87547e-07
3.94753e-07
4.02437e-07
4.10007e-07
4.1731e-07
4.23982e-07
4.28724e-07
4.28271e-07
4.19361e-07
3.91483e-07
2.84898e-07
3.64368e-07
3.62883e-07
3.62054e-07
3.61646e-07
3.61504e-07
3.61595e-07
3.61963e-07
3.62687e-07
3.63859e-07
3.65532e-07
3.67671e-07
3.70166e-07
3.72911e-07
3.7594e-07
3.79481e-07
3.83897e-07
3.89444e-07
3.96125e-07
4.03781e-07
4.12227e-07
4.21153e-07
4.30393e-07
4.40151e-07
4.50585e-07
4.61135e-07
4.70379e-07
4.75857e-07
4.74303e-07
4.54195e-07
3.76409e-07
3.72132e-07
3.71234e-07
3.711e-07
3.71452e-07
3.72082e-07
3.72929e-07
3.74041e-07
3.75498e-07
3.77362e-07
3.79649e-07
3.82353e-07
3.85487e-07
3.89127e-07
3.93457e-07
3.98666e-07
4.04844e-07
4.11986e-07
4.19949e-07
4.2854e-07
4.37706e-07
4.47673e-07
4.58881e-07
4.71619e-07
4.85562e-07
4.99812e-07
5.13315e-07
5.24356e-07
5.29727e-07
5.18596e-07
4.64734e-07
3.80936e-07
3.80592e-07
3.81053e-07
3.8204e-07
3.83332e-07
3.8485e-07
3.86623e-07
3.88728e-07
3.9124e-07
3.94215e-07
3.97705e-07
4.0177e-07
4.06483e-07
4.11917e-07
4.18116e-07
4.25079e-07
4.32774e-07
4.41256e-07
4.50758e-07
4.61658e-07
4.74278e-07
4.88655e-07
5.04527e-07
5.21378e-07
5.38793e-07
5.56407e-07
5.72847e-07
5.8486e-07
5.83097e-07
5.49127e-07
3.90242e-07
3.90465e-07
3.91473e-07
3.93017e-07
3.9489e-07
3.97013e-07
3.99413e-07
4.02164e-07
4.05355e-07
4.09059e-07
4.13336e-07
4.18241e-07
4.23825e-07
4.30138e-07
4.37239e-07
4.45207e-07
4.54174e-07
4.64353e-07
4.75969e-07
4.8914e-07
5.0388e-07
5.20071e-07
5.37598e-07
5.56584e-07
5.77239e-07
5.99158e-07
6.20738e-07
6.3888e-07
6.45814e-07
6.27749e-07
3.99809e-07
4.00584e-07
4.02108e-07
4.0416e-07
4.06563e-07
4.09251e-07
4.12251e-07
4.1564e-07
4.19504e-07
4.23919e-07
4.28949e-07
4.34653e-07
4.41092e-07
4.48339e-07
4.56485e-07
4.65645e-07
4.75945e-07
4.87521e-07
5.00494e-07
5.14951e-07
5.30949e-07
5.48637e-07
5.68358e-07
5.90431e-07
6.14799e-07
6.40724e-07
6.66713e-07
6.90241e-07
7.05048e-07
6.99693e-07
4.09203e-07
4.10513e-07
4.12507e-07
4.15013e-07
4.17891e-07
4.21093e-07
4.24651e-07
4.28637e-07
4.33133e-07
4.38216e-07
4.43953e-07
4.50409e-07
4.57656e-07
4.65777e-07
4.74872e-07
4.85053e-07
4.96444e-07
5.09178e-07
5.23406e-07
5.39307e-07
5.57114e-07
5.77093e-07
5.99447e-07
6.24181e-07
6.51102e-07
6.79754e-07
7.0933e-07
7.37677e-07
7.59258e-07
7.63521e-07
4.18033e-07
4.1984e-07
4.22258e-07
4.25165e-07
4.28465e-07
4.3213e-07
4.36195e-07
4.40727e-07
4.45804e-07
4.51499e-07
4.57883e-07
4.65029e-07
4.73016e-07
4.81935e-07
4.91892e-07
5.03008e-07
5.15423e-07
5.29292e-07
5.44796e-07
5.62131e-07
5.81511e-07
6.03131e-07
6.27161e-07
6.53682e-07
6.82715e-07
7.14107e-07
7.47239e-07
7.79874e-07
8.0704e-07
8.18301e-07
4.25845e-07
4.28092e-07
4.30871e-07
4.34114e-07
4.37768e-07
4.41827e-07
4.46325e-07
4.51326e-07
4.569e-07
4.6312e-07
4.7006e-07
4.77796e-07
4.86415e-07
4.96013e-07
5.06703e-07
5.18613e-07
5.31892e-07
5.46704e-07
5.63233e-07
5.81681e-07
6.02267e-07
6.25212e-07
6.50753e-07
6.79084e-07
7.10321e-07
7.44245e-07
7.80124e-07
8.15784e-07
8.4705e-07
8.63003e-07
4.322e-07
4.34803e-07
4.37868e-07
4.41375e-07
4.45307e-07
4.49676e-07
4.5452e-07
4.59894e-07
4.65866e-07
4.72506e-07
4.79889e-07
4.88096e-07
4.97218e-07
5.07357e-07
5.18631e-07
5.31174e-07
5.45138e-07
5.60695e-07
5.78038e-07
5.9738e-07
6.18957e-07
6.43013e-07
6.69799e-07
6.99505e-07
7.32236e-07
7.67778e-07
8.05514e-07
8.43417e-07
8.77818e-07
8.97098e-07
4.36697e-07
4.39553e-07
4.42817e-07
4.46504e-07
4.50628e-07
4.55212e-07
4.60295e-07
4.65929e-07
4.72178e-07
4.79109e-07
4.868e-07
4.95333e-07
5.04804e-07
5.15317e-07
5.26994e-07
5.39972e-07
5.54406e-07
5.70473e-07
5.88372e-07
6.08322e-07
6.30565e-07
6.55352e-07
6.82939e-07
7.13525e-07
7.47241e-07
7.83912e-07
8.22974e-07
8.62426e-07
8.98833e-07
9.20159e-07
4.39035e-07
4.42022e-07
4.45387e-07
4.49167e-07
4.53388e-07
4.58082e-07
4.63288e-07
4.69056e-07
4.75446e-07
4.82526e-07
4.90374e-07
4.99074e-07
5.08722e-07
5.19426e-07
5.31307e-07
5.44506e-07
5.59179e-07
5.75504e-07
5.93684e-07
6.13939e-07
6.36516e-07
6.61669e-07
6.89658e-07
7.20691e-07
7.54905e-07
7.92128e-07
8.31805e-07
8.71959e-07
9.09285e-07
9.31558e-07
4.39052e-07
4.42037e-07
4.45402e-07
4.49181e-07
4.53402e-07
4.58095e-07
4.63301e-07
4.69068e-07
4.75457e-07
4.82536e-07
4.90381e-07
4.99079e-07
5.08725e-07
5.19426e-07
5.31304e-07
5.44497e-07
5.59165e-07
5.75484e-07
5.93655e-07
6.139e-07
6.36466e-07
6.61603e-07
6.89573e-07
7.20583e-07
7.54768e-07
7.91954e-07
8.31584e-07
8.71679e-07
9.08926e-07
9.31106e-07
4.36745e-07
4.39598e-07
4.42859e-07
4.46545e-07
4.50669e-07
4.55252e-07
4.60334e-07
4.65966e-07
4.72211e-07
4.79138e-07
4.86823e-07
4.9535e-07
5.04813e-07
5.15318e-07
5.26984e-07
5.39948e-07
5.54367e-07
5.70414e-07
5.88289e-07
6.08209e-07
6.30416e-07
6.55158e-07
6.82689e-07
7.13206e-07
7.46833e-07
7.83393e-07
8.22314e-07
8.61588e-07
8.97759e-07
9.1881e-07
4.32277e-07
4.34877e-07
4.37937e-07
4.41442e-07
4.45374e-07
4.49743e-07
4.54585e-07
4.59955e-07
4.65921e-07
4.72553e-07
4.79928e-07
4.88125e-07
4.97236e-07
5.07361e-07
5.18618e-07
5.3114e-07
5.45078e-07
5.60603e-07
5.77907e-07
5.97201e-07
6.18719e-07
6.42703e-07
6.694e-07
6.98996e-07
7.31585e-07
7.66944e-07
8.0444e-07
8.42036e-07
8.76032e-07
8.94856e-07
4.2595e-07
4.28191e-07
4.30964e-07
4.34205e-07
4.3786e-07
4.41918e-07
4.46415e-07
4.5141e-07
4.56977e-07
4.63187e-07
4.70116e-07
4.7784e-07
4.86443e-07
4.96023e-07
5.0669e-07
5.18573e-07
5.31818e-07
5.46587e-07
5.63064e-07
5.81447e-07
6.01951e-07
6.24794e-07
6.50209e-07
6.78386e-07
7.09437e-07
7.43125e-07
7.78686e-07
8.13918e-07
8.44592e-07
8.59881e-07
4.18162e-07
4.19963e-07
4.22374e-07
4.25278e-07
4.28578e-07
4.32244e-07
4.36307e-07
4.40833e-07
4.45901e-07
4.51585e-07
4.57957e-07
4.65089e-07
4.73058e-07
4.81956e-07
4.91886e-07
5.02969e-07
5.15342e-07
5.29162e-07
5.44604e-07
5.61863e-07
5.81148e-07
6.02649e-07
6.26522e-07
6.5284e-07
6.81614e-07
7.12698e-07
7.45445e-07
7.77562e-07
8.03984e-07
8.14305e-07
4.09351e-07
4.10654e-07
4.12641e-07
4.15143e-07
4.18022e-07
4.21226e-07
4.24782e-07
4.28762e-07
4.33249e-07
4.3832e-07
4.44043e-07
4.50483e-07
4.57712e-07
4.6581e-07
4.74876e-07
4.8502e-07
4.96364e-07
5.09039e-07
5.23191e-07
5.39e-07
5.56697e-07
5.76548e-07
5.98742e-07
6.23258e-07
6.49879e-07
6.78141e-07
7.07231e-07
7.34955e-07
7.55653e-07
7.58679e-07
3.9997e-07
4.00739e-07
4.02255e-07
4.04303e-07
4.06708e-07
4.09398e-07
4.12397e-07
4.1578e-07
4.19634e-07
4.24038e-07
4.29055e-07
4.34743e-07
4.41162e-07
4.48385e-07
4.56502e-07
4.65625e-07
4.7588e-07
4.87397e-07
5.00295e-07
5.14651e-07
5.30514e-07
5.48033e-07
5.67559e-07
5.89405e-07
6.13474e-07
6.38976e-07
6.64391e-07
6.87176e-07
7.0095e-07
6.94059e-07
3.90412e-07