/*--------------------------------*- C++ -*----------------------------------*\
| =========                 |                                                 |
| \\      /  F ield         | OpenFOAM: The Open Source CFD Toolbox           |
|  \\    /   O peration     | Version:  2312                                  |
|   \\  /    A nd           | Website:  www.openfoam.com                      |
|    \\/     M anipulation  |                                                 |
\*---------------------------------------------------------------------------*/
FoamFile
{
    version     2.0;
    format      ascii;
    arch        "LSB;label=32;scalar=64";
    class       volScalarField;
    location    "45000";
    object      p;
}
// * * * * * * * * * * * * * * * * * * * * * * * * * * * * * * * * * * * * * //

dimensions      [0 2 -2 0 0 0 0];

internalField   nonuniform List<scalar> 
10800
(
4.88855e-07
4.74732e-07
4.60965e-07
4.50387e-07
4.42964e-07
4.37573e-07
4.33122e-07
4.29043e-07
4.25167e-07
4.21502e-07
4.18086e-07
4.14921e-07
4.11975e-07
4.09198e-07
4.06543e-07
4.03977e-07
4.01478e-07
3.99033e-07
3.96632e-07
3.94266e-07
3.91926e-07
3.89604e-07
3.87294e-07
3.84991e-07
3.8269e-07
3.80386e-07
3.78078e-07
3.75762e-07
3.73437e-07
3.71101e-07
3.68752e-07
3.6639e-07
3.64015e-07
3.61625e-07
3.5922e-07
3.56801e-07
3.54368e-07
3.51922e-07
3.49462e-07
3.46989e-07
3.44503e-07
3.42005e-07
3.39495e-07
3.36973e-07
3.3444e-07
3.31893e-07
3.29334e-07
3.26758e-07
3.2417e-07
3.21554e-07
3.18932e-07
3.16252e-07
3.13596e-07
3.10792e-07
3.08141e-07
3.05005e-07
3.02644e-07
2.98233e-07
2.97921e-07
2.87319e-07
4.40811e-07
4.39084e-07
4.36439e-07
4.33313e-07
4.30097e-07
4.27002e-07
4.24079e-07
4.21292e-07
4.1859e-07
4.15944e-07
4.13345e-07
4.10802e-07
4.0832e-07
4.05898e-07
4.03532e-07
4.0121e-07
3.98925e-07
3.96668e-07
3.94434e-07
3.92217e-07
3.90013e-07
3.87818e-07
3.85629e-07
3.83442e-07
3.81255e-07
3.79063e-07
3.76866e-07
3.74661e-07
3.72448e-07
3.70223e-07
3.67988e-07
3.65739e-07
3.63478e-07
3.61203e-07
3.58916e-07
3.56614e-07
3.543e-07
3.5197e-07
3.4963e-07
3.47272e-07
3.44907e-07
3.42522e-07
3.40135e-07
3.37722e-07
3.35314e-07
3.3287e-07
3.30445e-07
3.27967e-07
3.25533e-07
3.23017e-07
3.20595e-07
3.18043e-07
3.15686e-07
3.13116e-07
3.10958e-07
3.08438e-07
3.06814e-07
3.04423e-07
3.03943e-07
3.01264e-07
4.3207e-07
4.3132e-07
4.29906e-07
4.27954e-07
4.2567e-07
4.23249e-07
4.20819e-07
4.18429e-07
4.16083e-07
4.13768e-07
4.11474e-07
4.09201e-07
4.06956e-07
4.04741e-07
4.0256e-07
4.00411e-07
3.98289e-07
3.96189e-07
3.94107e-07
3.92039e-07
3.89982e-07
3.87932e-07
3.85888e-07
3.83846e-07
3.81804e-07
3.79761e-07
3.77715e-07
3.75663e-07
3.73605e-07
3.71539e-07
3.69466e-07
3.67382e-07
3.65289e-07
3.63185e-07
3.61071e-07
3.58945e-07
3.5681e-07
3.54661e-07
3.52505e-07
3.50333e-07
3.48155e-07
3.45959e-07
3.43761e-07
3.41541e-07
3.39324e-07
3.3708e-07
3.34847e-07
3.32578e-07
3.30336e-07
3.28046e-07
3.25806e-07
3.235e-07
3.21284e-07
3.18971e-07
3.16815e-07
3.1451e-07
3.12465e-07
3.10173e-07
3.08279e-07
3.05907e-07
4.20335e-07
4.19903e-07
4.19116e-07
4.18025e-07
4.16701e-07
4.15212e-07
4.13618e-07
4.11956e-07
4.10249e-07
4.08506e-07
4.06734e-07
4.0494e-07
4.03128e-07
4.01305e-07
3.99477e-07
3.97646e-07
3.95813e-07
3.93979e-07
3.92143e-07
3.90306e-07
3.88466e-07
3.86623e-07
3.84776e-07
3.82926e-07
3.8107e-07
3.79208e-07
3.77341e-07
3.75467e-07
3.73586e-07
3.71697e-07
3.698e-07
3.67896e-07
3.65984e-07
3.64063e-07
3.62134e-07
3.60196e-07
3.58251e-07
3.56296e-07
3.54334e-07
3.52362e-07
3.50383e-07
3.48393e-07
3.46397e-07
3.44387e-07
3.42372e-07
3.40339e-07
3.38301e-07
3.36241e-07
3.34174e-07
3.32079e-07
3.29977e-07
3.27837e-07
3.25693e-07
3.235e-07
3.21309e-07
3.19056e-07
3.16813e-07
3.14491e-07
3.12194e-07
3.09818e-07
4.13635e-07
4.13421e-07
4.1299e-07
4.12344e-07
4.115e-07
4.10486e-07
4.09335e-07
4.08078e-07
4.06739e-07
4.05335e-07
4.03878e-07
4.02378e-07
4.00841e-07
3.99274e-07
3.97684e-07
3.96074e-07
3.94449e-07
3.92811e-07
3.91163e-07
3.89505e-07
3.87838e-07
3.86163e-07
3.84482e-07
3.82793e-07
3.81099e-07
3.79398e-07
3.77691e-07
3.75978e-07
3.7426e-07
3.72537e-07
3.70808e-07
3.69075e-07
3.67336e-07
3.65593e-07
3.63846e-07
3.62094e-07
3.60338e-07
3.58579e-07
3.56815e-07
3.55047e-07
3.53276e-07
3.515e-07
3.4972e-07
3.47935e-07
3.46144e-07
3.44346e-07
3.42541e-07
3.40727e-07
3.38902e-07
3.37063e-07
3.35205e-07
3.33321e-07
3.31401e-07
3.29433e-07
3.274e-07
3.25289e-07
3.23089e-07
3.20811e-07
3.18457e-07
3.16125e-07
4.08115e-07
4.07952e-07
4.07627e-07
4.07143e-07
4.0651e-07
4.05744e-07
4.04863e-07
4.03885e-07
4.02826e-07
4.01698e-07
4.00512e-07
3.99275e-07
3.97993e-07
3.96672e-07
3.95319e-07
3.93936e-07
3.92529e-07
3.91101e-07
3.89654e-07
3.8819e-07
3.86713e-07
3.85223e-07
3.83721e-07
3.8221e-07
3.80689e-07
3.79161e-07
3.77625e-07
3.76083e-07
3.74536e-07
3.72984e-07
3.71428e-07
3.69868e-07
3.68305e-07
3.66741e-07
3.65174e-07
3.63607e-07
3.62038e-07
3.6047e-07
3.589e-07
3.57331e-07
3.55762e-07
3.54192e-07
3.52621e-07
3.51049e-07
3.49472e-07
3.47892e-07
3.46303e-07
3.44705e-07
3.43092e-07
3.41465e-07
3.39816e-07
3.3815e-07
3.36456e-07
3.34744e-07
3.32985e-07
3.31185e-07
3.29309e-07
3.27378e-07
3.25388e-07
3.23467e-07
4.03768e-07
4.0365e-07
4.03412e-07
4.03056e-07
4.02586e-07
4.02008e-07
4.01332e-07
4.00567e-07
3.99725e-07
3.98813e-07
3.9784e-07
3.96813e-07
3.95738e-07
3.94619e-07
3.93461e-07
3.9227e-07
3.91048e-07
3.89799e-07
3.88527e-07
3.87234e-07
3.85923e-07
3.84596e-07
3.83256e-07
3.81903e-07
3.8054e-07
3.79168e-07
3.77789e-07
3.76404e-07
3.75014e-07
3.7362e-07
3.72225e-07
3.70828e-07
3.69431e-07
3.68035e-07
3.66641e-07
3.65249e-07
3.63861e-07
3.62477e-07
3.61099e-07
3.59725e-07
3.58358e-07
3.56997e-07
3.55641e-07
3.54293e-07
3.5295e-07
3.51613e-07
3.5028e-07
3.48953e-07
3.47624e-07
3.46294e-07
3.44952e-07
3.43594e-07
3.42208e-07
3.40798e-07
3.39353e-07
3.37884e-07
3.36372e-07
3.3484e-07
3.33286e-07
3.31823e-07
4.00317e-07
4.00225e-07
4.00039e-07
3.9976e-07
3.99389e-07
3.9893e-07
3.98387e-07
3.97767e-07
3.97076e-07
3.96321e-07
3.95506e-07
3.94638e-07
3.93721e-07
3.9276e-07
3.91759e-07
3.90723e-07
3.89656e-07
3.8856e-07
3.87439e-07
3.86296e-07
3.85133e-07
3.83954e-07
3.82759e-07
3.81552e-07
3.80334e-07
3.79108e-07
3.77875e-07
3.76637e-07
3.75395e-07
3.74152e-07
3.72909e-07
3.71667e-07
3.70427e-07
3.69192e-07
3.67963e-07
3.6674e-07
3.65526e-07
3.64321e-07
3.63127e-07
3.61944e-07
3.60773e-07
3.59617e-07
3.58473e-07
3.57344e-07
3.56228e-07
3.55127e-07
3.54039e-07
3.52964e-07
3.51901e-07
3.50853e-07
3.49814e-07
3.48785e-07
3.47753e-07
3.4672e-07
3.45674e-07
3.44626e-07
3.43564e-07
3.42515e-07
3.41487e-07
3.40583e-07
3.97553e-07
3.97478e-07
3.97326e-07
3.97098e-07
3.96793e-07
3.96414e-07
3.95965e-07
3.95448e-07
3.94869e-07
3.9423e-07
3.93538e-07
3.92795e-07
3.92007e-07
3.91176e-07
3.90306e-07
3.89402e-07
3.88466e-07
3.87502e-07
3.86513e-07
3.85501e-07
3.8447e-07
3.83421e-07
3.82357e-07
3.81281e-07
3.80195e-07
3.79101e-07
3.78002e-07
3.76898e-07
3.75793e-07
3.74688e-07
3.73585e-07
3.72486e-07
3.71393e-07
3.70308e-07
3.69233e-07
3.6817e-07
3.67119e-07
3.66084e-07
3.65065e-07
3.64065e-07
3.63085e-07
3.62127e-07
3.61192e-07
3.60281e-07
3.59397e-07
3.5854e-07
3.5771e-07
3.56909e-07
3.56136e-07
3.5539e-07
3.54667e-07
3.53974e-07
3.53305e-07
3.52666e-07
3.52048e-07
3.51459e-07
3.50894e-07
3.50374e-07
3.49909e-07
3.49589e-07
3.95351e-07
3.95288e-07
3.9516e-07
3.94967e-07
3.94709e-07
3.94388e-07
3.94006e-07
3.93565e-07
3.93068e-07
3.92519e-07
3.91921e-07
3.91277e-07
3.9059e-07
3.89863e-07
3.891e-07
3.88303e-07
3.87476e-07
3.86622e-07
3.85743e-07
3.84841e-07
3.83921e-07
3.82984e-07
3.82033e-07
3.81071e-07
3.80099e-07
3.79121e-07
3.78138e-07
3.77153e-07
3.76168e-07
3.75186e-07
3.74208e-07
3.73238e-07
3.72276e-07
3.71327e-07
3.70391e-07
3.69472e-07
3.68571e-07
3.67691e-07
3.66835e-07
3.66004e-07
3.652e-07
3.64428e-07
3.63688e-07
3.62982e-07
3.62315e-07
3.61687e-07
3.61101e-07
3.6056e-07
3.60063e-07
3.59613e-07
3.59211e-07
3.58862e-07
3.58566e-07
3.58327e-07
3.58143e-07
3.58024e-07
3.57965e-07
3.57989e-07
3.58109e-07
3.58399e-07
3.93623e-07
3.93568e-07
3.93457e-07
3.9329e-07
3.93066e-07
3.92787e-07
3.92454e-07
3.92069e-07
3.91634e-07
3.91152e-07
3.90626e-07
3.90057e-07
3.89449e-07
3.88803e-07
3.88124e-07
3.87413e-07
3.86673e-07
3.85907e-07
3.85118e-07
3.84308e-07
3.8348e-07
3.82636e-07
3.8178e-07
3.80912e-07
3.80037e-07
3.79157e-07
3.78274e-07
3.7739e-07
3.76509e-07
3.75633e-07
3.74764e-07
3.73905e-07
3.73059e-07
3.72228e-07
3.71415e-07
3.70623e-07
3.69855e-07
3.69114e-07
3.68402e-07
3.67722e-07
3.67079e-07
3.66475e-07
3.65912e-07
3.65396e-07
3.64929e-07
3.64515e-07
3.64156e-07
3.63856e-07
3.63618e-07
3.63448e-07
3.6335e-07
3.63329e-07
3.63387e-07
3.63532e-07
3.63766e-07
3.64098e-07
3.64532e-07
3.65085e-07
3.65775e-07
3.66659e-07
3.92306e-07
3.92257e-07
3.92158e-07
3.92009e-07
3.9181e-07
3.91561e-07
3.91263e-07
3.90919e-07
3.9053e-07
3.90098e-07
3.89624e-07
3.89112e-07
3.88563e-07
3.8798e-07
3.87365e-07
3.8672e-07
3.86048e-07
3.85352e-07
3.84633e-07
3.83895e-07
3.8314e-07
3.82371e-07
3.8159e-07
3.808e-07
3.80003e-07
3.79203e-07
3.78401e-07
3.77601e-07
3.76805e-07
3.76016e-07
3.75236e-07
3.7447e-07
3.73719e-07
3.72988e-07
3.72278e-07
3.71593e-07
3.70936e-07
3.70311e-07
3.69722e-07
3.69172e-07
3.68664e-07
3.68203e-07
3.67794e-07
3.67439e-07
3.67144e-07
3.66914e-07
3.66751e-07
3.66663e-07
3.66655e-07
3.66733e-07
3.66904e-07
3.67174e-07
3.67549e-07
3.68038e-07
3.68647e-07
3.69387e-07
3.70267e-07
3.71304e-07
3.72515e-07
3.73944e-07
3.91353e-07
3.91309e-07
3.91218e-07
3.91082e-07
3.909e-07
3.90672e-07
3.90399e-07
3.90084e-07
3.89727e-07
3.89329e-07
3.88894e-07
3.88422e-07
3.87916e-07
3.87378e-07
3.86809e-07
3.86213e-07
3.85591e-07
3.84945e-07
3.84279e-07
3.83595e-07
3.82895e-07
3.82181e-07
3.81457e-07
3.80725e-07
3.79988e-07
3.79248e-07
3.78508e-07
3.77772e-07
3.77041e-07
3.76319e-07
3.75609e-07
3.74914e-07
3.74237e-07
3.73582e-07
3.72951e-07
3.7235e-07
3.7178e-07
3.71247e-07
3.70754e-07
3.70304e-07
3.69904e-07
3.69557e-07
3.69268e-07
3.69041e-07
3.68884e-07
3.68801e-07
3.68798e-07
3.68881e-07
3.69059e-07
3.69338e-07
3.69727e-07
3.70234e-07
3.70868e-07
3.71639e-07
3.72558e-07
3.73635e-07
3.74886e-07
3.76324e-07
3.77971e-07
3.79855e-07
3.90735e-07
3.90693e-07
3.90608e-07
3.9048e-07
3.90308e-07
3.90094e-07
3.89837e-07
3.8954e-07
3.89203e-07
3.88828e-07
3.88417e-07
3.87972e-07
3.87493e-07
3.86984e-07
3.86446e-07
3.85881e-07
3.85292e-07
3.8468e-07
3.84049e-07
3.834e-07
3.82736e-07
3.8206e-07
3.81374e-07
3.80681e-07
3.79983e-07
3.79284e-07
3.78586e-07
3.77892e-07
3.77206e-07
3.76529e-07
3.75866e-07
3.75219e-07
3.74593e-07
3.7399e-07
3.73414e-07
3.7287e-07
3.7236e-07
3.71889e-07
3.71462e-07
3.71083e-07
3.70757e-07
3.70489e-07
3.70283e-07
3.70147e-07
3.70085e-07
3.70104e-07
3.70212e-07
3.70416e-07
3.70724e-07
3.71145e-07
3.71688e-07
3.72363e-07
3.73181e-07
3.74153e-07
3.75292e-07
3.76611e-07
3.78126e-07
3.79854e-07
3.81814e-07
3.84027e-07
3.90431e-07
3.9039e-07
3.90308e-07
3.90184e-07
3.90017e-07
3.89809e-07
3.8956e-07
3.89272e-07
3.88945e-07
3.88581e-07
3.88182e-07
3.87749e-07
3.87285e-07
3.8679e-07
3.86267e-07
3.85717e-07
3.85144e-07
3.84549e-07
3.83935e-07
3.83304e-07
3.82659e-07
3.82001e-07
3.81334e-07
3.80661e-07
3.79983e-07
3.79304e-07
3.78627e-07
3.77955e-07
3.77291e-07
3.76637e-07
3.75998e-07
3.75376e-07
3.74775e-07
3.74198e-07
3.7365e-07
3.73135e-07
3.72655e-07
3.72217e-07
3.71824e-07
3.7148e-07
3.71192e-07
3.70963e-07
3.70801e-07
3.7071e-07
3.70698e-07
3.7077e-07
3.70935e-07
3.71201e-07
3.71577e-07
3.72071e-07
3.72695e-07
3.73456e-07
3.7437e-07
3.75446e-07
3.767e-07
3.78145e-07
3.79799e-07
3.81678e-07
3.83802e-07
3.86188e-07
3.90431e-07
3.90391e-07
3.90308e-07
3.90184e-07
3.90017e-07
3.89809e-07
3.89561e-07
3.89272e-07
3.88945e-07
3.88582e-07
3.88183e-07
3.8775e-07
3.87285e-07
3.8679e-07
3.86267e-07
3.85718e-07
3.85145e-07
3.8455e-07
3.83936e-07
3.83305e-07
3.82659e-07
3.82001e-07
3.81335e-07
3.80661e-07
3.79983e-07
3.79305e-07
3.78628e-07
3.77956e-07
3.77291e-07
3.76638e-07
3.75998e-07
3.75376e-07
3.74775e-07
3.74199e-07
3.73651e-07
3.73135e-07
3.72656e-07
3.72218e-07
3.71824e-07
3.71481e-07
3.71192e-07
3.70964e-07
3.70802e-07
3.70711e-07
3.70699e-07
3.70771e-07
3.70936e-07
3.71202e-07
3.71578e-07
3.72073e-07
3.72696e-07
3.73458e-07
3.74371e-07
3.75447e-07
3.76701e-07
3.78146e-07
3.79801e-07
3.81679e-07
3.83804e-07
3.86189e-07
3.90736e-07
3.90694e-07
3.90609e-07
3.90481e-07
3.90309e-07
3.90095e-07
3.89838e-07
3.89541e-07
3.89204e-07
3.88829e-07
3.88418e-07
3.87973e-07
3.87495e-07
3.86985e-07
3.86447e-07
3.85882e-07
3.85293e-07
3.84681e-07
3.8405e-07
3.83401e-07
3.82738e-07
3.82061e-07
3.81375e-07
3.80682e-07
3.79985e-07
3.79286e-07
3.78588e-07
3.77894e-07
3.77207e-07
3.76531e-07
3.75868e-07
3.75221e-07
3.74595e-07
3.73992e-07
3.73416e-07
3.72872e-07
3.72362e-07
3.71892e-07
3.71465e-07
3.71086e-07
3.70759e-07
3.70491e-07
3.70286e-07
3.70149e-07
3.70088e-07
3.70107e-07
3.70215e-07
3.70419e-07
3.70727e-07
3.71149e-07
3.71692e-07
3.72367e-07
3.73185e-07
3.74157e-07
3.75296e-07
3.76615e-07
3.78131e-07
3.79859e-07
3.81819e-07
3.84032e-07
3.91355e-07
3.9131e-07
3.9122e-07
3.91084e-07
3.90901e-07
3.90674e-07
3.90401e-07
3.90086e-07
3.89728e-07
3.89331e-07
3.88896e-07
3.88424e-07
3.87918e-07
3.8738e-07
3.86811e-07
3.86215e-07
3.85593e-07
3.84948e-07
3.84282e-07
3.83597e-07
3.82897e-07
3.82184e-07
3.8146e-07
3.80728e-07
3.79991e-07
3.79251e-07
3.78511e-07
3.77774e-07
3.77043e-07
3.76322e-07
3.75612e-07
3.74917e-07
3.7424e-07
3.73585e-07
3.72955e-07
3.72353e-07
3.71784e-07
3.71251e-07
3.70757e-07
3.70308e-07
3.69908e-07
3.69561e-07
3.69272e-07
3.69046e-07
3.68889e-07
3.68806e-07
3.68803e-07
3.68886e-07
3.69064e-07
3.69344e-07
3.69733e-07
3.7024e-07
3.70875e-07
3.71646e-07
3.72565e-07
3.73643e-07
3.74893e-07
3.76332e-07
3.77979e-07
3.79864e-07
3.92308e-07
3.92259e-07
3.9216e-07
3.92011e-07
3.91812e-07
3.91563e-07
3.91266e-07
3.90922e-07
3.90532e-07
3.901e-07
3.89627e-07
3.89115e-07
3.88566e-07
3.87983e-07
3.87368e-07
3.86723e-07
3.86051e-07
3.85355e-07
3.84636e-07
3.83898e-07
3.83143e-07
3.82374e-07
3.81593e-07
3.80803e-07
3.80007e-07
3.79206e-07
3.78404e-07
3.77604e-07
3.76808e-07
3.76019e-07
3.7524e-07
3.74474e-07
3.73724e-07
3.72992e-07
3.72282e-07
3.71597e-07
3.70941e-07
3.70316e-07
3.69727e-07
3.69177e-07
3.6867e-07
3.68209e-07
3.678e-07
3.67445e-07
3.67151e-07
3.6692e-07
3.66758e-07
3.66671e-07
3.66663e-07
3.66741e-07
3.66912e-07
3.67182e-07
3.67558e-07
3.68047e-07
3.68657e-07
3.69397e-07
3.70278e-07
3.71315e-07
3.72527e-07
3.73956e-07
3.93626e-07
3.93571e-07
3.9346e-07
3.93293e-07
3.93069e-07
3.9279e-07
3.92457e-07
3.92072e-07
3.91637e-07
3.91156e-07
3.90629e-07
3.9006e-07
3.89452e-07
3.88807e-07
3.88128e-07
3.87417e-07
3.86677e-07
3.85911e-07
3.85122e-07
3.84312e-07
3.83484e-07
3.8264e-07
3.81784e-07
3.80917e-07
3.80042e-07
3.79161e-07
3.78278e-07
3.77395e-07
3.76514e-07
3.75638e-07
3.74769e-07
3.7391e-07
3.73064e-07
3.72233e-07
3.71421e-07
3.70629e-07
3.69861e-07
3.6912e-07
3.68408e-07
3.67729e-07
3.67086e-07
3.66482e-07
3.6592e-07
3.65404e-07
3.64937e-07
3.64523e-07
3.64165e-07
3.63865e-07
3.63628e-07
3.63458e-07
3.6336e-07
3.63339e-07
3.63399e-07
3.63544e-07
3.63779e-07
3.64111e-07
3.64545e-07
3.65099e-07
3.6579e-07
3.66674e-07
3.95355e-07
3.95291e-07
3.95164e-07
3.94971e-07
3.94713e-07
3.94392e-07
3.9401e-07
3.93569e-07
3.93072e-07
3.92523e-07
3.91925e-07
3.91281e-07
3.90594e-07
3.89867e-07
3.89104e-07
3.88308e-07
3.87481e-07
3.86626e-07
3.85747e-07
3.84846e-07
3.83926e-07
3.82989e-07
3.82038e-07
3.81076e-07
3.80104e-07
3.79126e-07
3.78143e-07
3.77158e-07
3.76174e-07
3.75192e-07
3.74214e-07
3.73244e-07
3.72283e-07
3.71334e-07
3.70398e-07
3.69479e-07
3.68579e-07
3.67699e-07
3.66843e-07
3.66012e-07
3.65209e-07
3.64437e-07
3.63697e-07
3.62992e-07
3.62324e-07
3.61697e-07
3.61112e-07
3.60571e-07
3.60074e-07
3.59625e-07
3.59224e-07
3.58875e-07
3.58579e-07
3.58341e-07
3.58158e-07
3.58039e-07
3.57982e-07
3.58006e-07
3.58127e-07
3.58417e-07
3.97558e-07
3.97482e-07
3.97331e-07
3.97102e-07
3.96798e-07
3.96419e-07
3.95969e-07
3.95453e-07
3.94873e-07
3.94235e-07
3.93543e-07
3.928e-07
3.92011e-07
3.91181e-07
3.90311e-07
3.89407e-07
3.88472e-07
3.87508e-07
3.86518e-07
3.85507e-07
3.84475e-07
3.83426e-07
3.82363e-07
3.81287e-07
3.80201e-07
3.79108e-07
3.78008e-07
3.76905e-07
3.75799e-07
3.74695e-07
3.73592e-07
3.72493e-07
3.71401e-07
3.70316e-07
3.69241e-07
3.68178e-07
3.67128e-07
3.66093e-07
3.65074e-07
3.64075e-07
3.63095e-07
3.62137e-07
3.61202e-07
3.60292e-07
3.59408e-07
3.58551e-07
3.57722e-07
3.56922e-07
3.56149e-07
3.55403e-07
3.54682e-07
3.53989e-07
3.53321e-07
3.52682e-07
3.52065e-07
3.51477e-07
3.50912e-07
3.50393e-07
3.4993e-07
3.49611e-07
4.00322e-07
4.0023e-07
4.00044e-07
3.99765e-07
3.99394e-07
3.98935e-07
3.98392e-07
3.97772e-07
3.97082e-07
3.96326e-07
3.95512e-07
3.94643e-07
3.93726e-07
3.92765e-07
3.91765e-07
3.90729e-07
3.89662e-07
3.88566e-07
3.87445e-07
3.86302e-07
3.8514e-07
3.8396e-07
3.82766e-07
3.81559e-07
3.80341e-07
3.79115e-07
3.77882e-07
3.76644e-07
3.75403e-07
3.7416e-07
3.72917e-07
3.71675e-07
3.70436e-07
3.69201e-07
3.67972e-07
3.6675e-07
3.65536e-07
3.64331e-07
3.63137e-07
3.61955e-07
3.60785e-07
3.59628e-07
3.58485e-07
3.57356e-07
3.56241e-07
3.55141e-07
3.54053e-07
3.52979e-07
3.51916e-07
3.50868e-07
3.4983e-07
3.48801e-07
3.4777e-07
3.46738e-07
3.45693e-07
3.44646e-07
3.43585e-07
3.42537e-07
3.41509e-07
3.40606e-07
4.03774e-07
4.03655e-07
4.03418e-07
4.03062e-07
4.02591e-07
4.02013e-07
4.01337e-07
4.00573e-07
3.9973e-07
3.98819e-07
3.97846e-07
3.96819e-07
3.95744e-07
3.94625e-07
3.93468e-07
3.92276e-07
3.91054e-07
3.89805e-07
3.88533e-07
3.87241e-07
3.8593e-07
3.84603e-07
3.83263e-07
3.8191e-07
3.80548e-07
3.79176e-07
3.77797e-07
3.76412e-07
3.75022e-07
3.73629e-07
3.72234e-07
3.70837e-07
3.6944e-07
3.68045e-07
3.66651e-07
3.65259e-07
3.63872e-07
3.62488e-07
3.6111e-07
3.59737e-07
3.5837e-07
3.57009e-07
3.55654e-07
3.54306e-07
3.52964e-07
3.51627e-07
3.50295e-07
3.48968e-07
3.4764e-07
3.46311e-07
3.44969e-07
3.43612e-07
3.42227e-07
3.40818e-07
3.39373e-07
3.37906e-07
3.36395e-07
3.34864e-07
3.3331e-07
3.31848e-07
4.08121e-07
4.07958e-07
4.07633e-07
4.07149e-07
4.06516e-07
4.0575e-07
4.04869e-07
4.03891e-07
4.02832e-07
4.01705e-07
4.00518e-07
3.99281e-07
3.97999e-07
3.96679e-07
3.95325e-07
3.93943e-07
3.92536e-07
3.91108e-07
3.89661e-07
3.88198e-07
3.86721e-07
3.85231e-07
3.83729e-07
3.82218e-07
3.80697e-07
3.79169e-07
3.77634e-07
3.76092e-07
3.74545e-07
3.72993e-07
3.71437e-07
3.69878e-07
3.68316e-07
3.66752e-07
3.65185e-07
3.63618e-07
3.6205e-07
3.60482e-07
3.58913e-07
3.57344e-07
3.55775e-07
3.54206e-07
3.52635e-07
3.51063e-07
3.49488e-07
3.47908e-07
3.46319e-07
3.44722e-07
3.4311e-07
3.41483e-07
3.39835e-07
3.3817e-07
3.36477e-07
3.34765e-07
3.33007e-07
3.31208e-07
3.29332e-07
3.27403e-07
3.25414e-07
3.23494e-07
4.13641e-07
4.13428e-07
4.12996e-07
4.12351e-07
4.11507e-07
4.10493e-07
4.09342e-07
4.08085e-07
4.06745e-07
4.05341e-07
4.03885e-07
4.02385e-07
4.00848e-07
3.99282e-07
3.97691e-07
3.96082e-07
3.94457e-07
3.92819e-07
3.91171e-07
3.89513e-07
3.87846e-07
3.86172e-07
3.8449e-07
3.82802e-07
3.81108e-07
3.79407e-07
3.777e-07
3.75988e-07
3.7427e-07
3.72547e-07
3.70819e-07
3.69086e-07
3.67347e-07
3.65605e-07
3.63858e-07
3.62106e-07
3.60351e-07
3.58591e-07
3.56828e-07
3.55061e-07
3.5329e-07
3.51515e-07
3.49735e-07
3.4795e-07
3.4616e-07
3.44363e-07
3.42559e-07
3.40745e-07
3.38921e-07
3.37082e-07
3.35225e-07
3.33342e-07
3.31422e-07
3.29455e-07
3.27423e-07
3.25313e-07
3.23114e-07
3.20838e-07
3.18485e-07
3.16154e-07
4.20342e-07
4.19909e-07
4.19123e-07
4.18032e-07
4.16707e-07
4.15219e-07
4.13625e-07
4.11963e-07
4.10256e-07
4.08513e-07
4.06742e-07
4.04947e-07
4.03135e-07
4.01313e-07
3.99485e-07
3.97654e-07
3.95821e-07
3.93987e-07
3.92152e-07
3.90315e-07
3.88475e-07
3.86632e-07
3.84786e-07
3.82935e-07
3.81079e-07
3.79218e-07
3.77351e-07
3.75477e-07
3.73596e-07
3.71708e-07
3.69812e-07
3.67908e-07
3.65996e-07
3.64075e-07
3.62146e-07
3.60209e-07
3.58264e-07
3.5631e-07
3.54348e-07
3.52377e-07
3.50398e-07
3.48409e-07
3.46413e-07
3.44404e-07
3.42389e-07
3.40357e-07
3.38319e-07
3.3626e-07
3.34194e-07
3.32099e-07
3.29998e-07
3.27859e-07
3.25716e-07
3.23524e-07
3.21334e-07
3.19082e-07
3.1684e-07
3.14519e-07
3.12223e-07
3.09847e-07
4.32077e-07
4.31327e-07
4.29913e-07
4.27961e-07
4.25677e-07
4.23256e-07
4.20826e-07
4.18436e-07
4.1609e-07
4.13775e-07
4.11481e-07
4.09209e-07
4.06963e-07
4.04749e-07
4.02569e-07
4.00419e-07
3.98298e-07
3.96198e-07
3.94116e-07
3.92048e-07
3.89991e-07
3.87941e-07
3.85897e-07
3.83856e-07
3.81815e-07
3.79772e-07
3.77726e-07
3.75674e-07
3.73617e-07
3.71551e-07
3.69478e-07
3.67394e-07
3.65302e-07
3.63198e-07
3.61085e-07
3.58959e-07
3.56824e-07
3.54676e-07
3.5252e-07
3.50348e-07
3.48171e-07
3.45975e-07
3.43778e-07
3.41558e-07
3.39342e-07
3.37098e-07
3.34866e-07
3.32598e-07
3.30356e-07
3.28067e-07
3.25828e-07
3.23522e-07
3.21307e-07
3.18995e-07
3.1684e-07
3.14536e-07
3.12492e-07
3.10201e-07
3.08309e-07
3.05938e-07
4.40818e-07
4.39091e-07
4.36446e-07
4.3332e-07
4.30104e-07
4.2701e-07
4.24087e-07
4.213e-07
4.18598e-07
4.15951e-07
4.13353e-07
4.1081e-07
4.08328e-07
4.05907e-07
4.0354e-07
4.01219e-07
3.98934e-07
3.96677e-07
3.94443e-07
3.92226e-07
3.90023e-07
3.87828e-07
3.8564e-07
3.83453e-07
3.81265e-07
3.79074e-07
3.76878e-07
3.74673e-07
3.7246e-07
3.70236e-07
3.68e-07
3.65752e-07
3.63492e-07
3.61217e-07
3.5893e-07
3.56628e-07
3.54314e-07
3.51985e-07
3.49645e-07
3.47288e-07
3.44924e-07
3.42539e-07
3.40152e-07
3.3774e-07
3.35332e-07
3.32889e-07
3.30465e-07
3.27987e-07
3.25554e-07
3.23039e-07
3.20618e-07
3.18066e-07
3.1571e-07
3.1314e-07
3.10984e-07
3.08464e-07
3.06842e-07
3.04452e-07
3.03973e-07
3.01295e-07
4.88862e-07
4.74739e-07
4.60972e-07
4.50395e-07
4.42972e-07
4.37581e-07
4.3313e-07
4.2905e-07
4.25175e-07
4.2151e-07
4.18094e-07
4.1493e-07
4.11984e-07
4.09207e-07
4.06552e-07
4.03986e-07
4.01487e-07
3.99043e-07
3.96642e-07
3.94276e-07
3.91936e-07
3.89615e-07
3.87305e-07
3.85002e-07
3.82701e-07
3.80398e-07
3.7809e-07
3.75774e-07
3.73449e-07
3.71113e-07
3.68765e-07
3.66404e-07
3.64028e-07
3.61639e-07
3.59234e-07
3.56816e-07
3.54384e-07
3.51937e-07
3.49478e-07
3.47005e-07
3.4452e-07
3.42022e-07
3.39513e-07
3.36992e-07
3.34458e-07
3.31912e-07
3.29354e-07
3.26778e-07
3.24191e-07
3.21576e-07
3.18955e-07
3.16276e-07
3.1362e-07
3.10816e-07
3.08166e-07
3.05031e-07
3.02671e-07
2.98261e-07
2.9795e-07
2.87348e-07
3.2722e-07
2.76652e-07
2.55773e-07
2.38197e-07
2.20606e-07
2.02838e-07
1.83032e-07
1.61841e-07
1.37144e-07
1.10535e-07
7.96095e-08
4.72112e-08
1.04021e-08
-2.65437e-08
-6.72954e-08
-1.06069e-07
-1.47815e-07
-1.85148e-07
-2.24662e-07
-2.57498e-07
-2.9176e-07
-3.17488e-07
-3.44488e-07
-3.6114e-07
-3.80383e-07
-3.86588e-07
-4.01539e-07
-3.95469e-07
-4.14443e-07
-4.89106e-07
3.13335e-07
2.58207e-07
2.44326e-07
2.29317e-07
2.12399e-07
1.9504e-07
1.75545e-07
1.54501e-07
1.30001e-07
1.03748e-07
7.34574e-08
4.19169e-08
6.28502e-09
-2.93344e-08
-6.85561e-08
-1.05863e-07
-1.45819e-07
-1.81744e-07
-2.19526e-07
-2.51518e-07
-2.85102e-07
-3.1031e-07
-3.38094e-07
-3.54349e-07
-3.75753e-07
-3.81537e-07
-3.96792e-07
-3.97235e-07
-3.95001e-07
-5.3184e-07
3.01153e-07
2.55745e-07
2.42916e-07
2.28379e-07
2.10969e-07
1.92617e-07
1.72603e-07
1.51214e-07
1.26669e-07
1.00283e-07
7.02287e-08
3.87843e-08
3.70584e-09
-3.15544e-08
-6.99161e-08
-1.06625e-07
-1.45721e-07
-1.8127e-07
-2.18784e-07
-2.50184e-07
-2.83619e-07
-3.08879e-07
-3.3622e-07
-3.53938e-07
-3.73937e-07
-3.84819e-07
-3.96254e-07
-4.11063e-07
-3.8589e-07
-4.86676e-07
2.90985e-07
2.5165e-07
2.36749e-07
2.22709e-07
2.06007e-07
1.88257e-07
1.68443e-07
1.4688e-07
1.22392e-07
9.58433e-08
6.61158e-08
3.46839e-08
3.46475e-10
-3.47093e-08
-7.19152e-08
-1.0841e-07
-1.46119e-07
-1.81585e-07
-2.17284e-07
-2.4935e-07
-2.80909e-07
-3.08186e-07
-3.33697e-07
-3.55022e-07
-3.72404e-07
-3.89909e-07
-3.9404e-07
-4.21239e-07
-3.86794e-07
-4.57976e-07
2.81174e-07
2.49068e-07
2.33292e-07
2.20378e-07
2.04238e-07
1.85702e-07
1.65372e-07
1.43235e-07
1.18708e-07
9.17377e-08
6.22613e-08
3.05345e-08
-3.10986e-09
-3.83046e-08
-7.43479e-08
-1.10969e-07
-1.47124e-07
-1.82945e-07
-2.169e-07
-2.50175e-07
-2.79915e-07
-3.09351e-07
-3.32539e-07
-3.58092e-07
-3.71581e-07
-3.95479e-07
-3.93766e-07
-4.23381e-07
-3.97496e-07
-4.32793e-07
2.72591e-07
2.47348e-07
2.30728e-07
2.17355e-07
2.01487e-07
1.82848e-07
1.62338e-07
1.39704e-07
1.15063e-07
8.76333e-08
5.8295e-08
2.62014e-08
-6.89492e-09
-4.23226e-08
-7.73385e-08
-1.14173e-07
-1.48868e-07
-1.85167e-07
-2.17402e-07
-2.51742e-07
-2.79519e-07
-3.10963e-07
-3.32174e-07
-3.60591e-07
-3.72465e-07
-3.98427e-07
-3.98144e-07
-4.22238e-07
-4.1358e-07
-4.27609e-07
2.65567e-07
2.45842e-07
2.29085e-07
2.14881e-07
1.99143e-07
1.80424e-07
1.59664e-07
1.36447e-07
1.11514e-07
8.3576e-08
5.41889e-08
2.1733e-08
-1.10547e-08
-4.66376e-08
-8.09337e-08
-1.17783e-07
-1.51431e-07
-1.87804e-07
-2.18897e-07
-2.53542e-07
-2.80443e-07
-3.12499e-07
-3.3365e-07
-3.62447e-07
-3.76285e-07
-4.00388e-07
-4.06514e-07
-4.23901e-07
-4.26903e-07
-4.33874e-07
2.60317e-07
2.44431e-07
2.28176e-07
2.13015e-07
1.97036e-07
1.78161e-07
1.57078e-07
1.33296e-07
1.07893e-07
7.94825e-08
4.98286e-08
1.71197e-08
-1.56556e-08
-5.11902e-08
-8.5168e-08
-1.21676e-07
-1.54834e-07
-1.90688e-07
-2.21428e-07
-2.55477e-07
-2.82658e-07
-3.13989e-07
-3.36681e-07
-3.64113e-07
-3.8156e-07
-4.03095e-07
-4.153e-07
-4.28941e-07
-4.37199e-07
-4.44127e-07
2.5692e-07
2.43126e-07
2.27519e-07
2.11713e-07
1.95172e-07
1.75983e-07
1.54477e-07
1.3017e-07
1.0415e-07
7.53009e-08
4.51855e-08
1.23272e-08
-2.069e-08
-5.59931e-08
-8.9986e-08
-1.2586e-07
-1.5897e-07
-1.93865e-07
-2.2481e-07
-2.57692e-07
-2.85749e-07
-3.15767e-07
-3.40375e-07
-3.66356e-07
-3.86893e-07
-4.07275e-07
-4.2306e-07
-4.36743e-07
-4.47281e-07
-4.5581e-07
2.5514e-07
2.41989e-07
2.26939e-07
2.10778e-07
1.93512e-07
1.73827e-07
1.51771e-07
1.26954e-07
1.00226e-07
7.09437e-08
4.02423e-08
7.27624e-09
-2.61215e-08
-6.11152e-08
-9.52839e-08
-1.30412e-07
-1.63636e-07
-1.97451e-07
-2.28697e-07
-2.6036e-07
-2.89175e-07
-3.18085e-07
-3.44071e-07
-3.694e-07
-3.91823e-07
-4.12434e-07
-4.30139e-07
-4.45146e-07
-4.57491e-07
-4.67955e-07
2.54511e-07
2.41161e-07
2.26327e-07
2.09926e-07
1.91926e-07
1.71608e-07
1.4888e-07
1.23523e-07
9.60558e-08
6.6311e-08
3.49809e-08
1.87522e-09
-3.19203e-08
-6.66394e-08
-1.00968e-07
-1.35412e-07
-1.6866e-07
-2.01523e-07
-2.32843e-07
-2.63542e-07
-2.92678e-07
-3.20933e-07
-3.47622e-07
-3.72924e-07
-3.9643e-07
-4.17838e-07
-4.37012e-07
-4.53614e-07
-4.67885e-07
-4.80351e-07
2.54462e-07
2.40685e-07
2.25692e-07
2.08958e-07
1.90242e-07
1.69211e-07
1.45731e-07
1.1977e-07
9.15631e-08
6.13034e-08
2.93551e-08
-3.96175e-09
-3.81041e-08
-7.2639e-08
-1.07022e-07
-1.40914e-07
-1.74e-07
-2.06098e-07
-2.37207e-07
-2.67185e-07
-2.96257e-07
-3.24131e-07
-3.51098e-07
-3.7661e-07
-4.00889e-07
-4.23235e-07
-4.43781e-07
-4.62008e-07
-4.78236e-07
-4.92842e-07
2.5459e-07
2.40421e-07
2.24992e-07
2.07747e-07
1.88301e-07
1.66519e-07
1.42245e-07
1.15605e-07
8.66549e-08
5.58228e-08
2.32787e-08
-1.03212e-08
-4.47518e-08
-7.91859e-08
-1.13518e-07
-1.46961e-07
-1.79729e-07
-2.11177e-07
-2.41871e-07
-2.71228e-07
-3.00013e-07
-3.27561e-07
-3.54613e-07
-3.8033e-07
-4.05285e-07
-4.28508e-07
-4.50437e-07
-4.70192e-07
-4.88451e-07
-5.05098e-07
2.54649e-07
2.40161e-07
2.24145e-07
2.06228e-07
1.86012e-07
1.6344e-07
1.38341e-07
1.10941e-07
8.12271e-08
4.97597e-08
1.66314e-08
-1.73134e-08
-5.19902e-08
-8.63815e-08
-1.20587e-07
-1.53631e-07
-1.85977e-07
-2.16808e-07
-2.46954e-07
-2.75692e-07
-3.04039e-07
-3.3122e-07
-3.58213e-07
-3.84064e-07
-4.09585e-07
-4.33616e-07
-4.56864e-07
-4.78123e-07
-4.98378e-07
-5.17084e-07
2.54541e-07
2.39711e-07
2.23061e-07
2.04382e-07
1.83341e-07
1.59914e-07
1.33935e-07
1.05685e-07
7.51567e-08
4.29829e-08
9.25912e-09
-2.50831e-08
-5.99863e-08
-9.43677e-08
-1.28394e-07
-1.61049e-07
-1.92892e-07
-2.23085e-07
-2.52575e-07
-2.80634e-07
-3.08408e-07
-3.35125e-07
-3.61905e-07
-3.87779e-07
-4.13716e-07
-4.38472e-07
-4.62931e-07
-4.85677e-07
-5.07896e-07
-5.2868e-07
2.54321e-07
2.39029e-07
2.21724e-07
2.02232e-07
1.80285e-07
1.55895e-07
1.28934e-07
9.97174e-08
6.82932e-08
3.53284e-08
9.74675e-10
-3.38137e-08
-6.89376e-08
-1.03323e-07
-1.37126e-07
-1.69367e-07
-2.00628e-07
-2.30122e-07
-2.58843e-07
-2.8612e-07
-3.13169e-07
-3.39281e-07
-3.65659e-07
-3.91402e-07
-4.17554e-07
-4.4292e-07
-4.6843e-07
-4.92644e-07
-5.16769e-07
-5.39699e-07
2.54169e-07
2.38198e-07
2.20181e-07
1.99804e-07
1.76826e-07
1.51308e-07
1.23207e-07
9.28747e-08
6.04437e-08
2.65901e-08
-8.4449e-09
-4.37241e-08
-7.90643e-08
-1.13447e-07
-1.46972e-07
-1.78748e-07
-2.09332e-07
-2.3803e-07
-2.65852e-07
-2.92203e-07
-3.18358e-07
-3.4367e-07
-3.69433e-07
-3.9482e-07
-4.2095e-07
-4.46734e-07
-4.73085e-07
-4.98703e-07
-5.24618e-07
-5.4983e-07
2.54333e-07
2.37383e-07
2.18479e-07
1.97056e-07
1.72854e-07
1.45989e-07
1.16546e-07
8.49237e-08
5.13546e-08
1.65097e-08
-1.92622e-08
-5.50642e-08
-9.0605e-08
-1.24954e-07
-1.58127e-07
-1.89357e-07
-2.19144e-07
-2.46925e-07
-2.73692e-07
-2.98948e-07
-3.24012e-07
-3.48287e-07
-3.73197e-07
-3.97919e-07
-4.2377e-07
-4.49643e-07
-4.76617e-07
-5.03399e-07
-5.30999e-07
-5.58423e-07
2.5494e-07
2.36699e-07
2.16574e-07
1.93797e-07
1.68097e-07
1.3964e-07
1.08641e-07
7.55456e-08
4.07002e-08
4.76807e-09
-3.17886e-08
-6.81234e-08
-1.0383e-07
-1.38089e-07
-1.70811e-07
-2.01392e-07
-2.30238e-07
-2.56964e-07
-2.82487e-07
-3.06465e-07
-3.30199e-07
-3.53182e-07
-3.76942e-07
-4.00651e-07
-4.25886e-07
-4.51417e-07
-4.78702e-07
-5.06223e-07
-5.35291e-07
-5.64591e-07
2.55766e-07
2.35973e-07
2.14145e-07
1.89597e-07
1.6209e-07
1.31799e-07
9.90381e-08
6.43003e-08
2.80473e-08
-9.05121e-09
-4.6425e-08
-8.32756e-08
-1.19095e-07
-1.53176e-07
-1.85334e-07
-2.1514e-07
-2.42884e-07
-2.68395e-07
-2.92454e-07
-3.14951e-07
-3.37059e-07
-3.58479e-07
-3.80702e-07
-4.0302e-07
-4.27176e-07
-4.51858e-07
-4.78975e-07
-5.06596e-07
-5.36722e-07
-5.67166e-07
2.56039e-07
2.34418e-07
2.10547e-07
1.83877e-07
1.54252e-07
1.21875e-07
8.71398e-08
5.05933e-08
1.28081e-08
-2.55196e-08
-6.37256e-08
-1.01047e-07
-1.36901e-07
-1.70686e-07
-2.02148e-07