/*--------------------------------*- C++ -*----------------------------------*\
| =========                 |                                                 |
| \\      /  F ield         | OpenFOAM: The Open Source CFD Toolbox           |
|  \\    /   O peration     | Version:  2312                                  |
|   \\  /    A nd           | Website:  www.openfoam.com                      |
|    \\/     M anipulation  |                                                 |
\*---------------------------------------------------------------------------*/
FoamFile
{
    version     2.0;
    format      ascii;
    arch        "LSB;label=32;scalar=64";
    class       volScalarField;
    location    "31000";
    object      p;
}
// * * * * * * * * * * * * * * * * * * * * * * * * * * * * * * * * * * * * * //

dimensions      [0 2 -2 0 0 0 0];

internalField   nonuniform List<scalar> 
10800
(
4.97131e-07
4.83009e-07
4.69241e-07
4.58664e-07
4.51241e-07
4.4585e-07
4.41399e-07
4.37319e-07
4.33444e-07
4.29779e-07
4.26362e-07
4.23198e-07
4.20252e-07
4.17474e-07
4.14819e-07
4.12253e-07
4.09754e-07
4.07309e-07
4.04907e-07
4.02541e-07
4.00201e-07
3.97879e-07
3.95569e-07
3.93265e-07
3.90964e-07
3.8866e-07
3.86352e-07
3.84037e-07
3.81712e-07
3.79377e-07
3.77029e-07
3.74669e-07
3.72294e-07
3.69907e-07
3.67505e-07
3.65089e-07
3.6266e-07
3.60218e-07
3.57764e-07
3.55298e-07
3.5282e-07
3.50331e-07
3.47832e-07
3.45322e-07
3.42802e-07
3.40271e-07
3.37729e-07
3.35173e-07
3.32607e-07
3.30015e-07
3.2742e-07
3.2477e-07
3.22146e-07
3.19377e-07
3.16765e-07
3.13669e-07
3.11353e-07
3.06989e-07
3.06721e-07
2.96193e-07
4.49088e-07
4.47361e-07
4.44716e-07
4.4159e-07
4.38374e-07
4.35279e-07
4.32356e-07
4.29569e-07
4.26867e-07
4.2422e-07
4.21622e-07
4.19079e-07
4.16596e-07
4.14175e-07
4.11808e-07
4.09487e-07
4.07201e-07
4.04945e-07
4.0271e-07
4.00493e-07
3.98289e-07
3.96095e-07
3.93906e-07
3.91719e-07
3.89531e-07
3.8734e-07
3.85144e-07
3.82939e-07
3.80726e-07
3.78503e-07
3.76268e-07
3.74021e-07
3.71763e-07
3.6949e-07
3.67206e-07
3.64906e-07
3.62596e-07
3.60271e-07
3.57937e-07
3.55586e-07
3.53229e-07
3.50852e-07
3.48475e-07
3.46073e-07
3.43678e-07
3.41248e-07
3.3884e-07
3.3638e-07
3.33966e-07
3.31473e-07
3.29075e-07
3.26549e-07
3.2422e-07
3.21681e-07
3.19556e-07
3.17069e-07
3.15478e-07
3.13122e-07
3.12671e-07
3.10023e-07
4.40347e-07
4.39597e-07
4.38183e-07
4.36231e-07
4.33947e-07
4.31526e-07
4.29096e-07
4.26706e-07
4.2436e-07
4.22045e-07
4.19751e-07
4.17479e-07
4.15233e-07
4.13019e-07
4.10838e-07
4.08689e-07
4.06567e-07
4.04467e-07
4.02385e-07
4.00317e-07
3.9826e-07
3.96211e-07
3.94167e-07
3.92125e-07
3.90085e-07
3.88042e-07
3.85997e-07
3.83946e-07
3.8189e-07
3.79825e-07
3.77753e-07
3.75672e-07
3.73581e-07
3.7148e-07
3.6937e-07
3.67248e-07
3.65117e-07
3.62974e-07
3.60823e-07
3.58658e-07
3.56487e-07
3.543e-07
3.52111e-07
3.49902e-07
3.47697e-07
3.45466e-07
3.43248e-07
3.40995e-07
3.3877e-07
3.36498e-07
3.34278e-07
3.31993e-07
3.298e-07
3.2751e-07
3.25377e-07
3.23096e-07
3.21074e-07
3.18805e-07
3.16932e-07
3.14581e-07
4.28612e-07
4.2818e-07
4.27393e-07
4.26303e-07
4.24978e-07
4.23489e-07
4.21895e-07
4.20233e-07
4.18526e-07
4.16783e-07
4.15012e-07
4.13217e-07
4.11406e-07
4.09583e-07
4.07755e-07
4.05924e-07
4.04091e-07
4.02258e-07
4.00423e-07
3.98586e-07
3.96746e-07
3.94904e-07
3.93058e-07
3.91207e-07
3.89352e-07
3.87492e-07
3.85626e-07
3.83753e-07
3.81873e-07
3.79986e-07
3.78092e-07
3.76189e-07
3.7428e-07
3.72362e-07
3.70436e-07
3.68502e-07
3.66561e-07
3.64611e-07
3.62655e-07
3.60689e-07
3.58717e-07
3.56734e-07
3.54746e-07
3.52746e-07
3.5074e-07
3.48718e-07
3.46691e-07
3.44643e-07
3.42589e-07
3.40508e-07
3.3842e-07
3.36296e-07
3.34168e-07
3.31993e-07
3.2982e-07
3.27585e-07
3.25361e-07
3.2306e-07
3.20786e-07
3.18429e-07
4.21912e-07
4.21698e-07
4.21267e-07
4.20621e-07
4.19777e-07
4.18764e-07
4.17613e-07
4.16356e-07
4.15016e-07
4.13612e-07
4.12156e-07
4.10656e-07
4.09119e-07
4.07553e-07
4.05963e-07
4.04353e-07
4.02728e-07
4.01091e-07
3.99443e-07
3.97785e-07
3.96119e-07
3.94445e-07
3.92764e-07
3.91076e-07
3.89383e-07
3.87683e-07
3.85977e-07
3.84266e-07
3.8255e-07
3.80828e-07
3.79102e-07
3.7737e-07
3.75634e-07
3.73894e-07
3.7215e-07
3.70402e-07
3.6865e-07
3.66895e-07
3.65136e-07
3.63374e-07
3.61608e-07
3.59839e-07
3.58066e-07
3.56288e-07
3.54506e-07
3.52717e-07
3.50922e-07
3.49119e-07
3.47305e-07
3.45478e-07
3.43632e-07
3.41762e-07
3.39855e-07
3.37901e-07
3.3588e-07
3.33782e-07
3.31594e-07
3.29328e-07
3.26985e-07
3.24664e-07
4.16392e-07
4.1623e-07
4.15904e-07
4.1542e-07
4.14787e-07
4.14021e-07
4.1314e-07
4.12162e-07
4.11104e-07
4.09976e-07
4.0879e-07
4.07552e-07
4.06271e-07
4.04951e-07
4.03597e-07
4.02215e-07
4.00808e-07
3.9938e-07
3.97934e-07
3.96471e-07
3.94994e-07
3.93505e-07
3.92004e-07
3.90493e-07
3.88974e-07
3.87446e-07
3.85912e-07
3.84371e-07
3.82825e-07
3.81275e-07
3.79721e-07
3.78163e-07
3.76603e-07
3.75041e-07
3.73477e-07
3.71913e-07
3.70347e-07
3.68782e-07
3.67217e-07
3.65652e-07
3.64087e-07
3.62523e-07
3.60957e-07
3.5939e-07
3.5782e-07
3.56246e-07
3.54664e-07
3.53073e-07
3.51467e-07
3.49847e-07
3.48206e-07
3.46548e-07
3.44864e-07
3.43162e-07
3.41414e-07
3.39625e-07
3.37759e-07
3.35837e-07
3.33854e-07
3.31939e-07
4.12045e-07
4.11927e-07
4.11689e-07
4.11333e-07
4.10863e-07
4.10285e-07
4.09609e-07
4.08845e-07
4.08002e-07
4.07091e-07
4.06118e-07
4.05091e-07
4.04016e-07
4.02897e-07
4.0174e-07
4.00548e-07
3.99327e-07
3.98079e-07
3.96807e-07
3.95515e-07
3.94204e-07
3.92878e-07
3.91538e-07
3.90186e-07
3.88824e-07
3.87453e-07
3.86075e-07
3.84691e-07
3.83302e-07
3.8191e-07
3.80516e-07
3.79121e-07
3.77726e-07
3.76332e-07
3.7494e-07
3.73551e-07
3.72166e-07
3.70785e-07
3.69409e-07
3.68039e-07
3.66675e-07
3.65318e-07
3.63967e-07
3.62622e-07
3.61284e-07
3.59952e-07
3.58624e-07
3.57302e-07
3.55979e-07
3.54655e-07
3.53318e-07
3.51966e-07
3.50585e-07
3.4918e-07
3.47739e-07
3.46276e-07
3.44769e-07
3.43242e-07
3.41692e-07
3.40231e-07
4.08594e-07
4.08501e-07
4.08316e-07
4.08037e-07
4.07666e-07
4.07207e-07
4.06664e-07
4.06044e-07
4.05354e-07
4.04598e-07
4.03784e-07
4.02916e-07
4.01999e-07
4.01038e-07
4.00038e-07
3.99002e-07
3.97935e-07
3.96839e-07
3.95719e-07
3.94576e-07
3.93414e-07
3.92235e-07
3.91041e-07
3.89834e-07
3.88617e-07
3.87392e-07
3.8616e-07
3.84923e-07
3.83682e-07
3.8244e-07
3.81198e-07
3.79957e-07
3.78719e-07
3.77485e-07
3.76258e-07
3.75037e-07
3.73824e-07
3.72622e-07
3.71429e-07
3.70249e-07
3.69081e-07
3.67926e-07
3.66785e-07
3.65659e-07
3.64546e-07
3.63448e-07
3.62362e-07
3.6129e-07
3.6023e-07
3.59184e-07
3.58148e-07
3.57121e-07
3.56092e-07
3.55061e-07
3.54018e-07
3.52972e-07
3.51911e-07
3.50864e-07
3.49835e-07
3.4893e-07
4.0583e-07
4.05754e-07
4.05603e-07
4.05374e-07
4.0507e-07
4.04691e-07
4.04241e-07
4.03725e-07
4.03145e-07
4.02507e-07
4.01815e-07
4.01073e-07
4.00284e-07
3.99453e-07
3.98584e-07
3.9768e-07
3.96745e-07
3.95781e-07
3.94792e-07
3.9378e-07
3.92749e-07
3.91701e-07
3.90638e-07
3.89562e-07
3.88477e-07
3.87383e-07
3.86284e-07
3.85181e-07
3.84077e-07
3.82972e-07
3.8187e-07
3.80773e-07
3.79681e-07
3.78597e-07
3.77523e-07
3.7646e-07
3.75411e-07
3.74377e-07
3.7336e-07
3.72361e-07
3.71382e-07
3.70425e-07
3.69491e-07
3.68582e-07
3.67699e-07
3.66843e-07
3.66014e-07
3.65215e-07
3.64442e-07
3.63697e-07
3.62975e-07
3.62281e-07
3.61613e-07
3.60973e-07
3.60354e-07
3.59765e-07
3.59197e-07
3.58674e-07
3.58207e-07
3.57882e-07
4.03627e-07
4.03564e-07
4.03436e-07
4.03243e-07
4.02985e-07
4.02664e-07
4.02282e-07
4.01841e-07
4.01345e-07
4.00796e-07
4.00198e-07
3.99553e-07
3.98866e-07
3.9814e-07
3.97377e-07
3.9658e-07
3.95754e-07
3.94899e-07
3.9402e-07
3.9312e-07
3.922e-07
3.91263e-07
3.90312e-07
3.8935e-07
3.88379e-07
3.87401e-07
3.86418e-07
3.85433e-07
3.84449e-07
3.83467e-07
3.8249e-07
3.8152e-07
3.80559e-07
3.7961e-07
3.78675e-07
3.77757e-07
3.76856e-07
3.75977e-07
3.75121e-07
3.7429e-07
3.73487e-07
3.72714e-07
3.71974e-07
3.71269e-07
3.70601e-07
3.69973e-07
3.69387e-07
3.68845e-07
3.68347e-07
3.67896e-07
3.67493e-07
3.67142e-07
3.66843e-07
3.66602e-07
3.66415e-07
3.66291e-07
3.66228e-07
3.66247e-07
3.66361e-07
3.66643e-07
4.01899e-07
4.01844e-07
4.01733e-07
4.01565e-07
4.01342e-07
4.01062e-07
4.00729e-07
4.00344e-07
3.9991e-07
3.99428e-07
3.98902e-07
3.98333e-07
3.97725e-07
3.9708e-07
3.964e-07
3.95689e-07
3.9495e-07
3.94184e-07
3.93395e-07
3.92585e-07
3.91757e-07
3.90913e-07
3.90057e-07
3.8919e-07
3.88315e-07
3.87435e-07
3.86552e-07
3.85668e-07
3.84787e-07
3.83911e-07
3.83042e-07
3.82183e-07
3.81337e-07
3.80506e-07
3.79694e-07
3.78902e-07
3.78133e-07
3.77392e-07
3.76679e-07
3.76e-07
3.75356e-07
3.74751e-07
3.74188e-07
3.7367e-07
3.73202e-07
3.72786e-07
3.72426e-07
3.72123e-07
3.71883e-07
3.71711e-07
3.71609e-07
3.71584e-07
3.71639e-07
3.71779e-07
3.72008e-07
3.72334e-07
3.72761e-07
3.73307e-07
3.73989e-07
3.74863e-07
4.00581e-07
4.00532e-07
4.00433e-07
4.00284e-07
4.00085e-07
3.99836e-07
3.99538e-07
3.99194e-07
3.98805e-07
3.98373e-07
3.97899e-07
3.97387e-07
3.96839e-07
3.96255e-07
3.9564e-07
3.94995e-07
3.94324e-07
3.93627e-07
3.92909e-07
3.92171e-07
3.91416e-07
3.90647e-07
3.89866e-07
3.89076e-07
3.88279e-07
3.87478e-07
3.86677e-07
3.85876e-07
3.8508e-07
3.84291e-07
3.83512e-07
3.82745e-07
3.81994e-07
3.81262e-07
3.80551e-07
3.79866e-07
3.79209e-07
3.78583e-07
3.77993e-07
3.77441e-07
3.76933e-07
3.7647e-07
3.76059e-07
3.75702e-07
3.75405e-07
3.75172e-07
3.75007e-07
3.74916e-07
3.74904e-07
3.74978e-07
3.75144e-07
3.75409e-07
3.75779e-07
3.76262e-07
3.76864e-07
3.77597e-07
3.78468e-07
3.79496e-07
3.80697e-07
3.82115e-07
3.99628e-07
3.99583e-07
3.99493e-07
3.99356e-07
3.99174e-07
3.98946e-07
3.98674e-07
3.98358e-07
3.98001e-07
3.97604e-07
3.97169e-07
3.96697e-07
3.96191e-07
3.95652e-07
3.95084e-07
3.94487e-07
3.93865e-07
3.9322e-07
3.92554e-07
3.91869e-07
3.91169e-07
3.90456e-07
3.89732e-07
3.89e-07
3.88262e-07
3.87522e-07
3.86782e-07
3.86045e-07
3.85314e-07
3.84591e-07
3.83881e-07
3.83185e-07
3.82508e-07
3.81852e-07
3.81221e-07
3.80618e-07
3.80048e-07
3.79513e-07
3.79018e-07
3.78568e-07
3.78165e-07
3.77816e-07
3.77525e-07
3.77296e-07
3.77136e-07
3.77049e-07
3.77042e-07
3.77122e-07
3.77295e-07
3.77569e-07
3.77953e-07
3.78454e-07
3.79081e-07
3.79845e-07
3.80755e-07
3.81824e-07
3.83065e-07
3.84493e-07
3.86129e-07
3.88001e-07
3.99009e-07
3.98967e-07
3.98882e-07
3.98754e-07
3.98582e-07
3.98367e-07
3.98111e-07
3.97814e-07
3.97477e-07
3.97102e-07
3.96691e-07
3.96246e-07
3.95767e-07
3.95258e-07
3.9472e-07
3.94155e-07
3.93565e-07
3.92954e-07
3.92322e-07
3.91673e-07
3.91009e-07
3.90333e-07
3.89647e-07
3.88954e-07
3.88256e-07
3.87556e-07
3.86858e-07
3.86164e-07
3.85477e-07
3.84799e-07
3.84136e-07
3.83488e-07
3.82861e-07
3.82257e-07
3.81681e-07
3.81135e-07
3.80624e-07
3.80151e-07
3.79723e-07
3.79342e-07
3.79013e-07
3.78742e-07
3.78534e-07
3.78395e-07
3.7833e-07
3.78345e-07
3.78448e-07
3.78648e-07
3.78951e-07
3.79366e-07
3.79903e-07
3.80572e-07
3.81382e-07
3.82346e-07
3.83476e-07
3.84785e-07
3.86291e-07
3.88007e-07
3.89955e-07
3.92155e-07
3.98704e-07
3.98663e-07
3.98581e-07
3.98457e-07
3.9829e-07
3.98082e-07
3.97833e-07
3.97545e-07
3.97218e-07
3.96854e-07
3.96455e-07
3.96023e-07
3.95558e-07
3.95063e-07
3.9454e-07
3.9399e-07
3.93417e-07
3.92822e-07
3.92208e-07
3.91577e-07
3.90931e-07
3.90273e-07
3.89606e-07
3.88932e-07
3.88254e-07
3.87575e-07
3.86898e-07
3.86225e-07
3.8556e-07
3.84906e-07
3.84266e-07
3.83643e-07
3.83041e-07
3.82464e-07
3.81914e-07
3.81397e-07
3.80917e-07
3.80476e-07
3.80081e-07
3.79735e-07
3.79444e-07
3.79213e-07
3.79048e-07
3.78954e-07
3.78938e-07
3.79006e-07
3.79167e-07
3.79428e-07
3.79798e-07
3.80287e-07
3.80903e-07
3.81658e-07
3.82563e-07
3.83631e-07
3.84876e-07
3.86311e-07
3.87955e-07
3.89822e-07
3.91934e-07
3.94306e-07
3.98704e-07
3.98663e-07
3.98581e-07
3.98456e-07
3.9829e-07
3.98082e-07
3.97833e-07
3.97545e-07
3.97218e-07
3.96854e-07
3.96455e-07
3.96022e-07
3.95557e-07
3.95062e-07
3.94539e-07
3.9399e-07
3.93417e-07
3.92822e-07
3.92208e-07
3.91576e-07
3.90931e-07
3.90273e-07
3.89606e-07
3.88932e-07
3.88254e-07
3.87575e-07
3.86897e-07
3.86225e-07
3.8556e-07
3.84905e-07
3.84265e-07
3.83642e-07
3.83041e-07
3.82463e-07
3.81914e-07
3.81397e-07
3.80916e-07
3.80476e-07
3.8008e-07
3.79735e-07
3.79444e-07
3.79213e-07
3.79048e-07
3.78953e-07
3.78937e-07
3.79005e-07
3.79166e-07
3.79427e-07
3.79798e-07
3.80286e-07
3.80902e-07
3.81657e-07
3.82563e-07
3.8363e-07
3.84875e-07
3.8631e-07
3.87954e-07
3.8982e-07
3.91933e-07
3.94305e-07
3.99008e-07
3.98966e-07
3.98881e-07
3.98753e-07
3.98581e-07
3.98367e-07
3.9811e-07
3.97813e-07
3.97476e-07
3.97101e-07
3.9669e-07
3.96245e-07
3.95766e-07
3.95257e-07
3.94719e-07
3.94154e-07
3.93565e-07
3.92953e-07
3.92321e-07
3.91672e-07
3.91009e-07
3.90332e-07
3.89646e-07
3.88953e-07
3.88255e-07
3.87555e-07
3.86857e-07
3.86163e-07
3.85475e-07
3.84798e-07
3.84135e-07
3.83487e-07
3.8286e-07
3.82256e-07
3.81679e-07
3.81133e-07
3.80622e-07
3.8015e-07
3.79721e-07
3.7934e-07
3.79012e-07
3.78741e-07
3.78533e-07
3.78393e-07
3.78328e-07
3.78343e-07
3.78446e-07
3.78646e-07
3.78949e-07
3.79364e-07
3.79901e-07
3.80569e-07
3.81379e-07
3.82343e-07
3.83473e-07
3.84782e-07
3.86288e-07
3.88004e-07
3.89952e-07
3.92152e-07
3.99627e-07
3.99582e-07
3.99492e-07
3.99355e-07
3.99173e-07
3.98945e-07
3.98673e-07
3.98357e-07
3.98e-07
3.97603e-07
3.97167e-07
3.96696e-07
3.9619e-07
3.95651e-07
3.95083e-07
3.94486e-07
3.93864e-07
3.93219e-07
3.92553e-07
3.91868e-07
3.91168e-07
3.90454e-07
3.8973e-07
3.88998e-07
3.8826e-07
3.8752e-07
3.8678e-07
3.86043e-07
3.85312e-07
3.8459e-07
3.83879e-07
3.83183e-07
3.82506e-07
3.8185e-07
3.81219e-07
3.80616e-07
3.80045e-07
3.79511e-07
3.79016e-07
3.78565e-07
3.78163e-07
3.77813e-07
3.77522e-07
3.77293e-07
3.77132e-07
3.77046e-07
3.77039e-07
3.77118e-07
3.77291e-07
3.77566e-07
3.77949e-07
3.7845e-07
3.79077e-07
3.7984e-07
3.80751e-07
3.81819e-07
3.8306e-07
3.84488e-07
3.86123e-07
3.87995e-07
4.00579e-07
4.0053e-07
4.00431e-07
4.00282e-07
4.00083e-07
3.99834e-07
3.99537e-07
3.99192e-07
3.98803e-07
3.98371e-07
3.97898e-07
3.97386e-07
3.96837e-07
3.96254e-07
3.95638e-07
3.94994e-07
3.94322e-07
3.93625e-07
3.92907e-07
3.92169e-07
3.91414e-07
3.90645e-07
3.89864e-07
3.89074e-07
3.88277e-07
3.87476e-07
3.86674e-07
3.85874e-07
3.85078e-07
3.84288e-07
3.83509e-07
3.82742e-07
3.81991e-07
3.81259e-07
3.80548e-07
3.79863e-07
3.79205e-07
3.7858e-07
3.77989e-07
3.77438e-07
3.76929e-07
3.76467e-07
3.76055e-07
3.75698e-07
3.75401e-07
3.75168e-07
3.75003e-07
3.74911e-07
3.74899e-07
3.74973e-07
3.75139e-07
3.75404e-07
3.75773e-07
3.76255e-07
3.76858e-07
3.7759e-07
3.78461e-07
3.79488e-07
3.8069e-07
3.82107e-07
4.01897e-07
4.01842e-07
4.01731e-07
4.01563e-07
4.0134e-07
4.01061e-07
4.00727e-07
4.00342e-07
3.99908e-07
3.99426e-07
3.989e-07
3.98331e-07
3.97723e-07
3.97077e-07
3.96398e-07
3.95687e-07
3.94947e-07
3.94182e-07
3.93393e-07
3.92583e-07
3.91755e-07
3.90911e-07
3.90054e-07
3.89187e-07
3.88312e-07
3.87432e-07
3.86549e-07
3.85665e-07
3.84784e-07
3.83908e-07
3.83039e-07
3.8218e-07
3.81334e-07
3.80503e-07
3.7969e-07
3.78898e-07
3.78129e-07
3.77388e-07
3.76675e-07
3.75995e-07
3.75351e-07
3.74746e-07
3.74183e-07
3.73665e-07
3.73197e-07
3.7278e-07
3.7242e-07
3.72117e-07
3.71877e-07
3.71704e-07
3.71602e-07
3.71577e-07
3.71631e-07
3.71772e-07
3.72e-07
3.72325e-07
3.72752e-07
3.73298e-07
3.73979e-07
3.74852e-07
4.03625e-07
4.03561e-07
4.03433e-07
4.03241e-07
4.02983e-07
4.02662e-07
4.0228e-07
4.01839e-07
4.01342e-07
4.00793e-07
4.00195e-07
3.99551e-07
3.98864e-07
3.98137e-07
3.97374e-07
3.96578e-07
3.95751e-07
3.94896e-07
3.94018e-07
3.93117e-07
3.92197e-07
3.9126e-07
3.90309e-07
3.89347e-07
3.88375e-07
3.87397e-07
3.86415e-07
3.8543e-07
3.84445e-07
3.83463e-07
3.82486e-07
3.81516e-07
3.80555e-07
3.79606e-07
3.78671e-07
3.77752e-07
3.76851e-07
3.75972e-07
3.75115e-07
3.74285e-07
3.73482e-07
3.72709e-07
3.71968e-07
3.71263e-07
3.70595e-07
3.69967e-07
3.6938e-07
3.68838e-07
3.6834e-07
3.67888e-07
3.67485e-07
3.67133e-07
3.66834e-07
3.66592e-07
3.66405e-07
3.66281e-07
3.66218e-07
3.66236e-07
3.66349e-07
3.66631e-07
4.05827e-07
4.05751e-07
4.056e-07
4.05372e-07
4.05067e-07
4.04688e-07
4.04239e-07
4.03722e-07
4.03142e-07
4.02504e-07
4.01812e-07
4.0107e-07
4.00281e-07
3.9945e-07
3.98581e-07
3.97677e-07
3.96742e-07
3.95778e-07
3.94789e-07
3.93777e-07
3.92746e-07
3.91697e-07
3.90634e-07
3.89559e-07
3.88473e-07
3.87379e-07
3.8628e-07
3.85177e-07
3.84072e-07
3.82968e-07
3.81866e-07
3.80768e-07
3.79676e-07
3.78592e-07
3.77518e-07
3.76455e-07
3.75406e-07
3.74371e-07
3.73354e-07
3.72355e-07
3.71376e-07
3.70419e-07
3.69484e-07
3.68575e-07
3.67691e-07
3.66835e-07
3.66006e-07
3.65206e-07
3.64433e-07
3.63688e-07
3.62965e-07
3.62272e-07
3.61603e-07
3.60962e-07
3.60343e-07
3.59753e-07
3.59185e-07
3.58662e-07
3.58193e-07
3.57868e-07
4.08591e-07
4.08498e-07
4.08313e-07
4.08034e-07
4.07663e-07
4.07204e-07
4.06661e-07
4.06041e-07
4.0535e-07
4.04595e-07
4.03781e-07
4.02912e-07
4.01995e-07
4.01034e-07
4.00034e-07
3.98998e-07
3.97931e-07
3.96836e-07
3.95715e-07
3.94572e-07
3.9341e-07
3.92231e-07
3.91037e-07
3.8983e-07
3.88613e-07
3.87387e-07
3.86155e-07
3.84918e-07
3.83677e-07
3.82435e-07
3.81193e-07
3.79952e-07
3.78714e-07
3.7748e-07
3.76252e-07
3.75031e-07
3.73818e-07
3.72615e-07
3.71423e-07
3.70242e-07
3.69074e-07
3.67919e-07
3.66778e-07
3.65651e-07
3.64538e-07
3.63439e-07
3.62353e-07
3.61281e-07
3.6022e-07
3.59174e-07
3.58137e-07
3.57111e-07
3.56081e-07
3.5505e-07
3.54006e-07
3.52959e-07
3.51898e-07
3.5085e-07
3.49821e-07
3.48915e-07
4.12042e-07
4.11923e-07
4.11686e-07
4.1133e-07
4.10859e-07
4.10281e-07
4.09605e-07
4.08841e-07
4.07999e-07
4.07087e-07
4.06115e-07
4.05088e-07
4.04012e-07
4.02894e-07
4.01736e-07
4.00545e-07
3.99323e-07
3.98074e-07
3.96803e-07
3.9551e-07
3.942e-07
3.92874e-07
3.91534e-07
3.90182e-07
3.88819e-07
3.87448e-07
3.8607e-07
3.84686e-07
3.83297e-07
3.81905e-07
3.80511e-07
3.79115e-07
3.7772e-07
3.76326e-07
3.74934e-07
3.73544e-07
3.72159e-07
3.70778e-07
3.69402e-07
3.68032e-07
3.66667e-07
3.6531e-07
3.63958e-07
3.62613e-07
3.61275e-07
3.59942e-07
3.58615e-07
3.57292e-07
3.55969e-07
3.54644e-07
3.53307e-07
3.51954e-07
3.50573e-07
3.49167e-07
3.47726e-07
3.46262e-07
3.44755e-07
3.43227e-07
3.41676e-07
3.40215e-07
4.16388e-07
4.16226e-07
4.15901e-07
4.15417e-07
4.14784e-07
4.14017e-07
4.13137e-07
4.12159e-07
4.111e-07
4.09972e-07
4.08786e-07
4.07549e-07
4.06267e-07
4.04947e-07
4.03593e-07
4.02211e-07
4.00804e-07
3.99376e-07
3.97929e-07
3.96467e-07
3.9499e-07
3.935e-07
3.91999e-07
3.90488e-07
3.88968e-07
3.87441e-07
3.85906e-07
3.84366e-07
3.8282e-07
3.81269e-07
3.79714e-07
3.78157e-07
3.76596e-07
3.75034e-07
3.7347e-07
3.71905e-07
3.7034e-07
3.68775e-07
3.67209e-07
3.65644e-07
3.64079e-07
3.62514e-07
3.60948e-07
3.59381e-07
3.5781e-07
3.56236e-07
3.54653e-07
3.53062e-07
3.51455e-07
3.49835e-07
3.48194e-07
3.46535e-07
3.44851e-07
3.43148e-07
3.414e-07
3.39611e-07
3.37744e-07
3.3582e-07
3.33837e-07
3.31922e-07
4.21908e-07
4.21694e-07
4.21263e-07
4.20617e-07
4.19774e-07
4.1876e-07
4.17609e-07
4.16352e-07
4.15012e-07
4.13608e-07
4.12152e-07
4.10651e-07
4.09115e-07
4.07548e-07
4.05958e-07
4.04349e-07
4.02724e-07
4.01086e-07
3.99438e-07
3.9778e-07
3.96114e-07
3.9444e-07
3.92759e-07
3.91071e-07
3.89377e-07
3.87677e-07
3.85972e-07
3.8426e-07
3.82544e-07
3.80822e-07
3.79095e-07
3.77363e-07
3.75627e-07
3.73887e-07
3.72142e-07
3.70394e-07
3.68642e-07
3.66887e-07
3.65128e-07
3.63365e-07
3.61599e-07
3.5983e-07
3.58056e-07
3.56278e-07
3.54495e-07
3.52706e-07
3.50911e-07
3.49107e-07
3.47293e-07
3.45466e-07
3.4362e-07
3.41749e-07
3.39841e-07
3.37886e-07
3.35865e-07
3.33766e-07
3.31578e-07
3.29311e-07
3.26967e-07
3.24646e-07
4.28608e-07
4.28176e-07
4.27389e-07
4.26298e-07
4.24974e-07
4.23485e-07
4.21891e-07
4.20229e-07
4.18522e-07
4.16779e-07
4.15007e-07
4.13213e-07
4.11401e-07
4.09579e-07
4.0775e-07
4.05919e-07
4.04086e-07
4.02253e-07
4.00417e-07
3.9858e-07
3.96741e-07
3.94898e-07
3.93052e-07
3.91201e-07
3.89346e-07
3.87486e-07
3.85619e-07
3.83746e-07
3.81866e-07
3.79979e-07
3.78085e-07
3.76182e-07
3.74272e-07
3.72354e-07
3.70428e-07
3.68494e-07
3.66553e-07
3.64603e-07
3.62646e-07
3.6068e-07
3.58707e-07
3.56725e-07
3.54736e-07
3.52735e-07
3.50729e-07
3.48707e-07
3.46679e-07
3.44631e-07
3.42577e-07
3.40495e-07
3.38407e-07
3.36282e-07
3.34153e-07
3.31977e-07
3.29803e-07
3.27568e-07
3.25344e-07
3.23042e-07
3.20768e-07
3.18409e-07
4.40343e-07
4.39593e-07
4.38179e-07
4.36227e-07
4.33942e-07
4.31522e-07
4.29092e-07
4.26702e-07
4.24356e-07
4.2204e-07
4.19746e-07
4.17474e-07
4.15228e-07
4.13014e-07
4.10833e-07
4.08684e-07
4.06562e-07
4.04462e-07
4.0238e-07
4.00312e-07
3.98254e-07
3.96205e-07
3.94161e-07
3.92119e-07
3.90079e-07
3.88036e-07
3.8599e-07
3.83939e-07
3.81883e-07
3.79818e-07
3.77746e-07
3.75664e-07
3.73574e-07
3.71472e-07
3.69362e-07
3.67239e-07
3.65108e-07
3.62965e-07
3.60813e-07
3.58648e-07
3.56477e-07
3.5429e-07
3.52101e-07
3.49891e-07
3.47686e-07
3.45454e-07
3.43235e-07
3.40983e-07
3.38757e-07
3.36485e-07
3.34264e-07
3.31979e-07
3.29784e-07
3.27494e-07
3.25361e-07
3.23079e-07
3.21056e-07
3.18787e-07
3.16913e-07
3.14562e-07
4.49084e-07
4.47356e-07
4.44711e-07
4.41586e-07
4.38369e-07
4.35275e-07
4.32351e-07
4.29564e-07
4.26863e-07
4.24216e-07
4.21617e-07
4.19074e-07
4.16592e-07
4.1417e-07
4.11803e-07
4.09481e-07
4.07196e-07
4.04939e-07
4.02704e-07
4.00487e-07
3.98283e-07
3.96088e-07
3.93899e-07
3.91712e-07
3.89525e-07
3.87333e-07
3.85137e-07
3.82932e-07
3.80719e-07
3.78495e-07
3.76261e-07
3.74014e-07
3.71754e-07
3.69482e-07
3.67197e-07
3.64898e-07
3.62587e-07
3.60262e-07
3.57927e-07
3.55576e-07
3.53218e-07
3.50842e-07
3.48464e-07
3.46062e-07
3.43666e-07
3.41236e-07
3.38827e-07
3.36367e-07
3.33953e-07
3.31459e-07
3.29061e-07
3.26534e-07
3.24205e-07
3.21665e-07
3.19539e-07
3.17052e-07
3.15461e-07
3.13103e-07
3.12652e-07
3.10003e-07
4.97127e-07
4.83004e-07
4.69237e-07
4.5866e-07
4.51237e-07
4.45846e-07
4.41394e-07
4.37315e-07
4.33439e-07
4.29774e-07
4.26357e-07
4.23193e-07
4.20247e-07
4.17469e-07
4.14814e-07
4.12247e-07
4.09748e-07
4.07303e-07
4.04902e-07
4.02535e-07
4.00195e-07
3.97873e-07
3.95563e-07
3.93259e-07
3.90957e-07
3.88654e-07
3.86345e-07
3.8403e-07
3.81705e-07
3.79369e-07
3.77021e-07
3.7466e-07
3.72286e-07
3.69898e-07
3.67496e-07
3.6508e-07
3.62651e-07
3.60209e-07
3.57754e-07
3.55287e-07
3.52809e-07
3.5032e-07
3.4782e-07
3.4531e-07
3.4279e-07
3.40258e-07
3.37716e-07
3.3516e-07
3.32593e-07
3.30001e-07
3.27406e-07
3.24755e-07
3.22131e-07
3.19361e-07
3.16748e-07
3.13651e-07
3.11336e-07
3.06971e-07
3.06702e-07
2.96173e-07
3.3601e-07
2.85594e-07
2.6471e-07
2.47285e-07
2.29857e-07
2.12329e-07
1.92776e-07
1.71901e-07
1.47595e-07
1.21434e-07
9.11315e-08
5.93923e-08
2.35775e-08
-1.2344e-08
-5.14898e-08
-8.86394e-08
-1.27845e-07
-1.62627e-07
-1.98135e-07
-2.27272e-07
-2.55977e-07
-2.76638e-07
-2.96733e-07
-3.07659e-07
-3.19072e-07
-3.20283e-07
-3.26526e-07
-3.20002e-07
-3.26876e-07
-3.8433e-07
3.22118e-07
2.67205e-07
2.53302e-07
2.3848e-07
2.21753e-07
2.04636e-07
1.85391e-07
1.64668e-07
1.4056e-07
1.14759e-07
8.50858e-08
5.42027e-08
1.95434e-08
-1.50673e-08
-5.27319e-08
-8.84396e-08
-1.25922e-07
-1.595e-07
-1.93716e-07
-2.22065e-07
-2.50688e-07
-2.71258e-07
-2.92204e-07
-3.03425e-07
-3.16651e-07
-3.17813e-07
-3.24525e-07
-3.20916e-07
-3.11032e-07
-4.28484e-07
3.09937e-07
2.64791e-07
2.51914e-07
2.37586e-07
2.20356e-07
2.02248e-07
1.82482e-07
1.61416e-07
1.37253e-07
1.1133e-07
8.1866e-08
5.11002e-08
1.69328e-08
-1.72906e-08
-5.42238e-08
-8.93226e-08
-1.26242e-07
-1.59311e-07
-1.9346e-07
-2.21324e-07
-2.49776e-07
-2.70314e-07
-2.91557e-07
-3.03223e-07
-3.16591e-07
-3.20427e-07
-3.25762e-07
-3.32092e-07
-3.05007e-07
-4.01343e-07
2.99775e-07
2.60728e-07
2.45774e-07
2.31967e-07
2.15451e-07
1.97953e-07
1.78357e-07
1.57122e-07
1.32984e-07
1.06916e-07
7.77125e-08
4.69943e-08
1.34433e-08
-2.05124e-08
-5.65171e-08
-9.13081e-08
-1.27182e-07
-1.6002e-07
-1.92967e-07
-2.21275e-07
-2.49087e-07
-2.70829e-07
-2.91614e-07
-3.0598e-07
-3.17927e-07
-3.26762e-07
-3.27514e-07
-3.45403e-07
-3.08493e-07
-3.79162e-07
2.89971e-07
2.58158e-07
2.42361e-07
2.29689e-07
2.13707e-07
1.954e-07
1.75283e-07
1.53474e-07
1.2927e-07
1.02783e-07
7.37701e-08
4.27702e-08
9.7986e-09
-2.4274e-08
-5.9314e-08
-9.42082e-08
-1.28849e-07
-1.62089e-07
-1.93807e-07
-2.23281e-07
-2.49821e-07
-2.73853e-07
-2.93043e-07
-3.11369e-07
-3.20626e-07
-3.36218e-07
-3.29926e-07
-3.5168e-07
-3.19611e-07
-3.54554e-07
2.81397e-07
2.56441e-07
2.3985e-07
2.26677e-07
2.10951e-07
1.92537e-07
1.72233e-07
1.49909e-07
1.25569e-07
9.86013e-08
6.96856e-08
3.82886e-08
5.79186e-09
-2.85663e-08
-6.27064e-08
-9.79125e-08
-1.31316e-07
-1.65206e-07
-1.95539e-07
-2.26323e-07
-2.51387e-07
-2.77892e-07
-2.95413e-07
-3.17304e-07
-3.24462e-07
-3.43137e-07
-3.36583e-07
-3.54417e-07
-3.36503e-07
-3.48456e-07
2.74398e-07
2.54927e-07
2.38267e-07
2.24196e-07
2.08587e-07
1.90072e-07
1.69524e-07
1.46583e-07
1.21944e-07
9.44162e-08
6.54443e-08
3.36002e-08
1.39707e-09
-3.32627e-08
-6.67106e-08
-1.0218e-07
-1.34589e-07
-1.68946e-07
-1.98198e-07
-2.29925e-07
-2.54102e-07
-2.82134e-07
-2.99214e-07
-3.22736e-07
-3.30707e-07
-3.49093e-07
-3.47515e-07
-3.593e-07
-3.53238e-07
-3.55152e-07
2.69197e-07
2.53505e-07
2.37358e-07
2.22304e-07
2.06457e-07
1.87749e-07
1.66884e-07
1.43332e-07
1.18234e-07
9.01547e-08
6.09347e-08
2.87126e-08
-3.45084e-09
-3.82671e-08
-7.13625e-08
-1.06817e-07
-1.38698e-07
-1.73028e-07
-2.01881e-07
-2.3374e-07
-2.58082e-07
-2.86339e-07
-3.04764e-07
-3.28014e-07
-3.39367e-07
-3.55652e-07
-3.6035e-07
-3.67738e-07
-3.68186e-07
-3.6813e-07
2.65851e-07
2.5217e-07
2.36675e-07
2.20958e-07
2.04559e-07
1.85493e-07
1.64209e-07
1.40077e-07
1.14377e-07
8.57768e-08
5.6116e-08
2.36131e-08
-8.76321e-09
-4.35508e-08
-7.66356e-08
-1.11765e-07
-1.43583e-07
-1.77405e-07
-2.06488e-07
-2.37789e-07
-2.63107e-07
-2.90749e-07
-3.11363e-07
-3.33746e-07
-3.4873e-07
-3.63891e-07
-3.72791e-07
-3.79601e-07
-3.82647e-07
-3.836e-07
2.64088e-07
2.50998e-07
2.36055e-07
2.19958e-07
2.02838e-07
1.8324e-07
1.61403e-07
1.36713e-07
1.10309e-07
8.12071e-08
5.09595e-08
1.8243e-08
-1.45216e-08
-4.91578e-08
-8.24513e-08
-1.17068e-07
-1.49088e-07
-1.82153e-07
-2.11733e-07
-2.42221e-07
-2.68668e-07
-2.95626e-07
-3.18215e-07
-3.40283e-07
-3.57936e-07
-3.73525e-07
-3.8496e-07
-3.93148e-07
-3.97917e-07
-4.00671e-07
2.63424e-07
2.50124e-07
2.35379e-07
2.1902e-07
2.01161e-07
1.80908e-07
1.58388e-07
1.33126e-07
1.05963e-07
7.63537e-08
4.54449e-08
1.25216e-08
-2.06979e-08
-5.516e-08
-8.87174e-08
-1.22799e-07
-1.55032e-07
-1.87353e-07
-2.17329e-07
-2.47128e-07
-2.74396e-07
-3.01041e-07
-3.25001e-07
-3.47466e-07
-3.66932e-07
-3.83785e-07
-3.97224e-07
-4.07382e-07
-4.14228e-07
-4.19078e-07
2.63301e-07
2.49578e-07
2.34664e-07
2.17954e-07
1.99362e-07
1.78386e-07
1.55091e-07
1.29209e-07
1.01268e-07
7.11199e-08
3.95344e-08
6.36305e-09
-2.72961e-08
-6.1633e-08
-9.53954e-08
-1.29017e-07
-1.6133e-07
-1.93039e-07
-2.23164e-07
-2.5249e-07
-2.80201e-07
-3.06848e-07
-3.31718e-07
-3.54938e-07
-3.75851e-07
-3.94296e-07
-4.0971e-07
-4.22098e-07
-4.3133e-07
-4.38703e-07
2.63326e-07
2.49223e-07
2.33867e-07
2.16637e-07
1.97292e-07
1.75559e-07
1.5144e-07
1.24873e-07
9.61413e-08
6.54066e-08
3.31534e-08
-3.23459e-10
-3.43787e-08
-6.86559e-08
-1.02531e-07
-1.3578e-07
-1.68017e-07
-1.9922e-07
-2.29275e-07
-2.58242e-07
-2.86137e-07
-3.1289e-07
-3.38448e-07
-3.62497e-07
-3.84793e-07
-4.04878e-07
-4.22403e-07
-4.37095e-07
-4.49018e-07
-4.59069e-07
2.63269e-07
2.48857e-07
2.32909e-07
2.15008e-07
1.94867e-07
1.72341e-07
1.47361e-07
1.20033e-07
9.04821e-08
5.91041e-08
2.61867e-08
-7.64972e-09
-4.20663e-08
-7.63334e-08
-1.10244e-07
-1.43167e-07
-1.75208e-07
-2.05936e-07
-2.35765e-07
-2.64373e-07
-2.92288e-07
-3.1911e-07
-3.45237e-07
-3.70064e-07
-3.93726e-07
-4.15433e-07
-4.35175e-07
-4.52258e-07
-4.67092e-07
-4.80051e-07
2.63057e-07
2.48299e-07
2.31706e-07
2.13048e-07
1.92055e-07
1.6867e-07
1.42774e-07
1.1459e-07
8.41695e-08
5.20763e-08
1.84829e-08
-1.57668e-08
-5.05229e-08
-8.48135e-08
-1.18701e-07
-1.51301e-07
-1.83053e-07
-2.13272e-07
-2.4275e-07
-2.70919e-07
-2.9871e-07
-3.25491e-07
-3.52059e-07
-3.77561e-07
-4.02525e-07
-4.25826e-07
-4.47846e-07
-4.67418e-07
-4.85351e-07
-5.01429e-07
2.62745e-07
2.47512e-07
2.30249e-07
2.10777e-07
1.88854e-07
1.64497e-07
1.37582e-07
1.08421e-07
7.70526e-08
4.41532e-08
9.85504e-09
-2.48653e-08
-5.99453e-08
-9.42804e-08
-1.28083e-07
-1.60338e-07
-1.91697e-07
-2.21337e-07
-2.50321e-07
-2.77934e-07
-3.05422e-07
-3.32005e-07
-3.58823e-07
-3.84858e-07
-4.10975e-07
-4.35826e-07
-4.60106e-07
-4.82292e-07
-5.03483e-07
-5.22956e-07
2.62508e-07
2.46581e-07
2.28583e-07
2.08217e-07
1.85242e-07
1.59743e-07
1.31654e-07
1.01359e-07
6.89363e-08
3.51232e-08
7.85505e-11
-3.51681e-08
-7.0553e-08
-1.04936e-07
-1.38576e-07
-1.70437e-07
-2.01276e-07
-2.30236e-07
-2.58551e-07
-2.8545e-07
-3.1241e-07
-3.38588e-07
-3.65396e-07
-3.91756e-07
-4.18789e-07
-4.45089e-07
-4.71507e-07
-4.96433e-07
-5.20989e-07
-5.44282e-07
2.62585e-07
2.45664e-07
2.26752e-07
2.05322e-07
1.81102e-07
1.54238e-07
1.24778e-07
9.31653e-08
5.95644e-08
2.47255e-08
-1.11106e-08
-4.69254e-08
-8.25833e-08
-1.16991e-07
-1.50371e-07
-1.81758e-07
-2.11923e-07
-2.4007e-07
-2.67512e-07
-2.93495e-07
-3.19669e-07
-3.45157e-07
-3.7165e-07
-3.98006e-07
-4.25664e-07
-4.53149e-07
-4.81533e-07
-5.09175e-07
-5.37182e-07
-5.64654e-07
2.63087e-07
2.4487e-07
2.2471e-07
2.01903e-07
1.76163e-07
1.47683e-07
1.16639e-07
8.35218e-08
4.861e-08
1.26419e-08
-2.40239e-08
-6.04245e-08
-9.63052e-08
-1.30685e-07
-1.63683e-07
-1.94491e-07
-2.23803e-07
-2.50978e-07
-2.77307e-07
-3.02145e-07
-3.27223e-07
-3.51688e-07
-3.77489e-07
-4.03397e-07
-4.31296e-07
-4.595e-07
-4.89586e-07
-5.19645e-07
-5.51084e-07
-5.82766e-07
2.63757e-07
2.43967e-07
2.22114e-07
1.97526e-07
1.69958e-07
1.39615e-07
1.06784e-07
7.19892e-08
3.56387e-08
-1.54289e-09
-3.90638e-08
-7.6038e-08
-1.12074e-07
-1.46341e-07
-1.78821e-07
-2.08919e-07
-2.37176e-07
-2.63202e-07
-2.88133e-07
-3.11572e-07
-3.35165e-07
-3.58241e-07
-3.82845e-07
-4.07785e-07
-4.35358e-07
-4.63628e-07
-4.94944e-07
-5.26752e-07
-5.61381e-07
-5.96642e-07
2.63883e-07
2.42265e-07
2.18342e-07
1.91604e-07
1.61898e-07
1.29443e-07
9.46141e-08
5.79726e-08
2.0059e-08
-1.8402e-08
-5.67906e-08
-9.42952e-08
-1.304e-07
-1.64432e-07
-1.9624e-07