/*--------------------------------*- C++ -*----------------------------------*\
| =========                 |                                                 |
| \\      /  F ield         | OpenFOAM: The Open Source CFD Toolbox           |
|  \\    /   O peration     | Version:  2312                                  |
|   \\  /    A nd           | Website:  www.openfoam.com                      |
|    \\/     M anipulation  |                                                 |
\*---------------------------------------------------------------------------*/
FoamFile
{
    version     2.0;
    format      ascii;
    arch        "LSB;label=32;scalar=64";
    class       volVectorField;
    location    "87000";
    object      U;
}
// * * * * * * * * * * * * * * * * * * * * * * * * * * * * * * * * * * * * * //

dimensions      [0 1 -1 0 0 0 0];

internalField   nonuniform List<vector> 
10800
(
(0.000992484 4.94178e-06 0)
(0.000990038 1.24574e-05 0)
(0.000986873 1.74785e-05 0)
(0.000980501 2.06621e-05 0)
(0.00097109 2.27449e-05 0)
(0.000959801 2.42384e-05 0)
(0.000947701 2.53772e-05 0)
(0.000935326 2.62363e-05 0)
(0.000922819 2.68398e-05 0)
(0.000910156 2.7213e-05 0)
(0.000897294 2.73935e-05 0)
(0.000884228 2.74241e-05 0)
(0.000870995 2.73429e-05 0)
(0.000857651 2.7178e-05 0)
(0.000844246 2.69474e-05 0)
(0.000830819 2.6663e-05 0)
(0.000817396 2.63326e-05 0)
(0.000803995 2.59629e-05 0)
(0.000790631 2.55593e-05 0)
(0.000777319 2.51267e-05 0)
(0.000764076 2.46688e-05 0)
(0.000750914 2.41888e-05 0)
(0.00073785 2.36888e-05 0)
(0.000724897 2.31705e-05 0)
(0.000712068 2.2635e-05 0)
(0.000699375 2.20836e-05 0)
(0.000686832 2.15166e-05 0)
(0.000674451 2.09353e-05 0)
(0.000662244 2.03393e-05 0)
(0.000650224 1.97302e-05 0)
(0.000638404 1.91067e-05 0)
(0.000626795 1.84713e-05 0)
(0.000615411 1.78215e-05 0)
(0.000604263 1.71613e-05 0)
(0.000593366 1.64862e-05 0)
(0.000582729 1.58029e-05 0)
(0.00057237 1.51039e-05 0)
(0.000562293 1.43999e-05 0)
(0.000552523 1.36782e-05 0)
(0.000543054 1.29568e-05 0)
(0.000533924 1.22139e-05 0)
(0.000525107 1.14795e-05 0)
(0.000516672 1.07162e-05 0)
(0.000508547 9.97458e-06 0)
(0.000500867 9.19018e-06 0)
(0.000493455 8.44849e-06 0)
(0.000486617 7.63903e-06 0)
(0.000479897 6.90419e-06 0)
(0.00047406 6.06081e-06 0)
(0.000467892 5.33138e-06 0)
(0.000463435 4.44538e-06 0)
(0.000457311 3.67435e-06 0)
(0.000455291 2.78377e-06 0)
(0.000447575 1.72279e-06 0)
(0.000451123 1.15336e-06 0)
(0.000436741 -1.26123e-06 0)
(0.000455153 1.12476e-07 0)
(0.000419188 -7.72519e-06 0)
(0.000477536 2.03099e-06 0)
(0.000382806 -2.44871e-05 0)
(0.00100003 5.80185e-06 0)
(0.00100172 1.49916e-05 0)
(0.00100423 2.15214e-05 0)
(0.00100706 2.60835e-05 0)
(0.00100979 2.94407e-05 0)
(0.00101219 3.21212e-05 0)
(0.00101421 3.43726e-05 0)
(0.00101589 3.62814e-05 0)
(0.00101727 3.78802e-05 0)
(0.00101838 3.91996e-05 0)
(0.00101923 4.0281e-05 0)
(0.00101982 4.11701e-05 0)
(0.00102014 4.19076e-05 0)
(0.0010202 4.25235e-05 0)
(0.00102001 4.30378e-05 0)
(0.00101958 4.34631e-05 0)
(0.00101893 4.38082e-05 0)
(0.00101806 4.40798e-05 0)
(0.00101699 4.42834e-05 0)
(0.00101573 4.44237e-05 0)
(0.0010143 4.45044e-05 0)
(0.00101268 4.45281e-05 0)
(0.00101091 4.44969e-05 0)
(0.00100898 4.44118e-05 0)
(0.00100692 4.42739e-05 0)
(0.00100471 4.40832e-05 0)
(0.00100239 4.38407e-05 0)
(0.00099994 4.35451e-05 0)
(0.00099741 4.31982e-05 0)
(0.000994745 4.2797e-05 0)
(0.000992044 4.23451e-05 0)
(0.000989199 4.18365e-05 0)
(0.000986373 4.12786e-05 0)
(0.000983377 4.06604e-05 0)
(0.000980479 3.99958e-05 0)
(0.000977354 3.92652e-05 0)
(0.000974448 3.84946e-05 0)
(0.000971205 3.76479e-05 0)
(0.000968373 3.67738e-05 0)
(0.000965001 3.58061e-05 0)
(0.000962356 3.48342e-05 0)
(0.00095881 3.37374e-05 0)
(0.000956517 3.26789e-05 0)
(0.000952687 3.14389e-05 0)
(0.000950999 3.03137e-05 0)
(0.000946659 2.89045e-05 0)
(0.000945981 2.7747e-05 0)
(0.00094071 2.6121e-05 0)
(0.000941708 2.49899e-05 0)
(0.000934733 2.30601e-05 0)
(0.000938521 2.20551e-05 0)
(0.000928459 1.96668e-05 0)
(0.000936921 1.89539e-05 0)
(0.000921323 1.58434e-05 0)
(0.000937646 1.5683e-05 0)
(0.000912216 1.14395e-05 0)
(0.000941821 1.21657e-05 0)
(0.000899098 6.31878e-06 0)
(0.000951342 7.95366e-06 0)
(0.000878823 8.97564e-07 0)
(0.000999989 1.96231e-06 0)
(0.00100078 5.76332e-06 0)
(0.00100224 9.28792e-06 0)
(0.00100423 1.24523e-05 0)
(0.00100654 1.52536e-05 0)
(0.00100897 1.77371e-05 0)
(0.00101139 1.99575e-05 0)
(0.00101376 2.19577e-05 0)
(0.00101607 2.37651e-05 0)
(0.00101833 2.53962e-05 0)
(0.00102055 2.68644e-05 0)
(0.00102272 2.81829e-05 0)
(0.00102484 2.93662e-05 0)
(0.00102689 3.04281e-05 0)
(0.00102888 3.13811e-05 0)
(0.00103079 3.22349e-05 0)
(0.00103264 3.29976e-05 0)
(0.00103443 3.3675e-05 0)
(0.00103616 3.42726e-05 0)
(0.00103782 3.47936e-05 0)
(0.00103943 3.52427e-05 0)
(0.00104097 3.5621e-05 0)
(0.00104247 3.59328e-05 0)
(0.00104391 3.61771e-05 0)
(0.0010453 3.63583e-05 0)
(0.00104662 3.64731e-05 0)
(0.00104792 3.65271e-05 0)
(0.00104913 3.65138e-05 0)
(0.00105034 3.64417e-05 0)
(0.00105144 3.62997e-05 0)
(0.00105257 3.61011e-05 0)
(0.00105357 3.58283e-05 0)
(0.00105463 3.55022e-05 0)
(0.00105552 3.50951e-05 0)
(0.00105654 3.46404e-05 0)
(0.00105731 3.40944e-05 0)
(0.0010583 3.35105e-05 0)
(0.00105894 3.28204e-05 0)
(0.00105995 3.21078e-05 0)
(0.00106043 3.12671e-05 0)
(0.00106153 3.04284e-05 0)
(0.00106179 2.94292e-05 0)
(0.00106306 2.84698e-05 0)
(0.00106304 2.73019e-05 0)
(0.0010646 2.62309e-05 0)
(0.00106417 2.48816e-05 0)
(0.00106623 2.37134e-05 0)
(0.00106517 2.21667e-05 0)
(0.00106801 2.09223e-05 0)
(0.001066 1.916e-05 0)
(0.00107007 1.78686e-05 0)
(0.0010666 1.5875e-05 0)
(0.00107253 1.45757e-05 0)
(0.0010668 1.23505e-05 0)
(0.0010756 1.10934e-05 0)
(0.00106637 8.68898e-06 0)
(0.00107954 7.53535e-06 0)
(0.00106494 5.15222e-06 0)
(0.00108478 4.1324e-06 0)
(0.00106205 2.2753e-06 0)
(0.00100001 1.74127e-06 0)
(0.00100047 5.15837e-06 0)
(0.00100128 8.41869e-06 0)
(0.00100239 1.1446e-05 0)
(0.00100374 1.41993e-05 0)
(0.00100526 1.66757e-05 0)
(0.00100689 1.8897e-05 0)
(0.00100858 2.08928e-05 0)
(0.00101033 2.26904e-05 0)
(0.00101212 2.43103e-05 0)
(0.00101394 2.57683e-05 0)
(0.00101578 2.70771e-05 0)
(0.00101765 2.82492e-05 0)
(0.00101952 2.92964e-05 0)
(0.0010214 3.02305e-05 0)
(0.00102328 3.10615e-05 0)
(0.00102516 3.17987e-05 0)
(0.00102703 3.24489e-05 0)
(0.00102891 3.30185e-05 0)
(0.00103078 3.35117e-05 0)
(0.00103264 3.39333e-05 0)
(0.0010345 3.42855e-05 0)
(0.00103637 3.45723e-05 0)
(0.00103822 3.4794e-05 0)
(0.00104007 3.49542e-05 0)
(0.00104191 3.50516e-05 0)
(0.00104375 3.50896e-05 0)
(0.00104557 3.50653e-05 0)
(0.00104741 3.49826e-05 0)
(0.00104922 3.48366e-05 0)
(0.00105105 3.46325e-05 0)
(0.00105284 3.43629e-05 0)
(0.00105466 3.4035e-05 0)
(0.00105642 3.36387e-05 0)
(0.00105824 3.31837e-05 0)
(0.00105998 3.26565e-05 0)
(0.00106179 3.20702e-05 0)
(0.00106349 3.14078e-05 0)
(0.00106532 3.06855e-05 0)
(0.00106697 2.98835e-05 0)
(0.00106881 2.90202e-05 0)
(0.00107041 2.80747e-05 0)
(0.00107229 2.70648e-05 0)
(0.00107381 2.59737e-05 0)
(0.00107575 2.4811e-05 0)
(0.00107717 2.35749e-05 0)
(0.00107921 2.22516e-05 0)
(0.00108051 2.08768e-05 0)
(0.00108269 1.93826e-05 0)
(0.00108382 1.78851e-05 0)
(0.00108623 1.62064e-05 0)
(0.00108711 1.46208e-05 0)
(0.00108985 1.27399e-05 0)
(0.0010904 1.11345e-05 0)
(0.0010936 9.02854e-06 0)
(0.00109366 7.52895e-06 0)
(0.00109753 5.16289e-06 0)
(0.00109688 3.97548e-06 0)
(0.00110169 1.26298e-06 0)
(0.0011 6.75754e-07 0)
(0.001 1.15268e-06 0)
(0.00100023 3.43071e-06 0)
(0.00100067 5.64334e-06 0)
(0.00100134 7.75885e-06 0)
(0.0010022 9.75589e-06 0)
(0.00100324 1.16242e-05 0)
(0.00100441 1.33623e-05 0)
(0.00100569 1.49744e-05 0)
(0.00100705 1.64666e-05 0)
(0.00100848 1.78448e-05 0)
(0.00100996 1.91146e-05 0)
(0.00101149 2.02808e-05 0)
(0.00101306 2.13482e-05 0)
(0.00101465 2.23216e-05 0)
(0.00101627 2.3206e-05 0)
(0.00101791 2.40062e-05 0)
(0.00101957 2.47268e-05 0)
(0.00102123 2.53715e-05 0)
(0.00102291 2.59437e-05 0)
(0.0010246 2.64463e-05 0)
(0.0010263 2.68817e-05 0)
(0.001028 2.72518e-05 0)
(0.00102971 2.75581e-05 0)
(0.00103142 2.7802e-05 0)
(0.00103314 2.79843e-05 0)
(0.00103486 2.81061e-05 0)
(0.00103659 2.81669e-05 0)
(0.00103832 2.81679e-05 0)
(0.00104006 2.81077e-05 0)
(0.00104179 2.79878e-05 0)
(0.00104353 2.78051e-05 0)
(0.00104527 2.75624e-05 0)
(0.00104702 2.72543e-05 0)
(0.00104876 2.68863e-05 0)
(0.0010505 2.64486e-05 0)
(0.00105224 2.59517e-05 0)
(0.00105398 2.53791e-05 0)
(0.00105572 2.47497e-05 0)
(0.00105746 2.40355e-05 0)
(0.0010592 2.32703e-05 0)
(0.00106093 2.24067e-05 0)
(0.00106266 2.15034e-05 0)
(0.00106439 2.0481e-05 0)
(0.00106612 1.94393e-05 0)
(0.00106784 1.82465e-05 0)
(0.00106957 1.70701e-05 0)
(0.00107128 1.56922e-05 0)
(0.00107303 1.4391e-05 0)
(0.00107472 1.28087e-05 0)
(0.0010765 1.14024e-05 0)
(0.00107817 9.58824e-06 0)
(0.00108002 8.1104e-06 0)
(0.00108168 6.02188e-06 0)
(0.00108364 4.5263e-06 0)
(0.0010853 2.09735e-06 0)
(0.00108749 6.74204e-07 0)
(0.00108912 -2.18691e-06 0)
(0.00109163 -3.38467e-06 0)
(0.00109313 -6.817e-06 0)
(0.00109594 -7.57061e-06 0)
(0.001 9.26525e-07 0)
(0.00100017 2.77094e-06 0)
(0.00100051 4.58828e-06 0)
(0.001001 6.35965e-06 0)
(0.00100165 8.06758e-06 0)
(0.00100242 9.69823e-06 0)
(0.00100331 1.12423e-05 0)
(0.0010043 1.2695e-05 0)
(0.00100537 1.40546e-05 0)
(0.00100651 1.53218e-05 0)
(0.00100771 1.64979e-05 0)
(0.00100895 1.75849e-05 0)
(0.00101025 1.85851e-05 0)
(0.00101158 1.9501e-05 0)
(0.00101295 2.03354e-05 0)
(0.00101435 2.10912e-05 0)
(0.00101577 2.17714e-05 0)
(0.00101721 2.23788e-05 0)
(0.00101867 2.29158e-05 0)
(0.00102015 2.33851e-05 0)
(0.00102164 2.37883e-05 0)
(0.00102314 2.41275e-05 0)
(0.00102466 2.44037e-05 0)
(0.00102619 2.46189e-05 0)
(0.00102772 2.47729e-05 0)
(0.00102926 2.48678e-05 0)
(0.00103081 2.49023e-05 0)
(0.00103236 2.48789e-05 0)
(0.00103392 2.47949e-05 0)
(0.00103548 2.46534e-05 0)
(0.00103704 2.44498e-05 0)
(0.00103861 2.41892e-05 0)
(0.00104017 2.38635e-05 0)
(0.00104174 2.34813e-05 0)
(0.0010433 2.30298e-05 0)
(0.00104487 2.25228e-05 0)
(0.00104643 2.19401e-05 0)
(0.001048 2.13045e-05 0)
(0.00104955 2.05839e-05 0)
(0.00105112 1.98155e-05 0)
(0.00105266 1.89489e-05 0)
(0.00105423 1.80439e-05 0)
(0.00105575 1.70211e-05 0)
(0.00105732 1.59765e-05 0)
(0.00105883 1.4785e-05 0)
(0.00106042 1.35995e-05 0)
(0.0010619 1.22232e-05 0)
(0.00106352 1.08988e-05 0)
(0.00106498 9.31691e-06 0)
(0.00106666 7.86118e-06 0)
(0.00106808 6.04667e-06 0)
(0.00106985 4.47771e-06 0)
(0.00107121 2.39463e-06 0)
(0.00107311 7.43465e-07 0)
(0.00107438 -1.66655e-06 0)
(0.0010765 -3.36047e-06 0)
(0.00107766 -6.19967e-06 0)
(0.00108012 -7.87868e-06 0)
(0.00108104 -1.12946e-05 0)
(0.00108384 -1.28564e-05 0)
(0.001 7.32e-07 0)
(0.00100013 2.18958e-06 0)
(0.00100037 3.62776e-06 0)
(0.00100074 5.03387e-06 0)
(0.00100121 6.39651e-06 0)
(0.0010018 7.70633e-06 0)
(0.00100249 8.95644e-06 0)
(0.00100326 1.01423e-05 0)
(0.00100411 1.12615e-05 0)
(0.00100503 1.23127e-05 0)
(0.00100601 1.32959e-05 0)
(0.00100705 1.42114e-05 0)
(0.00100814 1.50599e-05 0)
(0.00100926 1.58423e-05 0)
(0.00101043 1.65596e-05 0)
(0.00101163 1.72131e-05 0)
(0.00101287 1.78039e-05 0)
(0.00101412 1.83336e-05 0)
(0.00101541 1.8803e-05 0)
(0.00101671 1.92137e-05 0)
(0.00101803 1.95664e-05 0)
(0.00101936 1.98624e-05 0)
(0.00102071 2.01018e-05 0)
(0.00102207 2.02859e-05 0)
(0.00102344 2.04142e-05 0)
(0.00102482 2.04881e-05 0)
(0.0010262 2.05061e-05 0)
(0.00102759 2.04701e-05 0)
(0.00102899 2.03773e-05 0)
(0.00103038 2.02303e-05 0)
(0.00103178 2.00249e-05 0)
(0.00103318 1.97649e-05 0)
(0.00103457 1.94434e-05 0)
(0.00103597 1.90671e-05 0)
(0.00103736 1.86251e-05 0)
(0.00103875 1.81281e-05 0)
(0.00104012 1.75595e-05 0)
(0.0010415 1.69367e-05 0)
(0.00104286 1.62342e-05 0)
(0.00104423 1.54797e-05 0)
(0.00104557 1.46337e-05 0)
(0.00104693 1.37411e-05 0)
(0.00104825 1.27404e-05 0)
(0.0010496 1.17028e-05 0)
(0.00105088 1.0533e-05 0)
(0.00105223 9.34378e-06 0)
(0.00105348 7.98669e-06 0)
(0.00105483 6.6397e-06 0)
(0.00105604 5.07102e-06 0)
(0.00105741 3.56095e-06 0)
(0.00105859 1.74735e-06 0)
(0.00106002 7.21086e-08 0)
(0.00106116 -2.02852e-06 0)
(0.00106271 -3.85736e-06 0)
(0.00106378 -6.29518e-06 0)
(0.00106549 -8.25153e-06 0)
(0.00106645 -1.11079e-05 0)
(0.00106837 -1.31583e-05 0)
(0.00106911 -1.65664e-05 0)
(0.00107121 -1.86528e-05 0)
(0.001 5.82935e-07 0)
(0.0010001 1.74493e-06 0)
(0.00100029 2.89515e-06 0)
(0.00100057 4.02571e-06 0)
(0.00100095 5.12912e-06 0)
(0.00100142 6.19867e-06 0)
(0.00100197 7.22874e-06 0)
(0.00100259 8.21488e-06 0)
(0.00100329 9.15374e-06 0)
(0.00100405 1.0043e-05 0)
(0.00100487 1.08811e-05 0)
(0.00100575 1.16671e-05 0)
(0.00100667 1.24005e-05 0)
(0.00100764 1.30809e-05 0)
(0.00100865 1.37082e-05 0)
(0.00100969 1.42824e-05 0)
(0.00101076 1.48038e-05 0)
(0.00101186 1.52727e-05 0)
(0.00101299 1.56893e-05 0)
(0.00101413 1.60542e-05 0)
(0.0010153 1.63675e-05 0)
(0.00101648 1.66297e-05 0)
(0.00101768 1.68409e-05 0)
(0.00101889 1.70015e-05 0)
(0.00102011 1.7111e-05 0)
(0.00102134 1.717e-05 0)
(0.00102257 1.71776e-05 0)
(0.00102381 1.71344e-05 0)
(0.00102505 1.70387e-05 0)
(0.00102629 1.68917e-05 0)
(0.00102753 1.66904e-05 0)
(0.00102877 1.64368e-05 0)
(0.00103 1.61263e-05 0)
(0.00103124 1.57622e-05 0)
(0.00103246 1.53378e-05 0)
(0.00103367 1.48584e-05 0)
(0.00103488 1.43138e-05 0)
(0.00103608 1.3713e-05 0)
(0.00103725 1.30406e-05 0)
(0.00103843 1.2311e-05 0)
(0.00103958 1.15012e-05 0)
(0.00104073 1.06345e-05 0)
(0.00104184 9.67564e-06 0)
(0.00104297 8.662e-06 0)
(0.00104404 7.53968e-06 0)
(0.00104515 6.36823e-06 0)
(0.00104617 5.06495e-06 0)
(0.00104726 3.7241e-06 0)
(0.00104824 2.21823e-06 0)
(0.00104931 6.95926e-07 0)
(0.00105023 -1.04015e-06 0)
(0.0010513 -2.75743e-06 0)
(0.00105216 -4.76419e-06 0)
(0.00105328 -6.6949e-06 0)
(0.00105406 -9.02865e-06 0)
(0.00105527 -1.11871e-05 0)
(0.00105593 -1.3916e-05 0)
(0.00105724 -1.6306e-05 0)
(0.00105768 -1.95243e-05 0)
(0.00105902 -2.21361e-05 0)
(0.001 4.65334e-07 0)
(0.00100008 1.39354e-06 0)
(0.00100024 2.31398e-06 0)
(0.00100047 3.22127e-06 0)
(0.00100078 4.11018e-06 0)
(0.00100116 4.97579e-06 0)
(0.00100162 5.81375e-06 0)
(0.00100214 6.62033e-06 0)
(0.00100273 7.39242e-06 0)
(0.00100337 8.12752e-06 0)
(0.00100407 8.82358e-06 0)
(0.00100481 9.47898e-06 0)
(0.00100561 1.00925e-05 0)
(0.00100644 1.06632e-05 0)
(0.00100731 1.11905e-05 0)
(0.00100822 1.1674e-05 0)
(0.00100916 1.21133e-05 0)
(0.00101013 1.25084e-05 0)
(0.00101112 1.28591e-05 0)
(0.00101213 1.31654e-05 0)
(0.00101317 1.34271e-05 0)
(0.00101422 1.36444e-05 0)
(0.00101528 1.3817e-05 0)
(0.00101636 1.3945e-05 0)
(0.00101744 1.40279e-05 0)
(0.00101854 1.40657e-05 0)
(0.00101963 1.40577e-05 0)
(0.00102074 1.40039e-05 0)
(0.00102184 1.39031e-05 0)
(0.00102294 1.37553e-05 0)
(0.00102404 1.35588e-05 0)
(0.00102513 1.33139e-05 0)
(0.00102622 1.30178e-05 0)
(0.0010273 1.26713e-05 0)
(0.00102837 1.22707e-05 0)
(0.00102942 1.18172e-05 0)
(0.00103046 1.13055e-05 0)
(0.00103149 1.07381e-05 0)
(0.0010325 1.01075e-05 0)
(0.00103349 9.41786e-06 0)
(0.00103445 8.65835e-06 0)
(0.00103541 7.83646e-06 0)
(0.00103632 6.93609e-06 0)
(0.00103723 5.96977e-06 0)
(0.00103808 4.91367e-06 0)
(0.00103894 3.78823e-06 0)
(0.00103973 2.5578e-06 0)
(0.00104054 1.25535e-06 0)
(0.00104125 -1.72518e-07 0)
(0.00104202 -1.67175e-06 0)
(0.00104266 -3.32289e-06 0)
(0.00104338 -5.04022e-06 0)
(0.00104393 -6.94838e-06 0)
(0.00104463 -8.91281e-06 0)
(0.00104507 -1.11261e-05 0)
(0.00104576 -1.33729e-05 0)
(0.00104606 -1.59507e-05 0)
(0.00104675 -1.85142e-05 0)
(0.0010468 -2.15272e-05 0)
(0.00104741 -2.4433e-05 0)
(0.001 3.67959e-07 0)
(0.00100007 1.10219e-06 0)
(0.0010002 1.83098e-06 0)
(0.0010004 2.55053e-06 0)
(0.00100066 3.25707e-06 0)
(0.00100098 3.947e-06 0)
(0.00100137 4.61702e-06 0)
(0.00100182 5.26413e-06 0)
(0.00100232 5.88573e-06 0)
(0.00100287 6.47956e-06 0)
(0.00100347 7.04369e-06 0)
(0.00100412 7.57651e-06 0)
(0.00100481 8.07668e-06 0)
(0.00100554 8.54314e-06 0)
(0.00100631 8.97501e-06 0)
(0.0010071 9.37163e-06 0)
(0.00100793 9.73243e-06 0)
(0.00100879 1.0057e-05 0)
(0.00100967 1.03449e-05 0)
(0.00101057 1.05958e-05 0)
(0.00101149 1.08095e-05 0)
(0.00101243 1.09857e-05 0)
(0.00101338 1.1124e-05 0)
(0.00101434 1.12241e-05 0)
(0.00101531 1.12856e-05 0)
(0.00101629 1.13081e-05 0)
(0.00101727 1.1291e-05 0)
(0.00101825 1.12338e-05 0)
(0.00101923 1.11359e-05 0)
(0.00102021 1.09963e-05 0)
(0.00102118 1.08143e-05 0)
(0.00102215 1.05888e-05 0)
(0.0010231 1.03187e-05 0)
(0.00102404 1.00026e-05 0)
(0.00102497 9.6393e-06 0)
(0.00102589 9.22692e-06 0)
(0.00102678 8.764e-06 0)
(0.00102765 8.24815e-06 0)
(0.0010285 7.67779e-06 0)
(0.00102932 7.04964e-06 0)
(0.00103011 6.36221e-06 0)
(0.00103088 5.61095e-06 0)
(0.00103161 4.79478e-06 0)
(0.00103231 3.90717e-06 0)
(0.00103296 2.94811e-06 0)
(0.00103359 1.908e-06 0)
(0.00103415 7.89067e-07 0)
(0.00103469 -4.23094e-07 0)
(0.00103515 -1.72177e-06 0)
(0.00103562 -3.12991e-06 0)
(0.00103597 -4.63443e-06 0)
(0.00103634 -6.27136e-06 0)
(0.00103656 -8.01412e-06 0)
(0.00103684 -9.91878e-06 0)
(0.00103691 -1.19369e-05 0)
(0.0010371 -1.4157e-05 0)
(0.00103698 -1.64944e-05 0)
(0.00103707 -1.90878e-05 0)
(0.00103668 -2.17922e-05 0)
(0.00103657 -2.48216e-05 0)
(0.001 2.84839e-07 0)
(0.00100006 8.53363e-07 0)
(0.00100017 1.41804e-06 0)
(0.00100034 1.97614e-06 0)
(0.00100057 2.52493e-06 0)
(0.00100085 3.06178e-06 0)
(0.00100119 3.5842e-06 0)
(0.00100158 4.08992e-06 0)
(0.00100202 4.57685e-06 0)
(0.0010025 5.04317e-06 0)
(0.00100303 5.48724e-06 0)
(0.0010036 5.90764e-06 0)
(0.00100422 6.30316e-06 0)
(0.00100486 6.67274e-06 0)
(0.00100554 7.01549e-06 0)
(0.00100626 7.33064e-06 0)
(0.001007 7.61753e-06 0)
(0.00100777 7.87559e-06 0)
(0.00100855 8.10432e-06 0)
(0.00100936 8.30324e-06 0)
(0.00101019 8.47195e-06 0)
(0.00101104 8.60998e-06 0)
(0.00101189 8.71697e-06 0)
(0.00101276 8.7924e-06 0)
(0.00101363 8.83592e-06 0)
(0.00101451 8.84685e-06 0)
(0.00101539 8.82484e-06 0)
(0.00101626 8.76899e-06 0)
(0.00101714 8.67895e-06 0)
(0.00101801 8.55348e-06 0)
(0.00101888 8.39229e-06 0)
(0.00101973 8.19365e-06 0)
(0.00102057 7.9574e-06 0)
(0.0010214 7.6811e-06 0)
(0.0010222 7.36496e-06 0)
(0.00102299 7.00544e-06 0)
(0.00102375 6.60342e-06 0)
(0.00102448 6.15374e-06 0)
(0.00102519 5.65855e-06 0)
(0.00102586 5.11013e-06 0)
(0.0010265 4.51287e-06 0)
(0.0010271 3.85508e-06 0)
(0.00102765 3.14498e-06 0)
(0.00102817 2.36466e-06 0)
(0.00102862 1.52874e-06 0)
(0.00102904 6.0955e-07 0)
(0.00102938 -3.67525e-07 0)
(0.00102969 -1.44549e-06 0)
(0.00102991 -2.58157e-06 0)
(0.00103009 -3.84457e-06 0)
(0.00103016 -5.16301e-06 0)
(0.0010302 -6.64551e-06 0)
(0.0010301 -8.17298e-06 0)
(0.00102999 -9.91785e-06 0)
(0.00102969 -1.16839e-05 0)
(0.0010294 -1.37463e-05 0)
(0.00102887 -1.57834e-05 0)
(0.00102839 -1.82344e-05 0)
(0.00102753 -2.05726e-05 0)
(0.00102676 -2.3497e-05 0)
(0.001 2.11935e-07 0)
(0.00100005 6.35048e-07 0)
(0.00100015 1.0555e-06 0)
(0.00100031 1.47135e-06 0)
(0.00100051 1.88067e-06 0)
(0.00100076 2.28156e-06 0)
(0.00100106 2.67223e-06 0)
(0.00100141 3.051e-06 0)
(0.0010018 3.41631e-06 0)
(0.00100224 3.76674e-06 0)
(0.00100271 4.10104e-06 0)
(0.00100323 4.41804e-06 0)
(0.00100378 4.71673e-06 0)
(0.00100436 4.9962e-06 0)
(0.00100498 5.25566e-06 0)
(0.00100563 5.49438e-06 0)
(0.0010063 5.71176e-06 0)
(0.001007 5.90721e-06 0)
(0.00100771 6.08024e-06 0)
(0.00100845 6.23033e-06 0)
(0.00100921 6.35711e-06 0)
(0.00100997 6.46005e-06 0)
(0.00101075 6.53882e-06 0)
(0.00101154 6.59284e-06 0)
(0.00101233 6.62183e-06 0)
(0.00101313 6.62505e-06 0)
(0.00101393 6.6023e-06 0)
(0.00101472 6.55257e-06 0)
(0.00101552 6.47574e-06 0)
(0.0010163 6.37046e-06 0)
(0.00101707 6.23677e-06 0)
(0.00101783 6.07273e-06 0)
(0.00101858 5.87874e-06 0)
(0.0010193 5.65199e-06 0)
(0.00102001 5.39349e-06 0)
(0.00102069 5.09911e-06 0)
(0.00102134 4.77095e-06 0)
(0.00102196 4.40283e-06 0)
(0.00102254 3.99876e-06 0)
(0.00102309 3.54931e-06 0)
(0.00102359 3.06174e-06 0)
(0.00102405 2.52158e-06 0)
(0.00102445 1.94142e-06 0)
(0.00102481 1.29882e-06 0)
(0.0010251 6.15227e-07 0)
(0.00102533 -1.44534e-07 0)
(0.00102549 -9.44494e-07 0)
(0.00102558 -1.84015e-06 0)
(0.00102559 -2.77251e-06 0)
(0.00102552 -3.82938e-06 0)
(0.00102534 -4.91299e-06 0)
(0.00102509 -6.16297e-06 0)
(0.0010247 -7.41857e-06 0)
(0.00102423 -8.90312e-06 0)
(0.0010236 -1.03534e-05 0)
(0.00102289 -1.21277e-05 0)
(0.00102196 -1.37954e-05 0)
(0.00102097 -1.59328e-05 0)
(0.00101968 -1.78343e-05 0)
(0.00101832 -2.04268e-05 0)
(0.001 1.46247e-07 0)
(0.00100005 4.38299e-07 0)
(0.00100014 7.28639e-07 0)
(0.00100028 1.01597e-06 0)
(0.00100047 1.29899e-06 0)
(0.0010007 1.57643e-06 0)
(0.00100097 1.84707e-06 0)
(0.00100129 2.10975e-06 0)
(0.00100165 2.3634e-06 0)
(0.00100205 2.60701e-06 0)
(0.00100249 2.83968e-06 0)
(0.00100296 3.06056e-06 0)
(0.00100347 3.26891e-06 0)
(0.00100401 3.46403e-06 0)
(0.00100458 3.6453e-06 0)
(0.00100518 3.81216e-06 0)
(0.0010058 3.96412e-06 0)
(0.00100644 4.10069e-06 0)
(0.00100711 4.22148e-06 0)
(0.00100779 4.32604e-06 0)
(0.00100849 4.41407e-06 0)
(0.0010092 4.4851e-06 0)
(0.00100992 4.53888e-06 0)
(0.00101065 4.57489e-06 0)
(0.00101139 4.59294e-06 0)
(0.00101212 4.59238e-06 0)
(0.00101286 4.57308e-06 0)
(0.00101359 4.53418e-06 0)
(0.00101432 4.47566e-06 0)
(0.00101503 4.39633e-06 0)
(0.00101574 4.29637e-06 0)
(0.00101643 4.17408e-06 0)
(0.0010171 4.03e-06 0)
(0.00101775 3.86163e-06 0)
(0.00101837 3.67015e-06 0)
(0.00101897 3.45184e-06 0)
(0.00101953 3.20898e-06 0)
(0.00102006 2.93595e-06 0)
(0.00102055 2.63688e-06 0)
(0.001021 2.30317e-06 0)
(0.0010214 1.94205e-06 0)
(0.00102174 1.54025e-06 0)
(0.00102203 1.11009e-06 0)
(0.00102226 6.30911e-07 0)
(0.00102241 1.23394e-07 0)
(0.0010225 -4.44864e-07 0)
(0.00102251 -1.03951e-06 0)
(0.00102243 -1.71242e-06 0)
(0.00102226 -2.40671e-06 0)
(0.00102199 -3.20459e-06 0)
(0.0010216 -4.01228e-06 0)
(0.00102111 -4.96115e-06 0)
(0.00102048 -5.89738e-06 0)
(0.00101973 -7.03187e-06 0)
(0.00101881 -8.11268e-06 0)
(0.00101776 -9.47967e-06 0)
(0.0010165 -1.07199e-05 0)
(0.0010151 -1.23829e-05 0)
(0.00101342 -1.379e-05 0)
(0.00101158 -1.58308e-05 0)
(0.001 8.53798e-08 0)
(0.00100005 2.5597e-07 0)
(0.00100013 4.2566e-07 0)
(0.00100026 5.93703e-07 0)
(0.00100044 7.5935e-07 0)
(0.00100066 9.21864e-07 0)
(0.00100091 1.08054e-06 0)
(0.00100121 1.23469e-06 0)
(0.00100155 1.38369e-06 0)
(0.00100193 1.52694e-06 0)
(0.00100234 1.66389e-06 0)
(0.00100279 1.79404e-06 0)
(0.00100327 1.91692e-06 0)
(0.00100378 2.0321e-06 0)
(0.00100432 2.13919e-06 0)
(0.00100489 2.23784e-06 0)
(0.00100548 2.32772e-06 0)
(0.00100609 2.40851e-06 0)
(0.00100672 2.47998e-06 0)
(0.00100737 2.5418e-06 0)
(0.00100803 2.59379e-06 0)
(0.0010087 2.63563e-06 0)
(0.00100939 2.66715e-06 0)
(0.00101008 2.68801e-06 0)
(0.00101077 2.69808e-06 0)
(0.00101146 2.69692e-06 0)
(0.00101216 2.68447e-06 0)
(0.00101285 2.66014e-06 0)
(0.00101353 2.62394e-06 0)
(0.0010142 2.57507e-06 0)
(0.00101486 2.51369e-06 0)
(0.0010155 2.43864e-06 0)
(0.00101612 2.35036e-06 0)
(0.00101672 2.24713e-06 0)
(0.00101729 2.12985e-06 0)
(0.00101783 1.99597e-06 0)
(0.00101833 1.84716e-06 0)
(0.0010188 1.67957e-06 0)
(0.00101922 1.49617e-06 0)
(0.0010196 1.29105e-06 0)
(0.00101992 1.06939e-06 0)
(0.00102019 8.21993e-07 0)
(0.0010204 5.5766e-07 0)
(0.00102053 2.62024e-07 0)
(0.0010206 -5.01712e-08 0)
(0.00102058 -4.01585e-07 0)
(0.00102048 -7.67845e-07 0)
(0.00102029 -1.18518e-06 0)
(0.00101999 -1.6133e-06 0)
(0.00101958 -2.10979e-06 0)
(0.00101905 -2.6083e-06 0)
(0.00101839 -3.20102e-06 0)
(0.00101759 -3.77913e-06 0)
(0.00101664 -4.49104e-06 0)
(0.00101552 -5.15833e-06 0)
(0.00101422 -6.02084e-06 0)
(0.00101272 -6.78562e-06 0)
(0.00101102 -7.84173e-06 0)
(0.00100906 -8.70661e-06 0)
(0.00100687 -1.00128e-05 0)
(0.001 2.72953e-08 0)
(0.00100004 8.19628e-08 0)
(0.00100013 1.36469e-07 0)
(0.00100026 1.9057e-07 0)
(0.00100042 2.44021e-07 0)
(0.00100064 2.96581e-07 0)
(0.00100089 3.48016e-07 0)
(0.00100118 3.98102e-07 0)
(0.00100151 4.46629e-07 0)
(0.00100187 4.93397e-07 0)
(0.00100227 5.38222e-07 0)
(0.00100271 5.80928e-07 0)
(0.00100317 6.2136e-07 0)
(0.00100367 6.59364e-07 0)
(0.00100419 6.94809e-07 0)
(0.00100474 7.27563e-07 0)
(0.00100532 7.57518e-07 0)
(0.00100591 7.84556e-07 0)
(0.00100652 8.08586e-07 0)
(0.00100715 8.29498e-07 0)
(0.0010078 8.47215e-07 0)
(0.00100845 8.61624e-07 0)
(0.00100912 8.72662e-07 0)
(0.00100979 8.802e-07 0)
(0.00101046 8.84192e-07 0)
(0.00101114 8.84476e-07 0)
(0.00101181 8.81025e-07 0)
(0.00101248 8.73628e-07 0)
(0.00101314 8.62291e-07 0)
(0.00101378 8.46719e-07 0)
(0.00101442 8.26976e-07 0)
(0.00101503 8.02644e-07 0)
(0.00101563 7.73881e-07 0)
(0.0010162 7.40073e-07 0)
(0.00101674 7.01548e-07 0)
(0.00101725 6.57393e-07 0)
(0.00101773 6.08222e-07 0)
(0.00101816 5.52649e-07 0)
(0.00101855 4.91766e-07 0)
(0.00101889 4.23451e-07 0)
(0.00101918 3.49591e-07 0)
(0.00101941 2.66897e-07 0)
(0.00101957 1.78574e-07 0)
(0.00101967 7.94542e-08 0)
(0.00101968 -2.50827e-08 0)
(0.00101962 -1.43288e-07 0)
(0.00101946 -2.66353e-07 0)
(0.0010192 -4.07197e-07 0)
(0.00101884 -5.51327e-07 0)
(0.00101836 -7.19382e-07 0)
(0.00101775 -8.87495e-07 0)
(0.00101701 -1.08872e-06 0)
(0.00101611 -1.28391e-06 0)
(0.00101506 -1.52634e-06 0)
(0.00101383 -1.75181e-06 0)
(0.00101241 -2.0465e-06 0)
(0.00101078 -2.30493e-06 0)
(0.00100892 -2.66709e-06 -3.68172e-38)
(0.00100682 -2.95903e-06 0)
(0.00100445 -3.40881e-06 0)
(0.001 -2.9874e-08 0)
(0.00100004 -8.93078e-08 0)
(0.00100013 -1.48187e-07 0)
(0.00100026 -2.06266e-07 0)
(0.00100042 -2.633e-07 0)
(0.00100064 -3.19049e-07 0)
(0.00100089 -3.7328e-07 0)
(0.00100118 -4.25773e-07 0)
(0.00100151 -4.76322e-07 0)
(0.00100187 -5.24735e-07 0)
(0.00100227 -5.70833e-07 0)
(0.00100271 -6.14452e-07 0)
(0.00100317 -6.55444e-07 0)
(0.00100367 -6.93668e-07 0)
(0.00100419 -7.29005e-07 0)
(0.00100474 -7.61337e-07 0)
(0.00100532 -7.90568e-07 0)
(0.00100591 -8.16595e-07 0)
(0.00100652 -8.39344e-07 0)
(0.00100715 -8.58718e-07 0)
(0.0010078 -8.74661e-07 0)
(0.00100845 -8.87074e-07 0)
(0.00100912 -8.95913e-07 0)
(0.00100979 -9.01066e-07 0)
(0.00101046 -9.02503e-07 0)
(0.00101114 -9.00083e-07 0)
(0.00101181 -8.93796e-07 0)
(0.00101247 -8.83449e-07 0)
(0.00101313 -8.69064e-07 0)
(0.00101378 -8.50366e-07 0)
(0.00101442 -8.27435e-07 0)
(0.00101503 -7.99867e-07 0)
(0.00101563 -7.67841e-07 0)
(0.0010162 -7.30762e-07 0)
(0.00101674 -6.88972e-07 0)
(0.00101725 -6.41576e-07 0)
(0.00101773 -5.89197e-07 0)
(0.00101816 -5.30472e-07 0)
(0.00101855 -4.665e-07 0)
(0.00101889 -3.9518e-07 0)
(0.00101918 -3.18404e-07 0)
(0.00101941 -2.32905e-07 0)
(0.00101957 -1.4189e-07 0)
(0.00101966 -4.02053e-08 0)
(0.00101968 6.67706e-08 0)
(0.00101961 1.8731e-07 0)
(0.00101946 3.12626e-07 0)
(0.0010192 4.55552e-07 0)
(0.00101884 6.01617e-07 0)
(0.00101836 7.71379e-07 0)
(0.00101775 9.41041e-07 0)
(0.00101701 1.14358e-06 0)
(0.00101611 1.33994e-06 0)
(0.00101506 1.5833e-06 0)
(0.00101383 1.80954e-06 0)
(0.00101241 2.10475e-06 0)
(0.00101078 2.36351e-06 0)
(0.00100892 2.7258e-06 3.68172e-38)
(0.00100682 3.0176e-06 0)
(0.00100445 3.46714e-06 0)
(0.001 -8.79339e-08 0)
(0.00100005 -2.63245e-07 0)
(0.00100013 -4.37264e-07 0)
(0.00100026 -6.09242e-07 0)
(0.00100044 -7.78432e-07 0)
(0.00100065 -9.44097e-07 0)
(0.00100091 -1.10553e-06 0)
(0.00100121 -1.26206e-06 0)
(0.00100155 -1.41305e-06 0)
(0.00100193 -1.55792e-06 0)
(0.00100234 -1.69612e-06 0)
(0.00100279 -1.82717e-06 0)
(0.00100327 -1.95059e-06 0)
(0.00100378 -2.06597e-06 0)
(0.00100432 -2.17295e-06 0)
(0.00100488 -2.27117e-06 0)
(0.00100547 -2.36032e-06 0)
(0.00100608 -2.44011e-06 0)
(0.00100671 -2.51029e-06 0)
(0.00100736 -2.57059e-06 0)
(0.00100802 -2.62081e-06 0)
(0.0010087 -2.66066e-06 0)
(0.00100938 -2.68999e-06 0)
(0.00101007 -2.70848e-06 0)
(0.00101076 -2.71602e-06 0)
(0.00101146 -2.71217e-06 0)
(0.00101215 -2.6969e-06 0)
(0.00101284 -2.66964e-06 0)
(0.00101352 -2.63042e-06 0)
(0.00101419 -2.57845e-06 0)
(0.00101485 -2.51391e-06 0)
(0.00101549 -2.43566e-06 0)
(0.00101611 -2.34415e-06 0)
(0.00101671 -2.23768e-06 0)
(0.00101728 -2.11717e-06 0)
(0.00101782 -1.98007e-06 0)
(0.00101833 -1.82808e-06 0)
(0.00101879 -1.65735e-06 0)
(0.00101922 -1.47088e-06 0)
(0.00101959 -1.26277e-06 0)
(0.00101992 -1.03818e-06 0)
(0.00102018 -7.87969e-07 0)
(0.00102039 -5.20906e-07 0)
(0.00102053 -2.22688e-07 0)
(0.00102059 9.20169e-08 0)
(0.00102058 4.45694e-07 0)
(0.00102048 8.14077e-07 0)
(0.00102028 1.23337e-06 0)
(0.00101998 1.66335e-06 0)
(0.00101958 2.1615e-06 0)
(0.00101904 2.66155e-06 0)
(0.00101839 3.25557e-06 0)
(0.00101758 3.83485e-06 0)
(0.00101663 4.54767e-06 0)
(0.00101551 5.21575e-06 0)
(0.00101422 6.07878e-06 0)
(0.00101271 6.84394e-06 0)
(0.00101101 7.90019e-06 0)
(0.00100906 8.76501e-06 0)
(0.00100687 1.00711e-05 0)
(0.001 -1.48741e-07 0)
(0.00100005 -4.45403e-07 0)
(0.00100014 -7.39969e-07 0)
(0.00100028 -1.03114e-06 0)
(0.00100047 -1.31762e-06 0)
(0.0010007 -1.59813e-06 0)
(0.00100097 -1.87146e-06 0)
(0.00100129 -2.13646e-06 0)
(0.00100165 -2.39204e-06 0)
(0.00100205 -2.63723e-06 0)
(0.00100249 -2.87111e-06 0)
(0.00100296 -3.09286e-06 0)
(0.00100347 -3.30173e-06 0)
(0.00100401 -3.49703e-06 0)
(0.00100457 -3.67818e-06 0)
(0.00100517 -3.84461e-06 0)
(0.00100579 -3.99584e-06 0)
(0.00100644 -4.13141e-06 0)
(0.0010071 -4.25094e-06 0)
(0.00100779 -4.35399e-06 0)
(0.00100849 -4.44027e-06 0)
(0.0010092 -4.50935e-06 0)
(0.00100992 -4.56097e-06 0)
(0.00101065 -4.59465e-06 0)
(0.00101138 -4.61021e-06 0)
(0.00101212 -4.607e-06 0)
(0.00101285 -4.58493e-06 0)
(0.00101358 -4.54315e-06 0)
(0.00101431 -4.48166e-06 0)
(0.00101503 -4.39928e-06 0)
(0.00101573 -4.29622e-06 0)
(0.00101642 -4.17079e-06 0)
(0.00101709 -4.02353e-06 0)
(0.00101774 -3.85198e-06 0)
(0.00101836 -3.65731e-06 0)
(0.00101896 -3.43585e-06 0)
(0.00101952 -3.18986e-06 0)
(0.00102005 -2.91375e-06 0)
(0.00102054 -2.61165e-06 0)
(0.00102099 -2.275e-06 0)
(0.00102139 -1.91101e-06 0)
(0.00102173 -1.50645e-06 0)
(0.00102202 -1.0736e-06 0)
(0.00102225 -5.91872e-07 0)
(0.0010224 -8.19e-08 0)
(0.00102249 4.88627e-07 0)
(0.0010225 1.08541e-06 0)
(0.00102242 1.76023e-06 0)
(0.00102225 2.45638e-06 0)
(0.00102198 3.2559e-06 0)
(0.0010216 4.06521e-06 0)
(0.0010211 5.01539e-06 0)
(0.00102047 5.95288e-06 0)
(0.00101973 7.08829e-06 0)
(0.00101881 8.17001e-06 0)