/*--------------------------------*- C++ -*----------------------------------*\
| =========                 |                                                 |
| \\      /  F ield         | OpenFOAM: The Open Source CFD Toolbox           |
|  \\    /   O peration     | Version:  2312                                  |
|   \\  /    A nd           | Website:  www.openfoam.com                      |
|    \\/     M anipulation  |                                                 |
\*---------------------------------------------------------------------------*/
FoamFile
{
    version     2.0;
    format      ascii;
    arch        "LSB;label=32;scalar=64";
    class       volScalarField;
    location    "126000";
    object      p;
}
// * * * * * * * * * * * * * * * * * * * * * * * * * * * * * * * * * * * * * //

dimensions      [0 2 -2 0 0 0 0];

internalField   nonuniform List<scalar> 
10800
(
5.36144e-07
5.22022e-07
5.08257e-07
4.97683e-07
4.90265e-07
4.84879e-07
4.80434e-07
4.76362e-07
4.72495e-07
4.6884e-07
4.65434e-07
4.62281e-07
4.59348e-07
4.56584e-07
4.53943e-07
4.51392e-07
4.4891e-07
4.46483e-07
4.441e-07
4.41753e-07
4.39434e-07
4.37134e-07
4.34847e-07
4.32568e-07
4.30291e-07
4.28015e-07
4.25734e-07
4.23448e-07
4.21154e-07
4.1885e-07
4.16535e-07
4.14209e-07
4.11871e-07
4.0952e-07
4.07157e-07
4.04781e-07
4.02394e-07
3.99994e-07
3.97584e-07
3.95163e-07
3.92731e-07
3.9029e-07
3.87839e-07
3.85379e-07
3.82909e-07
3.80429e-07
3.7794e-07
3.75436e-07
3.72924e-07
3.70386e-07
3.67845e-07
3.65249e-07
3.6268e-07
3.59966e-07
3.57408e-07
3.5437e-07
3.52106e-07
3.47802e-07
3.47598e-07
3.37098e-07
4.88094e-07
4.86367e-07
4.83724e-07
4.80601e-07
4.77389e-07
4.74299e-07
4.71382e-07
4.68602e-07
4.65908e-07
4.6327e-07
4.60682e-07
4.5815e-07
4.5568e-07
4.53271e-07
4.50918e-07
4.48612e-07
4.46343e-07
4.44103e-07
4.41886e-07
4.39688e-07
4.37505e-07
4.35332e-07
4.33165e-07
4.31002e-07
4.28839e-07
4.26674e-07
4.24505e-07
4.22329e-07
4.20146e-07
4.17954e-07
4.15752e-07
4.13539e-07
4.11315e-07
4.09079e-07
4.06833e-07
4.04573e-07
4.02304e-07
4.00021e-07
3.9773e-07
3.95424e-07
3.93113e-07
3.90785e-07
3.88456e-07
3.86104e-07
3.8376e-07
3.81383e-07
3.79027e-07
3.76621e-07
3.74262e-07
3.71825e-07
3.69484e-07
3.67016e-07
3.64747e-07
3.62269e-07
3.60206e-07
3.57787e-07
3.56267e-07
3.53985e-07
3.53616e-07
3.51056e-07
4.79335e-07
4.78586e-07
4.77174e-07
4.75225e-07
4.72944e-07
4.70528e-07
4.68104e-07
4.6572e-07
4.63381e-07
4.61075e-07
4.5879e-07
4.56528e-07
4.54294e-07
4.52092e-07
4.49924e-07
4.47789e-07
4.45682e-07
4.43599e-07
4.41534e-07
4.39485e-07
4.37447e-07
4.35418e-07
4.33395e-07
4.31377e-07
4.2936e-07
4.27342e-07
4.25323e-07
4.23299e-07
4.21271e-07
4.19236e-07
4.17195e-07
4.15146e-07
4.13089e-07
4.11023e-07
4.08949e-07
4.06864e-07
4.04773e-07
4.0267e-07
4.0056e-07
3.98438e-07
3.96312e-07
3.94171e-07
3.92029e-07
3.89868e-07
3.87713e-07
3.85533e-07
3.83367e-07
3.81168e-07
3.78998e-07
3.76784e-07
3.74622e-07
3.72398e-07
3.70268e-07
3.68045e-07
3.65983e-07
3.63776e-07
3.61835e-07
3.59652e-07
3.57872e-07
3.55615e-07
4.67581e-07
4.67149e-07
4.66364e-07
4.65276e-07
4.63955e-07
4.6247e-07
4.60881e-07
4.59225e-07
4.57525e-07
4.5579e-07
4.54027e-07
4.52242e-07
4.50441e-07
4.4863e-07
4.46814e-07
4.44996e-07
4.43178e-07
4.41359e-07
4.3954e-07
4.3772e-07
4.35899e-07
4.34076e-07
4.3225e-07
4.30421e-07
4.28589e-07
4.26752e-07
4.2491e-07
4.23063e-07
4.21211e-07
4.19352e-07
4.17487e-07
4.15616e-07
4.13738e-07
4.11853e-07
4.09963e-07
4.08065e-07
4.06161e-07
4.0425e-07
4.02334e-07
4.0041e-07
3.98481e-07
3.96543e-07
3.94602e-07
3.92649e-07
3.90693e-07
3.88723e-07
3.8675e-07
3.84758e-07
3.82763e-07
3.80742e-07
3.78719e-07
3.76661e-07
3.74602e-07
3.72498e-07
3.704e-07
3.68241e-07
3.66095e-07
3.63871e-07
3.61674e-07
3.59401e-07
4.60851e-07
4.60638e-07
4.60208e-07
4.59564e-07
4.58724e-07
4.57714e-07
4.56568e-07
4.55316e-07
4.53983e-07
4.52586e-07
4.51138e-07
4.49646e-07
4.4812e-07
4.46564e-07
4.44985e-07
4.43388e-07
4.41777e-07
4.40154e-07
4.3852e-07
4.36879e-07
4.3523e-07
4.33574e-07
4.31912e-07
4.30244e-07
4.28572e-07
4.26894e-07
4.25212e-07
4.23525e-07
4.21834e-07
4.20139e-07
4.1844e-07
4.16737e-07
4.15032e-07
4.13323e-07
4.11611e-07
4.09897e-07
4.08181e-07
4.06463e-07
4.04742e-07
4.0302e-07
4.01295e-07
3.99569e-07
3.9784e-07
3.96108e-07
3.94373e-07
3.92634e-07
3.90889e-07
3.89138e-07
3.87379e-07
3.85608e-07
3.83821e-07
3.82011e-07
3.8017e-07
3.78286e-07
3.76342e-07
3.74327e-07
3.72224e-07
3.70045e-07
3.67794e-07
3.65563e-07
4.55298e-07
4.55137e-07
4.54813e-07
4.54331e-07
4.53701e-07
4.52938e-07
4.52062e-07
4.51089e-07
4.50036e-07
4.48915e-07
4.47736e-07
4.46507e-07
4.45234e-07
4.43924e-07
4.42581e-07
4.4121e-07
4.39816e-07
4.38401e-07
4.36968e-07
4.3552e-07
4.34059e-07
4.32586e-07
4.31103e-07
4.29611e-07
4.28111e-07
4.26604e-07
4.25091e-07
4.23573e-07
4.22051e-07
4.20525e-07
4.18997e-07
4.17466e-07
4.15934e-07
4.14402e-07
4.12869e-07
4.11337e-07
4.09805e-07
4.08275e-07
4.06746e-07
4.05219e-07
4.03693e-07
4.0217e-07
4.00647e-07
3.99125e-07
3.97602e-07
3.96077e-07
3.94546e-07
3.93009e-07
3.9146e-07
3.899e-07
3.8832e-07
3.86725e-07
3.85104e-07
3.83463e-07
3.81783e-07
3.80065e-07
3.78278e-07
3.76443e-07
3.74551e-07
3.72725e-07
4.50913e-07
4.50795e-07
4.50559e-07
4.50205e-07
4.49737e-07
4.49162e-07
4.4849e-07
4.4773e-07
4.46893e-07
4.45988e-07
4.45022e-07
4.44002e-07
4.42935e-07
4.41825e-07
4.40677e-07
4.39496e-07
4.38286e-07
4.37049e-07
4.3579e-07
4.34512e-07
4.33216e-07
4.31905e-07
4.30581e-07
4.29246e-07
4.27902e-07
4.26549e-07
4.25191e-07
4.23828e-07
4.22461e-07
4.21092e-07
4.19722e-07
4.18352e-07
4.16983e-07
4.15616e-07
4.14252e-07
4.12893e-07
4.11539e-07
4.1019e-07
4.08848e-07
4.07514e-07
4.06187e-07
4.04867e-07
4.03556e-07
4.02253e-07
4.00958e-07
3.99671e-07
3.9839e-07
3.97116e-07
3.95844e-07
3.94573e-07
3.93295e-07
3.92005e-07
3.90691e-07
3.89356e-07
3.87986e-07
3.86594e-07
3.85163e-07
3.83715e-07
3.82249e-07
3.80874e-07
4.47418e-07
4.47326e-07
4.47142e-07
4.46865e-07
4.46496e-07
4.4604e-07
4.45501e-07
4.44885e-07
4.44199e-07
4.43449e-07
4.42641e-07
4.41779e-07
4.40869e-07
4.39916e-07
4.38925e-07
4.37898e-07
4.36841e-07
4.35756e-07
4.34647e-07
4.33517e-07
4.32367e-07
4.31202e-07
4.30023e-07
4.28831e-07
4.27631e-07
4.26422e-07
4.25208e-07
4.23989e-07
4.22769e-07
4.21547e-07
4.20327e-07
4.19108e-07
4.17894e-07
4.16686e-07
4.15484e-07
4.1429e-07
4.13106e-07
4.11933e-07
4.10772e-07
4.09624e-07
4.08489e-07
4.0737e-07
4.06266e-07
4.05179e-07
4.04107e-07
4.03051e-07
4.0201e-07
4.00985e-07
3.99973e-07
3.98978e-07
3.97994e-07
3.97024e-07
3.96056e-07
3.9509e-07
3.94113e-07
3.93135e-07
3.92147e-07
3.91175e-07
3.90225e-07
3.894e-07
4.44607e-07
4.44532e-07
4.44381e-07
4.44155e-07
4.43852e-07
4.43476e-07
4.43029e-07
4.42516e-07
4.41941e-07
4.41308e-07
4.40621e-07
4.39884e-07
4.39102e-07
4.38278e-07
4.37416e-07
4.36521e-07
4.35594e-07
4.34639e-07
4.3366e-07
4.3266e-07
4.3164e-07
4.30603e-07
4.29553e-07
4.28491e-07
4.2742e-07
4.26341e-07
4.25258e-07
4.24172e-07
4.23084e-07
4.21999e-07
4.20916e-07
4.19838e-07
4.18767e-07
4.17705e-07
4.16654e-07
4.15616e-07
4.14592e-07
4.13585e-07
4.12595e-07
4.11625e-07
4.10677e-07
4.09752e-07
4.08851e-07
4.07977e-07
4.0713e-07
4.06312e-07
4.05523e-07
4.04766e-07
4.04038e-07
4.03341e-07
4.0267e-07
4.02028e-07
4.01413e-07
4.0083e-07
4.00272e-07
3.99747e-07
3.99247e-07
3.98794e-07
3.98399e-07
3.98149e-07
4.42354e-07
4.4229e-07
4.42163e-07
4.41972e-07
4.41716e-07
4.41397e-07
4.41017e-07
4.4058e-07
4.40087e-07
4.39542e-07
4.38948e-07
4.38309e-07
4.37627e-07
4.36907e-07
4.3615e-07
4.35361e-07
4.34541e-07
4.33695e-07
4.32825e-07
4.31933e-07
4.31023e-07
4.30096e-07
4.29157e-07
4.28206e-07
4.27247e-07
4.26281e-07
4.25312e-07
4.24342e-07
4.23373e-07
4.22406e-07
4.21446e-07
4.20493e-07
4.19551e-07
4.18621e-07
4.17706e-07
4.16808e-07
4.1593e-07
4.15073e-07
4.14241e-07
4.13436e-07
4.12659e-07
4.11915e-07
4.11204e-07
4.10529e-07
4.09893e-07
4.09299e-07
4.08747e-07
4.08242e-07
4.07785e-07
4.07376e-07
4.07017e-07
4.06712e-07
4.06461e-07
4.06271e-07
4.06138e-07
4.06072e-07
4.06069e-07
4.06151e-07
4.0633e-07
4.06679e-07
4.40571e-07
4.40516e-07
4.40406e-07
4.4024e-07
4.40018e-07
4.3974e-07
4.39409e-07
4.39027e-07
4.38595e-07
4.38117e-07
4.37594e-07
4.37029e-07
4.36425e-07
4.35785e-07
4.35111e-07
4.34406e-07
4.33672e-07
4.32913e-07
4.32131e-07
4.31329e-07
4.30509e-07
4.29673e-07
4.28826e-07
4.27968e-07
4.27103e-07
4.26234e-07
4.25362e-07
4.2449e-07
4.23622e-07
4.22758e-07
4.21903e-07
4.21059e-07
4.20228e-07
4.19413e-07
4.18617e-07
4.17842e-07
4.17092e-07
4.1637e-07
4.15677e-07
4.15019e-07
4.14397e-07
4.13815e-07
4.13276e-07
4.12785e-07
4.12343e-07
4.11955e-07
4.11625e-07
4.11356e-07
4.1115e-07
4.11013e-07
4.10948e-07
4.10962e-07
4.11058e-07
4.11242e-07
4.11516e-07
4.11891e-07
4.1237e-07
4.1297e-07
4.13708e-07
4.14638e-07
4.39197e-07
4.39148e-07
4.3905e-07
4.38901e-07
4.38703e-07
4.38456e-07
4.3816e-07
4.37818e-07
4.37431e-07
4.37001e-07
4.36531e-07
4.36022e-07
4.35476e-07
4.34897e-07
4.34286e-07
4.33645e-07
4.32978e-07
4.32287e-07
4.31574e-07
4.30842e-07
4.30093e-07
4.2933e-07
4.28556e-07
4.27773e-07
4.26984e-07
4.26192e-07
4.25399e-07
4.24607e-07
4.23821e-07
4.23042e-07
4.22273e-07
4.21518e-07
4.20779e-07
4.20059e-07
4.19361e-07
4.18689e-07
4.18046e-07
4.17436e-07
4.16861e-07
4.16327e-07
4.15835e-07
4.15391e-07
4.14999e-07
4.14663e-07
4.14387e-07
4.14176e-07
4.14036e-07
4.1397e-07
4.13986e-07
4.14088e-07
4.14283e-07
4.1458e-07
4.14982e-07
4.155e-07
4.1614e-07
4.16912e-07
4.17826e-07
4.18897e-07
4.20144e-07
4.21607e-07
4.38185e-07
4.38141e-07
4.38051e-07
4.37915e-07
4.37733e-07
4.37506e-07
4.37235e-07
4.36921e-07
4.36565e-07
4.3617e-07
4.35736e-07
4.35267e-07
4.34763e-07
4.34227e-07
4.33662e-07
4.33068e-07
4.32449e-07
4.31808e-07
4.31145e-07
4.30465e-07
4.29769e-07
4.2906e-07
4.28341e-07
4.27614e-07
4.26881e-07
4.26147e-07
4.25413e-07
4.24682e-07
4.23958e-07
4.23243e-07
4.22539e-07
4.21852e-07
4.21183e-07
4.20535e-07
4.19913e-07
4.1932e-07
4.1876e-07
4.18236e-07
4.17752e-07
4.17314e-07
4.16924e-07
4.16588e-07
4.1631e-07
4.16096e-07
4.15951e-07
4.1588e-07
4.15891e-07
4.15989e-07
4.16182e-07
4.16477e-07
4.16882e-07
4.17406e-07
4.18057e-07
4.18847e-07
4.19785e-07
4.20883e-07
4.22154e-07
4.23615e-07
4.25284e-07
4.2719e-07
4.37507e-07
4.37465e-07
4.3738e-07
4.37252e-07
4.37081e-07
4.36867e-07
4.36611e-07
4.36314e-07
4.35978e-07
4.35604e-07
4.35194e-07
4.3475e-07
4.34273e-07
4.33765e-07
4.33228e-07
4.32665e-07
4.32077e-07
4.31468e-07
4.30838e-07
4.30192e-07
4.2953e-07
4.28856e-07
4.28173e-07
4.27482e-07
4.26787e-07
4.26091e-07
4.25396e-07
4.24705e-07
4.24021e-07
4.23348e-07
4.22689e-07
4.22046e-07
4.21423e-07
4.20824e-07
4.20252e-07
4.19712e-07
4.19206e-07
4.1874e-07
4.18318e-07
4.17943e-07
4.17622e-07
4.17359e-07
4.17159e-07
4.17028e-07
4.16973e-07
4.16999e-07
4.17113e-07
4.17322e-07
4.17636e-07
4.18063e-07
4.18614e-07
4.19296e-07
4.20121e-07
4.211e-07
4.22248e-07
4.23575e-07
4.25099e-07
4.26835e-07
4.28805e-07
4.31026e-07
4.37141e-07
4.371e-07
4.37018e-07
4.36894e-07
4.36728e-07
4.3652e-07
4.36271e-07
4.35982e-07
4.35656e-07
4.35292e-07
4.34893e-07
4.34461e-07
4.33996e-07
4.33501e-07
4.32978e-07
4.32429e-07
4.31856e-07
4.31262e-07
4.30648e-07
4.30017e-07
4.29371e-07
4.28714e-07
4.28047e-07
4.27374e-07
4.26696e-07
4.26018e-07
4.25341e-07
4.24669e-07
4.24004e-07
4.23351e-07
4.22711e-07
4.22089e-07
4.21488e-07
4.20912e-07
4.20364e-07
4.19848e-07
4.19368e-07
4.18929e-07
4.18535e-07
4.1819e-07
4.17901e-07
4.17671e-07
4.17508e-07
4.17417e-07
4.17404e-07
4.17476e-07
4.1764e-07
4.17905e-07
4.18279e-07
4.1877e-07
4.1939e-07
4.20149e-07
4.2106e-07
4.22133e-07
4.23383e-07
4.24824e-07
4.26475e-07
4.28349e-07
4.30469e-07
4.32848e-07
4.37081e-07
4.3704e-07
4.36957e-07
4.36833e-07
4.36666e-07
4.36457e-07
4.36208e-07
4.35919e-07
4.35592e-07
4.35227e-07
4.34828e-07
4.34394e-07
4.33928e-07
4.33432e-07
4.32908e-07
4.32358e-07
4.31783e-07
4.31187e-07
4.30571e-07
4.29938e-07
4.29291e-07
4.28631e-07
4.27962e-07
4.27287e-07
4.26607e-07
4.25926e-07
4.25246e-07
4.24571e-07
4.23903e-07
4.23246e-07
4.22604e-07
4.21978e-07
4.21373e-07
4.20793e-07
4.2024e-07
4.1972e-07
4.19236e-07
4.18792e-07
4.18393e-07
4.18044e-07
4.17748e-07
4.17513e-07
4.17343e-07
4.17244e-07
4.17224e-07
4.17288e-07
4.17445e-07
4.17702e-07
4.18067e-07
4.18551e-07
4.19162e-07
4.19912e-07
4.20812e-07
4.21874e-07
4.23113e-07
4.24543e-07
4.26181e-07
4.28042e-07
4.30149e-07
4.32515e-07
4.37325e-07
4.37282e-07
4.37197e-07
4.37068e-07
4.36896e-07
4.36681e-07
4.36423e-07
4.36125e-07
4.35787e-07
4.35411e-07
4.34998e-07
4.3455e-07
4.3407e-07
4.33559e-07
4.33018e-07
4.32451e-07
4.31858e-07
4.31244e-07
4.30609e-07
4.29957e-07
4.29289e-07
4.28609e-07
4.27919e-07
4.27221e-07
4.26519e-07
4.25815e-07
4.25111e-07
4.24412e-07
4.23719e-07
4.23036e-07
4.22366e-07
4.21712e-07
4.21078e-07
4.20467e-07
4.19883e-07
4.19329e-07
4.1881e-07
4.1833e-07
4.17892e-07
4.17502e-07
4.17165e-07
4.16884e-07
4.16666e-07
4.16514e-07
4.16437e-07
4.16441e-07
4.16533e-07
4.1672e-07
4.1701e-07
4.17412e-07
4.17935e-07
4.18589e-07
4.19384e-07
4.20331e-07
4.21445e-07
4.22737e-07
4.24224e-07
4.25922e-07
4.27851e-07
4.30031e-07
4.37884e-07
4.37839e-07
4.37748e-07
4.37611e-07
4.37428e-07
4.37199e-07
4.36925e-07
4.36608e-07
4.36248e-07
4.35849e-07
4.35411e-07
4.34937e-07
4.34428e-07
4.33886e-07
4.33314e-07
4.32713e-07
4.32087e-07
4.31437e-07
4.30766e-07
4.30076e-07
4.29371e-07
4.28651e-07
4.27921e-07
4.27182e-07
4.26437e-07
4.2569e-07
4.24942e-07
4.24197e-07
4.23457e-07
4.22725e-07
4.22005e-07
4.213e-07
4.20612e-07
4.19945e-07
4.19302e-07
4.18687e-07
4.18104e-07
4.17556e-07
4.17048e-07
4.16583e-07
4.16166e-07
4.15801e-07
4.15493e-07
4.15248e-07
4.15069e-07
4.14963e-07
4.14936e-07
4.14995e-07
4.15147e-07
4.154e-07
4.1576e-07
4.16237e-07
4.1684e-07
4.17577e-07
4.1846e-07
4.195e-07
4.20711e-07
4.22108e-07
4.23711e-07
4.25551e-07
4.38779e-07
4.3873e-07
4.3863e-07
4.3848e-07
4.3828e-07
4.38029e-07
4.3773e-07
4.37383e-07
4.36992e-07
4.36556e-07
4.3608e-07
4.35564e-07
4.35011e-07
4.34423e-07
4.33803e-07
4.33153e-07
4.32476e-07
4.31773e-07
4.31048e-07
4.30303e-07
4.29541e-07
4.28764e-07
4.27974e-07
4.27175e-07
4.26369e-07
4.25559e-07
4.24746e-07
4.23935e-07
4.23127e-07
4.22326e-07
4.21533e-07
4.20753e-07
4.19988e-07
4.19241e-07
4.18515e-07
4.17813e-07
4.17139e-07
4.16495e-07
4.15886e-07
4.15315e-07
4.14786e-07
4.14302e-07
4.13869e-07
4.13489e-07
4.13168e-07
4.12909e-07
4.12716e-07
4.12597e-07
4.12556e-07
4.126e-07
4.12735e-07
4.12967e-07
4.13302e-07
4.13748e-07
4.14313e-07
4.15006e-07
4.15836e-07
4.1682e-07
4.17978e-07
4.19351e-07
4.40042e-07
4.39986e-07
4.39875e-07
4.39706e-07
4.39481e-07
4.392e-07
4.38864e-07
4.38476e-07
4.38038e-07
4.37553e-07
4.37022e-07
4.36449e-07
4.35836e-07
4.35185e-07
4.345e-07
4.33782e-07
4.33035e-07
4.32262e-07
4.31465e-07
4.30646e-07
4.29809e-07
4.28956e-07
4.28088e-07
4.2721e-07
4.26324e-07
4.25431e-07
4.24535e-07
4.23638e-07
4.22742e-07
4.21851e-07
4.20966e-07
4.2009e-07
4.19226e-07
4.18377e-07
4.17544e-07
4.16732e-07
4.15942e-07
4.15178e-07
4.14442e-07
4.13738e-07
4.13068e-07
4.12437e-07
4.11846e-07
4.11299e-07
4.108e-07
4.10353e-07
4.09958e-07
4.0962e-07
4.09343e-07
4.09132e-07
4.08991e-07
4.08924e-07
4.08936e-07
4.09031e-07
4.09211e-07
4.09488e-07
4.09863e-07
4.10355e-07
4.10981e-07
4.118e-07
4.41718e-07
4.41654e-07
4.41525e-07
4.41331e-07
4.41071e-07
4.40748e-07
4.40363e-07
4.39918e-07
4.39418e-07
4.38865e-07
4.38262e-07
4.37612e-07
4.36919e-07
4.36186e-07
4.35416e-07
4.34611e-07
4.33776e-07
4.32913e-07
4.32024e-07
4.31113e-07
4.30182e-07
4.29234e-07
4.28271e-07
4.27296e-07
4.2631e-07
4.25318e-07
4.2432e-07
4.23319e-07
4.22317e-07
4.21317e-07
4.20321e-07
4.1933e-07
4.18349e-07
4.17377e-07
4.16419e-07
4.15476e-07
4.1455e-07
4.13644e-07
4.1276e-07
4.119e-07
4.11066e-07
4.10262e-07
4.09488e-07
4.08748e-07
4.08044e-07
4.07378e-07
4.06753e-07
4.06168e-07
4.05625e-07
4.05128e-07
4.04677e-07
4.04277e-07
4.03926e-07
4.03631e-07
4.03388e-07
4.03205e-07
4.0308e-07
4.03035e-07
4.03083e-07
4.033e-07
4.43871e-07
4.43795e-07
4.43643e-07
4.43413e-07
4.43106e-07
4.42724e-07
4.42271e-07
4.41751e-07
4.41167e-07
4.40524e-07
4.39826e-07
4.39077e-07
4.38282e-07
4.37444e-07
4.36566e-07
4.35654e-07
4.34709e-07
4.33735e-07
4.32734e-07
4.31711e-07
4.30667e-07
4.29606e-07
4.28528e-07
4.27438e-07
4.26337e-07
4.25226e-07
4.24109e-07
4.22988e-07
4.21863e-07
4.20738e-07
4.19614e-07
4.18493e-07
4.17377e-07
4.16268e-07
4.15167e-07
4.14077e-07
4.12998e-07
4.11933e-07
4.10884e-07
4.09851e-07
4.08837e-07
4.07843e-07
4.06871e-07
4.05922e-07
4.04996e-07
4.04097e-07
4.03222e-07
4.02375e-07
4.01551e-07
4.00751e-07
3.99974e-07
3.99224e-07
3.98496e-07
3.97794e-07
3.97111e-07
3.96453e-07
3.95816e-07
3.9522e-07
3.94678e-07
3.94279e-07
4.4659e-07
4.46497e-07
4.46311e-07
4.4603e-07
4.45656e-07
4.45194e-07
4.44648e-07
4.44024e-07
4.43328e-07
4.42567e-07
4.41746e-07
4.40871e-07
4.39946e-07
4.38977e-07
4.37968e-07
4.36922e-07
4.35844e-07
4.34737e-07
4.33605e-07
4.32449e-07
4.31273e-07
4.30079e-07
4.28869e-07
4.27646e-07
4.26411e-07
4.25167e-07
4.23915e-07
4.22657e-07
4.21394e-07
4.20129e-07
4.18862e-07
4.17596e-07
4.16331e-07
4.15069e-07
4.13811e-07
4.12559e-07
4.11313e-07
4.10076e-07
4.08848e-07
4.07629e-07
4.06422e-07
4.05226e-07
4.04041e-07
4.0287e-07
4.01709e-07
4.00561e-07
3.99424e-07
3.98298e-07
3.97182e-07
3.9608e-07
3.94983e-07
3.93892e-07
3.92795e-07
3.91694e-07
3.90578e-07
3.89456e-07
3.88317e-07
3.87189e-07
3.86077e-07
3.85089e-07
4.50001e-07
4.49881e-07
4.49642e-07
4.49285e-07
4.48812e-07
4.48231e-07
4.47551e-07
4.46782e-07
4.45934e-07
4.45016e-07
4.44037e-07
4.43002e-07
4.41919e-07
4.40791e-07
4.39624e-07
4.38421e-07
4.37188e-07
4.35927e-07
4.34642e-07
4.33336e-07
4.3201e-07
4.30668e-07
4.29311e-07
4.2794e-07
4.26559e-07
4.25167e-07
4.23768e-07
4.22361e-07
4.20948e-07
4.19531e-07
4.1811e-07
4.16687e-07
4.15262e-07
4.13837e-07
4.12412e-07
4.10989e-07
4.09567e-07
4.08149e-07
4.06733e-07
4.05322e-07
4.03914e-07
4.02512e-07
4.01113e-07
3.99719e-07
3.98328e-07
3.96942e-07
3.95558e-07
3.94176e-07
3.92791e-07
3.914e-07
3.89993e-07
3.88569e-07
3.87114e-07
3.85634e-07
3.84117e-07
3.82573e-07
3.8098e-07
3.79364e-07
3.77723e-07
3.76172e-07
4.54311e-07
4.54148e-07
4.53821e-07
4.53335e-07
4.52699e-07
4.51929e-07
4.51044e-07
4.50061e-07
4.48996e-07
4.47862e-07
4.46669e-07
4.45423e-07
4.44133e-07
4.42803e-07
4.41439e-07
4.40045e-07
4.38626e-07
4.37184e-07
4.35723e-07
4.34245e-07
4.32752e-07
4.31245e-07
4.29726e-07
4.28196e-07
4.26656e-07
4.25106e-07
4.23549e-07
4.21984e-07
4.20412e-07
4.18835e-07
4.17252e-07
4.15664e-07
4.14072e-07
4.12477e-07
4.10878e-07
4.09276e-07
4.07673e-07
4.06067e-07
4.04459e-07
4.02849e-07
4.01237e-07
3.99623e-07
3.98006e-07
3.96385e-07
3.94759e-07
3.93125e-07
3.91481e-07
3.89826e-07
3.88153e-07
3.86464e-07
3.84752e-07
3.83021e-07
3.8126e-07
3.79474e-07
3.77638e-07
3.75757e-07
3.73796e-07
3.71778e-07
3.69699e-07
3.67687e-07
4.59801e-07
4.59586e-07
4.59154e-07
4.58506e-07
4.57659e-07
4.56641e-07
4.55486e-07
4.54223e-07
4.52878e-07
4.51467e-07
4.50002e-07
4.48493e-07
4.46947e-07
4.4537e-07
4.43769e-07
4.42147e-07
4.40509e-07
4.38858e-07
4.37194e-07
4.3552e-07
4.33837e-07
4.32145e-07
4.30445e-07
4.28737e-07
4.27021e-07
4.25298e-07
4.23568e-07
4.21832e-07
4.20088e-07
4.18338e-07
4.16581e-07
4.14818e-07
4.13049e-07
4.11273e-07
4.09492e-07
4.07705e-07
4.05912e-07
4.04114e-07
4.0231e-07
4.005e-07
3.98685e-07
3.96863e-07
3.95035e-07
3.93199e-07
3.91356e-07
3.89505e-07
3.87644e-07
3.85771e-07
3.83885e-07
3.81983e-07
3.80058e-07
3.78105e-07
3.76111e-07
3.74067e-07
3.71953e-07
3.6976e-07
3.67476e-07
3.65109e-07
3.62665e-07
3.60242e-07
4.66474e-07
4.6604e-07
4.65252e-07
4.64159e-07
4.62831e-07
4.61339e-07
4.5974e-07
4.58072e-07
4.56358e-07
4.54609e-07
4.52829e-07
4.51025e-07
4.49204e-07
4.4737e-07
4.4553e-07
4.43686e-07
4.4184e-07
4.39992e-07
4.38141e-07
4.36287e-07
4.3443e-07
4.32568e-07
4.30702e-07
4.28831e-07
4.26953e-07
4.25069e-07
4.23178e-07
4.21278e-07
4.19371e-07
4.17454e-07
4.15529e-07
4.13594e-07
4.11649e-07
4.09695e-07
4.07731e-07
4.05757e-07
4.03773e-07
4.01778e-07
3.99774e-07
3.97759e-07
3.95734e-07
3.93697e-07
3.91651e-07
3.89589e-07
3.8752e-07
3.85431e-07
3.83334e-07
3.81213e-07
3.79082e-07
3.76921e-07
3.7475e-07
3.72538e-07
3.7032e-07
3.68051e-07
3.65781e-07
3.63447e-07
3.6112e-07
3.58713e-07
3.56328e-07
3.5386e-07
4.78191e-07
4.7744e-07
4.76024e-07
4.7407e-07
4.71782e-07
4.69357e-07
4.66922e-07
4.64526e-07
4.62172e-07
4.59849e-07
4.57547e-07
4.55265e-07
4.53008e-07
4.50783e-07
4.4859e-07
4.46427e-07
4.44291e-07
4.42176e-07
4.40078e-07
4.37993e-07
4.35918e-07
4.33849e-07
4.31785e-07
4.29722e-07
4.27658e-07
4.25592e-07
4.23521e-07
4.21443e-07
4.19358e-07
4.17264e-07
4.1516e-07
4.13045e-07
4.1092e-07
4.08781e-07
4.06632e-07
4.04468e-07
4.02294e-07
4.00104e-07
3.97905e-07
3.95688e-07
3.93464e-07
3.91219e-07
3.88971e-07
3.86698e-07
3.84426e-07
3.82125e-07
3.79833e-07
3.77503e-07
3.75197e-07
3.72841e-07
3.70532e-07
3.68155e-07
3.65866e-07
3.63477e-07
3.61241e-07
3.58854e-07
3.56723e-07
3.54343e-07
3.52358e-07
3.49893e-07
4.86916e-07
4.85188e-07
4.82541e-07
4.79412e-07
4.76193e-07
4.73094e-07
4.70165e-07
4.67371e-07
4.64662e-07
4.62007e-07
4.594e-07
4.56847e-07
4.54354e-07
4.5192e-07
4.49541e-07
4.47206e-07
4.44906e-07
4.42634e-07
4.40383e-07
4.38149e-07
4.35926e-07
4.33713e-07
4.31503e-07
4.29295e-07
4.27085e-07
4.2487e-07
4.22648e-07
4.20417e-07
4.18176e-07
4.15922e-07
4.13657e-07
4.11377e-07
4.09083e-07
4.06773e-07
4.04449e-07
4.02109e-07
3.99755e-07
3.97383e-07
3.95e-07
3.92597e-07
3.90185e-07
3.8775e-07
3.85311e-07
3.82844e-07
3.8038e-07
3.77878e-07
3.75393e-07
3.72852e-07
3.70354e-07
3.67771e-07
3.6528e-07
3.62655e-07
3.60224e-07
3.57577e-07
3.55341e-07
3.52738e-07
3.51031e-07
3.48552e-07
3.47983e-07
3.45212e-07
5.34953e-07
5.20829e-07
5.0706e-07
4.96479e-07
4.89053e-07
4.83656e-07
4.79199e-07
4.75113e-07
4.7123e-07
4.67556e-07
4.6413e-07
4.60955e-07
4.57998e-07
4.55209e-07
4.5254e-07
4.4996e-07
4.47447e-07
4.44986e-07
4.42569e-07
4.40185e-07
4.37826e-07
4.35485e-07
4.33155e-07
4.3083e-07
4.28506e-07
4.26179e-07
4.23845e-07
4.21504e-07
4.19151e-07
4.16786e-07
4.14407e-07
4.12014e-07
4.09605e-07
4.0718e-07
4.04739e-07
4.02282e-07
3.9981e-07
3.97321e-07
3.94817e-07
3.92299e-07
3.89766e-07
3.87218e-07
3.84657e-07
3.82081e-07
3.79491e-07
3.76886e-07
3.74267e-07
3.71629e-07
3.68976e-07
3.66293e-07
3.63602e-07
3.60851e-07
3.58121e-07
3.5524e-07
3.52511e-07
3.49293e-07
3.46852e-07
3.42353e-07
3.41957e-07
3.31262e-07
3.77105e-07
3.27117e-07
3.06625e-07
2.89552e-07
2.72458e-07
2.55327e-07
2.3615e-07
2.15747e-07
1.91837e-07
1.66206e-07
1.36263e-07
1.05044e-07
6.93974e-08
3.37889e-08
-5.73858e-09
-4.31855e-08
-8.39632e-08
-1.20396e-07
-1.59927e-07
-1.92926e-07
-2.29381e-07
-2.5751e-07
-2.90084e-07
-3.12429e-07
-3.41821e-07
-3.5645e-07
-3.87473e-07
-3.90114e-07
-4.28928e-07
-5.36818e-07
3.63422e-07
3.08983e-07
2.95457e-07
2.80957e-07
2.6454e-07
2.47793e-07
2.28916e-07
2.08659e-07
1.84931e-07
1.59643e-07
1.30309e-07
9.99176e-08
6.54091e-08
3.10805e-08
-6.96334e-09
-4.29913e-08
-8.20291e-08
-1.17011e-07
-1.54725e-07
-1.86769e-07
-2.21819e-07
-2.49288e-07
-2.81425e-07
-3.03093e-07
-3.32632e-07
-3.47986e-07
-3.74901e-07
-3.91541e-07
-4.00308e-07
-5.52498e-07
3.51382e-07
3.06597e-07
2.94084e-07
2.80059e-07
2.63148e-07
2.45477e-07
2.26089e-07
2.05484e-07
1.81704e-07
1.56282e-07
1.27177e-07
9.68703e-08
6.29145e-08
2.89228e-08
-8.22695e-09
-4.36795e-08
-8.16919e-08
-1.16329e-07
-1.53376e-07
-1.85069e-07
-2.1955e-07
-2.46908e-07
-2.77727e-07
-3.01101e-07
-3.27533e-07
-3.49117e-07
-3.69439e-07
-4.00421e-07
-3.84425e-07
-4.88254e-07
3.41355e-07
3.02667e-07
2.88118e-07
2.74639e-07
2.58421e-07
2.41294e-07
2.22084e-07
2.01315e-07
1.77583e-07
1.51994e-07
1.23205e-07
9.28991e-08
5.96869e-08
2.58803e-08
-1.00581e-08
-4.53136e-08
-8.17675e-08
-1.16338e-07
-1.51176e-07
-1.83414e-07
-2.14994e-07
-2.44482e-07
-2.71984e-07
-2.98834e-07
-3.20581e-07
-3.48315e-07
-3.58521e-07
-3.98895e-07
-3.783e-07
-4.47826e-07
3.31692e-07
3.00208e-07
2.84774e-07
2.72417e-07
2.56755e-07
2.38865e-07
2.1915e-07
1.97813e-07
1.74037e-07
1.48028e-07
1.19477e-07
8.88876e-08
5.63577e-08
2.24444e-08
-1.23112e-08
-4.76086e-08
-8.24089e-08
-1.1713e-07
-1.49929e-07
-1.82869e-07
-2.12185e-07
-2.43081e-07
-2.67483e-07
-2.97021e-07
-3.14575e-07
-3.45494e-07
-3.52494e-07
-3.89557e-07
-3.83191e-07
-4.195e-07
3.23249e-07
2.986e-07
2.82359e-07
2.69549e-07
2.5416e-07
2.36168e-07
2.16262e-07
1.94429e-07
1.70522e-07
1.4407e-07
1.15629e-07
8.47121e-08
5.26914e-08
1.86374e-08
-1.51285e-08
-5.04431e-08
-8.37827e-08
-1.18576e-07
-1.49594e-07
-1.82838e-07
-2.10179e-07
-2.41588e-07
-2.64181e-07
-2.94212e-07
-3.10871e-07
-3.4044e-07
-3.5069e-07
-3.7905e-07
-3.86492e-07
-4.05644e-07
3.16366e-07
2.97211e-07
2.80887e-07
2.67222e-07
2.51945e-07
2.3388e-07
2.13723e-07
1.91315e-07
1.67096e-07
1.40159e-07
1.11633e-07
8.04076e-08
4.86449e-08
1.45544e-08
-1.85521e-08
-5.36323e-08
-8.59774e-08
-1.20364e-07
-1.50272e-07
-1.82966e-07
-2.09406e-07
-2.40022e-07
-2.62463e-07
-2.9094e-07
-3.09206e-07
-3.3517e-07
-3.5012e-07
-3.71939e-07
-3.86011e-07
-4.00819e-07
3.11277e-07
2.95926e-07
2.80111e-07
2.65492e-07
2.49974e-07
2.31752e-07
2.11273e-07
1.88302e-07
1.63603e-07
1.362e-07
1.07391e-07
7.59449e-08
4.41723e-08
1.02155e-08
-2.2585e-08
-5.71342e-08
-8.89693e-08
-1.22466e-07
-1.51911e-07
-1.83362e-07
-2.09744e-07
-2.38688e-07
-2.61912e-07
-2.88033e-07
-3.08352e-07
-3.31107e-07
-3.49198e-07
-3.67852e-07
-3.83898e-07
-3.97829e-07
3.08056e-07
2.94739e-07
2.79584e-07
2.64319e-07
2.48256e-07
2.29706e-07
2.08809e-07
1.85301e-07
1.59992e-07
1.32136e-07
1.02878e-07
7.12766e-08
3.92912e-08
5.58508e-09
-2.71613e-08
-6.09992e-08
-9.26259e-08
-1.24986e-07
-1.54278e-07
-1.84242e-07
-2.10768e-07
-2.37963e-07
-2.61796e-07
-2.86045e-07
-3.07429e-07
-3.28547e-07
-3.47583e-07
-3.65441e-07
-3.81648e-07
-3.96e-07
3.06454e-07
2.93719e-07
2.7913e-07
2.63506e-07
2.4674e-07
2.27674e-07
2.06238e-07
1.82194e-07
1.56203e-07
1.27878e-07
9.80739e-08
6.6321e-08
3.40276e-08
5.90714e-10
-3.21953e-08
-6.53062e-08
-9.67835e-08
-1.28031e-07
-1.57132e-07
-1.85747e-07
-2.1218e-07
-2.37989e-07
-2.61882e-07
-2.84945e-07
-3.06454e-07
-3.26827e-07
-3.4589e-07
-3.63556e-07
-3.79838e-07
-3.94565e-07
3.05989e-07
2.93019e-07
2.78644e-07
2.62768e-07
2.45291e-07
2.25571e-07
2.03476e-07
1.78861e-07
1.52162e-07
1.2333e-07
9.29456e-08
6.09939e-08
2.8387e-08
-4.84069e-09
-3.7637e-08
-7.0118e-08
-1.01352e-07
-1.31653e-07
-1.60368e-07
-1.87899e-07
-2.13912e-07
-2.38696e-07
-2.62199e-07
-2.84471e-07
-3.05651e-07
-3.25572e-07
-3.44436e-07
-3.62003e-07
-3.78397e-07
-3.93397e-07
3.06076e-07
2.9267e-07
2.78133e-07
2.61908e-07
2.43731e-07
2.23282e-07
2.00448e-07
1.75198e-07
1.47785e-07
1.18398e-07
8.74333e-08
5.52163e-08
2.23284e-08
-1.07731e-08
-4.35071e-08
-7.5478e-08
-1.06347e-07
-1.35864e-07
-1.64019e-07
-1.90655e-07
-2.16033e-07
-2.39976e-07
-2.62877e-07
-2.84485e-07
-3.0519e-07
-3.24697e-07
-3.43301e-07
-3.60743e-07
-3.77182e-07
-3.92426e-07
3.0632e-07
2.92521e-07
2.77549e-07
2.60799e-07
2.41903e-07
2.2069e-07
1.97071e-07
1.71117e-07
1.42975e-07
1.12982e-07
8.1444e-08
4.89001e-08
1.57633e-08
-1.72815e-08
-4.98931e-08
-8.14407e-08
-1.11861e-07
-1.40689e-07
-1.68184e-07
-1.94011e-07
-2.18656e-07
-2.41809e-07
-2.64032e-07
-2.84974e-07
-3.05164e-07
-3.24198e-07
-3.42537e-07
-3.5974e-07
-3.76222e-07
-3.91526e-07
3.06477e-07
2.92363e-07
2.76807e-07
2.59378e-07
2.39716e-07
2.17705e-07
1.93264e-07
1.66532e-07
1.37628e-07
1.06972e-07
7.48547e-08
4.19311e-08
8.56101e-09
-2.44766e-08
-5.693e-08
-8.81019e-08
-1.18026e-07
-1.46206e-07
-1.72987e-07
-1.98031e-07
-2.21886e-07
-2.44253e-07
-2.65739e-07
-2.85998e-07
-3.05611e-07
-3.24145e-07
-3.42135e-07
-3.59071e-07
-3.75471e-07
-3.90791e-07
3.06461e-07
2.92006e-07
2.7582e-07
2.57628e-07
2.37141e-07
2.1427e-07
1.88944e-07
1.61348e-07
1.31618e-07
1.00234e-07
6.75096e-08
3.41589e-08
5.51283e-10
-3.25107e-08
-6.47898e-08
-9.56014e-08
-1.25001e-07
-1.52534e-07
-1.78565e-07
-2.02813e-07
-2.25833e-07
-2.47384e-07
-2.6808e-07
-2.87613e-07
-3.06586e-07
-3.24565e-07
-3.42143e-07
-3.58741e-07
-3.74997e-07
-3.90217e-07
3.06331e-07
2.91417e-07
2.74577e-07
2.55573e-07
2.34174e-07
2.10335e-07
1.84015e-07
1.5544e-07
1.24795e-07
9.26002e-08
5.92191e-08
2.53934e-08
-8.46883e-09
-4.1573e-08
-7.36662e-08
-1.04108e-07
-1.32953e-07
-1.59813e-07
-1.85053e-07
-2.08464e-07
-2.30597e-07
-2.51284e-07
-2.71121e-07
-2.89875e-07
-3.08122e-07
-3.25498e-07
-3.42565e-07
-3.58788e-07
-3.74795e-07
-3.89878e-07
3.06274e-07
2.90682e-07
2.73125e-07
2.53235e-07
2.30799e-07
2.05827e-07
1.78349e-07
1.48646e-07
1.16965e-07
8.38609e-08
4.97568e-08
1.54095e-08
-1.87262e-08
-5.18739e-08
-8.37611e-08
-1.138e-07
-1.42047e-07
-1.6818e-07
-1.92576e-07
-2.15088e-07
-2.36273e-07
-2.56023e-07
-2.7493e-07
-2.92827e-07
-3.10263e-07
-3.2696e-07
-3.43419e-07
-3.59213e-07
-3.74869e-07
-3.89801e-07
3.06539e-07
2.8997e-07
2.71514e-07
2.50572e-07
2.269e-07
2.00576e-07
1.71735e-07
1.40727e-07
1.07871e-07
7.37528e-08
3.88562e-08
3.94988e-09
-3.04659e-08
-6.36377e-08
-9.52791e-08
-1.24858e-07
-1.52443e-07
-1.77775e-07
-2.01258e-07
-2.22788e-07
-2.42959e-07
-2.61681e-07
-2.79589e-07
-2.96525e-07
-3.13075e-07
-3.28979e-07
-3.4475e-07
-3.60005e-07
-3.75242e-07
-3.89943e-07
3.07246e-07
2.89391e-07
2.69701e-07
2.47399e-07
2.22214e-07
1.94287e-07
1.63862e-07
1.31363e-07
9.71866e-08
6.19527e-08
2.62036e-08
-9.2817e-09
-4.39635e-08
-7.71173e-08
-1.0845e-07
-1.37493e-07
-1.64331e-07
-1.88772e-07
-2.11254e-07
-2.31712e-07
-2.50784e-07
-2.68382e-07
-2.85207e-07
-3.01069e-07
-3.16648e-07
-3.31627e-07
-3.4661e-07
-3.6119e-07
-3.75892e-07
-3.90257e-07
3.0815e-07
2.88735e-07
2.67358e-07
2.43287e-07
2.16276e-07
1.86498e-07
1.54279e-07
1.20113e-07
8.44791e-08
4.80394e-08
1.13962e-08
-2.46659e-08
-5.95758e-08
-9.26467e-08
-1.23587e-07
-1.51999e-07
-1.77987e-07
-2.01434e-07
-2.22802e-07
-2.42083e-07
-2.59946e-07
-2.76309e-07
-2.91947e-07
-3.06603e-07
-3.21108e-07
-3.34994e-07
-3.49095e-07
-3.62775e-07
-3.76835e-07
-3.90588e-07
3.08523e-07
2.87288e-07
2.63854e-07
2.37647e-07
2.08498e-07
1.76612e-07
1.42387e-07
1.06379e-07
6.91596e-08
3.14373e-08
-6.12227e-09
-4.27355e-08
-7.78074e-08
-1.10703e-07
-1.41139e-07
-1.68803e-07
-1.93814e-07
-2.16145e-07