/*--------------------------------*- C++ -*----------------------------------*\
| =========                 |                                                 |
| \\      /  F ield         | OpenFOAM: The Open Source CFD Toolbox           |
|  \\    /   O peration     | Version:  2312                                  |
|   \\  /    A nd           | Website:  www.openfoam.com                      |
|    \\/     M anipulation  |                                                 |
\*---------------------------------------------------------------------------*/
FoamFile
{
    version     2.0;
    format      ascii;
    arch        "LSB;label=32;scalar=64";
    class       volVectorField;
    location    "69000";
    object      U;
}
// * * * * * * * * * * * * * * * * * * * * * * * * * * * * * * * * * * * * * //

dimensions      [0 1 -1 0 0 0 0];

internalField   nonuniform List<vector> 
2685
(
(0.000670894 -1.95467e-05 0)
(0.000672316 -7.52848e-06 0)
(0.00064593 1.94308e-06 0)
(0.000619158 1.1092e-05 0)
(0.000593187 1.92013e-05 0)
(0.000565778 2.56582e-05 0)
(0.000535306 3.04772e-05 0)
(0.000501645 3.40021e-05 0)
(0.000465487 3.65885e-05 0)
(0.000427612 3.84249e-05 0)
(0.000388487 3.95623e-05 0)
(0.000348356 3.99838e-05 0)
(0.000307449 3.96472e-05 0)
(0.000266096 3.84479e-05 0)
(0.000224745 3.6268e-05 0)
(0.000183892 3.27604e-05 0)
(0.00014434 2.69823e-05 0)
(0.000107221 1.79571e-05 0)
(7.37709e-05 5.90422e-06 0)
(4.499e-05 -7.62726e-06 0)
(2.13296e-05 -2.08395e-05 0)
(2.7611e-06 -3.23584e-05 0)
(-1.03812e-05 -4.13782e-05 0)
(-1.89375e-05 -4.79405e-05 0)
(-2.3663e-05 -5.17759e-05 0)
(-2.55601e-05 -5.27688e-05 0)
(-2.5056e-05 -5.09116e-05 0)
(-2.3018e-05 -4.6863e-05 0)
(-2.01461e-05 -4.1212e-05 0)
(-1.71225e-05 -3.43934e-05 0)
(-1.44083e-05 -2.68482e-05 0)
(-1.23409e-05 -1.90833e-05 0)
(-1.11827e-05 -1.15831e-05 0)
(-1.09679e-05 -4.74418e-06 0)
(-1.16536e-05 1.11242e-06 0)
(-1.32647e-05 5.78755e-06 0)
(-1.58464e-05 9.23433e-06 0)
(-1.93111e-05 1.15225e-05 0)
(-2.34472e-05 1.28203e-05 0)
(-2.80668e-05 1.33192e-05 0)
(-3.30318e-05 1.32137e-05 0)
(-3.82562e-05 1.2694e-05 0)
(-4.36902e-05 1.19294e-05 0)
(-4.93035e-05 1.10579e-05 0)
(-5.50756e-05 1.01843e-05 0)
(-6.09907e-05 9.38297e-06 0)
(-6.70349e-05 8.70071e-06 0)
(-7.3191e-05 8.15545e-06 0)
(-7.94266e-05 7.71874e-06 0)
(-8.56839e-05 7.36149e-06 0)
(-9.18833e-05 7.05985e-06 0)
(-9.79349e-05 6.78706e-06 0)
(-0.000103744 6.51588e-06 0)
(-0.000109215 6.22165e-06 0)
(-0.000114249 5.88518e-06 0)
(-0.00011875 5.4936e-06 0)
(-0.000122622 5.03953e-06 0)
(-0.000125778 4.52145e-06 0)
(-0.000128139 3.94583e-06 0)
(-0.00012964 3.32507e-06 0)
(-0.00013022 2.64067e-06 0)
(-0.000129857 1.88185e-06 0)
(-0.000128542 1.07139e-06 0)
(-0.000126253 2.27633e-07 0)
(-0.000122988 -6.3232e-07 0)
(-0.000118759 -1.49177e-06 0)
(-0.000113595 -2.33452e-06 0)
(-0.000107535 -3.14539e-06 0)
(-0.000100629 -3.91071e-06 0)
(-9.29393e-05 -4.61869e-06 0)
(-8.45331e-05 -5.25954e-06 0)
(-7.54857e-05 -5.82561e-06 0)
(-6.58766e-05 -6.31125e-06 0)
(-5.57885e-05 -6.71303e-06 0)
(-4.53057e-05 -7.02892e-06 0)
(-3.45091e-05 -7.25933e-06 0)
(-2.34787e-05 -7.40843e-06 0)
(-1.22897e-05 -7.48182e-06 0)
(-1.00974e-06 -7.49037e-06 0)
(1.02717e-05 -7.44362e-06 0)
(2.14754e-05 -7.3423e-06 0)
(3.25473e-05 -7.19129e-06 0)
(4.34322e-05 -6.99609e-06 0)
(5.40799e-05 -6.76196e-06 0)
(6.44462e-05 -6.49385e-06 0)
(7.44929e-05 -6.19639e-06 0)
(8.41877e-05 -5.87468e-06 0)
(9.3504e-05 -5.53432e-06 0)
(0.000102421 -5.18084e-06 0)
(0.000110922 -4.8195e-06 0)
(0.00127049 5.72365e-05 0)
(0.001251 6.73652e-05 0)
(0.00123588 7.66577e-05 0)
(0.00122032 8.59112e-05 0)
(0.00120275 9.47188e-05 0)
(0.00118306 0.0001027 0)
(0.00116153 0.000109765 0)
(0.00113844 0.000115995 0)
(0.00111398 0.000121495 0)
(0.00108824 0.000126328 0)
(0.00106128 0.000130475 0)
(0.00103315 0.000133904 0)
(0.00100391 0.000136515 0)
(0.000973674 0.000138208 0)
(0.000942501 0.000138805 0)
(0.000910504 0.000138134 0)
(0.000877669 0.000135981 0)
(0.000843947 0.000132122 0)
(0.000809066 0.000126519 0)
(0.000772381 0.000119149 0)
(0.000733758 0.000110412 0)
(0.000692467 0.000100396 0)
(0.000649661 8.97337e-05 0)
(0.000605043 7.86034e-05 0)
(0.000559442 6.74168e-05 0)
(0.000513702 5.65312e-05 0)
(0.000469042 4.64238e-05 0)
(0.000425987 3.74793e-05 0)
(0.000384782 2.97888e-05 0)
(0.000345892 2.32403e-05 0)
(0.000309787 1.76912e-05 0)
(0.000276749 1.30274e-05 0)
(0.000246885 9.18664e-06 0)
(0.000220222 6.25127e-06 0)
(0.000196553 4.33958e-06 0)
(0.000175566 3.444e-06 0)
(0.000157454 3.53425e-06 0)
(0.000142089 4.30934e-06 0)
(0.00012893 5.33581e-06 0)
(0.000117653 6.49694e-06 0)
(0.000107915 7.82708e-06 0)
(9.94438e-05 9.33598e-06 0)
(9.20209e-05 1.09651e-05 0)
(8.54639e-05 1.26262e-05 0)
(7.96202e-05 1.42344e-05 0)
(7.4361e-05 1.57193e-05 0)
(6.9566e-05 1.70301e-05 0)
(6.51021e-05 1.81196e-05 0)
(6.09517e-05 1.89208e-05 0)
(5.71267e-05 1.93371e-05 0)
(5.36755e-05 1.93106e-05 0)
(5.06431e-05 1.88302e-05 0)
(4.80862e-05 1.79026e-05 0)
(4.60742e-05 1.65424e-05 0)
(4.46824e-05 1.4774e-05 0)
(4.39852e-05 1.26295e-05 0)
(4.40546e-05 1.01465e-05 0)
(4.49631e-05 7.36902e-06 0)
(4.67494e-05 4.35888e-06 0)
(4.94116e-05 1.14429e-06 0)
(5.29197e-05 -2.21726e-06 0)
(5.73419e-05 -5.68819e-06 0)
(6.27324e-05 -9.21161e-06 0)
(6.9079e-05 -1.27293e-05 0)
(7.63626e-05 -1.61889e-05 0)
(8.45544e-05 -1.95445e-05 0)
(9.36154e-05 -2.27549e-05 0)
(0.000103497 -2.57836e-05 0)
(0.00011414 -2.85987e-05 0)
(0.000125481 -3.11736e-05 0)
(0.000137448 -3.34867e-05 0)
(0.000149968 -3.55221e-05 0)
(0.000162964 -3.72683e-05 0)
(0.000176356 -3.87183e-05 0)
(0.000190066 -3.98701e-05 0)
(0.000204014 -4.07249e-05 0)
(0.000218118 -4.12904e-05 0)
(0.000232301 -4.15791e-05 0)
(0.000246496 -4.16129e-05 0)
(0.000260646 -4.14182e-05 0)
(0.000274694 -4.10099e-05 0)
(0.000288584 -4.04049e-05 0)
(0.00030227 -3.96226e-05 0)
(0.000315706 -3.86831e-05 0)
(0.000328856 -3.76074e-05 0)
(0.000341684 -3.64163e-05 0)
(0.000354158 -3.51294e-05 0)
(0.000366251 -3.37644e-05 0)
(0.000377942 -3.23378e-05 0)
(0.000389214 -3.08653e-05 0)
(0.00152231 6.7204e-05 0)
(0.00150902 7.92235e-05 0)
(0.00149933 9.08181e-05 0)
(0.00149021 0.000101791 0)
(0.00148012 0.000112235 0)
(0.00146869 0.000122212 0)
(0.00145603 0.0001317 0)
(0.00144245 0.000140633 0)
(0.00142815 0.00014892 0)
(0.00141325 0.000156481 0)
(0.00139772 0.000163233 0)
(0.00138153 0.00016909 0)
(0.00136459 0.000173961 0)
(0.00134683 0.00017772 0)
(0.00132819 0.000180257 0)
(0.00130856 0.00018141 0)
(0.00128792 0.000181094 0)
(0.00126605 0.0001792 0)
(0.00124301 0.000175814 0)
(0.00121849 0.000171118 0)
(0.00119265 0.000165504 0)
(0.00116523 0.000159385 0)
(0.00113657 0.000153198 0)
(0.00110661 0.000147279 0)
(0.00107566 0.000141814 0)
(0.00104434 0.000136953 0)
(0.0010128 0.000132631 0)
(0.000980947 0.000128649 0)
(0.000948674 0.000124802 0)
(0.00091594 0.000120872 0)
(0.000882975 0.00011669 0)
(0.000849984 0.000112103 0)
(0.000817249 0.000107038 0)
(0.000784874 0.000101481 0)
(0.000752969 9.54668e-05 0)
(0.000721682 8.90941e-05 0)
(0.000691028 8.24103e-05 0)
(0.000661329 7.55974e-05 0)
(0.000632552 6.88222e-05 0)
(0.000605027 6.22823e-05 0)
(0.000579038 5.6142e-05 0)
(0.000554726 5.05016e-05 0)
(0.000532163 4.54071e-05 0)
(0.000511397 4.08657e-05 0)
(0.000492482 3.68545e-05 0)
(0.000475453 3.33491e-05 0)
(0.000460253 3.03043e-05 0)
(0.000446918 2.7604e-05 0)
(0.000435564 2.51397e-05 0)
(0.000426017 2.28088e-05 0)
(0.000418097 2.04925e-05 0)
(0.00041171 1.80853e-05 0)
(0.000406775 1.55028e-05 0)
(0.000403192 1.26682e-05 0)
(0.000400863 9.53557e-06 0)
(0.000399699 6.10704e-06 0)
(0.000399637 2.38458e-06 0)
(0.000400592 -1.63941e-06 0)
(0.000402404 -5.97305e-06 0)
(0.000405111 -1.06025e-05 0)
(0.000408756 -1.54533e-05 0)
(0.000413232 -2.04323e-05 0)
(0.000418474 -2.54523e-05 0)
(0.000424438 -3.04349e-05 0)
(0.000431075 -3.53178e-05 0)
(0.000438332 -4.00457e-05 0)
(0.000446151 -4.45616e-05 0)
(0.000454478 -4.88088e-05 0)
(0.000463257 -5.27389e-05 0)
(0.000472433 -5.63144e-05 0)
(0.000481953 -5.95073e-05 0)
(0.00049176 -6.22973e-05 0)
(0.000501798 -6.46704e-05 0)
(0.000512013 -6.66194e-05 0)
(0.000522353 -6.81435e-05 0)
(0.000532767 -6.92486e-05 0)
(0.000543206 -6.99469e-05 0)
(0.000553625 -7.02546e-05 0)
(0.000563985 -7.01929e-05 0)
(0.000574249 -6.97896e-05 0)
(0.000584381 -6.90741e-05 0)
(0.000594349 -6.80756e-05 0)
(0.000604125 -6.68233e-05 0)
(0.000613681 -6.53461e-05 0)
(0.000622997 -6.36722e-05 0)
(0.000632051 -6.183e-05 0)
(0.00064083 -5.98477e-05 0)
(0.000649325 -5.77522e-05 0)
(0.00065753 -5.55686e-05 0)
(0.000665439 -5.33202e-05 0)
(0.00163662 9.08865e-05 0)
(0.0016274 0.000103772 0)
(0.00161973 0.000116264 0)
(0.00161284 0.000127998 0)
(0.00160606 0.000139026 0)
(0.00159901 0.00014947 0)
(0.00159157 0.000159409 0)
(0.00158377 0.00016884 0)
(0.00157569 0.000177701 0)
(0.00156738 0.000185903 0)
(0.00155889 0.000193365 0)
(0.00155016 0.000200009 0)
(0.00154117 0.000205776 0)
(0.00153179 0.000210606 0)
(0.00152198 0.000214454 0)
(0.00151162 0.000217277 0)
(0.00150066 0.000219052 0)
(0.00148897 0.000219782 0)
(0.00147651 0.000219495 0)
(0.00146316 0.000218277 0)
(0.00144884 0.000216227 0)
(0.00143351 0.000213503 0)
(0.00141714 0.000210231 0)
(0.00139985 0.000206544 0)
(0.00138163 0.000202512 0)
(0.00136269 0.000198165 0)
(0.00134302 0.000193483 0)
(0.00132263 0.000188456 0)
(0.00130171 0.000183118 0)
(0.00128044 0.000177535 0)
(0.00125897 0.000171771 0)
(0.00123743 0.000165892 0)
(0.00121589 0.000159923 0)
(0.00119443 0.000153904 0)
(0.001173 0.000147846 0)
(0.0011517 0.000141792 0)
(0.00113044 0.000135742 0)
(0.00110943 0.0001297 0)
(0.00108882 0.000123713 0)
(0.00106866 0.000117787 0)
(0.00104892 0.000111888 0)
(0.0010296 0.00010597 0)
(0.00101074 9.9997e-05 0)
(0.00099244 9.39625e-05 0)
(0.000974828 8.78616e-05 0)
(0.000958033 8.17027e-05 0)
(0.00094215 7.54921e-05 0)
(0.000927277 6.9228e-05 0)
(0.000913504 6.28973e-05 0)
(0.00090088 5.64728e-05 0)
(0.000889442 4.99476e-05 0)
(0.000879191 4.33347e-05 0)
(0.000870131 3.66163e-05 0)
(0.000862268 2.98038e-05 0)
(0.00085554 2.29154e-05 0)
(0.000849891 1.59308e-05 0)
(0.000845317 8.90405e-06 0)
(0.000841655 1.86075e-06 0)
(0.000838874 -5.22061e-06 0)
(0.000837034 -1.22167e-05 0)
(0.000836047 -1.91394e-05 0)
(0.000835814 -2.60051e-05 0)
(0.000836259 -3.27509e-05 0)
(0.000837303 -3.92861e-05 0)
(0.000838863 -4.5538e-05 0)
(0.000840874 -5.14596e-05 0)
(0.000843287 -5.7015e-05 0)
(0.000846056 -6.21676e-05 0)
(0.000849129 -6.68805e-05 0)
(0.000852454 -7.11213e-05 0)
(0.000855984 -7.48663e-05 0)
(0.000859679 -7.81009e-05 0)
(0.000863502 -8.08179e-05 0)
(0.000867419 -8.30169e-05 0)
(0.000871397 -8.47044e-05 0)
(0.000875408 -8.58924e-05 0)
(0.000879425 -8.65989e-05 0)
(0.000883418 -8.68473e-05 0)
(0.00088736 -8.66629e-05 0)
(0.000891228 -8.60714e-05 0)
(0.000895007 -8.51022e-05 0)
(0.000898688 -8.37908e-05 0)
(0.000902263 -8.21759e-05 0)
(0.000905723 -8.02955e-05 0)
(0.000909063 -7.81856e-05 0)
(0.000912276 -7.58805e-05 0)
(0.000915356 -7.34131e-05 0)
(0.000918302 -7.08155e-05 0)
(0.000921112 -6.81182e-05 0)
(0.000923784 -6.53492e-05 0)
(0.00161902 0.000108841 0)
(0.00161233 0.000119331 0)
(0.00160653 0.000129979 0)
(0.00160135 0.000140553 0)
(0.00159651 0.000150885 0)
(0.00159176 0.000160871 0)
(0.00158699 0.000170445 0)
(0.00158219 0.000179552 0)
(0.00157743 0.000188144 0)
(0.00157276 0.000196165 0)
(0.00156824 0.000203563 0)
(0.00156387 0.00021028 0)
(0.00155963 0.00021627 0)
(0.00155545 0.000221489 0)
(0.0015513 0.000225903 0)
(0.00154707 0.000229489 0)
(0.00154271 0.000232231 0)
(0.00153812 0.000234129 0)
(0.00153324 0.000235198 0)
(0.00152799 0.00023547 0)
(0.00152229 0.000235 0)
(0.00151608 0.000233856 0)
(0.00150929 0.000232123 0)
(0.0015019 0.000229866 0)
(0.00149394 0.000227156 0)
(0.00148546 0.000224038 0)
(0.00147654 0.00022057 0)
(0.00146723 0.000216822 0)
(0.00145762 0.000212855 0)
(0.00144779 0.000208699 0)
(0.0014378 0.000204352 0)
(0.00142771 0.000199804 0)
(0.00141752 0.000195035 0)
(0.00140724 0.000190022 0)
(0.00139685 0.000184747 0)
(0.00138635 0.000179199 0)
(0.00137574 0.000173392 0)
(0.00136504 0.000167325 0)
(0.00135428 0.000160998 0)
(0.00134345 0.000154402 0)
(0.00133254 0.000147543 0)
(0.00132163 0.000140448 0)
(0.00131081 0.000133158 0)
(0.00130017 0.000125716 0)
(0.00128978 0.00011816 0)
(0.00127971 0.000110514 0)
(0.00126998 0.000102795 0)
(0.00126064 9.50028e-05 0)
(0.00125171 8.71378e-05 0)
(0.00124322 7.9189e-05 0)
(0.00123518 7.11506e-05 0)
(0.00122761 6.30228e-05 0)
(0.00122049 5.48018e-05 0)
(0.00121384 4.64999e-05 0)
(0.00120763 3.81202e-05 0)
(0.00120182 2.96921e-05 0)
(0.00119644 2.12463e-05 0)
(0.0011914 1.28042e-05 0)
(0.00118672 4.45535e-06 0)
(0.00118236 -3.79446e-06 0)
(0.00117819 -1.18732e-05 0)
(0.00117421 -1.96963e-05 0)
(0.00117052 -2.72613e-05 0)
(0.00116712 -3.45535e-05 0)
(0.0011639 -4.15205e-05 0)
(0.00116082 -4.80969e-05 0)
(0.00115782 -5.42297e-05 0)
(0.00115491 -5.98833e-05 0)
(0.00115208 -6.50308e-05 0)
(0.00114931 -6.96489e-05 0)
(0.0011466 -7.37178e-05 0)
(0.00114393 -7.72253e-05 0)
(0.00114128 -8.0168e-05 0)
(0.00113867 -8.2551e-05 0)
(0.00113609 -8.43859e-05 0)
(0.00113353 -8.56905e-05 0)
(0.001131 -8.6487e-05 0)
(0.0011285 -8.68024e-05 0)
(0.00112605 -8.6666e-05 0)
(0.00112363 -8.61081e-05 0)
(0.00112126 -8.51619e-05 0)
(0.00111893 -8.38628e-05 0)
(0.00111663 -8.22468e-05 0)
(0.00111438 -8.03507e-05 0)
(0.00111217 -7.82118e-05 0)
(0.00111001 -7.58667e-05 0)
(0.00110791 -7.33511e-05 0)
(0.00110585 -7.06986e-05 0)
(0.00110386 -6.79411e-05 0)
(0.00110192 -6.51083e-05 0)
(0.00163469 0.000123541 0)
(0.0016266 0.00013402 0)
(0.0016192 0.000144556 0)
(0.00161187 0.000155053 0)
(0.00160425 0.000165331 0)
(0.00159627 0.000175222 0)
(0.00158799 0.000184601 0)
(0.00157956 0.000193383 0)
(0.00157114 0.000201521 0)
(0.00156286 0.000208983 0)
(0.00155483 0.000215741 0)
(0.0015471 0.000221774 0)
(0.00153971 0.000227061 0)
(0.00153268 0.000231586 0)
(0.00152603 0.000235342 0)
(0.00151973 0.000238327 0)
(0.0015138 0.000240549 0)
(0.0015082 0.000242026 0)
(0.00150292 0.000242785 0)
(0.00149791 0.000242863 0)
(0.00149313 0.000242306 0)
(0.00148853 0.000241168 0)
(0.00148407 0.000239513 0)
(0.00147971 0.000237414 0)
(0.00147546 0.000234942 0)
(0.00147131 0.00023216 0)
(0.00146731 0.000229118 0)
(0.00146346 0.00022585 0)
(0.00145978 0.000222377 0)
(0.00145626 0.0002187 0)
(0.00145289 0.000214809 0)
(0.00144964 0.000210677 0)
(0.00144649 0.000206279 0)
(0.00144337 0.000201592 0)
(0.00144026 0.000196599 0)
(0.00143714 0.000191291 0)
(0.00143399 0.000185672 0)
(0.0014308 0.000179753 0)
(0.00142757 0.000173544 0)
(0.00142428 0.000167073 0)
(0.00142092 0.000160378 0)
(0.0014175 0.000153498 0)
(0.00141404 0.000146456 0)
(0.00141055 0.000139264 0)
(0.00140703 0.000131923 0)
(0.00140349 0.000124429 0)
(0.00139993 0.000116777 0)
(0.00139632 0.000108964 0)
(0.00139269 0.000100993 0)
(0.00138901 9.2866e-05 0)
(0.0013853 8.45895e-05 0)
(0.00138154 7.61776e-05 0)
(0.00137772 6.7642e-05 0)
(0.00137384 5.90122e-05 0)
(0.00136987 5.03089e-05 0)
(0.00136583 4.15693e-05 0)
(0.00136167 3.28352e-05 0)
(0.0013574 2.41373e-05 0)
(0.00135303 1.55462e-05 0)
(0.0013485 7.08392e-06 0)
(0.00134396 -1.18111e-06 0)
(0.00133924 -9.16475e-06 0)
(0.00133419 -1.68124e-05 0)
(0.0013289 -2.40915e-05 0)
(0.00132346 -3.09852e-05 0)
(0.0013179 -3.74657e-05 0)
(0.00131218 -4.34951e-05 0)
(0.00130631 -4.90388e-05 0)
(0.00130028 -5.40729e-05 0)
(0.00129415 -5.8582e-05 0)
(0.00128792 -6.25551e-05 0)
(0.00128162 -6.59858e-05 0)
(0.00127528 -6.88738e-05 0)
(0.0012689 -7.12261e-05 0)
(0.00126253 -7.30563e-05 0)
(0.00125618 -7.43827e-05 0)
(0.00124989 -7.52282e-05 0)
(0.00124367 -7.56186e-05 0)
(0.00123754 -7.55837e-05 0)
(0.00123153 -7.51578e-05 0)
(0.00122565 -7.43758e-05 0)
(0.00121991 -7.32712e-05 0)
(0.00121433 -7.18761e-05 0)
(0.00120891 -7.02236e-05 0)
(0.00120367 -6.83477e-05 0)
(0.0011986 -6.6282e-05 0)
(0.00119371 -6.40585e-05 0)
(0.00118901 -6.17075e-05 0)
(0.00118448 -5.92572e-05 0)
(0.00118014 -5.67339e-05 0)
(0.00175728 0.000137555 0)
(0.00174761 0.000150537 0)
(0.00173843 0.000163011 0)
(0.00172896 0.000174943 0)
(0.00171876 0.000186289 0)
(0.00170772 0.000196995 0)
(0.00169591 0.000206997 0)
(0.00168351 0.000216233 0)
(0.0016707 0.000224651 0)
(0.00165764 0.000232213 0)
(0.00164444 0.000238894 0)
(0.00163119 0.000244676 0)
(0.00161795 0.000249553 0)
(0.00160478 0.000253524 0)
(0.00159174 0.0002566 0)
(0.00157888 0.000258797 0)
(0.00156627 0.00026014 0)
(0.00155397 0.000260663 0)
(0.00154202 0.000260407 0)
(0.00153048 0.000259423 0)
(0.00151938 0.000257769 0)
(0.00150876 0.000255513 0)
(0.00149865 0.000252725 0)
(0.00148908 0.000249482 0)
(0.00148009 0.000245857 0)
(0.00147171 0.000241918 0)
(0.00146395 0.000237715 0)
(0.00145683 0.000233284 0)
(0.00145034 0.000228648 0)
(0.00144448 0.000223818 0)
(0.00143922 0.000218803 0)
(0.00143454 0.000213605 0)
(0.0014304 0.000208224 0)
(0.00142675 0.000202664 0)
(0.00142355 0.000196935 0)
(0.00142077 0.000191046 0)
(0.00141838 0.000185005 0)
(0.00141634 0.00017882 0)
(0.00141461 0.000172495 0)
(0.00141315 0.000166038 0)
(0.00141192 0.000159455 0)
(0.00141087 0.000152752 0)
(0.00140994 0.000145929 0)
(0.0014091 0.000138982 0)
(0.0014083 0.000131906 0)
(0.00140751 0.000124696 0)
(0.00140669 0.000117352 0)
(0.00140581 0.000109878 0)
(0.00140484 0.000102283 0)
(0.00140377 9.45764e-05 0)
(0.00140256 8.67743e-05 0)
(0.00140118 7.88874e-05 0)
(0.00139962 7.09428e-05 0)
(0.00139783 6.29571e-05 0)
(0.0013958 5.49599e-05 0)
(0.0013935 4.6984e-05 0)
(0.00139092 3.90481e-05 0)
(0.00138804 3.12089e-05 0)
(0.00138485 2.3472e-05 0)
(0.00138134 1.58976e-05 0)
(0.00137751 8.50352e-06 0)
(0.00137337 1.28778e-06 0)
(0.00136893 -5.65936e-06 0)
(0.00136415 -1.22868e-05 0)
(0.001359 -1.8564e-05 0)
(0.00135354 -2.44598e-05 0)
(0.00134779 -2.99481e-05 0)
(0.00134182 -3.50043e-05 0)
(0.00133562 -3.96088e-05 0)
(0.00132925 -4.37486e-05 0)
(0.00132274 -4.74169e-05 0)
(0.00131612 -5.06116e-05 0)
(0.00130944 -5.33346e-05 0)
(0.00130271 -5.55923e-05 0)
(0.00129598 -5.73961e-05 0)
(0.00128927 -5.87618e-05 0)
(0.00128261 -5.9709e-05 0)
(0.00127604 -6.02605e-05 0)
(0.00126958 -6.04413e-05 0)
(0.00126325 -6.02786e-05 0)
(0.00125706 -5.98006e-05 0)
(0.00125104 -5.9036e-05 0)
(0.00124519 -5.80145e-05 0)
(0.00123952 -5.67655e-05 0)
(0.00123403 -5.53176e-05 0)
(0.00122873 -5.36977e-05 0)
(0.00122361 -5.19319e-05 0)
(0.00121869 -5.00446e-05 0)
(0.00121395 -4.80595e-05 0)
(0.0012094 -4.59984e-05 0)
(0.0017961 0.000152471 0)
(0.00179034 0.000167208 0)
(0.00178515 0.000181333 0)
(0.00177991 0.000194759 0)
(0.00177417 0.000207461 0)
(0.0017677 0.000219422 0)
(0.00176045 0.000230614 0)
(0.00175249 0.00024099 0)
(0.0017439 0.000250499 0)
(0.00173478 0.000259087 0)
(0.0017252 0.000266709 0)
(0.00171518 0.00027333 0)
(0.00170475 0.000278926 0)
(0.00169392 0.000283484 0)
(0.00168272 0.000287004 0)
(0.00167119 0.000289497 0)
(0.00165935 0.000290983 0)
(0.00164729 0.000291495 0)
(0.00163505 0.000291075 0)
(0.0016227 0.000289774 0)
(0.00161031 0.000287652 0)
(0.00159795 0.000284775 0)
(0.00158569 0.000281216 0)
(0.00157361 0.000277049 0)
(0.00156177 0.000272347 0)
(0.00155024 0.000267176 0)
(0.00153907 0.000261598 0)
(0.0015283 0.000255666 0)
(0.001518 0.000249427 0)
(0.00150819 0.000242926 0)
(0.00149892 0.000236202 0)
(0.0014902 0.000229291 0)
(0.00148205 0.000222227 0)
(0.00147448 0.000215041 0)
(0.0014675 0.000207764 0)
(0.00146109 0.000200422 0)
(0.00145524 0.000193033 0)
(0.00144993 0.000185611 0)
(0.00144515 0.000178162 0)
(0.00144085 0.00017069 0)
(0.001437 0.000163195 0)
(0.00143356 0.000155676 0)
(0.00143048 0.000148135 0)
(0.00142772 0.000140572 0)
(0.00142523 0.000132991 0)
(0.00142298 0.000125396 0)
(0.00142093 0.000117792 0)
(0.00141904 0.000110184 0)
(0.00141727 0.000102577 0)
(0.00141557 9.49776e-05 0)
(0.0014139 8.7392e-05 0)
(0.00141223 7.98283e-05 0)
(0.00141052 7.22975e-05 0)
(0.00140872 6.48116e-05 0)
(0.0014068 5.73879e-05 0)
(0.00140474 5.00423e-05 0)
(0.0014025 4.27974e-05 0)
(0.00140006 3.56732e-05 0)
(0.00139739 2.86953e-05 0)
(0.0013945 2.1888e-05 0)
(0.00139135 1.52739e-05 0)
(0.00138796 8.88415e-06 0)
(0.0013843 2.72935e-06 0)
(0.00138035 -3.16449e-06 0)
(0.00137618 -8.76644e-06 0)
(0.00137182 -1.40491e-05 0)
(0.00136726 -1.89905e-05 0)
(0.0013625 -2.35677e-05 0)
(0.00135757 -2.77596e-05 0)
(0.00135249 -3.15516e-05 0)
(0.0013473 -3.49372e-05 0)
(0.00134202 -3.79162e-05 0)
(0.00133667 -4.04904e-05 0)
(0.00133128 -4.26646e-05 0)
(0.00132588 -4.44471e-05 0)
(0.00132048 -4.58499e-05 0)
(0.00131511 -4.68883e-05 0)
(0.00130978 -4.75799e-05 0)
(0.00130452 -4.79449e-05 0)
(0.00129934 -4.80053e-05 0)
(0.00129424 -4.77846e-05 0)
(0.00128924 -4.73062e-05 0)
(0.00128435 -4.65939e-05 0)
(0.00127956 -4.56709e-05 0)
(0.00127488 -4.45597e-05 0)
(0.00127032 -4.32819e-05 0)
(0.00126588 -4.18585e-05 0)
(0.00126154 -4.03101e-05 0)
(0.00125733 -3.86567e-05 0)
(0.00125322 -3.69177e-05 0)
(0.00162782 0.000157742 0)
(0.00162949 0.000172497 0)
(0.00163199 0.000186947 0)
(0.00163486 0.000200919 0)
(0.00163769 0.000214304 0)
(0.0016402 0.000227035 0)
(0.0016423 0.000239064 0)
(0.00164397 0.000250345 0)
(0.00164523 0.000260832 0)
(0.00164611 0.00027047 0)
(0.00164661 0.000279201 0)
(0.00164671 0.000286973 0)
(0.00164637 0.000293741 0)
(0.00164555 0.000299475 0)
(0.00164422 0.000304156 0)
(0.00164237 0.000307778 0)
(0.00163998 0.00031035 0)
(0.00163706 0.000311887 0)
(0.00163363 0.00031242 0)
(0.0016297 0.000311986 0)
(0.00162532 0.00031063 0)
(0.0016205 0.000308406 0)
(0.00161531 0.000305372 0)
(0.00160977 0.000301585 0)
(0.00160395 0.000297106 0)
(0.0015979 0.000291994 0)
(0.00159165 0.00028631 0)
(0.00158526 0.000280117 0)
(0.00157878 0.000273474 0)
(0.00157227 0.00026644 0)
(0.00156577 0.000259072 0)
(0.00155935 0.000251423 0)
(0.00155305 0.000243541 0)
(0.0015469 0.000235472 0)
(0.00154094 0.000227257 0)
(0.00153519 0.00021893 0)
(0.00152968 0.000210523 0)
(0.00152441 0.000202062 0)
(0.00151939 0.000193568 0)
(0.00151463 0.000185061 0)
(0.00151013 0.000176556 0)
(0.00150588 0.000168068 0)
(0.00150188 0.000159612 0)
(0.00149811 0.000151199 0)
(0.00149456 0.000142841 0)
(0.00149122 0.000134549 0)
(0.00148807 0.000126328 0)
(0.00148509 0.000118186 0)
(0.00148224 0.000110126 0)
(0.00147952 0.000102155 0)
(0.00147687 9.42775e-05 0)
(0.00147429 8.64992e-05 0)
(0.00147174 7.88289e-05 0)
(0.0014692 7.12744e-05 0)
(0.00146664 6.38488e-05 0)
(0.00146403 5.65623e-05 0)
(0.00146136 4.94316e-05 0)
(0.0014586 4.24705e-05 0)
(0.00145573 3.5696e-05 0)
(0.00145275 2.91284e-05 0)
(0.00144964 2.27803e-05 0)
(0.00144639 1.66803e-05 0)
(0.00144298 1.08354e-05 0)
(0.00143943 5.27829e-06 0)
(0.00143569 3.0647e-08 0)
(0.00143179 -4.90424e-06 0)
(0.00142776 -9.5129e-06 0)
(0.00142364 -1.37797e-05 0)
(0.00141942 -1.76988e-05 0)
(0.00141511 -2.12646e-05 0)
(0.00141071 -2.44736e-05 0)
(0.00140624 -2.7324e-05 0)
(0.0014017 -2.98158e-05 0)
(0.00139713 -3.19513e-05 0)
(0.00139252 -3.37359e-05 0)
(0.00138789 -3.51784e-05 0)
(0.00138325 -3.62905e-05 0)
(0.00137861 -3.70861e-05 0)
(0.00137398 -3.75809e-05 0)
(0.00136938 -3.77924e-05 0)
(0.0013648 -3.77382e-05 0)
(0.00136026 -3.74365e-05 0)
(0.00135576 -3.69066e-05 0)
(0.00135131 -3.6168e-05 0)
(0.00134691 -3.52408e-05 0)
(0.00134256 -3.41448e-05 0)
(0.00133827 -3.28996e-05 0)
(0.00133404 -3.1524e-05 0)
(0.00132986 -3.00371e-05 0)
(0.00132574 -2.84566e-05 0)
(0.00129873 0.000145807 0)
(0.00130683 0.000159877 0)
(0.00131614 0.000173873 0)
(0.00132613 0.000187565 0)
(0.00133641 0.000200797 0)
(0.00134679 0.000213477 0)
(0.00135717 0.000225557 0)
(0.00136758 0.000237003 0)
(0.00137802 0.000247778 0)
(0.00138848 0.000257831 0)
(0.00139892 0.000267104 0)
(0.00140928 0.000275541 0)
(0.00141949 0.000283089 0)
(0.00142947 0.000289708 0)
(0.00143918 0.000295371 0)
(0.00144855 0.000300059 0)
(0.00145752 0.000303766 0)
(0.00146607 0.000306497 0)
(0.00147416 0.000308261 0)
(0.00148176 0.000309079 0)
(0.00148885 0.000308977 0)
(0.00149541 0.000307986 0)
(0.00150144 0.000306146 0)
(0.00150692 0.000303498 0)
(0.00151187 0.000300087 0)
(0.00151628 0.000295963 0)
(0.00152019 0.000291181 0)
(0.00152361 0.0002858 0)
(0.00152658 0.000279877 0)
(0.00152912 0.000273472 0)
(0.00153127 0.000266642 0)
(0.00153307 0.00025944 0)
(0.00153453 0.000251918 0)
(0.0015357 0.000244121 0)
(0.00153659 0.000236094 0)
(0.00153725 0.000227877 0)
(0.00153768 0.000219507 0)
(0.00153792 0.000211019 0)
(0.00153798 0.000202447 0)
(0.00153789 0.000193819 0)
(0.00153766 0.000185163 0)
(0.00153731 0.000176504 0)
(0.00153684 0.000167862 0)
(0.00153628 0.000159257 0)
(0.00153562 0.000150705 0)
(0.00153486 0.000142221 0)
(0.00153402 0.000133816 0)
(0.00153309 0.000125502 0)
(0.00153206 0.000117287 0)
(0.00153093 0.000109184 0)
(0.0015297 0.0001012 0)
(0.00152835 9.33459e-05 0)
(0.00152689 8.56311e-05 0)
(0.0015253 7.80677e-05 0)
(0.00152358 7.06655e-05 0)
(0.00152171 6.34376e-05 0)
(0.0015197 5.63958e-05 0)
(0.00151752 4.95533e-05 0)
(0.00151518 4.29244e-05 0)
(0.00151267 3.65212e-05 0)
(0.00150998 3.03611e-05 0)
(0.00150712 2.44538e-05 0)
(0.00150409 1.88199e-05 0)
(0.00150088 1.34687e-05 0)
(0.0014975 8.42049e-06 0)
(0.00149396 3.69387e-06 0)
(0.00149029 -6.97408e-07 0)
(0.00148646 -4.7526e-06 0)
(0.00148247 -8.467e-06 0)
(0.00147835 -1.18407e-05 0)
(0.00147412 -1.48761e-05 0)
(0.00146979 -1.75768e-05 0)
(0.00146538 -1.99474e-05 0)
(0.0014609 -2.1992e-05 0)
(0.00145636 -2.37149e-05 0)
(0.00145177 -2.5122e-05 0)
(0.00144713 -2.62224e-05 0)
(0.00144247 -2.7028e-05 0)
(0.00143778 -2.75517e-05 0)
(0.00143309 -2.78073e-05 0)
(0.0014284 -2.78096e-05 0)
(0.00142372 -2.75747e-05 0)
(0.00141906 -2.71207e-05 0)
(0.00141443 -2.64652e-05 0)
(0.00140982 -2.56261e-05 0)
(0.00140526 -2.46214e-05 0)
(0.00140073 -2.34695e-05 0)
(0.00139626 -2.21882e-05 0)
(0.00139183 -2.07956e-05 0)
(0.00138746 -1.93092e-05 0)
(0.000897223 0.00012188 0)
(0.000908964 0.000135176 0)
(0.000922032 0.000148358 0)
(0.000935878 0.000161182 0)
(0.000950233 0.000173529 0)
(0.000965013 0.000185367 0)
(0.000980237 0.000196691 0)
(0.000995936 0.000207492 0)
(0.00101211 0.000217735 0)
(0.00102873 0.000227374 0)
(0.00104574 0.000236354 0)
(0.00106306 0.000244623 0)
(0.00108063 0.000252136 0)
(0.00109837 0.000258856 0)
(0.00111621 0.000264757 0)
(0.00113406 0.000269818 0)
(0.00115187 0.000274028 0)
(0.00116956 0.000277379 0)
(0.00118706 0.000279873 0)
(0.0012043 0.000281515 0)
(0.00122123 0.000282318 0)
(0.0012378 0.000282299 0)
(0.00125394 0.000281484 0)
(0.00126963 0.000279904 0)
(0.00128482 0.000277599 0)
(0.0012995 0.000274611 0)
(0.00131364 0.000270986 0)
(0.00132724 0.000266772 0)
(0.00134027 0.000262015 0)
(0.00135274 0.000256764 0)
(0.00136464 0.000251066 0)
(0.00137597 0.000244966 0)
(0.00138674 0.000238509 0)
(0.00139695 0.000231737 0)
(0.0014066 0.000224691 0)
(0.00141572 0.000217411 0)
(0.0014243 0.000209935 0)
(0.00143236 0.0002023 0)
(0.00143992 0.00019454 0)
(0.00144698 0.000186687 0)
(0.00145356 0.000178769 0)
(0.00145968 0.000170814 0)
(0.00146533 0.000162844 0)
(0.00147055 0.000154882 0)
(0.00147532 0.000146946 0)
(0.00147968 0.000139054 0)
(0.00148361 0.000131222 0)
(0.00148714 0.000123467 0)
(0.00149027 0.0001158 0)
(0.00149301 0.000108236 0)
(0.00149536 0.000100788 0)
(0.00149733 9.34673e-05 0)
(0.00149893 8.62863e-05 0)
(0.00150016 7.92566e-05 0)
(0.00150102 7.23902e-05 0)
(0.00150152 6.56988e-05 0)
(0.00150166 5.91946e-05 0)
(0.00150146 5.28895e-05 0)
(0.00150091 4.6796e-05 0)
(0.00150003 4.0926e-05 0)
(0.00149882 3.52922e-05 0)
(0.00149729 2.99062e-05 0)
(0.00149545 2.47797e-05 0)
(0.00149332 1.99241e-05 0)
(0.0014909 1.53484e-05 0)
(0.00148822 1.10621e-05 0)
(0.00148528 7.07004e-06 0)
(0.00148211 3.37489e-06 0)
(0.00147873 -1.20009e-08 0)
(0.00147513 -3.08505e-06 0)
(0.00147133 -5.8417e-06 0)
(0.00146734 -8.28333e-06 0)
(0.0014632 -1.04165e-05 0)
(0.00145894 -1.2249e-05 0)
(0.00145457 -1.37915e-05 0)
(0.00145012 -1.50509e-05 0)
(0.00144559 -1.60352e-05 0)
(0.001441 -1.67544e-05 0)
(0.00143637 -1.72198e-05 0)
(0.00143171 -1.7444e-05 0)
(0.00142705 -1.74412e-05 0)
(0.00142239 -1.72258e-05 0)
(0.00141774 -1.6812e-05 0)
(0.00141313 -1.62144e-05 0)
(0.00140855 -1.54483e-05 0)
(0.00140403 -1.45301e-05 0)
(0.00139957 -1.34764e-05 0)
(0.00139518 -1.23041e-05 0)
(0.00139086 -1.10298e-05 0)
(0.00138663 -9.66843e-06 0)
(0.000466618 9.48998e-05 0)
(0.000479926 0.000106891 0)
(0.000494377 0.000118392 0)
(0.000509627 0.0001294 0)
(0.000525607 0.000139978 0)
(0.000542409 0.000150136 0)
(0.000560056 0.000159899 0)
(0.000578547 0.000169243 0)
(0.000597843 0.000178131 0)
(0.000617894 0.000186517 0)
(0.000638646 0.000194358 0)
(0.000660036 0.000201613 0)
(0.000682003 0.000208252 0)
(0.000704473 0.000214247 0)
(0.000727374 0.000219576 0)
(0.000750626 0.000224221 0)
(0.00077415 0.00022817 0)
(0.000797863 0.000231414 0)
(0.000821684 0.00023395 0)
(0.000845533 0.000235779 0)
(0.000869332 0.000236912 0)
(0.000893007 0.000237365 0)
(0.000916488 0.000237157 0)
(0.00093971 0.000236314 0)
(0.00096261 0.000234863 0)
(0.000985134 0.000232836 0)
(0.00100723 0.000230265 0)
(0.00102885 0.000227183 0)
(0.00104996 0.000223625 0)
(0.00107051 0.000219626 0)
(0.00109047 0.000215223 0)
(0.00110982 0.000210454 0)
(0.00112854 0.000205354 0)
(0.0011466 0.00019996 0)
(0.00116398 0.000194307 0)
(0.00118069 0.000188427 0)
(0.0011967 0.000182354 0)
(0.00121201 0.000176118 0)
(0.00122663 0.00016975 0)
(0.00124055 0.000163277 0)
(0.00125376 0.000156726 0)
(0.00126628 0.000150118 0)
(0.00127811 0.000143478 0)
(0.00128924 0.000136824 0)
(0.00129969 0.000130177 0)
(0.00130947 0.000123554 0)
(0.00131858 0.00011697 0)
(0.00132703 0.000110441 0)
(0.00133483 0.000103982 0)
(0.00134199 9.76059e-05 0)
(0.00134852 9.13245e-05 0)
(0.00135443 8.515e-05 0)
(0.00135973 7.90941e-05 0)
(0.00136444 7.31677e-05 0)
(0.00136855 6.73823e-05 0)
(0.0013721 6.17481e-05 0)
(0.00137509 5.62768e-05 0)
(0.00137753 5.09781e-05 0)
(0.00137944 4.58634e-05 0)
(0.00138084 4.09424e-05 0)
(0.00138175 3.62253e-05 0)
(0.00138218 3.17218e-05 0)
(0.00138215 2.74403e-05 0)
(0.00138168 2.33897e-05 0)
(0.0013808 1.95765e-05 0)
(0.00137953 1.60076e-05 0)
(0.0013779 1.26873e-05 0)
(0.00137592 9.62075e-06 0)
(0.00137363 6.80646e-06 0)
(0.00137105 4.24726e-06 0)
(0.00136821 1.94833e-06 0)