/*--------------------------------*- C++ -*----------------------------------*\
| =========                 |                                                 |
| \\      /  F ield         | OpenFOAM: The Open Source CFD Toolbox           |
|  \\    /   O peration     | Version:  2312                                  |
|   \\  /    A nd           | Website:  www.openfoam.com                      |
|    \\/     M anipulation  |                                                 |
\*---------------------------------------------------------------------------*/
FoamFile
{
    version     2.0;
    format      ascii;
    arch        "LSB;label=32;scalar=64";
    class       volVectorField;
    location    "51000";
    object      U;
}
// * * * * * * * * * * * * * * * * * * * * * * * * * * * * * * * * * * * * * //

dimensions      [0 1 -1 0 0 0 0];

internalField   nonuniform List<vector> 
10800
(
(0.000992484 4.94184e-06 0)
(0.000990038 1.24576e-05 0)
(0.000986873 1.74788e-05 0)
(0.000980501 2.06624e-05 0)
(0.000971089 2.27454e-05 0)
(0.000959799 2.42389e-05 0)
(0.0009477 2.53777e-05 0)
(0.000935324 2.62368e-05 0)
(0.000922816 2.68404e-05 0)
(0.000910153 2.72136e-05 0)
(0.00089729 2.7394e-05 0)
(0.000884224 2.74246e-05 0)
(0.000870991 2.73434e-05 0)
(0.000857646 2.71783e-05 0)
(0.000844241 2.69477e-05 0)
(0.000830814 2.66631e-05 0)
(0.00081739 2.63326e-05 0)
(0.000803989 2.59627e-05 0)
(0.000790625 2.55589e-05 0)
(0.000777314 2.5126e-05 0)
(0.00076407 2.46679e-05 0)
(0.00075091 2.41877e-05 0)
(0.000737846 2.36873e-05 0)
(0.000724894 2.31688e-05 0)
(0.000712066 2.2633e-05 0)
(0.000699375 2.20813e-05 0)
(0.000686834 2.1514e-05 0)
(0.000674454 2.09325e-05 0)
(0.00066225 2.03361e-05 0)
(0.000650232 1.97267e-05 0)
(0.000638414 1.91029e-05 0)
(0.000626808 1.84673e-05 0)
(0.000615428 1.78172e-05 0)
(0.000604283 1.71568e-05 0)
(0.00059339 1.64815e-05 0)
(0.000582756 1.5798e-05 0)
(0.000572401 1.50988e-05 0)
(0.000562329 1.43947e-05 0)
(0.000552563 1.36729e-05 0)
(0.000543098 1.29514e-05 0)
(0.000533974 1.22084e-05 0)
(0.000525162 1.14739e-05 0)
(0.000516732 1.07106e-05 0)
(0.000508612 9.969e-06 0)
(0.000500938 9.18458e-06 0)
(0.000493531 8.44293e-06 0)
(0.0004867 7.63348e-06 0)
(0.000479986 6.8987e-06 0)
(0.000474156 6.05536e-06 0)
(0.000467992 5.32595e-06 0)
(0.000463545 4.44014e-06 0)
(0.000457424 3.66896e-06 0)
(0.000455415 2.77906e-06 0)
(0.0004477 1.7173e-06 0)
(0.000451264 1.14995e-06 0)
(0.000436876 -1.26697e-06 0)
(0.000455311 1.12004e-07 0)
(0.000419335 -7.73038e-06 0)
(0.000477709 2.03552e-06 0)
(0.000382969 -2.44889e-05 0)
(0.00100003 5.80207e-06 0)
(0.00100172 1.49922e-05 0)
(0.00100423 2.15224e-05 0)
(0.00100706 2.60848e-05 0)
(0.00100979 2.94423e-05 0)
(0.00101219 3.2123e-05 0)
(0.00101421 3.43746e-05 0)
(0.00101589 3.62835e-05 0)
(0.00101726 3.78823e-05 0)
(0.00101837 3.92017e-05 0)
(0.00101923 4.0283e-05 0)
(0.00101981 4.11721e-05 0)
(0.00102014 4.19094e-05 0)
(0.0010202 4.25251e-05 0)
(0.00102001 4.30391e-05 0)
(0.00101957 4.34641e-05 0)
(0.00101892 4.38088e-05 0)
(0.00101805 4.40799e-05 0)
(0.00101699 4.42829e-05 0)
(0.00101573 4.44226e-05 0)
(0.00101429 4.45027e-05 0)
(0.00101268 4.45257e-05 0)
(0.00101091 4.44937e-05 0)
(0.00100898 4.44078e-05 0)
(0.00100691 4.42691e-05 0)
(0.0010047 4.40775e-05 0)
(0.00100239 4.3834e-05 0)
(0.000999936 4.35375e-05 0)
(0.000997407 4.31896e-05 0)
(0.000994743 4.27874e-05 0)
(0.000992044 4.23344e-05 0)
(0.000989201 4.18248e-05 0)
(0.000986377 4.12658e-05 0)
(0.000983383 4.06465e-05 0)
(0.000980488 3.99809e-05 0)
(0.000977365 3.92492e-05 0)
(0.000974462 3.84776e-05 0)
(0.000971221 3.76299e-05 0)
(0.000968393 3.67548e-05 0)
(0.000965025 3.57861e-05 0)
(0.000962385 3.48133e-05 0)
(0.000958842 3.37156e-05 0)
(0.000956555 3.26562e-05 0)
(0.000952728 3.14153e-05 0)
(0.000951046 3.02891e-05 0)
(0.000946711 2.88792e-05 0)
(0.00094604 2.77206e-05 0)
(0.000940773 2.60939e-05 0)
(0.000941779 2.49617e-05 0)
(0.000934808 2.30313e-05 0)
(0.000938607 2.2025e-05 0)
(0.000928548 1.96364e-05 0)
(0.000937021 1.89215e-05 0)
(0.000921427 1.58114e-05 0)
(0.000937764 1.5648e-05 0)
(0.000912338 1.14065e-05 0)
(0.000941956 1.21278e-05 0)
(0.000899242 6.28572e-06 0)
(0.000951496 7.91292e-06 0)
(0.000878994 8.65552e-07 0)
(0.000999989 1.96266e-06 0)
(0.00100078 5.7643e-06 0)
(0.00100224 9.28947e-06 0)
(0.00100423 1.24543e-05 0)
(0.00100654 1.52561e-05 0)
(0.00100897 1.774e-05 0)
(0.00101139 1.99606e-05 0)
(0.00101376 2.19611e-05 0)
(0.00101607 2.37686e-05 0)
(0.00101833 2.53998e-05 0)
(0.00102055 2.68679e-05 0)
(0.00102272 2.81864e-05 0)
(0.00102483 2.93695e-05 0)
(0.00102688 3.04311e-05 0)
(0.00102887 3.13838e-05 0)
(0.00103078 3.22371e-05 0)
(0.00103264 3.29994e-05 0)
(0.00103442 3.36761e-05 0)
(0.00103615 3.42731e-05 0)
(0.00103781 3.47934e-05 0)
(0.00103942 3.52417e-05 0)
(0.00104096 3.56191e-05 0)
(0.00104246 3.59299e-05 0)
(0.00104389 3.61732e-05 0)
(0.00104529 3.63533e-05 0)
(0.00104661 3.64669e-05 0)
(0.00104791 3.65197e-05 0)
(0.00104912 3.65051e-05 0)
(0.00105033 3.64317e-05 0)
(0.00105143 3.62884e-05 0)
(0.00105256 3.60884e-05 0)
(0.00105356 3.58141e-05 0)
(0.00105462 3.54866e-05 0)
(0.00105551 3.5078e-05 0)
(0.00105653 3.46218e-05 0)
(0.0010573 3.40744e-05 0)
(0.0010583 3.34888e-05 0)
(0.00105893 3.27973e-05 0)
(0.00105995 3.20831e-05 0)
(0.00106043 3.1241e-05 0)
(0.00106153 3.04007e-05 0)
(0.00106179 2.94e-05 0)
(0.00106306 2.84389e-05 0)
(0.00106304 2.72696e-05 0)
(0.00106461 2.61969e-05 0)
(0.00106418 2.48463e-05 0)
(0.00106624 2.36761e-05 0)
(0.00106519 2.21283e-05 0)
(0.00106803 2.08815e-05 0)
(0.00106603 1.91186e-05 0)
(0.0010701 1.78244e-05 0)
(0.00106663 1.58305e-05 0)
(0.00107257 1.45277e-05 0)
(0.00106684 1.2303e-05 0)
(0.00107565 1.10411e-05 0)
(0.00106643 8.63813e-06 0)
(0.0010796 7.47809e-06 0)
(0.00106502 5.09737e-06 0)
(0.00108485 4.06851e-06 0)
(0.00106214 2.21491e-06 0)
(0.00100001 1.74175e-06 0)
(0.00100047 5.15971e-06 0)
(0.00100128 8.42083e-06 0)
(0.00100239 1.14488e-05 0)
(0.00100374 1.42027e-05 0)
(0.00100526 1.66797e-05 0)
(0.00100689 1.89014e-05 0)
(0.00100858 2.08976e-05 0)
(0.00101033 2.26953e-05 0)
(0.00101212 2.43154e-05 0)
(0.00101393 2.57734e-05 0)
(0.00101578 2.70822e-05 0)
(0.00101764 2.82542e-05 0)
(0.00101951 2.93011e-05 0)
(0.00102139 3.02349e-05 0)
(0.00102327 3.10654e-05 0)
(0.00102515 3.18021e-05 0)
(0.00102702 3.24516e-05 0)
(0.0010289 3.30205e-05 0)
(0.00103077 3.35129e-05 0)
(0.00103263 3.39336e-05 0)
(0.00103449 3.42849e-05 0)
(0.00103635 3.45706e-05 0)
(0.0010382 3.47912e-05 0)
(0.00104006 3.49502e-05 0)
(0.00104189 3.50463e-05 0)
(0.00104374 3.5083e-05 0)
(0.00104556 3.50572e-05 0)
(0.0010474 3.49731e-05 0)
(0.00104921 3.48255e-05 0)
(0.00105103 3.46198e-05 0)
(0.00105282 3.43486e-05 0)
(0.00105465 3.4019e-05 0)
(0.00105641 3.3621e-05 0)
(0.00105823 3.31642e-05 0)
(0.00105996 3.26354e-05 0)
(0.00106178 3.20472e-05 0)
(0.00106348 3.1383e-05 0)
(0.00106531 3.06588e-05 0)
(0.00106696 2.9855e-05 0)
(0.0010688 2.89896e-05 0)
(0.0010704 2.80423e-05 0)
(0.00107228 2.70304e-05 0)
(0.0010738 2.59374e-05 0)
(0.00107574 2.47724e-05 0)
(0.00107717 2.35346e-05 0)
(0.0010792 2.22087e-05 0)
(0.0010805 2.08322e-05 0)
(0.00108269 1.9335e-05 0)
(0.00108382 1.78358e-05 0)
(0.00108623 1.61536e-05 0)
(0.00108712 1.45664e-05 0)
(0.00108986 1.26812e-05 0)
(0.00109041 1.10745e-05 0)
(0.00109362 8.96329e-06 0)
(0.00109368 7.4628e-06 0)
(0.00109755 5.09039e-06 0)
(0.00109691 3.90248e-06 0)
(0.00110171 1.18205e-06 0)
(0.00110004 5.9453e-07 0)
(0.001 1.15331e-06 0)
(0.00100023 3.43249e-06 0)
(0.00100067 5.64615e-06 0)
(0.00100134 7.76257e-06 0)
(0.0010022 9.76041e-06 0)
(0.00100323 1.16294e-05 0)
(0.00100441 1.33681e-05 0)
(0.00100569 1.49807e-05 0)
(0.00100705 1.64731e-05 0)
(0.00100848 1.78516e-05 0)
(0.00100996 1.91215e-05 0)
(0.00101149 2.02877e-05 0)
(0.00101305 2.13549e-05 0)
(0.00101465 2.23281e-05 0)
(0.00101626 2.32121e-05 0)
(0.0010179 2.40119e-05 0)
(0.00101956 2.47319e-05 0)
(0.00102122 2.53759e-05 0)
(0.0010229 2.59474e-05 0)
(0.00102459 2.64492e-05 0)
(0.00102628 2.68835e-05 0)
(0.00102799 2.72525e-05 0)
(0.0010297 2.75577e-05 0)
(0.00103141 2.78004e-05 0)
(0.00103313 2.79814e-05 0)
(0.00103485 2.81018e-05 0)
(0.00103658 2.81611e-05 0)
(0.00103831 2.81606e-05 0)
(0.00104004 2.80988e-05 0)
(0.00104178 2.79772e-05 0)
(0.00104352 2.77928e-05 0)
(0.00104526 2.75484e-05 0)
(0.001047 2.72385e-05 0)
(0.00104874 2.68685e-05 0)
(0.00105048 2.64289e-05 0)
(0.00105222 2.59301e-05 0)
(0.00105397 2.53554e-05 0)
(0.0010557 2.4724e-05 0)
(0.00105745 2.40077e-05 0)
(0.00105918 2.32404e-05 0)
(0.00106092 2.23746e-05 0)
(0.00106265 2.14692e-05 0)
(0.00106438 2.04444e-05 0)
(0.00106611 1.94006e-05 0)
(0.00106783 1.82052e-05 0)
(0.00106956 1.70265e-05 0)
(0.00107127 1.56459e-05 0)
(0.00107302 1.43424e-05 0)
(0.00107471 1.27571e-05 0)
(0.00107649 1.13485e-05 0)
(0.00107817 9.53083e-06 0)
(0.00108001 8.05066e-06 0)
(0.00108167 5.95798e-06 0)
(0.00108364 4.4598e-06 0)
(0.0010853 2.02569e-06 0)
(0.00108749 5.99535e-07 0)
(0.00108913 -2.26778e-06 0)
(0.00109164 -3.46874e-06 0)
(0.00109314 -6.90794e-06 0)
(0.00109596 -7.66474e-06 0)
(0.001 9.2727e-07 0)
(0.00100017 2.77305e-06 0)
(0.00100051 4.59162e-06 0)
(0.001001 6.36409e-06 0)
(0.00100165 8.07301e-06 0)
(0.00100242 9.70449e-06 0)
(0.00100331 1.12493e-05 0)
(0.0010043 1.27025e-05 0)
(0.00100537 1.40627e-05 0)
(0.00100651 1.53301e-05 0)
(0.0010077 1.65064e-05 0)
(0.00100895 1.75935e-05 0)
(0.00101024 1.85936e-05 0)
(0.00101158 1.95093e-05 0)
(0.00101294 2.03434e-05 0)
(0.00101434 2.10988e-05 0)
(0.00101576 2.17784e-05 0)
(0.0010172 2.23851e-05 0)
(0.00101866 2.29214e-05 0)
(0.00102014 2.33898e-05 0)
(0.00102163 2.37919e-05 0)
(0.00102313 2.41301e-05 0)
(0.00102465 2.44051e-05 0)
(0.00102617 2.46189e-05 0)
(0.00102771 2.47716e-05 0)
(0.00102925 2.4865e-05 0)
(0.00103079 2.48981e-05 0)
(0.00103235 2.4873e-05 0)
(0.0010339 2.47873e-05 0)
(0.00103546 2.46441e-05 0)
(0.00103702 2.44387e-05 0)
(0.00103859 2.41762e-05 0)
(0.00104015 2.38486e-05 0)
(0.00104172 2.34644e-05 0)
(0.00104329 2.30109e-05 0)
(0.00104486 2.25018e-05 0)
(0.00104641 2.19169e-05 0)
(0.00104798 2.12791e-05 0)
(0.00104953 2.05563e-05 0)
(0.0010511 1.97857e-05 0)
(0.00105264 1.89167e-05 0)
(0.00105421 1.80094e-05 0)
(0.00105573 1.6984e-05 0)
(0.00105731 1.59371e-05 0)
(0.00105881 1.47428e-05 0)
(0.0010604 1.35549e-05 0)
(0.00106189 1.21756e-05 0)
(0.00106351 1.08486e-05 0)
(0.00106497 9.26344e-06 0)
(0.00106665 7.80501e-06 0)
(0.00106807 5.98688e-06 0)
(0.00106984 4.41517e-06 0)
(0.0010712 2.32814e-06 0)
(0.0010731 6.74173e-07 0)
(0.00107437 -1.74026e-06 0)
(0.00107649 -3.4373e-06 0)
(0.00107765 -6.28186e-06 0)
(0.00108012 -7.96466e-06 0)
(0.00108104 -1.13868e-05 0)
(0.00108384 -1.29532e-05 0)
(0.001 7.32877e-07 0)
(0.00100013 2.19207e-06 0)
(0.00100037 3.63172e-06 0)
(0.00100074 5.03915e-06 0)
(0.00100121 6.40295e-06 0)
(0.0010018 7.71379e-06 0)
(0.00100248 8.96477e-06 0)
(0.00100326 1.01514e-05 0)
(0.00100411 1.12711e-05 0)
(0.00100503 1.23228e-05 0)
(0.00100601 1.33062e-05 0)
(0.00100705 1.42218e-05 0)
(0.00100813 1.50703e-05 0)
(0.00100926 1.58525e-05 0)
(0.00101043 1.65695e-05 0)
(0.00101163 1.72226e-05 0)
(0.00101286 1.78128e-05 0)
(0.00101412 1.83417e-05 0)
(0.0010154 1.88104e-05 0)
(0.0010167 1.92202e-05 0)
(0.00101802 1.95718e-05 0)
(0.00101935 1.98666e-05 0)
(0.0010207 2.01047e-05 0)
(0.00102206 2.02875e-05 0)
(0.00102343 2.04143e-05 0)
(0.00102481 2.04867e-05 0)
(0.00102619 2.05031e-05 0)
(0.00102758 2.04653e-05 0)
(0.00102897 2.03708e-05 0)
(0.00103037 2.0222e-05 0)
(0.00103176 2.00146e-05 0)
(0.00103316 1.97526e-05 0)
(0.00103455 1.94291e-05 0)
(0.00103595 1.90506e-05 0)
(0.00103734 1.86065e-05 0)
(0.00103873 1.81073e-05 0)
(0.0010401 1.75365e-05 0)
(0.00104148 1.69114e-05 0)
(0.00104284 1.62065e-05 0)
(0.00104421 1.54496e-05 0)
(0.00104555 1.46011e-05 0)
(0.00104691 1.3706e-05 0)
(0.00104823 1.27026e-05 0)
(0.00104958 1.16624e-05 0)
(0.00105086 1.04898e-05 0)
(0.00105221 9.29791e-06 0)
(0.00105346 7.93771e-06 0)
(0.00105481 6.58784e-06 0)
(0.00105602 5.01571e-06 0)
(0.00105739 3.5025e-06 0)
(0.00105857 1.68498e-06 0)
(0.00106 6.32348e-09 0)
(0.00106114 -2.09869e-06 0)
(0.00106269 -3.93111e-06 0)
(0.00106377 -6.3736e-06 0)
(0.00106547 -8.33361e-06 0)
(0.00106643 -1.1195e-05 0)
(0.00106835 -1.32496e-05 0)
(0.00106909 -1.66635e-05 0)
(0.00107119 -1.8755e-05 0)
(0.001 5.83932e-07 0)
(0.0010001 1.74776e-06 0)
(0.00100029 2.89966e-06 0)
(0.00100057 4.03172e-06 0)
(0.00100095 5.13647e-06 0)
(0.00100142 6.2072e-06 0)
(0.00100197 7.23828e-06 0)
(0.00100259 8.22526e-06 0)
(0.00100329 9.1648e-06 0)
(0.00100405 1.00546e-05 0)
(0.00100487 1.0893e-05 0)
(0.00100574 1.16793e-05 0)
(0.00100667 1.24127e-05 0)
(0.00100763 1.3093e-05 0)
(0.00100864 1.372e-05 0)
(0.00100968 1.42938e-05 0)
(0.00101075 1.48146e-05 0)
(0.00101185 1.52828e-05 0)
(0.00101298 1.56986e-05 0)
(0.00101412 1.60626e-05 0)
(0.00101529 1.63748e-05 0)
(0.00101647 1.66359e-05 0)
(0.00101767 1.68457e-05 0)
(0.00101888 1.70049e-05 0)
(0.0010201 1.71129e-05 0)
(0.00102132 1.71704e-05 0)
(0.00102256 1.71763e-05 0)
(0.00102379 1.71314e-05 0)
(0.00102503 1.70339e-05 0)
(0.00102627 1.68849e-05 0)
(0.00102751 1.66817e-05 0)
(0.00102875 1.6426e-05 0)
(0.00102999 1.61134e-05 0)
(0.00103122 1.57472e-05 0)
(0.00103244 1.53205e-05 0)
(0.00103366 1.48389e-05 0)
(0.00103486 1.4292e-05 0)
(0.00103606 1.36888e-05 0)
(0.00103723 1.30139e-05 0)
(0.00103841 1.2282e-05 0)
(0.00103956 1.14696e-05 0)
(0.00104071 1.06004e-05 0)
(0.00104182 9.63879e-06 0)
(0.00104295 8.6225e-06 0)
(0.00104402 7.49736e-06 0)
(0.00104512 6.32317e-06 0)
(0.00104615 5.0169e-06 0)
(0.00104724 3.67322e-06 0)
(0.00104821 2.1642e-06 0)
(0.00104929 6.38936e-07 0)
(0.0010502 -1.10053e-06 0)
(0.00105128 -2.82098e-06 0)
(0.00105213 -4.83155e-06 0)
(0.00105325 -6.76589e-06 0)
(0.00105403 -9.10402e-06 0)
(0.00105524 -1.12666e-05 0)
(0.00105591 -1.40004e-05 0)
(0.00105722 -1.63952e-05 0)
(0.00105765 -1.96186e-05 0)
(0.00105899 -2.22362e-05 0)
(0.001 4.66444e-07 0)
(0.00100008 1.3967e-06 0)
(0.00100024 2.31901e-06 0)
(0.00100047 3.228e-06 0)
(0.00100078 4.11841e-06 0)
(0.00100116 4.98536e-06 0)
(0.00100162 5.82447e-06 0)
(0.00100214 6.63203e-06 0)
(0.00100272 7.40491e-06 0)
(0.00100337 8.14063e-06 0)
(0.00100406 8.83713e-06 0)
(0.00100481 9.4928e-06 0)
(0.0010056 1.01064e-05 0)
(0.00100644 1.06771e-05 0)
(0.00100731 1.12042e-05 0)
(0.00100822 1.16873e-05 0)
(0.00100915 1.21261e-05 0)
(0.00101012 1.25205e-05 0)
(0.00101111 1.28703e-05 0)
(0.00101212 1.31757e-05 0)
(0.00101316 1.34364e-05 0)
(0.00101421 1.36525e-05 0)
(0.00101527 1.38238e-05 0)
(0.00101634 1.39503e-05 0)
(0.00101743 1.40317e-05 0)
(0.00101852 1.40679e-05 0)
(0.00101962 1.40581e-05 0)
(0.00102072 1.40025e-05 0)
(0.00102182 1.38998e-05 0)
(0.00102292 1.37501e-05 0)
(0.00102402 1.35516e-05 0)
(0.00102511 1.33045e-05 0)
(0.0010262 1.30064e-05 0)
(0.00102728 1.26577e-05 0)
(0.00102835 1.22548e-05 0)
(0.0010294 1.1799e-05 0)
(0.00103044 1.12849e-05 0)
(0.00103147 1.07152e-05 0)
(0.00103248 1.0082e-05 0)
(0.00103347 9.38995e-06 0)
(0.00103443 8.62788e-06 0)
(0.00103538 7.80343e-06 0)
(0.0010363 6.90039e-06 0)
(0.0010372 5.93142e-06 0)
(0.00103806 4.87254e-06 0)
(0.00103891 3.74433e-06 0)
(0.0010397 2.51093e-06 0)
(0.00104051 1.20556e-06 0)
(0.00104122 -2.25479e-07 0)
(0.00104199 -1.7278e-06 0)
(0.00104263 -3.38232e-06 0)
(0.00104335 -5.10294e-06 0)
(0.0010439 -7.01474e-06 0)
(0.0010446 -8.98278e-06 0)
(0.00104503 -1.12001e-05 0)
(0.00104572 -1.34509e-05 0)
(0.00104602 -1.60331e-05 0)
(0.00104671 -1.86014e-05 0)
(0.00104676 -2.16189e-05 0)
(0.00104737 -2.45304e-05 0)
(0.001 3.69174e-07 0)
(0.00100007 1.10565e-06 0)
(0.0010002 1.8365e-06 0)
(0.0010004 2.55791e-06 0)
(0.00100066 3.26612e-06 0)
(0.00100098 3.95754e-06 0)
(0.00100137 4.62884e-06 0)
(0.00100181 5.27705e-06 0)
(0.00100231 5.89955e-06 0)
(0.00100287 6.4941e-06 0)
(0.00100347 7.05876e-06 0)
(0.00100412 7.59193e-06 0)
(0.00100481 8.09228e-06 0)
(0.00100553 8.55873e-06 0)
(0.0010063 8.99043e-06 0)
(0.0010071 9.3867e-06 0)
(0.00100793 9.74701e-06 0)
(0.00100878 1.00709e-05 0)
(0.00100966 1.0358e-05 0)
(0.00101056 1.0608e-05 0)
(0.00101148 1.08207e-05 0)
(0.00101242 1.09956e-05 0)
(0.00101337 1.11326e-05 0)
(0.00101433 1.12312e-05 0)
(0.0010153 1.12912e-05 0)
(0.00101627 1.13121e-05 0)
(0.00101725 1.12933e-05 0)
(0.00101823 1.12343e-05 0)
(0.00101921 1.11345e-05 0)
(0.00102019 1.0993e-05 0)
(0.00102116 1.08089e-05 0)
(0.00102213 1.05813e-05 0)
(0.00102308 1.0309e-05 0)
(0.00102403 9.99079e-06 0)
(0.00102495 9.62521e-06 0)
(0.00102587 9.21055e-06 0)
(0.00102676 8.74529e-06 0)
(0.00102763 8.22707e-06 0)
(0.00102847 7.65429e-06 0)
(0.0010293 7.0237e-06 0)
(0.00103009 6.33378e-06 0)
(0.00103086 5.58001e-06 0)
(0.00103158 4.76126e-06 0)
(0.00103228 3.87107e-06 0)
(0.00103293 2.90935e-06 0)
(0.00103356 1.86658e-06 0)
(0.00103412 7.44886e-07 0)
(0.00103466 -4.70034e-07 0)
(0.00103512 -1.77159e-06 0)
(0.00103558 -3.18261e-06 0)
(0.00103593 -4.69016e-06 0)
(0.0010363 -6.33018e-06 0)
(0.00103652 -8.07617e-06 0)
(0.0010368 -9.98421e-06 0)
(0.00103687 -1.20058e-05 0)
(0.00103705 -1.42297e-05 0)
(0.00103693 -1.65707e-05 0)
(0.00103702 -1.91684e-05 0)
(0.00103663 -2.18765e-05 0)
(0.00103652 -2.49113e-05 0)
(0.001 2.86149e-07 0)
(0.00100006 8.57094e-07 0)
(0.00100017 1.42399e-06 0)
(0.00100034 1.98411e-06 0)
(0.00100057 2.53472e-06 0)
(0.00100085 3.07318e-06 0)
(0.00100119 3.59702e-06 0)
(0.00100158 4.10394e-06 0)
(0.00100202 4.59189e-06 0)
(0.0010025 5.05902e-06 0)
(0.00100303 5.50371e-06 0)
(0.0010036 5.92454e-06 0)
(0.00100421 6.3203e-06 0)
(0.00100486 6.68993e-06 0)
(0.00100554 7.03256e-06 0)
(0.00100625 7.34742e-06 0)
(0.00100699 7.63386e-06 0)
(0.00100776 7.8913e-06 0)
(0.00100855 8.11927e-06 0)
(0.00100936 8.31728e-06 0)
(0.00101018 8.48494e-06 0)
(0.00101103 8.62179e-06 0)
(0.00101188 8.72749e-06 0)
(0.00101274 8.8015e-06 0)
(0.00101362 8.8435e-06 0)
(0.00101449 8.8528e-06 0)
(0.00101537 8.82908e-06 0)
(0.00101625 8.77143e-06 0)
(0.00101713 8.67952e-06 0)
(0.001018 8.55211e-06 0)
(0.00101886 8.3889e-06 0)
(0.00101971 8.18819e-06 0)
(0.00102055 7.94982e-06 0)
(0.00102138 7.67136e-06 0)
(0.00102218 7.353e-06 0)
(0.00102297 6.99123e-06 0)
(0.00102373 6.58694e-06 0)
(0.00102446 6.13495e-06 0)
(0.00102516 5.63742e-06 0)
(0.00102584 5.08665e-06 0)
(0.00102647 4.487e-06 0)
(0.00102707 3.82682e-06 0)
(0.00102762 3.11427e-06 0)
(0.00102814 2.3315e-06 0)
(0.00102859 1.49308e-06 0)
(0.00102901 5.71378e-07 0)
(0.00102935 -4.08261e-07 0)
(0.00102965 -1.48879e-06 0)
(0.00102987 -2.62747e-06 0)
(0.00103005 -3.89308e-06 0)
(0.00103012 -5.2142e-06 0)
(0.00103016 -6.69946e-06 0)
(0.00103006 -8.22971e-06 0)
(0.00102994 -9.97757e-06 0)
(0.00102964 -1.17465e-05 0)
(0.00102935 -1.38122e-05 0)
(0.00102881 -1.58522e-05 0)
(0.00102833 -1.8307e-05 0)
(0.00102747 -2.06481e-05 0)
(0.0010267 -2.35771e-05 0)
(0.001 2.13326e-07 0)
(0.00100005 6.39014e-07 0)
(0.00100015 1.06183e-06 0)
(0.00100031 1.47984e-06 0)
(0.00100051 1.8911e-06 0)
(0.00100076 2.29373e-06 0)
(0.00100106 2.68593e-06 0)
(0.00100141 3.066e-06 0)
(0.0010018 3.43242e-06 0)
(0.00100223 3.78376e-06 0)
(0.00100271 4.11875e-06 0)
(0.00100322 4.43625e-06 0)
(0.00100377 4.73526e-06 0)
(0.00100436 5.01484e-06 0)
(0.00100498 5.27424e-06 0)
(0.00100562 5.51273e-06 0)
(0.00100629 5.7297e-06 0)
(0.00100699 5.92457e-06 0)
(0.00100771 6.09688e-06 0)
(0.00100844 6.2461e-06 0)
(0.0010092 6.37187e-06 0)
(0.00100996 6.47366e-06 0)
(0.00101074 6.55116e-06 0)
(0.00101153 6.6038e-06 0)
(0.00101232 6.6313e-06 0)
(0.00101312 6.63293e-06 0)
(0.00101392 6.6085e-06 0)
(0.00101471 6.557e-06 0)
(0.0010155 6.47834e-06 0)
(0.00101628 6.37115e-06 0)
(0.00101706 6.2355e-06 0)
(0.00101782 6.06945e-06 0)
(0.00101856 5.8734e-06 0)
(0.00101929 5.64454e-06 0)
(0.00101999 5.38392e-06 0)
(0.00102067 5.08737e-06 0)
(0.00102132 4.75704e-06 0)
(0.00102194 4.38671e-06 0)
(0.00102252 3.98043e-06 0)
(0.00102306 3.52877e-06 0)
(0.00102356 3.03898e-06 0)
(0.00102402 2.4966e-06 0)
(0.00102443 1.91423e-06 0)
(0.00102478 1.26942e-06 0)
(0.00102507 5.83634e-07 0)
(0.0010253 -1.78312e-07 0)
(0.00102545 -9.80469e-07 0)
(0.00102555 -1.87834e-06 0)
(0.00102555 -2.81294e-06 0)
(0.00102548 -3.87212e-06 0)
(0.0010253 -4.95802e-06 0)
(0.00102504 -6.21037e-06 0)
(0.00102465 -7.46825e-06 0)
(0.00102418 -8.95528e-06 0)
(0.00102354 -1.04078e-05 0)
(0.00102283 -1.21848e-05 0)
(0.0010219 -1.38547e-05 0)
(0.00102091 -1.59951e-05 0)
(0.00101961 -1.78986e-05 0)
(0.00101824 -2.04948e-05 0)
(0.001 1.47705e-07 0)
(0.00100005 4.42462e-07 0)
(0.00100014 7.3529e-07 0)
(0.00100028 1.02489e-06 0)
(0.00100047 1.30997e-06 0)
(0.0010007 1.58925e-06 0)
(0.00100097 1.86151e-06 0)
(0.00100129 2.12559e-06 0)
(0.00100165 2.38043e-06 0)
(0.00100205 2.62502e-06 0)
(0.00100249 2.85847e-06 0)
(0.00100296 3.07992e-06 0)
(0.00100347 3.28864e-06 0)
(0.00100401 3.48394e-06 0)
(0.00100458 3.66521e-06 0)
(0.00100517 3.83189e-06 0)
(0.00100579 3.98349e-06 0)
(0.00100644 4.11954e-06 0)
(0.0010071 4.23966e-06 0)
(0.00100779 4.34339e-06 0)
(0.00100848 4.43046e-06 0)
(0.0010092 4.50039e-06 0)
(0.00100992 4.55295e-06 0)
(0.00101065 4.58762e-06 0)
(0.00101138 4.60423e-06 0)
(0.00101211 4.60213e-06 0)
(0.00101285 4.58121e-06 0)
(0.00101358 4.5406e-06 0)
(0.00101431 4.48031e-06 0)
(0.00101502 4.39915e-06 0)
(0.00101573 4.29731e-06 0)
(0.00101641 4.17308e-06 0)
(0.00101708 4.02703e-06 0)
(0.00101773 3.85666e-06 0)
(0.00101836 3.66316e-06 0)
(0.00101895 3.44281e-06 0)
(0.00101951 3.1979e-06 0)
(0.00102004 2.92282e-06 0)
(0.00102053 2.62169e-06 0)
(0.00102097 2.28594e-06 0)
(0.00102137 1.92278e-06 0)
(0.00102172 1.51896e-06 0)
(0.001022 1.08678e-06 0)
(0.00102223 6.05607e-07 0)
(0.00102238 9.61395e-08 0)
(0.00102247 -4.74082e-07 0)
(0.00102247 -1.07064e-06 0)
(0.00102239 -1.74542e-06 0)
(0.00102222 -2.44152e-06 0)
(0.00102195 -3.24125e-06 0)
(0.00102156 -4.05073e-06 0)
(0.00102107 -5.00144e-06 0)
(0.00102043 -5.93938e-06 0)
(0.00101968 -7.07573e-06 0)
(0.00101876 -8.15814e-06 0)
(0.0010177 -9.52705e-06 0)
(0.00101644 -1.07688e-05 0)
(0.00101503 -1.24338e-05 0)
(0.00101335 -1.38422e-05 0)
(0.0010115 -1.58854e-05 0)
(0.001 8.68914e-08 0)
(0.00100005 2.60287e-07 0)
(0.00100013 4.32562e-07 0)
(0.00100026 6.02969e-07 0)
(0.00100044 7.70758e-07 0)
(0.00100065 9.35193e-07 0)
(0.00100091 1.09556e-06 0)
(0.00100121 1.2512e-06 0)
(0.00100155 1.40146e-06 0)
(0.00100193 1.54576e-06 0)
(0.00100234 1.68356e-06 0)
(0.00100279 1.81434e-06 0)
(0.00100327 1.93765e-06 0)
(0.00100378 2.05307e-06 0)
(0.00100432 2.16022e-06 0)
(0.00100488 2.25874e-06 0)
(0.00100547 2.34832e-06 0)
(0.00100608 2.42865e-06 0)
(0.00100671 2.49949e-06 0)
(0.00100736 2.56055e-06 0)
(0.00100802 2.61163e-06 0)
(0.0010087 2.65242e-06 0)
(0.00100938 2.68279e-06 0)
(0.00101007 2.70237e-06 0)
(0.00101076 2.71107e-06 0)
(0.00101146 2.70844e-06 0)
(0.00101215 2.69444e-06 0)
(0.00101284 2.66848e-06 0)
(0.00101352 2.6306e-06 0)
(0.00101419 2.57999e-06 0)
(0.00101485 2.51682e-06 0)
(0.00101549 2.43995e-06 0)
(0.00101611 2.34981e-06 0)
(0.0010167 2.24471e-06 0)
(0.00101727 2.12555e-06 0)
(0.00101781 1.98978e-06 0)
(0.00101831 1.83908e-06 0)
(0.00101878 1.66961e-06 0)
(0.0010192 1.48436e-06 0)
(0.00101958 1.2774e-06 0)
(0.0010199 1.05393e-06 0)
(0.00102017 8.04749e-07 0)
(0.00102037 5.38671e-07 0)
(0.00102051 2.41332e-07 0)
(0.00102057 -7.2531e-08 0)
(0.00102055 -4.25549e-07 0)
(0.00102045 -7.93346e-07 0)
(0.00102025 -1.21217e-06 0)
(0.00101995 -1.6417e-06 0)
(0.00101954 -2.13956e-06 0)
(0.00101901 -2.63933e-06 0)
(0.00101834 -3.23333e-06 0)
(0.00101754 -3.81257e-06 0)
(0.00101659 -4.52566e-06 0)
(0.00101546 -5.1939e-06 0)
(0.00101416 -6.05752e-06 0)
(0.00101265 -6.82304e-06 0)
(0.00101095 -7.88025e-06 0)
(0.00100899 -8.74558e-06 0)
(0.0010068 -1.0053e-05 0)
(0.001 2.88402e-08 0)
(0.00100004 8.63775e-08 0)
(0.00100013 1.43532e-07 0)
(0.00100026 2.00059e-07 0)
(0.00100042 2.55714e-07 0)
(0.00100063 3.10255e-07 0)
(0.00100089 3.6345e-07 0)
(0.00100118 4.15076e-07 0)
(0.00100151 4.64924e-07 0)
(0.00100187 5.128e-07 0)
(0.00100227 5.58523e-07 0)
(0.00100271 6.01922e-07 0)
(0.00100317 6.42845e-07 0)
(0.00100367 6.81148e-07 0)
(0.00100419 7.16704e-07 0)
(0.00100474 7.4939e-07 0)
(0.00100531 7.79105e-07 0)
(0.00100591 8.05739e-07 0)
(0.00100652 8.29211e-07 0)
(0.00100715 8.49417e-07 0)
(0.00100779 8.66293e-07 0)
(0.00100845 8.79732e-07 0)
(0.00100911 8.89683e-07 0)
(0.00100978 8.96026e-07 0)
(0.00101046 8.98725e-07 0)
(0.00101113 8.97629e-07 0)
(0.0010118 8.92721e-07 0)
(0.00101247 8.83799e-07 0)
(0.00101313 8.70879e-07 0)
(0.00101378 8.53677e-07 0)
(0.00101441 8.32266e-07 0)
(0.00101502 8.06235e-07 0)
(0.00101562 7.75755e-07 0)
(0.00101619 7.4022e-07 0)
(0.00101673 6.99971e-07 0)
(0.00101724 6.54098e-07 0)
(0.00101771 6.03228e-07 0)
(0.00101815 5.4598e-07 0)
(0.00101854 4.83459e-07 0)
(0.00101888 4.13547e-07 0)
(0.00101916 3.38144e-07 0)
(0.00101939 2.53965e-07 0)
(0.00101955 1.64227e-07 0)
(0.00101964 6.377e-08 0)
(0.00101966 -4.20479e-08 0)
(0.00101959 -1.6143e-07 0)
(0.00101943 -2.85622e-07 0)
(0.00101917 -4.27553e-07 0)
(0.0010188 -5.72705e-07 0)
(0.00101832 -7.41679e-07 0)
(0.00101771 -9.10597e-07 0)
(0.00101696 -1.11253e-06 0)
(0.00101607 -1.30831e-06 0)
(0.00101501 -1.55125e-06 0)
(0.00101377 -1.77707e-06 0)
(0.00101235 -2.07207e-06 0)
(0.00101071 -2.33057e-06 0)
(0.00100885 -2.69286e-06 -3.49887e-38)
(0.00100675 -2.98457e-06 0)
(0.00100437 -3.43433e-06 0)
(0.001 -2.83102e-08 0)
(0.00100004 -8.48367e-08 0)
(0.00100013 -1.4103e-07 0)
(0.00100026 -1.96645e-07 0)
(0.00100042 -2.51438e-07 0)
(0.00100064 -3.05166e-07 0)
(0.00100089 -3.57599e-07 0)
(0.00100118 -4.08513e-07 0)
(0.00100151 -4.57701e-07 0)
(0.00100187 -5.04963e-07 0)
(0.00100227 -5.5012e-07 0)
(0.00100271 -5.93002e-07 0)
(0.00100317 -6.33454e-07 0)
(0.00100367 -6.71331e-07 0)
(0.00100419 -7.06506e-07 0)
(0.00100474 -7.38852e-07 0)
(0.00100531 -7.68266e-07 0)
(0.00100591 -7.94637e-07 0)
(0.00100652 -8.17881e-07 0)
(0.00100715 -8.37893e-07 0)
(0.00100779 -8.54607e-07 0)
(0.00100845 -8.67914e-07 0)
(0.00100911 -8.7776e-07 0)
(0.00100978 -8.84022e-07 0)
(0.00101046 -8.86662e-07 0)
(0.00101113 -8.85525e-07 0)
(0.0010118 -8.80592e-07 0)
(0.00101247 -8.71658e-07 0)
(0.00101313 -8.58738e-07 0)
(0.00101378 -8.41544e-07 0)
(0.00101441 -8.20147e-07 0)
(0.00101502 -7.94133e-07 0)
(0.00101562 -7.63671e-07 0)
(0.00101619 -7.28152e-07 0)
(0.00101673 -6.87912e-07 0)
(0.00101724 -6.42041e-07 0)
(0.00101771 -5.91162e-07 0)
(0.00101815 -5.3389e-07 0)
(0.00101854 -4.71332e-07 0)
(0.00101888 -4.0136e-07 0)
(0.00101916 -3.25885e-07 0)
(0.00101939 -2.41605e-07 0)
(0.00101955 -1.51755e-07 0)
(0.00101964 -5.11458e-08 0)
(0.00101966 5.48397e-08 0)
(0.00101959 1.7446e-07 0)
(0.00101943 2.98957e-07 0)
(0.00101917 4.4123e-07 0)
(0.0010188 5.86744e-07 0)
(0.00101832 7.56117e-07 0)
(0.00101771 9.25483e-07 0)
(0.00101696 1.12792e-06 0)
(0.00101607 1.32426e-06 0)
(0.00101501 1.56782e-06 0)
(0.00101377 1.79432e-06 0)
(0.00101235 2.09006e-06 0)
(0.00101072 2.34939e-06 0)
(0.00100886 2.71255e-06 3.49887e-38)
(0.00100675 3.00523e-06 0)
(0.00100438 3.45601e-06 0)
(0.001 -8.63662e-08 0)
(0.00100005 -2.5876e-07 0)
(0.00100013 -4.30083e-07 0)
(0.00100026 -5.99587e-07 0)
(0.00100044 -7.66522e-07 0)
(0.00100065 -9.30153e-07 0)
(0.00100091 -1.08977e-06 0)
(0.00100121 -1.2447e-06 0)
(0.00100155 -1.39431e-06 0)
(0.00100193 -1.538e-06 0)
(0.00100234 -1.67524e-06 0)
(0.00100279 -1.80551e-06 0)
(0.00100327 -1.92836e-06 0)
(0.00100378 -2.04336e-06 0)
(0.00100432 -2.15014e-06 0)
(0.00100488 -2.24832e-06 0)
(0.00100547 -2.3376e-06 0)
(0.00100608 -2.41768e-06 0)
(0.00100671 -2.48829e-06 0)
(0.00100736 -2.54916e-06 0)
(0.00100802 -2.60008e-06 0)
(0.0010087 -2.64075e-06 0)
(0.00100938 -2.67101e-06 0)
(0.00101007 -2.69051e-06 0)
(0.00101076 -2.69915e-06 0)
(0.00101146 -2.69649e-06 0)
(0.00101215 -2.68246e-06 0)
(0.00101284 -2.65649e-06 0)
(0.00101352 -2.61861e-06 0)
(0.00101419 -2.56801e-06 0)
(0.00101485 -2.50486e-06 0)
(0.00101549 -2.42801e-06 0)
(0.00101611 -2.33789e-06 0)
(0.0010167 -2.2328e-06 0)
(0.00101727 -2.11365e-06 0)
(0.00101781 -1.97788e-06 0)
(0.00101832 -1.82718e-06 0)
(0.00101878 -1.65769e-06 0)
(0.0010192 -1.47239e-06 0)
(0.00101958 -1.26537e-06 0)
(0.0010199 -1.04181e-06 0)
(0.00102017 -7.92524e-07 0)
(0.00102037 -5.26299e-07 0)
(0.00102051 -2.2879e-07 0)
(0.00102057 8.52814e-08 0)
(0.00102056 4.38523e-07 0)
(0.00102045 8.06552e-07 0)
(0.00102026 1.22565e-06 0)
(0.00101995 1.65552e-06 0)
(0.00101954 2.15377e-06 0)
(0.00101901 2.65398e-06 0)
(0.00101835 3.24846e-06 0)
(0.00101754 3.82824e-06 0)
(0.00101659 4.54193e-06 0)
(0.00101546 5.21083e-06 0)
(0.00101416 6.07517e-06 0)
(0.00101266 6.84148e-06 0)
(0.00101095 7.89954e-06 0)
(0.00100899 8.76582e-06 0)
(0.0010068 1.00742e-05 0)
(0.001 -1.47192e-07 0)
(0.00100005 -4.40969e-07 0)
(0.00100014 -7.32867e-07 0)
(0.00100028 -1.02159e-06 0)
(0.00100047 -1.30583e-06 0)
(0.0010007 -1.58432e-06 0)
(0.00100097 -1.85584e-06 0)
(0.00100129 -2.11924e-06 0)
(0.00100165 -2.37344e-06 0)
(0.00100205 -2.61744e-06 0)
(0.00100249 -2.85034e-06 0)
(0.00100296 -3.0713e-06 0)
(0.00100347 -3.27957e-06 0)
(0.00100401 -3.47446e-06 0)
(0.00100458 -3.65536e-06 0)
(0.00100517 -3.82171e-06 0)
(0.0010058 -3.97303e-06 0)
(0.00100644 -4.10883e-06 0)
(0.00100711 -4.22872e-06 0)
(0.00100779 -4.33228e-06 0)
(0.00100849 -4.41918e-06 0)
(0.0010092 -4.48899e-06 0)
(0.00100992 -4.54145e-06 0)
(0.00101065 -4.57606e-06 0)
(0.00101138 -4.59261e-06 0)
(0.00101212 -4.59048e-06 0)
(0.00101285 -4.56953e-06 0)
(0.00101358 -4.52892e-06 0)
(0.00101431 -4.46863e-06 0)
(0.00101502 -4.38748e-06 0)
(0.00101573 -4.28566e-06 0)
(0.00101642 -4.16145e-06 0)
(0.00101709 -4.01543e-06 0)
(0.00101774 -3.84507e-06 0)
(0.00101836 -3.65159e-06 0)
(0.00101896 -3.43125e-06 0)
(0.00101952 -3.18633e-06 0)
(0.00102005 -2.91123e-06 0)
(0.00102053 -2.61006e-06 0)
(0.00102098 -2.27426e-06 0)
(0.00102138 -1.91102e-06 0)
(0.00102172 -1.50709e-06 0)
(0.00102201 -1.07478e-06 0)
(0.00102223 -5.93441e-07 0)
(0.00102239 -8.3764e-08 0)
(0.00102247 4.86662e-07 0)
(0.00102248 1.08343e-06 0)
(0.0010224 1.75847e-06 0)
(0.00102222 2.45489e-06 0)
(0.00102195 3.25498e-06 0)
(0.00102157 4.06487e-06 0)
(0.00102107 5.01605e-06 0)
(0.00102044 5.95449e-06 0)
(0.00101969 7.09139e-06 0)
(0.00101877 8.17443e-06 0)