/*--------------------------------*- C++ -*----------------------------------*\
| =========                 |                                                 |
| \\      /  F ield         | OpenFOAM: The Open Source CFD Toolbox           |
|  \\    /   O peration     | Version:  2312                                  |
|   \\  /    A nd           | Website:  www.openfoam.com                      |
|    \\/     M anipulation  |                                                 |
\*---------------------------------------------------------------------------*/
FoamFile
{
    version     2.0;
    format      ascii;
    arch        "LSB;label=32;scalar=64";
    class       volVectorField;
    location    "81000";
    object      U;
}
// * * * * * * * * * * * * * * * * * * * * * * * * * * * * * * * * * * * * * //

dimensions      [0 1 -1 0 0 0 0];

internalField   nonuniform List<vector> 
2715
(
(0.000267241 2.90179e-05 9.93089e-25)
(0.000278291 -3.59961e-06 0)
(0.000243267 -2.67449e-06 0)
(0.000228028 -3.41001e-06 0)
(0.000220332 -3.42607e-06 -2.22821e-23)
(0.000225032 -4.28831e-06 2.18083e-23)
(0.00022691 -4.42985e-06 0)
(0.000240601 -5.34267e-06 5.42711e-25)
(0.000246867 -4.91167e-06 0)
(0.000266547 -5.52422e-06 0)
(0.00027417 -4.56893e-06 -1.44125e-25)
(0.000296866 -4.84597e-06 0)
(0.000303049 -3.29397e-06 -1.72089e-26)
(0.000325867 -3.2088e-06 0)
(0.000327987 -1.08932e-06 4.11095e-24)
(0.000348664 -5.51675e-07 -4.11143e-24)
(0.000345159 1.64123e-06 0)
(0.000362344 1.81055e-06 -1.39379e-25)
(0.00035275 3.56215e-06 0)
(0.000366015 3.31039e-06 0)
(0.000351017 5.48023e-06 0)
(0.000360076 3.94275e-06 0)
(0.000340883 7.20447e-06 1.08542e-24)
(0.000345147 4.45506e-06 0)
(0.000322869 7.0382e-06 -4.13199e-23)
(0.000321846 7.89511e-06 3.97618e-23)
(0.000297612 9.8654e-08 0)
(0.00027867 1.52834e-05 0)
(0.000301011 5.13049e-05 0)
(-6.63714e-05 -6.9644e-05 1.71302e-24)
(0.000530312 4.85003e-05 5.74861e-23)
(0.000582263 1.31705e-05 -6.08336e-23)
(0.000555618 1.59998e-05 1.60439e-24)
(0.000549495 8.5318e-06 0)
(0.000540701 3.13639e-06 0)
(0.000555054 -1.28971e-06 2.10785e-23)
(0.000555356 -2.56148e-06 -2.10272e-24)
(0.000584274 -5.8785e-06 -1.91503e-23)
(0.000590209 -5.67416e-06 -4.64105e-25)
(0.000630752 -8.53146e-06 0)
(0.000638823 -6.97685e-06 -3.32059e-24)
(0.000686968 -9.65187e-06 3.76458e-24)
(0.000693647 -6.80994e-06 -1.8496e-26)
(0.000744928 -9.49299e-06 5.2043e-25)
(0.000746824 -5.44562e-06 1.22889e-23)
(0.000797061 -8.37143e-06 -1.4281e-23)
(0.000791637 -3.20313e-06 -2.54928e-24)
(0.000837387 -7.13306e-06 4.20529e-24)
(0.00082408 -2.26385e-07 -1.20337e-23)
(0.000863146 -5.58447e-06 1.279e-23)
(0.000843476 3.47754e-06 0)
(0.000871912 -3.7511e-06 -1.00213e-24)
(0.000851345 7.21156e-06 3.52936e-23)
(0.000859685 -2.29131e-06 2.53458e-24)
(0.000852832 1.31516e-05 -3.71189e-23)
(0.000813148 -4.67828e-06 0)
(0.000866322 3.38012e-05 0)
(0.000674105 -3.46987e-05 2.75056e-24)
(0.000971975 0.00011628 9.90168e-23)
(0.000357896 -5.00498e-05 -1.0232e-22)
(0.000706344 4.80521e-05 3.88049e-24)
(0.000757193 1.93765e-06 -5.15719e-23)
(0.000748802 2.91167e-06 5.22245e-23)
(0.000758465 -2.70444e-06 3.09319e-24)
(0.000756252 -7.51796e-06 0)
(0.000779462 -1.43002e-05 0)
(0.000781068 -1.61264e-05 -1.2219e-24)
(0.000815947 -2.16165e-05 0)
(0.00082197 -2.11393e-05 -7.28229e-24)
(0.000867995 -2.62628e-05 1.53383e-24)
(0.000877067 -2.31717e-05 9.03273e-24)
(0.000930713 -2.78618e-05 -3.69729e-24)
(0.000940418 -2.17531e-05 0)
(0.000997099 -2.6299e-05 0)
(0.001005 -1.70652e-05 2.22581e-23)
(0.0010599 -2.24332e-05 -2.22765e-23)
(0.00106459 -9.98199e-06 -2.29839e-25)
(0.00111325 -1.72669e-05 0)
(0.00111561 -8.57832e-07 1.2296e-23)
(0.00115277 -1.19447e-05 -2.63659e-23)
(0.00115676 9.40108e-06 -1.71879e-24)
(0.00117425 -8.66873e-06 1.46565e-23)
(0.00118952 2.25124e-05 0)
(0.00117269 -9.26571e-06 -2.37642e-24)
(0.00121947 4.2106e-05 0)
(0.00113721 -1.91757e-05 0)
(0.00125997 7.93018e-05 5.38533e-24)
(0.0010496 -4.45995e-05 -9.22407e-23)
(0.00132935 0.000131298 9.11919e-23)
(0.000949696 -3.61276e-05 6.38945e-24)
(0.000838677 3.4729e-05 5.46281e-23)
(0.00088098 -3.17893e-06 -1.12945e-22)
(0.000882374 -2.72829e-06 3.19196e-23)
(0.000897604 -7.01282e-06 2.26898e-23)
(0.000900313 -1.13116e-05 0)
(0.000925373 -2.00673e-05 2.71576e-24)
(0.000932125 -2.26949e-05 -1.20696e-24)
(0.00096597 -3.07815e-05 0)
(0.000977333 -3.02557e-05 9.55152e-25)
(0.00101882 -3.80721e-05 -5.25241e-24)
(0.00103451 -3.38472e-05 4.99395e-24)
(0.00108066 -4.14456e-05 0)
(0.00109948 -3.29059e-05 1.20277e-25)
(0.00114612 -4.08585e-05 4.52451e-25)
(0.00116681 -2.76121e-05 3.22256e-23)
(0.00120929 -3.71855e-05 -3.44293e-23)
(0.00123153 -1.87156e-05 -2.43561e-24)
(0.00126505 -3.18207e-05 4.28852e-24)
(0.0012904 -7.38935e-06 0)
(0.00130952 -2.71198e-05 -1.52002e-23)
(0.00134224 6.19435e-06 1.42856e-23)
(0.00133997 -2.42205e-05 2.1051e-24)
(0.00138822 2.40645e-05 0)
(0.00135299 -2.3989e-05 -2.43163e-24)
(0.00143039 4.76221e-05 0)
(0.0013459 -2.75508e-05 -5.41778e-24)
(0.00147254 7.69702e-05 -5.1297e-23)
(0.0013215 -3.12979e-05 -4.05373e-23)
(0.00151708 9.45289e-05 1.85775e-22)
(0.00129107 7.02061e-06 -1.00563e-22)
(0.000942645 2.0679e-05 0)
(0.000974355 -8.85349e-06 4.74657e-23)
(0.00098053 -1.33729e-05 -8.44488e-23)
(0.000995363 -1.90656e-05 2.31024e-23)
(0.00100255 -2.37939e-05 0)
(0.00102597 -3.36412e-05 -2.79396e-24)
(0.0010382 -3.59483e-05 2.53505e-24)
(0.00106737 -4.50183e-05 0)
(0.00108446 -4.38218e-05 1.8576e-24)
(0.00111866 -5.2979e-05 0)
(0.00114088 -4.76589e-05 5.29897e-25)
(0.00117768 -5.68466e-05 0)
(0.00120417 -4.64308e-05 0)
(0.00124003 -5.6218e-05 0)
(0.00126979 -4.01267e-05 4.47603e-23)
(0.00130081 -5.19096e-05 -4.47648e-23)
(0.00133354 -2.96447e-05 0)
(0.00135588 -4.55999e-05 0)
(0.00139252 -1.62535e-05 0)
(0.0014025 -3.89346e-05 1.72962e-24)
(0.00144557 -3.60094e-07 0)
(0.00143914 -3.25923e-05 4.30397e-24)
(0.00149245 1.76218e-05 0)
(0.00146485 -2.74399e-05 5.01695e-24)
(0.00153341 3.8088e-05 0)
(0.00147986 -2.21733e-05 5.57202e-24)
(0.00156877 5.75202e-05 -5.2088e-23)
(0.00148604 -9.76248e-06 1.34371e-22)
(0.00159948 5.98686e-05 -1.04911e-22)
(0.00147976 2.70972e-05 0)
(0.00102421 5.84134e-06 5.17302e-23)
(0.00104679 -1.53612e-05 -1.15635e-22)
(0.00105617 -2.35203e-05 8.26214e-23)
(0.00106966 -2.98377e-05 -2.34575e-23)
(0.00107962 -3.35953e-05 -2.33778e-23)
(0.0010998 -4.36358e-05 2.08103e-23)
(0.00111522 -4.68489e-05 1.90449e-23)
(0.00114017 -5.67785e-05 -3.56366e-23)
(0.00116033 -5.63822e-05 1.46408e-23)
(0.00118934 -6.59047e-05 0)
(0.00121424 -6.11818e-05 -5.46292e-25)
(0.00124551 -7.02628e-05 2.7758e-25)
(0.00127407 -6.03104e-05 3.46635e-25)
(0.00130483 -6.94056e-05 3.56161e-25)
(0.00133578 -5.38329e-05 5.77642e-23)
(0.0013631 -6.41574e-05 -6.02584e-23)
(0.00139557 -4.29057e-05 -2.85288e-24)
(0.00141689 -5.62313e-05 4.62505e-24)
(0.00145078 -2.90757e-05 1.53469e-24)
(0.00146423 -4.71384e-05 -1.78313e-24)
(0.00150013 -1.35515e-05 0)
(0.00150425 -3.77295e-05 -4.12394e-23)
(0.00154305 2.81063e-06 7.62248e-23)
(0.00153676 -2.7449e-05 -3.93633e-23)
(0.00157907 1.91099e-05 -4.9638e-23)
(0.00156185 -1.42352e-05 4.38733e-23)
(0.00160804 3.18555e-05 5.32008e-23)
(0.00157913 5.85041e-06 -1.56201e-22)
(0.00163124 3.52339e-05 2.06175e-22)
(0.00158583 3.28279e-05 -1.09307e-22)
(0.00108633 -8.51544e-06 -5.22572e-23)
(0.00110233 -2.28231e-05 1.14965e-23)
(0.00111334 -3.30156e-05 5.74937e-23)
(0.00112578 -4.07084e-05 -6.58919e-24)
(0.00113724 -4.5267e-05 2.3804e-23)
(0.00115486 -5.49102e-05 -1.54612e-23)
(0.00117162 -5.93807e-05 0)
(0.0011938 -6.8867e-05 0)
(0.00121478 -7.00189e-05 0)
(0.0012408 -7.83862e-05 1.44795e-24)
(0.00126561 -7.54738e-05 5.00187e-25)
(0.00129421 -8.26305e-05 -2.86491e-25)
(0.00132152 -7.49357e-05 0)
(0.00135058 -8.11342e-05 -1.3825e-25)
(0.00137879 -6.85396e-05 7.4249e-23)
(0.00140615 -7.47013e-05 -7.42554e-23)
(0.00143396 -5.7652e-05 5.42284e-25)
(0.00145793 -6.49984e-05 0)
(0.00148468 -4.41062e-05 -1.58395e-24)
(0.00150425 -5.35139e-05 1.84733e-24)
(0.00152985 -2.94844e-05 4.09885e-24)
(0.00154444 -4.08734e-05 0)
(0.00156909 -1.47605e-05 0)
(0.00157823 -2.64999e-05 0)
(0.00160223 -9.14049e-07 6.19604e-23)
(0.00160502 -8.97764e-06 -4.50122e-23)
(0.00162949 1.0572e-05 0)
(0.00162381 1.23177e-05 -8.76248e-23)
(0.00165151 1.98836e-05 -2.60071e-24)
(0.00163414 3.25095e-05 1.12815e-22)
(0.00113071 -2.16908e-05 0)
(0.00114262 -3.15679e-05 -7.49751e-24)
(0.00115417 -4.23242e-05 2.76249e-23)
(0.00116611 -5.11369e-05 -2.11686e-23)
(0.00117844 -5.71835e-05 0)
(0.00119431 -6.59846e-05 -5.88178e-24)
(0.0012115 -7.19534e-05 0)
(0.00123177 -8.03282e-05 0)
(0.00125276 -8.35516e-05 0)
(0.00127667 -9.00355e-05 3.41678e-24)
(0.00130078 -8.96621e-05 -8.41859e-24)
(0.00132739 -9.40042e-05 3.19535e-24)
(0.00135315 -8.95433e-05 -4.44937e-25)
(0.00138082 -9.17822e-05 1.42867e-25)
(0.00140643 -8.33944e-05 9.27056e-23)
(0.0014335 -8.41747e-05 -9.28204e-23)
(0.00145743 -7.27306e-05 -5.60394e-25)
(0.00148277 -7.2856e-05 6.14419e-24)
(0.00150407 -5.9576e-05 -2.20821e-23)
(0.00152721 -5.93888e-05 2.84903e-23)
(0.00154548 -4.56021e-05 -2.03095e-23)
(0.00156637 -4.44732e-05 0)
(0.00158142 -3.16899e-05 0)
(0.00160009 -2.79235e-05 0)
(0.00161174 -1.82435e-05 -1.13404e-23)
(0.00162803 -9.24376e-06 0)
(0.0016362 -5.00156e-06 5.03286e-23)
(0.00164999 1.099e-05 -4.97247e-23)
(0.00165411 9.15609e-06 -1.29698e-23)
(0.00166665 3.0412e-05 0)
(0.00115878 -3.36382e-05 7.98681e-24)
(0.00116875 -4.14437e-05 5.98238e-23)
(0.00118032 -5.19717e-05 -3.22049e-23)
(0.00119204 -6.12772e-05 -1.99987e-24)
(0.00120493 -6.90688e-05 -2.70442e-23)
(0.00121979 -7.7071e-05 0)
(0.00123702 -8.45018e-05 1.9819e-23)
(0.00125597 -9.15984e-05 -3.24166e-24)
(0.0012768 -9.68574e-05 -1.50298e-23)
(0.00129902 -0.000101391 -4.79133e-24)
(0.00132262 -0.000103514 4.8204e-24)
(0.00134729 -0.000105028 2.30724e-25)
(0.00137223 -0.000103712 -8.44572e-26)
(0.00139791 -0.000102111 1.86905e-25)
(0.00142241 -9.77282e-05 1.13534e-22)
(0.00144768 -9.34949e-05 -1.13504e-22)
(0.0014702 -8.71618e-05 -6.10431e-25)
(0.00149418 -8.09548e-05 1.49534e-24)
(0.00151381 -7.41152e-05 1.72142e-24)
(0.00153623 -6.62169e-05 -1.68063e-23)
(0.0015526 -6.02112e-05 1.67047e-23)
(0.00157354 -5.02204e-05 4.52707e-23)
(0.00158653 -4.61131e-05 3.29228e-24)
(0.00160608 -3.31416e-05 -4.29825e-23)
(0.00161557 -3.16581e-05 0)
(0.00163369 -1.48861e-05 5.04028e-23)
(0.00163938 -1.61569e-05 2.24167e-24)
(0.0016561 4.10655e-06 5.53537e-23)
(0.00165739 8.67454e-07 -1.05432e-22)
(0.00167339 2.35531e-05 1.36498e-23)
(0.00117217 -4.44978e-05 -7.23113e-23)
(0.00118178 -5.19717e-05 7.29231e-23)
(0.00119317 -6.22412e-05 -2.16501e-23)
(0.00120498 -7.15029e-05 4.98897e-23)
(0.00121822 -8.0783e-05 -2.77759e-23)
(0.00123281 -8.8306e-05 -1.68896e-23)
(0.00124988 -9.68926e-05 1.78082e-23)
(0.00126818 -0.000102958 0)
(0.00128871 -0.000109757 -3.80032e-24)
(0.00130992 -0.000112796 1.38232e-24)
(0.00133307 -0.000116783 0)
(0.0013563 -0.000116145 -1.31369e-25)
(0.0013808 -0.000117121 8.44541e-26)
(0.00140465 -0.000112661 2.26029e-26)
(0.00142885 -0.000111123 1.37932e-22)
(0.00145194 -0.000103293 -1.37865e-22)
(0.00147446 -0.000100448 -1.90102e-26)
(0.00149599 -8.996e-05 -6.74681e-24)
(0.00151605 -8.72341e-05 6.74953e-24)
(0.00153585 -7.45409e-05 0)
(0.00155317 -7.30701e-05 4.60863e-24)
(0.00157146 -5.81224e-05 -1.0054e-23)
(0.00158591 -5.85383e-05 0)
(0.00160299 -4.09359e-05 -5.92029e-23)
(0.00161426 -4.34252e-05 5.93334e-23)
(0.00163043 -2.28004e-05 5.21525e-23)
(0.00163784 -2.73548e-05 -1.18634e-22)
(0.00165351 -3.50083e-06 5.32124e-23)
(0.00165614 -1.02034e-05 -9.90155e-23)
(0.00167231 1.78547e-05 8.30389e-23)
(0.00117314 -5.46204e-05 -6.59714e-23)
(0.00118335 -6.28222e-05 1.22117e-22)
(0.00119466 -7.31181e-05 -7.9787e-23)
(0.0012069 -8.21521e-05 4.29063e-23)
(0.00122036 -9.23799e-05 -2.85678e-23)
(0.00123534 -9.97978e-05 -6.27405e-24)
(0.00125223 -0.000109126 2.59567e-23)
(0.00127061 -0.000114635 -2.05836e-23)
(0.00129077 -0.0001223 1.93352e-24)
(0.00131183 -0.000124534 -1.43251e-24)
(0.00133451 -0.00012952 0)
(0.00135725 -0.000127691 -6.06386e-26)
(0.00138129 -0.000129818 -1.0726e-24)
(0.00140425 -0.000123799 1.30229e-24)
(0.00142821 -0.00012362 1.66765e-22)
(0.00144996 -0.000113927 -1.66574e-22)
(0.00147267 -0.000112649 6.03405e-24)
(0.00149232 -0.000100131 -5.24416e-25)
(0.00151326 -9.9093e-05 -7.12173e-24)
(0.00153059 -8.44047e-05 0)
(0.0015497 -8.45717e-05 -4.77592e-24)
(0.00156491 -6.78964e-05 5.21489e-24)
(0.00158224 -6.96947e-05 4.66359e-23)
(0.00159563 -5.08034e-05 -3.42221e-23)
(0.00161096 -5.43051e-05 -1.25982e-23)
(0.0016228 -3.27755e-05 5.40484e-23)
(0.00163554 -3.80327e-05 -2.60189e-23)
(0.00164623 -1.32622e-05 1.00739e-22)
(0.00165551 -2.05153e-05 -2.30576e-22)
(0.00166605 8.68606e-06 1.15524e-22)
(0.00116498 -6.47969e-05 -5.06298e-23)
(0.00117609 -7.39329e-05 1.22476e-23)
(0.00118758 -8.45242e-05 7.43301e-23)
(0.00120052 -9.3496e-05 -1.51447e-23)
(0.00121431 -0.000104161 0)
(0.0012301 -0.000111746 6.32992e-24)
(0.00124704 -0.000121436 5.55678e-24)
(0.00126609 -0.000126858 2.16495e-23)
(0.0012861 -0.000134812 -1.06755e-23)
(0.00130778 -0.000136848 -5.20792e-24)
(0.00133013 -0.000142089 -1.89676e-24)
(0.00135338 -0.000139889 2.3028e-24)
(0.00137695 -0.000142214 -2.84139e-25)
(0.00140025 -0.000135693 -2.59329e-25)
(0.00142369 -0.000135686 1.9972e-22)
(0.00144554 -0.000125451 -2.00017e-22)
(0.00146787 -0.000124319 7.23731e-25)
(0.00148731 -0.00011133 -7.57081e-24)
(0.00150822 -0.000110394 -9.69551e-24)
(0.00152493 -9.54031e-05 1.71386e-23)
(0.00154466 -9.56182e-05 2.6057e-23)
(0.00155868 -7.88317e-05 2.456e-23)
(0.00157766 -8.06637e-05 -3.32594e-23)
(0.00158902 -6.17397e-05 1.24459e-23)
(0.0016075 -6.53865e-05 1.31067e-23)
(0.001616 -4.36177e-05 0)
(0.00163405 -4.93329e-05 -2.83833e-23)
(0.00163934 -2.37584e-05 -1.0476e-22)
(0.00165702 -3.20306e-05 -4.44993e-24)
(0.00165892 -1.20829e-06 1.35504e-22)
(0.00115165 -7.57926e-05 3.42691e-23)
(0.00116359 -8.56263e-05 -8.02687e-23)
(0.00117561 -9.65537e-05 -8.28183e-24)
(0.00118942 -0.000105721 7.82786e-24)
(0.00120383 -0.000116523 0)
(0.00122065 -0.000124448 -6.56647e-24)
(0.00123809 -0.000134243 -5.76723e-24)
(0.00125816 -0.000139906 -4.85301e-24)
(0.00127851 -0.000147792 6.31846e-24)
(0.00130129 -0.000150007 -7.72605e-24)
(0.00132378 -0.000155034 0)
(0.00134817 -0.000152945 -6.70671e-25)
(0.00137157 -0.000154882 5.44917e-25)
(0.00139602 -0.000148458 -3.3284e-25)
(0.00141895 -0.000147916 2.38478e-22)
(0.00144197 -0.000137855 -2.38489e-22)
(0.00146345 -0.000136065 8.058e-25)
(0.00148411 -0.000123415 8.04399e-24)
(0.00150393 -0.000121729 -3.67799e-24)
(0.00152193 -0.00010729 0)
(0.0015405 -0.00010671 1.67787e-23)
(0.00155588 -9.06653e-05 -2.18309e-23)
(0.00157381 -9.17286e-05 -1.21763e-23)
(0.00158653 -7.36202e-05 -1.29171e-23)
(0.00160434 -7.66268e-05 -1.35963e-23)
(0.00161407 -5.55306e-05 0)
(0.00163204 -6.08798e-05 1.47276e-23)
(0.00163829 -3.55573e-05 -1.52371e-23)
(0.00165662 -4.39781e-05 1.11512e-22)
(0.00165914 -1.26447e-05 -1.57169e-22)
(0.00113808 -8.82333e-05 -3.54636e-23)
(0.00115057 -9.84171e-05 1.52964e-22)
(0.00116327 -0.000109562 -6.23125e-23)
(0.00117796 -0.000119117 3.06892e-23)
(0.00119323 -0.000129956 -3.11297e-23)
(0.00121111 -0.00013833 6.58679e-24)
(0.00122946 -0.00014809 -5.69365e-24)
(0.00125069 -0.000154164 1.68449e-23)
(0.00127193 -0.000161796 -2.0573e-23)
(0.00129596 -0.000164348 -3.64106e-24)
(0.00131918 -0.000168905 2.65043e-24)
(0.00134481 -0.000167102 1.8705e-25)
(0.00136861 -0.000168351 -1.37249e-24)
(0.00139427 -0.000162212 2.57892e-24)
(0.00141709 -0.000160804 2.84092e-22)
(0.00144134 -0.00015112 -2.84104e-22)
(0.00146214 -0.000148339 6.59488e-24)
(0.00148416 -0.00013624 1.16936e-24)
(0.00150272 -0.000133487 -3.23512e-23)
(0.00152235 -0.000119835 -2.1078e-24)
(0.00153912 -0.000118143 1.55536e-23)
(0.0015565 -0.000103144 3.7679e-23)
(0.00157227 -0.000103068 -4.91871e-23)
(0.00158735 -8.62499e-05 -1.35378e-23)
(0.0016029 -8.80753e-05 1.42169e-23)
(0.00161517 -6.84638e-05 4.59196e-23)
(0.00163124 -7.25413e-05 -5.98821e-23)
(0.00163971 -4.88538e-05 1.4518e-22)
(0.00165719 -5.58398e-05 -2.4372e-22)
(0.00166081 -2.63179e-05 1.96901e-22)
(0.00112811 -0.00010238 -3.8868e-23)
(0.00114095 -0.000112739 -5.35645e-23)
(0.00115429 -0.000123972 1.07435e-22)
(0.00116984 -0.00013403 -3.45767e-23)
(0.00118603 -0.000144919 0)
(0.001205 -0.000153823 -1.35565e-23)
(0.00122445 -0.000163478 2.70315e-23)
(0.0012469 -0.000170019 -2.13559e-23)
(0.00126928 -0.000177275 3.70604e-24)
(0.00129453 -0.000180178 3.21244e-24)
(0.00131876 -0.00018409 -3.23784e-24)
(0.00134545 -0.000182554 0)
(0.00136993 -0.00018292 0)
(0.0013964 -0.000177021 0)
(0.00141942 -0.000174565 3.38516e-22)
(0.00144429 -0.000165187 -3.38612e-22)
(0.0014647 -0.000161284 0)
(0.00148733 -0.000149645 -2.19005e-24)
(0.00150482 -0.000145758 0)
(0.00152536 -0.000132788 2.25472e-23)
(0.0015403 -0.000129991 -1.65554e-23)
(0.00155923 -0.000115943 1.25141e-23)
(0.00157227 -0.000114797 5.53674e-23)
(0.00158994 -9.92072e-05 -4.06232e-23)
(0.00160175 -9.99795e-05 -2.96438e-23)
(0.001618 -8.18186e-05 1.54117e-23)
(0.00162921 -8.48515e-05 6.55427e-23)
(0.00164331 -6.26784e-05 -1.99473e-22)
(0.00165476 -6.87183e-05 1.66754e-22)
(0.00166562 -4.04931e-05 -6.93502e-23)
(0.00112449 -0.000118403 -5.81782e-23)
(0.0011375 -0.00012897 1.54416e-22)
(0.00115122 -0.00014024 -8.51445e-23)
(0.00116745 -0.000150831 3.2411e-23)
(0.00118438 -0.000161803 -6.20965e-23)
(0.00120435 -0.000171258 1.79981e-23)
(0.00122472 -0.000180748 4.6604e-24)
(0.00124833 -0.000187706 3.76181e-23)
(0.00127162 -0.000194452 -1.64463e-23)
(0.00129795 -0.000197615 9.39047e-25)
(0.00132292 -0.00020069 2.87747e-25)
(0.00135038 -0.000199302 -1.94617e-24)
(0.00137526 -0.000198573 -1.50625e-24)
(0.00140203 -0.000192786 4.22095e-24)
(0.00142509 -0.00018909 4.02973e-22)
(0.00144978 -0.000179892 -4.02984e-22)
(0.00146988 -0.000174729 6.64654e-24)
(0.00149199 -0.000163428 3.49877e-24)
(0.00150886 -0.000158351 -3.18231e-23)
(0.0015288 -0.000145947 2.18264e-23)
(0.00154277 -0.000142064 0)
(0.00156142 -0.00012888 5.50414e-23)
(0.001573 -0.000126729 -1.12613e-22)
(0.0015912 -0.000112378 1.12516e-23)
(0.00160081 -0.000112114 2.75285e-23)
(0.00161903 -9.56512e-05 1.29059e-22)
(0.00162688 -9.74138e-05 -4.8456e-23)
(0.00164504 -7.74801e-05 1.23666e-22)
(0.00165143 -8.17649e-05 -2.82916e-22)
(0.00166909 -5.6419e-05 1.78133e-22)
(0.00112651 -0.000136 0)
(0.00113961 -0.000147011 -2.01069e-23)
(0.00115342 -0.000158404 9.51395e-24)
(0.00117013 -0.000169524 3.32949e-23)
(0.0011875 -0.000180618 -3.38404e-23)
(0.00120831 -0.000190568 -3.27394e-23)
(0.00122922 -0.000199845 2.59993e-23)
(0.0012538 -0.000207076 0)
(0.00127751 -0.000213185 -1.9534e-24)
(0.0013047 -0.000216425 4.07102e-24)
(0.00132975 -0.000218476 2.20386e-26)
(0.00135776 -0.000217055 3.02497e-24)
(0.0013823 -0.000215016 -2.20719e-24)
(0.00140918 -0.0002092 -1.08842e-24)
(0.00143155 -0.000204059 4.81054e-22)
(0.00145586 -0.000194957 -4.81063e-22)
(0.00147511 -0.000188371 -1.08739e-25)
(0.0014964 -0.000177367 -1.07168e-23)
(0.00151246 -0.000171016 4.9384e-24)
(0.00153124 -0.000159134 -6.21906e-24)
(0.00154462 -0.000154216 -2.7437e-23)
(0.00156197 -0.000141776 4.13385e-23)
(0.00157317 -0.000138877 0)
(0.00159035 -0.00012549 -7.9733e-23)
(0.00159957 -0.000124733 4.70531e-23)
(0.00161763 -0.000109476 6.93184e-23)
(0.00162464 -0.000110841 -8.56532e-23)
(0.00164424 -9.24227e-05 1.79745e-23)
(0.00164866 -9.61155e-05 -3.69221e-23)
(0.00166999 -7.27535e-05 0)
(0.00112929 -0.000154792 -8.46283e-23)
(0.00114275 -0.000166592 1.45705e-22)
(0.0011568 -0.000178333 -1.01336e-22)
(0.00117397 -0.000189942 0)
(0.00119177 -0.000201183 -3.02745e-23)
(0.00121331 -0.000211464 2.3817e-23)
(0.00123464 -0.000220494 5.68087e-24)
(0.00125996 -0.000227759 1.48642e-23)
(0.00128378 -0.000233147 -1.55128e-23)
(0.00131159 -0.00023619 0)
(0.00133627 -0.000237108 -2.31212e-26)
(0.00136474 -0.000235407 -3.72839e-24)
(0.00138837 -0.000231936 -2.67875e-24)
(0.00141552 -0.000225938 3.13205e-24)
(0.00143652 -0.000219215 5.75882e-22)
(0.00146092 -0.000210187 -5.75889e-22)
(0.0014786 -0.00020201 1.53866e-23)
(0.00149977 -0.000191423 4.07323e-24)
(0.00151439 -0.000183588 -5.59779e-24)
(0.00153275 -0.000172464 6.52443e-24)
(0.00154516 -0.00016628 0)
(0.00156169 -0.000154867 6.20825e-23)
(0.00157269 -0.000151046 -6.10782e-23)
(0.00158862 -0.000138842 0)
(0.00159846 -0.000137616 -8.74186e-23)
(0.0016152 -0.000123575 6.91284e-23)
(0.00162322 -0.000124926 0)
(0.0016423 -0.000107697 1.16432e-22)
(0.00164688 -0.00011165 -3.48048e-22)
(0.00167 -8.95834e-05 1.5507e-22)
(0.00112906 -0.000174958 -8.83006e-23)
(0.001143 -0.000187695 1.11841e-22)
(0.00115756 -0.000199945 2.04487e-23)
(0.00117518 -0.000211911 3.50342e-23)
(0.00119362 -0.000223251 -3.56668e-23)
(0.00121572 -0.000233599 7.28216e-24)
(0.00123766 -0.000242353 -5.95886e-24)
(0.0012635 -0.000249358 0)
(0.00128766 -0.000254036 -2.86862e-24)
(0.00131593 -0.000256566 -2.56273e-25)
(0.00134053 -0.000256402 3.71636e-24)
(0.00136943 -0.000254123 -5.83639e-24)
(0.00139244 -0.000249312 3.51591e-24)
(0.00142011 -0.000242899 1.5014e-24)
(0.00143987 -0.000234686 6.92397e-22)
(0.00146503 -0.000225608 -6.92494e-22)
(0.00148089 -0.00021586 -2.65877e-24)
(0.00150311 -0.00020572 1.29257e-23)
(0.00151553 -0.00019627 -4.72223e-23)
(0.0015351 -0.000186133 2.75061e-23)
(0.00154531 -0.000178347 -7.70412e-24)
(0.00156283 -0.00016841 -1.58699e-23)
(0.00157223 -0.000163146 0)
(0.00158832 -0.000152732 0)
(0.00159798 -0.000150481 1.79944e-23)
(0.00161335 -0.000138221 7.63439e-23)
(0.00162327 -0.000139273 -7.49886e-23)
(0.00163908 -0.000123454 3.94071e-23)
(0.00164752 -0.000128014 -1.24923e-22)
(0.00166592 -0.000106924 1.62101e-22)
(0.00111945 -0.00019602 -1.16313e-22)
(0.00113464 -0.000209668 7.16859e-23)
(0.00115072 -0.000222609 0)
(0.00116952 -0.000234961 0)
(0.00118953 -0.000246488 -3.08391e-23)
(0.00121272 -0.000256804 3.13938e-23)
(0.00123625 -0.000265375 1.88392e-23)
(0.00126302 -0.000271967 -2.26762e-23)
(0.00128864 -0.000276069 0)
(0.00131762 -0.000277855 1.40586e-25)
(0.00134338 -0.000276789 5.50831e-24)
(0.00137281 -0.000273626 -7.2286e-24)
(0.00139642 -0.000267714 2.8597e-24)
(0.00142458 -0.000260518 0)
(0.00144418 -0.000251093 8.35671e-22)
(0.00147003 -0.000241571 -8.35762e-22)
(0.00148474 -0.000230501 0)
(0.0015082 -0.000220456 -6.76317e-24)
(0.00151827 -0.000209499 -2.31585e-23)
(0.00153993 -0.000200183 3.80047e-23)
(0.00154653 -0.000190626 1.64644e-23)
(0.00156701 -0.000182372 0)
(0.00157184 -0.000175071 5.52957e-23)
(0.00159131 -0.000167186 -7.22248e-23)
(0.00159633 -0.000162835 -7.81339e-23)
(0.00161425 -0.000153597 7.67521e-23)
(0.00162113 -0.000153043 0)
(0.00163657 -0.000139907 0)
(0.00164534 -0.000144318 -2.15184e-22)
(0.00165808 -0.000124505 1.26229e-22)
(0.00110579 -0.000220928 5.02303e-23)
(0.00112271 -0.000235135 2.37007e-23)
(0.00114102 -0.00024863 1.07703e-23)
(0.00116171 -0.000261293 -9.59979e-24)
(0.00118416 -0.00027296 8.21785e-24)
(0.00120916 -0.000283112 -1.76037e-23)
(0.00123521 -0.000291405 2.46632e-23)
(0.00126349 -0.000297366 8.30187e-25)
(0.00129152 -0.000300788 -2.08366e-25)
(0.00132146 -0.000301517 2.4079e-24)
(0.00134931 -0.000299479 -3.60496e-24)
(0.001379 -0.000295004 -5.98865e-24)
(0.00140423 -0.000288008 -1.67993e-24)
(0.00143201 -0.000279483 8.02594e-24)
(0.00145258 -0.000269008 1.01379e-21)
(0.0014777 -0.000258366 -1.01377e-21)
(0.00149252 -0.000246294 1.44898e-23)
(0.00151545 -0.000235547 1.0398e-24)
(0.00152435 -0.000223509 -1.55717e-23)
(0.00154641 -0.000214189 -4.35785e-23)
(0.00154993 -0.00020326 7.18013e-23)
(0.00157261 -0.000196107 -5.50843e-23)
(0.00157176 -0.000186837 -3.59213e-25)
(0.00159588 -0.000181571 -8.07124e-23)
(0.00159229 -0.000174346 9.96506e-23)
(0.00161695 -0.000169422 2.0768e-23)
(0.00161302 -0.000165141 0)
(0.00163462 -0.000157449 2.16084e-23)
(0.0016329 -0.000158291 4.43154e-23)
(0.00164518 -0.000143197 9.00742e-23)
(0.00110083 -0.000251251 -2.63605e-23)
(0.0011189 -0.000265779 0)
(0.00113891 -0.000279604 3.04493e-23)
(0.00116123 -0.000292428 -3.2595e-23)
(0.00118576 -0.000304015 -1.66949e-23)
(0.00121242 -0.000313766 -2.95451e-23)
(0.00124064 -0.000321422 4.16687e-23)
(0.00127025 -0.000326407 -1.3684e-23)
(0.00130031 -0.000328718 9.01138e-25)
(0.00133087 -0.00032799 -5.49953e-24)
(0.00136042 -0.000324552 1.45263e-23)
(0.00138977 -0.000318335 -3.25794e-24)
(0.00141637 -0.000309929 -2.18683e-23)
(0.00144276 -0.000299617 9.80839e-24)
(0.00146451 -0.000287977 1.2395e-21)
(0.00148735 -0.000275683 -1.23946e-21)
(0.00150323 -0.000262797 1.64337e-23)
(0.00152333 -0.000250613 -2.54172e-23)
(0.001533 -0.000238029 -2.89612e-23)
(0.00155229 -0.00022763 8.52356e-23)
(0.00155549 -0.000216245 -4.79645e-23)
(0.00157661 -0.000208801 1.99545e-23)
(0.00157277 -0.000198749 8.40757e-23)
(0.00159826 -0.000194669 -1.48047e-22)
(0.00158634 -0.00018544 6.32218e-23)
(0.00161713 -0.000184134 -4.39083e-23)
(0.00159623 -0.000175434 9.10903e-23)
(0.00162872 -0.000174616 -1.11857e-22)
(0.00159969 -0.000167953 0)
(0.00162165 -0.000162233 -4.7121e-23)
(0.00109724 -0.000286193 -2.73122e-23)
(0.00111691 -0.000301165 1.25006e-23)
(0.0011388 -0.00031524 -1.11141e-23)
(0.00116306 -0.000328073 0)
(0.00118968 -0.000339304 -1.9637e-23)
(0.00121823 -0.000348363 2.87326e-23)
(0.00124841 -0.000354942 -4.42709e-24)
(0.0012795 -0.000358566 2.11174e-24)
(0.00131113 -0.000359231 0)
(0.00134246 -0.000356673 0)
(0.00137312 -0.000351296 2.68302e-24)
(0.00140228 -0.00034305 9.76686e-24)
(0.00142963 -0.000332761 -7.30079e-24)
(0.00145476 -0.000320502 0)
(0.00147723 -0.000307367 1.52876e-21)
(0.00149774 -0.000293357 -1.52879e-21)
(0.00151479 -0.000279535 0)
(0.0015314 -0.000265774 -2.46368e-23)
(0.00154295 -0.000252783 1.91766e-23)
(0.00155739 -0.000240745 -1.03173e-23)
(0.00156292 -0.000229443 0)
(0.00157781 -0.000220366 0)
(0.00157541 -0.000210794 2.22861e-23)
(0.00159415 -0.000205465 -2.26489e-23)
(0.00157896 -0.000196254 -9.38623e-23)
(0.00160483 -0.000195097 1.15165e-22)
(0.00156783 -0.000183906 0)
(0.00160226 -0.000187055 -2.36964e-23)
(0.00153159 -0.000171648 2.39182e-23)
(0.00156876 -0.000177298 -4.80877e-23)
(0.00108785 -0.000325148 1.47138e-23)
(0.00111024 -0.000340803 -1.32135e-23)
(0.00113505 -0.000355245 1.17649e-23)
(0.00116233 -0.000368025 -3.38669e-23)
(0.00119186 -0.000378693 3.4682e-23)
(0.00122319 -0.000386764 1.52663e-23)
(0.00125585 -0.000391877 -1.55949e-23)
(0.00128916 -0.000393742 1.31813e-24)
(0.0013226 -0.000392298 0)
(0.00135535 -0.000387532 0)
(0.001387 -0.000379751 0)
(0.00141667 -0.000369209 1.25558e-23)
(0.00144428 -0.000356598 -1.26616e-23)
(0.00146898 -0.000342291 0)
(0.00149131 -0.000327242 1.89871e-21)
(0.00151047 -0.000311615 -1.89848e-21)
(0.0015275 -0.000296434 0)
(0.00154162 -0.000281341 -2.2861e-23)
(0.00155371 -0.00026745 3.39193e-23)
(0.00156346 -0.000253887 0)
(0.00157002 -0.000242053 0)
(0.00157598 -0.000230824 0)
(0.00157456 -0.000221375 -2.5198e-23)
(0.00157771 -0.000212892 1.00512e-22)
(0.00156118 -0.000204439 -9.83922e-23)
(0.00156292 -0.000198932 -1.00881e-22)
(0.0015151 -0.000188217 9.85107e-23)
(0.001521 -0.000187659 2.50827e-23)
(0.00141135 -0.00016788 -2.52814e-23)
(0.00143924 -0.000178673 2.60081e-23)
(0.00107723 -0.000373936 1.24923e-22)
(0.00110323 -0.000389206 -1.13038e-22)
(0.00113196 -0.00040323 0)
(0.00116315 -0.000415278 0)
(0.00119637 -0.000424715 -1.96766e-23)
(0.00123115 -0.000431088 1.79625e-23)
(0.00126682 -0.000434072 0)
(0.00130276 -0.000433503 -1.4112e-24)
(0.00133823 -0.00042934 0)
(0.00137263 -0.000421736 0)
(0.00140522 -0.000410981 6.95117e-24)
(0.0014355 -0.00039757 0)
(0.00146296 -0.000382099 -1.3922e-23)
(0.00148733 -0.000365256 1.8881e-23)
(0.00150855 -0.000347742 2.38763e-21)
(0.00152652 -0.000330121 -2.38753e-21)
(0.00154165 -0.000312944 2.55568e-23)
(0.00155348 -0.000296331 -3.21872e-23)
(0.00156263 -0.000280679 0)
(0.00156754 -0.000265581 -1.4092e-23)
(0.00156895 -0.000251751 0)
(0.00156406 -0.000238227 -1.41358e-23)
(0.00155366 -0.000226496 2.69747e-23)
(0.00153479 -0.000214186 0)
(0.0015047 -0.000203787 -1.08812e-22)
(0.00146647 -0.000191855 1.06202e-22)
(0.00140022 -0.000181087 0)
(0.00134356 -0.000170017 0)
(0.00120588 -0.000153046 2.10365e-22)
(0.00117226 -0.000154274 -1.78518e-22)
(0.00106738 -0.000434054 0)
(0.00109731 -0.000450682 0)
(0.00113025 -0.00046481 0)
(0.00116602 -0.00047579 0)
(0.00120387 -0.000483166 0)
(0.00124289 -0.000486646 2.35603e-24)
(0.00128227 -0.000486116 0)
(0.00132131 -0.000481581 -2.34765e-23)
(0.00135924 -0.000473166 9.49288e-24)
(0.00139539 -0.000461167 5.3795e-23)
(0.00142897 -0.000446045 -7.48157e-23)
(0.00145948 -0.000428436 3.71466e-23)
(0.00148631 -0.000409039 -5.2436e-24)
(0.00150934 -0.000388604 0)
(0.00152819 -0.000367761 3.03451e-21)
(0.00154303 -0.000347077 -3.03227e-21)
(0.00155348 -0.000326926 0)
(0.00155951 -0.000307569 7.34872e-24)
(0.0015602 -0.000289003 6.30096e-23)
(0.00155461 -0.000271176 -1.10363e-22)
(0.00154102 -0.000253911 1.25658e-22)
(0.00151714 -0.000236976 6.23836e-23)
(0.00148122 -0.00022014 -1.54273e-22)
(0.00142971 -0.000202831 0)
(0.00136232 -0.000186289 0)
(0.00127345 -0.000168861 0)
(0.00116371 -0.000152663 0)
(0.0010318 -0.000132333 0)
(0.000866071 -0.000118684 0)
(0.000733961 -0.00010022 0)
(0.00105798 -0.000500901 1.25671e-23)
(0.001096 -0.00051387 0)
(0.00113781 -0.000525782 0)
(0.00118121 -0.00053448 9.81115e-24)
(0.00122502 -0.000538954 -1.62712e-23)
(0.00126858 -0.000538926 2.48768e-23)
(0.00131141 -0.000534467 -2.12047e-23)
(0.00135285 -0.000525743 -9.25179e-24)
(0.00139218 -0.000513053 0)
(0.00142855 -0.000496809 -1.18707e-23)
(0.00146118 -0.00047761 0)
(0.00148943 -0.000456164 0)
(0.00151272 -0.000433207 0)
(0.00153072 -0.000409391 0)
(0.00154288 -0.000385109 3.92891e-21)
(0.0015488 -0.000360635 -3.93056e-21)
(0.00154739 -0.000336154 0)
(0.00153779 -0.000311686 0)
(0.00151815 -0.000287425 0)
(0.00148702 -0.000263685 0)
(0.00144209 -0.000241058 1.86779e-23)
(0.00138117 -0.000218644 1.74011e-23)
(0.00130055 -0.000194838 3.41369e-23)
(0.00119811 -0.000169875 -1.34979e-22)
(0.00107197 -0.000146222 2.61857e-22)
(0.000922213 -0.000123622 -6.37063e-25)
(0.000753601 -9.85712e-05 -1.53273e-22)
(0.000568857 -7.50968e-05 0)