/*--------------------------------*- C++ -*----------------------------------*\
| =========                 |                                                 |
| \\      /  F ield         | OpenFOAM: The Open Source CFD Toolbox           |
|  \\    /   O peration     | Version:  2312                                  |
|   \\  /    A nd           | Website:  www.openfoam.com                      |
|    \\/     M anipulation  |                                                 |
\*---------------------------------------------------------------------------*/
FoamFile
{
    version     2.0;
    format      ascii;
    arch        "LSB;label=32;scalar=64";
    class       volScalarField;
    location    "29000";
    object      p;
}
// * * * * * * * * * * * * * * * * * * * * * * * * * * * * * * * * * * * * * //

dimensions      [0 2 -2 0 0 0 0];

internalField   nonuniform List<scalar> 
2685
(
-1.8751e-07
-1.89044e-07
-1.89215e-07
-1.9008e-07
-1.90753e-07
-1.90471e-07
-1.89073e-07
-1.86563e-07
-1.8298e-07
-1.78372e-07
-1.72803e-07
-1.66349e-07
-1.59122e-07
-1.51263e-07
-1.42897e-07
-1.34143e-07
-1.25091e-07
-1.15854e-07
-1.0654e-07
-9.72221e-08
-8.79555e-08
-7.87894e-08
-6.97651e-08
-6.09256e-08
-5.23127e-08
-4.39642e-08
-3.59145e-08
-2.81935e-08
-2.08255e-08
-1.38294e-08
-7.21948e-09
-1.00674e-09
4.80107e-09
1.01994e-08
1.51878e-08
1.97712e-08
2.39608e-08
2.77732e-08
3.12301e-08
3.43558e-08
3.71754e-08
3.97131e-08
4.19915e-08
4.40305e-08
4.58441e-08
4.74444e-08
4.88435e-08
5.00547e-08
5.10922e-08
5.19704e-08
5.27029e-08
5.33015e-08
5.37766e-08
5.41385e-08
5.43989e-08
5.45712e-08
5.46702e-08
5.47096e-08
5.47002e-08
5.46482e-08
5.45556e-08
5.44219e-08
5.42468e-08
5.40319e-08
5.37816e-08
5.35031e-08
5.32046e-08
5.28938e-08
5.25762e-08
5.22545e-08
5.19287e-08
5.15973e-08
5.12582e-08
5.09096e-08
5.05494e-08
5.0177e-08
4.97963e-08
4.94083e-08
4.90118e-08
4.86046e-08
4.81832e-08
4.77443e-08
4.72848e-08
4.68032e-08
4.62992e-08
4.5775e-08
4.52331e-08
4.46774e-08
4.41124e-08
4.3543e-08
-2.06853e-07
-2.02689e-07
-2.02353e-07
-2.00905e-07
-1.98126e-07
-1.94592e-07
-1.90634e-07
-1.86229e-07
-1.81225e-07
-1.75523e-07
-1.69129e-07
-1.62103e-07
-1.54542e-07
-1.46569e-07
-1.3828e-07
-1.2976e-07
-1.21072e-07
-1.12254e-07
-1.03368e-07
-9.44849e-08
-8.56396e-08
-7.69053e-08
-6.82665e-08
-5.97497e-08
-5.14101e-08
-4.32861e-08
-3.54137e-08
-2.78257e-08
-2.05518e-08
-1.36176e-08
-7.04405e-09
-8.4804e-10
4.95549e-09
1.03535e-08
1.53371e-08
1.99051e-08
2.40661e-08
2.78387e-08
3.1249e-08
3.43276e-08
3.71047e-08
3.96078e-08
4.18618e-08
4.38879e-08
4.57006e-08
4.73071e-08
4.87145e-08
4.99325e-08
5.09734e-08
5.18513e-08
5.25807e-08
5.31754e-08
5.3648e-08
5.40099e-08
5.42725e-08
5.44486e-08
5.45524e-08
5.45979e-08
5.45959e-08
5.45528e-08
5.44711e-08
5.43503e-08
5.41892e-08
5.39885e-08
5.37519e-08
5.34863e-08
5.31997e-08
5.28997e-08
5.25908e-08
5.22741e-08
5.19474e-08
5.16067e-08
5.12483e-08
5.087e-08
5.04727e-08
5.00621e-08
4.96425e-08
4.92192e-08
4.8797e-08
4.83777e-08
4.79599e-08
4.75399e-08
4.71125e-08
4.66722e-08
4.62142e-08
4.57349e-08
4.52335e-08
4.4711e-08
4.41701e-08
4.36161e-08
-2.15117e-07
-2.08517e-07
-2.05557e-07
-2.02128e-07
-1.97402e-07
-1.91667e-07
-1.85506e-07
-1.79267e-07
-1.73015e-07
-1.66649e-07
-1.60029e-07
-1.53056e-07
-1.45712e-07
-1.38073e-07
-1.30265e-07
-1.223e-07
-1.14147e-07
-1.05812e-07
-9.73505e-08
-8.88293e-08
-8.02811e-08
-7.17213e-08
-6.32895e-08
-5.5025e-08
-4.69856e-08
-3.91698e-08
-3.16366e-08
-2.43987e-08
-1.74847e-08
-1.09171e-08
-4.7087e-09
1.13326e-09
6.6012e-09
1.16878e-08
1.63894e-08
2.07082e-08
2.46542e-08
2.82442e-08
3.15011e-08
3.44513e-08
3.71206e-08
3.95319e-08
4.17055e-08
4.36583e-08
4.5403e-08
4.69494e-08
4.8308e-08
4.94908e-08
5.05105e-08
5.13801e-08
5.2112e-08
5.27179e-08
5.32078e-08
5.35912e-08
5.38779e-08
5.40783e-08
5.42039e-08
5.42658e-08
5.4274e-08
5.42355e-08
5.41545e-08
5.40321e-08
5.38684e-08
5.36643e-08
5.34234e-08
5.31518e-08
5.28576e-08
5.25494e-08
5.22333e-08
5.19125e-08
5.15867e-08
5.12535e-08
5.09093e-08
5.05518e-08
5.01818e-08
4.98016e-08
4.94152e-08
4.90252e-08
4.86313e-08
4.82333e-08
4.78299e-08
4.74181e-08
4.69942e-08
4.65545e-08
4.6096e-08
4.56168e-08
4.5117e-08
4.45984e-08
4.40646e-08
4.35166e-08
-2.38767e-07
-2.27999e-07
-2.19153e-07
-2.10753e-07
-2.02151e-07
-1.93259e-07
-1.84276e-07
-1.75426e-07
-1.66813e-07
-1.58416e-07
-1.50139e-07
-1.41881e-07
-1.33584e-07
-1.2523e-07
-1.16797e-07
-1.08313e-07
-9.98516e-08
-9.1475e-08
-8.322e-08
-7.51069e-08
-6.71492e-08
-5.93696e-08
-5.17999e-08
-4.44839e-08
-3.73864e-08
-3.05306e-08
-2.3906e-08
-1.73867e-08
-1.11944e-08
-5.34338e-09
1.80103e-10
5.38534e-09
1.02699e-08
1.48267e-08
1.90492e-08
2.2936e-08
2.64941e-08
2.97391e-08
3.26917e-08
3.53741e-08
3.78073e-08
4.00107e-08
4.20015e-08
4.37944e-08
4.54019e-08
4.68338e-08
4.80992e-08
4.92071e-08
5.0167e-08
5.09889e-08
5.16831e-08
5.22602e-08
5.27308e-08
5.31046e-08
5.33905e-08
5.35969e-08
5.37318e-08
5.38037e-08
5.38205e-08
5.37885e-08
5.37126e-08
5.35964e-08
5.34433e-08
5.32566e-08
5.30405e-08
5.27995e-08
5.25381e-08
5.22605e-08
5.19701e-08
5.16685e-08
5.13556e-08
5.10298e-08
5.06895e-08
5.03331e-08
4.99602e-08
4.95719e-08
4.91703e-08
4.87596e-08
4.83433e-08
4.79243e-08
4.75037e-08
4.70807e-08
4.66532e-08
4.62184e-08
4.57734e-08
4.53156e-08
4.48439e-08
4.43582e-08
4.38591e-08
4.33478e-08
-2.59183e-07
-2.43813e-07
-2.29765e-07
-2.16524e-07
-2.03733e-07
-1.91251e-07
-1.7911e-07
-1.67426e-07
-1.56287e-07
-1.45702e-07
-1.35606e-07
-1.25912e-07
-1.16548e-07
-1.07471e-07
-9.86601e-08
-9.01145e-08
-8.18387e-08
-7.38333e-08
-6.60912e-08
-5.86013e-08
-5.13539e-08
-4.43425e-08
-3.75648e-08
-3.1024e-08
-2.47149e-08
-1.86332e-08
-1.27827e-08
-7.34797e-09
-2.15927e-09
2.78303e-09
7.46849e-09
1.18837e-08
1.60214e-08
1.98807e-08
2.34629e-08
2.67672e-08
2.97945e-08
3.256e-08
3.50879e-08
3.7399e-08
3.95076e-08
4.14251e-08
4.31621e-08
4.47287e-08
4.61341e-08
4.73861e-08
4.84922e-08
4.94606e-08
5.02998e-08
5.1019e-08
5.16273e-08
5.21336e-08
5.25465e-08
5.2874e-08
5.31237e-08
5.33029e-08
5.34186e-08
5.3478e-08
5.34875e-08
5.34525e-08
5.33776e-08
5.32662e-08
5.31206e-08
5.29429e-08
5.27354e-08
5.25011e-08
5.22436e-08
5.19666e-08
5.16733e-08
5.13659e-08
5.1046e-08
5.07139e-08
5.03696e-08
5.00127e-08
4.96437e-08
4.92638e-08
4.88749e-08
4.8479e-08
4.80777e-08
4.76716e-08
4.72605e-08
4.68435e-08
4.64196e-08
4.59872e-08
4.55452e-08
4.50924e-08
4.46282e-08
4.41526e-08
4.36663e-08
4.31708e-08
-2.74291e-07
-2.55242e-07
-2.37399e-07
-2.20501e-07
-2.04322e-07
-1.88725e-07
-1.73714e-07
-1.59383e-07
-1.45824e-07
-1.33065e-07
-1.21069e-07
-1.09773e-07
-9.91113e-08
-8.90426e-08
-7.95522e-08
-7.06313e-08
-6.22479e-08
-5.43587e-08
-4.69221e-08
-3.99006e-08
-3.32595e-08
-2.69686e-08
-2.10057e-08
-1.53545e-08
-1.00037e-08
-4.94588e-09
-1.73802e-10
4.31923e-09
8.56498e-09
1.25779e-08
1.63568e-08
1.99021e-08
2.32156e-08
2.62983e-08
2.91618e-08
3.183e-08
3.42841e-08
3.65259e-08
3.85744e-08
4.0448e-08
4.21589e-08
4.37149e-08
4.51223e-08
4.63884e-08
4.75209e-08
4.85276e-08
4.94158e-08
5.01924e-08
5.08648e-08
5.14401e-08
5.19253e-08
5.23272e-08
5.26524e-08
5.29072e-08
5.30978e-08
5.32297e-08
5.33079e-08
5.33369e-08
5.33212e-08
5.32644e-08
5.31701e-08
5.30412e-08
5.28807e-08
5.26916e-08
5.24768e-08
5.22394e-08
5.19823e-08
5.17082e-08
5.14191e-08
5.11163e-08
5.08006e-08
5.04725e-08
5.01324e-08
4.97808e-08
4.94182e-08
4.90454e-08
4.8663e-08
4.82719e-08
4.78726e-08
4.74659e-08
4.7052e-08
4.66313e-08
4.62037e-08
4.5769e-08
4.53267e-08
4.48766e-08
4.44186e-08
4.39527e-08
4.34797e-08
4.30002e-08
-2.84375e-07
-2.62305e-07
-2.41596e-07
-2.21748e-07
-2.02595e-07
-1.84202e-07
-1.66684e-07
-1.50114e-07
-1.34524e-07
-1.19919e-07
-1.06289e-07
-9.36041e-08
-8.1819e-08
-7.08758e-08
-6.07199e-08
-5.13105e-08
-4.26223e-08
-3.46238e-08
-2.72686e-08
-2.05039e-08
-1.42804e-08
-8.55324e-09
-3.28107e-09
1.57574e-09
6.0543e-09
1.01898e-08
1.40156e-08
1.75607e-08
2.08499e-08
2.39017e-08
2.67331e-08
2.93579e-08
3.17889e-08
3.40388e-08
3.61125e-08
3.80094e-08
3.97745e-08
4.14242e-08
4.29494e-08
4.43379e-08
4.55976e-08
4.67383e-08
4.77653e-08
4.86845e-08
4.95026e-08
5.0226e-08
5.08609e-08
5.14129e-08
5.18873e-08
5.22891e-08
5.26232e-08
5.28939e-08
5.31054e-08
5.32619e-08
5.33672e-08
5.34248e-08
5.34384e-08
5.34114e-08
5.33472e-08
5.32493e-08
5.31205e-08
5.29637e-08
5.27814e-08
5.25756e-08
5.23485e-08
5.21018e-08
5.18373e-08
5.15567e-08
5.12613e-08
5.09522e-08
5.06304e-08
5.02968e-08
4.99518e-08
4.95959e-08
4.92298e-08
4.88541e-08
4.84698e-08
4.80776e-08
4.76783e-08
4.72725e-08
4.68605e-08
4.64423e-08
4.6018e-08
4.55873e-08
4.51501e-08
4.47062e-08
4.42557e-08
4.37987e-08
4.33356e-08
4.2867e-08
-2.98272e-07
-2.71189e-07
-2.46031e-07
-2.22165e-07
-1.99361e-07
-1.77668e-07
-1.57236e-07
-1.3819e-07
-1.20586e-07
-1.04415e-07
-8.96049e-08
-7.60347e-08
-6.35789e-08
-5.21448e-08
-4.16776e-08
-3.2142e-08
-2.34996e-08
-1.56943e-08
-8.65656e-09
-2.31581e-09
3.39146e-09
8.52311e-09
1.31344e-08
1.7278e-08
2.10033e-08
2.4355e-08
2.73744e-08
3.00988e-08
3.25614e-08
3.47921e-08
3.68177e-08
3.86608e-08
4.03405e-08
4.18728e-08
4.32686e-08
4.45392e-08
4.56982e-08
4.67535e-08
4.77099e-08
4.85855e-08
4.93802e-08
5.00916e-08
5.07244e-08
5.12861e-08
5.17817e-08
5.22149e-08
5.25891e-08
5.29075e-08
5.31733e-08
5.33891e-08
5.35574e-08
5.36808e-08
5.37618e-08
5.38029e-08
5.38067e-08
5.37756e-08
5.37122e-08
5.3619e-08
5.3498e-08
5.33514e-08
5.31808e-08
5.29881e-08
5.27746e-08
5.25419e-08
5.22915e-08
5.20248e-08
5.17432e-08
5.14479e-08
5.11399e-08
5.08202e-08
5.04896e-08
5.01486e-08
4.97978e-08
4.9438e-08
4.90697e-08
4.86935e-08
4.83099e-08
4.79193e-08
4.7522e-08
4.71182e-08
4.6708e-08
4.62916e-08
4.5869e-08
4.54403e-08
4.50056e-08
4.45649e-08
4.41186e-08
4.36669e-08
4.32101e-08
4.27488e-08
-3.17858e-07
-2.83904e-07
-2.52472e-07
-2.23054e-07
-1.95416e-07
-1.69547e-07
-1.45557e-07
-1.23555e-07
-1.03587e-07
-8.56047e-08
-6.94695e-08
-5.49936e-08
-4.2e-08
-3.03554e-08
-1.99628e-08
-1.0736e-08
-2.58095e-09
4.60676e-09
1.09338e-08
1.64988e-08
2.13876e-08
2.56756e-08
2.94309e-08
3.27153e-08
3.55848e-08
3.80901e-08
4.02764e-08
4.21839e-08
4.38476e-08
4.52984e-08
4.65638e-08
4.76696e-08
4.86393e-08
4.94943e-08
5.02533e-08
5.09312e-08
5.15377e-08
5.20809e-08
5.25429e-08
5.29573e-08
5.33245e-08
5.36433e-08
5.39163e-08
5.41458e-08
5.43338e-08
5.44827e-08
5.45954e-08
5.46745e-08
5.4722e-08
5.47396e-08
5.47289e-08
5.46914e-08
5.46284e-08
5.45414e-08
5.44316e-08
5.43002e-08
5.41484e-08
5.39772e-08
5.37876e-08
5.35806e-08
5.33573e-08
5.31185e-08
5.28652e-08
5.25981e-08
5.23183e-08
5.20265e-08
5.17235e-08
5.141e-08
5.10864e-08
5.07533e-08
5.04113e-08
5.00609e-08
4.97023e-08
4.93362e-08
4.89627e-08
4.85823e-08
4.81952e-08
4.78017e-08
4.7402e-08
4.69964e-08
4.65851e-08
4.61682e-08
4.57458e-08
4.53183e-08
4.48856e-08
4.44479e-08
4.40055e-08
4.35585e-08
4.31071e-08
4.26518e-08
-3.36195e-07
-2.94944e-07
-2.56546e-07
-2.20825e-07
-1.87681e-07
-1.57106e-07
-1.29151e-07
-1.0386e-07
-8.12274e-08
-6.11569e-08
-4.34628e-08
-2.79198e-08
-1.43172e-08
-2.47907e-09
7.74666e-09
1.65034e-08
2.39362e-08
3.01953e-08
3.54308e-08
3.97827e-08
4.33754e-08
4.63187e-08
4.87112e-08
5.0641e-08
5.21867e-08
5.34173e-08
5.43913e-08
5.51567e-08
5.57521e-08
5.62091e-08
5.65554e-08
5.68153e-08
5.70101e-08
5.71566e-08
5.7266e-08
5.73448e-08
5.73964e-08
5.74221e-08
5.74423e-08
5.74311e-08
5.73889e-08
5.73224e-08
5.72368e-08
5.7134e-08
5.70148e-08
5.68798e-08
5.67305e-08
5.65682e-08
5.63938e-08
5.62084e-08
5.60128e-08
5.58076e-08
5.55936e-08
5.53709e-08
5.514e-08
5.4901e-08
5.46538e-08
5.43986e-08
5.41352e-08
5.38638e-08
5.35844e-08
5.32969e-08
5.30013e-08
5.26977e-08
5.23863e-08
5.20671e-08
5.17402e-08
5.14059e-08
5.10644e-08
5.07159e-08
5.03606e-08
4.99989e-08
4.96309e-08
4.92568e-08
4.88768e-08
4.84912e-08
4.81e-08
4.77036e-08
4.73019e-08
4.68952e-08
4.64835e-08
4.60669e-08
4.56455e-08
4.52194e-08
4.47887e-08
4.43535e-08
4.3914e-08
4.34704e-08
4.30229e-08
4.25718e-08
-3.42605e-07
-2.95279e-07
-2.51029e-07
-2.09911e-07
-1.71969e-07
-1.37248e-07
-1.05778e-07
-7.75404e-08
-5.24489e-08
-3.0363e-08
-1.11042e-08
5.52675e-09
1.97376e-08
3.1737e-08
4.17283e-08
4.99084e-08
5.64751e-08
6.16302e-08
6.5572e-08
6.84847e-08
7.05339e-08
7.18678e-08
7.26192e-08
7.29058e-08
7.28307e-08
7.24821e-08
7.19335e-08
7.12442e-08
7.04608e-08
6.96204e-08
6.87533e-08
6.78843e-08
6.7033e-08
6.62141e-08
6.54369e-08
6.47059e-08
6.40222e-08
6.33827e-08
6.27926e-08
6.22369e-08
6.17209e-08
6.12197e-08
6.07336e-08
6.02641e-08
5.9809e-08
5.93661e-08
5.89357e-08
5.85178e-08
5.81118e-08
5.77167e-08
5.7332e-08
5.69571e-08
5.65911e-08
5.62331e-08
5.58821e-08
5.55368e-08
5.5196e-08
5.48582e-08
5.45225e-08
5.41876e-08
5.38526e-08
5.35163e-08
5.31781e-08
5.28373e-08
5.24934e-08
5.21459e-08
5.17944e-08
5.14386e-08
5.10786e-08
5.07141e-08
5.03451e-08
4.99716e-08
4.95935e-08
4.9211e-08
4.88239e-08
4.84324e-08
4.80365e-08
4.76362e-08
4.72316e-08
4.68225e-08
4.64091e-08
4.59915e-08
4.55696e-08
4.51435e-08
4.47135e-08
4.42795e-08
4.38417e-08
4.34002e-08
4.29553e-08
4.25071e-08
-3.31343e-07
-2.80123e-07
-2.32119e-07
-1.87484e-07
-1.46341e-07
-1.08777e-07
-7.48262e-08
-4.44619e-08
-1.75979e-08
5.89866e-09
2.61956e-08
4.3488e-08
5.79911e-08
6.99317e-08
7.95416e-08
8.70561e-08
9.27122e-08
9.67444e-08
9.93773e-08
1.00822e-07
1.01272e-07
1.00908e-07
9.98921e-08
9.83706e-08
9.64744e-08
9.43181e-08
9.20005e-08
8.96038e-08
8.71941e-08
8.48231e-08
8.25293e-08
8.034e-08
7.82735e-08
7.63395e-08
7.45418e-08
7.28776e-08
7.13403e-08
6.99234e-08
6.86129e-08
6.73978e-08
6.62642e-08
6.52308e-08
6.42878e-08
6.34076e-08
6.2584e-08
6.18066e-08
6.10758e-08
6.03901e-08
5.97459e-08
5.91395e-08
5.85677e-08
5.80275e-08
5.75159e-08
5.703e-08
5.65668e-08
5.61233e-08
5.56964e-08
5.52821e-08
5.48811e-08
5.44891e-08
5.41041e-08
5.37244e-08
5.33482e-08
5.29742e-08
5.26011e-08
5.2228e-08
5.18542e-08
5.1479e-08
5.1102e-08
5.07229e-08
5.03413e-08
4.99572e-08
4.95701e-08
4.91796e-08
4.87859e-08
4.83888e-08
4.79884e-08
4.75844e-08
4.71769e-08
4.67657e-08
4.63508e-08
4.59322e-08
4.551e-08
4.50841e-08
4.46547e-08
4.42217e-08
4.37853e-08
4.33456e-08
4.29027e-08
4.24567e-08
-3.04435e-07
-2.51534e-07
-2.01929e-07
-1.55779e-07
-1.13241e-07
-7.44365e-08
-3.94229e-08
-8.18528e-09
1.93524e-08
4.33087e-08
6.38378e-08
8.11276e-08
9.53938e-08
1.06872e-07
1.15809e-07
1.22462e-07
1.27085e-07
1.2993e-07
1.31241e-07
1.3125e-07
1.30176e-07
1.28222e-07
1.25576e-07
1.22407e-07
1.18868e-07
1.15091e-07
1.11188e-07
1.07257e-07
1.03374e-07
9.95999e-08
9.59781e-08
9.25392e-08
8.93013e-08
8.62734e-08
8.34572e-08
8.08489e-08
7.84412e-08
7.62244e-08
7.41871e-08
7.23172e-08
7.06031e-08
6.90313e-08
6.75828e-08
6.62554e-08
6.50369e-08
6.3925e-08
6.29064e-08
6.197e-08
6.11079e-08
6.03131e-08
5.95789e-08
5.88988e-08
5.82665e-08
5.76763e-08
5.71228e-08
5.6601e-08
5.61067e-08
5.56367e-08
5.5184e-08
5.47472e-08
5.43231e-08
5.39089e-08
5.35023e-08
5.31015e-08
5.27047e-08
5.23108e-08
5.19185e-08
5.1527e-08
5.11356e-08
5.07438e-08
5.03511e-08
4.99569e-08
4.95612e-08
4.9164e-08
4.87646e-08
4.83629e-08
4.79584e-08
4.75512e-08
4.7141e-08
4.67278e-08
4.63114e-08
4.58918e-08
4.54689e-08
4.50428e-08
4.46134e-08
4.41809e-08
4.37451e-08
4.33064e-08
4.28646e-08
4.242e-08
-2.72018e-07
-2.19366e-07
-1.69758e-07
-1.23662e-07
-8.11771e-08
-4.24358e-08
-7.51484e-09
2.35798e-08
5.08978e-08
7.45396e-08
9.46501e-08
1.11414e-07
1.25046e-07
1.35783e-07
1.43878e-07
1.49591e-07
1.53188e-07
1.54932e-07
1.55083e-07
1.53891e-07
1.51585e-07
1.48378e-07
1.44469e-07
1.40039e-07
1.3525e-07
1.30243e-07
1.25142e-07
1.20049e-07
1.1505e-07
1.1021e-07
1.0558e-07
1.01193e-07
9.70688e-08
9.32184e-08
8.96434e-08
8.63393e-08
8.32976e-08
8.05064e-08
7.79519e-08
7.56185e-08
7.34894e-08
7.15484e-08
6.97808e-08
6.81742e-08
6.67149e-08
6.53886e-08
6.41808e-08
6.30788e-08
6.20719e-08
6.11502e-08
6.03048e-08
5.95273e-08
5.88099e-08
5.81455e-08
5.75274e-08
5.69494e-08
5.64059e-08
5.58918e-08
5.54021e-08
5.49328e-08
5.44802e-08
5.40409e-08
5.36124e-08
5.31922e-08
5.27783e-08
5.23693e-08
5.19638e-08
5.15607e-08
5.11591e-08
5.07585e-08
5.03581e-08
4.99576e-08
4.95565e-08
4.91545e-08
4.87511e-08
4.8346e-08
4.79388e-08
4.75293e-08
4.71174e-08
4.67027e-08
4.62853e-08
4.5865e-08
4.54417e-08
4.50154e-08
4.45861e-08
4.41538e-08
4.37186e-08
4.32805e-08
4.28395e-08
4.23958e-08
-2.49656e-07
-1.97351e-07
-1.48244e-07
-1.02635e-07
-6.06289e-08
-2.23835e-08
1.20395e-08
4.26238e-08
6.93987e-08
9.24827e-08
1.12017e-07
1.28183e-07
1.41196e-07
1.51292e-07
1.58725e-07
1.6376e-07
1.66663e-07
1.677e-07
1.67129e-07
1.65199e-07
1.62149e-07
1.58206e-07
1.53579e-07
1.48455e-07
1.43002e-07
1.37364e-07
1.31667e-07
1.26014e-07
1.20489e-07
1.15155e-07
1.10062e-07
1.05241e-07
1.00712e-07
9.64849e-08
9.25613e-08
8.89366e-08
8.56017e-08
8.2544e-08
7.97487e-08
7.71993e-08
7.48787e-08
7.27698e-08
7.08559e-08
6.91198e-08
6.75447e-08
6.6115e-08
6.48165e-08
6.36358e-08
6.25605e-08
6.15794e-08
6.0682e-08
5.9859e-08
5.91017e-08
5.8402e-08
5.77528e-08
5.71473e-08
5.65793e-08
5.60433e-08
5.55341e-08
5.50474e-08
5.45791e-08
5.41258e-08
5.36845e-08
5.32529e-08
5.28287e-08
5.24104e-08
5.19966e-08
5.15862e-08
5.11783e-08
5.07721e-08
5.03669e-08
4.99623e-08
4.95577e-08
4.91526e-08
4.87466e-08
4.83393e-08
4.79305e-08
4.75197e-08
4.71067e-08
4.66912e-08
4.62732e-08
4.58524e-08
4.54288e-08
4.50024e-08
4.4573e-08
4.41408e-08
4.37057e-08
4.32679e-08
4.28272e-08
4.2384e-08
-2.49611e-07
-1.97302e-07
-1.48192e-07
-1.02582e-07
-6.05749e-08
-2.23301e-08
1.20923e-08
4.2676e-08
6.94499e-08
9.25306e-08
1.12061e-07
1.28223e-07
1.41232e-07
1.51324e-07
1.58753e-07
1.63784e-07
1.66683e-07
1.67717e-07
1.67143e-07
1.65209e-07
1.62157e-07
1.58212e-07
1.53583e-07
1.48458e-07
1.43003e-07
1.37364e-07
1.31666e-07
1.26013e-07
1.20487e-07
1.15154e-07
1.1006e-07
1.05239e-07
1.00711e-07
9.64836e-08
9.25603e-08
8.89359e-08
8.56013e-08
8.2544e-08
7.97489e-08
7.71997e-08
7.48793e-08
7.27706e-08
7.08568e-08
6.91208e-08
6.75458e-08
6.61162e-08
6.48177e-08
6.3637e-08
6.25617e-08
6.15805e-08
6.06831e-08
5.986e-08
5.91026e-08
5.84029e-08
5.77535e-08
5.71479e-08
5.65798e-08
5.60436e-08
5.55344e-08
5.50476e-08
5.45793e-08
5.41259e-08
5.36846e-08
5.3253e-08
5.28288e-08
5.24105e-08
5.19967e-08
5.15863e-08
5.11784e-08
5.07722e-08
5.03671e-08
4.99625e-08
4.95578e-08
4.91528e-08
4.87468e-08
4.83395e-08
4.79308e-08
4.75198e-08
4.71068e-08
4.66913e-08
4.62733e-08
4.58525e-08
4.54289e-08
4.50024e-08
4.45731e-08
4.41409e-08
4.37058e-08
4.32679e-08
4.28273e-08
-2.71888e-07
-2.19228e-07
-1.69615e-07
-1.23517e-07
-8.10319e-08
-4.22926e-08
-7.37532e-09
2.37147e-08
5.10262e-08
7.46601e-08
9.47617e-08
1.11516e-07
1.25138e-07
1.35866e-07
1.4395e-07
1.49654e-07
1.53242e-07
1.54977e-07
1.55121e-07
1.53922e-07
1.5161e-07
1.48397e-07
1.44483e-07
1.40049e-07
1.35257e-07
1.30248e-07
1.25144e-07
1.2005e-07
1.15049e-07
1.10209e-07
1.05578e-07
1.01191e-07
9.70672e-08
9.32172e-08
8.96426e-08
8.63391e-08
8.32979e-08
8.05073e-08
7.79533e-08
7.56204e-08
7.34917e-08
7.15511e-08
6.97839e-08
6.81774e-08
6.67181e-08
6.53918e-08
6.41839e-08
6.30819e-08
6.20749e-08
6.11531e-08
6.03076e-08
5.95299e-08
5.88123e-08
5.81477e-08
5.75293e-08
5.69511e-08
5.64073e-08
5.5893e-08
5.54031e-08
5.49336e-08
5.44809e-08
5.40415e-08
5.36129e-08
5.31927e-08
5.27788e-08
5.23698e-08
5.19642e-08
5.15611e-08
5.11596e-08
5.07589e-08
5.03586e-08
4.99581e-08
4.9557e-08
4.91548e-08
4.87514e-08
4.83462e-08
4.79389e-08
4.75295e-08
4.71175e-08
4.67029e-08
4.62855e-08
4.58652e-08
4.54419e-08
4.50156e-08
4.45863e-08
4.4154e-08
4.37187e-08
4.32806e-08
4.28396e-08
-3.0425e-07
-2.51341e-07
-2.01732e-07
-1.55581e-07
-1.13044e-07
-7.42434e-08
-3.92363e-08
-8.00721e-09
1.95205e-08
4.34657e-08
6.39828e-08
8.12602e-08
9.55137e-08
1.06979e-07
1.15905e-07
1.22545e-07
1.27157e-07
1.29993e-07
1.31295e-07
1.31295e-07
1.30214e-07
1.28253e-07
1.25602e-07
1.22429e-07
1.18886e-07
1.15105e-07
1.112e-07
1.07267e-07
1.03382e-07
9.96063e-08
9.59836e-08
9.25439e-08
8.93056e-08
8.62775e-08
8.34612e-08
8.08529e-08
7.84453e-08
7.62286e-08
7.41915e-08
7.23217e-08
7.06076e-08
6.9036e-08
6.75883e-08
6.62607e-08
6.50419e-08
6.39296e-08
6.29107e-08
6.19742e-08
6.11119e-08
6.03169e-08
5.95825e-08
5.89021e-08
5.82696e-08
5.76792e-08
5.71255e-08
5.66035e-08
5.61089e-08
5.56387e-08
5.51857e-08
5.47487e-08
5.43244e-08
5.391e-08
5.35034e-08
5.31025e-08
5.27057e-08
5.23116e-08
5.19193e-08
5.15278e-08
5.11364e-08
5.07446e-08
5.03518e-08
4.99577e-08
4.9562e-08
4.91647e-08
4.87652e-08
4.83634e-08
4.79589e-08
4.75516e-08
4.71414e-08
4.67281e-08
4.63117e-08
4.58921e-08
4.54692e-08
4.50431e-08
4.46137e-08
4.41811e-08
4.37453e-08
4.33065e-08
4.28648e-08
-3.3113e-07
-2.79906e-07
-2.31901e-07
-1.87268e-07
-1.4613e-07
-1.08572e-07
-7.46302e-08
-4.42764e-08
-1.74241e-08
6.06003e-09
2.6344e-08
4.36233e-08
5.81134e-08
7.00414e-08
7.96394e-08
8.71426e-08
9.27885e-08
9.68112e-08
9.94356e-08
1.00872e-07
1.01317e-07
1.00947e-07
9.99256e-08
9.83999e-08
9.65e-08
9.43407e-08
9.20204e-08
8.96215e-08
8.721e-08
8.48374e-08
8.25421e-08
8.03517e-08
7.82842e-08
7.63493e-08
7.45509e-08
7.28862e-08
7.13483e-08
6.99311e-08
6.86205e-08
6.74053e-08
6.62712e-08
6.52371e-08
6.42931e-08
6.34127e-08
6.25893e-08
6.18119e-08
6.10809e-08
6.0395e-08
5.97505e-08
5.91439e-08
5.85718e-08
5.80313e-08
5.75195e-08
5.70333e-08
5.65697e-08
5.61259e-08
5.56987e-08
5.52842e-08
5.48832e-08
5.44911e-08
5.4106e-08
5.37261e-08
5.33498e-08
5.29757e-08
5.26026e-08
5.22294e-08
5.18555e-08
5.14802e-08
5.11032e-08
5.0724e-08
5.03423e-08
4.99581e-08
4.95709e-08
4.91803e-08
4.87867e-08
4.83895e-08
4.7989e-08
4.7585e-08
4.71774e-08
4.67662e-08
4.63513e-08
4.59327e-08
4.55104e-08
4.50845e-08
4.4655e-08
4.4222e-08
4.37856e-08
4.33458e-08
4.29029e-08
-3.42395e-07
-2.95069e-07
-2.50822e-07
-2.09709e-07
-1.71772e-07
-1.37061e-07
-1.05601e-07
-7.73743e-08
-5.22944e-08
-3.02203e-08
-1.09733e-08
5.6461e-09
1.98457e-08
3.18345e-08
4.18157e-08
4.99865e-08
5.65447e-08
6.16922e-08
6.56273e-08
6.8534e-08
7.05778e-08
7.1907e-08
7.26543e-08
7.29373e-08
7.28589e-08
7.25075e-08
7.19564e-08
7.12649e-08
7.04795e-08
6.96374e-08
6.87688e-08
6.78984e-08
6.70459e-08
6.62259e-08
6.54477e-08
6.47159e-08
6.40313e-08
6.3391e-08
6.28003e-08
6.22439e-08
6.17276e-08
6.12262e-08
6.07398e-08
6.02701e-08
5.98148e-08
5.93719e-08
5.89413e-08
5.85232e-08
5.81169e-08
5.77216e-08
5.73366e-08
5.69614e-08
5.65951e-08
5.62368e-08
5.58855e-08
5.554e-08
5.5199e-08
5.4861e-08
5.45252e-08
5.41902e-08
5.3855e-08
5.35186e-08
5.31802e-08
5.28394e-08
5.24954e-08
5.21477e-08
5.17961e-08
5.14402e-08
5.10801e-08
5.07154e-08
5.03463e-08
4.99727e-08
4.95947e-08
4.9212e-08
4.88249e-08
4.84334e-08
4.80374e-08
4.7637e-08
4.72323e-08
4.68232e-08
4.64098e-08
4.5992e-08
4.55701e-08
4.5144e-08
4.47139e-08
4.42798e-08
4.3842e-08
4.34005e-08
4.29555e-08
-3.36012e-07
-2.94765e-07
-2.56371e-07
-2.20655e-07
-1.87517e-07
-1.5695e-07
-1.29004e-07
-1.03723e-07
-8.11016e-08
-6.10414e-08
-4.33569e-08
-2.78231e-08
-1.42291e-08
-2.39911e-09
7.81902e-09
1.65688e-08
2.39951e-08
3.02484e-08
3.54786e-08
3.98258e-08
4.34142e-08
4.63538e-08
4.87429e-08
5.06696e-08
5.22127e-08
5.34408e-08
5.44127e-08
5.51762e-08
5.57699e-08
5.62255e-08
5.65704e-08
5.68291e-08
5.70229e-08
5.71685e-08
5.72771e-08
5.73553e-08
5.74064e-08
5.74318e-08
5.7451e-08
5.74392e-08
5.73967e-08
5.73298e-08
5.7244e-08
5.71409e-08
5.70214e-08
5.68862e-08
5.67367e-08
5.65741e-08
5.63995e-08
5.62138e-08
5.60179e-08
5.58125e-08
5.55981e-08
5.53752e-08
5.51441e-08
5.49048e-08
5.46574e-08
5.4402e-08
5.41385e-08
5.38669e-08
5.35873e-08
5.32997e-08
5.30039e-08
5.27002e-08
5.23886e-08
5.20693e-08
5.17423e-08
5.14079e-08
5.10662e-08
5.07176e-08
5.03622e-08
5.00004e-08
4.96323e-08
4.92581e-08
4.8878e-08
4.84923e-08
4.81011e-08
4.77045e-08
4.73028e-08
4.6896e-08
4.64842e-08
4.60676e-08
4.56461e-08
4.52199e-08
4.47892e-08
4.43539e-08
4.39144e-08
4.34707e-08
4.30232e-08
-3.17717e-07
-2.83766e-07
-2.52337e-07
-2.22923e-07
-1.95289e-07
-1.69427e-07
-1.45444e-07
-1.23449e-07
-1.03488e-07
-8.55136e-08
-6.93851e-08
-5.49157e-08
-4.19282e-08
-3.02895e-08
-1.99024e-08
-1.06808e-08
-2.53059e-09
4.65267e-09
1.09756e-08
1.65368e-08
2.14221e-08
2.57069e-08
2.94592e-08
3.27409e-08
3.56081e-08
3.81113e-08
4.02957e-08
4.22016e-08
4.38639e-08
4.53135e-08
4.65779e-08
4.76828e-08
4.86517e-08
4.95061e-08
5.02645e-08
5.09418e-08
5.15478e-08
5.20905e-08
5.25521e-08
5.29663e-08
5.33332e-08
5.36516e-08
5.39242e-08
5.41535e-08
5.43411e-08
5.44898e-08
5.46022e-08
5.4681e-08
5.47282e-08
5.47456e-08
5.47346e-08
5.46967e-08
5.46335e-08
5.45462e-08
5.44362e-08
5.43046e-08
5.41525e-08
5.39811e-08
5.37913e-08
5.35842e-08
5.33607e-08
5.31218e-08
5.28683e-08
5.26011e-08
5.23211e-08
5.20292e-08
5.17261e-08
5.14123e-08
5.10886e-08
5.07554e-08
5.04133e-08
5.00627e-08
4.9704e-08
4.93377e-08
4.89641e-08
4.85836e-08
4.81964e-08
4.78028e-08
4.7403e-08
4.69973e-08
4.65859e-08
4.61689e-08
4.57465e-08
4.53189e-08
4.48862e-08
4.44485e-08
4.40059e-08
4.35589e-08
4.31075e-08
-2.98172e-07
-2.7109e-07
-2.45932e-07
-2.22067e-07
-1.99265e-07
-1.77575e-07
-1.57147e-07
-1.38105e-07
-1.20506e-07
-1.04339e-07
-8.95335e-08
-7.59675e-08
-6.35158e-08
-5.20859e-08
-4.16229e-08
-3.20914e-08
-2.34528e-08
-1.56513e-08
-8.617e-09
-2.27952e-09
3.42471e-09
8.55356e-09
1.31623e-08
1.73036e-08
2.10268e-08
2.43767e-08
2.73945e-08
3.01175e-08
3.25789e-08
3.48086e-08
3.68334e-08
3.86757e-08
4.03547e-08
4.18863e-08
4.32814e-08
4.45515e-08
4.57099e-08
4.67647e-08
4.77206e-08
4.85957e-08
4.939e-08
5.0101e-08
5.07334e-08
5.12946e-08
5.17899e-08
5.22228e-08
5.25965e-08
5.29146e-08
5.31801e-08
5.33955e-08
5.35636e-08
5.36867e-08
5.37674e-08
5.38082e-08
5.38117e-08
5.37804e-08
5.37168e-08
5.36234e-08
5.35022e-08
5.33554e-08
5.31847e-08
5.29918e-08
5.27782e-08
5.25453e-08
5.22947e-08
5.20278e-08
5.17461e-08
5.14506e-08
5.11425e-08
5.08226e-08
5.04918e-08
5.01506e-08
4.97997e-08
4.94397e-08
4.90713e-08
4.8695e-08
4.83112e-08
4.79205e-08
4.75231e-08
4.71192e-08
4.67089e-08
4.62925e-08
4.58698e-08
4.5441e-08
4.50062e-08
4.45655e-08
4.41191e-08
4.36673e-08
4.32105e-08
-2.84305e-07
-2.62233e-07
-2.41521e-07
-2.21672e-07
-2.02519e-07
-1.84127e-07
-1.6661e-07
-1.50042e-07
-1.34454e-07
-1.19852e-07
-1.06224e-07
-9.35426e-08
-8.17607e-08
-7.08207e-08
-6.0668e-08
-5.12618e-08
-4.25768e-08
-3.45813e-08
-2.72289e-08
-2.04669e-08
-1.42458e-08
-8.52113e-09
-3.25124e-09
1.6034e-09
6.07991e-09
1.02135e-08
1.40377e-08
1.75815e-08
2.08695e-08
2.39203e-08
2.67508e-08
2.93748e-08
3.18051e-08
3.40542e-08
3.61272e-08
3.80233e-08
3.97877e-08
4.14368e-08
4.29615e-08
4.43493e-08
4.56086e-08
4.67486e-08
4.77752e-08
4.8694e-08
4.95116e-08
5.02346e-08
5.0869e-08
5.14206e-08
5.18946e-08
5.22961e-08
5.26299e-08
5.29002e-08
5.31115e-08
5.32676e-08
5.33726e-08
5.34301e-08
5.34434e-08
5.34161e-08
5.33518e-08
5.32537e-08
5.31248e-08
5.29678e-08
5.27853e-08
5.25794e-08
5.2352e-08
5.21052e-08
5.18405e-08
5.15597e-08
5.12641e-08
5.09548e-08
5.06329e-08
5.0299e-08
4.99538e-08
4.95978e-08
4.92315e-08
4.88557e-08
4.84712e-08
4.80789e-08
4.76795e-08
4.72736e-08
4.68614e-08
4.64432e-08
4.60188e-08
4.5588e-08
4.51507e-08
4.47068e-08
4.42562e-08
4.37992e-08
4.3336e-08
-2.74234e-07
-2.55184e-07
-2.37339e-07
-2.20439e-07
-2.0426e-07
-1.88662e-07
-1.73651e-07
-1.59321e-07
-1.45764e-07
-1.33006e-07
-1.21012e-07
-1.09717e-07
-9.90581e-08
-8.89914e-08
-7.95031e-08
-7.05842e-08
-6.22029e-08
-5.43158e-08
-4.68812e-08
-3.98617e-08
-3.32227e-08
-2.69339e-08
-2.09732e-08
-1.53243e-08
-9.97583e-09
-4.92048e-09
-1.50501e-10
4.34166e-09
8.58677e-09
1.2599e-08
1.6377e-08
1.99214e-08
2.3234e-08
2.63157e-08
2.91784e-08
3.18456e-08
3.42989e-08
3.654e-08
3.85877e-08
4.04605e-08
4.21708e-08
4.37261e-08
4.5133e-08
4.63985e-08
4.75305e-08
4.85368e-08
4.94244e-08
5.02007e-08
5.08726e-08
5.14476e-08
5.19324e-08
5.23339e-08
5.26588e-08
5.29133e-08
5.31036e-08
5.32353e-08
5.33132e-08
5.33421e-08
5.33262e-08
5.32692e-08
5.31747e-08
5.30456e-08
5.28849e-08
5.26956e-08
5.24806e-08
5.2243e-08
5.19858e-08
5.17115e-08
5.14221e-08
5.11191e-08
5.08032e-08
5.04749e-08
5.01346e-08
4.97828e-08
4.94201e-08
4.90471e-08
4.86645e-08
4.82732e-08
4.78738e-08
4.7467e-08
4.7053e-08
4.66322e-08
4.62045e-08
4.57697e-08
4.53273e-08
4.48772e-08
4.44191e-08
4.39532e-08
4.34802e-08
-2.59143e-07
-2.43771e-07
-2.29721e-07
-2.16477e-07
-2.03684e-07
-1.912e-07
-1.79059e-07
-1.67374e-07
-1.56236e-07
-1.45651e-07
-1.35555e-07
-1.25862e-07
-1.16499e-07
-1.07422e-07
-9.86123e-08
-9.00677e-08
-8.17931e-08
-7.37889e-08
-6.60481e-08
-5.85598e-08
-5.1314e-08
-4.43044e-08
-3.75288e-08
-3.09904e-08
-2.46845e-08
-1.86073e-08
-1.27642e-08
-7.32529e-09
-2.13544e-09
2.8066e-09
7.49122e-09
1.19053e-08
1.60419e-08
1.99e-08
2.3481e-08
2.67842e-08
2.98105e-08
3.2575e-08
3.5102e-08
3.74123e-08
3.95202e-08
4.14369e-08
4.31733e-08
4.47393e-08
4.61441e-08
4.73956e-08
4.85013e-08
4.94691e-08
5.03079e-08
5.10267e-08
5.16347e-08
5.21406e-08
5.25532e-08
5.28804e-08
5.31298e-08
5.33087e-08
5.34243e-08
5.34835e-08
5.34928e-08
5.34576e-08
5.33826e-08
5.3271e-08
5.31252e-08
5.29473e-08
5.27396e-08
5.25051e-08
5.22474e-08
5.19701e-08
5.16765e-08
5.13689e-08
5.10487e-08
5.07165e-08
5.03719e-08
5.00148e-08
4.96456e-08
4.92655e-08
4.88764e-08
4.84803e-08
4.80789e-08
4.76727e-08
4.72614e-08
4.68443e-08
4.64203e-08
4.59879e-08
4.55457e-08
4.50929e-08
4.46287e-08
4.41531e-08
4.36668e-08
-2.38747e-07
-2.27976e-07
-2.19126e-07
-2.10722e-07
-2.02115e-07
-1.93221e-07
-1.84235e-07
-1.75383e-07
-1.66768e-07
-1.5837e-07
-1.50092e-07
-1.41833e-07
-1.33536e-07
-1.25181e-07
-1.16749e-07
-1.08266e-07
-9.98045e-08
-9.14287e-08
-8.31746e-08
-7.50625e-08
-6.71058e-08
-5.93273e-08
-5.17585e-08
-4.44432e-08
-3.73462e-08
-3.04895e-08
-2.38612e-08
-1.73497e-08
-1.11621e-08
-5.31423e-09
2.06759e-10
5.40989e-09
1.02926e-08
1.48477e-08
1.90686e-08
2.29541e-08
2.6511e-08
2.97548e-08
3.27064e-08
3.53878e-08
3.78203e-08
4.00229e-08
4.2013e-08
4.38053e-08
4.54122e-08
4.68436e-08
4.81085e-08
4.92159e-08
5.01754e-08
5.09969e-08
5.16907e-08
5.22675e-08
5.27377e-08
5.31112e-08
5.33969e-08
5.3603e-08
5.37378e-08
5.38095e-08
5.38261e-08
5.37939e-08
5.37179e-08
5.36015e-08
5.34481e-08
5.32613e-08
5.3045e-08
5.28038e-08
5.25421e-08
5.22643e-08
5.19736e-08
5.16717e-08
5.13585e-08
5.10324e-08
5.06919e-08
5.03352e-08