/*--------------------------------*- C++ -*----------------------------------*\
| =========                 |                                                 |
| \\      /  F ield         | OpenFOAM: The Open Source CFD Toolbox           |
|  \\    /   O peration     | Version:  2312                                  |
|   \\  /    A nd           | Website:  www.openfoam.com                      |
|    \\/     M anipulation  |                                                 |
\*---------------------------------------------------------------------------*/
FoamFile
{
    version     2.0;
    format      ascii;
    arch        "LSB;label=32;scalar=64";
    class       volScalarField;
    location    "157000";
    object      p;
}
// * * * * * * * * * * * * * * * * * * * * * * * * * * * * * * * * * * * * * //

dimensions      [0 2 -2 0 0 0 0];

internalField   nonuniform List<scalar> 
10800
(
6.07283e-07
5.93155e-07
5.79377e-07
5.68784e-07
5.61341e-07
5.55924e-07
5.51442e-07
5.47326e-07
5.4341e-07
5.397e-07
5.36233e-07
5.33014e-07
5.30008e-07
5.27165e-07
5.2444e-07
5.21799e-07
5.1922e-07
5.1669e-07
5.14198e-07
5.11735e-07
5.09292e-07
5.06861e-07
5.04436e-07
5.0201e-07
4.99579e-07
4.9714e-07
4.94687e-07
4.92219e-07
4.89734e-07
4.87228e-07
4.84701e-07
4.82152e-07
4.79579e-07
4.76982e-07
4.7436e-07
4.71714e-07
4.69043e-07
4.66346e-07
4.63626e-07
4.60881e-07
4.58111e-07
4.55318e-07
4.52501e-07
4.4966e-07
4.46795e-07
4.43905e-07
4.4099e-07
4.38045e-07
4.35075e-07
4.32065e-07
4.29035e-07
4.25935e-07
4.22844e-07
4.19591e-07
4.1648e-07
4.12866e-07
4.1002e-07
4.05098e-07
4.04279e-07
3.93126e-07
5.59272e-07
5.57541e-07
5.54887e-07
5.51747e-07
5.48512e-07
5.45393e-07
5.42441e-07
5.39619e-07
5.36879e-07
5.34188e-07
5.31541e-07
5.28943e-07
5.26402e-07
5.23917e-07
5.21481e-07
5.19085e-07
5.1672e-07
5.14378e-07
5.12053e-07
5.09739e-07
5.07433e-07
5.0513e-07
5.02825e-07
5.00516e-07
4.98199e-07
4.95872e-07
4.93531e-07
4.91174e-07
4.888e-07
4.86407e-07
4.83994e-07
4.81559e-07
4.79102e-07
4.76621e-07
4.74118e-07
4.7159e-07
4.69039e-07
4.66461e-07
4.63863e-07
4.61236e-07
4.5859e-07
4.55912e-07
4.5322e-07
4.50491e-07
4.47754e-07
4.44969e-07
4.42191e-07
4.39347e-07
4.36534e-07
4.33626e-07
4.30799e-07
4.27826e-07
4.25038e-07
4.22019e-07
4.19402e-07
4.16403e-07
4.14291e-07
4.11392e-07
4.10401e-07
4.07188e-07
5.50617e-07
5.49862e-07
5.48439e-07
5.46473e-07
5.44169e-07
5.41725e-07
5.39266e-07
5.36843e-07
5.34459e-07
5.32101e-07
5.29759e-07
5.27434e-07
5.2513e-07
5.22853e-07
5.20604e-07
5.18382e-07
5.16181e-07
5.13997e-07
5.11825e-07
5.09661e-07
5.07502e-07
5.05345e-07
5.03186e-07
5.01023e-07
4.98854e-07
4.96676e-07
4.94488e-07
4.92286e-07
4.9007e-07
4.87839e-07
4.8559e-07
4.83323e-07
4.81039e-07
4.78733e-07
4.76408e-07
4.74061e-07
4.71695e-07
4.69305e-07
4.66897e-07
4.64462e-07
4.6201e-07
4.59529e-07
4.57033e-07
4.54504e-07
4.51966e-07
4.49388e-07
4.46809e-07
4.44182e-07
4.41567e-07
4.38891e-07
4.36253e-07
4.33533e-07
4.30891e-07
4.28135e-07
4.25523e-07
4.22745e-07
4.20213e-07
4.17417e-07
4.15007e-07
4.12107e-07
5.38976e-07
5.38539e-07
5.37744e-07
5.36641e-07
5.35299e-07
5.33789e-07
5.32168e-07
5.30475e-07
5.28732e-07
5.26949e-07
5.25131e-07
5.23286e-07
5.21419e-07
5.19536e-07
5.17642e-07
5.1574e-07
5.13831e-07
5.11915e-07
5.09993e-07
5.08062e-07
5.06123e-07
5.04175e-07
5.02217e-07
5.00249e-07
4.98268e-07
4.96276e-07
4.9427e-07
4.92249e-07
4.90215e-07
4.88164e-07
4.86099e-07
4.84016e-07
4.81917e-07
4.798e-07
4.77667e-07
4.75515e-07
4.73345e-07
4.71156e-07
4.6895e-07
4.66723e-07
4.64478e-07
4.62211e-07
4.59926e-07
4.57616e-07
4.55288e-07
4.5293e-07
4.50554e-07
4.48143e-07
4.45711e-07
4.43237e-07
4.40741e-07
4.38193e-07
4.35626e-07
4.32995e-07
4.30352e-07
4.27632e-07
4.24909e-07
4.22095e-07
4.19289e-07
4.16393e-07
5.32423e-07
5.32206e-07
5.31767e-07
5.31109e-07
5.30248e-07
5.29213e-07
5.28037e-07
5.26749e-07
5.25375e-07
5.23932e-07
5.22432e-07
5.20883e-07
5.19293e-07
5.17668e-07
5.16015e-07
5.14337e-07
5.12638e-07
5.10922e-07
5.09189e-07
5.07442e-07
5.0568e-07
5.03904e-07
5.02115e-07
5.00313e-07
4.98499e-07
4.96671e-07
4.94831e-07
4.92978e-07
4.91112e-07
4.89234e-07
4.87342e-07
4.85437e-07
4.8352e-07
4.81589e-07
4.79645e-07
4.77688e-07
4.75717e-07
4.73732e-07
4.71734e-07
4.69722e-07
4.67695e-07
4.65653e-07
4.63596e-07
4.61522e-07
4.5943e-07
4.5732e-07
4.5519e-07
4.53038e-07
4.50862e-07
4.48658e-07
4.4642e-07
4.4414e-07
4.41807e-07
4.39408e-07
4.36925e-07
4.34352e-07
4.31674e-07
4.28899e-07
4.26041e-07
4.23196e-07
5.27068e-07
5.26901e-07
5.26567e-07
5.26071e-07
5.25422e-07
5.24636e-07
5.23731e-07
5.22725e-07
5.21634e-07
5.20469e-07
5.19242e-07
5.17959e-07
5.16627e-07
5.15252e-07
5.13839e-07
5.12392e-07
5.10916e-07
5.09413e-07
5.07887e-07
5.06339e-07
5.04771e-07
5.03185e-07
5.01582e-07
4.99963e-07
4.98329e-07
4.96681e-07
4.95019e-07
4.93344e-07
4.91656e-07
4.89957e-07
4.88246e-07
4.86525e-07
4.84792e-07
4.8305e-07
4.81297e-07
4.79534e-07
4.77762e-07
4.7598e-07
4.74188e-07
4.72386e-07
4.70574e-07
4.6875e-07
4.66915e-07
4.65067e-07
4.63204e-07
4.61324e-07
4.59422e-07
4.57499e-07
4.55547e-07
4.53568e-07
4.51554e-07
4.49511e-07
4.47428e-07
4.45303e-07
4.43115e-07
4.40862e-07
4.38515e-07
4.36097e-07
4.33609e-07
4.31184e-07
5.22918e-07
5.22796e-07
5.22551e-07
5.22185e-07
5.217e-07
5.21103e-07
5.20405e-07
5.19615e-07
5.18742e-07
5.17796e-07
5.16785e-07
5.15716e-07
5.14594e-07
5.13424e-07
5.12211e-07
5.10959e-07
5.09672e-07
5.08354e-07
5.07008e-07
5.05636e-07
5.04241e-07
5.02825e-07
5.01389e-07
4.99936e-07
4.98466e-07
4.96983e-07
4.95485e-07
4.93976e-07
4.92455e-07
4.90924e-07
4.89384e-07
4.87835e-07
4.8628e-07
4.84717e-07
4.83148e-07
4.81574e-07
4.79995e-07
4.78412e-07
4.76824e-07
4.75233e-07
4.73638e-07
4.72039e-07
4.70436e-07
4.68828e-07
4.67215e-07
4.65597e-07
4.63972e-07
4.62338e-07
4.6069e-07
4.59024e-07
4.57328e-07
4.55602e-07
4.53834e-07
4.52031e-07
4.50177e-07
4.4828e-07
4.4632e-07
4.44321e-07
4.42286e-07
4.40335e-07
5.1969e-07
5.19594e-07
5.19402e-07
5.19113e-07
5.18729e-07
5.18252e-07
5.17689e-07
5.17045e-07
5.16327e-07
5.1554e-07
5.1469e-07
5.13783e-07
5.12823e-07
5.11815e-07
5.10764e-07
5.09673e-07
5.08546e-07
5.07387e-07
5.06198e-07
5.04982e-07
5.03743e-07
5.02481e-07
5.01199e-07
4.999e-07
4.98585e-07
4.97256e-07
4.95914e-07
4.94562e-07
4.932e-07
4.91831e-07
4.90455e-07
4.89073e-07
4.87688e-07
4.863e-07
4.8491e-07
4.83519e-07
4.82129e-07
4.8074e-07
4.79353e-07
4.77969e-07
4.76588e-07
4.75212e-07
4.73838e-07
4.72469e-07
4.71103e-07
4.6974e-07
4.68378e-07
4.67019e-07
4.65662e-07
4.64305e-07
4.62941e-07
4.61568e-07
4.60177e-07
4.5877e-07
4.57335e-07
4.5588e-07
4.54394e-07
4.52902e-07
4.51416e-07
4.50047e-07
5.17173e-07
5.17094e-07
5.16937e-07
5.167e-07
5.16383e-07
5.15989e-07
5.15521e-07
5.14983e-07
5.14378e-07
5.13712e-07
5.12988e-07
5.12211e-07
5.11384e-07
5.10511e-07
5.09596e-07
5.08643e-07
5.07654e-07
5.06633e-07
5.05582e-07
5.04505e-07
5.03404e-07
5.02282e-07
5.0114e-07
4.99981e-07
4.98808e-07
4.97621e-07
4.96424e-07
4.95218e-07
4.94004e-07
4.92786e-07
4.91563e-07
4.90339e-07
4.89115e-07
4.87892e-07
4.86672e-07
4.85457e-07
4.84248e-07
4.83046e-07
4.81854e-07
4.80672e-07
4.79502e-07
4.78345e-07
4.77201e-07
4.76074e-07
4.74962e-07
4.73868e-07
4.72789e-07
4.71728e-07
4.70677e-07
4.69643e-07
4.68622e-07
4.67617e-07
4.66621e-07
4.65638e-07
4.64661e-07
4.63695e-07
4.62736e-07
4.61804e-07
4.60915e-07
4.60163e-07
5.1524e-07
5.15173e-07
5.1504e-07
5.1484e-07
5.14571e-07
5.14237e-07
5.13839e-07
5.13379e-07
5.12861e-07
5.12287e-07
5.11661e-07
5.10987e-07
5.10266e-07
5.09503e-07
5.087e-07
5.0786e-07
5.06987e-07
5.06082e-07
5.0515e-07
5.04192e-07
5.03211e-07
5.02209e-07
5.0119e-07
5.00155e-07
4.99107e-07
4.98047e-07
4.96979e-07
4.95904e-07
4.94824e-07
4.93742e-07
4.9266e-07
4.91579e-07
4.90503e-07
4.89432e-07
4.88369e-07
4.87317e-07
4.86276e-07
4.8525e-07
4.8424e-07
4.83249e-07
4.82278e-07
4.81329e-07
4.80406e-07
4.79508e-07
4.7864e-07
4.77804e-07
4.76997e-07
4.76221e-07
4.75478e-07
4.74772e-07
4.74103e-07
4.73475e-07
4.72885e-07
4.72338e-07
4.71831e-07
4.71371e-07
4.70957e-07
4.70608e-07
4.70343e-07
4.70241e-07
5.13799e-07
5.13742e-07
5.13627e-07
5.13453e-07
5.1322e-07
5.1293e-07
5.12583e-07
5.12182e-07
5.11729e-07
5.11227e-07
5.10677e-07
5.10082e-07
5.09446e-07
5.0877e-07
5.08056e-07
5.07309e-07
5.0653e-07
5.05722e-07
5.04888e-07
5.0403e-07
5.0315e-07
5.02252e-07
5.01338e-07
5.00409e-07
4.99469e-07
4.9852e-07
4.97565e-07
4.96605e-07
4.95644e-07
4.94683e-07
4.93725e-07
4.92773e-07
4.91829e-07
4.90895e-07
4.89975e-07
4.8907e-07
4.88183e-07
4.87317e-07
4.86475e-07
4.85659e-07
4.84872e-07
4.84118e-07
4.834e-07
4.8272e-07
4.82081e-07
4.81483e-07
4.80932e-07
4.80431e-07
4.79984e-07
4.79595e-07
4.79266e-07
4.79003e-07
4.78807e-07
4.78685e-07
4.78638e-07
4.78673e-07
4.78797e-07
4.79025e-07
4.79379e-07
4.79919e-07
5.12785e-07
5.12735e-07
5.12632e-07
5.12478e-07
5.12272e-07
5.12014e-07
5.11705e-07
5.11348e-07
5.10944e-07
5.10495e-07
5.10004e-07
5.09471e-07
5.08899e-07
5.08291e-07
5.07649e-07
5.06975e-07
5.06272e-07
5.05541e-07
5.04787e-07
5.0401e-07
5.03214e-07
5.02401e-07
5.01573e-07
5.00734e-07
4.99885e-07
4.99029e-07
4.98169e-07
4.97308e-07
4.96447e-07
4.9559e-07
4.94739e-07
4.93898e-07
4.93068e-07
4.92253e-07
4.91456e-07
4.90679e-07
4.89927e-07
4.89201e-07
4.88506e-07
4.87845e-07
4.87222e-07
4.8664e-07
4.86104e-07
4.85615e-07
4.85177e-07
4.84795e-07
4.84476e-07
4.84224e-07
4.84044e-07
4.83943e-07
4.83924e-07
4.83994e-07
4.8416e-07
4.84427e-07
4.84804e-07
4.85299e-07
4.85922e-07
4.86688e-07
4.87619e-07
4.88762e-07
5.1215e-07
5.12104e-07
5.12011e-07
5.11871e-07
5.11683e-07
5.11449e-07
5.11168e-07
5.10843e-07
5.10475e-07
5.10065e-07
5.09616e-07
5.09129e-07
5.08606e-07
5.08049e-07
5.0746e-07
5.06842e-07
5.06197e-07
5.05527e-07
5.04834e-07
5.04121e-07
5.0339e-07
5.02644e-07
5.01885e-07
5.01116e-07
5.0034e-07
4.99559e-07
4.98776e-07
4.97993e-07
4.97214e-07
4.96442e-07
4.95678e-07
4.94928e-07
4.94192e-07
4.93475e-07
4.92779e-07
4.92109e-07
4.91467e-07
4.90857e-07
4.90284e-07
4.89752e-07
4.89266e-07
4.88827e-07
4.88439e-07
4.88109e-07
4.87843e-07
4.87646e-07
4.87524e-07
4.87484e-07
4.87531e-07
4.87673e-07
4.87917e-07
4.88271e-07
4.88745e-07
4.89346e-07
4.90086e-07
4.90975e-07
4.92027e-07
4.93257e-07
4.94687e-07
4.9635e-07
5.11857e-07
5.11814e-07
5.11728e-07
5.11597e-07
5.11422e-07
5.11203e-07
5.10942e-07
5.10638e-07
5.10294e-07
5.09911e-07
5.09491e-07
5.09036e-07
5.08547e-07
5.08026e-07
5.07475e-07
5.06897e-07
5.06292e-07
5.05665e-07
5.05017e-07
5.04349e-07
5.03666e-07
5.02969e-07
5.02261e-07
5.01544e-07
5.00821e-07
5.00095e-07
4.99368e-07
4.98644e-07
4.97926e-07
4.97218e-07
4.96522e-07
4.9584e-07
4.95175e-07
4.94533e-07
4.93915e-07
4.93326e-07
4.9277e-07
4.9225e-07
4.91771e-07
4.91337e-07
4.9095e-07
4.90619e-07
4.90348e-07
4.90142e-07
4.90009e-07
4.89954e-07
4.89983e-07
4.90105e-07
4.90326e-07
4.90655e-07
4.91102e-07
4.91674e-07
4.92384e-07
4.93241e-07
4.9426e-07
4.95451e-07
4.96833e-07
4.98419e-07
5.00232e-07
5.02294e-07
5.11887e-07
5.11846e-07
5.11763e-07
5.11637e-07
5.11469e-07
5.11259e-07
5.11009e-07
5.10718e-07
5.10388e-07
5.10022e-07
5.0962e-07
5.09183e-07
5.08714e-07
5.08214e-07
5.07685e-07
5.0713e-07
5.06551e-07
5.0595e-07
5.05328e-07
5.04689e-07
5.04036e-07
5.03369e-07
5.02693e-07
5.0201e-07
5.01322e-07
5.00632e-07
4.99944e-07
4.9926e-07
4.98582e-07
4.97913e-07
4.97257e-07
4.96618e-07
4.95999e-07
4.95404e-07
4.94837e-07
4.94301e-07
4.938e-07
4.93338e-07
4.9292e-07
4.92551e-07
4.92234e-07
4.91976e-07
4.91783e-07
4.91661e-07
4.91615e-07
4.91653e-07
4.91781e-07
4.92008e-07
4.92342e-07
4.92792e-07
4.93368e-07
4.9408e-07
4.9494e-07
4.9596e-07
4.97155e-07
4.98537e-07
5.00125e-07
5.01933e-07
5.03984e-07
5.06293e-07
5.12221e-07
5.1218e-07
5.12098e-07
5.11974e-07
5.11808e-07
5.11601e-07
5.11353e-07
5.11066e-07
5.10741e-07
5.10379e-07
5.09981e-07
5.09551e-07
5.09088e-07
5.08595e-07
5.08074e-07
5.07527e-07
5.06957e-07
5.06365e-07
5.05754e-07
5.05126e-07
5.04483e-07
5.03829e-07
5.03166e-07
5.02496e-07
5.01823e-07
5.01148e-07
5.00475e-07
4.99807e-07
4.99147e-07
4.98497e-07
4.97862e-07
4.97244e-07
4.96647e-07
4.96075e-07
4.95531e-07
4.9502e-07
4.94545e-07
4.9411e-07
4.93721e-07
4.93382e-07
4.93098e-07
4.92874e-07
4.92717e-07
4.92631e-07
4.92624e-07
4.92701e-07
4.92872e-07
4.93144e-07
4.93524e-07
4.94023e-07
4.9465e-07
4.95416e-07
4.96335e-07
4.97414e-07
4.98672e-07
5.0012e-07
5.01778e-07
5.03658e-07
5.05785e-07
5.08169e-07
5.12859e-07
5.12817e-07
5.12734e-07
5.12607e-07
5.12438e-07
5.12227e-07
5.11975e-07
5.11682e-07
5.11351e-07
5.10983e-07
5.10579e-07
5.10141e-07
5.09671e-07
5.0917e-07
5.08642e-07
5.08088e-07
5.0751e-07
5.06911e-07
5.06292e-07
5.05657e-07
5.05008e-07
5.04348e-07
5.03678e-07
5.03003e-07
5.02323e-07
5.01643e-07
5.00966e-07
5.00293e-07
4.99628e-07
4.98975e-07
4.98335e-07
4.97714e-07
4.97114e-07
4.96538e-07
4.95991e-07
4.95476e-07
4.94997e-07
4.94559e-07
4.94165e-07
4.93821e-07
4.93531e-07
4.93301e-07
4.93136e-07
4.93041e-07
4.93024e-07
4.93089e-07
4.93244e-07
4.93497e-07
4.93856e-07
4.9433e-07
4.94929e-07
4.95662e-07
4.96539e-07
4.97574e-07
4.98779e-07
5.00168e-07
5.01757e-07
5.03559e-07
5.05597e-07
5.07886e-07
5.13806e-07
5.13762e-07
5.13674e-07
5.13542e-07
5.13364e-07
5.13142e-07
5.12877e-07
5.12569e-07
5.12222e-07
5.11835e-07
5.11412e-07
5.10954e-07
5.10462e-07
5.0994e-07
5.09389e-07
5.08811e-07
5.08209e-07
5.07585e-07
5.06942e-07
5.06282e-07
5.05608e-07
5.04923e-07
5.04228e-07
5.03527e-07
5.02822e-07
5.02117e-07
5.01413e-07
5.00714e-07
5.00023e-07
4.99343e-07
4.98677e-07
4.98027e-07
4.97399e-07
4.96794e-07
4.96216e-07
4.95669e-07
4.95157e-07
4.94683e-07
4.94253e-07
4.93869e-07
4.93537e-07
4.93261e-07
4.93046e-07
4.92898e-07
4.92822e-07
4.92824e-07
4.9291e-07
4.93086e-07
4.9336e-07
4.93741e-07
4.94237e-07
4.94855e-07
4.95605e-07
4.96498e-07
4.97544e-07
4.98756e-07
5.00147e-07
5.01732e-07
5.03529e-07
5.05563e-07
5.15079e-07
5.15032e-07
5.14936e-07
5.14792e-07
5.14599e-07
5.14359e-07
5.14071e-07
5.13739e-07
5.13363e-07
5.12946e-07
5.1249e-07
5.11997e-07
5.11469e-07
5.10908e-07
5.10318e-07
5.09699e-07
5.09056e-07
5.08391e-07
5.07705e-07
5.07002e-07
5.06284e-07
5.05554e-07
5.04815e-07
5.04069e-07
5.03319e-07
5.02568e-07
5.01818e-07
5.01072e-07
5.00334e-07
4.99605e-07
4.98889e-07
4.98188e-07
4.97507e-07
4.96848e-07
4.96213e-07
4.95608e-07
4.95034e-07
4.94497e-07
4.93998e-07
4.93542e-07
4.93134e-07
4.92777e-07
4.92475e-07
4.92233e-07
4.92056e-07
4.91949e-07
4.91917e-07
4.91965e-07
4.92099e-07
4.92324e-07
4.92649e-07
4.93081e-07
4.93627e-07
4.94293e-07
4.95089e-07
4.96025e-07
4.9711e-07
4.98361e-07
4.99793e-07
5.01442e-07
5.16705e-07
5.16652e-07
5.16546e-07
5.16385e-07
5.16169e-07
5.15901e-07
5.15581e-07
5.15211e-07
5.14793e-07
5.14331e-07
5.13826e-07
5.13282e-07
5.127e-07
5.12084e-07
5.11437e-07
5.1076e-07
5.10057e-07
5.09331e-07
5.08584e-07
5.07819e-07
5.07039e-07
5.06246e-07
5.05443e-07
5.04633e-07
5.03818e-07
5.03001e-07
5.02185e-07
5.01372e-07
5.00565e-07
4.99766e-07
4.98979e-07
4.98206e-07
4.97449e-07
4.96712e-07
4.95998e-07
4.95309e-07
4.94649e-07
4.9402e-07
4.93426e-07
4.9287e-07
4.92355e-07
4.91885e-07
4.91463e-07
4.91093e-07
4.90779e-07
4.90525e-07
4.90334e-07
4.90212e-07
4.90161e-07
4.90182e-07
4.90282e-07
4.90471e-07
4.90751e-07
4.91128e-07
4.91603e-07
4.92189e-07
4.92888e-07
4.93718e-07
4.94693e-07
4.95862e-07
5.18727e-07
5.18666e-07
5.18543e-07
5.18358e-07
5.18111e-07
5.17802e-07
5.17436e-07
5.17013e-07
5.16537e-07
5.16012e-07
5.1544e-07
5.14825e-07
5.14171e-07
5.13479e-07
5.12754e-07
5.11999e-07
5.11217e-07
5.1041e-07
5.09583e-07
5.08736e-07
5.07874e-07
5.06999e-07
5.06114e-07
5.0522e-07
5.04322e-07
5.03421e-07
5.02519e-07
5.0162e-07
5.00725e-07
4.99837e-07
4.98959e-07
4.98093e-07
4.97241e-07
4.96406e-07
4.9559e-07
4.94796e-07
4.94026e-07
4.93284e-07
4.92571e-07
4.91889e-07
4.91243e-07
4.90634e-07
4.90065e-07
4.89539e-07
4.89057e-07
4.88624e-07
4.88241e-07
4.87912e-07
4.87638e-07
4.87425e-07
4.87268e-07
4.87173e-07
4.87143e-07
4.87185e-07
4.87295e-07
4.87482e-07
4.87744e-07
4.88102e-07
4.88566e-07
4.892e-07
5.21204e-07
5.21132e-07
5.20986e-07
5.20767e-07
5.20474e-07
5.2011e-07
5.19678e-07
5.19183e-07
5.18628e-07
5.18017e-07
5.17356e-07
5.16647e-07
5.15896e-07
5.15106e-07
5.14282e-07
5.13426e-07
5.12542e-07
5.11634e-07
5.10704e-07
5.09756e-07
5.08792e-07
5.07816e-07
5.06828e-07
5.05833e-07
5.04832e-07
5.03829e-07
5.02824e-07
5.0182e-07
5.0082e-07
4.99825e-07
4.98838e-07
4.97861e-07
4.96895e-07
4.95944e-07
4.95009e-07
4.94091e-07
4.93194e-07
4.92319e-07
4.91468e-07
4.90643e-07
4.89845e-07
4.89078e-07
4.88342e-07
4.8764e-07
4.86972e-07
4.86341e-07
4.85748e-07
4.85195e-07
4.84682e-07
4.8421e-07
4.83776e-07
4.83378e-07
4.83016e-07
4.82701e-07
4.82422e-07
4.82189e-07
4.81993e-07
4.81857e-07
4.81788e-07
4.81866e-07
5.24222e-07
5.24133e-07
5.23954e-07
5.23685e-07
5.23328e-07
5.22885e-07
5.22362e-07
5.21766e-07
5.21103e-07
5.20379e-07
5.19599e-07
5.1877e-07
5.17895e-07
5.16981e-07
5.16031e-07
5.15049e-07
5.14041e-07
5.13008e-07
5.11955e-07
5.10883e-07
5.09797e-07
5.08699e-07
5.07591e-07
5.06475e-07
5.05354e-07
5.0423e-07
5.03104e-07
5.01979e-07
5.00856e-07
4.99738e-07
4.98626e-07
4.97521e-07
4.96426e-07
4.95342e-07
4.94271e-07
4.93214e-07
4.92173e-07
4.91149e-07
4.90144e-07
4.89159e-07
4.88196e-07
4.87255e-07
4.86337e-07
4.85444e-07
4.84574e-07
4.83731e-07
4.82911e-07
4.82116e-07
4.81344e-07
4.80597e-07
4.79872e-07
4.79177e-07
4.78496e-07
4.77831e-07
4.77165e-07
4.76512e-07
4.75861e-07
4.75243e-07
4.74656e-07
4.74197e-07
5.27904e-07
5.27788e-07
5.27558e-07
5.27213e-07
5.26757e-07
5.26197e-07
5.25544e-07
5.24806e-07
5.23993e-07
5.23116e-07
5.22182e-07
5.21198e-07
5.20169e-07
5.19102e-07
5.18e-07
5.16868e-07
5.15711e-07
5.14532e-07
5.13335e-07
5.12122e-07
5.10896e-07
5.09659e-07
5.08413e-07
5.07162e-07
5.05905e-07
5.04646e-07
5.03385e-07
5.02125e-07
5.00866e-07
4.99611e-07
4.9836e-07
4.97116e-07
4.95878e-07
4.94649e-07
4.9343e-07
4.92221e-07
4.91025e-07
4.89841e-07
4.88672e-07
4.87517e-07
4.86378e-07
4.85255e-07
4.84149e-07
4.8306e-07
4.81987e-07
4.80932e-07
4.79893e-07
4.78871e-07
4.77861e-07
4.76866e-07
4.75875e-07
4.74888e-07
4.7389e-07
4.72884e-07
4.71849e-07
4.70808e-07
4.69745e-07
4.68682e-07
4.6761e-07
4.6663e-07
5.32454e-07
5.32296e-07
5.31979e-07
5.31507e-07
5.3089e-07
5.30144e-07
5.29288e-07
5.28339e-07
5.27312e-07
5.26222e-07
5.25077e-07
5.23886e-07
5.22655e-07
5.21391e-07
5.20097e-07
5.1878e-07
5.17443e-07
5.1609e-07
5.14724e-07
5.13347e-07
5.11961e-07
5.10568e-07
5.0917e-07
5.07768e-07
5.06363e-07
5.04956e-07
5.03549e-07
5.02142e-07
5.00737e-07
4.99335e-07
4.97936e-07
4.96541e-07
4.95152e-07
4.93768e-07
4.92392e-07
4.91023e-07
4.89662e-07
4.88311e-07
4.86968e-07
4.85637e-07
4.84315e-07
4.83004e-07
4.81703e-07
4.80412e-07
4.7913e-07
4.77857e-07
4.76588e-07
4.75325e-07
4.74061e-07
4.72797e-07
4.71525e-07
4.70248e-07
4.68955e-07
4.67654e-07
4.66335e-07
4.64994e-07
4.63611e-07
4.62191e-07
4.6072e-07
4.59316e-07
5.38145e-07
5.37935e-07
5.37512e-07
5.36878e-07
5.36051e-07
5.35059e-07
5.33934e-07
5.32708e-07
5.31404e-07
5.3004e-07
5.28628e-07
5.27178e-07
5.25696e-07
5.24189e-07
5.22663e-07
5.21123e-07
5.19573e-07
5.18016e-07
5.16454e-07
5.14887e-07
5.13318e-07
5.11748e-07
5.10176e-07
5.08604e-07
5.07033e-07
5.05462e-07
5.03892e-07
5.02324e-07
5.00758e-07
4.99194e-07
4.97633e-07
4.96075e-07
4.94522e-07
4.92972e-07
4.91427e-07
4.89887e-07
4.88354e-07
4.86826e-07
4.85305e-07
4.8379e-07
4.82283e-07
4.80783e-07
4.7929e-07
4.77805e-07
4.76326e-07
4.74853e-07
4.73387e-07
4.71925e-07
4.70465e-07
4.69007e-07
4.67545e-07
4.66075e-07
4.64587e-07
4.63075e-07
4.61521e-07
4.59913e-07
4.58218e-07
4.56464e-07
4.54654e-07
4.52865e-07
5.44998e-07
5.4457e-07
5.43792e-07
5.42714e-07
5.41407e-07
5.39941e-07
5.38374e-07
5.36745e-07
5.35074e-07
5.33374e-07
5.31649e-07
5.29906e-07
5.28152e-07
5.26392e-07
5.24631e-07
5.22873e-07
5.21119e-07
5.1937e-07
5.17625e-07
5.15884e-07
5.14146e-07
5.12412e-07
5.10681e-07
5.08952e-07
5.07225e-07
5.055e-07
5.03776e-07
5.02054e-07
5.00332e-07
4.98611e-07
4.96891e-07
4.95172e-07
4.93454e-07
4.91737e-07
4.90022e-07
4.88307e-07
4.86596e-07
4.84886e-07
4.8318e-07
4.81475e-07
4.79776e-07
4.78077e-07
4.76384e-07
4.74691e-07
4.73005e-07
4.71317e-07
4.69637e-07
4.6795e-07
4.66272e-07
4.64582e-07
4.62902e-07
4.61203e-07
4.59516e-07
4.57799e-07
4.561e-07
4.54356e-07
4.52636e-07
4.50849e-07
4.49098e-07
4.47282e-07
5.56832e-07
5.56086e-07
5.54682e-07
5.52745e-07
5.5048e-07
5.48084e-07
5.45684e-07
5.43328e-07
5.41022e-07
5.38751e-07
5.36507e-07
5.34289e-07
5.32103e-07
5.29955e-07
5.27844e-07
5.25771e-07
5.23731e-07
5.21719e-07
5.19731e-07
5.17763e-07
5.15811e-07
5.13874e-07
5.11949e-07
5.10034e-07
5.08126e-07
5.06224e-07
5.04326e-07
5.02431e-07
5.00539e-07
4.98647e-07
4.96756e-07
4.94865e-07
4.92974e-07
4.91081e-07
4.8919e-07
4.87296e-07
4.85405e-07
4.83511e-07
4.8162e-07
4.79726e-07
4.77839e-07
4.75946e-07
4.74063e-07
4.72172e-07
4.70297e-07
4.68409e-07
4.66547e-07
4.64664e-07
4.62821e-07
4.60947e-07
4.59138e-07
4.57281e-07
4.5553e-07
4.53703e-07
4.52049e-07
4.5027e-07
4.4877e-07
4.47045e-07
4.45736e-07
4.43957e-07
5.65662e-07
5.63939e-07
5.61303e-07
5.58192e-07
5.54996e-07
5.51927e-07
5.49034e-07
5.46283e-07
5.43622e-07
5.41021e-07
5.38474e-07
5.35987e-07
5.33566e-07
5.31212e-07
5.28918e-07
5.26674e-07
5.24473e-07
5.22305e-07
5.20166e-07
5.1805e-07
5.15954e-07
5.13874e-07
5.11807e-07
5.09748e-07
5.07696e-07
5.05649e-07
5.03604e-07
5.01559e-07
4.99515e-07
4.97468e-07
4.9542e-07
4.9337e-07
4.91316e-07
4.8926e-07
4.87201e-07
4.85139e-07
4.83077e-07
4.8101e-07
4.78945e-07
4.76875e-07
4.74811e-07
4.72739e-07
4.70678e-07
4.68604e-07
4.6655e-07
4.64474e-07
4.6243e-07
4.6035e-07
4.58327e-07
4.56239e-07
4.5426e-07
4.52168e-07
4.50287e-07
4.48213e-07
4.46567e-07
4.44584e-07
4.43512e-07
4.41697e-07
4.418e-07
4.39736e-07
6.1374e-07
5.99622e-07
5.85866e-07
5.75305e-07
5.67904e-07
5.6254e-07
5.58121e-07
5.54079e-07
5.50246e-07
5.46629e-07
5.43266e-07
5.40159e-07
5.37276e-07
5.34567e-07
5.31985e-07
5.29498e-07
5.27084e-07
5.24729e-07
5.22424e-07
5.2016e-07
5.17928e-07
5.15722e-07
5.13534e-07
5.1136e-07
5.09195e-07
5.07036e-07
5.04881e-07
5.02726e-07
5.00571e-07
4.98415e-07
4.96255e-07
4.94092e-07
4.91926e-07
4.89756e-07
4.87583e-07
4.85407e-07
4.83228e-07
4.81048e-07
4.78866e-07
4.76684e-07
4.74502e-07
4.72321e-07
4.70141e-07
4.67963e-07
4.65787e-07
4.63611e-07
4.61438e-07
4.59262e-07
4.5709e-07
4.54904e-07
4.52728e-07
4.50511e-07
4.48332e-07
4.46024e-07
4.43883e-07
4.4128e-07
4.39458e-07
4.35622e-07
4.35889e-07
4.25892e-07
4.32e-07
3.79915e-07
3.57291e-07
3.37948e-07
3.18391e-07
2.98567e-07
2.76594e-07
2.53244e-07
2.26418e-07
1.97829e-07
1.65225e-07
1.31486e-07
9.40322e-08
5.69882e-08
1.72899e-08
-1.97397e-08
-5.81745e-08
-9.15536e-08
-1.25225e-07
-1.51895e-07
-1.78311e-07
-1.96135e-07
-2.1418e-07
-2.22012e-07
-2.32116e-07
-2.28726e-07
-2.3481e-07
-2.17864e-07
-2.25044e-07
-2.89041e-07
4.17414e-07
3.60459e-07
3.44838e-07
3.28067e-07
3.092e-07
2.8985e-07
2.68275e-07
2.45193e-07
2.18678e-07
1.9059e-07
1.58751e-07
1.26011e-07
8.98342e-08
5.41954e-08
1.60421e-08
-1.95557e-08
-5.63393e-08
-8.85689e-08
-1.21107e-07
-1.47171e-07
-1.73591e-07
-1.91415e-07
-2.10511e-07
-2.1894e-07
-2.30699e-07
-2.29501e-07
-2.34212e-07
-2.29024e-07
-2.13855e-07
-3.19478e-07
4.04684e-07
3.57595e-07
3.43047e-07
3.26798e-07
3.07464e-07
2.87143e-07
2.65043e-07
2.4163e-07
2.15096e-07
1.86935e-07
1.55361e-07
1.22777e-07
8.71549e-08
5.19041e-08
1.45541e-08
-2.04906e-08
-5.65683e-08
-8.84382e-08
-1.20569e-07
-1.46439e-07
-1.72248e-07
-1.90688e-07
-2.08939e-07
-2.19259e-07
-2.29338e-07
-2.32941e-07
-2.33608e-07
-2.41109e-07
-2.05905e-07
-2.74531e-07
3.93933e-07
3.5281e-07
3.36103e-07
3.20346e-07
3.01697e-07
2.82035e-07
2.60185e-07
2.36708e-07
2.10273e-07
1.82056e-07
1.50824e-07
1.1837e-07
8.34571e-08
4.85154e-08
1.22124e-08
-2.25487e-08
-5.73935e-08
-8.91066e-08
-1.19717e-07
-1.46258e-07
-1.70702e-07
-1.9062e-07
-2.07398e-07
-2.20483e-07
-2.28246e-07
-2.37315e-07
-2.31242e-07
-2.46763e-07
-2.08761e-07
-2.51114e-07
3.83477e-07
3.49596e-07
3.32025e-07
3.17468e-07
2.99395e-07
2.78936e-07
2.56556e-07
2.32548e-07
2.06076e-07
1.77513e-07
1.46509e-07
1.1386e-07
7.95536e-08
4.45896e-08
9.26254e-09
-2.54763e-08
-5.9068e-08
-9.09681e-08
-1.2029e-07
-1.47513e-07
-1.70541e-07
-1.91971e-07
-2.07006e-07
-2.22716e-07
-2.27821e-07
-2.40193e-07
-2.31908e-07
-2.45916e-07
-2.19582e-07
-2.33063e-07
3.74222e-07
3.4725e-07
3.28793e-07
3.13745e-07
2.95933e-07
2.7541e-07
2.52861e-07
2.2841e-07
2.01816e-07
1.72869e-07
1.41954e-07
1.09044e-07
7.51616e-08
4.01018e-08
5.56321e-09
-2.91978e-08
-6.17153e-08
-9.38006e-08
-1.21921e-07
-1.49618e-07
-1.71477e-07
-1.93871e-07
-2.07946e-07
-2.24871e-07
-2.29389e-07
-2.41795e-07
-2.36048e-07
-2.44254e-07
-2.30462e-07
-2.28737e-07
3.66497e-07
3.45103e-07
3.26485e-07
3.10567e-07
2.92876e-07
2.723e-07
2.49495e-07
2.24488e-07
1.97575e-07
1.68178e-07
1.37157e-07
1.03957e-07
7.02617e-08
3.51399e-08
1.10505e-09
-3.35441e-08
-6.5343e-08
-9.72929e-08
-1.24685e-07
-1.52343e-07
-1.73771e-07
-1.96215e-07
-2.10548e-07
-2.27249e-07
-2.3378e-07
-2.43875e-07
-2.4229e-07
-2.45452e-07
-2.38391e-07
-2.32983e-07
3.60524e-07
3.43042e-07
3.24884e-07
3.0796e-07
2.90014e-07
2.69291e-07
2.46161e-07
2.20594e-07
1.93199e-07
1.63336e-07
1.32021e-07
9.8567e-08
6.48199e-08
2.97256e-08
-4.10032e-09
-3.84528e-08
-6.99105e-08
-1.01391e-07
-1.28559e-07
-1.5568e-07
-1.7733e-07
-1.99144e-07
-2.14494e-07
-2.30196e-07
-2.38784e-07
-2.47357e-07
-2.49079e-07
-2.4998e-07
-2.45893e-07
-2.39926e-07
3.56388e-07
3.41056e-07
3.23512e-07
3.05873e-07
2.87358e-07
2.66307e-07
2.42763e-07
2.16644e-07
1.88638e-07
1.58287e-07
1.26522e-07
9.28322e-08
5.88526e-08
2.38424e-08
-9.98818e-09
-4.39312e-08
-7.52933e-08
-1.06134e-07
-1.33337e-07
-1.59726e-07
-1.81796e-07
-2.02876e-07
-2.19226e-07
-2.34242e-07
-2.44422e-07
-2.52571e-07
-2.56116e-07
-2.57026e-07
-2.54128e-07
-2.49097e-07
3.53849e-07
3.39196e-07
3.22194e-07
3.04116e-07
2.84865e-07
2.63284e-07
2.39203e-07
2.12517e-07
1.83826e-07
1.52947e-07
1.20632e-07
8.66848e-08
5.23793e-08
1.74464e-08
-1.64792e-08
-5.00131e-08
-8.13476e-08
-1.11565e-07
-1.38809e-07
-1.64544e-07
-1.86917e-07
-2.07499e-07
-2.24537e-07
-2.39392e-07
-2.50596e-07
-2.59051e-07
-2.63781e-07
-2.6543e-07
-2.63686e-07
-2.598e-07
3.52429e-07
3.37592e-07
3.20806e-07
3.02403e-07
2.82397e-07
2.60134e-07
2.35394e-07
2.08095e-07
1.78686e-07
1.47227e-07
1.14317e-07
8.00557e-08
4.54011e-08
1.04902e-08
-2.35272e-08
-5.67256e-08
-8.79851e-08
-1.17693e-07
-1.44862e-07
-1.70116e-07
-1.9259e-07
-2.12934e-07
-2.30375e-07
-2.45404e-07
-2.5734e-07
-2.66461e-07
-2.72246e-07
-2.74984e-07
-2.74553e-07
-2.72026e-07
3.51576e-07
3.3629e-07
3.19328e-07
3.00529e-07
2.79781e-07
2.56746e-07
2.31254e-07
2.03276e-07
1.73128e-07
1.41038e-07
1.07513e-07
7.28758e-08
3.78787e-08
2.92401e-09
-3.1149e-08
-6.40935e-08
-9.5206e-08
-1.24508e-07
-1.51491e-07
-1.76391e-07
-1.9882e-07
-2.19072e-07
-2.36764e-07
-2.52122e-07
-2.64705e-07
-2.74661e-07
-2.81527e-07
-2.85561e-07
-2.86574e-07
-2.85712e-07
3.50854e-07
3.35147e-07
3.17729e-07
2.98361e-07
2.76849e-07
2.52999e-07
2.26697e-07
1.97965e-07
1.67052e-07
1.34281e-07
1.00128e-07
6.50587e-08
2.97268e-08
-5.32428e-09
-3.94215e-08
-7.21696e-08
-1.03083e-07
-1.32036e-07
-1.58763e-07
-1.83361e-07
-2.05671e-07
-2.2587e-07
-2.43759e-07
-2.59481e-07
-2.72717e-07
-2.83551e-07
-2.91595e-07
-2.97012e-07
-2.99691e-07
-3.00635e-07
3.50006e-07
3.33952e-07
3.15922e-07
2.95826e-07
2.73499e-07
2.48797e-07
2.21632e-07
1.92071e-07
1.60344e-07
1.26837e-07
9.20311e-08
5.64837e-08
2.08124e-08
-1.43712e-08
-4.84774e-08
-8.1057e-08
-1.1174e-07
-1.40362e-07
-1.6679e-07
-1.91087e-07
-2.13229e-07
-2.33364e-07
-2.51411e-07
-2.67487e-07
-2.81367e-07
-2.93105e-07
-3.02369e-07
-3.09281e-07
-3.13749e-07
-3.1674e-07
3.4894e-07
3.32505e-07
3.13806e-07
2.92894e-07
2.69684e-07
2.44066e-07
2.15964e-07
1.85483e-07
1.52867e-07
1.18557e-07
8.30545e-08
4.69841e-08
1.09529e-08
-2.43865e-08
-5.84988e-08
-9.09123e-08
-1.21344e-07
-1.49618e-07
-1.75711e-07
-1.99672e-07
-2.21601e-07
-2.41618e-07
-2.59782e-07
-2.76154e-07
-2.90661e-07
-3.03267e-07
-3.13797e-07
-3.22239e-07
-3.28649e-07
-3.33799e-07
3.47699e-07
3.3075e-07
3.1135e-07
2.8957e-07
2.65387e-07
2.38739e-07
2.09578e-07
1.78055e-07
1.44447e-07
1.09248e-07
7.29863e-08
3.63439e-08
-7.64292e-11
-3.55864e-08
-6.97006e-08
-1.01931e-07
-1.32081e-07
-1.59965e-07
-1.85673e-07
-2.09234e-07
-2.30887e-07
-2.50706e-07
-2.68912e-07
-2.85496e-07
-3.00567e-07
-3.1398e-07
-3.25763e-07
-3.35736e-07
-3.44177e-07
-3.51575e-07
3.46445e-07
3.28762e-07
3.08588e-07
2.85863e-07
2.6057e-07
2.32717e-07
2.02321e-07
1.69598e-07
1.34863e-07
9.86705e-08
6.15726e-08
2.43066e-08
-1.25302e-08
-4.8213e-08
-8.23109e-08
-1.14319e-07
-1.44136e-07
-1.71562e-07
-1.96812e-07
-2.19885e-07
-2.41167e-07
-2.60682e-07
-2.78821e-07
-2.95499e-07
-3.11024e-07
-3.25144e-07
-3.38102e-07
-3.49568e-07
-3.60036e-07
-3.69746e-07
3.45402e-07
3.2668e-07
3.05547e-07
2.81708e-07
2.55098e-07
2.2581e-07
1.93957e-07
1.59844e-07
1.23832e-07
8.65311e-08
4.8518e-08
1.05836e-08
-2.66813e-08
-6.25197e-08
-9.65581e-08
-1.28281e-07
-1.57685e-07
-1.84559e-07
-2.0925e-07
-2.31722e-07
-2.52514e-07
-2.71591e-07
-2.89522e-07
-3.06143e-07
-3.21969e-07
-3.3664e-07
-3.5064e-07
-3.63474e-07
-3.75904e-07
-3.87866e-07
3.44686e-07
3.24608e-07
3.02173e-07
2.76899e-07
2.48682e-07
2.17693e-07
1.84148e-07
1.48445e-07
1.10999e-07
7.24767e-08
3.34811e-08
-5.14946e-09
-4.28297e-08
-7.87824e-08
-1.1269e-07
-1.4404e-07
-1.72926e-07
-1.99135e-07
-2.23138e-07
-2.44875e-07
-2.65031e-07
-2.83515e-07
-3.01064e-07
-3.17445e-07
-3.33366e-07
-3.48389e-07
-3.63204e-07
-3.77223e-07
-3.91404e-07
-4.05501e-07
3.44051e-07
3.22325e-07
2.98125e-07
2.70991e-07
2.40837e-07
2.07882e-07
1.72419e-07
1.34933e-07
9.5904e-08
5.60585e-08
1.60321e-08
-2.32996e-08
-6.13553e-08
-9.73561e-08
-1.31036e-07
-1.61906e-07
-1.90144e-07
-2.15554e-07
-2.38717e-07
-2.5956e-07
-2.78902e-07
-2.96604e-07
-3.13567e-07
-3.29477e-07
-3.45249e-07
-3.60344e-07
-3.75684e-07
-3.90569e-07
-4.06164e-07
-4.22065e-07
3.42773e-07
3.1914e-07
2.92744e-07
2.6335e-07
2.30931e-07
1.95738e-07
1.5813e-07
1.18669e-07
7.7916e-08
3.66554e-08
-4.42986e-09
-4.4445e-08
-8.28054e-08
-1.18759e-07
-1.5208e-07
-1.82338e-07
-2.0977e-07
-2.34231e-07