/*--------------------------------*- C++ -*----------------------------------*\
| =========                 |                                                 |
| \\      /  F ield         | OpenFOAM: The Open Source CFD Toolbox           |
|  \\    /   O peration     | Version:  2312                                  |
|   \\  /    A nd           | Website:  www.openfoam.com                      |
|    \\/     M anipulation  |                                                 |
\*---------------------------------------------------------------------------*/
FoamFile
{
    version     2.0;
    format      ascii;
    arch        "LSB;label=32;scalar=64";
    class       surfaceScalarField;
    location    "195000";
    object      phi;
}
// * * * * * * * * * * * * * * * * * * * * * * * * * * * * * * * * * * * * * //

dimensions      [0 3 -1 0 0 0 0];

oriented        oriented;

internalField   nonuniform List<scalar> 
5309
(
7.61672e-05
2.76694e-05
7.10266e-05
5.14064e-06
6.4859e-05
6.16754e-06
6.16095e-05
3.24947e-06
6.03542e-05
1.25533e-06
6.07197e-05
-3.65469e-07
6.14987e-05
-7.79047e-07
6.31687e-05
-1.67e-06
6.4647e-05
-1.4783e-06
6.66429e-05
-1.99583e-06
6.78885e-05
-1.24562e-06
6.93049e-05
-1.4164e-06
6.94525e-05
-1.47636e-07
6.94889e-05
-3.63453e-08
6.77838e-05
1.70503e-06
6.59279e-05
1.85595e-06
6.21986e-05
3.72924e-06
5.85055e-05
3.69314e-06
5.30923e-05
5.41318e-06
4.82095e-05
4.88286e-06
4.18834e-05
6.32605e-06
3.67481e-05
5.13529e-06
3.04524e-05
6.29573e-06
2.61866e-05
4.26576e-06
2.08558e-05
5.33083e-06
1.84522e-05
2.40356e-06
1.36558e-05
4.79639e-06
1.69416e-05
-3.28581e-06
-2.36972e-06
1.93114e-05
-1.59752e-05
1.36055e-05
0.000150279
3.36566e-05
0.000147943
7.4768e-06
0.000145546
8.56412e-06
0.000144001
4.79517e-06
0.000143435
1.82132e-06
0.000144418
-1.34833e-06
0.000146054
-2.41502e-06
0.000148989
-4.60575e-06
0.000151817
-4.30595e-06
0.000155622
-5.80114e-06
0.000158575
-4.19799e-06
0.000162071
-4.91292e-06
0.000163866
-1.94259e-06
0.000165753
-1.92353e-06
0.000165317
2.14092e-06
0.000164648
2.52592e-06
0.000161091
7.28595e-06
0.000157463
7.32138e-06
0.00015074
1.21358e-05
0.000144621
1.1002e-05
0.000135491
1.54558e-05
0.00012829
1.23363e-05
0.000118051
1.65352e-05
0.000112063
1.02538e-05
0.000101376
1.60171e-05
0.000100035
3.7445e-06
8.54756e-05
1.93561e-05
9.51957e-05
-1.3006e-05
7.81423e-05
3.63649e-05
-2.39266e-05
8.60936e-05
0.000199446
3.1793e-05
0.000200112
6.8114e-06
0.000201355
7.32073e-06
0.000201856
4.29429e-06
0.0002025
1.17678e-06
0.000204248
-3.09605e-06
0.000206216
-4.38252e-06
0.000209295
-7.68476e-06
0.000212285
-7.29621e-06
0.000216299
-9.81532e-06
0.000219624
-7.52306e-06
0.000223692
-8.98085e-06
0.00022637
-4.62031e-06
0.000229521
-5.07503e-06
0.000230507
1.15566e-06
0.00023182
1.21247e-06
0.000230264
8.84197e-06
0.000229189
8.39633e-06
0.000224577
1.67475e-05
0.000221106
1.44734e-05
0.00021339
2.31715e-05
0.000208388
1.73389e-05
0.000197887
2.70355e-05
0.000193409
1.4732e-05
0.00018032
2.91065e-05
0.000179703
4.36071e-06
0.000166573
3.24862e-05
0.00016866
-1.50928e-05
0.000167624
3.74009e-05
-1.84214e-05
0.000162119
0.000236484
2.74578e-05
0.000236291
7.00452e-06
0.000238054
5.55788e-06
0.000239805
2.54288e-06
0.000240993
-1.17548e-08
0.000243481
-5.58399e-06
0.000245886
-6.78759e-06
0.000249372
-1.11703e-05
0.000252481
-1.0405e-05
0.000256628
-1.39625e-05
0.000260014
-1.09092e-05
0.000264296
-1.32624e-05
0.000267301
-7.6253e-06
0.000271068
-8.84223e-06
0.000272955
-7.3138e-07
0.000275595
-1.42726e-06
0.000275712
8.72487e-06
0.000276786
7.32183e-06
0.000274567
1.89667e-05
0.000273885
1.51561e-05
0.00026903
2.80256e-05
0.000266841
1.95284e-05
0.000259585
3.42912e-05
0.000256467
1.78502e-05
0.000248712
3.68617e-05
0.000244787
8.28518e-06
0.000240411
3.68626e-05
0.000233398
-8.08005e-06
0.000242533
2.82665e-05
-9.49869e-06
0.00023361
0.000265394
2.30002e-05
0.000264747
7.65127e-06
0.000266213
4.09179e-06
0.000268505
2.50898e-07
0.000270433
-1.93983e-06
0.000272699
-7.85002e-06
0.000275028
-9.1169e-06
0.000278187
-1.4329e-05
0.000281162
-1.33797e-05
0.000284857
-1.76576e-05
0.000288148
-1.42005e-05
0.000292017
-1.71309e-05
0.00029518
-1.07884e-05
0.000298792
-1.24548e-05
0.000301329
-3.26771e-06
0.000304299
-4.39709e-06
0.000305765
7.25853e-06
0.000307709
5.37822e-06
0.00030775
1.89248e-05
0.000308276
1.46305e-05
0.000306833
2.94683e-05
0.000305574
2.07874e-05
0.000303021
3.68445e-05
0.000299549
2.13218e-05
0.000296987
3.94238e-05
0.000290707
1.45658e-05
0.000291592
3.59768e-05
0.000280896
2.61674e-06
0.000287967
2.1195e-05
-3.52793e-06
0.000281996
0.000288396
1.92797e-05
0.000287686
8.36084e-06
0.000288646
3.13193e-06
0.000290499
-1.60177e-06
0.000292156
-3.59719e-06
0.000294173
-9.86652e-06
0.000296423
-1.13673e-05
0.000299109
-1.70144e-05
0.000302004
-1.6275e-05
0.000305082
-2.07355e-05
0.000308326
-1.74447e-05
0.000311544
-2.03487e-05
0.000314869
-1.41136e-05
0.000317945
-1.55315e-05
0.000321054
-6.37603e-06
0.000323678
-7.02131e-06
0.000326351
4.58573e-06
0.000328195
3.53449e-06
0.000330256
1.68636e-05
0.000330898
1.39877e-05
0.000332291
2.80755e-05
0.00033121
2.18683e-05
0.00033207
3.59846e-05
0.000328551
2.4841e-05
0.000329542
3.8433e-05
0.000322733
2.13742e-05
0.000325287
3.34236e-05
0.000315397
1.25064e-05
0.000318544
1.80478e-05
1.03344e-06
0.000313983
0.000306415
1.65228e-05
0.0003061
8.6753e-06
0.000306433
2.79929e-06
0.000307682
-2.85079e-06
0.000309374
-5.28946e-06
0.00031093
-1.14224e-05
0.000313058
-1.34947e-05
0.000315063
-1.90201e-05
0.000317809
-1.90202e-05
0.000320151
-2.30776e-05
0.0003233
-2.0594e-05
0.000325796
-2.2845e-05
0.000329181
-1.74979e-05
0.000331639
-1.79895e-05
0.000335099
-9.83634e-06
0.000337283
-9.20523e-06
0.000340714
1.15472e-06
0.000342364
1.88462e-06
0.00034564
1.35876e-05
0.000346378
1.32492e-05
0.000349366
2.50875e-05
0.0003487
2.2535e-05
0.000351288
3.33958e-05
0.000348563
2.7566e-05
0.00035069
3.63064e-05
0.000345404
2.66601e-05
0.000346947
3.18809e-05
0.000340182
1.92716e-05
0.000338653
1.95765e-05
4.76403e-06
0.000334922
0.000319953
1.46757e-05
0.000320019
8.60954e-06
0.000320125
2.69303e-06
0.000320817
-3.54238e-06
0.000322394
-6.86704e-06
0.000323555
-1.25836e-05
0.000325525
-1.54646e-05
0.000326987
-2.04815e-05
0.000329514
-2.15476e-05
0.000331282
-2.48454e-05
0.000334227
-2.35394e-05
0.000336181
-2.47992e-05
0.000339447
-2.07634e-05
0.000341469
-2.00113e-05
0.000344987
-1.33544e-05
0.000346929
-1.11474e-05
0.000350627
-2.54365e-06
0.000352297
2.15186e-07
0.000356083
9.80109e-06
0.00035718
1.2152e-05
0.000360809
2.14591e-05
0.000360951
2.23928e-05
0.000364051
3.02957e-05
0.000362752
2.88648e-05
0.000364766
3.42926e-05
0.000361769
2.96569e-05
0.000361757
3.18936e-05
0.000357802
2.32264e-05
0.000354244
2.31347e-05
8.83935e-06
0.000350168
0.000329447
1.35762e-05
0.000329713
8.34354e-06
0.000329977
2.42927e-06
0.000330327
-3.8924e-06
0.000331706
-8.24619e-06
0.000332615
-1.34922e-05
0.000334377
-1.72274e-05
0.000335501
-2.16053e-05
0.000337724
-2.37698e-05
0.000339143
-2.62649e-05
0.00034177
-2.61659e-05
0.000343419
-2.6449e-05
0.000346407
-2.37514e-05
0.000348236
-2.18399e-05
0.000351572
-1.669e-05
0.000353512
-1.30875e-05
0.000357139
-6.17108e-06
0.000359074
-1.71983e-06
0.000362881
5.99394e-06
0.000364634
1.03991e-05
0.000368282
1.78108e-05
0.00036954
2.11351e-05
0.000372518
2.7318e-05
0.000372871
2.85117e-05
0.000374412
3.27518e-05
0.000373518
3.05508e-05
0.000372724
3.26871e-05
0.000370391
2.55595e-05
0.000366968
2.65575e-05
1.33718e-05
0.000362436
0.000335415
1.29927e-05
0.000335846
7.91217e-06
0.000336324
1.95214e-06
0.00033659
-4.1585e-06
0.000337737
-9.39352e-06
0.000338538
-1.42934e-05
0.000340059
-1.87479e-05
0.00034105
-2.25964e-05
0.000342926
-2.56462e-05
0.000344209
-2.75473e-05
0.000346461
-2.84187e-05
0.00034802
-2.80076e-05
0.000350648
-2.63799e-05
0.00035249
-2.36814e-05
0.000355509
-1.97094e-05
0.000357637
-1.52151e-05
0.000361006
-9.54018e-06
0.000363374
-4.08824e-06
0.000366971
2.39782e-06
0.000369471
7.89886e-06
0.000372954
1.43275e-05
0.000375273
1.88158e-05
0.000378135
2.44563e-05
0.00037981
2.68365e-05
0.00038138
3.11821e-05
0.000381749
3.01813e-05
0.00038139
3.3047e-05
0.000379647
2.73021e-05
0.000377076
2.9129e-05
1.8043e-05
0.000372404
0.000338512
1.26465e-05
0.000339028
7.39525e-06
0.000339673
1.30716e-06
0.000340067
-4.55227e-06
0.000341033
-1.03597e-05
0.00034184
-1.51002e-05
0.000343138
-2.00456e-05
0.000344146
-2.36046e-05
0.000345716
-2.72159e-05
0.000347009
-2.88409e-05
0.00034892
-3.03295e-05
0.000350529
-2.96162e-05
0.000352814
-2.86655e-05
0.000354788
-2.56551e-05
0.00035749
-2.24107e-05
0.000359877
-1.76025e-05
0.000362986
-1.26495e-05
0.000365783
-6.88466e-06
0.000369191
-1.01086e-06
0.000372304
4.78606e-06
0.000375762
1.08692e-05
0.000378847
1.57313e-05
0.000381928
2.13755e-05
0.000384432
2.43318e-05
0.000386533
2.90811e-05
0.000387667
2.90474e-05
0.000388148
3.25662e-05
0.000387002
2.84486e-05
0.000385347
3.07832e-05
2.22878e-05
0.000381103
0.000339547
1.22817e-05
0.000340127
6.81568e-06
0.000340868
5.65631e-07
0.000341473
-5.15696e-06
0.00034235
-1.12369e-05
0.000343234
-1.59836e-05
0.000344383
-2.11945e-05
0.000345487
-2.47088e-05
0.000346859
-2.85883e-05
0.000348236
-3.02175e-05
0.000349918
-3.20117e-05
0.000351629
-3.13271e-05
0.000353684
-3.07207e-05
0.000355807
-2.77778e-05
0.000358305
-2.49093e-05
0.000360914
-2.02118e-05
0.00036389
-1.56246e-05
0.000366998
-9.99337e-06
0.000370388
-4.40048e-06
0.0003739
1.27408e-06
0.000377546
7.22334e-06
0.000381129
1.21482e-05
0.000384641
1.78637e-05
0.00038774
2.12325e-05
0.000390549
2.62719e-05
0.000392378
2.72185e-05
0.000393799
3.11456e-05
0.000393418
2.88295e-05
0.00039279
3.1411e-05
2.57428e-05
0.000389335
0.000339472
1.17142e-05
0.00034017
6.11826e-06
0.000340962
-2.26727e-07
0.000341762
-5.95652e-06
0.000342643
-1.21181e-05
0.000343643
-1.69832e-05
0.000344747
-2.22993e-05
0.000345974
-2.5935e-05
0.000347284
-2.98991e-05
0.000348765
-3.16981e-05
0.000350362
-3.3609e-05
0.000352176
-3.31403e-05
0.000354145
-3.269e-05
0.000356384
-3.00168e-05
0.000358823
-2.73485e-05
0.000361581
-2.297e-05
0.000364565
-1.8608e-05
0.000367872
-1.33002e-05
0.000371401
-7.92993e-06
0.000375162
-2.48712e-06
0.000379108
3.27707e-06
0.000383069
8.18764e-06
0.000387094
1.38384e-05
0.000390732
1.75953e-05
0.000394302
2.27016e-05
0.000396863
2.46573e-05
0.000399267
2.87415e-05
0.000399816
2.82807e-05
0.000400293
3.09344e-05
2.81705e-05
0.000397865
0.000339595
1.09803e-05
0.000340378
5.33561e-06
0.000341205
-1.05413e-06
0.000342118
-6.86888e-06
0.000343051
-1.30518e-05
0.000344164
-1.80956e-05
0.000345307
-2.34425e-05
0.000346645
-2.72728e-05
0.000347992
-3.12464e-05
0.000349566
-3.32723e-05
0.000351184
-3.52264e-05
0.000353074
-3.5031e-05
0.000355062
-3.46777e-05
0.000357373
-3.23279e-05
0.000359853
-2.98281e-05
0.000362696
-2.58136e-05
0.000365778
-2.16893e-05
0.000369214
-1.67367e-05
0.000372936
-1.16522e-05
0.000376912
-6.46271e-06
0.000381187
-9.98374e-07
0.0003855
3.87523e-06
0.000390055
9.28318e-06
0.000394251
1.33997e-05
0.000398586
1.83661e-05
0.000401962
2.12813e-05
0.000405374
2.53293e-05
0.000407014
2.66411e-05
0.00040869
2.92585e-05
2.92775e-05
0.000407583
0.000341069
1.02491e-05
0.000341861
4.54299e-06
0.000342668
-1.86136e-06
0.000343622
-7.82219e-06
0.000344608
-1.40383e-05
0.000345795
-1.92823e-05
0.000347003
-2.46509e-05
0.00034841
-2.86792e-05
0.000349822
-3.2659e-05
0.000351446
-3.48956e-05
0.000353115
-3.68958e-05
0.000355032
-3.69477e-05
0.000357068
-3.67139e-05
0.000359394
-3.46543e-05
0.000361942
-3.23756e-05
0.000364814
-2.8686e-05
0.000368016
-2.48912e-05
0.000371533
-2.02532e-05
0.000375465
-1.5585e-05
0.000379626
-1.06233e-05
0.000384248
-5.61984e-06
0.000388899
-7.76222e-07
0.000393997
4.18554e-06
0.000398769
8.62687e-06
0.000403906
1.32296e-05
0.000408151
1.70366e-05
0.000412658
2.08224e-05
0.000415484
2.38144e-05
0.000418521
2.62218e-05
2.89145e-05
0.000418884
0.000344664
9.67014e-06
-0.000344085
0.000345357
3.84955e-06
0.000346091
-2.59509e-06
0.000347004
-8.73518e-06
0.000347989
-1.5024e-05
0.00034917
-2.04625e-05
0.000350397
-2.58779e-05
0.000351788
-3.00704e-05
0.000353214
-3.40855e-05
0.000354802
-3.64827e-05
0.000356473
-3.85669e-05
0.000358332
-3.88069e-05
0.000360369
-3.87512e-05
0.000362635
-3.69202e-05
0.00036521
-3.49503e-05
0.000368049
-3.15257e-05
0.00037134
-2.81814e-05
0.000374892
-2.38054e-05
0.000379016
-1.97089e-05
0.000383331
-1.49389e-05
0.000388295
-1.05831e-05
0.000393276
-5.7571e-06
0.000398925
-1.46357e-06
0.000404281
3.27096e-06
0.000410266
7.24368e-06
0.000415428
1.18753e-05
0.00042112
1.51306e-05
0.000425247
1.96869e-05
0.000429787
2.16823e-05
2.68754e-05
0.000431826
0.000350381
9.34959e-06
-0.000350061
0.000350893
3.33818e-06
0.000351498
-3.20071e-06
0.000352289
-9.52593e-06
0.000353188
-1.59226e-05
0.000354257
-2.15314e-05
0.0003554
-2.70213e-05
0.000356666
-3.13359e-05
0.000357998
-3.54181e-05
0.000359441
-3.79255e-05
0.000361009
-4.01353e-05
0.000362713
-4.0511e-05
0.000364658
-4.0696e-05
0.000366784
-3.90459e-05
0.000369308
-3.74748e-05
0.000372056
-3.42739e-05
0.000375375
-3.15005e-05
0.000378924
-2.73545e-05
0.000383198
-2.39824e-05
0.000387642
-1.93833e-05
0.000392924
-1.58646e-05
0.000398223
-1.10564e-05
0.000404421
-7.66178e-06
0.000410353
-2.66114e-06
0.000417212
3.85208e-07
0.000423338
5.7488e-06
0.000430299
8.16996e-06
0.000435838
1.41475e-05
0.000442051
1.547e-05
2.29395e-05
0.000445987
0.000356923
9.19416e-06
-0.000356768
0.000357322
2.93895e-06
0.000357852
-3.73047e-06
0.000358537
-1.02105e-05
0.000359322
-1.67077e-05
0.000360231
-2.24406e-05
0.000361218
-2.80077e-05
0.000362287
-3.24049e-05
0.000363435
-3.65662e-05
0.000364658
-3.91489e-05
0.000366032
-4.15091e-05
0.000367516
-4.19953e-05
0.000369288
-4.24673e-05
0.000371226
-4.09846e-05
0.000373636
-3.98844e-05
0.000376263
-3.69015e-05
0.000379562
-3.47993e-05
0.000383091
-3.08834e-05
0.000387476
-2.83675e-05
0.000392036
-2.39432e-05
0.000397605
-2.14337e-05
0.000403208
-1.66593e-05
0.00040994
-1.43933e-05
0.000416459
-9.18003e-06
0.000424146
-7.3019e-06
0.000431264
-1.36901e-06
0.000439544
-1.10441e-07
0.000446618
7.07358e-06
0.000454644
7.44412e-06
1.68581e-05
0.000460725
0.000363412
9.08194e-06
-0.0003633
0.00036375
2.60138e-06
0.000364228
-4.20877e-06
0.000364815
-1.07969e-05
0.000365467
-1.73598e-05
0.000366197
-2.31714e-05
0.000366988
-2.87978e-05
0.000367837
-3.32545e-05
0.000368759
-3.74885e-05
0.00036975
-4.01394e-05
0.000370895
-4.26543e-05
0.000372162
-4.32623e-05
0.000373736
-4.40408e-05
0.000375505
-4.27541e-05
0.000377782
-4.21607e-05
0.000380317
-3.94368e-05
0.000383576
-3.80584e-05
0.000387114
-3.44217e-05
0.000391581
-3.28341e-05
0.000396282
-2.86438e-05
0.000402095
-2.72472e-05
0.000408021
-2.25857e-05
0.000415219
-2.15909e-05
0.000422328
-1.62886e-05
0.000430835
-1.58095e-05
0.000438949
-9.48287e-06
0.000448444
-9.60553e-06
0.00045717
-1.65198e-06
0.000467117
-2.5031e-06
8.36228e-06
0.000475613
0.000368287
8.69676e-06
-0.000367902
0.0003688
2.08883e-06
0.000369396
-4.80491e-06
0.000370038
-1.14396e-05
0.000370696
-1.80172e-05
0.000371387
-2.38624e-05
0.000372095
-2.95058e-05
0.000372843
-3.40026e-05
0.000373632
-3.82774e-05
0.000374496
-4.10032e-05
0.000375487
-4.36453e-05
0.000376633
-4.44087e-05
0.000378062
-4.54693e-05
0.000379748
-4.44408e-05
0.000381918
-4.43306e-05
0.000384437
-4.19556e-05
0.000387655
-4.12763e-05
0.000391268
-3.80349e-05
0.000395783
-3.73491e-05
0.000400679
-3.35402e-05
0.000406665
-3.32328e-05
0.00041296
-2.88811e-05
0.000420521
-2.91514e-05
0.000428255
-2.40232e-05
0.00043741
-2.49643e-05
0.000446548
-1.86211e-05
0.000457208
-2.02651e-05
0.000467547
-1.19906e-05
0.000479318
-1.42748e-05
-2.82525e-06
0.000490506
0.000372908
7.99165e-06
-0.000372203
0.000373653
1.34468e-06
0.00037444
-5.59242e-06
0.000375249
-1.22487e-05
0.000376036
-1.88042e-05
0.000376821
-2.4647e-05
0.000377566
-3.02511e-05
0.000378326
-3.47625e-05
0.000379069
-3.90209e-05
0.00037989
-4.1824e-05
0.000380776
-4.45315e-05
0.000381858
-4.549e-05
0.000383151
-4.67627e-05
0.00038479
-4.608e-05
0.000386829
-4.63689e-05
0.000389358
-4.44853e-05
0.00039248
-4.43974e-05
0.000396198
-4.17535e-05
0.000400676
-4.18268e-05
0.0004058
-3.86645e-05
0.000411833
-3.92656e-05
0.000418522
-3.55706e-05
0.000426272
-3.6901e-05
0.000434651
-3.2402e-05
0.000444231
-3.45441e-05
0.000454377
-2.87676e-05
0.00046587
-3.17582e-05
0.000477839
-2.39594e-05
0.000491229
-2.76647e-05
-1.65775e-05
0.000504981
0.000381266
7.33334e-06
-0.000380608
0.000381955
6.55108e-07
0.000382684
-6.32095e-06
0.000383438
-1.30031e-05
0.000384153
-1.95193e-05
0.000384849
-2.53423e-05
0.000385459
-3.08617e-05
0.000386067
-3.53705e-05
0.000386607
-3.95602e-05
0.000387231
-4.24483e-05
0.000387863
-4.51638e-05
0.00038874
-4.63673e-05
0.00038976
-4.77824e-05
0.000391235
-4.75552e-05
0.000393014
-4.81473e-05
0.00039547
-4.69412e-05
0.000398375
-4.73025e-05
0.00040215
-4.55284e-05
0.000406468
-4.61449e-05
0.000411796
-4.39927e-05
0.000417718
-4.51876e-05
0.000424778
-4.26305e-05
0.000432494
-4.46172e-05
0.000441479
-4.13876e-05
0.000451196
-4.42606e-05
0.000462267
-3.98382e-05
0.00047418
-4.36714e-05
0.00048757
-3.73497e-05
0.000501997
-4.20912e-05
-3.26399e-05
0.000518059
0.000392022
6.70696e-06
-0.000391395
0.000392647
2.93874e-08
0.000393296
-6.96968e-06
0.00039392
-1.36273e-05
0.000394445
-2.00442e-05
0.000394908
-2.58055e-05
0.000395235
-3.11882e-05
0.000395532
-3.56677e-05
0.000395717
-3.97448e-05
0.000395986
-4.27175e-05
0.000396231
-4.54095e-05
0.00039676
-4.6896e-05
0.000397403
-4.84248e-05
0.000398588
-4.87402e-05
0.000400033
-4.95931e-05
0.000402308
-4.92162e-05
0.000404951
-4.99455e-05
0.000408693
-4.92702e-05
0.000412823
-5.02749e-05
0.000418282
-4.94509e-05
0.000424041
-5.09465e-05
0.00043136
-4.99502e-05
0.000438897
-5.21534e-05
0.000448316
-5.0807e-05
0.000457881
-5.38255e-05
0.00046966
-5.16178e-05
0.000481481
-5.5492e-05
0.000495844
-5.17126e-05
0.000510411
-5.66583e-05
-5.0241e-05
0.000528012
0.000402931
5.69487e-06
-0.000401919
0.000403785
-8.25248e-07
0.000404541
-7.72523e-06
0.000405155
-1.42415e-05
0.00040556
-2.04486e-05
0.000405826
-2.6072e-05
0.000405887
-3.12489e-05
0.000405862
-3.56432e-05
0.000405681
-3.95635e-05
0.000405557
-4.25936e-05
0.000405401
-4.5253e-05
0.000405525
-4.70202e-05
0.000405782
-4.8682e-05
0.000406601
-4.95591e-05
0.000407723
-5.0715e-05
0.000409713
-5.12067e-05
0.000412124
-5.23563e-05
0.000415695
-5.28407e-05
0.000419691
-5.42714e-05
0.000425104
-5.48642e-05
0.000430779
-5.66214e-05
0.000438083
-5.72544e-05
0.000445389
-5.94591e-05
0.000454754
-6.01718e-05
0.000463869
-6.29409e-05
0.000475663
-6.34111e-05
0.000486758
-6.65877e-05
0.000501072
-6.60259e-05
0.00051423
-6.98162e-05
-6.75985e-05
0.000531587
0.000416117
4.72551e-06
-0.000415148
0.000417279
-1.98661e-06
0.000417993
-8.43913e-06
0.000418496
-1.47444e-05
0.00041876
-2.07132e-05
0.0004188
-2.61114e-05
0.000418536
-3.09857e-05
0.000418102
-3.5209e-05
0.000417474
-3.89351e-05
0.000416855
-4.19748e-05
0.000416208
-4.46054e-05
0.000415808
-4.66212e-05
0.000415593
-4.84663e-05
0.00041591
-4.98768e-05
0.000416629
-5.14331e-05
0.000418166
-5.27437e-05
0.000420269
-5.44601e-05
0.000423432
-5.60028e-05
0.000427206
-5.80456e-05
0.000432212
-5.98701e-05
0.000437707
-6.2117e-05
0.000444463
-6.40105e-05
0.00045127
-6.62656e-05
0.000459524
-6.84261e-05
0.000467442
-7.08589e-05
0.000477416
-7.33848e-05
0.000486403
-7.55747e-05
0.000498188
-7.78109e-05
0.000507365
-7.89938e-05
-8.07997e-05
0.000520567
0.000434438
3.3303e-06
-0.000433043
0.00043521
-2.75855e-06
0.000435919
-9.14831e-06
0.000436229
-1.50546e-05
0.000436039
-2.05233e-05
0.000435454
-2.55258e-05
0.000434527
-3.00592e-05
0.000433381
-3.40627e-05
0.000432028
-3.75819e-05
0.000430638
-4.05848e-05
0.000429242
-4.32101e-05
0.000428073
-4.54522e-05
0.000427152
-4.75455e-05
0.000426742
-4.94664e-05
0.000426814
-5.15053e-05
0.000427624
-5.35537e-05
0.000429073
-5.59092e-05
0.000431388
-5.8318e-05
0.00043438
-6.1037e-05
0.000438207
-6.36972e-05
0.000442552
-6.64623e-05
0.000447578
-6.9036e-05
0.000452617
-7.13051e-05
0.000457657
-7.34657e-05
0.00046216
-7.53619e-05
0.000466668
-7.78929e-05
0.000469874
-7.87809e-05
0.000473687
-8.16236e-05
0.000474555
-7.9862e-05
-8.32743e-05
0.00047703
0.00045364
6.3674e-07
-0.000450947
0.000455512
-4.63062e-06
0.000456335
-9.97151e-06
0.000456481
-1.52005e-05
0.000456062
-2.01036e-05
0.000455116
-2.45797e-05
0.000453668
-2.86115e-05
0.000451818
-3.22123e-05
0.000449649
-3.5413e-05
0.000447315
-3.82509e-05
0.000444913
-4.08081e-05
0.000442624
-4.31634e-05
0.000440534
-4.54553e-05
0.000438827
-4.776e-05
0.000437533
-5.0211e-05
0.000436768
-5.27883e-05
0.000436425
-5.55661e-05
0.000436556
-5.84498e-05
0.00043695
-6.14301e-05
0.000437433
-6.41803e-05
0.000437691
-6.67206e-05
0.000437531
-6.88757e-05
0.000436866
-7.06405e-05
0.000434926
-7.15252e-05
0.000431265
-7.17015e-05
0.000424598
-7.1226e-05
0.000415218
-6.94004e-05
0.000401645
-6.80513e-05
0.000386109
-6.43257e-05
-6.62223e-05
0.000369057
0.000486669
4.47985e-07
-0.00048648
0.000487055
-5.01603e-06
0.000486959
-9.87642e-06
0.000486037
-1.42784e-05
0.000484229
-1.82956e-05
0.000481614
-2.19642e-05
0.000478288
-2.52854e-05
0.000474351
-2.82759e-05
0.000469903
-3.09649e-05
0.000465067
-3.34148e-05
0.000459964
-3.57052e-05
0.000454734
-3.79332e-05
0.000449487
-4.02079e-05
0.00044434
-4.26134e-05
0.000439358
-4.5229e-05
0.000434562
-4.79922e-05
0.000429463
-5.04675e-05
0.0004241
-5.30866e-05
0.000417977
-5.53075e-05
0.000410549
-5.6752e-05
0.000401097
-5.72685e-05
0.00038913
-5.69091e-05
0.000374535
-5.60449e-05
0.000358236
-5.52267e-05
0.000339988
-5.34534e-05
0.000317003
-4.82412e-05
0.00028803
-4.04274e-05
0.000251012
-3.10331e-05
0.000208953
-2.22669e-05
-1.82573e-05
0.000160988
0.000525826
-2.46023e-06
-0.000522918
0.000526005
-5.195e-06
0.000524274
-8.14529e-06
0.000521073
-1.10774e-05
0.000516585
-1.38078e-05
0.000510894
-1.6273e-05
0.00050408
-1.84722e-05
0.000496237
-2.04326e-05
0.000487448
-2.21758e-05
0.000477772
-2.37387e-05
0.000467227
-2.51606e-05
0.000455796
-2.65015e-05
0.000443407
-2.78197e-05
0.000429963
-2.91691e-05
0.000415323
-3.05894e-05
0.000399391
-3.206e-05
0.000382519
-3.35957e-05
0.00036501
-3.55773e-05
0.000345628
-3.59257e-05
0.000323295
-3.44187e-05
0.000296689
-3.06621e-05
0.000265097
-2.53177e-05
0.000228814
-1.97618e-05
0.000188114
-1.45259e-05
0.000145528
-1.08674e-05
0.000104967
-7.68093e-06
6.84769e-05
-3.93692e-06
3.69297e-05
5.14076e-07
1.03818e-05
4.28091e-06
4.60248e-06
-1.24779e-05
0.000510656
-0.000513116
0.000505461
0.000497316
0.000486238
0.00047243
0.000456157
0.000437685
0.000417253
0.000395077
0.000371338
0.000346178
0.000319676
0.000291856
0.000262687
0.000232098
0.000200038
0.000166442
0.000130865
9.49392e-05
6.05205e-05
2.98584e-05
4.5407e-06
-1.52211e-05
-2.9747e-05
-4.06144e-05
-4.82954e-05
-5.22323e-05
-5.17182e-05
-4.74373e-05
-4.28348e-05
0.000406793
0.000385222
0.00036293
0.000338643
0.000312384
0.000286577
0.000261789
0.000235865
0.000208552
0.000180697
0.000149665
0.000120583
8.16684e-05
4.51455e-05
0.000429604
4.24746e-06
0.000422238
7.36568e-06
0.000411757
1.04814e-05
0.000398323
1.3434e-05
0.000382148
1.61746e-05
0.00036344
1.87083e-05
0.00034238
2.10597e-05
0.00031913
2.32504e-05
0.000293822
2.5308e-05
0.000266562
2.72605e-05
0.000237433
2.91291e-05
0.000206513
3.092e-05
0.000173929
3.25839e-05
0.000139834
3.40951e-05
0.000104431
3.54024e-05
6.99544e-05
3.44766e-05
3.89084e-05
3.1046e-05
1.35375e-05
2.53709e-05
-5.50179e-06
1.90393e-05
-1.88222e-05
1.33204e-05
-2.79062e-05
9.08398e-06
-3.28265e-05
4.92032e-06
-3.35191e-05
6.92634e-07
-3.0793e-05
-2.72617e-06
-2.69127e-05
-3.88025e-06
-2.21488e-05
-4.7639e-06
-1.52873e-05
-6.86154e-06
-5.60108e-06
-9.68619e-06
-1.17168e-05
6.11572e-06
0.000457843
3.02544e-06
0.000456911
8.29833e-06
0.000454269
1.31229e-05
0.000450066
1.7637e-05
0.000444341
2.18998e-05
0.000437118
2.59306e-05
0.000428428
2.97506e-05
0.000418281
3.33967e-05
0.000406666
3.69237e-05
0.000393523
4.04034e-05
0.000378761
4.38903e-05
0.000362252
4.74297e-05
0.000343888
5.09481e-05
0.000323892
5.40908e-05
0.000302452
5.68423e-05
0.00027796
5.89685e-05
0.000249055
5.99511e-05
0.00021482
5.96061e-05
0.000175639
5.82206e-05
0.000132345
5.66142e-05
8.99196e-05
5.15091e-05
5.20835e-05
4.27564e-05
2.09024e-05
3.18737e-05
-3.64084e-06
2.18171e-05
-2.06894e-05
1.31683e-05
-2.99635e-05
4.51021e-06
-3.17066e-05
-5.11849e-06
-2.88721e-05
-1.25207e-05
-1.62867e-05
-2.43022e-05
0.000427163
2.07382e-06
0.000427697
7.76469e-06
0.000427347
1.34726e-05
0.000425996
1.89876e-05
0.000423682
2.42141e-05
0.000420471
2.91423e-05
0.000416424
3.37972e-05
0.000411604
3.82165e-05
0.00040608
4.2448e-05
0.000399923
4.65598e-05
0.000393192
5.06212e-05
0.000385926
5.46957e-05
0.000378066
5.88085e-05
0.000369214
6.2943e-05
0.000358973
6.7083e-05
0.000346869
7.10723e-05
0.000332149
7.46712e-05
0.000314151
7.76046e-05
0.000292694
7.96775e-05
0.000269085
8.02233e-05
0.000241375
7.92186e-05
0.000207621
7.65109e-05
0.000167582
7.19124e-05
0.000123691
6.57078e-05
7.99855e-05
5.68743e-05
4.14305e-05
4.30652e-05
9.88087e-06
2.64311e-05
-1.48696e-05
1.22298e-05
-3.23278e-07
-3.08331e-05
0.00040398
-5.05282e-07
0.000405275
6.4701e-06
0.00040577
1.29772e-05
0.000405609
1.91486e-05
0.000404795
2.50283e-05
0.000403341
3.05963e-05
0.000401306
3.5832e-05
0.000398779
4.0744e-05
0.000395854
4.53725e-05
0.000392632
4.97815e-05
0.0003892
5.40539e-05
0.000385621
5.82745e-05
0.000381895
6.2534e-05
0.000377942
6.68963e-05
0.000373641
7.13843e-05
0.000368773
7.59402e-05
0.000363035
8.04089e-05
0.000356043
8.45965e-05
0.00034754
8.8181e-05
0.00033671
9.10525e-05
0.00032251
9.34188e-05
0.00030417
9.48513e-05
0.000281624
9.44581e-05
0.000255178
9.21538e-05
0.000224845
8.72074e-05
0.000187983
7.9927e-05
0.000144327
7.00871e-05
9.84366e-05
5.81205e-05
4.45765e-05
5.35368e-05
0.000389197
-1.54578e-06
0.000390226
5.44099e-06
0.000390847
1.23561e-05
0.000390886
1.91092e-05
0.000390426
2.5489e-05
0.000389548
3.1474e-05
0.000388291
3.70886e-05
0.000386707
4.23278e-05
0.000384875
4.72049e-05
0.000382883
5.17738e-05
0.000380832
5.61047e-05
0.0003788
6.03067e-05
0.000376871
6.44629e-05
0.000375076
6.86912e-05
0.000373471
7.29893e-05
0.000371987
7.74236e-05
0.000370561
8.18356e-05
0.000368906
8.62508e-05
0.000366722
9.03657e-05
0.000363278
9.44962e-05
0.000358483
9.82144e-05
0.000351816
0.000101518
0.000342705
0.000103569
0.00033042
0.000104438
0.000313557
0.000104071
0.000292084
0.0001014
0.00026378
9.83908e-05
0.000233148
8.8753e-05
8.67092e-05
0.000191015
0.00037661
-2.84781e-06
0.000377606
4.44571e-06
0.000378287
1.16751e-05
0.000378709
1.86874e-05
0.000378796
2.54012e-05
0.000378509
3.17613e-05
0.000377904
3.76941e-05
0.000377021
4.32103e-05
0.000375944
4.8282e-05
0.000374728
5.299e-05
0.000373488
5.73447e-05
0.00037229
6.15051e-05
0.00037127
6.54825e-05
0.000370482
6.94794e-05
0.000370043
7.34279e-05
0.000369943
7.75238e-05
0.000370206
8.1572e-05
0.000370691
8.57658e-05
0.000371161
8.98959e-05
0.000371535
9.41227e-05
0.000371523
9.82262e-05
0.000371097
0.000101944
0.000369107
0.000105559
0.000365729
0.000107816
0.000358937
0.000110863
0.000349997
0.000110339
0.000335347
0.000113042
0.000317254
0.000106846
0.000111458
0.000292505
0.000367475
-3.85568e-06
0.000368345
3.57576e-06
0.00036907
1.09507e-05
0.000369572
1.81852e-05
0.000369858
2.51155e-05
0.000369881
3.17377e-05
0.000369688
3.78877e-05
0.000369271
4.36268e-05
0.000368721
4.88318e-05
0.00036806
5.36515e-05
0.000367406
5.79986e-05
0.000366806
6.21047e-05
0.000366391
6.58973e-05
0.000366226
6.96445e-05
0.000366399
7.32549e-05
0.000366977
7.69463e-05
0.000367917
8.06324e-05
0.00036929
8.43923e-05
0.000370873
8.8313e-05
0.000372912
9.20835e-05
0.000374882
9.62561e-05
0.000377138
9.96877e-05
0.000378568
0.00010413
0.000379669
0.000106716
0.000378953
0.000111579
0.000376756
0.000112536
0.000371773
0.000118024
0.000362298
0.000116321
0.000122701
0.000351056
0.000360033
-4.59163e-06
0.000360752
2.85638e-06
0.000361448
1.02547e-05
0.000362024
1.76095e-05
0.00036249
2.4649e-05
0.000362767
3.14612e-05
0.000362913
3.77416e-05
0.00036288
4.36596e-05
0.00036277
4.89418e-05
0.000362568
5.38539e-05
0.000362399
5.81669e-05
0.000362287
6.22169e-05
0.000362354
6.583e-05
0.000362658
6.93405e-05
0.000363269
7.26437e-05
0.000364271
7.59447e-05
0.000365622
7.9282e-05
0.000367445
8.25685e-05
0.000369594
8.6164e-05
0.000372239
8.94392e-05
0.000375093
9.34018e-05
0.000378221
9.65594e-05
0.000381326
0.000101025
0.000384091
0.000103951
0.000386642
0.000109027
0.000387524
0.000111655
0.000388186
0.000117362
0.000384646
0.000119861
0.000125701
0.000381645
0.000352606
-5.34638e-06
0.000353373
2.08948e-06
0.000354181
9.44599e-06
0.000354919
1.68724e-05
0.000355618
2.39498e-05
0.00035617
3.09096e-05
0.000356663
3.72485e-05
0.000357003
4.33191e-05
0.000357327
4.86175e-05
0.000357558
5.36234e-05
0.000357869
5.78554e-05
0.000358202
6.18841e-05
0.000358752
6.528e-05
0.000359464
6.86288e-05
0.000360528
7.15792e-05
0.000361865
7.46084e-05
0.000363653
7.74938e-05
0.000365753
8.04684e-05
0.00036838
8.35369e-05
0.000371238
8.6581e-05
0.000374666
8.99745e-05
0.000378033
9.31919e-05
0.000382033
9.70247e-05
0.000385401
0.000100583
0.000389522
0.000104906
0.000392063
0.000109114
0.000395545
0.00011388
0.000396248
0.000119159
0.000123986
0.000397963
0.000346958
-6.07981e-06
0.000347718
1.3299e-06
0.000348536
8.6273e-06
0.000349301
1.6108e-05
0.000350084
2.31666e-05
0.000350752
3.02415e-05
0.00035144
3.65611e-05
0.000351994
4.27644e-05
0.000352618
4.79934e-05
0.000353137
5.3105e-05
0.000353829
5.71629e-05
0.000354484
6.12291e-05
0.000355464
6.43006e-05
0.000356486
6.76063e-05
0.000358
7.00651e-05
0.000359602
7.30062e-05
0.000361855
7.52413e-05
0.000364165
7.81577e-05
0.000367265
8.04373e-05
0.000370276
8.35698e-05
0.000374193
8.60579e-05
0.000377747
8.96376e-05
0.000382327
9.24452e-05
0.000386156
9.67538e-05
0.000391127
9.99351e-05
0.000394931
0.00010531
0.00039999
0.00010882
0.000403657
0.000115492
0.000119119
0.000408524
0.000344422
-6.51609e-06
0.000344939
8.12091e-07
0.000345554
8.01312e-06
0.000346144
1.55181e-05
0.000346821
2.24888e-05
0.000347417