/*--------------------------------*- C++ -*----------------------------------*\
| =========                 |                                                 |
| \\      /  F ield         | OpenFOAM: The Open Source CFD Toolbox           |
|  \\    /   O peration     | Version:  2312                                  |
|   \\  /    A nd           | Website:  www.openfoam.com                      |
|    \\/     M anipulation  |                                                 |
\*---------------------------------------------------------------------------*/
FoamFile
{
    version     2.0;
    format      ascii;
    arch        "LSB;label=32;scalar=64";
    class       volScalarField;
    location    "163000";
    object      p;
}
// * * * * * * * * * * * * * * * * * * * * * * * * * * * * * * * * * * * * * //

dimensions      [0 2 -2 0 0 0 0];

internalField   nonuniform List<scalar> 
10800
(
6.02389e-07
5.88267e-07
5.74502e-07
5.63928e-07
5.56509e-07
5.51123e-07
5.46678e-07
5.42605e-07
5.38738e-07
5.35082e-07
5.31677e-07
5.28524e-07
5.25592e-07
5.2283e-07
5.20193e-07
5.17646e-07
5.1517e-07
5.12749e-07
5.10376e-07
5.0804e-07
5.05734e-07
5.0345e-07
5.01181e-07
4.98923e-07
4.96671e-07
4.94421e-07
4.92171e-07
4.89918e-07
4.8766e-07
4.85396e-07
4.83124e-07
4.80844e-07
4.78555e-07
4.76256e-07
4.73948e-07
4.7163e-07
4.69302e-07
4.66966e-07
4.6462e-07
4.62267e-07
4.59905e-07
4.57536e-07
4.55159e-07
4.52776e-07
4.50385e-07
4.47986e-07
4.45581e-07
4.43164e-07
4.40741e-07
4.38296e-07
4.35853e-07
4.33357e-07
4.30896e-07
4.28289e-07
4.25853e-07
4.22927e-07
4.20806e-07
4.16619e-07
4.16557e-07
4.06249e-07
5.5434e-07
5.52614e-07
5.49971e-07
5.46848e-07
5.43637e-07
5.40548e-07
5.37632e-07
5.34853e-07
5.32161e-07
5.29525e-07
5.26939e-07
5.2441e-07
5.21943e-07
5.19539e-07
5.17192e-07
5.14892e-07
5.12631e-07
5.104e-07
5.08195e-07
5.0601e-07
5.03842e-07
5.01686e-07
4.99539e-07
4.97397e-07
4.95259e-07
4.93121e-07
4.90982e-07
4.88839e-07
4.86691e-07
4.84537e-07
4.82377e-07
4.80208e-07
4.78031e-07
4.75845e-07
4.7365e-07
4.71445e-07
4.69233e-07
4.67009e-07
4.64779e-07
4.62537e-07
4.60292e-07
4.5803e-07
4.55771e-07
4.53491e-07
4.51221e-07
4.48919e-07
4.46642e-07
4.44316e-07
4.42042e-07
4.3969e-07
4.3744e-07
4.35063e-07
4.32892e-07
4.30512e-07
4.28554e-07
4.26236e-07
4.24823e-07
4.22649e-07
4.22384e-07
4.19929e-07
5.45582e-07
5.44833e-07
5.43422e-07
5.41474e-07
5.39195e-07
5.36782e-07
5.3436e-07
5.3198e-07
5.29644e-07
5.27342e-07
5.25062e-07
5.22806e-07
5.20578e-07
5.18383e-07
5.16224e-07
5.14098e-07
5.12002e-07
5.09931e-07
5.0788e-07
5.05845e-07
5.03824e-07
5.01814e-07
4.99812e-07
4.97816e-07
4.95824e-07
4.93833e-07
4.91843e-07
4.89851e-07
4.87857e-07
4.85859e-07
4.83856e-07
4.81848e-07
4.79835e-07
4.77815e-07
4.75789e-07
4.73755e-07
4.71717e-07
4.69669e-07
4.67617e-07
4.65555e-07
4.63491e-07
4.61413e-07
4.59338e-07
4.57246e-07
4.55162e-07
4.53056e-07
4.50966e-07
4.48846e-07
4.46757e-07
4.44627e-07
4.42552e-07
4.40415e-07
4.38374e-07
4.3624e-07
4.34266e-07
4.32148e-07
4.30291e-07
4.28196e-07
4.26493e-07
4.24322e-07
5.33824e-07
5.33393e-07
5.32609e-07
5.31522e-07
5.30203e-07
5.28722e-07
5.27136e-07
5.25484e-07
5.23788e-07
5.22059e-07
5.20302e-07
5.18524e-07
5.16731e-07
5.14929e-07
5.13123e-07
5.11316e-07
5.0951e-07
5.07705e-07
5.05901e-07
5.04097e-07
5.02294e-07
5.0049e-07
4.98685e-07
4.96879e-07
4.95071e-07
4.9326e-07
4.91447e-07
4.8963e-07
4.8781e-07
4.85985e-07
4.84157e-07
4.82324e-07
4.80486e-07
4.78644e-07
4.76798e-07
4.74946e-07
4.73091e-07
4.7123e-07
4.69366e-07
4.67496e-07
4.65623e-07
4.63743e-07
4.61861e-07
4.5997e-07
4.58076e-07
4.5617e-07
4.54261e-07
4.52335e-07
4.50407e-07
4.48455e-07
4.46502e-07
4.44518e-07
4.42537e-07
4.40517e-07
4.38504e-07
4.3644e-07
4.34389e-07
4.32267e-07
4.30161e-07
4.27971e-07
5.27088e-07
5.26876e-07
5.26447e-07
5.25806e-07
5.24968e-07
5.23962e-07
5.2282e-07
5.21573e-07
5.20245e-07
5.18855e-07
5.17414e-07
5.1593e-07
5.14412e-07
5.12867e-07
5.11299e-07
5.09714e-07
5.08115e-07
5.06506e-07
5.04888e-07
5.03263e-07
5.01632e-07
4.99996e-07
4.98355e-07
4.96709e-07
4.9506e-07
4.93408e-07
4.91753e-07
4.90095e-07
4.88434e-07
4.86771e-07
4.85106e-07
4.8344e-07
4.81771e-07
4.80102e-07
4.78431e-07
4.7676e-07
4.75088e-07
4.73416e-07
4.71744e-07
4.70071e-07
4.68398e-07
4.66725e-07
4.65052e-07
4.63378e-07
4.61703e-07
4.60026e-07
4.58347e-07
4.56663e-07
4.54972e-07
4.5327e-07
4.5155e-07
4.49806e-07
4.48025e-07
4.46198e-07
4.44308e-07
4.42356e-07
4.40328e-07
4.38231e-07
4.36066e-07
4.33925e-07
5.21523e-07
5.21362e-07
5.2104e-07
5.2056e-07
5.19932e-07
5.19173e-07
5.183e-07
5.17333e-07
5.16285e-07
5.15171e-07
5.13999e-07
5.12778e-07
5.11515e-07
5.10214e-07
5.08882e-07
5.07523e-07
5.06141e-07
5.0474e-07
5.03323e-07
5.01891e-07
5.00447e-07
4.98993e-07
4.9753e-07
4.96059e-07
4.94581e-07
4.93098e-07
4.9161e-07
4.90118e-07
4.88624e-07
4.87128e-07
4.8563e-07
4.84132e-07
4.82634e-07
4.81136e-07
4.7964e-07
4.78145e-07
4.76653e-07
4.75164e-07
4.73677e-07
4.72194e-07
4.70713e-07
4.69236e-07
4.6776e-07
4.66286e-07
4.64811e-07
4.63335e-07
4.61854e-07
4.60369e-07
4.58875e-07
4.57374e-07
4.55861e-07
4.5434e-07
4.52799e-07
4.51235e-07
4.49623e-07
4.47966e-07
4.46232e-07
4.44453e-07
4.42621e-07
4.40864e-07
5.17122e-07
5.17004e-07
5.16769e-07
5.16417e-07
5.15952e-07
5.15381e-07
5.14713e-07
5.13958e-07
5.13127e-07
5.12228e-07
5.11269e-07
5.10258e-07
5.092e-07
5.081e-07
5.06963e-07
5.05793e-07
5.04595e-07
5.03372e-07
5.02127e-07
5.00864e-07
4.99584e-07
4.9829e-07
4.96985e-07
4.95669e-07
4.94345e-07
4.93015e-07
4.91679e-07
4.9034e-07
4.88999e-07
4.87656e-07
4.86313e-07
4.84972e-07
4.83633e-07
4.82297e-07
4.80966e-07
4.79641e-07
4.78321e-07
4.77009e-07
4.75704e-07
4.74409e-07
4.73122e-07
4.71844e-07
4.70577e-07
4.6932e-07
4.68072e-07
4.66834e-07
4.65603e-07
4.64378e-07
4.63152e-07
4.61924e-07
4.60685e-07
4.59436e-07
4.58167e-07
4.56887e-07
4.5558e-07
4.54253e-07
4.5288e-07
4.51491e-07
4.5008e-07
4.48762e-07
5.13605e-07
5.13514e-07
5.13331e-07
5.13056e-07
5.1269e-07
5.12237e-07
5.11701e-07
5.1109e-07
5.1041e-07
5.09666e-07
5.08864e-07
5.0801e-07
5.07108e-07
5.06164e-07
5.05182e-07
5.04166e-07
5.0312e-07
5.02047e-07
5.00951e-07
4.99834e-07
4.987e-07
4.9755e-07
4.96387e-07
4.95213e-07
4.9403e-07
4.92841e-07
4.91647e-07
4.90449e-07
4.89251e-07
4.88052e-07
4.86855e-07
4.85662e-07
4.84474e-07
4.83292e-07
4.82118e-07
4.80953e-07
4.79799e-07
4.78657e-07
4.77527e-07
4.76411e-07
4.7531e-07
4.74225e-07
4.73156e-07
4.72104e-07
4.71068e-07
4.7005e-07
4.69049e-07
4.68067e-07
4.67102e-07
4.66153e-07
4.65212e-07
4.6428e-07
4.63348e-07
4.62421e-07
4.61488e-07
4.60559e-07
4.59619e-07
4.58697e-07
4.57793e-07
4.57014e-07
5.10768e-07
5.10694e-07
5.10544e-07
5.10319e-07
5.10019e-07
5.09646e-07
5.09203e-07
5.08694e-07
5.08123e-07
5.07495e-07
5.06814e-07
5.06084e-07
5.05309e-07
5.04493e-07
5.0364e-07
5.02754e-07
5.01837e-07
5.00893e-07
4.99926e-07
4.98937e-07
4.9793e-07
4.96907e-07
4.95871e-07
4.94824e-07
4.93768e-07
4.92706e-07
4.9164e-07
4.90572e-07
4.89503e-07
4.88437e-07
4.87374e-07
4.86317e-07
4.85268e-07
4.84229e-07
4.83201e-07
4.82186e-07
4.81187e-07
4.80205e-07
4.79242e-07
4.78299e-07
4.77379e-07
4.76483e-07
4.75612e-07
4.74768e-07
4.73952e-07
4.73165e-07
4.72407e-07
4.71677e-07
4.70974e-07
4.70305e-07
4.69666e-07
4.6906e-07
4.6848e-07
4.67933e-07
4.67408e-07
4.66919e-07
4.66454e-07
4.66039e-07
4.65679e-07
4.65463e-07
5.08485e-07
5.08422e-07
5.08296e-07
5.08106e-07
5.07852e-07
5.07536e-07
5.07159e-07
5.06724e-07
5.06236e-07
5.05695e-07
5.05107e-07
5.04473e-07
5.03798e-07
5.03084e-07
5.02334e-07
5.01553e-07
5.00742e-07
4.99904e-07
4.99044e-07
4.98162e-07
4.97262e-07
4.96347e-07
4.95419e-07
4.94481e-07
4.93534e-07
4.92583e-07
4.91627e-07
4.90672e-07
4.89717e-07
4.88767e-07
4.87822e-07
4.86886e-07
4.85961e-07
4.85049e-07
4.84152e-07
4.83273e-07
4.82414e-07
4.81577e-07
4.80765e-07
4.79981e-07
4.79226e-07
4.78503e-07
4.77814e-07
4.77163e-07
4.7655e-07
4.75977e-07
4.75446e-07
4.7496e-07
4.74522e-07
4.74136e-07
4.73801e-07
4.73522e-07
4.73296e-07
4.73131e-07
4.73021e-07
4.72978e-07
4.72998e-07
4.73105e-07
4.73306e-07
4.73677e-07
5.06669e-07
5.06614e-07
5.06505e-07
5.0634e-07
5.06119e-07
5.05844e-07
5.05515e-07
5.05135e-07
5.04707e-07
5.04232e-07
5.03713e-07
5.03153e-07
5.02554e-07
5.01919e-07
5.01251e-07
5.00552e-07
4.99825e-07
4.99073e-07
4.98298e-07
4.97504e-07
4.96692e-07
4.95865e-07
4.95027e-07
4.94179e-07
4.93324e-07
4.92464e-07
4.91603e-07
4.90742e-07
4.89885e-07
4.89033e-07
4.8819e-07
4.87358e-07
4.8654e-07
4.85737e-07
4.84955e-07
4.84194e-07
4.83458e-07
4.82749e-07
4.82072e-07
4.81428e-07
4.80822e-07
4.80255e-07
4.79731e-07
4.79253e-07
4.78823e-07
4.78447e-07
4.78129e-07
4.77873e-07
4.77682e-07
4.7756e-07
4.77511e-07
4.7754e-07
4.77649e-07
4.77847e-07
4.78134e-07
4.78521e-07
4.7901e-07
4.79623e-07
4.8037e-07
4.8131e-07
5.05258e-07
5.05209e-07
5.05112e-07
5.04964e-07
5.04767e-07
5.04521e-07
5.04227e-07
5.03887e-07
5.03502e-07
5.03075e-07
5.02608e-07
5.02102e-07
5.0156e-07
5.00985e-07
5.00378e-07
4.99742e-07
4.99079e-07
4.98393e-07
4.97685e-07
4.96958e-07
4.96215e-07
4.95459e-07
4.94691e-07
4.93915e-07
4.93132e-07
4.92347e-07
4.91561e-07
4.90777e-07
4.89998e-07
4.89226e-07
4.88466e-07
4.87718e-07
4.86987e-07
4.86275e-07
4.85586e-07
4.84922e-07
4.84288e-07
4.83686e-07
4.8312e-07
4.82594e-07
4.8211e-07
4.81672e-07
4.81286e-07
4.80955e-07
4.80686e-07
4.80482e-07
4.80347e-07
4.80289e-07
4.8031e-07
4.80419e-07
4.8062e-07
4.80921e-07
4.81327e-07
4.81847e-07
4.82488e-07
4.83261e-07
4.84174e-07
4.85245e-07
4.86489e-07
4.87949e-07
5.04208e-07
5.04163e-07
5.04074e-07
5.03939e-07
5.03758e-07
5.03532e-07
5.03262e-07
5.02949e-07
5.02594e-07
5.022e-07
5.01769e-07
5.01301e-07
5.008e-07
5.00266e-07
4.99703e-07
4.99112e-07
4.98496e-07
4.97857e-07
4.97198e-07
4.96521e-07
4.95828e-07
4.95122e-07
4.94406e-07
4.93683e-07
4.92954e-07
4.92223e-07
4.91493e-07
4.90766e-07
4.90045e-07
4.89333e-07
4.88634e-07
4.8795e-07
4.87284e-07
4.86641e-07
4.86022e-07
4.85432e-07
4.84874e-07
4.84352e-07
4.8387e-07
4.83432e-07
4.83043e-07
4.82707e-07
4.82429e-07
4.82215e-07
4.8207e-07
4.82e-07
4.82009e-07
4.82106e-07
4.82297e-07
4.82588e-07
4.82989e-07
4.83508e-07
4.84153e-07
4.84935e-07
4.85863e-07
4.86951e-07
4.88211e-07
4.89659e-07
4.91313e-07
4.93202e-07
5.0349e-07
5.03448e-07
5.03363e-07
5.03235e-07
5.03064e-07
5.02851e-07
5.02595e-07
5.02299e-07
5.01963e-07
5.0159e-07
5.01181e-07
5.00737e-07
5.0026e-07
4.99753e-07
4.99217e-07
4.98655e-07
4.98068e-07
4.97459e-07
4.9683e-07
4.96185e-07
4.95524e-07
4.94851e-07
4.94168e-07
4.93477e-07
4.92783e-07
4.92087e-07
4.91392e-07
4.90701e-07
4.90018e-07
4.89344e-07
4.88684e-07
4.88041e-07
4.87416e-07
4.86816e-07
4.86242e-07
4.85699e-07
4.8519e-07
4.84721e-07
4.84294e-07
4.83915e-07
4.83589e-07
4.8332e-07
4.83114e-07
4.82977e-07
4.82914e-07
4.82932e-07
4.83038e-07
4.83239e-07
4.83543e-07
4.83959e-07
4.84496e-07
4.85163e-07
4.85972e-07
4.86934e-07
4.88062e-07
4.89369e-07
4.90871e-07
4.92583e-07
4.94525e-07
4.96718e-07
5.03084e-07
5.03043e-07
5.02961e-07
5.02836e-07
5.0267e-07
5.02462e-07
5.02213e-07
5.01924e-07
5.01597e-07
5.01233e-07
5.00833e-07
5.004e-07
4.99934e-07
4.99439e-07
4.98915e-07
4.98365e-07
4.9779e-07
4.97195e-07
4.96579e-07
4.95946e-07
4.95299e-07
4.9464e-07
4.93971e-07
4.93295e-07
4.92615e-07
4.91934e-07
4.91254e-07
4.90578e-07
4.8991e-07
4.89252e-07
4.88607e-07
4.8798e-07
4.87373e-07
4.86791e-07
4.86236e-07
4.85712e-07
4.85225e-07
4.84777e-07
4.84374e-07
4.8402e-07
4.83721e-07
4.8348e-07
4.83305e-07
4.832e-07
4.83173e-07
4.83231e-07
4.83379e-07
4.83627e-07
4.83982e-07
4.84454e-07
4.85053e-07
4.85789e-07
4.86674e-07
4.87719e-07
4.88941e-07
4.90352e-07
4.91971e-07
4.93811e-07
4.95894e-07
4.98233e-07
5.02984e-07
5.02943e-07
5.0286e-07
5.02735e-07
5.02567e-07
5.02358e-07
5.02108e-07
5.01818e-07
5.01489e-07
5.01123e-07
5.00721e-07
5.00286e-07
4.99818e-07
4.9932e-07
4.98793e-07
4.98239e-07
4.97662e-07
4.97062e-07
4.96443e-07
4.95806e-07
4.95155e-07
4.94491e-07
4.93817e-07
4.93136e-07
4.9245e-07
4.91763e-07
4.91077e-07
4.90395e-07
4.8972e-07
4.89055e-07
4.88403e-07
4.87769e-07
4.87154e-07
4.86563e-07
4.86e-07
4.85468e-07
4.84971e-07
4.84514e-07
4.84101e-07
4.83736e-07
4.83426e-07
4.83174e-07
4.82987e-07
4.8287e-07
4.8283e-07
4.82874e-07
4.83009e-07
4.83242e-07
4.83582e-07
4.84038e-07
4.8462e-07
4.85338e-07
4.86203e-07
4.87229e-07
4.8843e-07
4.8982e-07
4.91418e-07
4.93239e-07
4.95304e-07
4.97629e-07
5.03189e-07
5.03146e-07
5.03061e-07
5.02931e-07
5.02758e-07
5.02541e-07
5.02282e-07
5.01982e-07
5.01641e-07
5.01263e-07
5.00847e-07
5.00397e-07
4.99913e-07
4.99398e-07
4.98853e-07
4.98281e-07
4.97684e-07
4.97064e-07
4.96424e-07
4.95765e-07
4.95091e-07
4.94404e-07
4.93707e-07
4.93001e-07
4.9229e-07
4.91577e-07
4.90864e-07
4.90155e-07
4.89451e-07
4.88757e-07
4.88075e-07
4.87408e-07
4.86761e-07
4.86136e-07
4.85537e-07
4.84967e-07
4.84431e-07
4.83933e-07
4.83477e-07
4.83067e-07
4.82708e-07
4.82405e-07
4.82164e-07
4.8199e-07
4.81889e-07
4.81867e-07
4.81932e-07
4.82089e-07
4.82348e-07
4.82716e-07
4.83202e-07
4.83816e-07
4.84568e-07
4.85466e-07
4.86528e-07
4.87765e-07
4.89195e-07
4.90829e-07
4.92691e-07
4.94798e-07
5.03712e-07
5.03666e-07
5.03575e-07
5.03437e-07
5.03252e-07
5.03021e-07
5.02745e-07
5.02425e-07
5.02063e-07
5.0166e-07
5.01218e-07
5.0074e-07
5.00226e-07
4.99679e-07
4.99101e-07
4.98495e-07
4.97862e-07
4.97205e-07
4.96526e-07
4.95829e-07
4.95114e-07
4.94386e-07
4.93646e-07
4.92897e-07
4.92141e-07
4.91382e-07
4.90622e-07
4.89864e-07
4.8911e-07
4.88364e-07
4.87629e-07
4.86908e-07
4.86203e-07
4.85518e-07
4.84857e-07
4.84222e-07
4.83619e-07
4.83049e-07
4.82518e-07
4.82029e-07
4.81586e-07
4.81195e-07
4.80859e-07
4.80585e-07
4.80376e-07
4.80239e-07
4.8018e-07
4.80204e-07
4.80318e-07
4.80529e-07
4.80844e-07
4.8127e-07
4.81819e-07
4.82506e-07
4.83335e-07
4.84317e-07
4.85468e-07
4.86801e-07
4.8834e-07
4.9011e-07
5.04573e-07
5.04523e-07
5.04423e-07
5.04271e-07
5.04069e-07
5.03816e-07
5.03514e-07
5.03164e-07
5.02769e-07
5.02329e-07
5.01848e-07
5.01327e-07
5.00768e-07
5.00174e-07
4.99547e-07
4.9889e-07
4.98204e-07
4.97493e-07
4.96759e-07
4.96004e-07
4.95231e-07
4.94443e-07
4.93642e-07
4.9283e-07
4.92011e-07
4.91186e-07
4.90359e-07
4.89532e-07
4.88708e-07
4.8789e-07
4.87079e-07
4.8628e-07
4.85495e-07
4.84727e-07
4.83979e-07
4.83254e-07
4.82556e-07
4.81887e-07
4.81251e-07
4.80652e-07
4.80094e-07
4.79579e-07
4.79113e-07
4.787e-07
4.78343e-07
4.78047e-07
4.77818e-07
4.77659e-07
4.77577e-07
4.77577e-07
4.77665e-07
4.77842e-07
4.78122e-07
4.78513e-07
4.79019e-07
4.79651e-07
4.80418e-07
4.81334e-07
4.8242e-07
4.83716e-07
5.05804e-07
5.05748e-07
5.05636e-07
5.05466e-07
5.05238e-07
5.04954e-07
5.04616e-07
5.04224e-07
5.03782e-07
5.03291e-07
5.02755e-07
5.02176e-07
5.01556e-07
5.00898e-07
5.00204e-07
4.99478e-07
4.98722e-07
4.97939e-07
4.97131e-07
4.96301e-07
4.95451e-07
4.94585e-07
4.93704e-07
4.92812e-07
4.9191e-07
4.91001e-07
4.90088e-07
4.89173e-07
4.88259e-07
4.87348e-07
4.86442e-07
4.85545e-07
4.84658e-07
4.83785e-07
4.82928e-07
4.8209e-07
4.81273e-07
4.8048e-07
4.79715e-07
4.78979e-07
4.78277e-07
4.77611e-07
4.76984e-07
4.76399e-07
4.7586e-07
4.7537e-07
4.74933e-07
4.74551e-07
4.74229e-07
4.73969e-07
4.73773e-07
4.73658e-07
4.73616e-07
4.73653e-07
4.73774e-07
4.73986e-07
4.74295e-07
4.74715e-07
4.75267e-07
4.76005e-07
5.07453e-07
5.07389e-07
5.07259e-07
5.07063e-07
5.06801e-07
5.06475e-07
5.06086e-07
5.05637e-07
5.05132e-07
5.04573e-07
5.03964e-07
5.03308e-07
5.02607e-07
5.01866e-07
5.01086e-07
5.00273e-07
4.99427e-07
4.98552e-07
4.97652e-07
4.96728e-07
4.95783e-07
4.94821e-07
4.93843e-07
4.92851e-07
4.91849e-07
4.90838e-07
4.89821e-07
4.88801e-07
4.87778e-07
4.86756e-07
4.85737e-07
4.84724e-07
4.83717e-07
4.8272e-07
4.81734e-07
4.80762e-07
4.79807e-07
4.7887e-07
4.77953e-07
4.77059e-07
4.76191e-07
4.75349e-07
4.74537e-07
4.73757e-07
4.73011e-07
4.723e-07
4.71628e-07
4.70995e-07
4.70404e-07
4.69859e-07
4.6936e-07
4.68907e-07
4.68501e-07
4.68145e-07
4.67839e-07
4.6759e-07
4.67398e-07
4.67279e-07
4.67253e-07
4.67389e-07
5.09584e-07
5.09507e-07
5.09354e-07
5.09122e-07
5.08812e-07
5.08428e-07
5.07971e-07
5.07446e-07
5.06857e-07
5.06208e-07
5.05503e-07
5.04747e-07
5.03944e-07
5.03097e-07
5.0221e-07
5.01286e-07
5.0033e-07
4.99344e-07
4.98331e-07
4.97294e-07
4.96235e-07
4.95158e-07
4.94064e-07
4.92956e-07
4.91836e-07
4.90707e-07
4.89569e-07
4.88426e-07
4.8728e-07
4.86131e-07
4.84982e-07
4.83836e-07
4.82693e-07
4.81556e-07
4.80425e-07
4.79304e-07
4.78194e-07
4.77096e-07
4.76012e-07
4.74944e-07
4.73892e-07
4.7286e-07
4.71846e-07
4.70855e-07
4.69885e-07
4.68938e-07
4.68015e-07
4.67118e-07
4.66245e-07
4.65398e-07
4.64575e-07
4.63775e-07
4.62991e-07
4.6223e-07
4.61485e-07
4.60763e-07
4.60058e-07
4.59389e-07
4.58773e-07
4.58294e-07
5.12284e-07
5.12191e-07
5.12003e-07
5.11721e-07
5.11344e-07
5.10879e-07
5.10328e-07
5.09699e-07
5.08998e-07
5.08231e-07
5.07404e-07
5.06521e-07
5.05588e-07
5.04609e-07
5.0359e-07
5.02534e-07
5.01444e-07
5.00324e-07
4.99178e-07
4.98008e-07
4.96816e-07
4.95606e-07
4.94379e-07
4.93137e-07
4.91883e-07
4.90619e-07
4.89345e-07
4.88064e-07
4.86778e-07
4.85488e-07
4.84195e-07
4.82901e-07
4.81608e-07
4.80317e-07
4.79028e-07
4.77744e-07
4.76465e-07
4.75194e-07
4.73929e-07
4.72674e-07
4.71427e-07
4.70192e-07
4.68966e-07
4.67752e-07
4.66549e-07
4.65357e-07
4.64174e-07
4.63001e-07
4.61835e-07
4.60676e-07
4.59519e-07
4.58367e-07
4.57216e-07
4.56064e-07
4.54896e-07
4.53717e-07
4.52518e-07
4.5132e-07
4.50138e-07
4.49074e-07
5.15682e-07
5.15562e-07
5.15322e-07
5.14962e-07
5.14486e-07
5.13902e-07
5.13218e-07
5.12444e-07
5.11591e-07
5.10667e-07
5.0968e-07
5.08638e-07
5.07545e-07
5.06408e-07
5.05231e-07
5.04017e-07
5.02772e-07
5.01498e-07
5.002e-07
4.98878e-07
4.97537e-07
4.96178e-07
4.94802e-07
4.93413e-07
4.92012e-07
4.90599e-07
4.89177e-07
4.87746e-07
4.86309e-07
4.84866e-07
4.83418e-07
4.81966e-07
4.80512e-07
4.79056e-07
4.77599e-07
4.76143e-07
4.74687e-07
4.73232e-07
4.7178e-07
4.7033e-07
4.68882e-07
4.67438e-07
4.65997e-07
4.64558e-07
4.63121e-07
4.61687e-07
4.60251e-07
4.58816e-07
4.57377e-07
4.55934e-07
4.54481e-07
4.53016e-07
4.51525e-07
4.50004e-07
4.48435e-07
4.46829e-07
4.45172e-07
4.4349e-07
4.41788e-07
4.40171e-07
5.19983e-07
5.1982e-07
5.19492e-07
5.19004e-07
5.18366e-07
5.17593e-07
5.16704e-07
5.15717e-07
5.14647e-07
5.13507e-07
5.12307e-07
5.11054e-07
5.09756e-07
5.08417e-07
5.07043e-07
5.05638e-07
5.04208e-07
5.02754e-07
5.01279e-07
4.99787e-07
4.98278e-07
4.96754e-07
4.95217e-07
4.93668e-07
4.92107e-07
4.90536e-07
4.88956e-07
4.87367e-07
4.8577e-07
4.84166e-07
4.82555e-07
4.80939e-07
4.79316e-07
4.77689e-07
4.76057e-07
4.74422e-07
4.72783e-07
4.7114e-07
4.69495e-07
4.67846e-07
4.66195e-07
4.6454e-07
4.62881e-07
4.61218e-07
4.59549e-07
4.57873e-07
4.56187e-07
4.5449e-07
4.52775e-07
4.51043e-07
4.49283e-07
4.47497e-07
4.45674e-07
4.4382e-07
4.4192e-07
4.3998e-07
4.37973e-07
4.35914e-07
4.33799e-07
4.3174e-07
5.25468e-07
5.25253e-07
5.24819e-07
5.24169e-07
5.2332e-07
5.22299e-07
5.21141e-07
5.19874e-07
5.18524e-07
5.17108e-07
5.15637e-07
5.14122e-07
5.12568e-07
5.10983e-07
5.09373e-07
5.07741e-07
5.06092e-07
5.04429e-07
5.02753e-07
5.01065e-07
4.99366e-07
4.97658e-07
4.9594e-07
4.94213e-07
4.92478e-07
4.90733e-07
4.88981e-07
4.8722e-07
4.85451e-07
4.83673e-07
4.81888e-07
4.80095e-07
4.78294e-07
4.76486e-07
4.74671e-07
4.72849e-07
4.71019e-07
4.69183e-07
4.6734e-07
4.6549e-07
4.63633e-07
4.61768e-07
4.59897e-07
4.58016e-07
4.56127e-07
4.54228e-07
4.52317e-07
4.50394e-07
4.48456e-07
4.465e-07
4.44523e-07
4.42519e-07
4.40482e-07
4.384e-07
4.36259e-07
4.34045e-07
4.31739e-07
4.29341e-07
4.2686e-07
4.24375e-07
5.32141e-07
5.31707e-07
5.30918e-07
5.29825e-07
5.28495e-07
5.27001e-07
5.25399e-07
5.23729e-07
5.22012e-07
5.20258e-07
5.18473e-07
5.16664e-07
5.14837e-07
5.12997e-07
5.1115e-07
5.09297e-07
5.07442e-07
5.05583e-07
5.03721e-07
5.01855e-07
4.99984e-07
4.98108e-07
4.96225e-07
4.94336e-07
4.9244e-07
4.90535e-07
4.88621e-07
4.86698e-07
4.84765e-07
4.82822e-07
4.80868e-07
4.78902e-07
4.76927e-07
4.74939e-07
4.72941e-07
4.70931e-07
4.6891e-07
4.66877e-07
4.64834e-07
4.62778e-07
4.60713e-07
4.58633e-07
4.56545e-07
4.54441e-07
4.52328e-07
4.50197e-07
4.48057e-07
4.45894e-07
4.43724e-07
4.41524e-07
4.39316e-07
4.37068e-07
4.34814e-07
4.32507e-07
4.30198e-07
4.27818e-07
4.25445e-07
4.22981e-07
4.20545e-07
4.18039e-07
5.43859e-07
5.43108e-07
5.41692e-07
5.39737e-07
5.37448e-07
5.35022e-07
5.32585e-07
5.30187e-07
5.27832e-07
5.25507e-07
5.23202e-07
5.20916e-07
5.18656e-07
5.16426e-07
5.14228e-07
5.1206e-07
5.09917e-07
5.07794e-07
5.05687e-07
5.03591e-07
5.01504e-07
4.99422e-07
4.97343e-07
4.95264e-07
4.93183e-07
4.91096e-07
4.89004e-07
4.86903e-07
4.84793e-07
4.82671e-07
4.80539e-07
4.78393e-07
4.76235e-07
4.74063e-07
4.71878e-07
4.69677e-07
4.67464e-07
4.65235e-07
4.62994e-07
4.60735e-07
4.58468e-07
4.56179e-07
4.53885e-07
4.51568e-07
4.49249e-07
4.46901e-07
4.44561e-07
4.42184e-07
4.39829e-07
4.37424e-07
4.35068e-07
4.32643e-07
4.30309e-07
4.27878e-07
4.25608e-07
4.23191e-07
4.21043e-07
4.18647e-07
4.16663e-07
4.14188e-07
5.52589e-07
5.50861e-07
5.48214e-07
5.45086e-07
5.41867e-07
5.38768e-07
5.3584e-07
5.33047e-07
5.30338e-07
5.27684e-07
5.25076e-07
5.22523e-07
5.20029e-07
5.17595e-07
5.15214e-07
5.12876e-07
5.10573e-07
5.08296e-07
5.06039e-07
5.03797e-07
5.01566e-07
4.99342e-07
4.9712e-07
4.94897e-07
4.9267e-07
4.90437e-07
4.88194e-07
4.8594e-07
4.83674e-07
4.81393e-07
4.79098e-07
4.76786e-07
4.74459e-07
4.72114e-07
4.69754e-07
4.67375e-07
4.64981e-07
4.62569e-07
4.60143e-07
4.57698e-07
4.55243e-07
4.52765e-07
4.50281e-07
4.4777e-07
4.45261e-07
4.42715e-07
4.40184e-07
4.37599e-07
4.35054e-07
4.32427e-07
4.29889e-07
4.27221e-07
4.24743e-07
4.22054e-07
4.19775e-07
4.17141e-07
4.154e-07
4.12893e-07
4.12303e-07
4.09517e-07
6.00629e-07
5.86506e-07
5.72737e-07
5.62158e-07
5.54733e-07
5.49338e-07
5.44883e-07
5.40799e-07
5.36919e-07
5.33248e-07
5.29825e-07
5.26652e-07
5.23697e-07
5.20909e-07
5.18242e-07
5.15662e-07
5.13148e-07
5.10686e-07
5.08264e-07
5.05876e-07
5.0351e-07
5.0116e-07
4.98819e-07
4.96482e-07
4.94142e-07
4.91797e-07
4.89444e-07
4.87079e-07
4.84701e-07
4.82308e-07
4.79899e-07
4.77473e-07
4.7503e-07
4.72568e-07
4.70089e-07
4.67591e-07
4.65077e-07
4.62545e-07
4.59997e-07
4.57433e-07
4.54853e-07
4.52259e-07
4.4965e-07
4.47026e-07
4.44388e-07
4.41735e-07
4.39066e-07
4.36378e-07
4.33675e-07
4.30942e-07
4.28198e-07
4.25396e-07
4.22609e-07
4.19678e-07
4.16886e-07
4.13622e-07
4.11103e-07
4.06566e-07
4.06109e-07
3.95298e-07
4.46675e-07
3.96439e-07
3.76022e-07
3.59272e-07
3.42632e-07
3.25997e-07
3.07381e-07
2.8748e-07
2.64195e-07
2.39036e-07
2.09826e-07
1.79074e-07
1.44371e-07
1.09305e-07
7.10805e-08
3.43572e-08
-4.56362e-09
-3.99384e-08
-7.67128e-08
-1.08304e-07
-1.4055e-07
-1.66286e-07
-1.93034e-07
-2.11769e-07
-2.32532e-07
-2.43037e-07
-2.60366e-07
-2.60339e-07
-2.78892e-07
-3.47885e-07
4.32891e-07
3.78243e-07
3.64882e-07
3.50821e-07
3.34916e-07
3.18675e-07
3.00334e-07
2.80553e-07
2.5743e-07
2.32598e-07
2.03982e-07
1.74048e-07
1.4047e-07
1.06678e-07
6.99196e-08
3.4629e-08
-2.58243e-09
-3.65851e-08
-7.17035e-08
-1.02188e-07
-1.33899e-07
-1.58647e-07
-1.85948e-07
-2.042e-07
-2.26391e-07
-2.36555e-07
-2.53881e-07
-2.60418e-07
-2.60043e-07
-3.85283e-07
4.20817e-07
3.76029e-07
3.63692e-07
3.50114e-07
3.33673e-07
3.16444e-07
2.97571e-07
2.77457e-07
2.54258e-07
2.2931e-07
2.00883e-07
1.71069e-07
1.37976e-07
1.04574e-07
6.85815e-08
3.3924e-08
-2.56043e-09
-3.60803e-08
-7.09912e-08
-1.00859e-07
-1.32229e-07
-1.57278e-07
-1.83504e-07
-2.02645e-07
-2.23601e-07
-2.37739e-07
-2.51594e-07
-2.7005e-07
-2.49643e-07
-3.45212e-07
4.10789e-07
3.7219e-07
3.57751e-07
3.44753e-07
3.29034e-07
3.12377e-07
2.93637e-07
2.73347e-07
2.50144e-07
2.25051e-07
1.96862e-07
1.67109e-07
1.34629e-07
1.01527e-07
6.65115e-08
3.22235e-08
-3.06206e-09
-3.62012e-08
-6.95043e-08
-9.95999e-08
-1.29428e-07
-1.55468e-07
-1.80448e-07
-2.01985e-07
-2.20821e-07
-2.39875e-07
-2.47672e-07
-2.7629e-07
-2.48945e-07
-3.19739e-07
4.01114e-07
3.69838e-07
3.54561e-07
3.42689e-07
3.27469e-07
3.1003e-07
2.90732e-07
2.69876e-07
2.46567e-07
2.21083e-07
1.93047e-07
1.63065e-07
1.31129e-07
9.80053e-08
6.39526e-08
2.97409e-08
-4.22702e-09
-3.74212e-08
-6.92732e-08
-1.00033e-07
-1.28266e-07
-1.55764e-07
-1.78708e-07
-2.03386e-07
-2.1884e-07
-2.42944e-07
-2.45692e-07
-2.76274e-07
-2.56011e-07
-2.93896e-07
3.92668e-07
3.68338e-07
3.52267e-07
3.3989e-07
3.24907e-07
3.07359e-07
2.87835e-07
2.66473e-07
2.42983e-07
2.17058e-07
1.89066e-07
1.58773e-07
1.27249e-07
9.39989e-08
6.07954e-08
2.65512e-08
-6.17133e-09
-3.95607e-08
-6.99139e-08
-1.01271e-07
-1.27758e-07
-1.56646e-07
-1.77779e-07
-2.04552e-07
-2.18328e-07
-2.44047e-07
-2.47405e-07
-2.73158e-07
-2.67427e-07
-2.85329e-07
3.85795e-07
3.67028e-07
3.5092e-07
3.37608e-07
3.22693e-07
3.05064e-07
2.85265e-07
2.63297e-07
2.39456e-07
2.1302e-07
1.8491e-07
1.54269e-07
1.2297e-07
8.9599e-08
5.70264e-08
2.28327e-08
-8.91001e-09
-4.22605e-08
-7.14556e-08
-1.02951e-07
-1.28367e-07
-1.57691e-07
-1.78262e-07
-2.05322e-07
-2.19892e-07
-2.44302e-07
-2.52269e-07
-2.72109e-07
-2.76959e-07
-2.87062e-07
3.80737e-07
3.658e-07
3.50216e-07
3.35896e-07
3.20699e-07
3.02881e-07
2.82748e-07
2.60173e-07
2.35834e-07
2.08874e-07
1.80482e-07
1.49533e-07
1.18246e-07
8.48532e-08
5.26366e-08
1.86988e-08
-1.24369e-08
-4.53522e-08
-7.39246e-08
-1.04916e-07
-1.30085e-07
-1.58788e-07
-1.80063e-07
-2.06007e-07
-2.23102e-07
-2.45075e-07
-2.58122e-07
-2.73949e-07
-2.8407e-07
-2.93143e-07
3.77559e-07
3.64634e-07
3.49733e-07
3.34717e-07
3.18931e-07
3.00735e-07
2.80179e-07
2.57017e-07
2.32065e-07
2.04576e-07
1.75751e-07
1.44539e-07
1.13077e-07
7.97682e-08
4.76628e-08
1.41792e-08
-1.66756e-08
-4.88258e-08
-7.72072e-08
-1.07216e-07
-1.32653e-07
-1.60162e-07
-1.8259e-07
-2.07092e-07
-2.2651e-07
-2.46975e-07
-2.63161e-07
-2.7834e-07
-2.90748e-07
-3.01193e-07
3.75988e-07
3.636e-07
3.49284e-07
3.33871e-07
3.17341e-07
2.98566e-07
2.77462e-07
2.53715e-07
2.28082e-07
2.0005e-07
1.70683e-07
1.39227e-07
1.07471e-07
7.43051e-08
4.21664e-08
9.2417e-09
-2.14979e-08
-5.27399e-08
-8.10827e-08
-1.09963e-07
-1.35705e-07
-1.62016e-07
-1.85315e-07
-2.08805e-07
-2.29663e-07
-2.49763e-07
-2.67608e-07
-2.83561e-07
-2.97537e-07
-3.09757e-07
3.75522e-07
3.62861e-07
3.48766e-07
3.33067e-07
3.15787e-07
2.96294e-07
2.74514e-07
2.50154e-07
2.23803e-07
1.95208e-07
1.65243e-07
1.33526e-07
1.0143e-07
6.84062e-08
3.61995e-08
3.83398e-09
-2.6792e-08
-5.71538e-08
-8.53717e-08
-1.13227e-07
-1.39014e-07
-1.64397e-07
-1.88037e-07
-2.11015e-07
-2.32529e-07
-2.52859e-07
-2.71703e-07
-2.88844e-07
-3.04375e-07
-3.18493e-07
3.75582e-07
3.62455e-07
3.48173e-07
3.32094e-07
3.14081e-07
2.93808e-07
2.71259e-07
2.46233e-07
2.19144e-07
1.89958e-07
1.59372e-07
1.27357e-07
9.49237e-08
6.20042e-08
2.97634e-08
-2.10033e-09
-3.25276e-08
-6.21057e-08
-9.00257e-08
-1.17012e-07
-1.42548e-07
-1.67223e-07
-1.90786e-07
-2.13486e-07
-2.35232e-07
-2.55946e-07
-2.75545e-07
-2.93891e-07
-3.10942e-07
-3.27076e-07
3.75752e-07
3.62217e-07
3.47468e-07
3.30831e-07
3.12066e-07
2.90988e-07
2.67616e-07
2.41863e-07
2.1401e-07
1.84197e-07
1.52983e-07
1.20629e-07
8.78734e-08
5.50149e-08
2.2792e-08
-8.63167e-09
-3.87627e-08
-6.76388e-08
-9.51068e-08
-1.21315e-07
-1.46391e-07
-1.70427e-07
-1.93686e-07
-2.16102e-07
-2.37902e-07
-2.58883e-07
-2.79149e-07
-2.98484e-07
-3.17037e-07
-3.34959e-07
3.75783e-07
3.61929e-07
3.46566e-07
3.29216e-07
3.09648e-07
2.8774e-07
2.63503e-07
2.36952e-07
2.08293e-07
1.77807e-07
1.45953e-07
1.13218e-07
8.01531e-08
4.73183e-08
1.51564e-08
-1.58659e-08
-4.5624e-08
-7.38348e-08
-1.00742e-07
-1.26186e-07
-1.5067e-07
-1.74031e-07
-1.96848e-07
-2.18869e-07
-2.40597e-07
-2.61662e-07
-2.82456e-07
-3.02554e-07
-3.22425e-07
-3.41914e-07
3.75593e-07
3.61396e-07
3.45372e-07
3.27229e-07
3.06793e-07
2.83997e-07
2.5883e-07
2.31397e-07
2.01866e-07
1.70644e-07
1.38123e-07
1.04963e-07
7.15906e-08
3.87492e-08
6.68179e-09
-2.39542e-08
-5.32789e-08
-8.08188e-08
-1.07083e-07
-1.31724e-07
-1.55516e-07
-1.78107e-07
-2.00366e-07
-2.21835e-07
-2.43349e-07
-2.64286e-07
-2.85431e-07
-3.06023e-07
-3.26971e-07
-3.47647e-07
3.75246e-07
3.60574e-07
3.43868e-07
3.24886e-07
3.03498e-07
2.79705e-07
2.53497e-07
2.25063e-07
1.94569e-07
1.62525e-07
1.29295e-07
9.5659e-08
6.19758e-08
2.91033e-08
-2.83315e-09
-3.30802e-08
-6.19047e-08
-8.87446e-08
-1.14276e-07
-1.38053e-07
-1.61035e-07
-1.82757e-07
-2.043e-07
-2.25067e-07
-2.46159e-07
-2.66769e-07
-2.88002e-07
-3.08832e-07
-3.3052e-07
-3.52013e-07
3.74919e-07
3.59547e-07
3.42095e-07
3.22202e-07
2.99735e-07
2.74773e-07
2.4736e-07
2.17769e-07
1.86195e-07
1.53226e-07
1.19232e-07
8.50654e-08
5.10728e-08
1.81573e-08
-1.3599e-08
-4.34332e-08
-7.16735e-08
-9.77647e-08
-1.22453e-07
-1.45296e-07
-1.67324e-07
-1.88071e-07
-2.08704e-07
-2.2862e-07
-2.49029e-07
-2.69112e-07
-2.90098e-07
-3.1092e-07
-3.32937e-07
-3.54932e-07
3.74861e-07
3.58479e-07
3.40092e-07
3.19115e-07
2.9537e-07
2.69018e-07
2.40195e-07
2.09263e-07
1.76475e-07
1.42469e-07
1.07655e-07
7.29147e-08
3.86259e-08
5.67925e-09
-2.58307e-08
-5.52004e-08
-8.27567e-08
-1.08025e-07
-1.31749e-07
-1.53564e-07
-1.7449e-07
-1.94137e-07
-2.13663e-07
-2.3255e-07
-2.52007e-07
-2.71319e-07
-2.91709e-07
-3.12218e-07
-3.34153e-07
-3.56302e-07
3.75186e-07
3.57485e-07
3.37802e-07
3.15418e-07
2.90118e-07
2.62123e-07
2.31671e-07
1.9921e-07
1.65069e-07
1.2992e-07
9.42383e-08
5.89022e-08
2.43468e-08
-8.58864e-09
-3.97707e-08
-6.85955e-08
-9.53583e-08
-1.19704e-07
-1.42337e-07
-1.63009e-07
-1.82687e-07
-2.01084e-07
-2.19312e-07
-2.36961e-07
-2.55203e-07
-2.73449e-07
-2.9288e-07
-3.12701e-07
-3.34094e-07
-3.55991e-07
3.75601e-07
3.56299e-07
3.34868e-07
3.10663e-07
2.83494e-07
2.53606e-07
2.21319e-07
1.8715e-07
1.51524e-07
1.15143e-07
7.856e-08
4.26351e-08
7.86188e-09
-2.49899e-08
-5.57481e-08
-8.39225e-08
-1.09774e-07
-1.33076e-07
-1.54486e-07
-1.73872e-07
-1.92152e-07
-2.09122e-07
-2.25867e-07
-2.42026e-07
-2.58802e-07
-2.75618e-07
-2.9374e-07
-3.12361e-07
-3.32737e-07
-3.53751e-07
3.75343e-07
3.54186e-07
3.3065e-07
3.04253e-07
2.74894e-07
2.42848e-07
2.08513e-07
1.72461e-07
1.35225e-07
9.75399e-08
6.0038e-08
2.3558e-08
-1.13579e-08
-4.40208e-08
-7.42333e-08
-1.01627e-07
-1.26433e-07
-1.48552e-07
-1.68585e-07
-1.86521e-07
-2.03216e-07