/*--------------------------------*- C++ -*----------------------------------*\
| =========                 |                                                 |
| \\      /  F ield         | OpenFOAM: The Open Source CFD Toolbox           |
|  \\    /   O peration     | Version:  2312                                  |
|   \\  /    A nd           | Website:  www.openfoam.com                      |
|    \\/     M anipulation  |                                                 |
\*---------------------------------------------------------------------------*/
FoamFile
{
    version     2.0;
    format      ascii;
    arch        "LSB;label=32;scalar=64";
    class       surfaceScalarField;
    location    "163000";
    object      phi;
}
// * * * * * * * * * * * * * * * * * * * * * * * * * * * * * * * * * * * * * //

dimensions      [0 3 -1 0 0 0 0];

oriented        oriented;

internalField   nonuniform List<scalar> 
21240
(
0.000664974
1.6926e-06
0.000661071
3.903e-06
0.00065575
5.3213e-06
0.000649514
6.23626e-06
0.00064264
6.87399e-06
0.00063527
7.36917e-06
0.000627498
7.77227e-06
0.000619402
8.09636e-06
0.000611054
8.34745e-06
0.00060252
8.53452e-06
0.00059385
8.6699e-06
0.000585084
8.7659e-06
0.000576252
8.83216e-06
0.000567377
8.87505e-06
0.000558478
8.8984e-06
0.000549574
8.90471e-06
0.000540678
8.89585e-06
0.000531804
8.87342e-06
0.000522966
8.83881e-06
0.000514172
8.79313e-06
0.000505435
8.73726e-06
0.000496763
8.67183e-06
0.000488166
8.59733e-06
0.000479652
8.51409e-06
0.000471229
8.42241e-06
0.000462907
8.32245e-06
0.000454693
8.21439e-06
0.000446594
8.09829e-06
0.00043862
7.97432e-06
0.000430778
7.84235e-06
0.000423075
7.70265e-06
0.00041552
7.55487e-06
0.000408121
7.39955e-06
0.000400885
7.2359e-06
0.00039382
7.06505e-06
0.000386934
6.88539e-06
0.000380235
6.69917e-06
0.000373732
6.5033e-06
0.00036743
6.3021e-06
0.00036134
6.08969e-06
0.000355466
5.87424e-06
0.000349821
5.6447e-06
0.000344405
5.41627e-06
0.000339236
5.1684e-06
0.000334307
4.92908e-06
0.000329647
4.66041e-06
0.000325233
4.41359e-06
0.000321114
4.11887e-06
0.000317244
3.87018e-06
0.000313706
3.53799e-06
0.000310408
3.29783e-06
0.000307507
2.90181e-06
0.000304813
2.69386e-06
0.000302647
2.16618e-06
0.000300592
2.05493e-06
0.000299411
1.18069e-06
0.000297988
1.42342e-06
0.000298253
-2.6525e-07
0.000297134
1.11882e-06
-3.20373e-06
0.000300338
0.000667556
8.0364e-07
0.000669119
2.33925e-06
0.000670852
3.58875e-06
0.000672522
4.56592e-06
0.000674051
5.34516e-06
0.000675425
5.99527e-06
0.000676639
6.55789e-06
0.000677684
7.05144e-06
0.000678549
7.48298e-06
0.000679226
7.85698e-06
0.000679717
8.17908e-06
0.000680027
8.45625e-06
0.000680163
8.69553e-06
0.000680136
8.90283e-06
0.000679952
9.08251e-06
0.000679619
9.23754e-06
0.000679144
9.37015e-06
0.000678536
9.48195e-06
0.0006778
9.57448e-06
0.000676945
9.64885e-06
0.000675975
9.70626e-06
0.0006749
9.74734e-06
0.000673724
9.773e-06
0.000672455
9.78335e-06
0.000671098
9.77924e-06
0.00066966
9.76031e-06
0.000668147
9.72755e-06
0.000666565
9.68005e-06
0.000664921
9.61921e-06
0.00066322
9.54332e-06
0.000661468
9.45461e-06
0.000659672
9.35014e-06
0.000657838
9.23358e-06
0.000655974
9.10002e-06
0.000654084
8.95556e-06
0.000652177
8.79213e-06
0.000650256
8.61986e-06
0.000648334
8.42551e-06
0.00064641
8.22581e-06
0.000644501
7.99906e-06
0.000642602
7.7729e-06
0.000640735
7.51168e-06
0.000638891
7.26091e-06
0.000637097
6.96211e-06
0.000635336
6.6901e-06
0.000633647
6.34887e-06
0.000632
6.06131e-06
0.000630449
5.66991e-06
0.000628943
5.3763e-06
0.000627558
4.92239e-06
0.000626218
4.63837e-06
0.000625017
4.10265e-06
0.000623857
3.85336e-06
0.000622816
3.2071e-06
0.00062184
3.0311e-06
0.000620783
2.23793e-06
0.00062002
2.18597e-06
0.000618523
1.23184e-06
0.000618297
1.34549e-06
2.97567e-07
0.000614795
0.00066695
5.19854e-07
0.000667817
1.47265e-06
0.000669056
2.35e-06
0.00067048
3.14201e-06
0.00067198
3.84457e-06
0.00067351
4.46531e-06
0.000675052
5.01653e-06
0.000676594
5.50934e-06
0.000678125
5.9516e-06
0.000679634
6.34824e-06
0.00068111
6.70285e-06
0.000682548
7.01875e-06
0.000683944
7.2995e-06
0.000685298
7.54864e-06
0.000686611
7.76951e-06
0.000687884
7.96478e-06
0.000689117
8.13677e-06
0.000690312
8.28707e-06
0.000691469
8.41727e-06
0.00069259
8.52832e-06
0.000693674
8.6215e-06
0.000694724
8.69727e-06
0.000695741
8.75674e-06
0.000696724
8.79988e-06
0.000697676
8.82779e-06
0.000698596
8.83987e-06
0.000699486
8.83739e-06
0.000700347
8.81912e-06
0.00070118
8.78677e-06
0.000701985
8.73827e-06
0.000702763
8.67609e-06
0.000703516
8.597e-06
0.000704245
8.50469e-06
0.000704951
8.39428e-06
0.000705635
8.27135e-06
0.000706299
8.12862e-06
0.000706944
7.97447e-06
0.000707571
7.7982e-06
0.000708185
7.61224e-06
0.000708783
7.40107e-06
0.000709373
7.18283e-06
0.000709949
6.93532e-06
0.000710526
6.68456e-06
0.000711088
6.39931e-06
0.000711662
6.11614e-06
0.000712219
5.79201e-06
0.000712804
5.4769e-06
0.00071336
5.11328e-06
0.00071397
4.76693e-06
0.000714528
4.36428e-06
0.000715179
3.98729e-06
0.000715733
3.54862e-06
0.000716445
3.14115e-06
0.000716977
2.67563e-06
0.000717771
2.23707e-06
0.000718241
1.7678e-06
0.000719132
1.29514e-06
0.00071949
8.73793e-07
0.000720485
3.50208e-07
7.61301e-08
0.000720706
0.000666853
3.33113e-07
0.000667307
1.01889e-06
0.000667969
1.68801e-06
0.000668791
2.31977e-06
0.000669731
2.905e-06
0.000670755
3.44082e-06
0.000671843
3.92885e-06
0.00067298
4.37279e-06
0.000674155
4.7766e-06
0.000675359
5.14357e-06
0.000676586
5.47626e-06
0.000677828
5.77679e-06
0.00067908
6.04721e-06
0.000680339
6.28957e-06
0.000681603
6.50598e-06
0.000682869
6.69831e-06
0.000684138
6.86836e-06
0.000685407
7.01751e-06
0.000686677
7.14706e-06
0.000687948
7.25794e-06
0.000689218
7.35112e-06
0.000690488
7.4272e-06
0.000691758
7.48696e-06
0.000693027
7.53068e-06
0.000694296
7.559e-06
0.000695564
7.57194e-06
0.000696831
7.57e-06
0.000698097
7.55298e-06
0.000699363
7.52131e-06
0.000700627
7.47459e-06
0.00070189
7.41318e-06
0.00070315
7.33656e-06
0.00070441
7.24496e-06
0.000705666
7.13791e-06
0.000706922
7.01531e-06
0.000708174
6.87707e-06
0.000709426
6.72235e-06
0.000710672
6.55202e-06
0.00071192
6.36377e-06
0.000713161
6.16048e-06
0.000714407
5.93696e-06
0.000715642
5.70003e-06
0.000716888
5.43907e-06
0.000718119
5.16825e-06
0.000719368
4.86712e-06
0.000720597
4.56304e-06
0.000721855
4.21835e-06
0.000723085
3.88345e-06
0.000724361
3.49105e-06
0.000725594
3.13095e-06
0.000726896
2.6857e-06
0.000728134
2.31098e-06
0.000729469
1.80578e-06
0.00073071
1.43435e-06
0.000732088
8.59298e-07
0.000733334
5.21476e-07
0.000734773
-1.43693e-07
0.00073607
-4.22785e-07
0.000737661
-1.24104e-06
-1.36848e-06
0.000739106
0.000666738
2.61923e-07
0.000666968
7.88873e-07
0.000667353
1.3033e-06
0.000667874
1.79826e-06
0.000668511
2.26789e-06
0.000669243
2.70865e-06
0.000670053
3.11914e-06
0.000670926
3.49952e-06
0.000671852
3.85072e-06
0.000672822
4.17396e-06
0.000673828
4.47039e-06
0.000674863
4.74107e-06
0.000675924
4.98703e-06
0.000677004
5.20933e-06
0.000678101
5.40909e-06
0.000679212
5.58743e-06
0.000680335
5.74544e-06
0.000681468
5.88412e-06
0.000682611
6.00435e-06
0.000683762
6.10691e-06
0.00068492
6.19245e-06
0.000686086
6.26158e-06
0.000687258
6.31474e-06
0.000688436
6.35243e-06
0.000689621
6.37484e-06
0.00069081
6.38244e-06
0.000692005
6.37513e-06
0.000693205
6.35342e-06
0.000694409
6.31685e-06
0.000695617
6.26613e-06
0.00069683
6.20027e-06
0.000698047
6.12041e-06
0.000699267
6.02479e-06
0.000700489
5.91535e-06
0.000701716
5.78907e-06
0.000702943
5.64936e-06
0.000704174
5.49114e-06
0.000705406
5.32033e-06
0.000706641
5.12849e-06
0.000707876
4.92574e-06
0.000709115
4.69816e-06
0.000710352
4.46283e-06
0.000711594
4.19696e-06
0.000712834
3.92892e-06
0.000714079
3.62154e-06
0.000715321
3.32131e-06
0.000716571
2.96788e-06
0.000717818
2.63671e-06
0.000719079
2.23047e-06
0.000720339
1.8709e-06
0.000721622
1.40203e-06
0.000722914
1.01911e-06
0.000724248
4.72344e-07
0.000725612
7.04081e-08
0.000727012
-5.40819e-07
0.00072845
-9.16281e-07
0.000729958
-1.65204e-06
0.000731532
-1.99652e-06
0.000733185
-2.89469e-06
-3.17797e-06
0.000734995
0.000666724
2.05012e-07
0.000666898
6.14849e-07
0.000667181
1.02003e-06
0.000667565
1.41403e-06
0.00066804
1.79321e-06
0.000668594
2.15471e-06
0.000669216
2.49654e-06
0.000669898
2.81754e-06
0.000670632
3.11722e-06
0.00067141
3.39554e-06
0.000672228
3.65266e-06
0.00067308
3.88896e-06
0.000673962
4.10489e-06
0.000674871
4.30099e-06
0.000675802
4.47784e-06
0.000676753
4.63607e-06
0.000677722
4.77629e-06
0.000678707
4.89915e-06
0.000679706
5.00519e-06
0.000680718
5.09501e-06
0.000681742
5.169e-06
0.000682776
5.2277e-06
0.000683819
5.27132e-06
0.000684871
5.30035e-06
0.000685931
5.31482e-06
0.000686998
5.31521e-06
0.000688072
5.30128e-06
0.000689152
5.27361e-06
0.000690237
5.2316e-06
0.000691327
5.17606e-06
0.000692422
5.10584e-06
0.00069352
5.02221e-06
0.000694622
4.92324e-06
0.000695726
4.81099e-06
0.000696833
4.68233e-06
0.000697941
4.54063e-06
0.000699052
4.38091e-06
0.000700163
4.20871e-06
0.000701276
4.01612e-06
0.000702389
3.81219e-06
0.000703503
3.58434e-06
0.000704619
3.3473e-06
0.000705734
3.08111e-06
0.000706854
2.80956e-06
0.000707974
2.50124e-06
0.000709101
2.19439e-06
0.000710229
1.83983e-06
0.000711367
1.49845e-06
0.000712505
1.0931e-06
0.000713656
7.19837e-07
0.000714798
2.5961e-07
0.000715963
-1.45728e-07
0.00071713
-6.95007e-07
0.000718333
-1.13235e-06
0.000719555
-1.76272e-06
0.000720854
-2.21559e-06
0.00072216
-2.9582e-06
0.000723579
-3.41559e-06
0.000724992
-4.30687e-06
-4.74311e-06
0.000726557
0.000666708
1.63732e-07
0.000666832
4.90719e-07
0.000667037
8.14653e-07
0.00066732
1.13099e-06
0.000667676
1.43725e-06
0.0006681
1.73136e-06
0.000668585
2.01169e-06
0.000669125
2.27711e-06
0.000669715
2.52697e-06
0.00067035
2.76095e-06
0.000671025
2.97772e-06
0.000671736
3.17763e-06
0.00067248
3.3609e-06
0.000673253
3.52774e-06
0.000674053
3.67838e-06
0.000674876
3.81315e-06
0.00067572
3.93235e-06
0.000676583
4.03637e-06
0.000677462
4.12552e-06
0.000678357
4.20019e-06
0.000679265
4.26062e-06
0.000680186
4.30716e-06
0.000681117
4.33995e-06
0.000682058
4.35932e-06
0.000683008
4.36527e-06
0.000683965
4.35813e-06
0.000684929
4.3377e-06
0.000685898
4.30438e-06
0.000686872
4.25769e-06
0.00068785
4.19817e-06
0.00068883
4.12495e-06
0.000689814
4.03888e-06
0.000690799
3.93851e-06
0.000691784
3.82519e-06
0.00069277
3.69663e-06
0.000693756
3.55506e-06
0.00069474
3.39685e-06
0.000695723
3.22571e-06
0.000696703
3.03596e-06
0.000697681
2.83369e-06
0.000698656
2.61007e-06
0.000699628
2.37501e-06
0.000700594
2.11466e-06
0.000701559
1.84492e-06
0.000702516
1.5438e-06
0.000703474
1.23655e-06
0.000704426
8.88395e-07
0.000705384
5.39708e-07
0.000706342
1.35246e-07
0.000707313
-2.50907e-07
0.000708281
-7.08427e-07
0.000709274
-1.13915e-06
0.000710252
-1.67217e-06
0.000711267
-2.14771e-06
0.000712273
-2.7683e-06
0.000713342
-3.28533e-06
0.000714399
-4.01487e-06
0.000715554
-4.57029e-06
0.000716686
-5.4394e-06
-6.02202e-06
0.000717965
0.000666698
1.32117e-07
0.000666794
3.94909e-07
0.000666954
6.54964e-07
0.000667176
9.09111e-07
0.000667457
1.15567e-06
0.000667795
1.3932e-06
0.000668187
1.62044e-06
0.000668627
1.83642e-06
0.000669114
2.04034e-06
0.000669643
2.23158e-06
0.000670211
2.40962e-06
0.000670815
2.5742e-06
0.000671451
2.72523e-06
0.000672116
2.86272e-06
0.000672807
2.98673e-06
0.000673523
3.09738e-06
0.000674261
3.1948e-06
0.000675018
3.27916e-06
0.000675793
3.35062e-06
0.000676583
3.40939e-06
0.000677388
3.45562e-06
0.000678206
3.48952e-06
0.000679035
3.51116e-06
0.000679873
3.52075e-06
0.00068072
3.51827e-06
0.000681575
3.5039e-06
0.000682435
3.47751e-06
0.0006833
3.43929e-06
0.000684169
3.38893e-06
0.00068504
3.32667e-06
0.000685913
3.25197e-06
0.000686787
3.16518e-06
0.00068766
3.0654e-06
0.000688532
2.95324e-06
0.000689401
2.8273e-06
0.000690268
2.68858e-06
0.00069113
2.53495e-06
0.000691987
2.36814e-06
0.000692838
2.18483e-06
0.000693684
1.98795e-06
0.000694522
1.77241e-06
0.000695354
1.54308e-06
0.000696176
1.29217e-06
0.000696993
1.02783e-06
0.000697799
7.38117e-07
0.000698599
4.36638e-07
0.000699381
1.06135e-07
0.000700162
-2.414e-07
0.000700926
-6.28872e-07
0.000701696
-1.02097e-06
0.000702453
-1.46476e-06
0.000703221
-1.9072e-06
0.000703969
-2.42015e-06
0.00070474
-2.91929e-06
0.000705487
-3.51512e-06
0.000706277
-4.07522e-06
0.000707033
-4.77067e-06
0.000707858
-5.39514e-06
0.000708631
-6.21217e-06
-6.90032e-06
0.000709509
0.000666692
1.06314e-07
0.00066677
3.16941e-07
0.000666901
5.24845e-07
0.000667082
7.27724e-07
0.000667313
9.24416e-07
0.000667593
1.11389e-06
0.000667918
1.29523e-06
0.000668287
1.46764e-06
0.000668696
1.63048e-06
0.000669145
1.78322e-06
0.000669629
1.92545e-06
0.000670146
2.05689e-06
0.000670694
2.17732e-06
0.00067127
2.28664e-06
0.000671872
2.3848e-06
0.000672498
2.47181e-06
0.000673145
2.54768e-06
0.000673811
2.61249e-06
0.000674496
2.66631e-06
0.000675196
2.70924e-06
0.00067591
2.74135e-06
0.000676637
2.76276e-06
0.000677375
2.77351e-06
0.000678122
2.77369e-06
0.000678877
2.7633e-06
0.000679638
2.74241e-06
0.000680405
2.71094e-06
0.000681175
2.66893e-06
0.000681948
2.6162e-06
0.000682722
2.55276e-06
0.000683495
2.47832e-06
0.000684268
2.39285e-06
0.000685037
2.29591e-06
0.000685803
2.18751e-06
0.000686563
2.06696e-06
0.000687317
1.93434e-06
0.000688064
1.78867e-06
0.000688802
1.63016e-06
0.000689529
1.45739e-06
0.000690246
1.2709e-06
0.00069095
1.06859e-06
0.000691642
8.5154e-07
0.000692317
6.16487e-07
0.000692979
3.65638e-07
0.000693623
9.48954e-08
0.000694255
-1.95267e-07
0.00069487
-5.09437e-07
0.000695471
-8.42206e-07
0.000696047
-1.20467e-06
0.000696612
-1.58618e-06
0.000697151
-2.00339e-06
0.000697683
-2.4398e-06
0.000698184
-2.92109e-06
0.000698686
-3.42104e-06
0.000699149
-3.97833e-06
0.000699625
-4.55149e-06
0.000700053
-5.19872e-06
0.000700514
-5.85577e-06
0.000700912
-6.60977e-06
-7.36101e-06
0.000701372
0.000666688
8.45609e-08
0.000666754
2.5129e-07
0.000666864
4.15212e-07
0.000667017
5.74633e-07
0.000667212
7.28735e-07
0.00066745
8.76791e-07
0.000667727
1.01815e-06
0.000668042
1.15223e-06
0.000668394
1.27855e-06
0.000668781
1.39669e-06
0.0006692
1.50633e-06
0.000669649
1.60721e-06
0.000670128
1.69913e-06
0.000670632
1.78197e-06
0.000671161
1.85563e-06
0.000671713
1.92007e-06
0.000672285
1.9753e-06
0.000672877
2.02131e-06
0.000673485
2.05815e-06
0.000674108
2.08586e-06
0.000674745
2.10447e-06
0.000675394
2.11404e-06
0.000676053
2.11462e-06
0.00067672
2.10621e-06
0.000677395
2.08884e-06
0.000678075
2.06248e-06
0.000678758
2.02713e-06
0.000679445
1.9827e-06
0.000680132
1.92915e-06
0.000680818
1.86631e-06
0.000681502
1.79408e-06
0.000682183
1.7122e-06
0.000682858
1.62053e-06
0.000683527
1.51866e-06
0.000684188
1.40645e-06
0.000684839
1.28333e-06
0.000685478
1.14916e-06
0.000686105
1.00315e-06
0.000686718
8.45128e-07
0.000687314
6.74023e-07
0.000687893
4.89896e-07
0.000688453
2.91365e-07
0.00068899
7.94373e-08
0.000689508
-1.52391e-07
0.000690003
-4.00155e-07
0.000690475
-6.6702e-07
0.000690918
-9.52127e-07
0.000691336
-1.25994e-06
0.000691719
-1.58815e-06
0.000692077
-1.94363e-06
0.000692395
-2.32171e-06
0.000692688
-2.73287e-06
0.000692935
-3.16867e-06
0.00069316
-3.64573e-06
0.000693331
-4.14883e-06
0.000693484
-4.70465e-06
0.000693571
-5.28589e-06
0.000693651
-5.93609e-06
0.000693648
-6.6066e-06
-7.36864e-06
0.000693656
0.000666686
6.56891e-08
0.000666742
1.9438e-07
0.000666838
3.20155e-07
0.00066697
4.4178e-07
0.00066714
5.58693e-07
0.000667347
6.70394e-07
0.000667589
7.76437e-07
0.000667864
8.76425e-07
0.000668173
9.70014e-07
0.000668513
1.05691e-06
0.000668882
1.13688e-06
0.00066928
1.20973e-06
0.000669703
1.27531e-06
0.000670152
1.33353e-06
0.000670623
1.3843e-06
0.000671116
1.42761e-06
0.000671627
1.46343e-06
0.000672157
1.49178e-06
0.000672702
1.51268e-06
0.000673262
1.52615e-06
0.000673834
1.53225e-06
0.000674417
1.53097e-06
0.00067501
1.52239e-06
0.000675609
1.50648e-06
0.000676215
1.48329e-06
0.000676825
1.45276e-06
0.000677437
1.41491e-06
0.00067805
1.36962e-06
0.000678662
1.3169e-06
0.000679272
1.25652e-06
0.000679878
1.18852e-06
0.000680477
1.11253e-06
0.000681069
1.02862e-06
0.000681652
9.36151e-07
0.000682223
8.35282e-07
0.000682781
7.25134e-07
0.000683324
6.06037e-07
0.000683851
4.7671e-07
0.000684358
3.37786e-07
0.000684844
1.87639e-07
0.000685306
2.80755e-08
0.000685746
-1.48351e-07
0.00068616
-3.34878e-07
0.000686545
-5.37379e-07
0.000686897
-7.52332e-07
0.000687217
-9.86363e-07
0.000687498
-1.23346e-06
0.000687742
-1.5042e-06
0.000687943
-1.78845e-06
0.000688102
-2.10265e-06
0.00068821
-2.42981e-06
0.000688273
-2.79584e-06
0.000688277
-3.1725e-06
0.000688232
-3.60109e-06
0.000688118
-4.03479e-06
0.000687953
-4.53993e-06
0.000687706
-5.03877e-06
0.000687408
-5.63845e-06
0.000687011
-6.20956e-06
-6.92559e-06
0.000686568
0.000666683
4.88589e-08
0.000666734
1.43668e-07
0.000666819
2.35454e-07
0.000666937
3.23361e-07
0.000667089
4.07023e-07
0.000667273
4.86124e-07
0.000667489
5.60383e-07
0.000667736
6.29553e-07
0.000668013
6.93423e-07
0.000668318
7.51815e-07
0.00066865
8.04589e-07
0.000669008
8.51635e-07
0.000669391
8.92876e-07
0.000669796
9.28262e-07
0.000670223
9.57772e-07
0.000670669
9.81399e-07
0.000671133
9.99167e-07
0.000671614
1.01109e-06
0.000672109
1.01723e-06
0.000672618
1.0176e-06
0.000673138
1.01227e-06
0.000673667
1.00126e-06
0.000674205
9.84643e-07
0.000674749
9.62401e-07
0.000675298
9.3461e-07
0.000675849
9.01216e-07
0.000676402
8.62285e-07
0.000676954
8.17685e-07
0.000677503
7.67483e-07
0.000678048
7.11435e-07
0.000678587
6.49626e-07
0.000679118
5.81643e-07
0.000679639
5.07664e-07
0.000680148
4.2713e-07
0.000680643
3.40398e-07
0.000681122
2.46561e-07
0.000681581
1.46223e-07
0.00068202
3.81933e-08
0.000682437
-7.8814e-08
0.000682829
-2.04566e-07
0.000683195
-3.38118e-07
0.00068353
-4.83042e-07
0.000683831
-6.3632e-07
0.000684097
-8.02932e-07
0.000684323
-9.78389e-07
0.000684507
-1.17056e-06
0.000684645
-1.37172e-06
0.000684735
-1.59409e-06
0.000684772
-1.82487e-06
0.000684752
-2.08335e-06
0.000684671
-2.34835e-06
0.000684525
-2.65054e-06
0.000684308
-2.95497e-06
0.000684018
-3.31076e-06
0.000683643
-3.66034e-06
0.000683186
-4.08287e-06
0.000682631
-4.48333e-06
0.000681982
-4.98997e-06
0.000681218
-5.44538e-06
-6.05799e-06
0.00068035
0.000666682
3.34208e-08
0.000666729
9.71875e-08
0.000666806
1.57844e-07
0.000666915
2.1486e-07
0.000667054
2.68034e-07
0.000667223
3.172e-07
0.000667421
3.62223e-07
0.000667647
4.02989e-07
0.000667901
4.39405e-07
0.000668182
4.71402e-07
0.000668487
4.98935e-07
0.000668817
5.21978e-07
0.000669169
5.40531e-07
0.000669543
5.54608e-07
0.000669937
5.64247e-07
0.000670349
5.69495e-07
0.000670777
5.70421e-07
0.000671221
5.67086e-07
0.000671679
5.59566e-07
0.000672149
5.47923e-07
0.000672629
5.32244e-07
0.000673117
5.12573e-07
0.000673613
4.88992e-07
0.000674114
4.61526e-07
0.000674618
4.30272e-07
0.000675124
3.95213e-07
0.00067563
3.56436e-07
0.000676134
3.13872e-07
0.000676634
2.67612e-07
0.000677128
2.17506e-07
0.000677614
1.63686e-07
0.000678089
1.05873e-07
0.000678553
4.43351e-08
0.000679002
-2.22349e-08
0.000679435
-9.26815e-08
0.00067985
-1.679e-07
0.000680243
-2.47517e-07
0.000680614
-3.32762e-07
0.000680958
-4.22878e-07
0.000681273
-5.19477e-07
0.000681556
-6.21126e-07
0.000681804
-7.30608e-07
0.000682013
-8.45615e-07
0.000682181
-9.70343e-07
0.000682303
-1.1008e-06
0.000682376
-1.24354e-06
0.000682396
-1.39189e-06
0.000682358
-1.55616e-06
0.000682259
-1.7253e-06
0.000682091
-1.91562e-06
0.000681851
-2.10886e-06
0.000681532
-2.33111e-06
0.000681129
-2.55221e-06
0.000680633
-2.81411e-06
0.000680039
-3.06703e-06
0.000679335
-3.37889e-06
0.000678519
-3.6674e-06
0.000677572
-4.04305e-06
0.000676496
-4.3693e-06
-4.82662e-06
0.000675265
0.000666681
1.88396e-08
0.000666725
5.33196e-08
0.000666798
8.46277e-08
0.000666901
1.12529e-07
0.000667032
1.36968e-07
0.000667191
1.57916e-07
0.000667378
1.75368e-07
0.000667592
1.89329e-07
0.000667831
1.9982e-07
0.000668096
2.06872e-07
0.000668384
2.10536e-07
0.000668695
2.10872e-07
0.000669028
2.07959e-07
0.00066938
2.01886e-07
0.000669752
1.9276e-07
0.000670141
1.80669e-07
0.000670545
1.65751e-07
0.000670964
1.48146e-07
0.000671396
1.27884e-07
0.000671839
1.05128e-07
0.000672291
8.00067e-08
0.000672751
5.26171e-08
0.000673217
2.297e-08
0.000673687
-8.87853e-09
0.00067416
-4.2633e-08
0.000674634
-7.83171e-08
0.000675106
-1.15843e-07
0.000675575
-1.55208e-07
0.000676039
-1.96323e-07
0.000676496
-2.39249e-07
0.000676944
-2.83917e-07
0.00067738
-3.30498e-07
0.000677803
-3.78861e-07
0.00067821
-4.29239e-07
0.000678599
-4.81412e-07
0.000678967
-5.35817e-07
0.000679311
-5.92207e-07
0.00067963
-6.51181e-07
0.000679919
-7.12327e-07
0.000680177
-7.76659e-07
0.000680399
-8.43399e-07
0.000680582
-9.14068e-07
0.000680724
-9.87403e-07
0.000680819
-1.06575e-06
0.000680866
-1.14692e-06
0.000680857
-1.23456e-06
0.00068079
-1.32501e-06
0.000680658
-1.42401e-06
0.000680458
-1.52544e-06
0.000680181
-1.63844e-06
0.000679824
-1.75281e-06
0.000679377
-1.88321e-06
0.000678837
-2.01271e-06
0.000678188
-2.16498e-06
0.000677433
-2.31191e-06
0.000676546
-2.49202e-06
0.000675537
-2.65848e-06
0.000674368
-2.87439e-06
0.000673061
-3.06146e-06
-3.32358e-06
0.000671557
0.000666681
4.64251e-09
0.000666724
1.06506e-08
0.000666795
1.34343e-08
0.000666894
1.3068e-08
0.000667022
9.61894e-09
0.000667176
3.207e-09
0.000667358
-6.04313e-09
0.000667565
-1.80568e-08
0.000667798
-3.26822e-08
0.000668054
-4.97831e-08
0.000668334
-6.9217e-08
0.000668636
-9.08344e-08
0.000668958
-1.1448e-07
0.0006693
-1.39992e-07
0.00066966
-1.67206e-07
0.000670037
-1.95951e-07
0.000670428
-2.26056e-07
0.000670834
-2.57355e-07
0.000671251
-2.89695e-07
0.000671679
-3.22919e-07
0.000672116
-3.56874e-07
0.00067256
-3.91423e-07
0.00067301
-4.26431e-07
0.000673463
-4.61766e-07
0.000673917
-4.97291e-07
0.000674372
-5.32893e-07
0.000674825
-5.68467e-07
0.000675273
-6.03917e-07
0.000675716
-6.39161e-07
0.000676151
-6.74127e-07
0.000676576
-7.08748e-07
0.000676988
-7.4295e-07
0.000677386
-7.76698e-07
0.000677767
-8.09976e-07
0.000678128
-8.42769e-07
0.000678467
-8.75042e-07
0.000678782
-9.06811e-07
0.000679069
-9.38072e-07
0.000679326
-9.68904e-07
0.000679548
-9.99309e-07
0.000679734
-1.0294e-06
0.000679879
-1.05915e-06
0.000679981
-1.08874e-06
0.000680033
-1.11813e-06
0.000680034
-1.14756e-06
0.000679976
-1.17693e-06
0.000679858
-1.20661e-06
0.00067967
-1.23638e-06
0.000679411
-1.2668e-06
0.00067907
-1.29746e-06
0.000678647
-1.32912e-06
0.000678125
-1.36116e-06
0.000677506
-1.39455e-06
0.00067677
-1.42845e-06
0.000675922
-1.4642e-06
0.000674931
-1.50082e-06
0.000673812
-1.53977e-06
0.000672518
-1.57993e-06
0.000671079
-1.62247e-06
-1.66652e-06
0.000669422
0.000666681
-9.63581e-09
0.000666724
-3.22184e-08
0.000666795
-5.79911e-08
0.000666895
-8.66381e-08
0.000667023
-1.17942e-07
0.000667177
-1.51673e-07
0.000667359
-1.87599e-07
0.000667566
-2.25484e-07
0.000667799
-2.65094e-07
0.000668055
-3.06191e-07
0.000668335
-3.48539e-07
0.000668636
-3.91902e-07
0.000668957
-4.36046e-07
0.000669298
-4.80738e-07
0.000669656
-5.2575e-07
0.000670031
-5.70855e-07
0.000670421
-6.15838e-07
0.000670824
-6.60482e-07
0.000671239
-7.04587e-07
0.000671664
-7.4795e-07
0.000672098
-7.90388e-07
0.000672538
-8.31706e-07
0.000672983
-8.71741e-07
0.000673432
-9.10305e-07
0.000673882
-9.47254e-07
0.000674331
-9.82401e-07
0.000674778
-1.01563e-06
0.000675221
-1.04676e-06
0.000675658
-1.0757e-06
0.000676086
-1.10224e-06
0.000676504
-1.12634e-06
0.000676908
-1.14777e-06
0.000677298
-1.16656e-06
0.000677671
-1.1824e-06
0.000678023
-1.19542e-06
0.000678353
-1.20517e-06
0.000678659
-1.21196e-06
0.000678936
-1.21513e-06
0.000679182
-1.21527e-06
0.000679394
-1.21136e-06
0.000679569
-1.20439e-06
0.000679703
-1.1928e-06
0.000679792
-1.17826e-06
0.000679832
-1.15826e-06
0.00067982
-1.13559e-06
0.00067975
-1.10626e-06
0.000679618
-1.07481e-06
0.000679416
-1.0349e-06
0.000679144
-9.93937e-07
0.000678788
-9.41774e-07
0.000678349
-8.90446e-07
0.000677812
-8.23759e-07
0.000677178
-7.61093e-07
0.000676426
-6.76103e-07
0.000675562
-5.99982e-07
0.000674553
-4.91712e-07
0.000673416
-4.02697e-07
0.000672102
-2.66216e-07
0.000670645
-1.65353e-07
3.24793e-09
0.000668975
0.000666681
-2.44167e-08
0.000666726
-7.65689e-08
0.0006668
-1.31868e-07
0.000666903
-1.89705e-07
0.000667035
-2.49721e-07
0.000667194
-3.11552e-07
0.000667382
-3.74841e-07
0.000667595
-4.39234e-07
0.000667835
-5.0439e-07
0.000668098
-5.69969e-07
0.000668386
-6.35647e-07
0.000668695
-7.01104e-07
0.000669025
-7.66033e-07
0.000669374
-8.30133e-07
0.000669742
-8.93119e-07
0.000670125
-9.54709e-07
0.000670524
-1.01464e-06
0.000670936
-1.07266e-06
0.00067136
-1.12852e-06
0.000671794
-1.18199e-06
0.000672237
-1.23284e-06
0.000672686
-1.28086e-06
0.00067314
-1.32584e-06
0.000673597
-1.36757e-06
0.000674056
-1.40587e-06
0.000674514
-1.44051e-06
0.00067497
-1.47137e-06
0.000675421
-1.49817e-06
0.000675866
-1.52083e-06
0.000676303
-1.53903e-06
0.00067673
-1.55276e-06
0.000677143
-1.56161e-06
0.000677542
-1.56568e-06
0.000677924
-1.56439e-06
0.000678287
-1.55801e-06
0.000678628
-1.54574e-06
0.000678944
-1.52808e-06
0.000679232
-1.50386e-06
0.000679491
-1.47403e-06
0.000679717
-1.43677e-06
0.000679906
-1.39375e-06
0.000680055
-1.34213e-06
0.000680162
-1.28475e-06
0.000680221
-1.21714e-06
0.000680229
-1.14404e-06
0.000680181
-1.05835e-06
0.000680074
-9.67922e-07
0.000679901
-8.61433e-07
0.000679659
-7.51777e-07
0.000679338
-6.20844e-07
0.000678937
-4.89701e-07
0.000678443
-3.29432e-07
0.000677857
-1.74868e-07
0.000677163
1.71215e-08
0.000676361
2.02523e-07
0.000675423
4.46322e-07
0.000674362
6.57925e-07
0.000673137
9.58631e-07
0.000671773
1.19924e-06
1.57427e-06
0.000670202
0.000666682
-4.01776e-08
0.00066673
-1.23842e-07
0.000666808
-2.10568e-07
0.000666918
-2.99428e-07
0.000667058
-3.89899e-07
0.000667228
-4.81474e-07
0.000667427
-5.73657e-07
0.000667654
-6.65969e-07
0.000667907
-7.57952e-07
0.000668187
-8.49168e-07
0.00066849
-9.392e-07
0.000668817
-1.02765e-06
0.000669165
-1.11414e-06
0.000669533
-1.19831e-06
0.00066992
-1.27983e-06
0.000670323
-1.35838e-06
0.000670742
-1.43365e-06
0.000671175
-1.50536e-06
0.00067162
-1.57325e-06
0.000672075
-1.63705e-06
0.000672538
-1.69653e-06
0.000673009
-1.75143e-06
0.000673485
-1.80155e-06
0.000673964
-1.84664e-06
0.000674445
-1.88653e-06
0.000674925
-1.92093e-06
0.000675403
-1.9497e-06
0.000675878
-1.97254e-06
0.000676346
-1.98935e-06
0.000676807
-1.99974e-06
0.000677258
-2.00369e-06
0.000677697
-2.00069e-06
0.000678122
-1.99083e-06
0.000678531
-1.97341e-06
0.000678922
-1.94871e-06
0.000679292
-1.91572e-06
0.000679639
-1.87503e-06
0.00067996
-1.82515e-06
0.000680253
-1.76716e-06
0.000680515
-1.69881e-06
0.000680743
-1.62204e-06
0.000680935
-1.53332e-06
0.000681086
-1.43601e-06
0.000681193
-1.32457e-06
0.000681254
-1.20467e-06
0.000681263
-1.06752e-06
0.000681218
-9.22605e-07
0.000681112
-7.55959e-07
0.000680944
-5.83327e-07
0.000680706
-3.82515e-07
0.000680396
-1.79723e-07
0.000680006
6.02496e-08
0.000679528
3.02895e-07
0.000678947
5.98358e-07
0.00067827
8.79189e-07
0.000677479
1.23749e-06
0.000676575
1.56153e-06
0.000675535
1.9994e-06
0.000674364
2.36944e-06
2.90803e-06
0.000673031
0.000666684
-5.74524e-08
0.000666736
-1.75645e-07
0.000666822
-2.9677e-07
0.000666942
-4.19525e-07
0.000667095
-5.43199e-07
0.000667281
-6.67108e-07
0.000667498
-7.90597e-07
0.000667745
-9.13045e-07
0.000668021
-1.03387e-06
0.000668324
-1.15253e-06
0.000668654
-1.26852e-06
0.000669007
-1.38137e-06
0.000669384
-1.49065e-06
0.000669781
-1.59595e-06
0.000670199
-1.69691e-06
0.000670633
-1.79318e-06
0.000671084
-1.88445e-06
0.000671549
-1.97042e-06
0.000672027
-2.05082e-06
0.000672515
-2.12539e-06
0.000673012
-2.19388e-06
0.000673517
-2.25606e-06
0.000674027
-2.31171e-06
0.000674541
-2.36058e-06
0.000675057
-2.40248e-06
0.000675573
-2.43715e-06
0.000676088
-2.46441e-06
0.000676599
-2.48395e-06
0.000677106
-2.49565e-06
0.000677605
-2.49911e-06
0.000678096
-2.49426e-06
0.000678576
-2.48058e-06
0.000679043
-2.45808e-06
0.000679496
-2.42608e-06
0.000679932
-2.38473e-06
0.000680349
-2.33305e-06
0.000680745
-2.27145e-06
0.000681119
-2.19849e-06
0.000681467
-2.11505e-06
0.000681787
-2.01892e-06
0.000682076
-1.91177e-06
0.000682333
-1.79018e-06
0.000682554
-1.65712e-06
0.000682737
-1.50724e-06
0.000682878
-1.34571e-06
0.000682975
-1.16406e-06
0.000683023
-9.71043e-07
0.00068302
-7.53267e-07
0.000682962
-5.25386e-07
0.000682846
-2.6625e-07
0.000682669
-2.20818e-09
0.000682417
3.12357e-07
0.000682091
6.28015e-07
0.000681689
1.00116e-06
0.000681201
1.36722e-06
0.000680624
1.81438e-06
0.000679948
2.23756e-06
0.00067917
2.77669e-06
0.000678278
3.26191e-06
3.91469e-06
0.000677271
0.000666686
-7.68819e-08
0.000666744
-2.3392e-07
0.000666841
-3.93701e-07
0.000666976
-5.54468e-07
0.000667148
-7.15262e-07
0.000667356
-8.75182e-07
0.000667599
-1.03338e-06
0.000667875
-1.18905e-06
0.000668183
-1.3415e-06
0.00066852
-1.49007e-06
0.000668886
-1.63417e-06
0.000669278
-1.77328e-06
0.000669694
-1.90693e-06
0.000670133
-2.03471e-06
0.000670592
-2.15623e-06
0.00067107
-2.27118e-06
0.000671565
-2.37924e-06
0.000672075
-2.48014e-06
0.000672598
-2.57364e-06
0.000673132
-2.6595e-06
0.000673675
-2.73751e-06
0.000674227
-2.80743e-06
0.000674784
-2.86909e-06
0.000675346
-2.92226e-06
0.00067591
-2.96675e-06
0.000676475
-3.00233e-06
0.00067704
-3.0288e-06
0.000677602
-3.04591e-06
0.000678159
-3.05345e-06
0.000678711
-3.05113e-06
0.000679256
-3.03873e-06
0.000679791
-3.01589e-06
0.000680315
-2.9824e-06
0.000680827
-2.93778e-06
0.000681324
-2.88188e-06
0.000681805
-2.81402e-06
0.000682268
-2.73418e-06
0.000682711
-2.64136e-06
0.000683132
-2.53578e-06
0.000683529
-2.41595e-06
0.000683899
-2.28253e-06
0.000684242
-2.13322e-06
0.000684555
-1.96947e-06
0.000684835
-1.78766e-06
0.00068508
-1.59062e-06
0.000685289
-1.3726e-06
0.000685456
-1.13876e-06
0.000685583
-8.80018e-07
0.000685663
-6.05453e-07
0.000685698
-3.01044e-07
0.000685681
1.4621e-08
0.000685612
3.81355e-07
0.000685482
7.58495e-07
0.000685296
1.18656e-06
0.00068504
1.62374e-06
0.000684725
2.12942e-06
0.000684327
2.63565e-06
0.000683868
3.23536e-06
0.00068331
3.81938e-06
4.53128e-06
0.000682694
0.000666689
-9.9295e-08