/*--------------------------------*- C++ -*----------------------------------*\
| =========                 |                                                 |
| \\      /  F ield         | OpenFOAM: The Open Source CFD Toolbox           |
|  \\    /   O peration     | Version:  2312                                  |
|   \\  /    A nd           | Website:  www.openfoam.com                      |
|    \\/     M anipulation  |                                                 |
\*---------------------------------------------------------------------------*/
FoamFile
{
    version     2.0;
    format      ascii;
    arch        "LSB;label=32;scalar=64";
    class       volScalarField;
    location    "41000";
    object      p;
}
// * * * * * * * * * * * * * * * * * * * * * * * * * * * * * * * * * * * * * //

dimensions      [0 2 -2 0 0 0 0];

internalField   nonuniform List<scalar> 
10800
(
4.90314e-07
4.76191e-07
4.62424e-07
4.51846e-07
4.44424e-07
4.39032e-07
4.34581e-07
4.30502e-07
4.26626e-07
4.22961e-07
4.19545e-07
4.1638e-07
4.13434e-07
4.10657e-07
4.08002e-07
4.05436e-07
4.02937e-07
4.00492e-07
3.98091e-07
3.95725e-07
3.93385e-07
3.91063e-07
3.88753e-07
3.8645e-07
3.84148e-07
3.81845e-07
3.79537e-07
3.77221e-07
3.74896e-07
3.7256e-07
3.70211e-07
3.67849e-07
3.65473e-07
3.63083e-07
3.60679e-07
3.5826e-07
3.55828e-07
3.53381e-07
3.50921e-07
3.48448e-07
3.45963e-07
3.43466e-07
3.40956e-07
3.38435e-07
3.35902e-07
3.33356e-07
3.30798e-07
3.28222e-07
3.25636e-07
3.23021e-07
3.204e-07
3.17722e-07
3.15068e-07
3.12265e-07
3.09616e-07
3.06482e-07
3.04124e-07
2.99716e-07
2.99407e-07
2.88808e-07
4.4227e-07
4.40543e-07
4.37898e-07
4.34772e-07
4.31556e-07
4.28461e-07
4.25538e-07
4.22751e-07
4.2005e-07
4.17403e-07
4.14804e-07
4.12261e-07
4.09779e-07
4.07357e-07
4.04991e-07
4.02669e-07
4.00384e-07
3.98127e-07
3.95893e-07
3.93676e-07
3.91472e-07
3.89277e-07
3.87088e-07
3.84901e-07
3.82713e-07
3.80522e-07
3.78325e-07
3.7612e-07
3.73907e-07
3.71682e-07
3.69446e-07
3.67198e-07
3.64937e-07
3.62662e-07
3.60375e-07
3.58073e-07
3.55759e-07
3.53429e-07
3.51089e-07
3.48732e-07
3.46367e-07
3.43983e-07
3.41596e-07
3.39183e-07
3.36776e-07
3.34332e-07
3.31908e-07
3.29431e-07
3.26998e-07
3.24484e-07
3.22063e-07
3.19512e-07
3.17156e-07
3.14588e-07
3.12432e-07
3.09914e-07
3.08293e-07
3.05903e-07
3.05425e-07
3.02748e-07
4.33529e-07
4.32779e-07
4.31365e-07
4.29413e-07
4.27129e-07
4.24708e-07
4.22278e-07
4.19888e-07
4.17542e-07
4.15227e-07
4.12933e-07
4.1066e-07
4.08415e-07
4.062e-07
4.04019e-07
4.0187e-07
3.99748e-07
3.97648e-07
3.95566e-07
3.93498e-07
3.91441e-07
3.89391e-07
3.87346e-07
3.85304e-07
3.83263e-07
3.8122e-07
3.79174e-07
3.77122e-07
3.75064e-07
3.72998e-07
3.70924e-07
3.68841e-07
3.66748e-07
3.64644e-07
3.6253e-07
3.60404e-07
3.58269e-07
3.56121e-07
3.53964e-07
3.51792e-07
3.49615e-07
3.47419e-07
3.45221e-07
3.43002e-07
3.40785e-07
3.38542e-07
3.36309e-07
3.34042e-07
3.318e-07
3.29511e-07
3.27272e-07
3.24967e-07
3.22752e-07
3.20441e-07
3.18286e-07
3.15982e-07
3.13938e-07
3.11648e-07
3.09756e-07
3.07385e-07
4.21794e-07
4.21362e-07
4.20575e-07
4.19485e-07
4.1816e-07
4.16671e-07
4.15077e-07
4.13415e-07
4.11708e-07
4.09965e-07
4.08193e-07
4.06399e-07
4.04587e-07
4.02764e-07
4.00936e-07
3.99105e-07
3.97272e-07
3.95438e-07
3.93602e-07
3.91765e-07
3.89925e-07
3.88082e-07
3.86235e-07
3.84384e-07
3.82528e-07
3.80667e-07
3.788e-07
3.76925e-07
3.75044e-07
3.73155e-07
3.71259e-07
3.69354e-07
3.67442e-07
3.65521e-07
3.63592e-07
3.61655e-07
3.59709e-07
3.57755e-07
3.55793e-07
3.53821e-07
3.51843e-07
3.49853e-07
3.47857e-07
3.45848e-07
3.43832e-07
3.418e-07
3.39762e-07
3.37703e-07
3.35637e-07
3.33542e-07
3.3144e-07
3.29301e-07
3.27158e-07
3.24967e-07
3.22777e-07
3.20525e-07
3.18283e-07
3.15961e-07
3.13666e-07
3.11289e-07
4.15094e-07
4.1488e-07
4.14449e-07
4.13803e-07
4.12959e-07
4.11946e-07
4.10795e-07
4.09537e-07
4.08198e-07
4.06794e-07
4.05337e-07
4.03837e-07
4.023e-07
4.00734e-07
3.99143e-07
3.97533e-07
3.95908e-07
3.9427e-07
3.92622e-07
3.90963e-07
3.89297e-07
3.87622e-07
3.8594e-07
3.84252e-07
3.82557e-07
3.80856e-07
3.7915e-07
3.77437e-07
3.75719e-07
3.73995e-07
3.72267e-07
3.70533e-07
3.68795e-07
3.67051e-07
3.65304e-07
3.63552e-07
3.61797e-07
3.60037e-07
3.58274e-07
3.56506e-07
3.54735e-07
3.52959e-07
3.51179e-07
3.49394e-07
3.47603e-07
3.45806e-07
3.44001e-07
3.42187e-07
3.40363e-07
3.38524e-07
3.36666e-07
3.34783e-07
3.32863e-07
3.30895e-07
3.28862e-07
3.26752e-07
3.24553e-07
3.22276e-07
3.19922e-07
3.1759e-07
4.09574e-07
4.09412e-07
4.09087e-07
4.08603e-07
4.07969e-07
4.07203e-07
4.06322e-07
4.05344e-07
4.04285e-07
4.03158e-07
4.01971e-07
4.00734e-07
3.99452e-07
3.98131e-07
3.96778e-07
3.95395e-07
3.93988e-07
3.92559e-07
3.91113e-07
3.89649e-07
3.88172e-07
3.86681e-07
3.8518e-07
3.83668e-07
3.82148e-07
3.80619e-07
3.79083e-07
3.77542e-07
3.75994e-07
3.74442e-07
3.72886e-07
3.71326e-07
3.69764e-07
3.68199e-07
3.66632e-07
3.65065e-07
3.63496e-07
3.61928e-07
3.60358e-07
3.58789e-07
3.5722e-07
3.5565e-07
3.54079e-07
3.52507e-07
3.5093e-07
3.4935e-07
3.47761e-07
3.46163e-07
3.4455e-07
3.42923e-07
3.41275e-07
3.39609e-07
3.37915e-07
3.36202e-07
3.34444e-07
3.32644e-07
3.30768e-07
3.28837e-07
3.26847e-07
3.24926e-07
4.05228e-07
4.05109e-07
4.04871e-07
4.04516e-07
4.04045e-07
4.03467e-07
4.02791e-07
4.02027e-07
4.01184e-07
4.00272e-07
3.993e-07
3.98273e-07
3.97197e-07
3.96078e-07
3.9492e-07
3.93729e-07
3.92507e-07
3.91258e-07
3.89986e-07
3.88693e-07
3.87382e-07
3.86055e-07
3.84714e-07
3.83362e-07
3.81998e-07
3.80626e-07
3.79247e-07
3.77862e-07
3.76472e-07
3.75078e-07
3.73683e-07
3.72286e-07
3.70889e-07
3.69493e-07
3.68098e-07
3.66707e-07
3.65318e-07
3.63935e-07
3.62556e-07
3.61183e-07
3.59815e-07
3.58454e-07
3.57098e-07
3.5575e-07
3.54406e-07
3.53069e-07
3.51737e-07
3.50409e-07
3.4908e-07
3.4775e-07
3.46407e-07
3.4505e-07
3.43664e-07
3.42253e-07
3.40808e-07
3.3934e-07
3.37827e-07
3.36294e-07
3.3474e-07
3.33276e-07
4.01777e-07
4.01684e-07
4.01499e-07
4.0122e-07
4.00849e-07
4.00389e-07
3.99846e-07
3.99227e-07
3.98536e-07
3.9778e-07
3.96966e-07
3.96097e-07
3.9518e-07
3.94219e-07
3.93218e-07
3.92183e-07
3.91115e-07
3.90019e-07
3.88898e-07
3.87755e-07
3.86592e-07
3.85412e-07
3.84218e-07
3.83011e-07
3.81793e-07
3.80567e-07
3.79333e-07
3.78095e-07
3.76854e-07
3.7561e-07
3.74367e-07
3.73124e-07
3.71885e-07
3.7065e-07
3.6942e-07
3.68197e-07
3.66983e-07
3.65778e-07
3.64583e-07
3.634e-07
3.6223e-07
3.61073e-07
3.59929e-07
3.588e-07
3.57684e-07
3.56583e-07
3.55494e-07
3.54419e-07
3.53356e-07
3.52307e-07
3.51268e-07
3.50238e-07
3.49206e-07
3.48172e-07
3.47126e-07
3.46077e-07
3.45015e-07
3.43965e-07
3.42936e-07
3.42031e-07
3.99013e-07
3.98937e-07
3.98786e-07
3.98558e-07
3.98253e-07
3.97874e-07
3.97424e-07
3.96908e-07
3.96328e-07
3.9569e-07
3.94998e-07
3.94255e-07
3.93466e-07
3.92635e-07
3.91766e-07
3.90861e-07
3.89926e-07
3.88962e-07
3.87972e-07
3.8696e-07
3.85929e-07
3.8488e-07
3.83816e-07
3.8274e-07
3.81654e-07
3.8056e-07
3.7946e-07
3.78356e-07
3.77251e-07
3.76146e-07
3.75043e-07
3.73944e-07
3.72851e-07
3.71766e-07
3.7069e-07
3.69626e-07
3.68576e-07
3.6754e-07
3.66522e-07
3.65521e-07
3.64541e-07
3.63582e-07
3.62647e-07
3.61736e-07
3.60851e-07
3.59994e-07
3.59164e-07
3.58363e-07
3.57589e-07
3.56842e-07
3.56119e-07
3.55425e-07
3.54756e-07
3.54116e-07
3.53497e-07
3.52908e-07
3.52341e-07
3.5182e-07
3.51355e-07
3.51034e-07
3.96811e-07
3.96748e-07
3.9662e-07
3.96427e-07
3.96169e-07
3.95848e-07
3.95466e-07
3.95025e-07
3.94528e-07
3.93979e-07
3.93381e-07
3.92737e-07
3.92049e-07
3.91323e-07
3.90559e-07
3.89763e-07
3.88936e-07
3.88081e-07
3.87202e-07
3.86301e-07
3.8538e-07
3.84443e-07
3.83492e-07
3.8253e-07
3.81558e-07
3.80579e-07
3.79596e-07
3.78611e-07
3.77626e-07
3.76643e-07
3.75666e-07
3.74695e-07
3.73734e-07
3.72784e-07
3.71848e-07
3.70929e-07
3.70028e-07
3.69147e-07
3.68291e-07
3.67459e-07
3.66656e-07
3.65883e-07
3.65142e-07
3.64437e-07
3.63768e-07
3.6314e-07
3.62554e-07
3.62012e-07
3.61515e-07
3.61064e-07
3.60662e-07
3.60312e-07
3.60015e-07
3.59775e-07
3.59591e-07
3.5947e-07
3.5941e-07
3.59433e-07
3.59552e-07
3.5984e-07
3.95083e-07
3.95028e-07
3.94917e-07
3.9475e-07
3.94526e-07
3.94247e-07
3.93914e-07
3.93529e-07
3.93094e-07
3.92612e-07
3.92086e-07
3.91517e-07
3.90908e-07
3.90263e-07
3.89584e-07
3.88873e-07
3.88133e-07
3.87367e-07
3.86578e-07
3.85767e-07
3.84939e-07
3.84095e-07
3.83238e-07
3.82371e-07
3.81496e-07
3.80616e-07
3.79732e-07
3.78849e-07
3.77967e-07
3.77091e-07
3.76222e-07
3.75362e-07
3.74516e-07
3.73685e-07
3.72872e-07
3.7208e-07
3.71311e-07
3.7057e-07
3.69857e-07
3.69178e-07
3.68534e-07
3.67929e-07
3.67367e-07
3.6685e-07
3.66382e-07
3.65967e-07
3.65608e-07
3.65307e-07
3.65069e-07
3.64898e-07
3.64799e-07
3.64777e-07
3.64835e-07
3.64979e-07
3.65212e-07
3.65543e-07
3.65975e-07
3.66527e-07
3.67216e-07
3.68098e-07
3.93766e-07
3.93717e-07
3.93618e-07
3.93469e-07
3.9327e-07
3.93021e-07
3.92723e-07
3.92379e-07
3.9199e-07
3.91558e-07
3.91084e-07
3.90572e-07
3.90023e-07
3.8944e-07
3.88825e-07
3.8818e-07
3.87508e-07
3.86811e-07
3.86093e-07
3.85355e-07
3.846e-07
3.8383e-07
3.83049e-07
3.82259e-07
3.81462e-07
3.80661e-07
3.7986e-07
3.79059e-07
3.78263e-07
3.77474e-07
3.76694e-07
3.75928e-07
3.75177e-07
3.74445e-07
3.73735e-07
3.73049e-07
3.72393e-07
3.71767e-07
3.71178e-07
3.70627e-07
3.70119e-07
3.69658e-07
3.69248e-07
3.68893e-07
3.68597e-07
3.68366e-07
3.68203e-07
3.68114e-07
3.68105e-07
3.68183e-07
3.68353e-07
3.68622e-07
3.68996e-07
3.69484e-07
3.70092e-07
3.70831e-07
3.7171e-07
3.72745e-07
3.73955e-07
3.75382e-07
3.92814e-07
3.92769e-07
3.92679e-07
3.92543e-07
3.9236e-07
3.92132e-07
3.9186e-07
3.91544e-07
3.91187e-07
3.9079e-07
3.90354e-07
3.89883e-07
3.89377e-07
3.88838e-07
3.88269e-07
3.87673e-07
3.87051e-07
3.86405e-07
3.85739e-07
3.85055e-07
3.84355e-07
3.83641e-07
3.82917e-07
3.82185e-07
3.81447e-07
3.80707e-07
3.79967e-07
3.7923e-07
3.78499e-07
3.77777e-07
3.77067e-07
3.76372e-07
3.75695e-07
3.75039e-07
3.74409e-07
3.73807e-07
3.73237e-07
3.72703e-07
3.72209e-07
3.7176e-07
3.71359e-07
3.71011e-07
3.70722e-07
3.70495e-07
3.70337e-07
3.70253e-07
3.70249e-07
3.70332e-07
3.70509e-07
3.70788e-07
3.71176e-07
3.71682e-07
3.72315e-07
3.73085e-07
3.74002e-07
3.75079e-07
3.76328e-07
3.77765e-07
3.7941e-07
3.81293e-07
3.92196e-07
3.92154e-07
3.92069e-07
3.91941e-07
3.91769e-07
3.91555e-07
3.91298e-07
3.91001e-07
3.90664e-07
3.90289e-07
3.89878e-07
3.89432e-07
3.88954e-07
3.88445e-07
3.87906e-07
3.87342e-07
3.86752e-07
3.86141e-07
3.85509e-07
3.8486e-07
3.84196e-07
3.8352e-07
3.82834e-07
3.82141e-07
3.81443e-07
3.80744e-07
3.80046e-07
3.79352e-07
3.78665e-07
3.77988e-07
3.77325e-07
3.76678e-07
3.76051e-07
3.75448e-07
3.74872e-07
3.74327e-07
3.73817e-07
3.73346e-07
3.72919e-07
3.72539e-07
3.72212e-07
3.71944e-07
3.71738e-07
3.71601e-07
3.71539e-07
3.71557e-07
3.71664e-07
3.71867e-07
3.72175e-07
3.72595e-07
3.73137e-07
3.73811e-07
3.74628e-07
3.75599e-07
3.76737e-07
3.78055e-07
3.79569e-07
3.81295e-07
3.83254e-07
3.85465e-07
3.91892e-07
3.91851e-07
3.91769e-07
3.91645e-07
3.91478e-07
3.9127e-07
3.91021e-07
3.90733e-07
3.90406e-07
3.90042e-07
3.89643e-07
3.8921e-07
3.88746e-07
3.88251e-07
3.87727e-07
3.87178e-07
3.86605e-07
3.8601e-07
3.85396e-07
3.84765e-07
3.84119e-07
3.83461e-07
3.82794e-07
3.82121e-07
3.81443e-07
3.80764e-07
3.80087e-07
3.79415e-07
3.7875e-07
3.78096e-07
3.77457e-07
3.76835e-07
3.76233e-07
3.75657e-07
3.75109e-07
3.74593e-07
3.74113e-07
3.73674e-07
3.73281e-07
3.72937e-07
3.72648e-07
3.72419e-07
3.72256e-07
3.72165e-07
3.72152e-07
3.72224e-07
3.72388e-07
3.72654e-07
3.73029e-07
3.73522e-07
3.74144e-07
3.74905e-07
3.75818e-07
3.76893e-07
3.78146e-07
3.79589e-07
3.81243e-07
3.8312e-07
3.85243e-07
3.87627e-07
3.91893e-07
3.91852e-07
3.9177e-07
3.91645e-07
3.91479e-07
3.91271e-07
3.91022e-07
3.90734e-07
3.90407e-07
3.90043e-07
3.89644e-07
3.89211e-07
3.88746e-07
3.88251e-07
3.87728e-07
3.87179e-07
3.86606e-07
3.86011e-07
3.85397e-07
3.84766e-07
3.8412e-07
3.83462e-07
3.82795e-07
3.82122e-07
3.81444e-07
3.80765e-07
3.80088e-07
3.79416e-07
3.78751e-07
3.78097e-07
3.77458e-07
3.76836e-07
3.76235e-07
3.75658e-07
3.7511e-07
3.74594e-07
3.74115e-07
3.73676e-07
3.73282e-07
3.72938e-07
3.72649e-07
3.72421e-07
3.72258e-07
3.72167e-07
3.72154e-07
3.72226e-07
3.7239e-07
3.72656e-07
3.73031e-07
3.73525e-07
3.74147e-07
3.74908e-07
3.7582e-07
3.76896e-07
3.78149e-07
3.79593e-07
3.81246e-07
3.83123e-07
3.85247e-07
3.87631e-07
3.92198e-07
3.92156e-07
3.92071e-07
3.91943e-07
3.91771e-07
3.91557e-07
3.913e-07
3.91003e-07
3.90666e-07
3.90291e-07
3.8988e-07
3.89435e-07
3.88956e-07
3.88447e-07
3.87909e-07
3.87344e-07
3.86755e-07
3.86143e-07
3.85512e-07
3.84863e-07
3.84199e-07
3.83523e-07
3.82837e-07
3.82144e-07
3.81446e-07
3.80747e-07
3.80049e-07
3.79355e-07
3.78668e-07
3.77991e-07
3.77328e-07
3.76682e-07
3.76055e-07
3.75452e-07
3.74876e-07
3.74331e-07
3.73821e-07
3.73351e-07
3.72923e-07
3.72544e-07
3.72217e-07
3.71949e-07
3.71743e-07
3.71606e-07
3.71544e-07
3.71563e-07
3.7167e-07
3.71874e-07
3.72182e-07
3.72602e-07
3.73145e-07
3.73819e-07
3.74636e-07
3.75607e-07
3.76745e-07
3.78064e-07
3.79579e-07
3.81305e-07
3.83264e-07
3.85476e-07
3.92818e-07
3.92773e-07
3.92682e-07
3.92546e-07
3.92364e-07
3.92136e-07
3.91863e-07
3.91548e-07
3.91191e-07
3.90793e-07
3.90358e-07
3.89886e-07
3.8938e-07
3.88842e-07
3.88273e-07
3.87677e-07
3.87055e-07
3.8641e-07
3.85744e-07
3.85059e-07
3.84359e-07
3.83646e-07
3.82922e-07
3.8219e-07
3.81452e-07
3.80712e-07
3.79973e-07
3.79236e-07
3.78505e-07
3.77783e-07
3.77073e-07
3.76378e-07
3.75701e-07
3.75046e-07
3.74415e-07
3.73814e-07
3.73244e-07
3.72711e-07
3.72217e-07
3.71768e-07
3.71367e-07
3.7102e-07
3.70731e-07
3.70504e-07
3.70347e-07
3.70263e-07
3.7026e-07
3.70343e-07
3.7052e-07
3.70799e-07
3.71188e-07
3.71694e-07
3.72328e-07
3.73099e-07
3.74017e-07
3.75094e-07
3.76343e-07
3.77781e-07
3.79427e-07
3.8131e-07
3.93771e-07
3.93722e-07
3.93623e-07
3.93474e-07
3.93275e-07
3.93026e-07
3.92728e-07
3.92384e-07
3.91995e-07
3.91563e-07
3.9109e-07
3.90577e-07
3.90029e-07
3.89445e-07
3.8883e-07
3.88185e-07
3.87514e-07
3.86817e-07
3.86099e-07
3.85361e-07
3.84606e-07
3.83837e-07
3.83056e-07
3.82266e-07
3.81469e-07
3.80669e-07
3.79867e-07
3.79067e-07
3.78271e-07
3.77482e-07
3.76703e-07
3.75936e-07
3.75186e-07
3.74454e-07
3.73744e-07
3.73059e-07
3.72403e-07
3.71778e-07
3.71188e-07
3.70638e-07
3.70131e-07
3.6967e-07
3.6926e-07
3.68905e-07
3.68611e-07
3.6838e-07
3.68218e-07
3.68129e-07
3.68121e-07
3.68199e-07
3.68369e-07
3.68639e-07
3.69014e-07
3.69503e-07
3.70112e-07
3.70851e-07
3.71731e-07
3.72767e-07
3.73979e-07
3.75407e-07
3.95089e-07
3.95034e-07
3.94923e-07
3.94756e-07
3.94532e-07
3.94253e-07
3.9392e-07
3.93535e-07
3.931e-07
3.92619e-07
3.92092e-07
3.91523e-07
3.90915e-07
3.9027e-07
3.89591e-07
3.8888e-07
3.8814e-07
3.87374e-07
3.86585e-07
3.85775e-07
3.84947e-07
3.84103e-07
3.83247e-07
3.8238e-07
3.81505e-07
3.80624e-07
3.79741e-07
3.78858e-07
3.77977e-07
3.77101e-07
3.76232e-07
3.75373e-07
3.74527e-07
3.73696e-07
3.72884e-07
3.72092e-07
3.71324e-07
3.70583e-07
3.69871e-07
3.69192e-07
3.68548e-07
3.67944e-07
3.67382e-07
3.66866e-07
3.66399e-07
3.65985e-07
3.65626e-07
3.65326e-07
3.65088e-07
3.64919e-07
3.6482e-07
3.64799e-07
3.64858e-07
3.65003e-07
3.65237e-07
3.65569e-07
3.66002e-07
3.66556e-07
3.67245e-07
3.68129e-07
3.96818e-07
3.96755e-07
3.96627e-07
3.96434e-07
3.96177e-07
3.95855e-07
3.95473e-07
3.95032e-07
3.94536e-07
3.93987e-07
3.93389e-07
3.92744e-07
3.92057e-07
3.91331e-07
3.90568e-07
3.89771e-07
3.88944e-07
3.8809e-07
3.87211e-07
3.8631e-07
3.8539e-07
3.84453e-07
3.83502e-07
3.8254e-07
3.81568e-07
3.8059e-07
3.79607e-07
3.78622e-07
3.77638e-07
3.76656e-07
3.75678e-07
3.74708e-07
3.73747e-07
3.72798e-07
3.71862e-07
3.70943e-07
3.70043e-07
3.69163e-07
3.68307e-07
3.67476e-07
3.66673e-07
3.65901e-07
3.65161e-07
3.64456e-07
3.63788e-07
3.63161e-07
3.62575e-07
3.62035e-07
3.61538e-07
3.61088e-07
3.60687e-07
3.60338e-07
3.60042e-07
3.59804e-07
3.5962e-07
3.59501e-07
3.59443e-07
3.59467e-07
3.59587e-07
3.59877e-07
3.99021e-07
3.98946e-07
3.98794e-07
3.98566e-07
3.98261e-07
3.97883e-07
3.97433e-07
3.96916e-07
3.96337e-07
3.95699e-07
3.95007e-07
3.94264e-07
3.93475e-07
3.92645e-07
3.91775e-07
3.90871e-07
3.89936e-07
3.88972e-07
3.87983e-07
3.86971e-07
3.85939e-07
3.84891e-07
3.83828e-07
3.82752e-07
3.81666e-07
3.80572e-07
3.79473e-07
3.78369e-07
3.77264e-07
3.7616e-07
3.75057e-07
3.73959e-07
3.72866e-07
3.71782e-07
3.70707e-07
3.69643e-07
3.68593e-07
3.67558e-07
3.6654e-07
3.65541e-07
3.64561e-07
3.63603e-07
3.62669e-07
3.61759e-07
3.60874e-07
3.60018e-07
3.59189e-07
3.58389e-07
3.57616e-07
3.5687e-07
3.56148e-07
3.55455e-07
3.54787e-07
3.54148e-07
3.53531e-07
3.52943e-07
3.52378e-07
3.51858e-07
3.51395e-07
3.51075e-07
4.01786e-07
4.01694e-07
4.01508e-07
4.0123e-07
4.00858e-07
4.00399e-07
3.99856e-07
3.99236e-07
3.98546e-07
3.9779e-07
3.96976e-07
3.96108e-07
3.95191e-07
3.9423e-07
3.93229e-07
3.92194e-07
3.91126e-07
3.9003e-07
3.8891e-07
3.87767e-07
3.86604e-07
3.85425e-07
3.84231e-07
3.83024e-07
3.81807e-07
3.80581e-07
3.79348e-07
3.7811e-07
3.76869e-07
3.75626e-07
3.74383e-07
3.73141e-07
3.71902e-07
3.70668e-07
3.69439e-07
3.68216e-07
3.67003e-07
3.65798e-07
3.64604e-07
3.63422e-07
3.62252e-07
3.61096e-07
3.59953e-07
3.58825e-07
3.5771e-07
3.5661e-07
3.55522e-07
3.54448e-07
3.53386e-07
3.52338e-07
3.513e-07
3.50272e-07
3.49241e-07
3.48209e-07
3.47164e-07
3.46117e-07
3.45056e-07
3.44008e-07
3.4298e-07
3.42077e-07
4.05238e-07
4.0512e-07
4.04882e-07
4.04526e-07
4.04056e-07
4.03478e-07
4.02802e-07
4.02037e-07
4.01195e-07
4.00283e-07
3.99311e-07
3.98284e-07
3.97209e-07
3.9609e-07
3.94932e-07
3.93741e-07
3.92519e-07
3.91271e-07
3.89999e-07
3.88706e-07
3.87396e-07
3.86069e-07
3.84729e-07
3.83376e-07
3.82013e-07
3.80642e-07
3.79263e-07
3.77878e-07
3.76489e-07
3.75096e-07
3.73701e-07
3.72304e-07
3.70908e-07
3.69512e-07
3.68118e-07
3.66728e-07
3.6534e-07
3.63957e-07
3.62579e-07
3.61207e-07
3.5984e-07
3.58479e-07
3.57125e-07
3.55777e-07
3.54435e-07
3.53099e-07
3.51767e-07
3.50441e-07
3.49113e-07
3.47784e-07
3.46443e-07
3.45086e-07
3.43702e-07
3.42293e-07
3.40849e-07
3.39382e-07
3.37871e-07
3.36341e-07
3.34788e-07
3.33326e-07
4.09585e-07
4.09423e-07
4.09098e-07
4.08614e-07
4.07981e-07
4.07215e-07
4.06334e-07
4.05356e-07
4.04297e-07
4.0317e-07
4.01983e-07
4.00746e-07
3.99464e-07
3.98144e-07
3.96791e-07
3.95408e-07
3.94001e-07
3.92573e-07
3.91127e-07
3.89664e-07
3.88186e-07
3.86697e-07
3.85195e-07
3.83684e-07
3.82164e-07
3.80636e-07
3.79101e-07
3.77559e-07
3.76012e-07
3.74461e-07
3.72905e-07
3.71346e-07
3.69784e-07
3.6822e-07
3.66654e-07
3.65087e-07
3.6352e-07
3.61952e-07
3.60383e-07
3.58815e-07
3.57246e-07
3.55678e-07
3.54108e-07
3.52536e-07
3.50961e-07
3.49382e-07
3.47794e-07
3.46198e-07
3.44586e-07
3.4296e-07
3.41313e-07
3.39648e-07
3.37957e-07
3.36245e-07
3.34488e-07
3.3269e-07
3.30815e-07
3.28886e-07
3.26898e-07
3.24979e-07
4.15106e-07
4.14892e-07
4.14461e-07
4.13815e-07
4.12972e-07
4.11958e-07
4.10807e-07
4.0955e-07
4.08211e-07
4.06807e-07
4.0535e-07
4.0385e-07
4.02313e-07
4.00747e-07
3.99157e-07
3.97547e-07
3.95923e-07
3.94285e-07
3.92637e-07
3.90979e-07
3.89312e-07
3.87638e-07
3.85957e-07
3.84269e-07
3.82575e-07
3.80874e-07
3.79168e-07
3.77456e-07
3.75738e-07
3.74015e-07
3.72287e-07
3.70554e-07
3.68817e-07
3.67074e-07
3.65327e-07
3.63576e-07
3.61822e-07
3.60063e-07
3.583e-07
3.56534e-07
3.54763e-07
3.52989e-07
3.5121e-07
3.49425e-07
3.47636e-07
3.45839e-07
3.44036e-07
3.42224e-07
3.404e-07
3.38563e-07
3.36706e-07
3.34824e-07
3.32906e-07
3.3094e-07
3.28909e-07
3.26801e-07
3.24603e-07
3.22328e-07
3.19976e-07
3.17646e-07
4.21807e-07
4.21374e-07
4.20588e-07
4.19497e-07
4.18173e-07
4.16684e-07
4.1509e-07
4.13428e-07
4.11721e-07
4.09978e-07
4.08207e-07
4.06413e-07
4.04601e-07
4.02779e-07
4.00951e-07
3.99119e-07
3.97287e-07
3.95453e-07
3.93618e-07
3.91781e-07
3.89941e-07
3.88099e-07
3.86253e-07
3.84402e-07
3.82547e-07
3.80686e-07
3.78819e-07
3.76945e-07
3.75065e-07
3.73176e-07
3.71281e-07
3.69377e-07
3.67465e-07
3.65545e-07
3.63617e-07
3.6168e-07
3.59736e-07
3.57782e-07
3.55821e-07
3.5385e-07
3.51873e-07
3.49884e-07
3.47889e-07
3.45881e-07
3.43867e-07
3.41836e-07
3.39799e-07
3.37741e-07
3.35676e-07
3.33583e-07
3.31483e-07
3.29345e-07
3.27204e-07
3.25014e-07
3.22826e-07
3.20575e-07
3.18335e-07
3.16015e-07
3.13722e-07
3.11347e-07
4.33543e-07
4.32792e-07
4.31378e-07
4.29427e-07
4.27142e-07
4.24722e-07
4.22292e-07
4.19902e-07
4.17556e-07
4.15241e-07
4.12947e-07
4.10675e-07
4.08429e-07
4.06215e-07
4.04035e-07
4.01885e-07
3.99764e-07
3.97664e-07
3.95583e-07
3.93515e-07
3.91458e-07
3.89408e-07
3.87364e-07
3.85323e-07
3.83282e-07
3.8124e-07
3.79194e-07
3.77143e-07
3.75085e-07
3.7302e-07
3.70947e-07
3.68864e-07
3.66772e-07
3.64668e-07
3.62556e-07
3.60431e-07
3.58297e-07
3.56149e-07
3.53993e-07
3.51822e-07
3.49646e-07
3.47451e-07
3.45255e-07
3.43036e-07
3.40821e-07
3.38579e-07
3.36347e-07
3.34081e-07
3.31841e-07
3.29553e-07
3.27316e-07
3.25012e-07
3.22799e-07
3.20489e-07
3.18336e-07
3.16034e-07
3.13992e-07
3.11704e-07
3.09814e-07
3.07445e-07
4.42284e-07
4.40557e-07
4.37911e-07
4.34786e-07
4.3157e-07
4.28475e-07
4.25552e-07
4.22765e-07
4.20064e-07
4.17417e-07
4.14819e-07
4.12276e-07
4.09794e-07
4.07373e-07
4.05006e-07
4.02685e-07
4.004e-07
3.98144e-07
3.9591e-07
3.93693e-07
3.9149e-07
3.89295e-07
3.87107e-07
3.8492e-07
3.82733e-07
3.80542e-07
3.78346e-07
3.76142e-07
3.73928e-07
3.71705e-07
3.6947e-07
3.67222e-07
3.64962e-07
3.62688e-07
3.60401e-07
3.581e-07
3.55787e-07
3.53458e-07
3.51119e-07
3.48763e-07
3.46399e-07
3.44016e-07
3.4163e-07
3.39218e-07
3.36812e-07
3.3437e-07
3.31947e-07
3.29472e-07
3.2704e-07
3.24527e-07
3.22108e-07
3.19558e-07
3.17204e-07
3.14638e-07
3.12484e-07
3.09967e-07
3.08348e-07
3.0596e-07
3.05484e-07
3.02809e-07
4.90327e-07
4.76205e-07
4.62437e-07
4.5186e-07
4.44437e-07
4.39046e-07
4.34595e-07
4.30516e-07
4.26641e-07
4.22976e-07
4.1956e-07
4.16396e-07
4.1345e-07
4.10673e-07
4.08018e-07
4.05452e-07
4.02954e-07
4.00509e-07
3.98109e-07
3.95743e-07
3.93403e-07
3.91082e-07
3.88772e-07
3.86469e-07
3.84168e-07
3.81866e-07
3.79558e-07
3.77243e-07
3.74918e-07
3.72583e-07
3.70235e-07
3.67874e-07
3.65499e-07
3.63109e-07
3.60706e-07
3.58288e-07
3.55856e-07
3.5341e-07
3.50952e-07
3.4848e-07
3.45995e-07
3.43499e-07
3.40991e-07
3.38471e-07
3.35939e-07
3.33394e-07
3.30837e-07
3.28263e-07
3.25678e-07
3.23065e-07
3.20446e-07
3.17769e-07
3.15116e-07
3.12315e-07
3.09668e-07
3.06536e-07
3.04179e-07
2.99773e-07
2.99465e-07
2.88868e-07
3.28693e-07
2.78156e-07
2.5727e-07
2.3971e-07
2.22129e-07
2.04382e-07
1.84593e-07
1.63431e-07
1.38766e-07
1.12205e-07
8.13446e-08
4.90296e-08
1.23449e-08
-2.44542e-08
-6.49745e-08
-1.03493e-07
-1.4483e-07
-1.81724e-07
-2.20544e-07
-2.52722e-07
-2.85858e-07
-3.10555e-07
-3.36093e-07
-3.51423e-07
-3.68791e-07
-3.73712e-07
-3.86319e-07
-3.80096e-07
-3.95754e-07
-4.65955e-07
3.14811e-07
2.59719e-07
2.45827e-07
2.30834e-07
2.1393e-07
1.96591e-07
1.77114e-07
1.561e-07
1.31634e-07
1.0543e-07
7.52055e-08
4.37488e-08
8.2397e-09
-2.7235e-08
-6.62318e-08
-1.03289e-07
-1.42847e-07
-1.78366e-07
-2.15481e-07
-2.46857e-07
-2.79513e-07
-3.03751e-07
-3.30146e-07
-3.45343e-07
-3.6478e-07
-3.69346e-07
-3.82387e-07
-3.81471e-07
-3.77206e-07
-5.10151e-07
3.0263e-07
2.57259e-07
2.44415e-07
2.299e-07
2.12504e-07
1.94171e-07
1.74178e-07
1.52817e-07
1.28307e-07
1.0197e-07
7.19798e-08
4.06217e-08
5.65698e-09
-2.94544e-08
-6.76144e-08
-1.04073e-07
-1.42829e-07
-1.77979e-07
-2.14932e-07
-2.45625e-07
-2.78167e-07
-3.0248e-07
-3.28501e-07
-3.44864e-07
-3.63458e-07
-3.72502e-07
-3.82473e-07
-3.95045e-07
-3.69129e-07
-4.69226e-07
2.92464e-07
2.53165e-07
2.38251e-07
2.24231e-07
2.0754e-07
1.89814e-07
1.70017e-07
1.48484e-07
1.24029e-07
9.75321e-08
6.78606e-08
3.652e-08
2.27798e-09
-3.26201e-08
-6.9663e-08
-1.05895e-07
-1.43329e-07
-1.78363e-07
-2.13599e-07
-2.44963e-07
-2.7587e-07
-3.02052e-07
-3.26613e-07
-3.46455e-07
-3.62718e-07
-3.78237e-07
-3.81542e-07
-4.06441e-07
-3.70908e-07
-4.4234e-07
2.82655e-07
2.50581e-07
2.34797e-07
2.21905e-07
2.05778e-07
1.87257e-07
1.66945e-07
1.44836e-07
1.20342e-07
9.34207e-08
6.39959e-08
3.23574e-08
-1.20444e-09
-3.62461e-08
-7.21549e-08
-1.08522e-07
-1.44456e-07
-1.79863e-07
-2.13468e-07
-2.46084e-07
-2.75292e-07
-3.03671e-07
-3.26086e-07
-3.5021e-07
-3.62792e-07
-3.84825e-07
-3.81964e-07
-4.10182e-07
-3.8199e-07
-4.17214e-07
2.74076e-07
2.4886e-07
2.32239e-07
2.18878e-07
2.03022e-07
1.84398e-07
1.63909e-07
1.41298e-07
1.16691e-07
8.93033e-08
6.00162e-08
2.79985e-08
-5.01925e-09
-4.03156e-08
-7.5209e-08
-1.11826e-07
-1.46329e-07
-1.82277e-07
-2.14214e-07
-2.4799e-07
-2.75285e-07
-3.05881e-07
-3.26343e-07
-3.53569e-07
-3.64453e-07
-3.88931e-07
-3.86945e-07
-4.09715e-07
-3.9894e-07
-4.12437e-07
2.67058e-07
2.47351e-07
2.30601e-07
2.164e-07
2.00677e-07
1.81967e-07
1.61232e-07
1.3803e-07
1.13134e-07
8.52258e-08
5.58954e-08
2.3493e-08
-9.20974e-09
-4.47007e-08
-7.88676e-08
-1.15565e-07
-1.49017e-07
-1.85145e-07
-2.15933e-07
-2.50184e-07
-2.76591e-07
-3.08052e-07
-3.28384e-07
-3.56274e-07
-3.68764e-07
-3.91953e-07
-3.96166e-07
-4.12515e-07
-4.13574e-07
-4.19403e-07
2.61815e-07
2.45935e-07
2.2969e-07
2.14528e-07
1.98568e-07
1.79695e-07
1.58639e-07
1.34864e-07
1.09503e-07
8.11074e-08
5.1517e-08
1.88355e-08
-1.38459e-08
-4.93325e-08
-8.31711e-08
-1.19598e-07
-1.52551e-07
-1.88269e-07
-2.18696e-07
-2.52517e-07
-2.79195e-07
-3.10147e-07
-3.32019e-07
-3.58823e-07
-3.75046e-07
-3.95711e-07
-4.06328e-07
-4.18623e-07
-4.25297e-07
-4.30821e-07
2.5842e-07
2.44623e-07
2.29027e-07
2.13218e-07
1.96699e-07
1.77507e-07
1.56028e-07
1.3172e-07
1.05745e-07
7.68983e-08
4.68488e-08
1.39959e-08
-1.89252e-08
-5.42155e-08
-8.80712e-08
-1.23919e-07
-1.56835e-07
-1.91677e-07
-2.22337e-07
-2.55106e-07
-2.82726e-07
-3.12495e-07
-3.36422e-07
-3.619e-07
-3.81427e-07
-4.00932e-07
-4.15417e-07
-4.27761e-07
-4.36757e-07
-4.43776e-07
2.56636e-07
2.4348e-07
2.28441e-07
2.12275e-07
1.95029e-07
1.75338e-07
1.53308e-07
1.28485e-07
1.01799e-07
7.25125e-08
4.18717e-08
8.89824e-09
-2.4414e-08
-5.94151e-08
-9.34675e-08
-1.28601e-07
-1.6167e-07
-1.95479e-07
-2.26513e-07
-2.58125e-07
-2.86627e-07
-3.1536e-07
-3.40858e-07
-3.65754e-07
-3.87412e-07
-4.07216e-07
-4.2383e-07
-4.37593e-07
-4.48508e-07
-4.5756e-07
2.55995e-07
2.42644e-07
2.27818e-07
2.11412e-07
1.93429e-07
1.73105e-07
1.50399e-07
1.25036e-07
9.76023e-08
6.78509e-08
3.65684e-08
3.45179e-09
-3.02802e-08
-6.50135e-08
-9.9262e-08
-1.33725e-07
-1.66876e-07
-1.99758e-07
-2.30958e-07
-2.61646e-07
-2.90606e-07
-3.18752e-07
-3.45132e-07
-3.70108e-07
-3.93055e-07
-4.13795e-07
-4.32055e-07
-4.4758e-07
-4.6056e-07
-4.71705e-07
2.55932e-07
2.42157e-07
2.27172e-07
2.10433e-07
1.91728e-07
1.70694e-07
1.47229e-07
1.21263e-07
9.3079e-08
6.28137e-08
3.0896e-08
-2.43096e-09
-3.65359e-08
-7.10865e-08
-1.0543e-07
-1.39347e-07
-1.72397e-07
-2.04533e-07
-2.3561e-07
-2.65621e-07
-2.94639e-07
-3.22488e-07
-3.49303e-07
-3.74623e-07
-3.98527e-07
-4.2038e-07
-4.40201e-07
-4.57545e-07
-4.72663e-07
-4.86102e-07
2.56046e-07
2.41882e-07
2.2646e-07
2.09211e-07
1.89771e-07
1.67986e-07
1.43721e-07
1.17077e-07
8.81385e-08
5.73021e-08
2.47712e-08
-8.83756e-09
-4.32562e-08
-7.77077e-08
-1.12036e-07
-1.45513e-07
-1.78298e-07
-2.09807e-07
-2.40543e-07
-2.69985e-07
-2.9882e-07
-3.26437e-07
-3.53479e-07
-3.79152e-07
-4.03914e-07
-4.26839e-07
-4.48252e-07
-4.67341e-07
-4.84706e-07
-5.00395e-07
2.56092e-07
2.41611e-07
2.25599e-07
2.0768e-07
1.87466e-07
1.64891e-07
1.39793e-07
1.12391e-07
8.26775e-08
5.12063e-08
1.80752e-08
-1.58787e-08
-5.05661e-08
-8.49784e-08
-1.19211e-07
-1.52301e-07
-1.84706e-07
-2.15624e-07
-2.45874e-07
-2.74748e-07
-3.03241e-07
-3.30582e-07
-3.57707e-07
-3.8366e-07
-4.09184e-07
-4.33116e-07
-4.56086e-07
-4.76909e-07
-4.96528e-07
-5.1452e-07
2.55975e-07
2.4115e-07
2.24502e-07
2.05823e-07
1.84778e-07
1.61348e-07
1.35364e-07
1.07111e-07
7.65733e-08
4.43943e-08
1.06544e-08
-2.36997e-08
-5.86322e-08
-9.30404e-08
-1.2712e-07
-1.59832e-07
-1.91771e-07
-2.22074e-07
-2.51724e-07
-2.79965e-07
-3.07972e-07
-3.34937e-07
-3.61985e-07
-3.88106e-07
-4.14245e-07
-4.39111e-07
-4.6355e-07
-4.86115e-07
-5.07991e-07
-5.28343e-07
2.55749e-07
2.40459e-07
2.23154e-07
2.03659e-07
1.81704e-07
1.5731e-07
1.30338e-07
1.01116e-07
6.96754e-08
3.6702e-08
2.32138e-09
-3.24841e-08
-6.76521e-08
-1.02072e-07
-1.35949e-07
-1.68259e-07
-1.99645e-07
-2.2927e-07
-2.58196e-07
-2.85698e-07
-3.13055e-07
-3.39496e-07
-3.66271e-07
-3.92402e-07
-4.18955e-07
-4.44646e-07
-4.7041e-07
-4.94726e-07
-5.18837e-07
-5.41661e-07
2.5559e-07
2.39619e-07
2.21597e-07
2.01216e-07
1.78227e-07
1.52701e-07
1.24585e-07
9.42441e-08
6.17905e-08
2.7923e-08
-7.14708e-09
-4.24503e-08
-7.78457e-08
-1.12272e-07
-1.45886e-07
-1.77742e-07
-2.08472e-07
-2.3732e-07
-2.65382e-07
-2.91993e-07
-3.18517e-07
-3.4423e-07
-3.70501e-07
-3.96412e-07
-4.23132e-07
-4.49464e-07
-4.76348e-07
-5.02381e-07
-5.28644e-07
-5.54133e-07
2.55746e-07
2.38795e-07
2.19881e-07
1.9845e-07
1.74234e-07
1.47359e-07
1.17898e-07
8.6261e-08
5.26646e-08
1.77991e-08
-1.80139e-08
-5.38479e-08
-8.94514e-08
-1.23854e-07
-1.57124e-07
-1.88446e-07
-2.18393e-07
-2.46338e-07
-2.73366e-07
-2.98907e-07
-3.24385e-07
-3.49116e-07
-3.74626e-07
-3.99992e-07
-4.26606e-07
-4.53246e-07
-4.81031e-07
-5.08563e-07
-5.36898e-07
-5.65048e-07
2.56342e-07
2.381e-07
2.17961e-07
1.95172e-07
1.69457e-07
1.40984e-07
1.09963e-07
7.68483e-08
4.19718e-08
6.01172e-09
-3.05903e-08
-6.69658e-08
-1.0274e-07
-1.37061e-07
-1.69885e-07
-2.00567e-07
-2.29576e-07
-2.56475e-07
-2.82268e-07
-3.06544e-07
-3.30717e-07
-3.54191e-07
-3.7862e-07
-4.03062e-07
-4.29213e-07
-4.55701e-07
-4.84075e-07
-5.12676e-07
-5.42893e-07
-5.73389e-07
2.5715e-07
2.37352e-07
2.15515e-07
1.90954e-07
1.63428e-07
1.33117e-07
1.0033e-07
6.55665e-08
2.92787e-08
-7.85518e-09
-4.52775e-08
-8.21771e-08
-1.18065e-07
-1.52217e-07
-1.84476e-07
-2.14389e-07
-2.42291e-07
-2.67978e-07
-2.92298e-07
-3.15096e-07
-3.37642e-07
-3.59568e-07
-3.82492e-07
-4.05601e-07
-4.30787e-07
-4.56576e-07
-4.85035e-07
-5.14035e-07
-5.45734e-07
-5.77826e-07
2.57412e-07
2.35786e-07
2.11901e-07
1.85213e-07
1.55566e-07
1.23164e-07
8.83993e-08
5.18207e-08
1.3997e-08
-2.4373e-08
-6.26304e-08
-1.00008e-07
-1.35931e-07
-1.69792e-07
-2.01351e-07