/*--------------------------------*- C++ -*----------------------------------*\
| =========                 |                                                 |
| \\      /  F ield         | OpenFOAM: The Open Source CFD Toolbox           |
|  \\    /   O peration     | Version:  2312                                  |
|   \\  /    A nd           | Website:  www.openfoam.com                      |
|    \\/     M anipulation  |                                                 |
\*---------------------------------------------------------------------------*/
FoamFile
{
    version     2.0;
    format      ascii;
    arch        "LSB;label=32;scalar=64";
    class       volScalarField;
    location    "34000";
    object      p;
}
// * * * * * * * * * * * * * * * * * * * * * * * * * * * * * * * * * * * * * //

dimensions      [0 2 -2 0 0 0 0];

internalField   nonuniform List<scalar> 
2685
(
3.98481e-08
3.94152e-08
3.89756e-08
3.85297e-08
3.80782e-08
3.7622e-08
3.71616e-08
3.66983e-08
3.62323e-08
3.57627e-08
3.52893e-08
3.48116e-08
3.43295e-08
3.38427e-08
3.33516e-08
3.28566e-08
3.23589e-08
3.18597e-08
3.13607e-08
3.08634e-08
3.0369e-08
2.98785e-08
2.93931e-08
2.89139e-08
2.84408e-08
2.79737e-08
2.75123e-08
2.70558e-08
2.66035e-08
2.61548e-08
2.57089e-08
2.52652e-08
2.48231e-08
2.43821e-08
2.39419e-08
2.35022e-08
2.30627e-08
2.26234e-08
2.2184e-08
2.17446e-08
2.13052e-08
2.08657e-08
2.04261e-08
1.99865e-08
1.95469e-08
1.91072e-08
1.86676e-08
1.82279e-08
1.77883e-08
1.73488e-08
1.69092e-08
1.64697e-08
1.60302e-08
1.55907e-08
1.51513e-08
1.47119e-08
1.42726e-08
1.38333e-08
1.3394e-08
1.29547e-08
1.25154e-08
1.20762e-08
1.1637e-08
1.11978e-08
1.07586e-08
1.03194e-08
9.8802e-09
9.44104e-09
9.00188e-09
8.56273e-09
8.12359e-09
7.68445e-09
7.24532e-09
6.80619e-09
6.36706e-09
5.92794e-09
5.48883e-09
5.04971e-09
4.6106e-09
4.17149e-09
3.73238e-09
3.29327e-09
2.85416e-09
2.41506e-09
1.97595e-09
1.53685e-09
1.09775e-09
6.58649e-10
2.19549e-10
3.97328e-08
3.92858e-08
3.88374e-08
3.83906e-08
3.79476e-08
3.75095e-08
3.7076e-08
3.66442e-08
3.62101e-08
3.57724e-08
3.53281e-08
3.48741e-08
3.44084e-08
3.39325e-08
3.34424e-08
3.29418e-08
3.24333e-08
3.19201e-08
3.14055e-08
3.08928e-08
3.03846e-08
2.98832e-08
2.93893e-08
2.89036e-08
2.84263e-08
2.79569e-08
2.74948e-08
2.70388e-08
2.65879e-08
2.61411e-08
2.56973e-08
2.52557e-08
2.48155e-08
2.43762e-08
2.39377e-08
2.34993e-08
2.30609e-08
2.26223e-08
2.21835e-08
2.17445e-08
2.13053e-08
2.08659e-08
2.04264e-08
1.99868e-08
1.95472e-08
1.91075e-08
1.86678e-08
1.82282e-08
1.77885e-08
1.73489e-08
1.69094e-08
1.64698e-08
1.60303e-08
1.55909e-08
1.51514e-08
1.4712e-08
1.42727e-08
1.38334e-08
1.3394e-08
1.29548e-08
1.25155e-08
1.20763e-08
1.1637e-08
1.11978e-08
1.07586e-08
1.03194e-08
9.88025e-09
9.44109e-09
9.00193e-09
8.56277e-09
8.12363e-09
7.68449e-09
7.24535e-09
6.80622e-09
6.36709e-09
5.92797e-09
5.48885e-09
5.04973e-09
4.61062e-09
4.1715e-09
3.73239e-09
3.29328e-09
2.85417e-09
2.41507e-09
1.97596e-09
1.53686e-09
1.09775e-09
6.58652e-10
2.1955e-10
3.96433e-08
3.92181e-08
3.87854e-08
3.83472e-08
3.79057e-08
3.74628e-08
3.70196e-08
3.65759e-08
3.61312e-08
3.56834e-08
3.52311e-08
3.4773e-08
3.43079e-08
3.3833e-08
3.33517e-08
3.2863e-08
3.23669e-08
3.18687e-08
3.13685e-08
3.08686e-08
3.03715e-08
2.98789e-08
2.93921e-08
2.89116e-08
2.84377e-08
2.79702e-08
2.75087e-08
2.70524e-08
2.66006e-08
2.61524e-08
2.57071e-08
2.52639e-08
2.48224e-08
2.4382e-08
2.39419e-08
2.35023e-08
2.30631e-08
2.26237e-08
2.21843e-08
2.17449e-08
2.13055e-08
2.08659e-08
2.04263e-08
1.99867e-08
1.9547e-08
1.91073e-08
1.86677e-08
1.8228e-08
1.77884e-08
1.73488e-08
1.69092e-08
1.64697e-08
1.60302e-08
1.55908e-08
1.51514e-08
1.4712e-08
1.42726e-08
1.38333e-08
1.3394e-08
1.29547e-08
1.25155e-08
1.20762e-08
1.1637e-08
1.11978e-08
1.07586e-08
1.03194e-08
9.88023e-09
9.44106e-09
9.00191e-09
8.56276e-09
8.12361e-09
7.68447e-09
7.24534e-09
6.80621e-09
6.36708e-09
5.92796e-09
5.48884e-09
5.04972e-09
4.61061e-09
4.1715e-09
3.73239e-09
3.29328e-09
2.85417e-09
2.41506e-09
1.97596e-09
1.53686e-09
1.09775e-09
6.5865e-10
2.19549e-10
3.93961e-08
3.89666e-08
3.85324e-08
3.80962e-08
3.76601e-08
3.72256e-08
3.67935e-08
3.63631e-08
3.59333e-08
3.55025e-08
3.50689e-08
3.46303e-08
3.41846e-08
3.373e-08
3.3266e-08
3.2793e-08
3.23141e-08
3.18286e-08
3.13418e-08
3.08515e-08
3.03631e-08
2.98778e-08
2.93964e-08
2.89197e-08
2.84481e-08
2.79816e-08
2.75201e-08
2.70631e-08
2.66101e-08
2.61606e-08
2.57138e-08
2.52692e-08
2.48263e-08
2.43846e-08
2.39437e-08
2.35034e-08
2.30633e-08
2.26237e-08
2.21841e-08
2.17446e-08
2.1305e-08
2.08654e-08
2.04258e-08
1.99862e-08
1.95466e-08
1.9107e-08
1.86674e-08
1.82278e-08
1.77882e-08
1.73487e-08
1.69092e-08
1.64697e-08
1.60302e-08
1.55908e-08
1.51514e-08
1.4712e-08
1.42727e-08
1.38334e-08
1.33941e-08
1.29548e-08
1.25156e-08
1.20763e-08
1.16371e-08
1.11979e-08
1.07587e-08
1.03195e-08
9.88032e-09
9.44115e-09
9.00199e-09
8.56284e-09
8.12369e-09
7.68455e-09
7.24541e-09
6.80627e-09
6.36714e-09
5.92802e-09
5.48889e-09
5.04977e-09
4.61065e-09
4.17154e-09
3.73242e-09
3.29331e-09
2.8542e-09
2.41509e-09
1.97598e-09
1.53687e-09
1.09777e-09
6.58659e-10
2.19553e-10
3.91447e-08
3.87373e-08
3.83246e-08
3.79073e-08
3.74864e-08
3.70629e-08
3.66375e-08
3.62103e-08
3.57811e-08
3.53491e-08
3.49134e-08
3.44732e-08
3.40279e-08
3.3577e-08
3.31208e-08
3.26595e-08
3.21942e-08
3.17257e-08
3.12537e-08
3.07834e-08
3.03122e-08
2.98416e-08
2.9373e-08
2.89068e-08
2.84434e-08
2.79832e-08
2.75259e-08
2.70716e-08
2.66199e-08
2.61706e-08
2.57234e-08
2.52779e-08
2.48338e-08
2.43908e-08
2.39486e-08
2.35072e-08
2.30662e-08
2.26256e-08
2.21853e-08
2.17452e-08
2.13052e-08
2.08654e-08
2.04256e-08
1.99858e-08
1.95462e-08
1.91065e-08
1.86669e-08
1.82273e-08
1.77878e-08
1.73483e-08
1.69088e-08
1.64694e-08
1.60299e-08
1.55906e-08
1.51512e-08
1.47119e-08
1.42725e-08
1.38332e-08
1.3394e-08
1.29547e-08
1.25155e-08
1.20762e-08
1.1637e-08
1.11978e-08
1.07586e-08
1.03194e-08
9.88027e-09
9.44111e-09
9.00195e-09
8.5628e-09
8.12366e-09
7.68452e-09
7.24538e-09
6.80625e-09
6.36712e-09
5.928e-09
5.48888e-09
5.04976e-09
4.61064e-09
4.17153e-09
3.73241e-09
3.2933e-09
2.85419e-09
2.41508e-09
1.97598e-09
1.53687e-09
1.09776e-09
6.58656e-10
2.19552e-10
3.89241e-08
3.85239e-08
3.8118e-08
3.77074e-08
3.7293e-08
3.68755e-08
3.64556e-08
3.60334e-08
3.56088e-08
3.51816e-08
3.47515e-08
3.43181e-08
3.3881e-08
3.344e-08
3.2995e-08
3.25461e-08
3.20937e-08
3.16382e-08
3.11804e-08
3.07212e-08
3.02612e-08
2.98013e-08
2.93421e-08
2.8884e-08
2.84274e-08
2.79724e-08
2.75192e-08
2.70678e-08
2.66182e-08
2.61702e-08
2.57237e-08
2.52785e-08
2.48345e-08
2.43913e-08
2.3949e-08
2.35073e-08
2.30661e-08
2.26253e-08
2.21848e-08
2.17446e-08
2.13045e-08
2.08646e-08
2.04248e-08
1.99851e-08
1.95454e-08
1.91058e-08
1.86662e-08
1.82267e-08
1.77873e-08
1.73478e-08
1.69084e-08
1.6469e-08
1.60296e-08
1.55903e-08
1.5151e-08
1.47117e-08
1.42724e-08
1.38331e-08
1.33939e-08
1.29546e-08
1.25154e-08
1.20762e-08
1.1637e-08
1.11978e-08
1.07586e-08
1.03195e-08
9.88029e-09
9.44113e-09
9.00198e-09
8.56283e-09
8.12368e-09
7.68455e-09
7.24541e-09
6.80628e-09
6.36715e-09
5.92803e-09
5.48891e-09
5.04979e-09
4.61067e-09
4.17155e-09
3.73244e-09
3.29332e-09
2.85421e-09
2.4151e-09
1.97599e-09
1.53688e-09
1.09777e-09
6.58664e-10
2.19555e-10
3.87057e-08
3.83147e-08
3.7919e-08
3.75189e-08
3.71149e-08
3.67074e-08
3.62965e-08
3.58824e-08
3.54651e-08
3.50445e-08
3.46205e-08
3.41929e-08
3.37618e-08
3.3327e-08
3.28888e-08
3.24473e-08
3.20029e-08
3.15562e-08
3.11075e-08
3.06576e-08
3.02068e-08
2.97554e-08
2.9304e-08
2.8853e-08
2.84026e-08
2.7953e-08
2.75043e-08
2.70565e-08
2.66098e-08
2.61641e-08
2.57193e-08
2.52753e-08
2.48321e-08
2.43896e-08
2.39476e-08
2.35061e-08
2.3065e-08
2.26243e-08
2.21838e-08
2.17436e-08
2.13035e-08
2.08636e-08
2.04238e-08
1.99841e-08
1.95445e-08
1.91049e-08
1.86654e-08
1.8226e-08
1.77865e-08
1.73471e-08
1.69078e-08
1.64684e-08
1.60291e-08
1.55898e-08
1.51506e-08
1.47113e-08
1.42721e-08
1.38328e-08
1.33936e-08
1.29544e-08
1.25152e-08
1.2076e-08
1.16368e-08
1.11977e-08
1.07585e-08
1.03193e-08
9.88018e-09
9.44103e-09
9.00189e-09
8.56275e-09
8.12362e-09
7.68449e-09
7.24536e-09
6.80623e-09
6.36711e-09
5.92799e-09
5.48887e-09
5.04976e-09
4.61064e-09
4.17153e-09
3.73242e-09
3.29331e-09
2.8542e-09
2.41509e-09
1.97598e-09
1.53687e-09
1.09776e-09
6.58658e-10
2.19552e-10
3.85197e-08
3.81376e-08
3.77503e-08
3.73581e-08
3.69613e-08
3.65603e-08
3.61554e-08
3.57467e-08
3.53344e-08
3.49186e-08
3.44995e-08
3.4077e-08
3.36514e-08
3.32226e-08
3.27909e-08
3.23565e-08
3.19197e-08
3.14807e-08
3.104e-08
3.05977e-08
3.01544e-08
2.97101e-08
2.92652e-08
2.882e-08
2.83748e-08
2.79297e-08
2.7485e-08
2.70406e-08
2.65967e-08
2.61533e-08
2.57104e-08
2.5268e-08
2.4826e-08
2.43845e-08
2.39433e-08
2.35024e-08
2.30618e-08
2.26215e-08
2.21813e-08
2.17414e-08
2.13016e-08
2.08618e-08
2.04222e-08
1.99827e-08
1.95432e-08
1.91038e-08
1.86644e-08
1.8225e-08
1.77857e-08
1.73464e-08
1.69071e-08
1.64679e-08
1.60286e-08
1.55894e-08
1.51502e-08
1.47109e-08
1.42717e-08
1.38326e-08
1.33934e-08
1.29542e-08
1.2515e-08
1.20759e-08
1.16367e-08
1.11976e-08
1.07584e-08
1.03193e-08
9.88013e-09
9.44099e-09
9.00186e-09
8.56273e-09
8.1236e-09
7.68447e-09
7.24535e-09
6.80623e-09
6.36711e-09
5.92799e-09
5.48888e-09
5.04976e-09
4.61065e-09
4.17154e-09
3.73243e-09
3.29332e-09
2.85421e-09
2.4151e-09
1.97599e-09
1.53688e-09
1.09777e-09
6.58663e-10
2.19555e-10
3.83624e-08
3.79853e-08
3.76031e-08
3.72161e-08
3.68246e-08
3.64289e-08
3.60292e-08
3.56258e-08
3.52188e-08
3.48084e-08
3.43946e-08
3.39776e-08
3.35574e-08
3.31343e-08
3.27085e-08
3.228e-08
3.18491e-08
3.14161e-08
3.09812e-08
3.05447e-08
3.01068e-08
2.96679e-08
2.92281e-08
2.87877e-08
2.83468e-08
2.79056e-08
2.74643e-08
2.7023e-08
2.65818e-08
2.61406e-08
2.56997e-08
2.52589e-08
2.48183e-08
2.43779e-08
2.39376e-08
2.34976e-08
2.30576e-08
2.26179e-08
2.21782e-08
2.17386e-08
2.12991e-08
2.08596e-08
2.04202e-08
1.99809e-08
1.95416e-08
1.91023e-08
1.86631e-08
1.82239e-08
1.77847e-08
1.73455e-08
1.69063e-08
1.64671e-08
1.60279e-08
1.55888e-08
1.51496e-08
1.47105e-08
1.42713e-08
1.38322e-08
1.3393e-08
1.29539e-08
1.25148e-08
1.20756e-08
1.16365e-08
1.11974e-08
1.07582e-08
1.03191e-08
9.87999e-09
9.44087e-09
9.00175e-09
8.56263e-09
8.12351e-09
7.6844e-09
7.24528e-09
6.80617e-09
6.36706e-09
5.92795e-09
5.48884e-09
5.04973e-09
4.61062e-09
4.17151e-09
3.7324e-09
3.29329e-09
2.85419e-09
2.41508e-09
1.97597e-09
1.53687e-09
1.09776e-09
6.58657e-10
2.19552e-10
3.82239e-08
3.78518e-08
3.74747e-08
3.70928e-08
3.67065e-08
3.63159e-08
3.59212e-08
3.55226e-08
3.51203e-08
3.47144e-08
3.43051e-08
3.38926e-08
3.34769e-08
3.30584e-08
3.26371e-08
3.22133e-08
3.17871e-08
3.13588e-08
3.09287e-08
3.04968e-08
3.00635e-08
2.9629e-08
2.91933e-08
2.87568e-08
2.83196e-08
2.78818e-08
2.74436e-08
2.70051e-08
2.65662e-08
2.61272e-08
2.56881e-08
2.52489e-08
2.48097e-08
2.43705e-08
2.39312e-08
2.3492e-08
2.30529e-08
2.26137e-08
2.21745e-08
2.17354e-08
2.12963e-08
2.08572e-08
2.04181e-08
1.9979e-08
1.954e-08
1.91009e-08
1.86618e-08
1.82227e-08
1.77837e-08
1.73446e-08
1.69055e-08
1.64664e-08
1.60273e-08
1.55882e-08
1.51491e-08
1.471e-08
1.42709e-08
1.38318e-08
1.33927e-08
1.29536e-08
1.25145e-08
1.20754e-08
1.16363e-08
1.11972e-08
1.07581e-08
1.0319e-08
9.8799e-09
9.44079e-09
9.00169e-09
8.56258e-09
8.12347e-09
7.68436e-09
7.24525e-09
6.80615e-09
6.36704e-09
5.92793e-09
5.48882e-09
5.04972e-09
4.61061e-09
4.17151e-09
3.7324e-09
3.29329e-09
2.85419e-09
2.41508e-09
1.97598e-09
1.53687e-09
1.09776e-09
6.58659e-10
2.19553e-10
3.81153e-08
3.77465e-08
3.73728e-08
3.69943e-08
3.66114e-08
3.62242e-08
3.58329e-08
3.54377e-08
3.50389e-08
3.46365e-08
3.42308e-08
3.38218e-08
3.34099e-08
3.29951e-08
3.25776e-08
3.21576e-08
3.17353e-08
3.13109e-08
3.08846e-08
3.04564e-08
3.00267e-08
2.95956e-08
2.91633e-08
2.87299e-08
2.82956e-08
2.78604e-08
2.74247e-08
2.69883e-08
2.65515e-08
2.61143e-08
2.56768e-08
2.52391e-08
2.48011e-08
2.4363e-08
2.39248e-08
2.34864e-08
2.30479e-08
2.26094e-08
2.21708e-08
2.17321e-08
2.12934e-08
2.08546e-08
2.04159e-08
1.9977e-08
1.95382e-08
1.90993e-08
1.86604e-08
1.82215e-08
1.77826e-08
1.73436e-08
1.69046e-08
1.64656e-08
1.60266e-08
1.55876e-08
1.51486e-08
1.47096e-08
1.42705e-08
1.38315e-08
1.33924e-08
1.29533e-08
1.25143e-08
1.20752e-08
1.16361e-08
1.1197e-08
1.07579e-08
1.03189e-08
9.87977e-09
9.44067e-09
9.00158e-09
8.56248e-09
8.12338e-09
7.68429e-09
7.24519e-09
6.80609e-09
6.36699e-09
5.92788e-09
5.48878e-09
5.04968e-09
4.61058e-09
4.17148e-09
3.73237e-09
3.29327e-09
2.85417e-09
2.41506e-09
1.97596e-09
1.53686e-09
1.09776e-09
6.58653e-10
2.19551e-10
3.80266e-08
3.76603e-08
3.72892e-08
3.69134e-08
3.65332e-08
3.61489e-08
3.57606e-08
3.53685e-08
3.49726e-08
3.45733e-08
3.41707e-08
3.37648e-08
3.3356e-08
3.29443e-08
3.25299e-08
3.2113e-08
3.16937e-08
3.12722e-08
3.08488e-08
3.04235e-08
2.99966e-08
2.95681e-08
2.91384e-08
2.87074e-08
2.82753e-08
2.78423e-08
2.74085e-08
2.69739e-08
2.65388e-08
2.61031e-08
2.5667e-08
2.52305e-08
2.47936e-08
2.43564e-08
2.3919e-08
2.34813e-08
2.30435e-08
2.26055e-08
2.21674e-08
2.17292e-08
2.12908e-08
2.08524e-08
2.04139e-08
1.99753e-08
1.95367e-08
1.9098e-08
1.86592e-08
1.82205e-08
1.77816e-08
1.73428e-08
1.69039e-08
1.6465e-08
1.60261e-08
1.55871e-08
1.51482e-08
1.47092e-08
1.42702e-08
1.38312e-08
1.33921e-08
1.29531e-08
1.25141e-08
1.2075e-08
1.1636e-08
1.11969e-08
1.07578e-08
1.03188e-08
9.87968e-09
9.4406e-09
9.00152e-09
8.56243e-09
8.12334e-09
7.68425e-09
7.24515e-09
6.80606e-09
6.36696e-09
5.92787e-09
5.48877e-09
5.04967e-09
4.61057e-09
4.17147e-09
3.73237e-09
3.29327e-09
2.85417e-09
2.41506e-09
1.97596e-09
1.53686e-09
1.09776e-09
6.58655e-10
2.19552e-10
3.79621e-08
3.75974e-08
3.72281e-08
3.68543e-08
3.64762e-08
3.6094e-08
3.57077e-08
3.53177e-08
3.4924e-08
3.45268e-08
3.41263e-08
3.37226e-08
3.33159e-08
3.29064e-08
3.24941e-08
3.20794e-08
3.16623e-08
3.1243e-08
3.08216e-08
3.03984e-08
2.99735e-08
2.9547e-08
2.9119e-08
2.86898e-08
2.82594e-08
2.7828e-08
2.73956e-08
2.69625e-08
2.65286e-08
2.6094e-08
2.56589e-08
2.52233e-08
2.47872e-08
2.43508e-08
2.3914e-08
2.34769e-08
2.30396e-08
2.26021e-08
2.21644e-08
2.17265e-08
2.12885e-08
2.08504e-08
2.04121e-08
1.99738e-08
1.95353e-08
1.90968e-08
1.86582e-08
1.82195e-08
1.77808e-08
1.73421e-08
1.69033e-08
1.64644e-08
1.60256e-08
1.55867e-08
1.51478e-08
1.47088e-08
1.42699e-08
1.38309e-08
1.33919e-08
1.29529e-08
1.25139e-08
1.20748e-08
1.16358e-08
1.11968e-08
1.07577e-08
1.03186e-08
9.87958e-09
9.44051e-09
9.00143e-09
8.56236e-09
8.12327e-09
7.68419e-09
7.2451e-09
6.80601e-09
6.36692e-09
5.92783e-09
5.48874e-09
5.04964e-09
4.61054e-09
4.17145e-09
3.73235e-09
3.29325e-09
2.85415e-09
2.41505e-09
1.97595e-09
1.53685e-09
1.09775e-09
6.5865e-10
2.1955e-10
3.79186e-08
3.7555e-08
3.71869e-08
3.68144e-08
3.64376e-08
3.60567e-08
3.56718e-08
3.52832e-08
3.48909e-08
3.44952e-08
3.40962e-08
3.3694e-08
3.32888e-08
3.28808e-08
3.24701e-08
3.20568e-08
3.16412e-08
3.12233e-08
3.08034e-08
3.03816e-08
2.9958e-08
2.95327e-08
2.9106e-08
2.8678e-08
2.82487e-08
2.78183e-08
2.73869e-08
2.69547e-08
2.65216e-08
2.60878e-08
2.56534e-08
2.52184e-08
2.47829e-08
2.4347e-08
2.39107e-08
2.3474e-08
2.30371e-08
2.25999e-08
2.21625e-08
2.17248e-08
2.1287e-08
2.08491e-08
2.0411e-08
1.99727e-08
1.95344e-08
1.9096e-08
1.86575e-08
1.82189e-08
1.77803e-08
1.73416e-08
1.69028e-08
1.64641e-08
1.60252e-08
1.55864e-08
1.51475e-08
1.47086e-08
1.42697e-08
1.38307e-08
1.33917e-08
1.29528e-08
1.25138e-08
1.20747e-08
1.16357e-08
1.11967e-08
1.07576e-08
1.03186e-08
9.87953e-09
9.44047e-09
9.0014e-09
8.56232e-09
8.12325e-09
7.68417e-09
7.24508e-09
6.806e-09
6.36691e-09
5.92782e-09
5.48873e-09
5.04963e-09
4.61054e-09
4.17144e-09
3.73234e-09
3.29325e-09
2.85415e-09
2.41505e-09
1.97595e-09
1.53685e-09
1.09775e-09
6.58651e-10
2.19551e-10
3.78982e-08
3.75349e-08
3.71671e-08
3.6795e-08
3.64187e-08
3.60384e-08
3.56542e-08
3.52663e-08
3.48747e-08
3.44797e-08
3.40814e-08
3.36799e-08
3.32755e-08
3.28681e-08
3.24581e-08
3.20456e-08
3.16306e-08
3.12135e-08
3.07942e-08
3.03731e-08
2.99501e-08
2.95255e-08
2.90994e-08
2.86719e-08
2.82432e-08
2.78133e-08
2.73824e-08
2.69506e-08
2.65179e-08
2.60845e-08
2.56505e-08
2.52158e-08
2.47806e-08
2.43449e-08
2.39089e-08
2.34724e-08
2.30357e-08
2.25986e-08
2.21613e-08
2.17238e-08
2.12861e-08
2.08483e-08
2.04103e-08
1.99721e-08
1.95339e-08
1.90955e-08
1.86571e-08
1.82185e-08
1.778e-08
1.73413e-08
1.69026e-08
1.64638e-08
1.6025e-08
1.55862e-08
1.51474e-08
1.47085e-08
1.42695e-08
1.38306e-08
1.33916e-08
1.29527e-08
1.25137e-08
1.20747e-08
1.16357e-08
1.11966e-08
1.07576e-08
1.03185e-08
9.87948e-09
9.44043e-09
9.00136e-09
8.56229e-09
8.12322e-09
7.68414e-09
7.24506e-09
6.80598e-09
6.36689e-09
5.9278e-09
5.48871e-09
5.04962e-09
4.61052e-09
4.17143e-09
3.73233e-09
3.29324e-09
2.85414e-09
2.41504e-09
1.97594e-09
1.53685e-09
1.09775e-09
6.58648e-10
2.1955e-10
3.82569e-08
3.78983e-08
3.75349e-08
3.71671e-08
3.6795e-08
3.64187e-08
3.60384e-08
3.56542e-08
3.52663e-08
3.48747e-08
3.44797e-08
3.40814e-08
3.368e-08
3.32755e-08
3.28682e-08
3.24581e-08
3.20456e-08
3.16306e-08
3.12135e-08
3.07942e-08
3.03731e-08
2.99501e-08
2.95255e-08
2.90994e-08
2.86719e-08
2.82432e-08
2.78133e-08
2.73824e-08
2.69506e-08
2.65179e-08
2.60845e-08
2.56504e-08
2.52158e-08
2.47806e-08
2.43449e-08
2.39088e-08
2.34724e-08
2.30356e-08
2.25986e-08
2.21613e-08
2.17238e-08
2.12861e-08
2.08483e-08
2.04103e-08
1.99721e-08
1.95339e-08
1.90955e-08
1.86571e-08
1.82186e-08
1.778e-08
1.73413e-08
1.69026e-08
1.64638e-08
1.60251e-08
1.55862e-08
1.51474e-08
1.47085e-08
1.42695e-08
1.38306e-08
1.33916e-08
1.29527e-08
1.25137e-08
1.20747e-08
1.16357e-08
1.11966e-08
1.07576e-08
1.03185e-08
9.87949e-09
9.44043e-09
9.00137e-09
8.5623e-09
8.12322e-09
7.68414e-09
7.24506e-09
6.80598e-09
6.36689e-09
5.9278e-09
5.48871e-09
5.04962e-09
4.61053e-09
4.17143e-09
3.73234e-09
3.29324e-09
2.85414e-09
2.41504e-09
1.97595e-09
1.53685e-09
1.09775e-09
6.58649e-10
2.1955e-10
3.82776e-08
3.79188e-08
3.75552e-08
3.7187e-08
3.68145e-08
3.64376e-08
3.60567e-08
3.56719e-08
3.52832e-08
3.4891e-08
3.44953e-08
3.40962e-08
3.3694e-08
3.32888e-08
3.28808e-08
3.24701e-08
3.20568e-08
3.16412e-08
3.12233e-08
3.08034e-08
3.03816e-08
2.9958e-08
2.95327e-08
2.9106e-08
2.8678e-08
2.82487e-08
2.78183e-08
2.73869e-08
2.69546e-08
2.65216e-08
2.60878e-08
2.56533e-08
2.52184e-08
2.47829e-08
2.4347e-08
2.39107e-08
2.3474e-08
2.30371e-08
2.25999e-08
2.21625e-08
2.17248e-08
2.1287e-08
2.0849e-08
2.04109e-08
1.99727e-08
1.95344e-08
1.9096e-08
1.86575e-08
1.82189e-08
1.77803e-08
1.73416e-08
1.69028e-08
1.6464e-08
1.60252e-08
1.55864e-08
1.51475e-08
1.47086e-08
1.42697e-08
1.38307e-08
1.33917e-08
1.29527e-08
1.25137e-08
1.20747e-08
1.16357e-08
1.11967e-08
1.07576e-08
1.03186e-08
9.87952e-09
9.44046e-09
9.00139e-09
8.56231e-09
8.12324e-09
7.68416e-09
7.24507e-09
6.80599e-09
6.3669e-09
5.92781e-09
5.48872e-09
5.04963e-09
4.61053e-09
4.17144e-09
3.73234e-09
3.29324e-09
2.85415e-09
2.41505e-09
1.97595e-09
1.53685e-09
1.09775e-09
6.5865e-10
2.1955e-10
3.83222e-08
3.79624e-08
3.75977e-08
3.72284e-08
3.68545e-08
3.64764e-08
3.60941e-08
3.57079e-08
3.53178e-08
3.49241e-08
3.45269e-08
3.41263e-08
3.37227e-08
3.33159e-08
3.29064e-08
3.24941e-08
3.20794e-08
3.16623e-08
3.1243e-08
3.08216e-08
3.03984e-08
2.99735e-08
2.9547e-08
2.9119e-08
2.86898e-08
2.82594e-08
2.7828e-08
2.73956e-08
2.69624e-08
2.65285e-08
2.6094e-08
2.56589e-08
2.52232e-08
2.47872e-08
2.43507e-08
2.3914e-08
2.34769e-08
2.30396e-08
2.26021e-08
2.21644e-08
2.17265e-08
2.12885e-08
2.08504e-08
2.04121e-08
1.99737e-08
1.95353e-08
1.90968e-08
1.86582e-08
1.82195e-08
1.77808e-08
1.7342e-08
1.69032e-08
1.64644e-08
1.60256e-08
1.55867e-08
1.51477e-08
1.47088e-08
1.42698e-08
1.38309e-08
1.33919e-08
1.29529e-08
1.25139e-08
1.20748e-08
1.16358e-08
1.11967e-08
1.07577e-08
1.03186e-08
9.87957e-09
9.4405e-09
9.00142e-09
8.56235e-09
8.12326e-09
7.68418e-09
7.24509e-09
6.80601e-09
6.36691e-09
5.92782e-09
5.48873e-09
5.04963e-09
4.61054e-09
4.17144e-09
3.73234e-09
3.29325e-09
2.85415e-09
2.41505e-09
1.97595e-09
1.53685e-09
1.09775e-09
6.5865e-10
2.1955e-10
3.83882e-08
3.80269e-08
3.76606e-08
3.72894e-08
3.69136e-08
3.65334e-08
3.61491e-08
3.57608e-08
3.53686e-08
3.49728e-08
3.45734e-08
3.41707e-08
3.37649e-08
3.3356e-08
3.29443e-08
3.25299e-08
3.2113e-08
3.16937e-08
3.12722e-08
3.08488e-08
3.04235e-08
2.99966e-08
2.95681e-08
2.91383e-08
2.87073e-08
2.82753e-08
2.78423e-08
2.74084e-08
2.69739e-08
2.65388e-08
2.61031e-08
2.5667e-08
2.52304e-08
2.47935e-08
2.43564e-08
2.39189e-08
2.34813e-08
2.30435e-08
2.26055e-08
2.21673e-08
2.17291e-08
2.12908e-08
2.08523e-08
2.04138e-08
1.99753e-08
1.95366e-08
1.90979e-08
1.86592e-08
1.82204e-08
1.77816e-08
1.73428e-08
1.69039e-08
1.6465e-08
1.60261e-08
1.55871e-08
1.51481e-08
1.47092e-08
1.42702e-08
1.38311e-08
1.33921e-08
1.29531e-08
1.2514e-08
1.2075e-08
1.16359e-08
1.11969e-08
1.07578e-08
1.03187e-08
9.87966e-09
9.44058e-09
9.0015e-09
8.56241e-09
8.12332e-09
7.68423e-09
7.24514e-09
6.80605e-09
6.36695e-09
5.92785e-09
5.48876e-09
5.04966e-09
4.61056e-09
4.17146e-09
3.73236e-09
3.29326e-09
2.85416e-09
2.41506e-09
1.97596e-09
1.53686e-09
1.09775e-09
6.58653e-10
2.19551e-10
3.84793e-08
3.81157e-08
3.77469e-08
3.73731e-08
3.69946e-08
3.66116e-08
3.62244e-08
3.58331e-08
3.54379e-08
3.5039e-08
3.46366e-08
3.42308e-08
3.38219e-08
3.34099e-08
3.29951e-08
3.25776e-08
3.21576e-08
3.17353e-08
3.13109e-08
3.08845e-08
3.04564e-08
3.00267e-08
2.95956e-08
2.91632e-08
2.87298e-08
2.82955e-08
2.78604e-08
2.74246e-08
2.69883e-08
2.65514e-08
2.61142e-08
2.56767e-08
2.5239e-08
2.48011e-08
2.4363e-08
2.39247e-08
2.34863e-08
2.30479e-08
2.26093e-08
2.21707e-08
2.17321e-08
2.12933e-08
2.08546e-08
2.04158e-08
1.9977e-08
1.95382e-08
1.90993e-08
1.86604e-08
1.82215e-08
1.77825e-08
1.73436e-08
1.69046e-08
1.64656e-08
1.60266e-08
1.55876e-08
1.51486e-08
1.47095e-08
1.42705e-08
1.38314e-08
1.33924e-08
1.29533e-08
1.25142e-08
1.20752e-08
1.16361e-08
1.1197e-08
1.07579e-08
1.03188e-08
9.87974e-09
9.44065e-09
9.00156e-09
8.56246e-09
8.12336e-09
7.68427e-09
7.24517e-09
6.80607e-09
6.36697e-09
5.92787e-09
5.48877e-09
5.04967e-09
4.61057e-09
4.17147e-09
3.73236e-09
3.29326e-09
2.85416e-09
2.41506e-09
1.97596e-09
1.53686e-09
1.09775e-09
6.58652e-10
2.1955e-10
3.85913e-08
3.82244e-08
3.78522e-08
3.74751e-08
3.70932e-08
3.67068e-08
3.63161e-08
3.59214e-08
3.55227e-08
3.51204e-08
3.47145e-08
3.43052e-08
3.38926e-08
3.34769e-08
3.30584e-08
3.26371e-08
3.22132e-08
3.17871e-08
3.13588e-08
3.09286e-08
3.04968e-08
3.00635e-08
2.96289e-08
2.91933e-08
2.87568e-08
2.83195e-08
2.78818e-08
2.74436e-08
2.7005e-08
2.65662e-08
2.61272e-08
2.56881e-08
2.52488e-08
2.48096e-08
2.43704e-08
2.39312e-08
2.3492e-08
2.30528e-08
2.26136e-08
2.21745e-08
2.17354e-08
2.12962e-08
2.08571e-08
2.04181e-08
1.9979e-08
1.95399e-08
1.91008e-08
1.86617e-08
1.82227e-08
1.77836e-08
1.73445e-08
1.69054e-08
1.64664e-08
1.60273e-08
1.55882e-08
1.51491e-08
1.471e-08
1.42709e-08
1.38318e-08
1.33927e-08
1.29536e-08
1.25145e-08
1.20754e-08
1.16363e-08
1.11972e-08
1.07581e-08
1.0319e-08
9.87987e-09
9.44076e-09
9.00166e-09
8.56255e-09
8.12344e-09
7.68434e-09
7.24523e-09
6.80613e-09
6.36702e-09
5.92791e-09
5.48881e-09
5.0497e-09
4.6106e-09
4.17149e-09
3.73239e-09
3.29328e-09
2.85418e-09
2.41507e-09
1.97597e-09
1.53686e-09
1.09776e-09
6.58657e-10
2.19553e-10
3.87345e-08
3.8363e-08
3.79858e-08
3.76035e-08
3.72164e-08
3.68248e-08
3.64291e-08
3.60294e-08
3.56259e-08
3.52189e-08
3.48084e-08
3.43946e-08
3.39775e-08
3.35574e-08
3.31343e-08
3.27084e-08
3.22799e-08
3.1849e-08
3.1416e-08
3.09811e-08
3.05446e-08
3.01068e-08
2.96678e-08
2.92281e-08
2.87876e-08
2.83467e-08
2.79055e-08
2.74642e-08
2.70229e-08
2.65817e-08
2.61406e-08
2.56996e-08
2.52588e-08
2.48182e-08
2.43778e-08
2.39376e-08
2.34975e-08
2.30576e-08
2.26178e-08
2.21781e-08
2.17385e-08
2.1299e-08
2.08596e-08
2.04202e-08
1.99808e-08
1.95415e-08
1.91023e-08
1.8663e-08
1.82238e-08
1.77846e-08
1.73454e-08
1.69062e-08
1.64671e-08
1.60279e-08
1.55887e-08
1.51496e-08
1.47104e-08
1.42713e-08
1.38321e-08
1.3393e-08
1.29539e-08
1.25147e-08
1.20756e-08
1.16365e-08
1.11973e-08
1.07582e-08
1.03191e-08
9.87996e-09
9.44084e-09
9.00172e-09
8.5626e-09
8.12349e-09
7.68437e-09
7.24526e-09
6.80615e-09
6.36704e-09
5.92793e-09
5.48882e-09
5.04971e-09
4.6106e-09
4.1715e-09
3.73239e-09
3.29328e-09
2.85418e-09
2.41507e-09
1.97597e-09
1.53686e-09
1.09776e-09
6.58655e-10
2.19551e-10
3.88969e-08
3.85203e-08
3.81381e-08
3.77507e-08
3.73584e-08
3.69616e-08
3.65605e-08
3.61555e-08
3.57467e-08
3.53344e-08
3.49186e-08
3.44994e-08
3.40769e-08
3.36513e-08
3.32225e-08
3.27908e-08
3.23564e-08
3.19196e-08
3.14806e-08
3.10399e-08
3.05976e-08
3.01543e-08
2.971e-08
2.92651e-08
2.88199e-08
2.83747e-08
2.79296e-08
2.74849e-08
2.70406e-08
2.65967e-08
2.61533e-08
2.57104e-08
2.52679e-08
2.4826e-08
2.43844e-08
2.39432e-08
2.35023e-08
2.30617e-08
2.26214e-08
2.21813e-08
2.17413e-08
2.13015e-08
2.08618e-08
2.04221e-08
1.99826e-08
1.95431e-08
1.91037e-08
1.86643e-08
1.82249e-08
1.77856e-08
1.73463e-08
1.6907e-08
1.64678e-08
1.60285e-08
1.55893e-08
1.51501e-08
1.47109e-08
1.42717e-08
1.38325e-08
1.33933e-08
1.29541e-08
1.2515e-08
1.20758e-08
1.16367e-08
1.11975e-08
1.07584e-08
1.03192e-08
9.88008e-09
9.44095e-09
9.00182e-09
8.56269e-09
8.12356e-09
7.68444e-09
7.24532e-09
6.8062e-09
6.36708e-09
5.92797e-09
5.48885e-09
5.04974e-09
4.61063e-09
4.17152e-09
3.73241e-09
3.2933e-09
2.85419e-09
2.41509e-09
1.97598e-09
1.53687e-09
1.09777e-09
6.5866e-10
2.19553e-10
3.9092e-08
3.87063e-08
3.83152e-08
3.79194e-08
3.75192e-08
3.71151e-08
3.67075e-08
3.62966e-08
3.58824e-08
3.5465e-08
3.50444e-08
3.46203e-08
3.41927e-08
3.37616e-08
3.33268e-08
3.28886e-08
3.24471e-08
3.20027e-08
3.1556e-08
3.11074e-08
3.06574e-08
3.02066e-08
2.97553e-08
2.93039e-08
2.88529e-08
2.84025e-08
2.79529e-08
2.75042e-08
2.70565e-08
2.66097e-08
2.6164e-08
2.57192e-08
2.52752e-08
2.4832e-08
2.43895e-08
2.39475e-08
2.3506e-08
2.30649e-08
2.26242e-08
2.21837e-08
2.17435e-08
2.13034e-08
2.08635e-08
2.04237e-08
1.9984e-08
1.95444e-08
1.91048e-08
1.86653e-08
1.82259e-08
1.77864e-08
1.73471e-08
1.69077e-08
1.64684e-08
1.60291e-08
1.55898e-08
1.51505e-08
1.47112e-08
1.4272e-08
1.38328e-08
1.33935e-08
1.29543e-08
1.25151e-08
1.2076e-08
1.16368e-08
1.11976e-08
1.07584e-08
1.03193e-08
9.88014e-09
9.44099e-09
9.00185e-09
8.56272e-09
8.12358e-09
7.68445e-09
7.24533e-09
6.80621e-09
6.36709e-09
5.92797e-09
5.48885e-09
5.04974e-09
4.61062e-09
4.17151e-09
3.7324e-09
3.29329e-09
2.85419e-09
2.41508e-09
1.97597e-09
1.53687e-09
1.09776e-09
6.58656e-10
2.19551e-10
3.93186e-08
3.89247e-08
3.85243e-08
3.81183e-08
3.77076e-08
3.7293e-08
3.68755e-08
3.64555e-08
3.60332e-08
3.56086e-08
3.51813e-08
3.47512e-08
3.43178e-08
3.38807e-08
3.34397e-08
3.29947e-08
3.25458e-08
3.20934e-08
3.16379e-08
3.11801e-08
3.0721e-08
3.02611e-08
2.98012e-08
2.9342e-08
2.88839e-08
2.84273e-08
2.79723e-08
2.75191e-08
2.70677e-08
2.66181e-08
2.61701e-08
2.57236e-08
2.52784e-08
2.48344e-08
2.43913e-08
2.39489e-08
2.35072e-08
2.3066e-08
2.26252e-08
2.21847e-08
2.17445e-08
2.13044e-08
2.08645e-08
2.04247e-08
1.9985e-08
1.95453e-08
1.91057e-08
1.86661e-08
1.82266e-08
1.77872e-08
1.73477e-08
1.69083e-08
1.64689e-08
1.60295e-08
1.55902e-08
1.51509e-08
1.47116e-08
1.42723e-08
1.3833e-08
1.33938e-08
1.29546e-08
1.25153e-08
1.20761e-08
1.16369e-08
1.11977e-08
1.07586e-08
1.03194e-08
9.88023e-09
9.44108e-09
9.00193e-09
8.56278e-09
8.12364e-09
7.6845e-09
7.24537e-09
6.80624e-09
6.36712e-09
5.928e-09
5.48888e-09
5.04976e-09
4.61064e-09
4.17153e-09
3.73242e-09
3.29331e-09
2.8542e-09
2.41509e-09
1.97598e-09
1.53687e-09
1.09777e-09
6.5866e-10
2.19553e-10
3.95472e-08
3.91453e-08
3.87377e-08
3.83249e-08
3.79074e-08
3.74864e-08
3.70628e-08
3.66373e-08
3.621e-08
3.57807e-08
3.53487e-08
3.49129e-08
3.44727e-08
3.40274e-08
3.35766e-08
3.31204e-08
3.26591e-08
3.21939e-08
3.17253e-08
3.12534e-08
3.07831e-08
3.0312e-08
2.98415e-08
2.93729e-08
2.89067e-08
2.84434e-08
2.79831e-08
2.75259e-08
2.70715e-08
2.66199e-08
2.61706e-08
2.57233e-08
2.52778e-08
2.48337e-08
2.43907e-08
2.39485e-08
2.3507e-08
2.30661e-08
2.26255e-08
2.21852e-08
2.17451e-08
2.13051e-08
2.08652e-08
2.04255e-08
1.99857e-08
1.9546e-08
1.91064e-08
1.86668e-08
1.82272e-08
1.77877e-08
1.73482e-08
1.69087e-08
1.64693e-08
1.60298e-08
1.55905e-08
1.51511e-08
1.47118e-08
1.42725e-08
1.38332e-08
1.33939e-08
1.29546e-08
1.25154e-08
1.20762e-08
1.1637e-08
1.11978e-08
1.07586e-08
1.03194e-08
9.88022e-09
9.44106e-09
9.0019e-09
8.56276e-09
8.12361e-09
7.68448e-09
7.24534e-09
6.80622e-09
6.36709e-09
5.92797e-09
5.48885e-09
5.04973e-09
4.61062e-09
4.17151e-09
3.7324e-09
3.29329e-09
2.85418e-09
2.41507e-09
1.97597e-09
1.53686e-09
1.09776e-09
6.58653e-10
2.1955e-10
3.98193e-08
3.93965e-08
3.89668e-08
3.85325e-08
3.80961e-08
3.76599e-08
3.72253e-08
3.6793e-08
3.63626e-08
3.59327e-08
3.55019e-08
3.50683e-08
3.46296e-08
3.4184e-08
3.37294e-08
3.32655e-08
3.27926e-08
3.23138e-08
3.18283e-08
3.13416e-08
3.08513e-08
3.0363e-08
2.98777e-08
2.93964e-08
2.89197e-08
2.84481e-08
2.79816e-08
2.752e-08
2.70631e-08
2.66101e-08
2.61605e-08
2.57137e-08
2.52691e-08
2.48262e-08
2.43845e-08
2.39436e-08
2.35032e-08
2.30631e-08
2.26235e-08
2.2184e-08
2.17444e-08
2.13048e-08
2.08653e-08
2.04257e-08
1.99861e-08
1.95464e-08
1.91068e-08
1.86672e-08
1.82276e-08
1.77881e-08
1.73485e-08
1.6909e-08
1.64696e-08
1.60301e-08
1.55907e-08
1.51513e-08
1.47119e-08
1.42726e-08
1.38333e-08
1.3394e-08
1.29547e-08
1.25155e-08
1.20762e-08
1.1637e-08
1.11978e-08
1.07586e-08
1.03194e-08
9.88026e-09
9.44109e-09
9.00194e-09
8.56278e-09
8.12364e-09
7.6845e-09
7.24536e-09
6.80623e-09
6.3671e-09
5.92798e-09
5.48886e-09
5.04974e-09
4.61062e-09
4.17151e-09
3.7324e-09
3.29329e-09
2.85418e-09
2.41507e-09
1.97597e-09
1.53686e-09
1.09776e-09
6.58655e-10
2.19551e-10
4.00606e-08
3.96437e-08
3.92183e-08
3.87855e-08
3.83471e-08
3.79054e-08
3.74624e-08
3.70191e-08
3.65753e-08
3.61305e-08
3.56826e-08
3.52303e-08
3.47722e-08
3.43071e-08
3.38323e-08
3.33511e-08
3.28624e-08
3.23665e-08
3.18683e-08
3.13682e-08
3.08685e-08
3.03714e-08
2.98788e-08
2.9392e-08
2.89116e-08
2.84377e-08
2.79702e-08
2.75087e-08
2.70523e-08
2.66005e-08