/*--------------------------------*- C++ -*----------------------------------*\
| =========                 |                                                 |
| \\      /  F ield         | OpenFOAM: The Open Source CFD Toolbox           |
|  \\    /   O peration     | Version:  2312                                  |
|   \\  /    A nd           | Website:  www.openfoam.com                      |
|    \\/     M anipulation  |                                                 |
\*---------------------------------------------------------------------------*/
FoamFile
{
    version     2.0;
    format      ascii;
    arch        "LSB;label=32;scalar=64";
    class       volVectorField;
    location    "194000";
    object      U;
}
// * * * * * * * * * * * * * * * * * * * * * * * * * * * * * * * * * * * * * //

dimensions      [0 1 -1 0 0 0 0];

internalField   nonuniform List<vector> 
2685
(
(0.000279738 -7.91109e-06 0)
(0.000279441 -7.9943e-06 0)
(0.00027817 -7.09228e-06 0)
(0.000276019 -5.53603e-06 0)
(0.000273343 -3.72814e-06 0)
(0.00027052 -1.96796e-06 0)
(0.00026773 -4.46293e-07 0)
(0.000264868 7.03876e-07 0)
(0.000261679 1.48405e-06 0)
(0.000258039 1.95487e-06 0)
(0.000254021 2.20573e-06 0)
(0.000249779 2.37947e-06 0)
(0.000245464 2.55676e-06 0)
(0.000241168 2.72553e-06 0)
(0.000236954 2.85224e-06 0)
(0.000232879 2.89344e-06 0)
(0.000228989 2.81939e-06 0)
(0.000225316 2.62587e-06 0)
(0.000221885 2.33069e-06 0)
(0.000218714 1.96779e-06 0)
(0.000215809 1.58146e-06 0)
(0.000213161 1.21949e-06 0)
(0.000210744 9.27492e-07 0)
(0.000208513 7.44414e-07 0)
(0.000206407 6.98116e-07 0)
(0.00020435 7.99884e-07 0)
(0.000202258 1.03808e-06 0)
(0.000200049 1.37623e-06 0)
(0.000197648 1.75725e-06 0)
(0.000194993 2.11462e-06 0)
(0.000192041 2.39494e-06 0)
(0.000188793 2.57376e-06 0)
(0.00018528 2.64866e-06 0)
(0.000181533 2.64623e-06 0)
(0.000177575 2.61157e-06 0)
(0.000173424 2.59081e-06 0)
(0.000169071 2.61356e-06 0)
(0.000164479 2.70035e-06 0)
(0.000159611 2.8572e-06 0)
(0.000154443 3.07155e-06 0)
(0.000148969 3.31831e-06 0)
(0.000143207 3.56684e-06 0)
(0.000137196 3.78637e-06 0)
(0.000131001 3.94943e-06 0)
(0.000124707 4.03429e-06 0)
(0.000118419 4.02829e-06 0)
(0.000112254 3.92756e-06 0)
(0.000106335 3.73444e-06 0)
(0.000100785 3.45496e-06 0)
(9.57173e-05 3.09733e-06 0)
(9.12362e-05 2.67179e-06 0)
(8.74242e-05 2.19112e-06 0)
(8.43374e-05 1.67083e-06 0)
(8.20003e-05 1.12853e-06 0)
(8.04044e-05 5.82385e-07 0)
(7.95124e-05 4.92368e-08 0)
(7.92646e-05 -4.57513e-07 0)
(7.95852e-05 -9.28437e-07 0)
(8.03863e-05 -1.35176e-06 0)
(8.15812e-05 -1.73791e-06 0)
(8.30915e-05 -2.08203e-06 0)
(8.48437e-05 -2.37854e-06 0)
(8.67706e-05 -2.62611e-06 0)
(8.88123e-05 -2.8252e-06 0)
(9.09164e-05 -2.97739e-06 0)
(9.30379e-05 -3.08477e-06 0)
(9.51384e-05 -3.14916e-06 0)
(9.71856e-05 -3.1708e-06 0)
(9.91519e-05 -3.14788e-06 0)
(0.000101013 -3.07596e-06 0)
(0.000102745 -2.94955e-06 0)
(0.000104323 -2.7631e-06 0)
(0.000105718 -2.51352e-06 0)
(0.000106892 -2.1994e-06 0)
(0.000107813 -1.82446e-06 0)
(0.00010845 -1.39504e-06 0)
(0.000108784 -9.23397e-07 0)
(0.000108814 -4.21475e-07 0)
(0.000108567 8.25152e-08 0)
(0.000108075 5.63249e-07 0)
(0.000107405 9.82757e-07 0)
(0.000106621 1.3224e-06 0)
(0.000105851 1.52609e-06 0)
(0.000105169 1.60007e-06 0)
(0.000104795 1.46948e-06 0)
(0.000104682 1.19035e-06 0)
(0.000105363 5.58254e-07 0)
(0.000105961 -1.05388e-07 0)
(0.00010928 -1.47286e-06 0)
(0.000602277 7.07207e-06 0)
(0.000606306 1.16408e-05 0)
(0.000607864 1.56787e-05 0)
(0.000606324 1.77719e-05 0)
(0.000602025 1.74967e-05 0)
(0.000595958 1.56337e-05 0)
(0.000588892 1.36431e-05 0)
(0.000581336 1.2722e-05 0)
(0.000573607 1.30715e-05 0)
(0.000565884 1.4184e-05 0)
(0.000558467 1.53771e-05 0)
(0.00055149 1.61842e-05 0)
(0.000544728 1.64638e-05 0)
(0.000537973 1.62852e-05 0)
(0.000531195 1.57324e-05 0)
(0.000524455 1.49448e-05 0)
(0.000517881 1.40622e-05 0)
(0.000511608 1.31732e-05 0)
(0.000505722 1.23166e-05 0)
(0.000500254 1.15038e-05 0)
(0.000495183 1.0741e-05 0)
(0.000490448 1.00413e-05 0)
(0.000485955 9.42922e-06 0)
(0.000481575 8.9404e-06 0)
(0.000477154 8.61677e-06 0)
(0.000472508 8.49756e-06 0)
(0.000467444 8.60876e-06 0)
(0.000461795 8.95432e-06 0)
(0.000455464 9.51209e-06 0)
(0.000448467 1.02366e-05 0)
(0.00044095 1.10765e-05 0)
(0.000433107 1.19887e-05 0)
(0.000425137 1.29341e-05 0)
(0.000417211 1.3892e-05 0)
(0.000409408 1.48728e-05 0)
(0.000401674 1.59041e-05 0)
(0.000393886 1.69991e-05 0)
(0.000385915 1.81508e-05 0)
(0.000377632 1.93327e-05 0)
(0.000368942 2.04985e-05 0)
(0.000359814 2.15855e-05 0)
(0.000350282 2.25243e-05 0)
(0.000340438 2.32466e-05 0)
(0.000330412 2.36878e-05 0)
(0.000320366 2.37906e-05 0)
(0.000310476 2.35089e-05 0)
(0.000300909 2.2811e-05 0)
(0.000291817 2.16793e-05 0)
(0.000283334 2.01143e-05 0)
(0.000275573 1.81399e-05 0)
(0.000268633 1.5809e-05 0)
(0.000262591 1.32062e-05 0)
(0.000257492 1.04447e-05 0)
(0.000253346 7.65414e-06 0)
(0.000250124 4.96209e-06 0)
(0.000247759 2.4758e-06 0)
(0.000246162 2.70383e-07 0)
(0.000245245 -1.61381e-06 0)
(0.000244874 -3.16704e-06 0)
(0.000244949 -4.38424e-06 0)
(0.000245432 -5.29117e-06 0)
(0.000246252 -5.92291e-06 0)
(0.000247338 -6.3146e-06 0)
(0.000248636 -6.501e-06 0)
(0.000250103 -6.51564e-06 0)
(0.000251703 -6.38908e-06 0)
(0.000253417 -6.14889e-06 0)
(0.000255228 -5.81665e-06 0)
(0.000257131 -5.40878e-06 0)
(0.000259117 -4.93228e-06 0)
(0.000261167 -4.39129e-06 0)
(0.00026325 -3.78275e-06 0)
(0.000265331 -3.10979e-06 0)
(0.000267357 -2.36821e-06 0)
(0.000269288 -1.5684e-06 0)
(0.000271064 -7.18675e-07 0)
(0.000272674 1.30853e-07 0)
(0.000274052 9.4738e-07 0)
(0.000275244 1.64403e-06 0)
(0.000276176 2.17692e-06 0)
(0.000277056 2.43243e-06 0)
(0.000277711 2.38393e-06 0)
(0.000278641 1.88843e-06 0)
(0.00027933 1.02694e-06 0)
(0.000280911 -3.56994e-07 0)
(0.000281829 -1.89308e-06 0)
(0.000284956 -4.21402e-06 0)
(0.000285761 -5.8947e-06 0)
(0.000291779 -9.78549e-06 0)
(0.000881259 -2.81344e-05 0)
(0.000863701 -2.17623e-05 0)
(0.000843307 -9.54532e-06 0)
(0.000822484 3.78794e-06 0)
(0.000805766 1.44993e-05 0)
(0.000796834 2.18734e-05 0)
(0.000796212 2.76761e-05 0)
(0.000800433 3.32036e-05 0)
(0.000804303 3.73199e-05 0)
(0.000804105 3.83335e-05 0)
(0.000798764 3.6443e-05 0)
(0.000789498 3.36531e-05 0)
(0.000778401 3.17914e-05 0)
(0.000766959 3.11392e-05 0)
(0.000756066 3.10576e-05 0)
(0.000746379 3.07924e-05 0)
(0.000738126 2.9973e-05 0)
(0.000731262 2.8576e-05 0)
(0.0007257 2.67384e-05 0)
(0.000721397 2.46922e-05 0)
(0.000718325 2.26999e-05 0)
(0.000716403 2.10143e-05 0)
(0.000715443 1.98709e-05 0)
(0.00071512 1.94842e-05 0)
(0.000714984 2.00258e-05 0)
(0.000714518 2.15942e-05 0)
(0.00071322 2.4153e-05 0)
(0.000710663 2.74637e-05 0)
(0.000706541 3.10869e-05 0)
(0.000700692 3.44554e-05 0)
(0.000693119 3.70294e-05 0)
(0.000683976 3.84898e-05 0)
(0.000673538 3.88595e-05 0)
(0.000662147 3.84796e-05 0)
(0.000650146 3.78641e-05 0)
(0.000637821 3.75121e-05 0)
(0.000625363 3.77676e-05 0)
(0.000612858 3.87468e-05 0)
(0.000600306 4.03464e-05 0)
(0.000587659 4.23081e-05 0)
(0.000574866 4.43013e-05 0)
(0.000561904 4.60012e-05 0)
(0.000548798 4.71414e-05 0)
(0.000535615 4.75441e-05 0)
(0.000522445 4.71266e-05 0)
(0.000509392 4.58796e-05 0)
(0.000496584 4.38473e-05 0)
(0.000484179 4.11165e-05 0)
(0.000472386 3.77925e-05 0)
(0.000461453 3.3978e-05 0)
(0.00045164 2.97799e-05 0)
(0.000443178 2.53253e-05 0)
(0.000436227 2.07698e-05 0)
(0.000430847 1.62874e-05 0)
(0.000426987 1.20448e-05 0)
(0.000424509 8.17083e-06 0)
(0.00042322 4.73916e-06 0)
(0.000422909 1.76365e-06 0)
(0.000423421 -7.87128e-07 0)
(0.000424594 -2.93892e-06 0)
(0.000426253 -4.74258e-06 0)
(0.000428311 -6.24458e-06 0)
(0.000430714 -7.47997e-06 0)
(0.000433418 -8.47733e-06 0)
(0.000436391 -9.27169e-06 0)
(0.000439607 -9.89892e-06 0)
(0.00044305 -1.04061e-05 0)
(0.000446705 -1.08264e-05 0)
(0.000450574 -1.1185e-05 0)
(0.000454629 -1.14636e-05 0)
(0.000458872 -1.16358e-05 0)
(0.000463238 -1.16327e-05 0)
(0.000467736 -1.14061e-05 0)
(0.000472226 -1.08911e-05 0)
(0.000476735 -1.00901e-05 0)
(0.00048096 -9.00786e-06 0)
(0.000485019 -7.72387e-06 0)
(0.000488464 -6.29488e-06 0)
(0.000491728 -4.91545e-06 0)
(0.000494137 -3.61339e-06 0)
(0.000496584 -2.75478e-06 0)
(0.000498011 -2.17999e-06 0)
(0.000500077 -2.51396e-06 0)
(0.000500939 -3.14933e-06 0)
(0.000503459 -5.03969e-06 0)
(0.000504355 -6.86919e-06 0)
(0.000508479 -1.01791e-05 0)
(0.000509217 -1.21726e-05 0)
(0.000515835 -1.69372e-05 0)
(0.00120977 7.81778e-05 0)
(0.00119101 9.79719e-05 0)
(0.001167 0.000114335 0)
(0.00113855 0.000111828 0)
(0.00110847 8.5127e-05 0)
(0.0010788 4.44694e-05 0)
(0.00104847 8.96258e-06 0)
(0.00101485 -6.46266e-06 0)
(0.000978519 4.56262e-07 0)
(0.000945139 2.02309e-05 0)
(0.000921289 4.12831e-05 0)
(0.000908375 5.73787e-05 0)
(0.000901515 6.65912e-05 0)
(0.00089468 6.84637e-05 0)
(0.000884958 6.43135e-05 0)
(0.000872634 5.70677e-05 0)
(0.000859609 4.92196e-05 0)
(0.00084758 4.17677e-05 0)
(0.000837634 3.48223e-05 0)
(0.000830425 2.8269e-05 0)
(0.000826257 2.21464e-05 0)
(0.000825207 1.67373e-05 0)
(0.000827154 1.25288e-05 0)
(0.000831708 1.00893e-05 0)
(0.000838191 9.84359e-06 0)
(0.000845688 1.19811e-05 0)
(0.000853153 1.63615e-05 0)
(0.00085964 2.25598e-05 0)
(0.000864472 2.99766e-05 0)
(0.000867232 3.79222e-05 0)
(0.000867688 4.56626e-05 0)
(0.000865718 5.25816e-05 0)
(0.000861294 5.82563e-05 0)
(0.000854544 6.25266e-05 0)
(0.000845784 6.55142e-05 0)
(0.000835467 6.7565e-05 0)
(0.0008241 6.91243e-05 0)
(0.000812152 7.05937e-05 0)
(0.000799992 7.22234e-05 0)
(0.000787865 7.40721e-05 0)
(0.000775897 7.60347e-05 0)
(0.000764129 7.79095e-05 0)
(0.000752543 7.94697e-05 0)
(0.000741088 8.05117e-05 0)
(0.00072971 8.08625e-05 0)
(0.000718373 8.03484e-05 0)
(0.000707087 7.87672e-05 0)
(0.000695933 7.58862e-05 0)
(0.000685046 7.14841e-05 0)
(0.000674606 6.54358e-05 0)
(0.000664821 5.7803e-05 0)
(0.000655897 4.88769e-05 0)
(0.000648006 3.91647e-05 0)
(0.000641271 2.92963e-05 0)
(0.000635764 1.9885e-05 0)
(0.000631519 1.13971e-05 0)
(0.000628533 4.0847e-06 0)
(0.000626795 -2.01811e-06 0)
(0.0006263 -6.94822e-06 0)
(0.000627027 -1.08639e-05 0)
(0.000628904 -1.39471e-05 0)
(0.000631832 -1.6361e-05 0)
(0.00063567 -1.82528e-05 0)
(0.00064022 -1.97342e-05 0)
(0.000645285 -2.09079e-05 0)
(0.000650636 -2.18486e-05 0)
(0.000656173 -2.26359e-05 0)
(0.000661764 -2.32929e-05 0)
(0.000667554 -2.38407e-05 0)
(0.000673509 -2.42175e-05 0)
(0.000679967 -2.43987e-05 0)
(0.000686776 -2.42259e-05 0)
(0.000694275 -2.36291e-05 0)
(0.000701939 -2.24204e-05 0)
(0.00071003 -2.0713e-05 0)
(0.000717804 -1.84089e-05 0)
(0.000725605 -1.58675e-05 0)
(0.000732563 -1.29508e-05 0)
(0.000739024 -1.02823e-05 0)
(0.000744148 -7.59635e-06 0)
(0.000748411 -5.66609e-06 0)
(0.000751168 -4.2424e-06 0)
(0.000753414 -4.19277e-06 0)
(0.000754207 -5.06521e-06 0)
(0.000755356 -7.42754e-06 0)
(0.000755085 -1.049e-05 0)
(0.000757088 -1.49007e-05 0)
(0.000756752 -1.8702e-05 0)
(0.000761744 -2.47412e-05 0)
(0.00132708 3.72863e-05 0)
(0.00134698 6.08056e-05 0)
(0.00136862 9.21444e-05 0)
(0.00138839 0.000118484 0)
(0.00140126 0.000131593 0)
(0.00140158 0.00014058 0)
(0.00138329 0.000161207 0)
(0.00134504 0.000190621 0)
(0.0012936 0.000203607 0)
(0.00123786 0.000180086 0)
(0.0011819 0.000129372 0)
(0.00112527 8.14648e-05 0)
(0.00106896 5.87852e-05 0)
(0.00101811 6.10111e-05 0)
(0.000978486 7.32832e-05 0)
(0.000950905 8.26728e-05 0)
(0.000931034 8.40193e-05 0)
(0.000914492 7.74233e-05 0)
(0.000899638 6.53372e-05 0)
(0.000886824 5.0458e-05 0)
(0.000877193 3.46907e-05 0)
(0.000871846 1.93262e-05 0)
(0.000871496 5.63076e-06 0)
(0.000876171 -4.87146e-06 0)
(0.000885215 -1.07972e-05 0)
(0.000897389 -1.13546e-05 0)
(0.000910987 -6.63291e-06 0)
(0.00092427 2.42581e-06 0)
(0.00093574 1.43791e-05 0)
(0.000944206 2.77317e-05 0)
(0.000949016 4.1231e-05 0)
(0.000950066 5.39099e-05 0)
(0.000947522 6.50903e-05 0)
(0.000941761 7.4354e-05 0)
(0.000933317 8.15515e-05 0)
(0.000922816 8.68125e-05 0)
(0.000910904 9.04971e-05 0)
(0.000898185 9.30742e-05 0)
(0.000885166 9.49751e-05 0)
(0.000872244 9.64874e-05 0)
(0.000859698 9.77228e-05 0)
(0.000847712 9.86499e-05 0)
(0.000836395 9.91544e-05 0)
(0.000825813 9.90914e-05 0)
(0.000816018 9.83146e-05 0)
(0.000807065 9.66727e-05 0)
(0.000799021 9.40085e-05 0)
(0.000791954 9.01618e-05 0)
(0.000785907 8.50064e-05 0)
(0.000780899 7.84922e-05 0)
(0.000776909 7.07027e-05 0)
(0.000773904 6.18673e-05 0)
(0.00077185 5.23499e-05 0)
(0.000770775 4.25635e-05 0)
(0.000770727 3.28832e-05 0)
(0.000771821 2.35632e-05 0)
(0.000774145 1.47396e-05 0)
(0.000777995 6.54946e-06 0)
(0.000783579 -1.04281e-06 0)
(0.000790808 -8.05873e-06 0)
(0.000799592 -1.44433e-05 0)
(0.000809746 -2.00441e-05 0)
(0.000821109 -2.47054e-05 0)
(0.000833319 -2.82489e-05 0)
(0.00084617 -3.07145e-05 0)
(0.000859145 -3.21924e-05 0)
(0.000872085 -3.31302e-05 0)
(0.000884412 -3.38474e-05 0)
(0.00089616 -3.49092e-05 0)
(0.000906823 -3.63952e-05 0)
(0.00091659 -3.85222e-05 0)
(0.000925115 -4.07647e-05 0)
(0.000932624 -4.29644e-05 0)
(0.000939213 -4.43385e-05 0)
(0.000944873 -4.47542e-05 0)
(0.000950413 -4.36063e-05 0)
(0.000955108 -4.09889e-05 0)
(0.00096055 -3.67949e-05 0)
(0.000964984 -3.14109e-05 0)
(0.000970352 -2.52302e-05 0)
(0.000974076 -1.91721e-05 0)
(0.000978104 -1.36801e-05 0)
(0.000979517 -9.82495e-06 0)
(0.000980862 -7.907e-06 0)
(0.000980196 -8.26564e-06 0)
(0.000979463 -1.18409e-05 0)
(0.000981193 -1.60949e-05 0)
(0.000979535 -2.25441e-05 0)
(0.00098827 -2.9084e-05 0)
(0.00135568 -3.10617e-06 0)
(0.00137942 1.35312e-05 0)
(0.00140512 3.7159e-05 0)
(0.00143196 6.02964e-05 0)
(0.00145641 7.72063e-05 0)
(0.0014757 9.51246e-05 0)
(0.00149142 0.000127256 0)
(0.00150692 0.000172499 0)
(0.00152234 0.000213578 0)
(0.00153126 0.000242126 0)
(0.00152079 0.0002696 0)
(0.00148104 0.000300443 0)
(0.00141657 0.000312658 0)
(0.00134013 0.000283918 0)
(0.00125985 0.000224056 0)
(0.00118036 0.00016478 0)
(0.00110762 0.0001262 0)
(0.00104733 0.000105514 0)
(0.00100146 9.07434e-05 0)
(0.000967981 7.38844e-05 0)
(0.000943671 5.26394e-05 0)
(0.000926635 2.79096e-05 0)
(0.000916681 2.21258e-06 0)
(0.00091396 -2.09948e-05 0)
(0.000917921 -3.78735e-05 0)
(0.000927146 -4.55587e-05 0)
(0.000939317 -4.31217e-05 0)
(0.000951682 -3.16321e-05 0)
(0.000961901 -1.35008e-05 0)
(0.000968514 8.42378e-06 0)
(0.000970864 3.16862e-05 0)
(0.000968976 5.42643e-05 0)
(0.000963364 7.46264e-05 0)
(0.00095475 9.17778e-05 0)
(0.000943895 0.000105268 0)
(0.000931491 0.000115153 0)
(0.000918122 0.00012188 0)
(0.00090425 0.000126092 0)
(0.000890231 0.000128444 0)
(0.00087632 0.000129469 0)
(0.000862693 0.000129524 0)
(0.000849459 0.000128797 0)
(0.000836683 0.000127342 0)
(0.000824412 0.000125109 0)
(0.000812698 0.000121975 0)
(0.000801618 0.00011776 0)
(0.000791274 0.000112263 0)
(0.0007818 0.000105288 0)
(0.000773325 9.67164e-05 0)
(0.000766021 8.65231e-05 0)
(0.000760032 7.48356e-05 0)
(0.000755569 6.18948e-05 0)
(0.000752834 4.80693e-05 0)
(0.000752103 3.37424e-05 0)
(0.00075359 1.93073e-05 0)
(0.000757529 5.0775e-06 0)
(0.000764323 -8.60002e-06 0)
(0.000774027 -2.14538e-05 0)
(0.00078646 -3.33646e-05 0)
(0.000801591 -4.41521e-05 0)
(0.000819381 -5.37455e-05 0)
(0.000839518 -6.1892e-05 0)
(0.00086186 -6.85899e-05 0)
(0.000885948 -7.35056e-05 0)
(0.000911629 -7.68129e-05 0)
(0.00093834 -7.81985e-05 0)
(0.000965833 -7.81834e-05 0)
(0.00099347 -7.65372e-05 0)
(0.00102067 -7.40838e-05 0)
(0.001047 -7.04766e-05 0)
(0.00107127 -6.64755e-05 0)
(0.00109402 -6.15844e-05 0)
(0.00111312 -5.6392e-05 0)
(0.00113084 -5.08364e-05 0)
(0.00114371 -4.54173e-05 0)
(0.0011562 -4.08157e-05 0)
(0.00116366 -3.665e-05 0)
(0.00117205 -3.36766e-05 0)
(0.00117659 -2.99587e-05 0)
(0.00118224 -2.63485e-05 0)
(0.00118597 -2.10181e-05 0)
(0.00119062 -1.52105e-05 0)
(0.00119334 -8.63024e-06 0)
(0.00119945 -5.89921e-06 0)
(0.00119947 -1.62065e-06 0)
(0.00120534 -1.01352e-05 0)
(0.00120332 -1.41075e-05 0)
(0.00120411 -2.83686e-05 0)
(0.00120366 -4.56343e-05 0)
(0.00142594 -6.36568e-05 0)
(0.00145362 -4.88102e-05 0)
(0.00148186 -2.73234e-05 0)
(0.00151055 -1.40067e-06 0)
(0.0015372 2.52771e-05 0)
(0.00155946 5.4352e-05 0)
(0.00157795 9.12532e-05 0)
(0.00159525 0.00013457 0)
(0.0016114 0.000175592 0)
(0.0016226 0.000212379 0)
(0.00162742 0.00025308 0)
(0.00162983 0.000299726 0)
(0.00163185 0.000342941 0)
(0.00162589 0.000377736 0)
(0.00159838 0.000405196 0)
(0.00154197 0.000413471 0)
(0.00146223 0.000383609 0)
(0.00137137 0.00031827 0)
(0.00128053 0.000242436 0)
(0.00119814 0.000176615 0)
(0.00112906 0.000123515 0)
(0.00107437 7.67376e-05 0)
(0.00103286 3.20274e-05 0)
(0.00100344 -9.16285e-06 0)
(0.000985286 -4.1546e-05 0)
(0.000976498 -5.97359e-05 0)
(0.000974095 -6.12146e-05 0)
(0.000974572 -4.73264e-05 0)
(0.000974749 -2.22551e-05 0)
(0.000972797 8.84793e-06 0)
(0.000968101 4.1231e-05 0)
(0.000960671 7.14154e-05 0)
(0.000951075 9.72863e-05 0)
(0.000940051 0.000117897 0)
(0.000928188 0.000133197 0)
(0.000915839 0.000143754 0)
(0.000903148 0.000150468 0)
(0.000890108 0.000154332 0)
(0.000876645 0.00015623 0)
(0.000862665 0.000156841 0)
(0.000848098 0.00015659 0)
(0.000832921 0.000155674 0)
(0.000817165 0.0001541 0)
(0.000800934 0.000151735 0)
(0.000784388 0.000148353 0)
(0.000767771 0.000143674 0)
(0.000751356 0.000137431 0)
(0.000735496 0.000129359 0)
(0.000720536 0.000119304 0)
(0.000706901 0.000107153 0)
(0.000694961 9.2969e-05 0)
(0.000685171 7.68646e-05 0)
(0.000677894 5.91127e-05 0)
(0.000673556 4.00153e-05 0)
(0.000672451 1.99949e-05 0)
(0.000675029 -4.53981e-07 0)
(0.000681615 -2.10203e-05 0)
(0.00069222 -4.13827e-05 0)
(0.000706932 -6.11874e-05 0)
(0.000725597 -7.98285e-05 0)
(0.00074813 -9.71202e-05 0)
(0.000774165 -0.000112336 0)
(0.000803462 -0.000125586 0)
(0.00083552 -0.000135987 0)
(0.000869887 -0.000144153 0)
(0.000906145 -0.000149014 0)
(0.000943335 -0.000151803 0)
(0.000981548 -0.000151268 0)
(0.00101878 -0.000149093 0)
(0.00105633 -0.000144012 0)
(0.00109062 -0.000137579 0)
(0.00112506 -0.000129239 0)
(0.00115418 -0.000119408 0)
(0.00118395 -0.000109521 0)
(0.00120678 -9.76562e-05 0)
(0.00123165 -8.80311e-05 0)
(0.00124736 -7.56199e-05 0)
(0.00126767 -6.69351e-05 0)
(0.00127685 -5.5739e-05 0)
(0.00129223 -4.65335e-05 0)
(0.00129927 -4.05564e-05 0)
(0.00130981 -2.99984e-05 0)
(0.00131837 -2.96782e-05 0)
(0.00132788 -2.46599e-05 0)
(0.00133788 -1.80725e-05 0)
(0.00134816 -2.53306e-05 0)
(0.00135937 -1.47992e-05 0)
(0.00136514 -2.2747e-05 0)
(0.00137406 -3.18148e-05 0)
(0.00151701 -0.000126344 0)
(0.00155206 -0.00010873 0)
(0.00158512 -8.53159e-05 0)
(0.00161631 -5.67037e-05 0)
(0.00164495 -2.44336e-05 0)
(0.00166917 1.15089e-05 0)
(0.00168834 5.25692e-05 0)
(0.00170457 9.83911e-05 0)
(0.00171947 0.000145782 0)
(0.00173143 0.000193441 0)
(0.00173892 0.000243243 0)
(0.00174299 0.000294465 0)
(0.00174393 0.000342567 0)
(0.00173974 0.000385631 0)
(0.00173043 0.000425402 0)
(0.00171796 0.00046172 0)
(0.00169823 0.000489325 0)
(0.00165974 0.000496984 0)
(0.0015954 0.000471963 0)
(0.00151066 0.000412161 0)
(0.00141778 0.000330357 0)
(0.00132711 0.000242877 0)
(0.00124477 0.000159287 0)
(0.00117418 8.40854e-05 0)
(0.00111728 2.22221e-05 0)
(0.00107462 -1.98354e-05 0)
(0.00104476 -3.76433e-05 0)
(0.00102441 -3.19899e-05 0)
(0.00100979 -8.62505e-06 0)
(0.000997566 2.45387e-05 0)
(0.000985621 6.02078e-05 0)
(0.000973338 9.33106e-05 0)
(0.000960762 0.000121165 0)
(0.000948035 0.000142959 0)
(0.000935153 0.0001591 0)
(0.000921889 0.00017063 0)
(0.000907867 0.000178778 0)
(0.000892669 0.000184659 0)
(0.000875944 0.000189105 0)
(0.000857459 0.000192621 0)
(0.000837125 0.000195397 0)
(0.00081499 0.000197386 0)
(0.000791223 0.000198355 0)
(0.00076612 0.000197955 0)
(0.000740073 0.000195766 0)
(0.000713601 0.00019133 0)
(0.000687272 0.000184237 0)
(0.000661771 0.000174087 0)
(0.000637748 0.000160682 0)
(0.000615981 0.00014386 0)
(0.000597106 0.000123756 0)
(0.000581833 0.00010053 0)
(0.000570646 7.46312e-05 0)
(0.000564116 4.65355e-05 0)
(0.00056259 1.68777e-05 0)
(0.000565995 -1.35792e-05 0)
(0.000574081 -4.44117e-05 0)
(0.000586984 -7.47893e-05 0)
(0.000604794 -0.0001044 0)
(0.000627375 -0.000132138 0)
(0.00065447 -0.000158173 0)
(0.000685925 -0.000180955 0)
(0.000721164 -0.000201383 0)
(0.000760195 -0.000217264 0)
(0.000801885 -0.000230482 0)
(0.00084681 -0.000238164 0)
(0.000892566 -0.000243047 0)
(0.00094113 -0.000242186 0)
(0.000987775 -0.000238361 0)
(0.00103712 -0.000229741 0)
(0.00108071 -0.000217989 0)
(0.00112774 -0.000203675 0)
(0.00116448 -0.000186308 0)
(0.00120597 -0.000168518 0)
(0.00123382 -0.000149754 0)
(0.00126697 -0.000130249 0)
(0.00128612 -0.000113502 0)
(0.00131009 -9.76687e-05 0)
(0.00132261 -8.04456e-05 0)
(0.00133769 -7.5056e-05 0)
(0.00134871 -5.61793e-05 0)
(0.00135425 -5.61961e-05 0)
(0.00136949 -4.58616e-05 0)
(0.00136683 -4.6796e-05 0)
(0.00138625 -4.34966e-05 0)
(0.0013825 -5.37161e-05 0)
(0.0014034 -5.02852e-05 0)
(0.00140395 -5.47943e-05 0)
(0.00142611 -6.5692e-05 0)
(0.00159555 -0.000218133 0)
(0.00163531 -0.000195843 0)
(0.00167253 -0.000166765 0)
(0.001707 -0.00013109 0)
(0.00173815 -8.98727e-05 0)
(0.00176519 -4.38057e-05 0)
(0.00178807 7.12128e-06 0)
(0.00180705 6.20555e-05 0)
(0.00182163 0.000118897 0)
(0.00183105 0.000176328 0)
(0.00183541 0.00023415 0)
(0.00183596 0.000291179 0)
(0.00183376 0.000345692 0)
(0.00182862 0.00039676 0)
(0.00182009 0.000443417 0)
(0.00180854 0.000484965 0)
(0.00179433 0.000522381 0)
(0.00177578 0.000554599 0)
(0.00174775 0.000573179 0)
(0.00170341 0.000565899 0)
(0.00163923 0.000526489 0)
(0.00155834 0.000458322 0)
(0.00146822 0.000370135 0)
(0.00137683 0.000272194 0)
(0.00129128 0.000176712 0)
(0.00121735 9.77561e-05 0)
(0.00115831 4.69659e-05 0)
(0.00111385 2.83492e-05 0)
(0.00108065 3.70327e-05 0)
(0.00105461 6.27666e-05 0)
(0.0010326 9.5121e-05 0)
(0.00101274 0.000126623 0)
(0.00099404 0.000153473 0)
(0.000975951 0.000174761 0)
(0.00095795 0.000191232 0)
(0.00093943 0.000204246 0)
(0.000919761 0.000215102 0)
(0.000898383 0.00022474 0)
(0.000874887 0.000233647 0)
(0.000849043 0.000241943 0)
(0.000820806 0.000249447 0)
(0.000790308 0.000255793 0)
(0.000757862 0.000260446 0)
(0.00072398 0.000262777 0)
(0.000689325 0.000262081 0)
(0.000654765 0.000257633 0)
(0.00062121 0.000248835 0)
(0.000589716 0.00023516 0)
(0.00056115 0.000216468 0)
(0.000536455 0.000192646 0)
(0.000516191 0.000164112 0)
(0.000501026 0.000131221 0)
(0.000491139 9.47482e-05 0)
(0.000486911 5.54732e-05 0)
(0.000488343 1.42057e-05 0)
(0.000495152 -2.82449e-05 0)
(0.000506823 -7.12457e-05 0)
(0.000523459 -0.000113278 0)
(0.000544584 -0.000154564 0)
(0.000570412 -0.000192839 0)
(0.000599937 -0.000229611 0)
(0.000634088 -0.000261373 0)
(0.000670972 -0.000291208 0)
(0.000712645 -0.000314151 0)
(0.000755669 -0.000334943 0)
(0.000804123 -0.00034737 0)
(0.000851589 -0.000357149 0)
(0.00090564 -0.000358241 0)
(0.000955366 -0.000355748 0)
(0.00101256 -0.000345324 0)
(0.00106176 -0.000330801 0)
(0.00111824 -0.000310727 0)
(0.00116353 -0.000284817 0)
(0.00121412 -0.000260644 0)
(0.00125316 -0.000225898 0)
(0.00129192 -0.00020305 0)
(0.00132449 -0.000166603 0)
(0.00134801 -0.000147678 0)
(0.00137419 -0.000115362 0)
(0.00138465 -0.000103505 0)
(0.0014042 -7.9049e-05 0)
(0.00140627 -7.39506e-05 0)
(0.00142279 -6.16894e-05 0)
(0.0014186 -6.02322e-05 0)
(0.00143734 -5.74439e-05 0)
(0.00143012 -6.28229e-05 0)
(0.00144915 -6.92078e-05 0)
(0.00144631 -7.15275e-05 0)
(0.00146813 -8.67701e-05 0)
(0.00167593 -0.000310659 0)
(0.00171612 -0.000282129 0)
(0.00175279 -0.000245983 0)
(0.00178568 -0.000202473 0)
(0.00181449 -0.000152563 0)
(0.00183895 -9.73559e-05 0)
(0.00185949 -3.73958e-05 0)
(0.00187623 2.62706e-05 0)
(0.00188828 9.19408e-05 0)
(0.00189552 0.000158109 0)
(0.00189873 0.000224204 0)
(0.00189844 0.000289508 0)
(0.00189466 0.000353033 0)
(0.00188702 0.000413553 0)
(0.00187512 0.00046833 0)
(0.00185921 0.000514528 0)
(0.001841 0.00055356 0)
(0.0018224 0.00059013 0)
(0.00180241 0.000624276 0)
(0.00177584 0.000647053 0)
(0.00173658 0.000646407 0)
(0.00168159 0.00061567 0)
(0.00161171 0.000555465 0)
(0.00153046 0.000470883 0)
(0.00144349 0.000371087 0)
(0.00135811 0.000271074 0)
(0.00128143 0.000189007 0)
(0.00121782 0.000138189 0)
(0.00116761 0.000120838 0)
(0.00112817 0.000129103 0)
(0.00109601 0.000151129 0)
(0.00106821 0.000176893 0)
(0.00104282 0.0002007 0)
(0.00101862 0.000220768 0)
(0.000994686 0.000237606 0)
(0.000970228 0.000252509 0)
(0.000944532 0.000266617 0)
(0.000916993 0.000280576 0)
(0.000887193 0.000294491 0)
(0.000854929 0.000308075 0)
(0.000820264 0.000320708 0)
(0.000783545 0.000331558 0)
(0.0007454 0.000339577 0)
(0.000706737 0.000343637 0)
(0.000668615 0.000342611 0)
(0.000632286 0.000335501 0)
(0.000598839 0.000321662 0)
(0.000569484 0.000300647 0)
(0.000544908 0.000272697 0)
(0.000525974 0.000238016 0)
(0.0005128 0.0001976 0)
(0.000505774 0.000152245 0)
(0.000504622 0.000103076 0)
(0.000509365 5.14464e-05 0)
(0.000518953 -2.11758e-06 0)
(0.000533199 -5.58909e-05 0)
(0.000551612 -0.000110007 0)
(0.000574281 -0.000161613 0)
(0.000599671 -0.000212785 0)
(0.000629033 -0.000258864 0)
(0.00065974 -0.000304422 0)
(0.000694599 -0.000342624 0)
(0.000729417 -0.000380205 0)
(0.000769006 -0.000408764 0)
(0.000807217 -0.000436093 0)
(0.000851172 -0.000453756 0)
(0.000892503 -0.000467942 0)
(0.000940534 -0.000474379 0)
(0.000985138 -0.000472072 0)
(0.00103613 -0.000467099 0)
(0.00108419 -0.000446839 0)
(0.00113526 -0.000430033 0)
(0.00118523 -0.000393319 0)
(0.00123238 -0.000366788 0)
(0.00127972 -0.000318364 0)
(0.00131876 -0.000286502 0)
(0.0013585 -0.000235994 0)
(0.00138526 -0.000205236 0)
(0.0014157 -0.000160781 0)
(0.00142857 -0.000138424 0)
(0.00145124 -0.000104704 0)
(0.00145222 -9.18605e-05 0)
(0.00147027 -7.54622e-05 0)
(0.00146302 -7.16674e-05 0)
(0.00148101 -7.07399e-05 0)
(0.00147148 -7.23207e-05 0)
(0.00149005 -8.71655e-05 0)
(0.00148314 -8.99797e-05 0)
(0.00150497 -0.000115588 0)
(0.00170704 -0.000402388 0)
(0.00174458 -0.000366059 0)
(0.00177827 -0.000321336 0)
(0.001808 -0.000268744 0)
(0.00183373 -0.0002094 0)
(0.0018554 -0.000144734 0)
(0.00187306 -7.55321e-05 0)
(0.00188735 -2.51435e-06 0)
(0.00189816 7.28073e-05 0)
(0.00190478 0.000148706 0)
(0.00190739 0.000223737 0)
(0.0019062 0.000296732 0)
(0.00190145 0.000366885 0)
(0.00189349 0.000434153 0)
(0.00188214 0.000497377 0)
(0.00186656 0.000552597 0)
(0.0018468 0.000596863 0)
(0.00182496 0.000633383 0)
(0.00180306 0.000668386 0)
(0.00178 0.000701744 0)
(0.00175158 0.000724107 0)
(0.00171336 0.000724029 0)
(0.00166287 0.000694944 0)
(0.00160007 0.000635717 0)
(0.00152737 0.000550056 0)
(0.00144968 0.000448891 0)
(0.00137349 0.000350648 0)
(0.00130468 0.000274449 0)
(0.00124641 0.00023068 0)
(0.0011986 0.000217412 0)
(0.00115904 0.000224669 0)
(0.00112505 0.000241481 0)
(0.00109442 0.000260423 0)
(0.00106555 0.000278408 0)
(0.00103728 0.000295255 0)
(0.00100868 0.000311924 0)
(0.000979015 0.000329275 0)
(0.000947728 0.000347597 0)
(0.000914556 0.000366489 0)
(0.000879539 0.000385041 0)
(0.000843082 0.000401899 0)
(0.000805918 0.000415508 0)
(0.000769039 0.000424163 0)
(0.00073368 0.000426279 0)
(0.000701005 0.000420544 0)
(0.000672336 0.000405981 0)
(0.000648453 0.000382362 0)
(0.000630375 0.000349634 0)
(0.0006182 0.000308785 0)
(0.000612411 0.000260606 0)
(0.00061256 0.000206573 0)
(0.000618538 0.000148325 0)
(0.000629641 8.67378e-05 0)
(0.000645277 2.42438e-05 0)
(0.000664299 -3.96758e-05 0)
(0.000687273 -0.000101275 0)
(0.000712756 -0.000163007 0)
(0.000741646 -0.000219801 0)
(0.0007714 -0.000276553 0)
(0.000804009 -0.000326311 0)
(0.000836372 -0.000375578 0)
(0.000871139 -0.000417203 0)
(0.000904877 -0.000456678 0)
(0.0009405 -0.000489576 0)
(0.000974754 -0.000517124 0)
(0.00101021 -0.000540829 0)
(0.00104454 -0.000554449 0)
(0.00107935 -0.00056809 0)
(0.00111395 -0.000565972 0)
(0.00114874 -0.000567654 0)
(0.00118484 -0.000547971 0)
(0.00122082 -0.000534924 0)
(0.00125967 -0.000496666 0)
(0.00129613 -0.000468257 0)
(0.00133645 -0.000413841 0)
(0.00136966 -0.000374155 0)
(0.0014075 -0.00031208 0)
(0.0014318 -0.000269515 0)
(0.00146292 -0.000211945 0)
(0.00147476 -0.000176955 0)
(0.00149739 -0.000134434 0)
(0.00149781 -0.000111461 0)
(0.00151469 -9.03337e-05 0)
(0.00150656 -8.06263e-05 0)
(0.00152166 -8.19547e-05 0)
(0.00151119 -8.02441e-05 0)
(0.00152762 -0.000101675 0)
(0.00152008 -0.000103127 0)
(0.00153913 -0.000139154 0)
(0.00168967 -0.000483976 0)
(0.0017197 -0.000438981 0)
(0.00174618 -0.000385423 0)
(0.00176919 -0.000324117 0)
(0.00178888 -0.000256354 0)
(0.00180537 -0.000183708 0)
(0.00181871 -0.000107116 0)
(0.00182917 -2.70134e-05 0)
(0.0018371 5.52871e-05 0)
(0.00184241 0.000138325 0)
(0.00184489 0.000220775 0)
(0.00184455 0.000301235 0)
(0.00184143 0.000378531 0)
(0.00183558 0.000452807 0)
(0.00182677 0.000523987 0)
(0.00181432 0.000588404 0)
(0.00179794 0.00064085 0)
(0.00177863 0.000681735 0)
(0.00175807 0.000718007 0)
(0.00173687 0.000754202 0)
(0.00171359 0.000785647 0)
(0.00168536 0.0008023 0)
(0.00164925 0.00079568 0)
(0.00160355 0.000760483 0)
(0.00154846 0.000694725 0)
(0.00148642 0.000603676 0)
(0.00142166 0.000502833 0)
(0.00135902 0.000412994 0)
(0.0013024 0.000349912 0)
(0.00125349 0.00031754 0)
(0.00121183 0.000309546 0)
(0.00117566 0.000315861 0)
(0.00114309 0.000328395 0)
(0.00111258 0.000343106 0)
(0.00108303 0.000359093 0)
(0.00105366 0.000376803 0)
(0.00102395 0.000396554 0)
(0.000993593 0.000417991 0)
(0.000962625 0.00043992 0)
(0.000931361 0.000460632 0)
(0.000900429 0.000478042 0)
(0.000870739 0.000490009 0)
(0.000843239 0.000494533 0)
(0.000819097 0.000489895 0)
(0.000799057 0.000475095 0)
(0.000784134 0.000449448 0)
(0.000774485 0.000413445 0)
(0.000770694 0.000367636 0)
(0.000772314 0.000313458 0)
(0.000779355 0.000252724 0)
(0.000791073 0.000186627 0)
(0.000807119 0.000118136 0)
(0.000826408 4.7131e-05 0)
(0.000848898 -2.25345e-05 0)
(0.000873615 -9.28158e-05 0)
(0.000901401 -0.000158833 0)
(0.000930147 -0.000224434 0)
(0.000960983 -0.000284352 0)
(0.000992419 -0.000342584 0)
(0.00102526 -0.000395115 0)
(0.00105862 -0.000443593 0)
(0.00109266 -0.000487477 0)
(0.00112696 -0.000524424 0)
(0.00116103 -0.000558292 0)
(0.00119476 -0.000582213 0)
(0.0012274 -0.000605133 0)