/*--------------------------------*- C++ -*----------------------------------*\
| =========                 |                                                 |
| \\      /  F ield         | OpenFOAM: The Open Source CFD Toolbox           |
|  \\    /   O peration     | Version:  2312                                  |
|   \\  /    A nd           | Website:  www.openfoam.com                      |
|    \\/     M anipulation  |                                                 |
\*---------------------------------------------------------------------------*/
FoamFile
{
    version     2.0;
    format      ascii;
    arch        "LSB;label=32;scalar=64";
    class       surfaceScalarField;
    location    "184000";
    object      phi;
}
// * * * * * * * * * * * * * * * * * * * * * * * * * * * * * * * * * * * * * //

dimensions      [0 3 -1 0 0 0 0];

oriented        oriented;

internalField   nonuniform List<scalar> 
5250
(
0.000157061
3.32739e-06
0.000153857
3.20406e-06
0.000150321
3.53603e-06
0.0001466
3.72135e-06
0.000143065
3.53448e-06
0.000140004
3.06142e-06
0.00013755
2.45354e-06
0.000135739
1.81179e-06
0.000134551
1.18709e-06
0.000133943
6.08423e-07
0.000133861
8.21819e-08
0.000134199
-3.37896e-07
0.0001349
-7.01517e-07
0.000135901
-1.0008e-06
0.000137134
-1.23269e-06
0.000138534
-1.39994e-06
0.000140029
-1.49566e-06
0.000141548
-1.51905e-06
0.000143036
-1.48788e-06
0.000144447
-1.41096e-06
0.000145726
-1.27854e-06
0.000146799
-1.07321e-06
0.000147591
-7.9169e-07
0.000148052
-4.61158e-07
0.000148192
-1.40491e-07
0.000148119
7.31073e-08
0.000148003
1.16486e-07
0.0001481
-9.76667e-08
0.000148633
-5.32751e-07
0.00014981
-1.17669e-06
0.000151774
-1.96428e-06
0.000154599
-2.82508e-06
0.000158288
-3.68862e-06
0.000162776
-4.48778e-06
0.000167949
-5.17363e-06
0.000173668
-5.7189e-06
0.000179765
-6.0971e-06
0.000186046
-6.28033e-06
0.000192362
-6.31639e-06
0.000198498
-6.13563e-06
0.000204069
-5.57186e-06
0.000208663
-4.59404e-06
0.000211885
-3.222e-06
0.000213516
-1.63095e-06
0.000213554
-3.78384e-08
0.000212747
8.06998e-07
0.000211495
1.25228e-06
0.000210163
1.33178e-06
0.000208952
1.21126e-06
0.000207867
1.08449e-06
0.000206717
1.15065e-06
0.000205116
1.60076e-06
0.000202323
2.79338e-06
0.000197965
4.35809e-06
0.000191842
6.12275e-06
0.000184083
7.75861e-06
0.000175109
8.97469e-06
0.000165468
9.64017e-06
0.000155706
9.76258e-06
0.000146323
9.38286e-06
0.000137318
9.00444e-06
0.000128767
8.55184e-06
0.000120836
7.93038e-06
0.00011371
7.12617e-06
0.000107506
6.20415e-06
0.000102212
5.29381e-06
9.78351e-05
4.37703e-06
9.44068e-05
3.42834e-06
9.18963e-05
2.51048e-06
9.02608e-05
1.6355e-06
8.94499e-05
8.10848e-07
8.94253e-05
2.46744e-08
8.99566e-05
-5.31351e-07
9.09793e-05
-1.02271e-06
9.23795e-05
-1.40016e-06
9.40278e-05
-1.64834e-06
9.57971e-05
-1.76933e-06
9.75709e-05
-1.77373e-06
9.92247e-05
-1.65382e-06
0.000100683
-1.45806e-06
0.000101927
-1.24383e-06
0.000102993
-1.06685e-06
0.000103964
-9.70248e-07
0.000104935
-9.71132e-07
0.000105991
-1.05581e-06
0.000107178
-1.18704e-06
0.000108495
-1.31772e-06
0.000109899
-1.40332e-06
0.000111309
-1.40995e-06
-1.31484e-06
0.000564557
2.50601e-05
0.000544576
2.31845e-05
0.00052677
2.13416e-05
0.000510982
1.95093e-05
0.000496918
1.75988e-05
0.000484412
1.55678e-05
0.00047341
1.34552e-05
0.000463889
1.13331e-05
0.000455801
9.2751e-06
0.00044907
7.33886e-06
0.000443593
5.56002e-06
0.000439308
3.94663e-06
0.000436153
2.45339e-06
0.000434055
1.09773e-06
0.000432918
-9.64783e-08
0.000432581
-1.0623e-06
0.000432953
-1.86801e-06
0.000433965
-2.53109e-06
0.000435571
-3.09417e-06
0.00043776
-3.59929e-06
0.000440568
-4.08714e-06
0.000444087
-4.59166e-06
0.000448434
-5.13944e-06
0.000453719
-5.74559e-06
0.000460006
-6.42767e-06
0.000467333
-7.25404e-06
0.000475661
-8.21168e-06
0.000484785
-9.22094e-06
0.000494551
-1.0299e-05
0.000504783
-1.14091e-05
0.000515309
-1.24899e-05
0.000525953
-1.3469e-05
0.000536536
-1.42716e-05
0.000546863
-1.4815e-05
0.000556709
-1.50191e-05
0.000565809
-1.48196e-05
0.000573873
-1.41609e-05
0.000580581
-1.29879e-05
0.000585528
-1.12641e-05
0.000588365
-8.97242e-06
0.000588861
-6.06795e-06
0.00058704
-2.77237e-06
0.000582919
8.98449e-07
0.000576393
4.89565e-06
0.0005678
8.55432e-06
0.000557076
1.15309e-05
0.000544607
1.37219e-05
0.000530651
1.52876e-05
0.000515434
1.64288e-05
0.00049921
1.73078e-05
0.000482495
1.78661e-05
0.000465552
1.85431e-05
0.000448289
2.00571e-05
0.000430681
2.19657e-05
0.000413289
2.35152e-05
0.000397138
2.39088e-05
0.000383263
2.285e-05
0.000372143
2.07607e-05
0.000363327
1.8578e-05
0.000355205
1.75052e-05
0.000346929
1.72806e-05
0.000337898
1.75829e-05
0.000328007
1.78205e-05
0.000317759
1.7375e-05
0.000307931
1.60321e-05
0.000299307
1.39175e-05
0.000292332
1.13516e-05
0.00028694
8.82087e-06
0.000283105
6.34588e-06
0.000280776
3.9639e-06
0.000279839
1.74752e-06
0.000280132
-2.67768e-07
0.000281726
-2.12593e-06
0.000284263
-3.55945e-06
0.000287465
-4.60162e-06
0.000291079
-5.26272e-06
0.000294856
-5.54664e-06
0.000298548
-5.46523e-06
0.000301959
-5.06518e-06
0.000304917
-4.41591e-06
0.000307284
-3.61092e-06
0.000308986
-2.76869e-06
0.000310017
-2.00153e-06
0.000310429
-1.38264e-06
0.000310307
-9.34253e-07
0.000309757
-6.36544e-07
0.000308882
-4.42621e-07
0.000307768
-2.90088e-07
0.000306471
-1.13029e-07
1.76083e-07
0.000804171
4.25149e-05
0.000785682
4.16734e-05
0.000766875
4.01488e-05
0.000748222
3.81616e-05
0.000729958
3.58638e-05
0.000712207
3.33179e-05
0.000695123
3.05394e-05
0.000678905
2.75511e-05
0.000663696
2.44844e-05
0.000649577
2.14575e-05
0.000636622
1.8515e-05
0.000624884
1.56852e-05
0.00061435
1.29868e-05
0.000604992
1.0456e-05
0.000596761
8.13465e-06
0.000589652
6.046e-06
0.000583611
4.17386e-06
0.00057861
2.47003e-06
0.000574649
8.66559e-07
0.000571829
-7.79649e-07
0.000570243
-2.50085e-06
0.000569952
-4.30109e-06
0.000571021
-6.2085e-06
0.000573484
-8.20863e-06
0.000577356
-1.02995e-05
0.000582572
-1.24698e-05
0.000589021
-1.46611e-05
0.000596645
-1.68444e-05
0.000605401
-1.90551e-05
0.00061522
-2.1228e-05
0.00062601
-2.32803e-05
0.000637664
-2.51229e-05
0.000650066
-2.66731e-05
0.0006631
-2.78494e-05
0.000676654
-2.85734e-05
0.000690615
-2.87803e-05
0.000704879
-2.84248e-05
0.000719362
-2.74709e-05
0.000733996
-2.58979e-05
0.000748763
-2.374e-05
0.000763793
-2.10975e-05
0.000779001
-1.79808e-05
0.00079417
-1.42707e-05
0.000809112
-1.00456e-05
0.000823115
-5.44887e-06
0.000835102
-4.56215e-07
0.000844724
4.09988e-06
0.000850926
9.08564e-06
0.000852915
1.44398e-05
0.000850066
2.01566e-05
0.000841359
2.65731e-05
0.000825976
3.39266e-05
0.000804692
4.13405e-05
0.000778264
4.83939e-05
0.000747603
5.41766e-05
0.000713762
5.77498e-05
0.000678014
5.85981e-05
0.000641967
5.68077e-05
0.000607554
5.29909e-05
0.000575754
4.93046e-05
0.000546329
4.67058e-05
0.000519577
4.43349e-05
0.00049643
4.09673e-05
0.0004777
3.61054e-05
0.000463323
3.04092e-05
0.000452106
2.51345e-05
0.00044284
2.06172e-05
0.000434923
1.67378e-05
0.000428001
1.32683e-05
0.000422122
9.84246e-06
0.000417562
6.30781e-06
0.000414573
2.72112e-06
0.000413117
-6.69815e-07
0.000413246
-3.68819e-06
0.00041509
-6.44558e-06
0.00041861
-8.78311e-06
0.000423662
-1.05984e-05
0.000430005
-1.18082e-05
0.0004373
-1.236e-05
0.000445133
-1.22491e-05
0.000453025
-1.15029e-05
0.000460489
-1.02322e-05
0.000467129
-8.64196e-06
0.000472672
-6.92607e-06
0.000476964
-5.22566e-06
0.000479945
-3.6182e-06
0.00048163
-2.12737e-06
0.000482075
-7.35254e-07
0.000481441
5.20899e-07
1.70332e-06
0.000900119
5.63828e-05
0.000885591
5.62017e-05
0.00087032
5.54203e-05
0.000854354
5.41277e-05
0.000837796
5.24218e-05
0.000820771
5.0342e-05
0.00080339
4.79209e-05
0.000785737
4.52039e-05
0.000767991
4.22304e-05
0.000750412
3.90365e-05
0.000733245
3.56827e-05
0.000716672
3.22579e-05
0.000700808
2.88505e-05
0.000685734
2.55299e-05
0.000671529
2.23395e-05
0.000658292
1.92833e-05
0.00064616
1.63065e-05
0.000635317
1.3313e-05
0.000625962
1.02208e-05
0.000618184
6.99854e-06
0.000612024
3.65912e-06
0.000607481
2.42681e-07
0.000604657
-3.38469e-06
0.000603448
-6.99984e-06
0.000603814
-1.06658e-05
0.000605777
-1.44323e-05
0.000609421
-1.83053e-05
0.000614766
-2.21895e-05
0.000621704
-2.59926e-05
0.000630116
-2.96402e-05
0.000639889
-3.30536e-05
0.000650917
-3.61506e-05
0.000663097
-3.8853e-05
0.000676328
-4.10808e-05
0.000690518
-4.27636e-05
0.000705583
-4.38449e-05
0.000721443
-4.42846e-05
0.000738031
-4.40594e-05
0.000755306
-4.31728e-05
0.000773214
-4.1648e-05
0.000791629
-3.95124e-05
0.000810465
-3.68165e-05
0.000829887
-3.36934e-05
0.00085007
-3.02287e-05
0.000871093
-2.64713e-05
0.000893039
-2.24024e-05
0.000915074
-1.79346e-05
0.000937008
-1.28489e-05
0.0009584
-6.9517e-06
0.00097873
-1.74156e-07
0.000996622
8.68163e-06
0.00101226
1.82911e-05
0.00102509
2.85105e-05
0.001034
3.94821e-05
0.00103746
5.07182e-05
0.00103361
6.15998e-05
0.0010208
7.14088e-05
0.000997989
7.96156e-05
0.000964587
8.63922e-05
0.000921917
9.19752e-05
0.000873333
9.52897e-05
0.000822206
9.54623e-05
0.000771455
9.1718e-05
0.000723264
8.42964e-05
0.000679115
7.45583e-05
0.000640099
6.41507e-05
0.000606251
5.4465e-05
0.000577526
4.54624e-05
0.000554112
3.66824e-05
0.000535911
2.80434e-05
0.000522341
1.98779e-05
0.00051247
1.25924e-05
0.000505543
6.25696e-06
0.000501205
6.49592e-07
0.000498754
-3.99475e-06
0.000498161
-8.18972e-06
0.000499439
-1.18765e-05
0.000502569
-1.49384e-05
0.000507358
-1.71485e-05
0.00051337
-1.82615e-05
0.000520029
-1.81619e-05
0.000526783
-1.69857e-05
0.000533207
-1.50669e-05
0.000539037
-1.27558e-05
0.000544092
-1.02802e-05
0.0005482
-7.72609e-06
0.000551183
-5.11052e-06
0.000552915
-2.46706e-06
0.000553287
1.48428e-07
2.7377e-06
0.000930122
7.3966e-05
0.000912514
7.38092e-05
0.000894869
7.30656e-05
0.000877264
7.17323e-05
0.000859725
6.99613e-05
0.000842173
6.78941e-05
0.000824594
6.54999e-05
0.000807063
6.27348e-05
0.000789598
5.96952e-05
0.000772139
5.64952e-05
0.000754663
5.31585e-05
0.000737238
4.96828e-05
0.000719991
4.60978e-05
0.000703095
4.24262e-05
0.000686796
3.86385e-05
0.000671413
3.46665e-05
0.000657273
3.04464e-05
0.00064461
2.59757e-05
0.000633492
2.13392e-05
0.000623816
1.66746e-05
0.000615426
1.20483e-05
0.000608278
7.39135e-06
0.000602261
2.63157e-06
0.000597686
-2.42481e-06
0.000594776
-7.75558e-06
0.000593674
-1.33303e-05
0.000594411
-1.90423e-05
0.000596892
-2.46699e-05
0.000600961
-3.00625e-05
0.000606509
-3.51877e-05
0.000613478
-4.00227e-05
0.000621849
-4.45217e-05
0.000631624
-4.86284e-05
0.00064281
-5.22661e-05
0.000655392
-5.53456e-05
0.000669314
-5.77674e-05
0.000684474
-5.94442e-05
0.000700736
-6.03215e-05
0.000717982
-6.04193e-05
0.000736193
-5.98582e-05
0.000755478
-5.87979e-05
0.000776006
-5.73449e-05
0.000797942
-5.56288e-05
0.000821446
-5.37324e-05
0.00084664
-5.16659e-05
0.000873583
-4.93447e-05
0.000902215
-4.65667e-05
0.000932368
-4.30024e-05
0.000963692
-3.82751e-05
0.000995529
-3.20115e-05
0.00102804
-2.38317e-05
0.00105999
-1.36584e-05
0.00109001
-1.51044e-06
0.00111748
1.20104e-05
0.0011408
2.74049e-05
0.00115867
4.37228e-05
0.00116978
6.03038e-05
0.00117298
7.64129e-05
0.00116813
9.12441e-05
0.00115606
0.000104051
0.00113688
0.000114464
0.00111051
0.000121829
0.00107687
0.000125359
0.00103625
0.000124919
0.000989646
0.000121163
0.000938775
0.000115021
0.000886259
0.000106981
0.000834954
9.67684e-05
0.000787025
8.46105e-05
0.000743763
7.13057e-05
0.000705791
5.78505e-05
0.000673359
4.50234e-05
0.000646309
3.33071e-05
0.000624131
2.28283e-05
0.000606592
1.35439e-05
0.00059307
5.33244e-06
0.000583243
-2.04946e-06
0.000576804
-8.49947e-06
0.000573488
-1.38326e-05
0.000572772
-1.75457e-05
0.000573787
-1.91764e-05
0.000575615
-1.88139e-05
0.000577612
-1.70643e-05
0.000579463
-1.46064e-05
0.000581034
-1.18509e-05
0.000582212
-8.90475e-06
0.000582792
-5.69062e-06
0.00058238
-2.05483e-06
0.000580489
2.03902e-06
6.6758e-06
0.000967783
9.30254e-05
0.000947411
9.4181e-05
0.000926007
9.447e-05
0.000903695
9.40434e-05
0.000880958
9.2699e-05
0.000858533
9.03192e-05
0.000836661
8.73711e-05
0.000815145
8.42514e-05
0.000794029
8.08108e-05
0.000773587
7.69377e-05
0.000753861
7.28841e-05
0.000734743
6.8801e-05
0.000716301
6.45391e-05
0.000698725
6.00023e-05
0.000682077
5.52869e-05
0.000666328
5.04155e-05
0.000651524
4.52504e-05
0.000637711
3.97882e-05
0.000624658
3.43927e-05
0.000611856
2.94768e-05
0.000599126
2.47782e-05
0.000587102
1.94154e-05
0.000576841
1.28929e-05
0.000569015
5.40118e-06
0.000563583
-2.324e-06
0.0005601
-9.8478e-06
0.000557788
-1.67296e-05
0.000555879
-2.2761e-05
0.00055425
-2.84338e-05
0.00055336
-3.42972e-05
0.000553944
-4.06069e-05
0.0005567
-4.7278e-05
0.000562098
-5.40264e-05
0.000570326
-6.04942e-05
0.000581306
-6.63254e-05
0.000594737
-7.11984e-05
0.000610165
-7.48719e-05
0.000627078
-7.72343e-05
0.000645
-7.83414e-05
0.00066357
-7.84282e-05
0.000682625
-7.78537e-05
0.00070232
-7.7039e-05
0.00072304
-7.63492e-05
0.000745346
-7.60382e-05
0.000769833
-7.61528e-05
0.000797052
-7.65642e-05
0.000827383
-7.6897e-05
0.000861011
-7.66304e-05
0.000897823
-7.50878e-05
0.000937406
-7.15943e-05
0.000979212
-6.56382e-05
0.00102244
-5.6891e-05
0.00106615
-4.52119e-05
0.00110881
-3.06495e-05
0.00114957
-1.33583e-05
0.00118676
6.53135e-06
0.00121913
2.79377e-05
0.00124552
5.00184e-05
0.00126447
7.22932e-05
0.00127456
9.3964e-05
0.00127492
0.000114103
0.00126517
0.00013158
0.00124536
0.000145172
0.00121638
0.000153896
0.00118034
0.000157202
0.00114006
0.000155304
0.0010979
0.000149141
0.00105497
0.0001397
0.00101157
0.000128003
0.000967826
0.000115053
0.000924231
0.000101445
0.000881665
8.75898e-05
0.000841089
7.3883e-05
0.000803516
6.0401e-05
0.000769707
4.73537e-05
0.000739567
3.54717e-05
0.000712534
2.49843e-05
0.000688899
1.51346e-05
0.000669367
5.69946e-06
0.000653965
-2.14293e-06
0.000641568
-6.77927e-06
0.000631082
-8.32858e-06
0.00062246
-8.44198e-06
0.000616199
-8.34575e-06
0.000612196
-7.84806e-06
0.000609153
-5.86098e-06
0.000604907
-1.44526e-06
0.000597627
5.22507e-06
0.000585961
1.37054e-05
2.27552e-05
0.000965994
0.000106376
0.000951359
0.000108816
0.000935035
0.000110794
0.000917232
0.000111847
0.0008977
0.000112231
0.000875879
0.00011214
0.000852406
0.000110844
0.000828718
0.000107939
0.000805264
0.000104265
0.000781763
0.000100438
0.000758701
9.59464e-05
0.000736844
9.0658e-05
0.000715898
8.54849e-05
0.000695201
8.06994e-05
0.000675213
7.52745e-05
0.000656883
6.87463e-05
0.000639688
6.24448e-05
0.000621681
5.77956e-05
0.000601799
5.42747e-05
0.000581502
4.97734e-05
0.00056402
4.22606e-05
0.000551868
3.15675e-05
0.000544187
2.05735e-05
0.000536783
1.28052e-05
0.000525774
8.68508e-06
0.000510128
5.79853e-06
0.000491729
1.66908e-06
0.00047448
-5.5124e-06
0.000460729
-1.46827e-05
0.000452479
-2.60472e-05
0.000450655
-3.87826e-05
0.000455322
-5.19453e-05
0.000465947
-6.46508e-05
0.000481624
-7.61712e-05
0.000501266
-8.59677e-05
0.000523723
-9.36554e-05
0.000547822
-9.89712e-05
0.000572415
-0.000101827
0.000596462
-0.000102388
0.000619202
-0.000101169
0.000640326
-9.8978e-05
0.000660048
-9.67603e-05
0.000679051
-9.53522e-05
0.000698333
-9.53203e-05
0.000719036
-9.68563e-05
0.000742261
-9.97895e-05
0.000768915
-0.00010355
0.000799604
-0.00010732
0.000834534
-0.000110018
0.000873609
-0.000110669
0.000916304
-0.000108333
0.000961811
-0.000102397
0.00100907
-9.2472e-05
0.00105693
-7.85106e-05
0.00110429
-6.0721e-05
0.00115028
-3.94586e-05
0.00119343
-1.521e-05
0.00123229
1.1157e-05
0.00126553
3.90519e-05
0.00129193
6.75678e-05
0.00131045
9.55883e-05
0.00132027
0.000121753
0.00132064
0.000144802
0.00131099
0.000163551
0.00129118
0.000177013
0.00126182
0.000184662
0.00122484
0.000186117
0.00118313
0.000181415
0.00113937
0.00017176
0.0010957
0.000158723
0.00105366
0.000143485
0.00101365
0.000127598
0.000975225
0.00011231
0.000938239
9.73878e-05
0.000902792
8.28004e-05
0.000868439
6.98248e-05
0.000834775
5.86482e-05
0.000802416
4.74936e-05
0.000772349
3.57663e-05
0.000744601
2.56053e-05
0.000718929
1.88924e-05
0.000695983
1.46179e-05
0.000677009
1.05315e-05
0.000662267
6.39588e-06
0.000649908
4.51116e-06
0.000636604
7.44308e-06
0.000619236
1.59225e-05
0.000596169
2.82927e-05
0.000568348
4.15259e-05
5.27563e-05
0.000932414
0.000127393
0.00091368
0.00012755
0.000897145
0.000127329
0.000881372
0.00012762
0.00086554
0.000128062
0.000849894
0.000127786
0.000833626
0.000127112
0.000815165
0.0001264
0.000794574
0.000124857
0.00077314
0.000121872
0.000750938
0.000118148
0.000727339
0.000114257
0.000703562
0.000109262
0.000681748
0.000102513
0.000661051
9.59716e-05
0.000637626
9.21714e-05
0.000610107
8.9964e-05
0.000582961
8.49417e-05
0.000562413
7.48224e-05
0.000549597
6.2589e-05
0.000538803
5.30551e-05
0.000522365
4.80051e-05
0.000496598
4.63404e-05
0.00046354
4.58638e-05
0.000428634
4.35904e-05
0.00039747
3.69628e-05
0.000374636
2.45032e-05
0.000362439
6.68521e-06
0.000361563
-1.38076e-05
0.000371452
-3.59356e-05
0.000390326
-5.76566e-05
0.000415928
-7.75476e-05
0.000446089
-9.4812e-05
0.000479024
-0.000109106
0.000513425
-0.000120368
0.000548383
-0.000128613
0.000583161
-0.00013375
0.000616926
-0.000135592
0.000648638
-0.0001341
0.000677184
-0.000129714
0.000701715
-0.00012351
0.000721998
-0.000117043
0.000738598
-0.000111952
0.000752802
-0.000109525
0.000766363
-0.000110417
0.000781113
-0.00011454
0.000798661
-0.000121098
0.000820101
-0.00012876
0.000845993
-0.00013591
0.000876265
-0.000140941
0.000910437
-0.000142505
0.000947724
-0.000139685
0.000987257
-0.000132004
0.00102814
-0.000119391
0.00106954
-0.000102118
0.0011107
-8.06201e-05
0.00115101
-5.55208e-05
0.00118971
-2.75418e-05
0.00122565
3.10352e-06
0.00125773
3.54962e-05
0.00128506
6.8256e-05
0.00130634
0.000100476
0.00131997
0.000131166
0.00132468
0.000158847
0.00131962
0.000182068
0.00130443
0.000199857
0.00127959
0.000210958
0.00124662
0.000214379
0.0012078
0.000210586
0.00116592
0.000200598
0.00112363
0.000185778
0.00108249
0.000168733
0.00104328
0.000151527
0.00100639
0.000134278
0.000971573
0.000117613
0.000938078
0.000103321
0.000905462
9.12634e-05
0.000873574
7.93825e-05
0.000841841
6.7499e-05
0.000809743
5.77031e-05
0.000778088
5.05475e-05
0.00074887
4.38363e-05
0.00072326
3.61409e-05
0.000699983
2.96727e-05
0.000675917
2.85776e-05
0.000648277
3.50826e-05
0.000616503
4.76968e-05
0.000582345
6.24505e-05
0.000548572
7.52989e-05
8.3749e-05
0.000959049
0.000169412
0.000920013
0.000166586
0.000884628
0.000162714
0.000854072
0.000158176
0.000829635
0.000152499
0.000809258
0.000148163
0.0007896
0.00014677
0.000770048
0.000145951
0.000751337
0.000143568
0.000732672
0.000140537
0.000712795
0.000138026
0.000692081
0.000134971
0.000671154
0.000130189
0.000648511
0.000125156
0.000622171
0.000122312
0.000593673
0.000120669
0.00056824
0.000115397
0.000549557
0.000103625
0.000534658
8.97208e-05
0.00051542
8.18269e-05
0.000485135
8.33407e-05
0.000443329
8.98109e-05
0.000396829
9.28404e-05
0.000355905
8.67877e-05
0.000328093
7.1403e-05
0.000315928
4.9127e-05
0.000317841
2.25909e-05
0.000330862
-6.33644e-06
0.000352723
-3.56684e-05
0.000380648
-6.38605e-05
0.000412756
-8.97643e-05
0.000447558
-0.00011235
0.000483679
-0.000130933
0.000519954
-0.000145381
0.000555726
-0.00015614
0.000590871
-0.000163758
0.000625588
-0.000168467
0.000659944
-0.000169949
0.000693463
-0.000167619
0.000725046
-0.000161297
0.000753322
-0.000151786
0.000777227
-0.000140949
0.000796507
-0.000131232
0.000811912
-0.000124929
0.000825031
-0.000123536
0.000837864
-0.000127373
0.000852305
-0.000135539
0.000869706
-0.00014616
0.000890684
-0.000156888
0.000915168
-0.000165426
0.00094262
-0.000169956
0.000972247
-0.000169312
0.0010032
-0.000162959
0.0010347
-0.000150888
0.00106614
-0.000133557
0.0010972
-0.000111685
0.0011277
-8.60197e-05
0.00115722
-5.70607e-05
0.0011856
-2.52821e-05
0.00121232
8.78214e-06
0.0012366
4.39748e-05
0.00125744
7.96347e-05
0.00127371
0.000114897
0.0012844
0.00014816
0.00128828
0.00017818
0.00128429
0.000203856
0.00127195
0.00022329
0.00125119
0.000235143
0.00122244
0.000239331
0.00118748
0.000235567
0.00114891
0.000224344
0.00110925
0.000208388
0.00107061
0.000190173
0.00103419
0.000170697
0.000999966
0.000151834
0.000967494
0.000135793
0.00093658
0.000122177
0.000906622
0.00010934
0.000876293
9.78286e-05
0.000844841
8.91545e-05
0.00081313
8.2259e-05
0.000782582
7.43841e-05
0.000753273
6.545e-05
0.000723548
5.93974e-05
0.000691541
6.05855e-05
0.000656789
6.98345e-05
0.000620573
8.39126e-05
0.000585049
9.79745e-05
0.00055209
0.000108258
0.000113208
0.00102826
0.00021367
0.000978599
0.000216245
0.000926667
0.000214645
0.000877491
0.000207353
0.000832003
0.000197987
0.00079036
0.000189807
0.000756684
0.000180445
0.000732385
0.00017025
0.000712016
0.000163937
0.00069095
0.000161604
0.000670224
0.000158752
0.000650643
0.000154552
0.000628416
0.000152415
0.000600864
0.000152708
0.000572738
0.000150438
0.000551863
0.000141545
0.000538638
0.000128621
0.000523104
0.00011916
0.000493998
0.000118827
0.000449665
0.00012616
0.000399303
0.000133702
0.000355161
0.000133953
0.000324503
0.000123499
0.000308271
0.000103019
0.000304347
7.53274e-05
0.000310058
4.34155e-05
0.000323144
9.50557e-06
0.000341341
-2.45337e-05
0.000363671
-5.79989e-05
0.000389591
-8.978e-05
0.000418613
-0.000118786
0.000450059
-0.000143796
0.000482834
-0.000163708
0.000515512
-0.00017806
0.000546778
-0.000187406
0.000576089
-0.000193069
0.000603866
-0.000196244
0.000631059
-0.000197141
0.000658401
-0.000194961
0.000685893
-0.000188789
0.000712825
-0.000178718
0.00073826
-0.000166384
0.000761615
-0.000154587
0.000783035
-0.000146348
0.00080337
-0.000143872
0.000823839
-0.000147842
0.000845554
-0.000157253
0.000869177
-0.000169783
0.000894799
-0.00018251
0.000922031
-0.000192658
0.000950177
-0.000198102
0.000978425
-0.00019756
0.00100604
-0.000190571
0.0010325
-0.000177356
0.00105756
-0.000158609
0.00108108
-0.000135204
0.00110302
-0.00010796
0.00112352
-7.75644e-05
0.00114293
-4.46885e-05
0.00116177
-1.00648e-05
0.00117877
2.69816e-05
0.00119394
6.44574e-05
0.00120715
0.000101689
0.00121759
0.000137725
0.00122382
0.000171951
0.00122481
0.000202858
0.00121985
0.00022825
0.00120793
0.000247067
0.00118873
0.000258528
0.0011633
0.000261004
0.00113306
0.000254582
0.00109962
0.000241821
0.00106509
0.000224711
0.00103115
0.000204629
0.000998583
0.000184406
0.000967907
0.000166469
0.000939442
0.000150642
0.000912329
0.000136453
0.000884934
0.000125224
0.000856527
0.000117562
0.000827722
0.000111064
0.000799058
0.000103048
0.000769821
9.46863e-05
0.000738609
9.06098e-05
0.000704731
9.44632e-05
0.000668943
0.000105623
0.000632997
0.000119858
0.000598626
0.000132346
0.000566781
0.000140103
0.00014251
0.00103278
0.000239892
0.00099733
0.000251694
0.000955822
0.000256153
0.000909048
0.000254126
0.000858662
0.000248373
0.00081184
0.000236629
0.000772141
0.000220144
0.000734991
0.000207401
0.000698436
0.000200492
0.00066675
0.000193289
0.00064074
0.000184762
0.000614814
0.000180477
0.000586345
0.000180885
0.000560723
0.00017833
0.000543414
0.000167748
0.000530658
0.000154301
0.000511389
0.00014789
0.00047768
0.000152868
0.000432085
0.000164422
0.00038491
0.000173335
0.00034603
0.000172582
0.000320016
0.000159968
0.000306565
0.000136949
0.000303158
0.000106426
0.000307258
7.12281e-05
0.000317218
3.34551e-05
0.000331571
-4.84799e-06
0.000349489
-4.24511e-05
0.000370716
-7.92258e-05
0.000395072
-0.000114136
0.000422443
-0.000146158
0.000452565
-0.000173918
0.000484616
-0.000195759
0.000516918
-0.000210362
0.00054722
-0.000217708
0.000573651
-0.000219499
0.000595713
-0.000218306
0.000614483
-0.00021591
0.000631845
-0.000212323
0.000649436
-0.000206381
0.000668063
-0.000197345
0.000687823
-0.000186144
0.000708605
-0.000175369
0.00073047
-0.000168213
0.000753714
-0.000167116
0.000778684
-0.000172812
0.000805517
-0.000184087
0.000834003
-0.000198269
0.000863577
-0.000212084
0.000893439
-0.00022252
0.000922699
-0.000227362
0.000950541
-0.000225403
0.000976377
-0.000216406
0.000999872
-0.000200851
0.00102092
-0.000179657
0.0010396
-0.000153879
0.00105612
-0.000124485
0.00107083
-9.22698e-05
0.00108407
-5.79319e-05
0.00109602
-2.20163e-05
0.00110699
1.60113e-05
0.00111699
5.4462e-05
0.0011259
9.27738e-05
0.00113303
0.000130592
0.00113791
0.000167078
0.00114023
0.000200538
0.00113888
0.000229599
0.00113256
0.000253388
0.00112112
0.000269963
0.00110482
0.000277306
0.00108355
0.000275849
0.00105824
0.000267137
0.00103104
0.000251906
0.00100364
0.000232035
0.000976775
0.000211268
0.000951188
0.000192056
0.000927207
0.000174623
0.000903978
0.000159682
0.000880314
0.000148888
0.000855996
0.00014188
0.000831451
0.000135609
0.000806453
0.000128045
0.000779865
0.000121274
0.000750698
0.000119778
0.000719092
0.000126069
0.000686282
0.000138432
0.000653794
0.000152347
0.000622649
0.000163491
0.00059309
0.000169662
0.000170767
0.000959072
0.000245287
0.000945051
0.000265715
0.0009214
0.000279804
0.000887729
0.000287798
0.000848482
0.00028762
0.000806348
0.000278762
0.000759063
0.00026743
0.000710082
0.000256382
0.000669356
0.000241217
0.000639169
0.000223477
0.000611764
0.000212167
0.000583045
0.000209196
0.000558425
0.000205505
0.000542579
0.000194176
0.000530143
0.000180185
0.000510057
0.000174386
0.000476487
0.00018146
0.00043354
0.000195815
0.000390821
0.000207141
0.000356427
0.00020773
0.000333706
0.000195303
0.000322143
0.00017153
0.000319616
0.000139477
0.000324034
0.000102009
0.000333895
6.1367e-05
0.0003482
1.91497e-05
0.000365642
-2.22904e-05
0.000386216
-6.30243e-05
0.000409007
-0.000102017
0.000433369
-0.000138497
0.000458967
-0.000171756
0.000485847
-0.000200799
0.000514158
-0.000224069
0.00054347
-0.000239674
0.000572186
-0.000246424
0.000597851
-0.000245165
0.000618488
-0.000238942
0.000633896
-0.000231319
0.000645769
-0.000224196
0.000656594
-0.000217206
0.000668369
-0.00020912
0.000682023
-0.000199797
0.000697664
-0.000191011
0.000715149
-0.000185698
0.000734429
-0.000186397
0.00075557
-0.000193953
0.000778557
-0.000207074
0.000803093
-0.000222805
0.000828558
-0.000237548
0.000854115
-0.000248078
0.000878901
-0.000252148
0.000902158
-0.00024866
0.000923329
-0.000237578
0.000942131
-0.000219653
0.000958521
-0.000196047
0.000972653
-0.000168012
0.000984773
-0.000136604
0.000995147
-0.000102644
0.00100403
-6.68145e-05
0.00101164
-2.96228e-05
0.00101857
9.07249e-06
0.00102484
4.81936e-05
0.00103024
8.73766e-05
0.00103472
0.000126114
0.0010384
0.000163391
0.00104082
0.000198124
0.00104099
0.000229431
0.00103858
0.000255798
0.00103353
0.000275011
0.00102494
0.000285891
0.00101227
0.000288521
0.000996687
0.000282722
0.000979592
0.000269001
0.000961176
0.000250451
0.000941618
0.000230827
0.000921976
0.000211698
0.000902987
0.000193611
0.000884293
0.000178376
0.000865424
0.000167757
0.000846538
0.000160766
0.000827691
0.000154456
0.00080803
0.000147706
0.00078627
0.000143034
0.000761826
0.000144222
0.000735278
0.000152618
0.00070786
0.000165849
0.000680661
0.000179547
0.000654171
0.00018998
0.000628376
0.000195457
0.000196043
0.000830465
0.000239048
0.000829596
0.000266584
0.000820247
0.000289154
0.000803423
0.000304621
0.000780251
0.000310792
0.000749576
0.000309437
0.000714881
0.000302125
0.000684644
0.000286619
0.000659948
0.000265914
0.00063301
0.000250414
0.000601255
0.000243922
0.000572604
0.000237847
0.000553851
0.000224258
0.000540489
0.000207538
0.000521432
0.000199241
0.000490555
0.000205264
0.000451378
0.000220637
0.000412651
0.000234542
0.000381765
0.000238027
0.000361764
0.00022773
0.000352199
0.000204868
0.000351225
0.000172505
0.000356991
0.00013371
0.000368128
9.08714e-05
0.000383569
4.59266e-05
0.000402087
6.31276e-07
0.000423023
-4.3226e-05
0.000445533
-8.55342e-05
0.000468682
-0.000125166
0.000491727
-0.000161542
0.000514105
-0.000194133
0.000535558
-0.000222252
0.000556365
-0.000244876
0.000577229
-0.000260539
0.000598462
-0.000267657
0.000619103
-0.000265805
0.000637243
-0.000257083
0.000651562
-0.000245639
0.000662528
-0.000235162
0.000672072
-0.00022675
0.0006822
-0.000219247
0.000693849
-0.000211447
0.000706827
-0.000203989
0.000720506
-0.000199376
0.000734563
-0.000200453
0.00074916
-0.00020855
0.000764653
-0.000222567
0.000781175
-0.000239327
0.000798399
-0.000254772
0.000815685
-0.000265363
0.000832306
-0.000268769
0.000847584
-0.000263938
0.000861158
-0.000251151
0.000872853
-0.000231349
0.000882794
-0.000205988
0.000891214
-0.000176431
0.000898322
-0.000143712
0.000904265
-0.000108587
0.000909212
-7.17623e-05
0.000913337
-3.37469e-05
0.00091717
5.23862e-06
0.000920712
4.4652e-05
0.000923995
8.40935e-05
0.000927106
0.000123003
0.000929886
0.000160612
0.000931973
0.000196037
0.000933347
0.000228057
0.000934119
0.000255026
0.000933617
0.000275513
0.00093091
0.000288598
0.000926175
0.000293256
0.000920018
0.000288879
0.000911985
0.000277034
0.00090149
0.000260946
0.000889477
0.000242839
0.000877605
0.000223571
0.000866375
0.000204841
0.000855183
0.000189567
0.000843672
0.000179269
0.000832014
0.000172424
0.000820019
0.000166452
0.000806726
0.000160999
0.000791142
0.000158618
0.000773113
0.000162251
0.000753383
0.000172348
0.000732962
0.00018627
0.000712523
0.000199986
0.000692258
0.000210245
0.000672113
0.000215602
0.000216086
0.000693972
0.000220588
0.00070705
0.000253506
0.000714716
0.000281487
0.000717068
0.000302269
0.000712948
0.000314913
0.0007028
0.000319585
0.000689565
0.000315361
0.000672366
0.000303817
0.000646386
0.000291894
0.000613208
0.000283593
0.000583537
0.000273592
0.000565445
0.000255939
0.000554731
0.000234971
0.000539885
0.000222385
0.000513818
0.000225307
0.000479055
0.000240027
0.000443848
0.000255844
0.000415715
0.000262675
0.000398106
0.000255636
0.000390906
0.00023493
0.000392428
0.000203346
0.000400825
0.000164107
0.000414556
0.00011998
0.000432259
7.31683e-05
0.000452633
2.5552e-05
0.000474049
-2.07846e-05
0.000496083
-6.52596e-05
0.000517598
-0.000107049
0.000538177
-0.000145745
0.000557814
-0.00018118
0.000576653
-0.000212972
0.000594536
-0.000240134
0.000610921
-0.000261261
0.000625499
-0.000275117
0.000638632
-0.00028079
0.000650622
-0.000277795
0.000660795
-0.000267256
0.000668083
-0.000252927
0.000672592
-0.000239671
0.000676147
-0.000230305
0.000681115
-0.000224215
0.000688739
-0.000219071
0.000698552
-0.000213801
0.000709136
-0.00020996
0.000719326