/*--------------------------------*- C++ -*----------------------------------*\
| =========                 |                                                 |
| \\      /  F ield         | OpenFOAM: The Open Source CFD Toolbox           |
|  \\    /   O peration     | Version:  2312                                  |
|   \\  /    A nd           | Website:  www.openfoam.com                      |
|    \\/     M anipulation  |                                                 |
\*---------------------------------------------------------------------------*/
FoamFile
{
    version     2.0;
    format      ascii;
    arch        "LSB;label=32;scalar=64";
    class       volScalarField;
    location    "111000";
    object      p;
}
// * * * * * * * * * * * * * * * * * * * * * * * * * * * * * * * * * * * * * //

dimensions      [0 2 -2 0 0 0 0];

internalField   nonuniform List<scalar> 
2715
(
3.72265e-07
3.21721e-07
3.00695e-07
2.83052e-07
2.6534e-07
2.47513e-07
2.27595e-07
2.06381e-07
1.81618e-07
1.55064e-07
1.24179e-07
9.19634e-08
5.5344e-08
1.87308e-08
-2.17101e-08
-6.00732e-08
-1.01585e-07
-1.38713e-07
-1.78616e-07
-2.11943e-07
-2.48181e-07
-2.7602e-07
-3.07534e-07
-3.28755e-07
-3.55969e-07
-3.68534e-07
-3.96031e-07
-3.95668e-07
-4.29791e-07
-5.30686e-07
3.58349e-07
3.03243e-07
2.89193e-07
2.74123e-07
2.57087e-07
2.39677e-07
2.20076e-07
1.99026e-07
1.74467e-07
1.48286e-07
1.18043e-07
8.66947e-08
5.12537e-08
1.59648e-08
-2.29528e-08
-5.98588e-08
-9.9595e-08
-1.3527e-07
-1.73371e-07
-2.05758e-07
-2.40738e-07
-2.67946e-07
-2.9932e-07
-3.19972e-07
-3.47802e-07
-3.61135e-07
-3.85327e-07
-3.98507e-07
-4.03862e-07
-5.50502e-07
3.46135e-07
3.00753e-07
2.87737e-07
2.73161e-07
2.55638e-07
2.37249e-07
2.17129e-07
1.95738e-07
1.71133e-07
1.44829e-07
1.14825e-07
8.35783e-08
4.87021e-08
1.37695e-08
-2.42475e-08
-6.05596e-08
-9.92947e-08
-1.3461e-07
-1.72101e-07
-2.04107e-07
-2.38582e-07
-2.65728e-07
-2.95839e-07
-3.18244e-07
-3.43168e-07
-3.62666e-07
-3.8063e-07
-4.08255e-07
-3.89266e-07
-4.89024e-07
3.3593e-07
2.96614e-07
2.81521e-07
2.67461e-07
2.50625e-07
2.32851e-07
2.12929e-07
1.91383e-07
1.66837e-07
1.40387e-07
1.10714e-07
7.94963e-08
4.53765e-08
1.06625e-08
-2.61425e-08
-6.22264e-08
-9.94261e-08
-1.34637e-07
-1.69978e-07
-2.02503e-07
-2.34218e-07
-2.63534e-07
-2.90649e-07
-3.16445e-07
-3.37112e-07
-3.62733e-07
-3.71157e-07
-4.08305e-07
-3.84675e-07
-4.51192e-07
3.26072e-07
2.93979e-07
2.78014e-07
2.651e-07
2.48831e-07
2.30267e-07
2.09826e-07
1.87718e-07
1.63134e-07
1.36281e-07
1.06856e-07
7.53776e-08
4.19462e-08
7.15298e-09
-2.84751e-08
-6.45732e-08
-1.00148e-07
-1.35492e-07
-1.68876e-07
-2.02132e-07
-2.31737e-07
-2.62454e-07
-2.86655e-07
-3.15259e-07
-3.31949e-07
-3.6101e-07
-3.66222e-07
-4.00591e-07
-3.90737e-07
-4.2445e-07
3.17434e-07
2.92205e-07
2.75414e-07
2.62038e-07
2.46035e-07
2.27374e-07
2.06752e-07
1.84162e-07
1.59454e-07
1.32175e-07
1.02866e-07
7.10834e-08
3.81661e-08
3.2555e-09
-3.13879e-08
-6.74861e-08
-1.01625e-07
-1.37047e-07
-1.68708e-07
-2.02315e-07
-2.30019e-07
-2.61359e-07
-2.83854e-07
-3.1319e-07
-3.29031e-07
-3.57152e-07
-3.65518e-07
-3.91755e-07
-3.96063e-07
-4.1242e-07
3.10355e-07
2.90648e-07
2.73755e-07
2.59521e-07
2.43633e-07
2.24905e-07
2.04032e-07
1.80876e-07
1.5586e-07
1.2811e-07
9.87246e-08
6.66498e-08
3.3997e-08
-9.34771e-10
-3.49182e-08
-7.07794e-08
-1.03936e-07
-1.3898e-07
-1.69559e-07
-2.02695e-07
-2.29544e-07
-2.60255e-07
-2.82663e-07
-3.1072e-07
-3.28222e-07
-3.53073e-07
-3.66265e-07
-3.86161e-07
-3.97432e-07
-4.09551e-07
3.05065e-07
2.89194e-07
2.72804e-07
2.57603e-07
2.4147e-07
2.2259e-07
2.01399e-07
1.77686e-07
1.52195e-07
1.2399e-07
9.43303e-08
6.20472e-08
2.93948e-08
-5.39681e-09
-3.90661e-08
-7.44067e-08
-1.07052e-07
-1.41249e-07
-1.71379e-07
-2.03369e-07
-2.30199e-07
-2.59407e-07
-2.8267e-07
-3.08603e-07
-3.28298e-07
-3.50183e-07
-3.66773e-07
-3.83667e-07
-3.97349e-07
-4.08819e-07
3.01643e-07
2.87837e-07
2.72098e-07
2.5624e-07
2.39556e-07
2.20353e-07
1.98748e-07
1.74504e-07
1.4841e-07
1.19759e-07
8.96613e-08
5.72292e-08
2.43778e-08
-1.01632e-08
-4.37656e-08
-7.8411e-08
-1.10843e-07
-1.43948e-07
-1.73939e-07
-2.0453e-07
-2.31559e-07
-2.59158e-07
-2.83142e-07
-3.07388e-07
-3.28355e-07
-3.48815e-07
-3.66663e-07
-3.82993e-07
-3.972e-07
-4.09376e-07
2.99842e-07
2.86642e-07
2.71472e-07
2.55237e-07
2.37843e-07
2.18126e-07
1.95987e-07
1.71212e-07
1.44444e-07
1.15327e-07
8.46954e-08
5.21157e-08
1.89716e-08
-1.53025e-08
-4.89305e-08
-8.28644e-08
-1.15143e-07
-1.47174e-07
-1.76996e-07
-2.06311e-07
-2.33315e-07
-2.59645e-07
-2.83828e-07
-3.07055e-07
-3.28377e-07
-3.48316e-07
-3.66493e-07
-3.82919e-07
-3.97537e-07
-4.10425e-07
2.99182e-07
2.85757e-07
2.70802e-07
2.54308e-07
2.36196e-07
2.15825e-07
1.93034e-07
1.6769e-07
1.40222e-07
1.10601e-07
7.94004e-08
4.66245e-08
1.31818e-08
-2.08841e-08
-5.45104e-08
-8.78246e-08
-1.1986e-07
-1.50974e-07
-1.80438e-07
-2.08727e-07
-2.35388e-07
-2.60795e-07
-2.84735e-07
-3.07337e-07
-3.28555e-07
-3.48284e-07
-3.66557e-07
-3.83211e-07
-3.9829e-07
-4.11825e-07
2.99082e-07
2.85217e-07
2.701e-07
2.53254e-07
2.34439e-07
2.13336e-07
1.8981e-07
1.63834e-07
1.35658e-07
1.05485e-07
7.37153e-08
4.06783e-08
6.96712e-09
-2.69696e-08
-6.05247e-08
-9.33318e-08
-1.25007e-07
-1.55353e-07
-1.84289e-07
-2.1173e-07
-2.37832e-07
-2.62494e-07
-2.85972e-07
-3.08079e-07
-3.29037e-07
-3.48611e-07
-3.66924e-07
-3.838e-07
-3.99296e-07
-4.13486e-07
2.99137e-07
2.84874e-07
2.69321e-07
2.51947e-07
2.3241e-07
2.1054e-07
1.86233e-07
1.59555e-07
1.30657e-07
9.9881e-08
6.75469e-08
3.41892e-08
2.39658e-10
-3.36334e-08
-6.7059e-08
-9.94396e-08
-1.30671e-07
-1.60337e-07
-1.88643e-07
-2.15312e-07
-2.40752e-07
-2.64712e-07
-2.87646e-07
-3.09249e-07
-3.2991e-07
-3.49269e-07
-3.67625e-07
-3.84617e-07
-4.00549e-07
-4.15229e-07
2.99101e-07
2.84519e-07
2.6838e-07
2.50323e-07
2.30018e-07
2.07347e-07
1.82219e-07
1.54766e-07
1.2511e-07
9.36773e-08
6.07713e-08
2.70423e-08
-7.13133e-09
-4.09864e-08
-7.42474e-08
-1.06244e-07
-1.36982e-07
-1.66003e-07
-1.9362e-07
-2.19534e-07
-2.44248e-07
-2.67499e-07
-2.89824e-07
-3.10896e-07
-3.31195e-07
-3.50303e-07
-3.68629e-07
-3.85707e-07
-4.01973e-07
-4.17109e-07
2.98885e-07
2.83959e-07
2.67187e-07
2.48363e-07
2.27229e-07
2.03696e-07
1.77684e-07
1.49369e-07
1.18893e-07
8.67374e-08
5.32309e-08
1.90852e-08
-1.53173e-08
-4.9183e-08
-8.22621e-08
-1.13885e-07
-1.44098e-07
-1.72468e-07
-1.99353e-07
-2.2449e-07
-2.48425e-07
-2.70924e-07
-2.92576e-07
-3.1306e-07
-3.32929e-07
-3.51719e-07
-3.69954e-07
-3.87044e-07
-4.03595e-07
-4.19073e-07
2.98548e-07
2.83156e-07
2.65729e-07
2.46089e-07
2.2404e-07
1.99537e-07
1.72531e-07
1.43239e-07
1.11851e-07
7.88906e-08
4.47337e-08
1.01245e-08
-2.45233e-08
-5.84151e-08
-9.12983e-08
-1.22535e-07
-1.52188e-07
-1.79874e-07
-2.05976e-07
-2.30286e-07
-2.53375e-07
-2.75061e-07
-2.95954e-07
-3.15783e-07
-3.35119e-07
-3.53531e-07
-3.71567e-07
-3.88625e-07
-4.05361e-07
-4.21138e-07
2.98273e-07
2.82196e-07
2.6405e-07
2.43521e-07
2.2043e-07
1.9479e-07
1.66624e-07
1.36206e-07
1.03785e-07
6.99228e-08
3.50497e-08
-6.87833e-11
-3.49788e-08
-6.88965e-08
-1.01559e-07
-1.32373e-07
-1.61415e-07
-1.88358e-07
-2.13612e-07
-2.37021e-07
-2.59185e-07
-2.79971e-07
-3.00011e-07
-3.19088e-07
-3.37779e-07
-3.55722e-07
-3.73439e-07
-3.90404e-07
-4.0721e-07
-4.23273e-07
2.98306e-07
2.81244e-07
2.62197e-07
2.40614e-07
2.16281e-07
1.89284e-07
1.59752e-07
1.2803e-07
9.44358e-08
5.9567e-08
2.39093e-08
-1.17554e-08
-4.69316e-08
-8.08542e-08
-1.13252e-07
-1.43581e-07
-1.7194e-07
-1.98057e-07
-2.2238e-07
-2.44795e-07
-2.65945e-07
-2.8572e-07
-3.04808e-07
-3.23005e-07
-3.40942e-07
-3.58277e-07
-3.75564e-07
-3.92312e-07
-4.09098e-07
-4.25363e-07
2.98769e-07
2.80411e-07
2.60124e-07
2.37175e-07
2.11323e-07
1.82718e-07
1.51597e-07
1.18385e-07
8.34735e-08
4.74953e-08
1.09947e-08
-2.52352e-08
-6.06604e-08
-9.45434e-08
-1.26608e-07
-1.56372e-07
-1.83952e-07
-2.09145e-07
-2.32435e-07
-2.53746e-07
-2.73777e-07
-2.92419e-07
-3.1044e-07
-3.27609e-07
-3.44665e-07
-3.61225e-07
-3.77939e-07
-3.94304e-07
-4.10919e-07
-4.27266e-07
2.99417e-07
2.79488e-07
2.57499e-07
2.32771e-07
2.05085e-07
1.74623e-07
1.41705e-07
1.06825e-07
7.04594e-08
3.32824e-08
-4.10132e-09
-4.08926e-08
-7.65257e-08
-1.10301e-07
-1.41943e-07
-1.71041e-07
-1.9773e-07
-2.21884e-07
-2.44013e-07
-2.64097e-07
-2.82873e-07
-3.00242e-07
-3.17052e-07
-3.3302e-07
-3.49046e-07
-3.64607e-07
-3.80598e-07
-3.96301e-07
-4.12585e-07
-4.28693e-07
2.9951e-07
2.7775e-07
2.53685e-07
2.26807e-07
1.96974e-07
1.64398e-07
1.29469e-07
9.2745e-08
5.47976e-08
1.63454e-08
-2.19419e-08
-5.92671e-08
-9.50382e-08
-1.28609e-07
-1.5971e-07
-1.88019e-07
-2.13682e-07
-2.36665e-07
-2.57472e-07
-2.76176e-07
-2.93508e-07
-3.09437e-07
-3.24831e-07
-3.39408e-07
-3.5418e-07
-3.68502e-07
-3.83544e-07
-3.98246e-07
-4.1396e-07
-4.29304e-07
2.98605e-07
2.74696e-07
2.48209e-07
2.1879e-07
1.86421e-07
1.51388e-07
1.14169e-07
7.53878e-08
3.57133e-08
-4.08802e-09
-4.32818e-08
-8.10812e-08
-1.16877e-07
-1.50096e-07
-1.80486e-07
-2.07838e-07
-2.32307e-07
-2.53964e-07
-2.73272e-07
-2.90411e-07
-3.06059e-07
-3.20329e-07
-3.34031e-07
-3.46996e-07
-3.60197e-07
-3.73015e-07
-3.86752e-07
-4.0009e-07
-4.14872e-07
-4.28776e-07
2.96403e-07
2.69826e-07
2.40432e-07
2.07963e-07
1.7255e-07
1.34617e-07
9.47555e-08
5.36739e-08
1.21301e-08
-2.90616e-08
-6.91126e-08
-1.07253e-07
-1.42877e-07
-1.755e-07
-2.04921e-07
-2.31064e-07
-2.54123e-07
-2.74279e-07
-2.9193e-07
-3.07326e-07
-3.21042e-07
-3.33374e-07
-3.45046e-07
-3.56109e-07
-3.67336e-07
-3.78304e-07
-3.90196e-07
-4.01752e-07
-4.15049e-07
-4.26801e-07
2.92472e-07
2.62464e-07
2.2932e-07
1.93029e-07
1.5393e-07
1.12592e-07
6.97229e-08
2.61187e-08
-1.73832e-08
-5.99265e-08
-1.0069e-07
-1.38927e-07
-1.7406e-07
-2.0571e-07
-2.33768e-07
-2.5832e-07
-2.79653e-07
-2.98069e-07
-3.13922e-07
-3.27452e-07
-3.39056e-07
-3.49137e-07
-3.58388e-07
-3.67145e-07
-3.75931e-07
-3.84566e-07
-3.93878e-07
-4.03085e-07
-4.13986e-07
-4.23086e-07
2.84989e-07
2.50751e-07
2.12864e-07
1.7185e-07
1.28357e-07
8.30823e-08
3.68577e-08
-9.42682e-09
-5.48759e-08
-9.86075e-08
-1.39794e-07
-1.77721e-07
-2.11875e-07
-2.41992e-07
-2.68095e-07
-2.90452e-07
-3.09509e-07
-3.2573e-07
-3.39506e-07
-3.51041e-07
-3.60463e-07
-3.68036e-07
-3.74453e-07
-3.80345e-07
-3.8618e-07
-3.91892e-07
-3.97905e-07
-4.03934e-07
-4.11346e-07
-4.17344e-07
2.69819e-07
2.29731e-07
1.86282e-07
1.39811e-07
9.12144e-08
4.16056e-08
-8.03115e-09
-5.68032e-08
-1.03828e-07
-1.48224e-07
-1.89183e-07
-2.26061e-07
-2.58458e-07
-2.86248e-07
-3.09589e-07
-3.28895e-07
-3.44777e-07
-3.57899e-07
-3.68818e-07
-3.77832e-07
-3.84969e-07
-3.90036e-07
-3.93388e-07
-3.95739e-07
-3.97889e-07
-4.00189e-07
-4.02567e-07
-4.04524e-07
-4.07461e-07
-4.09969e-07
2.52687e-07
2.05883e-07
1.52993e-07
9.76201e-08
4.19308e-08
-1.30438e-08
-6.66505e-08
-1.18175e-07
-1.6676e-07
-2.11512e-07
-2.51671e-07
-2.86739e-07
-3.16549e-07
-3.41246e-07
-3.61186e-07
-3.76803e-07
-3.88623e-07
-3.97267e-07
-4.03437e-07
-4.07922e-07
-4.11512e-07
-4.14255e-07
-4.15162e-07
-4.13562e-07
-4.10537e-07
-4.08686e-07
-4.08119e-07
-4.06056e-07
-4.03664e-07
-4.03661e-07
1.90192e-07
1.33462e-07
7.53501e-08
1.5655e-08
-4.45554e-08
-1.03669e-07
-1.60192e-07
-2.12913e-07
-2.60837e-07
-3.0316e-07
-3.39351e-07
-3.69297e-07
-3.93383e-07
-4.12458e-07
-4.27485e-07
-4.38868e-07
-4.46464e-07
-4.49875e-07
-4.48732e-07
-4.43747e-07
-4.38056e-07
-4.36305e-07
-4.37012e-07
-4.33376e-07
-4.23686e-07
-4.14828e-07
-4.11886e-07
-4.12553e-07
-4.12556e-07
-4.09669e-07
1.60129e-07
9.04661e-08
1.51945e-08
-5.88044e-08
-1.28389e-07
-1.92955e-07
-2.52352e-07
-3.05981e-07
-3.52872e-07
-3.92101e-07
-4.23127e-07
-4.46069e-07
-4.61805e-07
-4.72102e-07
-4.79474e-07
-4.86998e-07
-4.96302e-07
-5.03426e-07
-5.00971e-07
-4.85461e-07
-4.61744e-07
-4.41775e-07
-4.33657e-07
-4.34297e-07
-4.34571e-07
-4.31336e-07
-4.2646e-07
-4.21544e-07
-4.18355e-07
-4.16937e-07
-8.14533e-08
-1.58648e-07
-2.36362e-07
-3.12683e-07
-3.83129e-07
-4.44371e-07
-4.94721e-07
-5.33398e-07
-5.5999e-07
-5.74452e-07
-5.77349e-07
-5.70139e-07
-5.55216e-07
-5.36115e-07
-5.17199e-07
-5.03162e-07
-4.96645e-07
-4.97537e-07
-5.01198e-07
-5.01167e-07
-4.94705e-07
-4.84163e-07
-4.71031e-07
-4.57078e-07
-4.44967e-07
-4.36695e-07
-4.31532e-07
-4.28035e-07
-4.25739e-07
-4.24519e-07
3.12309e-07
3.12942e-07
3.14271e-07
3.16176e-07
3.18177e-07
3.19667e-07
3.20514e-07
3.20715e-07
3.19698e-07
3.15606e-07
3.06361e-07
2.90724e-07
2.46124e-07
2.15322e-07
1.50262e-11
-1.48469e-07
-2.25445e-07
-3.00974e-07
-3.70594e-07
-4.3099e-07
-4.80488e-07
-5.18319e-07
-5.44087e-07
-5.57773e-07
-5.59979e-07
-5.52204e-07
-5.36892e-07
-5.1763e-07
-4.98823e-07
-4.85144e-07
-4.79101e-07
-4.80361e-07
-4.84e-07
-4.8358e-07
-4.76837e-07
-4.66102e-07
-4.52864e-07
-4.39004e-07
-4.27202e-07
-4.19243e-07
-4.14265e-07
-4.10902e-07
-4.08786e-07
-4.07802e-07
9.88454e-08
2.42387e-08
-4.90639e-08
-1.17942e-07
-1.8179e-07
-2.40453e-07
-2.93335e-07
-3.39475e-07
-3.77967e-07
-4.08295e-07
-4.30609e-07
-4.45823e-07
-4.55742e-07
-4.62911e-07
-4.70408e-07
-4.79622e-07
-4.86296e-07
-4.83016e-07
-4.66722e-07
-4.42906e-07
-4.23791e-07
-4.1664e-07
-4.17608e-07
-4.17617e-07
-4.14193e-07
-4.09159e-07
-4.04329e-07
-4.01325e-07
-4.00101e-07
1.41473e-07
8.39157e-08
2.48061e-08
-3.47924e-08
-9.32716e-08
-1.49141e-07
-2.01197e-07
-2.48455e-07
-2.90126e-07
-3.25696e-07
-3.55072e-07
-3.78658e-07
-3.97313e-07
-4.1198e-07
-4.22998e-07
-4.3024e-07
-4.33291e-07
-4.31813e-07
-4.26627e-07
-4.21046e-07
-4.19558e-07
-4.20132e-07
-4.15954e-07
-4.05967e-07
-3.97405e-07
-3.94809e-07
-3.95241e-07
-3.94734e-07
-3.91748e-07
2.13157e-07
1.60794e-07
1.05981e-07
5.08644e-08
-3.52856e-09
-5.65422e-08
-1.07462e-07
-1.55435e-07
-1.9958e-07
-2.39146e-07
-2.7365e-07
-3.02937e-07
-3.27155e-07
-3.46659e-07
-3.61882e-07
-3.73356e-07
-3.81706e-07
-3.87636e-07
-3.9193e-07
-3.9534e-07
-3.97835e-07
-3.98403e-07
-3.96436e-07
-3.93163e-07
-3.91148e-07
-3.90136e-07
-3.87498e-07
-3.84936e-07
-3.84965e-07
2.36662e-07
1.93683e-07
1.4771e-07
9.96311e-08
5.0555e-08
1.46558e-09
-4.67458e-08
-9.32014e-08
-1.37028e-07
-1.77427e-07
-2.13764e-07
-2.45648e-07
-2.72961e-07
-2.95866e-07
-3.14784e-07
-3.30327e-07
-3.43151e-07
-3.53794e-07
-3.62526e-07
-3.69342e-07
-3.7406e-07
-3.77061e-07
-3.79059e-07
-3.8082e-07
-3.82656e-07
-3.84462e-07
-3.8584e-07
-3.8824e-07
-3.90255e-07
2.57308e-07
2.19866e-07
1.79326e-07
1.36319e-07
9.15418e-08
4.58284e-08
7.00268e-11
-4.48421e-08
-8.80332e-08
-1.28684e-07
-1.66091e-07
-1.99748e-07
-2.29399e-07
-2.55073e-07
-2.77042e-07
-2.95749e-07
-3.11646e-07
-3.25109e-07
-3.3632e-07
-3.45399e-07
-3.52624e-07
-3.58685e-07
-3.64196e-07
-3.69573e-07
-3.74764e-07
-3.80183e-07
-3.85617e-07
-3.92364e-07
-3.97827e-07
2.68738e-07
2.36012e-07
2.00167e-07
1.61526e-07
1.20658e-07
7.82712e-08
3.51643e-08
-7.82858e-09
-4.98584e-08
-9.01115e-08
-1.2785e-07
-1.62504e-07
-1.93703e-07
-2.2134e-07
-2.45507e-07
-2.66482e-07
-2.84564e-07
-3.00091e-07
-3.13301e-07
-3.24577e-07
-3.34335e-07
-3.43237e-07
-3.51628e-07
-3.59975e-07
-3.68155e-07
-3.76938e-07
-3.85644e-07
-3.95967e-07
-4.04569e-07
2.75844e-07
2.46849e-07
2.14807e-07
1.79832e-07
1.42345e-07
1.02944e-07
6.23365e-08
2.12788e-08
-1.94227e-08
-5.89844e-08
-9.66478e-08
-1.31809e-07
-1.63996e-07
-1.93005e-07
-2.1877e-07
-2.41474e-07
-2.61304e-07
-2.78636e-07
-2.93736e-07
-3.0715e-07
-3.19197e-07
-3.30555e-07
-3.41311e-07
-3.52182e-07
-3.62816e-07
-3.74329e-07
-3.85552e-07
-3.98488e-07
-4.09855e-07
2.80487e-07
2.54385e-07
2.25377e-07
1.93428e-07
1.58825e-07
1.22047e-07
8.37209e-08
4.45131e-08
5.18186e-09
-3.35417e-08
-7.08828e-08
-1.06233e-07
-1.39032e-07
-1.69024e-07
-1.9601e-07
-2.20136e-07
-2.41485e-07
-2.60497e-07
-2.77373e-07
-2.92756e-07
-3.0679e-07
-3.20241e-07
-3.32983e-07
-3.45952e-07
-3.5858e-07
-3.72142e-07
-3.85352e-07
-4.00048e-07
-4.13795e-07
2.83341e-07
2.59648e-07
2.33165e-07
2.03738e-07
1.71576e-07
1.37074e-07
1.00789e-07
6.32919e-08
2.52928e-08
-1.25414e-08
-4.94255e-08
-8.47678e-08
-1.17935e-07
-1.48654e-07
-1.76616e-07
-2.01955e-07
-2.24654e-07
-2.45197e-07
-2.63674e-07
-2.80793e-07
-2.96543e-07
-3.11773e-07
-3.26227e-07
-3.40912e-07
-3.55201e-07
-3.70288e-07
-3.85092e-07
-4.01005e-07
-4.16497e-07
2.84899e-07
2.6327e-07
2.38925e-07
2.11632e-07
1.81571e-07
1.49066e-07
1.14611e-07
7.86814e-08
4.19432e-08
4.99639e-09
-3.13691e-08
-6.65907e-08
-9.99784e-08
-1.31258e-07
-1.60027e-07
-1.8642e-07
-2.10315e-07
-2.32218e-07
-2.52116e-07
-2.7074e-07
-2.87997e-07
-3.04743e-07
-3.20697e-07
-3.36788e-07
-3.52486e-07
-3.68735e-07
-3.84787e-07
-4.01542e-07
-4.1812e-07
2.85648e-07
2.65715e-07
2.43144e-07
2.17674e-07
1.89458e-07
1.58737e-07
1.25938e-07
9.14498e-08
5.58979e-08
1.98189e-08
-1.59992e-08
-5.10306e-08
-8.45419e-08
-1.16265e-07
-1.45721e-07
-1.73033e-07
-1.97996e-07
-2.21103e-07
-2.42273e-07
-2.62219e-07
-2.80824e-07
-2.98883e-07
-3.16157e-07
-3.33427e-07
-3.50301e-07
-3.67474e-07
-3.8443e-07
-4.01767e-07
-4.18879e-07
2.86319e-07
2.67621e-07
2.46409e-07
2.2245e-07
1.95833e-07
1.6669e-07
1.35371e-07
1.02189e-07
6.77354e-08
3.24852e-08
-2.78059e-09
-3.75803e-08
-7.1147e-08
-1.03226e-07
-1.33268e-07
-1.61388e-07
-1.87308e-07
-2.11494e-07
-2.33817e-07
-2.54951e-07
-2.7477e-07
-2.93999e-07
-3.12424e-07
-3.3072e-07
-3.48542e-07
-3.66479e-07
-3.84037e-07
-4.01778e-07
-4.19057e-07
2.8712e-07
2.69318e-07
2.49154e-07
2.26429e-07
2.01161e-07
1.73376e-07
1.43354e-07
1.11334e-07
7.78785e-08
4.33999e-08
8.66862e-09
-2.58816e-08
-5.94586e-08
-9.18249e-08
-1.22373e-07
-1.51209e-07
-1.77987e-07
-2.03151e-07
-2.26523e-07
-2.48742e-07
-2.69655e-07
-2.89939e-07
-3.09364e-07
-3.28557e-07
-3.47147e-07
-3.65698e-07
-3.83665e-07
-4.01642e-07
-4.18928e-07
2.8794e-07
2.70851e-07
2.51569e-07
2.29881e-07
2.05744e-07
1.79112e-07
1.5021e-07
1.19214e-07
8.66521e-08
5.28783e-08
1.86456e-08
-1.56578e-08
-4.92237e-08
-8.18322e-08
-1.12826e-07
-1.42305e-07
-1.69861e-07
-1.95922e-07
-2.20249e-07
-2.43465e-07
-2.65359e-07
-2.86602e-07
-3.06893e-07
-3.26871e-07
-3.46074e-07
-3.65118e-07
-3.83344e-07
-4.01452e-07
-4.18632e-07
2.88609e-07
2.72172e-07
2.53702e-07
2.32922e-07
2.0975e-07
1.84108e-07
1.56176e-07
1.26086e-07
9.43206e-08
6.11876e-08
2.74081e-08
-6.66383e-09
-4.0218e-08
-7.30434e-08
-1.04445e-07
-1.34517e-07
-1.62792e-07
-1.89685e-07
-2.14891e-07
-2.39028e-07
-2.61813e-07
-2.83918e-07
-3.04971e-07
-3.25617e-07
-3.4533e-07
-3.64733e-07
-3.8314e-07
-4.01238e-07
-4.18283e-07
2.89042e-07
2.73235e-07
2.55526e-07
2.35572e-07
2.13257e-07
1.88495e-07
1.6142e-07
1.32146e-07
1.01095e-07
6.85548e-08
3.51817e-08
1.32735e-09
-3.22313e-08
-6.52571e-08
-9.70554e-08
-1.27682e-07
-1.56644e-07
-1.84316e-07
-2.10355e-07
-2.35341e-07
-2.58955e-07
-2.8183e-07
-3.03574e-07
-3.24773e-07
-3.44927e-07
-3.64561e-07
-3.83092e-07
-4.01053e-07
-4.17906e-07
2.89274e-07
2.74051e-07
2.57021e-07
2.37831e-07
2.16313e-07
1.92369e-07
1.66065e-07
1.37545e-07
1.07143e-07
7.517e-08
4.21573e-08
8.51855e-09
-2.50743e-08
-5.82802e-08
-9.04874e-08
-1.21634e-07
-1.51279e-07
-1.79684e-07
-2.06532e-07
-2.32309e-07
-2.56711e-07
-2.80283e-07
-3.02659e-07
-3.24327e-07
-3.44851e-07
-3.64631e-07
-3.83201e-07
-4.00944e-07
-4.17472e-07
2.89496e-07
2.74708e-07
2.58203e-07
2.39732e-07
2.18977e-07
1.95814e-07
1.70207e-07
1.42408e-07
1.12601e-07
8.11895e-08
4.84861e-08
1.508e-08
-1.85943e-08
-5.19414e-08
-8.46021e-08
-1.16215e-07
-1.4658e-07
-1.75653e-07
-2.03331e-07
-2.29829e-07
-2.5501e-07
-2.79207e-07
-3.02181e-07
-3.24243e-07
-3.45089e-07
-3.64924e-07
-3.83485e-07
-4.0088e-07
-4.17021e-07
2.89918e-07
2.75292e-07
2.59136e-07
2.41365e-07
2.21338e-07
1.98911e-07
1.73933e-07
1.4684e-07
1.17579e-07
8.67362e-08
5.42823e-08
2.11419e-08
-1.26807e-08
-4.61066e-08
-7.93042e-08
-1.11295e-07
-1.4247e-07
-1.72104e-07
-2.00691e-07
-2.27798e-07
-2.53802e-07
-2.78531e-07
-3.02092e-07
-3.24496e-07
-3.45594e-07
-3.65469e-07
-3.83896e-07
-4.00933e-07
-4.16489e-07
2.9069e-07
2.7585e-07
2.59946e-07
2.42889e-07
2.23517e-07
2.01743e-07
1.77332e-07
1.50939e-07
1.22176e-07
9.1903e-08
5.96343e-08
2.67922e-08
-7.25844e-09
-4.06899e-08
-7.45397e-08
-1.06784e-07
-1.38926e-07
-1.68939e-07
-1.9862e-07
-2.26108e-07
-2.53117e-07
-2.78145e-07
-3.02421e-07
-3.24998e-07
-3.46389e-07
-3.66233e-07
-3.84496e-07
-4.01108e-07
-4.16053e-07
2.91778e-07
2.76365e-07
2.6083e-07
2.44483e-07
2.25626e-07
2.04388e-07
1.80506e-07
1.54789e-07
1.26488e-07
9.675e-08
6.46208e-08
3.2071e-08
-2.26391e-09
-3.56727e-08
-7.02657e-08
-1.02671e-07
-1.35939e-07
-1.66135e-07
-1.97165e-07
-2.24699e-07
-2.53072e-07
-2.7793e-07
-3.03327e-07
-3.25588e-07
-3.47585e-07
-3.67144e-07
-3.85353e-07
-4.01577e-07
-4.15811e-07
2.93032e-07
2.7696e-07
2.62077e-07
2.4628e-07
2.2775e-07
2.06926e-07
1.83577e-07
1.58463e-07
1.3061e-07
1.01309e-07
6.93255e-08
3.69722e-08
2.37504e-09
-3.11071e-08
-6.64204e-08
-9.90506e-08
-1.33455e-07
-1.63805e-07
-1.96305e-07
-2.23656e-07
-2.53736e-07
-2.7788e-07
-3.05082e-07
-3.2607e-07
-3.496e-07
-3.67893e-07
-3.86715e-07
-4.02417e-07
-4.15925e-07
2.94383e-07
2.77801e-07
2.63881e-07
2.48329e-07
2.29955e-07
2.0945e-07
1.86661e-07
1.62023e-07
1.34629e-07
1.05602e-07
7.38288e-08
4.14698e-08
6.72892e-09
-2.70796e-08
-6.29277e-08
-9.60896e-08
-1.31371e-07
-1.622e-07
-1.95899e-07
-2.23299e-07
-2.54963e-07
-2.78263e-07
-3.07703e-07
-3.26466e-07
-3.53097e-07
-3.67919e-07
-3.89847e-07
-4.03085e-07
-4.17223e-07
2.95838e-07
2.79344e-07
2.66286e-07
2.50622e-07
2.32319e-07
2.12065e-07
1.89848e-07
1.65519e-07
1.38603e-07
1.09652e-07
7.8177e-08
4.55461e-08
1.08307e-08
-2.36556e-08
-5.97426e-08
-9.39195e-08
-1.29592e-07
-1.61548e-07
-1.95745e-07
-2.24057e-07
-2.56394e-07
-2.79832e-07
-3.10623e-07
-3.27728e-07
-3.57739e-07
-3.67633e-07
-3.96065e-07
-4.02191e-07
-4.20633e-07
2.97511e-07
2.81831e-07
2.69234e-07
2.53305e-07
2.35103e-07
2.15035e-07
1.93308e-07
1.69107e-07
1.42626e-07
1.13558e-07
8.23986e-08
4.92474e-08
1.4658e-08
-2.08318e-08
-5.69132e-08
-9.25635e-08
-1.28158e-07
-1.619e-07
-1.95748e-07
-2.26043e-07
-2.57755e-07
-2.82998e-07
-3.13067e-07
-3.31111e-07
-3.62076e-07
-3.68818e-07
-4.05491e-07
-3.97135e-07
-4.33342e-07
3.00042e-07
2.85233e-07
2.71499e-07
2.55009e-07
2.37595e-07
2.18045e-07
1.96886e-07
1.72727e-07
1.46658e-07
1.17346e-07
8.64571e-08
5.26146e-08
1.81142e-08
-1.85684e-08
-5.46281e-08
-9.19371e-08
-1.27397e-07
-1.63162e-07
-1.96284e-07
-2.28782e-07
-2.59061e-07
-2.87336e-07
-3.14546e-07
-3.36735e-07
-3.64167e-07
-3.74304e-07
-4.13705e-07
-3.91608e-07
-4.6103e-07
3.04064e-07
2.91321e-07
2.77062e-07
2.59884e-07
2.41867e-07
2.22131e-07
2.0114e-07
1.76932e-07
1.51022e-07
1.21387e-07
9.04834e-08
5.58875e-08
2.11802e-08
-1.67229e-08
-5.30063e-08
-9.18746e-08
-1.27435e-07
-1.65398e-07
-1.98017e-07
-2.3337e-07
-2.61485e-07
-2.92912e-07
-3.16661e-07
-3.43273e-07
-3.64486e-07
-3.84425e-07
-4.14065e-07
-3.96916e-07
-5.00104e-07
3.06482e-07
2.92712e-07
2.77964e-07
2.61278e-07
2.44238e-07
2.2502e-07
2.04372e-07
1.80214e-07
1.54436e-07
1.24568e-07
9.35705e-08
5.8414e-08
2.33553e-08
-1.54521e-08
-5.23333e-08
-9.22272e-08
-1.28155e-07
-1.66756e-07
-1.99763e-07
-2.35618e-07
-2.63877e-07
-2.96558e-07
-3.1862e-07
-3.48183e-07
-3.63187e-07
-3.89465e-07
-4.04517e-07
-4.12144e-07
-5.62745e-07
3.24792e-07
3.04045e-07
2.86718e-07
2.69353e-07
2.51907e-07
2.32387e-07
2.11592e-07
1.87247e-07
1.61117e-07
1.30628e-07
9.87866e-08
6.24708e-08
2.61048e-08
-1.42163e-08
-5.25516e-08
-9.42279e-08
-1.31647e-07
-1.72111e-07
-2.06104e-07
-2.43359e-07
-2.72309e-07
-3.05294e-07
-3.28052e-07
-3.57121e-07
-3.71573e-07
-4.01199e-07
-4.02773e-07
-4.39399e-07
-5.43193e-07
-4.24098e-07
-4.17328e-07
-4.11566e-07
-4.1424e-07
-4.20663e-07
-4.29692e-07
-4.36437e-07
-4.41176e-07
-4.44159e-07
-4.45522e-07
-4.45383e-07
-4.44101e-07
-4.4211e-07
-4.39714e-07
-4.37193e-07
-4.34594e-07
-4.31968e-07
-4.29376e-07
-4.26725e-07
-4.24228e-07
-4.21803e-07
-4.19733e-07
-4.18402e-07
-4.18271e-07
-4.2088e-07
-4.26061e-07
-4.32586e-07
-4.26631e-07
-3.92379e-07
-3.21882e-07
-4.2415e-07
-4.18434e-07
-4.13119e-07
-4.13781e-07
-4.21848e-07
-4.33681e-07
-4.44361e-07
-4.52481e-07
-4.58202e-07
-4.61612e-07
-4.62888e-07
-4.62316e-07
-4.60591e-07
-4.58173e-07
-4.55348e-07
-4.52448e-07
-4.49311e-07
-4.46147e-07
-4.42841e-07
-4.39383e-07
-4.36084e-07
-4.32536e-07
-4.29592e-07
-4.26371e-07
-4.23218e-07
-4.18457e-07
-4.107e-07
-4.0044e-07
-3.87327e-07
-3.76928e-07
-4.24229e-07
-4.19805e-07
-4.16369e-07
-4.18183e-07
-4.25272e-07
-4.36306e-07
-4.49078e-07
-4.60498e-07
-4.69587e-07
-4.76055e-07
-4.7996e-07
-4.81476e-07
-4.80873e-07
-4.78983e-07
-4.76074e-07
-4.72748e-07
-4.69208e-07
-4.65351e-07
-4.61641e-07
-4.57426e-07
-4.5334e-07
-4.48694e-07
-4.43768e-07
-4.38178e-07
-4.31193e-07
-4.23705e-07
-4.14815e-07
-4.07486e-07
-3.974e-07
-3.84862e-07
-4.24193e-07
-4.21104e-07
-4.19826e-07
-4.23014e-07
-4.30418e-07
-4.40734e-07
-4.53463e-07
-4.6661e-07
-4.78287e-07
-4.87801e-07
-4.94711e-07
-4.99215e-07
-5.01218e-07
-5.01111e-07
-4.99401e-07
-4.96188e-07
-4.92478e-07
-4.87936e-07
-4.83337e-07
-4.78373e-07
-4.73113e-07
-4.67822e-07
-4.61581e-07
-4.55376e-07
-4.47847e-07
-4.40828e-07
-4.32888e-07
-4.25283e-07
-4.16088e-07
-4.05912e-07
-4.23813e-07
-4.22099e-07
-4.23043e-07
-4.27974e-07
-4.36187e-07
-4.46683e-07
-4.5873e-07
-4.71949e-07
-4.84979e-07
-4.96616e-07
-5.06311e-07
-5.13583e-07
-5.1876e-07
-5.2133e-07
-5.22211e-07
-5.20894e-07
-5.18337e-07
-5.14399e-07
-5.09471e-07
-5.04056e-07
-4.97747e-07
-4.91554e-07
-4.84424e-07
-4.77624e-07
-4.70125e-07
-4.62839e-07
-4.55016e-07
-4.46967e-07
-4.38605e-07
-4.30359e-07
-4.2281e-07
-4.2246e-07
-4.25504e-07
-4.32289e-07
-4.41689e-07
-4.52778e-07
-4.64888e-07
-4.77582e-07
-4.90711e-07
-5.03188e-07
-5.14715e-07
-5.2426e-07
-5.32135e-07
-5.37527e-07
-5.41231e-07
-5.42764e-07
-5.42614e-07
-5.40847e-07
-5.37503e-07
-5.33128e-07
-5.27451e-07
-5.21206e-07
-5.14059e-07
-5.06638e-07
-4.98671e-07
-4.90433e-07
-4.81663e-07
-4.72538e-07
-4.63081e-07
-4.53926e-07
-4.20881e-07
-4.21807e-07
-4.26702e-07
-4.35243e-07
-4.45975e-07
-4.58011e-07
-4.70693e-07
-4.83609e-07
-4.96345e-07
-5.09055e-07
-5.20844e-07
-5.31986e-07
-5.41437e-07
-5.49284e-07
-5.5541e-07
-5.59689e-07
-5.62219e-07
-5.63094e-07
-5.62324e-07
-5.6019e-07
-5.56644e-07
-5.52042e-07
-5.46328e-07
-5.39817e-07
-5.32403e-07
-5.24353e-07
-5.15504e-07
-5.06195e-07
-4.96337e-07
-4.86691e-07
-4.17739e-07
-4.19793e-07
-4.26226e-07
-4.36288e-07
-4.48304e-07
-4.61419e-07
-4.74955e-07
-4.88529e-07
-5.01618e-07
-5.14575e-07
-5.26147e-07
-5.38041e-07
-5.47979e-07
-5.57371e-07
-5.65066e-07
-5.71515e-07
-5.76311e-07
-5.79672e-07
-5.81415e-07
-5.81802e-07
-5.80714e-07
-5.7845e-07
-5.74902e-07
-5.70369e-07
-5.64778e-07
-5.58427e-07
-5.51349e-07
-5.43826e-07
-5.36118e-07
-5.28525e-07
-4.13192e-07
-4.16242e-07
-4.23881e-07
-4.35088e-07
-4.48223e-07
-4.62362e-07
-4.7687e-07
-4.91244e-07
-5.05046e-07
-5.18553e-07
-5.3074e-07
-5.42708e-07
-5.53064e-07
-5.63128e-07
-5.71682e-07
-5.79351e-07
-5.85633e-07
-5.9077e-07
-5.94538e-07
-5.97037e-07
-5.98218e-07
-5.98124e-07
-5.96865e-07
-5.94434e-07
-5.91097e-07
-5.86777e-07
-5.81927e-07
-5.76399e-07
-5.70908e-07
-5.65191e-07
-4.07262e-07
-4.11136e-07
-4.19642e-07
-4.31652e-07
-4.45642e-07
-4.60647e-07
-4.75988e-07
-4.9116e-07
-5.05774e-07
-5.19895e-07
-5.32866e-07
-5.45264e-07
-5.56431e-07
-5.66837e-07
-5.76055e-07
-5.84376e-07
-5.91619e-07
-5.97741e-07
-6.02855e-07
-6.06651e-07
-6.09581e-07
-6.11038e-07
-6.11782e-07
-6.11028e-07
-6.09739e-07
-6.07051e-07
-6.04053e-07
-5.99844e-07
-5.95583e-07
-5.9035e-07
-4.00256e-07
-4.04723e-07
-4.13795e-07
-4.2628e-07
-4.40808e-07
-4.56405e-07
-4.72376e-07
-4.8821e-07
-5.03555e-07
-5.18241e-07
-5.32013e-07
-5.44923e-07
-5.56806e-07
-5.6776e-07
-5.77658e-07
-5.86605e-07
-5.94543e-07
-6.0141e-07
-6.07375e-07
-6.12097e-07
-6.16092e-07
-6.18592e-07
-6.20639e-07
-6.20999e-07
-6.21138e-07
-6.19491e-07
-6.17836e-07
-6.1438e-07
-6.11102e-07
-6.05959e-07
-3.92765e-07
-3.97587e-07
-4.06956e-07
-4.19626e-07
-4.3437e-07
-4.50244e-07
-4.66558e-07
-4.82806e-07
-4.98635e-07
-5.13811e-07
-5.28163e-07
-5.41617e-07
-5.54103e-07
-5.65613e-07
-5.76123e-07
-5.85648e-07
-5.94187e-07
-6.01724e-07
-6.08295e-07
-6.13795e-07
-6.18465e-07
-6.21867e-07
-6.24631e-07
-6.26013e-07
-6.26883e-07
-6.26223e-07
-6.25388e-07
-6.22721e-07
-6.20645e-07
-6.15593e-07
-3.85607e-07
-3.90591e-07
-4.00033e-07
-4.12652e-07
-4.27344e-07
-4.43206e-07
-4.59573e-07
-4.75951e-07
-4.91985e-07
-5.0743e-07
-5.22119e-07
-5.3595e-07
-5.4886e-07
-5.60817e-07
-5.71806e-07
-5.81826e-07
-5.90875e-07
-5.98954e-07
-6.06068e-07
-6.12206e-07
-6.17386e-07
-6.21577e-07
-6.24826e-07
-6.27081e-07
-6.28412e-07
-6.28736e-07
-6.28237e-07
-6.26831e-07
-6.24962e-07
-6.2004e-07
-3.79712e-07
-3.84723e-07
-3.94088e-07
-4.06513e-07
-4.20987e-07
-4.36643e-07
-4.52852e-07
-4.69136e-07
-4.85146e-07
-5.00637e-07
-5.15439e-07
-5.29442e-07
-5.42578e-07
-5.54809e-07
-5.66113e-07
-5.76484e-07
-5.85916e-07
-5.9441e-07
-6.01965e-07
-6.08578e-07
-6.1425e-07
-6.18976e-07
-6.22764e-07
-6.25614e-07
-6.27542e-07
-6.28531e-07
-6.28547e-07
-6.27505e-07
-6.25472e-07
-6.22788e-07
-3.75914e-07
-3.8088e-07
-3.90113e-07
-4.02322e-07
-4.16544e-07
-4.3194e-07
-4.47908e-07
-4.63984e-07
-4.79831e-07
-4.95207e-07
-5.09946e-07
-5.23941e-07
-5.37125e-07
-5.49458e-07
-5.60921e-07
-5.71505e-07
-5.81209e-07
-5.90031e-07
-5.97974e-07
-6.05036e-07
-6.1122e-07
-6.16528e-07
-6.20966e-07
-6.24538e-07
-6.27243e-07
-6.29065e-07
-6.29984e-07
-6.30012e-07
-6.29263e-07
-6.27936e-07
-3.74737e-07
-3.7964e-07
-3.88775e-07
-4.00864e-07
-4.14955e-07
-4.30235e-07
-4.46097e-07
-4.62082e-07
-4.77858e-07
-4.9319e-07
-5.07919e-07
-5.21943e-07
-5.35201e-07
-5.47661e-07
-5.5931e-07
-5.70148e-07
-5.80178e-07
-5.89407e-07
-5.97839e-07
-6.05477e-07
-6.12323e-07
-6.1838e-07
-6.23648e-07
-6.2812e-07
-6.31783e-07
-6.34619e-07
-6.36612e-07
-6.37784e-07
-6.38211e-07
-6.38006e-07
-3.76242e-07
-3.81072e-07
-3.90158e-07
-4.02251e-07
-4.16373e-07
-4.31691e-07
-4.47592e-07
-4.6361e-07
-4.79416e-07
-4.94779e-07
-5.09548e-07
-5.23632e-07
-5.36981e-07
-5.49575e-07
-5.61414e-07
-5.72505e-07
-5.82862e-07
-5.92495e-07
-6.01415e-07
-6.09625e-07
-6.17125e-07
-6.23906e-07
-6.29962e-07
-6.35277e-07
-6.39838e-07
-6.43606e-07
-6.46543e-07
-6.48578e-07
-6.49714e-07
-6.50027e-07
-3.80006e-07
-3.84716e-07
-3.93735e-07
-4.05858e-07
-4.2004e-07
-4.35413e-07
-4.51343e-07
-4.67358e-07