/*--------------------------------*- C++ -*----------------------------------*\
| =========                 |                                                 |
| \\      /  F ield         | OpenFOAM: The Open Source CFD Toolbox           |
|  \\    /   O peration     | Version:  2312                                  |
|   \\  /    A nd           | Website:  www.openfoam.com                      |
|    \\/     M anipulation  |                                                 |
\*---------------------------------------------------------------------------*/
FoamFile
{
    version     2.0;
    format      ascii;
    arch        "LSB;label=32;scalar=64";
    class       volVectorField;
    location    "87000";
    object      U;
}
// * * * * * * * * * * * * * * * * * * * * * * * * * * * * * * * * * * * * * //

dimensions      [0 1 -1 0 0 0 0];

internalField   nonuniform List<vector> 
2685
(
(0.000724181 -2.31498e-05 0)
(0.000733767 -1.09808e-05 0)
(0.000713783 -2.12501e-06 0)
(0.000691395 6.31834e-06 0)
(0.00066966 1.40047e-05 0)
(0.00064715 2.02971e-05 0)
(0.000622121 2.51445e-05 0)
(0.000594126 2.88248e-05 0)
(0.000563495 3.17003e-05 0)
(0.000530857 3.40166e-05 0)
(0.00049668 3.58802e-05 0)
(0.000461194 3.73117e-05 0)
(0.000424525 3.82921e-05 0)
(0.000386803 3.87826e-05 0)
(0.000348229 3.87275e-05 0)
(0.000309058 3.80554e-05 0)
(0.000269615 3.66802e-05 0)
(0.000230277 3.44842e-05 0)
(0.000191454 3.13354e-05 0)
(0.000153625 2.69487e-05 0)
(0.000117493 2.06915e-05 0)
(8.39901e-05 1.20339e-05 0)
(5.40378e-05 1.29714e-06 0)
(2.83637e-05 -1.03452e-05 0)
(7.30614e-06 -2.16134e-05 0)
(-9.1462e-06 -3.15582e-05 0)
(-2.07267e-05 -3.95983e-05 0)
(-2.81804e-05 -4.57794e-05 0)
(-3.20536e-05 -4.98557e-05 0)
(-3.31707e-05 -5.16481e-05 0)
(-3.17722e-05 -5.11225e-05 0)
(-2.85968e-05 -4.88021e-05 0)
(-2.43147e-05 -4.4982e-05 0)
(-1.95773e-05 -3.98673e-05 0)
(-1.49216e-05 -3.368e-05 0)
(-1.07516e-05 -2.67433e-05 0)
(-7.39791e-06 -1.94624e-05 0)
(-5.0878e-06 -1.22465e-05 0)
(-3.98754e-06 -5.47656e-06 0)
(-4.00014e-06 5.34983e-07 0)
(-5.09444e-06 5.48429e-06 0)
(-7.20272e-06 9.2369e-06 0)
(-1.01113e-05 1.17787e-05 0)
(-1.34722e-05 1.3223e-05 0)
(-1.69175e-05 1.37235e-05 0)
(-2.01544e-05 1.34631e-05 0)
(-2.29953e-05 1.26434e-05 0)
(-2.53411e-05 1.14526e-05 0)
(-2.71702e-05 1.00435e-05 0)
(-2.85256e-05 8.53415e-06 0)
(-2.94932e-05 7.01245e-06 0)
(-3.01816e-05 5.54288e-06 0)
(-3.07059e-05 4.17327e-06 0)
(-3.11762e-05 2.94074e-06 0)
(-3.16925e-05 1.87547e-06 0)
(-3.23421e-05 1.00209e-06 0)
(-3.31991e-05 3.39986e-07 0)
(-3.4326e-05 -9.85294e-08 0)
(-3.57615e-05 -3.11298e-07 0)
(-3.755e-05 -3.30205e-07 0)
(-3.97383e-05 -1.76773e-07 0)
(-4.23483e-05 1.33987e-07 0)
(-4.5387e-05 5.81622e-07 0)
(-4.88521e-05 1.14088e-06 0)
(-5.27316e-05 1.7841e-06 0)
(-5.70038e-05 2.48226e-06 0)
(-6.16368e-05 3.20544e-06 0)
(-6.65885e-05 3.92386e-06 0)
(-7.18061e-05 4.60924e-06 0)
(-7.72266e-05 5.23574e-06 0)
(-8.27768e-05 5.78051e-06 0)
(-8.83764e-05 6.2242e-06 0)
(-9.39423e-05 6.55214e-06 0)
(-9.93946e-05 6.75676e-06 0)
(-0.000104639 6.8423e-06 0)
(-0.000109567 6.80928e-06 0)
(-0.000114076 6.658e-06 0)
(-0.000118072 6.39287e-06 0)
(-0.000121469 6.02147e-06 0)
(-0.000124187 5.5542e-06 0)
(-0.000126157 5.00362e-06 0)
(-0.000127314 4.36197e-06 0)
(-0.000127604 3.63177e-06 0)
(-0.000127008 2.81739e-06 0)
(-0.000125516 1.94946e-06 0)
(-0.000123107 1.05017e-06 0)
(-0.000119776 1.39026e-07 0)
(-0.000115534 -7.66292e-07 0)
(-0.000110404 -1.64986e-06 0)
(-0.000104424 -2.49753e-06 0)
(0.00130941 4.11908e-05 0)
(0.00129391 5.12968e-05 0)
(0.00128256 6.00779e-05 0)
(0.0012711 6.87827e-05 0)
(0.00125793 7.71996e-05 0)
(0.00124286 8.49266e-05 0)
(0.0012261 9.18627e-05 0)
(0.00120787 9.8084e-05 0)
(0.00118829 0.000103734 0)
(0.00116742 0.000108922 0)
(0.00114527 0.000113691 0)
(0.00112184 0.000118046 0)
(0.00109717 0.000121957 0)
(0.00107129 0.000125382 0)
(0.00104427 0.000128249 0)
(0.00101621 0.000130473 0)
(0.00098719 0.000131937 0)
(0.000957308 0.000132511 0)
(0.000926638 0.000132053 0)
(0.00089518 0.000130404 0)
(0.000862954 0.000127431 0)
(0.000829804 0.000122987 0)
(0.000795632 0.00011708 0)
(0.000759943 0.00010976 0)
(0.000722731 0.00010131 0)
(0.000683575 9.19017e-05 0)
(0.000643105 8.19646e-05 0)
(0.00060145 7.17626e-05 0)
(0.000558826 6.15154e-05 0)
(0.000515981 5.1544e-05 0)
(0.000473966 4.23384e-05 0)
(0.000432965 3.41503e-05 0)
(0.000393283 2.70939e-05 0)
(0.000355321 2.11209e-05 0)
(0.000319559 1.60941e-05 0)
(0.000286375 1.18812e-05 0)
(0.00025598 8.40477e-06 0)
(0.000228472 5.64145e-06 0)
(0.000203898 3.55034e-06 0)
(0.00018225 2.16145e-06 0)
(0.00016321 1.41765e-06 0)
(0.000146839 1.21304e-06 0)
(0.000132991 1.17966e-06 0)
(0.000121251 8.21612e-07 0)
(0.000111313 2.63241e-08 0)
(0.000102838 -1.04202e-06 0)
(9.5583e-05 -2.15128e-06 0)
(8.93622e-05 -3.10915e-06 0)
(8.40159e-05 -3.77339e-06 0)
(7.9407e-05 -4.04637e-06 0)
(7.54204e-05 -3.88443e-06 0)
(7.19579e-05 -3.30077e-06 0)
(6.89343e-05 -2.35016e-06 0)
(6.62732e-05 -1.10512e-06 0)
(6.39048e-05 3.62719e-07 0)
(6.17643e-05 1.99115e-06 0)
(5.97876e-05 3.72924e-06 0)
(5.7906e-05 5.5378e-06 0)
(5.60042e-05 7.38168e-06 0)
(5.40397e-05 9.20819e-06 0)
(5.19948e-05 1.09579e-05 0)
(4.98588e-05 1.2587e-05 0)
(4.76159e-05 1.40739e-05 0)
(4.52614e-05 1.54039e-05 0)
(4.28028e-05 1.65619e-05 0)
(4.02581e-05 1.7533e-05 0)
(3.76554e-05 1.83022e-05 0)
(3.50338e-05 1.88548e-05 0)
(3.24425e-05 1.91728e-05 0)
(2.99386e-05 1.92364e-05 0)
(2.75854e-05 1.90265e-05 0)
(2.54513e-05 1.85275e-05 0)
(2.36114e-05 1.77294e-05 0)
(2.21534e-05 1.66298e-05 0)
(2.1155e-05 1.52388e-05 0)
(2.06735e-05 1.3567e-05 0)
(2.07742e-05 1.16294e-05 0)
(2.15221e-05 9.44655e-06 0)
(2.29771e-05 7.03474e-06 0)
(2.51773e-05 4.41751e-06 0)
(2.81347e-05 1.61314e-06 0)
(3.18536e-05 -1.34426e-06 0)
(3.63721e-05 -4.42721e-06 0)
(4.17507e-05 -7.60415e-06 0)
(4.8021e-05 -1.08244e-05 0)
(5.51653e-05 -1.40409e-05 0)
(6.31636e-05 -1.72095e-05 0)
(7.19878e-05 -2.02894e-05 0)
(8.16008e-05 -2.32428e-05 0)
(9.19577e-05 -2.60355e-05 0)
(0.0015429 4.50815e-05 0)
(0.00153219 5.6196e-05 0)
(0.00152494 6.69785e-05 0)
(0.00151847 7.7204e-05 0)
(0.00151129 8.6986e-05 0)
(0.00150293 9.64157e-05 0)
(0.00149344 0.000105518 0)
(0.00148304 0.000114263 0)
(0.00147194 0.000122607 0)
(0.00146023 0.000130508 0)
(0.00144792 0.000137932 0)
(0.00143497 0.000144839 0)
(0.00142137 0.00015119 0)
(0.00140706 0.000156925 0)
(0.00139205 0.000161977 0)
(0.00137628 0.000166248 0)
(0.00135976 0.000169641 0)
(0.00134241 0.000172029 0)
(0.00132423 0.000173307 0)
(0.00130509 0.00017336 0)
(0.00128498 0.000172125 0)
(0.00126372 0.000169578 0)
(0.00124132 0.000165804 0)
(0.00121761 0.000161001 0)
(0.00119264 0.000155458 0)
(0.00116634 0.000149536 0)
(0.00113881 0.000143541 0)
(0.00111024 0.000137811 0)
(0.00108059 0.000132469 0)
(0.00105054 0.000127677 0)
(0.00102025 0.000123409 0)
(0.000989682 0.00011956 0)
(0.000958757 0.000115984 0)
(0.000927493 0.000112521 0)
(0.000895992 0.000109014 0)
(0.000864466 0.00010531 0)
(0.000833093 0.000101289 0)
(0.000802041 9.68814e-05 0)
(0.000771398 9.20574e-05 0)
(0.000741278 8.68259e-05 0)
(0.000711756 8.12315e-05 0)
(0.000682923 7.53207e-05 0)
(0.000654874 6.91848e-05 0)
(0.000627502 6.29242e-05 0)
(0.000600947 5.66581e-05 0)
(0.000575319 5.05164e-05 0)
(0.000550634 4.46161e-05 0)
(0.00052689 3.90459e-05 0)
(0.000504126 3.38665e-05 0)
(0.000482431 2.91195e-05 0)
(0.000461907 2.48367e-05 0)
(0.000442644 2.10412e-05 0)
(0.000424704 1.77449e-05 0)
(0.000408124 1.49499e-05 0)
(0.00039292 1.26478e-05 0)
(0.000379094 1.08173e-05 0)
(0.000366641 9.4446e-06 0)
(0.000355524 8.52264e-06 0)
(0.000345718 8.01194e-06 0)
(0.000337282 7.87747e-06 0)
(0.000330127 8.09474e-06 0)
(0.000324134 8.62204e-06 0)
(0.00031924 9.373e-06 0)
(0.000315387 1.02563e-05 0)
(0.000312502 1.11986e-05 0)
(0.000310505 1.21319e-05 0)
(0.000309325 1.298e-05 0)
(0.000308887 1.36617e-05 0)
(0.000309112 1.41076e-05 0)
(0.000309932 1.42626e-05 0)
(0.000311295 1.4081e-05 0)
(0.000313158 1.35262e-05 0)
(0.000315496 1.25733e-05 0)
(0.000318291 1.12087e-05 0)
(0.000321537 9.41103e-06 0)
(0.000325239 7.17112e-06 0)
(0.000329393 4.50364e-06 0)
(0.000334002 1.45476e-06 0)
(0.000339044 -1.91765e-06 0)
(0.000344491 -5.61081e-06 0)
(0.000350424 -9.63972e-06 0)
(0.000356895 -1.39549e-05 0)
(0.000363865 -1.8474e-05 0)
(0.00037132 -2.31062e-05 0)
(0.000379249 -2.77819e-05 0)
(0.000387641 -3.24353e-05 0)
(0.000396477 -3.70035e-05 0)
(0.000405737 -4.14278e-05 0)
(0.000415393 -4.56542e-05 0)
(0.000425416 -4.96343e-05 0)
(0.00164679 6.4708e-05 0)
(0.00163922 7.64669e-05 0)
(0.00163302 8.80092e-05 0)
(0.00162763 9.89402e-05 0)
(0.00162246 0.000109292 0)
(0.00161713 0.000119193 0)
(0.00161148 0.000128748 0)
(0.00160548 0.00013799 0)
(0.0015992 0.000146893 0)
(0.0015927 0.000155403 0)
(0.001586 0.000163466 0)
(0.00157911 0.000171033 0)
(0.00157201 0.00017806 0)
(0.00156465 0.000184502 0)
(0.00155701 0.000190306 0)
(0.00154902 0.000195417 0)
(0.00154066 0.000199778 0)
(0.00153185 0.000203335 0)
(0.00152255 0.000206036 0)
(0.00151269 0.000207852 0)
(0.0015022 0.00020876 0)
(0.00149099 0.000208778 0)
(0.00147898 0.000207937 0)
(0.00146611 0.00020632 0)
(0.00145228 0.00020402 0)
(0.0014375 0.000201168 0)
(0.00142173 0.000197879 0)
(0.00140508 0.000194262 0)
(0.00138754 0.000190407 0)
(0.00136928 0.000186343 0)
(0.00135033 0.000182065 0)
(0.00133071 0.000177565 0)
(0.00131054 0.000172866 0)
(0.00129 0.000168011 0)
(0.00126922 0.000163041 0)
(0.00124831 0.000157989 0)
(0.00122737 0.000152877 0)
(0.00120643 0.00014771 0)
(0.00118555 0.000142487 0)
(0.00116471 0.000137212 0)
(0.00114394 0.000131877 0)
(0.00112322 0.000126492 0)
(0.00110256 0.000121032 0)
(0.00108209 0.000115539 0)
(0.00106185 0.000110057 0)
(0.00104186 0.000104607 0)
(0.00102206 9.9207e-05 0)
(0.00100247 9.38791e-05 0)
(0.000983106 8.86523e-05 0)
(0.000964017 8.35554e-05 0)
(0.000945278 7.86127e-05 0)
(0.000926959 7.38411e-05 0)
(0.000909123 6.92519e-05 0)
(0.000891825 6.48484e-05 0)
(0.000875112 6.06311e-05 0)
(0.000859038 5.65979e-05 0)
(0.000843648 5.27436e-05 0)
(0.000828996 4.90683e-05 0)
(0.000815121 4.55673e-05 0)
(0.000802078 4.22294e-05 0)
(0.000789912 3.9045e-05 0)
(0.00077861 3.59954e-05 0)
(0.000768194 3.3083e-05 0)
(0.000758706 3.03179e-05 0)
(0.000750198 2.76928e-05 0)
(0.000742697 2.51883e-05 0)
(0.000736206 2.27651e-05 0)
(0.000730713 2.03691e-05 0)
(0.000726212 1.79628e-05 0)
(0.000722702 1.5495e-05 0)
(0.000720163 1.29116e-05 0)
(0.000718561 1.01902e-05 0)
(0.000717844 7.28156e-06 0)
(0.000717956 4.12896e-06 0)
(0.000718887 7.39294e-07 0)
(0.000720549 -2.92206e-06 0)
(0.000722813 -6.95689e-06 0)
(0.000725657 -1.13077e-05 0)
(0.000729106 -1.58722e-05 0)
(0.000733108 -2.06165e-05 0)
(0.000737608 -2.55339e-05 0)
(0.000742556 -3.06135e-05 0)
(0.000747888 -3.58042e-05 0)
(0.000753549 -4.10428e-05 0)
(0.000759491 -4.62712e-05 0)
(0.000765676 -5.14319e-05 0)
(0.000772068 -5.64645e-05 0)
(0.000778631 -6.13082e-05 0)
(0.000785331 -6.59064e-05 0)
(0.000792135 -7.02076e-05 0)
(0.00162643 7.94665e-05 0)
(0.00162117 8.88181e-05 0)
(0.00161663 9.85077e-05 0)
(0.00161263 0.000108317 0)
(0.00160895 0.00011807 0)
(0.00160535 0.000127652 0)
(0.00160171 0.000136998 0)
(0.00159798 0.000146064 0)
(0.00159419 0.000154816 0)
(0.00159039 0.000163216 0)
(0.00158665 0.000171226 0)
(0.00158299 0.000178804 0)
(0.00157942 0.00018591 0)
(0.00157593 0.000192503 0)
(0.00157248 0.000198541 0)
(0.00156905 0.000203984 0)
(0.0015656 0.000208794 0)
(0.00156209 0.000212937 0)
(0.00155847 0.000216383 0)
(0.0015547 0.000219114 0)
(0.00155071 0.000221118 0)
(0.00154643 0.000222402 0)
(0.00154179 0.000222981 0)
(0.00153672 0.000222894 0)
(0.00153117 0.000222189 0)
(0.00152507 0.000220933 0)
(0.00151839 0.000219194 0)
(0.0015111 0.000217039 0)
(0.00150324 0.000214525 0)
(0.00149484 0.000211703 0)
(0.00148597 0.000208617 0)
(0.00147671 0.00020533 0)
(0.0014671 0.000201892 0)
(0.00145724 0.000198336 0)
(0.00144717 0.000194658 0)
(0.00143695 0.000190847 0)
(0.00142661 0.000186882 0)
(0.00141616 0.000182741 0)
(0.00140558 0.000178395 0)
(0.00139488 0.000173824 0)
(0.00138402 0.000169017 0)
(0.00137301 0.000163976 0)
(0.00136185 0.000158717 0)
(0.00135057 0.00015325 0)
(0.00133915 0.000147591 0)
(0.00132757 0.000141759 0)
(0.00131584 0.000135788 0)
(0.00130399 0.000129723 0)
(0.00129209 0.00012362 0)
(0.00128019 0.000117532 0)
(0.00126837 0.000111509 0)
(0.00125669 0.000105598 0)
(0.00124517 9.98326e-05 0)
(0.00123387 9.42427e-05 0)
(0.00122281 8.88483e-05 0)
(0.00121204 8.36636e-05 0)
(0.00120159 7.86959e-05 0)
(0.00119149 7.3942e-05 0)
(0.00118178 6.93984e-05 0)
(0.00117248 6.50465e-05 0)
(0.00116364 6.08687e-05 0)
(0.00115527 5.6839e-05 0)
(0.00114742 5.2931e-05 0)
(0.00114015 4.91248e-05 0)
(0.00113344 4.53867e-05 0)
(0.00112726 4.16766e-05 0)
(0.00112163 3.79558e-05 0)
(0.00111655 3.41813e-05 0)
(0.00111202 3.03218e-05 0)
(0.00110807 2.63437e-05 0)
(0.00110467 2.22121e-05 0)
(0.00110183 1.79069e-05 0)
(0.0010995 1.34019e-05 0)
(0.00109765 8.68652e-06 0)
(0.00109631 3.76188e-06 0)
(0.00109528 -1.38165e-06 0)
(0.00109457 -6.69268e-06 0)
(0.00109438 -1.21484e-05 0)
(0.00109466 -1.77454e-05 0)
(0.00109523 -2.34713e-05 0)
(0.00109599 -2.92948e-05 0)
(0.00109693 -3.51709e-05 0)
(0.00109805 -4.10472e-05 0)
(0.0010993 -4.68697e-05 0)
(0.00110063 -5.25858e-05 0)
(0.001102 -5.81429e-05 0)
(0.00110339 -6.34871e-05 0)
(0.00110477 -6.85644e-05 0)
(0.00110611 -7.33247e-05 0)
(0.00110739 -7.77233e-05 0)
(0.00164189 8.96239e-05 0)
(0.0016364 9.91145e-05 0)
(0.00163147 0.000108871 0)
(0.00162652 0.00011881 0)
(0.00162123 0.000128759 0)
(0.00161549 0.000138552 0)
(0.00160934 0.000148061 0)
(0.00160289 0.000157202 0)
(0.00159626 0.000165927 0)
(0.00158956 0.000174203 0)
(0.00158288 0.000182001 0)
(0.00157627 0.000189293 0)
(0.00156978 0.000196046 0)
(0.00156344 0.000202234 0)
(0.00155727 0.00020783 0)
(0.00155129 0.000212813 0)
(0.00154551 0.000217165 0)
(0.00153996 0.000220875 0)
(0.00153464 0.000223936 0)
(0.00152955 0.000226348 0)
(0.00152469 0.000228117 0)
(0.00152003 0.00022926 0)
(0.00151553 0.000229802 0)
(0.00151116 0.000229773 0)
(0.00150689 0.000229215 0)
(0.00150266 0.000228176 0)
(0.00149845 0.000226712 0)
(0.00149424 0.000224884 0)
(0.00149003 0.000222756 0)
(0.00148583 0.000220381 0)
(0.00148167 0.000217807 0)
(0.00147757 0.000215063 0)
(0.00147355 0.000212172 0)
(0.00146961 0.000209139 0)
(0.00146576 0.000205957 0)
(0.00146199 0.000202609 0)
(0.00145827 0.000199069 0)
(0.00145459 0.000195316 0)
(0.0014509 0.000191332 0)
(0.00144718 0.000187102 0)
(0.0014434 0.000182625 0)
(0.00143956 0.000177905 0)
(0.00143563 0.000172956 0)
(0.0014316 0.000167793 0)
(0.00142746 0.000162442 0)
(0.0014232 0.000156938 0)
(0.00141879 0.00015133 0)
(0.00141426 0.000145664 0)
(0.00140962 0.000139983 0)
(0.00140488 0.000134319 0)
(0.00140008 0.000128696 0)
(0.00139524 0.000123131 0)
(0.00139037 0.000117637 0)
(0.0013855 0.000112223 0)
(0.00138064 0.000106897 0)
(0.00137582 0.000101663 0)
(0.00137106 9.65246e-05 0)
(0.00136639 9.14819e-05 0)
(0.00136182 8.6529e-05 0)
(0.00135738 8.16618e-05 0)
(0.00135309 7.68677e-05 0)
(0.00134897 7.21358e-05 0)
(0.00134505 6.74488e-05 0)
(0.00134134 6.27756e-05 0)
(0.00133784 5.80918e-05 0)
(0.00133455 5.3376e-05 0)
(0.00133149 4.86115e-05 0)
(0.00132864 4.37867e-05 0)
(0.00132603 3.88799e-05 0)
(0.00132364 3.38802e-05 0)
(0.00132147 2.87668e-05 0)
(0.0013195 2.35306e-05 0)
(0.00131769 1.81656e-05 0)
(0.00131607 1.26656e-05 0)
(0.00131455 7.04798e-06 0)
(0.00131316 1.30928e-06 0)
(0.00131192 -4.49038e-06 0)
(0.00131066 -1.03267e-05 0)
(0.00130934 -1.62129e-05 0)
(0.00130796 -2.21517e-05 0)
(0.00130652 -2.81102e-05 0)
(0.00130501 -3.40392e-05 0)
(0.0013034 -3.98909e-05 0)
(0.00130165 -4.56201e-05 0)
(0.00129974 -5.11821e-05 0)
(0.00129765 -5.65326e-05 0)
(0.00129538 -6.16275e-05 0)
(0.00129293 -6.64239e-05 0)
(0.0012903 -7.0881e-05 0)
(0.00128749 -7.49629e-05 0)
(0.00176145 9.69409e-05 0)
(0.00175499 0.000108921 0)
(0.001749 0.000120632 0)
(0.00174278 0.000132044 0)
(0.00173591 0.000143137 0)
(0.00172827 0.000153876 0)
(0.0017199 0.000164213 0)
(0.00171093 0.000174093 0)
(0.00170147 0.000183463 0)
(0.00169165 0.000192273 0)
(0.00168154 0.000200484 0)
(0.00167118 0.000208061 0)
(0.00166061 0.000214973 0)
(0.00164987 0.000221195 0)
(0.001639 0.000226709 0)
(0.00162804 0.000231499 0)
(0.00161703 0.000235558 0)
(0.00160602 0.000238884 0)
(0.00159507 0.000241484 0)
(0.00158424 0.000243368 0)
(0.00157355 0.000244554 0)
(0.00156306 0.000245068 0)
(0.00155279 0.00024494 0)
(0.00154278 0.000244211 0)
(0.00153305 0.000242928 0)
(0.00152362 0.000241143 0)
(0.00151453 0.000238916 0)
(0.0015058 0.000236308 0)
(0.00149747 0.000233379 0)
(0.00148957 0.000230185 0)
(0.00148212 0.000226771 0)
(0.00147514 0.00022317 0)
(0.00146864 0.000219404 0)
(0.00146262 0.000215486 0)
(0.00145707 0.000211423 0)
(0.00145198 0.000207218 0)
(0.00144735 0.000202873 0)
(0.00144313 0.000198385 0)
(0.00143929 0.000193759 0)
(0.00143581 0.000189005 0)
(0.00143266 0.00018413 0)
(0.0014298 0.000179145 0)
(0.0014272 0.000174059 0)
(0.00142484 0.000168883 0)
(0.00142268 0.00016363 0)
(0.00142069 0.000158316 0)
(0.00141883 0.00015296 0)
(0.00141709 0.00014758 0)
(0.00141542 0.000142193 0)
(0.00141381 0.000136813 0)
(0.00141225 0.000131448 0)
(0.00141072 0.000126108 0)
(0.00140922 0.000120796 0)
(0.00140774 0.000115521 0)
(0.00140629 0.000110287 0)
(0.00140487 0.000105099 0)
(0.00140349 9.9961e-05 0)
(0.00140215 9.4876e-05 0)
(0.00140086 8.9844e-05 0)
(0.00139962 8.48619e-05 0)
(0.00139844 7.99264e-05 0)
(0.00139732 7.50286e-05 0)
(0.00139628 7.01594e-05 0)
(0.00139529 6.53074e-05 0)
(0.00139438 6.04583e-05 0)
(0.00139353 5.56051e-05 0)
(0.00139274 5.07333e-05 0)
(0.001392 4.58335e-05 0)
(0.0013913 4.08938e-05 0)
(0.00139062 3.58954e-05 0)
(0.00138995 3.08363e-05 0)
(0.00138927 2.56969e-05 0)
(0.00138856 2.04796e-05 0)
(0.0013878 1.51834e-05 0)
(0.00138697 9.79848e-06 0)
(0.00138603 4.35401e-06 0)
(0.00138499 -1.18103e-06 0)
(0.00138383 -6.7733e-06 0)
(0.00138246 -1.23778e-05 0)
(0.00138082 -1.79637e-05 0)
(0.00137894 -2.35062e-05 0)
(0.00137684 -2.89776e-05 0)
(0.00137452 -3.43445e-05 0)
(0.00137196 -3.95696e-05 0)
(0.00136914 -4.46143e-05 0)
(0.00136607 -4.94414e-05 0)
(0.00136275 -5.40159e-05 0)
(0.00135921 -5.83049e-05 0)
(0.00135546 -6.22779e-05 0)
(0.00135151 -6.59073e-05 0)
(0.00178804 0.000106186 0)
(0.00178438 0.000119389 0)
(0.0017813 0.000132279 0)
(0.00177838 0.000144787 0)
(0.00177523 0.000156906 0)
(0.00177162 0.000168634 0)
(0.00176748 0.000179953 0)
(0.00176281 0.000190825 0)
(0.00175767 0.0002012 0)
(0.0017521 0.00021102 0)
(0.00174613 0.000220232 0)
(0.00173977 0.000228783 0)
(0.00173301 0.00023663 0)
(0.00172583 0.000243735 0)
(0.00171823 0.000250067 0)
(0.0017102 0.000255603 0)
(0.00170175 0.000260325 0)
(0.00169291 0.000264225 0)
(0.0016837 0.0002673 0)
(0.00167414 0.000269558 0)
(0.00166428 0.000271012 0)
(0.00165415 0.000271683 0)
(0.00164379 0.000271601 0)
(0.00163325 0.000270805 0)
(0.00162257 0.000269336 0)
(0.00161181 0.000267247 0)
(0.00160103 0.000264591 0)
(0.00159028 0.000261423 0)
(0.00157962 0.000257801 0)
(0.00156911 0.000253776 0)
(0.0015588 0.000249398 0)
(0.00154874 0.00024471 0)
(0.00153896 0.00023975 0)
(0.00152952 0.000234554 0)
(0.00152045 0.000229152 0)
(0.00151178 0.000223574 0)
(0.00150353 0.000217848 0)
(0.00149573 0.000211999 0)
(0.00148838 0.000206052 0)
(0.00148149 0.000200033 0)
(0.00147506 0.000193964 0)
(0.00146908 0.000187863 0)
(0.00146354 0.000181746 0)
(0.00145842 0.000175626 0)
(0.00145372 0.000169515 0)
(0.00144939 0.000163422 0)
(0.00144542 0.000157357 0)
(0.00144179 0.000151329 0)
(0.00143847 0.000145346 0)
(0.00143543 0.000139417 0)
(0.00143266 0.000133551 0)
(0.00143014 0.000127757 0)
(0.00142784 0.00012204 0)
(0.00142577 0.000116407 0)
(0.00142391 0.000110861 0)
(0.00142224 0.000105405 0)
(0.00142075 0.000100038 0)
(0.00141944 9.47589e-05 0)
(0.0014183 8.95628e-05 0)
(0.0014173 8.4444e-05 0)
(0.00141645 7.93951e-05 0)
(0.00141573 7.44066e-05 0)
(0.00141513 6.94688e-05 0)
(0.00141465 6.457e-05 0)
(0.00141426 5.96993e-05 0)
(0.00141395 5.48441e-05 0)
(0.00141372 4.99933e-05 0)
(0.00141353 4.51357e-05 0)
(0.00141338 4.02607e-05 0)
(0.00141324 3.53615e-05 0)
(0.0014131 3.04286e-05 0)
(0.00141293 2.54618e-05 0)
(0.00141273 2.04562e-05 0)
(0.00141245 1.54142e-05 0)
(0.00141208 1.03424e-05 0)
(0.00141161 5.23738e-06 0)
(0.00141101 1.18636e-07 0)
(0.0014103 -5.02299e-06 0)
(0.00140942 -1.01861e-05 0)
(0.00140833 -1.53289e-05 0)
(0.00140704 -2.04023e-05 0)
(0.00140555 -2.53718e-05 0)
(0.00140386 -3.02152e-05 0)
(0.00140198 -3.49113e-05 0)
(0.00139988 -3.94337e-05 0)
(0.00139758 -4.37525e-05 0)
(0.00139509 -4.78391e-05 0)
(0.00139242 -5.16682e-05 0)
(0.00138959 -5.52174e-05 0)
(0.00138662 -5.84665e-05 0)
(0.00159656 0.000109669 0)
(0.00159865 0.00012218 0)
(0.00160168 0.00013472 0)
(0.0016053 0.000147145 0)
(0.00160914 0.000159359 0)
(0.00161297 0.000171298 0)
(0.00161669 0.000182921 0)
(0.00162024 0.00019419 0)
(0.00162366 0.000205061 0)
(0.00162692 0.000215482 0)
(0.00163003 0.000225394 0)
(0.00163294 0.00023474 0)
(0.00163561 0.000243462 0)
(0.00163799 0.000251509 0)
(0.00164 0.000258839 0)
(0.00164162 0.000265417 0)
(0.0016428 0.000271214 0)
(0.00164352 0.00027621 0)
(0.00164374 0.000280391 0)
(0.00164346 0.000283751 0)
(0.00164266 0.00028629 0)
(0.00164134 0.000288017 0)
(0.00163951 0.000288948 0)
(0.00163716 0.000289108 0)
(0.00163432 0.000288527 0)
(0.001631 0.000287241 0)
(0.00162724 0.000285291 0)
(0.00162307 0.000282719 0)
(0.00161853 0.000279568 0)
(0.00161366 0.000275881 0)
(0.0016085 0.000271701 0)
(0.0016031 0.000267072 0)
(0.00159749 0.000262039 0)
(0.00159172 0.000256645 0)
(0.00158585 0.000250935 0)
(0.00157991 0.000244948 0)
(0.00157396 0.000238725 0)
(0.00156804 0.000232303 0)
(0.00156218 0.000225717 0)
(0.00155642 0.000218999 0)
(0.00155077 0.00021218 0)
(0.00154528 0.000205287 0)
(0.00153994 0.000198346 0)
(0.00153479 0.000191379 0)
(0.00152982 0.000184407 0)
(0.00152506 0.000177449 0)
(0.0015205 0.000170524 0)
(0.00151616 0.000163648 0)
(0.00151203 0.000156837 0)
(0.00150811 0.000150105 0)
(0.00150442 0.000143465 0)
(0.00150094 0.000136927 0)
(0.00149768 0.000130499 0)
(0.00149464 0.000124188 0)
(0.00149181 0.000117996 0)
(0.00148918 0.000111924 0)
(0.00148677 0.000105971 0)
(0.00148455 0.000100134 0)
(0.00148252 9.4407e-05 0)
(0.00148067 8.87847e-05 0)
(0.001479 8.32594e-05 0)
(0.0014775 7.78233e-05 0)
(0.00147615 7.24667e-05 0)
(0.00147495 6.71809e-05 0)
(0.00147389 6.19554e-05 0)
(0.00147294 5.67809e-05 0)
(0.00147211 5.16484e-05 0)
(0.00147136 4.65491e-05 0)
(0.0014707 4.14772e-05 0)
(0.0014701 3.64256e-05 0)
(0.00146954 3.13911e-05 0)
(0.00146901 2.63705e-05 0)
(0.00146849 2.13624e-05 0)
(0.00146796 1.6369e-05 0)
(0.0014674 1.13917e-05 0)
(0.00146678 6.43718e-06 0)
(0.00146609 1.51152e-06 0)
(0.00146527 -3.37812e-06 0)
(0.00146432 -8.22465e-06 0)
(0.0014633 -1.30141e-05 0)
(0.00146221 -1.77213e-05 0)
(0.001461 -2.232e-05 0)
(0.00145966 -2.67883e-05 0)
(0.00145817 -3.1107e-05 0)
(0.00145653 -3.52559e-05 0)
(0.00145474 -3.92137e-05 0)
(0.00145282 -4.29591e-05 0)
(0.00145076 -4.64729e-05 0)
(0.00144858 -4.97374e-05 0)
(0.00144628 -5.27361e-05 0)
(0.00124441 9.87074e-05 0)
(0.00125156 0.00011014 0)
(0.00125996 0.000121821 0)
(0.00126918 0.000133538 0)
(0.00127889 0.000145139 0)
(0.00128893 0.000156542 0)
(0.00129923 0.000167707 0)
(0.00130978 0.000178611 0)
(0.0013206 0.000189224 0)
(0.00133167 0.000199506 0)
(0.00134296 0.000209403 0)
(0.00135442 0.000218858 0)
(0.00136599 0.000227813 0)
(0.00137759 0.000236218 0)
(0.00138915 0.000244027 0)
(0.00140062 0.000251201 0)
(0.00141193 0.000257709 0)
(0.00142301 0.000263523 0)
(0.00143381 0.000268622 0)
(0.00144429 0.00027299 0)
(0.00145439 0.000276617 0)
(0.00146407 0.000279499 0)
(0.0014733 0.000281639 0)
(0.00148204 0.000283044 0)
(0.00149027 0.000283727 0)
(0.00149797 0.000283709 0)
(0.00150512 0.000283011 0)
(0.00151171 0.000281661 0)
(0.00151773 0.000279687 0)
(0.0015232 0.00027712 0)
(0.00152812 0.000273995 0)
(0.0015325 0.000270349 0)
(0.00153638 0.000266224 0)
(0.00153977 0.00026166 0)
(0.00154269 0.000256699 0)
(0.00154519 0.000251382 0)
(0.00154729 0.000245747 0)
(0.00154902 0.000239832 0)
(0.00155041 0.00023367 0)
(0.00155148 0.000227297 0)
(0.00155226 0.000220744 0)
(0.00155278 0.000214043 0)
(0.00155306 0.000207223 0)
(0.00155313 0.000200314 0)
(0.00155302 0.000193343 0)
(0.00155274 0.000186335 0)
(0.00155231 0.000179315 0)
(0.00155177 0.000172305 0)
(0.00155112 0.000165325 0)
(0.00155039 0.000158392 0)
(0.00154959 0.000151524 0)
(0.00154874 0.000144732 0)
(0.00154785 0.000138028 0)
(0.00154693 0.00013142 0)
(0.00154601 0.000124914 0)
(0.00154507 0.000118515 0)
(0.00154414 0.000112224 0)
(0.00154322 0.000106041 0)
(0.00154232 9.99661e-05 0)
(0.00154145 9.39967e-05 0)
(0.00154059 8.81291e-05 0)
(0.00153976 8.23589e-05 0)
(0.00153896 7.6681e-05 0)
(0.00153819 7.10886e-05 0)
(0.00153744 6.55766e-05 0)
(0.00153671 6.0137e-05 0)
(0.00153599 5.47653e-05 0)
(0.00153527 4.94541e-05 0)
(0.00153456 4.41989e-05 0)
(0.00153384 3.89959e-05 0)
(0.00153309 3.38392e-05 0)
(0.00153231 2.87307e-05 0)
(0.00153149 2.36636e-05 0)
(0.00153061 1.86452e-05 0)
(0.00152966 1.36734e-05 0)
(0.00152862 8.75556e-06 0)
(0.00152748 3.90516e-06 0)
(0.00152624 -8.74822e-07 0)
(0.00152488 -5.54385e-06 0)
(0.00152338 -1.00971e-05 0)
(0.00152176 -1.45428e-05 0)
(0.00152002 -1.88776e-05 0)
(0.00151815 -2.30838e-05 0)
(0.00151613 -2.71378e-05 0)
(0.00151396 -3.10178e-05 0)
(0.00151163 -3.47067e-05 0)
(0.00150915 -3.819e-05 0)
(0.00150653 -4.14532e-05 0)
(0.00150376 -4.44815e-05 0)
(0.00150086 -4.72608e-05 0)
(0.000834455 7.71813e-05 0)
(0.000844428 8.78653e-05 0)
(0.000855607 9.86664e-05 0)
(0.000867479 0.000109378 0)
(0.000879877 0.000119907 0)
(0.000892793 0.000130234 0)
(0.000906276 0.000140364 0)
(0.000920363 0.000150298 0)
(0.000935063 0.000160014 0)
(0.000950361 0.000169478 0)
(0.000966218 0.000178642 0)
(0.000982589 0.000187459 0)
(0.000999419 0.000195885 0)
(0.00101665 0.000203877 0)
(0.00103423 0.0002114 0)
(0.00105208 0.000218419 0)
(0.00107015 0.000224905 0)
(0.00108837 0.000230832 0)
(0.00110668 0.000236177 0)
(0.001125 0.000240919 0)
(0.00114326 0.000245044 0)
(0.00116142 0.000248541 0)
(0.00117939 0.000251402 0)
(0.00119712 0.000253625 0)
(0.00121455 0.000255211 0)
(0.00123163 0.000256167 0)
(0.00124831 0.000256503 0)
(0.00126455 0.000256234 0)
(0.00128032 0.000255381 0)
(0.00129557 0.000253968 0)
(0.0013103 0.000252024 0)
(0.00132449 0.000249579 0)
(0.00133812 0.000246662 0)
(0.00135119 0.000243306 0)
(0.00136369 0.00023954 0)
(0.00137562 0.000235398 0)
(0.00138697 0.000230908 0)
(0.00139777 0.000226102 0)
(0.001408 0.00022101 0)
(0.00141769 0.000215663 0)
(0.00142684 0.000210091 0)
(0.00143546 0.000204323 0)
(0.00144356 0.00019839 0)
(0.00145117 0.00019232 0)
(0.00145831 0.000186139 0)
(0.00146498 0.000179874 0)
(0.0014712 0.000173548 0)
(0.001477 0.000167184 0)
(0.00148239 0.000160803 0)
(0.0014874 0.000154423 0)
(0.00149203 0.000148061 0)
(0.00149631 0.000141732 0)
(0.00150026 0.000135448 0)
(0.00150389 0.000129221 0)
(0.00150722 0.000123058 0)
(0.00151027 0.000116969 0)
(0.00151305 0.000110957 0)
(0.00151557 0.000105027 0)
(0.00151786 9.91817e-05 0)
(0.00151991 9.3422e-05 0)
(0.00152174 8.77482e-05 0)
(0.00152337 8.21587e-05 0)
(0.00152479 7.6652e-05 0)
(0.00152602 7.12253e-05 0)
(0.00152705 6.58752e-05 0)
(0.0015279 6.05993e-05 0)
(0.00152856 5.53927e-05 0)
(0.00152904 5.02541e-05 0)
(0.00152933 4.51792e-05 0)
(0.00152944 4.01668e-05 0)
(0.00152935 3.52162e-05 0)
(0.00152908 3.0325e-05 0)
(0.00152861 2.54985e-05 0)
(0.00152794 2.07339e-05 0)
(0.00152706 1.60414e-05 0)
(0.00152599 1.14225e-05 0)
(0.00152469 6.88569e-06 0)
(0.00152319 2.44463e-06 0)
(0.00152148 -1.89976e-06 0)
(0.00151952 -6.11849e-06 0)
(0.0015173 -1.0199e-05 0)
(0.00151485 -1.41471e-05 0)
(0.0015122 -1.79602e-05 0)
(0.00150933 -2.16226e-05 0)
(0.00150625 -2.51156e-05 0)
(0.00150294 -2.84251e-05 0)
(0.00149942 -3.15391e-05 0)
(0.00149569 -3.44451e-05 0)
(0.00149177 -3.71309e-05 0)
(0.00148768 -3.95855e-05 0)
(0.000415361 5.49013e-05 0)
(0.000425742 6.47048e-05 0)
(0.000436974 7.38284e-05 0)
(0.000448914 8.27414e-05 0)
(0.000461576 9.14438e-05 0)
(0.00047505 9.99815e-05 0)
(0.000489379 0.000108402 0)
(0.000504575 0.000116693 0)
(0.000520621 0.000124828 0)
(0.000537496 0.000132766 0)
(0.000555175 0.000140472 0)
(0.000573628 0.000147914 0)
(0.000592819 0.000155062 0)
(0.000612703 0.000161891 0)
(0.000633231 0.000168374 0)
(0.000654348 0.000174486 0)
(0.000675994 0.000180202 0)
(0.000698106 0.000185499 0)
(0.000720617 0.000190356 0)
(0.000743457 0.000194752 0)
(0.000766556 0.000198672 0)
(0.000789841 0.000202103 0)
(0.000813242 0.000205032 0)
(0.000836684 0.000207455 0)
(0.000860098 0.000209369 0)
(0.000883418 0.000210778 0)
(0.00090658 0.000211689 0)
(0.000929523 0.00021211 0)
(0.000952188 0.000212056 0)
(0.000974525 0.000211544 0)
(0.000996484 0.000210591 0)
(0.00101802 0.000209215 0)
(0.0010391 0.000207435 0)
(0.00105968 0.000205271 0)
(0.00107972 0.000202744 0)
(0.00109921 0.000199875 0)
(0.00111812 0.000196687 0)
(0.00113643 0.000193202 0)
(0.00115412 0.000189444 0)
(0.00117119 0.000185438 0)
(0.00118763 0.000181207 0)
(0.00120342 0.000176776 0)
(0.00121857 0.000172169 0)
(0.00123308 0.000167408 0)
(0.00124695 0.000162517 0)
(0.00126019 0.000157517 0)
(0.00127279 0.000152429 0)
(0.00128478 0.000147271 0)
(0.00129615 0.000142063 0)
(0.00130693 0.000136822 0)
(0.00131712 0.000131561 0)
(0.00132673 0.000126296 0)
(0.00133579 0.000121039 0)
(0.0013443 0.000115802 0)
(0.00135228 0.000110593 0)
(0.00135975 0.000105421 0)
(0.00136671 0.000100294 0)
(0.00137319 9.52153e-05 0)
(0.0013792 9.01907e-05 0)
(0.00138475 8.52227e-05 0)
(0.00138985 8.03137e-05 0)
(0.00139452 7.54649e-05 0)
(0.00139876 7.06766e-05 0)
(0.00140259 6.59495e-05 0)
(0.00140601 6.12822e-05 0)
(0.00140904 5.66754e-05 0)
(0.00141167 5.21274e-05 0)
(0.00141391 4.76384e-05 0)
(0.00141578 4.32084e-05 0)
(0.00141726 3.88364e-05 0)
(0.00141838 3.45256e-05 0)
(0.00141912 3.02744e-05 0)
(0.00141949 2.60879e-05 0)
(0.0014195 2.19675e-05 0)
(0.00141915 1.79159e-05 0)
(0.00141843 1.39425e-05 0)