/*--------------------------------*- C++ -*----------------------------------*\
| =========                 |                                                 |
| \\      /  F ield         | OpenFOAM: The Open Source CFD Toolbox           |
|  \\    /   O peration     | Version:  2312                                  |
|   \\  /    A nd           | Website:  www.openfoam.com                      |
|    \\/     M anipulation  |                                                 |
\*---------------------------------------------------------------------------*/
FoamFile
{
    version     2.0;
    format      ascii;
    arch        "LSB;label=32;scalar=64";
    class       surfaceScalarField;
    location    "118000";
    object      phi;
}
// * * * * * * * * * * * * * * * * * * * * * * * * * * * * * * * * * * * * * //

dimensions      [0 3 -1 0 0 0 0];

oriented        oriented;

internalField   nonuniform List<scalar> 
5250
(
0.000503375
1.04857e-06
0.00049896
4.41505e-06
0.000492092
6.86755e-06
0.000482847
9.24486e-06
0.000471418
1.14289e-05
0.000458157
1.32616e-05
0.000443415
1.47416e-05
0.000427466
1.59492e-05
0.000410484
1.69816e-05
0.000392582
1.79026e-05
0.000373844
1.87378e-05
0.000354349
1.9495e-05
0.000334171
2.01781e-05
0.000313382
2.07886e-05
0.000292056
2.13264e-05
0.000270268
2.17875e-05
0.000248102
2.21663e-05
0.000225648
2.24543e-05
0.000203006
2.26422e-05
0.00018029
2.27159e-05
0.000157632
2.26577e-05
0.000135191
2.24406e-05
0.000113166
2.20257e-05
9.18109e-05
2.13547e-05
7.14597e-05
2.03512e-05
5.25151e-05
1.89446e-05
3.5396e-05
1.71191e-05
2.04445e-05
1.49515e-05
7.87697e-06
1.25676e-05
-2.23825e-06
1.01152e-05
-9.92753e-06
7.68929e-06
-1.52122e-05
5.28467e-06
-1.84064e-05
3.1942e-06
-1.98176e-05
1.41117e-06
-1.98178e-05
2.63685e-10
-1.84903e-05
-1.32752e-06
-1.62422e-05
-2.2481e-06
-1.33981e-05
-2.8441e-06
-1.02527e-05
-3.1454e-06
-7.06458e-06
-3.18813e-06
-4.05232e-06
-3.01227e-06
-1.39255e-06
-2.65977e-06
7.81508e-07
-2.17406e-06
2.37649e-06
-1.59498e-06
3.334e-06
-9.57511e-07
3.62924e-06
-2.95241e-07
3.30538e-06
3.23858e-07
2.35463e-06
9.50752e-07
8.76228e-07
1.4784e-06
-1.01062e-06
1.88685e-06
-3.18551e-06
2.17489e-06
-5.53665e-06
2.35114e-06
-7.9683e-06
2.43165e-06
-1.0401e-05
2.43265e-06
-1.27696e-05
2.36861e-06
-1.50222e-05
2.25261e-06
-1.71194e-05
2.09719e-06
-1.90339e-05
1.91453e-06
-2.075e-05
1.71607e-06
-2.22619e-05
1.51191e-06
-2.35724e-05
1.31055e-06
-2.46917e-05
1.11927e-06
-2.5634e-05
9.42351e-07
-2.64138e-05
7.79712e-07
-2.70435e-05
6.29733e-07
-2.75337e-05
4.90263e-07
-2.7893e-05
3.59272e-07
-2.81287e-05
2.35702e-07
-2.82483e-05
1.19547e-07
-2.82586e-05
1.0346e-08
-2.81743e-05
-8.43595e-08
-2.79993e-05
-1.74981e-07
-2.77402e-05
-2.59123e-07
-2.74038e-05
-3.3635e-07
-2.69959e-05
-4.07889e-07
-2.65218e-05
-4.74092e-07
-2.59857e-05
-5.36109e-07
-2.53919e-05
-5.93824e-07
-2.47475e-05
-6.44388e-07
-2.40586e-05
-6.88936e-07
-2.33305e-05
-7.28074e-07
-2.25686e-05
-7.6189e-07
-2.17784e-05
-7.90251e-07
-2.09654e-05
-8.12933e-07
-2.01359e-05
-8.29556e-07
-1.92964e-05
-8.39447e-07
-1.84547e-05
-8.4168e-07
-1.76195e-05
-8.35222e-07
-1.68004e-05
-8.19109e-07
-7.92545e-07
0.000884817
8.62849e-06
0.000877463
1.17688e-05
0.000869899
1.44317e-05
0.000862191
1.69527e-05
0.000854232
1.93875e-05
0.000845805
2.16892e-05
0.000836729
2.38174e-05
0.000826919
2.57589e-05
0.000816372
2.75285e-05
0.000805115
2.91601e-05
0.000793168
3.06841e-05
0.000780549
3.21148e-05
0.000767272
3.34551e-05
0.000753356
3.47041e-05
0.000738828
3.58542e-05
0.000723721
3.68949e-05
0.000708071
3.78164e-05
0.000691931
3.85942e-05
0.000675351
3.92219e-05
0.000658378
3.96892e-05
0.000641056
3.99793e-05
0.000623425
4.00719e-05
0.000605507
3.9944e-05
0.000587289
3.95727e-05
0.000568702
3.89377e-05
0.000549616
3.80312e-05
0.000529877
3.68574e-05
0.000509378
3.54509e-05
0.000488093
3.38521e-05
0.000466077
3.21315e-05
0.000443423
3.03429e-05
0.000420144
2.8564e-05
0.000396407
2.69311e-05
0.000372253
2.5565e-05
0.000348218
2.40357e-05
0.000324296
2.25947e-05
0.000300754
2.12932e-05
0.000277779
2.0131e-05
0.000255549
1.90851e-05
0.000234238
1.81229e-05
0.000214013
1.72124e-05
0.000195023
1.63306e-05
0.000177384
1.54645e-05
0.000161179
1.46099e-05
0.000146456
1.37663e-05
0.000133223
1.29372e-05
0.000121421
1.21263e-05
0.000111104
1.12671e-05
0.000102152
1.04309e-05
9.43417e-05
9.69688e-06
8.75253e-05
8.99133e-06
8.15585e-05
8.31793e-06
7.63079e-05
7.68223e-06
7.16566e-05
7.08394e-06
6.75065e-05
6.51875e-06
6.37773e-05
5.98184e-06
6.04048e-05
5.46965e-06
5.7339e-05
4.98038e-06
5.45414e-05
4.51361e-06
5.19834e-05
4.06994e-06
4.96406e-05
3.65329e-06
4.74717e-05
3.28824e-06
4.55021e-05
2.91192e-06
4.37354e-05
2.54645e-06
4.21692e-05
2.19585e-06
4.0801e-05
1.85856e-06
3.96277e-05
1.53256e-06
3.86461e-05
1.21722e-06
3.78523e-05
9.13403e-07
3.72405e-05
6.22108e-07
3.6813e-05
3.43193e-07
3.65665e-05
7.15206e-08
3.64704e-05
-1.6308e-07
3.65195e-05
-3.85415e-07
3.67107e-05
-5.99063e-07
3.70376e-05
-8.01008e-07
3.74916e-05
-9.9014e-07
3.80653e-05
-1.1675e-06
3.87512e-05
-1.33031e-06
3.95387e-05
-1.47638e-06
4.04158e-05
-1.60524e-06
4.13721e-05
-1.71816e-06
4.2398e-05
-1.81613e-06
4.34851e-05
-1.90003e-06
4.46259e-05
-1.97038e-06
4.58131e-05
-2.0266e-06
4.70384e-05
-2.067e-06
4.82929e-05
-2.08975e-06
4.95671e-05
-2.09333e-06
-2.07671e-06
0.00102995
1.30672e-05
0.00102552
1.61996e-05
0.00102079
1.91604e-05
0.00101586
2.1887e-05
0.00101081
2.44392e-05
0.00100562
2.68725e-05
0.00100023
2.92125e-05
0.00099453
3.1456e-05
0.000988469
3.35899e-05
0.000982023
3.56058e-05
0.000975205
3.75026e-05
0.000968036
3.92833e-05
0.000960541
4.0951e-05
0.000952738
4.25069e-05
0.000944643
4.39484e-05
0.000936268
4.52704e-05
0.00092762
4.64644e-05
0.000918693
4.75214e-05
0.000909483
4.84313e-05
0.000899988
4.91849e-05
0.000890195
4.97719e-05
0.000880084
5.01833e-05
0.00086962
5.04079e-05
0.000858757
5.04356e-05
0.00084744
5.0255e-05
0.000835612
4.98586e-05
0.000823223
4.92467e-05
0.00081024
4.8434e-05
0.000796638
4.74535e-05
0.000782422
4.63478e-05
0.000767592
4.51735e-05
0.00075218
4.39753e-05
0.000736312
4.27992e-05
0.000720218
4.16595e-05
0.000703832
4.04214e-05
0.000687128
3.92989e-05
0.000670085
3.83359e-05
0.000652747
3.74696e-05
0.000635157
3.66746e-05
0.000617356
3.59244e-05
0.000599377
3.51915e-05
0.000581256
3.44512e-05
0.000563036
3.36846e-05
0.000544769
3.28765e-05
0.000526519
3.20163e-05
0.000508358
3.10984e-05
0.000490358
3.01263e-05
0.000472453
2.91722e-05
0.000454718
2.8166e-05
0.00043739
2.7025e-05
0.000420556
2.58256e-05
0.000404282
2.45919e-05
0.000388627
2.33369e-05
0.00037364
2.20704e-05
0.000359358
2.08011e-05
0.000345803
1.95374e-05
0.000332985
1.8287e-05
0.000320909
1.70563e-05
0.000309572
1.58506e-05
0.000298968
1.4674e-05
0.000289092
1.35296e-05
0.000279961
1.24187e-05
0.000271531
1.13425e-05
0.000263774
1.03031e-05
0.000256667
9.30263e-06
0.000250184
8.34177e-06
0.000244296
7.42059e-06
0.000238974
6.53985e-06
0.000234186
5.70081e-06
0.000229904
4.9043e-06
0.000226098
4.14945e-06
0.000222735
3.43443e-06
0.000219812
2.75952e-06
0.000217301
2.12534e-06
0.000215171
1.53137e-06
0.000213393
9.76802e-07
0.000211944
4.58992e-07
0.000210805
-2.88398e-08
0.000209911
-4.36248e-07
0.000209254
-8.18835e-07
0.000208815
-1.16657e-06
0.000208577
-1.47968e-06
0.000208519
-1.7589e-06
0.000208626
-2.00631e-06
0.00020888
-2.22516e-06
0.000209271
-2.41734e-06
0.000209786
-2.58221e-06
0.000210413
-2.71678e-06
0.000211139
-2.81932e-06
-2.89149e-06
0.00109753
1.72931e-05
0.00109369
2.00422e-05
0.00108999
2.28588e-05
0.00108629
2.55881e-05
0.00108254
2.81936e-05
0.00107872
3.06902e-05
0.00107484
3.30926e-05
0.00107089
3.54065e-05
0.00106685
3.76279e-05
0.00106271
3.97471e-05
0.00105846
4.17545e-05
0.0010541
4.36447e-05
0.00104963
4.54149e-05
0.00104508
4.7063e-05
0.00104044
4.85873e-05
0.00103572
4.99868e-05
0.00103093
5.12578e-05
0.00102605
5.23957e-05
0.00102109
5.33951e-05
0.00101602
5.425e-05
0.00101084
5.49544e-05
0.00100552
5.55019e-05
0.00100004
5.58873e-05
0.000994374
5.61059e-05
0.000988473
5.61557e-05
0.000982295
5.60369e-05
0.000975785
5.57561e-05
0.000968895
5.53242e-05
0.000961591
5.47575e-05
0.000953879
5.406e-05
0.000945755
5.32979e-05
0.000937225
5.25046e-05
0.000928331
5.16935e-05
0.000919105
5.08851e-05
0.000909427
5.00999e-05
0.000899377
4.93483e-05
0.000889072
4.86417e-05
0.000878559
4.79822e-05
0.000867848
4.73859e-05
0.000856936
4.68359e-05
0.000845893
4.62348e-05
0.000834732
4.56122e-05
0.000823452
4.49643e-05
0.000812047
4.42818e-05
0.000800504
4.3559e-05
0.00078881
4.27928e-05
0.000776955
4.19808e-05
0.000765009
4.1118e-05
0.00075299
4.01853e-05
0.000740883
3.91323e-05
0.000728708
3.80006e-05
0.000716454
3.68455e-05
0.000704143
3.56483e-05
0.000691808
3.44047e-05
0.000679494
3.31151e-05
0.000667249
3.17823e-05
0.000655126
3.04104e-05
0.000643178
2.90047e-05
0.000631457
2.75715e-05
0.000620013
2.61175e-05
0.000608893
2.46499e-05
0.000598135
2.31765e-05
0.000587773
2.17048e-05
0.000577835
2.02413e-05
0.000568344
1.87932e-05
0.000559318
1.73675e-05
0.000550769
1.59704e-05
0.000542701
1.46079e-05
0.000535116
1.32857e-05
0.000528011
1.2009e-05
0.000521379
1.07815e-05
0.000515207
9.60609e-06
0.00050948
8.487e-06
0.000504178
7.42712e-06
0.000499281
6.42835e-06
0.000494766
5.49178e-06
0.000490607
4.61779e-06
0.000486771
3.80728e-06
0.000483272
3.06312e-06
0.00048007
2.38252e-06
0.000477141
1.76292e-06
0.000474467
1.19398e-06
0.000472032
6.76303e-07
0.000469819
2.06977e-07
0.0004678
-2.06359e-07
0.000465948
-5.65402e-07
0.000464247
-8.80753e-07
0.000462683
-1.15282e-06
0.000461247
-1.38357e-06
-1.57621e-06
0.00108631
2.04689e-05
0.00108338
2.29754e-05
0.00108064
2.5596e-05
0.00107797
2.82602e-05
0.00107527
3.08921e-05
0.00107252
3.34382e-05
0.00106974
3.58742e-05
0.00106695
3.81965e-05
0.00106417
4.04078e-05
0.00106141
4.25085e-05
0.00105867
4.44952e-05
0.00105595
4.63621e-05
0.00105326
4.81037e-05
0.00105061
4.97159e-05
0.001048
5.11963e-05
0.00104545
5.25435e-05
0.00104295
5.37567e-05
0.00104051
5.4835e-05
0.00103813
5.57774e-05
0.00103579
5.6583e-05
0.0010335
5.72516e-05
0.00103122
5.77786e-05
0.00102894
5.81624e-05
0.00102665
5.84034e-05
0.0010243
5.85059e-05
0.00102186
5.84749e-05
0.0010193
5.83174e-05
0.00101658
5.80428e-05
0.00101367
5.76638e-05
0.00101053
5.71976e-05
0.00100716
5.66668e-05
0.00100357
5.60946e-05
0.000999768
5.55002e-05
0.000995753
5.49006e-05
0.000991545
5.43078e-05
0.00098717
5.37235e-05
0.00098266
5.31514e-05
0.000978044
5.2598e-05
0.000973365
5.20651e-05
0.000968656
5.15454e-05
0.000963866
5.10245e-05
0.000958985
5.04934e-05
0.000954007
4.99423e-05
0.00094893
4.93581e-05
0.000943742
4.87477e-05
0.000938422
4.81123e-05
0.000932968
4.74354e-05
0.000927378
4.67079e-05
0.000921638
4.59255e-05
0.000915685
4.50845e-05
0.000909502
4.41836e-05
0.000903123
4.3225e-05
0.000896564
4.22071e-05
0.000889842
4.11274e-05
0.000882972
3.99851e-05
0.000875972
3.87818e-05
0.000868862
3.75205e-05
0.000861661
3.62058e-05
0.00085439
3.48427e-05
0.00084707
3.34369e-05
0.000839726
3.19944e-05
0.00083238
3.05218e-05
0.00082506
2.90256e-05
0.000817788
2.75126e-05
0.000810591
2.59902e-05
0.000803493
2.44656e-05
0.000796517
2.29463e-05
0.000789686
2.14395e-05
0.000783019
1.99523e-05
0.000776536
1.84919e-05
0.000770253
1.70645e-05
0.000764183
1.56764e-05
0.000758337
1.4333e-05
0.000752724
1.30395e-05
0.000747353
1.18e-05
0.000742226
1.06182e-05
0.000737347
9.49708e-06
0.000732716
8.43832e-06
0.000728335
7.4444e-06
0.000724201
6.51654e-06
0.00072031
5.65344e-06
0.000716651
4.85319e-06
0.000713212
4.11537e-06
0.000709979
3.43977e-06
0.000706948
2.82476e-06
0.000704115
2.26753e-06
0.000701469
1.7651e-06
0.000699002
1.31477e-06
0.000696704
9.13792e-07
5.59215e-07
0.00108809
2.34057e-05
0.00108483
2.62385e-05
0.00108134
2.90833e-05
0.0010777
3.19039e-05
0.00107393
3.46598e-05
0.00107005
3.7316e-05
0.00106608
3.98483e-05
0.00106203
4.22445e-05
0.00105794
4.44995e-05
0.00105384
4.66107e-05
0.00104976
4.85757e-05
0.00104573
5.0392e-05
0.00104178
5.20567e-05
0.00103792
5.35682e-05
0.00103419
5.49258e-05
0.00103061
5.61301e-05
0.00102718
5.7183e-05
0.00102393
5.8087e-05
0.00102086
5.88449e-05
0.00101798
5.946e-05
0.0010153
5.99355e-05
0.0010128
6.02748e-05
0.00101048
6.04823e-05
0.00100832
6.05636e-05
0.0010063
6.05257e-05
0.0010044
6.03762e-05
0.0010026
6.01241e-05
0.00100086
5.97796e-05
0.000999169
5.93544e-05
0.000997505
5.88619e-05
0.000995855
5.83162e-05
0.000994217
5.77326e-05
0.000992592
5.71251e-05
0.000990989
5.65044e-05
0.00098942
5.58762e-05
0.000987896
5.52477e-05
0.000986423
5.46243e-05
0.00098501
5.40106e-05
0.000983667
5.34088e-05
0.000982392
5.28198e-05
0.000981175
5.22413e-05
0.000980003
5.16657e-05
0.000978858
5.1087e-05
0.000977717
5.04999e-05
0.000976563
4.99011e-05
0.000975389
4.9286e-05
0.000974177
4.86479e-05
0.000972904
4.79807e-05
0.000971549
4.72803e-05
0.00097009
4.65435e-05
0.000968511
4.57634e-05
0.000966801
4.4934e-05
0.000964956
4.40526e-05
0.000962966
4.31177e-05
0.000960822
4.2129e-05
0.000958516
4.10872e-05
0.000956043
3.99937e-05
0.000953399
3.88505e-05
0.000950581
3.76602e-05
0.000947592
3.64255e-05
0.000944437
3.51498e-05
0.000941122
3.38368e-05
0.000937656
3.2491e-05
0.000934052
3.11173e-05
0.000930321
2.9721e-05
0.000926478
2.83083e-05
0.000922539
2.68851e-05
0.000918521
2.54582e-05
0.000914439
2.4034e-05
0.000910312
2.26191e-05
0.000906156
2.122e-05
0.00090199
1.98429e-05
0.000897829
1.84937e-05
0.000893691
1.71779e-05
0.00088959
1.59006e-05
0.000885542
1.46663e-05
0.00088156
1.34788e-05
0.000877657
1.23413e-05
0.000873845
1.12566e-05
0.000870135
1.02265e-05
0.000866536
9.25233e-06
0.000863055
8.33443e-06
0.000859698
7.47218e-06
0.000856473
6.66486e-06
0.000853386
5.912e-06
0.000850441
5.21274e-06
0.000847641
4.56519e-06
0.000844988
3.96705e-06
0.000842486
3.41563e-06
2.90796e-06
0.00116341
2.71414e-05
0.00115911
3.05426e-05
0.00115439
3.38001e-05
0.00114937
3.69278e-05
0.00114409
3.99349e-05
0.00113859
4.28168e-05
0.00113288
4.556e-05
0.00112697
4.81475e-05
0.00112091
5.05654e-05
0.00111472
5.28045e-05
0.00110843
5.48594e-05
0.0011021
5.67272e-05
0.00109575
5.84067e-05
0.00108942
5.98977e-05
0.00108314
6.12014e-05
0.00107695
6.23203e-05
0.00107088
6.32584e-05
0.00106494
6.40207e-05
0.00105917
6.46132e-05
0.00105359
6.50428e-05
0.00104821
6.53171e-05
0.00104304
6.54445e-05
0.00103809
6.5434e-05
0.00103336
6.52954e-05
0.00102884
6.50389e-05
0.00102454
6.46752e-05
0.00102045
6.42158e-05
0.00101656
6.36723e-05
0.00101286
6.30568e-05
0.00100934
6.23815e-05
0.001006
6.16585e-05
0.00100283
6.08998e-05
0.000999837
6.01163e-05
0.000997024
5.93173e-05
0.000994389
5.85108e-05
0.000991933
5.77037e-05
0.000989656
5.69015e-05
0.000987558
5.61086e-05
0.000985638
5.53287e-05
0.000983893
5.45647e-05
0.000982318
5.3816e-05
0.000980905
5.30795e-05
0.00097964
5.23518e-05
0.00097851
5.16293e-05
0.000977505
5.09066e-05
0.000976611
5.01793e-05
0.000975816
4.94432e-05
0.000975103
4.86939e-05
0.000974457
4.79267e-05
0.000973863
4.7137e-05
0.000973306
4.63204e-05
0.000972767
4.54733e-05
0.000972226
4.45934e-05
0.000971664
4.36798e-05
0.000971061
4.27316e-05
0.0009704
4.17482e-05
0.000969665
4.07293e-05
0.00096884
3.96749e-05
0.000967915
3.85852e-05
0.00096688
3.74612e-05
0.000965725
3.63043e-05
0.000964445
3.51166e-05
0.000963036
3.39006e-05
0.000961494
3.26594e-05
0.000959818
3.13967e-05
0.00095801
3.01164e-05
0.000956072
2.88231e-05
0.000954009
2.75212e-05
0.000951827
2.62159e-05
0.000949534
2.49119e-05
0.00094714
2.36143e-05
0.000944655
2.23281e-05
0.00094209
2.10582e-05
0.000939459
1.98091e-05
0.000936775
1.85851e-05
0.000934051
1.73904e-05
0.000931301
1.62283e-05
0.00092854
1.51021e-05
0.000925782
1.40145e-05
0.000923041
1.29674e-05
0.000920331
1.19628e-05
0.000917664
1.10017e-05
0.000915051
1.00843e-05
0.000912505
9.21084e-06
0.000910036
8.38128e-06
0.000907654
7.59536e-06
0.000905367
6.85218e-06
0.000903183
6.15012e-06
0.000901112
5.48735e-06
4.86165e-06
0.00119018
2.95349e-05
0.00118756
3.31653e-05
0.00118467
3.66924e-05
0.00118151
4.00886e-05
0.0011781
4.33421e-05
0.00117447
4.6446e-05
0.00117064
4.93922e-05
0.00116662
5.21711e-05
0.00116241
5.47721e-05
0.00115803
5.71848e-05
0.00115349
5.94e-05
0.0011488
6.14107e-05
0.001144
6.32125e-05
0.00113909
6.48032e-05
0.00113411
6.61831e-05
0.00112908
6.73546e-05
0.00112401
6.83218e-05
0.00111894
6.90906e-05
0.00111389
6.96681e-05
0.00110887
7.00628e-05
0.0011039
7.02842e-05
0.001099
7.03429e-05
0.00109419
7.02502e-05
0.00108946
7.00182e-05
0.00108484
6.96596e-05
0.00108033
6.91872e-05
0.00107593
6.86145e-05
0.00107165
6.79549e-05
0.00106749
6.72215e-05
0.00106344
6.64273e-05
0.00105951
6.55849e-05
0.00105571
6.47059e-05
0.00105202
6.38013e-05
0.00104846
6.28808e-05
0.00104502
6.19531e-05
0.00104169
6.10254e-05
0.00103849
6.01037e-05
0.00103541
5.91933e-05
0.00103244
5.8299e-05
0.00102958
5.74227e-05
0.00102683
5.65634e-05
0.00102419
5.57197e-05
0.00102165
5.48891e-05
0.00101922
5.40681e-05
0.00101687
5.3253e-05
0.00101461
5.24394e-05
0.00101243
5.16234e-05
0.00101032
5.08008e-05
0.00100828
4.99675e-05
0.0010063
4.91196e-05
0.00100437
4.82539e-05
0.00100247
4.73675e-05
0.00100061
4.64584e-05
0.000998761
4.55247e-05
0.000996928
4.45651e-05
0.000995098
4.35782e-05
0.000993264
4.25629e-05
0.00099142
4.15187e-05
0.00098956
4.04456e-05
0.000987677
3.93439e-05
0.000985767
3.82148e-05
0.000983824
3.70597e-05
0.000981843
3.58807e-05
0.000979823
3.46801e-05
0.000977759
3.34607e-05
0.00097565
3.22255e-05
0.000973495
3.09779e-05
0.000971294
2.97216e-05
0.00096905
2.84602e-05
0.000966764
2.71976e-05
0.000964441
2.59378e-05
0.000962085
2.46846e-05
0.000959701
2.34419e-05
0.000957296
2.22134e-05
0.000954879
2.10025e-05
0.000952457
1.98126e-05
0.000950039
1.86467e-05
0.000947633
1.75074e-05
0.000945251
1.6397e-05
0.000942901
1.53177e-05
0.000940593
1.42708e-05
0.000938336
1.32578e-05
0.000936141
1.22794e-05
0.000934016
1.1336e-05
0.000931969
1.0428e-05
0.00093001
9.55507e-06
0.000928145
8.71697e-06
0.000926382
7.91278e-06
0.000924728
7.14135e-06
6.40137e-06
0.00107027
2.85289e-05
0.00107138
3.20544e-05
0.00107243
3.56426e-05
0.00107336
3.9159e-05
0.0010742
4.24989e-05
0.00107497
4.56768e-05
0.00107567
4.86943e-05
0.00107629
5.15504e-05
0.00107682
5.42395e-05
0.00107726
5.67505e-05
0.00107759
5.90707e-05
0.00107781
6.11889e-05
0.00107792
6.3097e-05
0.00107794
6.47904e-05
0.00107785
6.62679e-05
0.00107768
6.75305e-05
0.00107742
6.85814e-05
0.00107708
6.94255e-05
0.00107668
7.00694e-05
0.00107622
7.05212e-05
0.00107572
7.07905e-05
0.00107517
7.08882e-05
0.00107459
7.08261e-05
0.001074
7.0617e-05
0.00107338
7.02743e-05
0.00107276
6.98118e-05
0.00107213
6.92443e-05
0.0010715
6.85861e-05
0.00107087
6.78515e-05
0.00107024
6.70543e-05
0.00106962
6.62077e-05
0.001069
6.5324e-05
0.00106838
6.44149e-05
0.00106777
6.34906e-05
0.00106717
6.25607e-05
0.00106656
6.16344e-05
0.00106594
6.07188e-05
0.00106532
5.98187e-05
0.00106468
5.8938e-05
0.00106402
5.80788e-05
0.00106334
5.72417e-05
0.00106264
5.64261e-05
0.0010619
5.56305e-05
0.00106111
5.4852e-05
0.00106028
5.40873e-05
0.00105938
5.33324e-05
0.00105842
5.25832e-05
0.00105739
5.18353e-05
0.00105627
5.10845e-05
0.00105507
5.03267e-05
0.00105376
4.95578e-05
0.00105236
4.87741e-05
0.00105084
4.79718e-05
0.00104922
4.71476e-05
0.00104749
4.62986e-05
0.00104564
4.54223e-05
0.00104369
4.45166e-05
0.00104163
4.358e-05
0.00103946
4.26116e-05
0.00103719
4.16111e-05
0.00103483
4.05786e-05
0.00103237
3.95149e-05
0.00102983
3.84213e-05
0.00102721
3.72994e-05
0.00102452
3.61515e-05
0.00102177
3.498e-05
0.00101896
3.37878e-05
0.0010161
3.25781e-05
0.00101321
3.13542e-05
0.00101029
3.01196e-05
0.00100735
2.88781e-05
0.0010044
2.76333e-05
0.00100145
2.63888e-05
0.000998516
2.51484e-05
0.000995603
2.39155e-05
0.000992722
2.26934e-05
0.000989884
2.14852e-05
0.000987097
2.02939e-05
0.000984372
1.91219e-05
0.000981718
1.79717e-05
0.000979144
1.68452e-05
0.000976657
1.57441e-05
0.000974267
1.46699e-05
0.000971979
1.36236e-05
0.000969802
1.26059e-05
0.000967739
1.16175e-05
0.000965798
1.06584e-05
0.000963982
9.72885e-06
0.000962295
8.82828e-06
7.95608e-06
0.000833338
2.4397e-05
0.000837533
2.78593e-05
0.000841845
3.13313e-05
0.00084629
3.47135e-05
0.000850841
3.79479e-05
0.000855486
4.10319e-05
0.000860204
4.39762e-05
0.000864976
4.67785e-05
0.000869788
4.94273e-05
0.000874631
5.19079e-05
0.000879495
5.42063e-05
0.000884373
5.63112e-05
0.000889255
5.8215e-05
0.000894133
5.99126e-05
0.000898999
6.14016e-05
0.000903848
6.26816e-05
0.000908675
6.37542e-05
0.000913478
6.46231e-05
0.000918254
6.52936e-05
0.000923002
6.5773e-05
0.000927722
6.60701e-05
0.000932415
6.6195e-05
0.000937082
6.61592e-05
0.000941724
6.59751e-05
0.000946342
6.5656e-05
0.000950938
6.52161e-05
0.000955513
6.46699e-05
0.000960067
6.40322e-05
0.000964601
6.33175e-05
0.000969115
6.25402e-05
0.000973608
6.17144e-05
0.000978079
6.08533e-05
0.000982524
5.99693e-05
0.000986941
5.90739e-05
0.000991324
5.81777e-05
0.000995668
5.72899e-05
0.000999969
5.64182e-05
0.00100422
5.55688e-05
0.00100841
5.47466e-05
0.00101253
5.3955e-05
0.00101658
5.31963e-05
0.00102053
5.2471e-05
0.00102439
5.17785e-05
0.00102812
5.11171e-05
0.00103172
5.04842e-05
0.00103518
4.98762e-05
0.00103847
4.92893e-05
0.00104159
4.87188e-05
0.00104452
4.81598e-05
0.00104724
4.76074e-05
0.00104974
4.70563e-05
0.00105201
4.65014e-05
0.00105404
4.59374e-05
0.00105583
4.53595e-05
0.00105737
4.47631e-05
0.00105865
4.41439e-05
0.00105966
4.34983e-05
0.00106042
4.28229e-05
0.00106092
4.21151e-05
0.00106116
4.13727e-05
0.00106114
4.05939e-05
0.00106088
3.97777e-05
0.00106038
3.89238e-05
0.00105964
3.80321e-05
0.00105869
3.71033e-05
0.00105753
3.61388e-05
0.00105618
3.51401e-05
0.00105465
3.41094e-05
0.00105295
3.30493e-05
0.00105111
3.19626e-05
0.00104914
3.08525e-05
0.00104705
2.97224e-05
0.00104486
2.85759e-05
0.00104259
2.74165e-05
0.00104026
2.62479e-05
0.00103788
2.50738e-05
0.00103547
2.38975e-05
0.00103304
2.27226e-05
0.00103061
2.15522e-05
0.00102819
2.03894e-05
0.0010258
1.9237e-05
0.00102344
1.80977e-05
0.00102114
1.69738e-05
0.0010189
1.58673e-05
0.00101672
1.47801e-05
0.00101463
1.37139e-05
0.00101262
1.26699e-05
0.00101069
1.16492e-05
0.00100887
1.06526e-05
9.68053e-06
0.000556072
1.91222e-05
0.000561519
2.24131e-05
0.000567156
2.56943e-05
0.000573023
2.88466e-05
0.000579094
3.18767e-05
0.000585341
3.47852e-05
0.000591752
3.75647e-05
0.000598328
4.02022e-05
0.000605072
4.26835e-05
0.000611984
4.49963e-05
0.000619059
4.71309e-05
0.000626291
4.90798e-05
0.000633668
5.08371e-05
0.000641183
5.23983e-05
0.000648824
5.37604e-05
0.000656583
5.49223e-05
0.000664452
5.5885e-05
0.000672424
5.66513e-05
0.000680492
5.7226e-05
0.000688649
5.76156e-05
0.000696891
5.7828e-05
0.000705213
5.7873e-05
0.000713611
5.77612e-05
0.000722082
5.75047e-05
0.000730621
5.71165e-05
0.000739227
5.66104e-05
0.000747896
5.60007e-05
0.000756626
5.53022e-05
0.000765414
5.45299e-05
0.000774255
5.36987e-05
0.000783147
5.28228e-05
0.000792084
5.19157e-05
0.000801063
5.09906e-05
0.000810077
5.00601e-05
0.000819119
4.91355e-05
0.000828182
4.82269e-05
0.000837257
4.73435e-05
0.000846333
4.64932e-05
0.000855397
4.56825e-05
0.000864435
4.49166e-05
0.000873432
4.41989e-05
0.000882372
4.35315e-05
0.000891236
4.29149e-05
0.000900004
4.23487e-05
0.000908657
4.18313e-05
0.000917173
4.136e-05
0.000925531
4.09315e-05
0.000933708
4.05417e-05
0.000941682
4.01854e-05
0.000949432
3.98574e-05
0.000956937
3.95515e-05
0.000964177
3.92616e-05
0.000971133
3.89814e-05
0.000977788
3.87045e-05
0.000984126
3.84249e-05
0.000990134
3.81364e-05
0.000995799
3.78332e-05
0.00100111
3.75102e-05
0.00100606
3.71623e-05
0.00101065
3.67851e-05
0.00101487
3.63747e-05
0.00101872
3.59278e-05
0.0010222
3.54415e-05
0.00102532
3.49139e-05
0.00102808
3.43437e-05
0.00103049
3.373e-05
0.00103256
3.30728e-05
0.00103429
3.23725e-05
0.00103571
3.163e-05
0.00103683
3.08469e-05
0.00103766
3.00251e-05
0.00103821
2.9167e-05
0.00103851
2.82754e-05
0.00103858
2.73534e-05
0.00103842
2.64043e-05
0.00103806
2.54317e-05
0.00103752
2.44391e-05
0.00103681
2.343e-05
0.00103596
2.24081e-05
0.00103497
2.13769e-05
0.00103387
2.03398e-05
0.00103266
1.93004e-05
0.00103138
1.82617e-05
0.00103002
1.72268e-05
0.0010286
1.61985e-05
0.00102713
1.51795e-05
0.00102563
1.41722e-05
0.0010241
1.31787e-05
0.00102255
1.22009e-05
1.12404e-05
0.000283428
1.42784e-05
0.000288374
1.74668e-05
0.000293659
2.04097e-05
0.000299209
2.32965e-05
0.000304997
2.60885e-05
0.000311024
2.87584e-05
0.000317301
3.12879e-05
0.000323837
3.36661e-05
0.000330637
3.58835e-05
0.0003377
3.79333e-05
0.000345023
3.98079e-05
0.000352602
4.15008e-05
0.000360432
4.30065e-05
0.00036851
4.43207e-05
0.000376829
4.5441e-05
0.000385385
4.63666e-05
0.000394172
4.70983e-05
0.000403184
4.76388e-05
0.000412418
4.79923e-05
0.000421868
4.81651e-05
0.000431532
4.81646e-05
0.000441405
4.79999e-05
0.000451484
4.76816e-05
0.000461768
4.72215e-05
0.000472251
4.66326e-05
0.000482933
4.59292e-05
0.000493808
4.51258e-05
0.000504872
4.42374e-05
0.000516122
4.32798e-05
0.000527552
4.22692e-05
0.000539155
4.12196e-05
0.000550926
4.01443e-05
0.000562859
3.90577e-05
0.000574946
3.79735e-05
0.000587177
3.69042e-05
0.000599543
3.58612e-05
0.000612031
3.48553e-05
0.000624628
3.38959e-05
0.000637318
3.29925e-05
0.000650081
3.21538e-05
0.000662895
3.13849e-05
0.000675738
3.06881e-05
0.000688588
3.00654e-05
0.000701419
2.95173e-05
0.000714207
2.90435e-05
0.000726925
2.86422e-05
0.000739546
2.83108e-05
0.000752042
2.80454e-05
0.000764386
2.78414e-05
0.00077655
2.76935e-05
0.000788505
2.75959e-05
0.000800225
2.7542e-05
0.000811682
2.75248e-05
0.000822849
2.75369e-05
0.000833703
2.75706e-05
0.000844222
2.76181e-05
0.000854383
2.76719e-05
0.000864168
2.77247e-05
0.000873561
2.77696e-05
0.000882546
2.78002e-05
0.000891111
2.78098e-05
0.000899246
2.77924e-05
0.000906945
2.77429e-05
0.000914202
2.76569e-05
0.000921015
2.75307e-05
0.000927384
2.73615e-05
0.000933309
2.71469e-05
0.000938796
2.68855e-05
0.00094385
2.65762e-05
0.000948478
2.6219e-05
0.000952689
2.58142e-05
0.000956493
2.53627e-05
0.000959902
2.48662e-05
0.000962929
2.43269e-05
0.000965586
2.37469e-05
0.000967889
2.3129e-05
0.000969852
2.2476e-05
0.000971491
2.1791e-05
0.000972822
2.10772e-05
0.000973861
2.03384e-05
0.000974623
1.95779e-05
0.000975124
1.87994e-05
0.000975379
1.80064e-05
0.000975403
1.72025e-05
0.000975211
1.63911e-05
0.000974815
1.55754e-05
0.000974228
1.47588e-05
0.000973463
1.3944e-05
0.00097253
1.3134e-05
1.23313e-05
1.89694e-05
1.13051e-05
2.26843e-05
1.37519e-05
2.65847e-05
1.65093e-05
3.08921e-05
1.89891e-05
3.54583e-05
2.15223e-05
4.03412e-05
2.38756e-05
4.55101e-05
2.6119e-05
5.09843e-05
2.81919e-05
5.67657e-05
3.01021e-05
6.28622e-05
3.18367e-05
6.92786e-05
3.33916e-05
7.60191e-05
3.47603e-05
8.30877e-05
3.59378e-05
9.04877e-05
3.69207e-05
9.82224e-05
3.77063e-05
0.000106295
3.82945e-05
0.000114707
3.86861e-05
0.000123461
3.88845e-05
0.000132559
3.88942e-05
0.000142003
3.87216e-05
0.000151793
3.83744e-05
0.000161931
3.78616e-05
0.000172419
3.71938e-05
0.000183257
3.63831e-05
0.000194447
3.54433e-05
0.000205986
3.43899e-05
0.000217873
3.32392e-05
0.000230101
3.20088e-05
0.000242664
3.07167e-05
0.000255552
2.93812e-05
0.000268757
2.80152e-05
0.00028227
2.66311e-05
0.00029608
2.52472e-05
0.000310176
2.38775e-05
0.000324544
2.25369e-05
0.000339167
2.12384e-05
0.000354028
1.99941e-05
0.000369109
1.88151e-05
0.000384389
1.77123e-05
0.000399842
1.67006e-05
0.000415441
1.57856e-05
0.00043116
1.49697e-05
0.000446969
1.42561e-05
0.00046284
1.36468e-05
0.00047874
1.31429e-05
0.000494638
1.27444e-05
0.000510499
1.24498e-05
0.000526289
1.22556e-05
0.000541974
1.21557e-05
0.000557525
1.21426e-05
0.000572911
1.22102e-05
0.0005881
1.23525e-05
0.000603063
1.25624e-05
0.000617768
1.28317e-05
0.000632187
1.3152e-05
0.000646291
1.35141e-05
0.000660054
1.3909e-05
0.00067345
1.43278e-05
0.000686458
1.47623e-05
0.000699052
1.52061e-05
0.000711214
1.56478e-05
0.000722926
1.60797e-05
0.000734175
1.64946e-05
0.000744946
1.68859e-05
0.000755228
1.7248e-05
0.000765014
1.75755e-05
0.000774297
1.7864e-05
0.000783073
1.81098e-05
0.000791339
1.83098e-05
0.000799097
1.84612e-05
0.00080635
1.85615e-05
0.000813102
1.86106e-05
0.000819358
1.86099e-05
0.000825125
1.85604e-05
0.000830408
1.84634e-05
0.000835217
1.83205e-05
0.000839559
1.81335e-05
0.000843446
1.79046e-05
0.000846886
1.76365e-05
0.000849892
1.73324e-05
0.000852475
1.69953e-05
0.000854646
1.66286e-05
0.000856416
1.62359e-05
0.000857798
1.58205e-05
0.000858803
1.53859e-05
0.000859443
1.49354e-05
0.00085973
1.4472e-05
0.000859675
1.39988e-05
0.000859291
1.35185e-05
1.30339e-05
-0.00024303
1.03023e-05
-0.000241588
1.23106e-05
-0.000239773
1.46939e-05
-0.000237481
1.66976e-05
-0.000234764
1.88052e-05
-0.000231569
2.06808e-05
-0.000227936
2.24852e-05
-0.000223849
2.41054e-05
-0.000219327
2.55803e-05
-0.00021436
2.68689e-05
-0.000208946
2.7978e-05
-0.000203075
2.88896e-05
-0.000196742
2.96042e-05
-0.000189935
3.01145e-05
-0.00018265
3.04207e-05
-0.000174877
3.05218e-05
-0.000166611
3.04205e-05
-0.000157848
3.01206e-05
-0.000148581
2.96279e-05
-0.00013881
2.89504e-05
-0.000128533
2.80973e-05
-0.000117751
2.70792e-05
-0.000106465
2.59081e-05
-9.4681e-05
2.45992e-05
-8.24083e-05
2.31707e-05
-6.96525e-05
2.1634e-05
-5.64189e-05
2.00056e-05
-4.27177e-05
1.83076e-05
-2.85661e-05
1.65651e-05
-1.39991e-05
1.48142e-05
9.62771e-07
1.30533e-05
1.62971e-05
1.12968e-05
3.19851e-05
9.55915e-06
4.80043e-05
7.85828e-06
6.43311e-05
6.21011e-06
8.09408e-05
4.62876e-06
9.78082e-05
3.12668e-06
0.00011491
1.71291e-06
0.000132237
3.85534e-07
0.000149691
-7.52896e-07
0.000167249
-1.77278e-06
0.000184897
-2.6782e-06
0.000202611
-3.45834e-06
0.000220366
-4.10825e-06
0.000238135
-4.62591e-06
0.000255891
-5.01111e-06
0.000273606
-5.26507e-06
0.000291251
-5.39039e-06
0.000308799
-5.39146e-06
0.000326216
-5.27421e-06
0.000343471
-5.04554e-06
0.000360537
-4.7131e-06
0.000377384
-4.28516e-06
0.000393987
-3.77066e-06
0.000410318
-3.17911e-06
0.000426352
-2.5204e-06
0.000442067
-1.80528e-06
0.000457439
-1.04488e-06
0.000472451
-2.49728e-07
0.000487049
6.08476e-07
0.000501226
1.47037e-06
0.000514967
2.33882e-06
0.000528254
3.20805e-06
0.000541069
4.0711e-06
0.000553396