/*--------------------------------*- C++ -*----------------------------------*\
| =========                 |                                                 |
| \\      /  F ield         | OpenFOAM: The Open Source CFD Toolbox           |
|  \\    /   O peration     | Version:  2312                                  |
|   \\  /    A nd           | Website:  www.openfoam.com                      |
|    \\/     M anipulation  |                                                 |
\*---------------------------------------------------------------------------*/
FoamFile
{
    version     2.0;
    format      ascii;
    arch        "LSB;label=32;scalar=64";
    class       surfaceScalarField;
    location    "90000";
    object      phi;
}
// * * * * * * * * * * * * * * * * * * * * * * * * * * * * * * * * * * * * * //

dimensions      [0 3 -1 0 0 0 0];

oriented        oriented;

internalField   nonuniform List<scalar> 
5250
(
0.000485702
3.01877e-06
0.0004794
6.30226e-06
0.000470421
8.97897e-06
0.000458811
1.16105e-05
0.000444782
1.40291e-05
0.000428708
1.60741e-05
0.000410948
1.77591e-05
0.000391777
1.91715e-05
0.000371368
2.04093e-05
0.000349843
2.15243e-05
0.000327314
2.2529e-05
0.000303893
2.34213e-05
0.000279698
2.41951e-05
0.000254858
2.48396e-05
0.000229517
2.53409e-05
0.00020384
2.56772e-05
0.000178017
2.58232e-05
0.000152274
2.57428e-05
0.000126879
2.53949e-05
0.000102156
2.47229e-05
7.85225e-05
2.36338e-05
5.65231e-05
2.19994e-05
3.6751e-05
1.97722e-05
1.96908e-05
1.70601e-05
5.6195e-06
1.40713e-05
-5.39703e-06
1.10165e-05
-1.34285e-05
8.03151e-06
-1.8583e-05
5.1545e-06
-2.13622e-05
2.77919e-06
-2.21954e-05
8.33166e-07
-2.14326e-05
-7.6281e-07
-1.94155e-05
-2.01708e-06
-1.66024e-05
-2.81314e-06
-1.34075e-05
-3.19487e-06
-1.01951e-05
-3.21241e-06
-7.26783e-06
-2.92725e-06
-4.85301e-06
-2.41482e-06
-3.10459e-06
-1.74842e-06
-2.11053e-06
-9.94056e-07
-1.90248e-06
-2.08047e-07
-2.39331e-06
4.90831e-07
-3.58617e-06
1.19285e-06
-5.36642e-06
1.78025e-06
-7.54566e-06
2.17925e-06
-9.89865e-06
2.35299e-06
-1.2213e-05
2.31433e-06
-1.43257e-05
2.11269e-06
-1.61323e-05
1.8066e-06
-1.75825e-05
1.45023e-06
-1.86724e-05
1.08992e-06
-1.94351e-05
7.62646e-07
-1.99282e-05
4.93165e-07
-2.02216e-05
2.93407e-07
-2.03871e-05
1.65491e-07
-2.04935e-05
1.06392e-07
-2.06039e-05
1.1041e-07
-2.0772e-05
1.681e-07
-2.10421e-05
2.70049e-07
-2.14517e-05
4.09632e-07
-2.20252e-05
5.73535e-07
-2.27865e-05
7.61212e-07
-2.37679e-05
9.81494e-07
-2.49852e-05
1.21728e-06
-2.64483e-05
1.46312e-06
-2.81633e-05
1.71492e-06
-3.01318e-05
1.96857e-06
-3.23516e-05
2.21972e-06
-3.48152e-05
2.46366e-06
-3.75109e-05
2.69568e-06
-4.04207e-05
2.90978e-06
-4.35201e-05
3.09938e-06
-4.67782e-05
3.25813e-06
-5.01581e-05
3.37994e-06
-5.36171e-05
3.459e-06
-5.71075e-05
3.49032e-06
-6.05805e-05
3.47306e-06
-6.39942e-05
3.41364e-06
-6.72823e-05
3.2881e-06
-7.03766e-05
3.09436e-06
-7.32155e-05
2.8389e-06
-7.57409e-05
2.52534e-06
-7.78979e-05
2.157e-06
-7.96358e-05
1.73792e-06
-8.09082e-05
1.27242e-06
-8.16722e-05
7.64004e-07
-8.18825e-05
2.10284e-07
-8.15379e-05
-3.44623e-07
-8.06257e-05
-9.12176e-07
-7.91288e-05
-1.49683e-06
-2.0866e-06
0.00087338
1.16886e-05
0.00086455
1.51325e-05
0.000855422
1.81066e-05
0.000846062
2.09704e-05
0.000836324
2.37671e-05
0.000825957
2.64411e-05
0.000814771
2.89456e-05
0.000802682
3.12596e-05
0.000789699
3.33929e-05
0.000775847
3.5376e-05
0.000761145
3.72307e-05
0.000745612
3.89544e-05
0.000729279
4.05285e-05
0.000712194
4.19248e-05
0.000694414
4.31204e-05
0.000675998
4.40939e-05
0.000656998
4.48227e-05
0.000637463
4.52775e-05
0.000617431
4.54272e-05
0.000596914
4.52396e-05
0.000575861
4.46877e-05
0.000554106
4.37537e-05
0.000531437
4.24418e-05
0.000507703
4.07941e-05
0.0004829
3.88736e-05
0.000457139
3.6778e-05
0.000430586
3.45846e-05
0.000403322
3.24184e-05
0.000375465
3.06359e-05
0.000347594
2.87047e-05
0.000320069
2.6762e-05
0.000293103
2.4949e-05
0.000266984
2.33058e-05
0.000241964
2.1825e-05
0.00021828
2.0471e-05
0.000196148
1.92047e-05
0.000175739
1.79943e-05
0.000157169
1.68223e-05
0.000140492
1.56828e-05
0.000125712
1.45718e-05
0.0001127
1.35024e-05
0.000101427
1.24665e-05
9.18403e-05
1.13667e-05
8.37036e-05
1.0316e-05
7.67693e-05
9.28727e-06
7.08535e-05
8.23017e-06
6.57948e-05
7.17139e-06
6.1456e-05
6.14534e-06
5.77244e-05
5.18188e-06
5.45072e-05
4.30711e-06
5.17272e-05
3.54262e-06
4.93184e-05
2.90198e-06
4.72229e-05
2.38886e-06
4.53902e-05
1.99827e-06
4.37766e-05
1.7199e-06
4.23451e-05
1.54198e-06
4.10604e-05
1.45281e-06
3.98881e-05
1.44232e-06
3.87923e-05
1.50544e-06
3.77169e-05
1.64897e-06
3.66146e-05
1.86351e-06
3.54972e-05
2.09885e-06
3.43472e-05
2.36724e-06
3.3149e-05
2.66137e-06
3.1894e-05
2.96992e-06
3.05795e-05
3.28303e-06
2.92062e-05
3.593e-06
2.77796e-05
3.8903e-06
2.63123e-05
4.16301e-06
2.48234e-05
4.39866e-06
2.3337e-05
4.58581e-06
2.1881e-05
4.71412e-06
2.04873e-05
4.77365e-06
1.91912e-05
4.75509e-06
1.80319e-05
4.6496e-06
1.70547e-05
4.45029e-06
1.63153e-05
4.15297e-06
1.58501e-05
3.7533e-06
1.5697e-05
3.24754e-06
1.59019e-05
2.63391e-06
1.65061e-05
1.92117e-06
1.75463e-05
1.11682e-06
1.90693e-05
2.1489e-07
2.10459e-05
-7.04101e-07
2.35061e-05
-1.69624e-06
2.64712e-05
-2.75481e-06
2.99873e-05
-3.8607e-06
3.4069e-05
-4.99388e-06
3.87096e-05
-6.13744e-06
-7.27548e-06
0.00102755
1.67847e-05
0.00102239
2.02844e-05
0.00101689
2.36134e-05
0.00101114
2.67221e-05
0.00100522
2.96791e-05
0.000999127
3.25386e-05
0.000992752
3.53208e-05
0.000985998
3.80128e-05
0.000978799
4.05925e-05
0.000971133
4.30419e-05
0.000963014
4.53497e-05
0.000954461
4.75072e-05
0.000945484
4.95052e-05
0.000936077
5.13317e-05
0.000926227
5.29708e-05
0.000915916
5.44054e-05
0.000905123
5.56149e-05
0.000893819
5.65814e-05
0.000881963
5.72837e-05
0.000869496
5.77062e-05
0.000856354
5.78303e-05
0.000842462
5.76456e-05
0.000827759
5.71443e-05
0.000812211
5.6343e-05
0.000795806
5.52782e-05
0.000778573
5.40112e-05
0.000760545
5.26123e-05
0.000741814
5.11499e-05
0.000722779
4.967e-05
0.000703338
4.81457e-05
0.000683643
4.6458e-05
0.000663597
4.49948e-05
0.000643269
4.3634e-05
0.000622756
4.23377e-05
0.000602146
4.1081e-05
0.000581514
3.9837e-05
0.000560931
3.85768e-05
0.000540473
3.72804e-05
0.000520221
3.59345e-05
0.000500259
3.45345e-05
0.000480679
3.30822e-05
0.000461555
3.15903e-05
0.000442761
3.01603e-05
0.00042446
2.86168e-05
0.000406765
2.69824e-05
0.000389676
2.53191e-05
0.000373193
2.36547e-05
0.000357328
2.20107e-05
0.000342105
2.04046e-05
0.00032756
1.88518e-05
0.000313738
1.7365e-05
0.000300685
1.59552e-05
0.000288443
1.4631e-05
0.000277043
1.33975e-05
0.000266506
1.2257e-05
0.000256838
1.12098e-05
0.000248037
1.02545e-05
0.000240091
9.38807e-06
0.000232987
8.60991e-06
0.000226718
7.91763e-06
0.000221276
7.30579e-06
0.000216604
6.77056e-06
0.000212662
6.30961e-06
0.000209408
5.91536e-06
0.000206802
5.57599e-06
0.0002048
5.28409e-06
0.000203364
5.02948e-06
0.000202458
4.79623e-06
0.00020202
4.60159e-06
0.000202003
4.41469e-06
0.000202372
4.21755e-06
0.000203088
3.99806e-06
0.000204118
3.74341e-06
0.000205434
3.43942e-06
0.00020702
3.06295e-06
0.000208871
2.59966e-06
0.000210983
2.04108e-06
0.000213353
1.38274e-06
0.000215996
6.05242e-07
0.000218918
-2.87869e-07
0.000222099
-1.26044e-06
0.000225543
-2.32686e-06
0.000229234
-3.47613e-06
0.000233238
-4.70819e-06
0.000237558
-6.01643e-06
0.00024219
-7.38662e-06
0.000247128
-8.79846e-06
0.000252367
-1.02328e-05
0.0002579
-1.16713e-05
-1.30957e-05
0.00109568
2.11862e-05
0.00109169
2.42778e-05
0.00108784
2.74631e-05
0.00108399
3.05716e-05
0.0010801
3.35675e-05
0.00107617
3.64727e-05
0.00107219
3.93011e-05
0.00106814
4.20561e-05
0.00106401
4.4728e-05
0.00105975
4.73027e-05
0.00105535
4.9745e-05
0.00105082
5.20443e-05
0.00104613
5.41948e-05
0.00104127
5.61877e-05
0.00103623
5.8011e-05
0.00103098
5.96525e-05
0.0010255
6.1098e-05
0.00101975
6.23343e-05
0.00101368
6.33473e-05
0.00100726
6.41247e-05
0.00100044
6.46554e-05
0.000993151
6.49345e-05
0.000985331
6.49643e-05
0.00097692
6.47542e-05
0.000967879
6.43192e-05
0.000958236
6.36534e-05
0.000948006
6.28428e-05
0.000937217
6.19387e-05
0.000925928
6.09587e-05
0.000914147
5.99269e-05
0.000901747
5.88584e-05
0.000888966
5.77751e-05
0.000875917
5.66839e-05
0.000862667
5.55871e-05
0.000849241
5.45072e-05
0.000835684
5.33943e-05
0.000822074
5.21866e-05
0.000808439
5.09153e-05
0.000794789
4.95841e-05
0.000781128
4.81962e-05
0.000767457
4.67526e-05
0.00075379
4.52577e-05
0.000740238
4.37122e-05
0.000726765
4.20897e-05
0.000713401
4.03468e-05
0.000700125
3.85946e-05
0.00068694
3.68401e-05
0.000673866
3.50839e-05
0.000660935
3.33356e-05
0.000648181
3.16066e-05
0.000635637
2.99084e-05
0.000623342
2.82504e-05
0.000611333
2.66404e-05
0.000599646
2.5084e-05
0.000588318
2.35856e-05
0.00057738
2.21477e-05
0.000566862
2.0772e-05
0.000556791
1.94588e-05
0.000547194
1.82076e-05
0.000538093
1.70187e-05
0.000529508
1.58904e-05
0.000521455
1.48241e-05
0.000513923
1.38411e-05
0.000506932
1.29062e-05
0.00050052
1.19878e-05
0.000494703
1.11019e-05
0.000489486
1.02463e-05
0.000484868
9.41369e-06
0.000480872
8.5979e-06
0.000477499
7.78808e-06
0.000474743
6.97323e-06
0.000472596
6.14535e-06
0.000471048
5.29108e-06
0.000470088
4.39939e-06
0.00046969
3.46127e-06
0.000469827
2.46206e-06
0.000470475
1.39296e-06
0.000471615
2.42914e-07
0.000473145
-9.24073e-07
0.000475052
-2.19516e-06
0.000477335
-3.54401e-06
0.000479963
-4.95476e-06
0.000482924
-6.43638e-06
0.000486189
-7.97342e-06
0.000489722
-9.54946e-06
0.000493486
-1.11507e-05
0.00049745
-1.27624e-05
0.000501588
-1.43704e-05
0.000505876
-1.59594e-05
-1.75122e-05
0.00108254
2.43924e-05
0.00107961
2.72067e-05
0.00107691
3.01588e-05
0.00107431
3.31722e-05
0.00107171
3.61665e-05
0.0010691
3.9088e-05
0.00106649
4.19128e-05
0.00106391
4.46354e-05
0.00106138
4.72544e-05
0.00105892
4.97646e-05
0.00105651
5.21551e-05
0.00105414
5.44136e-05
0.00105181
5.65281e-05
0.00104951
5.84889e-05
0.00104723
6.02868e-05
0.00104497
6.19139e-05
0.0010427
6.33623e-05
0.00104041
6.46256e-05
0.00103806
6.57008e-05
0.0010356
6.65843e-05
0.001033
6.72555e-05
0.00103022
6.77193e-05
0.0010272
6.79807e-05
0.00102391
6.80464e-05
0.0010203
6.79263e-05
0.00101632
6.76376e-05
0.00101195
6.72069e-05
0.00100723
6.6665e-05
0.00100215
6.60327e-05
0.000996751
6.53268e-05
0.000991053
6.45563e-05
0.000985105
6.37233e-05
0.000978952
6.28369e-05
0.000972633
6.19067e-05
0.000966204
6.09358e-05
0.000959682
5.99161e-05
0.00095304
5.88289e-05
0.000946304
5.76508e-05
0.000939477
5.64117e-05
0.000932544
5.51287e-05
0.000925508
5.3789e-05
0.000918378
5.23875e-05
0.000911166
5.09243e-05
0.000903853
4.94026e-05
0.000896373
4.78267e-05
0.000888762
4.62057e-05
0.000881053
4.45491e-05
0.000873271
4.28655e-05
0.000865443
4.1164e-05
0.000857596
3.94541e-05
0.000849758
3.77458e-05
0.00084196
3.60484e-05
0.000834231
3.437e-05
0.000826597
3.27175e-05
0.000819087
3.10962e-05
0.000811724
2.95104e-05
0.000804533
2.79632e-05
0.000797535
2.64568e-05
0.00079075
2.49927e-05
0.000784196
2.35718e-05
0.000777892
2.21944e-05
0.000771857
2.08596e-05
0.000766134
1.95645e-05
0.000760738
1.83022e-05
0.000755661
1.70648e-05
0.000750912
1.58502e-05
0.000746502
1.46561e-05
0.000742439
1.3477e-05
0.000738731
1.23057e-05
0.000735384
1.11349e-05
0.000732401
9.95614e-06
0.000729786
8.76125e-06
0.000727534
7.54267e-06
0.00072564
6.29282e-06
0.000724095
5.00697e-06
0.000722877
3.6796e-06
0.000721959
2.311e-06
0.000721296
9.05886e-07
0.000720955
-5.82725e-07
0.00072092
-2.16026e-06
0.000721136
-3.76029e-06
0.00072158
-5.39876e-06
0.000722215
-7.07081e-06
0.000723006
-8.76452e-06
0.000723925
-1.04685e-05
0.000724946
-1.21722e-05
0.000726047
-1.3863e-05
0.000727203
-1.55264e-05
0.000728391
-1.71479e-05
-1.87126e-05
0.00109232
2.74069e-05
0.00108895
3.05722e-05
0.00108535
3.37593e-05
0.00108159
3.69346e-05
0.00107769
4.00608e-05
0.00107368
4.31035e-05
0.00106955
4.60366e-05
0.00106534
4.88437e-05
0.00106108
5.15145e-05
0.00105681
5.40408e-05
0.00105255
5.64148e-05
0.00104833
5.86279e-05
0.00104419
6.06717e-05
0.00104014
6.25386e-05
0.00103621
6.42224e-05
0.0010324
6.57183e-05
0.00102874
6.70231e-05
0.00102523
6.8135e-05
0.00102188
6.90536e-05
0.00101868
6.9779e-05
0.00101563
7.03125e-05
0.00101269
7.0658e-05
0.00100985
7.08226e-05
0.00100708
7.08158e-05
0.00100435
7.06496e-05
0.00100165
7.03393e-05
0.000998956
6.99027e-05
0.000996258
6.93627e-05
0.000993568
6.87228e-05
0.000990904
6.79908e-05
0.000988277
6.71831e-05
0.000985691
6.63095e-05
0.00098315
6.5378e-05
0.000980661
6.43955e-05
0.000978231
6.33658e-05
0.000975857
6.22901e-05
0.00097352
6.11659e-05
0.000971183
5.99876e-05
0.000968837
5.87578e-05
0.00096648
5.74858e-05
0.000964098
5.61709e-05
0.000961676
5.48094e-05
0.000959199
5.34019e-05
0.000956649
5.19525e-05
0.000954011
5.04644e-05
0.000951279
4.89376e-05
0.000948454
4.73746e-05
0.000945538
4.5781e-05
0.000942538
4.41641e-05
0.00093946
4.25323e-05
0.000936312
4.08937e-05
0.000933105
3.92559e-05
0.000929849
3.76257e-05
0.000926558
3.60084e-05
0.000923246
3.44085e-05
0.000919926
3.28298e-05
0.000916614
3.1275e-05
0.000913325
2.9746e-05
0.000910074
2.82443e-05
0.000906875
2.67701e-05
0.000903746
2.53232e-05
0.000900704
2.39025e-05
0.000897762
2.25059e-05
0.000894932
2.1132e-05
0.00089222
1.97773e-05
0.000889633
1.84371e-05
0.000887183
1.71062e-05
0.000884879
1.57808e-05
0.000882729
1.44562e-05
0.000880736
1.31276e-05
0.000878902
1.179e-05
0.000877226
1.04369e-05
0.000875705
9.06405e-06
0.000874331
7.66646e-06
0.000873098
6.24039e-06
0.000871994
4.78379e-06
0.00087101
3.29497e-06
0.000870138
1.7773e-06
0.00086931
2.45645e-07
0.000868535
-1.38497e-06
0.000867794
-3.01912e-06
0.000867057
-4.66192e-06
0.000866305
-6.31876e-06
0.000865524
-7.98364e-06
0.000864698
-9.64291e-06
0.00086381
-1.12837e-05
0.000862842
-1.28957e-05
0.000861784
-1.44681e-05
0.000860625
-1.59892e-05
-1.74466e-05
0.00117133
3.09789e-05
0.00116721
3.47018e-05
0.00116266
3.83044e-05
0.00115779
4.18023e-05
0.00115265
4.52075e-05
0.00114723
4.85161e-05
0.00114156
5.17126e-05
0.00113562
5.47757e-05
0.00112945
5.76853e-05
0.00112307
6.0426e-05
0.0011165
6.29855e-05
0.00110977
6.53541e-05
0.00110292
6.75229e-05
0.00109598
6.94842e-05
0.00108897
7.12313e-05
0.00108193
7.27593e-05
0.00107488
7.40648e-05
0.00106787
7.51467e-05
0.00106092
7.6006e-05
0.00105405
7.66456e-05
0.00104729
7.70707e-05
0.00104066
7.72883e-05
0.00103418
7.73076e-05
0.00102786
7.71399e-05
0.00102171
7.67982e-05
0.00101575
7.62972e-05
0.00101
7.56516e-05
0.00100449
7.48756e-05
0.000999227
7.39822e-05
0.000994234
7.29848e-05
0.000989518
7.18982e-05
0.000985092
7.07361e-05
0.000980959
6.95103e-05
0.000977125
6.82304e-05
0.000973586
6.69043e-05
0.000970338
6.5538e-05
0.000967368
6.41356e-05
0.000964657
6.26994e-05
0.000962184
6.12306e-05
0.000959938
5.97315e-05
0.000957904
5.82048e-05
0.000956061
5.66528e-05
0.000954385
5.50774e-05
0.000952857
5.34809e-05
0.000951456
5.18654e-05
0.00095016
5.02332e-05
0.000948948
4.85872e-05
0.000947797
4.69314e-05
0.000946691
4.52706e-05
0.000945613
4.36098e-05
0.000944553
4.19539e-05
0.000943502
4.03071e-05
0.000942454
3.86732e-05
0.000941408
3.70552e-05
0.000940361
3.54553e-05
0.000939315
3.38756e-05
0.000938272
3.23175e-05
0.000937237
3.07819e-05
0.000936212
2.92692e-05
0.000935202
2.77793e-05
0.000934214
2.63118e-05
0.000933251
2.48655e-05
0.000932318
2.3439e-05
0.000931419
2.20306e-05
0.000930559
2.06374e-05
0.00092974
1.92561e-05
0.000928964
1.78826e-05
0.000928231
1.65139e-05
0.00092754
1.51469e-05
0.00092689
1.3778e-05
0.000926275
1.24043e-05
0.000925691
1.10214e-05
0.000925129
9.62618e-06
0.000924579
8.21589e-06
0.000924033
6.78711e-06
0.000923477
5.33966e-06
0.000922901
3.87103e-06
0.000922296
2.38231e-06
0.000921664
8.77635e-07
0.00092093
-6.50837e-07
0.000920094
-2.18371e-06
0.000919153
-3.72105e-06
0.000918096
-5.2618e-06
0.00091691
-6.79761e-06
0.000915587
-8.31936e-06
0.000914121
-9.81774e-06
0.000912509
-1.12836e-05
0.000910748
-1.27077e-05
0.00090884
-1.40805e-05
-1.53927e-05
0.00119027
3.2857e-05
0.00118825
3.67208e-05
0.00118603
4.0529e-05
0.00118358
4.42505e-05
0.00118091
4.78712e-05
0.00117805
5.13836e-05
0.00117498
5.47806e-05
0.0011717
5.80523e-05
0.0011682
6.11856e-05
0.00116446
6.4165e-05
0.00116047
6.69748e-05
0.00115623
6.95997e-05
0.00115172
7.20263e-05
0.00114697
7.42429e-05
0.00114196
7.62401e-05
0.00113671
7.80104e-05
0.00113122
7.95484e-05
0.00112552
8.08507e-05
0.00111961
8.1916e-05
0.00111351
8.2745e-05
0.00110724
8.33406e-05
0.00110082
8.37077e-05
0.00109427
8.38531e-05
0.00108763
8.37855e-05
0.00108091
8.35152e-05
0.00107415
8.30536e-05
0.00106739
8.24132e-05
0.00106066
8.16076e-05
0.00105399
8.06535e-05
0.00104741
7.95668e-05
0.00104094
7.83621e-05
0.00103463
7.70528e-05
0.00102849
7.5652e-05
0.00102254
7.4173e-05
0.00101682
7.26259e-05
0.00101134
7.10195e-05
0.00100611
6.93625e-05
0.00100115
6.76617e-05
0.000996459
6.59218e-05
0.000992043
6.41479e-05
0.000987902
6.23459e-05
0.000984033
6.05218e-05
0.000980429
5.86808e-05
0.000977082
5.68278e-05
0.000973981
5.49673e-05
0.00097111
5.31038e-05
0.000968455
5.12418e-05
0.000966001
4.93855e-05
0.000963733
4.75392e-05
0.000961636
4.57067e-05
0.000959698
4.38916e-05
0.000957908
4.20969e-05
0.000956256
4.0325e-05
0.000954734
3.8578e-05
0.000953331
3.68574e-05
0.000952043
3.51644e-05
0.000950861
3.34996e-05
0.000949779
3.18635e-05
0.000948792
3.02559e-05
0.000947895
2.86763e-05
0.000947083
2.71238e-05
0.000946352
2.55972e-05
0.000945696
2.40946e-05
0.000945112
2.26142e-05
0.000944597
2.11533e-05
0.000944143
1.97093e-05
0.000943747
1.82794e-05
0.0009434
1.68606e-05
0.000943096
1.54503e-05
0.000942829
1.40456e-05
0.000942589
1.26438e-05
0.000942368
1.12422e-05
0.000942157
9.83802e-06
0.000941943
8.42932e-06
0.000941716
7.01433e-06
0.000941464
5.59117e-06
0.000941176
4.15966e-06
0.000940841
2.71758e-06
0.000940455
1.26345e-06
0.000940001
-1.97494e-07
0.00093944
-1.62265e-06
0.000938788
-3.0688e-06
0.000938035
-4.50864e-06
0.000937168
-5.93109e-06
0.000936182
-7.33269e-06
0.000935073
-8.70938e-06
0.000933844
-1.00542e-05
0.000932495
-1.13584e-05
0.000931028
-1.26139e-05
-1.38134e-05
0.00106473
3.11821e-05
0.00106665
3.48015e-05
0.00106862
3.85551e-05
0.00107063
4.22391e-05
0.00107269
4.58154e-05
0.00107478
4.92925e-05
0.00107689
5.26699e-05
0.00107899
5.59469e-05
0.00108106
5.91173e-05
0.00108306
6.21681e-05
0.00108495
6.50822e-05
0.00108671
6.78421e-05
0.0010883
7.04315e-05
0.00108971
7.28366e-05
0.0010909
7.50459e-05
0.00109186
7.70501e-05
0.00109257
7.88416e-05
0.00109301
8.04144e-05
0.00109316
8.17642e-05
0.00109302
8.28885e-05
0.00109257
8.37863e-05
0.00109182
8.44588e-05
0.00109076
8.49091e-05
0.00108941
8.5142e-05
0.00108776
8.5164e-05
0.00108583
8.49827e-05
0.00108364
8.4604e-05
0.00108121
8.40358e-05
0.00107856
8.33055e-05
0.0010757
8.24237e-05
0.00107266
8.14003e-05
0.00106947
8.02471e-05
0.00106614
7.89762e-05
0.00106272
7.75991e-05
0.00105922
7.61267e-05
0.00105567
7.45689e-05
0.0010521
7.29352e-05
0.00104852
7.12342e-05
0.00104497
6.94742e-05
0.00104146
6.76629e-05
0.00103799
6.58083e-05
0.0010346
6.3918e-05
0.00103128
6.19995e-05
0.00102805
6.00598e-05
0.00102491
5.81054e-05
0.00102187
5.61423e-05
0.00101894
5.41762e-05
0.00101611
5.22124e-05
0.00101339
5.02559e-05
0.00101079
4.83109e-05
0.0010083
4.63816e-05
0.00100592
4.44716e-05
0.00100366
4.2584e-05
0.00100152
4.07213e-05
0.000999492
3.88856e-05
0.000997578
3.70786e-05
0.000995776
3.53013e-05
0.000994086
3.35544e-05
0.000992503
3.1838e-05
0.000991028
3.01521e-05
0.000989656
2.84959e-05
0.000988384
2.68684e-05
0.000987211
2.52682e-05
0.000986131
2.36938e-05
0.000985141
2.21431e-05
0.000984236
2.06141e-05
0.000983411
1.91046e-05
0.00098266
1.76121e-05
0.000981976
1.61342e-05
0.000981353
1.46689e-05
0.000980783
1.32136e-05
0.000980258
1.17667e-05
0.000979771
1.03258e-05
0.00097931
8.88978e-06
0.000978867
7.45772e-06
0.000978429
6.02847e-06
0.000977985
4.60381e-06
0.000977519
3.18369e-06
0.00097701
1.7727e-06
0.000976434
3.78483e-07
0.000975847
-1.03583e-06
0.000975208
-2.42992e-06
0.000974509
-3.80898e-06
0.000973746
-5.16834e-06
0.000972914
-6.5007e-06
0.000972005
-7.80081e-06
0.000971015
-9.06423e-06
0.000969942
-1.02856e-05
0.000968787
-1.14589e-05
-1.25784e-05
0.000831096
2.64226e-05
0.000836135
2.97617e-05
0.000841537
3.31541e-05
0.000847265
3.65102e-05
0.000853292
3.97888e-05
0.000859598
4.29868e-05
0.000866154
4.61136e-05
0.000872929
4.91714e-05
0.000879894
5.21527e-05
0.000887018
5.50441e-05
0.00089427
5.78298e-05
0.000901618
6.04943e-05
0.000909026
6.30235e-05
0.000916458
6.54049e-05
0.000923876
6.76279e-05
0.000931243
6.96829e-05
0.000938523
7.15615e-05
0.000945681
7.32567e-05
0.000952683
7.47623e-05
0.000959498
7.60737e-05
0.000966097
7.71874e-05
0.000972454
7.81013e-05
0.000978548
7.88155e-05
0.000984358
7.93315e-05
0.00098987
7.96523e-05
0.00099507
7.97826e-05
0.000999945
7.9729e-05
0.00100448
7.95005e-05
0.00100868
7.91075e-05
0.00101254
7.85597e-05
0.00101608
7.78661e-05
0.00101929
7.70356e-05
0.00102219
7.60773e-05
0.00102479
7.50005e-05
0.0010271
7.38147e-05
0.00102914
7.25291e-05
0.00103092
7.11527e-05
0.00103246
6.96943e-05
0.00103377
6.81625e-05
0.00103487
6.65653e-05
0.00103577
6.49108e-05
0.00103648
6.32068e-05
0.00103702
6.14608e-05
0.0010374
5.968e-05
0.00103763
5.78713e-05
0.00103773
5.60412e-05
0.00103771
5.41956e-05
0.00103758
5.23404e-05
0.00103736
5.04808e-05
0.00103705
4.86217e-05
0.00103666
4.67678e-05
0.00103621
4.4923e-05
0.0010357
4.30912e-05
0.00103515
4.12754e-05
0.00103456
3.94783e-05
0.00103393
3.77021e-05
0.00103329
3.59485e-05
0.00103262
3.42188e-05
0.00103195
3.25137e-05
0.00103126
3.08338e-05
0.00103058
2.91789e-05
0.0010299
2.75489e-05
0.00102923
2.59432e-05
0.00102856
2.43607e-05
0.0010279
2.28005e-05
0.00102725
2.12611e-05
0.00102662
1.97413e-05
0.00102599
1.82394e-05
0.00102537
1.67539e-05
0.00102476
1.52833e-05
0.00102414
1.38263e-05
0.00102353
1.23817e-05
0.00102291
1.09485e-05
0.00102227
9.52602e-06
0.00102161
8.11404e-06
0.00102093
6.71247e-06
0.00102021
5.32243e-06
0.00101945
3.94468e-06
0.00101864
2.58181e-06
0.00101778
1.2377e-06
0.00101683
-8.05079e-08
0.00101583
-1.43818e-06
0.00101477
-2.74868e-06
0.00101364
-4.0299e-06
0.00101242
-5.28153e-06
0.00101111
-6.49869e-06
0.00100973
-7.67536e-06
0.00100825
-8.80654e-06
0.00100668
-9.88863e-06
-1.09181e-05
0.000558229
2.02721e-05
0.000564768
2.32228e-05
0.000571744
2.61774e-05
0.0005792
2.9055e-05
0.000587106
3.18822e-05
0.000595435
3.46577e-05
0.000604168
3.73813e-05
0.000613293
4.00462e-05
0.000622802
4.26439e-05
0.000632681
4.51652e-05
0.00064291
4.76008e-05
0.000653463
4.99412e-05
0.000664309
5.2177e-05
0.000675415
5.42988e-05
0.000686745
5.6298e-05
0.000698261
5.81666e-05
0.000709926
5.98974e-05
0.000721698
6.14842e-05
0.000733539
6.29215e-05
0.000745408
6.42047e-05
0.000757265
6.53303e-05
0.00076907
6.62957e-05
0.000780786
6.70999e-05
0.000792375
6.77429e-05
0.000803801
6.82258e-05
0.000815032
6.85512e-05
0.000826038
6.87235e-05
0.000836791
6.87475e-05
0.00084727
6.86284e-05
0.000857458
6.83721e-05
0.000867338
6.79851e-05
0.0008769
6.74741e-05
0.000886131
6.68458e-05
0.000895025
6.61072e-05
0.000903574
6.52654e-05
0.000911775
6.43276e-05
0.000919627
6.33012e-05
0.000927128
6.21934e-05
0.000934279
6.10112e-05
0.000941083
5.97615e-05
0.000947543
5.84511e-05
0.000953663
5.70865e-05
0.00095945
5.56742e-05
0.000964909
5.42204e-05
0.00097005
5.2731e-05
0.000974879
5.12118e-05
0.000979406
4.96684e-05
0.000983641
4.81059e-05
0.000987592
4.65292e-05
0.000991271
4.49429e-05
0.000994688
4.33512e-05
0.000997853
4.1758e-05
0.00100078
4.01668e-05
0.00100347
3.85809e-05
0.00100595
3.70028e-05
0.00100821
3.54351e-05
0.00101028
3.38796e-05
0.00101216
3.23381e-05
0.00101387
3.08118e-05
0.0010154
2.93014e-05
0.00101677
2.78079e-05
0.00101799
2.63313e-05
0.00101906
2.48719e-05
0.00101999
2.34294e-05
0.00102079
2.20034e-05
0.00102145
2.05937e-05
0.001022
1.91992e-05
0.00102242
1.78196e-05
0.00102272
1.6454e-05
0.0010229
1.51017e-05
0.00102296
1.37624e-05
0.00102291
1.2435e-05
0.00102274
1.112e-05
0.00102245
9.81659e-06
0.00102203
8.52515e-06
0.0010215
7.2465e-06
0.00102084
5.98039e-06
0.00102006
4.72964e-06
0.00101914
3.49462e-06
0.0010181
2.27907e-06
0.00101694
1.08784e-06
0.00101557
-7.74722e-08
0.0010141
-1.27231e-06
0.00101248
-2.41325e-06
0.00101072
-3.51931e-06
0.00100881
-4.59231e-06
0.00100676
-5.62696e-06
0.00100458
-6.61736e-06
0.00100225
-7.56072e-06
-8.4547e-06
0.000279695
1.41484e-05
0.000286142
1.67756e-05
0.000293225
1.90945e-05
0.000300842
2.14381e-05
0.000309
2.37248e-05
0.000317691
2.59658e-05
0.00032692
2.81522e-05
0.000336687
3.02793e-05
0.00034699
3.23414e-05
0.00035782
3.43354e-05
0.000369164
3.62568e-05
0.000381004
3.81011e-05
0.000393318
3.98629e-05
0.00040608
4.1537e-05
0.00041926
4.31181e-05
0.000432825
4.46014e-05
0.00044674
4.59826e-05
0.000460966
4.72577e-05
0.000475465
4.84231e-05
0.000490193
4.94762e-05
0.000505109
5.04146e-05
0.000520169
5.12356e-05
0.000535328
5.19406e-05
0.000550543
5.25279e-05
0.000565772
5.29966e-05
0.000580974
5.33496e-05
0.000596108
5.35893e-05
0.000611137
5.37183e-05
0.000626026
5.37396e-05
0.000640741
5.36569e-05
0.000655252
5.34745e-05
0.000669529
5.31969e-05
0.000683546
5.2829e-05
0.000697278
5.23753e-05
0.000710703
5.18403e-05
0.000723802
5.1229e-05
0.000736557
5.05461e-05
0.000748955
4.97959e-05
0.000760982
4.89836e-05
0.000772629
4.81143e-05
0.000783887
4.71929e-05
0.00079475
4.62242e-05
0.000805211
4.52128e-05
0.000815269
4.41631e-05
0.00082492
4.30795e-05
0.000834165
4.19664e-05
0.000843006
4.08277e-05
0.000851444
3.96675e-05
0.000859484
3.84893e-05
0.00086713
3.72967e-05
0.000874389
3.60929e-05
0.000881266
3.4881e-05
0.000887769
3.36637e-05
0.000893906
3.24435e-05
0.000899686
3.12229e-05
0.000905117
3.00039e-05
0.000910209
2.87884e-05
0.000914969
2.75778e-05
0.000919407
2.63735e-05
0.000923532
2.51766e-05
0.000927352
2.39879e-05
0.000930875
2.2808e-05
0.00093411
2.16375e-05
0.000937063
2.04766e-05
0.000939741
1.93253e-05
0.00094215
1.81839e-05
0.000944297
1.70522e-05
0.000946187
1.59302e-05
0.000947823
1.48178e-05
0.00094921
1.37147e-05
0.000950351
1.26213e-05
0.000951249
1.15373e-05
0.000951906
1.0463e-05
0.000952323
9.39881e-06
0.000952504
8.34479e-06
0.000952448
7.30236e-06
0.000952157
6.27163e-06
0.000951632
5.25414e-06
0.000950875
4.25147e-06
0.00094989
3.26405e-06
0.000948683
2.29511e-06
0.00094726
1.34604e-06
0.00094557
4.17227e-07
0.000943659
-5.02584e-07
0.000941533
-1.39242e-06
0.000939185
-2.24434e-06
0.000936619
-3.06184e-06
0.000933847
-3.84484e-06
0.000930877
-4.59087e-06
-5.29545e-06
-4.05796e-06
9.5128e-06
1.74763e-06
1.097e-05
8.05364e-06
1.27885e-05
1.51825e-05
1.43092e-05
2.29439e-05
1.59634e-05
3.14206e-05
1.74892e-05
4.05592e-05
1.90136e-05
5.03856e-05
2.0453e-05
6.08785e-05
2.18484e-05
7.20378e-05
2.31762e-05
8.38462e-05
2.44484e-05
9.62886e-05
2.56587e-05
0.000109343
2.68086e-05
0.000122984
2.78962e-05
0.000137183
2.89192e-05
0.000151908
2.98765e-05
0.000167124
3.07659e-05
0.000182796
3.15865e-05
0.000198882
3.23367e-05
0.000215342
3.30159e-05
0.000232133
3.36237e-05
0.00024921
3.41588e-05
0.000266527
3.46239e-05
0.000284039
3.50158e-05
0.000301701
3.53345e-05
0.000319467
3.55831e-05
0.000337294
3.57629e-05
0.000355136
3.5876e-05
0.000372951
3.59247e-05
0.000390697
3.59114e-05
0.000408332
3.5839e-05
0.000425818
3.57111e-05
0.000443118
3.55289e-05
0.0004602
3.52927e-05
0.000477033
3.50078e-05
0.000493584
3.46781e-05
0.000509826
3.4304e-05
0.000525735
3.38865e-05
0.00054129
3.34288e-05
0.00055647
3.29342e-05
0.000571258
3.24053e-05
0.000585637
3.18449e-05
0.000599594
3.12555e-05
0.000613118
3.06395e-05
0.000626198
2.99994e-05
0.000638827
2.93374e-05
0.000650999
2.86557e-05
0.00066271
2.79565e-05
0.000673957
2.72418e-05
0.000684741
2.65135e-05
0.00069506
2.57735e-05
0.000704918
2.50233e-05
0.000714317
2.42644e-05
0.000723262
2.34986e-05
0.000731757
2.27275e-05
0.000739809
2.19527e-05
0.000747422
2.11754e-05
0.000754603
2.03966e-05
0.000761359
1.96175e-05
0.000767697
1.88387e-05
0.000773623
1.80612e-05
0.000779146
1.72855e-05
0.000784271
1.65121e-05
0.000789006
1.57415e-05
0.000793358
1.4974e-05
0.000797332
1.42099e-05
0.000800935
1.34494e-05
0.000804172
1.26928e-05
0.000807049
1.19404e-05
0.000809572
1.11921e-05
0.000811745
1.04485e-05
0.000813572
9.71003e-06
0.000815058
8.9766e-06
0.000816208
8.24929e-06
0.000817024
7.52831e-06
0.000817512
6.81422e-06
0.000817676
6.10852e-06
0.000817519
5.41102e-06
0.000817047
4.72353e-06
0.000816264
4.04699e-06
0.000815177
3.38142e-06
0.000813794
2.72953e-06
0.000812121
2.09038e-06
0.000810155
1.46304e-06
0.000807912
8.5099e-07
0.00080541
2.57821e-07
0.000802646
-2.98068e-07
0.000799631
-8.30147e-07
0.000796381
-1.34085e-06
-1.82528e-06
-0.000286484
5.96593e-06
-0.000282081
6.56717e-06
-0.000276814
7.522e-06
-0.000270672
8.16713e-06
-0.000263683
8.97382e-06
-0.000255818
9.62462e-06
-0.000247116
1.03109e-05
-0.000237576
1.09133e-05
-0.00022723
1.15029e-05
-0.000216091
1.20364e-05
-0.000204182
1.25401e-05
-0.000191523
1.29997e-05
-0.00017814
1.34249e-05
-0.000164061
1.38174e-05
-0.000149319
1.41773e-05
-0.000133947
1.45046e-05
-0.000117981
1.47999e-05
-0.000101459
1.50646e-05
-8.44221e-05
1.52994e-05
-6.6912e-05
1.55057e-05
-4.89731e-05
1.56849e-05
-3.06527e-05
1.58384e-05
-1.19963e-05
1.59675e-05
6.94709e-06
1.60725e-05
2.61281e-05
1.61535e-05
4.54983e-05
1.62129e-05
6.501e-05
1.62511e-05
8.4616e-05
1.627e-05
0.00010427
1.62706e-05
0.000123927
1.62544e-05
0.000143542
1.62242e-05
0.000163063
1.61904e-05
0.000182441
1.615e-05
0.000201649
1.6085e-05
0.000220649
1.60081e-05
0.000239411
1.5916e-05
0.000257903
1.58123e-05
0.000276092
1.56978e-05
0.000293947
1.5573e-05
0.000311443
1.54382e-05
0.000328555
1.52937e-05
0.000345261
1.51393e-05
0.000361541
1.49752e-05
0.000377379
1.48012e-05
0.000392761
1.46176e-05
0.000407674
1.44244e-05
0.000422108
1.42215e-05
0.000436055
1.40093e-05
0.000449509
1.37878e-05
0.000462466
1.35572e-05
0.000474921
1.33178e-05
0.000486875
1.30696e-05
0.000498328
1.28119e-05
0.000509281
1.25455e-05
0.000519737
1.22714e-05
0.0005297
1.199e-05
0.000539173
1.17017e-05
0.000548163
1.1407e-05
0.000556674
1.11063e-05
0.000564713
1.07999e-05
0.000572286
1.04881e-05
0.0005794
1.01713e-05
0.000586062
9.84988e-06