/*--------------------------------*- C++ -*----------------------------------*\
| =========                 |                                                 |
| \\      /  F ield         | OpenFOAM: The Open Source CFD Toolbox           |
|  \\    /   O peration     | Version:  2312                                  |
|   \\  /    A nd           | Website:  www.openfoam.com                      |
|    \\/     M anipulation  |                                                 |
\*---------------------------------------------------------------------------*/
FoamFile
{
    version     2.0;
    format      ascii;
    arch        "LSB;label=32;scalar=64";
    class       volScalarField;
    location    "2000";
    object      p;
}
// * * * * * * * * * * * * * * * * * * * * * * * * * * * * * * * * * * * * * //

dimensions      [0 2 -2 0 0 0 0];

internalField   nonuniform List<scalar> 
10800
(
6.32157e-07
6.18532e-07
6.0428e-07
5.91531e-07
5.84754e-07
5.82436e-07
5.78661e-07
5.72155e-07
5.66458e-07
5.62972e-07
5.60282e-07
5.57463e-07
5.54709e-07
5.52275e-07
5.50111e-07
5.48107e-07
5.46218e-07
5.44433e-07
5.42735e-07
5.41109e-07
5.39542e-07
5.38023e-07
5.36545e-07
5.35102e-07
5.33687e-07
5.32296e-07
5.30924e-07
5.2957e-07
5.28229e-07
5.26898e-07
5.25576e-07
5.24261e-07
5.22949e-07
5.21641e-07
5.20333e-07
5.19024e-07
5.17714e-07
5.16401e-07
5.15084e-07
5.13763e-07
5.12438e-07
5.11109e-07
5.09776e-07
5.0844e-07
5.07107e-07
5.05769e-07
5.04457e-07
5.03121e-07
5.01882e-07
5.00537e-07
4.9948e-07
4.98116e-07
4.97369e-07
4.96142e-07
4.95639e-07
4.95109e-07
4.94568e-07
4.94718e-07
4.95752e-07
4.92811e-07
5.84579e-07
5.83626e-07
5.80989e-07
5.75063e-07
5.71381e-07
5.7179e-07
5.70687e-07
5.65948e-07
5.61341e-07
5.58887e-07
5.57206e-07
5.55136e-07
5.52882e-07
5.50835e-07
5.48995e-07
5.47246e-07
5.4555e-07
5.43911e-07
5.42327e-07
5.40789e-07
5.3929e-07
5.37824e-07
5.36387e-07
5.34976e-07
5.33588e-07
5.32218e-07
5.30865e-07
5.29526e-07
5.28199e-07
5.2688e-07
5.25569e-07
5.24262e-07
5.22959e-07
5.21658e-07
5.20356e-07
5.19052e-07
5.17745e-07
5.16433e-07
5.15116e-07
5.13792e-07
5.12459e-07
5.11118e-07
5.09767e-07
5.08405e-07
5.07033e-07
5.05649e-07
5.04254e-07
5.02846e-07
5.01429e-07
4.9999e-07
4.98557e-07
4.97065e-07
4.95626e-07
4.94023e-07
4.9252e-07
4.90755e-07
4.89231e-07
4.86751e-07
4.84994e-07
4.81559e-07
5.76484e-07
5.76581e-07
5.75292e-07
5.70508e-07
5.67719e-07
5.689e-07
5.6846e-07
5.64292e-07
5.60168e-07
5.58087e-07
5.56648e-07
5.54714e-07
5.52532e-07
5.50522e-07
5.48701e-07
5.4696e-07
5.45268e-07
5.43633e-07
5.42057e-07
5.40531e-07
5.39047e-07
5.37599e-07
5.36184e-07
5.34796e-07
5.33432e-07
5.32086e-07
5.30758e-07
5.29442e-07
5.28138e-07
5.26841e-07
5.25551e-07
5.24264e-07
5.2298e-07
5.21696e-07
5.2041e-07
5.19121e-07
5.17826e-07
5.16525e-07
5.15214e-07
5.13894e-07
5.1256e-07
5.11213e-07
5.09849e-07
5.08466e-07
5.07062e-07
5.05634e-07
5.0418e-07
5.02691e-07
5.01172e-07
4.99603e-07
4.97992e-07
4.96318e-07
4.94555e-07
4.92745e-07
4.90731e-07
4.88645e-07
4.86285e-07
4.83459e-07
4.80561e-07
4.76519e-07
5.65399e-07
5.65838e-07
5.65248e-07
5.61413e-07
5.59631e-07
5.61721e-07
5.62127e-07
5.58785e-07
5.55431e-07
5.54021e-07
5.53165e-07
5.51747e-07
5.50015e-07
5.48391e-07
5.46897e-07
5.45432e-07
5.43973e-07
5.42535e-07
5.41125e-07
5.39739e-07
5.38374e-07
5.37029e-07
5.35701e-07
5.34389e-07
5.33091e-07
5.31806e-07
5.3053e-07
5.29264e-07
5.28003e-07
5.26748e-07
5.25496e-07
5.24246e-07
5.22995e-07
5.21743e-07
5.20486e-07
5.19224e-07
5.17955e-07
5.16677e-07
5.15387e-07
5.14083e-07
5.12763e-07
5.11425e-07
5.10065e-07
5.08679e-07
5.07265e-07
5.05817e-07
5.04332e-07
5.02799e-07
5.01218e-07
4.99571e-07
4.97858e-07
4.96055e-07
4.9415e-07
4.92135e-07
4.8993e-07
4.87611e-07
4.84977e-07
4.82118e-07
4.7895e-07
4.75225e-07
5.59337e-07
5.60002e-07
5.59782e-07
5.56391e-07
5.55072e-07
5.57594e-07
5.58401e-07
5.55449e-07
5.52462e-07
5.51377e-07
5.50804e-07
5.49638e-07
5.48133e-07
5.4671e-07
5.45394e-07
5.44091e-07
5.42777e-07
5.41472e-07
5.40182e-07
5.38906e-07
5.37641e-07
5.36387e-07
5.35143e-07
5.33909e-07
5.32683e-07
5.31464e-07
5.30251e-07
5.29043e-07
5.27838e-07
5.26635e-07
5.25432e-07
5.24229e-07
5.23024e-07
5.21815e-07
5.20601e-07
5.1938e-07
5.1815e-07
5.16909e-07
5.15656e-07
5.14387e-07
5.13101e-07
5.11793e-07
5.10462e-07
5.09102e-07
5.0771e-07
5.06281e-07
5.0481e-07
5.03287e-07
5.01711e-07
5.00062e-07
4.98344e-07
4.96532e-07
4.94617e-07
4.92601e-07
4.90411e-07
4.88135e-07
4.85594e-07
4.82882e-07
4.79965e-07
4.76589e-07
5.54385e-07
5.5511e-07
5.55015e-07
5.51814e-07
5.50739e-07
5.53525e-07
5.54609e-07
5.51949e-07
5.4926e-07
5.48462e-07
5.48159e-07
5.47249e-07
5.45984e-07
5.44784e-07
5.43671e-07
5.42552e-07
5.41406e-07
5.40253e-07
5.39101e-07
5.3795e-07
5.368e-07
5.35651e-07
5.34505e-07
5.3336e-07
5.32217e-07
5.31075e-07
5.29935e-07
5.28795e-07
5.27655e-07
5.26515e-07
5.25372e-07
5.24227e-07
5.23078e-07
5.21924e-07
5.20764e-07
5.19596e-07
5.1842e-07
5.17232e-07
5.16032e-07
5.14817e-07
5.13584e-07
5.12331e-07
5.11054e-07
5.09751e-07
5.08417e-07
5.07047e-07
5.05637e-07
5.04179e-07
5.02671e-07
5.01097e-07
4.99462e-07
4.9774e-07
4.95933e-07
4.94037e-07
4.91993e-07
4.89892e-07
4.87555e-07
4.85122e-07
4.82532e-07
4.79592e-07
5.50532e-07
5.513e-07
5.5129e-07
5.48214e-07
5.47299e-07
5.5026e-07
5.5153e-07
5.49068e-07
5.46581e-07
5.45982e-07
5.4587e-07
5.45144e-07
5.44057e-07
5.43025e-07
5.4207e-07
5.411e-07
5.40093e-07
5.39071e-07
5.38041e-07
5.37004e-07
5.3596e-07
5.34911e-07
5.33858e-07
5.32802e-07
5.31743e-07
5.30681e-07
5.29616e-07
5.28549e-07
5.27479e-07
5.26406e-07
5.2533e-07
5.2425e-07
5.23165e-07
5.22076e-07
5.2098e-07
5.19877e-07
5.18766e-07
5.17645e-07
5.16514e-07
5.15369e-07
5.1421e-07
5.13034e-07
5.11838e-07
5.1062e-07
5.09376e-07
5.08103e-07
5.06798e-07
5.05452e-07
5.04067e-07
5.02627e-07
5.01141e-07
4.99583e-07
4.97961e-07
4.96269e-07
4.94457e-07
4.92615e-07
4.9058e-07
4.88499e-07
4.86318e-07
4.83896e-07
5.47479e-07
5.48271e-07
5.48311e-07
5.45309e-07
5.4449e-07
5.47562e-07
5.48954e-07
5.46625e-07
5.4428e-07
5.43824e-07
5.43854e-07
5.43269e-07
5.42321e-07
5.41423e-07
5.40599e-07
5.39754e-07
5.38867e-07
5.37958e-07
5.37036e-07
5.36102e-07
5.35157e-07
5.34201e-07
5.33237e-07
5.32266e-07
5.31288e-07
5.30304e-07
5.29315e-07
5.28321e-07
5.27323e-07
5.2632e-07
5.25314e-07
5.24304e-07
5.2329e-07
5.2227e-07
5.21246e-07
5.20216e-07
5.1918e-07
5.18137e-07
5.17086e-07
5.16026e-07
5.14957e-07
5.13875e-07
5.12781e-07
5.11671e-07
5.10544e-07
5.09396e-07
5.08228e-07
5.07031e-07
5.05809e-07
5.04548e-07
5.03258e-07
5.01917e-07
5.00535e-07
4.99107e-07
4.97592e-07
4.96074e-07
4.94409e-07
4.9274e-07
4.91027e-07
4.89152e-07
5.45038e-07
5.45846e-07
5.45918e-07
5.42963e-07
5.42207e-07
5.45353e-07
5.46828e-07
5.44593e-07
5.42348e-07
5.41996e-07
5.42132e-07
5.41654e-07
5.40813e-07
5.40022e-07
5.39302e-07
5.38558e-07
5.37771e-07
5.36958e-07
5.36129e-07
5.35284e-07
5.34425e-07
5.33553e-07
5.3267e-07
5.31777e-07
5.30875e-07
5.29965e-07
5.29049e-07
5.28127e-07
5.272e-07
5.26269e-07
5.25332e-07
5.24391e-07
5.23447e-07
5.22501e-07
5.21551e-07
5.20598e-07
5.19642e-07
5.18683e-07
5.17721e-07
5.16755e-07
5.15785e-07
5.1481e-07
5.1383e-07
5.12843e-07
5.1185e-07
5.10848e-07
5.09837e-07
5.08813e-07
5.0778e-07
5.06727e-07
5.05665e-07
5.04576e-07
5.0347e-07
5.02346e-07
5.0117e-07
5.00017e-07
4.98767e-07
4.97546e-07
4.96329e-07
4.9502e-07
5.43092e-07
5.43911e-07
5.44004e-07
5.41081e-07
5.40368e-07
5.43565e-07
5.45098e-07
5.42929e-07
5.40757e-07
5.40481e-07
5.40695e-07
5.40297e-07
5.39539e-07
5.38831e-07
5.38194e-07
5.37531e-07
5.36824e-07
5.3609e-07
5.35339e-07
5.3457e-07
5.33786e-07
5.32986e-07
5.32174e-07
5.3135e-07
5.30516e-07
5.29674e-07
5.28825e-07
5.27969e-07
5.27108e-07
5.26242e-07
5.25373e-07
5.24501e-07
5.23627e-07
5.22752e-07
5.21876e-07
5.21001e-07
5.20126e-07
5.19253e-07
5.18381e-07
5.17511e-07
5.16644e-07
5.1578e-07
5.1492e-07
5.14063e-07
5.13211e-07
5.12362e-07
5.11519e-07
5.10679e-07
5.09847e-07
5.09015e-07
5.08195e-07
5.07373e-07
5.06562e-07
5.05759e-07
5.04943e-07
5.04176e-07
5.03363e-07
5.02612e-07
5.01907e-07
5.01175e-07
5.41562e-07
5.42388e-07
5.42495e-07
5.39595e-07
5.38912e-07
5.42145e-07
5.43719e-07
5.41597e-07
5.39478e-07
5.39257e-07
5.39529e-07
5.39192e-07
5.38496e-07
5.37852e-07
5.37278e-07
5.3668e-07
5.36037e-07
5.35367e-07
5.34678e-07
5.33972e-07
5.33249e-07
5.3251e-07
5.31758e-07
5.30994e-07
5.30219e-07
5.29436e-07
5.28645e-07
5.27848e-07
5.27046e-07
5.2624e-07
5.25432e-07
5.24623e-07
5.23814e-07
5.23006e-07
5.222e-07
5.21398e-07
5.206e-07
5.19808e-07
5.19023e-07
5.18247e-07
5.1748e-07
5.16723e-07
5.1598e-07
5.1525e-07
5.14535e-07
5.13837e-07
5.13159e-07
5.125e-07
5.11865e-07
5.11253e-07
5.10672e-07
5.10115e-07
5.09594e-07
5.09112e-07
5.08653e-07
5.08269e-07
5.07892e-07
5.07606e-07
5.07407e-07
5.07244e-07
5.40392e-07
5.41223e-07
5.41341e-07
5.38456e-07
5.37794e-07
5.41052e-07
5.42655e-07
5.40566e-07
5.38485e-07
5.38304e-07
5.38618e-07
5.38326e-07
5.37676e-07
5.37079e-07
5.36554e-07
5.36005e-07
5.35411e-07
5.3479e-07
5.34151e-07
5.33495e-07
5.3282e-07
5.32131e-07
5.31427e-07
5.30712e-07
5.29986e-07
5.29251e-07
5.2851e-07
5.27762e-07
5.27011e-07
5.26256e-07
5.25501e-07
5.24746e-07
5.23992e-07
5.23243e-07
5.22498e-07
5.2176e-07
5.21031e-07
5.20312e-07
5.19604e-07
5.18911e-07
5.18234e-07
5.17575e-07
5.16936e-07
5.16321e-07
5.15732e-07
5.15171e-07
5.14642e-07
5.14148e-07
5.13695e-07
5.13282e-07
5.1292e-07
5.12606e-07
5.12353e-07
5.12164e-07
5.12036e-07
5.12005e-07
5.12033e-07
5.1218e-07
5.1245e-07
5.12814e-07
5.39544e-07
5.40379e-07
5.40504e-07
5.3763e-07
5.36982e-07
5.40257e-07
5.4188e-07
5.39814e-07
5.37758e-07
5.37606e-07
5.37949e-07
5.37688e-07
5.37071e-07
5.36508e-07
5.36018e-07
5.35504e-07
5.34946e-07
5.34361e-07
5.33759e-07
5.33139e-07
5.32501e-07
5.31848e-07
5.31182e-07
5.30503e-07
5.29815e-07
5.29118e-07
5.28414e-07
5.27705e-07
5.26993e-07
5.26279e-07
5.25566e-07
5.24854e-07
5.24145e-07
5.23442e-07
5.22747e-07
5.22061e-07
5.21387e-07
5.20727e-07
5.20083e-07
5.19458e-07
5.18854e-07
5.18275e-07
5.17723e-07
5.17202e-07
5.16716e-07
5.16268e-07
5.15864e-07
5.15506e-07
5.15203e-07
5.14956e-07
5.14776e-07
5.14665e-07
5.14635e-07
5.14692e-07
5.14841e-07
5.15107e-07
5.15477e-07
5.15989e-07
5.16656e-07
5.17466e-07
5.38993e-07
5.3983e-07
5.39959e-07
5.37091e-07
5.36452e-07
5.39738e-07
5.41373e-07
5.39322e-07
5.37283e-07
5.37148e-07
5.3751e-07
5.37269e-07
5.36673e-07
5.36132e-07
5.35664e-07
5.35173e-07
5.34638e-07
5.34077e-07
5.33499e-07
5.32903e-07
5.3229e-07
5.31662e-07
5.3102e-07
5.30367e-07
5.29704e-07
5.29032e-07
5.28355e-07
5.27672e-07
5.26987e-07
5.26301e-07
5.25617e-07
5.24935e-07
5.24258e-07
5.23588e-07
5.22927e-07
5.22278e-07
5.21643e-07
5.21024e-07
5.20425e-07
5.19848e-07
5.19296e-07
5.18774e-07
5.18284e-07
5.1783e-07
5.17417e-07
5.17051e-07
5.16735e-07
5.16475e-07
5.16278e-07
5.16151e-07
5.16102e-07
5.16136e-07
5.16267e-07
5.16502e-07
5.16851e-07
5.17332e-07
5.1795e-07
5.18728e-07
5.19684e-07
5.2082e-07
5.38722e-07
5.39561e-07
5.39691e-07
5.36827e-07
5.36192e-07
5.39483e-07
5.41124e-07
5.3908e-07
5.37049e-07
5.36923e-07
5.37294e-07
5.37062e-07
5.36476e-07
5.35946e-07
5.35489e-07
5.35009e-07
5.34486e-07
5.33937e-07
5.33371e-07
5.32787e-07
5.32186e-07
5.31571e-07
5.30941e-07
5.30301e-07
5.2965e-07
5.28992e-07
5.28327e-07
5.27659e-07
5.26988e-07
5.26316e-07
5.25646e-07
5.24979e-07
5.24318e-07
5.23665e-07
5.23023e-07
5.22392e-07
5.21778e-07
5.21181e-07
5.20605e-07
5.20053e-07
5.19528e-07
5.19035e-07
5.18577e-07
5.18159e-07
5.17785e-07
5.1746e-07
5.1719e-07
5.16982e-07
5.16841e-07
5.16776e-07
5.16795e-07
5.16907e-07
5.17122e-07
5.1745e-07
5.17905e-07
5.18499e-07
5.19248e-07
5.20167e-07
5.21278e-07
5.22589e-07
5.38724e-07
5.39562e-07
5.39693e-07
5.36829e-07
5.36194e-07
5.39485e-07
5.41126e-07
5.39082e-07
5.37051e-07
5.36925e-07
5.37296e-07
5.37064e-07
5.36478e-07
5.35948e-07
5.35491e-07
5.35012e-07
5.34489e-07
5.3394e-07
5.33373e-07
5.3279e-07
5.32189e-07
5.31573e-07
5.30944e-07
5.30303e-07
5.29653e-07
5.28995e-07
5.2833e-07
5.27662e-07
5.26991e-07
5.26319e-07
5.25649e-07
5.24983e-07
5.24322e-07
5.23669e-07
5.23027e-07
5.22397e-07
5.21782e-07
5.21185e-07
5.20609e-07
5.20058e-07
5.19534e-07
5.19041e-07
5.18583e-07
5.18165e-07
5.17791e-07
5.17466e-07
5.17197e-07
5.16989e-07
5.16849e-07
5.16784e-07
5.16804e-07
5.16916e-07
5.17131e-07
5.1746e-07
5.17915e-07
5.18511e-07
5.19261e-07
5.20182e-07
5.21297e-07
5.22614e-07
5.38999e-07
5.39836e-07
5.39964e-07
5.37097e-07
5.36458e-07
5.39744e-07
5.41379e-07
5.39328e-07
5.37289e-07
5.37154e-07
5.37516e-07
5.37275e-07
5.36679e-07
5.36138e-07
5.3567e-07
5.35179e-07
5.34645e-07
5.34084e-07
5.33506e-07
5.3291e-07
5.32298e-07
5.31669e-07
5.31028e-07
5.30375e-07
5.29712e-07
5.29041e-07
5.28363e-07
5.27681e-07
5.26997e-07
5.26311e-07
5.25627e-07
5.24945e-07
5.24269e-07
5.23599e-07
5.22939e-07
5.2229e-07
5.21656e-07
5.21038e-07
5.20439e-07
5.19863e-07
5.19312e-07
5.1879e-07
5.18301e-07
5.17848e-07
5.17436e-07
5.1707e-07
5.16755e-07
5.16497e-07
5.16301e-07
5.16175e-07
5.16127e-07
5.16163e-07
5.16295e-07
5.16532e-07
5.16883e-07
5.17367e-07
5.17989e-07
5.18773e-07
5.19741e-07
5.20895e-07
5.39553e-07
5.40388e-07
5.40513e-07
5.37639e-07
5.36991e-07
5.40266e-07
5.41889e-07
5.39823e-07
5.37768e-07
5.37616e-07
5.37959e-07
5.37698e-07
5.37081e-07
5.36518e-07
5.36028e-07
5.35514e-07
5.34957e-07
5.34372e-07
5.3377e-07
5.3315e-07
5.32513e-07
5.31861e-07
5.31195e-07
5.30517e-07
5.29829e-07
5.29132e-07
5.28429e-07
5.27721e-07
5.27009e-07
5.26296e-07
5.25582e-07
5.24871e-07
5.24163e-07
5.23461e-07
5.22767e-07
5.22082e-07
5.21409e-07
5.20749e-07
5.20106e-07
5.19482e-07
5.1888e-07
5.18302e-07
5.17751e-07
5.17232e-07
5.16747e-07
5.16301e-07
5.15898e-07
5.15542e-07
5.1524e-07
5.14995e-07
5.14818e-07
5.14709e-07
5.14681e-07
5.14742e-07
5.14894e-07
5.15164e-07
5.1554e-07
5.16062e-07
5.16747e-07
5.17586e-07
5.40404e-07
5.41236e-07
5.41353e-07
5.38469e-07
5.37807e-07
5.41065e-07
5.42668e-07
5.4058e-07
5.38498e-07
5.38318e-07
5.38632e-07
5.38339e-07
5.3769e-07
5.37094e-07
5.36569e-07
5.3602e-07
5.35426e-07
5.34806e-07
5.34167e-07
5.33511e-07
5.32837e-07
5.32148e-07
5.31445e-07
5.3073e-07
5.30005e-07
5.29271e-07
5.2853e-07
5.27783e-07
5.27032e-07
5.26279e-07
5.25524e-07
5.2477e-07
5.24018e-07
5.23269e-07
5.22525e-07
5.21789e-07
5.2106e-07
5.20342e-07
5.19636e-07
5.18945e-07
5.18269e-07
5.17611e-07
5.16975e-07
5.16361e-07
5.15774e-07
5.15215e-07
5.14689e-07
5.14197e-07
5.13746e-07
5.13336e-07
5.12976e-07
5.12666e-07
5.12416e-07
5.12231e-07
5.12107e-07
5.12082e-07
5.12118e-07
5.12277e-07
5.12571e-07
5.12974e-07
5.41578e-07
5.42404e-07
5.42511e-07
5.39611e-07
5.38928e-07
5.42161e-07
5.43736e-07
5.41613e-07
5.39494e-07
5.39274e-07
5.39546e-07
5.39209e-07
5.38514e-07
5.3787e-07
5.37297e-07
5.36699e-07
5.36056e-07
5.35387e-07
5.34699e-07
5.33993e-07
5.3327e-07
5.32532e-07
5.31781e-07
5.31017e-07
5.30244e-07
5.29461e-07
5.28671e-07
5.27875e-07
5.27073e-07
5.26269e-07
5.25462e-07
5.24654e-07
5.23846e-07
5.23039e-07
5.22234e-07
5.21433e-07
5.20637e-07
5.19847e-07
5.19064e-07
5.18289e-07
5.17524e-07
5.16769e-07
5.16028e-07
5.153e-07
5.14588e-07
5.13892e-07
5.13216e-07
5.1256e-07
5.11929e-07
5.11319e-07
5.10742e-07
5.10189e-07
5.09672e-07
5.09194e-07
5.0874e-07
5.08363e-07
5.07996e-07
5.07725e-07
5.07554e-07
5.07436e-07
5.43111e-07
5.4393e-07
5.44023e-07
5.41101e-07
5.40388e-07
5.43585e-07
5.45118e-07
5.42949e-07
5.40777e-07
5.40502e-07
5.40716e-07
5.40318e-07
5.3956e-07
5.38853e-07
5.38216e-07
5.37554e-07
5.36847e-07
5.36114e-07
5.35363e-07
5.34596e-07
5.33811e-07
5.33012e-07
5.32201e-07
5.31378e-07
5.30545e-07
5.29704e-07
5.28855e-07
5.28e-07
5.2714e-07
5.26276e-07
5.25408e-07
5.24537e-07
5.23665e-07
5.22791e-07
5.21917e-07
5.21043e-07
5.2017e-07
5.19299e-07
5.18429e-07
5.17561e-07
5.16696e-07
5.15835e-07
5.14977e-07
5.14122e-07
5.13273e-07
5.12427e-07
5.11587e-07
5.1075e-07
5.09921e-07
5.09094e-07
5.08277e-07
5.0746e-07
5.06653e-07
5.05856e-07
5.05045e-07
5.04286e-07
5.03486e-07
5.0275e-07
5.02076e-07
5.01395e-07
5.4506e-07
5.45868e-07
5.4594e-07
5.42985e-07
5.4223e-07
5.45376e-07
5.46851e-07
5.44616e-07
5.42372e-07
5.4202e-07
5.42156e-07
5.41678e-07
5.40838e-07
5.40047e-07
5.39328e-07
5.38585e-07
5.37797e-07
5.36985e-07
5.36157e-07
5.35313e-07
5.34455e-07
5.33584e-07
5.32701e-07
5.31809e-07
5.30908e-07
5.3e-07
5.29084e-07
5.28164e-07
5.27238e-07
5.26308e-07
5.25372e-07
5.24433e-07
5.23491e-07
5.22546e-07
5.21598e-07
5.20647e-07
5.19693e-07
5.18736e-07
5.17776e-07
5.16812e-07
5.15844e-07
5.14872e-07
5.13894e-07
5.1291e-07
5.1192e-07
5.10921e-07
5.09914e-07
5.08894e-07
5.07865e-07
5.06816e-07
5.05758e-07
5.04674e-07
5.03573e-07
5.02455e-07
5.01285e-07
5.00142e-07
4.98906e-07
4.97703e-07
4.9652e-07
4.95267e-07
5.47503e-07
5.48296e-07
5.48336e-07
5.45334e-07
5.44515e-07
5.47587e-07
5.48979e-07
5.46651e-07
5.44306e-07
5.4385e-07
5.43881e-07
5.43296e-07
5.42348e-07
5.41452e-07
5.40628e-07
5.39783e-07
5.38897e-07
5.37989e-07
5.37068e-07
5.36135e-07
5.3519e-07
5.34235e-07
5.33272e-07
5.32302e-07
5.31325e-07
5.30342e-07
5.29355e-07
5.28362e-07
5.27365e-07
5.26364e-07
5.2536e-07
5.24351e-07
5.23338e-07
5.2232e-07
5.21298e-07
5.2027e-07
5.19236e-07
5.18195e-07
5.17146e-07
5.16089e-07
5.15022e-07
5.13943e-07
5.12852e-07
5.11745e-07
5.10621e-07
5.09477e-07
5.08312e-07
5.07119e-07
5.05902e-07
5.04645e-07
5.0336e-07
5.02024e-07
5.00648e-07
4.99226e-07
4.97719e-07
4.9621e-07
4.94562e-07
4.92913e-07
4.91236e-07
4.8942e-07
5.50559e-07
5.51327e-07
5.51317e-07
5.48241e-07
5.47326e-07
5.50288e-07
5.51558e-07
5.49096e-07
5.4661e-07
5.46011e-07
5.45899e-07
5.45174e-07
5.44087e-07
5.43055e-07
5.42102e-07
5.41132e-07
5.40126e-07
5.39104e-07
5.38075e-07
5.37039e-07
5.35996e-07
5.34949e-07
5.33897e-07
5.32841e-07
5.31783e-07
5.30722e-07
5.29659e-07
5.28593e-07
5.27525e-07
5.26454e-07
5.25379e-07
5.24301e-07
5.23218e-07
5.2213e-07
5.21036e-07
5.19935e-07
5.18827e-07
5.17708e-07
5.16579e-07
5.15437e-07
5.1428e-07
5.13107e-07
5.11914e-07
5.10699e-07
5.09459e-07
5.08189e-07
5.06888e-07
5.05546e-07
5.04166e-07
5.0273e-07
5.01249e-07
4.99697e-07
4.9808e-07
4.96394e-07
4.94591e-07
4.92757e-07
4.90739e-07
4.88677e-07
4.86533e-07
4.84169e-07
5.54414e-07
5.5514e-07
5.55045e-07
5.51843e-07
5.50769e-07
5.53555e-07
5.54639e-07
5.5198e-07
5.49291e-07
5.48493e-07
5.48191e-07
5.47281e-07
5.46017e-07
5.44817e-07
5.43705e-07
5.42586e-07
5.41442e-07
5.40289e-07
5.39138e-07
5.37988e-07
5.36839e-07
5.35691e-07
5.34546e-07
5.33402e-07
5.3226e-07
5.3112e-07
5.29981e-07
5.28843e-07
5.27704e-07
5.26565e-07
5.25425e-07
5.24281e-07
5.23134e-07
5.21982e-07
5.20824e-07
5.19659e-07
5.18484e-07
5.17299e-07
5.16101e-07
5.14888e-07
5.13658e-07
5.12408e-07
5.11135e-07
5.09835e-07
5.08504e-07
5.07137e-07
5.05732e-07
5.04277e-07
5.02774e-07
5.01204e-07
4.99573e-07
4.97857e-07
4.96056e-07
4.94167e-07
4.9213e-07
4.90037e-07
4.87715e-07
4.85299e-07
4.82735e-07
4.79838e-07
5.59368e-07
5.60033e-07
5.59813e-07
5.56422e-07
5.55104e-07
5.57625e-07
5.58433e-07
5.55481e-07
5.52495e-07
5.5141e-07
5.50838e-07
5.49672e-07
5.48167e-07
5.46745e-07
5.4543e-07
5.44127e-07
5.42815e-07
5.4151e-07
5.40221e-07
5.38946e-07
5.37682e-07
5.36429e-07
5.35187e-07
5.33954e-07
5.32729e-07
5.31512e-07
5.303e-07
5.29093e-07
5.2789e-07
5.26688e-07
5.25488e-07
5.24286e-07
5.23083e-07
5.21876e-07
5.20664e-07
5.19445e-07
5.18217e-07
5.16979e-07
5.15728e-07
5.14462e-07
5.13178e-07
5.11873e-07
5.10545e-07
5.09188e-07
5.078e-07
5.06374e-07
5.04906e-07
5.03387e-07
5.01815e-07
5.00171e-07
4.98457e-07
4.96649e-07
4.9474e-07
4.9273e-07
4.90548e-07
4.88281e-07
4.85754e-07
4.83058e-07
4.80162e-07
4.76815e-07
5.65432e-07
5.65871e-07
5.65281e-07
5.61446e-07
5.59664e-07
5.61754e-07
5.6216e-07
5.58818e-07
5.55465e-07
5.54055e-07
5.53201e-07
5.51783e-07
5.50051e-07
5.48428e-07
5.46934e-07
5.4547e-07
5.44012e-07
5.42575e-07
5.41166e-07
5.39781e-07
5.38417e-07
5.37073e-07
5.35746e-07
5.34436e-07
5.33139e-07
5.31855e-07
5.30581e-07
5.29316e-07
5.28057e-07
5.26804e-07
5.25554e-07
5.24305e-07
5.23056e-07
5.21806e-07
5.20551e-07
5.19292e-07
5.18025e-07
5.16749e-07
5.15461e-07
5.1416e-07
5.12843e-07
5.11507e-07
5.1015e-07
5.08768e-07
5.07357e-07
5.05912e-07
5.04429e-07
5.029e-07
5.01323e-07
4.99679e-07
4.9797e-07
4.96171e-07
4.94269e-07
4.92259e-07
4.90059e-07
4.87745e-07
4.85119e-07
4.82269e-07
4.7911e-07
4.75399e-07
5.76517e-07
5.76614e-07
5.75325e-07
5.70542e-07
5.67752e-07
5.68934e-07
5.68495e-07
5.64327e-07
5.60203e-07
5.58122e-07
5.56684e-07
5.54751e-07
5.52569e-07
5.5056e-07
5.4874e-07
5.47e-07
5.45308e-07
5.43674e-07
5.42099e-07
5.40574e-07
5.39091e-07
5.37645e-07
5.36231e-07
5.34844e-07
5.33481e-07
5.32137e-07
5.3081e-07
5.29496e-07
5.28193e-07
5.26899e-07
5.2561e-07
5.24325e-07
5.23043e-07
5.21761e-07
5.20477e-07
5.1919e-07
5.17898e-07
5.16598e-07
5.1529e-07
5.13972e-07
5.12641e-07
5.11296e-07
5.09935e-07
5.08555e-07
5.07154e-07
5.05728e-07
5.04278e-07
5.02792e-07
5.01276e-07
4.9971e-07
4.98101e-07
4.9643e-07
4.9467e-07
4.92863e-07
4.90851e-07
4.88767e-07
4.86412e-07
4.83589e-07
4.80696e-07
4.76659e-07
5.84613e-07
5.83661e-07
5.81024e-07
5.75097e-07
5.71416e-07
5.71825e-07
5.70722e-07
5.65984e-07
5.61377e-07
5.58923e-07
5.57242e-07
5.55173e-07
5.5292e-07
5.50873e-07
5.49035e-07
5.47287e-07
5.45591e-07
5.43953e-07
5.4237e-07
5.40833e-07
5.39335e-07
5.3787e-07
5.36435e-07
5.35025e-07
5.33638e-07
5.3227e-07
5.30919e-07
5.29581e-07
5.28255e-07
5.26938e-07
5.25629e-07
5.24324e-07
5.23023e-07
5.21724e-07
5.20424e-07
5.19122e-07
5.17817e-07
5.16508e-07
5.15193e-07
5.13871e-07
5.12541e-07
5.11202e-07
5.09854e-07
5.08495e-07
5.07125e-07
5.05744e-07
5.04352e-07
5.02946e-07
5.01532e-07
5.00096e-07
4.98665e-07
4.97175e-07
4.95738e-07
4.94137e-07
4.92634e-07
4.90873e-07
4.89353e-07
4.86873e-07
4.8512e-07
4.81686e-07
6.32191e-07
6.18566e-07
6.04315e-07
5.91566e-07
5.84789e-07
5.82471e-07
5.78696e-07
5.72191e-07
5.66494e-07
5.63009e-07
5.60319e-07
5.57501e-07
5.54747e-07
5.52314e-07
5.50151e-07
5.48148e-07
5.4626e-07
5.44475e-07
5.42779e-07
5.41154e-07
5.39587e-07
5.3807e-07
5.36593e-07
5.35151e-07
5.33738e-07
5.32348e-07
5.30978e-07
5.29625e-07
5.28286e-07
5.26957e-07
5.25637e-07
5.24323e-07
5.23014e-07
5.21707e-07
5.20401e-07
5.19095e-07
5.17787e-07
5.16476e-07
5.15162e-07
5.13843e-07
5.12521e-07
5.11194e-07
5.09864e-07
5.0853e-07
5.072e-07
5.05865e-07
5.04555e-07
5.03221e-07
5.01985e-07
5.00643e-07
4.99589e-07
4.98228e-07
4.97483e-07
4.9626e-07
4.95759e-07
4.95229e-07
4.94689e-07
4.94838e-07
4.95873e-07
4.92933e-07
5.1e-07
4.466e-07
4.21549e-07
4.10866e-07
3.98637e-07
3.82278e-07
3.62807e-07
3.41643e-07
3.19389e-07
2.96267e-07
2.72663e-07
2.49204e-07
2.26621e-07
2.05834e-07
1.87711e-07
1.72967e-07
1.62124e-07
1.55212e-07
1.51947e-07
1.51664e-07
1.53898e-07
1.57513e-07
1.62611e-07
1.67029e-07
1.71363e-07
1.75591e-07
1.71948e-07
1.80587e-07
1.61927e-07
1.38773e-07
4.8323e-07
4.22709e-07
4.069e-07
4.02316e-07
3.915e-07
3.74673e-07
3.55197e-07
3.34633e-07
3.1312e-07
2.90766e-07
2.68043e-07
2.45604e-07
2.24184e-07
2.04404e-07
1.87079e-07
1.72953e-07
1.62548e-07
1.55782e-07
1.52404e-07
1.51809e-07
1.53703e-07
1.56963e-07
1.61823e-07
1.66331e-07
1.70764e-07
1.7566e-07
1.7276e-07
1.79329e-07
1.67197e-07
1.48542e-07
4.66093e-07
4.25861e-07
4.13433e-07
4.04741e-07
3.90179e-07
3.71724e-07
3.52049e-07
3.31577e-07
3.10112e-07
2.87873e-07
2.65369e-07
2.43207e-07
2.22022e-07
2.02537e-07
1.85568e-07
1.71735e-07
1.61544e-07
1.54954e-07
1.51691e-07
1.51094e-07
1.5303e-07
1.56128e-07
1.61199e-07
1.65522e-07
1.70832e-07
1.74681e-07
1.7422e-07
1.78124e-07
1.71441e-07
1.6635e-07
4.55014e-07
4.22343e-07
4.03789e-07
3.9468e-07
3.81988e-07
3.64955e-07
3.4599e-07
3.25958e-07
3.04865e-07
2.82992e-07
2.60885e-07
2.39157e-07
2.18462e-07
1.99463e-07
1.82963e-07
1.69769e-07
1.60053e-07
1.5377e-07
1.50763e-07
1.50318e-07
1.52434e-07
1.55578e-07
1.61146e-07
1.64807e-07
1.7131e-07
1.73727e-07
1.75702e-07
1.78961e-07
1.75154e-07
1.76404e-07
4.45525e-07
4.19802e-07
4.03365e-07
3.94432e-07
3.80628e-07
3.62016e-07
3.42372e-07
3.22231e-07
3.01128e-07
2.7932e-07
2.57373e-07
2.35887e-07
2.15481e-07
1.96826e-07
1.8065e-07
1.67573e-07
1.58004e-07
1.51954e-07
1.49148e-07
1.48744e-07
1.50978e-07
1.53863e-07
1.59669e-07
1.63375e-07
1.71002e-07
1.72874e-07
1.7593e-07
1.80528e-07
1.77072e-07
1.82345e-07
4.37715e-07
4.17134e-07
3.98333e-07
3.87251e-07
3.73478e-07
3.55702e-07
3.3665e-07
3.16784e-07
2.95845e-07
2.74176e-07
2.52383e-07
2.31075e-07
2.10881e-07
1.92464e-07
1.76604e-07
1.64002e-07
1.55056e-07
1.49396e-07
1.46899e-07
1.46799e-07
1.49496e-07
1.5267e-07
1.59342e-07
1.6245e-07
1.71083e-07
1.72459e-07
1.76658e-07
1.82216e-07
1.79283e-07
1.86356e-07
4.30996e-07
4.13841e-07
3.95107e-07
3.84623e-07
3.71055e-07
3.52438e-07
3.32754e-07
3.12685e-07
2.91628e-07
2.69888e-07
2.48101e-07
2.26881e-07
2.06855e-07
1.887e-07
1.73148e-07
1.60772e-07
1.51729e-07
1.46242e-07
1.44112e-07
1.44221e-07
1.47201e-07
1.50235e-07
1.57247e-07
1.60617e-07
1.70159e-07
1.71931e-07
1.76517e-07
1.83561e-07
1.80177e-07
1.88508e-07
4.25416e-07
4.10495e-07
3.91378e-07
3.79375e-07
3.6516e-07
3.46603e-07
3.27105e-07
3.07061e-07
2.85956e-07
2.64153e-07
2.42326e-07
2.21101e-07
2.01117e-07
1.83039e-07
1.67599e-07
1.55435e-07
1.47215e-07
1.42223e-07
1.40477e-07
1.4095e-07
1.44525e-07
1.48014e-07
1.55999e-07
1.59278e-07
1.69397e-07
1.71817e-07
1.76572e-07
1.84827e-07
1.82401e-07
1.90023e-07
4.20472e-07
4.06963e-07
3.87686e-07
3.75359e-07
3.61357e-07
3.426e-07
3.22636e-07
3.0232e-07
2.80983e-07
2.58954e-07
2.36951e-07
2.15629e-07
1.95642e-07
1.77699e-07
1.62556e-07
1.50676e-07
1.42286e-07
1.37472e-07
1.36179e-07
1.37058e-07
1.4115e-07
1.44821e-07
1.53246e-07
1.56995e-07
1.67705e-07
1.71181e-07
1.76058e-07
1.85158e-07
1.82497e-07
1.90721e-07
4.15744e-07
4.03405e-07
3.84176e-07
3.70959e-07
3.56438e-07
3.37418e-07
3.17048e-07
2.96402e-07
2.74769e-07
2.52449e-07
2.30196e-07
2.08691e-07
1.88603e-07
1.70624e-07
1.55481e-07
1.4387e-07
1.36057e-07
1.31734e-07
1.30903e-07
1.32223e-07
1.36942e-07
1.41186e-07
1.50528e-07
1.54858e-07
1.65812e-07
1.70593e-07
1.75553e-07
1.85659e-07
1.84392e-07
1.91185e-07
4.11252e-07
3.99945e-07
3.80735e-07
3.66435e-07
3.51722e-07
3.3254e-07
3.11682e-07
2.90614e-07
2.6861e-07
2.45898e-07
2.23276e-07
2.01472e-07
1.81186e-07
1.63159e-07
1.48171e-07
1.36697e-07
1.29043e-07
1.25007e-07
1.24676e-07
1.26532e-07
1.31986e-07
1.3685e-07
1.4679e-07
1.51857e-07
1.63184e-07
1.69286e-07
1.74407e-07
1.85128e-07
1.84828e-07
1.91306e-07
4.07009e-07
3.96538e-07
3.7732e-07
3.61858e-07
3.46867e-07
3.2744e-07
3.05877e-07
2.84111e-07
2.61537e-07
2.38291e-07
2.15191e-07
1.93016e-07
1.72489e-07
1.5435e-07
1.39333e-07
1.27965e-07
1.2067e-07
1.17082e-07
1.1732e-07
1.19793e-07
1.25988e-07
1.3154e-07
1.42168e-07
1.48418e-07
1.59919e-07
1.67559e-07
1.73016e-07
1.84302e-07
1.85209e-07
1.91102e-07
4.0301e-07
3.93113e-07
3.73925e-07
3.57113e-07
3.41601e-07
3.21897e-07
2.99559e-07
2.76996e-07
2.53805e-07
2.2996e-07
2.06273e-07
1.83596e-07
1.62695e-07
1.44335e-07
1.2927e-07
1.18052e-07
1.11036e-07
1.07859e-07
1.08688e-07
1.1183e-07
1.1883e-07
1.25245e-07
1.36611e-07
1.43785e-07
1.55838e-07
1.6502e-07
1.70947e-07
1.82773e-07
1.8514e-07
1.90585e-07
3.99262e-07
3.89593e-07
3.70448e-07
3.52158e-07
3.35955e-07
3.15941e-07
2.92757e-07
2.69191e-07
2.45184e-07
2.20579e-07
1.96156e-07
1.72853e-07
1.51491e-07
1.32846e-07
1.17701e-07
1.06572e-07
9.98276e-08
9.70941e-08
9.85593e-08
1.02456e-07
1.10346e-07
1.17785e-07
1.29946e-07
1.38523e-07
1.50892e-07
1.61594e-07
1.68236e-07
1.80622e-07
1.84613e-07
1.89766e-07
3.95747e-07
3.85857e-07
3.66802e-07
3.46986e-07
3.29839e-07
3.09388e-07
2.85253e-07
2.60459e-07
2.3544e-07
2.09935e-07
1.84653e-07
1.60605e-07
1.38672e-07
1.19658e-07
1.04358e-07
9.32854e-08
8.68194e-08
8.4555e-08
8.67011e-08
9.14406e-08
1.00298e-07
1.08895e-07
1.21943e-07
1.32029e-07
1.44931e-07
1.57159e-07
1.64738e-07
1.77689e-07
1.83461e-07
1.88555e-07
3.92412e-07
3.81808e-07
3.62906e-07
3.41546e-07
3.23108e-07
3.02029e-07
2.76846e-07
2.50608e-07
2.2435e-07
1.97785e-07
1.71496e-07
1.46558e-07
1.23931e-07
1.04455e-07
8.89431e-08
7.78982e-08
7.1706e-08
6.99384e-08
7.28136e-08
7.84797e-08
8.83867e-08
9.82891e-08
1.12349e-07
1.24084e-07
1.37731e-07
1.51508e-07
1.60279e-07
1.73852e-07
1.81549e-07
1.86854e-07
3.89163e-07
3.77409e-07
3.58632e-07
3.35738e-07
3.15607e-07
2.93628e-07
2.67275e-07
2.39375e-07
2.11613e-07
1.83791e-07
1.56333e-07
1.30352e-07
1.06904e-07
8.68684e-08
7.10813e-08
6.00266e-08
5.40994e-08
5.28613e-08
5.6522e-08
6.32041e-08
7.42523e-08
8.5616e-08
1.00837e-07
1.1438e-07
1.29017e-07
1.44417e-07
1.54665e-07
1.68921e-07
1.78679e-07
1.84525e-07
3.85927e-07
3.7262e-07
3.5379e-07
3.29401e-07
3.07113e-07
2.83851e-07
2.56186e-07
2.26416e-07
1.96845e-07
1.67531e-07
1.38728e-07
1.1154e-07
8.71259e-08
6.64231e-08
5.02877e-08
3.91842e-08
3.35081e-08
3.28306e-08
3.73476e-08
4.5157e-08
5.74493e-08
7.04318e-08
8.69934e-08
1.0253e-07
1.18441e-07
1.35608e-07
1.4762e-07
1.62683e-07
1.74623e-07
1.81429e-07
3.82653e-07
3.67333e-07
3.48122e-07
3.22261e-07
2.9729e-07
2.72258e-07
2.43115e-07
2.11281e-07
1.79566e-07
1.48471e-07
1.18121e-07
8.9546e-08
6.40039e-08
4.25121e-08
2.59469e-08
1.47539e-08
9.32864e-09
9.22898e-09
1.46596e-08
2.3728e-08
3.7405e-08
5.21808e-08
7.02812e-08
8.80176e-08
1.05532e-07
1.24549e-07
1.38739e-07
1.54847e-07
1.69092e-07
1.7738e-07
3.79242e-07
3.61368e-07
3.41246e-07
3.13799e-07
2.85672e-07
2.58304e-07
2.27459e-07
1.93365e-07
1.59146e-07
1.2592e-07
9.37837e-08
6.36261e-08
3.67786e-08
1.43639e-08
-2.73389e-09
-1.40724e-08
-1.91896e-08
-1.87178e-08
-1.23227e-08
-1.88117e-09
1.33453e-08
3.01198e-08
4.999e-08
7.01372e-08
8.96372e-08
1.10717e-07
1.27499e-07
1.44983e-07
1.61679e-07
1.72065e-07
3.75412e-07
3.54392e-07
3.32566e-07
3.03336e-07
2.71724e-07
2.41331e-07
2.0841e-07
1.71853e-07
1.34752e-07
9.89731e-08
6.47531e-08
3.27947e-08
4.46099e-09
-1.90315e-08
-3.67718e-08
-4.8334e-08
-5.33402e-08
-5.21448e-08
-4.4659e-08
-3.2689e-08
-1.57187e-08
3.30831e-09
2.52316e-08
4.80442e-08
6.99626e-08
9.34339e-08
1.13288e-07
1.32591e-07
1.51884e-07
1.65011e-07
3.70659e-07
3.45915e-07
3.21267e-07
2.89978e-07
2.54625e-07
2.20362e-07
1.84773e-07
1.45548e-07
1.05219e-07
6.64043e-08
2.97317e-08
-4.27296e-09
-3.43096e-08
-5.90626e-08
-7.75541e-08
-8.9325e-08
-9.40782e-08