/*--------------------------------*- C++ -*----------------------------------*\
| =========                 |                                                 |
| \\      /  F ield         | OpenFOAM: The Open Source CFD Toolbox           |
|  \\    /   O peration     | Version:  2312                                  |
|   \\  /    A nd           | Website:  www.openfoam.com                      |
|    \\/     M anipulation  |                                                 |
\*---------------------------------------------------------------------------*/
FoamFile
{
    version     2.0;
    format      ascii;
    arch        "LSB;label=32;scalar=64";
    class       volScalarField;
    location    "27000";
    object      p;
}
// * * * * * * * * * * * * * * * * * * * * * * * * * * * * * * * * * * * * * //

dimensions      [0 2 -2 0 0 0 0];

internalField   nonuniform List<scalar> 
10800
(
5.02283e-07
4.8816e-07
4.74393e-07
4.63815e-07
4.56392e-07
4.51001e-07
4.46549e-07
4.42469e-07
4.38593e-07
4.34927e-07
4.3151e-07
4.28344e-07
4.25397e-07
4.22619e-07
4.19962e-07
4.17395e-07
4.14895e-07
4.12448e-07
4.10046e-07
4.07678e-07
4.05336e-07
4.03012e-07
4.00701e-07
3.98396e-07
3.96092e-07
3.93788e-07
3.91478e-07
3.89161e-07
3.86836e-07
3.84499e-07
3.82151e-07
3.79791e-07
3.77417e-07
3.7503e-07
3.7263e-07
3.70217e-07
3.67792e-07
3.65355e-07
3.62906e-07
3.60447e-07
3.57978e-07
3.55501e-07
3.53014e-07
3.50519e-07
3.48017e-07
3.45506e-07
3.42987e-07
3.40457e-07
3.3792e-07
3.35361e-07
3.32803e-07
3.30192e-07
3.27613e-07
3.2489e-07
3.22332e-07
3.19291e-07
3.1704e-07
3.12742e-07
3.1253e-07
3.02118e-07
4.5424e-07
4.52513e-07
4.49868e-07
4.46742e-07
4.43525e-07
4.4043e-07
4.37507e-07
4.34719e-07
4.32017e-07
4.2937e-07
4.26771e-07
4.24227e-07
4.21744e-07
4.19322e-07
4.16954e-07
4.14632e-07
4.12345e-07
4.10087e-07
4.07852e-07
4.05633e-07
4.03428e-07
4.01233e-07
3.99043e-07
3.96855e-07
3.94666e-07
3.92474e-07
3.90276e-07
3.88071e-07
3.85858e-07
3.83634e-07
3.814e-07
3.79153e-07
3.76895e-07
3.74624e-07
3.72342e-07
3.70046e-07
3.6774e-07
3.65419e-07
3.63091e-07
3.60747e-07
3.58399e-07
3.56033e-07
3.53667e-07
3.5128e-07
3.48901e-07
3.4649e-07
3.44102e-07
3.41666e-07
3.39278e-07
3.36814e-07
3.34449e-07
3.31958e-07
3.29668e-07
3.2717e-07
3.25087e-07
3.22644e-07
3.21095e-07
3.18784e-07
3.18369e-07
3.15755e-07
4.455e-07
4.4475e-07
4.43336e-07
4.41384e-07
4.39099e-07
4.36679e-07
4.34248e-07
4.31858e-07
4.29512e-07
4.27196e-07
4.24902e-07
4.22629e-07
4.20383e-07
4.18168e-07
4.15987e-07
4.13837e-07
4.11715e-07
4.09614e-07
4.07532e-07
4.05464e-07
4.03406e-07
4.01356e-07
3.99312e-07
3.9727e-07
3.95229e-07
3.93187e-07
3.91142e-07
3.89091e-07
3.87035e-07
3.84972e-07
3.82901e-07
3.80821e-07
3.78733e-07
3.76635e-07
3.74528e-07
3.7241e-07
3.70285e-07
3.68147e-07
3.66003e-07
3.63846e-07
3.61685e-07
3.59509e-07
3.57332e-07
3.55137e-07
3.52947e-07
3.50734e-07
3.48534e-07
3.46303e-07
3.441e-07
3.41853e-07
3.39659e-07
3.37402e-07
3.35236e-07
3.32976e-07
3.30871e-07
3.2862e-07
3.26623e-07
3.24382e-07
3.2253e-07
3.20203e-07
4.33766e-07
4.33334e-07
4.32547e-07
4.31457e-07
4.30132e-07
4.28643e-07
4.27049e-07
4.25387e-07
4.23679e-07
4.21936e-07
4.20165e-07
4.1837e-07
4.16558e-07
4.14736e-07
4.12907e-07
4.11076e-07
4.09243e-07
4.07409e-07
4.05574e-07
4.03737e-07
4.01897e-07
4.00055e-07
3.98209e-07
3.96359e-07
3.94504e-07
3.92644e-07
3.90779e-07
3.88907e-07
3.87029e-07
3.85143e-07
3.83251e-07
3.81351e-07
3.79444e-07
3.77529e-07
3.75608e-07
3.73678e-07
3.71742e-07
3.69798e-07
3.67848e-07
3.6589e-07
3.63927e-07
3.61954e-07
3.59976e-07
3.57987e-07
3.55993e-07
3.53986e-07
3.51973e-07
3.49941e-07
3.47905e-07
3.45842e-07
3.43774e-07
3.41671e-07
3.39565e-07
3.37414e-07
3.35266e-07
3.33059e-07
3.30862e-07
3.28586e-07
3.26332e-07
3.23993e-07
4.27068e-07
4.26854e-07
4.26423e-07
4.25777e-07
4.24933e-07
4.23919e-07
4.22768e-07
4.21511e-07
4.20172e-07
4.18768e-07
4.17311e-07
4.15811e-07
4.14274e-07
4.12708e-07
4.11118e-07
4.09508e-07
4.07884e-07
4.06246e-07
4.04598e-07
4.02941e-07
4.01275e-07
3.99602e-07
3.97921e-07
3.96234e-07
3.94541e-07
3.92843e-07
3.91138e-07
3.89429e-07
3.87714e-07
3.85994e-07
3.8427e-07
3.82542e-07
3.80809e-07
3.79072e-07
3.77332e-07
3.75588e-07
3.73842e-07
3.72092e-07
3.7034e-07
3.68585e-07
3.66828e-07
3.65067e-07
3.63304e-07
3.61537e-07
3.59766e-07
3.57989e-07
3.56208e-07
3.54419e-07
3.5262e-07
3.50808e-07
3.48978e-07
3.47123e-07
3.45231e-07
3.43292e-07
3.41286e-07
3.39204e-07
3.37034e-07
3.34787e-07
3.32465e-07
3.30163e-07
4.21549e-07
4.21387e-07
4.21061e-07
4.20577e-07
4.19944e-07
4.19178e-07
4.18297e-07
4.1732e-07
4.16261e-07
4.15133e-07
4.13947e-07
4.1271e-07
4.11428e-07
4.10108e-07
4.08755e-07
4.07373e-07
4.05967e-07
4.04539e-07
4.03093e-07
4.01631e-07
4.00154e-07
3.98665e-07
3.97165e-07
3.95656e-07
3.94137e-07
3.92611e-07
3.91078e-07
3.89539e-07
3.87995e-07
3.86447e-07
3.84895e-07
3.8334e-07
3.81783e-07
3.80224e-07
3.78664e-07
3.77104e-07
3.75544e-07
3.73984e-07
3.72424e-07
3.70865e-07
3.69307e-07
3.6775e-07
3.66192e-07
3.64633e-07
3.63071e-07
3.61506e-07
3.59934e-07
3.58353e-07
3.56758e-07
3.5515e-07
3.53522e-07
3.51878e-07
3.50208e-07
3.48519e-07
3.46784e-07
3.45007e-07
3.43152e-07
3.41242e-07
3.39273e-07
3.3737e-07
4.17204e-07
4.17085e-07
4.16847e-07
4.16492e-07
4.16021e-07
4.15444e-07
4.14768e-07
4.14003e-07
4.13161e-07
4.1225e-07
4.11277e-07
4.10251e-07
4.09176e-07
4.08057e-07
4.069e-07
4.05709e-07
4.04488e-07
4.0324e-07
4.01969e-07
4.00677e-07
3.99368e-07
3.98042e-07
3.96703e-07
3.95352e-07
3.93991e-07
3.92622e-07
3.91245e-07
3.89863e-07
3.88476e-07
3.87086e-07
3.85694e-07
3.84302e-07
3.8291e-07
3.81519e-07
3.8013e-07
3.78745e-07
3.77364e-07
3.75987e-07
3.74616e-07
3.73252e-07
3.71893e-07
3.70542e-07
3.69197e-07
3.67859e-07
3.66528e-07
3.65204e-07
3.63884e-07
3.6257e-07
3.61256e-07
3.5994e-07
3.5861e-07
3.57265e-07
3.55892e-07
3.54495e-07
3.53065e-07
3.51612e-07
3.50114e-07
3.48595e-07
3.47052e-07
3.45598e-07
4.13753e-07
4.13661e-07
4.13476e-07
4.13197e-07
4.12826e-07
4.12367e-07
4.11824e-07
4.11204e-07
4.10514e-07
4.09759e-07
4.08945e-07
4.08077e-07
4.0716e-07
4.062e-07
4.052e-07
4.04164e-07
4.03098e-07
4.02003e-07
4.00883e-07
3.99741e-07
3.98579e-07
3.97401e-07
3.96208e-07
3.95003e-07
3.93787e-07
3.92563e-07
3.91332e-07
3.90097e-07
3.88858e-07
3.87618e-07
3.86378e-07
3.85139e-07
3.83904e-07
3.82673e-07
3.81448e-07
3.8023e-07
3.79021e-07
3.77822e-07
3.76634e-07
3.75457e-07
3.74294e-07
3.73144e-07
3.72007e-07
3.70886e-07
3.69778e-07
3.68685e-07
3.67604e-07
3.66537e-07
3.65483e-07
3.64443e-07
3.63413e-07
3.62393e-07
3.6137e-07
3.60345e-07
3.59306e-07
3.58264e-07
3.57208e-07
3.56164e-07
3.55139e-07
3.54235e-07
4.10991e-07
4.10915e-07
4.10764e-07
4.10535e-07
4.10231e-07
4.09852e-07
4.09403e-07
4.08886e-07
4.08307e-07
4.07669e-07
4.06977e-07
4.06235e-07
4.05447e-07
4.04617e-07
4.03748e-07
4.02844e-07
4.01909e-07
4.00946e-07
3.99958e-07
3.98947e-07
3.97917e-07
3.96869e-07
3.95807e-07
3.94733e-07
3.93648e-07
3.92556e-07
3.91458e-07
3.90357e-07
3.89254e-07
3.88151e-07
3.87051e-07
3.85955e-07
3.84866e-07
3.83784e-07
3.82712e-07
3.81652e-07
3.80606e-07
3.79574e-07
3.7856e-07
3.77564e-07
3.76589e-07
3.75635e-07
3.74704e-07
3.73799e-07
3.72919e-07
3.72066e-07
3.71241e-07
3.70445e-07
3.69676e-07
3.68934e-07
3.68215e-07
3.67525e-07
3.66859e-07
3.66221e-07
3.65604e-07
3.65016e-07
3.6445e-07
3.63927e-07
3.63458e-07
3.63131e-07
4.08789e-07
4.08726e-07
4.08598e-07
4.08405e-07
4.08148e-07
4.07827e-07
4.07445e-07
4.07004e-07
4.06508e-07
4.05959e-07
4.05361e-07
4.04717e-07
4.04031e-07
4.03305e-07
4.02542e-07
4.01746e-07
4.0092e-07
4.00066e-07
3.99188e-07
3.98288e-07
3.97368e-07
3.96433e-07
3.95483e-07
3.94522e-07
3.93551e-07
3.92574e-07
3.91593e-07
3.9061e-07
3.89626e-07
3.88646e-07
3.8767e-07
3.86702e-07
3.85743e-07
3.84796e-07
3.83863e-07
3.82946e-07
3.82047e-07
3.8117e-07
3.80316e-07
3.79487e-07
3.78686e-07
3.77916e-07
3.77178e-07
3.76475e-07
3.75809e-07
3.75183e-07
3.74598e-07
3.74058e-07
3.73562e-07
3.73112e-07
3.72709e-07
3.72359e-07
3.7206e-07
3.71819e-07
3.71631e-07
3.71506e-07
3.71441e-07
3.71457e-07
3.71567e-07
3.71844e-07
4.07062e-07
4.07007e-07
4.06896e-07
4.06729e-07
4.06505e-07
4.06226e-07
4.05893e-07
4.05508e-07
4.05074e-07
4.04592e-07
4.04066e-07
4.03498e-07
4.0289e-07
4.02245e-07
4.01566e-07
4.00856e-07
4.00117e-07
3.99352e-07
3.98563e-07
3.97754e-07
3.96927e-07
3.96084e-07
3.95228e-07
3.94362e-07
3.93488e-07
3.92609e-07
3.91727e-07
3.90844e-07
3.89964e-07
3.89089e-07
3.88222e-07
3.87364e-07
3.86519e-07
3.8569e-07
3.84878e-07
3.84088e-07
3.83321e-07
3.82581e-07
3.8187e-07
3.81191e-07
3.80549e-07
3.79945e-07
3.79383e-07
3.78866e-07
3.78399e-07
3.77983e-07
3.77623e-07
3.77321e-07
3.77081e-07
3.76907e-07
3.76805e-07
3.76779e-07
3.76832e-07
3.7697e-07
3.77195e-07
3.77518e-07
3.7794e-07
3.78481e-07
3.79156e-07
3.80022e-07
4.05744e-07
4.05695e-07
4.05597e-07
4.05448e-07
4.05249e-07
4.05e-07
4.04703e-07
4.04359e-07
4.0397e-07
4.03538e-07
4.03065e-07
4.02553e-07
4.02005e-07
4.01422e-07
4.00807e-07
4.00163e-07
3.99491e-07
3.98796e-07
3.98078e-07
3.9734e-07
3.96586e-07
3.95818e-07
3.95037e-07
3.94248e-07
3.93452e-07
3.92652e-07
3.91851e-07
3.91052e-07
3.90257e-07
3.89468e-07
3.8869e-07
3.87924e-07
3.87174e-07
3.86443e-07
3.85733e-07
3.85049e-07
3.84393e-07
3.83768e-07
3.83178e-07
3.82627e-07
3.82119e-07
3.81657e-07
3.81246e-07
3.8089e-07
3.80592e-07
3.80359e-07
3.80193e-07
3.801e-07
3.80087e-07
3.80159e-07
3.80323e-07
3.80585e-07
3.80952e-07
3.8143e-07
3.82028e-07
3.82755e-07
3.8362e-07
3.8464e-07
3.85833e-07
3.87241e-07
4.04792e-07
4.04747e-07
4.04657e-07
4.04521e-07
4.04339e-07
4.04111e-07
4.03839e-07
4.03523e-07
4.03166e-07
4.02769e-07
4.02334e-07
4.01863e-07
4.01357e-07
4.00819e-07
4.00251e-07
3.99655e-07
3.99033e-07
3.98389e-07
3.97723e-07
3.97039e-07
3.9634e-07
3.95627e-07
3.94903e-07
3.94172e-07
3.93435e-07
3.92696e-07
3.91956e-07
3.9122e-07
3.9049e-07
3.89768e-07
3.89058e-07
3.88363e-07
3.87687e-07
3.87031e-07
3.86401e-07
3.85799e-07
3.85229e-07
3.84694e-07
3.842e-07
3.83749e-07
3.83347e-07
3.82997e-07
3.82705e-07
3.82476e-07
3.82315e-07
3.82227e-07
3.82219e-07
3.82296e-07
3.82467e-07
3.82738e-07
3.83118e-07
3.83615e-07
3.84238e-07
3.84996e-07
3.85901e-07
3.86963e-07
3.88196e-07
3.89615e-07
3.91241e-07
3.93102e-07
4.04174e-07
4.04131e-07
4.04046e-07
4.03918e-07
4.03747e-07
4.03532e-07
4.03276e-07
4.02979e-07
4.02642e-07
4.02268e-07
4.01857e-07
4.01412e-07
4.00934e-07
4.00425e-07
3.99887e-07
3.99323e-07
3.98734e-07
3.98123e-07
3.97492e-07
3.96843e-07
3.9618e-07
3.95504e-07
3.94819e-07
3.94126e-07
3.93429e-07
3.9273e-07
3.92032e-07
3.91338e-07
3.90652e-07
3.89975e-07
3.89312e-07
3.88665e-07
3.88039e-07
3.87435e-07
3.86859e-07
3.86313e-07
3.85802e-07
3.8533e-07
3.84901e-07
3.8452e-07
3.84191e-07
3.8392e-07
3.83711e-07
3.8357e-07
3.83503e-07
3.83517e-07
3.83618e-07
3.83815e-07
3.84115e-07
3.84527e-07
3.8506e-07
3.85723e-07
3.86528e-07
3.87486e-07
3.88609e-07
3.89911e-07
3.91407e-07
3.93114e-07
3.95051e-07
3.97239e-07
4.03869e-07
4.03828e-07
4.03746e-07
4.03622e-07
4.03455e-07
4.03247e-07
4.02999e-07
4.0271e-07
4.02384e-07
4.0202e-07
4.01622e-07
4.01189e-07
4.00725e-07
4.0023e-07
3.99707e-07
3.99158e-07
3.98585e-07
3.97991e-07
3.97377e-07
3.96747e-07
3.96101e-07
3.95444e-07
3.94777e-07
3.94104e-07
3.93427e-07
3.92748e-07
3.92072e-07
3.91399e-07
3.90735e-07
3.90081e-07
3.89442e-07
3.88819e-07
3.88218e-07
3.87641e-07
3.87092e-07
3.86575e-07
3.86094e-07
3.85654e-07
3.85258e-07
3.84912e-07
3.84621e-07
3.84389e-07
3.84222e-07
3.84127e-07
3.84109e-07
3.84175e-07
3.84333e-07
3.84591e-07
3.84958e-07
3.85443e-07
3.86055e-07
3.86804e-07
3.87704e-07
3.88765e-07
3.90002e-07
3.91429e-07
3.93064e-07
3.94921e-07
3.97022e-07
3.99381e-07
4.03869e-07
4.03828e-07
4.03745e-07
4.03621e-07
4.03455e-07
4.03247e-07
4.02998e-07
4.0271e-07
4.02383e-07
4.0202e-07
4.01621e-07
4.01189e-07
4.00724e-07
4.0023e-07
3.99707e-07
3.99158e-07
3.98585e-07
3.97991e-07
3.97377e-07
3.96746e-07
3.96101e-07
3.95444e-07
3.94777e-07
3.94104e-07
3.93426e-07
3.92748e-07
3.92071e-07
3.91399e-07
3.90734e-07
3.90081e-07
3.89441e-07
3.88819e-07
3.88217e-07
3.8764e-07
3.87091e-07
3.86574e-07
3.86093e-07
3.85653e-07
3.85257e-07
3.84911e-07
3.8462e-07
3.84388e-07
3.84221e-07
3.84126e-07
3.84108e-07
3.84174e-07
3.84332e-07
3.8459e-07
3.84957e-07
3.85442e-07
3.86054e-07
3.86803e-07
3.87703e-07
3.88764e-07
3.90001e-07
3.91428e-07
3.93062e-07
3.94919e-07
3.9702e-07
3.9938e-07
4.04173e-07
4.0413e-07
4.04046e-07
4.03917e-07
4.03746e-07
4.03531e-07
4.03275e-07
4.02978e-07
4.02641e-07
4.02267e-07
4.01856e-07
4.01411e-07
4.00933e-07
4.00424e-07
3.99886e-07
3.99322e-07
3.98733e-07
3.98121e-07
3.9749e-07
3.96842e-07
3.96179e-07
3.95503e-07
3.94817e-07
3.94124e-07
3.93427e-07
3.92728e-07
3.92031e-07
3.91337e-07
3.9065e-07
3.89974e-07
3.8931e-07
3.88664e-07
3.88037e-07
3.87433e-07
3.86857e-07
3.86311e-07
3.858e-07
3.85328e-07
3.84899e-07
3.84518e-07
3.84189e-07
3.83917e-07
3.83708e-07
3.83567e-07
3.83501e-07
3.83514e-07
3.83615e-07
3.83812e-07
3.84112e-07
3.84524e-07
3.85056e-07
3.8572e-07
3.86524e-07
3.87482e-07
3.88605e-07
3.89906e-07
3.91403e-07
3.93109e-07
3.95046e-07
3.97234e-07
4.04791e-07
4.04746e-07
4.04655e-07
4.04519e-07
4.04337e-07
4.04109e-07
4.03837e-07
4.03522e-07
4.03165e-07
4.02768e-07
4.02333e-07
4.01861e-07
4.01355e-07
4.00817e-07
4.00249e-07
3.99653e-07
3.99032e-07
3.98387e-07
3.97721e-07
3.97037e-07
3.96338e-07
3.95625e-07
3.94901e-07
3.9417e-07
3.93433e-07
3.92693e-07
3.91954e-07
3.91218e-07
3.90487e-07
3.89765e-07
3.89055e-07
3.88361e-07
3.87684e-07
3.87028e-07
3.86398e-07
3.85796e-07
3.85225e-07
3.84691e-07
3.84196e-07
3.83746e-07
3.83343e-07
3.82993e-07
3.82701e-07
3.82472e-07
3.8231e-07
3.82222e-07
3.82214e-07
3.82291e-07
3.82461e-07
3.82733e-07
3.83112e-07
3.83609e-07
3.84232e-07
3.8499e-07
3.85894e-07
3.86956e-07
3.88188e-07
3.89607e-07
3.91233e-07
3.93093e-07
4.05742e-07
4.05693e-07
4.05594e-07
4.05446e-07
4.05246e-07
4.04998e-07
4.047e-07
4.04356e-07
4.03967e-07
4.03535e-07
4.03062e-07
4.02551e-07
4.02002e-07
4.01419e-07
4.00805e-07
4.0016e-07
3.99489e-07
3.98793e-07
3.98075e-07
3.97338e-07
3.96583e-07
3.95815e-07
3.95034e-07
3.94245e-07
3.93449e-07
3.92649e-07
3.91848e-07
3.91048e-07
3.90253e-07
3.89465e-07
3.88686e-07
3.8792e-07
3.8717e-07
3.86439e-07
3.85729e-07
3.85044e-07
3.84388e-07
3.83763e-07
3.83173e-07
3.82622e-07
3.82114e-07
3.81652e-07
3.8124e-07
3.80884e-07
3.80586e-07
3.80352e-07
3.80186e-07
3.80093e-07
3.8008e-07
3.80152e-07
3.80315e-07
3.80577e-07
3.80943e-07
3.81421e-07
3.82018e-07
3.82745e-07
3.8361e-07
3.84629e-07
3.85822e-07
3.87229e-07
4.07059e-07
4.07004e-07
4.06893e-07
4.06726e-07
4.06502e-07
4.06223e-07
4.0589e-07
4.05505e-07
4.05071e-07
4.04589e-07
4.04063e-07
4.03495e-07
4.02887e-07
4.02242e-07
4.01563e-07
4.00853e-07
4.00114e-07
3.99348e-07
3.9856e-07
3.9775e-07
3.96923e-07
3.9608e-07
3.95224e-07
3.94358e-07
3.93484e-07
3.92605e-07
3.91722e-07
3.9084e-07
3.8996e-07
3.89085e-07
3.88217e-07
3.87359e-07
3.86514e-07
3.85684e-07
3.84873e-07
3.84082e-07
3.83315e-07
3.82574e-07
3.81863e-07
3.81185e-07
3.80542e-07
3.79938e-07
3.79375e-07
3.78859e-07
3.78391e-07
3.77975e-07
3.77615e-07
3.77312e-07
3.77071e-07
3.76898e-07
3.76795e-07
3.76768e-07
3.76821e-07
3.76958e-07
3.77183e-07
3.77505e-07
3.77927e-07
3.78467e-07
3.79142e-07
3.80007e-07
4.08786e-07
4.08723e-07
4.08595e-07
4.08402e-07
4.08144e-07
4.07823e-07
4.07441e-07
4.07e-07
4.06504e-07
4.05956e-07
4.05358e-07
4.04714e-07
4.04027e-07
4.03301e-07
4.02538e-07
4.01742e-07
4.00916e-07
4.00062e-07
3.99184e-07
3.98283e-07
3.97364e-07
3.96428e-07
3.95478e-07
3.94517e-07
3.93546e-07
3.92569e-07
3.91588e-07
3.90604e-07
3.89621e-07
3.8864e-07
3.87665e-07
3.86696e-07
3.85737e-07
3.84789e-07
3.83856e-07
3.82939e-07
3.8204e-07
3.81163e-07
3.80308e-07
3.79479e-07
3.78678e-07
3.77908e-07
3.77169e-07
3.76466e-07
3.758e-07
3.75173e-07
3.74588e-07
3.74048e-07
3.73551e-07
3.731e-07
3.72697e-07
3.72346e-07
3.72047e-07
3.71805e-07
3.71617e-07
3.71491e-07
3.71426e-07
3.71441e-07
3.7155e-07
3.71826e-07
4.10987e-07
4.10911e-07
4.1076e-07
4.10532e-07
4.10227e-07
4.09849e-07
4.09399e-07
4.08882e-07
4.08303e-07
4.07665e-07
4.06973e-07
4.06231e-07
4.05443e-07
4.04612e-07
4.03744e-07
4.0284e-07
4.01905e-07
4.00942e-07
3.99953e-07
3.98942e-07
3.97912e-07
3.96864e-07
3.95802e-07
3.94727e-07
3.93643e-07
3.9255e-07
3.91452e-07
3.90351e-07
3.89248e-07
3.88145e-07
3.87044e-07
3.85948e-07
3.84858e-07
3.83776e-07
3.82704e-07
3.81644e-07
3.80597e-07
3.79566e-07
3.78551e-07
3.77555e-07
3.76579e-07
3.75625e-07
3.74694e-07
3.73788e-07
3.72908e-07
3.72055e-07
3.71229e-07
3.70433e-07
3.69663e-07
3.68921e-07
3.68201e-07
3.6751e-07
3.66844e-07
3.66205e-07
3.65588e-07
3.64999e-07
3.64432e-07
3.63908e-07
3.63439e-07
3.63111e-07
4.13749e-07
4.13657e-07
4.13472e-07
4.13193e-07
4.12822e-07
4.12362e-07
4.1182e-07
4.112e-07
4.1051e-07
4.09755e-07
4.0894e-07
4.08072e-07
4.07155e-07
4.06195e-07
4.05195e-07
4.0416e-07
4.03093e-07
4.01998e-07
4.00877e-07
3.99735e-07
3.98574e-07
3.97395e-07
3.96202e-07
3.94997e-07
3.93781e-07
3.92557e-07
3.91326e-07
3.9009e-07
3.88851e-07
3.8761e-07
3.8637e-07
3.85131e-07
3.83896e-07
3.82665e-07
3.81439e-07
3.80222e-07
3.79012e-07
3.77813e-07
3.76624e-07
3.75447e-07
3.74283e-07
3.73133e-07
3.71996e-07
3.70874e-07
3.69766e-07
3.68672e-07
3.67591e-07
3.66524e-07
3.65468e-07
3.64428e-07
3.63397e-07
3.62377e-07
3.61353e-07
3.60327e-07
3.59288e-07
3.58245e-07
3.57189e-07
3.56144e-07
3.55117e-07
3.54212e-07
4.17199e-07
4.1708e-07
4.16843e-07
4.16487e-07
4.16017e-07
4.15439e-07
4.14763e-07
4.13999e-07
4.13156e-07
4.12245e-07
4.11272e-07
4.10246e-07
4.0917e-07
4.08052e-07
4.06895e-07
4.05704e-07
4.04482e-07
4.03234e-07
4.01963e-07
4.00671e-07
3.99361e-07
3.98036e-07
3.96697e-07
3.95346e-07
3.93984e-07
3.92615e-07
3.91238e-07
3.89855e-07
3.88468e-07
3.87078e-07
3.85686e-07
3.84293e-07
3.82901e-07
3.8151e-07
3.80121e-07
3.78735e-07
3.77353e-07
3.75977e-07
3.74605e-07
3.7324e-07
3.71881e-07
3.70529e-07
3.69184e-07
3.67846e-07
3.66514e-07
3.6519e-07
3.6387e-07
3.62555e-07
3.6124e-07
3.59923e-07
3.58593e-07
3.57247e-07
3.55873e-07
3.54476e-07
3.53045e-07
3.51591e-07
3.50093e-07
3.48573e-07
3.47029e-07
3.45573e-07
4.21544e-07
4.21381e-07
4.21056e-07
4.20572e-07
4.19939e-07
4.19173e-07
4.18292e-07
4.17314e-07
4.16255e-07
4.15128e-07
4.13941e-07
4.12704e-07
4.11423e-07
4.10103e-07
4.08749e-07
4.07367e-07
4.0596e-07
4.04533e-07
4.03086e-07
4.01624e-07
4.00148e-07
3.98659e-07
3.97158e-07
3.95648e-07
3.9413e-07
3.92603e-07
3.9107e-07
3.89531e-07
3.87987e-07
3.86438e-07
3.84886e-07
3.83331e-07
3.81773e-07
3.80214e-07
3.78654e-07
3.77093e-07
3.75533e-07
3.73972e-07
3.72412e-07
3.70853e-07
3.69294e-07
3.67736e-07
3.66178e-07
3.64619e-07
3.63057e-07
3.61491e-07
3.59918e-07
3.58337e-07
3.56741e-07
3.55132e-07
3.53503e-07
3.51859e-07
3.50188e-07
3.48498e-07
3.46762e-07
3.44984e-07
3.43128e-07
3.41217e-07
3.39247e-07
3.37344e-07
4.27062e-07
4.26849e-07
4.26417e-07
4.25771e-07
4.24928e-07
4.23914e-07
4.22763e-07
4.21505e-07
4.20166e-07
4.18762e-07
4.17305e-07
4.15805e-07
4.14268e-07
4.12702e-07
4.11111e-07
4.09502e-07
4.07877e-07
4.0624e-07
4.04591e-07
4.02934e-07
4.01268e-07
3.99594e-07
3.97914e-07
3.96227e-07
3.94534e-07
3.92835e-07
3.9113e-07
3.8942e-07
3.87705e-07
3.85985e-07
3.84261e-07
3.82532e-07
3.80799e-07
3.79062e-07
3.77321e-07
3.75577e-07
3.7383e-07
3.7208e-07
3.70328e-07
3.68572e-07
3.66814e-07
3.65053e-07
3.63289e-07
3.61522e-07
3.5975e-07
3.57973e-07
3.56191e-07
3.54401e-07
3.52602e-07
3.50789e-07
3.48959e-07
3.47103e-07
3.4521e-07
3.4327e-07
3.41264e-07
3.39181e-07
3.3701e-07
3.34762e-07
3.32439e-07
3.30136e-07
4.33761e-07
4.33328e-07
4.32541e-07
4.31451e-07
4.30126e-07
4.28637e-07
4.27043e-07
4.25381e-07
4.23673e-07
4.2193e-07
4.20159e-07
4.18364e-07
4.16552e-07
4.14729e-07
4.129e-07
4.11069e-07
4.09236e-07
4.07402e-07
4.05567e-07
4.03729e-07
4.0189e-07
4.00047e-07
3.98201e-07
3.96351e-07
3.94496e-07
3.92636e-07
3.9077e-07
3.88898e-07
3.87019e-07
3.85134e-07
3.83241e-07
3.81341e-07
3.79433e-07
3.77518e-07
3.75596e-07
3.73666e-07
3.7173e-07
3.69786e-07
3.67835e-07
3.65877e-07
3.63913e-07
3.61939e-07
3.59961e-07
3.57971e-07
3.55977e-07
3.53969e-07
3.51956e-07
3.49923e-07
3.47886e-07
3.45822e-07
3.43754e-07
3.4165e-07
3.39543e-07
3.37392e-07
3.35243e-07
3.33034e-07
3.30836e-07
3.2856e-07
3.26304e-07
3.23965e-07
4.45495e-07
4.44744e-07
4.4333e-07
4.41378e-07
4.39093e-07
4.36673e-07
4.34242e-07
4.31852e-07
4.29506e-07
4.2719e-07
4.24896e-07
4.22623e-07
4.20376e-07
4.18161e-07
4.1598e-07
4.1383e-07
4.11708e-07
4.09607e-07
4.07525e-07
4.05456e-07
4.03398e-07
4.01348e-07
3.99303e-07
3.97262e-07
3.95221e-07
3.93178e-07
3.91132e-07
3.89082e-07
3.87025e-07
3.84962e-07
3.82891e-07
3.80811e-07
3.78722e-07
3.76623e-07
3.74516e-07
3.72398e-07
3.70272e-07
3.68134e-07
3.6599e-07
3.63832e-07
3.61671e-07
3.59494e-07
3.57317e-07
3.55121e-07
3.5293e-07
3.50716e-07
3.48516e-07
3.46284e-07
3.4408e-07
3.41833e-07
3.39638e-07
3.3738e-07
3.35214e-07
3.32953e-07
3.30847e-07
3.28594e-07
3.26597e-07
3.24355e-07
3.22501e-07
3.20174e-07
4.54234e-07
4.52507e-07
4.49862e-07
4.46736e-07
4.43519e-07
4.40424e-07
4.37501e-07
4.34713e-07
4.32011e-07
4.29363e-07
4.26764e-07
4.2422e-07
4.21737e-07
4.19315e-07
4.16947e-07
4.14624e-07
4.12338e-07
4.1008e-07
4.07844e-07
4.05626e-07
4.0342e-07
4.01224e-07
3.99034e-07
3.96846e-07
3.94657e-07
3.92465e-07
3.90267e-07
3.88062e-07
3.85848e-07
3.83624e-07
3.81389e-07
3.79142e-07
3.76884e-07
3.74612e-07
3.7233e-07
3.70033e-07
3.67727e-07
3.65406e-07
3.63077e-07
3.60733e-07
3.58384e-07
3.56017e-07
3.53651e-07
3.51263e-07
3.48883e-07
3.46472e-07
3.44084e-07
3.41647e-07
3.39258e-07
3.36793e-07
3.34427e-07
3.31936e-07
3.29645e-07
3.27146e-07
3.25062e-07
3.22618e-07
3.21069e-07
3.18756e-07
3.1834e-07
3.15725e-07
5.02277e-07
4.88154e-07
4.74387e-07
4.63809e-07
4.56386e-07
4.50994e-07
4.46543e-07
4.42463e-07
4.38586e-07
4.34921e-07
4.31503e-07
4.28338e-07
4.2539e-07
4.22612e-07
4.19955e-07
4.17388e-07
4.14887e-07
4.12441e-07
4.10038e-07
4.0767e-07
4.05328e-07
4.03004e-07
4.00692e-07
3.98387e-07
3.96083e-07
3.93778e-07
3.91468e-07
3.89151e-07
3.86825e-07
3.84489e-07
3.8214e-07
3.79779e-07
3.77405e-07
3.75018e-07
3.72618e-07
3.70204e-07
3.67779e-07
3.65341e-07
3.62892e-07
3.60433e-07
3.57963e-07
3.55485e-07
3.52998e-07
3.50502e-07
3.47999e-07
3.45487e-07
3.42968e-07
3.40437e-07
3.379e-07
3.3534e-07
3.32781e-07
3.30169e-07
3.2759e-07
3.24866e-07
3.22307e-07
3.19265e-07
3.17013e-07
3.12714e-07
3.12501e-07
3.02088e-07
3.41909e-07
2.91482e-07
2.70613e-07
2.53338e-07
2.36127e-07
2.18897e-07
1.99655e-07
1.79119e-07
1.55162e-07
1.29341e-07
9.94351e-08
6.80579e-08
3.27942e-08
-2.61373e-09
-4.08774e-08
-7.72063e-08
-1.15013e-07
-1.486e-07
-1.82083e-07
-2.0945e-07
-2.35645e-07
-2.54215e-07
-2.71508e-07
-2.80379e-07
-2.89079e-07
-2.88785e-07
-2.92418e-07
-2.8525e-07
-2.8878e-07
-3.3951e-07
3.27968e-07
2.73106e-07
2.59235e-07
2.44626e-07
2.2816e-07
2.11349e-07
1.92393e-07
1.71994e-07
1.48216e-07
1.22747e-07
9.34541e-08
6.29284e-08
2.88091e-08
-5.29458e-09
-4.20942e-08
-7.7007e-08
-1.13161e-07
-1.45538e-07
-1.78015e-07
-2.04647e-07
-2.30842e-07
-2.49489e-07
-2.67622e-07
-2.76914e-07
-2.87285e-07
-2.87144e-07
-2.91328e-07
-2.86757e-07
-2.74704e-07
-3.81847e-07
3.15769e-07
2.70762e-07
2.57905e-07
2.43786e-07
2.26773e-07
2.08973e-07
1.89493e-07
1.68762e-07
1.44913e-07
1.19333e-07
9.0229e-08
5.98364e-08
2.61808e-08
-7.52243e-09
-4.36378e-08
-7.7944e-08
-1.1362e-07
-1.45482e-07
-1.77812e-07
-2.04101e-07
-2.30146e-07
-2.48685e-07
-2.67318e-07
-2.7688e-07
-2.87627e-07
-2.89499e-07
-2.92597e-07
-2.96453e-07
-2.69179e-07
-3.60169e-07
3.05602e-07
2.66745e-07
2.51798e-07
2.38262e-07
2.22014e-07
2.04769e-07
1.85406e-07
1.645e-07
1.40642e-07
1.14918e-07
8.60288e-08
5.57003e-08
2.26019e-08
-1.07999e-08
-4.60808e-08
-8.00248e-08
-1.14793e-07
-1.46353e-07
-1.77751e-07
-2.04306e-07
-2.30117e-07
-2.49602e-07
-2.68036e-07
-2.79781e-07
-2.89534e-07
-2.95677e-07
-2.94893e-07
-3.09278e-07
-2.72855e-07
-3.407e-07
2.95795e-07
2.64214e-07
2.48459e-07
2.36037e-07
2.20233e-07
2.02203e-07
1.82314e-07
1.60835e-07
1.36874e-07
1.10734e-07
8.19928e-08
5.14038e-08
1.88217e-08
-1.4659e-08
-4.90789e-08
-8.30691e-08
-1.16772e-07
-1.48681e-07
-1.79094e-07
-2.06689e-07
-2.31448e-07
-2.53046e-07
-2.70203e-07
-2.85467e-07
-2.92884e-07
-3.0488e-07
-2.97991e-07
-3.16104e-07
-2.83234e-07
-3.16768e-07
2.87225e-07
2.62524e-07
2.45999e-07
2.33055e-07
2.17498e-07
1.99343e-07
1.79237e-07
1.5722e-07
1.33091e-07
1.06462e-07
7.77845e-08
4.68066e-08
1.46472e-08
-1.90972e-08
-5.27063e-08
-8.69815e-08
-1.19597e-07
-1.52116e-07
-1.8134e-07
-2.10185e-07
-2.33781e-07
-2.57677e-07
-2.73457e-07
-2.92193e-07
-2.97504e-07
-3.12612e-07
-3.04668e-07
-3.19334e-07
-2.99e-07
-3.09671e-07
2.80241e-07
2.61022e-07
2.44471e-07
2.30582e-07
2.15106e-07
1.96833e-07
1.76464e-07
1.53805e-07
1.29355e-07
1.0215e-07
7.3395e-08
4.19605e-08
1.00645e-08
-2.39914e-08
-5.69617e-08
-9.15245e-08
-1.23226e-07
-1.56261e-07
-1.84504e-07
-2.1438e-07
-2.37164e-07
-2.62725e-07
-2.78028e-07
-2.98507e-07
-3.04364e-07
-3.19476e-07
-3.15393e-07
-3.24399e-07
-3.15197e-07
-3.15078e-07
2.75076e-07
2.59602e-07
2.43565e-07
2.2867e-07
2.12936e-07
1.94439e-07
1.73744e-07
1.50439e-07
1.25522e-07
9.773e-08
6.87294e-08
3.6879e-08
5.02688e-09
-2.92415e-08
-6.18597e-08
-9.64983e-08
-1.27674e-07
-1.60827e-07
-1.88662e-07
-2.18881e-07
-2.41772e-07
-2.67842e-07
-2.84267e-07
-3.04752e-07
-3.13451e-07
-3.26901e-07
-3.28464e-07
-3.3301e-07
-3.3014e-07
-3.27233e-07
2.71771e-07
2.5825e-07
2.42864e-07
2.2728e-07
2.10985e-07
1.92092e-07
1.7097e-07
1.47047e-07
1.21532e-07
9.31717e-08
6.37492e-08
3.15615e-08
-4.76842e-10
-3.47994e-08
-6.73793e-08
-1.01818e-07
-1.32899e-07
-1.65727e-07
-1.93745e-07
-2.23654e-07
-2.47446e-07
-2.73188e-07
-2.91657e-07
-3.11572e-07
-3.23795e-07
-3.35976e-07
-3.41615e-07
-3.4523e-07
-3.4486e-07
-3.42436e-07
2.70031e-07
2.57046e-07
2.422e-07
2.26211e-07
2.09195e-07
1.89732e-07
1.68051e-07
1.43528e-07
1.17319e-07
8.8411e-08
5.84222e-08
2.59642e-08
-6.43801e-09
-4.06894e-08
-7.34582e-08
-1.07502e-07
-1.3877e-07
-1.71004e-07
-1.99516e-07
-2.28811e-07
-2.53749e-07
-2.79011e-07
-2.99496e-07
-3.19252e-07
-3.34137e-07
-3.46725e-07
-3.54806e-07
-3.59516e-07
-3.6069e-07
-3.59707e-07
2.69355e-07
2.5613e-07
2.41465e-07
2.25186e-07
2.0743e-07
1.87278e-07
1.64909e-07
1.39777e-07
1.12815e-07
8.3365e-08
5.27235e-08
2.00159e-08
-1.2837e-08
-4.69757e-08
-8.00164e-08
-1.13614e-07
-1.45123e-07
-1.76736e-07
-2.05702e-07
-2.34455e-07
-2.60308e-07
-2.85416e-07
-3.07395e-07
-3.27672e-07
-3.44464e-07
-3.58383e-07
-3.6845e-07
-3.75034e-07
-3.78008e-07
-3.78856e-07
2.69179e-07
2.55525e-07
2.40675e-07
2.24018e-07
2.05522e-07
1.84625e-07
1.61472e-07
1.35697e-07
1.07952e-07
7.79407e-08
4.66156e-08
1.36316e-08
-1.96774e-08
-5.3736e-08
-8.70141e-08
-1.20223e-07
-1.51868e-07
-1.8297e-07
-2.12174e-07
-2.4059e-07
-2.67007e-07
-2.9229e-07
-3.15319e-07
-3.36536e-07
-3.54896e-07
-3.70556e-07
-3.82621e-07
-3.91421e-07
-3.96585e-07
-3.9982e-07
2.69119e-07
2.55087e-07
2.39787e-07
2.2259e-07
2.03329e-07
1.81661e-07
1.57674e-07
1.31199e-07
1.02651e-07
7.20379e-08
4.00275e-08
6.71599e-09
-2.70173e-08
-6.10558e-08
-9.44916e-08
-1.27393e-07
-1.59033e-07
-1.89725e-07
-2.18961e-07
-2.47161e-07
-2.73897e-07
-2.99476e-07
-3.23356e-07
-3.45624e-07
-3.65525e-07
-3.83031e-07
-3.97306e-07
-4.08518e-07
-4.16346e-07
-4.22284e-07
2.68956e-07
2.54618e-07
2.38722e-07
2.20845e-07
2.00775e-07
1.78306e-07
1.53444e-07
1.26198e-07
9.68127e-08
6.55442e-08
3.28445e-08
-8.47275e-10
-3.49776e-08
-6.90436e-08
-1.02569e-07
-1.35204e-07
-1.6673e-07
-1.9704e-07
-2.26166e-07
-2.54147e-07
-2.8106e-07
-3.06904e-07
-3.31555e-07
-3.54841e-07
-3.76328e-07
-3.95703e-07
-4.12387e-07
-4.26192e-07
-4.37055e-07
-4.46024e-07
2.68636e-07
2.53947e-07
2.37404e-07
2.18768e-07
1.97833e-07
1.74498e-07
1.48703e-07
1.20595e-07
9.03152e-08
5.83212e-08
2.49117e-08
-9.21128e-09
-4.37273e-08
-7.7848e-08
-1.11416e-07
-1.43781e-07
-1.75109e-07
-2.04995e-07
-2.33898e-07
-2.61575e-07
-2.88549e-07
-3.14544e-07
-3.39887e-07
-3.64094e-07
-3.87181e-07
-4.08423e-07
-4.27678e-07
-4.4424e-07
-4.58467e-07
-4.70754e-07
2.68221e-07
2.53049e-07
2.3583e-07
2.16379e-07
1.94501e-07
1.70188e-07
1.43354e-07
1.14262e-07
8.30044e-08
5.01938e-08
1.60387e-08
-1.85711e-08
-5.34656e-08
-8.76571e-08
-1.21214e-07
-1.53278e-07
-1.84315e-07
-2.13695e-07
-2.42248e-07
-2.69487e-07
-2.96368e-07
-3.22353e-07
-3.48238e-07
-3.7324e-07
-3.9785e-07
-4.20954e-07
-4.42873e-07
-4.62371e-07
-4.80239e-07
-4.96194e-07
2.6789e-07
2.52014e-07
2.34049e-07
2.137e-07
1.90755e-07
1.65292e-07
1.37261e-07
1.07025e-07
7.4682e-08
4.09445e-08
5.99997e-09
-2.91545e-08
-6.44111e-08
-9.86771e-08
-1.32149e-07
-1.63859e-07
-1.94478e-07
-2.23246e-07
-2.51275e-07
-2.77914e-07
-3.04482e-07
-3.30251e-07
-3.56439e-07
-3.82057e-07
-4.08005e-07
-4.32935e-07
-4.57497e-07
-4.80141e-07
-5.01876e-07
-5.22012e-07
2.67874e-07
2.50995e-07
2.32101e-07
2.10679e-07
1.86471e-07
1.59632e-07
1.30208e-07
9.86413e-08
6.509e-08
3.03089e-08
-5.46839e-09
-4.12143e-08
-7.67991e-08
-1.1112e-07
-1.44404e-07
-1.75683e-07
-2.05726e-07
-2.33746e-07
-2.61038e-07
-2.86875e-07
-3.12856e-07
-3.38138e-07
-3.64317e-07
-3.90263e-07
-4.17277e-07
-4.43864e-07
-4.70962e-07
-4.96877e-07
-5.22697e-07
-5.4757e-07
2.68277e-07
2.50092e-07
2.29931e-07
2.07117e-07
1.81373e-07
1.52906e-07
1.21878e-07
8.87906e-08
5.39004e-08
1.79675e-08
-1.86782e-08
-5.50385e-08
-9.08976e-08
-1.25226e-07
-1.58196e-07
-1.8894e-07
-2.18218e-07
-2.45331e-07
-2.71634e-07
-2.96431e-07
-3.21502e-07
-3.45954e-07
-3.71731e-07
-3.97577e-07
-4.25281e-07
-4.53141e-07
-4.82565e-07
-5.11641e-07
-5.41673e-07
-5.71666e-07
2.68817e-07
2.49053e-07
2.27187e-07
2.0258e-07
1.74996e-07
1.44653e-07
1.11819e-07
7.70338e-08
4.06782e-08
3.50416e-09
-3.40332e-08
-7.10018e-08
-1.07063e-07
-1.41321e-07
-1.73832e-07
-2.03915e-07
-2.32217e-07
-2.5824e-07
-2.83256e-07
-3.06744e-07
-3.30499e-07
-3.53721e-07
-3.78578e-07
-4.03765e-07
-4.31607e-07
-4.60093e-07
-4.91444e-07
-5.23151e-07
-5.57324e-07
-5.92156e-07
2.68788e-07
2.47188e-07
2.23253e-07
1.96493e-07
1.66759e-07
1.34285e-07
9.94323e-08
6.2775e-08
2.48285e-08
-1.36589e-08
-5.20997e-08
-8.96405e-08
-1.25813e-07
-1.59884e-07
-1.91772e-07
-2.21033e-07