/*--------------------------------*- C++ -*----------------------------------*\
| =========                 |                                                 |
| \\      /  F ield         | OpenFOAM: The Open Source CFD Toolbox           |
|  \\    /   O peration     | Version:  2312                                  |
|   \\  /    A nd           | Website:  www.openfoam.com                      |
|    \\/     M anipulation  |                                                 |
\*---------------------------------------------------------------------------*/
FoamFile
{
    version     2.0;
    format      ascii;
    arch        "LSB;label=32;scalar=64";
    class       volScalarField;
    location    "163000";
    object      p;
}
// * * * * * * * * * * * * * * * * * * * * * * * * * * * * * * * * * * * * * //

dimensions      [0 2 -2 0 0 0 0];

internalField   nonuniform List<scalar> 
2685
(
-1.27828e-07
-1.33118e-07
-1.28085e-07
-1.23729e-07
-1.19795e-07
-1.15004e-07
-1.08898e-07
-1.01565e-07
-9.32238e-08
-8.40536e-08
-7.41607e-08
-6.36141e-08
-5.2471e-08
-4.0787e-08
-2.86219e-08
-1.60384e-08
-3.10301e-09
1.01162e-08
2.3552e-08
3.71116e-08
5.0689e-08
6.41741e-08
7.74422e-08
9.03576e-08
1.02773e-07
1.14528e-07
1.25438e-07
1.35246e-07
1.43788e-07
1.51055e-07
1.57248e-07
1.62743e-07
1.68011e-07
1.73457e-07
1.79327e-07
1.85713e-07
1.92526e-07
1.99451e-07
2.06146e-07
2.12474e-07
2.17776e-07
2.21541e-07
2.23337e-07
2.2289e-07
2.20284e-07
2.15967e-07
2.10374e-07
2.035e-07
1.95023e-07
1.84654e-07
1.7273e-07
1.58619e-07
1.42416e-07
1.24136e-07
1.03936e-07
8.20658e-08
5.87991e-08
3.44761e-08
9.62699e-09
-1.56647e-08
-4.09993e-08
-6.59208e-08
-8.99779e-08
-1.12754e-07
-1.34029e-07
-1.53232e-07
-1.70135e-07
-1.84395e-07
-1.95786e-07
-2.04179e-07
-2.0954e-07
-2.11923e-07
-2.11459e-07
-2.0826e-07
-2.02891e-07
-1.95594e-07
-1.86677e-07
-1.76478e-07
-1.65348e-07
-1.53627e-07
-1.41636e-07
-1.29671e-07
-1.17992e-07
-1.06815e-07
-9.63121e-08
-8.66152e-08
-7.78081e-08
-6.99418e-08
-6.30384e-08
-5.70987e-08
-1.63602e-07
-1.50924e-07
-1.44686e-07
-1.38489e-07
-1.31142e-07
-1.22879e-07
-1.14066e-07
-1.04861e-07
-9.52513e-08
-8.5184e-08
-7.46262e-08
-6.35707e-08
-5.20266e-08
-4.00217e-08
-2.75998e-08
-1.48121e-08
-1.71886e-09
1.16293e-08
2.51823e-08
3.88666e-08
5.25751e-08
6.61881e-08
7.95749e-08
9.25921e-08
1.05058e-07
1.16772e-07
1.27523e-07
1.36964e-07
1.44666e-07
1.50414e-07
1.54571e-07
1.57883e-07
1.61293e-07
1.65688e-07
1.71617e-07
1.79186e-07
1.88308e-07
1.98595e-07
2.09482e-07
2.20374e-07
2.30527e-07
2.39319e-07
2.45756e-07
2.48958e-07
2.48447e-07
2.443e-07
2.36863e-07
2.26316e-07
2.12729e-07
1.96923e-07
1.79176e-07
1.60055e-07
1.39707e-07
1.18587e-07
9.71519e-08
7.56792e-08
5.40535e-08
3.18226e-08
8.15576e-09
-1.69179e-08
-4.26951e-08
-6.87138e-08
-9.44286e-08
-1.19221e-07
-1.42458e-07
-1.63489e-07
-1.81857e-07
-1.97212e-07
-2.09279e-07
-2.17922e-07
-2.23128e-07
-2.24993e-07
-2.23695e-07
-2.19735e-07
-2.13202e-07
-2.04556e-07
-1.94222e-07
-1.82604e-07
-1.70087e-07
-1.57042e-07
-1.43843e-07
-1.30815e-07
-1.18233e-07
-1.06322e-07
-9.52552e-08
-8.51549e-08
-7.60881e-08
-6.80747e-08
-6.11002e-08
-5.51345e-08
-1.79887e-07
-1.67188e-07
-1.59049e-07
-1.51211e-07
-1.4221e-07
-1.32038e-07
-1.2114e-07
-1.09905e-07
-9.84994e-08
-8.69196e-08
-7.50896e-08
-6.29383e-08
-5.04492e-08
-3.76591e-08
-2.46252e-08
-1.14026e-08
1.95609e-09
1.54033e-08
2.89021e-08
4.23983e-08
5.58214e-08
6.90819e-08
8.2084e-08
9.47465e-08
1.06974e-07
1.187e-07
1.29786e-07
1.40111e-07
1.49666e-07
1.58653e-07
1.67082e-07
1.74928e-07
1.82294e-07
1.89361e-07
1.96303e-07
2.03137e-07
2.09701e-07
2.15953e-07
2.22143e-07
2.27253e-07
2.31079e-07
2.32916e-07
2.32697e-07
2.30297e-07
2.25615e-07
2.19318e-07
2.12751e-07
2.062e-07
1.99167e-07
1.91816e-07
1.83917e-07
1.74363e-07
1.61267e-07
1.43872e-07
1.22254e-07
9.68959e-08
6.84657e-08
3.75753e-08
5.22215e-09
-2.722e-08
-5.92139e-08
-8.97688e-08
-1.18207e-07
-1.44098e-07
-1.6722e-07
-1.87563e-07
-2.04869e-07
-2.18869e-07
-2.29447e-07
-2.3656e-07
-2.40247e-07
-2.40644e-07
-2.37974e-07
-2.32068e-07
-2.2392e-07
-2.13695e-07
-2.01749e-07
-1.88488e-07
-1.74343e-07
-1.59739e-07
-1.45052e-07
-1.30625e-07
-1.16754e-07
-1.03676e-07
-9.1573e-08
-8.05711e-08
-7.07458e-08
-6.21267e-08
-5.47063e-08
-4.84587e-08
-2.10821e-07
-1.97357e-07
-1.85729e-07
-1.74053e-07
-1.61523e-07
-1.48117e-07
-1.34186e-07
-1.20086e-07
-1.06015e-07
-9.20135e-08
-7.80161e-08
-6.39313e-08
-4.97255e-08
-3.54444e-08
-2.11636e-08
-6.93251e-09
7.23087e-09
2.13129e-08
3.52829e-08
4.90948e-08
6.2696e-08
7.60441e-08
8.91038e-08
1.01753e-07
1.13953e-07
1.25534e-07
1.36492e-07
1.46767e-07
1.56252e-07
1.64904e-07
1.72719e-07
1.79747e-07
1.86129e-07
1.92042e-07
1.97647e-07
2.03067e-07
2.0828e-07
2.13134e-07
2.17243e-07
2.20866e-07
2.23308e-07
2.24308e-07
2.24633e-07
2.23816e-07
2.21339e-07
2.16988e-07
2.10944e-07
2.03303e-07
1.94082e-07
1.82885e-07
1.6885e-07
1.5121e-07
1.30621e-07
1.0769e-07
8.34255e-08
5.88586e-08
3.43027e-08
9.28439e-09
-1.64219e-08
-4.2695e-08
-6.93748e-08
-9.68404e-08
-1.24694e-07
-1.51943e-07
-1.77577e-07
-2.00646e-07
-2.20426e-07
-2.36275e-07
-2.47802e-07
-2.54958e-07
-2.57865e-07
-2.5674e-07
-2.51909e-07
-2.44308e-07
-2.33872e-07
-2.21408e-07
-2.07385e-07
-1.9229e-07
-1.76591e-07
-1.60699e-07
-1.44985e-07
-1.29778e-07
-1.15357e-07
-1.01942e-07
-8.96974e-08
-7.87307e-08
-6.91008e-08
-6.08185e-08
-5.38309e-08
-4.80608e-08
-2.46397e-07
-2.29407e-07
-2.1358e-07
-1.97846e-07
-1.81593e-07
-1.64725e-07
-1.47491e-07
-1.30214e-07
-1.13091e-07
-9.61914e-08
-7.95142e-08
-6.30192e-08
-4.66789e-08
-3.05166e-08
-1.45888e-08
1.05625e-09
1.63865e-08
3.13732e-08
4.59882e-08
6.02049e-08
7.39969e-08
8.7333e-08
1.00179e-07
1.12513e-07
1.24439e-07
1.35745e-07
1.46388e-07
1.56342e-07
1.65574e-07
1.74076e-07
1.81869e-07
1.88978e-07
1.95416e-07
2.01179e-07
2.06251e-07
2.10618e-07
2.14225e-07
2.16953e-07
2.18709e-07
2.19422e-07
2.18918e-07
2.17334e-07
2.1434e-07
2.09973e-07
2.03678e-07
1.95581e-07
1.86005e-07
1.75116e-07
1.62792e-07
1.48765e-07
1.32691e-07
1.14713e-07
9.5643e-08
7.62095e-08
5.59734e-08
3.45571e-08
1.19787e-08
-1.17456e-08
-3.65176e-08
-6.24618e-08
-8.98936e-08
-1.17977e-07
-1.45123e-07
-1.70119e-07
-1.92356e-07
-2.11492e-07
-2.27255e-07
-2.3945e-07
-2.48e-07
-2.52952e-07
-2.54426e-07
-2.52545e-07
-2.4748e-07
-2.39559e-07
-2.29265e-07
-2.16939e-07
-2.03179e-07
-1.88018e-07
-1.72343e-07
-1.56563e-07
-1.41053e-07
-1.26143e-07
-1.12102e-07
-9.91222e-08
-8.73309e-08
-7.67978e-08
-6.75663e-08
-5.96409e-08
-5.30022e-08
-4.76039e-08
-2.86763e-07
-2.66553e-07
-2.47304e-07
-2.28133e-07
-2.08432e-07
-1.88004e-07
-1.67051e-07
-1.45981e-07
-1.25143e-07
-1.04733e-07
-8.48144e-08
-6.53829e-08
-4.64268e-08
-2.79547e-08
-1e-08
7.38883e-09
2.41683e-08
4.03147e-08
5.58274e-08
7.07226e-08
8.50192e-08
9.87066e-08
1.11751e-07
1.24269e-07
1.35796e-07
1.46788e-07
1.57156e-07
1.66809e-07
1.75679e-07
1.83725e-07
1.90927e-07
1.97238e-07
2.0261e-07
2.07012e-07
2.10432e-07
2.12859e-07
2.14271e-07
2.14621e-07
2.13858e-07
2.11929e-07
2.08755e-07
2.04239e-07
1.98279e-07
1.90836e-07
1.819e-07
1.71388e-07
1.59415e-07
1.4625e-07
1.31752e-07
1.16034e-07
9.9029e-08
8.09249e-08
6.20367e-08
4.25027e-08
2.20361e-08
3.34796e-10
-2.24977e-08
-4.60008e-08
-6.96829e-08
-9.31757e-08
-1.15989e-07
-1.37481e-07
-1.57163e-07
-1.74835e-07
-1.90443e-07
-2.03884e-07
-2.14974e-07
-2.23491e-07
-2.29243e-07
-2.32112e-07
-2.3206e-07
-2.29138e-07
-2.23539e-07
-2.15583e-07
-2.05682e-07
-1.94277e-07
-1.81676e-07
-1.68582e-07
-1.54873e-07
-1.40992e-07
-1.27479e-07
-1.14545e-07
-1.02469e-07
-9.13865e-08
-8.14073e-08
-7.26035e-08
-6.49964e-08
-5.85837e-08
-5.33387e-08
-4.92069e-08
-3.27395e-07
-3.05661e-07
-2.84499e-07
-2.62692e-07
-2.39768e-07
-2.15811e-07
-1.91258e-07
-1.66628e-07
-1.42332e-07
-1.18603e-07
-9.55599e-08
-7.32372e-08
-5.16399e-08
-3.07958e-08
-1.07676e-08
8.38227e-09
2.66338e-08
4.4019e-08
6.05972e-08
7.64225e-08
9.15327e-08
1.05978e-07
1.1974e-07
1.32496e-07
1.44698e-07
1.56017e-07
1.66462e-07
1.76123e-07
1.84938e-07
1.9279e-07
1.99551e-07
2.05117e-07
2.09404e-07
2.12338e-07
2.13964e-07
2.14347e-07
2.13491e-07
2.11346e-07
2.0784e-07
2.02904e-07
1.96489e-07
1.88556e-07
1.79087e-07
1.68105e-07
1.55654e-07
1.41837e-07
1.26748e-07
1.10217e-07
9.24244e-08
7.38472e-08
5.3965e-08
3.37415e-08
1.31575e-08
-7.71831e-09
-2.87034e-08
-4.96144e-08
-7.01611e-08
-9.00374e-08
-1.09029e-07
-1.26968e-07
-1.43683e-07
-1.59017e-07
-1.7281e-07
-1.84869e-07
-1.94965e-07
-2.02853e-07
-2.08323e-07
-2.11273e-07
-2.11732e-07
-2.09845e-07
-2.05836e-07
-1.99962e-07
-1.92501e-07
-1.83739e-07
-1.73945e-07
-1.63384e-07
-1.52321e-07
-1.41017e-07
-1.29759e-07
-1.18845e-07
-1.08301e-07
-9.83091e-08
-8.89775e-08
-8.04844e-08
-7.28994e-08
-6.62481e-08
-6.05524e-08
-5.58205e-08
-5.20403e-08
-4.91756e-08
-3.85564e-07
-3.58715e-07
-3.33308e-07
-3.0721e-07
-2.79635e-07
-2.50754e-07
-2.21399e-07
-1.92447e-07
-1.64451e-07
-1.37619e-07
-1.11895e-07
-8.71357e-08
-6.3222e-08
-4.0119e-08
-1.78563e-08
3.53384e-09
2.40516e-08
4.37266e-08
6.2598e-08
8.06897e-08
9.79704e-08
1.14377e-07
1.29987e-07
1.4465e-07
1.57999e-07
1.69463e-07
1.78927e-07
1.86674e-07
1.93356e-07
1.99461e-07
2.05069e-07
2.09955e-07
2.13804e-07
2.16401e-07
2.17542e-07
2.17094e-07
2.14998e-07
2.11233e-07
2.05778e-07
1.98595e-07
1.89627e-07
1.78792e-07
1.66029e-07
1.51319e-07
1.34683e-07
1.16217e-07
9.60747e-08
7.44803e-08
5.17821e-08
2.8011e-08
4.41809e-09
-1.95044e-08
-4.3186e-08
-6.62818e-08
-8.84504e-08
-1.09618e-07
-1.29326e-07
-1.47301e-07
-1.63353e-07
-1.77346e-07
-1.89211e-07
-1.98906e-07
-2.06378e-07
-2.11569e-07
-2.14452e-07
-2.15061e-07
-2.13502e-07
-2.0994e-07
-2.04572e-07
-1.97627e-07
-1.89354e-07
-1.80018e-07
-1.69888e-07
-1.59242e-07
-1.48357e-07
-1.37494e-07
-1.26861e-07
-1.16625e-07
-1.06906e-07
-9.77687e-08
-8.92467e-08
-8.1414e-08
-7.43474e-08
-6.80969e-08
-6.26875e-08
-5.8133e-08
-5.44307e-08
-5.1562e-08
-4.94839e-08
-4.81321e-08
-4.85256e-07
-4.49426e-07
-4.1481e-07
-3.79055e-07
-3.41806e-07
-3.03929e-07
-2.66535e-07
-2.30388e-07
-1.95908e-07
-1.6321e-07
-1.32173e-07
-1.0259e-07
-7.43007e-08
-4.72635e-08
-2.15045e-08
2.97915e-09
2.62787e-08
4.8535e-08
6.9816e-08
8.99885e-08
1.08707e-07
1.25595e-07
1.4058e-07
1.54459e-07
1.67529e-07
1.79535e-07
1.90736e-07
2.00338e-07
2.07898e-07
2.13242e-07
2.16466e-07
2.1791e-07
2.17934e-07
2.16865e-07
2.14917e-07
2.12155e-07
2.08511e-07
2.0382e-07
1.9786e-07
1.90384e-07
1.81141e-07
1.6989e-07
1.56424e-07
1.40591e-07
1.22312e-07
1.01598e-07
7.85677e-08
5.346e-08
2.66204e-08
-1.51093e-09
-3.03373e-08
-5.93162e-08
-8.79239e-08
-1.15308e-07
-1.40643e-07
-1.66221e-07
-1.88659e-07
-2.07938e-07
-2.23979e-07
-2.36677e-07
-2.45981e-07
-2.51895e-07
-2.54485e-07
-2.53883e-07
-2.50303e-07
-2.44049e-07
-2.35493e-07
-2.25051e-07
-2.13146e-07
-2.00199e-07
-1.86611e-07
-1.72743e-07
-1.58912e-07
-1.45403e-07
-1.32449e-07
-1.20212e-07
-1.08823e-07
-9.83933e-08
-8.8987e-08
-8.06102e-08
-7.32602e-08
-6.69476e-08
-6.16683e-08
-5.73821e-08
-5.40146e-08
-5.14728e-08
-4.96635e-08
-4.85029e-08
-4.7923e-08
-4.78601e-08
-6.13821e-07
-5.69335e-07
-5.24353e-07
-4.77332e-07
-4.27952e-07
-3.77252e-07
-3.27057e-07
-2.79051e-07
-2.34148e-07
-1.92526e-07
-1.53865e-07
-1.17691e-07
-8.36039e-08
-5.13638e-08
-2.08639e-08
7.93221e-09
3.50055e-08
6.02338e-08
8.34213e-08
1.04489e-07
1.23608e-07
1.41002e-07
1.56459e-07
1.69171e-07
1.78351e-07
1.83787e-07
1.85076e-07
1.8366e-07
1.81087e-07
1.78481e-07
1.76167e-07
1.74384e-07
1.7273e-07
1.71103e-07
1.69351e-07
1.67349e-07
1.6495e-07
1.61957e-07
1.5811e-07
1.53102e-07
1.46591e-07
1.38213e-07
1.27606e-07
1.14434e-07
9.84171e-08
7.93716e-08
5.72443e-08
3.21461e-08
4.35593e-09
-2.56822e-08
-5.73667e-08
-9.0027e-08
-1.22971e-07
-1.55518e-07
-1.87214e-07
-2.14498e-07
-2.39618e-07
-2.61459e-07
-2.7946e-07
-2.93302e-07
-3.0274e-07
-3.07659e-07
-3.0811e-07
-3.04305e-07
-2.96599e-07
-2.85462e-07
-2.71457e-07
-2.55188e-07
-2.37264e-07
-2.18288e-07
-1.98852e-07
-1.79508e-07
-1.60763e-07
-1.43056e-07
-1.26713e-07
-1.11945e-07
-9.89002e-08
-8.76217e-08
-7.80137e-08
-6.99538e-08
-6.33966e-08
-5.82934e-08
-5.4464e-08
-5.16187e-08
-4.9512e-08
-4.80508e-08
-4.72424e-08
-4.70728e-08
-4.7465e-08
-4.82997e-08
-7.37827e-07
-6.89092e-07
-6.3701e-07
-5.80976e-07
-5.21416e-07
-4.6022e-07
-3.99599e-07
-3.40961e-07
-2.84955e-07
-2.31958e-07
-1.82235e-07
-1.35988e-07
-9.35698e-08
-5.54083e-08
-2.15587e-08
8.35168e-09
3.49821e-08
5.89347e-08
8.05059e-08
9.92421e-08
1.13786e-07
1.2291e-07
1.26679e-07
1.26441e-07
1.23436e-07
1.1846e-07
1.1191e-07
1.04405e-07
9.68012e-08
9.00949e-08
8.56328e-08
8.11235e-08
7.78708e-08
7.59361e-08
7.52049e-08
7.54294e-08
7.62602e-08
7.72844e-08
7.80558e-08
7.81166e-08
7.70126e-08
7.42989e-08
6.95394e-08
6.23019e-08
5.21671e-08
3.87502e-08
2.17522e-08
1.01591e-09
-2.34125e-08
-5.1248e-08
-8.19534e-08
-1.1478e-07
-1.48815e-07
-1.83042e-07
-2.16363e-07
-2.47564e-07
-2.75981e-07
-3.0099e-07
-3.21632e-07
-3.38453e-07
-3.49921e-07
-3.56046e-07
-3.56912e-07
-3.52667e-07
-3.43609e-07
-3.30185e-07
-3.12972e-07
-2.92663e-07
-2.70044e-07
-2.45982e-07
-2.2136e-07
-1.97002e-07
-1.73637e-07
-1.51851e-07
-1.32043e-07
-1.14461e-07
-9.92374e-08
-8.63448e-08
-7.56378e-08
-6.70121e-08
-6.03653e-08
-5.53844e-08
-5.15879e-08
-4.86664e-08
-4.66313e-08
-4.55815e-08
-4.54725e-08
-4.60969e-08
-4.71826e-08
-4.85195e-08
-8.38473e-07
-7.89702e-07
-7.34614e-07
-6.73419e-07
-6.07375e-07
-5.38722e-07
-4.69811e-07
-4.02663e-07
-3.38901e-07
-2.79633e-07
-2.25458e-07
-1.76585e-07
-1.32875e-07
-9.38186e-08
-5.87066e-08
-2.70148e-08
7.00953e-10
2.2781e-08
3.75816e-08
4.48541e-08
4.56344e-08
4.10617e-08
3.22787e-08
2.03636e-08
6.45879e-09
-8.28574e-09
-2.27571e-08
-3.59326e-08
-4.69688e-08
-5.54473e-08
-6.10902e-08
-6.31336e-08
-6.2234e-08
-5.87912e-08
-5.32953e-08
-4.63179e-08
-3.847e-08
-3.03666e-08
-2.25928e-08
-1.56771e-08
-1.00746e-08
-6.16625e-09
-4.28258e-09
-4.74302e-09
-7.90456e-09
-1.41794e-08
-2.40192e-08
-3.78438e-08
-5.59371e-08
-7.8337e-08
-1.04757e-07
-1.34574e-07
-1.66868e-07
-2.00517e-07
-2.3431e-07
-2.67031e-07
-2.97604e-07
-3.25146e-07
-3.49041e-07
-3.67486e-07
-3.80919e-07
-3.89027e-07
-3.91532e-07
-3.8846e-07
-3.79987e-07
-3.66478e-07
-3.48492e-07
-3.26752e-07
-3.02106e-07
-2.75486e-07
-2.4784e-07
-2.20075e-07
-1.9304e-07
-1.67471e-07
-1.43939e-07
-1.22872e-07
-1.04541e-07
-8.90062e-08
-7.61826e-08
-6.59407e-08
-5.80301e-08
-5.20163e-08
-4.75063e-08
-4.44068e-08
-4.28287e-08
-4.26949e-08
-4.35196e-08
-4.47154e-08
-4.60374e-08
-4.75474e-08
-8.83759e-07
-8.38578e-07
-7.85793e-07
-7.2633e-07
-6.62161e-07
-5.95771e-07
-5.29402e-07
-4.64753e-07
-4.0297e-07
-3.44783e-07
-2.90632e-07
-2.40776e-07
-1.95521e-07
-1.55628e-07
-1.22475e-07
-9.74725e-08
-8.11382e-08
-7.29498e-08
-7.1901e-08
-7.705e-08
-8.74063e-08
-1.02481e-07
-1.19865e-07
-1.38381e-07
-1.56504e-07
-1.73056e-07
-1.86682e-07
-1.96799e-07
-2.02867e-07
-2.04692e-07
-2.02921e-07
-1.96626e-07
-1.86697e-07
-1.73906e-07
-1.59074e-07
-1.43042e-07
-1.26638e-07
-1.10639e-07
-9.57326e-08
-8.25039e-08
-7.14251e-08
-6.28576e-08
-5.70421e-08
-5.40719e-08
-5.38999e-08
-5.64471e-08
-6.17847e-08
-7.0269e-08
-8.24721e-08
-9.89198e-08
-1.19843e-07
-1.45027e-07
-1.73794e-07
-2.051e-07
-2.37669e-07
-2.7016e-07
-3.01289e-07
-3.29886e-07
-3.54924e-07
-3.75544e-07
-3.91268e-07
-4.01426e-07
-4.06268e-07
-4.05277e-07
-3.98612e-07
-3.86587e-07
-3.69671e-07
-3.48489e-07
-3.23811e-07
-2.96526e-07
-2.67581e-07
-2.37945e-07
-2.08591e-07
-1.80404e-07
-1.54118e-07
-1.30311e-07
-1.09393e-07
-9.15544e-08
-7.68123e-08
-6.50603e-08
-5.60436e-08
-4.9437e-08
-4.50442e-08
-4.27208e-08
-4.1998e-08
-4.20678e-08
-4.23398e-08
-4.2755e-08
-4.35188e-08
-4.47171e-08
-8.70066e-07
-8.319e-07
-7.86616e-07
-7.3559e-07
-6.80626e-07
-6.23493e-07
-5.65677e-07
-5.08425e-07
-4.52919e-07
-4.00438e-07
-3.52303e-07
-3.0983e-07
-2.74091e-07
-2.45658e-07
-2.2463e-07
-2.10918e-07
-2.04524e-07
-2.05467e-07
-2.12921e-07
-2.25766e-07
-2.42506e-07
-2.61426e-07
-2.80887e-07
-2.99054e-07
-3.1459e-07
-3.26554e-07
-3.34234e-07
-3.37249e-07
-3.34837e-07
-3.27313e-07
-3.1512e-07
-2.98666e-07
-2.78676e-07
-2.56018e-07
-2.31649e-07
-2.06567e-07
-1.81757e-07
-1.58134e-07
-1.36476e-07
-1.17376e-07
-1.01196e-07
-8.80742e-08
-7.80081e-08
-7.10253e-08
-6.73201e-08
-6.7131e-08
-7.04271e-08
-7.69181e-08
-8.65157e-08
-9.95795e-08
-1.1663e-07
-1.37937e-07
-1.63275e-07
-1.91898e-07
-2.22663e-07
-2.54215e-07
-2.8516e-07
-3.14206e-07
-3.40248e-07
-3.62383e-07
-3.79944e-07
-3.92479e-07
-3.99216e-07
-4.004e-07
-3.96002e-07
-3.86164e-07
-3.71212e-07
-3.51667e-07
-3.28229e-07
-3.01744e-07
-2.73164e-07
-2.43508e-07
-2.13795e-07
-1.84949e-07
-1.57771e-07
-1.3295e-07
-1.10993e-07
-9.21668e-08
-7.65474e-08
-6.40673e-08
-5.45092e-08
-4.75298e-08
-4.27177e-08
-3.95979e-08
-3.76322e-08
-3.63318e-08
-3.54756e-08
-3.52544e-08
-3.59291e-08
-3.72392e-08
-7.92038e-07
-7.63776e-07
-7.28998e-07
-6.89944e-07
-6.47466e-07
-6.02802e-07
-5.57309e-07
-5.12407e-07
-4.69081e-07
-4.29215e-07
-3.93729e-07
-3.63553e-07
-3.39573e-07
-3.22499e-07
-3.12734e-07
-3.10319e-07
-3.1491e-07
-3.25701e-07
-3.41214e-07
-3.59954e-07
-3.80518e-07
-4.0067e-07
-4.191e-07
-4.34548e-07
-4.45977e-07
-4.52585e-07
-4.53828e-07
-4.49743e-07
-4.40594e-07
-4.26241e-07
-4.07031e-07
-3.83479e-07
-3.56256e-07
-3.26184e-07
-2.9422e-07
-2.61417e-07
-2.28876e-07
-1.97672e-07
-1.68782e-07
-1.42999e-07
-1.20875e-07
-1.02689e-07
-8.84472e-08
-7.78735e-08
-7.04053e-08
-6.54446e-08
-6.3024e-08
-6.4046e-08
-6.93677e-08
-7.90675e-08
-9.29511e-08
-1.1104e-07
-1.33308e-07
-1.59312e-07
-1.88113e-07
-2.18428e-07
-2.48842e-07
-2.7798e-07
-3.04629e-07
-3.27802e-07
-3.46727e-07
-3.60828e-07
-3.69675e-07
-3.731e-07
-3.7128e-07
-3.64161e-07
-3.52012e-07
-3.35215e-07
-3.14362e-07
-2.90201e-07
-2.636e-07
-2.35506e-07
-2.06884e-07
-1.78668e-07
-1.51724e-07
-1.26785e-07
-1.04379e-07
-8.48303e-08
-6.83114e-08
-5.48269e-08
-4.41893e-08
-3.61066e-08
-3.02692e-08
-2.62993e-08
-2.37897e-08
-2.25697e-08
-2.2715e-08
-2.40819e-08
-2.60289e-08
-2.77387e-08
-6.31633e-07
-6.12951e-07
-5.90406e-07
-5.64632e-07
-5.36539e-07
-5.07148e-07
-4.77587e-07
-4.49068e-07
-4.22763e-07
-3.99861e-07
-3.81459e-07
-3.68467e-07
-3.61583e-07
-3.61189e-07
-3.67243e-07
-3.79144e-07
-3.95982e-07
-4.17581e-07
-4.40569e-07
-4.6424e-07
-4.87127e-07
-5.07845e-07
-5.25243e-07
-5.38445e-07
-5.46766e-07
-5.4968e-07
-5.47407e-07
-5.39353e-07
-5.25732e-07
-5.06646e-07
-4.82355e-07
-4.53302e-07
-4.2013e-07
-3.83682e-07
-3.45005e-07
-3.05315e-07
-2.65924e-07
-2.28101e-07
-1.92995e-07
-1.61573e-07
-1.34542e-07
-1.12265e-07
-9.4656e-08
-8.11571e-08
-7.10293e-08
-6.37445e-08
-5.87992e-08
-5.5469e-08
-5.37431e-08
-5.51571e-08
-6.15023e-08
-7.33753e-08
-9.0507e-08
-1.12332e-07
-1.37956e-07
-1.6611e-07
-1.9529e-07
-2.23975e-07
-2.50798e-07
-2.74632e-07
-2.94613e-07
-3.1013e-07
-3.20807e-07
-3.26392e-07
-3.26738e-07
-3.22443e-07
-3.13224e-07
-2.99581e-07
-2.81965e-07
-2.60998e-07
-2.37423e-07
-2.12065e-07
-1.85793e-07
-1.59482e-07
-1.33961e-07
-1.09949e-07
-8.80221e-08
-6.86182e-08
-5.20388e-08
-3.84089e-08
-2.76781e-08
-1.97002e-08
-1.43089e-08
-1.12978e-08
-1.03169e-08
-1.08237e-08
-1.22411e-08
-1.41515e-08
-1.62523e-08
-4.03364e-07
-3.9272e-07
-3.81347e-07
-3.69143e-07
-3.56988e-07
-3.45523e-07
-3.35641e-07
-3.28199e-07
-3.2405e-07
-3.23953e-07
-3.28544e-07
-3.37894e-07
-3.52119e-07
-3.70983e-07
-3.94612e-07
-4.20973e-07
-4.49447e-07
-4.7887e-07
-5.07846e-07
-5.35143e-07
-5.59634e-07
-5.80348e-07
-5.96535e-07
-6.07607e-07
-6.12876e-07
-6.12488e-07
-6.06024e-07
-5.93469e-07
-5.74863e-07
-5.50438e-07
-5.20628e-07
-4.8609e-07
-4.47701e-07
-4.06517e-07
-3.63701e-07
-3.20476e-07
-2.78105e-07
-2.378e-07
-2.0057e-07
-1.67129e-07
-1.37902e-07
-1.13079e-07
-9.27483e-08
-7.70342e-08
-6.58929e-08
-5.85246e-08
-5.34111e-08
-4.93557e-08
-4.5896e-08
-4.29451e-08
-4.1409e-08
-4.35823e-08
-5.1344e-08
-6.49366e-08
-8.36868e-08
-1.0653e-07
-1.32027e-07
-1.58531e-07
-1.84423e-07
-2.08287e-07
-2.28999e-07
-2.45731e-07
-2.57956e-07
-2.6541e-07
-2.67955e-07
-2.65504e-07
-2.5877e-07
-2.47918e-07
-2.33432e-07
-2.15849e-07
-1.95795e-07
-1.73966e-07
-1.51106e-07
-1.27979e-07
-1.05329e-07
-8.3842e-08
-6.41133e-08
-4.66284e-08
-3.17269e-08
-1.95745e-08
-1.01746e-08
-3.40588e-09
9.67323e-10
3.27984e-09
3.86931e-09
2.98512e-09
8.85656e-10
-2.00674e-09
-5.29856e-09
-1.9197e-07
-1.88999e-07
-1.88052e-07
-1.88846e-07
-1.91887e-07
-1.97549e-07
-2.06287e-07
-2.18479e-07
-2.3442e-07
-2.54215e-07
-2.79794e-07
-3.07429e-07
-3.38433e-07
-3.72083e-07
-4.07527e-07
-4.4366e-07
-4.79382e-07
-5.1361e-07
-5.45298e-07
-5.73503e-07
-5.97425e-07
-6.16422e-07
-6.30134e-07
-6.37838e-07
-6.39603e-07
-6.35072e-07
-6.24186e-07
-6.07006e-07
-5.83721e-07
-5.54694e-07
-5.20499e-07
-4.81944e-07
-4.40092e-07
-3.96223e-07
-3.5174e-07
-3.08025e-07
-2.66322e-07
-2.27658e-07
-1.92789e-07
-1.62162e-07
-1.3587e-07
-1.1371e-07
-9.53228e-08
-8.01967e-08
-6.766e-08
-5.7448e-08
-5.00415e-08
-4.54175e-08
-4.2168e-08
-3.88594e-08
-3.52108e-08
-3.17521e-08
-3.01457e-08
-3.28316e-08
-4.11338e-08
-5.4484e-08
-7.18157e-08
-9.2033e-08
-1.13726e-07
-1.35337e-07
-1.55404e-07
-1.72731e-07
-1.86455e-07
-1.96048e-07
-2.0125e-07
-2.02023e-07
-1.98503e-07
-1.90884e-07
-1.79797e-07
-1.65649e-07
-1.49075e-07
-1.30749e-07
-1.1137e-07
-9.16391e-08
-7.22283e-08
-5.37535e-08
-3.67468e-08
-2.16344e-08
-8.71882e-09
1.82507e-09
9.93958e-09
1.56707e-08
1.91581e-08
2.06198e-08
2.03307e-08
1.85729e-08
1.55313e-08
1.12381e-08
5.7026e-09
-4.84346e-08
-5.1667e-08
-5.84542e-08
-6.89852e-08
-8.32583e-08
-1.01468e-07
-1.23665e-07
-1.4982e-07
-1.79771e-07
-2.13224e-07
-2.49789e-07
-2.886e-07
-3.28955e-07
-3.70018e-07
-4.10864e-07
-4.50507e-07
-4.87995e-07
-5.22464e-07
-5.53133e-07
-5.79362e-07
-6.00817e-07
-6.16755e-07
-6.26786e-07
-6.3079e-07
-6.28575e-07
-6.20138e-07
-6.0553e-07
-5.84939e-07
-5.58716e-07
-5.27379e-07
-4.91617e-07
-4.52268e-07
-4.10302e-07
-3.66828e-07
-3.23105e-07
-2.80493e-07
-2.40318e-07
-2.03697e-07
-1.71388e-07
-1.43761e-07
-1.20858e-07
-1.02455e-07
-8.80208e-08
-7.65996e-08
-6.71052e-08
-5.8931e-08
-5.19132e-08
-4.60692e-08
-4.15708e-08
-3.81027e-08
-3.46492e-08
-3.07541e-08
-2.68289e-08
-2.32567e-08
-2.10695e-08
-2.29002e-08
-2.97265e-08
-4.0405e-08
-5.32291e-08
-6.7566e-08
-8.27497e-08
-9.75666e-08
-1.1078e-07
-1.21454e-07
-1.28948e-07
-1.32874e-07
-1.33119e-07
-1.29865e-07
-1.23373e-07
-1.1357e-07
-1.01357e-07
-8.73281e-08
-7.20905e-08
-5.62598e-08
-4.04355e-08
-2.51796e-08
-1.09834e-08
1.75265e-09
1.27293e-08
2.17514e-08
2.87209e-08
3.36213e-08
3.64987e-08
3.74364e-08
3.65398e-08
3.39681e-08
2.99933e-08
2.4994e-08
1.9324e-08
1.99192e-08
1.17321e-08
-4.28912e-10
-1.67154e-08
-3.72339e-08
-6.19177e-08
-9.05731e-08
-1.22896e-07
-1.58452e-07
-1.96687e-07
-2.36932e-07
-2.78402e-07
-3.20261e-07
-3.61637e-07
-4.0167e-07
-4.39545e-07
-4.74501e-07
-5.05866e-07
-5.33159e-07
-5.55773e-07
-5.73168e-07
-5.85156e-07
-5.91266e-07
-5.91465e-07
-5.85718e-07
-5.7405e-07
-5.56595e-07
-5.33634e-07
-5.05621e-07
-4.73213e-07
-4.37286e-07
-3.98917e-07
-3.59286e-07
-3.19554e-07
-2.8073e-07
-2.43608e-07
-2.08854e-07
-1.77085e-07
-1.48812e-07
-1.24367e-07
-1.03828e-07
-8.69649e-08
-7.34444e-08
-6.30959e-08
-5.56422e-08
-5.01501e-08
-4.54122e-08
-4.09768e-08
-3.70676e-08
-3.37698e-08
-3.08905e-08
-2.80362e-08
-2.47915e-08
-2.14506e-08
-1.86564e-08
-1.59313e-08
-1.27937e-08
-1.04625e-08
-1.23026e-08
-1.89558e-08
-2.81182e-08
-3.71599e-08
-4.49692e-08
-5.16806e-08
-5.73461e-08
-6.15097e-08
-6.35994e-08
-6.32516e-08
-6.02461e-08
-5.55476e-08
-4.80942e-08
-3.87547e-08
-2.80933e-08
-1.66285e-08
-4.86515e-09
6.73256e-09
1.77461e-08
2.78138e-08
3.66426e-08
4.40174e-08
4.98071e-08
5.39683e-08
5.6541e-08
5.76404e-08
5.74413e-08
5.61413e-08
5.39042e-08
5.07959e-08
4.67414e-08
3.53136e-08
2.44786e-08
9.69124e-09
-8.97069e-09
-3.14867e-08
-5.77017e-08
-8.72986e-08
-1.19839e-07
-1.548e-07
-1.91595e-07
-2.29582e-07
-2.68064e-07
-3.06301e-07
-3.43531e-07
-3.79046e-07
-4.12118e-07
-4.42103e-07
-4.68463e-07
-4.90613e-07
-5.08194e-07
-5.20719e-07
-5.28005e-07
-5.29905e-07
-5.2635e-07
-5.17385e-07
-5.0319e-07
-4.84078e-07
-4.60494e-07
-4.33012e-07
-4.02313e-07
-3.6918e-07
-3.34514e-07
-2.99347e-07
-2.6479e-07
-2.31947e-07
-2.01719e-07
-1.74601e-07
-1.50651e-07
-1.29673e-07
-1.11429e-07
-9.56796e-08
-8.20698e-08
-7.02139e-08
-5.99761e-08
-5.14159e-08
-4.45093e-08
-3.90801e-08
-3.47781e-08
-3.11407e-08
-2.78973e-08
-2.49861e-08
-2.23295e-08
-1.9795e-08
-1.71953e-08
-1.43935e-08
-1.16907e-08
-9.64313e-09
-7.95039e-09
-5.44453e-09
-2.02951e-09
1.51123e-09
4.20436e-09
4.22469e-09
1.72064e-09
-1.95775e-09
-4.83586e-09
-6.02419e-09
-5.30562e-09
-2.90211e-09
7.3201e-10
7.2428e-09
1.43728e-08
2.20247e-08
3.00847e-08
3.83639e-08
4.66285e-08
5.46277e-08
6.21205e-08
6.88946e-08
7.47795e-08
7.96547e-08
8.34493e-08
8.61357e-08
8.77152e-08
8.81974e-08
8.75759e-08
8.58053e-08
8.2778e-08
7.83088e-08
1.47374e-08
6.0155e-09
-6.22491e-09
-2.26056e-08
-4.30399e-08
-6.6989e-08
-9.37918e-08
-1.22828e-07
-1.53527e-07
-1.85343e-07
-2.1773e-07
-2.50135e-07
-2.81937e-07
-3.12467e-07
-3.4136e-07
-3.67703e-07
-3.91135e-07
-4.11092e-07
-4.27145e-07
-4.39027e-07
-4.46539e-07
-4.49553e-07
-4.48014e-07
-4.41937e-07
-4.31435e-07
-4.16787e-07
-3.98475e-07
-3.77096e-07
-3.53315e-07
-3.27848e-07
-3.0141e-07
-2.7464e-07
-2.4809e-07
-2.22219e-07
-1.97422e-07
-1.74088e-07
-1.52637e-07
-1.33386e-07
-1.16385e-07
-1.01491e-07
-8.85156e-08
-7.72485e-08
-6.73918e-08
-5.86111e-08
-5.07009e-08
-4.36319e-08
-3.74072e-08
-3.19679e-08
-2.72861e-08
-2.33419e-08
-2.00167e-08
-1.71337e-08
-1.45438e-08
-1.21275e-08
-9.79199e-09
-7.46771e-09
-4.96901e-09
-2.21518e-09
7.88318e-11
1.64921e-09
3.09916e-09
5.5015e-09
9.67782e-09
1.45387e-08
1.97359e-08
2.47816e-08
2.97625e-08
3.46465e-08
3.9603e-08
4.51872e-08
4.90214e-08
5.37067e-08
5.91352e-08
6.51052e-08
7.1411e-08
7.78292e-08
8.41393e-08
9.01409e-08
9.56596e-08
1.00549e-07
1.0469e-07
1.07986e-07
1.10352e-07
1.11711e-07
1.11977e-07
1.11045e-07
1.08775e-07
1.04997e-07
9.95116e-08
-1.3745e-08
-1.88135e-08
-2.62201e-08
-3.73608e-08
-5.25795e-08
-7.13199e-08
-9.26849e-08
-1.15808e-07
-1.39985e-07
-1.64741e-07
-1.89605e-07
-2.13944e-07
-2.37787e-07
-2.60487e-07
-2.81851e-07
-3.01355e-07
-3.18216e-07
-3.32221e-07
-3.43157e-07
-3.50848e-07
-3.55223e-07
-3.56298e-07
-3.54195e-07
-3.49094e-07
-3.41131e-07
-3.30414e-07
-3.17181e-07
-3.01879e-07
-2.85043e-07
-2.67176e-07
-2.48758e-07
-2.30223e-07
-2.11931e-07
-1.94193e-07
-1.77225e-07
-1.61081e-07
-1.45698e-07
-1.31021e-07
-1.1708e-07
-1.03926e-07
-9.16372e-08
-8.02788e-08
-6.98338e-08
-6.02489e-08
-5.15373e-08
-4.37621e-08
-3.69279e-08
-3.09587e-08
-2.57379e-08
-2.11646e-08
-1.71812e-08
-1.37471e-08
-1.07715e-08
-8.09397e-09
-5.53978e-09
-2.96967e-09
-2.64618e-10
2.68461e-09
6.0166e-09
9.59132e-09
1.34865e-08
1.74994e-08
2.10536e-08
2.41355e-08
2.68424e-08
2.99454e-08
3.40783e-08
3.93479e-08
4.55265e-08
5.22452e-08
5.9104e-08
6.60615e-08
7.297e-08
7.97259e-08
8.62637e-08
9.2522e-08
9.84321e-08
1.03916e-07
1.08883e-07
1.13235e-07
1.16873e-07
1.19698e-07
1.21608e-07
1.22504e-07
1.22268e-07
1.2078e-07
1.17924e-07
1.13568e-07
1.07553e-07
-2.65166e-08
-2.79929e-08
-3.14038e-08
-3.79083e-08
-4.77203e-08
-6.03102e-08
-7.48804e-08
-9.06777e-08
-1.07161e-07
-1.23985e-07
-1.41306e-07
-1.58746e-07
-1.76312e-07
-1.93734e-07
-2.09904e-07
-2.24634e-07
-2.37704e-07
-2.48858e-07
-2.57944e-07
-2.64853e-07
-2.69531e-07
-2.71987e-07
-2.72279e-07
-2.70537e-07
-2.67005e-07
-2.61949e-07
-2.5556e-07
-2.47952e-07
-2.39233e-07
-2.29555e-07
-2.19068e-07
-2.07924e-07
-1.96254e-07
-1.84146e-07
-1.71706e-07
-1.59139e-07
-1.46718e-07
-1.34707e-07
-1.23265e-07
-1.12426e-07
-1.02129e-07
-9.22873e-08
-8.28414e-08
-7.37568e-08
-6.5016e-08
-5.66193e-08
-4.85994e-08
-4.10237e-08
-3.39872e-08
-2.75588e-08
-2.17541e-08
-1.65571e-08
-1.19279e-08
-7.80518e-09
-4.0929e-09
-6.76324e-10
2.57089e-09
5.81154e-09
9.11716e-09
1.23455e-08
1.59494e-08
1.98944e-08
2.42287e-08
2.88905e-08
3.38959e-08
3.92574e-08
4.48664e-08
5.0657e-08
5.65718e-08
6.25615e-08
6.8604e-08
7.47055e-08
8.09108e-08
8.71536e-08
9.33204e-08
9.93101e-08
1.05022e-07
1.10346e-07
1.15146e-07
1.19312e-07
1.22745e-07
1.25323e-07
1.26951e-07
1.27585e-07
1.27017e-07
1.25075e-07
1.21647e-07
1.16693e-07
1.10174e-07
-2.71091e-08
-2.57104e-08
-2.63637e-08
-2.96744e-08
-3.55222e-08
-4.33013e-08
-5.24322e-08
-6.26591e-08
-7.38734e-08
-8.56885e-08
-9.80585e-08
-1.11274e-07
-1.24431e-07
-1.37379e-07
-1.49991e-07
-1.6213e-07
-1.73612e-07
-1.84224e-07
-1.93758e-07
-2.0206e-07
-2.09006e-07
-2.14508e-07
-2.1853e-07
-2.21089e-07
-2.22212e-07
-2.21908e-07
-2.20221e-07
-2.17258e-07
-2.13149e-07
-2.08012e-07
-2.01942e-07
-1.95051e-07
-1.87526e-07
-1.79619e-07
-1.71536e-07
-1.63363e-07
-1.55078e-07
-1.46633e-07
-1.38008e-07
-1.29225e-07
-1.2034e-07
-1.11417e-07
-1.02495e-07
-9.36053e-08
-8.4775e-08
-7.60232e-08
-6.73796e-08
-5.8897e-08
-5.06257e-08
-4.26304e-08
-3.50178e-08
-2.78861e-08
-2.12029e-08
-1.4968e-08
-9.15424e-09
-3.73654e-09
1.37389e-09
6.26657e-09
1.10517e-08
1.58805e-08
2.06955e-08
2.55823e-08
3.05631e-08
3.56601e-08
4.09029e-08
4.63269e-08
5.19515e-08
5.77918e-08
6.3815e-08
6.99203e-08
7.5961e-08
8.18989e-08
8.77317e-08
9.34164e-08
9.89151e-08
1.04224e-07
1.09225e-07
1.14049e-07
1.18364e-07
1.22032e-07
1.24935e-07
1.27067e-07
1.28305e-07
1.28594e-07
1.27771e-07
1.25692e-07
1.22239e-07
1.1727e-07
1.1069e-07
-2.70229e-08
-2.32972e-08
-2.12148e-08
-2.12412e-08
-2.35284e-08
-2.79594e-08
-3.40122e-08
-4.11907e-08
-4.90007e-08
-5.76439e-08
-6.68641e-08
-7.6675e-08
-8.69668e-08
-9.76608e-08
-1.08586e-07
-1.19535e-07
-1.30304e-07
-1.4066e-07
-1.50385e-07
-1.59309e-07
-1.67303e-07
-1.74281e-07
-1.8017e-07
-1.84915e-07
-1.88484e-07
-1.90859e-07
-1.92058e-07
-1.92209e-07
-1.91535e-07
-1.90234e-07
-1.88458e-07
-1.86312e-07
-1.83814e-07
-1.80884e-07
-1.77423e-07
-1.7336e-07
-1.68666e-07
-1.63338e-07
-1.57342e-07
-1.50612e-07
-1.43136e-07
-1.34989e-07
-1.26271e-07
-1.17076e-07
-1.07507e-07
-9.76557e-08
-8.76419e-08
-7.7644e-08
-6.77206e-08
-5.79294e-08
-4.82924e-08
-3.89965e-08
-3.02122e-08
-2.19747e-08
-1.43632e-08
-7.40242e-09
-1.03192e-09
4.85908e-09
1.03837e-08
1.56892e-08
2.08983e-08
2.61248e-08
3.14577e-08
3.69689e-08
4.27124e-08
4.87153e-08
5.49742e-08
6.14594e-08