/*--------------------------------*- C++ -*----------------------------------*\
| =========                 |                                                 |
| \\      /  F ield         | OpenFOAM: The Open Source CFD Toolbox           |
|  \\    /   O peration     | Version:  2312                                  |
|   \\  /    A nd           | Website:  www.openfoam.com                      |
|    \\/     M anipulation  |                                                 |
\*---------------------------------------------------------------------------*/
FoamFile
{
    version     2.0;
    format      ascii;
    arch        "LSB;label=32;scalar=64";
    class       volScalarField;
    location    "64000";
    object      p;
}
// * * * * * * * * * * * * * * * * * * * * * * * * * * * * * * * * * * * * * //

dimensions      [0 2 -2 0 0 0 0];

internalField   nonuniform List<scalar> 
10800
(
4.87764e-07
4.73641e-07
4.59874e-07
4.49296e-07
4.41873e-07
4.36482e-07
4.32031e-07
4.27951e-07
4.24075e-07
4.2041e-07
4.16993e-07
4.13828e-07
4.10882e-07
4.08104e-07
4.05448e-07
4.02882e-07
4.00382e-07
3.97937e-07
3.95535e-07
3.93168e-07
3.90827e-07
3.88505e-07
3.86194e-07
3.8389e-07
3.81587e-07
3.79282e-07
3.76973e-07
3.74656e-07
3.7233e-07
3.69992e-07
3.67642e-07
3.65279e-07
3.62901e-07
3.6051e-07
3.58104e-07
3.55683e-07
3.53248e-07
3.508e-07
3.48338e-07
3.45862e-07
3.43374e-07
3.40874e-07
3.38362e-07
3.35838e-07
3.33301e-07
3.30752e-07
3.2819e-07
3.25611e-07
3.2302e-07
3.20401e-07
3.17776e-07
3.15093e-07
3.12434e-07
3.09626e-07
3.06971e-07
3.03831e-07
3.01467e-07
2.97052e-07
2.96737e-07
2.8613e-07
4.39721e-07
4.37993e-07
4.35348e-07
4.32222e-07
4.29006e-07
4.25911e-07
4.22988e-07
4.20201e-07
4.17499e-07
4.14852e-07
4.12253e-07
4.09709e-07
4.07227e-07
4.04805e-07
4.02437e-07
4.00115e-07
3.9783e-07
3.95572e-07
3.93337e-07
3.91119e-07
3.88914e-07
3.86719e-07
3.84529e-07
3.82341e-07
3.80152e-07
3.7796e-07
3.75762e-07
3.73556e-07
3.71341e-07
3.69115e-07
3.66878e-07
3.64628e-07
3.62366e-07
3.60089e-07
3.578e-07
3.55496e-07
3.5318e-07
3.50848e-07
3.48506e-07
3.46146e-07
3.4378e-07
3.41392e-07
3.39002e-07
3.36587e-07
3.34176e-07
3.3173e-07
3.29302e-07
3.26821e-07
3.24384e-07
3.21865e-07
3.1944e-07
3.16884e-07
3.14524e-07
3.1195e-07
3.0979e-07
3.07265e-07
3.05638e-07
3.03243e-07
3.02759e-07
3.00076e-07
4.30981e-07
4.3023e-07
4.28816e-07
4.26864e-07
4.2458e-07
4.22159e-07
4.19729e-07
4.17338e-07
4.14992e-07
4.12676e-07
4.10382e-07
4.08109e-07
4.05863e-07
4.03648e-07
4.01467e-07
3.99317e-07
3.97194e-07
3.95094e-07
3.93011e-07
3.90942e-07
3.88884e-07
3.86833e-07
3.84788e-07
3.82745e-07
3.80703e-07
3.78659e-07
3.76611e-07
3.74558e-07
3.72499e-07
3.70432e-07
3.68357e-07
3.66272e-07
3.64177e-07
3.62072e-07
3.59956e-07
3.57829e-07
3.55692e-07
3.53541e-07
3.51382e-07
3.49208e-07
3.47028e-07
3.4483e-07
3.4263e-07
3.40408e-07
3.38188e-07
3.35941e-07
3.33705e-07
3.31434e-07
3.29189e-07
3.26896e-07
3.24653e-07
3.22343e-07
3.20124e-07
3.17808e-07
3.15648e-07
3.1334e-07
3.11291e-07
3.08995e-07
3.07098e-07
3.04722e-07
4.19246e-07
4.18814e-07
4.18027e-07
4.16936e-07
4.15611e-07
4.14123e-07
4.12528e-07
4.10866e-07
4.09158e-07
4.07415e-07
4.05643e-07
4.03848e-07
4.02036e-07
4.00213e-07
3.98384e-07
3.96552e-07
3.94719e-07
3.92884e-07
3.91048e-07
3.8921e-07
3.87369e-07
3.85526e-07
3.83678e-07
3.81826e-07
3.79969e-07
3.78107e-07
3.76238e-07
3.74363e-07
3.72481e-07
3.70591e-07
3.68693e-07
3.66787e-07
3.64873e-07
3.62951e-07
3.6102e-07
3.59081e-07
3.57134e-07
3.55177e-07
3.53213e-07
3.51239e-07
3.49259e-07
3.47267e-07
3.45268e-07
3.43256e-07
3.41238e-07
3.39203e-07
3.37162e-07
3.35099e-07
3.3303e-07
3.30931e-07
3.28826e-07
3.26683e-07
3.24536e-07
3.2234e-07
3.20146e-07
3.17889e-07
3.15642e-07
3.13316e-07
3.11016e-07
3.08635e-07
4.12547e-07
4.12333e-07
4.11902e-07
4.11256e-07
4.10412e-07
4.09398e-07
4.08247e-07
4.06989e-07
4.0565e-07
4.04245e-07
4.02788e-07
4.01288e-07
3.9975e-07
3.98184e-07
3.96593e-07
3.94982e-07
3.93357e-07
3.91718e-07
3.90069e-07
3.8841e-07
3.86743e-07
3.85067e-07
3.83385e-07
3.81695e-07
3.8e-07
3.78298e-07
3.7659e-07
3.74877e-07
3.73157e-07
3.71433e-07
3.69703e-07
3.67968e-07
3.66228e-07
3.64483e-07
3.62734e-07
3.60981e-07
3.59224e-07
3.57462e-07
3.55697e-07
3.53927e-07
3.52154e-07
3.50376e-07
3.48594e-07
3.46806e-07
3.45013e-07
3.43213e-07
3.41406e-07
3.39589e-07
3.37761e-07
3.3592e-07
3.34058e-07
3.32172e-07
3.30248e-07
3.28277e-07
3.26241e-07
3.24126e-07
3.21923e-07
3.19641e-07
3.17284e-07
3.14948e-07
4.07028e-07
4.06866e-07
4.06541e-07
4.06057e-07
4.05423e-07
4.04657e-07
4.03776e-07
4.02798e-07
4.01738e-07
4.0061e-07
3.99424e-07
3.98186e-07
3.96904e-07
3.95583e-07
3.94229e-07
3.92846e-07
3.91438e-07
3.90009e-07
3.88561e-07
3.87098e-07
3.85619e-07
3.84128e-07
3.82626e-07
3.81114e-07
3.79592e-07
3.78063e-07
3.76526e-07
3.74983e-07
3.73435e-07
3.71882e-07
3.70324e-07
3.68763e-07
3.67199e-07
3.65633e-07
3.64066e-07
3.62496e-07
3.60926e-07
3.59356e-07
3.57785e-07
3.56214e-07
3.54643e-07
3.53071e-07
3.51498e-07
3.49923e-07
3.48345e-07
3.46762e-07
3.45171e-07
3.4357e-07
3.41955e-07
3.40325e-07
3.38673e-07
3.37004e-07
3.35308e-07
3.33592e-07
3.31831e-07
3.30028e-07
3.28148e-07
3.26213e-07
3.2422e-07
3.22295e-07
4.02684e-07
4.02565e-07
4.02327e-07
4.01971e-07
4.015e-07
4.00922e-07
4.00246e-07
3.99482e-07
3.98639e-07
3.97727e-07
3.96754e-07
3.95727e-07
3.94651e-07
3.93531e-07
3.92373e-07
3.91181e-07
3.89958e-07
3.88709e-07
3.87437e-07
3.86143e-07
3.84832e-07
3.83504e-07
3.82163e-07
3.80809e-07
3.79445e-07
3.78072e-07
3.76692e-07
3.75306e-07
3.73915e-07
3.72521e-07
3.71124e-07
3.69726e-07
3.68328e-07
3.6693e-07
3.65535e-07
3.64142e-07
3.62752e-07
3.61367e-07
3.59987e-07
3.58612e-07
3.57242e-07
3.55879e-07
3.54522e-07
3.53172e-07
3.51826e-07
3.50488e-07
3.49153e-07
3.47823e-07
3.46492e-07
3.45159e-07
3.43814e-07
3.42454e-07
3.41065e-07
3.39652e-07
3.38204e-07
3.36732e-07
3.35217e-07
3.33681e-07
3.32124e-07
3.30657e-07
3.99234e-07
3.99142e-07
3.98956e-07
3.98677e-07
3.98306e-07
3.97846e-07
3.97303e-07
3.96683e-07
3.95992e-07
3.95237e-07
3.94422e-07
3.93553e-07
3.92635e-07
3.91674e-07
3.90673e-07
3.89637e-07
3.88569e-07
3.87472e-07
3.86351e-07
3.85207e-07
3.84044e-07
3.82864e-07
3.81668e-07
3.80461e-07
3.79242e-07
3.78015e-07
3.76781e-07
3.75542e-07
3.743e-07
3.73056e-07
3.71811e-07
3.70568e-07
3.69327e-07
3.68091e-07
3.6686e-07
3.65637e-07
3.64421e-07
3.63215e-07
3.62019e-07
3.60834e-07
3.59662e-07
3.58504e-07
3.57358e-07
3.56227e-07
3.5511e-07
3.54007e-07
3.52916e-07
3.5184e-07
3.50774e-07
3.49723e-07
3.48682e-07
3.4765e-07
3.46615e-07
3.4558e-07
3.44531e-07
3.4348e-07
3.42415e-07
3.41363e-07
3.40332e-07
3.39424e-07
3.96472e-07
3.96397e-07
3.96245e-07
3.96017e-07
3.95712e-07
3.95333e-07
3.94883e-07
3.94366e-07
3.93786e-07
3.93148e-07
3.92455e-07
3.91713e-07
3.90924e-07
3.90092e-07
3.89223e-07
3.88318e-07
3.87382e-07
3.86417e-07
3.85428e-07
3.84415e-07
3.83383e-07
3.82334e-07
3.81269e-07
3.80193e-07
3.79106e-07
3.78011e-07
3.76911e-07
3.75806e-07
3.747e-07
3.73594e-07
3.72491e-07
3.71391e-07
3.70297e-07
3.69211e-07
3.68135e-07
3.6707e-07
3.66018e-07
3.64982e-07
3.63962e-07
3.6296e-07
3.61979e-07
3.61019e-07
3.60082e-07
3.5917e-07
3.58283e-07
3.57424e-07
3.56593e-07
3.5579e-07
3.55015e-07
3.54266e-07
3.53542e-07
3.52846e-07
3.52175e-07
3.51532e-07
3.50912e-07
3.50321e-07
3.49752e-07
3.49229e-07
3.48761e-07
3.48438e-07
3.94272e-07
3.94209e-07
3.94081e-07
3.93888e-07
3.9363e-07
3.93309e-07
3.92926e-07
3.92485e-07
3.91989e-07
3.91439e-07
3.90841e-07
3.90196e-07
3.89509e-07
3.88782e-07
3.88019e-07
3.87222e-07
3.86394e-07
3.85539e-07
3.8466e-07
3.83758e-07
3.82837e-07
3.819e-07
3.80949e-07
3.79985e-07
3.79013e-07
3.78034e-07
3.7705e-07
3.76065e-07
3.75079e-07
3.74096e-07
3.73118e-07
3.72146e-07
3.71184e-07
3.70234e-07
3.69297e-07
3.68377e-07
3.67475e-07
3.66594e-07
3.65736e-07
3.64904e-07
3.64099e-07
3.63325e-07
3.62583e-07
3.61877e-07
3.61207e-07
3.60578e-07
3.5999e-07
3.59447e-07
3.58948e-07
3.58496e-07
3.58092e-07
3.57741e-07
3.57442e-07
3.57201e-07
3.57015e-07
3.56893e-07
3.56832e-07
3.56853e-07
3.5697e-07
3.57256e-07
3.92547e-07
3.92491e-07
3.9238e-07
3.92213e-07
3.91989e-07
3.9171e-07
3.91377e-07
3.90992e-07
3.90557e-07
3.90075e-07
3.89548e-07
3.88979e-07
3.88371e-07
3.87725e-07
3.87045e-07
3.86334e-07
3.85594e-07
3.84828e-07
3.84038e-07
3.83228e-07
3.82399e-07
3.81555e-07
3.80698e-07
3.7983e-07
3.78955e-07
3.78074e-07
3.7719e-07
3.76306e-07
3.75424e-07
3.74547e-07
3.73677e-07
3.72818e-07
3.71971e-07
3.71139e-07
3.70325e-07
3.69533e-07
3.68764e-07
3.68021e-07
3.67308e-07
3.66628e-07
3.65983e-07
3.65378e-07
3.64814e-07
3.64297e-07
3.63828e-07
3.63412e-07
3.63052e-07
3.6275e-07
3.62511e-07
3.62339e-07
3.62239e-07
3.62216e-07
3.62272e-07
3.62415e-07
3.62647e-07
3.62976e-07
3.63407e-07
3.63958e-07
3.64645e-07
3.65525e-07
3.91231e-07
3.91182e-07
3.91084e-07
3.90935e-07
3.90735e-07
3.90486e-07
3.90189e-07
3.89844e-07
3.89455e-07
3.89023e-07
3.88549e-07
3.88037e-07
3.87488e-07
3.86905e-07
3.86289e-07
3.85644e-07
3.84972e-07
3.84275e-07
3.83556e-07
3.82818e-07
3.82063e-07
3.81293e-07
3.80512e-07
3.79721e-07
3.78924e-07
3.78123e-07
3.77321e-07
3.7652e-07
3.75724e-07
3.74934e-07
3.74154e-07
3.73388e-07
3.72636e-07
3.71904e-07
3.71193e-07
3.70507e-07
3.6985e-07
3.69224e-07
3.68634e-07
3.68083e-07
3.67574e-07
3.67113e-07
3.66702e-07
3.66346e-07
3.6605e-07
3.65818e-07
3.65655e-07
3.65565e-07
3.65556e-07
3.65632e-07
3.65801e-07
3.66069e-07
3.66443e-07
3.6693e-07
3.67537e-07
3.68275e-07
3.69152e-07
3.70187e-07
3.71396e-07
3.72821e-07
3.90282e-07
3.90237e-07
3.90147e-07
3.9001e-07
3.89828e-07
3.896e-07
3.89328e-07
3.89012e-07
3.88655e-07
3.88257e-07
3.87822e-07
3.8735e-07
3.86844e-07
3.86305e-07
3.85737e-07
3.8514e-07
3.84518e-07
3.83872e-07
3.83206e-07
3.82521e-07
3.81821e-07
3.81107e-07
3.80383e-07
3.79651e-07
3.78913e-07
3.78173e-07
3.77433e-07
3.76695e-07
3.75964e-07
3.75242e-07
3.74531e-07
3.73836e-07
3.73159e-07
3.72503e-07
3.71872e-07
3.7127e-07
3.707e-07
3.70166e-07
3.69672e-07
3.69222e-07
3.68821e-07
3.68473e-07
3.68183e-07
3.67956e-07
3.67797e-07
3.67713e-07
3.67709e-07
3.67791e-07
3.67968e-07
3.68246e-07
3.68633e-07
3.69139e-07
3.69772e-07
3.70541e-07
3.71458e-07
3.72534e-07
3.73782e-07
3.75218e-07
3.76863e-07
3.78744e-07
3.89666e-07
3.89624e-07
3.89539e-07
3.89411e-07
3.89239e-07
3.89025e-07
3.88768e-07
3.88471e-07
3.88134e-07
3.87759e-07
3.87348e-07
3.86902e-07
3.86424e-07
3.85915e-07
3.85376e-07
3.84811e-07
3.84222e-07
3.8361e-07
3.82979e-07
3.8233e-07
3.81666e-07
3.80989e-07
3.80303e-07
3.7961e-07
3.78912e-07
3.78213e-07
3.77515e-07
3.76821e-07
3.76134e-07
3.75457e-07
3.74793e-07
3.74147e-07
3.7352e-07
3.72917e-07
3.72341e-07
3.71795e-07
3.71285e-07
3.70814e-07
3.70387e-07
3.70007e-07
3.6968e-07
3.69411e-07
3.69206e-07
3.69069e-07
3.69006e-07
3.69025e-07
3.69132e-07
3.69335e-07
3.69642e-07
3.70062e-07
3.70604e-07
3.71278e-07
3.72095e-07
3.73065e-07
3.74203e-07
3.75521e-07
3.77035e-07
3.7876e-07
3.80719e-07
3.8293e-07
3.89365e-07
3.89324e-07
3.89242e-07
3.89117e-07
3.88951e-07
3.88743e-07
3.88494e-07
3.88205e-07
3.87879e-07
3.87515e-07
3.87116e-07
3.86683e-07
3.86218e-07
3.85723e-07
3.852e-07
3.84651e-07
3.84078e-07
3.83483e-07
3.82869e-07
3.82237e-07
3.81592e-07
3.80934e-07
3.80267e-07
3.79594e-07
3.78916e-07
3.78237e-07
3.7756e-07
3.76888e-07
3.76223e-07
3.75569e-07
3.7493e-07
3.74308e-07
3.73707e-07
3.7313e-07
3.72582e-07
3.72066e-07
3.71587e-07
3.71148e-07
3.70755e-07
3.70411e-07
3.70122e-07
3.69894e-07
3.69731e-07
3.6964e-07
3.69627e-07
3.69699e-07
3.69864e-07
3.70129e-07
3.70505e-07
3.70998e-07
3.71621e-07
3.72382e-07
3.73295e-07
3.7437e-07
3.75623e-07
3.77067e-07
3.78721e-07
3.80598e-07
3.82721e-07
3.85105e-07
3.89368e-07
3.89327e-07
3.89245e-07
3.8912e-07
3.88954e-07
3.88746e-07
3.88497e-07
3.88209e-07
3.87882e-07
3.87518e-07
3.87119e-07
3.86686e-07
3.86222e-07
3.85727e-07
3.85204e-07
3.84655e-07
3.84081e-07
3.83487e-07
3.82873e-07
3.82241e-07
3.81596e-07
3.80938e-07
3.80272e-07
3.79598e-07
3.78921e-07
3.78242e-07
3.77565e-07
3.76893e-07
3.76228e-07
3.75575e-07
3.74935e-07
3.74314e-07
3.73713e-07
3.73136e-07
3.72589e-07
3.72073e-07
3.71594e-07
3.71155e-07
3.70762e-07
3.70419e-07
3.7013e-07
3.69902e-07
3.69739e-07
3.69649e-07
3.69636e-07
3.69709e-07
3.69874e-07
3.7014e-07
3.70516e-07
3.7101e-07
3.71633e-07
3.72394e-07
3.73307e-07
3.74383e-07
3.75637e-07
3.77082e-07
3.78736e-07
3.80614e-07
3.82738e-07
3.85123e-07
3.89675e-07
3.89633e-07
3.89548e-07
3.8942e-07
3.89249e-07
3.89034e-07
3.88778e-07
3.8848e-07
3.88144e-07
3.87769e-07
3.87358e-07
3.86913e-07
3.86434e-07
3.85925e-07
3.85387e-07
3.84822e-07
3.84233e-07
3.83622e-07
3.8299e-07
3.82342e-07
3.81678e-07
3.81002e-07
3.80316e-07
3.79623e-07
3.78926e-07
3.78227e-07
3.77529e-07
3.76836e-07
3.76149e-07
3.75473e-07
3.7481e-07
3.74164e-07
3.73538e-07
3.72935e-07
3.7236e-07
3.71815e-07
3.71306e-07
3.70836e-07
3.70409e-07
3.7003e-07
3.69704e-07
3.69436e-07
3.69231e-07
3.69095e-07
3.69034e-07
3.69054e-07
3.69162e-07
3.69366e-07
3.69675e-07
3.70096e-07
3.7064e-07
3.71315e-07
3.72133e-07
3.73105e-07
3.74245e-07
3.75564e-07
3.7708e-07
3.78808e-07
3.80769e-07
3.82981e-07
3.90297e-07
3.90252e-07
3.90162e-07
3.90026e-07
3.89843e-07
3.89616e-07
3.89343e-07
3.89028e-07
3.88671e-07
3.88274e-07
3.87838e-07
3.87367e-07
3.86861e-07
3.86323e-07
3.85754e-07
3.85158e-07
3.84536e-07
3.83891e-07
3.83225e-07
3.82541e-07
3.81841e-07
3.81128e-07
3.80405e-07
3.79673e-07
3.78936e-07
3.78196e-07
3.77457e-07
3.76721e-07
3.7599e-07
3.75269e-07
3.74559e-07
3.73864e-07
3.73188e-07
3.72533e-07
3.71904e-07
3.71303e-07
3.70734e-07
3.70201e-07
3.69708e-07
3.6926e-07
3.6886e-07
3.68514e-07
3.68225e-07
3.68e-07
3.67843e-07
3.67761e-07
3.67758e-07
3.67843e-07
3.68022e-07
3.68302e-07
3.68692e-07
3.692e-07
3.69835e-07
3.70607e-07
3.71527e-07
3.72605e-07
3.73857e-07
3.75296e-07
3.76944e-07
3.78829e-07
3.91253e-07
3.91204e-07
3.91105e-07
3.90956e-07
3.90757e-07
3.90508e-07
3.9021e-07
3.89866e-07
3.89477e-07
3.89045e-07
3.88572e-07
3.8806e-07
3.87512e-07
3.86929e-07
3.86314e-07
3.85669e-07
3.84998e-07
3.84301e-07
3.83583e-07
3.82846e-07
3.82091e-07
3.81322e-07
3.80542e-07
3.79752e-07
3.78956e-07
3.78156e-07
3.77355e-07
3.76555e-07
3.7576e-07
3.74971e-07
3.74193e-07
3.73427e-07
3.72677e-07
3.71946e-07
3.71237e-07
3.70553e-07
3.69897e-07
3.69273e-07
3.68685e-07
3.68135e-07
3.67629e-07
3.67169e-07
3.66761e-07
3.66407e-07
3.66114e-07
3.65884e-07
3.65723e-07
3.65637e-07
3.6563e-07
3.6571e-07
3.65882e-07
3.66153e-07
3.6653e-07
3.67021e-07
3.67632e-07
3.68374e-07
3.69256e-07
3.70294e-07
3.71508e-07
3.72939e-07
3.92573e-07
3.92518e-07
3.92407e-07
3.9224e-07
3.92016e-07
3.91737e-07
3.91404e-07
3.91019e-07
3.90585e-07
3.90103e-07
3.89577e-07
3.89009e-07
3.88401e-07
3.87756e-07
3.87076e-07
3.86366e-07
3.85627e-07
3.84861e-07
3.84072e-07
3.83263e-07
3.82435e-07
3.81592e-07
3.80736e-07
3.79869e-07
3.78995e-07
3.78115e-07
3.77233e-07
3.7635e-07
3.75469e-07
3.74594e-07
3.73726e-07
3.72868e-07
3.72022e-07
3.71193e-07
3.70381e-07
3.6959e-07
3.68823e-07
3.68083e-07
3.67372e-07
3.66694e-07
3.66052e-07
3.65449e-07
3.64888e-07
3.64374e-07
3.63908e-07
3.63495e-07
3.63139e-07
3.6284e-07
3.62604e-07
3.62437e-07
3.6234e-07
3.62321e-07
3.62382e-07
3.6253e-07
3.62766e-07
3.631e-07
3.63537e-07
3.64093e-07
3.64786e-07
3.65673e-07
3.94304e-07
3.94241e-07
3.94113e-07
3.9392e-07
3.93663e-07
3.93342e-07
3.92959e-07
3.92519e-07
3.92022e-07
3.91474e-07
3.90876e-07
3.90232e-07
3.89545e-07
3.88819e-07
3.88056e-07
3.8726e-07
3.86433e-07
3.85579e-07
3.847e-07
3.838e-07
3.8288e-07
3.81944e-07
3.80994e-07
3.80032e-07
3.79061e-07
3.78083e-07
3.77101e-07
3.76117e-07
3.75133e-07
3.74152e-07
3.73176e-07
3.72206e-07
3.71246e-07
3.70298e-07
3.69364e-07
3.68446e-07
3.67546e-07
3.66668e-07
3.65813e-07
3.64983e-07
3.64182e-07
3.63411e-07
3.62672e-07
3.61969e-07
3.61303e-07
3.60678e-07
3.60094e-07
3.59555e-07
3.5906e-07
3.58613e-07
3.58214e-07
3.57867e-07
3.57574e-07
3.57338e-07
3.57158e-07
3.57041e-07
3.56986e-07
3.57014e-07
3.57138e-07
3.57431e-07
3.96509e-07
3.96434e-07
3.96282e-07
3.96054e-07
3.95749e-07
3.95371e-07
3.94921e-07
3.94405e-07
3.93826e-07
3.93188e-07
3.92496e-07
3.91753e-07
3.90965e-07
3.90135e-07
3.89266e-07
3.88362e-07
3.87427e-07
3.86463e-07
3.85475e-07
3.84463e-07
3.83433e-07
3.82384e-07
3.81322e-07
3.80247e-07
3.79162e-07
3.78068e-07
3.7697e-07
3.75867e-07
3.74763e-07
3.73659e-07
3.72557e-07
3.7146e-07
3.70369e-07
3.69285e-07
3.68211e-07
3.67149e-07
3.661e-07
3.65067e-07
3.6405e-07
3.63052e-07
3.62074e-07
3.61118e-07
3.60185e-07
3.59276e-07
3.58394e-07
3.57539e-07
3.56712e-07
3.55914e-07
3.55144e-07
3.544e-07
3.53681e-07
3.52991e-07
3.52325e-07
3.51689e-07
3.51075e-07
3.50491e-07
3.49929e-07
3.49413e-07
3.48954e-07
3.48638e-07
3.99275e-07
3.99183e-07
3.98998e-07
3.98719e-07
3.98348e-07
3.97889e-07
3.97346e-07
3.96727e-07
3.96036e-07
3.95281e-07
3.94467e-07
3.93599e-07
3.92682e-07
3.91722e-07
3.90722e-07
3.89686e-07
3.88619e-07
3.87524e-07
3.86404e-07
3.85261e-07
3.841e-07
3.82921e-07
3.81727e-07
3.80521e-07
3.79304e-07
3.78079e-07
3.76847e-07
3.7561e-07
3.7437e-07
3.73128e-07
3.71886e-07
3.70645e-07
3.69408e-07
3.68174e-07
3.66946e-07
3.65726e-07
3.64513e-07
3.6331e-07
3.62118e-07
3.60937e-07
3.59769e-07
3.58614e-07
3.57473e-07
3.56347e-07
3.55234e-07
3.54136e-07
3.5305e-07
3.51978e-07
3.50918e-07
3.49873e-07
3.48838e-07
3.47812e-07
3.46784e-07
3.45755e-07
3.44713e-07
3.4367e-07
3.42612e-07
3.41569e-07
3.40545e-07
3.39646e-07
4.02729e-07
4.02611e-07
4.02373e-07
4.02017e-07
4.01547e-07
4.00969e-07
4.00293e-07
3.99529e-07
3.98687e-07
3.97776e-07
3.96803e-07
3.95777e-07
3.94702e-07
3.93583e-07
3.92426e-07
3.91235e-07
3.90014e-07
3.88766e-07
3.87495e-07
3.86203e-07
3.84893e-07
3.83567e-07
3.82227e-07
3.80875e-07
3.79513e-07
3.78143e-07
3.76765e-07
3.75381e-07
3.73992e-07
3.726e-07
3.71206e-07
3.69811e-07
3.68416e-07
3.67021e-07
3.65629e-07
3.6424e-07
3.62854e-07
3.61472e-07
3.60095e-07
3.58725e-07
3.57359e-07
3.56001e-07
3.54648e-07
3.53302e-07
3.51962e-07
3.50628e-07
3.49299e-07
3.47974e-07
3.46649e-07
3.45323e-07
3.43984e-07
3.42631e-07
3.41249e-07
3.39843e-07
3.38403e-07
3.36939e-07
3.35432e-07
3.33905e-07
3.32356e-07
3.30899e-07
4.07078e-07
4.06915e-07
4.0659e-07
4.06106e-07
4.05474e-07
4.04708e-07
4.03827e-07
4.02849e-07
4.01791e-07
4.00663e-07
3.99477e-07
3.9824e-07
3.96959e-07
3.95639e-07
3.94286e-07
3.92904e-07
3.91498e-07
3.9007e-07
3.88624e-07
3.87162e-07
3.85685e-07
3.84196e-07
3.82696e-07
3.81185e-07
3.79666e-07
3.78139e-07
3.76604e-07
3.75064e-07
3.73518e-07
3.71968e-07
3.70413e-07
3.68855e-07
3.67294e-07
3.65732e-07
3.64167e-07
3.62602e-07
3.61036e-07
3.59469e-07
3.57902e-07
3.56336e-07
3.54769e-07
3.53202e-07
3.51634e-07
3.50064e-07
3.48491e-07
3.46914e-07
3.45328e-07
3.43734e-07
3.42125e-07
3.40501e-07
3.38857e-07
3.37195e-07
3.35506e-07
3.33798e-07
3.32044e-07
3.30249e-07
3.28378e-07
3.26452e-07
3.24469e-07
3.22553e-07
4.126e-07
4.12386e-07
4.11955e-07
4.11309e-07
4.10465e-07
4.09452e-07
4.08301e-07
4.07044e-07
4.05705e-07
4.04301e-07
4.02845e-07
4.01345e-07
3.99809e-07
3.98243e-07
3.96654e-07
3.95045e-07
3.9342e-07
3.91783e-07
3.90135e-07
3.88478e-07
3.86813e-07
3.85139e-07
3.83459e-07
3.81771e-07
3.80078e-07
3.78378e-07
3.76673e-07
3.74962e-07
3.73246e-07
3.71524e-07
3.69797e-07
3.68065e-07
3.66329e-07
3.64588e-07
3.62842e-07
3.61093e-07
3.59339e-07
3.57582e-07
3.55821e-07
3.54056e-07
3.52288e-07
3.50515e-07
3.48738e-07
3.46955e-07
3.45168e-07
3.43373e-07
3.41572e-07
3.39762e-07
3.37941e-07
3.36106e-07
3.34252e-07
3.32372e-07
3.30457e-07
3.28494e-07
3.26465e-07
3.2436e-07
3.22166e-07
3.19893e-07
3.17546e-07
3.15219e-07
4.19301e-07
4.18869e-07
4.18082e-07
4.16992e-07
4.15667e-07
4.14179e-07
4.12585e-07
4.10924e-07
4.09216e-07
4.07474e-07
4.05703e-07
4.03909e-07
4.02098e-07
4.00276e-07
3.98448e-07
3.96618e-07
3.94786e-07
3.92953e-07
3.91118e-07
3.89282e-07
3.87443e-07
3.85601e-07
3.83755e-07
3.81906e-07
3.80051e-07
3.78191e-07
3.76325e-07
3.74453e-07
3.72573e-07
3.70686e-07
3.68792e-07
3.66889e-07
3.64979e-07
3.6306e-07
3.61133e-07
3.59198e-07
3.57255e-07
3.55303e-07
3.53344e-07
3.51374e-07
3.49399e-07
3.47412e-07
3.45418e-07
3.43412e-07
3.414e-07
3.39371e-07
3.37337e-07
3.3528e-07
3.33218e-07
3.31126e-07
3.29029e-07
3.26893e-07
3.24754e-07
3.22567e-07
3.20381e-07
3.18133e-07
3.15896e-07
3.13579e-07
3.11288e-07
3.08917e-07
4.31038e-07
4.30287e-07
4.28874e-07
4.26922e-07
4.24637e-07
4.22217e-07
4.19787e-07
4.17398e-07
4.15052e-07
4.12737e-07
4.10444e-07
4.08172e-07
4.05927e-07
4.03713e-07
4.01533e-07
3.99384e-07
3.97263e-07
3.95164e-07
3.93083e-07
3.91016e-07
3.8896e-07
3.86911e-07
3.84868e-07
3.82828e-07
3.80788e-07
3.78746e-07
3.76701e-07
3.74651e-07
3.72595e-07
3.70531e-07
3.68459e-07
3.66377e-07
3.64286e-07
3.62184e-07
3.60073e-07
3.57949e-07
3.55817e-07
3.53671e-07
3.51517e-07
3.49348e-07
3.47173e-07
3.4498e-07
3.42785e-07
3.40569e-07
3.38355e-07
3.36115e-07
3.33886e-07
3.31621e-07
3.29383e-07
3.27097e-07
3.24862e-07
3.2256e-07
3.20349e-07
3.18041e-07
3.1589e-07
3.13591e-07
3.11551e-07
3.09265e-07
3.07377e-07
3.05011e-07
4.39779e-07
4.38052e-07
4.35407e-07
4.32282e-07
4.29066e-07
4.25971e-07
4.23048e-07
4.20262e-07
4.1756e-07
4.14914e-07
4.12316e-07
4.09774e-07
4.07292e-07
4.04871e-07
4.02505e-07
4.00185e-07
3.979e-07
3.95644e-07
3.93411e-07
3.91195e-07
3.88992e-07
3.86799e-07
3.84611e-07
3.82425e-07
3.80239e-07
3.78049e-07
3.75854e-07
3.73651e-07
3.71439e-07
3.69216e-07
3.66982e-07
3.64736e-07
3.62477e-07
3.60204e-07
3.5792e-07
3.5562e-07
3.53308e-07
3.50981e-07
3.48644e-07
3.46289e-07
3.43927e-07
3.41546e-07
3.39162e-07
3.36752e-07
3.34347e-07
3.31907e-07
3.29486e-07
3.27012e-07
3.24583e-07
3.22071e-07
3.19654e-07
3.17106e-07
3.14754e-07
3.12189e-07
3.10037e-07
3.07522e-07
3.05904e-07
3.03518e-07
3.03044e-07
3.00371e-07
4.87823e-07
4.737e-07
4.59933e-07
4.49356e-07
4.41934e-07
4.36543e-07
4.32092e-07
4.28013e-07
4.24138e-07
4.20473e-07
4.17057e-07
4.13894e-07
4.10948e-07
4.08172e-07
4.05517e-07
4.02952e-07
4.00454e-07
3.9801e-07
3.9561e-07
3.93245e-07
3.90906e-07
3.88585e-07
3.86277e-07
3.83975e-07
3.81675e-07
3.79373e-07
3.77066e-07
3.74752e-07
3.72429e-07
3.70094e-07
3.67748e-07
3.65388e-07
3.63014e-07
3.60626e-07
3.58224e-07
3.55808e-07
3.53378e-07
3.50934e-07
3.48476e-07
3.46006e-07
3.43524e-07
3.41029e-07
3.38523e-07
3.36004e-07
3.33474e-07
3.30931e-07
3.28376e-07
3.25804e-07
3.23221e-07
3.20609e-07
3.17992e-07
3.15317e-07
3.12666e-07
3.09866e-07
3.0722e-07
3.0409e-07
3.01734e-07
2.97329e-07
2.97023e-07
2.86426e-07
3.26017e-07
2.7545e-07
2.54552e-07
2.36969e-07
2.19361e-07
2.01591e-07
1.81763e-07
1.60572e-07
1.35844e-07
1.09232e-07
7.82597e-08
4.58413e-08
8.93652e-09
-2.80867e-08
-6.90645e-08
-1.08065e-07
-1.50335e-07
-1.88239e-07
-2.28919e-07
-2.62892e-07
-2.99457e-07
-3.2736e-07
-3.581e-07
-3.78285e-07
-4.02855e-07
-4.13041e-07
-4.35605e-07
-4.31379e-07
-4.60456e-07
-5.50464e-07
3.12126e-07
2.57e-07
2.43097e-07
2.28086e-07
2.11149e-07
1.9379e-07
1.74271e-07
1.53227e-07
1.28694e-07
1.0244e-07
7.21002e-08
4.054e-08
4.81242e-09
-3.0883e-08
-7.03256e-08
-1.07853e-07
-1.48321e-07
-1.84747e-07
-2.23604e-07
-2.56652e-07
-2.92083e-07
-3.19362e-07
-3.5038e-07
-3.6988e-07
-3.962e-07
-4.06299e-07
-4.27696e-07
-4.34349e-07
-4.37527e-07
-5.83334e-07
2.99937e-07
2.54536e-07
2.41678e-07
2.27138e-07
2.09705e-07
1.91363e-07
1.71324e-07
1.49939e-07
1.25358e-07
9.89724e-08
6.88714e-08
3.74052e-08
2.24587e-09
-3.30972e-08
-7.1634e-08
-1.08567e-07
-1.48047e-07
-1.84119e-07
-2.22456e-07
-2.55082e-07
-2.90174e-07
-3.17442e-07
-3.4751e-07
-3.68783e-07
-3.92682e-07
-4.09027e-07
-4.24952e-07
-4.47213e-07
-4.24867e-07
-5.26398e-07
2.89763e-07
2.50437e-07
2.35503e-07
2.21482e-07
2.04756e-07
1.87001e-07
1.67157e-07
1.45605e-07
1.21084e-07
9.45366e-08
6.47715e-08
3.33158e-08
-1.075e-09
-3.62211e-08
-7.3533e-08
-1.10265e-07
-1.48218e-07
-1.84235e-07
-2.20491e-07
-2.53747e-07
-2.86319e-07
-3.15868e-07
-3.43275e-07
-3.68265e-07
-3.885e-07
-4.11651e-07
-4.18436e-07
-4.52091e-07
-4.22716e-07
-4.9244e-07
2.79941e-07
2.47849e-07
2.32037e-07
2.19141e-07
2.02969e-07
1.84444e-07
1.64086e-07
1.41964e-07
1.17404e-07
9.04434e-08
6.09329e-08
2.91977e-08
-4.48662e-09
-3.97444e-08
-7.58531e-08
-1.1266e-07
-1.48967e-07
-1.85235e-07
-2.19537e-07
-2.53775e-07
-2.84267e-07
-3.15671e-07
-3.40288e-07
-3.68974e-07
-3.84988e-07
-4.1323e-07
-4.15622e-07
-4.49104e-07
-4.3117e-07
-4.65988e-07
2.71343e-07
2.46123e-07
2.29467e-07
2.16122e-07
2.00224e-07
1.81598e-07
1.61053e-07
1.38442e-07
1.13761e-07
8.6362e-08
5.69807e-08
2.49165e-08
-8.22794e-09
-4.36492e-08
-7.87314e-08
-1.15628e-07
-1.50448e-07
-1.86969e-07
-2.19495e-07
-2.54415e-07
-2.82929e-07
-3.15578e-07
-3.38369e-07
-3.68738e-07
-3.83663e-07
-4.12288e-07
-4.17284e-07
-4.43983e-07
-4.42816e-07
-4.58314e-07
2.64305e-07
2.44615e-07
2.27831e-07
2.13651e-07
1.97872e-07
1.79176e-07
1.58378e-07
1.35198e-07
1.10214e-07
8.23357e-08
5.2888e-08
2.05147e-08
-1.23447e-08
-4.78241e-08
-8.22155e-08
-1.18954e-07
-1.52755e-07
-1.89055e-07
-2.20475e-07
-2.5521e-07
-2.82888e-07
-3.15377e-07
-3.38197e-07
-3.67934e-07
-3.84841e-07
-4.10781e-07
-4.21954e-07
-4.41706e-07
-4.50166e-07
-4.60663e-07
2.59049e-07
2.43209e-07
2.26926e-07
2.11787e-07
1.95761e-07
1.76917e-07
1.55795e-07
1.32065e-07
1.06602e-07
7.82741e-08
4.85496e-08
1.59702e-08
-1.68897e-08
-5.22348e-08
-8.63185e-08
-1.22564e-07
-1.55879e-07
-1.91407e-07
-2.22452e-07
-2.56191e-07
-2.84051e-07
-3.15269e-07
-3.39381e-07
-3.67214e-07
-3.87178e-07
-4.10214e-07
-4.26168e-07
-4.42756e-07
-4.55202e-07
-4.65526e-07
2.5566e-07
2.41906e-07
2.26275e-07
2.10486e-07
1.939e-07
1.74744e-07
1.53203e-07
1.28953e-07
1.02877e-07
7.41205e-08
4.39435e-08
1.12394e-08
-2.18444e-08
-5.69105e-08
-9.09719e-08
-1.26496e-07
-1.59686e-07
-1.94109e-07
-2.25195e-07
-2.57549e-07
-2.85955e-07
-3.15608e-07
-3.41038e-07
-3.67236e-07
-3.89371e-07
-4.11118e-07
-4.29471e-07
-4.45947e-07
-4.59847e-07
-4.71613e-07
2.539e-07
2.40768e-07
2.257e-07
2.09552e-07
1.92249e-07
1.72592e-07
1.5051e-07
1.25746e-07
9.89802e-08
6.97857e-08
3.90528e-08
6.23878e-09
-2.71743e-08
-6.19243e-08
-9.60748e-08
-1.3083e-07
-1.63981e-07
-1.97273e-07
-2.28395e-07
-2.59442e-07
-2.88166e-07
-3.1658e-07
-3.42735e-07
-3.68079e-07
-3.91266e-07
-4.12877e-07
-4.32333e-07
-4.49585e-07
-4.6468e-07
-4.77951e-07
2.53294e-07
2.39944e-07
2.25093e-07
2.08699e-07
1.90674e-07
1.70376e-07
1.47635e-07
1.22321e-07
9.48432e-08
6.51711e-08
3.38517e-08
8.80506e-10
-3.28625e-08
-6.7354e-08
-1.01557e-07
-1.35635e-07
-1.68636e-07
-2.00962e-07
-2.31885e-07
-2.61899e-07
-2.9054e-07
-3.18127e-07
-3.44428e-07
-3.69412e-07
-3.93027e-07
-4.14909e-07
-4.35134e-07
-4.53312e-07
-4.69669e-07
-4.84352e-07
2.53259e-07
2.39474e-07
2.24463e-07
2.07729e-07
1.89e-07
1.67981e-07
1.44503e-07
1.18572e-07
9.03821e-08
6.01812e-08
2.82842e-08
-4.91534e-09
-3.89425e-08
-7.32649e-08
-1.07425e-07
-1.40955e-07
-1.73646e-07
-2.0518e-07
-2.35669e-07
-2.64861e-07
-2.93116e-07
-3.2009e-07
-3.46225e-07
-3.71008e-07
-3.94819e-07
-4.17044e-07
-4.37946e-07
-4.57031e-07
-4.74594e-07
-4.9071e-07
2.53393e-07
2.39212e-07
2.23767e-07
2.06513e-07
1.87065e-07
1.65288e-07
1.4103e-07
1.14411e-07
8.55013e-08
5.47179e-08
2.22588e-08
-1.12353e-08
-4.55002e-08
-7.97284e-08
-1.13762e-07
-1.46836e-07
-1.79099e-07
-2.09937e-07
-2.39844e-07
-2.68296e-07
-2.96004e-07
-3.22404e-07
-3.4823e-07
-3.72795e-07
-3.96722e-07
-4.19211e-07
-4.40777e-07
-4.60638e-07
-4.79421e-07
-4.96784e-07
2.53445e-07
2.38947e-07
2.22918e-07
2.04988e-07
1.84778e-07
1.62208e-07
1.37136e-07
1.09753e-07
8.00953e-08
4.86715e-08
1.56528e-08
-1.81906e-08
-5.2665e-08
-8.68492e-08
-1.20702e-07
-1.53364e-07
-1.85123e-07
-2.15297e-07
-2.44525e-07
-2.72244e-07
-2.99294e-07
-3.25094e-07
-3.50498e-07
-3.74789e-07
-3.98724e-07
-4.21416e-07
-4.43544e-07
-4.64139e-07
-4.84031e-07
-5.02603e-07
2.53324e-07
2.38485e-07
2.21828e-07
2.03137e-07
1.82106e-07
1.58682e-07
1.32737e-07
1.04503e-07
7.40402e-08
4.19096e-08
8.31101e-09
-2.59283e-08
-6.06054e-08
-9.47736e-08
-1.28413e-07
-1.60669e-07
-1.91869e-07
-2.21364e-07
-2.49838e-07
-2.76779e-07
-3.03076e-07
-3.282e-07
-3.53064e-07
-3.76989e-07
-4.00808e-07
-4.23612e-07
-4.46192e-07
-4.67453e-07
-4.88377e-07
-5.08077e-07
2.53088e-07
2.37789e-07
2.20483e-07
2.00982e-07
1.79047e-07
1.54662e-07
1.27737e-07
9.85389e-08
6.7185e-08
3.42666e-08
4.54989e-11
-3.46349e-08
-6.95209e-08
-1.03685e-07
-1.37082e-07
-1.68912e-07
-1.99497e-07
-2.28262e-07
-2.55903e-07
-2.81986e-07
-3.07418e-07
-3.3176e-07
-3.55943e-07
-3.7938e-07
-4.02917e-07
-4.25729e-07
-4.48602e-07
-4.70471e-07
-4.92312e-07
-5.1312e-07
2.52921e-07
2.36945e-07
2.1893e-07
1.98549e-07
1.75585e-07
1.50073e-07
1.22008e-07
9.16971e-08
5.9336e-08
2.55344e-08
-9.36795e-09
-4.45323e-08
-7.96341e-08
-1.13787e-07
-1.46905e-07
-1.7826e-07
-2.0816e-07
-2.36115e-07
-2.62826e-07
-2.87938e-07
-3.12385e-07
-3.35798e-07
-3.59142e-07
-3.8192e-07
-4.04992e-07
-4.2765e-07
-4.50631e-07
-4.73016e-07
-4.95618e-07
-5.17551e-07
2.53075e-07
2.3612e-07
2.17219e-07
1.95795e-07
1.71606e-07
1.4475e-07
1.1534e-07
8.37421e-08
5.02388e-08
1.54521e-08
-2.01934e-08
-5.58739e-08
-9.11858e-08
-1.25301e-07
-1.58079e-07
-1.88888e-07
-2.18008e-07
-2.45049e-07
-2.70713e-07
-2.94721e-07
-3.18041e-07
-3.40346e-07
-3.62686e-07
-3.84577e-07
-4.06995e-07
-4.29245e-07
-4.52152e-07
-4.74833e-07
-4.98072e-07
-5.20997e-07
2.53673e-07
2.35428e-07
2.15304e-07
1.92528e-07
1.66838e-07
1.38391e-07
1.07419e-07
7.43527e-08
3.95665e-08
3.69748e-09
-3.27439e-08
-6.8953e-08
-1.0445e-07
-1.38474e-07
-1.7083e-07
-2.00999e-07
-2.29221e-07
-2.5523e-07
-2.79703e-07
-3.02462e-07
-3.24483e-07
-3.45494e-07
-3.66621e-07
-3.87375e-07
-4.089e-07
-4.30431e-07
-4.53016e-07
-4.75671e-07
-4.99324e-07
-5.22977e-07
2.54489e-07
2.34693e-07
2.12862e-07
1.88313e-07
1.60812e-07
1.30533e-07
9.77944e-08
6.30867e-08
2.68848e-08
-1.01491e-08
-4.74217e-08
-8.41476e-08
-1.19781e-07
-1.53636e-07
-1.85471e-07
-2.14886e-07
-2.42075e-07
-2.66915e-07
-2.90025e-07
-3.11373e-07
-3.31883e-07
-3.51393e-07
-3.71045e-07
-3.90385e-07
-4.10708e-07
-4.31148e-07
-4.53083e-07
-4.75229e-07
-4.98975e-07
-5.22786e-07
2.54745e-07
2.3312e-07
2.09243e-07
1.82571e-07
1.5295e-07
1.20583e-07
8.58656e-08
4.93474e-08
1.16047e-08
-2.66622e-08
-6.47826e-08
-1.01988e-07
-1.37684e-07
-1.71263e-07