/*--------------------------------*- C++ -*----------------------------------*\
| =========                 |                                                 |
| \\      /  F ield         | OpenFOAM: The Open Source CFD Toolbox           |
|  \\    /   O peration     | Version:  2312                                  |
|   \\  /    A nd           | Website:  www.openfoam.com                      |
|    \\/     M anipulation  |                                                 |
\*---------------------------------------------------------------------------*/
FoamFile
{
    version     2.0;
    format      ascii;
    arch        "LSB;label=32;scalar=64";
    class       surfaceScalarField;
    location    "198000";
    object      phi;
}
// * * * * * * * * * * * * * * * * * * * * * * * * * * * * * * * * * * * * * //

dimensions      [0 3 -1 0 0 0 0];

oriented        oriented;

internalField   nonuniform List<scalar> 
5250
(
0.000148635
-7.50377e-06
0.000154501
-5.86627e-06
0.000158868
-4.36679e-06
0.00016209
-3.22247e-06
0.000164509
-2.4184e-06
0.000166343
-1.8348e-06
0.000167698
-1.35481e-06
0.000168453
-7.54931e-07
0.00016846
-6.81514e-09
0.000167765
6.94786e-07
0.000166409
1.35625e-06
0.000164671
1.73827e-06
0.000162928
1.74324e-06
0.000161549
1.37854e-06
0.00016083
7.19046e-07
0.000160945
-1.14866e-07
0.00016181
-8.65059e-07
0.000163429
-1.61948e-06
0.000165718
-2.28877e-06
0.000168521
-2.80332e-06
0.000171698
-3.17655e-06
0.000175084
-3.38603e-06
0.000178423
-3.33884e-06
0.000181465
-3.04168e-06
0.000183904
-2.43942e-06
0.000185446
-1.54217e-06
0.000185886
-4.39763e-07
0.000185393
4.92753e-07
0.000184217
1.17562e-06
0.000182497
1.72091e-06
0.000180224
2.27279e-06
0.000177281
2.9427e-06
0.000173556
3.72484e-06
0.000168939
4.61688e-06
0.000163302
5.63706e-06
0.000156914
6.38822e-06
0.000150021
6.89327e-06
0.000142895
7.12591e-06
0.000135819
7.07611e-06
0.000129074
6.74477e-06
0.000122931
6.14336e-06
0.000117639
5.29181e-06
0.000113397
4.24186e-06
0.000110319
3.07817e-06
0.000108433
1.8858e-06
0.000107712
7.21247e-07
0.000108052
-3.40714e-07
0.000109337
-1.28488e-06
0.000111493
-2.15607e-06
0.000114417
-2.92387e-06
0.000117979
-3.56138e-06
0.000122025
-4.04601e-06
0.000126393
-4.36797e-06
0.000130923
-4.5304e-06
0.00013547
-4.54666e-06
0.000139907
-4.43693e-06
0.000144131
-4.22429e-06
0.000148061
-3.93015e-06
0.000151632
-3.57099e-06
0.000154791
-3.15894e-06
0.000157497
-2.70551e-06
0.000159723
-2.22651e-06
0.000161468
-1.74495e-06
0.000162756
-1.28846e-06
0.00016364
-8.83661e-07
0.000164191
-5.50394e-07
0.000164488
-2.97939e-07
0.000164613
-1.24377e-07
0.000164633
-1.97744e-08
0.000164584
4.83868e-08
0.000164493
9.07481e-08
0.000164374
1.1953e-07
0.000164227
1.47285e-07
0.000164049
1.7732e-07
0.000163845
2.04382e-07
0.000163634
2.10589e-07
0.000163476
1.58675e-07
0.000163431
4.50785e-08
0.0001636
-1.6943e-07
0.000164071
-4.70805e-07
0.000164898
-8.2699e-07
0.000166095
-1.19745e-06
0.000167631
-1.53551e-06
0.000169429
-1.79798e-06
0.000171384
-1.95535e-06
0.000173383
-1.99897e-06
0.000175325
-1.94146e-06
0.000177135
-1.80995e-06
0.000178769
-1.63445e-06
-1.43306e-06
0.000487845
5.08683e-07
0.000482488
-5.09093e-07
0.000479464
-1.34276e-06
0.000478268
-2.02632e-06
0.000478462
-2.61319e-06
0.000479748
-3.12035e-06
0.000482059
-3.66538e-06
0.000485454
-4.15019e-06
0.000489997
-4.54968e-06
0.000495576
-4.88411e-06
0.000502194
-5.26221e-06
0.000509604
-5.67184e-06
0.000517421
-6.07354e-06
0.000525305
-6.50546e-06
0.000532954
-6.92972e-06
0.000540109
-7.27033e-06
0.000546701
-7.45718e-06
0.00055251
-7.42786e-06
0.00055733
-7.10885e-06
0.000560954
-6.42797e-06
0.000563119
-5.3411e-06
0.000563584
-3.85135e-06
0.000562209
-1.9636e-06
0.000558894
2.73047e-07
0.000553501
2.95362e-06
0.000546025
5.93409e-06
0.000536551
9.03394e-06
0.000525063
1.19808e-05
0.000511684
1.45549e-05
0.000496684
1.67204e-05
0.000480384
1.85728e-05
0.000463201
2.01263e-05
0.000445803
2.11225e-05
0.000428598
2.18223e-05
0.000412187
2.20484e-05
0.000396977
2.15974e-05
0.000383325
2.0546e-05
0.000371341
1.91099e-05
0.000360925
1.74913e-05
0.000351861
1.58096e-05
0.00034391
1.40943e-05
0.000337184
1.20173e-05
0.000331839
9.58712e-06
0.000327967
6.95022e-06
0.000325575
4.27768e-06
0.000324596
1.69998e-06
0.000324949
-6.93431e-07
0.00032657
-2.90588e-06
0.000329342
-4.92806e-06
0.000333111
-6.69256e-06
0.000337706
-8.157e-06
0.000342934
-9.2739e-06
0.000348591
-1.00253e-05
0.000354483
-1.04218e-05
0.000360435
-1.04993e-05
0.000366311
-1.03129e-05
0.000372014
-9.92726e-06
0.000377484
-9.39953e-06
0.000382676
-8.76282e-06
0.000387542
-8.02527e-06
0.000392022
-7.18555e-06
0.000396051
-6.255e-06
0.000399584
-5.27849e-06
0.000402621
-4.32575e-06
0.00040521
-3.47272e-06
0.000407443
-2.7826e-06
0.000409435
-2.28988e-06
0.000411306
-1.9961e-06
0.000413161
-1.87468e-06
0.00041509
-1.88042e-06
0.000417135
-1.95447e-06
0.000419292
-2.03742e-06
0.000421524
-2.08485e-06
0.000423774
-2.07207e-06
0.000425975
-1.99742e-06
0.000428071
-1.88453e-06
0.000430001
-1.77202e-06
0.000431724
-1.6772e-06
0.0004332
-1.64578e-06
0.00043443
-1.7009e-06
0.000435415
-1.81215e-06
0.000436171
-1.95321e-06
0.000436719
-2.08323e-06
0.000437056
-2.13549e-06
0.000437129
-2.02828e-06
0.00043684
-1.70946e-06
0.000436108
-1.20975e-06
0.000434949
-6.51015e-07
0.00043349
-1.75591e-07
2.26922e-07
0.000648098
9.15524e-06
0.000640448
7.14146e-06
0.000634127
4.9778e-06
0.00062932
2.7808e-06
0.000626091
6.15545e-07
0.000624357
-1.38661e-06
0.000624041
-3.34931e-06
0.000625153
-5.26206e-06
0.000627696
-7.09204e-06
0.000631653
-8.84131e-06
0.000636935
-1.05445e-05
0.000643483
-1.22195e-05
0.000651268
-1.38592e-05
0.000660195
-1.5432e-05
0.000670133
-1.68674e-05
0.000680939
-1.80767e-05
0.000692453
-1.89715e-05
0.000704496
-1.94705e-05
0.000716889
-1.95023e-05
0.000729475
-1.90139e-05
0.000742101
-1.7967e-05
0.000754588
-1.63381e-05
0.000766765
-1.41406e-05
0.00077837
-1.1332e-05
0.000789118
-7.79483e-06
0.000798628
-3.57541e-06
0.000806531
1.13027e-06
0.000812403
6.10971e-06
0.000815461
1.1496e-05
0.000815021
1.71613e-05
0.000810614
2.29795e-05
0.000801931
2.88092e-05
0.000788575
3.44783e-05
0.000770704
3.96933e-05
0.000748814
4.39387e-05
0.000723719
4.6692e-05
0.000696384
4.78809e-05
0.000667831
4.76628e-05
0.000638998
4.63247e-05
0.000610808
4.3999e-05
0.000584353
4.05498e-05
0.000560606
3.57645e-05
0.00054035
2.9843e-05
0.000523743
2.35571e-05
0.000510326
1.76948e-05
0.000499421
1.26046e-05
0.000490566
8.16141e-06
0.000483647
4.01309e-06
0.00047874
-2.0918e-08
0.000475735
-3.68722e-06
0.000474581
-7.00301e-06
0.000474935
-9.62787e-06
0.000476392
-1.14827e-05
0.000478547
-1.25764e-05
0.000481031
-1.29833e-05
0.000483551
-1.28325e-05
0.000485921
-1.22981e-05
0.000488066
-1.15441e-05
0.00048996
-1.06566e-05
0.00049156
-9.62583e-06
0.000492773
-8.3979e-06
0.000493472
-6.95402e-06
0.00049356
-5.36689e-06
0.000493025
-3.79106e-06
0.000491974
-2.42125e-06
0.000490633
-1.44196e-06
0.000489322
-9.78516e-07
0.000488397
-1.0712e-06
0.000488199
-1.67711e-06
0.000489013
-2.69394e-06
0.000491052
-3.99386e-06
0.000494449
-5.43438e-06
0.000499262
-6.89788e-06
0.000505486
-8.29602e-06
0.000513041
-9.55252e-06
0.000521774
-1.06168e-05
0.000531481
-1.14792e-05
0.000541937
-1.21332e-05
0.000552862
-1.25705e-05
0.000563946
-1.27854e-05
0.000574917
-1.27831e-05
0.000585546
-1.25821e-05
0.000595657
-1.21942e-05
0.000605117
-1.15961e-05
0.000613814
-1.07246e-05
0.000621627
-9.52249e-06
0.000628434
-8.01688e-06
0.000634142
-6.35872e-06
0.000638718
-4.75192e-06
-3.28214e-06
0.000713855
2.16592e-05
0.000702688
1.83086e-05
0.000692783
1.48833e-05
0.000684192
1.13708e-05
0.000677014
7.79364e-06
0.000671448
4.17969e-06
0.000667536
5.63163e-07
0.000665597
-3.32362e-06
0.000665674
-7.16874e-06
0.000667833
-1.10001e-05
0.000672071
-1.47832e-05
0.000678317
-1.8465e-05
0.000686433
-2.19753e-05
0.000696241
-2.52402e-05
0.000707555
-2.81809e-05
0.000720191
-3.07127e-05
0.000733975
-3.27558e-05
0.000748743
-3.42387e-05
0.000764343
-3.51021e-05
0.000780641
-3.53115e-05
0.00079752
-3.48465e-05
0.000814871
-3.36887e-05
0.000832556
-3.18253e-05
0.000850458
-2.9234e-05
0.000868521
-2.58583e-05
0.00088667
-2.17243e-05
0.00090471
-1.69095e-05
0.00092221
-1.13909e-05
0.000938856
-5.14965e-06
0.000954
2.01671e-06
0.00096696
1.00202e-05
0.000977197
1.85721e-05
0.000984201
2.74742e-05
0.000987474
3.64205e-05
0.000986406
4.50069e-05
0.000980098
5.29999e-05
0.000967928
6.00506e-05
0.000949806
6.57851e-05
0.000926115
7.00157e-05
0.000897492
7.26215e-05
0.000864883
7.3159e-05
0.000829616
7.10319e-05
0.000793204
6.62545e-05
0.000757099
5.96619e-05
0.000722629
5.21653e-05
0.000691129
4.4104e-05
0.000663765
3.55263e-05
0.000640978
2.67994e-05
0.000622363
1.85941e-05
0.000607243
1.14335e-05
0.000594759
5.48062e-06
0.000584399
7.32502e-07
0.000575859
-2.94302e-06
0.00056877
-5.48788e-06
0.000562742
-6.95446e-06
0.000557359
-7.45007e-06
0.00055232
-7.25932e-06
0.0005475
-6.72347e-06
0.000542851
-6.00745e-06
0.000538226
-5.00128e-06
0.000533291
-3.46245e-06
0.000527602
-1.2653e-06
0.000520931
1.30376e-06
0.000513302
3.83793e-06
0.000505087
5.79451e-06
0.000496936
6.70873e-06
0.000489581
6.37641e-06
0.000483652
4.8582e-06
0.000479574
2.40011e-06
0.000477645
-7.6421e-07
0.000477976
-4.32482e-06
0.000480476
-7.93481e-06
0.000485001
-1.14226e-05
0.000491363
-1.46587e-05
0.000499368
-1.75572e-05
0.000508819
-2.00676e-05
0.000519513
-2.21736e-05
0.000531267
-2.38873e-05
0.000543915
-2.5218e-05
0.00055729
-2.61602e-05
0.00057122
-2.6714e-05
0.000585524
-2.68858e-05
0.000600016
-2.66856e-05
0.000614538
-2.6119e-05
0.000628997
-2.51835e-05
0.000643351
-2.38764e-05
0.000657555
-2.22208e-05
0.000671488
-2.02914e-05
0.000684944
-1.82075e-05
-1.60746e-05
0.000721583
3.66081e-05
0.000707927
3.19646e-05
0.000695774
2.70367e-05
0.000685213
2.19314e-05
0.000676372
1.66355e-05
0.000669459
1.10926e-05
0.000664688
5.33435e-06
0.00066191
-5.46156e-07
0.000661176
-6.43485e-06
0.000662488
-1.23124e-05
0.000665871
-1.81657e-05
0.000671327
-2.39208e-05
0.000678817
-2.9466e-05
0.000688266
-3.46884e-05
0.000699559
-3.94741e-05
0.000712554
-4.37075e-05
0.000727083
-4.72854e-05
0.000742975
-5.01309e-05
0.000760074
-5.22004e-05
0.000778244
-5.34816e-05
0.000797375
-5.39778e-05
0.00081739
-5.37039e-05
0.00083826
-5.26952e-05
0.000860008
-5.09821e-05
0.000882703
-4.85525e-05
0.000906333
-4.53548e-05
0.000930718
-4.12946e-05
0.000955518
-3.61908e-05
0.000980199
-2.98302e-05
0.00100427
-2.20581e-05
0.00102713
-1.28345e-05
0.00104788
-2.17583e-06
0.00106605
9.29859e-06
0.00108069
2.17818e-05
0.00109101
3.46915e-05
0.00109653
4.74796e-05
0.00109704
5.95339e-05
0.00109259
7.02411e-05
0.00108344
7.91605e-05
0.00107005
8.60167e-05
0.0010525
9.07102e-05
0.00103018
9.33445e-05
0.00100232
9.41201e-05
0.000968825
9.31538e-05
0.00093078
9.02112e-05
0.000890133
8.47506e-05
0.000849006
7.66531e-05
0.000809175
6.66305e-05
0.000772143
5.56259e-05
0.000739148
4.44288e-05
0.000710697
3.39317e-05
0.000686499
2.49307e-05
0.000665874
1.76815e-05
0.000648164
1.22225e-05
0.000632488
8.7217e-06
0.000617965
7.07234e-06
0.000604168
6.53796e-06
0.000591152
6.29269e-06
0.000578913
6.23171e-06
0.000566909
7.00272e-06
0.000554205
9.24142e-06
0.000540096
1.28439e-05
0.000524529
1.68709e-05
0.00050833
2.00365e-05
0.000492794
2.13301e-05
0.000479147
2.03561e-05
0.000468225
1.72984e-05
0.000460378
1.27056e-05
0.000455588
7.19015e-06
0.000453577
1.24645e-06
0.000453932
-4.67967e-06
0.000456442
-1.0445e-05
0.000460857
-1.58373e-05
0.000466977
-2.07789e-05
0.000474651
-2.52315e-05
0.000483762
-2.91782e-05
0.000494202
-3.26134e-05
0.00050585
-3.55358e-05
0.000518575
-3.79433e-05
0.000532247
-3.9832e-05
0.000546731
-4.11974e-05
0.00056188
-4.20353e-05
0.000577537
-4.23422e-05
0.000593537
-4.2119e-05
0.000609728
-4.13747e-05
0.000625984
-4.01326e-05
0.000642199
-3.84362e-05
0.000658261
-3.63526e-05
0.000674021
-3.39677e-05
-3.13704e-05
0.000702943
5.21108e-05
0.000688663
4.62442e-05
0.000675594
4.01056e-05
0.000664081
3.34446e-05
0.000654399
2.63176e-05
0.000646529
1.89624e-05
0.000640308
1.15561e-05
0.000635638
4.12345e-06
0.000632988
-3.7849e-06
0.000632794
-1.21181e-05
0.000635331
-2.07028e-05
0.000640625
-2.92148e-05
0.000648486
-3.7327e-05
0.000658629
-4.48314e-05
0.000670748
-5.1593e-05
0.000684551
-5.75105e-05
0.000699783
-6.25174e-05
0.000716234
-6.65817e-05
0.000733744
-6.97107e-05
0.000752215
-7.19522e-05
0.000771628
-7.33911e-05
0.000792057
-7.41331e-05
0.00081365
-7.4288e-05
0.000836615
-7.39471e-05
0.000861203
-7.3141e-05
0.000887641
-7.17923e-05
0.000916026
-6.96794e-05
0.000946258
-6.64234e-05
0.000978027
-6.15985e-05
0.00101077
-5.48061e-05
0.00104364
-4.56996e-05
0.00107551
-3.40487e-05
0.00110476
-1.99468e-05
0.00113025
-3.71074e-06
0.00115045
1.44904e-05
0.00116455
3.33815e-05
0.00117181
5.22711e-05
0.00117194
7.01107e-05
0.00116518
8.59239e-05
0.00115236
9.88348e-05
0.00113481
0.000108261
0.00111417
0.000113981
0.00109199
0.000116302
0.00106889
0.000116259
0.00104421
0.000114887
0.00101653
0.000112428
0.000984402
0.000108785
0.000947267
0.000103765
0.00090622
9.66728e-05
0.000863602
8.70473e-05
0.000821926
7.56072e-05
0.000783303
6.35543e-05
0.000749092
5.18925e-05
0.000719378
4.1936e-05
0.000693092
3.50084e-05
0.000669138
3.10256e-05
0.000647193
2.84835e-05
0.000627159
2.63262e-05
0.000608217
2.5174e-05
0.000588837
2.63828e-05
0.000567806
3.02724e-05
0.00054518
3.54695e-05
0.000522313
3.9738e-05
0.000501057
4.12932e-05
0.00048287
3.95165e-05
0.000468395
3.48312e-05
0.000457537
2.81563e-05
0.000449822
2.04208e-05
0.000444683
1.23293e-05
0.000441603
4.32629e-06
0.000440505
-3.58164e-06
0.000441156
-1.10964e-05
0.000443448
-1.81289e-05
0.000447336
-2.46671e-05
0.000452801
-3.06964e-05
0.000459825
-3.62017e-05
0.00046838
-4.11688e-05
0.00047843
-4.55854e-05
0.000489926
-4.94392e-05
0.000502809
-5.27155e-05
0.000517006
-5.53939e-05
0.000532418
-5.74481e-05
0.000548922
-5.88463e-05
0.000566362
-5.95583e-05
0.000584551
-5.95643e-05
0.000603284
-5.88657e-05
0.00062234
-5.74921e-05
0.000641488
-5.55006e-05
0.000660491
-5.29707e-05
-5.00111e-05
0.000674937
6.98163e-05
0.000658562
6.26195e-05
0.00064421
5.44572e-05
0.000631341
4.63138e-05
0.000619083
3.85754e-05
0.000607552
3.04938e-05
0.000597923
2.1185e-05
0.000591638
1.04083e-05
0.00058905
-1.19673e-06
0.000589677
-1.27453e-05
0.000592973
-2.39984e-05
0.000597798
-3.404e-05
0.000603512
-4.30409e-05
0.000609996
-5.13155e-05
0.000617468
-5.90654e-05
0.000626231
-6.6273e-05
0.000636501
-7.27878e-05
0.000648352
-7.84333e-05
0.00066174
-8.30981e-05
0.000676573
-8.67849e-05
0.000692804
-8.96228e-05
0.000710502
-9.18307e-05
0.0007299
-9.36863e-05
0.000751432
-9.54792e-05
0.000775679
-9.73875e-05
0.00080323
-9.93429e-05
0.000834522
-0.000100971
0.000869727
-0.000101628
0.00090864
-0.000100512
0.000950576
-9.67419e-05
0.000994478
-8.96021e-05
0.00103896
-7.85281e-05
0.00108247
-6.34637e-05
0.00112321
-4.44432e-05
0.00115981
-2.21113e-05
0.00119007
3.11781e-06
0.00121236
2.99867e-05
0.00122543
5.70357e-05
0.00122867
8.26861e-05
0.00122205
0.000105451
0.00120611
0.000124205
0.00118233
0.00013776
0.00115333
0.000145307
0.00112213
0.000147459
0.00109129
0.000145719
0.00106211
0.000141614
0.00103408
0.00013681
0.0010055
0.000132348
0.000974454
0.00012772
0.000939586
0.000121915
0.000900841
0.000114352
0.000859937
0.000104459
0.00081941
9.24191e-05
0.000781003
8.03426e-05
0.000745353
7.06591e-05
0.000712831
6.35476e-05
0.000683681
5.76331e-05
0.000657203
5.28039e-05
0.000631601
5.07757e-05
0.000605174
5.28103e-05
0.000577627
5.78189e-05
0.000550207
6.289e-05
0.000524698
6.52474e-05
0.000502336
6.36543e-05
0.000483406
5.84466e-05
0.000467502
5.07358e-05
0.000454018
4.16398e-05
0.000442498
3.19406e-05
0.000432751
2.2077e-05
0.000424823
1.22544e-05
0.000418634
2.60725e-06
0.000414675
-7.13817e-06
0.000413029
-1.64828e-05
0.000413781
-2.54185e-05
0.000416953
-3.38684e-05
0.0004225
-4.17492e-05
0.000430321
-4.89897e-05
0.000440277
-5.55413e-05
0.000452215
-6.13775e-05
0.000465987
-6.64871e-05
0.000481454
-7.08613e-05
0.00049849
-7.44833e-05
0.000516963
-7.73196e-05
0.000536727
-7.93221e-05
0.000557599
-8.04371e-05
0.000579358
-8.06243e-05
0.00060174
-7.98743e-05
0.000624463
-7.82233e-05
0.000647249
-7.57564e-05
-7.26034e-05
0.000641836
8.94128e-05
0.000623652
8.0804e-05
0.000604589
7.35199e-05
0.000584829
6.60742e-05
0.000567531
5.58733e-05
0.000556064
4.19612e-05
0.000550668
2.65808e-05
0.000547567
1.3509e-05
0.00054225
4.12054e-06
0.000533486
-3.981e-06
0.00052244
-1.29531e-05
0.00051186
-2.34595e-05
0.000503934
-3.51154e-05
0.000500334
-4.7715e-05
0.000502007
-6.07386e-05
0.000508948
-7.32145e-05
0.000520581
-8.44207e-05
0.000535992
-9.38443e-05
0.000554121
-0.000101226
0.000573935
-0.000106599
0.000594605
-0.000110294
0.000615676
-0.000112902
0.000637166
-0.000115176
0.000659542
-0.000117856
0.000683626
-0.000121471
0.000710436
-0.000126153
0.000740973
-0.000131509
0.000775987
-0.000136642
0.000815717
-0.000140242
0.000859793
-0.000140818
0.000907322
-0.000137131
0.00095711
-0.000128316
0.00100752
-0.000113869
0.0010568
-9.373e-05
0.00110314
-6.84515e-05
0.00114522
-3.89637e-05
0.00118167
-6.45932e-06
0.00121041
2.8292e-05
0.0012299
6.31972e-05
0.00123889
9.64643e-05
0.00123662
0.000126475
0.0012229
0.000151477
0.00119845
0.000169761
0.00116559
0.000180315
0.00112839
0.000182921
0.00109112
0.000178889
0.00105644
0.000171489
0.00102498
0.000163807
0.000995696
0.000157002
0.00096638
0.000151232
0.00093478
0.000145951
0.000899906
0.000139333
0.000862248
0.000130076
0.000823194
0.000119398
0.000784574
0.000109279
0.00074816
9.99618e-05
0.000714701
9.10917e-05
0.000683392
8.41128e-05
0.000652669
8.14988e-05
0.000621655
8.38243e-05
0.000590797
8.86765e-05
0.000561253
9.24347e-05
0.000533869
9.26311e-05
0.000508744
8.87795e-05
0.000485499
8.16916e-05
0.000463776
7.24584e-05
0.000443534
6.18818e-05
0.00042504
5.04352e-05
0.000408713
3.84041e-05
0.000395003
2.59645e-05
0.000384309
1.33004e-05
0.000376597
5.74059e-07
0.000372631
-1.2517e-05
0.000372249
-2.50358e-05
0.000375383
-3.70031e-05
0.000381863
-4.82287e-05
0.000391428
-5.8555e-05
0.000403764
-6.78774e-05
0.000418536
-7.61492e-05
0.00043542
-8.33716e-05
0.000454132
-8.95729e-05
0.000474431
-9.47824e-05
0.000496116
-9.90049e-05
0.000519003
-0.000102209
0.000542894
-0.000104329
0.000567562
-0.000105292
0.000592743
-0.000105054
0.000618151
-0.000103632
0.000643518
-0.000101123
-9.77048e-05
0.000599921
0.000113899
0.000573289
0.000107437
0.000549844
9.69644e-05
0.000534428
8.14898e-05
0.000524341
6.5961e-05
0.000511502
5.48001e-05
0.000490426
4.76569e-05
0.000461872
4.20627e-05
0.000431485
3.45075e-05
0.000404873
2.26315e-05
0.000386567
5.35295e-06
0.000378436
-1.53288e-05
0.000381967
-3.86463e-05
0.000396219
-6.19676e-05
0.000418794
-8.33131e-05
0.000447133
-0.000101554
0.000478924
-0.000116212
0.000512293
-0.000127213
0.000545759
-0.000134692
0.000578105
-0.000138945
0.00060832
-0.000140509
0.000635697
-0.000140279
0.000660035
-0.000139513
0.000681792
-0.000139613
0.000702088
-0.000141767
0.000722527
-0.000146592
0.000744883
-0.000153864
0.00077069
-0.00016245
0.000800906
-0.000170458
0.000835747
-0.000175658
0.00087465
-0.000176034
0.000916539
-0.000170205
0.000960132
-0.000157463
0.00100407
-0.000137663
0.00104696
-0.00011135
0.00108766
-7.96591e-05
0.00112495
-4.37517e-05
0.00115783
-4.5859e-06
0.00118387
3.71554e-05
0.00120196
7.83748e-05
0.001211
0.000117438
0.00121018
0.00015229
0.00119871
0.000181238
0.00117644
0.000202585
0.001145
0.000214356
0.00110771
0.000216184
0.00106865
0.000210542
0.00103162
0.000200841
0.000998546
0.000190075
0.000968764
0.000181013
0.000940042
0.000174674
0.00091022
0.000169156
0.000878034
0.000162262
0.00084344
0.000153991
0.000807653
0.000145066
0.000772341
0.000135274
0.000738338
0.000125095
0.000705241
0.00011721
0.00067227
0.00011447
0.000639249
0.000116845
0.00060666
0.000121266
0.000574994
0.0001241
0.000544349
0.000123276
0.000514589
0.000118539
0.000485697
0.000110583
0.000457994
0.000100162
0.000431974
8.79014e-05
0.000408108
7.43014e-05
0.000386896
5.96167e-05
0.000368822
4.40386e-05
0.000354331
2.77914e-05
0.000343893
1.10118e-05
0.000337557
-6.18123e-06
0.000335643
-2.31218e-05
0.000338181
-3.95406e-05
0.000345085
-5.51335e-05
0.000356133
-6.96031e-05
0.000370974
-8.27177e-05
0.000389158
-9.43334e-05
0.000410186
-0.0001044
0.00043356
-0.000112947
0.000458824
-0.000120046
0.000485585
-0.000125766
0.000513503
-0.000130127
0.000542261
-0.000133087
0.00057153
-0.000134562
0.000600961
-0.000134485
0.000630197
-0.000132868
0.000658922
-0.000129849
-0.000125688
0.000546677
0.00014401
0.000522925
0.000131189
0.000505929
0.00011396
0.00048703
0.000100389
0.000457471
9.552e-05
0.000416233
9.60385e-05
0.00037042
9.34698e-05
0.000331282
8.12006e-05
0.00030702
5.87695e-05
0.000300146
2.95052e-05
0.000308804
-3.30486e-06
0.00033036
-3.68841e-05
0.000360411
-6.86983e-05
0.000395763
-9.73187e-05
0.000434072
-0.000121622
0.000473549
-0.000141031
0.000512886
-0.000155548
0.000551268
-0.000165595
0.000588264
-0.000171689
0.000623531
-0.000174212
0.000656506
-0.000173484
0.000686374
-0.000170147
0.000712371
-0.000165511
0.000734275
-0.000161517
0.000752736
-0.000160228
0.000769259
-0.000163114
0.000785829
-0.000170435
0.000804381
-0.000181001
0.000826279
-0.000192357
0.000852025
-0.000201404
0.000881222
-0.000205231
0.000912835
-0.000201818
0.000945663
-0.000190291
0.000978742
-0.000170742
0.00101131
-0.000143914
0.00104258
-0.000110931
0.00107184
-7.30144e-05
0.0010986
-3.13498e-05
0.00112214
1.3621e-05
0.00114074
5.97746e-05
0.00115333
0.000104842
0.00115886
0.000146767
0.00115623
0.000183862
0.00114461
0.000214204
0.00112374
0.000235232
0.00109453
0.000245391
0.00105987
0.000245205
0.00102393
0.000236775
0.000990013
0.000223995
0.000959196
0.00021183
0.000930977
0.000202893
0.000904093
0.000196039
0.000876939
0.000189416
0.000848306
0.000182624
0.000818079
0.000175293
0.000786915
0.000166439
0.000755345
0.000156664
0.00072347
0.000149085
0.000691302
0.000146638
0.000658996
0.000149151
0.000626673
0.000153589
0.000594258
0.000156516
0.000561625
0.000155908
0.000528889
0.000151276
0.000496481
0.000142991
0.000464914
0.000131728
0.000434662
0.000118154
0.000406234
0.000102729
0.000380167
8.56844e-05
0.000357075
6.71306e-05
0.00033766
4.72059e-05
0.00032255
2.6122e-05
0.000312155
4.21415e-06
0.000306258
-1.72248e-05
0.000305523
-3.88054e-05
0.000310136
-5.97466e-05
0.000320068
-7.95358e-05
0.000335078
-9.77269e-05
0.000354714
-0.00011397
0.000378358
-0.000128044
0.00040529
-0.000139878
0.000434775
-0.000149532
0.000466145
-0.000157136
0.000498821
-0.000162802
0.00053229
-0.000166556
0.000566064
-0.000168336
0.00059965
-0.000168071
0.000632578
-0.000165796
0.000664461
-0.000161731
-0.000156294
0.00050099
0.000168414
0.000480866
0.000151313
0.000450697
0.000144129
0.000404394
0.000146691
0.000350617
0.000149298
0.00030422
0.000142435
0.000274799
0.000122891
0.000263452
9.25481e-05
0.000266971
5.52505e-05
0.000281715
1.47608e-05
0.000303969
-2.55592e-05
0.000331682
-6.45967e-05
0.000363564
-0.00010058
0.000398382
-0.000132137
0.000434876
-0.000158116
0.000471644
-0.0001778
0.000507333
-0.000191236
0.000541085
-0.000199347
0.000572888
-0.000203492
0.000603375
-0.0002047
0.000633165
-0.000203273
0.000662254
-0.000199237
0.000689969
-0.000193225
0.000715468
-0.000187016
0.000738407
-0.000183167
0.000759284
-0.000183992
0.000779301
-0.000190451
0.000799838
-0.000201539
0.000821911
-0.00021443
0.000845835
-0.000225328
0.000871222
-0.000230618
0.000897255
-0.000227851
0.000923047
-0.000216083
0.000947916
-0.000195611
0.000971508
-0.000167506
0.000993659
-0.000133081
0.00101425
-9.36099e-05
0.00103319
-5.02822e-05
0.00105086
-4.05583e-06
0.00106534
4.52968e-05
0.00107656
9.36248e-05
0.00108367
0.000139653
0.00108567
0.000181866
0.00108148
0.00021839
0.0010701
0.000246618
0.0010512
0.000264292
0.00102608
0.000270325
0.000997345
0.000265506
0.000967704
0.000253637
0.000939378
0.000240156
0.000913862
0.000228409
0.000891166
0.000218736
0.000869684
0.000210898
0.000847453
0.000204855
0.000823421
0.000199324
0.000797494
0.000192365
0.000769973
0.000184186
0.00074128
0.000177778
0.000711872
0.000176046
0.000682001
0.000179022
0.000651561
0.000184029
0.000620294
0.000187783
0.000588155
0.000188047
0.000555442
0.000183989
0.000522621
0.000175812
0.000490154
0.000164196
0.000458498
0.00014981
0.000428178
0.000133048
0.000399812
0.000114051
0.000374047
9.28951e-05
0.000351504
6.97488e-05
0.000332719
4.49078e-05
0.000318196
1.87368e-05
0.00030857
-7.59943e-06
0.000303754
-3.3989e-05
0.000304284
-6.02769e-05
0.000310539
-8.579e-05
0.000322692
-0.00010988
0.000340629
-0.000131907
0.000363891
-0.000151307
0.000391703
-0.000167689
0.000423085
-0.000180914
0.000457027
-0.000191077
0.000492611
-0.000198386
0.000529048
-0.000202993
0.000565623
-0.00020491
0.000601644
-0.000204093
0.000636475
-0.000200626
0.000669628
-0.000194884
-0.000187549
0.000462452
0.000192549
0.000423779
0.000189987
0.000370899
0.000197008
0.000317253
0.000200337
0.000276067
0.000190485
0.000252567
0.000165934
0.000245383
0.000130075
0.000250659
8.72722e-05
0.000264882
4.10273e-05
0.000285171
-5.52818e-06
0.000309881
-5.02685e-05
0.000338351
-9.30674e-05
0.000370055
-0.000132284
0.000404352
-0.000166434
0.000440279
-0.000194043
0.000476369
-0.00021389
0.000510673
-0.00022554
0.000541306
-0.00022998
0.000567457
-0.000229642
0.000589994
-0.000227237
0.000610939
-0.000224218
0.000632162
-0.000220459
0.000654384
-0.000215447
0.00067718
-0.000209812
0.000699727
-0.000205715
0.00072159
-0.000205855
0.000742986
-0.000211848
0.000764529
-0.000223081
0.000786721
-0.000236622
0.000809591
-0.000248198
0.000832644
-0.000253672
0.000855078
-0.000250285
0.000876079
-0.000237084
0.000895245
-0.000214776
0.000912483
-0.000184744
0.0009281
-0.000148699
0.000942306
-0.000107815
0.000955086
-6.30621e-05
0.000966486
-1.54561e-05
0.000976917
3.48659e-05
0.000985843
8.46984e-05
0.000992618
0.000132878
0.000996523
0.00017796
0.000996859
0.000218055
0.00099265
0.000250827
0.000983015
0.000273927
0.000968022
0.000285317
0.000948839
0.00028469
0.00092739
0.000275086
0.000906047
0.000261498
0.000886671
0.000247785
0.000869371
0.000236035
0.00085267
0.000227599
0.000835011
0.000222514
0.00081577
0.000218566
0.000795038
0.000213098
0.000773135
0.000206089
0.000750462
0.000200451
0.000727366
0.000199142
0.000703868
0.00020252
0.000679616
0.000208281
0.000654193
0.000213207
0.000627441
0.000214799
0.000599527
0.000211903
0.000570818
0.00020452
0.00054179
0.000193224
0.000512982
0.000178619
0.000484952
0.000161078
0.000458219
0.000140784
0.000433225
0.000117889
0.000410351
9.26229e-05
0.000389968
6.52905e-05
0.000372484
3.62213e-05
0.000359208
5.67681e-06
0.000349406
-2.41879e-05
0.000344078
-5.49481e-05
0.000343917
-8.56299e-05
0.000349555
-0.000115517
0.000361432
-0.000143784
0.000379629
-0.000169504
0.000403722
-0.000191782
0.000432785
-0.000209978
0.000465588
-0.00022388
0.000500868
-0.000233667
0.000537506
-0.000239631
0.000574513
-0.000241917
0.000610949
-0.000240529
0.000645931
-0.000235608
0.000678782
-0.000227735
-0.000217979
0.000407371
0.000235781
0.000352596
0.000244762
0.000302138
0.000247467
0.000267533
0.000234942
0.000251412
0.000206605
0.000250827
0.000166519
0.000261452
0.00011945
0.000279649
6.90751e-05
0.000302909
1.77672e-05
0.000328822
-3.14416e-05
0.000357664
-7.91106e-05
0.000388595
-0.000123998
0.000421131
-0.000164819
0.000454751
-0.000200054
0.000488824
-0.000228116
0.000522591
-0.000247657
0.000554864
-0.000257813
0.000583728
-0.000258844
0.000607155
-0.00025307
0.000624524
-0.000244606
0.000637444
-0.000237138
0.000648836
-0.000231851
0.000661074
-0.000227685
0.000674849
-0.000223587
0.000689515
-0.000220381
0.000704208
-0.000220548
0.000718665
-0.000226305
0.000733275
-0.000237691
0.000748527
-0.000251874
0.00076457
-0.00026424
0.000780983
-0.000270085
0.000797004
-0.000266306
0.000811902
-0.000251982
0.000825225
-0.000228099
0.000836961
-0.00019648
0.000847144
-0.000158882
0.000856045
-0.000116716
0.000863964
-7.0982e-05
0.000871119
-2.26107e-05
0.000878535
2.74504e-05
0.000885737
7.74959e-05
0.000892267
0.000126348
0.00089772
0.000172507
0.000901534
0.000214241
0.000902771
0.000249589
0.000900631
0.000276068
0.00089493
0.000291018
0.000885945
0.000293675
0.000874391
0.00028664
0.00086158
0.000274309
0.000848841
0.000260524
0.000836638
0.000248238
0.000824635
0.000239603
0.000812405
0.000234744
0.000799727
0.000231244
0.000786465
0.00022636
0.000772632
0.000219922
0.000758516
0.000214567
0.000744419
0.000213238
0.000730228
0.000216712
0.000715332
0.000223176
0.000698992
0.000229546
0.000680756
0.000233035
0.000660628
0.000232031
0.000639012
0.000226135
0.000616522
0.000215714
0.000593782
0.00020136
0.000571296
0.000183564
0.000549439
0.000162641
0.000528506
0.000138821
0.000508781
0.000112348
0.000490538
8.35333e-05
0.000474059
5.27005e-05
0.000459473
2.02624e-05
0.000447739
-1.24538e-05
0.000438664
-4.58728e-05
0.000432779
-7.97455e-05
0.000430798
-0.000113535
0.000433619
-0.000146605
0.000442135
-0.00017802
0.000456866
-0.000206514
0.000477622
-0.000230734
0.000503472
-0.00024973
0.000533065
-0.00026326
0.000565035
-0.0002716
0.000598147
-0.00027503
0.000631221
-0.000273603
0.000663098
-0.000267485
0.000692829
-0.000257466
-0.000245105
0.000336834
0.000286934
0.000294313
0.000287283
0.000270091
0.000271689
0.000264838
0.000240195
0.000274444
0.000196999
0.000294039
0.000146925
0.000319709
9.37794e-05
0.00034868
4.01043e-05
0.000378758
-1.23105e-05
0.000410056
-6.27401e-05
0.000441406
-0.00011046
0.000472192
-0.000154785
0.00050217
-0.000194797
0.000531056
-0.000228941
0.000558212
-0.000255272
0.000583041
-0.000272486
0.00060562
-0.000280392
0.000626219
-0.000279443
0.000644191
-0.000271041
0.000658207
-0.000258622
0.00066792
-0.000246851
0.000674836
-0.000238767
0.00068124
-0.000234089
0.000688425
-0.000230772
0.000696082
-0.000228038
0.000703155
-0.00022762
0.000709071
-0.000232221
0.000714152
-0.000242772
0.000719233
-0.000256955
0.000724941
-0.000269948
0.000731352
-0.000276496
0.000738089
-0.000273042
0.000744676
-0.000258569
0.000750733
-0.000234155
0.00075609