/*--------------------------------*- C++ -*----------------------------------*\
| =========                 |                                                 |
| \\      /  F ield         | OpenFOAM: The Open Source CFD Toolbox           |
|  \\    /   O peration     | Version:  2312                                  |
|   \\  /    A nd           | Website:  www.openfoam.com                      |
|    \\/     M anipulation  |                                                 |
\*---------------------------------------------------------------------------*/
FoamFile
{
    version     2.0;
    format      ascii;
    arch        "LSB;label=32;scalar=64";
    class       volScalarField;
    location    "139000";
    object      p;
}
// * * * * * * * * * * * * * * * * * * * * * * * * * * * * * * * * * * * * * //

dimensions      [0 2 -2 0 0 0 0];

internalField   nonuniform List<scalar> 
2685
(
-2.47429e-07
-2.70479e-07
-2.70875e-07
-2.69143e-07
-2.68501e-07
-2.68287e-07
-2.67295e-07
-2.6511e-07
-2.61839e-07
-2.57797e-07
-2.53266e-07
-2.4842e-07
-2.43367e-07
-2.38186e-07
-2.32965e-07
-2.27798e-07
-2.22792e-07
-2.1806e-07
-2.13714e-07
-2.09867e-07
-2.0663e-07
-2.04106e-07
-2.02378e-07
-2.01508e-07
-2.01513e-07
-2.02313e-07
-2.037e-07
-2.05335e-07
-2.06807e-07
-2.07718e-07
-2.07761e-07
-2.06762e-07
-2.04654e-07
-2.01377e-07
-1.97228e-07
-1.92515e-07
-1.87554e-07
-1.82628e-07
-1.78038e-07
-1.7402e-07
-1.70748e-07
-1.68325e-07
-1.66799e-07
-1.66188e-07
-1.66481e-07
-1.67641e-07
-1.69601e-07
-1.72212e-07
-1.75423e-07
-1.79132e-07
-1.83213e-07
-1.87568e-07
-1.92105e-07
-1.96743e-07
-2.01408e-07
-2.05991e-07
-2.10409e-07
-2.14569e-07
-2.18377e-07
-2.21741e-07
-2.24581e-07
-2.26827e-07
-2.28423e-07
-2.29327e-07
-2.29514e-07
-2.28973e-07
-2.27708e-07
-2.25736e-07
-2.23085e-07
-2.19885e-07
-2.16153e-07
-2.11948e-07
-2.07338e-07
-2.02394e-07
-1.97187e-07
-1.9179e-07
-1.86271e-07
-1.80695e-07
-1.75123e-07
-1.69611e-07
-1.64209e-07
-1.58963e-07
-1.5391e-07
-1.49079e-07
-1.44492e-07
-1.40161e-07
-1.361e-07
-1.32316e-07
-1.28807e-07
-1.2557e-07
-3.11689e-07
-2.99241e-07
-2.9417e-07
-2.91218e-07
-2.88129e-07
-2.84424e-07
-2.80185e-07
-2.75594e-07
-2.70762e-07
-2.65737e-07
-2.60539e-07
-2.55187e-07
-2.49713e-07
-2.44168e-07
-2.3862e-07
-2.33161e-07
-2.27895e-07
-2.22928e-07
-2.18369e-07
-2.1433e-07
-2.1092e-07
-2.08248e-07
-2.06414e-07
-2.05517e-07
-2.05594e-07
-2.06526e-07
-2.08011e-07
-2.09566e-07
-2.10585e-07
-2.10525e-07
-2.09013e-07
-2.05913e-07
-2.01402e-07
-1.95716e-07
-1.89049e-07
-1.82045e-07
-1.75196e-07
-1.68996e-07
-1.63758e-07
-1.59717e-07
-1.57011e-07
-1.55692e-07
-1.55706e-07
-1.56921e-07
-1.59176e-07
-1.62285e-07
-1.66032e-07
-1.70261e-07
-1.74758e-07
-1.79449e-07
-1.84244e-07
-1.89061e-07
-1.93853e-07
-1.98592e-07
-2.03267e-07
-2.07878e-07
-2.12391e-07
-2.16668e-07
-2.20609e-07
-2.24125e-07
-2.27126e-07
-2.2953e-07
-2.3127e-07
-2.32292e-07
-2.32562e-07
-2.32069e-07
-2.3082e-07
-2.28847e-07
-2.26196e-07
-2.22834e-07
-2.18951e-07
-2.1458e-07
-2.09751e-07
-2.04542e-07
-1.99054e-07
-1.9337e-07
-1.87563e-07
-1.817e-07
-1.75847e-07
-1.70061e-07
-1.64398e-07
-1.58906e-07
-1.53628e-07
-1.48603e-07
-1.43859e-07
-1.39413e-07
-1.35266e-07
-1.31416e-07
-1.27858e-07
-1.24591e-07
-3.309e-07
-3.19628e-07
-3.13972e-07
-3.10276e-07
-3.06423e-07
-3.01782e-07
-2.96408e-07
-2.90589e-07
-2.84581e-07
-2.78519e-07
-2.7244e-07
-2.66332e-07
-2.60194e-07
-2.54065e-07
-2.48018e-07
-2.42129e-07
-2.36467e-07
-2.31105e-07
-2.26114e-07
-2.21571e-07
-2.17539e-07
-2.1407e-07
-2.11177e-07
-2.08774e-07
-2.06741e-07
-2.04983e-07
-2.03399e-07
-2.01849e-07
-2.00164e-07
-1.98179e-07
-1.95783e-07
-1.92924e-07
-1.89626e-07
-1.85965e-07
-1.82032e-07
-1.78074e-07
-1.74586e-07
-1.71685e-07
-1.69294e-07
-1.67291e-07
-1.65667e-07
-1.64504e-07
-1.63884e-07
-1.63856e-07
-1.64454e-07
-1.65708e-07
-1.67642e-07
-1.70252e-07
-1.73471e-07
-1.77149e-07
-1.81331e-07
-1.86045e-07
-1.91216e-07
-1.96708e-07
-2.02365e-07
-2.08034e-07
-2.13558e-07
-2.1881e-07
-2.23622e-07
-2.27855e-07
-2.31394e-07
-2.34153e-07
-2.36074e-07
-2.37126e-07
-2.37297e-07
-2.36592e-07
-2.35036e-07
-2.32672e-07
-2.29553e-07
-2.25788e-07
-2.21408e-07
-2.16508e-07
-2.11158e-07
-2.05507e-07
-1.99612e-07
-1.93549e-07
-1.87396e-07
-1.81222e-07
-1.75092e-07
-1.69065e-07
-1.63197e-07
-1.57539e-07
-1.52136e-07
-1.47025e-07
-1.42232e-07
-1.37773e-07
-1.33646e-07
-1.2984e-07
-1.26347e-07
-1.2316e-07
-3.66451e-07
-3.56265e-07
-3.48096e-07
-3.40972e-07
-3.34111e-07
-3.27108e-07
-3.19864e-07
-3.12438e-07
-3.0493e-07
-2.97422e-07
-2.89957e-07
-2.82558e-07
-2.75242e-07
-2.68044e-07
-2.61011e-07
-2.54192e-07
-2.47634e-07
-2.41384e-07
-2.35485e-07
-2.29979e-07
-2.24898e-07
-2.20255e-07
-2.16045e-07
-2.12228e-07
-2.08762e-07
-2.05622e-07
-2.02782e-07
-2.00185e-07
-1.97727e-07
-1.95273e-07
-1.92696e-07
-1.89917e-07
-1.86906e-07
-1.83713e-07
-1.80419e-07
-1.77153e-07
-1.7407e-07
-1.71167e-07
-1.68379e-07
-1.65802e-07
-1.63665e-07
-1.62198e-07
-1.61539e-07
-1.61728e-07
-1.62741e-07
-1.64522e-07
-1.6701e-07
-1.7014e-07
-1.73879e-07
-1.78249e-07
-1.83137e-07
-1.88343e-07
-1.93676e-07
-1.99019e-07
-2.04293e-07
-2.09433e-07
-2.14361e-07
-2.18988e-07
-2.23227e-07
-2.26984e-07
-2.30171e-07
-2.32702e-07
-2.34511e-07
-2.35549e-07
-2.35787e-07
-2.35204e-07
-2.33805e-07
-2.31618e-07
-2.28681e-07
-2.25055e-07
-2.20808e-07
-2.15979e-07
-2.10688e-07
-2.05033e-07
-1.99139e-07
-1.93067e-07
-1.86838e-07
-1.80581e-07
-1.74375e-07
-1.68276e-07
-1.62331e-07
-1.56592e-07
-1.51105e-07
-1.45911e-07
-1.41045e-07
-1.36524e-07
-1.32342e-07
-1.28485e-07
-1.24935e-07
-1.21689e-07
-3.96697e-07
-3.86412e-07
-3.76964e-07
-3.68059e-07
-3.59398e-07
-3.50755e-07
-3.42019e-07
-3.33173e-07
-3.24261e-07
-3.15344e-07
-3.06482e-07
-2.97723e-07
-2.89106e-07
-2.80671e-07
-2.72456e-07
-2.645e-07
-2.56844e-07
-2.4952e-07
-2.42561e-07
-2.35993e-07
-2.29833e-07
-2.24091e-07
-2.18773e-07
-2.13883e-07
-2.09415e-07
-2.05345e-07
-2.01629e-07
-1.98206e-07
-1.95006e-07
-1.91951e-07
-1.88971e-07
-1.86018e-07
-1.83072e-07
-1.80145e-07
-1.77276e-07
-1.74507e-07
-1.71881e-07
-1.6945e-07
-1.67296e-07
-1.6557e-07
-1.64404e-07
-1.63859e-07
-1.63933e-07
-1.64593e-07
-1.65802e-07
-1.67532e-07
-1.69765e-07
-1.72488e-07
-1.75685e-07
-1.79288e-07
-1.83162e-07
-1.87202e-07
-1.91369e-07
-1.95637e-07
-1.99962e-07
-2.04275e-07
-2.0849e-07
-2.12508e-07
-2.16226e-07
-2.1954e-07
-2.22355e-07
-2.24587e-07
-2.26166e-07
-2.27035e-07
-2.27153e-07
-2.26497e-07
-2.2507e-07
-2.22903e-07
-2.20042e-07
-2.16545e-07
-2.12481e-07
-2.07928e-07
-2.02976e-07
-1.97718e-07
-1.92228e-07
-1.86577e-07
-1.80882e-07
-1.75137e-07
-1.69399e-07
-1.63747e-07
-1.58254e-07
-1.5297e-07
-1.47924e-07
-1.43138e-07
-1.38632e-07
-1.34423e-07
-1.30522e-07
-1.26932e-07
-1.23646e-07
-1.20645e-07
-4.22319e-07
-4.12321e-07
-4.03055e-07
-3.93884e-07
-3.84428e-07
-3.74575e-07
-3.64387e-07
-3.53996e-07
-3.43531e-07
-3.33087e-07
-3.22727e-07
-3.12498e-07
-3.02442e-07
-2.92602e-07
-2.83023e-07
-2.73747e-07
-2.64814e-07
-2.56258e-07
-2.48106e-07
-2.40382e-07
-2.33109e-07
-2.26303e-07
-2.19979e-07
-2.14143e-07
-2.08784e-07
-2.03874e-07
-1.99373e-07
-1.95239e-07
-1.91431e-07
-1.87909e-07
-1.84637e-07
-1.81585e-07
-1.78734e-07
-1.76076e-07
-1.73617e-07
-1.7138e-07
-1.69403e-07
-1.67741e-07
-1.66454e-07
-1.6558e-07
-1.65137e-07
-1.65119e-07
-1.6551e-07
-1.66297e-07
-1.6747e-07
-1.69022e-07
-1.70936e-07
-1.73176e-07
-1.75682e-07
-1.78389e-07
-1.81265e-07
-1.84286e-07
-1.87419e-07
-1.90609e-07
-1.93793e-07
-1.9691e-07
-1.99893e-07
-2.02677e-07
-2.05193e-07
-2.07375e-07
-2.09161e-07
-2.10496e-07
-2.11334e-07
-2.11635e-07
-2.11375e-07
-2.10543e-07
-2.09146e-07
-2.07202e-07
-2.04743e-07
-2.01803e-07
-1.98425e-07
-1.9466e-07
-1.90561e-07
-1.86181e-07
-1.81588e-07
-1.76866e-07
-1.72078e-07
-1.67254e-07
-1.62422e-07
-1.57631e-07
-1.52928e-07
-1.48347e-07
-1.43926e-07
-1.39705e-07
-1.35708e-07
-1.31948e-07
-1.28425e-07
-1.25137e-07
-1.22078e-07
-1.19245e-07
-4.52179e-07
-4.41704e-07
-4.31993e-07
-4.21971e-07
-4.1118e-07
-3.99622e-07
-3.8753e-07
-3.7518e-07
-3.62782e-07
-3.50459e-07
-3.38274e-07
-3.26269e-07
-3.14483e-07
-3.02967e-07
-2.91778e-07
-2.80968e-07
-2.70582e-07
-2.60657e-07
-2.51221e-07
-2.42301e-07
-2.33917e-07
-2.26089e-07
-2.18824e-07
-2.1212e-07
-2.05965e-07
-2.0034e-07
-1.9522e-07
-1.90579e-07
-1.86392e-07
-1.82628e-07
-1.7926e-07
-1.76257e-07
-1.73592e-07
-1.71248e-07
-1.69213e-07
-1.67485e-07
-1.66069e-07
-1.64971e-07
-1.64197e-07
-1.63751e-07
-1.63638e-07
-1.63858e-07
-1.644e-07
-1.65252e-07
-1.66401e-07
-1.67825e-07
-1.69497e-07
-1.71378e-07
-1.73428e-07
-1.75614e-07
-1.7791e-07
-1.80289e-07
-1.82708e-07
-1.8511e-07
-1.87436e-07
-1.89628e-07
-1.91635e-07
-1.93408e-07
-1.94903e-07
-1.9608e-07
-1.96906e-07
-1.97355e-07
-1.97404e-07
-1.9704e-07
-1.96256e-07
-1.95054e-07
-1.93441e-07
-1.91434e-07
-1.89054e-07
-1.8633e-07
-1.83294e-07
-1.79986e-07
-1.76447e-07
-1.72722e-07
-1.68863e-07
-1.64916e-07
-1.60912e-07
-1.56876e-07
-1.52845e-07
-1.48861e-07
-1.44957e-07
-1.41162e-07
-1.37497e-07
-1.33984e-07
-1.30636e-07
-1.2746e-07
-1.24459e-07
-1.21633e-07
-1.18983e-07
-1.16505e-07
-4.95682e-07
-4.82747e-07
-4.70378e-07
-4.57614e-07
-4.44e-07
-4.29553e-07
-4.14556e-07
-3.99343e-07
-3.84159e-07
-3.69142e-07
-3.54361e-07
-3.39868e-07
-3.25716e-07
-3.11967e-07
-2.98688e-07
-2.85941e-07
-2.73779e-07
-2.62237e-07
-2.51345e-07
-2.41122e-07
-2.31588e-07
-2.22755e-07
-2.14628e-07
-2.07203e-07
-2.00469e-07
-1.94406e-07
-1.88989e-07
-1.84189e-07
-1.79973e-07
-1.76303e-07
-1.73143e-07
-1.70455e-07
-1.68204e-07
-1.66357e-07
-1.64886e-07
-1.63766e-07
-1.62976e-07
-1.62493e-07
-1.62295e-07
-1.62356e-07
-1.62651e-07
-1.63168e-07
-1.63895e-07
-1.64821e-07
-1.65927e-07
-1.67188e-07
-1.6858e-07
-1.70077e-07
-1.71657e-07
-1.73299e-07
-1.74977e-07
-1.76663e-07
-1.7832e-07
-1.79909e-07
-1.81388e-07
-1.82721e-07
-1.83873e-07
-1.84815e-07
-1.85512e-07
-1.85938e-07
-1.8607e-07
-1.85889e-07
-1.85386e-07
-1.84553e-07
-1.8339e-07
-1.81905e-07
-1.80109e-07
-1.7802e-07
-1.75663e-07
-1.73064e-07
-1.70257e-07
-1.67274e-07
-1.64149e-07
-1.60914e-07
-1.57599e-07
-1.54232e-07
-1.50846e-07
-1.4747e-07
-1.4413e-07
-1.40843e-07
-1.37627e-07
-1.34494e-07
-1.31455e-07
-1.28521e-07
-1.25698e-07
-1.22992e-07
-1.20407e-07
-1.17946e-07
-1.15611e-07
-1.13399e-07
-5.4528e-07
-5.29554e-07
-5.13829e-07
-4.97572e-07
-4.80481e-07
-4.62595e-07
-4.44196e-07
-4.25621e-07
-4.0713e-07
-3.88874e-07
-3.70939e-07
-3.53389e-07
-3.36307e-07
-3.19791e-07
-3.03942e-07
-2.88841e-07
-2.74547e-07
-2.61098e-07
-2.48521e-07
-2.36831e-07
-2.26038e-07
-2.16148e-07
-2.07158e-07
-1.99057e-07
-1.91827e-07
-1.85447e-07
-1.79884e-07
-1.75102e-07
-1.71059e-07
-1.67712e-07
-1.65014e-07
-1.62912e-07
-1.61349e-07
-1.60269e-07
-1.59619e-07
-1.59347e-07
-1.59406e-07
-1.5975e-07
-1.60333e-07
-1.61113e-07
-1.62052e-07
-1.63119e-07
-1.64289e-07
-1.65537e-07
-1.66835e-07
-1.68154e-07
-1.69467e-07
-1.70752e-07
-1.71986e-07
-1.73149e-07
-1.74219e-07
-1.75179e-07
-1.76013e-07
-1.76707e-07
-1.77249e-07
-1.77627e-07
-1.77827e-07
-1.77836e-07
-1.77642e-07
-1.77232e-07
-1.76599e-07
-1.75738e-07
-1.74646e-07
-1.73325e-07
-1.71779e-07
-1.70017e-07
-1.6805e-07
-1.65894e-07
-1.63569e-07
-1.61095e-07
-1.58495e-07
-1.55791e-07
-1.53006e-07
-1.5016e-07
-1.47275e-07
-1.44374e-07
-1.41478e-07
-1.38604e-07
-1.35763e-07
-1.32968e-07
-1.30228e-07
-1.27555e-07
-1.24959e-07
-1.22445e-07
-1.20019e-07
-1.17685e-07
-1.15445e-07
-1.13295e-07
-1.11238e-07
-1.09276e-07
-5.87197e-07
-5.70277e-07
-5.52798e-07
-5.34276e-07
-5.14596e-07
-4.9398e-07
-4.72798e-07
-4.51381e-07
-4.29967e-07
-4.08724e-07
-3.87785e-07
-3.6728e-07
-3.47343e-07
-3.28104e-07
-3.09679e-07
-2.9216e-07
-2.75615e-07
-2.60095e-07
-2.45637e-07
-2.32269e-07
-2.20006e-07
-2.08852e-07
-1.98798e-07
-1.89828e-07
-1.81913e-07
-1.75017e-07
-1.69098e-07
-1.64105e-07
-1.59985e-07
-1.56687e-07
-1.54158e-07
-1.52343e-07
-1.51183e-07
-1.50619e-07
-1.50589e-07
-1.51036e-07
-1.51895e-07
-1.53106e-07
-1.54606e-07
-1.56331e-07
-1.58212e-07
-1.60184e-07
-1.62186e-07
-1.64162e-07
-1.66065e-07
-1.67855e-07
-1.69496e-07
-1.7096e-07
-1.72222e-07
-1.73264e-07
-1.74066e-07
-1.74617e-07
-1.7491e-07
-1.74944e-07
-1.74721e-07
-1.74248e-07
-1.73537e-07
-1.72602e-07
-1.71455e-07
-1.70109e-07
-1.68576e-07
-1.66869e-07
-1.65003e-07
-1.62991e-07
-1.60851e-07
-1.58598e-07
-1.56249e-07
-1.53821e-07
-1.51329e-07
-1.48789e-07
-1.46214e-07
-1.4362e-07
-1.4102e-07
-1.38426e-07
-1.35851e-07
-1.33306e-07
-1.308e-07
-1.28338e-07
-1.25925e-07
-1.23566e-07
-1.21267e-07
-1.1903e-07
-1.16856e-07
-1.14745e-07
-1.12698e-07
-1.10717e-07
-1.08803e-07
-1.0696e-07
-1.05188e-07
-1.03481e-07
-6.18117e-07
-6.0147e-07
-5.83641e-07
-5.64231e-07
-5.43309e-07
-5.21271e-07
-4.98545e-07
-4.75464e-07
-4.52274e-07
-4.29172e-07
-4.06333e-07
-3.8392e-07
-3.62089e-07
-3.40981e-07
-3.20716e-07
-3.0139e-07
-2.83073e-07
-2.65824e-07
-2.49684e-07
-2.34685e-07
-2.20845e-07
-2.08171e-07
-1.9666e-07
-1.86302e-07
-1.77076e-07
-1.68957e-07
-1.61913e-07
-1.55908e-07
-1.50896e-07
-1.4684e-07
-1.43733e-07
-1.41498e-07
-1.40064e-07
-1.39362e-07
-1.3932e-07
-1.39864e-07
-1.40917e-07
-1.42405e-07
-1.4426e-07
-1.46419e-07
-1.48813e-07
-1.51373e-07
-1.54028e-07
-1.56711e-07
-1.59346e-07
-1.6186e-07
-1.64187e-07
-1.66277e-07
-1.68081e-07
-1.69559e-07
-1.70677e-07
-1.71414e-07
-1.7176e-07
-1.71713e-07
-1.71277e-07
-1.70464e-07
-1.69292e-07
-1.67784e-07
-1.65968e-07
-1.63877e-07
-1.6155e-07
-1.59027e-07
-1.56348e-07
-1.5355e-07
-1.5067e-07
-1.4774e-07
-1.44789e-07
-1.41844e-07
-1.38926e-07
-1.36054e-07
-1.33243e-07
-1.30503e-07
-1.27845e-07
-1.25272e-07
-1.22788e-07
-1.20393e-07
-1.18086e-07
-1.15866e-07
-1.13733e-07
-1.11685e-07
-1.09722e-07
-1.07845e-07
-1.06052e-07
-1.04347e-07
-1.0273e-07
-1.012e-07
-9.97537e-08
-9.83832e-08
-9.70789e-08
-9.58349e-08
-6.36572e-07
-6.21108e-07
-6.0387e-07
-5.84818e-07
-5.64292e-07
-5.42702e-07
-5.20384e-07
-4.97589e-07
-4.74524e-07
-4.51382e-07
-4.28343e-07
-4.05581e-07
-3.8325e-07
-3.61486e-07
-3.40424e-07
-3.20167e-07
-3.00799e-07
-2.82392e-07
-2.65004e-07
-2.48677e-07
-2.33441e-07
-2.19312e-07
-2.06299e-07
-1.94398e-07
-1.83599e-07
-1.73886e-07
-1.65243e-07
-1.57636e-07
-1.51003e-07
-1.45277e-07
-1.40641e-07
-1.36814e-07
-1.33821e-07
-1.31634e-07
-1.30226e-07
-1.29565e-07
-1.29615e-07
-1.30331e-07
-1.3165e-07
-1.33489e-07
-1.35757e-07
-1.3836e-07
-1.41196e-07
-1.44165e-07
-1.47169e-07
-1.50114e-07
-1.52938e-07
-1.55655e-07
-1.58075e-07
-1.602e-07
-1.61949e-07
-1.63273e-07
-1.64141e-07
-1.64529e-07
-1.64427e-07
-1.63841e-07
-1.62787e-07
-1.61288e-07
-1.59377e-07
-1.57093e-07
-1.54481e-07
-1.5159e-07
-1.48474e-07
-1.45184e-07
-1.41771e-07
-1.38286e-07
-1.34778e-07
-1.31289e-07
-1.27859e-07
-1.24519e-07
-1.21295e-07
-1.18206e-07
-1.15267e-07
-1.12487e-07
-1.09869e-07
-1.07415e-07
-1.05121e-07
-1.02982e-07
-1.00989e-07
-9.91288e-08
-9.73878e-08
-9.57531e-08
-9.42146e-08
-9.27616e-08
-9.13905e-08
-9.01058e-08
-8.89129e-08
-8.78207e-08
-8.68396e-08
-8.5976e-08
-6.41254e-07
-6.2755e-07
-6.1212e-07
-5.95075e-07
-5.76725e-07
-5.57318e-07
-5.37108e-07
-5.16312e-07
-4.95127e-07
-4.73735e-07
-4.52315e-07
-4.31031e-07
-4.10033e-07
-3.89335e-07
-3.69284e-07
-3.49862e-07
-3.31149e-07
-3.13203e-07
-2.96067e-07
-2.79768e-07
-2.64319e-07
-2.49722e-07
-2.35968e-07
-2.23037e-07
-2.10912e-07
-1.99589e-07
-1.89128e-07
-1.79517e-07
-1.70647e-07
-1.62562e-07
-1.55112e-07
-1.48618e-07
-1.42963e-07
-1.38117e-07
-1.34069e-07
-1.30812e-07
-1.28337e-07
-1.26631e-07
-1.25669e-07
-1.25406e-07
-1.2579e-07
-1.26757e-07
-1.28232e-07
-1.30131e-07
-1.32363e-07
-1.34835e-07
-1.37436e-07
-1.40033e-07
-1.4267e-07
-1.45138e-07
-1.47356e-07
-1.4927e-07
-1.50816e-07
-1.51897e-07
-1.52513e-07
-1.52632e-07
-1.52249e-07
-1.51362e-07
-1.49972e-07
-1.48109e-07
-1.45819e-07
-1.43157e-07
-1.4018e-07
-1.36946e-07
-1.33511e-07
-1.29933e-07
-1.26269e-07
-1.22579e-07
-1.18915e-07
-1.15323e-07
-1.11842e-07
-1.08504e-07
-1.05332e-07
-1.02344e-07
-9.95553e-08
-9.69727e-08
-9.46014e-08
-9.24431e-08
-9.04975e-08
-8.87637e-08
-8.724e-08
-8.59246e-08
-8.48229e-08
-8.39379e-08
-8.32653e-08
-8.27861e-08
-8.24709e-08
-8.22779e-08
-8.21541e-08
-8.20431e-08
-6.28794e-07
-6.18356e-07
-6.06329e-07
-5.93004e-07
-5.78521e-07
-5.63115e-07
-5.46994e-07
-5.30345e-07
-5.1332e-07
-4.96063e-07
-4.78714e-07
-4.61399e-07
-4.44226e-07
-4.27281e-07
-4.10654e-07
-3.94393e-07
-3.78526e-07
-3.63066e-07
-3.48014e-07
-3.33358e-07
-3.19071e-07
-3.05111e-07
-2.91431e-07
-2.77969e-07
-2.64672e-07
-2.51312e-07
-2.38914e-07
-2.26998e-07
-2.15576e-07
-2.04534e-07
-1.93897e-07
-1.83759e-07
-1.74185e-07
-1.65235e-07
-1.56969e-07
-1.49443e-07
-1.42708e-07
-1.36805e-07
-1.31806e-07
-1.27637e-07
-1.24337e-07
-1.21885e-07
-1.20249e-07
-1.19382e-07
-1.19223e-07
-1.19694e-07
-1.20702e-07
-1.22142e-07
-1.23909e-07
-1.25878e-07
-1.27932e-07
-1.29958e-07
-1.31852e-07
-1.3353e-07
-1.3486e-07
-1.35805e-07
-1.36334e-07
-1.36397e-07
-1.35924e-07
-1.35012e-07
-1.3364e-07
-1.31849e-07
-1.2969e-07
-1.27189e-07
-1.24389e-07
-1.21337e-07
-1.1811e-07
-1.1479e-07
-1.11443e-07
-1.08129e-07
-1.04901e-07
-1.01802e-07
-9.88699e-08
-9.61329e-08
-9.36132e-08
-9.13251e-08
-8.92747e-08
-8.74587e-08
-8.58639e-08
-8.44678e-08
-8.32409e-08
-8.21485e-08
-8.11489e-08
-8.02176e-08
-7.9351e-08
-7.85653e-08
-7.78964e-08
-7.73945e-08
-7.71151e-08
-7.71076e-08
-5.99414e-07
-5.93507e-07
-5.86537e-07
-5.78746e-07
-5.70219e-07
-5.61098e-07
-5.51427e-07
-5.41304e-07
-5.30842e-07
-5.20163e-07
-5.09343e-07
-4.98443e-07
-4.87497e-07
-4.76518e-07
-4.65503e-07
-4.54427e-07
-4.43249e-07
-4.31913e-07
-4.20355e-07
-4.08513e-07
-3.96323e-07
-3.83717e-07
-3.70574e-07
-3.56772e-07
-3.43448e-07
-3.30368e-07
-3.16273e-07
-3.0164e-07
-2.86666e-07
-2.71515e-07
-2.56332e-07
-2.4126e-07
-2.26426e-07
-2.11962e-07
-1.98005e-07
-1.84683e-07
-1.72117e-07
-1.60417e-07
-1.49678e-07
-1.39972e-07
-1.31368e-07
-1.2391e-07
-1.17647e-07
-1.12551e-07
-1.08602e-07
-1.05735e-07
-1.03864e-07
-1.02885e-07
-1.02687e-07
-1.03143e-07
-1.04124e-07
-1.05499e-07
-1.07136e-07
-1.0891e-07
-1.10701e-07
-1.12405e-07
-1.13932e-07
-1.15233e-07
-1.16222e-07
-1.16724e-07
-1.16789e-07
-1.16435e-07
-1.15773e-07
-1.14724e-07
-1.13317e-07
-1.11467e-07
-1.09348e-07
-1.07054e-07
-1.04645e-07
-1.02173e-07
-9.96836e-08
-9.72201e-08
-9.48206e-08
-9.25198e-08
-9.03487e-08
-8.83347e-08
-8.65022e-08
-8.4873e-08
-8.34677e-08
-8.23073e-08
-8.14137e-08
-8.08082e-08
-8.05066e-08
-8.0515e-08
-8.0825e-08
-8.14118e-08
-8.22361e-08
-8.32486e-08
-8.43978e-08
-8.56375e-08
-5.6245e-07
-5.62162e-07
-5.61482e-07
-5.60441e-07
-5.58967e-07
-5.57091e-07
-5.54851e-07
-5.52305e-07
-5.49458e-07
-5.46305e-07
-5.42808e-07
-5.38924e-07
-5.34586e-07
-5.29726e-07
-5.24262e-07
-5.18109e-07
-5.11176e-07
-5.03371e-07
-4.946e-07
-4.84842e-07
-4.74111e-07
-4.62351e-07
-4.49459e-07
-4.35711e-07
-4.2027e-07
-4.03724e-07
-3.8625e-07
-3.67995e-07
-3.49103e-07
-3.29731e-07
-3.10013e-07
-2.9024e-07
-2.70539e-07
-2.51092e-07
-2.32082e-07
-2.13686e-07
-1.9607e-07
-1.79388e-07
-1.63775e-07
-1.49349e-07
-1.36204e-07
-1.24406e-07
-1.13988e-07
-1.04945e-07
-9.7261e-08
-9.08951e-08
-8.57872e-08
-8.18627e-08
-7.90355e-08
-7.72094e-08
-7.62778e-08
-7.61247e-08
-7.66259e-08
-7.76517e-08
-7.90722e-08
-8.07605e-08
-8.25969e-08
-8.44758e-08
-8.63063e-08
-8.79912e-08
-8.94733e-08
-9.07152e-08
-9.16988e-08
-9.25975e-08
-9.35775e-08
-9.29311e-08
-9.22336e-08
-9.14601e-08
-9.05794e-08
-8.96057e-08
-8.85691e-08
-8.75073e-08
-8.646e-08
-8.54668e-08
-8.45641e-08
-8.37837e-08
-8.3152e-08
-8.26895e-08
-8.24108e-08
-8.23263e-08
-8.24441e-08
-8.27721e-08
-8.33195e-08
-8.4096e-08
-8.51076e-08
-8.63526e-08
-8.78177e-08
-8.94808e-08
-9.13177e-08
-5.33686e-07
-5.38456e-07
-5.43126e-07
-5.47792e-07
-5.52311e-07
-5.5667e-07
-5.60736e-07
-5.6445e-07
-5.67689e-07
-5.70352e-07
-5.72305e-07
-5.73426e-07
-5.73586e-07
-5.72668e-07
-5.70565e-07
-5.67188e-07
-5.62447e-07
-5.56275e-07
-5.48365e-07
-5.38793e-07
-5.2754e-07
-5.14603e-07
-5.00112e-07
-4.84103e-07
-4.666e-07
-4.47723e-07
-4.2763e-07
-4.0651e-07
-3.84574e-07
-3.62041e-07
-3.39141e-07
-3.16112e-07
-2.93173e-07
-2.70536e-07
-2.48395e-07
-2.26933e-07
-2.0631e-07
-1.86666e-07
-1.68124e-07
-1.50786e-07
-1.34734e-07
-1.20027e-07
-1.067e-07
-9.4776e-08
-8.42741e-08
-7.52e-08
-6.75321e-08
-6.12234e-08
-5.62122e-08
-5.24125e-08
-4.97136e-08
-4.79905e-08
-4.71134e-08
-4.69546e-08
-4.73932e-08
-4.8317e-08
-4.96197e-08
-5.12e-08
-5.29601e-08
-5.48101e-08
-5.6661e-08
-5.84144e-08
-5.99487e-08
-6.11513e-08
-6.17579e-08
-6.35914e-08
-6.5238e-08
-6.65003e-08
-6.75506e-08
-6.84444e-08
-6.92231e-08
-6.9929e-08
-7.06027e-08
-7.12834e-08
-7.2008e-08
-7.28113e-08
-7.37244e-08
-7.47746e-08
-7.59841e-08
-7.73701e-08
-7.89436e-08
-8.07098e-08
-8.26684e-08
-8.48141e-08
-8.71378e-08
-8.9626e-08
-9.22613e-08
-9.50203e-08
-9.78692e-08
-5.18244e-07
-5.26745e-07
-5.35231e-07
-5.43828e-07
-5.52386e-07
-5.60896e-07
-5.68958e-07
-5.7653e-07
-5.83435e-07
-5.89501e-07
-5.9455e-07
-5.98418e-07
-6.00952e-07
-6.0199e-07
-6.01378e-07
-5.99111e-07
-5.95005e-07
-5.88918e-07
-5.8096e-07
-5.70969e-07
-5.58949e-07
-5.44934e-07
-5.29002e-07
-5.11255e-07
-4.91826e-07
-4.70886e-07
-4.48642e-07
-4.2532e-07
-4.01171e-07
-3.76456e-07
-3.51442e-07
-3.26391e-07
-3.0156e-07
-2.77188e-07
-2.53497e-07
-2.30685e-07
-2.08923e-07
-1.88346e-07
-1.6906e-07
-1.51139e-07
-1.34627e-07
-1.19542e-07
-1.05875e-07
-9.35873e-08
-8.26079e-08
-7.28588e-08
-6.4253e-08
-5.67134e-08
-5.01802e-08
-4.46157e-08
-4.00004e-08
-3.63219e-08
-3.35626e-08
-3.16874e-08
-3.06375e-08
-3.03299e-08
-3.06602e-08
-3.15107e-08
-3.27614e-08
-3.43003e-08
-3.60278e-08
-3.78558e-08
-3.97128e-08
-4.15532e-08
-4.33563e-08
-4.51184e-08
-4.65347e-08
-4.87887e-08
-5.08706e-08
-5.2856e-08
-5.48046e-08
-5.67485e-08
-5.87143e-08
-6.07262e-08
-6.28063e-08
-6.4975e-08
-6.72506e-08
-6.96484e-08
-7.21806e-08
-7.48556e-08
-7.76775e-08
-8.06447e-08
-8.37497e-08
-8.69787e-08
-9.03115e-08
-9.37212e-08
-9.71765e-08
-1.00641e-07
-1.04076e-07
-5.12502e-07
-5.22873e-07
-5.33529e-07
-5.44251e-07
-5.54882e-07
-5.65272e-07
-5.7523e-07
-5.84564e-07
-5.93073e-07
-6.00556e-07
-6.06817e-07
-6.11656e-07
-6.14979e-07
-6.16574e-07
-6.16354e-07
-6.14134e-07
-6.09881e-07
-6.03514e-07
-5.94999e-07
-5.84321e-07
-5.71508e-07
-5.56623e-07
-5.39766e-07
-5.21074e-07
-5.00716e-07
-4.78894e-07
-4.55836e-07
-4.31793e-07
-4.07029e-07
-3.81823e-07
-3.56452e-07
-3.31189e-07
-3.06283e-07
-2.81958e-07
-2.58402e-07
-2.35787e-07
-2.14258e-07
-1.9393e-07
-1.74891e-07
-1.57199e-07
-1.40891e-07
-1.25977e-07
-1.12448e-07
-1.00274e-07
-8.94106e-08
-7.97969e-08
-7.13699e-08
-6.40559e-08
-5.77725e-08
-5.24371e-08
-4.79648e-08
-4.427e-08
-4.12698e-08
-3.88858e-08
-3.70484e-08
-3.57019e-08
-3.48016e-08
-3.43124e-08
-3.42047e-08
-3.44545e-08
-3.50414e-08
-3.59361e-08
-3.71062e-08
-3.85612e-08
-4.03415e-08
-4.22223e-08
-4.44767e-08
-4.61287e-08
-4.80805e-08
-5.02203e-08
-5.24784e-08
-5.48361e-08
-5.72922e-08
-5.98506e-08
-6.25181e-08
-6.53019e-08
-6.82074e-08
-7.12373e-08
-7.43907e-08
-7.76643e-08
-8.10508e-08
-8.45379e-08
-8.81074e-08
-9.17381e-08
-9.54053e-08
-9.90685e-08
-1.02693e-07
-1.06247e-07
-1.09693e-07
-5.07643e-07
-5.19081e-07
-5.30781e-07
-5.4237e-07
-5.53636e-07
-5.64446e-07
-5.74658e-07
-5.8406e-07
-5.92591e-07
-5.99926e-07
-6.05867e-07
-6.10347e-07
-6.13179e-07
-6.14237e-07
-6.13375e-07
-6.10477e-07
-6.05477e-07
-5.98339e-07
-5.89059e-07
-5.77661e-07
-5.64207e-07
-5.48796e-07
-5.31563e-07
-5.12678e-07
-4.92344e-07
-4.70789e-07
-4.48262e-07
-4.25024e-07
-4.01333e-07
-3.77436e-07
-3.53573e-07
-3.29977e-07
-3.06882e-07
-2.84499e-07
-2.62995e-07
-2.42488e-07
-2.23072e-07
-2.0481e-07
-1.87738e-07
-1.71867e-07
-1.57188e-07
-1.43675e-07
-1.31294e-07
-1.19997e-07
-1.09733e-07
-1.00447e-07
-9.20868e-08
-8.45981e-08
-7.79319e-08
-7.20432e-08
-6.68916e-08
-6.24395e-08
-5.86531e-08
-5.54986e-08
-5.29397e-08
-5.09364e-08
-4.94418e-08
-4.84094e-08
-4.77845e-08
-4.75209e-08
-4.75818e-08
-4.79157e-08
-4.85094e-08
-4.92742e-08
-5.00621e-08
-5.11259e-08
-5.2389e-08
-5.38602e-08
-5.54934e-08
-5.72673e-08
-5.91987e-08
-6.12956e-08
-6.35523e-08
-6.59615e-08
-6.85201e-08
-7.12258e-08
-7.40745e-08
-7.70613e-08
-8.01708e-08
-8.33938e-08
-8.67159e-08
-9.01164e-08
-9.35694e-08
-9.70518e-08
-1.0057e-07
-1.03997e-07
-1.07337e-07
-1.10557e-07
-1.13621e-07
-5.02064e-07
-5.1233e-07
-5.23128e-07
-5.34029e-07
-5.44633e-07
-5.54626e-07
-5.63765e-07
-5.71946e-07
-5.7898e-07
-5.84871e-07
-5.89448e-07
-5.92568e-07
-5.94092e-07
-5.93866e-07
-5.91772e-07
-5.87748e-07
-5.81768e-07
-5.73834e-07
-5.6398e-07
-5.52269e-07
-5.388e-07
-5.23699e-07
-5.07124e-07
-4.89253e-07
-4.70292e-07
-4.50462e-07
-4.29994e-07
-4.09128e-07
-3.88091e-07
-3.67103e-07
-3.46362e-07
-3.26036e-07
-3.06266e-07
-2.87179e-07
-2.68878e-07
-2.51437e-07
-2.34903e-07
-2.19305e-07
-2.04659e-07
-1.90961e-07
-1.78193e-07
-1.66326e-07
-1.55326e-07
-1.45154e-07
-1.35769e-07
-1.27127e-07
-1.1919e-07
-1.11916e-07
-1.05268e-07
-9.92097e-08
-9.37091e-08
-8.87351e-08
-8.42593e-08
-8.02559e-08
-7.67012e-08
-7.35733e-08
-7.08525e-08
-6.85205e-08
-6.65587e-08
-6.495e-08
-6.36804e-08
-6.27305e-08
-6.20839e-08
-6.17714e-08
-6.1777e-08
-6.20908e-08
-6.26785e-08
-6.3504e-08
-6.4539e-08
-6.57759e-08
-6.72181e-08
-6.88668e-08
-7.07188e-08
-7.27652e-08
-7.49945e-08
-7.73945e-08
-7.99595e-08
-8.27101e-08
-8.55418e-08
-8.84813e-08
-9.15104e-08
-9.46091e-08
-9.77578e-08
-1.00924e-07
-1.04032e-07
-1.07132e-07
-1.10151e-07
-1.13056e-07
-1.15812e-07
-4.92271e-07
-4.99007e-07
-5.06268e-07
-5.13993e-07
-5.21967e-07
-5.29873e-07
-5.37232e-07
-5.4358e-07
-5.48681e-07
-5.52494e-07
-5.55015e-07
-5.56212e-07
-5.56022e-07
-5.5436e-07
-5.51143e-07
-5.4632e-07
-5.39886e-07
-5.31873e-07
-5.22342e-07
-5.11384e-07
-4.99108e-07
-4.85642e-07
-4.71126e-07
-4.55712e-07
-4.39562e-07
-4.22852e-07
-4.05767e-07
-3.88491e-07
-3.71198e-07
-3.54059e-07
-3.37228e-07
-3.20806e-07
-3.04838e-07
-2.89367e-07
-2.7445e-07
-2.60132e-07
-2.4643e-07
-2.33355e-07
-2.20914e-07
-2.09108e-07
-1.97933e-07
-1.87376e-07
-1.77422e-07
-1.68054e-07
-1.59252e-07
-1.50995e-07
-1.4326e-07
-1.36029e-07
-1.29279e-07
-1.22991e-07
-1.17145e-07
-1.11721e-07
-1.06703e-07
-1.02078e-07
-9.78336e-08
-9.39615e-08
-9.04535e-08
-8.7302e-08
-8.44974e-08
-8.20288e-08
-7.98843e-08
-7.80493e-08
-7.65057e-08
-7.5245e-08
-7.42653e-08
-7.36045e-08
-7.32667e-08
-7.32399e-08
-7.35052e-08
-7.4048e-08
-7.48606e-08
-7.59361e-08
-7.72651e-08
-7.88393e-08
-8.06476e-08
-8.26768e-08
-8.49056e-08
-8.72776e-08
-8.9858e-08
-9.25801e-08
-9.54183e-08
-9.83447e-08
-1.01328e-07
-1.04333e-07
-1.0732e-07
-1.10259e-07
-1.13114e-07
-1.15851e-07
-1.18435e-07
-4.66473e-07
-4.69912e-07
-4.73735e-07
-4.78639e-07
-4.84231e-07
-4.89763e-07
-4.94672e-07
-4.98625e-07
-5.0148e-07
-5.03261e-07
-5.04044e-07
-5.03861e-07
-5.02684e-07
-5.00451e-07
-4.971e-07
-4.92595e-07
-4.86939e-07
-4.80168e-07
-4.72349e-07
-4.63562e-07
-4.53896e-07
-4.43446e-07
-4.32303e-07
-4.20554e-07
-4.08281e-07
-3.95575e-07
-3.8255e-07
-3.69337e-07
-3.56064e-07
-3.42838e-07
-3.29734e-07
-3.16788e-07
-3.04025e-07
-2.91481e-07
-2.79207e-07
-2.67245e-07
-2.55621e-07
-2.44356e-07
-2.33468e-07
-2.22974e-07
-2.12889e-07
-2.03221e-07
-1.93978e-07
-1.85162e-07
-1.76773e-07
-1.68805e-07
-1.61252e-07
-1.54104e-07
-1.47353e-07
-1.4099e-07
-1.35002e-07
-1.29375e-07
-1.24095e-07
-1.19147e-07
-1.14518e-07
-1.10196e-07
-1.06175e-07
-1.02451e-07
-9.90238e-08
-9.58952e-08
-9.30644e-08
-9.05305e-08
-8.82903e-08
-8.6337e-08
-8.46712e-08
-8.33154e-08
-8.22921e-08
-8.16113e-08
-8.12723e-08
-8.12693e-08
-8.15945e-08
-8.22387e-08
-8.31915e-08
-8.4441e-08
-8.59732e-08
-8.77727e-08
-8.98197e-08
-9.20887e-08
-9.45579e-08
-9.71959e-08
-9.997e-08
-1.02846e-07
-1.05788e-07
-1.08757e-07
-1.11716e-07
-1.14626e-07
-1.17447e-07
-1.2014e-07
-1.22667e-07
-4.23539e-07
-4.26269e-07
-4.30743e-07
-4.35599e-07
-4.40012e-07
-4.43704e-07
-4.46635e-07
-4.48831e-07
-4.50337e-07
-4.51201e-07
-4.51452e-07
-4.51088e-07
-4.50074e-07
-4.48369e-07
-4.45932e-07
-4.42735e-07
-4.38777e-07
-4.34075e-07
-4.28667e-07
-4.22597e-07
-4.15913e-07
-4.08667e-07
-4.00907e-07
-3.92685e-07
-3.84055e-07
-3.75059e-07
-3.65729e-07
-3.56098e-07
-3.4621e-07
-3.36115e-07
-3.25871e-07
-3.15532e-07
-3.05129e-07
-2.94691e-07
-2.84265e-07
-2.73906e-07
-2.63669e-07
-2.53603e-07
-2.43744e-07
-2.34126e-07
-2.24779e-07
-2.15724e-07
-2.06981e-07
-1.98565e-07
-1.90485e-07
-1.82749e-07
-1.75352e-07
-1.68289e-07
-1.61548e-07
-1.55123e-07
-1.49008e-07
-1.43202e-07
-1.37702e-07
-1.32499e-07
-1.27581e-07
-1.22934e-07
-1.18549e-07
-1.14425e-07
-1.10567e-07
-1.0699e-07
-1.03698e-07
-1.00695e-07
-9.80002e-08
-9.56265e-08
-9.35624e-08
-9.17877e-08
-9.03145e-08
-8.91764e-08
-8.8401e-08
-8.79997e-08
-8.79719e-08
-8.83127e-08
-8.90141e-08
-9.00619e-08
-9.14325e-08
-9.30991e-08
-9.50395e-08
-9.72359e-08
-9.96671e-08
-1.02302e-07
-1.05103e-07
-1.08029e-07
-1.1104e-07
-1.14089e-07
-1.17131e-07
-1.2012e-07
-1.23011e-07
-1.25756e-07
-1.28312e-07
-3.9213e-07
-3.93421e-07
-3.96038e-07
-3.99008e-07
-4.01751e-07
-4.04051e-07
-4.05873e-07
-4.07254e-07
-4.08247e-07
-4.08889e-07
-4.09198e-07
-4.09173e-07
-4.08794e-07
-4.08022e-07
-4.0681e-07
-4.0512e-07
-4.02927e-07
-4.00222e-07
-3.97008e-07
-3.93294e-07
-3.89095e-07
-3.84427e-07
-3.79313e-07
-3.7378e-07
-3.67846e-07
-3.61516e-07
-3.54796e-07
-3.47701e-07
-3.40266e-07
-3.32529e-07
-3.24518e-07
-3.16261e-07
-3.07802e-07
-2.99179e-07
-2.90423e-07
-2.81573e-07
-2.72679e-07
-2.63792e-07
-2.54956e-07
-2.46212e-07
-2.37593e-07
-2.29127e-07
-2.20839e-07
-2.12752e-07
-2.04887e-07
-1.97267e-07
-1.89925e-07
-1.8288e-07
-1.7612e-07
-1.69609e-07
-1.63324e-07
-1.57259e-07
-1.51428e-07
-1.45837e-07
-1.40486e-07
-1.35376e-07
-1.30501e-07
-1.25854e-07
-1.21432e-07
-1.1723e-07
-1.13254e-07
-1.0956e-07
-1.06259e-07
-1.03378e-07
-1.00883e-07
-9.87403e-08
-9.69411e-08
-9.55014e-08
-9.44429e-08
-9.37797e-08
-9.35207e-08
-9.36723e-08
-9.42358e-08
-9.52139e-08
-9.65945e-08
-9.83238e-08
-1.00318e-07
-1.02541e-07
-1.04994e-07
-1.07665e-07
-1.1052e-07
-1.13518e-07
-1.16616e-07
-1.19768e-07
-1.22928e-07
-1.26044e-07
-1.29063e-07
-1.31929e-07
-1.34593e-07
-3.7316e-07
-3.7077e-07
-3.69423e-07
-3.69233e-07
-3.69949e-07
-3.71135e-07
-3.72383e-07
-3.73432e-07
-3.74177e-07
-3.74623e-07
-3.74832e-07
-3.74866e-07
-3.74753e-07
-3.74476e-07
-3.73986e-07
-3.73239e-07