/*--------------------------------*- C++ -*----------------------------------*\
| =========                 |                                                 |
| \\      /  F ield         | OpenFOAM: The Open Source CFD Toolbox           |
|  \\    /   O peration     | Version:  2312                                  |
|   \\  /    A nd           | Website:  www.openfoam.com                      |
|    \\/     M anipulation  |                                                 |
\*---------------------------------------------------------------------------*/
FoamFile
{
    version     2.0;
    format      ascii;
    arch        "LSB;label=32;scalar=64";
    class       surfaceScalarField;
    location    "110000";
    object      phi;
}
// * * * * * * * * * * * * * * * * * * * * * * * * * * * * * * * * * * * * * //

dimensions      [0 3 -1 0 0 0 0];

oriented        oriented;

internalField   nonuniform List<scalar> 
5250
(
0.000508651
6.32954e-07
0.000504482
4.169e-06
0.000497784
6.69798e-06
0.000488619
9.16525e-06
0.000477152
1.14665e-05
0.000463711
1.34411e-05
0.000448631
1.50803e-05
0.00043217
1.64604e-05
0.000414491
1.76793e-05
0.00039569
1.88012e-05
0.000375842
1.98473e-05
0.000355023
2.08194e-05
0.000333309
2.17139e-05
0.000310785
2.25246e-05
0.000287543
2.3242e-05
0.00026369
2.38529e-05
0.00023935
2.43398e-05
0.000214669
2.46812e-05
0.000189819
2.48497e-05
0.000165006
2.48129e-05
0.000140474
2.45324e-05
0.000116505
2.39684e-05
9.34256e-05
2.30798e-05
7.16025e-05
2.1823e-05
5.14454e-05
2.01571e-05
3.3353e-05
1.80924e-05
1.76363e-05
1.57168e-05
4.46639e-06
1.31699e-05
-6.11991e-06
1.05863e-05
-1.41292e-05
8.00932e-06
-1.97268e-05
5.59752e-06
-2.32413e-05
3.51454e-06
-2.49763e-05
1.73503e-06
-2.52926e-05
3.1631e-07
-2.43919e-05
-9.00728e-07
-2.26018e-05
-1.79013e-06
-2.02551e-05
-2.34666e-06
-1.76494e-05
-2.6057e-06
-1.50481e-05
-2.60128e-06
-1.26754e-05
-2.37275e-06
-1.0709e-05
-1.96638e-06
-9.27715e-06
-1.43185e-06
-8.46047e-06
-8.16688e-07
-8.29631e-06
-1.64155e-07
-8.71588e-06
4.19574e-07
-9.70371e-06
9.87827e-07
-1.12085e-05
1.50474e-06
-1.31145e-05
1.90605e-06
-1.52945e-05
2.18004e-06
-1.75954e-05
2.30086e-06
-1.98696e-05
2.2742e-06
-2.19978e-05
2.12817e-06
-2.38931e-05
1.89528e-06
-2.54949e-05
1.60186e-06
-2.67641e-05
1.26917e-06
-2.76812e-05
9.17104e-07
-2.82457e-05
5.64467e-07
-2.84704e-05
2.24778e-07
-2.83921e-05
-7.83185e-08
-2.80794e-05
-3.12702e-07
-2.75646e-05
-5.14819e-07
-2.68882e-05
-6.76373e-07
-2.60889e-05
-7.99367e-07
-2.51997e-05
-8.89121e-07
-2.42512e-05
-9.48524e-07
-2.32715e-05
-9.79666e-07
-2.22864e-05
-9.85134e-07
-2.13185e-05
-9.67943e-07
-2.03868e-05
-9.31662e-07
-1.9502e-05
-8.8478e-07
-1.86681e-05
-8.33921e-07
-1.79006e-05
-7.675e-07
-1.72062e-05
-6.94454e-07
-1.65884e-05
-6.1778e-07
-1.60486e-05
-5.39726e-07
-1.55869e-05
-4.61715e-07
-1.5203e-05
-3.83967e-07
-1.48963e-05
-3.06636e-07
-1.46672e-05
-2.29151e-07
-1.45171e-05
-1.50065e-07
-1.44502e-05
-6.69481e-08
-1.44693e-05
1.91383e-08
-1.45697e-05
1.00432e-07
-1.47606e-05
1.90883e-07
-1.505e-05
2.89349e-07
-1.54467e-05
3.9671e-07
-1.59592e-05
5.12481e-07
-1.6595e-05
6.35879e-07
-1.73609e-05
7.65874e-07
9.01064e-07
0.000887887
7.65995e-06
0.000881165
1.0891e-05
0.00087419
1.36732e-05
0.00086702
1.6335e-05
0.000859548
1.89391e-05
0.000851543
2.14455e-05
0.000842807
2.38163e-05
0.000833232
2.60351e-05
0.000822802
2.81103e-05
0.000811531
3.0072e-05
0.000799429
3.19488e-05
0.000786498
3.37502e-05
0.000772743
3.54697e-05
0.000758177
3.70902e-05
0.000742831
3.85882e-05
0.000726742
3.99414e-05
0.00070995
4.11315e-05
0.000692493
4.21388e-05
0.000674402
4.29401e-05
0.000655707
4.35088e-05
0.000636422
4.38171e-05
0.000616552
4.38382e-05
0.000596082
4.355e-05
0.000574967
4.29377e-05
0.000553125
4.19991e-05
0.000530469
4.07486e-05
0.000506963
3.92229e-05
0.000482659
3.74736e-05
0.000457675
3.55702e-05
0.00043211
3.35742e-05
0.000406118
3.15901e-05
0.000379737
2.98949e-05
0.000353414
2.80581e-05
0.000327525
2.6206e-05
0.000302176
2.4448e-05
0.000277565
2.28211e-05
0.000253885
2.13328e-05
0.000231307
1.99725e-05
0.000209986
1.87201e-05
0.000190058
1.75553e-05
0.00017163
1.64608e-05
0.000154776
1.54231e-05
0.000139527
1.44323e-05
0.000125885
1.34776e-05
0.000113749
1.25552e-05
0.000103077
1.16601e-05
9.37916e-05
1.07899e-05
8.57776e-05
9.92002e-06
7.89439e-05
9.01374e-06
7.30728e-05
8.17197e-06
6.80266e-05
7.32046e-06
6.36879e-05
6.46679e-06
5.99578e-05
5.62547e-06
5.67535e-05
4.80614e-06
5.40069e-05
4.01576e-06
5.16613e-05
3.26264e-06
4.96681e-05
2.55775e-06
4.79821e-05
1.91077e-06
4.65759e-05
1.32785e-06
4.54477e-05
8.15539e-07
4.45549e-05
3.77925e-07
4.38576e-05
2.09632e-08
4.3373e-05
-3.14775e-07
4.30596e-05
-5.75768e-07
4.28893e-05
-7.78187e-07
4.28381e-05
-9.28414e-07
4.28839e-05
-1.03101e-06
4.30049e-05
-1.08893e-06
4.31703e-05
-1.09704e-06
4.33764e-05
-1.09085e-06
4.36088e-05
-1.06635e-06
4.38664e-05
-1.02513e-06
4.41413e-05
-9.69282e-07
4.4425e-05
-9.01553e-07
4.47122e-05
-8.26905e-07
4.50023e-05
-7.51778e-07
4.52979e-05
-6.79594e-07
4.5601e-05
-6.09729e-07
4.59116e-05
-5.39715e-07
4.62287e-05
-4.67186e-07
4.65518e-05
-3.90122e-07
4.68779e-05
-3.06932e-07
4.71938e-05
-2.15469e-07
4.74996e-05
-1.14907e-07
4.77978e-05
-8.86095e-09
4.80577e-05
1.36869e-07
4.82835e-05
2.86637e-07
4.84735e-05
4.45835e-07
4.8626e-05
6.13441e-07
7.87171e-07
0.00103356
1.12494e-05
0.00102999
1.44647e-05
0.00102612
1.75408e-05
0.00102204
2.04128e-05
0.00101784
2.31451e-05
0.00101348
2.58003e-05
0.00100889
2.84079e-05
0.00100396
3.09654e-05
0.000998616
3.34566e-05
0.000992819
3.58685e-05
0.000986574
3.81946e-05
0.000979892
4.04315e-05
0.000972787
4.25752e-05
0.00096526
4.46176e-05
0.000957301
4.65469e-05
0.000948895
4.83478e-05
0.000940023
5.00033e-05
0.000930667
5.14943e-05
0.000920806
5.28015e-05
0.000910411
5.3904e-05
0.000899445
5.47824e-05
0.000887867
5.54169e-05
0.000875625
5.5792e-05
0.000862668
5.58946e-05
0.000848947
5.57201e-05
0.000834424
5.5271e-05
0.000819082
5.45655e-05
0.000802922
5.36336e-05
0.000785971
5.25207e-05
0.00076827
5.12756e-05
0.00074991
4.99499e-05
0.000731227
4.85782e-05
0.000712143
4.71419e-05
0.00069281
4.55384e-05
0.000673171
4.4087e-05
0.000653294
4.26983e-05
0.00063328
4.13476e-05
0.000613227
4.00246e-05
0.00059323
3.87172e-05
0.000573374
3.74113e-05
0.000553742
3.60929e-05
0.000534415
3.47508e-05
0.000515468
3.3379e-05
0.000496971
3.19749e-05
0.000478986
3.05402e-05
0.000461567
2.90782e-05
0.000444748
2.76095e-05
0.000428475
2.6193e-05
0.000412809
2.46792e-05
0.000397837
2.31441e-05
0.000383546
2.16117e-05
0.000369918
2.00945e-05
0.00035694
1.86039e-05
0.000344596
1.71497e-05
0.000332871
1.57408e-05
0.000321749
1.43846e-05
0.000311219
1.30883e-05
0.000301272
1.18577e-05
0.000291903
1.0697e-05
0.000283107
9.6108e-06
0.000274885
8.60024e-06
0.000267242
7.66385e-06
0.000260127
6.80016e-06
0.000253543
6.00803e-06
0.00024748
5.28521e-06
0.000241923
4.62814e-06
0.000236859
4.03366e-06
0.000232272
3.49777e-06
0.000228159
3.0156e-06
0.000224487
2.58199e-06
0.000221228
2.19263e-06
0.000218357
1.84534e-06
0.000215851
1.53679e-06
0.000213688
1.2614e-06
0.000211851
1.01075e-06
0.000210324
7.74492e-07
0.00020907
5.74336e-07
0.000208062
3.98139e-07
0.000207279
2.43396e-07
0.000206702
1.09755e-07
0.000206311
1.7019e-09
0.000206113
-1.09652e-07
0.000206093
-1.95556e-07
0.000206238
-2.60018e-07
0.000206533
-3.03758e-07
0.000206996
-3.26053e-07
0.000207612
-3.2858e-07
0.000208371
-3.13875e-07
0.000209269
-2.8426e-07
-2.43382e-07
0.00109709
1.46835e-05
0.00109412
1.74369e-05
0.00109137
2.02905e-05
0.00108867
2.31102e-05
0.00108596
2.58569e-05
0.00108321
2.85428e-05
0.00108044
3.11848e-05
0.00107761
3.37911e-05
0.00107471
3.6359e-05
0.0010717
3.88767e-05
0.00106856
4.13317e-05
0.00106528
4.37125e-05
0.00106185
4.60064e-05
0.00105826
4.82054e-05
0.00105451
5.03034e-05
0.00105057
5.2289e-05
0.00104642
5.41484e-05
0.00104205
5.58669e-05
0.00103742
5.7429e-05
0.00103251
5.88197e-05
0.00102726
6.00242e-05
0.00102165
6.1029e-05
0.00101562
6.18215e-05
0.00100912
6.23928e-05
0.00100211
6.27388e-05
0.000994513
6.28631e-05
0.000986306
6.27735e-05
0.000977457
6.24825e-05
0.000967987
6.19902e-05
0.000957924
6.13383e-05
0.000947299
6.05757e-05
0.000936159
5.97178e-05
0.000924517
5.8784e-05
0.000912266
5.77897e-05
0.0008996
5.67526e-05
0.00088662
5.56784e-05
0.0008734
5.45677e-05
0.000860006
5.34189e-05
0.00084649
5.22326e-05
0.000832889
5.1012e-05
0.000819268
4.97144e-05
0.000805671
4.83481e-05
0.000792125
4.69243e-05
0.000778655
4.54449e-05
0.000765283
4.39123e-05
0.000752031
4.23306e-05
0.000738935
4.07058e-05
0.000726087
3.90408e-05
0.000713445
3.73212e-05
0.000701061
3.55282e-05
0.000688931
3.37408e-05
0.000677066
3.19598e-05
0.00066548
3.01903e-05
0.000654188
2.84411e-05
0.000643208
2.67216e-05
0.000632551
2.50416e-05
0.000622229
2.34101e-05
0.000612251
2.18355e-05
0.000602624
2.03245e-05
0.000593352
1.88828e-05
0.000584438
1.7514e-05
0.000575881
1.6221e-05
0.000567677
1.50037e-05
0.000559823
1.38618e-05
0.000552314
1.27949e-05
0.000545141
1.18011e-05
0.000538297
1.08779e-05
0.000531772
1.0022e-05
0.000525559
9.22936e-06
0.000519644
8.49631e-06
0.000514019
7.81802e-06
0.000508672
7.19243e-06
0.000503583
6.62531e-06
0.000498737
6.10793e-06
0.000494133
5.61407e-06
0.000489757
5.15133e-06
0.00048561
4.72092e-06
0.000481689
4.31886e-06
0.000477991
3.94136e-06
0.000474515
3.58626e-06
0.000471265
3.25179e-06
0.000468219
2.93617e-06
0.000465383
2.64016e-06
0.000462761
2.36223e-06
0.000460356
2.10125e-06
0.000458174
1.85554e-06
0.000456223
1.62245e-06
0.000454511
1.39883e-06
0.000453045
1.18154e-06
9.6775e-07
0.00108289
1.7038e-05
0.00108087
1.94529e-05
0.00107913
2.20367e-05
0.00107751
2.47255e-05
0.00107592
2.74445e-05
0.00107433
3.01387e-05
0.00107273
3.27839e-05
0.00107114
3.53776e-05
0.00106958
3.79224e-05
0.00106804
4.0417e-05
0.00106652
4.28546e-05
0.001065
4.52248e-05
0.00106349
4.75157e-05
0.00106198
4.97161e-05
0.00106047
5.18163e-05
0.00105895
5.38069e-05
0.00105742
5.56786e-05
0.00105587
5.74213e-05
0.00105427
5.90248e-05
0.00105261
6.04793e-05
0.00105086
6.17768e-05
0.00104898
6.29121e-05
0.00104692
6.38752e-05
0.00104466
6.46532e-05
0.00104215
6.52472e-05
0.00103936
6.56592e-05
0.00103624
6.58924e-05
0.00103277
6.59535e-05
0.00102891
6.58529e-05
0.00102464
6.56081e-05
0.00101997
6.52419e-05
0.00101491
6.47721e-05
0.00100949
6.42108e-05
0.00100372
6.35628e-05
0.000997639
6.28291e-05
0.0009913
6.20165e-05
0.000984735
6.11327e-05
0.000977972
6.01823e-05
0.000971039
5.91658e-05
0.000963975
5.80757e-05
0.000956798
5.68919e-05
0.000949509
5.5637e-05
0.000942117
5.43161e-05
0.000934635
5.29273e-05
0.000927076
5.14708e-05
0.000919458
4.99485e-05
0.000911801
4.83628e-05
0.000904123
4.67187e-05
0.000896422
4.50223e-05
0.000888669
4.32814e-05
0.000880903
4.15071e-05
0.000873152
3.97102e-05
0.000865442
3.79009e-05
0.000857793
3.60898e-05
0.000850227
3.42872e-05
0.000842766
3.25033e-05
0.000835427
3.07482e-05
0.000828232
2.90312e-05
0.000821196
2.73605e-05
0.000814335
2.57433e-05
0.000807664
2.41858e-05
0.000801192
2.26926e-05
0.000794929
2.1267e-05
0.000788879
1.9911e-05
0.000783049
1.86257e-05
0.000777438
1.74113e-05
0.000772049
1.62672e-05
0.000766879
1.51918e-05
0.000761926
1.4183e-05
0.000757184
1.32383e-05
0.000752646
1.23552e-05
0.000748308
1.15311e-05
0.000744171
1.07625e-05
0.000740234
1.0044e-05
0.00073648
9.36879e-06
0.000732897
8.73432e-06
0.000729478
8.13971e-06
0.000726214
7.58285e-06
0.000723096
7.0598e-06
0.000720115
6.56658e-06
0.000717267
6.09972e-06
0.000714547
5.65625e-06
0.000711954
5.2334e-06
0.000709488
4.82825e-06
0.000707151
4.43811e-06
0.000704947
4.05978e-06
0.000702879
3.69002e-06
0.000700952
3.32568e-06
0.000699171
2.96281e-06
2.59842e-06
0.00109144
1.85325e-05
0.00108965
2.12461e-05
0.00108766
2.40244e-05
0.00108555
2.68402e-05
0.00108333
2.96644e-05
0.00108099
3.24705e-05
0.00107854
3.52377e-05
0.00107596
3.7953e-05
0.00107328
4.06077e-05
0.0010705
4.31939e-05
0.00106765
4.57037e-05
0.00106475
4.81278e-05
0.00106181
5.04563e-05
0.00105885
5.26791e-05
0.00105588
5.47861e-05
0.00105292
5.6768e-05
0.00104998
5.86161e-05
0.00104708
6.03226e-05
0.00104422
6.18802e-05
0.00104142
6.32826e-05
0.00103867
6.45245e-05
0.00103598
6.56015e-05
0.00103335
6.65102e-05
0.00103075
6.72481e-05
0.00102818
6.78157e-05
0.00102563
6.82158e-05
0.00102306
6.84542e-05
0.00102048
6.85383e-05
0.00101785
6.84785e-05
0.00101518
6.82866e-05
0.00101244
6.79769e-05
0.00100965
6.75619e-05
0.00100682
6.70437e-05
0.00100396
6.64255e-05
0.00100107
6.57175e-05
0.000998156
6.49274e-05
0.000995228
6.40614e-05
0.000992286
6.31238e-05
0.000989336
6.21161e-05
0.000986373
6.10384e-05
0.000983374
5.98906e-05
0.000980336
5.86755e-05
0.000977257
5.73953e-05
0.000974133
5.60514e-05
0.000970957
5.46462e-05
0.000967726
5.31801e-05
0.000964433
5.16559e-05
0.000961073
5.00785e-05
0.000957641
4.84543e-05
0.000954133
4.67892e-05
0.000950552
4.50879e-05
0.000946905
4.33571e-05
0.000943201
4.16054e-05
0.000939449
3.98421e-05
0.000935659
3.80767e-05
0.000931843
3.63189e-05
0.000928014
3.45778e-05
0.000924183
3.28619e-05
0.000920364
3.1179e-05
0.000916572
2.95359e-05
0.000912819
2.79388e-05
0.000909119
2.63929e-05
0.000905483
2.49022e-05
0.000901925
2.34699e-05
0.000898452
2.2098e-05
0.000895076
2.0788e-05
0.000891802
1.95403e-05
0.000888639
1.83549e-05
0.000885591
1.72311e-05
0.000882662
1.61675e-05
0.000879855
1.51627e-05
0.000877171
1.42144e-05
0.000874614
1.33199e-05
0.000872181
1.2477e-05
0.000869867
1.16826e-05
0.000867669
1.09327e-05
0.000865584
1.02239e-05
0.000863614
9.55375e-06
0.000861754
8.91956e-06
0.000860002
8.31789e-06
0.000858357
7.7453e-06
0.000856815
7.19854e-06
0.000855374
6.67443e-06
0.000854032
6.17023e-06
0.000852787
5.68248e-06
0.000851639
5.20809e-06
0.000850585
4.74348e-06
0.000849626
4.28535e-06
0.000848758
3.83079e-06
3.37561e-06
0.00116709
2.04048e-05
0.00116478
2.35562e-05
0.00116217
2.66387e-05
0.00115933
2.96707e-05
0.00115632
3.26768e-05
0.00115313
3.56672e-05
0.00114973
3.86362e-05
0.00114611
4.15679e-05
0.00114228
4.44446e-05
0.00113822
4.72512e-05
0.00113395
4.99754e-05
0.00112947
5.26063e-05
0.00112479
5.51335e-05
0.00111992
5.75463e-05
0.00111488
5.98336e-05
0.00110966
6.19842e-05
0.00110429
6.39874e-05
0.00109878
6.58335e-05
0.00109314
6.75137e-05
0.00108741
6.90206e-05
0.00108158
7.0348e-05
0.00107569
7.14909e-05
0.00106976
7.24461e-05
0.00106379
7.3212e-05
0.00105782
7.37892e-05
0.00105186
7.41803e-05
0.00104592
7.43904e-05
0.00104003
7.44269e-05
0.00103421
7.42986e-05
0.00102848
7.40153e-05
0.00102287
7.35869e-05
0.00101741
7.30229e-05
0.00101212
7.23322e-05
0.00100702
7.15245e-05
0.00100213
7.06115e-05
0.000997453
6.9604e-05
0.000993003
6.85112e-05
0.000988786
6.73406e-05
0.000984804
6.60987e-05
0.000981051
6.47908e-05
0.00097752
6.34216e-05
0.000974201
6.19944e-05
0.000971084
6.05126e-05
0.000968156
5.89799e-05
0.000965402
5.74002e-05
0.000962804
5.57773e-05
0.000960345
5.41154e-05
0.000958004
5.24191e-05
0.000955765
5.06931e-05
0.000953612
4.89422e-05
0.000951529
4.71715e-05
0.000949499
4.53869e-05
0.00094751
4.35946e-05
0.000945551
4.18013e-05
0.000943613
4.00141e-05
0.000941692
3.82398e-05
0.000939785
3.64851e-05
0.000937891
3.47561e-05
0.000936012
3.30584e-05
0.00093415
3.13972e-05
0.000932312
2.97771e-05
0.000930503
2.82023e-05
0.000928729
2.66762e-05
0.000926997
2.52016e-05
0.000925314
2.37808e-05
0.000923687
2.24152e-05
0.000922121
2.11059e-05
0.000920623
1.98531e-05
0.000919197
1.86569e-05
0.000917848
1.75166e-05
0.00091658
1.64313e-05
0.000915394
1.53997e-05
0.000914294
1.442e-05
0.000913281
1.34906e-05
0.000912354
1.26091e-05
0.000911514
1.17726e-05
0.00091076
1.09783e-05
0.00091009
1.02237e-05
0.000909503
9.50646e-06
0.000908997
8.8241e-06
0.000908568
8.17362e-06
0.000908215
7.5521e-06
0.000907933
6.95632e-06
0.00090772
6.38345e-06
0.000907572
5.83019e-06
0.000907487
5.29265e-06
0.000907465
4.76626e-06
0.0009075
4.24986e-06
0.00090759
3.74128e-06
3.23585e-06
0.00117957
2.15897e-05
0.00117847
2.46611e-05
0.00117736
2.77454e-05
0.00117621
3.08241e-05
0.001175
3.38895e-05
0.00117373
3.69356e-05
0.0011724
3.99595e-05
0.00117101
4.29577e-05
0.00116954
4.5924e-05
0.00116794
4.88482e-05
0.0011662
5.17181e-05
0.00116428
5.45201e-05
0.00116217
5.72404e-05
0.00115986
5.98658e-05
0.00115731
6.23833e-05
0.00115451
6.47804e-05
0.00115145
6.70453e-05
0.00114812
6.91662e-05
0.0011445
7.11322e-05
0.00114059
7.29331e-05
0.00113638
7.45594e-05
0.00113186
7.60031e-05
0.00112705
7.72574e-05
0.00112195
7.83172e-05
0.00111656
7.91791e-05
0.0011109
7.98417e-05
0.00110498
8.03052e-05
0.00109884
8.05719e-05
0.00109249
8.06455e-05
0.00108597
8.05308e-05
0.00107933
8.02336e-05
0.00107259
7.97614e-05
0.0010658
7.9124e-05
0.00105899
7.83338e-05
0.0010522
7.74022e-05
0.00104546
7.63395e-05
0.00103882
7.51555e-05
0.0010323
7.38595e-05
0.00102594
7.24609e-05
0.00101976
7.09688e-05
0.00101379
6.93918e-05
0.00100805
6.7737e-05
0.00100255
6.60122e-05
0.0009973
6.42257e-05
0.000992315
6.23856e-05
0.000987592
6.05e-05
0.000983131
5.85766e-05
0.000978927
5.6623e-05
0.000974973
5.46467e-05
0.000971261
5.26547e-05
0.000967778
5.06541e-05
0.000964513
4.8652e-05
0.000961453
4.6655e-05
0.000958584
4.46696e-05
0.000955896
4.27021e-05
0.000953378
4.07584e-05
0.000951019
3.8844e-05
0.000948811
3.69639e-05
0.000946747
3.51226e-05
0.00094482
3.33244e-05
0.000943024
3.15728e-05
0.000941355
2.98711e-05
0.000939809
2.82219e-05
0.000938383
2.66276e-05
0.000937074
2.50899e-05
0.00093588
2.36098e-05
0.000934798
2.21882e-05
0.000933825
2.08253e-05
0.000932961
1.95209e-05
0.000932203
1.82746e-05
0.000931549
1.70855e-05
0.000930996
1.59523e-05
0.000930543
1.48738e-05
0.000930185
1.3848e-05
0.000929921
1.2873e-05
0.000929747
1.19465e-05
0.00092966
1.10661e-05
0.000929654
1.02295e-05
0.000929726
9.43416e-06
0.000929873
8.67757e-06
0.000930089
7.95698e-06
0.000930372
7.26945e-06
0.000930716
6.61197e-06
0.000931118
5.98143e-06
0.000931574
5.37477e-06
0.000932078
4.78879e-06
0.000932623
4.22056e-06
0.000933206
3.66732e-06
0.000933821
3.12628e-06
2.5939e-06
0.0010429
2.0457e-05
0.00104448
2.3081e-05
0.00104637
2.58479e-05
0.00104849
2.87053e-05
0.00105079
3.15917e-05
0.00105331
3.44175e-05
0.00105604
3.72282e-05
0.00105896
4.00385e-05
0.00106203
4.28499e-05
0.00106523
4.56553e-05
0.0010685
4.8443e-05
0.00107182
5.11999e-05
0.00107515
5.39124e-05
0.00107845
5.65674e-05
0.00108168
5.91526e-05
0.0010848
6.16561e-05
0.00108778
6.40662e-05
0.00109058
6.6371e-05
0.00109315
6.85587e-05
0.00109547
7.06176e-05
0.00109749
7.25358e-05
0.00109919
7.43022e-05
0.00110054
7.59067e-05
0.00110152
7.73407e-05
0.0011021
7.85969e-05
0.00110227
7.9669e-05
0.00110202
8.05521e-05
0.00110135
8.12426e-05
0.00110026
8.17381e-05
0.00109875
8.20377e-05
0.00109685
8.21423e-05
0.00109455
8.20542e-05
0.0010919
8.17795e-05
0.0010889
8.13304e-05
0.00108559
8.0714e-05
0.00108199
7.99352e-05
0.00107815
7.90012e-05
0.00107409
7.792e-05
0.00106985
7.67e-05
0.00106547
7.53494e-05
0.00106098
7.3877e-05
0.00105643
7.2292e-05
0.00105184
7.0604e-05
0.00104724
6.88232e-05
0.00104266
6.69601e-05
0.00103814
6.50252e-05
0.00103369
6.3029e-05
0.00102933
6.09817e-05
0.00102508
5.88937e-05
0.00102096
5.67748e-05
0.00101698
5.46347e-05
0.00101315
5.24827e-05
0.00100948
5.03276e-05
0.00100597
4.81778e-05
0.00100263
4.60411e-05
0.000999463
4.3925e-05
0.000996471
4.18361e-05
0.000993654
3.97808e-05
0.000991012
3.77646e-05
0.000988544
3.57924e-05
0.000986248
3.38688e-05
0.000984121
3.19975e-05
0.000982161
3.01817e-05
0.000980365
2.8424e-05
0.000978728
2.67266e-05
0.000977247
2.5091e-05
0.000975917
2.35182e-05
0.000974734
2.20087e-05
0.000973692
2.05627e-05
0.000972787
1.91799e-05
0.000972012
1.78596e-05
0.000971364
1.66008e-05
0.000970835
1.54023e-05
0.000970421
1.42623e-05
0.000970115
1.31791e-05
0.000969911
1.21506e-05
0.000969803
1.11745e-05
0.000969784
1.02483e-05
0.000969848
9.36955e-06
0.00096999
8.53548e-06
0.000970204
7.74334e-06
0.000970483
6.99016e-06
0.000970822
6.27297e-06
0.000971215
5.58864e-06
0.000971656
4.93409e-06
0.000972139
4.30615e-06
0.000972657
3.70162e-06
0.000973208
3.11725e-06
0.000973784
2.54969e-06
1.9958e-06
0.000797307
1.68334e-05
0.000801288
1.91e-05
0.000805683
2.1453e-05
0.000810553
2.38347e-05
0.000815921
2.62236e-05
0.000821722
2.86164e-05
0.00082793
3.10205e-05
0.000834526
3.34427e-05
0.000841491
3.58843e-05
0.000848805
3.83413e-05
0.000856442
4.08067e-05
0.00086437
4.32711e-05
0.000872558
4.57252e-05
0.000880966
4.81592e-05
0.000889554
5.0564e-05
0.000898281
5.29301e-05
0.000907099
5.52477e-05
0.000915963
5.75069e-05
0.000924825
5.96972e-05
0.000933635
6.18074e-05
0.000942345
6.38259e-05
0.000950906
6.57407e-05
0.000959273
6.75398e-05
0.000967402
6.92122e-05
0.00097525
7.07482e-05
0.000982781
7.21387e-05
0.000989957
7.33754e-05
0.00099675
7.44503e-05
0.00100313
7.53559e-05
0.00100908
7.6086e-05
0.00101459
7.66401e-05
0.00101962
7.70186e-05
0.00102418
7.72221e-05
0.00102826
7.72529e-05
0.00103186
7.71129e-05
0.00103499
7.68037e-05
0.00103766
7.63279e-05
0.00103989
7.5689e-05
0.0010417
7.48922e-05
0.00104311
7.39433e-05
0.00104413
7.28494e-05
0.00104481
7.16182e-05
0.00104515
7.02582e-05
0.0010452
6.87787e-05
0.00104497
6.71894e-05
0.00104449
6.55005e-05
0.0010438
6.37226e-05
0.00104292
6.18663e-05
0.00104187
5.99427e-05
0.00104068
5.79625e-05
0.00103938
5.59364e-05
0.00103799
5.38749e-05
0.00103652
5.17883e-05
0.00103502
4.96864e-05
0.00103348
4.75787e-05
0.00103193
4.54741e-05
0.00103038
4.33811e-05
0.00102886
4.13073e-05
0.00102736
3.92601e-05
0.00102591
3.7246e-05
0.00102451
3.52708e-05
0.00102316
3.33398e-05
0.00102189
3.14575e-05
0.00102068
2.96278e-05
0.00101956
2.7854e-05
0.00101851
2.61388e-05
0.00101754
2.44842e-05
0.00101666
2.28917e-05
0.00101586
2.13624e-05
0.00101514
1.98967e-05
0.00101451
1.84947e-05
0.00101395
1.7156e-05
0.00101348
1.58797e-05
0.00101307
1.46649e-05
0.00101274
1.351e-05
0.00101248
1.24132e-05
0.00101228
1.13726e-05
0.00101214
1.0386e-05
0.00101206
9.45082e-06
0.00101203
8.56456e-06
0.00101205
7.7245e-06
0.00101212
6.92773e-06
0.00101222
6.17133e-06
0.00101235
5.4522e-06
0.00101252
4.76724e-06
0.00101271
4.11331e-06
0.00101293
3.48711e-06
0.00101316
2.8857e-06
0.0010134
2.30585e-06
1.74502e-06
0.000518991
1.20121e-05
0.00052422
1.38707e-05
0.000529935
1.57382e-05
0.000536181
1.75879e-05
0.000542964
1.94408e-05
0.000550269
2.13116e-05
0.000558084
2.32051e-05
0.000566406
2.51211e-05
0.000575231
2.70591e-05
0.000584555
2.90177e-05
0.000594367
3.0995e-05
0.00060465
3.29875e-05
0.000615385
3.49906e-05
0.000626545
3.6999e-05
0.000638102
3.90071e-05
0.000650023
4.1009e-05
0.000662272
4.29986e-05
0.00067481
4.49694e-05
0.000687593
4.69138e-05
0.000700577
4.8823e-05
0.000713715
5.06877e-05
0.000726959
5.24976e-05
0.000740256
5.42425e-05
0.000753556
5.59124e-05
0.000766806
5.74976e-05
0.000779957
5.89877e-05
0.00079296
6.03725e-05
0.000805767
6.16432e-05
0.000818331
6.27916e-05
0.000830606
6.3811e-05
0.000842551
6.4696e-05
0.000854127
6.54424e-05
0.000865303
6.60463e-05
0.000876052
6.65032e-05
0.000886356
6.68097e-05
0.000896196
6.69633e-05
0.000905561
6.69627e-05
0.000914442
6.6808e-05
0.000922834
6.65006e-05
0.000930734
6.60432e-05
0.000938144
6.54394e-05
0.000945068
6.46941e-05
0.000951514
6.38127e-05
0.00095749
6.28019e-05
0.000963011
6.16689e-05
0.000968089
6.04218e-05
0.000972743
5.90693e-05
0.000976989
5.76205e-05
0.000980846
5.6085e-05
0.000984336
5.44726e-05
0.000987479
5.27934e-05
0.000990297
5.10574e-05
0.00099281
4.92747e-05
0.000995042
4.74552e-05
0.000997012
4.56085e-05
0.000998742
4.37441e-05
0.00100025
4.18709e-05
0.00100156
3.99973e-05
0.00100269
3.81314e-05
0.00100366
3.62805e-05
0.00100448
3.44516e-05
0.00100516
3.26509e-05
0.00100574
3.08839e-05
0.00100621
2.91558e-05
0.00100659
2.74709e-05
0.0010069
2.58329e-05
0.00100714
2.4245e-05
0.00100732
2.27097e-05
0.00100745
2.1229e-05
0.00100755
1.98044e-05
0.0010076
1.84366e-05
0.00100763
1.71262e-05
0.00100764
1.58731e-05
0.00100763
1.46769e-05
0.0010076
1.35367e-05
0.00100756
1.24514e-05
0.00100752
1.14195e-05
0.00100746
1.04392e-05
0.00100741
9.50859e-06
0.00100734
8.62536e-06
0.00100728
7.7872e-06
0.00100722
6.99158e-06
0.00100715
6.23585e-06
0.00100709
5.51733e-06
0.00100702
4.83329e-06
0.00100695
4.18094e-06
0.00100688
3.55742e-06
0.00100681
2.95992e-06
0.00100673
2.38562e-06
1.83197e-06
0.000244962
7.50281e-06
0.000249938
8.89465e-06
0.00025549
1.01865e-05
0.000261603
1.14749e-05
0.000268282
1.27612e-05
0.000275536
1.40574e-05
0.00028338
1.53618e-05
0.000291821
1.66795e-05
0.000300868
1.80123e-05
0.000310523
1.93626e-05
0.000320786
2.07319e-05
0.000331653
2.21211e-05
0.000343113
2.35304e-05
0.000355153
2.49594e-05
0.000367753
2.64069e-05
0.000380891
2.78711e-05
0.000394539
2.93498e-05
0.000408668
3.08405e-05
0.000423243
3.23395e-05
0.000438223
3.38424e-05
0.000453568
3.53431e-05
0.00046923
3.68352e-05
0.000485162
3.83103e-05
0.000501315
3.97602e-05
0.000517634
4.11784e-05
0.000534068
4.25538e-05
0.000550564
4.38759e-05
0.000567068
4.51391e-05
0.000583525
4.63353e-05
0.000599879
4.74566e-05
0.000616079
4.84962e-05
0.000632074
4.94472e-05
0.000647819
5.0301e-05
0.000663274
5.10488e-05
0.0006784
5.16839e-05
0.000693161
5.22015e-05
0.000707527
5.25973e-05
0.000721467
5.28676e-05
0.000734958
5.30103e-05
0.000747976
5.30244e-05
0.000760506
5.291e-05
0.000772532
5.26679e-05
0.000784044
5.23006e-05
0.000795035
5.18114e-05
0.000805499
5.12044e-05
0.000815436
5.04848e-05
0.000824847
4.96584e-05
0.000833736
4.87315e-05
0.00084211
4.77113e-05
0.000849977
4.66053e-05
0.000857349
4.54215e-05
0.000864238
4.41683e-05
0.000870659
4.28541e-05
0.000876626
4.14875e-05
0.000882158
4.00772e-05
0.00088727
3.86315e-05
0.000891982
3.7159e-05
0.000896312
3.56676e-05
0.000900278
3.41652e-05
0.0009039
3.2659e-05
0.000907195
3.11562e-05
0.000910183
2.96631e-05
0.000912881
2.81858e-05
0.000915307
2.67296e-05
0.000917479
2.52995e-05
0.000919412
2.38998e-05
0.000921123
2.25341e-05
0.000922627
2.12056e-05
0.000923939
1.9917e-05
0.000925073
1.86701e-05
0.000926043
1.74666e-05
0.000926862
1.63074e-05
0.000927542
1.51931e-05
0.000928095
1.41237e-05
0.000928533
1.3099e-05
0.000928866
1.21182e-05
0.000929105
1.11804e-05
0.00092926
1.02845e-05
0.00092934
9.42882e-06
0.000929353
8.61176e-06
0.000929309
7.83161e-06
0.000929214
7.08636e-06
0.000929076
6.37391e-06
0.000928901
5.6923e-06
0.000928695
5.03943e-06
0.000928463
4.41314e-06
0.000928209
3.81095e-06
0.000927938
3.23091e-06
0.000927653
2.67126e-06
2.1296e-06
-2.73347e-05
4.74445e-06
-2.3666e-05
5.22596e-06
-1.93722e-05
5.89271e-06
-1.43362e-05
6.43893e-06
-8.6378e-06
7.06284e-06
-2.21417e-06
7.63374e-06
4.92143e-06
8.22616e-06
1.2803e-05
8.79783e-06
2.14286e-05
9.38677e-06
3.08119e-05
9.97926e-06
4.09476e-05
1.05963e-05
5.18329e-05
1.12358e-05
6.34562e-05
1.19071e-05
7.58026e-05
1.26129e-05
8.88521e-05
1.33574e-05
0.00010258
1.41433e-05
0.000116959
1.49712e-05
0.000131957
1.58417e-05
0.000147543
1.67542e-05
0.000163677
1.77076e-05
0.000180321
1.86993e-05
0.00019743
1.97266e-05
0.000214956
2.07845e-05
0.000232848
2.18676e-05
0.000251054
2.29721e-05
0.000269521
2.40874e-05
0.000288201
2.51957e-05
0.000307032
2.6308e-05
0.000325959
2.74081e-05
0.000344927
2.8489e-05
0.000363878
2.95448e-05
0.000382755
3.05707e-05
0.0004015
3.15557e-05
0.000420064
3.24846e-05
0.000438399
3.33491e-05
0.000456459
3.41413e-05
0.000474203
3.48535e-05
0.00049159
3.54802e-05
0.000508584
3.60166e-05
0.000525151
3.64579e-05
0.000541261
3.67996e-05
0.000556889
3.70401e-05
0.00057201
3.71795e-05
0.000586603
3.72183e-05
0.00060065
3.71575e-05
0.000614136
3.69989e-05
0.000627049
3.67451e-05
0.000639381
3.63993e-05
0.000651127
3.59656e-05
0.000662283
3.54488e-05
0.000672851
3.48543e-05
0.000682831
3.41877e-05
0.00069223
3.34553e-05
0.000701054
3.26636e-05
0.000709312
3.1819e-05
0.000717015
3.09283e-05
0.000724176
2.99979e-05
0.00073081
2.90345e-05
0.000736931
2.80442e-05
0.000742556
2.70335e-05
0.000747704
2.60083e-05
0.000752393
2.49742e-05
0.000756642
2.39364e-05
0.000760472
2.28997e-05
0.000763903
2.18683e-05
0.000766957
2.08461e-05
0.000769655
1.98364e-05
0.000772018
1.88421e-05
0.00077407
1.78656e-05
0.000775831
1.69087e-05
0.000777325
1.59731e-05
0.000778572
1.50598e-05
0.000779596
1.41695e-05
0.000780417
1.33026e-05
0.000781057
1.24592e-05
0.000781536
1.16391e-05
0.000781874
1.08421e-05
0.000782091
1.00678e-05
0.000782204
9.31544e-06
0.000782232
8.58426e-06
0.000782189
7.87383e-06
0.000782092
7.18338e-06
0.000781954
6.5121e-06
0.000781787
5.85968e-06
0.0007816
5.22582e-06
0.000781404
4.61004e-06
0.000781203
4.01143e-06
0.000781005
3.42878e-06
0.000780815
2.86151e-06
2.30907e-06
-0.000290991
3.66175e-06
-0.0002891
3.33414e-06
-0.000286414
3.20724e-06
-0.000282856
2.88098e-06
-0.000278438
2.64467e-06
-0.00027313
2.3262e-06
-0.000266946
2.04215e-06
-0.000259879
1.73006e-06
-0.000251938
1.44583e-06
-0.000243126
1.16748e-06
-0.000233455
9.24959e-07
-0.000222934
7.14666e-07
-0.000211578
5.51612e-07
-0.000199405
4.39849e-07
-0.000186435
3.87213e-07
-0.00017269
3.98084e-07
-0.000158197
4.78237e-07
-0.000142987
6.32217e-07
-0.000127096
8.63225e-07
-0.000110562
1.17345e-06
-9.34259e-05
1.56317e-06
-7.5731e-05
2.03168e-06
-5.75234e-05
2.57698e-06
-3.88527e-05
3.19692e-06
-1.97686e-05
3.88798e-06
-3.25125e-07
4.64387e-06
1.94054e-05
5.46516e-06
3.93814e-05
6.33206e-06
5.95446e-05
7.24488e-06
7.98383e-05
8.19528e-06
0.000100207
9.17593e-06
0.000120598
1.01793e-05
0.000140956
1.1198e-05
0.000161216
1.22244e-05
0.000181309
1.32565e-05
0.000201173
1.42771e-05
0.000220766
1.52603e-05
0.000240044
1.62025e-05
0.000258962
1.70985e-05
0.000277479
1.79407e-05
0.000295562
1.87174e-05
0.000313176
1.94259e-05
0.000330289
2.00659e-05
0.000346873
2.06352e-05
0.000362899
2.11315e-05
0.000378345
2.15528e-05
0.000393192
2.18981e-05
0.000407424
2.21671e-05
0.000421029
2.23603e-05
0.000433999
2.24789e-05
0.000446328
2.25248e-05
0.000458015
2.25007e-05
0.000469061
2.24094e-05
0.000479471
2.22543e-05
0.000489251
2.20391e-05
0.000498411
2.17674e-05
0.000506967
2.14428e-05
0.000514932
2.10692e-05
0.000522325
2.06506e-05
0.000529168
2.01909e-05
0.000535482
1.96942e-05
0.000541292
1.91643e-05
0.000546624
1.86048e-05
0.000551504
1.80192e-05
0.000555962
1.74107e-05
0.000560025