/*--------------------------------*- C++ -*----------------------------------*\
| =========                 |                                                 |
| \\      /  F ield         | OpenFOAM: The Open Source CFD Toolbox           |
|  \\    /   O peration     | Version:  2312                                  |
|   \\  /    A nd           | Website:  www.openfoam.com                      |
|    \\/     M anipulation  |                                                 |
\*---------------------------------------------------------------------------*/
FoamFile
{
    version     2.0;
    format      ascii;
    arch        "LSB;label=32;scalar=64";
    class       volScalarField;
    location    "128000";
    object      p;
}
// * * * * * * * * * * * * * * * * * * * * * * * * * * * * * * * * * * * * * //

dimensions      [0 2 -2 0 0 0 0];

internalField   nonuniform List<scalar> 
10800
(
5.37436e-07
5.23314e-07
5.09549e-07
4.98974e-07
4.91554e-07
4.86167e-07
4.81721e-07
4.77647e-07
4.73778e-07
4.7012e-07
4.66711e-07
4.63555e-07
4.60618e-07
4.57851e-07
4.55206e-07
4.52651e-07
4.50164e-07
4.47732e-07
4.45344e-07
4.42991e-07
4.40665e-07
4.38358e-07
4.36064e-07
4.33777e-07
4.31492e-07
4.29206e-07
4.26916e-07
4.24619e-07
4.22314e-07
4.19998e-07
4.17671e-07
4.15332e-07
4.1298e-07
4.10615e-07
4.08236e-07
4.05844e-07
4.0344e-07
4.01023e-07
3.98594e-07
3.96153e-07
3.93701e-07
3.91239e-07
3.88767e-07
3.86284e-07
3.83791e-07
3.81287e-07
3.78772e-07
3.76242e-07
3.73703e-07
3.71137e-07
3.68567e-07
3.65942e-07
3.63342e-07
3.60597e-07
3.58005e-07
3.54935e-07
3.52635e-07
3.48296e-07
3.48055e-07
3.37513e-07
4.89388e-07
4.87661e-07
4.85017e-07
4.81894e-07
4.7868e-07
4.75589e-07
4.7267e-07
4.69888e-07
4.67192e-07
4.64552e-07
4.61961e-07
4.59425e-07
4.56952e-07
4.54539e-07
4.52183e-07
4.49872e-07
4.47598e-07
4.45353e-07
4.43131e-07
4.40927e-07
4.38736e-07
4.36556e-07
4.34382e-07
4.32211e-07
4.3004e-07
4.27866e-07
4.25687e-07
4.23501e-07
4.21307e-07
4.19103e-07
4.16888e-07
4.14662e-07
4.12425e-07
4.10175e-07
4.07913e-07
4.05638e-07
4.03352e-07
4.01052e-07
3.98743e-07
3.96418e-07
3.94087e-07
3.91738e-07
3.89388e-07
3.87013e-07
3.84646e-07
3.82245e-07
3.79865e-07
3.77434e-07
3.75049e-07
3.72584e-07
3.70215e-07
3.67718e-07
3.65419e-07
3.6291e-07
3.60816e-07
3.58364e-07
3.56811e-07
3.54494e-07
3.54092e-07
3.51497e-07
4.80634e-07
4.79884e-07
4.78472e-07
4.76522e-07
4.7424e-07
4.71823e-07
4.69396e-07
4.67011e-07
4.6467e-07
4.6236e-07
4.60073e-07
4.57808e-07
4.5557e-07
4.53364e-07
4.51192e-07
4.49052e-07
4.46941e-07
4.44852e-07
4.42782e-07
4.40726e-07
4.38681e-07
4.36645e-07
4.34615e-07
4.32588e-07
4.30563e-07
4.28536e-07
4.26507e-07
4.24473e-07
4.22434e-07
4.20388e-07
4.18335e-07
4.16273e-07
4.14203e-07
4.12123e-07
4.10034e-07
4.07934e-07
4.05827e-07
4.03706e-07
4.0158e-07
3.99439e-07
3.97294e-07
3.95133e-07
3.9297e-07
3.90788e-07
3.8861e-07
3.86407e-07
3.84217e-07
3.81993e-07
3.79797e-07
3.77556e-07
3.75367e-07
3.73115e-07
3.70955e-07
3.68702e-07
3.66609e-07
3.64372e-07
3.62399e-07
3.60183e-07
3.58371e-07
3.56079e-07
4.68885e-07
4.68453e-07
4.67667e-07
4.66579e-07
4.65256e-07
4.6377e-07
4.62179e-07
4.60522e-07
4.58819e-07
4.57081e-07
4.55316e-07
4.53527e-07
4.51723e-07
4.49908e-07
4.48088e-07
4.46265e-07
4.44442e-07
4.42618e-07
4.40793e-07
4.38967e-07
4.3714e-07
4.35309e-07
4.33476e-07
4.31639e-07
4.29799e-07
4.27953e-07
4.26102e-07
4.24245e-07
4.22382e-07
4.20512e-07
4.18635e-07
4.16752e-07
4.14861e-07
4.12963e-07
4.11058e-07
4.09145e-07
4.07226e-07
4.05299e-07
4.03366e-07
4.01424e-07
3.99477e-07
3.9752e-07
3.95559e-07
3.93586e-07
3.91608e-07
3.89616e-07
3.8762e-07
3.85605e-07
3.83585e-07
3.81539e-07
3.79489e-07
3.77404e-07
3.75318e-07
3.73185e-07
3.71056e-07
3.68866e-07
3.66687e-07
3.64429e-07
3.62199e-07
3.59891e-07
4.62163e-07
4.6195e-07
4.6152e-07
4.60875e-07
4.60033e-07
4.59022e-07
4.57874e-07
4.56621e-07
4.55286e-07
4.53886e-07
4.52435e-07
4.5094e-07
4.4941e-07
4.47851e-07
4.46268e-07
4.44666e-07
4.4305e-07
4.41421e-07
4.39783e-07
4.38135e-07
4.3648e-07
4.34817e-07
4.33148e-07
4.31473e-07
4.29792e-07
4.28105e-07
4.26414e-07
4.24718e-07
4.23016e-07
4.21311e-07
4.19601e-07
4.17886e-07
4.16169e-07
4.14447e-07
4.12722e-07
4.10994e-07
4.09263e-07
4.07529e-07
4.05792e-07
4.04053e-07
4.02311e-07
4.00566e-07
3.98818e-07
3.97067e-07
3.95311e-07
3.9355e-07
3.91784e-07
3.90009e-07
3.88226e-07
3.8643e-07
3.84617e-07
3.82782e-07
3.80913e-07
3.79002e-07
3.77029e-07
3.74985e-07
3.72852e-07
3.70641e-07
3.68357e-07
3.66091e-07
4.5662e-07
4.56459e-07
4.56135e-07
4.55652e-07
4.55021e-07
4.54257e-07
4.53379e-07
4.52404e-07
4.51349e-07
4.50225e-07
4.49044e-07
4.47812e-07
4.46536e-07
4.45221e-07
4.43875e-07
4.42499e-07
4.411e-07
4.3968e-07
4.38242e-07
4.36789e-07
4.35322e-07
4.33842e-07
4.32352e-07
4.30853e-07
4.29345e-07
4.2783e-07
4.26308e-07
4.24781e-07
4.2325e-07
4.21714e-07
4.20175e-07
4.18633e-07
4.1709e-07
4.15545e-07
4.14e-07
4.12454e-07
4.10908e-07
4.09363e-07
4.07819e-07
4.06277e-07
4.04735e-07
4.03194e-07
4.01653e-07
4.00113e-07
3.9857e-07
3.97025e-07
3.95474e-07
3.93916e-07
3.92345e-07
3.90761e-07
3.89157e-07
3.87536e-07
3.85888e-07
3.84219e-07
3.8251e-07
3.80763e-07
3.78947e-07
3.77081e-07
3.75158e-07
3.733e-07
4.52247e-07
4.52129e-07
4.51892e-07
4.51537e-07
4.51068e-07
4.50493e-07
4.49819e-07
4.49057e-07
4.48218e-07
4.4731e-07
4.46342e-07
4.4532e-07
4.44249e-07
4.43136e-07
4.41984e-07
4.40799e-07
4.39584e-07
4.38343e-07
4.37079e-07
4.35795e-07
4.34494e-07
4.33177e-07
4.31846e-07
4.30504e-07
4.29153e-07
4.27793e-07
4.26427e-07
4.25055e-07
4.23679e-07
4.22301e-07
4.20921e-07
4.1954e-07
4.18161e-07
4.16782e-07
4.15407e-07
4.14035e-07
4.12668e-07
4.11306e-07
4.0995e-07
4.08601e-07
4.07258e-07
4.05923e-07
4.04595e-07
4.03275e-07
4.01961e-07
4.00655e-07
3.99354e-07
3.9806e-07
3.96767e-07
3.95474e-07
3.94173e-07
3.92861e-07
3.91523e-07
3.90162e-07
3.88765e-07
3.87346e-07
3.85885e-07
3.84407e-07
3.8291e-07
3.81504e-07
4.48766e-07
4.48674e-07
4.48489e-07
4.48212e-07
4.47842e-07
4.47384e-07
4.46844e-07
4.46226e-07
4.45539e-07
4.44786e-07
4.43976e-07
4.43111e-07
4.42199e-07
4.41243e-07
4.40248e-07
4.39218e-07
4.38156e-07
4.37067e-07
4.35953e-07
4.34818e-07
4.33663e-07
4.32492e-07
4.31307e-07
4.3011e-07
4.28902e-07
4.27687e-07
4.26465e-07
4.25239e-07
4.2401e-07
4.2278e-07
4.2155e-07
4.20323e-07
4.19099e-07
4.1788e-07
4.16667e-07
4.15462e-07
4.14266e-07
4.13081e-07
4.11907e-07
4.10745e-07
4.09597e-07
4.08463e-07
4.07344e-07
4.06241e-07
4.05152e-07
4.0408e-07
4.03021e-07
4.01977e-07
4.00946e-07
3.9993e-07
3.98924e-07
3.97932e-07
3.9694e-07
3.95951e-07
3.94949e-07
3.93947e-07
3.92931e-07
3.9193e-07
3.90952e-07
3.90097e-07
4.4597e-07
4.45895e-07
4.45744e-07
4.45516e-07
4.45213e-07
4.44836e-07
4.44388e-07
4.43873e-07
4.43296e-07
4.42661e-07
4.41972e-07
4.41233e-07
4.40448e-07
4.39622e-07
4.38757e-07
4.37858e-07
4.36927e-07
4.35969e-07
4.34986e-07
4.33981e-07
4.32956e-07
4.31915e-07
4.30859e-07
4.29792e-07
4.28714e-07
4.2763e-07
4.2654e-07
4.25447e-07
4.24352e-07
4.23258e-07
4.22168e-07
4.21081e-07
4.20002e-07
4.18931e-07
4.1787e-07
4.16822e-07
4.15787e-07
4.14769e-07
4.13767e-07
4.12786e-07
4.11825e-07
4.10886e-07
4.09972e-07
4.09083e-07
4.08221e-07
4.07387e-07
4.06582e-07
4.05808e-07
4.05063e-07
4.04348e-07
4.03658e-07
4.02997e-07
4.02362e-07
4.01757e-07
4.01175e-07
4.00626e-07
4.00101e-07
3.99622e-07
3.99201e-07
3.98924e-07
4.43733e-07
4.4367e-07
4.43543e-07
4.43351e-07
4.43094e-07
4.42774e-07
4.42393e-07
4.41954e-07
4.4146e-07
4.40913e-07
4.40318e-07
4.39676e-07
4.38993e-07
4.38269e-07
4.3751e-07
4.36718e-07
4.35895e-07
4.35046e-07
4.34172e-07
4.33276e-07
4.32362e-07
4.31431e-07
4.30487e-07
4.29531e-07
4.28567e-07
4.27596e-07
4.26621e-07
4.25645e-07
4.24669e-07
4.23696e-07
4.22729e-07
4.21769e-07
4.20819e-07
4.19881e-07
4.18957e-07
4.18051e-07
4.17163e-07
4.16297e-07
4.15455e-07
4.14639e-07
4.13852e-07
4.13096e-07
4.12373e-07
4.11686e-07
4.11037e-07
4.10428e-07
4.09863e-07
4.09343e-07
4.0887e-07
4.08446e-07
4.0807e-07
4.07747e-07
4.07478e-07
4.07268e-07
4.07115e-07
4.07027e-07
4.07002e-07
4.07061e-07
4.07217e-07
4.07541e-07
4.41969e-07
4.41914e-07
4.41803e-07
4.41637e-07
4.41414e-07
4.41136e-07
4.40804e-07
4.4042e-07
4.39987e-07
4.39507e-07
4.38983e-07
4.38417e-07
4.37811e-07
4.37169e-07
4.36492e-07
4.35785e-07
4.35048e-07
4.34286e-07
4.33501e-07
4.32696e-07
4.31872e-07
4.31033e-07
4.30182e-07
4.2932e-07
4.28451e-07
4.27577e-07
4.267e-07
4.25824e-07
4.2495e-07
4.24081e-07
4.2322e-07
4.22369e-07
4.21532e-07
4.2071e-07
4.19907e-07
4.19125e-07
4.18367e-07
4.17636e-07
4.16936e-07
4.16269e-07
4.15637e-07
4.15046e-07
4.14497e-07
4.13995e-07
4.13542e-07
4.13143e-07
4.12801e-07
4.12519e-07
4.123e-07
4.12149e-07
4.1207e-07
4.12069e-07
4.12149e-07
4.12316e-07
4.12574e-07
4.12931e-07
4.1339e-07
4.13971e-07
4.14688e-07
4.15598e-07
4.40613e-07
4.40564e-07
4.40466e-07
4.40317e-07
4.40119e-07
4.3987e-07
4.39574e-07
4.39231e-07
4.38843e-07
4.38412e-07
4.37941e-07
4.3743e-07
4.36883e-07
4.36302e-07
4.35689e-07
4.35047e-07
4.34378e-07
4.33684e-07
4.32969e-07
4.32234e-07
4.31483e-07
4.30717e-07
4.2994e-07
4.29154e-07
4.28361e-07
4.27565e-07
4.26768e-07
4.25973e-07
4.25182e-07
4.24399e-07
4.23625e-07
4.22865e-07
4.22121e-07
4.21396e-07
4.20692e-07
4.20015e-07
4.19366e-07
4.18749e-07
4.18168e-07
4.17626e-07
4.17127e-07
4.16675e-07
4.16275e-07
4.1593e-07
4.15646e-07
4.15426e-07
4.15276e-07
4.152e-07
4.15206e-07
4.15297e-07
4.15481e-07
4.15765e-07
4.16155e-07
4.1666e-07
4.17285e-07
4.18043e-07
4.18941e-07
4.19996e-07
4.21226e-07
4.22673e-07
4.39622e-07
4.39577e-07
4.39487e-07
4.39351e-07
4.39169e-07
4.38942e-07
4.3867e-07
4.38355e-07
4.37999e-07
4.37603e-07
4.37168e-07
4.36698e-07
4.36193e-07
4.35656e-07
4.35089e-07
4.34494e-07
4.33874e-07
4.3323e-07
4.32566e-07
4.31884e-07
4.31186e-07
4.30475e-07
4.29753e-07
4.29024e-07
4.28289e-07
4.27552e-07
4.26815e-07
4.26082e-07
4.25354e-07
4.24636e-07
4.23929e-07
4.23238e-07
4.22565e-07
4.21914e-07
4.21288e-07
4.2069e-07
4.20126e-07
4.19597e-07
4.19108e-07
4.18664e-07
4.18269e-07
4.17928e-07
4.17644e-07
4.17424e-07
4.17273e-07
4.17196e-07
4.17199e-07
4.1729e-07
4.17474e-07
4.17761e-07
4.18158e-07
4.18673e-07
4.19316e-07
4.20095e-07
4.21023e-07
4.2211e-07
4.2337e-07
4.24819e-07
4.26476e-07
4.28369e-07
4.38964e-07
4.38922e-07
4.38837e-07
4.38709e-07
4.38537e-07
4.38323e-07
4.38067e-07
4.3777e-07
4.37433e-07
4.37059e-07
4.36649e-07
4.36204e-07
4.35726e-07
4.35217e-07
4.3468e-07
4.34116e-07
4.33527e-07
4.32916e-07
4.32286e-07
4.31638e-07
4.30975e-07
4.303e-07
4.29615e-07
4.28923e-07
4.28227e-07
4.27529e-07
4.26832e-07
4.26139e-07
4.25454e-07
4.24779e-07
4.24117e-07
4.23472e-07
4.22847e-07
4.22246e-07
4.21671e-07
4.21128e-07
4.2062e-07
4.20151e-07
4.19725e-07
4.19348e-07
4.19023e-07
4.18757e-07
4.18553e-07
4.18419e-07
4.18359e-07
4.18381e-07
4.18491e-07
4.18696e-07
4.19004e-07
4.19426e-07
4.19971e-07
4.20648e-07
4.21468e-07
4.22441e-07
4.23582e-07
4.24903e-07
4.2642e-07
4.28149e-07
4.3011e-07
4.32323e-07
4.38619e-07
4.38578e-07
4.38496e-07
4.38372e-07
4.38205e-07
4.37997e-07
4.37748e-07
4.3746e-07
4.37133e-07
4.36769e-07
4.3637e-07
4.35937e-07
4.35473e-07
4.34978e-07
4.34454e-07
4.33905e-07
4.33332e-07
4.32737e-07
4.32122e-07
4.31491e-07
4.30845e-07
4.30187e-07
4.2952e-07
4.28846e-07
4.28168e-07
4.27489e-07
4.26812e-07
4.26139e-07
4.25474e-07
4.2482e-07
4.24179e-07
4.23557e-07
4.22955e-07
4.22377e-07
4.21828e-07
4.21311e-07
4.2083e-07
4.2039e-07
4.19995e-07
4.19649e-07
4.19359e-07
4.19128e-07
4.18964e-07
4.18871e-07
4.18857e-07
4.18927e-07
4.1909e-07
4.19354e-07
4.19726e-07
4.20216e-07
4.20834e-07
4.2159e-07
4.22498e-07
4.23569e-07
4.24817e-07
4.26256e-07
4.27904e-07
4.29775e-07
4.31892e-07
4.34268e-07
4.3858e-07
4.38539e-07
4.38456e-07
4.38332e-07
4.38165e-07
4.37957e-07
4.37708e-07
4.37419e-07
4.37091e-07
4.36727e-07
4.36328e-07
4.35894e-07
4.35429e-07
4.34933e-07
4.34409e-07
4.33859e-07
4.33285e-07
4.32689e-07
4.32073e-07
4.31441e-07
4.30794e-07
4.30135e-07
4.29466e-07
4.28791e-07
4.28111e-07
4.2743e-07
4.26751e-07
4.26077e-07
4.2541e-07
4.24754e-07
4.24111e-07
4.23486e-07
4.22882e-07
4.22303e-07
4.21751e-07
4.21231e-07
4.20748e-07
4.20305e-07
4.19907e-07
4.19558e-07
4.19263e-07
4.19029e-07
4.1886e-07
4.18763e-07
4.18744e-07
4.18809e-07
4.18968e-07
4.19226e-07
4.19593e-07
4.20077e-07
4.2069e-07
4.2144e-07
4.22342e-07
4.23406e-07
4.24647e-07
4.26079e-07
4.27719e-07
4.29582e-07
4.3169e-07
4.34059e-07
4.38845e-07
4.38802e-07
4.38717e-07
4.38589e-07
4.38417e-07
4.38202e-07
4.37944e-07
4.37646e-07
4.37309e-07
4.36933e-07
4.36521e-07
4.36074e-07
4.35594e-07
4.35083e-07
4.34544e-07
4.33977e-07
4.33386e-07
4.32772e-07
4.32139e-07
4.31487e-07
4.30821e-07
4.30142e-07
4.29453e-07
4.28757e-07
4.28056e-07
4.27353e-07
4.26651e-07
4.25953e-07
4.25262e-07
4.24581e-07
4.23913e-07
4.23262e-07
4.2263e-07
4.22021e-07
4.21439e-07
4.20888e-07
4.20371e-07
4.19894e-07
4.19459e-07
4.19072e-07
4.18737e-07
4.1846e-07
4.18244e-07
4.18096e-07
4.18023e-07
4.1803e-07
4.18126e-07
4.18318e-07
4.18613e-07
4.19019e-07
4.19547e-07
4.20205e-07
4.21006e-07
4.21959e-07
4.23078e-07
4.24377e-07
4.2587e-07
4.27574e-07
4.2951e-07
4.31698e-07
4.39425e-07
4.3938e-07
4.39289e-07
4.39152e-07
4.38969e-07
4.38741e-07
4.38467e-07
4.38151e-07
4.37792e-07
4.37394e-07
4.36957e-07
4.36483e-07
4.35975e-07
4.35434e-07
4.34863e-07
4.34264e-07
4.3364e-07
4.32991e-07
4.32322e-07
4.31634e-07
4.3093e-07
4.30213e-07
4.29485e-07
4.28748e-07
4.28006e-07
4.27261e-07
4.26516e-07
4.25774e-07
4.25037e-07
4.24308e-07
4.23592e-07
4.22889e-07
4.22205e-07
4.21542e-07
4.20903e-07
4.20293e-07
4.19714e-07
4.1917e-07
4.18667e-07
4.18207e-07
4.17795e-07
4.17435e-07
4.17134e-07
4.16893e-07
4.1672e-07
4.1662e-07
4.166e-07
4.16666e-07
4.16826e-07
4.17086e-07
4.17455e-07
4.1794e-07
4.18551e-07
4.19298e-07
4.20191e-07
4.21241e-07
4.22463e-07
4.23871e-07
4.25486e-07
4.27337e-07
4.4034e-07
4.4029e-07
4.40191e-07
4.40042e-07
4.39842e-07
4.39592e-07
4.39293e-07
4.38947e-07
4.38557e-07
4.38122e-07
4.37647e-07
4.37133e-07
4.36581e-07
4.35995e-07
4.35377e-07
4.34729e-07
4.34053e-07
4.33353e-07
4.3263e-07
4.31888e-07
4.31128e-07
4.30354e-07
4.29568e-07
4.28772e-07
4.27969e-07
4.27162e-07
4.26353e-07
4.25546e-07
4.24742e-07
4.23945e-07
4.23157e-07
4.22382e-07
4.21622e-07
4.2088e-07
4.20159e-07
4.19463e-07
4.18795e-07
4.18158e-07
4.17555e-07
4.16991e-07
4.16469e-07
4.15993e-07
4.15567e-07
4.15196e-07
4.14883e-07
4.14632e-07
4.14449e-07
4.14339e-07
4.14309e-07
4.14363e-07
4.14509e-07
4.14753e-07
4.151e-07
4.15559e-07
4.16137e-07
4.16844e-07
4.17689e-07
4.18689e-07
4.19862e-07
4.21251e-07
4.41621e-07
4.41566e-07
4.41455e-07
4.41287e-07
4.41062e-07
4.40782e-07
4.40447e-07
4.4006e-07
4.39624e-07
4.39139e-07
4.3861e-07
4.38039e-07
4.37427e-07
4.36779e-07
4.36096e-07
4.35381e-07
4.34636e-07
4.33866e-07
4.33072e-07
4.32256e-07
4.31422e-07
4.30573e-07
4.29709e-07
4.28835e-07
4.27953e-07
4.27065e-07
4.26173e-07
4.25281e-07
4.24391e-07
4.23505e-07
4.22626e-07
4.21756e-07
4.20898e-07
4.20056e-07
4.1923e-07
4.18425e-07
4.17643e-07
4.16887e-07
4.16159e-07
4.15464e-07
4.14803e-07
4.14181e-07
4.136e-07
4.13064e-07
4.12576e-07
4.12139e-07
4.11756e-07
4.1143e-07
4.11165e-07
4.10968e-07
4.10841e-07
4.10789e-07
4.10816e-07
4.10927e-07
4.11124e-07
4.11418e-07
4.11812e-07
4.12323e-07
4.12969e-07
4.13808e-07
4.43316e-07
4.43252e-07
4.43123e-07
4.4293e-07
4.42671e-07
4.42348e-07
4.41964e-07
4.41521e-07
4.41022e-07
4.40471e-07
4.39869e-07
4.39222e-07
4.38531e-07
4.378e-07
4.37033e-07
4.36232e-07
4.354e-07
4.3454e-07
4.33655e-07
4.32747e-07
4.3182e-07
4.30877e-07
4.29918e-07
4.28948e-07
4.27967e-07
4.2698e-07
4.25988e-07
4.24993e-07
4.23997e-07
4.23004e-07
4.22014e-07
4.21032e-07
4.20057e-07
4.19094e-07
4.18144e-07
4.1721e-07
4.16293e-07
4.15396e-07
4.14522e-07
4.13672e-07
4.1285e-07
4.12057e-07
4.11295e-07
4.10567e-07
4.09876e-07
4.09224e-07
4.08612e-07
4.08042e-07
4.07514e-07
4.07032e-07
4.06598e-07
4.06215e-07
4.05883e-07
4.05607e-07
4.05383e-07
4.05221e-07
4.05118e-07
4.05096e-07
4.05167e-07
4.05407e-07
4.45486e-07
4.4541e-07
4.45258e-07
4.45028e-07
4.44722e-07
4.44342e-07
4.4389e-07
4.43371e-07
4.42789e-07
4.42148e-07
4.41452e-07
4.40706e-07
4.39913e-07
4.39078e-07
4.38203e-07
4.37294e-07
4.36352e-07
4.35382e-07
4.34386e-07
4.33367e-07
4.32328e-07
4.31272e-07
4.302e-07
4.29115e-07
4.28019e-07
4.26915e-07
4.25805e-07
4.2469e-07
4.23573e-07
4.22455e-07
4.21339e-07
4.20227e-07
4.1912e-07
4.1802e-07
4.16928e-07
4.15848e-07
4.1478e-07
4.13726e-07
4.12688e-07
4.11667e-07
4.10666e-07
4.09685e-07
4.08726e-07
4.07791e-07
4.06881e-07
4.05997e-07
4.05139e-07
4.04308e-07
4.03501e-07
4.02719e-07
4.0196e-07
4.01229e-07
4.00522e-07
3.99842e-07
3.99181e-07
3.98548e-07
3.97934e-07
3.97364e-07
3.96848e-07
3.96476e-07
4.4822e-07
4.48127e-07
4.47941e-07
4.47661e-07
4.47289e-07
4.46827e-07
4.46282e-07
4.4566e-07
4.44966e-07
4.44207e-07
4.43389e-07
4.42516e-07
4.41595e-07
4.40629e-07
4.39623e-07
4.38581e-07
4.37507e-07
4.36404e-07
4.35276e-07
4.34125e-07
4.32954e-07
4.31766e-07
4.30562e-07
4.29345e-07
4.28117e-07
4.2688e-07
4.25635e-07
4.24385e-07
4.2313e-07
4.21873e-07
4.20616e-07
4.19358e-07
4.18103e-07
4.16852e-07
4.15605e-07
4.14364e-07
4.1313e-07
4.11905e-07
4.1069e-07
4.09485e-07
4.08291e-07
4.0711e-07
4.0594e-07
4.04784e-07
4.0364e-07
4.02509e-07
4.01389e-07
4.00283e-07
3.99187e-07
3.98105e-07
3.9703e-07
3.95961e-07
3.94886e-07
3.93808e-07
3.92716e-07
3.91621e-07
3.90509e-07
3.89408e-07
3.88325e-07
3.87366e-07
4.51644e-07
4.51525e-07
4.51287e-07
4.5093e-07
4.50458e-07
4.49878e-07
4.49199e-07
4.48432e-07
4.47586e-07
4.46671e-07
4.45694e-07
4.44663e-07
4.43582e-07
4.42458e-07
4.41294e-07
4.40096e-07
4.38867e-07
4.37611e-07
4.36331e-07
4.3503e-07
4.3371e-07
4.32374e-07
4.31023e-07
4.29659e-07
4.28285e-07
4.26901e-07
4.2551e-07
4.24111e-07
4.22707e-07
4.213e-07
4.19889e-07
4.18476e-07
4.17062e-07
4.15648e-07
4.14235e-07
4.12824e-07
4.11416e-07
4.10011e-07
4.08609e-07
4.07213e-07
4.0582e-07
4.04433e-07
4.03051e-07
4.01675e-07
4.00302e-07
3.98935e-07
3.97571e-07
3.96209e-07
3.94845e-07
3.93476e-07
3.92091e-07
3.90689e-07
3.89259e-07
3.87805e-07
3.86315e-07
3.84799e-07
3.83236e-07
3.81649e-07
3.80039e-07
3.78519e-07
4.55966e-07
4.55804e-07
4.55478e-07
4.54992e-07
4.54357e-07
4.53589e-07
4.52705e-07
4.51724e-07
4.50662e-07
4.4953e-07
4.48339e-07
4.47097e-07
4.45809e-07
4.44483e-07
4.43123e-07
4.41733e-07
4.40319e-07
4.38882e-07
4.37427e-07
4.35955e-07
4.34468e-07
4.32967e-07
4.31455e-07
4.29932e-07
4.28399e-07
4.26858e-07
4.25309e-07
4.23754e-07
4.22192e-07
4.20624e-07
4.19052e-07
4.17475e-07
4.15895e-07
4.14311e-07
4.12726e-07
4.11137e-07
4.09547e-07
4.07956e-07
4.06363e-07
4.0477e-07
4.03174e-07
4.01577e-07
3.99978e-07
3.98376e-07
3.96768e-07
3.95155e-07
3.93532e-07
3.91898e-07
3.90248e-07
3.88583e-07
3.86896e-07
3.85191e-07
3.83457e-07
3.81699e-07
3.79891e-07
3.78038e-07
3.76105e-07
3.74118e-07
3.72071e-07
3.70092e-07
4.61466e-07
4.61252e-07
4.6082e-07
4.60173e-07
4.59327e-07
4.58311e-07
4.57157e-07
4.55896e-07
4.54553e-07
4.53145e-07
4.51683e-07
4.50177e-07
4.48635e-07
4.47062e-07
4.45464e-07
4.43847e-07
4.42214e-07
4.40568e-07
4.3891e-07
4.37242e-07
4.35565e-07
4.3388e-07
4.32187e-07
4.30487e-07
4.28779e-07
4.27065e-07
4.25344e-07
4.23617e-07
4.21884e-07
4.20144e-07
4.18399e-07
4.16647e-07
4.14891e-07
4.13128e-07
4.1136e-07
4.09587e-07
4.0781e-07
4.06027e-07
4.04239e-07
4.02446e-07
4.00648e-07
3.98845e-07
3.97036e-07
3.9522e-07
3.93398e-07
3.91568e-07
3.89729e-07
3.87879e-07
3.86018e-07
3.8414e-07
3.8224e-07
3.80313e-07
3.78346e-07
3.76328e-07
3.74243e-07
3.7208e-07
3.69828e-07
3.67495e-07
3.65086e-07
3.62697e-07
4.68147e-07
4.67714e-07
4.66926e-07
4.65835e-07
4.64508e-07
4.63017e-07
4.61419e-07
4.59754e-07
4.58042e-07
4.56295e-07
4.54518e-07
4.52718e-07
4.509e-07
4.4907e-07
4.47234e-07
4.45395e-07
4.43554e-07
4.41711e-07
4.39866e-07
4.38018e-07
4.36167e-07
4.34313e-07
4.32454e-07
4.30591e-07
4.28722e-07
4.26847e-07
4.24965e-07
4.23075e-07
4.21178e-07
4.19273e-07
4.17359e-07
4.15437e-07
4.13505e-07
4.11564e-07
4.09615e-07
4.07655e-07
4.05687e-07
4.03708e-07
4.01722e-07
3.99724e-07
3.97718e-07
3.95699e-07
3.93673e-07
3.91633e-07
3.89585e-07
3.87518e-07
3.85444e-07
3.83347e-07
3.81241e-07
3.79105e-07
3.76961e-07
3.74777e-07
3.72588e-07
3.70349e-07
3.6811e-07
3.65807e-07
3.63514e-07
3.6114e-07
3.58788e-07
3.56353e-07
4.7987e-07
4.79119e-07
4.77704e-07
4.75751e-07
4.73464e-07
4.71041e-07
4.68607e-07
4.66213e-07
4.63862e-07
4.61542e-07
4.59242e-07
4.56963e-07
4.54711e-07
4.52489e-07
4.503e-07
4.48142e-07
4.46011e-07
4.43902e-07
4.4181e-07
4.39731e-07
4.37662e-07
4.356e-07
4.33543e-07
4.31489e-07
4.29434e-07
4.27376e-07
4.25315e-07
4.23248e-07
4.21174e-07
4.19091e-07
4.16999e-07
4.14897e-07
4.12785e-07
4.10661e-07
4.08526e-07
4.06378e-07
4.0422e-07
4.02047e-07
3.99866e-07
3.97667e-07
3.95462e-07
3.93238e-07
3.9101e-07
3.88759e-07
3.8651e-07
3.84232e-07
3.81964e-07
3.7966e-07
3.77379e-07
3.7505e-07
3.7277e-07
3.70421e-07
3.68161e-07
3.65802e-07
3.63597e-07
3.61242e-07
3.59143e-07
3.56797e-07
3.54844e-07
3.52414e-07
4.886e-07
4.86872e-07
4.84226e-07
4.81098e-07
4.77879e-07
4.74782e-07
4.71855e-07
4.69063e-07
4.66356e-07
4.63704e-07
4.61099e-07
4.58549e-07
4.5606e-07
4.5363e-07
4.51255e-07
4.48924e-07
4.46629e-07
4.44362e-07
4.42117e-07
4.39889e-07
4.37673e-07
4.35467e-07
4.33265e-07
4.31064e-07
4.28863e-07
4.26657e-07
4.24445e-07
4.22225e-07
4.19994e-07
4.17753e-07
4.15499e-07
4.13232e-07
4.10952e-07
4.08657e-07
4.06349e-07
4.04024e-07
4.01687e-07
3.99333e-07
3.96968e-07
3.94584e-07
3.92192e-07
3.89778e-07
3.87361e-07
3.84916e-07
3.82475e-07
3.79997e-07
3.77537e-07
3.75022e-07
3.7255e-07
3.69995e-07
3.67532e-07
3.64937e-07
3.62536e-07
3.5992e-07
3.57717e-07
3.55147e-07
3.53473e-07
3.51029e-07
3.50496e-07
3.4776e-07
5.36638e-07
5.22515e-07
5.08746e-07
4.98167e-07
4.90741e-07
4.85346e-07
4.80891e-07
4.76807e-07
4.72926e-07
4.69255e-07
4.65831e-07
4.6266e-07
4.59706e-07
4.5692e-07
4.54256e-07
4.5168e-07
4.49171e-07
4.46716e-07
4.44304e-07
4.41926e-07
4.39574e-07
4.3724e-07
4.34917e-07
4.326e-07
4.30284e-07
4.27966e-07
4.25643e-07
4.23312e-07
4.2097e-07
4.18617e-07
4.16251e-07
4.1387e-07
4.11475e-07
4.09065e-07
4.0664e-07
4.042e-07
4.01744e-07
3.99273e-07
3.96788e-07
3.94289e-07
3.91776e-07
3.8925e-07
3.86711e-07
3.84158e-07
3.81592e-07
3.79011e-07
3.76418e-07
3.73805e-07
3.7118e-07
3.68525e-07
3.65863e-07
3.63142e-07
3.60443e-07
3.57594e-07
3.54899e-07
3.51714e-07
3.49309e-07
3.44845e-07
3.44486e-07
3.33835e-07
3.77444e-07
3.2739e-07
3.0681e-07
2.89627e-07
2.72409e-07
2.55143e-07
2.35832e-07
2.15297e-07
1.91267e-07
1.65533e-07
1.35515e-07
1.04258e-07
6.8627e-08
3.30949e-08
-6.27063e-09
-4.34695e-08
-8.38804e-08
-1.19836e-07
-1.58736e-07
-1.91008e-07
-2.26564e-07
-2.537e-07
-2.85154e-07
-3.06305e-07
-3.3448e-07
-3.47806e-07
-3.77685e-07
-3.79189e-07
-4.16857e-07
-5.23842e-07
3.63733e-07
3.09209e-07
2.95593e-07
2.80975e-07
2.6443e-07
2.4755e-07
2.28547e-07
2.08168e-07
1.8433e-07
1.58948e-07
1.29548e-07
9.91265e-08
6.46388e-08
3.03884e-08
-7.49674e-09
-4.32859e-08
-8.19741e-08
-1.16516e-07
-1.53654e-07
-1.85013e-07
-2.19256e-07
-2.45786e-07
-2.76884e-07
-2.9745e-07
-3.2578e-07
-3.40006e-07
-3.65637e-07
-3.81293e-07
-3.88772e-07
-5.38854e-07
3.51667e-07
3.0679e-07
2.94186e-07
2.80043e-07
2.63009e-07
2.45217e-07
2.25704e-07
2.04976e-07
1.81089e-07
1.55576e-07
1.26408e-07
9.60728e-08
6.21384e-08
2.82228e-08
-8.77358e-09
-4.39973e-08
-8.16755e-08
-1.15885e-07
-1.52364e-07
-1.83391e-07
-2.17054e-07
-2.43537e-07
-2.73296e-07
-2.95625e-07
-3.2084e-07
-3.41297e-07
-3.60325e-07
-3.90209e-07
-3.73204e-07
-4.74957e-07
3.4161e-07
3.02819e-07
2.88182e-07
2.74583e-07
2.58239e-07
2.40985e-07
2.21655e-07
2.00772e-07
1.76939e-07
1.51265e-07
1.22416e-07
9.20845e-08
5.88928e-08
2.51614e-08
-1.06312e-08
-4.56653e-08
-8.18001e-08
-1.15956e-07
-1.50256e-07
-1.81852e-07
-2.12659e-07
-2.41285e-07
-2.67795e-07
-2.93568e-07
-3.14142e-07
-3.40683e-07
-3.49698e-07
-3.88729e-07
-3.67377e-07
-4.35044e-07
3.31915e-07
3.0032e-07
2.84792e-07
2.72317e-07
2.56534e-07
2.38521e-07
2.18689e-07
1.97242e-07
1.73365e-07
1.47274e-07
1.18664e-07
8.80506e-08
5.55371e-08
2.16982e-08
-1.2924e-08
-4.8004e-08
-8.25082e-08
-1.16822e-07
-1.49121e-07
-1.81424e-07
-2.10013e-07
-2.40029e-07
-2.63491e-07
-2.91907e-07
-3.08385e-07
-3.3799e-07
-3.43948e-07
-3.79529e-07
-3.72495e-07
-4.07173e-07
3.23436e-07
2.98671e-07
2.82332e-07
2.69407e-07
2.53897e-07
2.35786e-07
2.15765e-07
1.93824e-07
1.69818e-07
1.43286e-07
1.14784e-07
8.38453e-08
5.18339e-08
1.78538e-08
-1.57945e-08
-5.08944e-08
-8.39655e-08
-1.18355e-07
-1.48914e-07
-1.8152e-07
-2.08191e-07
-2.387e-07
-2.60425e-07
-2.89291e-07
-3.04945e-07
-3.33126e-07
-3.42362e-07
-3.69239e-07
-3.75711e-07
-3.93558e-07
3.16515e-07
2.97243e-07
2.80811e-07
2.67037e-07
2.51643e-07
2.33459e-07
2.13186e-07
1.90673e-07
1.66354e-07
1.39339e-07
1.1075e-07
7.9503e-08
4.77407e-08
1.37223e-08
-1.92836e-08
-5.41538e-08
-8.62576e-08
-1.20248e-07
-1.49735e-07
-1.81799e-07
-2.07613e-07
-2.37336e-07
-2.58944e-07
-2.86261e-07
-3.03526e-07
-3.28124e-07
-3.41966e-07
-3.62372e-07
-3.75269e-07
-3.8883e-07
3.11383e-07
2.95916e-07
2.7999e-07
2.65261e-07
2.49629e-07
2.3129e-07
2.10695e-07
1.8762e-07
1.6282e-07
1.3534e-07
1.06462e-07
7.49937e-08
4.32126e-08
9.32254e-09
-2.33924e-08
-5.77427e-08
-8.93588e-08
-1.22477e-07
-1.51529e-07
-1.82376e-07
-2.08156e-07
-2.36242e-07
-2.58636e-07
-2.83645e-07
-3.02918e-07
-3.24372e-07
-3.41246e-07
-3.58534e-07
-3.73273e-07
-3.85907e-07
3.08114e-07
2.94689e-07
2.79418e-07
2.64042e-07
2.47864e-07
2.292e-07
2.08188e-07
1.84575e-07
1.59163e-07
1.31228e-07
1.01899e-07
7.02692e-08
3.82679e-08
4.61816e-09
-2.80544e-08
-6.1712e-08
-9.3135e-08
-1.25146e-07
-1.54061e-07
-1.83464e-07
-2.09397e-07
-2.35789e-07
-2.58783e-07
-2.81987e-07
-3.02285e-07
-3.22154e-07
-3.39903e-07
-3.56393e-07
-3.71222e-07
-3.84201e-07
3.06462e-07
2.93626e-07
2.78917e-07
2.63181e-07
2.46302e-07
2.27123e-07
2.05569e-07
1.81419e-07
1.55324e-07
1.26916e-07
9.70366e-08
6.52482e-08
3.29328e-08
-4.62589e-10
-3.31838e-08
-6.61387e-08
-9.7424e-08
-1.28359e-07
-1.57095e-07
-1.85199e-07
-2.11049e-07
-2.36114e-07
-2.59172e-07
-2.81244e-07
-3.01659e-07
-3.20813e-07
-3.38566e-07
-3.54845e-07
-3.69697e-07
-3.82983e-07
3.05948e-07
2.92882e-07
2.78387e-07
2.62395e-07
2.44803e-07
2.24971e-07
2.02758e-07
1.78033e-07
1.51228e-07
1.22308e-07
9.18445e-08
5.98469e-08
2.72122e-08
-5.99152e-09
-3.87316e-08
-7.10837e-08
-1.02138e-07
-1.32165e-07
-1.60532e-07
-1.87601e-07
-2.13051e-07
-2.37145e-07
-2.59836e-07
-2.81164e-07
-3.01268e-07
-3.19994e-07
-3.37546e-07
-3.53716e-07
-3.68639e-07
-3.82151e-07
3.05987e-07
2.92485e-07
2.77828e-07
2.61484e-07
2.43192e-07
2.22629e-07
1.99676e-07
1.74314e-07
1.46791e-07
1.17309e-07
8.62616e-08
5.39871e-08
2.10645e-08
-1.20313e-08
-4.47199e-08
-7.65886e-08
-1.07294e-07
-1.36574e-07
-1.64404e-07
-1.90624e-07
-2.15471e-07
-2.38776e-07
-2.60901e-07
-2.81614e-07
-3.01273e-07
-3.19621e-07
-3.36924e-07
-3.52973e-07
-3.67917e-07
-3.81646e-07
3.06183e-07
2.92287e-07
2.77195e-07
2.60324e-07
2.41311e-07
2.19982e-07
1.96243e-07
1.70172e-07
1.41917e-07
1.11821e-07
8.01946e-08
4.7581e-08
1.4401e-08
-1.86564e-08
-5.12361e-08
-8.27074e-08
-1.12985e-07
-1.41611e-07
-1.68812e-07
-1.94267e-07
-2.18421e-07
-2.40988e-07
-2.62481e-07
-2.82582e-07
-3.01771e-07
-3.1969e-07
-3.36753e-07
-3.52586e-07
-3.67568e-07
-3.81355e-07
3.06293e-07
2.92079e-07
2.76402e-07
2.58851e-07
2.39069e-07
2.16939e-07
1.92375e-07
1.65521e-07
1.36499e-07
1.05733e-07
7.35201e-08
4.05145e-08
7.09066e-09
-2.59775e-08
-5.84154e-08
-8.95363e-08
-1.19342e-07
-1.47355e-07
-1.73877e-07
-1.98595e-07
-2.22005e-07
-2.43841e-07
-2.64652e-07
-2.84131e-07
-3.02797e-07
-3.20272e-07
-3.37029e-07
-3.52633e-07
-3.6755e-07
-3.81375e-07
3.06228e-07
2.91672e-07
2.75362e-07
2.57046e-07
2.36435e-07
2.13441e-07
1.8799e-07
1.60266e-07
1.30413e-07
9.891e-08
6.60817e-08
3.26367e-08
-1.03744e-09
-3.41475e-08
-6.64304e-08
-9.72157e-08
-1.26525e-07
-1.53925e-07
-1.79737e-07
-2.03704e-07
-2.26333e-07
-2.47411e-07
-2.67497e-07
-2.86315e-07
-3.04411e-07
-3.21395e-07
-3.37803e-07
-3.53121e-07
-3.67939e-07
-3.81703e-07
3.06049e-07
2.91029e-07
2.74064e-07
2.5493e-07
2.33406e-07
2.0944e-07
1.82991e-07
1.54282e-07
1.23507e-07
9.11841e-08
5.76888e-08
2.37564e-08
-1.01873e-08
-4.33572e-08
-7.54757e-08
-1.05917e-07
-1.34702e-07
-1.61463e-07
-1.86526e-07
-2.09706e-07
-2.31505e-07
-2.51781e-07
-2.71079e-07
-2.89193e-07
-3.06644e-07
-3.23102e-07
-3.39079e-07
-3.54091e-07
-3.68733e-07
-3.82417e-07
3.05938e-07
2.90238e-07
2.72552e-07
2.52529e-07
2.29962e-07
2.04859e-07
1.77247e-07
1.47404e-07
1.15585e-07
8.2344e-08
4.81138e-08
1.36468e-08
-2.0587e-08
-5.38185e-08
-8.57546e-08
-1.15817e-07
-1.44038e-07
-1.70108e-07
-1.94372e-07
-2.16701e-07
-2.37614e-07
-2.5702e-07
-2.75467e-07
-2.92806e-07
-3.0954e-07
-3.2541e-07
-3.40879e-07
-3.55549e-07
-3.69935e-07
-3.83549e-07
3.06144e-07
2.89465e-07
2.70876e-07
2.49798e-07
2.25991e-07
1.9953e-07
1.70549e-07
1.39394e-07
1.06391e-07
7.21253e-08
3.70892e-08
2.04926e-09
-3.24829e-08
-6.57574e-08
-9.74725e-08
-1.27101e-07
-1.54694e-07
-1.79999e-07
-2.03397e-07
-2.24796e-07
-2.44758e-07
-2.63207e-07
-2.80738e-07
-2.97208e-07
-3.1316e-07
-3.28345e-07
-3.43241e-07
-3.57486e-07
-3.71574e-07
-3.85067e-07
3.06787e-07
2.8882e-07
2.68994e-07
2.46551e-07
2.21227e-07
1.93157e-07
1.62584e-07
1.29931e-07
9.55963e-08
6.02034e-08
2.43001e-08
-1.13338e-08
-4.61515e-08
-7.94278e-08
-1.1086e-07
-1.39979e-07
-1.66859e-07
-1.9131e-07
-2.13754e-07
-2.34134e-07
-2.53063e-07
-2.70462e-07
-2.87e-07
-3.02496e-07
-3.17588e-07
-3.31975e-07
-3.46216e-07
-3.59927e-07
-3.73624e-07
-3.86931e-07
3.07627e-07
2.88096e-07
2.66582e-07
2.42366e-07
2.15208e-07
1.85279e-07
1.52902e-07
1.18572e-07
8.27684e-08
4.61569e-08
9.34345e-09
-2.68836e-08
-6.19499e-08
-9.5164e-08
-1.2623e-07
-1.54745e-07
-1.80809e-07
-2.04303e-07
-2.25682e-07
-2.44935e-07
-2.62724e-07
-2.78964e-07
-2.94408e-07
-3.08805e-07
-3.22948e-07
-3.36382e-07
-3.49892e-07
-3.62873e-07
-3.76099e-07
-3.88989e-07
3.07933e-07
2.86574e-07
2.63002e-07
2.36647e-07
2.07343e-07
1.75297e-07
1.40903e-07
1.04719e-07
6.73171e-08
2.94086e-08
-8.33839e-09
-4.51346e-08
-8.03842e-08
-1.13444e-07
-1.44032e-07
-1.71826e-07
-1.96949e-07
-2.19362e-07
-2.39532e-07