/*--------------------------------*- C++ -*----------------------------------*\
| =========                 |                                                 |
| \\      /  F ield         | OpenFOAM: The Open Source CFD Toolbox           |
|  \\    /   O peration     | Version:  2312                                  |
|   \\  /    A nd           | Website:  www.openfoam.com                      |
|    \\/     M anipulation  |                                                 |
\*---------------------------------------------------------------------------*/
FoamFile
{
    version     2.0;
    format      ascii;
    arch        "LSB;label=32;scalar=64";
    class       volVectorField;
    location    "128000";
    object      U;
}
// * * * * * * * * * * * * * * * * * * * * * * * * * * * * * * * * * * * * * //

dimensions      [0 1 -1 0 0 0 0];

internalField   nonuniform List<vector> 
10800
(
(0.000992484 4.94231e-06 0)
(0.000990037 1.2459e-05 0)
(0.00098687 1.74814e-05 0)
(0.000980495 2.06662e-05 0)
(0.000971079 2.27504e-05 0)
(0.000959785 2.42453e-05 0)
(0.00094768 2.53856e-05 0)
(0.000935297 2.62463e-05 0)
(0.00092278 2.68515e-05 0)
(0.000910107 2.72264e-05 0)
(0.000897234 2.74086e-05 0)
(0.000884155 2.7441e-05 0)
(0.000870907 2.73616e-05 0)
(0.000857547 2.71985e-05 0)
(0.000844125 2.69697e-05 0)
(0.000830679 2.66871e-05 0)
(0.000817236 2.63584e-05 0)
(0.000803813 2.59904e-05 0)
(0.000790426 2.55884e-05 0)
(0.000777091 2.51573e-05 0)
(0.000763821 2.47009e-05 0)
(0.000750633 2.42222e-05 0)
(0.000737541 2.37233e-05 0)
(0.000724558 2.32061e-05 0)
(0.000711699 2.26715e-05 0)
(0.000698975 2.2121e-05 0)
(0.0006864 2.15546e-05 0)
(0.000673986 2.09738e-05 0)
(0.000661746 2.03781e-05 0)
(0.000649691 1.97693e-05 0)
(0.000637836 1.91459e-05 0)
(0.000626191 1.85105e-05 0)
(0.000614772 1.78607e-05 0)
(0.000603587 1.72003e-05 0)
(0.000592654 1.65252e-05 0)
(0.000581979 1.58417e-05 0)
(0.000571583 1.51425e-05 0)
(0.000561468 1.44384e-05 0)
(0.00055166 1.37168e-05 0)
(0.000542153 1.29955e-05 0)
(0.000532985 1.22528e-05 0)
(0.00052413 1.15187e-05 0)
(0.000515655 1.0756e-05 0)
(0.00050749 1.00151e-05 0)
(0.000499769 9.23166e-06 0)
(0.000492317 8.49086e-06 0)
(0.000485436 7.6828e-06 0)
(0.000478676 6.94907e-06 0)
(0.000472792 6.10731e-06 0)
(0.000466585 5.37916e-06 0)
(0.000462074 4.49446e-06 0)
(0.000455918 3.72535e-06 0)
(0.000453827 2.83393e-06 0)
(0.0004461 1.77759e-06 0)
(0.000449541 1.19997e-06 0)
(0.000435199 -1.20197e-06 0)
(0.000453434 1.45591e-07 0)
(0.000417593 -7.67015e-06 0)
(0.000475667 2.05284e-06 0)
(0.000381149 -2.4494e-05 0)
(0.00100003 5.80374e-06 0)
(0.00100172 1.49974e-05 0)
(0.00100422 2.15314e-05 0)
(0.00100705 2.60979e-05 0)
(0.00100978 2.94596e-05 0)
(0.00101218 3.21449e-05 0)
(0.0010142 3.44012e-05 0)
(0.00101586 3.6315e-05 0)
(0.00101723 3.7919e-05 0)
(0.00101833 3.92438e-05 0)
(0.00101918 4.03306e-05 0)
(0.00101976 4.12253e-05 0)
(0.00102007 4.19684e-05 0)
(0.00102011 4.259e-05 0)
(0.00101991 4.311e-05 0)
(0.00101946 4.35411e-05 0)
(0.00101879 4.38919e-05 0)
(0.0010179 4.41691e-05 0)
(0.00101682 4.43782e-05 0)
(0.00101554 4.4524e-05 0)
(0.00101408 4.46099e-05 0)
(0.00101244 4.46388e-05 0)
(0.00101065 4.46125e-05 0)
(0.00100869 4.45321e-05 0)
(0.0010066 4.43988e-05 0)
(0.00100436 4.42123e-05 0)
(0.00100202 4.39738e-05 0)
(0.000999532 4.36819e-05 0)
(0.000996971 4.33385e-05 0)
(0.000994272 4.29405e-05 0)
(0.000991538 4.24914e-05 0)
(0.000988658 4.19856e-05 0)
(0.000985796 4.14301e-05 0)
(0.000982763 4.08142e-05 0)
(0.000979827 4.01516e-05 0)
(0.000976663 3.94229e-05 0)
(0.000973716 3.86541e-05 0)
(0.000970432 3.78092e-05 0)
(0.000967557 3.69367e-05 0)
(0.000964144 3.59709e-05 0)
(0.000961453 3.50007e-05 0)
(0.000957865 3.3906e-05 0)
(0.000955523 3.28494e-05 0)
(0.000951651 3.1612e-05 0)
(0.000949909 3.0489e-05 0)
(0.000945529 2.90831e-05 0)
(0.00094479 2.79282e-05 0)
(0.000939483 2.63062e-05 0)
(0.000940411 2.51784e-05 0)
(0.000933406 2.32532e-05 0)
(0.000937111 2.22527e-05 0)
(0.00092703 1.98687e-05 0)
(0.000935391 1.91622e-05 0)
(0.000919789 1.60535e-05 0)
(0.000935989 1.59037e-05 0)
(0.00091057 1.16541e-05 0)
(0.000940031 1.24002e-05 0)
(0.000897325 6.52813e-06 0)
(0.000949421 8.20306e-06 0)
(0.00087689 1.08922e-06 0)
(0.000999989 1.9651e-06 0)
(0.00100078 5.772e-06 0)
(0.00100224 9.30278e-06 0)
(0.00100423 1.24736e-05 0)
(0.00100653 1.52817e-05 0)
(0.00100896 1.77722e-05 0)
(0.00101138 1.99998e-05 0)
(0.00101374 2.20075e-05 0)
(0.00101604 2.38225e-05 0)
(0.0010183 2.54615e-05 0)
(0.00102051 2.69377e-05 0)
(0.00102267 2.82644e-05 0)
(0.00102477 2.9456e-05 0)
(0.00102681 3.05262e-05 0)
(0.00102879 3.14876e-05 0)
(0.00103069 3.23498e-05 0)
(0.00103253 3.3121e-05 0)
(0.0010343 3.38067e-05 0)
(0.00103601 3.44126e-05 0)
(0.00103765 3.49419e-05 0)
(0.00103925 3.53991e-05 0)
(0.00104077 3.57854e-05 0)
(0.00104225 3.61049e-05 0)
(0.00104366 3.63568e-05 0)
(0.00104503 3.65454e-05 0)
(0.00104633 3.66673e-05 0)
(0.00104761 3.67281e-05 0)
(0.00104879 3.67215e-05 0)
(0.00104997 3.66557e-05 0)
(0.00105105 3.65199e-05 0)
(0.00105215 3.63272e-05 0)
(0.00105312 3.60601e-05 0)
(0.00105416 3.57394e-05 0)
(0.00105501 3.53376e-05 0)
(0.00105599 3.48879e-05 0)
(0.00105673 3.4347e-05 0)
(0.00105769 3.37679e-05 0)
(0.00105829 3.30828e-05 0)
(0.00105927 3.23749e-05 0)
(0.00105971 3.15392e-05 0)
(0.00106077 3.07054e-05 0)
(0.00106099 2.97114e-05 0)
(0.00106222 2.87573e-05 0)
(0.00106216 2.75948e-05 0)
(0.00106367 2.65299e-05 0)
(0.0010632 2.51861e-05 0)
(0.00106521 2.4025e-05 0)
(0.00106411 2.24837e-05 0)
(0.00106689 2.12479e-05 0)
(0.00106485 1.94901e-05 0)
(0.00106885 1.82097e-05 0)
(0.00106534 1.62182e-05 0)
(0.00107121 1.49338e-05 0)
(0.00106543 1.27062e-05 0)
(0.00107416 1.14706e-05 0)
(0.00106488 9.05655e-06 0)
(0.00107798 7.93674e-06 0)
(0.00106332 5.53286e-06 0)
(0.00108309 4.56707e-06 0)
(0.00106028 2.6726e-06 0)
(0.00100001 1.74493e-06 0)
(0.00100047 5.16978e-06 0)
(0.00100128 8.43829e-06 0)
(0.00100239 1.14741e-05 0)
(0.00100374 1.42364e-05 0)
(0.00100525 1.67221e-05 0)
(0.00100687 1.89529e-05 0)
(0.00100856 2.09586e-05 0)
(0.00101031 2.27661e-05 0)
(0.00101209 2.43963e-05 0)
(0.0010139 2.58647e-05 0)
(0.00101573 2.7184e-05 0)
(0.00101759 2.83667e-05 0)
(0.00101945 2.94247e-05 0)
(0.00102132 3.03695e-05 0)
(0.00102318 3.12113e-05 0)
(0.00102505 3.19592e-05 0)
(0.00102691 3.262e-05 0)
(0.00102877 3.32003e-05 0)
(0.00103062 3.3704e-05 0)
(0.00103248 3.4136e-05 0)
(0.00103432 3.44985e-05 0)
(0.00103616 3.47953e-05 0)
(0.00103799 3.5027e-05 0)
(0.00103983 3.5197e-05 0)
(0.00104164 3.53039e-05 0)
(0.00104347 3.53512e-05 0)
(0.00104527 3.5336e-05 0)
(0.00104708 3.52622e-05 0)
(0.00104886 3.51249e-05 0)
(0.00105067 3.49293e-05 0)
(0.00105243 3.4668e-05 0)
(0.00105423 3.43483e-05 0)
(0.00105596 3.396e-05 0)
(0.00105775 3.35129e-05 0)
(0.00105946 3.29936e-05 0)
(0.00106124 3.2415e-05 0)
(0.00106291 3.17604e-05 0)
(0.0010647 3.1046e-05 0)
(0.00106632 3.02517e-05 0)
(0.00106813 2.93965e-05 0)
(0.00106969 2.84589e-05 0)
(0.00107153 2.74578e-05 0)
(0.00107301 2.63748e-05 0)
(0.00107491 2.52218e-05 0)
(0.00107629 2.39941e-05 0)
(0.00107828 2.2682e-05 0)
(0.00107954 2.13156e-05 0)
(0.00108168 1.9835e-05 0)
(0.00108276 1.83454e-05 0)
(0.00108512 1.66838e-05 0)
(0.00108595 1.51047e-05 0)
(0.00108864 1.32455e-05 0)
(0.00108913 1.16434e-05 0)
(0.00109228 9.56546e-06 0)
(0.00109228 8.06251e-06 0)
(0.0010961 5.73334e-06 0)
(0.0010954 4.53378e-06 0)
(0.00110015 1.87425e-06 0)
(0.0010984 1.26222e-06 0)
(0.001 1.15733e-06 0)
(0.00100023 3.44519e-06 0)
(0.00100067 5.66811e-06 0)
(0.00100133 7.79434e-06 0)
(0.00100219 9.80249e-06 0)
(0.00100323 1.16822e-05 0)
(0.0010044 1.34322e-05 0)
(0.00100567 1.50563e-05 0)
(0.00100703 1.65608e-05 0)
(0.00100845 1.79516e-05 0)
(0.00100993 1.92341e-05 0)
(0.00101144 2.04131e-05 0)
(0.001013 2.14934e-05 0)
(0.00101459 2.24797e-05 0)
(0.00101619 2.33772e-05 0)
(0.00101782 2.41904e-05 0)
(0.00101946 2.49239e-05 0)
(0.00102112 2.55816e-05 0)
(0.00102278 2.61667e-05 0)
(0.00102446 2.6682e-05 0)
(0.00102614 2.713e-05 0)
(0.00102782 2.75125e-05 0)
(0.00102951 2.78311e-05 0)
(0.00103121 2.80871e-05 0)
(0.00103291 2.82814e-05 0)
(0.00103461 2.84148e-05 0)
(0.00103632 2.84872e-05 0)
(0.00103803 2.84996e-05 0)
(0.00103974 2.84505e-05 0)
(0.00104146 2.83416e-05 0)
(0.00104317 2.81697e-05 0)
(0.00104489 2.79377e-05 0)
(0.00104661 2.76402e-05 0)
(0.00104832 2.72826e-05 0)
(0.00105004 2.68553e-05 0)
(0.00105175 2.63688e-05 0)
(0.00105346 2.58065e-05 0)
(0.00105517 2.51875e-05 0)
(0.00105688 2.44839e-05 0)
(0.00105858 2.37292e-05 0)
(0.00106029 2.28767e-05 0)
(0.00106198 2.19842e-05 0)
(0.00106368 2.09735e-05 0)
(0.00106537 1.9943e-05 0)
(0.00106706 1.87629e-05 0)
(0.00106875 1.7598e-05 0)
(0.00107042 1.62342e-05 0)
(0.00107213 1.49446e-05 0)
(0.00107378 1.33785e-05 0)
(0.00107551 1.19836e-05 0)
(0.00107715 1.01887e-05 0)
(0.00107894 8.72217e-06 0)
(0.00108055 6.6581e-06 0)
(0.00108247 5.17392e-06 0)
(0.00108407 2.77784e-06 0)
(0.00108621 1.36371e-06 0)
(0.00108778 -1.45563e-06 0)
(0.00109024 -2.6527e-06 0)
(0.00109168 -6.03373e-06 0)
(0.00109444 -6.80004e-06 0)
(0.001 9.318e-07 0)
(0.00100017 2.78739e-06 0)
(0.00100051 4.61647e-06 0)
(0.001001 6.40011e-06 0)
(0.00100164 8.12081e-06 0)
(0.00100241 9.76466e-06 0)
(0.0010033 1.13223e-05 0)
(0.00100428 1.2789e-05 0)
(0.00100535 1.41629e-05 0)
(0.00100648 1.54446e-05 0)
(0.00100767 1.66354e-05 0)
(0.00100891 1.77373e-05 0)
(0.0010102 1.87525e-05 0)
(0.00101152 1.96835e-05 0)
(0.00101288 2.0533e-05 0)
(0.00101426 2.1304e-05 0)
(0.00101567 2.19992e-05 0)
(0.0010171 2.26217e-05 0)
(0.00101855 2.31737e-05 0)
(0.00102001 2.36578e-05 0)
(0.00102149 2.40756e-05 0)
(0.00102298 2.44294e-05 0)
(0.00102448 2.472e-05 0)
(0.00102599 2.49494e-05 0)
(0.0010275 2.51174e-05 0)
(0.00102903 2.52262e-05 0)
(0.00103055 2.52744e-05 0)
(0.00103209 2.52644e-05 0)
(0.00103362 2.51936e-05 0)
(0.00103516 2.50653e-05 0)
(0.0010367 2.48747e-05 0)
(0.00103825 2.46269e-05 0)
(0.00103979 2.4314e-05 0)
(0.00104133 2.39445e-05 0)
(0.00104287 2.35057e-05 0)
(0.00104441 2.30113e-05 0)
(0.00104594 2.24414e-05 0)
(0.00104748 2.18185e-05 0)
(0.001049 2.11109e-05 0)
(0.00105054 2.03555e-05 0)
(0.00105205 1.95024e-05 0)
(0.00105359 1.86108e-05 0)
(0.00105508 1.76023e-05 0)
(0.00105662 1.65717e-05 0)
(0.00105809 1.53956e-05 0)
(0.00105964 1.42249e-05 0)
(0.00106109 1.28657e-05 0)
(0.00106267 1.15567e-05 0)
(0.00106409 9.9941e-06 0)
(0.00106573 8.55403e-06 0)
(0.00106711 6.76128e-06 0)
(0.00106883 5.20685e-06 0)
(0.00107015 3.14816e-06 0)
(0.00107201 1.50976e-06 0)
(0.00107324 -8.70456e-07 0)
(0.00107531 -2.55222e-06 0)
(0.00107641 -5.351e-06 0)
(0.00107883 -7.0212e-06 0)
(0.00107969 -1.03847e-05 0)
(0.00108244 -1.19457e-05 0)
(0.001 7.38027e-07 0)
(0.00100013 2.20841e-06 0)
(0.00100037 3.66011e-06 0)
(0.00100073 5.08038e-06 0)
(0.00100121 6.45775e-06 0)
(0.00100179 7.78282e-06 0)
(0.00100247 9.04862e-06 0)
(0.00100324 1.02506e-05 0)
(0.00100409 1.13861e-05 0)
(0.001005 1.24541e-05 0)
(0.00100598 1.34541e-05 0)
(0.00100701 1.43867e-05 0)
(0.00100809 1.52524e-05 0)
(0.00100921 1.6052e-05 0)
(0.00101037 1.67866e-05 0)
(0.00101156 1.74573e-05 0)
(0.00101278 1.80654e-05 0)
(0.00101403 1.86121e-05 0)
(0.0010153 1.90986e-05 0)
(0.00101658 1.95262e-05 0)
(0.00101789 1.98956e-05 0)
(0.00101921 2.02081e-05 0)
(0.00102055 2.04639e-05 0)
(0.00102189 2.06642e-05 0)
(0.00102324 2.08085e-05 0)
(0.0010246 2.08981e-05 0)
(0.00102597 2.09318e-05 0)
(0.00102734 2.09111e-05 0)
(0.00102871 2.08336e-05 0)
(0.00103009 2.07017e-05 0)
(0.00103147 2.05112e-05 0)
(0.00103284 2.0266e-05 0)
(0.00103421 1.99593e-05 0)
(0.00103559 1.95977e-05 0)
(0.00103695 1.91704e-05 0)
(0.00103832 1.86882e-05 0)
(0.00103967 1.81345e-05 0)
(0.00104102 1.75266e-05 0)
(0.00104236 1.68392e-05 0)
(0.0010437 1.61001e-05 0)
(0.00104501 1.527e-05 0)
(0.00104634 1.43933e-05 0)
(0.00104763 1.34093e-05 0)
(0.00104895 1.23885e-05 0)
(0.0010502 1.12367e-05 0)
(0.00105151 1.00653e-05 0)
(0.00105273 8.72802e-06 0)
(0.00105405 7.39996e-06 0)
(0.00105522 5.85382e-06 0)
(0.00105656 4.36424e-06 0)
(0.00105769 2.57714e-06 0)
(0.00105909 9.23505e-07 0)
(0.00106018 -1.14695e-06 0)
(0.00106168 -2.95646e-06 0)
(0.00106271 -5.36135e-06 0)
(0.00106437 -7.30143e-06 0)
(0.00106529 -1.01177e-05 0)
(0.00106717 -1.21539e-05 0)
(0.00106786 -1.55092e-05 0)
(0.00106991 -1.7587e-05 0)
(0.001 5.89578e-07 0)
(0.0010001 1.76569e-06 0)
(0.00100029 2.9308e-06 0)
(0.00100057 4.07694e-06 0)
(0.00100095 5.19656e-06 0)
(0.00100141 6.28288e-06 0)
(0.00100196 7.33022e-06 0)
(0.00100258 8.33404e-06 0)
(0.00100327 9.29096e-06 0)
(0.00100403 1.01986e-05 0)
(0.00100484 1.10553e-05 0)
(0.00100571 1.18601e-05 0)
(0.00100663 1.26124e-05 0)
(0.00100759 1.33118e-05 0)
(0.00100859 1.39582e-05 0)
(0.00100962 1.45515e-05 0)
(0.00101068 1.50919e-05 0)
(0.00101177 1.55797e-05 0)
(0.00101289 1.60152e-05 0)
(0.00101402 1.63988e-05 0)
(0.00101518 1.67307e-05 0)
(0.00101635 1.70113e-05 0)
(0.00101753 1.72407e-05 0)
(0.00101873 1.74193e-05 0)
(0.00101993 1.75466e-05 0)
(0.00102114 1.76233e-05 0)
(0.00102236 1.76483e-05 0)
(0.00102358 1.76224e-05 0)
(0.0010248 1.75438e-05 0)
(0.00102603 1.74137e-05 0)
(0.00102725 1.72291e-05 0)
(0.00102847 1.69922e-05 0)
(0.00102968 1.66984e-05 0)
(0.00103089 1.63509e-05 0)
(0.00103209 1.59431e-05 0)
(0.00103329 1.54804e-05 0)
(0.00103446 1.49526e-05 0)
(0.00103564 1.43687e-05 0)
(0.00103679 1.37135e-05 0)
(0.00103795 1.30014e-05 0)
(0.00103907 1.22095e-05 0)
(0.00104019 1.13609e-05 0)
(0.00104128 1.04209e-05 0)
(0.00104238 9.42637e-06 0)
(0.00104342 8.32423e-06 0)
(0.00104449 7.17301e-06 0)
(0.00104549 5.89156e-06 0)
(0.00104654 4.57205e-06 0)
(0.00104749 3.08995e-06 0)
(0.00104853 1.58991e-06 0)
(0.00104941 -1.20294e-07 0)
(0.00105046 -1.81417e-06 0)
(0.00105127 -3.79018e-06 0)
(0.00105236 -5.69538e-06 0)
(0.00105309 -7.99197e-06 0)
(0.00105426 -1.01251e-05 0)
(0.00105488 -1.28106e-05 0)
(0.00105615 -1.51777e-05 0)
(0.00105655 -1.8343e-05 0)
(0.00105785 -2.09363e-05 0)
(0.001 4.72523e-07 0)
(0.00100008 1.41603e-06 0)
(0.00100024 2.35261e-06 0)
(0.00100047 3.27683e-06 0)
(0.00100078 4.18336e-06 0)
(0.00100116 5.06722e-06 0)
(0.00100161 5.92397e-06 0)
(0.00100213 6.74982e-06 0)
(0.00100271 7.54159e-06 0)
(0.00100335 8.29671e-06 0)
(0.00100404 9.01306e-06 0)
(0.00100478 9.68898e-06 0)
(0.00100557 1.03232e-05 0)
(0.0010064 1.09147e-05 0)
(0.00100726 1.14628e-05 0)
(0.00100816 1.19671e-05 0)
(0.00100909 1.24273e-05 0)
(0.00101005 1.28431e-05 0)
(0.00101103 1.32144e-05 0)
(0.00101204 1.35411e-05 0)
(0.00101306 1.38232e-05 0)
(0.0010141 1.40606e-05 0)
(0.00101515 1.42531e-05 0)
(0.00101621 1.44008e-05 0)
(0.00101728 1.45032e-05 0)
(0.00101836 1.45603e-05 0)
(0.00101945 1.45714e-05 0)
(0.00102053 1.45365e-05 0)
(0.00102162 1.44544e-05 0)
(0.0010227 1.43252e-05 0)
(0.00102379 1.41471e-05 0)
(0.00102486 1.39205e-05 0)
(0.00102593 1.36428e-05 0)
(0.00102699 1.33146e-05 0)
(0.00102804 1.29322e-05 0)
(0.00102908 1.24971e-05 0)
(0.0010301 1.20039e-05 0)
(0.00103111 1.14553e-05 0)
(0.00103209 1.08435e-05 0)
(0.00103306 1.01732e-05 0)
(0.001034 9.43339e-06 0)
(0.00103493 8.63164e-06 0)
(0.00103582 7.75201e-06 0)
(0.0010367 6.807e-06 0)
(0.00103753 5.77313e-06 0)
(0.00103837 4.67053e-06 0)
(0.00103913 3.46444e-06 0)
(0.00103991 2.1867e-06 0)
(0.00104059 7.8574e-07 0)
(0.00104133 -6.87821e-07 0)
(0.00104193 -2.31016e-06 0)
(0.00104263 -4.00089e-06 0)
(0.00104314 -5.87648e-06 0)
(0.00104381 -7.81192e-06 0)
(0.00104421 -9.98664e-06 0)
(0.00104487 -1.2203e-05 0)
(0.00104512 -1.47357e-05 0)
(0.00104578 -1.72696e-05 0)
(0.00104579 -2.02289e-05 0)
(0.00104637 -2.31075e-05 0)
(0.001 3.75625e-07 0)
(0.00100007 1.12618e-06 0)
(0.0010002 1.87223e-06 0)
(0.00100039 2.60987e-06 0)
(0.00100066 3.33526e-06 0)
(0.00100098 4.04472e-06 0)
(0.00100136 4.73486e-06 0)
(0.00100181 5.40262e-06 0)
(0.0010023 6.04531e-06 0)
(0.00100285 6.6606e-06 0)
(0.00100345 7.24649e-06 0)
(0.00100409 7.80131e-06 0)
(0.00100478 8.32365e-06 0)
(0.0010055 8.81239e-06 0)
(0.00100626 9.2666e-06 0)
(0.00100705 9.68555e-06 0)
(0.00100788 1.00686e-05 0)
(0.00100872 1.04154e-05 0)
(0.0010096 1.07254e-05 0)
(0.00101049 1.09983e-05 0)
(0.0010114 1.12338e-05 0)
(0.00101233 1.14315e-05 0)
(0.00101327 1.15912e-05 0)
(0.00101422 1.17124e-05 0)
(0.00101517 1.17949e-05 0)
(0.00101614 1.18381e-05 0)
(0.00101711 1.18415e-05 0)
(0.00101807 1.18047e-05 0)
(0.00101904 1.17268e-05 0)
(0.00102001 1.16072e-05 0)
(0.00102096 1.1445e-05 0)
(0.00102191 1.12393e-05 0)
(0.00102285 1.09888e-05 0)
(0.00102378 1.06925e-05 0)
(0.00102469 1.03489e-05 0)
(0.00102559 9.9563e-06 0)
(0.00102646 9.51334e-06 0)
(0.00102732 9.01768e-06 0)
(0.00102815 8.46778e-06 0)
(0.00102895 7.86045e-06 0)
(0.00102973 7.1943e-06 0)
(0.00103047 6.46478e-06 0)
(0.00103118 5.67104e-06 0)
(0.00103186 4.80636e-06 0)
(0.00103249 3.87122e-06 0)
(0.00103309 2.85552e-06 0)
(0.00103363 1.76231e-06 0)
(0.00103415 5.76218e-07 0)
(0.00103459 -6.94854e-07 0)
(0.00103502 -2.07499e-06 0)
(0.00103535 -3.54783e-06 0)
(0.00103569 -5.15346e-06 0)
(0.00103588 -6.86052e-06 0)
(0.00103614 -8.73186e-06 0)
(0.00103617 -1.07097e-05 0)
(0.00103634 -1.28946e-05 0)
(0.00103618 -1.51856e-05 0)
(0.00103624 -1.77426e-05 0)
(0.00103581 -2.03926e-05 0)
(0.00103568 -2.3386e-05 0)
(0.001 2.92903e-07 0)
(0.00100006 8.78617e-07 0)
(0.00100017 1.46147e-06 0)
(0.00100034 2.03863e-06 0)
(0.00100057 2.6073e-06 0)
(0.00100085 3.16475e-06 0)
(0.00100118 3.70842e-06 0)
(0.00100157 4.23593e-06 0)
(0.00100201 4.74513e-06 0)
(0.00100249 5.23411e-06 0)
(0.00100301 5.70117e-06 0)
(0.00100358 6.14481e-06 0)
(0.00100419 6.56375e-06 0)
(0.00100483 6.95686e-06 0)
(0.00100551 7.32322e-06 0)
(0.00100621 7.66197e-06 0)
(0.00100695 7.97243e-06 0)
(0.00100771 8.25397e-06 0)
(0.00100849 8.50608e-06 0)
(0.0010093 8.72821e-06 0)
(0.00101012 8.91996e-06 0)
(0.00101095 9.08082e-06 0)
(0.0010118 9.21044e-06 0)
(0.00101265 9.30826e-06 0)
(0.00101352 9.37393e-06 0)
(0.00101438 9.4068e-06 0)
(0.00101525 9.4065e-06 0)
(0.00101612 9.37216e-06 0)
(0.00101699 9.30344e-06 0)
(0.00101785 9.19914e-06 0)
(0.0010187 9.05898e-06 0)
(0.00101954 8.88127e-06 0)
(0.00102037 8.66591e-06 0)
(0.00102118 8.4105e-06 0)
(0.00102197 8.11529e-06 0)
(0.00102274 7.7768e-06 0)
(0.00102349 7.39599e-06 0)
(0.00102421 6.96774e-06 0)
(0.0010249 6.4943e-06 0)
(0.00102556 5.968e-06 0)
(0.00102618 5.39336e-06 0)
(0.00102676 4.7587e-06 0)
(0.0010273 4.07248e-06 0)
(0.0010278 3.31664e-06 0)
(0.00102823 2.50629e-06 0)
(0.00102863 1.61333e-06 0)
(0.00102896 6.63774e-07 0)
(0.00102924 -3.86302e-07 0)
(0.00102944 -1.4928e-06 0)
(0.0010296 -2.72534e-06 0)
(0.00102965 -4.01063e-06 0)
(0.00102967 -5.45959e-06 0)
(0.00102955 -6.94995e-06 0)
(0.00102941 -8.65851e-06 0)
(0.00102909 -1.03829e-05 0)
(0.00102878 -1.24061e-05 0)
(0.00102822 -1.43955e-05 0)
(0.00102771 -1.68046e-05 0)
(0.00102683 -1.90878e-05 0)
(0.00102603 -2.19686e-05 0)
(0.001 2.20316e-07 0)
(0.00100005 6.61305e-07 0)
(0.00100015 1.10066e-06 0)
(0.00100031 1.53637e-06 0)
(0.00100051 1.96639e-06 0)
(0.00100076 2.38874e-06 0)
(0.00100106 2.80154e-06 0)
(0.0010014 3.20302e-06 0)
(0.00100179 3.59154e-06 0)
(0.00100223 3.96561e-06 0)
(0.0010027 4.32387e-06 0)
(0.00100321 4.66511e-06 0)
(0.00100376 4.98823e-06 0)
(0.00100434 5.29226e-06 0)
(0.00100495 5.57635e-06 0)
(0.00100559 5.83971e-06 0)
(0.00100626 6.08169e-06 0)
(0.00100695 6.30164e-06 0)
(0.00100767 6.49907e-06 0)
(0.0010084 6.6734e-06 0)
(0.00100915 6.82423e-06 0)
(0.00100991 6.95101e-06 0)
(0.00101068 7.0534e-06 0)
(0.00101146 7.13079e-06 0)
(0.00101225 7.18292e-06 0)
(0.00101304 7.20905e-06 0)
(0.00101383 7.20895e-06 0)
(0.00101461 7.18168e-06 0)
(0.0010154 7.12712e-06 0)
(0.00101617 7.04393e-06 0)
(0.00101693 6.93219e-06 0)
(0.00101769 6.79002e-06 0)
(0.00101842 6.61783e-06 0)
(0.00101914 6.41289e-06 0)
(0.00101983 6.17624e-06 0)
(0.0010205 5.90383e-06 0)
(0.00102114 5.59781e-06 0)
(0.00102175 5.25208e-06 0)
(0.00102232 4.87069e-06 0)
(0.00102285 4.44436e-06 0)
(0.00102334 3.98032e-06 0)
(0.00102379 3.46431e-06 0)
(0.00102418 2.90885e-06 0)
(0.00102452 2.2918e-06 0)
(0.0010248 1.63445e-06 0)
(0.00102502 9.02036e-07 0)
(0.00102516 1.30439e-07 0)
(0.00102524 -7.35667e-07 0)
(0.00102523 -1.6365e-06 0)
(0.00102515 -2.66073e-06 0)
(0.00102495 -3.70972e-06 0)
(0.00102468 -4.92428e-06 0)
(0.00102427 -6.1415e-06 0)
(0.00102379 -7.58717e-06 0)
(0.00102314 -8.9943e-06 0)
(0.00102242 -1.0726e-05 0)
(0.00102147 -1.23448e-05 0)
(0.00102046 -1.44358e-05 0)
(0.00101914 -1.62816e-05 0)
(0.00101776 -1.88242e-05 0)
(0.001 1.5486e-07 0)
(0.00100005 4.65297e-07 0)
(0.00100014 7.75091e-07 0)
(0.00100028 1.08285e-06 0)
(0.00100046 1.38718e-06 0)
(0.00100069 1.68672e-06 0)
(0.00100097 1.98016e-06 0)
(0.00100129 2.26623e-06 0)
(0.00100164 2.54379e-06 0)
(0.00100204 2.81176e-06 0)
(0.00100248 3.06913e-06 0)
(0.00100295 3.31499e-06 0)
(0.00100345 3.54851e-06 0)
(0.00100399 3.76894e-06 0)
(0.00100456 3.97561e-06 0)
(0.00100515 4.16786e-06 0)
(0.00100577 4.34518e-06 0)
(0.00100641 4.50702e-06 0)
(0.00100708 4.65295e-06 0)
(0.00100776 4.7825e-06 0)
(0.00100845 4.89532e-06 0)
(0.00100916 4.99092e-06 0)
(0.00100987 5.06904e-06 0)
(0.0010106 5.12915e-06 0)
(0.00101133 5.17104e-06 0)
(0.00101206 5.19407e-06 0)
(0.00101279 5.19812e-06 0)
(0.00101351 5.18234e-06 0)
(0.00101423 5.14675e-06 0)
(0.00101495 5.09017e-06 0)
(0.00101564 5.01282e-06 0)
(0.00101633 4.91303e-06 0)
(0.00101699 4.79139e-06 0)
(0.00101763 4.64546e-06 0)
(0.00101825 4.47647e-06 0)
(0.00101884 4.28078e-06 0)
(0.0010194 4.06071e-06 0)
(0.00101992 3.81074e-06 0)
(0.0010204 3.53505e-06 0)
(0.00102084 3.22518e-06 0)
(0.00102123 2.88834e-06 0)
(0.00102156 2.51141e-06 0)
(0.00102184 2.10673e-06 0)
(0.00102206 1.65371e-06 0)
(0.00102221 1.17321e-06 0)
(0.00102229 6.32636e-07 0)
(0.00102228 6.68648e-08 0)
(0.0010222 -5.75799e-07 0)
(0.00102201 -1.23789e-06 0)
(0.00102174 -2.00183e-06 0)
(0.00102134 -2.77358e-06 0)
(0.00102084 -3.68541e-06 0)
(0.0010202 -4.58221e-06 0)
(0.00101944 -5.676e-06 0)
(0.00101851 -6.71269e-06 0)
(0.00101744 -8.03458e-06 0)
(0.00101617 -9.22523e-06 0)
(0.00101475 -1.08383e-05 0)
(0.00101306 -1.21895e-05 0)
(0.00101121 -1.41755e-05 0)
(0.001 9.41433e-08 0)
(0.00100005 2.83446e-07 0)
(0.00100013 4.72944e-07 0)
(0.00100026 6.61795e-07 0)
(0.00100044 8.49152e-07 0)
(0.00100065 1.03418e-06 0)
(0.00100091 1.21608e-06 0)
(0.00100121 1.39408e-06 0)
(0.00100155 1.56745e-06 0)
(0.00100193 1.73552e-06 0)
(0.00100234 1.89765e-06 0)
(0.00100278 2.05326e-06 0)
(0.00100326 2.20181e-06 0)
(0.00100377 2.34278e-06 0)
(0.00100431 2.47575e-06 0)
(0.00100487 2.60028e-06 0)
(0.00100546 2.716e-06 0)
(0.00100607 2.82254e-06 0)
(0.0010067 2.91962e-06 0)
(0.00100734 3.00689e-06 0)
(0.001008 3.08413e-06 0)
(0.00100868 3.15099e-06 0)
(0.00100936 3.20729e-06 0)
(0.00101004 3.25268e-06 0)
(0.00101074 3.28701e-06 0)
(0.00101143 3.30985e-06 0)
(0.00101212 3.32115e-06 0)
(0.0010128 3.32033e-06 0)
(0.00101348 3.30744e-06 0)
(0.00101415 3.28169e-06 0)
(0.0010148 3.24327e-06 0)
(0.00101544 3.19107e-06 0)
(0.00101606 3.12556e-06 0)
(0.00101665 3.04509e-06 0)
(0.00101722 2.95061e-06 0)
(0.00101776 2.83964e-06 0)
(0.00101826 2.71394e-06 0)
(0.00101872 2.56972e-06 0)
(0.00101914 2.41009e-06 0)
(0.00101951 2.22919e-06 0)
(0.00101983 2.03233e-06 0)
(0.0010201 1.81036e-06 0)
(0.0010203 1.57219e-06 0)
(0.00102043 1.30341e-06 0)
(0.00102049 1.01895e-06 0)
(0.00102047 6.96024e-07 0)
(0.00102036 3.59278e-07 0)
(0.00102017 -2.74684e-08 0)
(0.00101986 -4.23573e-07 0)
(0.00101945 -8.86683e-07 0)
(0.00101892 -1.34967e-06 0)
(0.00101825 -1.90498e-06 0)
(0.00101744 -2.44318e-06 0)
(0.00101649 -3.11346e-06 0)
(0.00101536 -3.73625e-06 0)
(0.00101406 -4.55243e-06 0)
(0.00101255 -5.26728e-06 0)
(0.00101085 -6.27163e-06 0)
(0.00100889 -7.08043e-06 0)
(0.00100669 -8.32901e-06 0)
(0.001 3.61031e-08 0)
(0.00100004 1.09582e-07 0)
(0.00100013 1.84009e-07 0)
(0.00100026 2.59045e-07 0)
(0.00100042 3.34348e-07 0)
(0.00100063 4.0958e-07 0)
(0.00100089 4.8441e-07 0)
(0.00100118 5.58521e-07 0)
(0.00100151 6.31611e-07 0)
(0.00100187 7.03392e-07 0)
(0.00100227 7.73596e-07 0)
(0.00100271 8.41967e-07 0)
(0.00100317 9.08274e-07 0)
(0.00100367 9.72293e-07 0)
(0.00100419 1.03382e-06 0)
(0.00100474 1.09267e-06 0)
(0.00100531 1.14868e-06 0)
(0.00100591 1.20167e-06 0)
(0.00100652 1.25152e-06 0)
(0.00100715 1.29807e-06 0)
(0.00100779 1.34123e-06 0)
(0.00100845 1.38084e-06 0)
(0.00100911 1.41683e-06 0)
(0.00100978 1.44906e-06 0)
(0.00101046 1.47746e-06 0)
(0.00101113 1.50189e-06 0)
(0.0010118 1.52231e-06 0)
(0.00101247 1.53855e-06 0)
(0.00101313 1.55061e-06 0)
(0.00101378 1.55824e-06 0)
(0.00101441 1.56152e-06 0)
(0.00101502 1.56007e-06 0)
(0.00101562 1.55411e-06 0)
(0.00101619 1.54305e-06 0)
(0.00101673 1.52729e-06 0)
(0.00101724 1.50597e-06 0)
(0.00101772 1.47977e-06 0)
(0.00101815 1.44739e-06 0)
(0.00101854 1.41002e-06 0)
(0.00101888 1.36569e-06 0)
(0.00101917 1.31641e-06 0)
(0.0010194 1.25897e-06 0)
(0.00101956 1.19672e-06 0)
(0.00101966 1.12457e-06 0)
(0.00101967 1.04789e-06 0)
(0.00101961 9.58619e-07 0)
(0.00101945 8.65595e-07 0)
(0.00101919 7.55805e-07 0)
(0.00101883 6.44023e-07 0)
(0.00101835 5.09504e-07 0)
(0.00101774 3.76877e-07 0)
(0.001017 2.13062e-07 0)
(0.00101611 5.77363e-08 0)
(0.00101506 -1.42966e-07 0)
(0.00101383 -3.2402e-07 0)
(0.00101241 -5.72231e-07 0)
(0.00101078 -7.80925e-07 0)
(0.00100893 -1.09103e-06 -3.95052e-38)
(0.00100683 -1.32727e-06 0)
(0.00100447 -1.71883e-06 0)
(0.001 -2.10875e-08 0)
(0.00100004 -6.17512e-08 0)
(0.00100013 -1.00751e-07 0)
(0.00100026 -1.37937e-07 0)
(0.00100043 -1.73162e-07 0)
(0.00100064 -2.06283e-07 0)
(0.00100089 -2.37165e-07 0)
(0.00100118 -2.65681e-07 0)
(0.00100151 -2.91718e-07 0)
(0.00100187 -3.15171e-07 0)
(0.00100228 -3.35948e-07 0)
(0.00100271 -3.53961e-07 0)
(0.00100318 -3.69141e-07 0)
(0.00100368 -3.81419e-07 0)
(0.0010042 -3.90743e-07 0)
(0.00100475 -3.97056e-07 0)
(0.00100532 -4.0032e-07 0)
(0.00100592 -4.00478e-07 0)
(0.00100653 -3.975e-07 0)
(0.00100717 -3.91326e-07 0)
(0.00100781 -3.81933e-07 0)
(0.00100847 -3.69249e-07 0)
(0.00100913 -3.53252e-07 0)
(0.00100981 -3.33841e-07 0)
(0.00101048 -3.10995e-07 0)
(0.00101116 -2.84568e-07 0)
(0.00101183 -2.54544e-07 0)
(0.0010125 -2.20716e-07 0)
(0.00101316 -1.83087e-07 0)
(0.00101381 -1.41355e-07 0)
(0.00101445 -9.5569e-08 0)
(0.00101507 -4.52883e-08 0)
(0.00101567 9.35236e-09 0)
(0.00101624 6.90029e-08 0)
(0.00101679 1.33365e-07 0)
(0.0010173 2.03405e-07 0)
(0.00101778 2.78536e-07 0)
(0.00101822 3.60184e-07 0)
(0.00101861 4.47303e-07 0)
(0.00101896 5.41986e-07 0)
(0.00101925 6.42526e-07 0)
(0.00101948 7.52271e-07 0)
(0.00101965 8.68382e-07 0)
(0.00101975 9.96114e-07 0)
(0.00101977 1.13042e-06 0)
(0.00101971 1.27934e-06 0)
(0.00101955 1.43437e-06 0)
(0.0010193 1.6082e-06 0)
(0.00101895 1.78666e-06 0)
(0.00101847 1.99013e-06 0)
(0.00101787 2.19526e-06 0)
(0.00101714 2.43455e-06 0)
(0.00101625 2.66991e-06 0)
(0.0010152 2.95393e-06 0)
(0.00101398 3.22375e-06 0)
(0.00101257 3.56433e-06 0)
(0.00101095 3.87194e-06 0)
(0.0010091 4.28489e-06 3.95052e-38)
(0.00100701 4.63148e-06 0)
(0.00100466 5.13756e-06 0)
(0.001 -7.92393e-08 0)
(0.00100005 -2.35975e-07 0)
(0.00100013 -3.90324e-07 0)
(0.00100026 -5.41633e-07 0)
(0.00100044 -6.89255e-07 0)
(0.00100066 -8.32549e-07 0)
(0.00100092 -9.70905e-07 0)
(0.00100122 -1.10374e-06 0)
(0.00100156 -1.23052e-06 0)
(0.00100194 -1.35074e-06 0)
(0.00100235 -1.46395e-06 0)
(0.0010028 -1.56972e-06 0)
(0.00100328 -1.66767e-06 0)
(0.00100379 -1.75746e-06 0)
(0.00100433 -1.83878e-06 0)
(0.0010049 -1.91134e-06 0)
(0.00100549 -1.9749e-06 0)
(0.00100611 -2.0292e-06 0)
(0.00100674 -2.07404e-06 0)
(0.00100739 -2.10917e-06 0)
(0.00100806 -2.13445e-06 0)
(0.00100873 -2.1496e-06 0)
(0.00100942 -2.15451e-06 0)
(0.00101011 -2.14884e-06 0)
(0.00101081 -2.1325e-06 0)
(0.00101151 -2.10507e-06 0)
(0.00101221 -2.06649e-06 0)
(0.0010129 -2.01617e-06 0)
(0.00101359 -1.95414e-06 0)
(0.00101427 -1.87958e-06 0)
(0.00101493 -1.79264e-06 0)
(0.00101558 -1.69213e-06 0)
(0.0010162 -1.57846e-06 0)
(0.00101681 -1.4499e-06 0)
(0.00101738 -1.3073e-06 0)
(0.00101793 -1.14806e-06 0)
(0.00101844 -9.73816e-07 0)
(0.00101891 -7.80683e-07 0)
(0.00101934 -5.71566e-07 0)
(0.00101973 -3.40596e-07 0)
(0.00102006 -9.28257e-08 0)
(0.00102034 1.80925e-07 0)
(0.00102055 4.72017e-07 0)
(0.0010207 7.94875e-07 0)
(0.00102077 1.13529e-06 0)
(0.00102077 1.51607e-06 0)
(0.00102068 1.9131e-06 0)
(0.00102049 2.36212e-06 0)
(0.00102021 2.82328e-06 0)
(0.00101981 3.35357e-06 0)
(0.00101929 3.88759e-06 0)
(0.00101865 4.51666e-06 0)
(0.00101786 5.13356e-06 0)
(0.00101692 5.88515e-06 0)
(0.00101582 6.59539e-06 0)
(0.00101454 7.50145e-06 0)
(0.00101305 8.31406e-06 0)
(0.00101137 9.41805e-06 0)
(0.00100943 1.03365e-05 0)
(0.00100726 1.16953e-05 0)
(0.001 -1.40244e-07 0)
(0.00100005 -4.18757e-07 0)
(0.00100014 -6.94106e-07 0)
(0.00100028 -9.65086e-07 0)
(0.00100047 -1.2305e-06 0)
(0.0010007 -1.48916e-06 0)
(0.00100098 -1.73995e-06 0)
(0.00100129 -1.98181e-06 0)
(0.00100166 -2.21375e-06 0)
(0.00100206 -2.43487e-06 0)
(0.0010025 -2.64435e-06 0)
(0.00100297 -2.84142e-06 0)
(0.00100348 -3.02544e-06 0)
(0.00100403 -3.19576e-06 0)
(0.0010046 -3.35188e-06 0)
(0.0010052 -3.49329e-06 0)
(0.00100583 -3.61957e-06 0)
(0.00100647 -3.73028e-06 0)
(0.00100714 -3.82511e-06 0)
(0.00100783 -3.90365e-06 0)
(0.00100854 -3.96565e-06 0)
(0.00100925 -4.01068e-06 0)
(0.00100998 -4.03854e-06 0)
(0.00101071 -4.04874e-06 0)
(0.00101145 -4.0411e-06 0)
(0.0010122 -4.01499e-06 0)
(0.00101294 -3.97031e-06 0)
(0.00101368 -3.90618e-06 0)
(0.00101441 -3.82261e-06 0)
(0.00101514 -3.71838e-06 0)
(0.00101585 -3.59367e-06 0)
(0.00101655 -3.44676e-06 0)
(0.00101723 -3.27817e-06 0)
(0.00101788 -3.08536e-06 0)
(0.00101852 -2.86949e-06 0)
(0.00101912 -2.6268e-06 0)
(0.0010197 -2.35951e-06 0)
(0.00102024 -2.06193e-06 0)
(0.00102074 -1.73815e-06 0)
(0.00102119 -1.3794e-06 0)
(0.0010216 -9.92938e-07 0)
(0.00102196 -5.65398e-07 0)
(0.00102226 -1.09215e-07 0)
(0.0010225 3.96297e-07 0)
(0.00102268 9.3062e-07 0)
(0.00102278 1.5264e-06 0)
(0.0010228 2.14995e-06 0)
(0.00102274 2.85259e-06 0)
(0.00102258 3.57821e-06 0)
(0.00102233 4.40794e-06 0)
(0.00102196 5.2495e-06 0)
(0.00102149 6.23256e-06 0)
(0.00102088 7.20589e-06 0)
(0.00102015 8.37743e-06 0)
(0.00101926 9.49937e-06 0)
(0.00101823 1.09065e-05 0)