/*--------------------------------*- C++ -*----------------------------------*\
| =========                 |                                                 |
| \\      /  F ield         | OpenFOAM: The Open Source CFD Toolbox           |
|  \\    /   O peration     | Version:  2312                                  |
|   \\  /    A nd           | Website:  www.openfoam.com                      |
|    \\/     M anipulation  |                                                 |
\*---------------------------------------------------------------------------*/
FoamFile
{
    version     2.0;
    format      ascii;
    arch        "LSB;label=32;scalar=64";
    class       volScalarField;
    location    "66000";
    object      p;
}
// * * * * * * * * * * * * * * * * * * * * * * * * * * * * * * * * * * * * * //

dimensions      [0 2 -2 0 0 0 0];

internalField   nonuniform List<scalar> 
10800
(
4.88281e-07
4.74158e-07
4.60391e-07
4.49813e-07
4.4239e-07
4.36999e-07
4.32548e-07
4.28468e-07
4.24592e-07
4.20927e-07
4.1751e-07
4.14345e-07
4.11398e-07
4.0862e-07
4.05964e-07
4.03398e-07
4.00898e-07
3.98453e-07
3.96051e-07
3.93683e-07
3.91342e-07
3.8902e-07
3.86709e-07
3.84404e-07
3.82101e-07
3.79797e-07
3.77487e-07
3.7517e-07
3.72844e-07
3.70506e-07
3.68156e-07
3.65792e-07
3.63415e-07
3.61023e-07
3.58616e-07
3.56196e-07
3.53761e-07
3.51312e-07
3.48849e-07
3.46374e-07
3.43886e-07
3.41386e-07
3.38873e-07
3.36348e-07
3.33812e-07
3.31262e-07
3.287e-07
3.26121e-07
3.23529e-07
3.2091e-07
3.18285e-07
3.15601e-07
3.12941e-07
3.10133e-07
3.07478e-07
3.04338e-07
3.01973e-07
2.97558e-07
2.97242e-07
2.86634e-07
4.40238e-07
4.38511e-07
4.35865e-07
4.3274e-07
4.29523e-07
4.26428e-07
4.23505e-07
4.20718e-07
4.18016e-07
4.15368e-07
4.1277e-07
4.10226e-07
4.07743e-07
4.05321e-07
4.02954e-07
4.00631e-07
3.98345e-07
3.96088e-07
3.93853e-07
3.91635e-07
3.8943e-07
3.87234e-07
3.85044e-07
3.82856e-07
3.80667e-07
3.78475e-07
3.76276e-07
3.7407e-07
3.71855e-07
3.69629e-07
3.67392e-07
3.65142e-07
3.62879e-07
3.60602e-07
3.58313e-07
3.56009e-07
3.53693e-07
3.5136e-07
3.49018e-07
3.46658e-07
3.44291e-07
3.41904e-07
3.39514e-07
3.37098e-07
3.34687e-07
3.3224e-07
3.29812e-07
3.27331e-07
3.24894e-07
3.22374e-07
3.19949e-07
3.17393e-07
3.15032e-07
3.12458e-07
3.10296e-07
3.07772e-07
3.06144e-07
3.03748e-07
3.03264e-07
3.00581e-07
4.31498e-07
4.30747e-07
4.29333e-07
4.27381e-07
4.25097e-07
4.22676e-07
4.20246e-07
4.17855e-07
4.15509e-07
4.13193e-07
4.10899e-07
4.08626e-07
4.0638e-07
4.04165e-07
4.01983e-07
3.99833e-07
3.9771e-07
3.9561e-07
3.93527e-07
3.91458e-07
3.894e-07
3.87349e-07
3.85303e-07
3.83261e-07
3.81218e-07
3.79174e-07
3.77126e-07
3.75073e-07
3.73014e-07
3.70946e-07
3.68871e-07
3.66786e-07
3.64691e-07
3.62585e-07
3.6047e-07
3.58342e-07
3.56205e-07
3.54054e-07
3.51895e-07
3.4972e-07
3.4754e-07
3.45342e-07
3.43141e-07
3.40919e-07
3.38699e-07
3.36452e-07
3.34216e-07
3.31944e-07
3.29698e-07
3.27405e-07
3.25162e-07
3.22852e-07
3.20632e-07
3.18316e-07
3.16156e-07
3.13846e-07
3.11797e-07
3.09501e-07
3.07603e-07
3.05226e-07
4.19764e-07
4.19331e-07
4.18544e-07
4.17454e-07
4.16129e-07
4.1464e-07
4.13045e-07
4.11383e-07
4.09675e-07
4.07932e-07
4.0616e-07
4.04365e-07
4.02553e-07
4.0073e-07
3.98901e-07
3.97069e-07
3.95235e-07
3.93401e-07
3.91565e-07
3.89726e-07
3.87885e-07
3.86041e-07
3.84194e-07
3.82342e-07
3.80485e-07
3.78622e-07
3.76754e-07
3.74878e-07
3.72996e-07
3.71105e-07
3.69207e-07
3.67301e-07
3.65387e-07
3.63465e-07
3.61534e-07
3.59594e-07
3.57647e-07
3.5569e-07
3.53726e-07
3.51752e-07
3.49771e-07
3.47778e-07
3.4578e-07
3.43767e-07
3.41749e-07
3.39714e-07
3.37672e-07
3.35609e-07
3.33539e-07
3.3144e-07
3.29335e-07
3.27191e-07
3.25044e-07
3.22847e-07
3.20653e-07
3.18395e-07
3.16148e-07
3.13821e-07
3.11521e-07
3.0914e-07
4.13065e-07
4.12851e-07
4.1242e-07
4.11774e-07
4.1093e-07
4.09916e-07
4.08764e-07
4.07507e-07
4.06167e-07
4.04763e-07
4.03306e-07
4.01805e-07
4.00268e-07
3.98701e-07
3.9711e-07
3.95499e-07
3.93873e-07
3.92235e-07
3.90585e-07
3.88926e-07
3.87259e-07
3.85583e-07
3.83901e-07
3.82211e-07
3.80516e-07
3.78814e-07
3.77106e-07
3.75392e-07
3.73672e-07
3.71948e-07
3.70218e-07
3.68482e-07
3.66742e-07
3.64998e-07
3.63248e-07
3.61495e-07
3.59737e-07
3.57975e-07
3.5621e-07
3.5444e-07
3.52666e-07
3.50888e-07
3.49106e-07
3.47318e-07
3.45524e-07
3.43724e-07
3.41916e-07
3.40099e-07
3.38271e-07
3.36429e-07
3.34568e-07
3.3268e-07
3.30757e-07
3.28785e-07
3.26748e-07
3.24633e-07
3.22429e-07
3.20147e-07
3.17789e-07
3.15452e-07
4.07546e-07
4.07384e-07
4.07059e-07
4.06574e-07
4.05941e-07
4.05175e-07
4.04293e-07
4.03315e-07
4.02256e-07
4.01128e-07
3.99941e-07
3.98703e-07
3.97421e-07
3.961e-07
3.94746e-07
3.93363e-07
3.91955e-07
3.90526e-07
3.89078e-07
3.87614e-07
3.86136e-07
3.84645e-07
3.83142e-07
3.8163e-07
3.80108e-07
3.78579e-07
3.77042e-07
3.75499e-07
3.7395e-07
3.72397e-07
3.70839e-07
3.69278e-07
3.67714e-07
3.66148e-07
3.6458e-07
3.63011e-07
3.6144e-07
3.5987e-07
3.58298e-07
3.56727e-07
3.55155e-07
3.53584e-07
3.5201e-07
3.50435e-07
3.48856e-07
3.47273e-07
3.45681e-07
3.44081e-07
3.42465e-07
3.40834e-07
3.39182e-07
3.37513e-07
3.35816e-07
3.341e-07
3.32338e-07
3.30534e-07
3.28654e-07
3.26719e-07
3.24725e-07
3.22799e-07
4.03202e-07
4.03083e-07
4.02845e-07
4.02489e-07
4.02019e-07
4.0144e-07
4.00764e-07
4e-07
3.99157e-07
3.98245e-07
3.97272e-07
3.96244e-07
3.95168e-07
3.94049e-07
3.92891e-07
3.91698e-07
3.90476e-07
3.89227e-07
3.87954e-07
3.8666e-07
3.85349e-07
3.84021e-07
3.82679e-07
3.81326e-07
3.79962e-07
3.78589e-07
3.77208e-07
3.75822e-07
3.74431e-07
3.73036e-07
3.71639e-07
3.70241e-07
3.68843e-07
3.67445e-07
3.66049e-07
3.64656e-07
3.63267e-07
3.61881e-07
3.605e-07
3.59125e-07
3.57756e-07
3.56392e-07
3.55035e-07
3.53684e-07
3.52338e-07
3.50999e-07
3.49664e-07
3.48334e-07
3.47002e-07
3.4567e-07
3.44324e-07
3.42963e-07
3.41574e-07
3.4016e-07
3.38711e-07
3.37239e-07
3.35723e-07
3.34187e-07
3.32629e-07
3.31162e-07
3.99752e-07
3.9966e-07
3.99475e-07
3.99196e-07
3.98824e-07
3.98365e-07
3.97822e-07
3.97201e-07
3.96511e-07
3.95755e-07
3.9494e-07
3.94071e-07
3.93154e-07
3.92192e-07
3.91191e-07
3.90155e-07
3.89087e-07
3.8799e-07
3.86869e-07
3.85725e-07
3.84561e-07
3.83381e-07
3.82186e-07
3.80978e-07
3.79759e-07
3.78532e-07
3.77298e-07
3.76059e-07
3.74816e-07
3.73572e-07
3.72327e-07
3.71084e-07
3.69843e-07
3.68606e-07
3.67375e-07
3.66151e-07
3.64935e-07
3.63729e-07
3.62533e-07
3.61348e-07
3.60176e-07
3.59017e-07
3.57871e-07
3.5674e-07
3.55622e-07
3.54519e-07
3.53428e-07
3.52351e-07
3.51285e-07
3.50234e-07
3.49192e-07
3.4816e-07
3.47124e-07
3.46088e-07
3.45039e-07
3.43987e-07
3.42922e-07
3.41869e-07
3.40837e-07
3.39929e-07
3.96991e-07
3.96915e-07
3.96764e-07
3.96535e-07
3.96231e-07
3.95852e-07
3.95402e-07
3.94885e-07
3.94305e-07
3.93667e-07
3.92974e-07
3.92231e-07
3.91442e-07
3.90611e-07
3.89741e-07
3.88836e-07
3.879e-07
3.86935e-07
3.85945e-07
3.84933e-07
3.83901e-07
3.82851e-07
3.81787e-07
3.8071e-07
3.79623e-07
3.78529e-07
3.77428e-07
3.76323e-07
3.75217e-07
3.74111e-07
3.73007e-07
3.71907e-07
3.70813e-07
3.69727e-07
3.6865e-07
3.67585e-07
3.66533e-07
3.65497e-07
3.64476e-07
3.63475e-07
3.62493e-07
3.61533e-07
3.60596e-07
3.59683e-07
3.58796e-07
3.57937e-07
3.57105e-07
3.56302e-07
3.55526e-07
3.54777e-07
3.54052e-07
3.53356e-07
3.52684e-07
3.52041e-07
3.5142e-07
3.50828e-07
3.50259e-07
3.49735e-07
3.49267e-07
3.48943e-07
3.94791e-07
3.94728e-07
3.946e-07
3.94407e-07
3.94149e-07
3.93828e-07
3.93445e-07
3.93004e-07
3.92507e-07
3.91958e-07
3.9136e-07
3.90715e-07
3.90028e-07
3.89301e-07
3.88537e-07
3.8774e-07
3.86913e-07
3.86058e-07
3.85178e-07
3.84276e-07
3.83356e-07
3.82418e-07
3.81467e-07
3.80503e-07
3.79531e-07
3.78552e-07
3.77568e-07
3.76582e-07
3.75596e-07
3.74613e-07
3.73634e-07
3.72663e-07
3.71701e-07
3.7075e-07
3.69813e-07
3.68893e-07
3.6799e-07
3.67109e-07
3.66251e-07
3.65419e-07
3.64614e-07
3.63839e-07
3.63097e-07
3.6239e-07
3.61721e-07
3.61091e-07
3.60503e-07
3.5996e-07
3.5946e-07
3.59008e-07
3.58603e-07
3.58252e-07
3.57952e-07
3.57711e-07
3.57524e-07
3.57401e-07
3.57339e-07
3.5736e-07
3.57476e-07
3.57762e-07
3.93066e-07
3.93011e-07
3.929e-07
3.92732e-07
3.92509e-07
3.92229e-07
3.91896e-07
3.91511e-07
3.91076e-07
3.90594e-07
3.90067e-07
3.89498e-07
3.8889e-07
3.88244e-07
3.87564e-07
3.86853e-07
3.86113e-07
3.85347e-07
3.84557e-07
3.83747e-07
3.82918e-07
3.82074e-07
3.81216e-07
3.80349e-07
3.79473e-07
3.78592e-07
3.77708e-07
3.76824e-07
3.75942e-07
3.75065e-07
3.74195e-07
3.73335e-07
3.72488e-07
3.71656e-07
3.70842e-07
3.70049e-07
3.6928e-07
3.68537e-07
3.67824e-07
3.67143e-07
3.66498e-07
3.65893e-07
3.65329e-07
3.64811e-07
3.64342e-07
3.63926e-07
3.63565e-07
3.63263e-07
3.63023e-07
3.62851e-07
3.6275e-07
3.62727e-07
3.62783e-07
3.62925e-07
3.63156e-07
3.63485e-07
3.63915e-07
3.64466e-07
3.65152e-07
3.66032e-07
3.91751e-07
3.91702e-07
3.91603e-07
3.91454e-07
3.91255e-07
3.91006e-07
3.90708e-07
3.90364e-07
3.89975e-07
3.89542e-07
3.89069e-07
3.88557e-07
3.88007e-07
3.87424e-07
3.86808e-07
3.86163e-07
3.85491e-07
3.84794e-07
3.84076e-07
3.83337e-07
3.82582e-07
3.81812e-07
3.81031e-07
3.8024e-07
3.79443e-07
3.78642e-07
3.77839e-07
3.77039e-07
3.76242e-07
3.75452e-07
3.74672e-07
3.73905e-07
3.73154e-07
3.72421e-07
3.7171e-07
3.71024e-07
3.70367e-07
3.69741e-07
3.69151e-07
3.68599e-07
3.6809e-07
3.67628e-07
3.67217e-07
3.66861e-07
3.66565e-07
3.66333e-07
3.66169e-07
3.66079e-07
3.66069e-07
3.66145e-07
3.66314e-07
3.66581e-07
3.66954e-07
3.67441e-07
3.68047e-07
3.68785e-07
3.69662e-07
3.70695e-07
3.71904e-07
3.73329e-07
3.90802e-07
3.90757e-07
3.90667e-07
3.90531e-07
3.90348e-07
3.9012e-07
3.89848e-07
3.89532e-07
3.89175e-07
3.88777e-07
3.88342e-07
3.8787e-07
3.87364e-07
3.86825e-07
3.86256e-07
3.8566e-07
3.85037e-07
3.84392e-07
3.83725e-07
3.83041e-07
3.8234e-07
3.81627e-07
3.80902e-07
3.8017e-07
3.79432e-07
3.78692e-07
3.77951e-07
3.77214e-07
3.76483e-07
3.7576e-07
3.7505e-07
3.74354e-07
3.73677e-07
3.73021e-07
3.7239e-07
3.71787e-07
3.71217e-07
3.70683e-07
3.70189e-07
3.69739e-07
3.69337e-07
3.68989e-07
3.68699e-07
3.68472e-07
3.68313e-07
3.68228e-07
3.68224e-07
3.68306e-07
3.68482e-07
3.6876e-07
3.69147e-07
3.69652e-07
3.70284e-07
3.71053e-07
3.7197e-07
3.73045e-07
3.74293e-07
3.75728e-07
3.77372e-07
3.79253e-07
3.90187e-07
3.90145e-07
3.9006e-07
3.89931e-07
3.8976e-07
3.89545e-07
3.89288e-07
3.88991e-07
3.88654e-07
3.88279e-07
3.87868e-07
3.87423e-07
3.86944e-07
3.86435e-07
3.85896e-07
3.85331e-07
3.84742e-07
3.8413e-07
3.83499e-07
3.8285e-07
3.82186e-07
3.81509e-07
3.80823e-07
3.8013e-07
3.79432e-07
3.78732e-07
3.78034e-07
3.7734e-07
3.76653e-07
3.75976e-07
3.75312e-07
3.74665e-07
3.74038e-07
3.73435e-07
3.72859e-07
3.72314e-07
3.71803e-07
3.71332e-07
3.70905e-07
3.70525e-07
3.70198e-07
3.69929e-07
3.69723e-07
3.69585e-07
3.69523e-07
3.69541e-07
3.69648e-07
3.6985e-07
3.70157e-07
3.70577e-07
3.71119e-07
3.71793e-07
3.72609e-07
3.73579e-07
3.74716e-07
3.76033e-07
3.77547e-07
3.79272e-07
3.8123e-07
3.8344e-07
3.89886e-07
3.89845e-07
3.89762e-07
3.89638e-07
3.89472e-07
3.89264e-07
3.89015e-07
3.88726e-07
3.88399e-07
3.88036e-07
3.87637e-07
3.87204e-07
3.86739e-07
3.86244e-07
3.85721e-07
3.85171e-07
3.84598e-07
3.84003e-07
3.83389e-07
3.82758e-07
3.82112e-07
3.81455e-07
3.80787e-07
3.80114e-07
3.79436e-07
3.78757e-07
3.7808e-07
3.77408e-07
3.76743e-07
3.76089e-07
3.75449e-07
3.74827e-07
3.74226e-07
3.7365e-07
3.73101e-07
3.72585e-07
3.72106e-07
3.71667e-07
3.71273e-07
3.70929e-07
3.7064e-07
3.70412e-07
3.70249e-07
3.70157e-07
3.70144e-07
3.70216e-07
3.70381e-07
3.70646e-07
3.71021e-07
3.71515e-07
3.72137e-07
3.72898e-07
3.7381e-07
3.74885e-07
3.76138e-07
3.77581e-07
3.79234e-07
3.81111e-07
3.83234e-07
3.85618e-07
3.89889e-07
3.89848e-07
3.89766e-07
3.89642e-07
3.89475e-07
3.89267e-07
3.89018e-07
3.8873e-07
3.88403e-07
3.88039e-07
3.8764e-07
3.87208e-07
3.86743e-07
3.86248e-07
3.85725e-07
3.85176e-07
3.84602e-07
3.84008e-07
3.83394e-07
3.82762e-07
3.82117e-07
3.81459e-07
3.80792e-07
3.80119e-07
3.79441e-07
3.78762e-07
3.78086e-07
3.77413e-07
3.76749e-07
3.76095e-07
3.75456e-07
3.74834e-07
3.74233e-07
3.73656e-07
3.73108e-07
3.72593e-07
3.72113e-07
3.71675e-07
3.71281e-07
3.70938e-07
3.70649e-07
3.70421e-07
3.70258e-07
3.70167e-07
3.70155e-07
3.70227e-07
3.70392e-07
3.70658e-07
3.71033e-07
3.71527e-07
3.7215e-07
3.72911e-07
3.73824e-07
3.749e-07
3.76153e-07
3.77597e-07
3.79251e-07
3.81129e-07
3.83253e-07
3.85637e-07
3.90197e-07
3.90155e-07
3.9007e-07
3.89942e-07
3.8977e-07
3.89556e-07
3.89299e-07
3.89002e-07
3.88665e-07
3.88291e-07
3.8788e-07
3.87434e-07
3.86956e-07
3.86447e-07
3.85909e-07
3.85344e-07
3.84755e-07
3.84143e-07
3.83512e-07
3.82863e-07
3.822e-07
3.81523e-07
3.80838e-07
3.80145e-07
3.79447e-07
3.78748e-07
3.7805e-07
3.77357e-07
3.7667e-07
3.75994e-07
3.75331e-07
3.74685e-07
3.74058e-07
3.73456e-07
3.7288e-07
3.72336e-07
3.71826e-07
3.71356e-07
3.70929e-07
3.7055e-07
3.70224e-07
3.69956e-07
3.69751e-07
3.69615e-07
3.69553e-07
3.69573e-07
3.69681e-07
3.69885e-07
3.70194e-07
3.70615e-07
3.71158e-07
3.71833e-07
3.72652e-07
3.73623e-07
3.74763e-07
3.76082e-07
3.77598e-07
3.79325e-07
3.81285e-07
3.83498e-07
3.90819e-07
3.90774e-07
3.90684e-07
3.90548e-07
3.90366e-07
3.90138e-07
3.89865e-07
3.8955e-07
3.89193e-07
3.88796e-07
3.8836e-07
3.87889e-07
3.87383e-07
3.86845e-07
3.86276e-07
3.8568e-07
3.85058e-07
3.84413e-07
3.83747e-07
3.83063e-07
3.82363e-07
3.8165e-07
3.80926e-07
3.80195e-07
3.79458e-07
3.78718e-07
3.77979e-07
3.77242e-07
3.76512e-07
3.7579e-07
3.75081e-07
3.74386e-07
3.7371e-07
3.73055e-07
3.72425e-07
3.71824e-07
3.71255e-07
3.70722e-07
3.70229e-07
3.69781e-07
3.69381e-07
3.69035e-07
3.68746e-07
3.68521e-07
3.68364e-07
3.68282e-07
3.68279e-07
3.68363e-07
3.68542e-07
3.68822e-07
3.69212e-07
3.6972e-07
3.70355e-07
3.71127e-07
3.72046e-07
3.73125e-07
3.74376e-07
3.75816e-07
3.77463e-07
3.79348e-07
3.91775e-07
3.91726e-07
3.91627e-07
3.91478e-07
3.91279e-07
3.9103e-07
3.90733e-07
3.90389e-07
3.9e-07
3.89568e-07
3.89095e-07
3.88583e-07
3.88034e-07
3.87451e-07
3.86836e-07
3.86192e-07
3.8552e-07
3.84824e-07
3.84106e-07
3.83368e-07
3.82614e-07
3.81845e-07
3.81064e-07
3.80274e-07
3.79478e-07
3.78678e-07
3.77877e-07
3.77077e-07
3.76282e-07
3.75493e-07
3.74715e-07
3.73949e-07
3.73199e-07
3.72468e-07
3.71759e-07
3.71075e-07
3.70419e-07
3.69795e-07
3.69207e-07
3.68657e-07
3.68151e-07
3.67691e-07
3.67283e-07
3.66929e-07
3.66635e-07
3.66406e-07
3.66245e-07
3.66158e-07
3.66152e-07
3.66231e-07
3.66403e-07
3.66675e-07
3.67052e-07
3.67542e-07
3.68153e-07
3.68895e-07
3.69777e-07
3.70816e-07
3.72029e-07
3.7346e-07
3.93096e-07
3.93041e-07
3.9293e-07
3.92763e-07
3.92539e-07
3.9226e-07
3.91927e-07
3.91542e-07
3.91108e-07
3.90626e-07
3.901e-07
3.89532e-07
3.88923e-07
3.88279e-07
3.87599e-07
3.86889e-07
3.8615e-07
3.85384e-07
3.84595e-07
3.83786e-07
3.82958e-07
3.82115e-07
3.81259e-07
3.80392e-07
3.79518e-07
3.78638e-07
3.77755e-07
3.76873e-07
3.75992e-07
3.75117e-07
3.74249e-07
3.73391e-07
3.72545e-07
3.71716e-07
3.70904e-07
3.70113e-07
3.69346e-07
3.68606e-07
3.67895e-07
3.67217e-07
3.66575e-07
3.65972e-07
3.65411e-07
3.64897e-07
3.64431e-07
3.64018e-07
3.63662e-07
3.63363e-07
3.63128e-07
3.6296e-07
3.62863e-07
3.62844e-07
3.62905e-07
3.63053e-07
3.63289e-07
3.63624e-07
3.6406e-07
3.64617e-07
3.6531e-07
3.66196e-07
3.94828e-07
3.94764e-07
3.94636e-07
3.94444e-07
3.94186e-07
3.93865e-07
3.93483e-07
3.93042e-07
3.92546e-07
3.91997e-07
3.91399e-07
3.90755e-07
3.90068e-07
3.89342e-07
3.88579e-07
3.87783e-07
3.86957e-07
3.86103e-07
3.85224e-07
3.84323e-07
3.83404e-07
3.82468e-07
3.81517e-07
3.80556e-07
3.79585e-07
3.78607e-07
3.77625e-07
3.76641e-07
3.75657e-07
3.74676e-07
3.73699e-07
3.7273e-07
3.7177e-07
3.70822e-07
3.69887e-07
3.68969e-07
3.6807e-07
3.67192e-07
3.66336e-07
3.65507e-07
3.64706e-07
3.63935e-07
3.63196e-07
3.62493e-07
3.61827e-07
3.61202e-07
3.60618e-07
3.60079e-07
3.59585e-07
3.59138e-07
3.58738e-07
3.58392e-07
3.58099e-07
3.57863e-07
3.57683e-07
3.57566e-07
3.57512e-07
3.57539e-07
3.57663e-07
3.57957e-07
3.97033e-07
3.96957e-07
3.96806e-07
3.96578e-07
3.96273e-07
3.95895e-07
3.95445e-07
3.94929e-07
3.94349e-07
3.93712e-07
3.93019e-07
3.92277e-07
3.91489e-07
3.90658e-07
3.8979e-07
3.88886e-07
3.87951e-07
3.86987e-07
3.85999e-07
3.84987e-07
3.83957e-07
3.82909e-07
3.81846e-07
3.80771e-07
3.79686e-07
3.78593e-07
3.77494e-07
3.76391e-07
3.75287e-07
3.74183e-07
3.73082e-07
3.71984e-07
3.70893e-07
3.6981e-07
3.68736e-07
3.67674e-07
3.66625e-07
3.65592e-07
3.64575e-07
3.63577e-07
3.62599e-07
3.61643e-07
3.6071e-07
3.59802e-07
3.58919e-07
3.58065e-07
3.57238e-07
3.5644e-07
3.55669e-07
3.54926e-07
3.54207e-07
3.53517e-07
3.52852e-07
3.52216e-07
3.51602e-07
3.51018e-07
3.50457e-07
3.49941e-07
3.49482e-07
3.49166e-07
3.998e-07
3.99707e-07
3.99522e-07
3.99243e-07
3.98872e-07
3.98413e-07
3.9787e-07
3.97251e-07
3.9656e-07
3.95805e-07
3.94991e-07
3.94123e-07
3.93206e-07
3.92246e-07
3.91246e-07
3.90211e-07
3.89144e-07
3.88048e-07
3.86928e-07
3.85786e-07
3.84624e-07
3.83445e-07
3.82252e-07
3.81046e-07
3.79829e-07
3.78604e-07
3.77372e-07
3.76135e-07
3.74895e-07
3.73653e-07
3.72411e-07
3.71171e-07
3.69933e-07
3.68699e-07
3.67472e-07
3.66251e-07
3.65039e-07
3.63836e-07
3.62644e-07
3.61463e-07
3.60295e-07
3.5914e-07
3.57999e-07
3.56873e-07
3.5576e-07
3.54662e-07
3.53577e-07
3.52505e-07
3.51446e-07
3.50401e-07
3.49365e-07
3.4834e-07
3.47312e-07
3.46284e-07
3.45242e-07
3.44199e-07
3.43142e-07
3.42098e-07
3.41076e-07
3.40177e-07
4.03254e-07
4.03135e-07
4.02897e-07
4.02542e-07
4.02071e-07
4.01494e-07
4.00818e-07
4.00054e-07
3.99212e-07
3.983e-07
3.97328e-07
3.96301e-07
3.95226e-07
3.94108e-07
3.92951e-07
3.9176e-07
3.90539e-07
3.89291e-07
3.88019e-07
3.86728e-07
3.85418e-07
3.84092e-07
3.82752e-07
3.81401e-07
3.80039e-07
3.78668e-07
3.7729e-07
3.75906e-07
3.74518e-07
3.73126e-07
3.71732e-07
3.70337e-07
3.68942e-07
3.67547e-07
3.66155e-07
3.64766e-07
3.6338e-07
3.61999e-07
3.60622e-07
3.59251e-07
3.57886e-07
3.56528e-07
3.55175e-07
3.5383e-07
3.5249e-07
3.51156e-07
3.49827e-07
3.48503e-07
3.47178e-07
3.45852e-07
3.44513e-07
3.4316e-07
3.41779e-07
3.40374e-07
3.38933e-07
3.3747e-07
3.35964e-07
3.34437e-07
3.32889e-07
3.31432e-07
4.07603e-07
4.0744e-07
4.07115e-07
4.06631e-07
4.05998e-07
4.05232e-07
4.04352e-07
4.03374e-07
4.02315e-07
4.01188e-07
4.00002e-07
3.98765e-07
3.97484e-07
3.96164e-07
3.94811e-07
3.93429e-07
3.92023e-07
3.90595e-07
3.89149e-07
3.87687e-07
3.86211e-07
3.84722e-07
3.83221e-07
3.81711e-07
3.80192e-07
3.78664e-07
3.7713e-07
3.7559e-07
3.74044e-07
3.72494e-07
3.70939e-07
3.69382e-07
3.67821e-07
3.66258e-07
3.64694e-07
3.63129e-07
3.61563e-07
3.59996e-07
3.5843e-07
3.56863e-07
3.55297e-07
3.5373e-07
3.52162e-07
3.50593e-07
3.4902e-07
3.47443e-07
3.45858e-07
3.44264e-07
3.42655e-07
3.41032e-07
3.39388e-07
3.37726e-07
3.36038e-07
3.3433e-07
3.32576e-07
3.30782e-07
3.28911e-07
3.26986e-07
3.25003e-07
3.23088e-07
4.13125e-07
4.12911e-07
4.1248e-07
4.11834e-07
4.1099e-07
4.09977e-07
4.08826e-07
4.07569e-07
4.0623e-07
4.04827e-07
4.0337e-07
4.01871e-07
4.00335e-07
3.98769e-07
3.97179e-07
3.9557e-07
3.93946e-07
3.92309e-07
3.90661e-07
3.89004e-07
3.87338e-07
3.85665e-07
3.83985e-07
3.82298e-07
3.80604e-07
3.78905e-07
3.772e-07
3.75489e-07
3.73772e-07
3.72051e-07
3.70324e-07
3.68592e-07
3.66856e-07
3.65115e-07
3.6337e-07
3.6162e-07
3.59867e-07
3.5811e-07
3.56349e-07
3.54585e-07
3.52816e-07
3.51044e-07
3.49267e-07
3.47485e-07
3.45697e-07
3.43904e-07
3.42103e-07
3.40293e-07
3.38472e-07
3.36637e-07
3.34784e-07
3.32905e-07
3.30989e-07
3.29027e-07
3.26999e-07
3.24894e-07
3.22701e-07
3.20429e-07
3.18082e-07
3.15756e-07
4.19827e-07
4.19394e-07
4.18607e-07
4.17517e-07
4.16193e-07
4.14704e-07
4.1311e-07
4.11449e-07
4.09742e-07
4.08e-07
4.06229e-07
4.04435e-07
4.02624e-07
4.00802e-07
3.98974e-07
3.97144e-07
3.95312e-07
3.93479e-07
3.91644e-07
3.89808e-07
3.87969e-07
3.86127e-07
3.84282e-07
3.82432e-07
3.80578e-07
3.78718e-07
3.76852e-07
3.7498e-07
3.73101e-07
3.71214e-07
3.69319e-07
3.67417e-07
3.65507e-07
3.63588e-07
3.61662e-07
3.59726e-07
3.57784e-07
3.55832e-07
3.53873e-07
3.51904e-07
3.49928e-07
3.47942e-07
3.45949e-07
3.43943e-07
3.41931e-07
3.39903e-07
3.37868e-07
3.35812e-07
3.3375e-07
3.31659e-07
3.29562e-07
3.27428e-07
3.25289e-07
3.23102e-07
3.20917e-07
3.1867e-07
3.16433e-07
3.14117e-07
3.11827e-07
3.09457e-07
4.31563e-07
4.30813e-07
4.29399e-07
4.27447e-07
4.25163e-07
4.22743e-07
4.20313e-07
4.17924e-07
4.15578e-07
4.13263e-07
4.1097e-07
4.08698e-07
4.06453e-07
4.04239e-07
4.02059e-07
3.99911e-07
3.9779e-07
3.95691e-07
3.9361e-07
3.91543e-07
3.89487e-07
3.87438e-07
3.85395e-07
3.83355e-07
3.81315e-07
3.79273e-07
3.77229e-07
3.75179e-07
3.73123e-07
3.71059e-07
3.68987e-07
3.66905e-07
3.64815e-07
3.62713e-07
3.60602e-07
3.58479e-07
3.56346e-07
3.542e-07
3.52047e-07
3.49878e-07
3.47703e-07
3.45511e-07
3.43316e-07
3.411e-07
3.38887e-07
3.36647e-07
3.34418e-07
3.32154e-07
3.29916e-07
3.27631e-07
3.25396e-07
3.23095e-07
3.20885e-07
3.18577e-07
3.16427e-07
3.14128e-07
3.12089e-07
3.09804e-07
3.07917e-07
3.05552e-07
4.40305e-07
4.38578e-07
4.35933e-07
4.32807e-07
4.29591e-07
4.26497e-07
4.23574e-07
4.20788e-07
4.18086e-07
4.1544e-07
4.12842e-07
4.103e-07
4.07818e-07
4.05398e-07
4.03032e-07
4.00711e-07
3.98427e-07
3.96171e-07
3.93938e-07
3.91722e-07
3.89519e-07
3.87326e-07
3.85138e-07
3.82953e-07
3.80767e-07
3.78577e-07
3.76382e-07
3.74179e-07
3.71967e-07
3.69745e-07
3.67511e-07
3.65265e-07
3.63006e-07
3.60734e-07
3.58449e-07
3.56149e-07
3.53838e-07
3.51511e-07
3.49174e-07
3.4682e-07
3.44459e-07
3.42077e-07
3.39693e-07
3.37284e-07
3.3488e-07
3.3244e-07
3.3002e-07
3.27546e-07
3.25117e-07
3.22606e-07
3.20189e-07
3.17642e-07
3.1529e-07
3.12726e-07
3.10575e-07
3.0806e-07
3.06444e-07
3.04059e-07
3.03586e-07
3.00914e-07
4.88349e-07
4.74226e-07
4.60459e-07
4.49882e-07
4.42459e-07
4.37068e-07
4.32618e-07
4.28539e-07
4.24664e-07
4.21e-07
4.17584e-07
4.1442e-07
4.11475e-07
4.08698e-07
4.06044e-07
4.03479e-07
4.00981e-07
3.98537e-07
3.96137e-07
3.93772e-07
3.91433e-07
3.89113e-07
3.86805e-07
3.84503e-07
3.82203e-07
3.79901e-07
3.77594e-07
3.75281e-07
3.72957e-07
3.70623e-07
3.68277e-07
3.65917e-07
3.63543e-07
3.61156e-07
3.58754e-07
3.56338e-07
3.53908e-07
3.51464e-07
3.49007e-07
3.46537e-07
3.44055e-07
3.41561e-07
3.39055e-07
3.36537e-07
3.34007e-07
3.31464e-07
3.2891e-07
3.26338e-07
3.23755e-07
3.21144e-07
3.18527e-07
3.15853e-07
3.13202e-07
3.10403e-07
3.07758e-07
3.04628e-07
3.02274e-07
2.97869e-07
2.97565e-07
2.86968e-07
3.26513e-07
2.75947e-07
2.55041e-07
2.37457e-07
2.19845e-07
2.02076e-07
1.82246e-07
1.61056e-07
1.36326e-07
1.09717e-07
7.87454e-08
4.63331e-08
9.43231e-09
-2.75826e-08
-6.85546e-08
-1.07548e-07
-1.49819e-07
-1.87728e-07
-2.28437e-07
-2.62446e-07
-2.99103e-07
-3.27101e-07
-3.58035e-07
-3.78427e-07
-4.03308e-07
-4.13762e-07
-4.36789e-07
-4.32757e-07
-4.62318e-07
-5.53156e-07
3.12621e-07
2.57496e-07
2.43585e-07
2.28573e-07
2.11634e-07
1.94276e-07
1.74753e-07
1.53712e-07
1.29177e-07
1.02926e-07
7.25871e-08
4.10329e-08
5.30933e-09
-3.0378e-08
-6.98149e-08
-1.07336e-07
-1.47804e-07
-1.84234e-07
-2.23115e-07
-2.56195e-07
-2.91696e-07
-3.19069e-07
-3.50227e-07
-3.69922e-07
-3.9651e-07
-4.06904e-07
-4.28653e-07
-4.35794e-07
-4.39177e-07
-5.85251e-07
3.00431e-07
2.55033e-07
2.42165e-07
2.27627e-07
2.1019e-07
1.9185e-07
1.71807e-07
1.50424e-07
1.25841e-07
9.94598e-08
6.93592e-08
3.78992e-08
2.74409e-09
-3.2591e-08
-7.11208e-08
-1.08047e-07
-1.47523e-07
-1.83598e-07
-2.21948e-07
-2.54614e-07
-2.89762e-07
-3.17119e-07
-3.47307e-07
-3.68787e-07
-3.92892e-07
-4.09583e-07
-4.25763e-07
-4.48505e-07
-4.26374e-07
-5.27846e-07
2.90256e-07
2.50933e-07
2.35989e-07
2.21971e-07
2.05242e-07
1.87488e-07
1.67641e-07
1.46091e-07
1.21568e-07
9.50247e-08
6.52598e-08
3.38109e-08
-5.75362e-10
-3.57127e-08
-7.3016e-08
-1.0974e-07
-1.47684e-07
-1.83703e-07
-2.19959e-07
-2.53247e-07
-2.85842e-07
-3.15485e-07
-3.42977e-07
-3.68153e-07
-3.88538e-07
-4.12009e-07
-4.18987e-07
-4.53016e-07
-4.24079e-07
-4.93593e-07
2.80432e-07
2.48344e-07
2.32523e-07
2.1963e-07
2.03455e-07
1.84932e-07
1.64569e-07
1.4245e-07
1.17888e-07
9.0932e-08
6.14216e-08
2.96943e-08
-3.98571e-09
-3.92325e-08
-7.53323e-08
-1.12127e-07
-1.48422e-07
-1.84683e-07
-2.1898e-07
-2.53231e-07
-2.83739e-07
-3.15206e-07
-3.39885e-07
-3.68702e-07
-3.8487e-07
-4.13327e-07
-4.1601e-07
-4.49693e-07
-4.32378e-07
-4.67144e-07
2.71833e-07
2.46617e-07
2.29954e-07
2.16611e-07
2.00709e-07
1.82085e-07
1.61536e-07
1.38928e-07
1.14245e-07
8.6851e-08
5.74692e-08
2.54149e-08
-7.72647e-09
-4.31324e-08
-7.82075e-08
-1.15084e-07
-1.49894e-07
-1.86392e-07
-2.18913e-07
-2.53819e-07
-2.82353e-07
-3.15014e-07
-3.3788e-07
-3.68302e-07
-3.83398e-07
-4.12134e-07
-4.1749e-07
-4.44279e-07
-4.4368e-07
-4.59325e-07
2.64793e-07
2.45108e-07
2.2832e-07
2.1414e-07
1.98357e-07
1.79662e-07
1.5886e-07
1.35684e-07
1.10696e-07
8.28248e-08
5.33758e-08
2.10147e-08
-1.18429e-08
-4.73023e-08
-8.16886e-08
-1.18397e-07
-1.52191e-07
-1.88452e-07
-2.19869e-07
-2.54563e-07
-2.8226e-07
-3.14717e-07
-3.3761e-07
-3.6734e-07
-3.84412e-07
-4.10398e-07
-4.21851e-07
-4.4173e-07
-4.50498e-07
-4.61185e-07
2.59538e-07
2.43701e-07
2.27414e-07
2.12276e-07
1.96245e-07
1.77402e-07
1.56277e-07
1.32549e-07
1.07083e-07
7.87626e-08
4.9037e-08
1.6471e-08
-1.63871e-08
-5.17094e-08
-8.57873e-08
-1.21997e-07
-1.55303e-07
-1.90781e-07
-2.21818e-07
-2.55497e-07
-2.83363e-07
-3.14524e-07
-3.3868e-07
-3.66482e-07
-3.86552e-07
-4.09627e-07
-4.25762e-07
-4.425e-07
-4.55155e-07
-4.65702e-07
2.56149e-07
2.42397e-07
2.26763e-07
2.10973e-07
1.94383e-07
1.75227e-07
1.53684e-07
1.29437e-07
1.03358e-07
7.46076e-08
4.44309e-08
1.17396e-08
-2.13401e-08
-5.63831e-08
-9.04349e-08
-1.25922e-07
-1.59095e-07
-1.93464e-07
-2.24528e-07
-2.56816e-07
-2.852e-07
-3.14787e-07
-3.40215e-07
-3.66377e-07
-3.88548e-07
-4.10326e-07
-4.28775e-07
-4.45374e-07
-4.59433e-07
-4.71363e-07
2.5439e-07
2.41258e-07
2.26187e-07
2.10038e-07
1.92731e-07
1.73073e-07
1.50989e-07
1.26227e-07
9.94604e-08
7.02706e-08
3.95402e-08
6.73742e-09
-2.6668e-08
-6.13968e-08
-9.55314e-08
-1.30251e-07
-1.63375e-07
-1.96614e-07
-2.27695e-07
-2.58674e-07
-2.87348e-07
-3.1569e-07
-3.41798e-07
-3.67091e-07
-3.9026e-07
-4.11873e-07
-4.31369e-07
-4.48698e-07
-4.63901e-07
-4.7729e-07
2.53784e-07
2.40433e-07
2.25579e-07
2.09183e-07
1.91155e-07
1.70855e-07
1.48113e-07
1.22799e-07
9.53222e-08
6.56533e-08
3.43387e-08
1.37672e-09
-3.23547e-08
-6.68274e-08
-1.01008e-07
-1.35053e-07
-1.68016e-07
-2.00291e-07
-2.31156e-07
-2.611e-07
-2.89665e-07
-3.1717e-07
-3.43391e-07
-3.683e-07
-3.91854e-07
-4.13701e-07
-4.33916e-07
-4.52121e-07
-4.68532e-07
-4.83284e-07
2.53748e-07
2.39961e-07
2.24947e-07
2.08209e-07
1.89478e-07
1.68457e-07
1.44978e-07
1.19047e-07
9.08591e-08
6.06602e-08
2.87698e-08
-4.42203e-09
-3.84347e-08
-7.27399e-08
-1.06873e-07
-1.40371e-07
-1.73018e-07
-2.04498e-07
-2.34919e-07
-2.64035e-07
-2.92196e-07
-3.19073e-07
-3.451e-07
-3.69783e-07
-3.93494e-07
-4.15643e-07
-4.36487e-07
-4.55548e-07
-4.7311e-07
-4.8924e-07
2.53879e-07
2.39696e-07
2.24248e-07
2.06991e-07
1.87541e-07
1.65761e-07
1.41503e-07
1.14882e-07
8.59755e-08
5.51933e-08
2.27419e-08
-1.07455e-08
-4.49941e-08
-7.92058e-08
-1.1321e-07
-1.46252e-07
-1.78465e-07
-2.09249e-07
-2.39079e-07
-2.67447e-07
-2.95048e-07
-3.21336e-07
-3.47031e-07
-3.71469e-07
-3.9526e-07
-4.17633e-07
-4.39092e-07
-4.58879e-07
-4.77603e-07
-4.94923e-07
2.53928e-07
2.39428e-07
2.23396e-07
2.05462e-07
1.8525e-07
1.62677e-07
1.37605e-07
1.10221e-07
8.05657e-08
4.91428e-08
1.6132e-08
-1.77051e-08
-5.21623e-08
-8.63302e-08
-1.20152e-07
-1.52782e-07
-1.84488e-07
-2.14606e-07
-2.43751e-07
-2.7138e-07
-2.98313e-07
-3.23987e-07
-3.49239e-07
-3.73377e-07
-3.97143e-07
-4.19679e-07
-4.41652e-07
-4.6212e-07
-4.81893e-07
-5.00364e-07
2.53804e-07
2.38963e-07
2.22303e-07
2.03607e-07
1.82574e-07
1.59147e-07
1.33201e-07
1.04966e-07
7.45059e-08
4.23759e-08
8.7851e-09
-2.54481e-08
-6.01082e-08
-9.42601e-08
-1.27868e-07
-1.60091e-07
-1.91238e-07
-2.20674e-07
-2.49063e-07
-2.75909e-07
-3.0208e-07
-3.27066e-07
-3.51761e-07
-3.7551e-07
-3.99129e-07
-4.21739e-07
-4.44116e-07
-4.65197e-07
-4.85942e-07
-5.05476e-07
2.53564e-07
2.38263e-07
2.20954e-07
2.01448e-07
1.79511e-07
1.55122e-07
1.28197e-07
9.89967e-08
6.76448e-08
3.47269e-08
5.12885e-10
-3.41615e-08
-6.90313e-08
-1.03179e-07
-1.36546e-07
-1.68342e-07
-1.98875e-07
-2.27581e-07
-2.55134e-07
-2.81119e-07
-3.0642e-07
-3.30616e-07
-3.54615e-07
-3.77856e-07
-4.01166e-07
-4.23748e-07
-4.46373e-07
-4.68008e-07
-4.89606e-07
-5.10181e-07
2.53392e-07
2.37414e-07
2.19397e-07
1.99011e-07
1.76044e-07
1.50528e-07
1.22461e-07
9.21485e-08
5.97885e-08
2.59873e-08
-8.90906e-09
-4.40676e-08
-7.91545e-08
-1.13292e-07
-1.4638e-07
-1.77703e-07
-2.07552e-07
-2.35448e-07
-2.62073e-07
-2.87087e-07
-3.11399e-07
-3.34661e-07
-3.57813e-07
-3.80379e-07
-4.032e-07
-4.25596e-07
-4.48287e-07
-4.70384e-07
-4.92682e-07
-5.14309e-07
2.53541e-07
2.36585e-07
2.1768e-07
1.96252e-07
1.72058e-07
1.45198e-07
1.15786e-07
8.41858e-08
5.06825e-08
1.58958e-08
-1.97451e-08
-5.54202e-08
-9.07191e-08
-1.24819e-07
-1.5757e-07
-1.88348e-07
-2.1742e-07
-2.44405e-07
-2.69986e-07
-2.93898e-07
-3.17085e-07
-3.39238e-07
-3.61379e-07
-3.8305e-07
-4.052e-07
-4.27161e-07
-4.49741e-07
-4.72085e-07
-4.94958e-07
-5.17506e-07
2.54135e-07
2.35887e-07
2.15759e-07
1.92977e-07
1.67283e-07
1.38831e-07
1.07856e-07
7.4787e-08
3.99996e-08
4.13008e-09
-3.23084e-08
-6.85128e-08
-1.03999e-07
-1.38009e-07
-1.70342e-07
-2.00482e-07
-2.28661e-07
-2.54617e-07
-2.79013e-07
-3.0168e-07
-3.23575e-07
-3.44437e-07
-3.65368e-07
-3.85899e-07
-4.07145e-07
-4.28372e-07
-4.50597e-07
-4.72875e-07
-4.96104e-07
-5.19318e-07
2.54945e-07
2.35145e-07
2.13309e-07
1.88754e-07
1.61249e-07
1.30964e-07
9.82211e-08
6.35097e-08
2.73052e-08
-9.73007e-09
-4.70016e-08
-8.37239e-08
-1.1935e-07
-1.53193e-07
-1.85008e-07
-2.14398e-07
-2.41549e-07
-2.66341e-07
-2.89384e-07
-3.10648e-07
-3.31042e-07
-3.50413e-07
-3.69878e-07
-3.88999e-07
-4.09045e-07
-4.29173e-07
-4.50728e-07
-4.72469e-07
-4.95744e-07
-5.19068e-07
2.55193e-07
2.33565e-07
2.09682e-07
1.83003e-07
1.53375e-07
1.21003e-07
8.62797e-08
4.97567e-08
1.201e-08
-2.62595e-08
-6.43809e-08
-1.01584e-07
-1.37276e-07
-1.70845e-07
-2.02019e-07
-2.30519e-07