/*--------------------------------*- C++ -*----------------------------------*\
| =========                 |                                                 |
| \\      /  F ield         | OpenFOAM: The Open Source CFD Toolbox           |
|  \\    /   O peration     | Version:  2312                                  |
|   \\  /    A nd           | Website:  www.openfoam.com                      |
|    \\/     M anipulation  |                                                 |
\*---------------------------------------------------------------------------*/
FoamFile
{
    version     2.0;
    format      ascii;
    arch        "LSB;label=32;scalar=64";
    class       volVectorField;
    location    "121000";
    object      U;
}
// * * * * * * * * * * * * * * * * * * * * * * * * * * * * * * * * * * * * * //

dimensions      [0 1 -1 0 0 0 0];

internalField   nonuniform List<vector> 
2715
(
(0.000267534 2.90797e-05 1.10113e-24)
(0.000278521 -3.56426e-06 0)
(0.000243376 -2.63971e-06 0)
(0.000228201 -3.38053e-06 0)
(0.000220283 -3.38879e-06 -2.59595e-23)
(0.000225135 -4.26476e-06 2.54003e-23)
(0.000226784 -4.3858e-06 0)
(0.000240654 -5.31428e-06 6.62586e-25)
(0.000246669 -4.86954e-06 0)
(0.000266491 -5.49346e-06 0)
(0.000273861 -4.53165e-06 -2.0652e-25)
(0.00029662 -4.8169e-06 0)
(0.00030258 -3.26733e-06 -4.91721e-26)
(0.000325371 -3.19054e-06 0)
(0.000327348 -1.08508e-06 1.8765e-24)
(0.000347947 -5.61519e-07 -1.87697e-24)
(0.000344468 1.60932e-06 0)
(0.000361658 1.76334e-06 -1.06338e-25)
(0.00035242 3.46578e-06 0)
(0.000365991 3.23822e-06 0)
(0.000351972 5.30525e-06 0)
(0.000361926 3.93947e-06 0)
(0.000344648 6.97947e-06 9.66793e-25)
(0.000350563 4.75838e-06 0)
(0.000331443 6.78342e-06 -3.81755e-23)
(0.000332554 8.92372e-06 3.67454e-23)
(0.000313384 8.67482e-07 0)
(0.000293803 1.51139e-05 0)
(0.000330327 5.59057e-05 0)
(-5.47539e-05 -7.06368e-05 1.6789e-24)
(0.000530684 4.85497e-05 6.4504e-23)
(0.000582818 1.31806e-05 -6.82686e-23)
(0.0005559 1.60233e-05 1.83356e-24)
(0.000550172 8.52131e-06 0)
(0.000540815 3.16644e-06 0)
(0.000555724 -1.32152e-06 2.50501e-23)
(0.000555361 -2.53732e-06 -2.07533e-24)
(0.000584904 -5.905e-06 -2.3212e-23)
(0.000590106 -5.63496e-06 -5.8941e-25)
(0.00063122 -8.53159e-06 0)
(0.000638561 -6.91687e-06 -5.19506e-24)
(0.000687118 -9.61849e-06 5.83983e-24)
(0.000693152 -6.73296e-06 -1.0445e-24)
(0.000744615 -9.43226e-06 1.04636e-24)
(0.000746026 -5.37329e-06 5.93135e-24)
(0.00079622 -8.32164e-06 -6.8448e-24)
(0.000790586 -3.20067e-06 -2.00176e-24)
(0.000836156 -7.18981e-06 3.0831e-24)
(0.000823153 -4.41055e-07 -9.86783e-24)
(0.000862035 -5.93855e-06 1.04975e-23)
(0.000843721 2.86224e-06 0)
(0.00087208 -4.71802e-06 -8.73248e-25)
(0.000854843 6.00719e-06 3.15716e-23)
(0.000862874 -4.31144e-06 2.75541e-24)
(0.000863023 1.13883e-05 -3.36572e-23)
(0.000821474 -8.65364e-06 0)
(0.000888115 3.22017e-05 0)
(0.000690578 -4.07673e-05 2.6094e-24)
(0.00100887 0.000112024 9.58411e-23)
(0.000399246 -5.3216e-05 -9.90292e-23)
(0.000706636 4.80928e-05 4.33699e-24)
(0.000757935 1.9576e-06 -5.8778e-23)
(0.000749009 2.97389e-06 5.95091e-23)
(0.000759414 -2.71508e-06 3.57211e-24)
(0.000756318 -7.42359e-06 0)
(0.000780499 -1.43113e-05 0)
(0.000781007 -1.6024e-05 -1.47252e-24)
(0.000817014 -2.16155e-05 0)
(0.00082178 -2.10069e-05 -9.48204e-24)
(0.000868964 -2.62223e-05 1.51673e-24)
(0.000876706 -2.30049e-05 1.32705e-23)
(0.000931427 -2.77697e-05 -5.83336e-24)
(0.000939827 -2.15611e-05 0)
(0.000997409 -2.61634e-05 0)
(0.00100412 -1.688e-05 1.03852e-23)
(0.00105971 -2.231e-05 -1.04034e-23)
(0.00106343 -9.88222e-06 -1.59708e-25)
(0.00111259 -1.73107e-05 0)
(0.00111445 -9.85074e-07 1.00608e-23)
(0.00115197 -1.24531e-05 -2.19304e-23)
(0.00115635 8.88676e-06 -1.75311e-24)
(0.00117418 -1.00287e-05 1.26397e-23)
(0.00119136 2.12363e-05 0)
(0.00117495 -1.19406e-05 -2.13038e-24)
(0.00122574 3.97739e-05 0)
(0.00114482 -2.33111e-05 0)
(0.00127322 7.47983e-05 5.00552e-24)
(0.00106876 -4.86666e-05 -8.76467e-23)
(0.00135065 0.000121359 8.66707e-23)
(0.000988766 -3.94355e-05 6.1522e-24)
(0.000838859 3.47496e-05 6.16854e-23)
(0.000881821 -3.18383e-06 -1.2821e-22)
(0.000882456 -2.66922e-06 3.62549e-23)
(0.00089869 -7.07575e-06 2.61257e-23)
(0.000900255 -1.1229e-05 0)
(0.000926614 -2.01284e-05 3.22447e-24)
(0.000931929 -2.25708e-05 -1.4654e-24)
(0.000967314 -3.08083e-05 0)
(0.000976983 -3.00774e-05 1.22048e-24)
(0.00102016 -3.80384e-05 -7.41536e-24)
(0.00103397 -3.36129e-05 7.03146e-24)
(0.00108187 -4.13338e-05 0)
(0.0010987 -3.26291e-05 -1.0027e-24)
(0.00114709 -4.06741e-05 1.01026e-24)
(0.00116575 -2.73356e-05 1.56864e-23)
(0.00120992 -3.69933e-05 -1.67453e-23)
(0.00123018 -1.85429e-05 -1.92507e-24)
(0.00126536 -3.17895e-05 3.13193e-24)
(0.00128891 -7.53163e-06 0)
(0.00130976 -2.75631e-05 -1.27652e-23)
(0.00134108 5.34783e-06 1.20054e-23)
(0.00134078 -2.55816e-05 1.82929e-24)
(0.00138826 2.18904e-05 0)
(0.00135579 -2.67225e-05 -2.16289e-24)
(0.00143297 4.33086e-05 0)
(0.00135293 -3.18148e-05 -4.96026e-24)
(0.0014793 6.93257e-05 -4.78753e-23)
(0.00133577 -3.69086e-05 -3.8813e-23)
(0.00153009 8.2681e-05 1.76361e-22)
(0.00131377 -1.92851e-06 -9.59933e-23)
(0.000942799 2.06812e-05 0)
(0.000975263 -8.87938e-06 5.43552e-23)
(0.000980578 -1.32993e-05 -9.69125e-23)
(0.000996498 -1.91578e-05 2.664e-23)
(0.00100247 -2.36805e-05 0)
(0.00102728 -3.37285e-05 -3.31731e-24)
(0.001038 -3.57707e-05 3.06621e-24)
(0.0010688 -4.50709e-05 0)
(0.00108411 -4.35733e-05 2.4052e-24)
(0.00112013 -5.2969e-05 0)
(0.00114036 -4.73365e-05 8.1121e-25)
(0.0011791 -5.6751e-05 0)
(0.00120343 -4.60499e-05 0)
(0.00124129 -5.60403e-05 0)
(0.0012688 -3.97373e-05 2.20646e-23)
(0.00130185 -5.17123e-05 -2.20691e-23)
(0.00133227 -2.93719e-05 0)
(0.00135668 -4.5548e-05 0)
(0.00139106 -1.63576e-05 0)
(0.00140325 -3.93319e-05 1.42952e-24)
(0.00144416 -1.32921e-06 0)
(0.00144033 -3.38993e-05 3.7169e-24)
(0.00149168 1.51978e-05 0)
(0.00146743 -3.01498e-05 4.48005e-24)
(0.00153421 3.33301e-05 0)
(0.00148517 -2.66592e-05 5.10148e-24)
(0.0015725 4.95493e-05 -4.82689e-23)
(0.00149551 -1.64401e-05 1.25638e-22)
(0.00160815 4.86936e-05 -9.8504e-23)
(0.00149455 1.57878e-05 0)
(0.00102444 5.83783e-06 5.87042e-23)
(0.00104773 -1.54184e-05 -1.31813e-22)
(0.0010563 -2.34308e-05 9.49499e-23)
(0.00107078 -2.99835e-05 -2.71048e-23)
(0.00107968 -3.34353e-05 -2.7641e-23)
(0.00110107 -4.37687e-05 2.45756e-23)
(0.00111519 -4.66025e-05 2.34463e-23)
(0.00114153 -5.68864e-05 -4.45435e-23)
(0.0011602 -5.60397e-05 1.85785e-23)
(0.00119073 -6.59542e-05 0)
(0.001214 -6.07389e-05 -8.3631e-25)
(0.00124685 -7.02303e-05 5.71843e-25)
(0.00127368 -5.97842e-05 -8.48801e-25)
(0.00130603 -6.92939e-05 9.49896e-25)
(0.0013352 -5.32778e-05 2.97138e-23)
(0.00136409 -6.40248e-05 -3.09876e-23)
(0.00139477 -4.24583e-05 -2.2284e-24)
(0.00141764 -5.62393e-05 3.38845e-24)
(0.0014498 -2.9016e-05 1.22321e-24)
(0.00146483 -4.76001e-05 -1.47374e-24)
(0.00149916 -1.43584e-05 0)
(0.00150502 -3.9111e-05 -3.57947e-23)
(0.00154254 4.85415e-07 6.66993e-23)
(0.00153832 -3.0379e-05 -3.4681e-23)
(0.00157987 1.45303e-05 -4.47468e-23)
(0.00156502 -1.94191e-05 3.95866e-23)
(0.00161137 2.45564e-05 4.90237e-23)
(0.00158481 -2.67938e-06 -1.44945e-22)
(0.00163828 2.52199e-05 1.93072e-22)
(0.00159496 1.85801e-05 -1.02841e-22)
(0.00108669 -8.50795e-06 -5.94428e-23)
(0.00110326 -2.29385e-05 1.24938e-23)
(0.00111362 -3.28815e-05 6.59553e-23)
(0.00112684 -4.08981e-05 -7.66825e-24)
(0.0011375 -4.50581e-05 2.82014e-23)
(0.00115603 -5.51e-05 -1.82322e-23)
(0.00117183 -5.90595e-05 0)
(0.00119504 -6.90427e-05 0)
(0.00121494 -6.95778e-05 0)
(0.00124206 -7.8516e-05 2.03989e-24)
(0.0012657 -7.49026e-05 7.99986e-25)
(0.00129542 -8.26909e-05 -5.902e-25)
(0.00132151 -7.42475e-05 0)
(0.00135167 -8.11271e-05 1.738e-26)
(0.00137864 -6.77852e-05 3.92272e-23)
(0.00140704 -7.46847e-05 -3.92337e-23)
(0.00143364 -5.69653e-05 3.82406e-25)
(0.00145857 -6.51358e-05 0)
(0.00148418 -4.37626e-05 -1.26247e-24)
(0.00150466 -5.41317e-05 1.52221e-24)
(0.0015293 -2.99439e-05 3.4519e-24)
(0.00154483 -4.25096e-05 0)
(0.00156884 -1.66522e-05 0)
(0.00157905 -2.98861e-05 0)
(0.00160294 -4.90895e-06 5.55164e-23)
(0.00160698 -1.5039e-05 -4.03992e-23)
(0.00163208 4.06997e-06 0)
(0.0016278 2.47752e-06 -8.10516e-23)
(0.00165692 1.07513e-05 -3.28066e-24)
(0.00164064 1.77832e-05 1.054e-22)
(0.00113118 -2.1663e-05 0)
(0.0011435 -3.17488e-05 -8.57319e-24)
(0.00115461 -4.21535e-05 3.20119e-23)
(0.00116709 -5.1356e-05 -2.44965e-23)
(0.00117888 -5.69288e-05 0)
(0.00119539 -6.62265e-05 -7.03179e-24)
(0.00121192 -7.15676e-05 0)
(0.0012329 -8.05631e-05 0)
(0.00125316 -8.302e-05 0)
(0.00127783 -9.0241e-05 5.26071e-24)
(0.00130112 -8.89691e-05 -1.36878e-23)
(0.00132853 -9.41591e-05 6.64439e-24)
(0.00135342 -8.86931e-05 -1.71099e-24)
(0.00138187 -9.18909e-05 -1.79604e-26)
(0.00140657 -8.24287e-05 5.0749e-23)
(0.00143438 -8.42979e-05 -5.08626e-23)
(0.00145739 -7.17684e-05 -3.95177e-25)
(0.00148339 -7.31647e-05 4.80318e-24)
(0.00150381 -5.88684e-05 -1.77133e-23)
(0.00152756 -6.02302e-05 2.34411e-23)
(0.00154505 -4.55777e-05 -1.69555e-23)
(0.00156657 -4.64315e-05 0)
(0.00158106 -3.29368e-05 0)
(0.00160049 -3.17849e-05 0)
(0.00161192 -2.13883e-05 -1.00979e-23)
(0.00162928 -1.59206e-05 0)
(0.00163764 -1.05947e-05 4.58e-23)
(0.00165291 6.5291e-07 -4.52503e-23)
(0.00165753 4.33488e-07 -1.19169e-23)
(0.00167154 1.53713e-05 0)
(0.00115933 -3.35955e-05 9.07666e-24)
(0.00116956 -4.16655e-05 6.87201e-23)
(0.00118087 -5.17931e-05 -3.66898e-23)
(0.00119292 -6.15262e-05 -1.97622e-24)
(0.0012055 -6.87903e-05 -3.17095e-23)
(0.00122075 -7.73489e-05 0)
(0.00123761 -8.40777e-05 2.46705e-23)
(0.00125699 -9.18714e-05 -3.20842e-24)
(0.00127737 -9.62646e-05 -1.93763e-23)
(0.00130009 -0.000101647 -7.33174e-24)
(0.00132315 -0.000102733 7.37622e-24)
(0.00134836 -0.000105249 5.55725e-25)
(0.00137268 -0.000102737 2.44804e-25)
(0.00139893 -0.000102305 2.02552e-26)
(0.00142272 -9.65884e-05 6.44387e-23)
(0.00144857 -9.37247e-05 -6.44089e-23)
(0.0014703 -8.59584e-05 -4.38381e-25)
(0.00149484 -8.13919e-05 1.14782e-24)
(0.00151363 -7.30741e-05 1.37355e-24)
(0.00153657 -6.72112e-05 -1.39834e-23)
(0.00155212 -5.97361e-05 1.3899e-23)
(0.00157359 -5.23509e-05 3.89159e-23)
(0.0015859 -4.67852e-05 3.28927e-24)
(0.00160607 -3.71838e-05 -3.74325e-23)
(0.00161516 -3.41658e-05 0)
(0.0016341 -2.17079e-05 4.51881e-23)
(0.00163984 -2.12181e-05 2.41259e-24)
(0.00165758 -6.30796e-06 5.08569e-23)
(0.0016594 -7.54063e-06 -9.60419e-23)
(0.00167612 8.51089e-06 1.2538e-23)
(0.00117276 -4.44447e-05 -8.24555e-23)
(0.00118249 -5.22124e-05 8.32172e-23)
(0.00119379 -6.20687e-05 -2.5164e-23)
(0.00120575 -7.17599e-05 5.82107e-23)
(0.0012189 -8.05027e-05 -3.26017e-23)
(0.00123365 -8.85879e-05 -2.05955e-23)
(0.00125059 -9.64623e-05 2.15456e-23)
(0.00126908 -0.000103232 0)
(0.00128943 -0.000109146 -5.09153e-24)
(0.00131086 -0.000113055 2.03767e-24)
(0.00133377 -0.00011597 0)
(0.00135727 -0.000116376 -1.4847e-24)
(0.00138142 -0.00011609 1.44334e-24)
(0.0014056 -0.000112872 2.24898e-26)
(0.00142931 -0.000109889 8.10412e-23)
(0.0014528 -0.000103544 -8.09762e-23)
(0.00147467 -9.90952e-05 -1.84765e-26)
(0.00149664 -9.04102e-05 -5.29665e-24)
(0.00151588 -8.59653e-05 5.30378e-24)
(0.00153617 -7.55206e-05 0)
(0.00155253 -7.22718e-05 3.86724e-24)
(0.00157139 -6.0182e-05 -8.57389e-24)
(0.00158483 -5.88046e-05 0)
(0.0016027 -4.48279e-05 -5.18334e-23)
(0.001613 -4.55076e-05 5.2038e-23)
(0.00163031 -2.93781e-05 4.65036e-23)
(0.0016369 -3.20365e-05 -1.06178e-22)
(0.00165419 -1.35805e-05 4.78242e-23)
(0.00165604 -1.82639e-05 -9.02984e-23)
(0.00167411 3.21376e-06 7.56439e-23)
(0.00117374 -5.45747e-05 -7.52959e-23)
(0.00118396 -6.30648e-05 1.39898e-22)
(0.00119532 -7.29703e-05 -9.18421e-23)
(0.00120755 -8.23935e-05 5.03006e-23)
(0.0012211 -9.212e-05 -3.35646e-23)
(0.00123605 -0.000100053 -7.54774e-24)
(0.00125303 -0.000108723 3.24539e-23)
(0.00127137 -0.000114875 -2.5837e-23)
(0.00129162 -0.000121719 2.60264e-24)
(0.00131263 -0.000124749 -2.11166e-24)
(0.00133536 -0.000128735 0)
(0.00135808 -0.00012787 1.34343e-24)
(0.0013821 -0.000128806 -1.41322e-24)
(0.00140507 -0.000123946 -1.24736e-25)
(0.00142886 -0.000122383 1.01266e-22)
(0.00145068 -0.000114093 -1.01166e-22)
(0.00147304 -0.000111253 4.5398e-24)
(0.00149283 -0.000100457 -1.70899e-25)
(0.00151317 -9.77147e-05 -5.61622e-24)
(0.00153072 -8.51931e-05 0)
(0.001549 -8.35724e-05 -4.00762e-24)
(0.00156454 -6.96707e-05 4.44294e-24)
(0.00158088 -6.96567e-05 4.03635e-23)
(0.00159479 -5.43094e-05 -2.95534e-23)
(0.00160911 -5.59866e-05 -1.10702e-23)
(0.00162179 -3.88911e-05 4.79446e-23)
(0.00163365 -4.22376e-05 -2.29933e-23)
(0.00164556 -2.28888e-05 9.0707e-23)
(0.0016541 -2.80316e-05 -2.08104e-22)
(0.00166601 -5.56234e-06 1.04692e-22)
(0.00116557 -6.47801e-05 -5.78692e-23)
(0.00117662 -7.4161e-05 1.34296e-23)
(0.00118825 -8.44146e-05 8.55631e-23)
(0.00120109 -9.37117e-05 -1.76936e-23)
(0.00121507 -0.000103943 0)
(0.00123073 -0.000111959 7.65152e-24)
(0.0012479 -0.000121085 6.9018e-24)
(0.00126676 -0.000127041 2.85042e-23)
(0.00128703 -0.000134292 -1.34253e-23)
(0.00130848 -0.000136989 -7.31396e-24)
(0.00133111 -0.000141372 -4.77211e-24)
(0.00135409 -0.000139973 4.46149e-24)
(0.00137792 -0.00014127 1.18048e-24)
(0.00140092 -0.000135718 -7.31775e-26)
(0.00142455 -0.000134506 1.25233e-22)
(0.00144608 -0.000125453 -1.25435e-22)
(0.00146844 -0.000122947 5.30747e-25)
(0.00148758 -0.000111427 -5.99536e-24)
(0.00150829 -0.000108978 -8.07498e-24)
(0.00152474 -9.58658e-05 1.3967e-23)
(0.001544 -9.44832e-05 2.19831e-23)
(0.00155788 -8.01535e-05 2.12106e-23)
(0.0015761 -8.03642e-05 -2.83926e-23)
(0.00158757 -6.4659e-05 1.07778e-23)
(0.00160508 -6.66804e-05 1.14317e-23)
(0.00161414 -4.90453e-05 0)
(0.00163111 -5.30642e-05 -2.51351e-23)
(0.00163755 -3.26621e-05 -9.3641e-23)
(0.00165402 -3.90377e-05 -4.60363e-24)
(0.00165754 -1.47396e-05 1.21903e-22)
(0.00115222 -7.58159e-05 3.9275e-23)
(0.0011641 -8.58342e-05 -9.16891e-23)
(0.00117627 -9.64879e-05 -9.57913e-24)
(0.00118998 -0.000105904 9.14915e-24)
(0.00120459 -0.000116359 0)
(0.00122126 -0.000124613 -7.93746e-24)
(0.00123896 -0.000133956 -7.16318e-24)
(0.00125881 -0.000140028 -6.27269e-24)
(0.00127948 -0.000147346 9.21658e-24)
(0.00130197 -0.000150068 -1.13818e-23)
(0.00132483 -0.000154395 0)
(0.00134883 -0.000152926 8.46436e-25)
(0.00137266 -0.000154017 -9.78703e-25)
(0.0013966 -0.000148345 -1.39071e-25)
(0.00141996 -0.000146803 1.54197e-22)
(0.00144235 -0.000137667 -1.54208e-22)
(0.00146422 -0.000134726 6.04483e-25)
(0.00148413 -0.000123242 6.40092e-24)
(0.00150421 -0.000120277 -2.86836e-24)
(0.00152136 -0.000107369 0)
(0.00154 -0.000105427 1.42018e-23)
(0.0015545 -9.14546e-05 -1.84394e-23)
(0.00157227 -9.11329e-05 -1.04552e-23)
(0.00158424 -7.58463e-05 -1.11858e-23)
(0.00160169 -7.74637e-05 -1.18588e-23)
(0.00161104 -6.01379e-05 0)
(0.00162851 -6.40203e-05 1.30087e-23)
(0.00163493 -4.35873e-05 -1.34629e-23)
(0.00165261 -5.03144e-05 9.96367e-23)
(0.0016558 -2.53284e-05 -1.40287e-22)
(0.00113866 -8.83033e-05 -4.06531e-23)
(0.00115111 -9.86078e-05 1.75383e-22)
(0.00116392 -0.000109545 -7.17085e-23)
(0.00117856 -0.000119271 3.61938e-23)
(0.00119399 -0.000129851 -3.67133e-23)
(0.00121178 -0.000138451 8.01272e-24)
(0.00123033 -0.000147872 -7.14599e-24)
(0.00125142 -0.000154229 2.27751e-23)
(0.0012729 -0.000161425 -2.80665e-23)
(0.00129671 -0.000164334 -6.70649e-24)
(0.00132024 -0.000168344 2.62575e-24)
(0.00134554 -0.000166984 4.11315e-24)
(0.00136971 -0.000167556 -1.35722e-24)
(0.00139489 -0.000161966 7.69611e-25)
(0.00141815 -0.000159741 1.89226e-22)
(0.00144171 -0.000150745 -1.89238e-22)
(0.00146299 -0.000147007 5.11335e-24)
(0.00148408 -0.000135797 1.14059e-24)
(0.00150311 -0.000131965 -2.63051e-23)
(0.00152154 -0.000119516 -2.03447e-24)
(0.00153874 -0.000116671 1.29369e-23)
(0.00155469 -0.00010336 3.2202e-23)
(0.0015708 -0.000102121 -4.19809e-23)
(0.00158433 -8.76958e-05 -1.16781e-23)
(0.00160016 -8.83815e-05 1.23307e-23)
(0.001611 -7.20953e-05 4.02332e-23)
(0.00162733 -7.49982e-05 -5.23984e-23)
(0.00163473 -5.57769e-05 1.28221e-22)
(0.00165245 -6.14088e-05 -2.15656e-22)
(0.00165529 -3.78695e-05 1.74741e-22)
(0.00112873 -0.000102495 -4.42315e-23)
(0.00114156 -0.000112917 -6.18065e-23)
(0.00115499 -0.000124007 1.24205e-22)
(0.00117051 -0.000134159 -4.02725e-23)
(0.00118683 -0.000144875 0)
(0.00120576 -0.000153907 -1.65242e-23)
(0.00122534 -0.000163329 3.46097e-23)
(0.00124773 -0.000170032 -2.74945e-23)
(0.00127026 -0.000176977 5.27221e-24)
(0.0012954 -0.000180094 6.40817e-24)
(0.00131982 -0.000183599 -6.45884e-24)
(0.00134632 -0.000182343 0)
(0.00137101 -0.000182183 0)
(0.00139717 -0.00017665 0)
(0.00142045 -0.000173532 2.32083e-22)
(0.0014448 -0.000164639 -2.32179e-22)
(0.00146552 -0.000159927 0)
(0.00148735 -0.000148949 -1.7468e-24)
(0.00150522 -0.000144123 0)
(0.00152457 -0.000132091 1.88534e-23)
(0.00153994 -0.000128267 -1.38162e-23)
(0.00155727 -0.000115593 1.06357e-23)
(0.0015708 -0.000113407 4.7588e-23)
(0.00158649 -9.98457e-05 -3.48712e-23)
(0.00159891 -9.96237e-05 -2.56866e-23)
(0.00161298 -8.43858e-05 1.34312e-23)
(0.00162497 -8.64498e-05 5.73586e-23)
(0.00163693 -6.8329e-05 -1.74991e-22)
(0.0016493 -7.33149e-05 1.46426e-22)
(0.00165813 -5.06663e-05 -6.12097e-23)
(0.00112519 -0.000118559 -6.65636e-23)
(0.0011382 -0.000129142 1.77207e-22)
(0.00115198 -0.000140325 -9.8216e-23)
(0.00116821 -0.000150943 3.83704e-23)
(0.00118524 -0.000161817 -7.42319e-23)
(0.0012052 -0.000171312 2.10586e-23)
(0.00122567 -0.000180665 4.62397e-24)
(0.00124925 -0.000187671 5.04697e-23)
(0.00127265 -0.000194223 -2.29643e-23)
(0.00129893 -0.000197461 1.76987e-24)
(0.001324 -0.000200265 -3.10295e-24)
(0.00135137 -0.000198995 3.18881e-24)
(0.00137634 -0.00019789 -1.48991e-24)
(0.00140295 -0.000192288 2.02844e-24)
(0.00142608 -0.000188082 2.84218e-22)
(0.00145049 -0.000179172 -2.8423e-22)
(0.00147065 -0.000173342 5.25899e-24)
(0.00149227 -0.00016249 3.0025e-24)
(0.00150919 -0.000156584 -2.61615e-23)
(0.00152829 -0.000144888 1.8052e-23)
(0.00154234 -0.000140046 0)
(0.00155966 -0.000127981 4.70224e-23)
(0.00157144 -0.000124812 -9.65021e-23)
(0.00158774 -0.000112207 9.46189e-24)
(0.0015978 -0.000110949 2.36216e-23)
(0.00161354 -9.71056e-05 1.1201e-22)
(0.00162231 -9.79271e-05 -4.21181e-23)
(0.00163749 -8.17409e-05 1.08119e-22)
(0.0016454 -8.50786e-05 -2.47694e-22)
(0.00165956 -6.50208e-05 1.56168e-22)
(0.00112727 -0.000136187 0)
(0.00114037 -0.00014718 -2.30725e-23)
(0.00115425 -0.000158529 1.10303e-23)
(0.00117096 -0.000169626 3.95095e-23)
(0.00118842 -0.000180678 -4.01568e-23)
(0.00120922 -0.000190599 -4.08334e-23)
(0.00123024 -0.000199813 3.25711e-23)
(0.00125478 -0.000207001 0)
(0.00127861 -0.000213013 -3.67455e-24)
(0.00130574 -0.000216207 6.66722e-24)
(0.0013309 -0.000218112 -8.60982e-25)
(0.00135883 -0.000216655 3.27701e-25)
(0.00138345 -0.00021439 -3.96263e-25)
(0.00141022 -0.000208573 -6.27472e-25)
(0.0014326 -0.00020309 3.4879e-22)
(0.00145675 -0.000194058 -3.48802e-22)
(0.00147592 -0.000186976 -1.09873e-25)
(0.00149694 -0.000176176 -8.76038e-24)
(0.0015128 -0.000169143 3.97317e-24)
(0.0015311 -0.000157702 -5.22432e-24)
(0.00154413 -0.000151913 -2.33223e-23)
(0.00156065 -0.000140313 3.52041e-23)
(0.00157144 -0.000136399 0)
(0.00158727 -0.000124481 -6.87976e-23)
(0.00159619 -0.000122649 4.05874e-23)
(0.00161226 -0.000109753 6.01191e-23)
(0.00161938 -0.000110056 -7.43202e-23)
(0.00163627 -9.51543e-05 1.5658e-23)
(0.00164154 -9.78225e-05 -3.22263e-23)
(0.00165925 -7.95192e-05 0)
(0.00113008 -0.000155001 -9.67467e-23)
(0.00114355 -0.000166769 1.67367e-22)
(0.00115766 -0.000178487 -1.1714e-22)
(0.00117484 -0.000190048 0)
(0.00119273 -0.000201272 -3.69087e-23)
(0.00121426 -0.000211488 2.88694e-23)
(0.0012357 -0.000220493 7.40459e-24)
(0.00126098 -0.000227662 2.19172e-23)
(0.00128493 -0.000233011 -2.26545e-23)
(0.00131267 -0.000235929 0)
(0.0013375 -0.000236786 9.03276e-25)
(0.00136585 -0.000234935 -8.99887e-25)
(0.00138964 -0.00023136 -2.18551e-24)
(0.00141661 -0.000225196 1.69135e-24)
(0.00143774 -0.000218295 4.289e-22)
(0.00146191 -0.000209113 -4.28909e-22)
(0.00147961 -0.000200638 1.23656e-23)
(0.00150049 -0.000189965 3.53251e-24)
(0.00151493 -0.000181661 -4.59192e-24)
(0.00153289 -0.000170623 5.48086e-24)
(0.00154483 -0.000163754 0)
(0.00156078 -0.000152782 5.33139e-23)
(0.00157097 -0.000148048 -5.24061e-23)
(0.00158603 -0.000136916 0)
(0.00159482 -0.000134578 -7.56419e-23)
(0.00161023 -0.000122572 5.98157e-23)
(0.00161728 -0.000122664 0)
(0.00163437 -0.000108765 1.00992e-22)
(0.00163859 -0.000111367 -3.01771e-22)
(0.00165863 -9.4303e-05 1.3448e-22)
(0.00112985 -0.000175185 -1.00952e-22)
(0.00114383 -0.000187888 1.2798e-22)
(0.00115841 -0.000200118 2.37592e-23)
(0.00117608 -0.000212035 4.18258e-23)
(0.00119458 -0.000223357 -4.25811e-23)
(0.00121673 -0.000233635 9.05269e-24)
(0.00123873 -0.000242366 -7.76693e-24)
(0.00126459 -0.000249266 0)
(0.00128884 -0.000253915 -4.74881e-24)
(0.00131709 -0.000256298 -1.2121e-24)
(0.00134181 -0.000256098 -1.87913e-25)
(0.00137064 -0.000253621 -9.04532e-25)
(0.00139381 -0.000248761 1.51986e-24)
(0.00142131 -0.000242088 9.93579e-25)
(0.00144127 -0.000233796 5.29202e-22)
(0.00146613 -0.000224398 -5.29301e-22)
(0.00148217 -0.000214513 -2.13256e-24)
(0.00150395 -0.000204017 1.07861e-23)
(0.00151643 -0.000194323 -3.96795e-23)
(0.00153541 -0.000183871 2.31975e-23)
(0.0015454 -0.000175676 -6.60452e-24)
(0.00156218 -0.000165637 -1.3612e-23)
(0.00157088 -0.000159743 0)
(0.00158613 -0.000149751 0)
(0.00159445 -0.000146595 1.55703e-23)
(0.00160891 -0.000135726 6.61278e-23)
(0.00161693 -0.000135542 -6.4954e-23)
(0.00163167 -0.000122579 3.41378e-23)
(0.00163811 -0.000125523 -1.07892e-22)
(0.00165486 -0.000109234 1.40093e-22)
(0.00112021 -0.000196266 -1.32842e-22)
(0.00113548 -0.000209881 8.18109e-23)
(0.00115157 -0.000222798 0)
(0.00117046 -0.000235109 0)
(0.00119049 -0.000246609 -3.8126e-23)
(0.0012138 -0.000256867 3.88118e-23)
(0.00123733 -0.0002654 2.64565e-23)
(0.00126422 -0.000271904 -3.23484e-23)
(0.00128984 -0.000275954 0)
(0.00131894 -0.000277613 2.15348e-24)
(0.00134469 -0.000276486 1.39939e-24)
(0.0013742 -0.000273139 -2.04444e-24)
(0.00139785 -0.000267157 1.80568e-24)
(0.00142599 -0.000259698 0)
(0.00144567 -0.000250193 6.5483e-22)
(0.00147136 -0.000240302 -6.54924e-22)
(0.00148621 -0.000229137 0)
(0.00150927 -0.000218595 -5.65084e-24)
(0.00151953 -0.000207513 -1.97459e-23)
(0.00154046 -0.000197578 3.23717e-23)
(0.00154719 -0.00018784 1.41618e-23)
(0.00156659 -0.000178944 0)
(0.00157127 -0.000171364 4.792e-23)
(0.00158937 -0.000163079 -6.26311e-23)
(0.00159365 -0.000158276 -6.78281e-23)
(0.00161016 -0.000149378 6.66285e-23)
(0.00161533 -0.000148027 0)
(0.00162974 -0.000136685 0)
(0.0016357 -0.000139658 -1.85666e-22)
(0.00164801 -0.000123869 1.08932e-22)
(0.00110666 -0.000221226 5.71445e-23)
(0.00112365 -0.000235399 2.72492e-23)
(0.00114196 -0.000248863 1.25896e-23)
(0.00116277 -0.000261489 -1.14646e-23)
(0.00118522 -0.000273121 1.01278e-23)
(0.00121036 -0.000283222 -2.34911e-23)
(0.00123638 -0.000291462 3.26447e-23)
(0.00126483 -0.000297347 8.33363e-25)
(0.0012928 -0.000300694 1.89035e-24)
(0.00132295 -0.000301318 -6.0896e-24)
(0.00135069 -0.00029918 7.02197e-25)
(0.00138061 -0.000294556 -3.78689e-24)
(0.0014057 -0.000287437 -1.66134e-24)
(0.0014337 -0.000278696 5.78237e-24)
(0.00145411 -0.000268073 8.13653e-22)
(0.00147939 -0.000257114 -8.13639e-22)
(0.00149406 -0.000244874 1.21573e-23)
(0.00151696 -0.000233654 1.00267e-24)
(0.00152581 -0.000221435 -1.32344e-23)
(0.00154748 -0.000211424 -3.75832e-23)
(0.00155105 -0.000200322 6.22125e-23)
(0.00157277 -0.000192231 -4.78822e-23)
(0.00157206 -0.000182838 -4.16252e-25)
(0.00159447 -0.000176489 -7.03835e-23)
(0.00159095 -0.000169225 8.69505e-23)
(0.00161327 -0.000163435 1.81383e-23)
(0.00160892 -0.000159092 0)
(0.00162821 -0.000151507 1.87723e-23)
(0.00162491 -0.000151804 3.82823e-23)
(0.00163621 -0.000138942 7.76241e-23)
(0.00110181 -0.000251592 -2.99901e-23)
(0.00111994 -0.000266084 0)
(0.00113998 -0.00027988 3.6206e-23)
(0.00116239 -0.000292664 -3.84715e-23)
(0.00118694 -0.000304217 -2.07221e-23)
(0.00121372 -0.000313914 -3.98804e-23)
(0.00124194 -0.000321515 6.06709e-23)
(0.00127169 -0.000326423 -2.22926e-23)
(0.00130171 -0.000328653 3.10687e-24)
(0.00133246 -0.000327822 -2.11922e-24)
(0.00136192 -0.000324272 6.52444e-24)
(0.00139152 -0.000317919 -9.5823e-25)
(0.00141795 -0.000309362 -1.59841e-23)
(0.00144466 -0.000298869 7.43499e-24)
(0.00146614 -0.000287029 1.01783e-21)
(0.00148937 -0.000274483 -1.0178e-21)
(0.00150488 -0.000261338 1.39785e-23)
(0.00152538 -0.000248781 -2.17306e-23)
(0.00153459 -0.000235873 -2.52173e-23)
(0.00155417 -0.000224893 7.40771e-23)
(0.00155688 -0.000213138 -4.17581e-23)
(0.00157788 -0.000204792 1.7409e-23)
(0.00157366 -0.000194417 7.36309e-23)
(0.00159818 -0.00018903 -1.29813e-22)
(0.00158622 -0.000179732 5.55288e-23)
(0.00161476 -0.000176767 -3.84733e-23)
(0.00159441 -0.000168483 7.94283e-23)
(0.00162348 -0.000166046 -9.74632e-23)
(0.00159538 -0.000160165 0)
(0.00161436 -0.000153896 -4.06258e-23)
(0.00109824 -0.000286576 -3.11267e-23)
(0.00111797 -0.000301513 1.44623e-23)
(0.00113991 -0.000315559 -1.31304e-23)
(0.00116424 -0.000328353 0)
(0.00119093 -0.00033955 -2.60348e-23)
(0.00121957 -0.000348551 3.74427e-23)
(0.0012498 -0.000355077 -6.66435e-24)
(0.00128099 -0.000358619 4.4011e-24)
(0.00131267 -0.000359207 0)
(0.00134411 -0.000356539 0)
(0.00137479 -0.000351057 1.46838e-24)
(0.00140411 -0.000342668 7.2962e-24)
(0.00143142 -0.000332235 -5.43661e-24)
(0.00145678 -0.000319794 0)
(0.00147912 -0.00030646 1.28293e-21)
(0.00149996 -0.000292214 -1.28297e-21)
(0.00151672 -0.000278114 0)
(0.00153382 -0.000264034 -2.13862e-23)
(0.00154487 -0.000250645 1.65771e-23)
(0.00155997 -0.000238142 -9.00868e-24)
(0.0015647 -0.000226286 0)
(0.00158034 -0.000216494 0)
(0.00157686 -0.000206237 1.96276e-23)
(0.00159612 -0.000199807 -1.99555e-23)
(0.00157986 -0.000190007 -8.28915e-23)
(0.00160538 -0.00018721 1.0161e-22)
(0.00156826 -0.000176071 0)
(0.00160058 -0.000176891 -2.08724e-23)
(0.00153239 -0.000162931 2.09728e-23)
(0.00156537 -0.000165541 -4.19215e-23)
(0.00108892 -0.000325591 1.67301e-23)
(0.00111135 -0.000341211 -1.52871e-23)
(0.00113623 -0.000355623 1.38993e-23)
(0.00116358 -0.000368365 -4.26554e-23)
(0.0011932 -0.000378995 4.3682e-23)
(0.00122461 -0.00038701 2.45393e-23)
(0.00125736 -0.000392067 -2.50675e-23)
(0.00129074 -0.00039385 -1.10658e-24)
(0.00132428 -0.000392329 0)
(0.0013571 -0.000387453 0)
(0.00138886 -0.00037957 0)
(0.0014186 -0.000368883 9.9259e-24)
(0.00144631 -0.000356138 -1.00096e-23)
(0.00147111 -0.000341644 0)
(0.00149351 -0.000326419 1.62621e-21)
(0.00151282 -0.000310548 -1.626e-21)
(0.00152987 -0.000295128 0)
(0.00154425 -0.000279714 -2.01172e-23)
(0.00155622 -0.000265476 2.98232e-23)
(0.00156646 -0.000251472 0)
(0.00157263 -0.000239105 0)
(0.00157949 -0.000227254 0)
(0.00157719 -0.000217008 -2.25821e-23)
(0.0015818 -0.00020766 8.96884e-23)
(0.0015638 -0.000198181 -8.77967e-23)
(0.00156761 -0.000191495 -8.97581e-23)
(0.00151821 -0.000179939 8.76488e-23)
(0.00152619 -0.000177667 2.20934e-23)
(0.00141739 -0.000158497 -2.21681e-23)
(0.00144469 -0.000165861 2.24345e-23)
(0.00107838 -0.000374467 1.4409e-22)
(0.00110445 -0.000389701 -1.30551e-22)
(0.00113325 -0.000403691 0)
(0.00116451 -0.000415703 0)
(0.00119782 -0.000425098 -2.92704e-23)
(0.00123269 -0.000431419 2.53365e-23)
(0.00126845 -0.00043434 0)
(0.00130448 -0.000433695 1.1847e-24)
(0.00134005 -0.000429446 0)
(0.00137453 -0.00042174 0)
(0.00140724 -0.000410876 5.57665e-24)
(0.0014376 -0.000397334 0)
(0.00146519 -0.000381726 -1.17811e-23)
(0.00148964 -0.000364714 1.60151e-23)
(0.00151102 -0.000347031 2.08414e-21)
(0.00152907 -0.00032919 -2.08406e-21)
(0.0015444 -0.000311801 2.26405e-23)
(0.00155634 -0.000294897 -2.85681e-23)
(0.00156576 -0.000278971 0)
(0.00157092 -0.000263474 -1.26759e-23)
(0.00157265 -0.000249261 0)
(0.00156833 -0.00023517 -1.27647e-23)
(0.00155822 -0.000222867 2.41743e-23)
(0.00154066 -0.000209789 0)
(0.00151055 -0.000198537 -9.80356e-23)
(0.00147512 -0.00018566 9.56843e-23)
(0.00140806 -0.000173774 0)
(0.0013568 -0.000161803 0)
(0.0012175 -0.00014401 1.87202e-22)
(0.00119119 -0.000143788 -1.59084e-22)
(0.00106862 -0.000434685 0)
(0.00109862 -0.000451284 0)
(0.00113163 -0.000465381 0)
(0.00116749 -0.000476327 0)
(0.00120542 -0.000483662 0)
(0.00124455 -0.000487091 4.9887e-24)
(0.00128402 -0.000486496 0)
(0.00132316 -0.000481885 -1.51327e-23)
(0.00136119 -0.000473381 3.84286e-24)
(0.00139745 -0.000461283 4.21824e-23)
(0.00143114 -0.000446047 -6.14892e-23)
(0.00146177 -0.000428317 3.11375e-23)
(0.00148872 -0.000408782 -4.47762e-24)
(0.00151188 -0.000388203 0)
(0.00153087 -0.000367198 2.69603e-21)
(0.00154587 -0.000346342 -2.69401e-21)
(0.00155653 -0.000325996 0)
(0.00156279 -0.000306431 6.56842e-24)
(0.00156384 -0.00028764 5.68665e-23)
(0.00155862 -0.000269565 -9.97748e-23)
(0.00154569 -0.00025205 1.13757e-22)
(0.00152247 -0.000234785 5.65677e-23)
(0.00148769 -0.000217663 -1.40102e-22)
(0.0014374 -0.000199885 0)
(0.00137179 -0.000182984 0)
(0.00128528 -0.000164813 0)
(0.00117766 -0.000148193 0)
(0.00105043 -0.000126931 0)
(0.000884503 -0.000112618 0)
(0.000761827 -9.37667e-05 0)
(0.00105932 -0.000501636 1.49509e-23)
(0.00109742 -0.000514563 0)
(0.00113932 -0.000526439 0)
(0.00118283 -0.000535094 1.77712e-23)
(0.00122674 -0.000539517 -1.6247e-23)
(0.00127041 -0.000539429 2.35807e-24)
(0.00131335 -0.000534899 -9.62622e-24)
(0.0013549 -0.000526095 -6.26258e-24)
(0.00139433 -0.000513314 0)
(0.00143081 -0.000496971 -1.03157e-23)
(0.00146356 -0.000477665 0)
(0.00149193 -0.000456108 0)
(0.00151536 -0.000433037 0)
(0.00153351 -0.00040911 0)
(0.00154584 -0.000384719 3.54917e-21)
(0.00155198 -0.000360135 -3.55065e-21)
(0.00155083 -0.000335535 0)
(0.00154159 -0.000310957 0)
(0.00152236 -0.000286576 0)
(0.00149182 -0.000262749 0)
(0.00144759 -0.000240029 1.70977e-23)
(0.00138766 -0.000217638 1.58401e-23)
(0.00130826 -0.000193868 3.11084e-23)
(0.00120737 -0.000169032 -1.23548e-22)
(0.00108321 -0.000145391 2.39781e-22)
(0.000935786 -0.000122961 -4.46218e-25)
(0.000769939 -9.81127e-05 -1.40598e-22)
(0.000588135 -7.40758e-05 0)