/*--------------------------------*- C++ -*----------------------------------*\
| =========                 |                                                 |
| \\      /  F ield         | OpenFOAM: The Open Source CFD Toolbox           |
|  \\    /   O peration     | Version:  2312                                  |
|   \\  /    A nd           | Website:  www.openfoam.com                      |
|    \\/     M anipulation  |                                                 |
\*---------------------------------------------------------------------------*/
FoamFile
{
    version     2.0;
    format      ascii;
    arch        "LSB;label=32;scalar=64";
    class       volScalarField;
    location    "5000";
    object      p;
}
// * * * * * * * * * * * * * * * * * * * * * * * * * * * * * * * * * * * * * //

dimensions      [0 2 -2 0 0 0 0];

internalField   nonuniform List<scalar> 
10800
(
6.19016e-07
6.04876e-07
5.91072e-07
5.80402e-07
5.72879e-07
5.67439e-07
5.62858e-07
5.58607e-07
5.54711e-07
5.50943e-07
5.47029e-07
5.43301e-07
5.40165e-07
5.3735e-07
5.34377e-07
5.31221e-07
5.28153e-07
5.25311e-07
5.22673e-07
5.2024e-07
5.18064e-07
5.16176e-07
5.1455e-07
5.1314e-07
5.11894e-07
5.10767e-07
5.09721e-07
5.08724e-07
5.07751e-07
5.06787e-07
5.0582e-07
5.04842e-07
5.0385e-07
5.02839e-07
5.01809e-07
5.00759e-07
4.99687e-07
4.98592e-07
4.97476e-07
4.96334e-07
4.95177e-07
4.93988e-07
4.92792e-07
4.91556e-07
4.90318e-07
4.89051e-07
4.87766e-07
4.86482e-07
4.85176e-07
4.83846e-07
4.8261e-07
4.81215e-07
4.80086e-07
4.78744e-07
4.77766e-07
4.76462e-07
4.76101e-07
4.74478e-07
4.75261e-07
4.71687e-07
5.71128e-07
5.69388e-07
5.66724e-07
5.63506e-07
5.60178e-07
5.57062e-07
5.54017e-07
5.51014e-07
5.48384e-07
5.45934e-07
5.43013e-07
5.3976e-07
5.36942e-07
5.34647e-07
5.32247e-07
5.29454e-07
5.26615e-07
5.24071e-07
5.21817e-07
5.19742e-07
5.17846e-07
5.16175e-07
5.14722e-07
5.13432e-07
5.12256e-07
5.1116e-07
5.1012e-07
5.09114e-07
5.08125e-07
5.07141e-07
5.06153e-07
5.05155e-07
5.04145e-07
5.03118e-07
5.02074e-07
5.01011e-07
4.99929e-07
4.98826e-07
4.97705e-07
4.96559e-07
4.95392e-07
4.94193e-07
4.92975e-07
4.91725e-07
4.90453e-07
4.8915e-07
4.87826e-07
4.86452e-07
4.85098e-07
4.83621e-07
4.82235e-07
4.8069e-07
4.79181e-07
4.77595e-07
4.76019e-07
4.74064e-07
4.7254e-07
4.70116e-07
4.68192e-07
4.64743e-07
5.62711e-07
5.61955e-07
5.60537e-07
5.5851e-07
5.56141e-07
5.53738e-07
5.51209e-07
5.48619e-07
5.46425e-07
5.44449e-07
5.41949e-07
5.39027e-07
5.36525e-07
5.34624e-07
5.32691e-07
5.30387e-07
5.28036e-07
5.25957e-07
5.2409e-07
5.2227e-07
5.20484e-07
5.18804e-07
5.17252e-07
5.15803e-07
5.1443e-07
5.13123e-07
5.11874e-07
5.10671e-07
5.09504e-07
5.08361e-07
5.07237e-07
5.06123e-07
5.05016e-07
5.03909e-07
5.02799e-07
5.01683e-07
5.00556e-07
4.99416e-07
4.98258e-07
4.97081e-07
4.95882e-07
4.94662e-07
4.93418e-07
4.92146e-07
4.90841e-07
4.89499e-07
4.88122e-07
4.8669e-07
4.85227e-07
4.83679e-07
4.821e-07
4.80415e-07
4.78654e-07
4.76789e-07
4.74789e-07
4.72601e-07
4.70294e-07
4.67605e-07
4.64729e-07
4.61359e-07
5.51275e-07
5.50844e-07
5.50066e-07
5.48921e-07
5.47536e-07
5.46095e-07
5.44432e-07
5.42597e-07
5.41072e-07
5.39716e-07
5.37815e-07
5.3546e-07
5.33472e-07
5.32024e-07
5.30508e-07
5.28605e-07
5.26629e-07
5.24887e-07
5.23319e-07
5.21762e-07
5.20203e-07
5.18709e-07
5.17305e-07
5.1597e-07
5.14685e-07
5.13443e-07
5.12243e-07
5.11077e-07
5.09937e-07
5.08816e-07
5.07708e-07
5.06609e-07
5.05514e-07
5.04419e-07
5.0332e-07
5.02213e-07
5.01097e-07
4.99968e-07
4.98824e-07
4.97662e-07
4.96482e-07
4.95276e-07
4.94039e-07
4.9277e-07
4.91464e-07
4.90117e-07
4.88724e-07
4.87276e-07
4.85772e-07
4.84191e-07
4.82539e-07
4.80788e-07
4.78929e-07
4.76946e-07
4.74809e-07
4.72499e-07
4.6999e-07
4.67247e-07
4.64257e-07
4.60999e-07
5.4499e-07
5.44784e-07
5.44374e-07
5.43689e-07
5.42803e-07
5.41858e-07
5.4066e-07
5.39252e-07
5.38124e-07
5.37144e-07
5.35604e-07
5.33602e-07
5.31948e-07
5.30808e-07
5.29581e-07
5.27959e-07
5.26252e-07
5.24754e-07
5.23399e-07
5.22025e-07
5.20617e-07
5.19242e-07
5.17926e-07
5.16651e-07
5.15404e-07
5.14183e-07
5.12991e-07
5.11824e-07
5.10678e-07
5.0955e-07
5.08435e-07
5.0733e-07
5.06232e-07
5.05137e-07
5.04043e-07
5.02946e-07
5.01843e-07
5.00731e-07
4.99606e-07
4.98465e-07
4.97303e-07
4.9612e-07
4.9491e-07
4.93671e-07
4.92394e-07
4.91079e-07
4.89716e-07
4.883e-07
4.86824e-07
4.85275e-07
4.8365e-07
4.8193e-07
4.80105e-07
4.78167e-07
4.76086e-07
4.7386e-07
4.71462e-07
4.68877e-07
4.6611e-07
4.63196e-07
5.39842e-07
5.39687e-07
5.39385e-07
5.38867e-07
5.38203e-07
5.3752e-07
5.36608e-07
5.355e-07
5.34674e-07
5.3399e-07
5.32743e-07
5.31036e-07
5.29674e-07
5.28809e-07
5.27841e-07
5.26466e-07
5.24997e-07
5.23721e-07
5.22568e-07
5.21378e-07
5.20137e-07
5.18914e-07
5.17733e-07
5.16578e-07
5.15436e-07
5.14309e-07
5.13199e-07
5.12105e-07
5.11025e-07
5.09956e-07
5.08896e-07
5.07842e-07
5.06792e-07
5.05744e-07
5.04696e-07
5.03644e-07
5.02587e-07
5.01522e-07
5.00448e-07
4.9936e-07
4.98255e-07
4.97131e-07
4.95983e-07
4.9481e-07
4.93604e-07
4.92364e-07
4.91081e-07
4.89752e-07
4.8837e-07
4.86925e-07
4.85415e-07
4.83823e-07
4.82143e-07
4.80369e-07
4.78474e-07
4.76469e-07
4.74323e-07
4.72039e-07
4.69637e-07
4.67155e-07
5.35866e-07
5.35758e-07
5.3555e-07
5.35168e-07
5.34677e-07
5.34193e-07
5.33496e-07
5.32614e-07
5.32018e-07
5.31561e-07
5.30539e-07
5.29058e-07
5.2792e-07
5.27269e-07
5.26501e-07
5.25319e-07
5.24035e-07
5.22933e-07
5.21939e-07
5.20895e-07
5.1979e-07
5.18689e-07
5.17619e-07
5.16564e-07
5.15512e-07
5.14466e-07
5.1343e-07
5.12404e-07
5.11387e-07
5.10376e-07
5.09372e-07
5.08374e-07
5.07379e-07
5.06386e-07
5.05394e-07
5.04401e-07
5.03405e-07
5.02405e-07
5.01397e-07
5.0038e-07
4.99351e-07
4.9831e-07
4.9725e-07
4.96173e-07
4.9507e-07
4.93943e-07
4.92782e-07
4.91588e-07
4.90353e-07
4.8907e-07
4.87739e-07
4.86345e-07
4.84885e-07
4.83356e-07
4.81736e-07
4.80037e-07
4.78237e-07
4.76344e-07
4.74381e-07
4.72397e-07
5.32751e-07
5.3267e-07
5.32517e-07
5.32216e-07
5.31828e-07
5.31467e-07
5.30909e-07
5.30177e-07
5.29739e-07
5.29443e-07
5.28582e-07
5.27264e-07
5.26291e-07
5.25801e-07
5.25188e-07
5.24159e-07
5.23025e-07
5.22065e-07
5.21207e-07
5.20291e-07
5.19307e-07
5.18321e-07
5.17359e-07
5.16405e-07
5.15447e-07
5.1449e-07
5.13538e-07
5.12591e-07
5.1165e-07
5.10713e-07
5.0978e-07
5.08851e-07
5.07925e-07
5.07002e-07
5.06081e-07
5.05162e-07
5.04242e-07
5.03321e-07
5.02398e-07
5.01471e-07
5.00538e-07
4.99599e-07
4.98651e-07
4.97694e-07
4.96721e-07
4.95736e-07
4.94731e-07
4.93706e-07
4.92657e-07
4.91578e-07
4.90472e-07
4.89325e-07
4.8814e-07
4.86912e-07
4.85626e-07
4.84297e-07
4.82905e-07
4.81462e-07
4.79994e-07
4.78549e-07
5.30283e-07
5.30221e-07
5.30102e-07
5.29853e-07
5.29533e-07
5.29256e-07
5.28794e-07
5.28167e-07
5.27843e-07
5.27666e-07
5.26928e-07
5.25737e-07
5.24893e-07
5.24531e-07
5.24044e-07
5.23138e-07
5.22125e-07
5.21284e-07
5.20538e-07
5.19731e-07
5.18851e-07
5.17965e-07
5.17098e-07
5.16235e-07
5.15364e-07
5.1449e-07
5.13618e-07
5.12749e-07
5.11882e-07
5.11019e-07
5.10159e-07
5.09303e-07
5.08452e-07
5.07604e-07
5.06761e-07
5.05921e-07
5.05085e-07
5.04252e-07
5.03422e-07
5.02595e-07
5.0177e-07
5.00946e-07
5.00123e-07
4.993e-07
4.98475e-07
4.9765e-07
4.9682e-07
4.95987e-07
4.95148e-07
4.943e-07
4.93447e-07
4.92579e-07
4.917e-07
4.90809e-07
4.89895e-07
4.88972e-07
4.88027e-07
4.87072e-07
4.86134e-07
4.85259e-07
5.28335e-07
5.28284e-07
5.28189e-07
5.27976e-07
5.27704e-07
5.27485e-07
5.27091e-07
5.2654e-07
5.26299e-07
5.2621e-07
5.25563e-07
5.24469e-07
5.23723e-07
5.23459e-07
5.23069e-07
5.2226e-07
5.21344e-07
5.20597e-07
5.19944e-07
5.19226e-07
5.18434e-07
5.17633e-07
5.16848e-07
5.16064e-07
5.15271e-07
5.14473e-07
5.13675e-07
5.12879e-07
5.12084e-07
5.11293e-07
5.10505e-07
5.09721e-07
5.08944e-07
5.08172e-07
5.07407e-07
5.06649e-07
5.05899e-07
5.05157e-07
5.04424e-07
5.037e-07
5.02986e-07
5.02282e-07
5.01588e-07
5.00907e-07
5.00235e-07
4.99577e-07
4.9893e-07
4.98297e-07
4.97678e-07
4.97071e-07
4.96482e-07
4.95905e-07
4.95345e-07
4.94804e-07
4.94275e-07
4.93774e-07
4.93291e-07
4.92842e-07
4.9245e-07
4.92157e-07
5.26815e-07
5.26773e-07
5.26695e-07
5.26507e-07
5.26269e-07
5.26091e-07
5.25745e-07
5.2525e-07
5.25069e-07
5.25044e-07
5.24465e-07
5.23441e-07
5.2277e-07
5.22581e-07
5.22265e-07
5.21531e-07
5.20691e-07
5.2002e-07
5.1944e-07
5.18795e-07
5.18075e-07
5.17344e-07
5.16629e-07
5.15913e-07
5.15187e-07
5.14455e-07
5.13723e-07
5.12991e-07
5.12262e-07
5.11536e-07
5.10814e-07
5.10098e-07
5.0939e-07
5.08689e-07
5.07997e-07
5.07316e-07
5.06645e-07
5.05994e-07
5.05355e-07
5.04731e-07
5.04125e-07
5.03537e-07
5.02969e-07
5.02424e-07
5.01901e-07
5.01405e-07
5.00937e-07
5.00498e-07
5.00093e-07
4.99721e-07
4.99389e-07
4.99095e-07
4.98847e-07
4.98648e-07
4.98497e-07
4.98407e-07
4.98378e-07
4.98424e-07
4.98567e-07
4.98844e-07
5.25662e-07
5.25625e-07
5.2556e-07
5.25389e-07
5.25175e-07
5.25026e-07
5.24714e-07
5.24258e-07
5.2412e-07
5.24142e-07
5.23612e-07
5.22641e-07
5.22024e-07
5.2189e-07
5.21631e-07
5.20954e-07
5.20172e-07
5.19559e-07
5.19036e-07
5.18448e-07
5.17784e-07
5.1711e-07
5.1645e-07
5.1579e-07
5.15119e-07
5.14442e-07
5.13764e-07
5.13088e-07
5.12414e-07
5.11744e-07
5.1108e-07
5.10423e-07
5.09775e-07
5.09138e-07
5.08514e-07
5.07905e-07
5.07312e-07
5.06732e-07
5.06173e-07
5.05638e-07
5.05126e-07
5.04642e-07
5.04187e-07
5.03764e-07
5.03376e-07
5.03026e-07
5.02718e-07
5.02456e-07
5.02243e-07
5.02084e-07
5.01985e-07
5.01949e-07
5.01983e-07
5.02095e-07
5.02288e-07
5.02575e-07
5.02962e-07
5.03462e-07
5.04098e-07
5.04899e-07
5.24831e-07
5.24799e-07
5.24741e-07
5.24583e-07
5.24384e-07
5.24256e-07
5.23967e-07
5.23538e-07
5.2343e-07
5.23483e-07
5.22988e-07
5.22053e-07
5.21475e-07
5.21381e-07
5.21162e-07
5.20526e-07
5.19786e-07
5.19215e-07
5.18734e-07
5.18188e-07
5.17566e-07
5.16934e-07
5.16317e-07
5.15699e-07
5.1507e-07
5.14434e-07
5.13799e-07
5.13166e-07
5.12535e-07
5.11909e-07
5.1129e-07
5.1068e-07
5.10081e-07
5.09494e-07
5.08922e-07
5.08367e-07
5.07832e-07
5.07317e-07
5.06827e-07
5.06365e-07
5.05932e-07
5.05533e-07
5.0517e-07
5.04848e-07
5.0457e-07
5.04341e-07
5.04164e-07
5.04047e-07
5.03993e-07
5.04009e-07
5.04102e-07
5.04278e-07
5.04547e-07
5.04917e-07
5.05396e-07
5.05997e-07
5.06731e-07
5.07612e-07
5.08661e-07
5.09901e-07
5.24293e-07
5.24263e-07
5.2421e-07
5.24059e-07
5.23871e-07
5.23755e-07
5.23481e-07
5.23068e-07
5.22979e-07
5.23053e-07
5.2258e-07
5.21669e-07
5.21115e-07
5.21046e-07
5.20852e-07
5.20243e-07
5.1953e-07
5.18987e-07
5.18534e-07
5.18016e-07
5.17422e-07
5.16818e-07
5.16228e-07
5.15638e-07
5.15038e-07
5.14431e-07
5.13825e-07
5.13221e-07
5.1262e-07
5.12025e-07
5.11437e-07
5.10859e-07
5.10293e-07
5.09741e-07
5.09207e-07
5.08691e-07
5.08196e-07
5.07727e-07
5.07285e-07
5.06874e-07
5.06497e-07
5.06158e-07
5.05861e-07
5.0561e-07
5.0541e-07
5.05267e-07
5.05184e-07
5.05169e-07
5.05229e-07
5.05369e-07
5.056e-07
5.05928e-07
5.06365e-07
5.06919e-07
5.07604e-07
5.08431e-07
5.09415e-07
5.10571e-07
5.1192e-07
5.13478e-07
5.24028e-07
5.24e-07
5.23949e-07
5.23802e-07
5.23619e-07
5.23508e-07
5.23242e-07
5.22837e-07
5.22757e-07
5.22841e-07
5.22378e-07
5.21478e-07
5.20936e-07
5.2088e-07
5.20699e-07
5.20103e-07
5.19404e-07
5.18874e-07
5.18435e-07
5.1793e-07
5.1735e-07
5.1676e-07
5.16185e-07
5.15609e-07
5.15023e-07
5.1443e-07
5.13839e-07
5.13249e-07
5.12664e-07
5.12084e-07
5.11512e-07
5.10951e-07
5.10403e-07
5.09869e-07
5.09353e-07
5.08857e-07
5.08384e-07
5.07938e-07
5.07521e-07
5.07137e-07
5.06789e-07
5.06481e-07
5.06218e-07
5.06004e-07
5.05845e-07
5.05745e-07
5.05712e-07
5.0575e-07
5.05869e-07
5.06074e-07
5.06377e-07
5.06784e-07
5.07308e-07
5.07959e-07
5.08751e-07
5.09696e-07
5.10813e-07
5.12113e-07
5.1362e-07
5.15346e-07
5.24029e-07
5.24e-07
5.23949e-07
5.23803e-07
5.23619e-07
5.23509e-07
5.23242e-07
5.22838e-07
5.22758e-07
5.22842e-07
5.22379e-07
5.21479e-07
5.20937e-07
5.20881e-07
5.207e-07
5.20104e-07
5.19404e-07
5.18874e-07
5.18435e-07
5.1793e-07
5.1735e-07
5.16761e-07
5.16185e-07
5.1561e-07
5.15023e-07
5.14431e-07
5.13839e-07
5.1325e-07
5.12665e-07
5.12085e-07
5.11513e-07
5.10952e-07
5.10403e-07
5.0987e-07
5.09354e-07
5.08858e-07
5.08385e-07
5.07939e-07
5.07522e-07
5.07138e-07
5.0679e-07
5.06482e-07
5.06219e-07
5.06006e-07
5.05846e-07
5.05747e-07
5.05713e-07
5.05752e-07
5.0587e-07
5.06076e-07
5.06378e-07
5.06786e-07
5.0731e-07
5.07961e-07
5.08753e-07
5.09699e-07
5.10815e-07
5.12116e-07
5.13623e-07
5.15351e-07
5.24294e-07
5.24264e-07
5.24211e-07
5.24061e-07
5.23873e-07
5.23756e-07
5.23483e-07
5.2307e-07
5.22981e-07
5.23055e-07
5.22581e-07
5.2167e-07
5.21116e-07
5.21047e-07
5.20854e-07
5.20245e-07
5.19532e-07
5.18988e-07
5.18536e-07
5.18017e-07
5.17423e-07
5.1682e-07
5.1623e-07
5.1564e-07
5.1504e-07
5.14433e-07
5.13827e-07
5.13223e-07
5.12622e-07
5.12027e-07
5.11439e-07
5.10861e-07
5.10295e-07
5.09744e-07
5.09209e-07
5.08693e-07
5.08199e-07
5.07729e-07
5.07288e-07
5.06877e-07
5.065e-07
5.06161e-07
5.05865e-07
5.05614e-07
5.05414e-07
5.05271e-07
5.05188e-07
5.05174e-07
5.05233e-07
5.05374e-07
5.05605e-07
5.05934e-07
5.0637e-07
5.06925e-07
5.0761e-07
5.08438e-07
5.09423e-07
5.1058e-07
5.11931e-07
5.13493e-07
5.24833e-07
5.24801e-07
5.24743e-07
5.24585e-07
5.24387e-07
5.24258e-07
5.2397e-07
5.2354e-07
5.23432e-07
5.23486e-07
5.2299e-07
5.22056e-07
5.21477e-07
5.21383e-07
5.21164e-07
5.20529e-07
5.19788e-07
5.19217e-07
5.18737e-07
5.18191e-07
5.17569e-07
5.16937e-07
5.1632e-07
5.15702e-07
5.15073e-07
5.14438e-07
5.13802e-07
5.13169e-07
5.12539e-07
5.11913e-07
5.11294e-07
5.10684e-07
5.10084e-07
5.09498e-07
5.08926e-07
5.08371e-07
5.07836e-07
5.07321e-07
5.06832e-07
5.06369e-07
5.05937e-07
5.05538e-07
5.05176e-07
5.04854e-07
5.04576e-07
5.04347e-07
5.04171e-07
5.04054e-07
5.04001e-07
5.04017e-07
5.04111e-07
5.04287e-07
5.04557e-07
5.04927e-07
5.05407e-07
5.06009e-07
5.06744e-07
5.07627e-07
5.0868e-07
5.09924e-07
5.25665e-07
5.25628e-07
5.25562e-07
5.25392e-07
5.25178e-07
5.25029e-07
5.24717e-07
5.24261e-07
5.24123e-07
5.24145e-07
5.23615e-07
5.22644e-07
5.22027e-07
5.21894e-07
5.21634e-07
5.20958e-07
5.20176e-07
5.19562e-07
5.1904e-07
5.18452e-07
5.17788e-07
5.17114e-07
5.16455e-07
5.15795e-07
5.15124e-07
5.14447e-07
5.13769e-07
5.13093e-07
5.12419e-07
5.11749e-07
5.11085e-07
5.10428e-07
5.0978e-07
5.09143e-07
5.08519e-07
5.07909e-07
5.07316e-07
5.06737e-07
5.0618e-07
5.05644e-07
5.05134e-07
5.0465e-07
5.04195e-07
5.03773e-07
5.03385e-07
5.03036e-07
5.02728e-07
5.02466e-07
5.02254e-07
5.02095e-07
5.01996e-07
5.01961e-07
5.01996e-07
5.02108e-07
5.02302e-07
5.02591e-07
5.0298e-07
5.03482e-07
5.04122e-07
5.04928e-07
5.26819e-07
5.26776e-07
5.26699e-07
5.26511e-07
5.26273e-07
5.26095e-07
5.25749e-07
5.25253e-07
5.25072e-07
5.25048e-07
5.24469e-07
5.23445e-07
5.22774e-07
5.22585e-07
5.22269e-07
5.21536e-07
5.20696e-07
5.20025e-07
5.19445e-07
5.188e-07
5.1808e-07
5.17349e-07
5.16634e-07
5.15919e-07
5.15193e-07
5.14461e-07
5.13729e-07
5.12998e-07
5.12269e-07
5.11543e-07
5.10821e-07
5.10106e-07
5.09397e-07
5.08697e-07
5.08006e-07
5.07326e-07
5.06657e-07
5.06004e-07
5.05365e-07
5.04741e-07
5.04135e-07
5.03547e-07
5.0298e-07
5.02435e-07
5.01913e-07
5.01417e-07
5.00949e-07
5.00511e-07
5.00106e-07
4.99735e-07
4.99403e-07
4.9911e-07
4.98863e-07
4.98664e-07
4.98514e-07
4.98426e-07
4.984e-07
4.98448e-07
4.98596e-07
4.98879e-07
5.28339e-07
5.28288e-07
5.28194e-07
5.2798e-07
5.27709e-07
5.2749e-07
5.27095e-07
5.26545e-07
5.26304e-07
5.26215e-07
5.25568e-07
5.24474e-07
5.23728e-07
5.23464e-07
5.23074e-07
5.22265e-07
5.21349e-07
5.20603e-07
5.1995e-07
5.19232e-07
5.1844e-07
5.17639e-07
5.16854e-07
5.16071e-07
5.15278e-07
5.1448e-07
5.13682e-07
5.12886e-07
5.12092e-07
5.11301e-07
5.10513e-07
5.0973e-07
5.08953e-07
5.08181e-07
5.07417e-07
5.06659e-07
5.0591e-07
5.05168e-07
5.04435e-07
5.03712e-07
5.02998e-07
5.02294e-07
5.01601e-07
5.0092e-07
5.00249e-07
4.99591e-07
4.98945e-07
4.98312e-07
4.97694e-07
4.97088e-07
4.96499e-07
4.95923e-07
4.95364e-07
4.94824e-07
4.94297e-07
4.93796e-07
4.93317e-07
4.9287e-07
4.92483e-07
4.92197e-07
5.30289e-07
5.30226e-07
5.30107e-07
5.29858e-07
5.29539e-07
5.29261e-07
5.28799e-07
5.28173e-07
5.27848e-07
5.27671e-07
5.26933e-07
5.25743e-07
5.24899e-07
5.24537e-07
5.2405e-07
5.23144e-07
5.22131e-07
5.2129e-07
5.20545e-07
5.19738e-07
5.18858e-07
5.17973e-07
5.17106e-07
5.16242e-07
5.15372e-07
5.14498e-07
5.13626e-07
5.12757e-07
5.11891e-07
5.11028e-07
5.10169e-07
5.09313e-07
5.08462e-07
5.07615e-07
5.06772e-07
5.05933e-07
5.05097e-07
5.04264e-07
5.03435e-07
5.02608e-07
5.01784e-07
5.0096e-07
5.00137e-07
4.99315e-07
4.98491e-07
4.97666e-07
4.96837e-07
4.96004e-07
4.95166e-07
4.94319e-07
4.93467e-07
4.926e-07
4.91722e-07
4.90832e-07
4.89919e-07
4.88998e-07
4.88055e-07
4.87105e-07
4.86171e-07
4.85304e-07
5.32756e-07
5.32676e-07
5.32523e-07
5.32221e-07
5.31833e-07
5.31473e-07
5.30915e-07
5.30183e-07
5.29745e-07
5.29449e-07
5.28588e-07
5.27271e-07
5.26297e-07
5.25807e-07
5.25195e-07
5.24166e-07
5.23032e-07
5.22072e-07
5.21214e-07
5.20299e-07
5.19315e-07
5.18329e-07
5.17367e-07
5.16413e-07
5.15456e-07
5.14499e-07
5.13547e-07
5.12601e-07
5.1166e-07
5.10723e-07
5.0979e-07
5.08862e-07
5.07937e-07
5.07014e-07
5.06094e-07
5.05174e-07
5.04255e-07
5.03335e-07
5.02412e-07
5.01485e-07
5.00553e-07
4.99615e-07
4.98667e-07
4.9771e-07
4.96739e-07
4.95754e-07
4.9475e-07
4.93725e-07
4.92677e-07
4.916e-07
4.90494e-07
4.89349e-07
4.88164e-07
4.86938e-07
4.85654e-07
4.84326e-07
4.82937e-07
4.81498e-07
4.80034e-07
4.78596e-07
5.35872e-07
5.35764e-07
5.35556e-07
5.35175e-07
5.34683e-07
5.34199e-07
5.33503e-07
5.3262e-07
5.32024e-07
5.31568e-07
5.30546e-07
5.29065e-07
5.27927e-07
5.27276e-07
5.26508e-07
5.25326e-07
5.24043e-07
5.2294e-07
5.21947e-07
5.20903e-07
5.19798e-07
5.18698e-07
5.17628e-07
5.16573e-07
5.15522e-07
5.14476e-07
5.1344e-07
5.12414e-07
5.11397e-07
5.10387e-07
5.09384e-07
5.08386e-07
5.07391e-07
5.06399e-07
5.05407e-07
5.04414e-07
5.03419e-07
5.02419e-07
5.01412e-07
5.00396e-07
4.99368e-07
4.98326e-07
4.97268e-07
4.96191e-07
4.95089e-07
4.93962e-07
4.92803e-07
4.91609e-07
4.90375e-07
4.89093e-07
4.87763e-07
4.8637e-07
4.84911e-07
4.83384e-07
4.81765e-07
4.80069e-07
4.78271e-07
4.76382e-07
4.74424e-07
4.72446e-07
5.39849e-07
5.39694e-07
5.39392e-07
5.38874e-07
5.3821e-07
5.37527e-07
5.36615e-07
5.35507e-07
5.34681e-07
5.33998e-07
5.32751e-07
5.31043e-07
5.29681e-07
5.28817e-07
5.27849e-07
5.26474e-07
5.25005e-07
5.23729e-07
5.22576e-07
5.21387e-07
5.20147e-07
5.18923e-07
5.17742e-07
5.16588e-07
5.15446e-07
5.14319e-07
5.1321e-07
5.12117e-07
5.11037e-07
5.09968e-07
5.08908e-07
5.07855e-07
5.06805e-07
5.05758e-07
5.0471e-07
5.03659e-07
5.02602e-07
5.01538e-07
5.00464e-07
4.99377e-07
4.98273e-07
4.97149e-07
4.96002e-07
4.94829e-07
4.93624e-07
4.92385e-07
4.91103e-07
4.89775e-07
4.88394e-07
4.86949e-07
4.8544e-07
4.83849e-07
4.8217e-07
4.80398e-07
4.78505e-07
4.76501e-07
4.74358e-07
4.72078e-07
4.69679e-07
4.67202e-07
5.44998e-07
5.44791e-07
5.44381e-07
5.43696e-07
5.42811e-07
5.41866e-07
5.40667e-07
5.3926e-07
5.38132e-07
5.37151e-07
5.35611e-07
5.3361e-07
5.31956e-07
5.30816e-07
5.29589e-07
5.27967e-07
5.2626e-07
5.24763e-07
5.23408e-07
5.22035e-07
5.20627e-07
5.19252e-07
5.17936e-07
5.16662e-07
5.15415e-07
5.14194e-07
5.13002e-07
5.11836e-07
5.1069e-07
5.09562e-07
5.08448e-07
5.07343e-07
5.06246e-07
5.05152e-07
5.04058e-07
5.02962e-07
5.01859e-07
5.00748e-07
4.99623e-07
4.98483e-07
4.97321e-07
4.96139e-07
4.94929e-07
4.93691e-07
4.92415e-07
4.91101e-07
4.89739e-07
4.88323e-07
4.86849e-07
4.853e-07
4.83676e-07
4.81957e-07
4.80134e-07
4.78197e-07
4.76118e-07
4.73894e-07
4.71498e-07
4.68916e-07
4.66151e-07
4.6324e-07
5.51283e-07
5.50851e-07
5.50074e-07
5.48928e-07
5.47544e-07
5.46103e-07
5.4444e-07
5.42605e-07
5.4108e-07
5.39724e-07
5.37823e-07
5.35469e-07
5.3348e-07
5.32032e-07
5.30517e-07
5.28614e-07
5.26638e-07
5.24896e-07
5.23328e-07
5.21772e-07
5.20213e-07
5.18719e-07
5.17316e-07
5.15981e-07
5.14696e-07
5.13455e-07
5.12255e-07
5.11089e-07
5.09949e-07
5.08829e-07
5.07722e-07
5.06623e-07
5.05529e-07
5.04434e-07
5.03335e-07
5.02229e-07
5.01114e-07
4.99985e-07
4.98841e-07
4.9768e-07
4.96501e-07
4.95295e-07
4.94059e-07
4.92791e-07
4.91485e-07
4.9014e-07
4.88747e-07
4.873e-07
4.85797e-07
4.84217e-07
4.82566e-07
4.80815e-07
4.78957e-07
4.76976e-07
4.7484e-07
4.72531e-07
4.70024e-07
4.67282e-07
4.64294e-07
4.61037e-07
5.62719e-07
5.61963e-07
5.60545e-07
5.58518e-07
5.56149e-07
5.53746e-07
5.51217e-07
5.48627e-07
5.46433e-07
5.44457e-07
5.41958e-07
5.39035e-07
5.36534e-07
5.34633e-07
5.327e-07
5.30396e-07
5.28045e-07
5.25966e-07
5.241e-07
5.2228e-07
5.20494e-07
5.18814e-07
5.17263e-07
5.15814e-07
5.14442e-07
5.13135e-07
5.11886e-07
5.10684e-07
5.09517e-07
5.08375e-07
5.0725e-07
5.06138e-07
5.05031e-07
5.03924e-07
5.02815e-07
5.01699e-07
5.00573e-07
4.99433e-07
4.98276e-07
4.971e-07
4.95901e-07
4.94682e-07
4.93439e-07
4.92167e-07
4.90863e-07
4.89522e-07
4.88145e-07
4.86714e-07
4.85251e-07
4.83704e-07
4.82126e-07
4.80442e-07
4.78683e-07
4.76818e-07
4.74819e-07
4.72632e-07
4.70326e-07
4.67638e-07
4.64762e-07
4.61393e-07
5.71136e-07
5.69397e-07
5.66732e-07
5.63514e-07
5.60186e-07
5.5707e-07
5.54026e-07
5.51022e-07
5.48393e-07
5.45943e-07
5.43022e-07
5.39769e-07
5.36951e-07
5.34656e-07
5.32257e-07
5.29463e-07
5.26624e-07
5.24081e-07
5.21827e-07
5.19752e-07
5.17856e-07
5.16186e-07
5.14733e-07
5.13444e-07
5.12267e-07
5.11172e-07
5.10132e-07
5.09127e-07
5.08139e-07
5.07155e-07
5.06167e-07
5.0517e-07
5.0416e-07
5.03134e-07
5.02091e-07
5.01028e-07
4.99946e-07
4.98844e-07
4.97723e-07
4.96578e-07
4.95412e-07
4.94213e-07
4.92996e-07
4.91746e-07
4.90475e-07
4.89173e-07
4.8785e-07
4.86477e-07
4.85123e-07
4.83647e-07
4.82262e-07
4.80718e-07
4.7921e-07
4.77624e-07
4.76049e-07
4.74095e-07
4.72571e-07
4.70147e-07
4.68224e-07
4.64776e-07
6.19024e-07
6.04884e-07
5.9108e-07
5.8041e-07
5.72888e-07
5.67447e-07
5.62867e-07
5.58615e-07
5.5472e-07
5.50952e-07
5.47038e-07
5.4331e-07
5.40174e-07
5.37359e-07
5.34386e-07
5.3123e-07
5.28163e-07
5.25321e-07
5.22683e-07
5.2025e-07
5.18075e-07
5.16186e-07
5.14561e-07
5.13151e-07
5.11906e-07
5.10779e-07
5.09734e-07
5.08737e-07
5.07764e-07
5.06801e-07
5.05834e-07
5.04857e-07
5.03865e-07
5.02855e-07
5.01826e-07
5.00775e-07
4.99704e-07
4.9861e-07
4.97495e-07
4.96354e-07
4.95197e-07
4.94009e-07
4.92813e-07
4.91578e-07
4.90341e-07
4.89074e-07
4.8779e-07
4.86506e-07
4.85201e-07
4.83871e-07
4.82637e-07
4.81242e-07
4.80114e-07
4.78773e-07
4.77795e-07
4.76492e-07
4.76132e-07
4.74509e-07
4.75292e-07
4.71719e-07
4.91369e-07
4.33294e-07
4.00915e-07
3.78511e-07
3.62278e-07
3.49854e-07
3.37064e-07
3.21236e-07
3.01307e-07
2.78121e-07
2.52987e-07
2.26966e-07
2.01094e-07
1.76311e-07
1.5367e-07
1.34039e-07
1.17867e-07
1.06111e-07
9.77362e-08
9.47399e-08
9.2738e-08
9.74986e-08
9.81812e-08
1.08038e-07
1.0772e-07
1.19264e-07
1.16275e-07
1.25958e-07
1.21739e-07
7.42605e-08
4.69083e-07
4.10597e-07
3.8525e-07
3.69362e-07
3.56173e-07
3.44494e-07
3.31916e-07
3.1548e-07
2.95196e-07
2.72242e-07
2.47804e-07
2.22764e-07
1.98051e-07
1.74478e-07
1.52857e-07
1.34013e-07
1.18353e-07
1.06983e-07
9.83457e-08
9.54278e-08
9.24917e-08
9.7144e-08
9.69774e-08
1.06474e-07
1.06785e-07
1.15828e-07
1.17755e-07
1.19721e-07
1.29323e-07
7.8597e-08
4.5129e-07
4.07597e-07
3.86366e-07
3.7152e-07
3.57397e-07
3.44152e-07
3.29645e-07
3.12361e-07
2.91912e-07
2.69115e-07
2.44946e-07
2.20215e-07
1.95808e-07
1.72519e-07
1.51237e-07
1.32874e-07
1.17531e-07
1.06547e-07
9.79717e-08
9.53036e-08
9.21939e-08
9.68517e-08
9.68466e-08
1.04982e-07
1.07604e-07
1.13199e-07
1.19254e-07
1.171e-07
1.32524e-07
1.04504e-07
4.38317e-07
4.03904e-07
3.82555e-07
3.67849e-07
3.54465e-07
3.41096e-07
3.26063e-07
3.07956e-07
2.87121e-07
2.64343e-07
2.40404e-07
2.16011e-07
1.92043e-07
1.69308e-07
1.48611e-07
1.3076e-07
1.1583e-07
1.05232e-07
9.69448e-08
9.43458e-08
9.16224e-08
9.54918e-08
9.67786e-08
1.03004e-07
1.08111e-07
1.11717e-07
1.20321e-07
1.17753e-07
1.32351e-07
1.17787e-07
4.27139e-07
4.00292e-07
3.80527e-07
3.66895e-07
3.53905e-07
3.39586e-07
3.22959e-07
3.03885e-07
2.8272e-07
2.59952e-07
2.36145e-07
2.11955e-07
1.88262e-07
1.65852e-07
1.45478e-07
1.2796e-07
1.13386e-07
1.03054e-07
9.52076e-08
9.25023e-08
9.05291e-08
9.35422e-08
9.62472e-08
1.0137e-07
1.07743e-07
1.11416e-07
1.19903e-07
1.19499e-07
1.30127e-07
1.26389e-07
4.18105e-07
3.9738e-07
3.79353e-07
3.6533e-07
3.5168e-07
3.36617e-07
3.19275e-07
2.99606e-07
2.7814e-07
2.55295e-07
2.31513e-07
2.07423e-07
1.83896e-07
1.6172e-07
1.4161e-07
1.24404e-07
1.10205e-07
1.00067e-07
9.27471e-08
8.98438e-08
8.87687e-08
9.1181e-08
9.49949e-08
9.99229e-08
1.06519e-07
1.11225e-07
1.18869e-07
1.2079e-07
1.28975e-07
1.30333e-07
4.11352e-07
3.94803e-07
3.78035e-07
3.63341e-07
3.49183e-07
3.3367e-07
3.157e-07
2.95382e-07
2.73507e-07
2.50483e-07
2.26629e-07
2.02539e-07
1.79086e-07
1.57068e-07
1.37173e-07
1.20192e-07
1.06328e-07
9.63113e-08
8.95363e-08
8.64831e-08
8.62582e-08
8.84627e-08
9.29517e-08
9.82555e-08
1.04599e-07
1.10359e-07
1.17661e-07
1.21094e-07
1.28135e-07
1.31904e-07
4.06464e-07
3.92175e-07
3.76433e-07
3.61337e-07
3.46466e-07
3.30391e-07
3.1188e-07
2.90992e-07
2.68681e-07
2.45407e-07
2.21395e-07
1.97218e-07
1.73745e-07
1.51802e-07
1.32053e-07
1.15219e-07
1.01645e-07
9.17174e-08
8.55121e-08
8.2356e-08
8.29114e-08
8.52277e-08
9.00309e-08
9.60026e-08
1.02171e-07
1.08747e-07
1.16303e-07
1.20711e-07
1.27421e-07
1.32555e-07
4.02773e-07
3.8947e-07
3.74623e-07
3.59249e-07
3.43492e-07
3.26774e-07
3.07808e-07
2.86413e-07
2.63622e-07
2.40011e-07
2.1575e-07
1.91396e-07
1.67811e-07
1.45859e-07
1.2619e-07
1.09431e-07
9.61564e-08
8.62678e-08
8.06101e-08
7.75076e-08
7.86331e-08
8.13257e-08
8.62163e-08
9.29835e-08
9.93035e-08
1.06376e-07
1.1451e-07
1.19696e-07
1.2641e-07
1.32383e-07
3.9983e-07
3.86878e-07
3.72589e-07
3.56939e-07
3.40281e-07
3.22875e-07
3.03478e-07
2.81591e-07
2.58252e-07
2.34204e-07
2.09604e-07
1.84985e-07
1.61198e-07
1.39144e-07
1.19496e-07
1.02746e-07
8.97348e-08
7.98643e-08
7.47138e-08
7.17749e-08
7.33035e-08
7.65708e-08
8.14994e-08
8.90029e-08
9.58529e-08
1.03233e-07
1.12099e-07
1.18171e-07
1.24967e-07
1.31649e-07
3.97445e-07
3.84496e-07
3.70282e-07
3.54341e-07
3.36868e-07
3.18688e-07
2.98791e-07
2.76394e-07
2.52441e-07
2.27861e-07
2.02836e-07
1.77872e-07
1.53799e-07
1.31556e-07
1.1188e-07
9.50661e-08
8.23055e-08
7.24486e-08
6.77226e-08
6.50733e-08
6.68196e-08
7.07827e-08
7.58342e-08
8.39603e-08
9.16545e-08
9.933e-08
1.0889e-07
1.15986e-07
1.23075e-07
1.3029e-07
3.95459e-07
3.82236e-07
3.67692e-07
3.51443e-07
3.33233e-07
3.14159e-07
2.93649e-07
2.70719e-07
2.46095e-07
2.20882e-07
1.95342e-07
1.69952e-07
1.45514e-07
1.22984e-07
1.03223e-07
8.62747e-08
7.37146e-08
6.38857e-08
5.94706e-08
5.72219e-08
5.90579e-08
6.37629e-08
6.91297e-08
7.77204e-08
8.64573e-08
9.4566e-08
1.04736e-07
1.13064e-07
1.20568e-07
1.28243e-07
3.9362e-07
3.7998e-07
3.64855e-07
3.4822e-07
3.29326e-07
3.09252e-07
2.87979e-07
2.64457e-07
2.39086e-07
2.13116e-07
1.86955e-07
1.61054e-07
1.36181e-07
1.13268e-07
9.33736e-08
7.62381e-08
6.38318e-08
5.40519e-08
4.98058e-08
4.80521e-08
4.99143e-08
5.53264e-08
6.12312e-08
7.01602e-08
8.00206e-08
8.88083e-08
9.95116e-08
1.09078e-07
1.17328e-07
1.25451e-07
3.91717e-07
3.7766e-07
3.61812e-07
3.44646e-07
3.25086e-07
3.03926e-07
2.81689e-07
2.5746e-07
2.31262e-07
2.04409e-07
1.77512e-07
1.51013e-07
1.25645e-07
1.02251e-07
8.21655e-08
6.47902e-08
5.24514e-08
4.27675e-08
3.85328e-08
3.73384e-08
3.92333e-08
4.52466e-08
5.19146e-08
6.11335e-08
7.20821e-08
8.18348e-08
9.30575e-08
1.03865e-07
1.13131e-07
1.21765e-07
3.89675e-07
3.75246e-07
3.58585e-07
3.40681e-07
3.20413e-07
2.98099e-07
2.74673e-07
2.49568e-07
2.2246e-07
1.9459e-07
1.66816e-07
1.39604e-07
1.13685e-07
8.9715e-08
6.93689e-08
5.17231e-08
3.93415e-08
2.98142e-08
2.54438e-08
2.48261e-08
2.68289e-08
3.3294e-08
4.0897e-08
5.04425e-08
6.23646e-08
7.33406e-08
8.51831e-08
9.71802e-08
1.07716e-07
1.17048e-07
3.87512e-07
3.72693e-07
3.55147e-07
3.36254e-07
3.1516e-07
2.91644e-07
2.66804e-07
2.40595e-07
2.12466e-07
1.83438e-07
1.54624e-07
1.2656e-07
1.00039e-07
7.54132e-08
5.4721e-08
3.67948e-08
2.42324e-08
1.49306e-08
1.0405e-08
1.02128e-08
1.24548e-08
1.91956e-08
2.7811e-08
3.78179e-08
5.05633e-08
6.29438e-08
7.56094e-08
8.87279e-08
1.00742e-07
1.11017e-07
3.85249e-07
3.69916e-07
3.5141e-07
3.31257e-07
3.09128e-07
2.84355e-07
2.57902e-07
2.30301e-07
2.01003e-07
1.70684e-07
1.40659e-07
1.11575e-07
8.43802e-08
5.90447e-08
3.78931e-08
1.96991e-08
6.79851e-09
-2.25109e-09
-7.0557e-09
-6.87807e-09
-4.23624e-09
2.63191e-09
1.22174e-08
2.29002e-08
3.63221e-08
5.01666e-08
6.39369e-08
7.8161e-08
9.17721e-08
1.03325e-07
3.82858e-07
3.6678e-07
3.47214e-07
3.25537e-07
3.02064e-07
2.7593e-07
2.47704e-07
2.18389e-07
1.87718e-07
1.5598e-07
1.24577e-07
9.42778e-08
6.62953e-08
4.02348e-08
1.84867e-08
5.54516e-11
-1.33228e-08
-2.21548e-08
-2.71477e-08
-2.68757e-08
-2.37073e-08
-1.67778e-08
-6.39413e-09
5.19173e-09
1.92111e-08
3.44352e-08
4.96031e-08
6.50122e-08
8.02857e-08
9.34246e-08
3.80254e-07
3.63094e-07
3.42317e-07
3.18873e-07
2.93653e-07
2.65956e-07
2.35831e-07
2.04473e-07
1.7215e-07
1.38853e-07
1.05931e-07
7.42228e-08
4.52733e-08
1.85101e-08
-3.96933e-09
-2.26169e-08
-3.65439e-08
-4.53009e-08
-5.03286e-08
-5.01779e-08
-4.64243e-08
-3.94975e-08
-2.86352e-08
-1.59951e-08
-1.32529e-09
1.50886e-08
3.18638e-08
4.8595e-08
6.55351e-08
8.05265e-08
3.77316e-07
3.58642e-07
3.36414e-07
3.10968e-07
2.83532e-07
2.53913e-07
2.21739e-07
1.88042e-07
1.53704e-07
1.18672e-07
8.41105e-08
5.08417e-08
2.06846e-08
-6.75327e-09
-3.0044e-08
-4.89309e-08
-6.3364e-08
-7.22778e-08
-7.71994e-08
-7.73262e-08
-7.32113e-08
-6.61318e-08
-5.51969e-08
-4.15863e-08
-2.60843e-08
-8.67401e-09
9.81773e-09
2.81886e-08
4.67295e-08
6.36394e-08
3.73855e-07
3.53128e-07
3.29037e-07
3.01328e-07
2.71203e-07
2.3912e-07
2.04654e-07
1.68375e-07
1.3161e-07
9.45879e-08
5.82683e-08
2.33686e-08
-8.24984e-09
-3.63994e-08
-6.04703e-08
-7.96706e-08
-9.44466e-08
-1.03735e-07
-1.08517e-07
-1.08969e-07
-1.04805e-07
-9.74333e-08
-8.63955e-08
-7.23829e-08
-5.61385e-08
-3.79284e-08
-1.79942e-08
2.14164e-09
2.25414e-08
4.14371e-08
3.69639e-07
3.46268e-07
3.19686e-07
2.89306e-07
2.56003e-07
2.20765e-07
1.83559e-07
1.44478e-07
1.04891e-07
6.5525e-08
2.72678e-08
-9.25461e-09
-4.24902e-08
-7.15183e-08