/*--------------------------------*- C++ -*----------------------------------*\
| =========                 |                                                 |
| \\      /  F ield         | OpenFOAM: The Open Source CFD Toolbox           |
|  \\    /   O peration     | Version:  2312                                  |
|   \\  /    A nd           | Website:  www.openfoam.com                      |
|    \\/     M anipulation  |                                                 |
\*---------------------------------------------------------------------------*/
FoamFile
{
    version     2.0;
    format      ascii;
    arch        "LSB;label=32;scalar=64";
    class       volVectorField;
    location    "32000";
    object      U;
}
// * * * * * * * * * * * * * * * * * * * * * * * * * * * * * * * * * * * * * //

dimensions      [0 1 -1 0 0 0 0];

internalField   nonuniform List<vector> 
10800
(
(0.000992484 4.94183e-06 0)
(0.000990038 1.24575e-05 0)
(0.000986873 1.74787e-05 0)
(0.000980501 2.06623e-05 0)
(0.000971089 2.27452e-05 0)
(0.0009598 2.42386e-05 0)
(0.0009477 2.53775e-05 0)
(0.000935325 2.62365e-05 0)
(0.000922817 2.684e-05 0)
(0.000910154 2.72131e-05 0)
(0.000897292 2.73935e-05 0)
(0.000884226 2.74239e-05 0)
(0.000870993 2.73426e-05 0)
(0.000857649 2.71774e-05 0)
(0.000844245 2.69466e-05 0)
(0.000830819 2.66618e-05 0)
(0.000817396 2.6331e-05 0)
(0.000803996 2.59609e-05 0)
(0.000790634 2.55567e-05 0)
(0.000777324 2.51235e-05 0)
(0.000764083 2.4665e-05 0)
(0.000750924 2.41843e-05 0)
(0.000737863 2.36834e-05 0)
(0.000724914 2.31642e-05 0)
(0.000712089 2.26276e-05 0)
(0.000699402 2.20751e-05 0)
(0.000686865 2.15068e-05 0)
(0.00067449 2.09242e-05 0)
(0.000662291 2.03266e-05 0)
(0.00065028 1.97159e-05 0)
(0.00063847 1.90906e-05 0)
(0.000626872 1.84533e-05 0)
(0.000615501 1.78014e-05 0)
(0.000604366 1.71389e-05 0)
(0.000593485 1.64614e-05 0)
(0.000582865 1.57755e-05 0)
(0.000572525 1.50737e-05 0)
(0.000562468 1.43668e-05 0)
(0.000552721 1.3642e-05 0)
(0.000543276 1.29173e-05 0)
(0.000534174 1.2171e-05 0)
(0.000525386 1.14331e-05 0)
(0.000516983 1.06661e-05 0)
(0.000508891 9.92091e-06 0)
(0.00050125 9.13274e-06 0)
(0.000493874 8.38743e-06 0)
(0.000487083 7.57436e-06 0)
(0.000480402 6.83605e-06 0)
(0.000474621 5.98971e-06 0)
(0.000468491 5.25707e-06 0)
(0.000464103 4.3698e-06 0)
(0.000458011 3.59557e-06 0)
(0.00045608 2.7076e-06 0)
(0.000448377 1.64269e-06 0)
(0.000452046 1.08395e-06 0)
(0.000437639 -1.3351e-06 0)
(0.000456208 6.08092e-08 0)
(0.000420185 -7.76785e-06 0)
(0.000478699 2.00408e-06 0)
(0.000383923 -2.44242e-05 0)
(0.00100003 5.80201e-06 0)
(0.00100172 1.4992e-05 0)
(0.00100423 2.15221e-05 0)
(0.00100706 2.60844e-05 0)
(0.00100979 2.94417e-05 0)
(0.00101219 3.21223e-05 0)
(0.00101421 3.43737e-05 0)
(0.00101589 3.62825e-05 0)
(0.00101726 3.78811e-05 0)
(0.00101837 3.92003e-05 0)
(0.00101923 4.02814e-05 0)
(0.00101982 4.11701e-05 0)
(0.00102014 4.19071e-05 0)
(0.0010202 4.25224e-05 0)
(0.00102001 4.30359e-05 0)
(0.00101958 4.34605e-05 0)
(0.00101893 4.38046e-05 0)
(0.00101806 4.4075e-05 0)
(0.00101699 4.42773e-05 0)
(0.00101573 4.44161e-05 0)
(0.0010143 4.44951e-05 0)
(0.00101268 4.45169e-05 0)
(0.00101092 4.44837e-05 0)
(0.00100899 4.43962e-05 0)
(0.00100693 4.42558e-05 0)
(0.00100472 4.40623e-05 0)
(0.00100241 4.38167e-05 0)
(0.000999957 4.35177e-05 0)
(0.000997432 4.31671e-05 0)
(0.000994771 4.27618e-05 0)
(0.000992076 4.23054e-05 0)
(0.000989237 4.17922e-05 0)
(0.000986418 4.1229e-05 0)
(0.000983429 4.06053e-05 0)
(0.00098054 3.99346e-05 0)
(0.000977424 3.91977e-05 0)
(0.000974528 3.842e-05 0)
(0.000971295 3.75663e-05 0)
(0.000968476 3.66841e-05 0)
(0.000965117 3.57085e-05 0)
(0.000962487 3.47275e-05 0)
(0.000958956 3.36222e-05 0)
(0.000956681 3.25535e-05 0)
(0.000952868 3.13045e-05 0)
(0.0009512 3.01679e-05 0)
(0.000946881 2.87498e-05 0)
(0.000946226 2.75797e-05 0)
(0.000940978 2.59452e-05 0)
(0.000942001 2.48004e-05 0)
(0.000935054 2.28638e-05 0)
(0.000938867 2.18437e-05 0)
(0.000928839 1.94521e-05 0)
(0.000937323 1.87222e-05 0)
(0.000921772 1.5615e-05 0)
(0.000938106 1.54351e-05 0)
(0.000912745 1.12065e-05 0)
(0.000942339 1.19092e-05 0)
(0.000899726 6.09623e-06 0)
(0.000951918 7.70251e-06 0)
(0.000879585 7.05066e-07 0)
(0.000999989 1.96258e-06 0)
(0.00100078 5.76405e-06 0)
(0.00100224 9.28906e-06 0)
(0.00100423 1.24537e-05 0)
(0.00100654 1.52553e-05 0)
(0.00100897 1.7739e-05 0)
(0.00101139 1.99594e-05 0)
(0.00101376 2.19596e-05 0)
(0.00101607 2.37669e-05 0)
(0.00101833 2.53978e-05 0)
(0.00102055 2.68657e-05 0)
(0.00102272 2.81837e-05 0)
(0.00102483 2.93665e-05 0)
(0.00102689 3.04276e-05 0)
(0.00102887 3.13797e-05 0)
(0.00103079 3.22325e-05 0)
(0.00103264 3.2994e-05 0)
(0.00103442 3.36699e-05 0)
(0.00103615 3.4266e-05 0)
(0.00103781 3.47852e-05 0)
(0.00103942 3.52323e-05 0)
(0.00104097 3.56084e-05 0)
(0.00104247 3.59176e-05 0)
(0.0010439 3.61592e-05 0)
(0.00104529 3.63373e-05 0)
(0.00104662 3.64487e-05 0)
(0.00104791 3.64989e-05 0)
(0.00104913 3.64817e-05 0)
(0.00105033 3.64051e-05 0)
(0.00105144 3.62584e-05 0)
(0.00105257 3.60545e-05 0)
(0.00105357 3.57762e-05 0)
(0.00105463 3.5444e-05 0)
(0.00105552 3.50305e-05 0)
(0.00105654 3.45686e-05 0)
(0.00105731 3.40155e-05 0)
(0.0010583 3.34233e-05 0)
(0.00105894 3.27252e-05 0)
(0.00105996 3.20033e-05 0)
(0.00106043 3.11538e-05 0)
(0.00106153 3.03048e-05 0)
(0.0010618 2.9296e-05 0)
(0.00106306 2.83252e-05 0)
(0.00106305 2.71473e-05 0)
(0.0010646 2.60641e-05 0)
(0.00106418 2.47048e-05 0)
(0.00106622 2.35237e-05 0)
(0.00106518 2.19674e-05 0)
(0.001068 2.07097e-05 0)
(0.00106602 1.89394e-05 0)
(0.00107005 1.76348e-05 0)
(0.00106661 1.56356e-05 0)
(0.0010725 1.43239e-05 0)
(0.00106682 1.20965e-05 0)
(0.00107556 1.08283e-05 0)
(0.0010664 8.42613e-06 0)
(0.00107948 7.2632e-06 0)
(0.00106499 4.88631e-06 0)
(0.00108471 3.85909e-06 0)
(0.00106212 2.01109e-06 0)
(0.00100001 1.74165e-06 0)
(0.00100047 5.15941e-06 0)
(0.00100128 8.42032e-06 0)
(0.00100239 1.14481e-05 0)
(0.00100374 1.42018e-05 0)
(0.00100526 1.66785e-05 0)
(0.00100689 1.89e-05 0)
(0.00100858 2.08959e-05 0)
(0.00101033 2.26934e-05 0)
(0.00101212 2.43131e-05 0)
(0.00101394 2.57708e-05 0)
(0.00101578 2.70792e-05 0)
(0.00101764 2.82507e-05 0)
(0.00101951 2.92972e-05 0)
(0.00102139 3.02304e-05 0)
(0.00102327 3.10604e-05 0)
(0.00102515 3.17963e-05 0)
(0.00102702 3.24451e-05 0)
(0.0010289 3.30131e-05 0)
(0.00103077 3.35045e-05 0)
(0.00103263 3.39241e-05 0)
(0.00103449 3.42741e-05 0)
(0.00103635 3.45583e-05 0)
(0.0010382 3.47774e-05 0)
(0.00104006 3.49346e-05 0)
(0.00104189 3.50288e-05 0)
(0.00104374 3.50633e-05 0)
(0.00104556 3.50351e-05 0)
(0.0010474 3.49483e-05 0)
(0.0010492 3.47979e-05 0)
(0.00105103 3.4589e-05 0)
(0.00105282 3.43143e-05 0)
(0.00105464 3.39809e-05 0)
(0.0010564 3.35788e-05 0)
(0.00105822 3.31176e-05 0)
(0.00105995 3.2584e-05 0)
(0.00106176 3.19909e-05 0)
(0.00106346 3.13213e-05 0)
(0.00106528 3.05915e-05 0)
(0.00106693 2.97816e-05 0)
(0.00106877 2.89102e-05 0)
(0.00107036 2.79563e-05 0)
(0.00107223 2.69379e-05 0)
(0.00107375 2.58379e-05 0)
(0.00107567 2.46665e-05 0)
(0.0010771 2.34213e-05 0)
(0.00107911 2.20893e-05 0)
(0.00108041 2.07052e-05 0)
(0.00108258 1.92029e-05 0)
(0.00108371 1.7696e-05 0)
(0.00108609 1.60103e-05 0)
(0.00108698 1.44154e-05 0)
(0.00108968 1.25292e-05 0)
(0.00109024 1.0915e-05 0)
(0.00109339 8.80639e-06 0)
(0.00109347 7.29837e-06 0)
(0.00109728 4.93331e-06 0)
(0.00109666 3.73738e-06 0)
(0.00110139 1.03072e-06 0)
(0.00109975 4.3307e-07 0)
(0.001 1.15318e-06 0)
(0.00100023 3.43212e-06 0)
(0.00100067 5.64554e-06 0)
(0.00100134 7.76172e-06 0)
(0.0010022 9.75931e-06 0)
(0.00100323 1.1628e-05 0)
(0.00100441 1.33665e-05 0)
(0.00100569 1.49788e-05 0)
(0.00100705 1.64709e-05 0)
(0.00100848 1.78491e-05 0)
(0.00100996 1.91186e-05 0)
(0.00101149 2.02844e-05 0)
(0.00101305 2.13512e-05 0)
(0.00101465 2.23239e-05 0)
(0.00101627 2.32075e-05 0)
(0.0010179 2.40067e-05 0)
(0.00101956 2.4726e-05 0)
(0.00102123 2.53693e-05 0)
(0.0010229 2.594e-05 0)
(0.00102459 2.64409e-05 0)
(0.00102628 2.68743e-05 0)
(0.00102799 2.72422e-05 0)
(0.00102969 2.75462e-05 0)
(0.00103141 2.77875e-05 0)
(0.00103313 2.7967e-05 0)
(0.00103485 2.80857e-05 0)
(0.00103657 2.81433e-05 0)
(0.0010383 2.81408e-05 0)
(0.00104004 2.80768e-05 0)
(0.00104177 2.79528e-05 0)
(0.00104351 2.77659e-05 0)
(0.00104525 2.75186e-05 0)
(0.00104699 2.72058e-05 0)
(0.00104872 2.68326e-05 0)
(0.00105047 2.63897e-05 0)
(0.0010522 2.5887e-05 0)
(0.00105394 2.53087e-05 0)
(0.00105567 2.46731e-05 0)
(0.00105741 2.39529e-05 0)
(0.00105914 2.31809e-05 0)
(0.00106087 2.23111e-05 0)
(0.00106259 2.14005e-05 0)
(0.00106431 2.03718e-05 0)
(0.00106604 1.93225e-05 0)
(0.00106775 1.81237e-05 0)
(0.00106947 1.69392e-05 0)
(0.00107117 1.5556e-05 0)
(0.0010729 1.42466e-05 0)
(0.00107458 1.26601e-05 0)
(0.00107635 1.12455e-05 0)
(0.001078 9.42874e-06 0)
(0.00107983 7.94237e-06 0)
(0.00108147 5.85351e-06 0)
(0.00108343 4.3487e-06 0)
(0.00108506 1.92223e-06 0)
(0.00108724 4.88538e-07 0)
(0.00108884 -2.3662e-06 0)
(0.00109134 -3.57609e-06 0)
(0.00109281 -6.9959e-06 0)
(0.00109562 -7.76361e-06 0)
(0.001 9.27136e-07 0)
(0.00100017 2.77265e-06 0)
(0.00100051 4.59097e-06 0)
(0.001001 6.36318e-06 0)
(0.00100165 8.07184e-06 0)
(0.00100242 9.70306e-06 0)
(0.00100331 1.12476e-05 0)
(0.0010043 1.27006e-05 0)
(0.00100537 1.40604e-05 0)
(0.00100651 1.53276e-05 0)
(0.0010077 1.65036e-05 0)
(0.00100895 1.75903e-05 0)
(0.00101024 1.859e-05 0)
(0.00101158 1.95053e-05 0)
(0.00101294 2.0339e-05 0)
(0.00101434 2.10939e-05 0)
(0.00101576 2.17729e-05 0)
(0.0010172 2.23791e-05 0)
(0.00101866 2.29147e-05 0)
(0.00102014 2.33824e-05 0)
(0.00102163 2.37837e-05 0)
(0.00102313 2.4121e-05 0)
(0.00102465 2.43951e-05 0)
(0.00102617 2.46079e-05 0)
(0.0010277 2.47594e-05 0)
(0.00102924 2.48516e-05 0)
(0.00103079 2.48833e-05 0)
(0.00103234 2.48568e-05 0)
(0.00103389 2.47695e-05 0)
(0.00103545 2.46245e-05 0)
(0.00103701 2.44173e-05 0)
(0.00103858 2.41528e-05 0)
(0.00104014 2.38233e-05 0)
(0.00104171 2.34368e-05 0)
(0.00104327 2.29811e-05 0)
(0.00104483 2.24694e-05 0)
(0.00104639 2.18824e-05 0)
(0.00104795 2.12418e-05 0)
(0.0010495 2.05168e-05 0)
(0.00105106 1.97431e-05 0)
(0.00105259 1.88721e-05 0)
(0.00105415 1.79617e-05 0)
(0.00105567 1.69347e-05 0)
(0.00105724 1.58846e-05 0)
(0.00105873 1.46893e-05 0)
(0.00106032 1.34984e-05 0)
(0.00106179 1.21192e-05 0)
(0.0010634 1.07893e-05 0)
(0.00106485 9.20578e-06 0)
(0.00106652 7.74479e-06 0)
(0.00106793 5.93045e-06 0)
(0.00106968 4.35665e-06 0)
(0.00107103 2.27626e-06 0)
(0.00107291 6.20757e-07 0)
(0.00107417 -1.78338e-06 0)
(0.00107627 -3.4819e-06 0)
(0.00107741 -6.31147e-06 0)
(0.00107985 -7.99649e-06 0)
(0.00108076 -1.13987e-05 0)
(0.00108353 -1.29687e-05 0)
(0.001 7.32729e-07 0)
(0.00100013 2.19163e-06 0)
(0.00100037 3.631e-06 0)
(0.00100074 5.03816e-06 0)
(0.00100121 6.40169e-06 0)
(0.0010018 7.71226e-06 0)
(0.00100248 8.96297e-06 0)
(0.00100326 1.01493e-05 0)
(0.00100411 1.12687e-05 0)
(0.00100503 1.23201e-05 0)
(0.00100601 1.33033e-05 0)
(0.00100705 1.42186e-05 0)
(0.00100813 1.50667e-05 0)
(0.00100926 1.58486e-05 0)
(0.00101042 1.65653e-05 0)
(0.00101163 1.72179e-05 0)
(0.00101286 1.78077e-05 0)
(0.00101411 1.83362e-05 0)
(0.0010154 1.88043e-05 0)
(0.0010167 1.92135e-05 0)
(0.00101802 1.95646e-05 0)
(0.00101935 1.98587e-05 0)
(0.0010207 2.00961e-05 0)
(0.00102206 2.02781e-05 0)
(0.00102342 2.04041e-05 0)
(0.0010248 2.04755e-05 0)
(0.00102618 2.0491e-05 0)
(0.00102757 2.04522e-05 0)
(0.00102896 2.03565e-05 0)
(0.00103036 2.02065e-05 0)
(0.00103175 1.99979e-05 0)
(0.00103315 1.97346e-05 0)
(0.00103454 1.94098e-05 0)
(0.00103593 1.90299e-05 0)
(0.00103732 1.85844e-05 0)
(0.0010387 1.80836e-05 0)
(0.00104008 1.75115e-05 0)
(0.00104145 1.68848e-05 0)
(0.00104281 1.61786e-05 0)
(0.00104417 1.54201e-05 0)
(0.00104551 1.45708e-05 0)
(0.00104686 1.3674e-05 0)
(0.00104817 1.26702e-05 0)
(0.00104952 1.16286e-05 0)
(0.00105079 1.04562e-05 0)
(0.00105213 9.26311e-06 0)
(0.00105337 7.90399e-06 0)
(0.00105471 6.55337e-06 0)
(0.00105592 4.98356e-06 0)
(0.00105728 3.47002e-06 0)
(0.00105844 1.65645e-06 0)
(0.00105987 -2.20494e-08 0)
(0.00106099 -2.12098e-06 0)
(0.00106253 -3.95254e-06 0)
(0.00106359 -6.38611e-06 0)
(0.00106528 -8.34423e-06 0)
(0.00106623 -1.11928e-05 0)
(0.00106814 -1.32444e-05 0)
(0.00106887 -1.66409e-05 0)
(0.00107095 -1.8729e-05 0)
(0.001 5.83773e-07 0)
(0.0010001 1.7473e-06 0)
(0.00100029 2.8989e-06 0)
(0.00100057 4.03069e-06 0)
(0.00100095 5.13516e-06 0)
(0.00100142 6.20562e-06 0)
(0.00100197 7.23644e-06 0)
(0.00100259 8.22316e-06 0)
(0.00100329 9.16245e-06 0)
(0.00100405 1.0052e-05 0)
(0.00100487 1.08902e-05 0)
(0.00100574 1.16761e-05 0)
(0.00100667 1.24093e-05 0)
(0.00100763 1.30893e-05 0)
(0.00100864 1.3716e-05 0)
(0.00100968 1.42896e-05 0)
(0.00101075 1.48101e-05 0)
(0.00101185 1.52779e-05 0)
(0.00101298 1.56933e-05 0)
(0.00101412 1.60569e-05 0)
(0.00101529 1.63687e-05 0)
(0.00101647 1.66294e-05 0)
(0.00101767 1.68388e-05 0)
(0.00101888 1.69974e-05 0)
(0.00102009 1.71049e-05 0)
(0.00102132 1.71618e-05 0)
(0.00102255 1.71671e-05 0)
(0.00102379 1.71216e-05 0)
(0.00102503 1.70234e-05 0)
(0.00102627 1.68738e-05 0)
(0.0010275 1.66698e-05 0)
(0.00102874 1.64134e-05 0)
(0.00102997 1.61002e-05 0)
(0.0010312 1.57332e-05 0)
(0.00103242 1.53059e-05 0)
(0.00103363 1.48235e-05 0)
(0.00103483 1.42761e-05 0)
(0.00103603 1.36722e-05 0)
(0.0010372 1.29971e-05 0)
(0.00103838 1.22646e-05 0)
(0.00103952 1.14524e-05 0)
(0.00104067 1.05828e-05 0)
(0.00104177 9.62184e-06 0)
(0.0010429 8.60561e-06 0)
(0.00104396 7.48178e-06 0)
(0.00104506 6.30814e-06 0)
(0.00104608 5.00416e-06 0)
(0.00104716 3.66171e-06 0)
(0.00104813 2.15627e-06 0)
(0.00104919 6.33111e-07 0)
(0.0010501 -1.10116e-06 0)
(0.00105117 -2.81854e-06 0)
(0.00105202 -4.82194e-06 0)
(0.00105313 -6.75227e-06 0)
(0.0010539 -9.08091e-06 0)
(0.0010551 -1.12385e-05 0)
(0.00105575 -1.396e-05 0)
(0.00105705 -1.63487e-05 0)
(0.00105748 -1.95562e-05 0)
(0.00105881 -2.21665e-05 0)
(0.001 4.66275e-07 0)
(0.00100008 1.39621e-06 0)
(0.00100024 2.31821e-06 0)
(0.00100047 3.22691e-06 0)
(0.00100078 4.11704e-06 0)
(0.00100116 4.98373e-06 0)
(0.00100162 5.82258e-06 0)
(0.00100214 6.62989e-06 0)
(0.00100272 7.40254e-06 0)
(0.00100337 8.13804e-06 0)
(0.00100406 8.83431e-06 0)
(0.00100481 9.48977e-06 0)
(0.0010056 1.01032e-05 0)
(0.00100644 1.06736e-05 0)
(0.00100731 1.12005e-05 0)
(0.00100821 1.16834e-05 0)
(0.00100915 1.2122e-05 0)
(0.00101012 1.25161e-05 0)
(0.00101111 1.28657e-05 0)
(0.00101212 1.31708e-05 0)
(0.00101316 1.34312e-05 0)
(0.0010142 1.36471e-05 0)
(0.00101527 1.38181e-05 0)
(0.00101634 1.39444e-05 0)
(0.00101743 1.40254e-05 0)
(0.00101852 1.40613e-05 0)
(0.00101961 1.40513e-05 0)
(0.00102071 1.39953e-05 0)
(0.00102182 1.38924e-05 0)
(0.00102292 1.37423e-05 0)
(0.00102401 1.35435e-05 0)
(0.0010251 1.32962e-05 0)
(0.00102619 1.29978e-05 0)
(0.00102727 1.26489e-05 0)
(0.00102833 1.22459e-05 0)
(0.00102939 1.179e-05 0)
(0.00103042 1.1276e-05 0)
(0.00103145 1.07062e-05 0)
(0.00103245 1.00735e-05 0)
(0.00103344 9.38163e-06 0)
(0.0010344 8.62027e-06 0)
(0.00103535 7.7964e-06 0)
(0.00103626 6.89456e-06 0)
(0.00103716 5.92662e-06 0)
(0.00103801 4.86957e-06 0)
(0.00103887 3.74294e-06 0)
(0.00103965 2.51218e-06 0)
(0.00104045 1.20907e-06 0)
(0.00104116 -2.18324e-07 0)
(0.00104192 -1.7176e-06 0)
(0.00104255 -3.36724e-06 0)
(0.00104327 -5.08379e-06 0)
(0.00104381 -6.98914e-06 0)
(0.00104451 -8.95186e-06 0)
(0.00104494 -1.11608e-05 0)
(0.00104562 -1.34049e-05 0)
(0.00104591 -1.59766e-05 0)
(0.0010466 -1.85365e-05 0)
(0.00104665 -2.1541e-05 0)
(0.00104724 -2.44422e-05 0)
(0.001 3.68994e-07 0)
(0.00100007 1.10513e-06 0)
(0.0010002 1.83566e-06 0)
(0.0010004 2.55677e-06 0)
(0.00100066 3.26469e-06 0)
(0.00100098 3.95584e-06 0)
(0.00100137 4.62689e-06 0)
(0.00100181 5.27486e-06 0)
(0.00100231 5.89715e-06 0)
(0.00100287 6.49149e-06 0)
(0.00100347 7.05596e-06 0)
(0.00100412 7.58894e-06 0)
(0.00100481 8.08911e-06 0)
(0.00100553 8.5554e-06 0)
(0.0010063 8.98694e-06 0)
(0.0010071 9.38307e-06 0)
(0.00100793 9.74323e-06 0)
(0.00100878 1.0067e-05 0)
(0.00100966 1.0354e-05 0)
(0.00101056 1.06038e-05 0)
(0.00101148 1.08163e-05 0)
(0.00101242 1.09912e-05 0)
(0.00101337 1.1128e-05 0)
(0.00101433 1.12266e-05 0)
(0.0010153 1.12864e-05 0)
(0.00101627 1.13072e-05 0)
(0.00101725 1.12884e-05 0)
(0.00101823 1.12293e-05 0)
(0.00101921 1.11294e-05 0)
(0.00102019 1.09879e-05 0)
(0.00102116 1.08039e-05 0)
(0.00102212 1.05763e-05 0)
(0.00102307 1.03042e-05 0)
(0.00102402 9.98605e-06 0)
(0.00102494 9.62074e-06 0)
(0.00102585 9.20636e-06 0)
(0.00102674 8.74157e-06 0)
(0.00102761 8.22384e-06 0)
(0.00102846 7.65179e-06 0)
(0.00102928 7.02197e-06 0)
(0.00103007 6.33314e-06 0)
(0.00103083 5.58049e-06 0)
(0.00103156 4.7633e-06 0)
(0.00103225 3.87468e-06 0)
(0.0010329 2.9151e-06 0)
(0.00103352 1.87449e-06 0)
(0.00103408 7.5566e-07 0)
(0.00103462 -4.56389e-07 0)
(0.00103508 -1.75421e-06 0)
(0.00103554 -3.16149e-06 0)
(0.00103588 -4.66422e-06 0)
(0.00103625 -6.29946e-06 0)
(0.00103647 -8.03936e-06 0)
(0.00103674 -9.94138e-06 0)
(0.00103681 -1.19554e-05 0)
(0.00103699 -1.41718e-05 0)
(0.00103687 -1.65036e-05 0)
(0.00103696 -1.90923e-05 0)
(0.00103656 -2.17894e-05 0)
(0.00103645 -2.48132e-05 0)
(0.001 2.85957e-07 0)
(0.00100006 8.56544e-07 0)
(0.00100017 1.42311e-06 0)
(0.00100034 1.98291e-06 0)
(0.00100057 2.53322e-06 0)
(0.00100085 3.07141e-06 0)
(0.00100119 3.595e-06 0)
(0.00100158 4.10169e-06 0)
(0.00100202 4.58943e-06 0)
(0.0010025 5.05636e-06 0)
(0.00100303 5.50087e-06 0)
(0.0010036 5.92155e-06 0)
(0.00100421 6.31717e-06 0)
(0.00100486 6.68668e-06 0)
(0.00100554 7.0292e-06 0)
(0.00100625 7.34396e-06 0)
(0.00100699 7.63031e-06 0)
(0.00100776 7.88769e-06 0)
(0.00100855 8.1156e-06 0)
(0.00100936 8.31356e-06 0)
(0.00101018 8.48119e-06 0)
(0.00101103 8.61803e-06 0)
(0.00101188 8.72372e-06 0)
(0.00101274 8.79775e-06 0)
(0.00101362 8.83978e-06 0)
(0.00101449 8.84914e-06 0)
(0.00101537 8.82549e-06 0)
(0.00101625 8.76795e-06 0)
(0.00101712 8.67617e-06 0)
(0.00101799 8.54892e-06 0)
(0.00101886 8.38595e-06 0)
(0.00101971 8.18548e-06 0)
(0.00102055 7.94745e-06 0)
(0.00102137 7.66936e-06 0)
(0.00102217 7.35148e-06 0)
(0.00102296 6.99024e-06 0)
(0.00102372 6.58662e-06 0)
(0.00102445 6.13537e-06 0)
(0.00102515 5.63876e-06 0)
(0.00102583 5.08899e-06 0)
(0.00102646 4.49058e-06 0)
(0.00102706 3.83175e-06 0)
(0.00102761 3.12085e-06 0)
(0.00102812 2.33986e-06 0)
(0.00102857 1.50359e-06 0)
(0.00102899 5.84213e-07 0)
(0.00102933 -3.92682e-07 0)
(0.00102963 -1.47026e-06 0)
(0.00102985 -2.6055e-06 0)
(0.00103003 -3.86738e-06 0)
(0.0010301 -5.18421e-06 0)
(0.00103013 -6.6648e-06 0)
(0.00103003 -8.1898e-06 0)
(0.00102992 -9.93185e-06 0)
(0.00102962 -1.16945e-05 0)
(0.00102933 -1.37531e-05 0)
(0.00102879 -1.57856e-05 0)
(0.00102831 -1.82318e-05 0)
(0.00102745 -2.05642e-05 0)
(0.00102668 -2.34827e-05 0)
(0.001 2.13123e-07 0)
(0.00100005 6.38432e-07 0)
(0.00100015 1.0609e-06 0)
(0.00100031 1.47857e-06 0)
(0.00100051 1.88953e-06 0)
(0.00100076 2.29188e-06 0)
(0.00100106 2.68382e-06 0)
(0.00100141 3.06366e-06 0)
(0.0010018 3.42987e-06 0)
(0.00100223 3.78102e-06 0)
(0.00100271 4.11586e-06 0)
(0.00100322 4.43322e-06 0)
(0.00100377 4.7321e-06 0)
(0.00100436 5.01159e-06 0)
(0.00100498 5.27091e-06 0)
(0.00100562 5.50933e-06 0)
(0.00100629 5.72626e-06 0)
(0.00100699 5.92111e-06 0)
(0.00100771 6.09341e-06 0)
(0.00100844 6.24265e-06 0)
(0.0010092 6.36845e-06 0)
(0.00100996 6.47029e-06 0)
(0.00101074 6.54786e-06 0)
(0.00101153 6.60059e-06 0)
(0.00101232 6.62821e-06 0)
(0.00101312 6.62998e-06 0)
(0.00101392 6.60571e-06 0)
(0.00101471 6.55442e-06 0)
(0.0010155 6.47599e-06 0)
(0.00101628 6.36907e-06 0)
(0.00101706 6.23373e-06 0)
(0.00101782 6.06804e-06 0)
(0.00101856 5.87241e-06 0)
(0.00101928 5.64402e-06 0)
(0.00101999 5.38395e-06 0)
(0.00102066 5.08801e-06 0)
(0.00102131 4.7584e-06 0)
(0.00102193 4.38888e-06 0)
(0.00102251 3.98352e-06 0)
(0.00102306 3.5329e-06 0)
(0.00102356 3.0443e-06 0)
(0.00102402 2.50325e-06 0)
(0.00102442 1.92239e-06 0)
(0.00102477 1.27928e-06 0)
(0.00102506 5.95392e-07 0)
(0.00102529 -1.64426e-07 0)
(0.00102545 -9.64208e-07 0)
(0.00102554 -1.8594e-06 0)
(0.00102554 -2.79105e-06 0)
(0.00102547 -3.84688e-06 0)
(0.0010253 -4.92918e-06 0)
(0.00102504 -6.17741e-06 0)
(0.00102465 -7.431e-06 0)
(0.00102418 -8.91299e-06 0)
(0.00102355 -1.03604e-05 0)
(0.00102284 -1.21313e-05 0)
(0.00102191 -1.37953e-05 0)
(0.00102093 -1.59283e-05 0)
(0.00101963 -1.78253e-05 0)
(0.00101827 -2.04123e-05 0)
(0.001 1.4749e-07 0)
(0.00100005 4.41846e-07 0)
(0.00100014 7.34302e-07 0)
(0.00100028 1.02356e-06 0)
(0.00100047 1.30832e-06 0)
(0.0010007 1.5873e-06 0)
(0.00100097 1.8593e-06 0)
(0.00100129 2.12314e-06 0)
(0.00100165 2.37777e-06 0)
(0.00100205 2.62218e-06 0)
(0.00100249 2.85547e-06 0)
(0.00100296 3.07679e-06 0)
(0.00100347 3.2854e-06 0)
(0.00100401 3.48061e-06 0)
(0.00100458 3.66182e-06 0)
(0.00100517 3.82846e-06 0)
(0.00100579 3.98004e-06 0)
(0.00100644 4.11609e-06 0)
(0.0010071 4.23623e-06 0)
(0.00100779 4.34001e-06 0)
(0.00100849 4.42714e-06 0)
(0.0010092 4.49715e-06 0)
(0.00100992 4.54982e-06 0)
(0.00101065 4.58463e-06 0)
(0.00101138 4.60139e-06 0)
(0.00101211 4.59947e-06 0)
(0.00101285 4.57874e-06 0)
(0.00101358 4.53837e-06 0)
(0.00101431 4.47834e-06 0)
(0.00101502 4.39746e-06 0)
(0.00101573 4.29595e-06 0)
(0.00101641 4.1721e-06 0)
(0.00101708 4.02646e-06 0)
(0.00101773 3.85655e-06 0)
(0.00101836 3.66357e-06 0)
(0.00101895 3.4438e-06 0)
(0.00101952 3.19954e-06 0)
(0.00102004 2.92518e-06 0)
(0.00102053 2.62487e-06 0)
(0.00102098 2.29002e-06 0)
(0.00102137 1.92787e-06 0)
(0.00102172 1.52517e-06 0)
(0.001022 1.09425e-06 0)
(0.00102223 6.14471e-07 0)
(0.00102239 1.06537e-07 0)
(0.00102247 -4.61962e-07 0)
(0.00102248 -1.05666e-06 0)
(0.0010224 -1.72931e-06 0)
(0.00102223 -2.42317e-06 0)
(0.00102196 -3.22029e-06 0)
(0.00102157 -4.02708e-06 0)
(0.00102108 -4.97461e-06 0)
(0.00102045 -5.90939e-06 0)
(0.0010197 -7.04187e-06 0)
(0.00101879 -8.12063e-06 0)
(0.00101774 -9.48486e-06 0)
(0.00101648 -1.07225e-05 0)
(0.00101507 -1.23818e-05 0)
(0.0010134 -1.37857e-05 0)
(0.00101156 -1.5822e-05 0)
(0.001 8.66647e-08 0)
(0.00100005 2.5964e-07 0)
(0.00100013 4.31524e-07 0)
(0.00100026 6.01569e-07 0)
(0.00100044 7.69025e-07 0)
(0.00100065 9.33156e-07 0)
(0.00100091 1.09325e-06 0)
(0.00100121 1.24864e-06 0)
(0.00100155 1.39869e-06 0)
(0.00100193 1.5428e-06 0)
(0.00100234 1.68044e-06 0)
(0.00100279 1.81109e-06 0)
(0.00100327 1.9343e-06 0)
(0.00100378 2.04963e-06 0)
(0.00100432 2.15672e-06 0)
(0.00100488 2.2552e-06 0)
(0.00100547 2.34478e-06 0)
(0.00100608 2.42512e-06 0)
(0.00100671 2.49599e-06 0)
(0.00100736 2.5571e-06 0)
(0.00100802 2.60825e-06 0)
(0.0010087 2.64914e-06 0)
(0.00100938 2.67962e-06 0)
(0.00101007 2.69934e-06 0)
(0.00101076 2.70819e-06 0)
(0.00101146 2.70574e-06 0)
(0.00101215 2.69193e-06 0)
(0.00101284 2.66619e-06 0)
(0.00101352 2.62854e-06 0)
(0.00101419 2.57819e-06 0)
(0.00101485 2.51531e-06 0)
(0.00101549 2.43875e-06 0)
(0.00101611 2.34896e-06 0)
(0.0010167 2.24424e-06 0)
(0.00101727 2.12549e-06 0)
(0.00101781 1.99016e-06 0)
(0.00101832 1.83997e-06 0)
(0.00101878 1.67103e-06 0)
(0.00101921 1.48637e-06 0)
(0.00101958 1.28006e-06 0)
(0.0010199 1.05729e-06 0)
(0.00102017 8.08902e-07 0)
(0.00102038 5.43672e-07 0)
(0.00102051 2.47282e-07 0)
(0.00102058 -6.55632e-08 0)
(0.00102056 -4.17436e-07 0)
(0.00102046 -7.84028e-07 0)
(0.00102027 -1.20148e-06 0)
(0.00101997 -1.62959e-06 0)
(0.00101956 -2.1258e-06 0)
(0.00101903 -2.62391e-06 0)
(0.00101837 -3.21591e-06 0)
(0.00101757 -3.79322e-06 0)
(0.00101662 -4.50392e-06 0)
(0.0010155 -5.16996e-06 0)
(0.00101421 -6.03068e-06 0)
(0.00101271 -6.79377e-06 0)
(0.00101101 -7.84749e-06 0)
(0.00100906 -8.71023e-06 0)
(0.00100687 -1.00134e-05 0)
(0.001 2.86041e-08 0)
(0.00100004 8.57036e-08 0)
(0.00100013 1.42452e-07 0)
(0.00100026 1.98603e-07 0)
(0.00100042 2.53912e-07 0)
(0.00100064 3.08138e-07 0)
(0.00100089 3.6105e-07 0)
(0.00100118 4.12423e-07 0)
(0.00100151 4.6205e-07 0)
(0.00100187 5.09732e-07 0)
(0.00100227 5.5529e-07 0)
(0.00100271 5.98552e-07 0)
(0.00100317 6.39365e-07 0)
(0.00100367 6.77584e-07 0)
(0.00100419 7.13081e-07 0)
(0.00100474 7.45732e-07 0)
(0.00100531 7.75434e-07 0)
(0.00100591 8.02077e-07 0)
(0.00100652 8.25578e-07 0)
(0.00100715 8.45833e-07 0)
(0.00100779 8.62777e-07 0)
(0.00100845 8.76301e-07 0)
(0.00100911 8.86355e-07 0)
(0.00100978 8.92817e-07 0)
(0.00101046 8.95649e-07 0)
(0.00101113 8.94699e-07 0)
(0.0010118 8.89951e-07 0)
(0.00101247 8.81201e-07 0)
(0.00101313 8.68465e-07 0)
(0.00101378 8.5146e-07 0)
(0.00101441 8.30257e-07 0)
(0.00101503 8.04445e-07 0)
(0.00101562 7.74197e-07 0)
(0.00101619 7.38906e-07 0)
(0.00101673 6.9891e-07 0)
(0.00101724 6.53305e-07 0)
(0.00101772 6.02713e-07 0)
(0.00101815 5.45759e-07 0)
(0.00101854 4.83542e-07 0)
(0.00101888 4.13951e-07 0)
(0.00101917 3.38883e-07 0)
(0.0010194 2.55056e-07 0)
(0.00101956 1.65681e-07 0)
(0.00101965 6.5612e-08 0)
(0.00101967 -3.98097e-08 0)
(0.0010196 -1.58753e-07 0)
(0.00101944 -2.82484e-07 0)
(0.00101919 -4.23894e-07 0)
(0.00101882 -5.68511e-07 0)
(0.00101834 -7.36877e-07 0)
(0.00101774 -9.05208e-07 0)
(0.001017 -1.10646e-06 0)
(0.0010161 -1.30159e-06 0)
(0.00101505 -1.54373e-06 0)
(0.00101382 -1.76885e-06 0)
(0.0010124 -2.06291e-06 0)
(0.00101078 -2.32067e-06 0)
(0.00100892 -2.68185e-06 -3.5752e-38)
(0.00100682 -2.9728e-06 0)
(0.00100446 -3.42123e-06 0)
(0.001 -2.85539e-08 0)
(0.00100004 -8.55321e-08 0)
(0.00100013 -1.42144e-07 0)
(0.00100026 -1.98147e-07 0)
(0.00100042 -2.53295e-07 0)
(0.00100064 -3.07347e-07 0)
(0.00100089 -3.60071e-07 0)
(0.00100118 -4.11244e-07 0)
(0.00100151 -4.60659e-07 0)
(0.00100187 -5.08119e-07 0)
(0.00100227 -5.53445e-07 0)
(0.00100271 -5.96467e-07 0)
(0.00100317 -6.37033e-07 0)
(0.00100367 -6.74996e-07 0)
(0.00100419 -7.10233e-07 0)
(0.00100474 -7.42617e-07 0)
(0.00100531 -7.72047e-07 0)
(0.00100591 -7.98414e-07 0)
(0.00100652 -8.21635e-07 0)
(0.00100715 -8.41606e-07 0)
(0.00100779 -8.58262e-07 0)
(0.00100845 -8.71496e-07 0)
(0.00100911 -8.81258e-07 0)
(0.00100978 -8.87424e-07 0)
(0.00101046 -8.89959e-07 0)
(0.00101113 -8.88711e-07 0)
(0.0010118 -8.83663e-07 0)
(0.00101247 -8.7461e-07 0)
(0.00101313 -8.6157e-07 0)
(0.00101378 -8.44258e-07 0)
(0.00101441 -8.22745e-07 0)
(0.00101503 -7.96621e-07 0)
(0.00101562 -7.66056e-07 0)
(0.00101619 -7.30444e-07 0)
(0.00101673 -6.90125e-07 0)
(0.00101724 -6.44189e-07 0)
(0.00101772 -5.93264e-07 0)
(0.00101815 -5.35969e-07 0)
(0.00101854 -4.73408e-07 0)
(0.00101888 -4.03466e-07 0)
(0.00101917 -3.28041e-07 0)
(0.0010194 -2.43854e-07 0)
(0.00101956 -1.54112e-07 0)
(0.00101965 -5.36655e-08 0)
(0.00101967 5.21435e-08 0)
(0.0010196 1.71502e-07 0)
(0.00101945 2.95676e-07 0)
(0.00101919 4.37544e-07 0)
(0.00101883 5.82639e-07 0)
(0.00101834 7.51493e-07 0)
(0.00101774 9.2032e-07 0)
(0.001017 1.12207e-06 0)
(0.0010161 1.31774e-06 0)
(0.00101505 1.56044e-06 0)
(0.00101382 1.78613e-06 0)
(0.0010124 2.08079e-06 0)
(0.00101078 2.33918e-06 0)
(0.00100892 2.70101e-06 3.5752e-38)
(0.00100683 2.99265e-06 0)
(0.00100446 3.4418e-06 0)
(0.001 -8.66149e-08 0)
(0.00100005 -2.5947e-07 0)
(0.00100013 -4.31219e-07 0)
(0.00100026 -6.01116e-07 0)
(0.00100044 -7.68412e-07 0)
(0.00100065 -9.32371e-07 0)
(0.00100091 -1.09228e-06 0)
(0.00100121 -1.24747e-06 0)
(0.00100155 -1.39731e-06 0)
(0.00100193 -1.5412e-06 0)
(0.00100234 -1.67861e-06 0)
(0.00100279 -1.80902e-06 0)
(0.00100327 -1.93198e-06 0)
(0.00100378 -2.04707e-06 0)
(0.00100432 -2.1539e-06 0)
(0.00100488 -2.25212e-06 0)
(0.00100547 -2.34142e-06 0)
(0.00100608 -2.42149e-06 0)
(0.00100671 -2.49208e-06 0)
(0.00100736 -2.55291e-06 0)
(0.00100802 -2.60378e-06 0)
(0.0010087 -2.64438e-06 0)
(0.00100938 -2.67457e-06 0)
(0.00101007 -2.694e-06 0)
(0.00101076 -2.70255e-06 0)
(0.00101146 -2.69981e-06 0)
(0.00101215 -2.6857e-06 0)
(0.00101284 -2.65966e-06 0)
(0.00101352 -2.62171e-06 0)
(0.00101419 -2.57106e-06 0)
(0.00101485 -2.50788e-06 0)
(0.00101549 -2.43101e-06 0)
(0.00101611 -2.3409e-06 0)
(0.0010167 -2.23586e-06 0)
(0.00101727 -2.11679e-06 0)
(0.00101781 -1.98114e-06 0)
(0.00101832 -1.83061e-06 0)
(0.00101878 -1.66134e-06 0)
(0.00101921 -1.47633e-06 0)
(0.00101958 -1.26967e-06 0)
(0.00101991 -1.04653e-06 0)
(0.00102017 -7.97767e-07 0)
(0.00102038 -5.32151e-07 0)
(0.00102052 -2.35365e-07 0)
(0.00102058 7.78877e-08 0)
(0.00102057 4.30166e-07 0)
(0.00102046 7.97171e-07 0)
(0.00102027 1.21504e-06 0)
(0.00101997 1.64359e-06 0)
(0.00101956 2.14025e-06 0)
(0.00101903 2.63884e-06 0)
(0.00101837 3.23134e-06 0)
(0.00101757 3.80917e-06 0)
(0.00101662 4.5204e-06 0)
(0.0010155 5.18701e-06 0)
(0.00101421 6.04831e-06 0)
(0.00101271 6.81201e-06 0)
(0.00101101 7.86637e-06 0)
(0.00100906 8.72979e-06 0)
(0.00100688 1.00337e-05 0)
(0.001 -1.47441e-07 0)
(0.00100005 -4.41679e-07 0)
(0.00100014 -7.34002e-07 0)
(0.00100028 -1.02311e-06 0)
(0.00100047 -1.30771e-06 0)
(0.0010007 -1.58653e-06 0)
(0.00100097 -1.85834e-06 0)
(0.00100129 -2.122e-06 0)
(0.00100165 -2.37642e-06 0)
(0.00100205 -2.62061e-06 0)
(0.00100249 -2.85368e-06 0)
(0.00100296 -3.07476e-06 0)
(0.00100347 -3.28314e-06 0)
(0.00100401 -3.4781e-06 0)
(0.00100458 -3.65906e-06 0)
(0.00100517 -3.82543e-06 0)
(0.00100579 -3.97675e-06 0)
(0.00100644 -4.11254e-06 0)
(0.0010071 -4.2324e-06 0)
(0.00100779 -4.33591e-06 0)
(0.00100849 -4.42275e-06 0)
(0.0010092 -4.49249e-06 0)
(0.00100992 -4.54487e-06 0)
(0.00101065 -4.5794e-06 0)
(0.00101138 -4.59587e-06 0)
(0.00101212 -4.59366e-06 0)
(0.00101285 -4.57264e-06 0)
(0.00101358 -4.53197e-06 0)
(0.00101431 -4.47165e-06 0)
(0.00101502 -4.39048e-06 0)
(0.00101573 -4.28867e-06 0)
(0.00101642 -4.16451e-06 0)
(0.00101709 -4.01857e-06 0)
(0.00101773 -3.84835e-06 0)
(0.00101836 -3.65506e-06 0)
(0.00101895 -3.43497e-06 0)
(0.00101952 -3.19038e-06 0)
(0.00102004 -2.91569e-06 0)
(0.00102053 -2.61504e-06 0)
(0.00102098 -2.27985e-06 0)
(0.00102137 -1.91734e-06 0)
(0.00102172 -1.51428e-06 0)
(0.00102201 -1.08298e-06 0)
(0.00102223 -6.02823e-07 0)
(0.00102239 -9.44873e-08 0)
(0.00102247 4.74403e-07 0)
(0.00102248 1.0695e-06 0)
(0.0010224 1.74256e-06 0)
(0.00102223 2.43684e-06 0)
(0.00102196 3.2344e-06 0)
(0.00102158 4.04166e-06 0)
(0.00102109 4.98967e-06 0)
(0.00102046 5.92496e-06 0)
(0.00101971 7.05795e-06 0)