/*--------------------------------*- C++ -*----------------------------------*\
| =========                 |                                                 |
| \\      /  F ield         | OpenFOAM: The Open Source CFD Toolbox           |
|  \\    /   O peration     | Version:  2312                                  |
|   \\  /    A nd           | Website:  www.openfoam.com                      |
|    \\/     M anipulation  |                                                 |
\*---------------------------------------------------------------------------*/
FoamFile
{
    version     2.0;
    format      ascii;
    arch        "LSB;label=32;scalar=64";
    class       volScalarField;
    location    "91000";
    object      p;
}
// * * * * * * * * * * * * * * * * * * * * * * * * * * * * * * * * * * * * * //

dimensions      [0 2 -2 0 0 0 0];

internalField   nonuniform List<scalar> 
10800
(
5.1353e-07
4.99407e-07
4.8564e-07
4.75062e-07
4.67639e-07
4.62247e-07
4.57795e-07
4.53714e-07
4.49837e-07
4.46171e-07
4.42753e-07
4.39587e-07
4.36639e-07
4.3386e-07
4.31203e-07
4.28634e-07
4.26133e-07
4.23686e-07
4.21282e-07
4.18913e-07
4.1657e-07
4.14246e-07
4.11933e-07
4.09626e-07
4.07321e-07
4.05013e-07
4.02701e-07
4.00381e-07
3.98052e-07
3.95711e-07
3.93358e-07
3.90991e-07
3.8861e-07
3.86215e-07
3.83805e-07
3.8138e-07
3.78941e-07
3.76488e-07
3.74021e-07
3.71541e-07
3.69048e-07
3.66542e-07
3.64024e-07
3.61494e-07
3.58952e-07
3.56396e-07
3.53828e-07
3.51242e-07
3.48645e-07
3.46019e-07
3.43387e-07
3.40696e-07
3.38029e-07
3.35214e-07
3.32551e-07
3.29404e-07
3.27031e-07
3.22608e-07
3.22285e-07
3.11668e-07
4.65488e-07
4.63761e-07
4.61115e-07
4.57989e-07
4.54772e-07
4.51677e-07
4.48753e-07
4.45965e-07
4.43262e-07
4.40614e-07
4.38014e-07
4.35469e-07
4.32985e-07
4.30562e-07
4.28193e-07
4.2587e-07
4.23582e-07
4.21323e-07
4.19086e-07
4.16866e-07
4.14659e-07
4.12461e-07
4.10269e-07
4.08079e-07
4.05887e-07
4.03692e-07
4.01491e-07
3.99283e-07
3.97064e-07
3.94835e-07
3.92595e-07
3.90341e-07
3.88076e-07
3.85795e-07
3.83502e-07
3.81194e-07
3.78873e-07
3.76537e-07
3.7419e-07
3.71825e-07
3.69453e-07
3.67061e-07
3.64665e-07
3.62244e-07
3.59827e-07
3.57374e-07
3.5494e-07
3.52453e-07
3.50009e-07
3.47483e-07
3.45051e-07
3.42488e-07
3.4012e-07
3.37539e-07
3.3537e-07
3.32838e-07
3.31203e-07
3.288e-07
3.28308e-07
3.25617e-07
4.5675e-07
4.55999e-07
4.54585e-07
4.52633e-07
4.50348e-07
4.47927e-07
4.45495e-07
4.43105e-07
4.40757e-07
4.38441e-07
4.36145e-07
4.33871e-07
4.31624e-07
4.29408e-07
4.27225e-07
4.25073e-07
4.22949e-07
4.20847e-07
4.18762e-07
4.16691e-07
4.14631e-07
4.12578e-07
4.10531e-07
4.08485e-07
4.0644e-07
4.04394e-07
4.02343e-07
4.00287e-07
3.98225e-07
3.96155e-07
3.94076e-07
3.91987e-07
3.89889e-07
3.87779e-07
3.8566e-07
3.83528e-07
3.81387e-07
3.79231e-07
3.77068e-07
3.74889e-07
3.72703e-07
3.705e-07
3.68294e-07
3.66066e-07
3.6384e-07
3.61587e-07
3.59345e-07
3.57067e-07
3.54815e-07
3.52514e-07
3.50264e-07
3.47947e-07
3.4572e-07
3.43396e-07
3.41229e-07
3.38912e-07
3.36854e-07
3.3455e-07
3.32644e-07
3.30259e-07
4.45017e-07
4.44585e-07
4.43798e-07
4.42707e-07
4.41382e-07
4.39893e-07
4.38297e-07
4.36635e-07
4.34926e-07
4.33182e-07
4.31409e-07
4.29613e-07
4.278e-07
4.25976e-07
4.24145e-07
4.22312e-07
4.20477e-07
4.1864e-07
4.16802e-07
4.14962e-07
4.1312e-07
4.11273e-07
4.09424e-07
4.07569e-07
4.0571e-07
4.03845e-07
4.01973e-07
4.00095e-07
3.9821e-07
3.96316e-07
3.94415e-07
3.92506e-07
3.90588e-07
3.88662e-07
3.86727e-07
3.84783e-07
3.82832e-07
3.80871e-07
3.78902e-07
3.76923e-07
3.74937e-07
3.72939e-07
3.70935e-07
3.68917e-07
3.66893e-07
3.64851e-07
3.62804e-07
3.60734e-07
3.58657e-07
3.56551e-07
3.54439e-07
3.52288e-07
3.50133e-07
3.47929e-07
3.45726e-07
3.4346e-07
3.41205e-07
3.38869e-07
3.3656e-07
3.34169e-07
4.38322e-07
4.38108e-07
4.37676e-07
4.3703e-07
4.36186e-07
4.35171e-07
4.3402e-07
4.32761e-07
4.31421e-07
4.30016e-07
4.28558e-07
4.27056e-07
4.25518e-07
4.23949e-07
4.22357e-07
4.20745e-07
4.19118e-07
4.17478e-07
4.15827e-07
4.14166e-07
4.12497e-07
4.10819e-07
4.09134e-07
4.07443e-07
4.05744e-07
4.0404e-07
4.02329e-07
4.00613e-07
3.9889e-07
3.97162e-07
3.95429e-07
3.93691e-07
3.91947e-07
3.90198e-07
3.88445e-07
3.86688e-07
3.84926e-07
3.8316e-07
3.81389e-07
3.79615e-07
3.77836e-07
3.76053e-07
3.74265e-07
3.72471e-07
3.70672e-07
3.68865e-07
3.67051e-07
3.65227e-07
3.63393e-07
3.61543e-07
3.59674e-07
3.5778e-07
3.55848e-07
3.53868e-07
3.51822e-07
3.49698e-07
3.47485e-07
3.45194e-07
3.42826e-07
3.40479e-07
4.32806e-07
4.32644e-07
4.32319e-07
4.31834e-07
4.31201e-07
4.30434e-07
4.29552e-07
4.28573e-07
4.27513e-07
4.26385e-07
4.25197e-07
4.23958e-07
4.22675e-07
4.21353e-07
4.19997e-07
4.18613e-07
4.17204e-07
4.15773e-07
4.14324e-07
4.12858e-07
4.11378e-07
4.09885e-07
4.0838e-07
4.06865e-07
4.05341e-07
4.03809e-07
4.0227e-07
4.00724e-07
3.99173e-07
3.97616e-07
3.96056e-07
3.94491e-07
3.92924e-07
3.91354e-07
3.89782e-07
3.88209e-07
3.86634e-07
3.85059e-07
3.83483e-07
3.81907e-07
3.8033e-07
3.78753e-07
3.77174e-07
3.75594e-07
3.74009e-07
3.7242e-07
3.70821e-07
3.69214e-07
3.67591e-07
3.65953e-07
3.64293e-07
3.62616e-07
3.60911e-07
3.59187e-07
3.57416e-07
3.55603e-07
3.53713e-07
3.51768e-07
3.49764e-07
3.47827e-07
4.28466e-07
4.28347e-07
4.28109e-07
4.27753e-07
4.27282e-07
4.26704e-07
4.26027e-07
4.25262e-07
4.24418e-07
4.23506e-07
4.22532e-07
4.21503e-07
4.20426e-07
4.19306e-07
4.18147e-07
4.16953e-07
4.15729e-07
4.14478e-07
4.13204e-07
4.11909e-07
4.10595e-07
4.09266e-07
4.07922e-07
4.06567e-07
4.052e-07
4.03825e-07
4.02442e-07
4.01053e-07
3.99659e-07
3.98262e-07
3.96862e-07
3.9546e-07
3.94058e-07
3.92657e-07
3.91258e-07
3.89861e-07
3.88467e-07
3.87077e-07
3.85692e-07
3.84312e-07
3.82937e-07
3.81569e-07
3.80206e-07
3.78849e-07
3.77498e-07
3.76153e-07
3.74811e-07
3.73474e-07
3.72136e-07
3.70796e-07
3.69442e-07
3.68073e-07
3.66676e-07
3.65253e-07
3.63795e-07
3.62313e-07
3.60788e-07
3.59241e-07
3.57672e-07
3.56194e-07
4.25021e-07
4.24929e-07
4.24743e-07
4.24464e-07
4.24093e-07
4.23633e-07
4.23089e-07
4.22468e-07
4.21777e-07
4.21021e-07
4.20205e-07
4.19335e-07
4.18417e-07
4.17454e-07
4.16452e-07
4.15415e-07
4.14345e-07
4.13247e-07
4.12124e-07
4.10979e-07
4.09814e-07
4.08632e-07
4.07434e-07
4.06224e-07
4.05004e-07
4.03774e-07
4.02538e-07
4.01296e-07
4.00051e-07
3.98804e-07
3.97556e-07
3.96309e-07
3.95066e-07
3.93826e-07
3.92591e-07
3.91363e-07
3.90143e-07
3.88933e-07
3.87732e-07
3.86543e-07
3.85366e-07
3.84202e-07
3.83051e-07
3.81914e-07
3.80791e-07
3.79681e-07
3.78584e-07
3.775e-07
3.76427e-07
3.75369e-07
3.74319e-07
3.73279e-07
3.72235e-07
3.7119e-07
3.70132e-07
3.6907e-07
3.67995e-07
3.66932e-07
3.65888e-07
3.64969e-07
4.22265e-07
4.22189e-07
4.22038e-07
4.21809e-07
4.21504e-07
4.21125e-07
4.20675e-07
4.20157e-07
4.19577e-07
4.18938e-07
4.18244e-07
4.17501e-07
4.16711e-07
4.15878e-07
4.15008e-07
4.14102e-07
4.13164e-07
4.12199e-07
4.11207e-07
4.10193e-07
4.0916e-07
4.08108e-07
4.07042e-07
4.05964e-07
4.04875e-07
4.03778e-07
4.02675e-07
4.01568e-07
4.00459e-07
3.9935e-07
3.98244e-07
3.97141e-07
3.96044e-07
3.94954e-07
3.93874e-07
3.92806e-07
3.9175e-07
3.90709e-07
3.89685e-07
3.88679e-07
3.87692e-07
3.86728e-07
3.85785e-07
3.84868e-07
3.83975e-07
3.8311e-07
3.82272e-07
3.81462e-07
3.8068e-07
3.79924e-07
3.79191e-07
3.78487e-07
3.77807e-07
3.77155e-07
3.76525e-07
3.75924e-07
3.75344e-07
3.7481e-07
3.7433e-07
3.73995e-07
4.20071e-07
4.20008e-07
4.19879e-07
4.19686e-07
4.19428e-07
4.19107e-07
4.18724e-07
4.18282e-07
4.17785e-07
4.17235e-07
4.16636e-07
4.15991e-07
4.15303e-07
4.14575e-07
4.1381e-07
4.13012e-07
4.12184e-07
4.11328e-07
4.10447e-07
4.09544e-07
4.08621e-07
4.07682e-07
4.06729e-07
4.05764e-07
4.0479e-07
4.03809e-07
4.02823e-07
4.01835e-07
4.00847e-07
3.99861e-07
3.9888e-07
3.97906e-07
3.96941e-07
3.95987e-07
3.95047e-07
3.94123e-07
3.93217e-07
3.92333e-07
3.9147e-07
3.90634e-07
3.89825e-07
3.89046e-07
3.88299e-07
3.87587e-07
3.86912e-07
3.86276e-07
3.85683e-07
3.85134e-07
3.84628e-07
3.84168e-07
3.83757e-07
3.83397e-07
3.8309e-07
3.8284e-07
3.82645e-07
3.82512e-07
3.8244e-07
3.8245e-07
3.82556e-07
3.8283e-07
4.18352e-07
4.18297e-07
4.18186e-07
4.18018e-07
4.17794e-07
4.17514e-07
4.17181e-07
4.16795e-07
4.1636e-07
4.15878e-07
4.1535e-07
4.14781e-07
4.14171e-07
4.13525e-07
4.12844e-07
4.12132e-07
4.11391e-07
4.10624e-07
4.09833e-07
4.09021e-07
4.08191e-07
4.07346e-07
4.06487e-07
4.05618e-07
4.0474e-07
4.03858e-07
4.02972e-07
4.02086e-07
4.01202e-07
4.00322e-07
3.9945e-07
3.98588e-07
3.97738e-07
3.96904e-07
3.96087e-07
3.95291e-07
3.94518e-07
3.93772e-07
3.93055e-07
3.92371e-07
3.91722e-07
3.91112e-07
3.90544e-07
3.90022e-07
3.89548e-07
3.89127e-07
3.88761e-07
3.88453e-07
3.88206e-07
3.88028e-07
3.8792e-07
3.8789e-07
3.87938e-07
3.88073e-07
3.88295e-07
3.88615e-07
3.89036e-07
3.89577e-07
3.90253e-07
3.91122e-07
4.17044e-07
4.16995e-07
4.16896e-07
4.16747e-07
4.16547e-07
4.16298e-07
4.16e-07
4.15655e-07
4.15266e-07
4.14833e-07
4.14359e-07
4.13846e-07
4.13296e-07
4.12712e-07
4.12096e-07
4.1145e-07
4.10777e-07
4.10079e-07
4.0936e-07
4.0862e-07
4.07864e-07
4.07093e-07
4.0631e-07
4.05518e-07
4.0472e-07
4.03917e-07
4.03113e-07
4.0231e-07
4.01512e-07
4.0072e-07
3.99938e-07
3.99169e-07
3.98415e-07
3.9768e-07
3.96967e-07
3.96278e-07
3.95618e-07
3.94989e-07
3.94396e-07
3.93841e-07
3.93329e-07
3.92863e-07
3.92448e-07
3.92088e-07
3.91787e-07
3.9155e-07
3.91381e-07
3.91286e-07
3.9127e-07
3.91341e-07
3.91503e-07
3.91765e-07
3.92131e-07
3.9261e-07
3.93209e-07
3.93938e-07
3.94807e-07
3.95831e-07
3.9703e-07
3.98445e-07
4.16101e-07
4.16056e-07
4.15966e-07
4.1583e-07
4.15647e-07
4.15419e-07
4.15146e-07
4.1483e-07
4.14473e-07
4.14075e-07
4.13639e-07
4.13167e-07
4.1266e-07
4.12121e-07
4.11552e-07
4.10954e-07
4.10331e-07
4.09685e-07
4.09018e-07
4.08332e-07
4.07631e-07
4.06916e-07
4.06191e-07
4.05457e-07
4.04718e-07
4.03977e-07
4.03235e-07
4.02497e-07
4.01764e-07
4.0104e-07
4.00327e-07
3.9963e-07
3.98951e-07
3.98293e-07
3.9766e-07
3.97055e-07
3.96482e-07
3.95945e-07
3.95449e-07
3.94996e-07
3.94591e-07
3.9424e-07
3.93946e-07
3.93716e-07
3.93553e-07
3.93464e-07
3.93455e-07
3.93533e-07
3.93704e-07
3.93977e-07
3.94359e-07
3.94858e-07
3.95484e-07
3.96247e-07
3.97156e-07
3.98224e-07
3.99465e-07
4.00892e-07
4.02528e-07
4.044e-07
4.15493e-07
4.15451e-07
4.15366e-07
4.15238e-07
4.15066e-07
4.14851e-07
4.14594e-07
4.14297e-07
4.1396e-07
4.13585e-07
4.13173e-07
4.12727e-07
4.12248e-07
4.11739e-07
4.112e-07
4.10634e-07
4.10044e-07
4.09432e-07
4.088e-07
4.0815e-07
4.07486e-07
4.06808e-07
4.06121e-07
4.05427e-07
4.04728e-07
4.04028e-07
4.03329e-07
4.02633e-07
4.01945e-07
4.01267e-07
4.00602e-07
3.99954e-07
3.99325e-07
3.9872e-07
3.98142e-07
3.97595e-07
3.97083e-07
3.9661e-07
3.9618e-07
3.95798e-07
3.95468e-07
3.95197e-07
3.94988e-07
3.94847e-07
3.94782e-07
3.94797e-07
3.949e-07
3.95099e-07
3.95402e-07
3.95818e-07
3.96355e-07
3.97024e-07
3.97835e-07
3.988e-07
3.99931e-07
4.01243e-07
4.0275e-07
4.04468e-07
4.06419e-07
4.08622e-07
4.15199e-07
4.15158e-07
4.15076e-07
4.14952e-07
4.14785e-07
4.14577e-07
4.14328e-07
4.14039e-07
4.13712e-07
4.13349e-07
4.12949e-07
4.12516e-07
4.12051e-07
4.11556e-07
4.11032e-07
4.10483e-07
4.09909e-07
4.09314e-07
4.08699e-07
4.08068e-07
4.07422e-07
4.06763e-07
4.06096e-07
4.05422e-07
4.04743e-07
4.04064e-07
4.03386e-07
4.02713e-07
4.02047e-07
4.01393e-07
4.00752e-07
4.00129e-07
3.99527e-07
3.98949e-07
3.98399e-07
3.97882e-07
3.97401e-07
3.96961e-07
3.96565e-07
3.9622e-07
3.95929e-07
3.95699e-07
3.95534e-07
3.9544e-07
3.95424e-07
3.95493e-07
3.95655e-07
3.95918e-07
3.9629e-07
3.9678e-07
3.97399e-07
3.98156e-07
3.99065e-07
4.00135e-07
4.01384e-07
4.02823e-07
4.04471e-07
4.06342e-07
4.0846e-07
4.10838e-07
4.1521e-07
4.15169e-07
4.15087e-07
4.14963e-07
4.14796e-07
4.14588e-07
4.14339e-07
4.14051e-07
4.13724e-07
4.1336e-07
4.12961e-07
4.12528e-07
4.12063e-07
4.11568e-07
4.11045e-07
4.10496e-07
4.09923e-07
4.09328e-07
4.08713e-07
4.08082e-07
4.07436e-07
4.06778e-07
4.06111e-07
4.05437e-07
4.04759e-07
4.0408e-07
4.03403e-07
4.0273e-07
4.02065e-07
4.01411e-07
4.00771e-07
4.00149e-07
3.99547e-07
3.9897e-07
3.98422e-07
3.97905e-07
3.97425e-07
3.96985e-07
3.96591e-07
3.96246e-07
3.95957e-07
3.95727e-07
3.95563e-07
3.95471e-07
3.95457e-07
3.95528e-07
3.95691e-07
3.95955e-07
3.96328e-07
3.9682e-07
3.9744e-07
3.98199e-07
3.99109e-07
4.00182e-07
4.01432e-07
4.02873e-07
4.04524e-07
4.06398e-07
4.08518e-07
4.10898e-07
4.15526e-07
4.15484e-07
4.15399e-07
4.1527e-07
4.15099e-07
4.14884e-07
4.14628e-07
4.14331e-07
4.13994e-07
4.13619e-07
4.13208e-07
4.12763e-07
4.12285e-07
4.11776e-07
4.11238e-07
4.10673e-07
4.10084e-07
4.09472e-07
4.08841e-07
4.08192e-07
4.07529e-07
4.06853e-07
4.06167e-07
4.05474e-07
4.04777e-07
4.04078e-07
4.0338e-07
4.02686e-07
4.02e-07
4.01323e-07
4.0066e-07
4.00014e-07
3.99387e-07
3.98785e-07
3.98209e-07
3.97664e-07
3.97155e-07
3.96684e-07
3.96257e-07
3.95878e-07
3.95551e-07
3.95282e-07
3.95077e-07
3.9494e-07
3.94878e-07
3.94897e-07
3.95004e-07
3.95208e-07
3.95515e-07
3.95935e-07
3.96478e-07
3.97152e-07
3.97968e-07
3.98939e-07
4.00076e-07
4.01394e-07
4.02908e-07
4.04633e-07
4.06592e-07
4.08802e-07
4.16155e-07
4.1611e-07
4.1602e-07
4.15884e-07
4.15702e-07
4.15474e-07
4.15202e-07
4.14886e-07
4.14529e-07
4.14132e-07
4.13697e-07
4.13226e-07
4.1272e-07
4.12182e-07
4.11614e-07
4.11018e-07
4.10396e-07
4.09751e-07
4.09086e-07
4.08402e-07
4.07703e-07
4.0699e-07
4.06266e-07
4.05535e-07
4.04798e-07
4.04059e-07
4.0332e-07
4.02584e-07
4.01854e-07
4.01133e-07
4.00423e-07
3.99729e-07
3.99053e-07
3.98399e-07
3.9777e-07
3.97169e-07
3.966e-07
3.96068e-07
3.95575e-07
3.95127e-07
3.94728e-07
3.94382e-07
3.94094e-07
3.93869e-07
3.93712e-07
3.9363e-07
3.93628e-07
3.93712e-07
3.93891e-07
3.94171e-07
3.94561e-07
3.95069e-07
3.95704e-07
3.96476e-07
3.97396e-07
3.98474e-07
3.99725e-07
4.01165e-07
4.02812e-07
4.04696e-07
4.17119e-07
4.17069e-07
4.16971e-07
4.16822e-07
4.16623e-07
4.16374e-07
4.16077e-07
4.15733e-07
4.15344e-07
4.14912e-07
4.1444e-07
4.13928e-07
4.1338e-07
4.12797e-07
4.12182e-07
4.11538e-07
4.10867e-07
4.10172e-07
4.09454e-07
4.08717e-07
4.07963e-07
4.07195e-07
4.06415e-07
4.05626e-07
4.0483e-07
4.04031e-07
4.0323e-07
4.02431e-07
4.01637e-07
4.00849e-07
4.00072e-07
3.99307e-07
3.98558e-07
3.97828e-07
3.97119e-07
3.96436e-07
3.95781e-07
3.95159e-07
3.94571e-07
3.94023e-07
3.93518e-07
3.93059e-07
3.92651e-07
3.92299e-07
3.92007e-07
3.91778e-07
3.91619e-07
3.91534e-07
3.91529e-07
3.9161e-07
3.91783e-07
3.92056e-07
3.92434e-07
3.92926e-07
3.93539e-07
3.94282e-07
3.95166e-07
3.96206e-07
3.97421e-07
3.98853e-07
4.18447e-07
4.18392e-07
4.18281e-07
4.18114e-07
4.1789e-07
4.17611e-07
4.17279e-07
4.16894e-07
4.1646e-07
4.15979e-07
4.15453e-07
4.14885e-07
4.14277e-07
4.13633e-07
4.12954e-07
4.12244e-07
4.11505e-07
4.10741e-07
4.09953e-07
4.09144e-07
4.08317e-07
4.07475e-07
4.06619e-07
4.05754e-07
4.04881e-07
4.04002e-07
4.03121e-07
4.02239e-07
4.0136e-07
4.00486e-07
3.99619e-07
3.98762e-07
3.97918e-07
3.9709e-07
3.9628e-07
3.95491e-07
3.94725e-07
3.93987e-07
3.93278e-07
3.92602e-07
3.91962e-07
3.91361e-07
3.90802e-07
3.90289e-07
3.89826e-07
3.89415e-07
3.89061e-07
3.88765e-07
3.88532e-07
3.88367e-07
3.88274e-07
3.88257e-07
3.88321e-07
3.88472e-07
3.88711e-07
3.89049e-07
3.89489e-07
3.90049e-07
3.90745e-07
3.91634e-07
4.20185e-07
4.20122e-07
4.19994e-07
4.19801e-07
4.19544e-07
4.19223e-07
4.18841e-07
4.18401e-07
4.17905e-07
4.17357e-07
4.16759e-07
4.16116e-07
4.1543e-07
4.14704e-07
4.13942e-07
4.13147e-07
4.12321e-07
4.11468e-07
4.1059e-07
4.09691e-07
4.08772e-07
4.07837e-07
4.06888e-07
4.05928e-07
4.04958e-07
4.03982e-07
4.03001e-07
4.02019e-07
4.01037e-07
4.00057e-07
3.99082e-07
3.98115e-07
3.97157e-07
3.96211e-07
3.95279e-07
3.94363e-07
3.93466e-07
3.9259e-07
3.91737e-07
3.9091e-07
3.90112e-07
3.89344e-07
3.88608e-07
3.87908e-07
3.87245e-07
3.86623e-07
3.86043e-07
3.85507e-07
3.85017e-07
3.84573e-07
3.84178e-07
3.83836e-07
3.83547e-07
3.83316e-07
3.83141e-07
3.83029e-07
3.82979e-07
3.83012e-07
3.83141e-07
3.8344e-07
4.22397e-07
4.22321e-07
4.2217e-07
4.21942e-07
4.21638e-07
4.21259e-07
4.2081e-07
4.20294e-07
4.19715e-07
4.19078e-07
4.18387e-07
4.17645e-07
4.16858e-07
4.16028e-07
4.1516e-07
4.14257e-07
4.13323e-07
4.12361e-07
4.11373e-07
4.10364e-07
4.09334e-07
4.08287e-07
4.07226e-07
4.06153e-07
4.05069e-07
4.03978e-07
4.02881e-07
4.01781e-07
4.00679e-07
3.99577e-07
3.98478e-07
3.97383e-07
3.96294e-07
3.95213e-07
3.94142e-07
3.93083e-07
3.92037e-07
3.91007e-07
3.89993e-07
3.88998e-07
3.88024e-07
3.87071e-07
3.86142e-07
3.85238e-07
3.8436e-07
3.83509e-07
3.82687e-07
3.81894e-07
3.81128e-07
3.8039e-07
3.79677e-07
3.78992e-07
3.78332e-07
3.77702e-07
3.77095e-07
3.76517e-07
3.75963e-07
3.75454e-07
3.75001e-07
3.74693e-07
4.2517e-07
4.25077e-07
4.24892e-07
4.24614e-07
4.24243e-07
4.23784e-07
4.23242e-07
4.22623e-07
4.21933e-07
4.21179e-07
4.20365e-07
4.19498e-07
4.18582e-07
4.17623e-07
4.16624e-07
4.1559e-07
4.14524e-07
4.1343e-07
4.12311e-07
4.1117e-07
4.1001e-07
4.08833e-07
4.07641e-07
4.06437e-07
4.05223e-07
4.04e-07
4.0277e-07
4.01535e-07
4.00298e-07
3.99058e-07
3.97819e-07
3.96581e-07
3.95347e-07
3.94116e-07
3.92892e-07
3.91675e-07
3.90466e-07
3.89267e-07
3.88078e-07
3.86902e-07
3.85738e-07
3.84588e-07
3.83451e-07
3.8233e-07
3.81222e-07
3.80129e-07
3.79049e-07
3.77984e-07
3.7693e-07
3.75891e-07
3.74862e-07
3.73843e-07
3.72823e-07
3.71802e-07
3.70769e-07
3.69733e-07
3.68685e-07
3.6765e-07
3.66636e-07
3.65746e-07
4.28629e-07
4.28511e-07
4.28273e-07
4.27918e-07
4.27448e-07
4.2687e-07
4.26195e-07
4.25432e-07
4.2459e-07
4.2368e-07
4.22708e-07
4.21683e-07
4.20609e-07
4.19491e-07
4.18336e-07
4.17146e-07
4.15926e-07
4.1468e-07
4.1341e-07
4.1212e-07
4.10812e-07
4.09488e-07
4.0815e-07
4.06801e-07
4.05441e-07
4.04073e-07
4.02698e-07
4.01317e-07
3.99931e-07
3.98542e-07
3.97151e-07
3.95759e-07
3.94368e-07
3.92977e-07
3.91588e-07
3.90203e-07
3.88821e-07
3.87444e-07
3.86072e-07
3.84706e-07
3.83346e-07
3.81993e-07
3.80646e-07
3.79305e-07
3.77971e-07
3.76644e-07
3.75321e-07
3.74003e-07
3.72685e-07
3.71366e-07
3.70035e-07
3.6869e-07
3.67318e-07
3.65922e-07
3.64491e-07
3.63038e-07
3.61541e-07
3.60024e-07
3.58487e-07
3.5704e-07
4.32983e-07
4.32821e-07
4.32496e-07
4.32012e-07
4.3138e-07
4.30614e-07
4.29734e-07
4.28757e-07
4.27699e-07
4.26573e-07
4.25388e-07
4.24152e-07
4.22872e-07
4.21554e-07
4.20202e-07
4.18822e-07
4.17417e-07
4.15991e-07
4.14547e-07
4.13086e-07
4.11612e-07
4.10125e-07
4.08627e-07
4.07119e-07
4.05602e-07
4.04078e-07
4.02547e-07
4.01009e-07
3.99467e-07
3.9792e-07
3.96369e-07
3.94815e-07
3.93258e-07
3.917e-07
3.9014e-07
3.88579e-07
3.87017e-07
3.85456e-07
3.83894e-07
3.82333e-07
3.80772e-07
3.79211e-07
3.77649e-07
3.76087e-07
3.7452e-07
3.72951e-07
3.71373e-07
3.69787e-07
3.68186e-07
3.66572e-07
3.64937e-07
3.63285e-07
3.61606e-07
3.59906e-07
3.58163e-07
3.56378e-07
3.54519e-07
3.52607e-07
3.50636e-07
3.48734e-07
4.38509e-07
4.38296e-07
4.37865e-07
4.3722e-07
4.36376e-07
4.35363e-07
4.34213e-07
4.32957e-07
4.31619e-07
4.30216e-07
4.28761e-07
4.27262e-07
4.25728e-07
4.24163e-07
4.22575e-07
4.20968e-07
4.19345e-07
4.1771e-07
4.16064e-07
4.14409e-07
4.12746e-07
4.11075e-07
4.09397e-07
4.07713e-07
4.06022e-07
4.04326e-07
4.02624e-07
4.00916e-07
3.99203e-07
3.97485e-07
3.95763e-07
3.94035e-07
3.92303e-07
3.90566e-07
3.88826e-07
3.87081e-07
3.85333e-07
3.83582e-07
3.81826e-07
3.80068e-07
3.78305e-07
3.76539e-07
3.74769e-07
3.72994e-07
3.71214e-07
3.69428e-07
3.67635e-07
3.65833e-07
3.64021e-07
3.62195e-07
3.60351e-07
3.58482e-07
3.56577e-07
3.54625e-07
3.5261e-07
3.50519e-07
3.48339e-07
3.46081e-07
3.43748e-07
3.41436e-07
4.45216e-07
4.44783e-07
4.43997e-07
4.42907e-07
4.41583e-07
4.40095e-07
4.38501e-07
4.36841e-07
4.35135e-07
4.33394e-07
4.31624e-07
4.29831e-07
4.28021e-07
4.26201e-07
4.24375e-07
4.22546e-07
4.20716e-07
4.18885e-07
4.17053e-07
4.15219e-07
4.13383e-07
4.11543e-07
4.09701e-07
4.07854e-07
4.06003e-07
4.04146e-07
4.02284e-07
4.00415e-07
3.98539e-07
3.96656e-07
3.94766e-07
3.92868e-07
3.90963e-07
3.89049e-07
3.87127e-07
3.85197e-07
3.8326e-07
3.81314e-07
3.79361e-07
3.77399e-07
3.7543e-07
3.7345e-07
3.71465e-07
3.69467e-07
3.67463e-07
3.65443e-07
3.63417e-07
3.61371e-07
3.59319e-07
3.57238e-07
3.55152e-07
3.53029e-07
3.50903e-07
3.48728e-07
3.46557e-07
3.44323e-07
3.421e-07
3.39797e-07
3.37521e-07
3.35165e-07
4.56954e-07
4.56204e-07
4.54791e-07
4.52839e-07
4.50556e-07
4.48136e-07
4.45707e-07
4.43318e-07
4.40973e-07
4.3866e-07
4.36368e-07
4.34097e-07
4.31854e-07
4.29642e-07
4.27464e-07
4.25317e-07
4.23198e-07
4.21101e-07
4.19023e-07
4.16958e-07
4.14905e-07
4.12859e-07
4.10819e-07
4.08781e-07
4.06745e-07
4.04707e-07
4.02666e-07
4.00619e-07
3.98567e-07
3.96508e-07
3.9444e-07
3.92363e-07
3.90278e-07
3.88181e-07
3.86075e-07
3.83958e-07
3.81831e-07
3.79691e-07
3.77544e-07
3.75382e-07
3.73215e-07
3.7103e-07
3.68843e-07
3.66635e-07
3.6443e-07
3.62199e-07
3.5998e-07
3.57726e-07
3.55498e-07
3.53223e-07
3.50999e-07
3.4871e-07
3.46512e-07
3.44217e-07
3.42081e-07
3.39796e-07
3.37773e-07
3.35504e-07
3.33635e-07
3.31287e-07
4.65699e-07
4.63972e-07
4.61327e-07
4.58202e-07
4.54986e-07
4.51893e-07
4.4897e-07
4.46185e-07
4.43485e-07
4.4084e-07
4.38243e-07
4.35702e-07
4.33222e-07
4.30803e-07
4.28439e-07
4.26121e-07
4.23839e-07
4.21585e-07
4.19354e-07
4.17141e-07
4.14941e-07
4.12751e-07
4.10566e-07
4.08384e-07
4.06201e-07
4.04015e-07
4.01823e-07
3.99624e-07
3.97417e-07
3.95199e-07
3.9297e-07
3.90728e-07
3.88475e-07
3.86208e-07
3.83929e-07
3.81635e-07
3.7933e-07
3.77009e-07
3.74679e-07
3.72332e-07
3.69979e-07
3.67605e-07
3.65229e-07
3.62829e-07
3.60434e-07
3.58003e-07
3.55593e-07
3.53129e-07
3.50711e-07
3.48211e-07
3.45806e-07
3.43271e-07
3.40933e-07
3.38382e-07
3.36244e-07
3.33745e-07
3.32144e-07
3.29776e-07
3.2932e-07
3.26667e-07
5.13743e-07
4.99621e-07
4.85854e-07
4.75277e-07
4.67855e-07
4.62465e-07
4.58015e-07
4.53937e-07
4.50063e-07
4.464e-07
4.42986e-07
4.39824e-07
4.3688e-07
4.34105e-07
4.31453e-07
4.2889e-07
4.26395e-07
4.23953e-07
4.21556e-07
4.19193e-07
4.16857e-07
4.1454e-07
4.12235e-07
4.09936e-07
4.0764e-07
4.05341e-07
4.03039e-07
4.00729e-07
3.9841e-07
3.9608e-07
3.93738e-07
3.91384e-07
3.89015e-07
3.86633e-07
3.84237e-07
3.81827e-07
3.79403e-07
3.76966e-07
3.74516e-07
3.72054e-07
3.69579e-07
3.67093e-07
3.64595e-07
3.62086e-07
3.59565e-07
3.57032e-07
3.54487e-07
3.51926e-07
3.49354e-07
3.46754e-07
3.44149e-07
3.41487e-07
3.38849e-07
3.36063e-07
3.33432e-07
3.30316e-07
3.27976e-07
3.23588e-07
3.23299e-07
3.12718e-07
3.51493e-07
3.00963e-07
2.80004e-07
2.6242e-07
2.44784e-07
2.27024e-07
2.07179e-07
1.86018e-07
1.61299e-07
1.34755e-07
1.0385e-07
7.15629e-08
3.4812e-08
-1.99892e-09
-4.27298e-08
-8.14529e-08
-1.23438e-07
-1.61093e-07
-2.0163e-07
-2.35579e-07
-2.72489e-07
-3.00912e-07
-3.32907e-07
-3.54489e-07
-3.81712e-07
-3.94281e-07
-4.21128e-07
-4.19958e-07
-4.53483e-07
-5.52218e-07
3.37593e-07
2.8251e-07
2.68533e-07
2.53525e-07
2.36565e-07
2.19221e-07
1.99687e-07
1.7868e-07
1.54158e-07
1.27978e-07
9.7708e-08
6.6282e-08
3.07076e-08
-4.77795e-09
-4.39791e-08
-8.12348e-08
-1.21426e-07
-1.57598e-07
-1.96296e-07
-2.29288e-07
-2.64905e-07
-2.92685e-07
-3.24609e-07
-3.45559e-07
-3.7369e-07
-3.867e-07
-4.10925e-07
-4.22769e-07
-4.28136e-07
-5.75931e-07
3.25395e-07
2.80041e-07
2.67102e-07
2.52581e-07
2.3513e-07
2.16799e-07
1.96744e-07
1.75396e-07
1.50827e-07
1.2452e-07
9.44883e-08
6.31603e-08
2.81531e-08
-6.97722e-09
-4.52697e-08
-8.19278e-08
-1.21106e-07
-1.56918e-07
-1.95013e-07
-2.27623e-07
-2.62801e-07
-2.90482e-07
-3.21216e-07
-3.43926e-07
-3.6926e-07
-3.88567e-07
-4.06655e-07
-4.33447e-07
-4.1382e-07
-5.15079e-07
3.15209e-07
2.75929e-07
2.60911e-07
2.4691e-07
2.30153e-07
2.12431e-07
1.92572e-07
1.71061e-07
1.46549e-07
1.20088e-07
9.03887e-08
5.9082e-08
2.48381e-08
-1.00811e-08
-4.71487e-08
-8.35855e-08
-1.21214e-07
-1.56936e-07
-1.92871e-07
-2.26012e-07
-2.58413e-07
-2.88366e-07
-3.1614e-07
-3.42373e-07
-3.63553e-07
-3.89233e-07
-3.97765e-07
-4.34737e-07
-4.09769e-07
-4.7787e-07
3.05374e-07
2.73323e-07
2.57435e-07
2.44573e-07
2.28376e-07
2.09869e-07
1.8949e-07
1.67414e-07
1.42863e-07
1.15995e-07
8.65467e-08
5.49736e-08
2.14271e-08
-1.35797e-08
-4.94534e-08
-8.59189e-08
-1.219e-07
-1.57783e-07
-1.91734e-07
-2.25675e-07
-2.55961e-07
-2.87433e-07
-3.12274e-07
-3.41588e-07
-3.58688e-07
-3.88294e-07
-3.93303e-07
-4.28167e-07
-4.16499e-07
-4.51222e-07
2.9676e-07
2.7158e-07
2.54863e-07
2.41542e-07
2.25612e-07
2.07006e-07
1.86444e-07
1.63882e-07
1.39208e-07
1.1191e-07
8.25824e-08
5.06986e-08
1.76771e-08
-1.74565e-08
-5.23258e-08
-8.88102e-08
-1.23327e-07
-1.59327e-07
-1.91521e-07
-2.25897e-07
-2.54236e-07
-2.86487e-07
-3.09583e-07
-3.39871e-07
-3.56034e-07
-3.85073e-07
-3.9314e-07
-4.20265e-07
-4.23753e-07
-4.40293e-07
2.89708e-07
2.70054e-07
2.53232e-07
2.39057e-07
2.23242e-07
2.04567e-07
1.83754e-07
1.60624e-07
1.35644e-07
1.07873e-07
7.84728e-08
4.62951e-08
1.35472e-08
-2.1612e-08
-5.58062e-08
-9.20651e-08
-1.25579e-07
-1.6123e-07
-1.92323e-07
-2.26287e-07
-2.53764e-07
-2.85488e-07
-3.0853e-07
-3.37691e-07
-3.55644e-07
-3.81522e-07
-3.9484e-07
-4.15431e-07
-4.26566e-07
-4.38804e-07
2.84445e-07
2.68632e-07
2.52315e-07
2.37174e-07
2.21113e-07
2.02287e-07
1.81153e-07
1.5747e-07
1.32013e-07
1.03791e-07
7.41165e-08
4.17353e-08
8.99077e-09
-2.60219e-08
-5.9898e-08
-9.56309e-08
-1.28633e-07
-1.63438e-07
-1.94094e-07
-2.26926e-07
-2.54434e-07
-2.84688e-07
-3.08708e-07
-3.35777e-07
-3.56182e-07
-3.79086e-07
-3.96216e-07
-4.13759e-07
-4.27806e-07
-4.39635e-07
2.81054e-07
2.67308e-07
2.51644e-07
2.3585e-07
2.19235e-07
2.00087e-07
1.7854e-07
1.5433e-07
1.28267e-07
9.96056e-08
6.94919e-08
3.69734e-08
4.02672e-09
-3.07184e-08
-6.4534e-08
-9.955e-08
-1.32355e-07
-1.66044e-07
-1.96602e-07
-2.28012e-07
-2.55806e-07
-2.84432e-07
-3.09333e-07
-3.34705e-07
-3.56634e-07
-3.78142e-07
-3.96858e-07
-4.13979e-07
-4.28856e-07
-4.41657e-07
2.79288e-07
2.66149e-07
2.51056e-07
2.34889e-07
2.17561e-07
1.97903e-07
1.7582e-07
1.51086e-07
1.24346e-07
9.52295e-08
6.45785e-08
3.1928e-08
-1.31647e-09
-3.5772e-08
-6.96234e-08
-1.03898e-07
-1.36571e-07
-1.6915e-07
-1.99582e-07
-2.29684e-07
-2.57533e-07
-2.84872e-07
-3.10103e-07
-3.3448e-07
-3.56949e-07
-3.78033e-07
-3.97298e-07
-4.14719e-07
-4.30256e-07
-4.44041e-07
2.78668e-07
2.65302e-07
2.50424e-07
2.34003e-07
2.15958e-07
1.9565e-07
1.72914e-07
1.47617e-07
1.20177e-07
9.05662e-08
5.93455e-08
2.65151e-08
-7.03059e-09
-4.12549e-08
-7.51106e-08
-1.08736e-07
-1.4118e-07
-1.72809e-07
-2.02911e-07
-2.31961e-07
-2.59519e-07
-2.85936e-07
-3.11012e-07
-3.34814e-07
-3.57311e-07
-3.78306e-07
-3.97852e-07
-4.157e-07
-4.31945e-07
-4.46619e-07
2.78609e-07
2.64804e-07
2.49764e-07
2.32996e-07
2.14248e-07
1.93213e-07
1.69743e-07
1.4382e-07
1.15674e-07
8.5521e-08
5.37331e-08
2.06567e-08
-1.3155e-08
-4.72297e-08
-8.10121e-08
-1.14106e-07
-1.46188e-07
-1.77025e-07
-2.06606e-07
-2.34791e-07
-2.61816e-07
-2.87498e-07
-3.12168e-07
-3.3553e-07
-3.57874e-07
-3.78832e-07
-3.98586e-07
-4.16843e-07
-4.33734e-07
-4.49294e-07
2.78708e-07
2.64507e-07
2.49032e-07
2.31739e-07
2.12272e-07
1.90473e-07
1.66224e-07
1.39605e-07
1.10741e-07
7.99955e-08
4.76486e-08
1.42651e-08
-1.97772e-08
-5.377e-08
-8.7413e-08
-1.20058e-07
-1.51686e-07
-1.81819e-07
-2.10763e-07
-2.38161e-07
-2.64529e-07
-2.89516e-07
-3.13679e-07
-3.36587e-07
-3.58721e-07
-3.79572e-07
-3.99526e-07
-4.18067e-07
-4.35611e-07
-4.51867e-07
2.78719e-07
2.642e-07
2.4814e-07
2.30168e-07
2.09937e-07
1.87341e-07
1.62275e-07
1.34887e-07
1.05272e-07
7.38783e-08
4.09685e-08
7.22666e-09
-2.70275e-08
-6.09851e-08
-9.44471e-08
-1.26686e-07
-1.57801e-07
-1.87265e-07
-2.15499e-07
-2.42123e-07
-2.67757e-07
-2.92033e-07
-3.15607e-07
-3.38021e-07
-3.59864e-07
-3.80558e-07
-4.00621e-07
-4.19404e-07
-4.37483e-07
-4.54388e-07
2.78552e-07
2.63692e-07
2.47002e-07
2.28266e-07
2.0721e-07
1.83756e-07
1.57812e-07
1.29568e-07
9.91416e-08
6.70346e-08
3.35362e-08
-6.09275e-10
-3.50762e-08
-6.90266e-08
-1.02285e-07
-1.34127e-07
-1.6469e-07
-1.93475e-07
-2.20948e-07
-2.46767e-07
-2.71598e-07
-2.95111e-07
-3.18012e-07
-3.39862e-07
-3.61324e-07
-3.81783e-07
-4.0187e-07
-4.20815e-07
-4.39358e-07
-4.56793e-07
2.78267e-07
2.62944e-07
2.45603e-07
2.26054e-07
2.04089e-07
1.7967e-07
1.52739e-07
1.23525e-07
9.21969e-08
5.92958e-08
2.51615e-08
-9.43346e-09
-4.41259e-08
-7.80832e-08
-1.11119e-07
-1.42549e-07
-1.72518e-07
-2.00585e-07
-2.27235e-07
-2.52192e-07
-2.76138e-07
-2.98812e-07
-3.20934e-07
-3.42136e-07
-3.63087e-07
-3.83233e-07
-4.03212e-07
-4.22264e-07
-4.41153e-07
-4.59071e-07
2.78048e-07
2.62044e-07
2.43989e-07
2.23557e-07
2.00556e-07
1.75006e-07
1.46923e-07
1.16591e-07
8.42418e-08
5.04503e-08
1.56169e-08
-1.9472e-08
-5.44034e-08
-8.8365e-08
-1.2115e-07
-1.52126e-07
-1.81444e-07
-2.08728e-07
-2.34481e-07
-2.58489e-07
-2.81457e-07
-3.03186e-07
-3.24414e-07
-3.44845e-07
-3.6515e-07
-3.84866e-07
-4.04589e-07
-4.23669e-07
-4.42764e-07
-4.6115e-07
2.78144e-07
2.61157e-07
2.42208e-07
2.20729e-07
1.96493e-07
1.69592e-07
1.40153e-07
1.08527e-07
7.50192e-08
4.02332e-08
4.63503e-09
-3.09827e-08
-6.61536e-08
-1.00096e-07
-1.3258e-07
-1.63039e-07
-1.91626e-07
-2.18038e-07
-2.42801e-07
-2.65753e-07
-2.8764e-07
-3.08291e-07
-3.28505e-07
-3.48005e-07
-3.67527e-07
-3.86633e-07
-4.05962e-07
-4.24908e-07
-4.44098e-07
-4.62843e-07
2.78676e-07
2.60397e-07
2.40215e-07
2.17375e-07
1.91629e-07
1.63129e-07
1.32114e-07
9.90082e-08
6.41995e-08
2.83191e-08
-8.10003e-09
-4.42629e-08
-7.96532e-08
-1.13529e-07
-1.4564e-07
-1.75496e-07
-2.03251e-07
-2.28686e-07
-2.52344e-07
-2.74122e-07
-2.94803e-07
-3.14233e-07
-3.33291e-07
-3.51677e-07
-3.70254e-07
-3.88534e-07
-4.07288e-07
-4.25878e-07
-4.44982e-07
-4.63911e-07
2.79408e-07
2.59568e-07
2.37679e-07
2.13062e-07
1.85493e-07
1.55148e-07
1.22351e-07
8.75907e-08
5.13462e-08
1.42844e-08
-2.29935e-08
-5.9695e-08
-9.52609e-08
-1.28999e-07
-1.60644e-07
-1.89792e-07
-2.16597e-07
-2.40935e-07
-2.63348e-07
-2.83816e-07
-3.03132e-07
-3.21182e-07
-3.38904e-07
-3.5597e-07
-3.73403e-07
-3.90584e-07
-4.08557e-07
-4.2644e-07
-4.45242e-07
-4.63946e-07
2.79577e-07
2.57905e-07
2.33956e-07
2.07203e-07
1.77499e-07
1.45054e-07
1.1026e-07
7.36731e-08
3.58659e-08
-2.45031e-09
-4.06056e-08
-7.78147e-08
-1.13485e-07
-1.46985e-07
-1.78044e-07
-2.06357e-07
-2.32071e-07