/*--------------------------------*- C++ -*----------------------------------*\
| =========                 |                                                 |
| \\      /  F ield         | OpenFOAM: The Open Source CFD Toolbox           |
|  \\    /   O peration     | Version:  2312                                  |
|   \\  /    A nd           | Website:  www.openfoam.com                      |
|    \\/     M anipulation  |                                                 |
\*---------------------------------------------------------------------------*/
FoamFile
{
    version     2.0;
    format      ascii;
    arch        "LSB;label=32;scalar=64";
    class       volScalarField;
    location    "15000";
    object      p;
}
// * * * * * * * * * * * * * * * * * * * * * * * * * * * * * * * * * * * * * //

dimensions      [0 2 -2 0 0 0 0];

internalField   nonuniform List<scalar> 
10800
(
5.42488e-07
5.28364e-07
5.14592e-07
5.04008e-07
4.96577e-07
4.91175e-07
4.86711e-07
4.82616e-07
4.78722e-07
4.75037e-07
4.71598e-07
4.68408e-07
4.65434e-07
4.62626e-07
4.59937e-07
4.57335e-07
4.54797e-07
4.5231e-07
4.49865e-07
4.47452e-07
4.45063e-07
4.4269e-07
4.40328e-07
4.37971e-07
4.35615e-07
4.33258e-07
4.30898e-07
4.28532e-07
4.26161e-07
4.23783e-07
4.21401e-07
4.19014e-07
4.16625e-07
4.14235e-07
4.1185e-07
4.09472e-07
4.07104e-07
4.04748e-07
4.02408e-07
4.00088e-07
3.97796e-07
3.95546e-07
3.93355e-07
3.91243e-07
3.8923e-07
3.87326e-07
3.85541e-07
3.83856e-07
3.82274e-07
3.80746e-07
3.79301e-07
3.77838e-07
3.76492e-07
3.75013e-07
3.73827e-07
3.72127e-07
3.71364e-07
3.68616e-07
3.69542e-07
3.61904e-07
4.94459e-07
4.9273e-07
4.90082e-07
4.86951e-07
4.83728e-07
4.80625e-07
4.77691e-07
4.74891e-07
4.72175e-07
4.69512e-07
4.66895e-07
4.64331e-07
4.61826e-07
4.5938e-07
4.56986e-07
4.54636e-07
4.52319e-07
4.50029e-07
4.47759e-07
4.45505e-07
4.43263e-07
4.41029e-07
4.388e-07
4.36572e-07
4.34344e-07
4.32113e-07
4.29878e-07
4.27638e-07
4.25393e-07
4.23143e-07
4.2089e-07
4.1863e-07
4.16367e-07
4.14103e-07
4.11843e-07
4.0959e-07
4.0735e-07
4.05115e-07
4.02885e-07
4.00651e-07
3.98429e-07
3.96227e-07
3.94086e-07
3.92015e-07
3.90064e-07
3.88212e-07
3.86513e-07
3.84895e-07
3.83432e-07
3.81986e-07
3.80695e-07
3.7933e-07
3.78171e-07
3.76813e-07
3.7582e-07
3.74414e-07
3.73659e-07
3.7206e-07
3.71885e-07
3.69467e-07
4.85751e-07
4.85e-07
4.83583e-07
4.81628e-07
4.79338e-07
4.76911e-07
4.74473e-07
4.72074e-07
4.69718e-07
4.67391e-07
4.65084e-07
4.62798e-07
4.60537e-07
4.58306e-07
4.56108e-07
4.5394e-07
4.51799e-07
4.49679e-07
4.47576e-07
4.45488e-07
4.4341e-07
4.41341e-07
4.39279e-07
4.3722e-07
4.35164e-07
4.33108e-07
4.31054e-07
4.28999e-07
4.26945e-07
4.24891e-07
4.22838e-07
4.20782e-07
4.1873e-07
4.16683e-07
4.14646e-07
4.12616e-07
4.10595e-07
4.08585e-07
4.06598e-07
4.04632e-07
4.02696e-07
4.0079e-07
3.98927e-07
3.97102e-07
3.95331e-07
3.93598e-07
3.91924e-07
3.90275e-07
3.88681e-07
3.87081e-07
3.85529e-07
3.83933e-07
3.82392e-07
3.8075e-07
3.79152e-07
3.77443e-07
3.75913e-07
3.74107e-07
3.72481e-07
3.70344e-07
4.74049e-07
4.73615e-07
4.72827e-07
4.71734e-07
4.70406e-07
4.68914e-07
4.67315e-07
4.65647e-07
4.63934e-07
4.62184e-07
4.60405e-07
4.58602e-07
4.56781e-07
4.5495e-07
4.53112e-07
4.5127e-07
4.49428e-07
4.47584e-07
4.4574e-07
4.43894e-07
4.42047e-07
4.40199e-07
4.38349e-07
4.36497e-07
4.34643e-07
4.32787e-07
4.30929e-07
4.2907e-07
4.27211e-07
4.25353e-07
4.23495e-07
4.21636e-07
4.19778e-07
4.17927e-07
4.16084e-07
4.14247e-07
4.12416e-07
4.10595e-07
4.08786e-07
4.06991e-07
4.0521e-07
4.03443e-07
4.01699e-07
3.99977e-07
3.98286e-07
3.96622e-07
3.9499e-07
3.93382e-07
3.91803e-07
3.90235e-07
3.88685e-07
3.87128e-07
3.85572e-07
3.84e-07
3.82393e-07
3.80657e-07
3.78811e-07
3.76792e-07
3.74662e-07
3.72357e-07
4.67395e-07
4.67182e-07
4.6675e-07
4.66103e-07
4.65257e-07
4.64241e-07
4.63088e-07
4.61828e-07
4.60486e-07
4.59079e-07
4.57619e-07
4.56115e-07
4.54575e-07
4.53006e-07
4.51412e-07
4.49801e-07
4.48174e-07
4.46535e-07
4.44887e-07
4.43231e-07
4.41568e-07
4.399e-07
4.38228e-07
4.36551e-07
4.34872e-07
4.3319e-07
4.31508e-07
4.29825e-07
4.28143e-07
4.26466e-07
4.2479e-07
4.23116e-07
4.21447e-07
4.19786e-07
4.18137e-07
4.16496e-07
4.14865e-07
4.13246e-07
4.11643e-07
4.10058e-07
4.08492e-07
4.06944e-07
4.05417e-07
4.03911e-07
4.02425e-07
4.00954e-07
3.99493e-07
3.98035e-07
3.9657e-07
3.95085e-07
3.93566e-07
3.92e-07
3.90377e-07
3.88674e-07
3.86912e-07
3.85086e-07
3.83172e-07
3.81156e-07
3.79015e-07
3.76814e-07
4.6192e-07
4.61758e-07
4.61432e-07
4.60948e-07
4.60314e-07
4.59547e-07
4.58666e-07
4.57688e-07
4.56629e-07
4.55501e-07
4.54315e-07
4.53078e-07
4.51798e-07
4.50479e-07
4.49128e-07
4.47749e-07
4.46346e-07
4.44923e-07
4.43484e-07
4.4203e-07
4.40563e-07
4.39087e-07
4.37603e-07
4.36111e-07
4.34613e-07
4.33112e-07
4.31608e-07
4.30102e-07
4.28598e-07
4.27097e-07
4.25598e-07
4.24101e-07
4.22608e-07
4.21124e-07
4.1965e-07
4.18184e-07
4.16726e-07
4.15278e-07
4.13843e-07
4.12419e-07
4.11007e-07
4.09603e-07
4.08209e-07
4.06824e-07
4.05447e-07
4.04077e-07
4.02712e-07
4.01353e-07
3.99999e-07
3.9865e-07
3.973e-07
3.95936e-07
3.94533e-07
3.93075e-07
3.91542e-07
3.8993e-07
3.88219e-07
3.86431e-07
3.84563e-07
3.82719e-07
4.57621e-07
4.57503e-07
4.57265e-07
4.5691e-07
4.56441e-07
4.55864e-07
4.55189e-07
4.54427e-07
4.53586e-07
4.52677e-07
4.51708e-07
4.50685e-07
4.49614e-07
4.48501e-07
4.4735e-07
4.46166e-07
4.44953e-07
4.43715e-07
4.42455e-07
4.41177e-07
4.39882e-07
4.38575e-07
4.37257e-07
4.35929e-07
4.34594e-07
4.33254e-07
4.3191e-07
4.30565e-07
4.29221e-07
4.2788e-07
4.26542e-07
4.25207e-07
4.23877e-07
4.22558e-07
4.2125e-07
4.19952e-07
4.18663e-07
4.17387e-07
4.16127e-07
4.14883e-07
4.13655e-07
4.12443e-07
4.1125e-07
4.10074e-07
4.08915e-07
4.07769e-07
4.0663e-07
4.05489e-07
4.04338e-07
4.03166e-07
4.01974e-07
4.00768e-07
3.99541e-07
3.98288e-07
3.96992e-07
3.95655e-07
3.94256e-07
3.92811e-07
3.91322e-07
3.89886e-07
4.54215e-07
4.54123e-07
4.53939e-07
4.53661e-07
4.53292e-07
4.52834e-07
4.52294e-07
4.51678e-07
4.50991e-07
4.50241e-07
4.49431e-07
4.48569e-07
4.4766e-07
4.46707e-07
4.45716e-07
4.44691e-07
4.43635e-07
4.42553e-07
4.41447e-07
4.40322e-07
4.39179e-07
4.38021e-07
4.36852e-07
4.35672e-07
4.34485e-07
4.33292e-07
4.32096e-07
4.30898e-07
4.29702e-07
4.2851e-07
4.27321e-07
4.26137e-07
4.24959e-07
4.23794e-07
4.22641e-07
4.21501e-07
4.20371e-07
4.19257e-07
4.1816e-07
4.17081e-07
4.16018e-07
4.14971e-07
4.1394e-07
4.12926e-07
4.11927e-07
4.10944e-07
4.09978e-07
4.09032e-07
4.08105e-07
4.07195e-07
4.06284e-07
4.05368e-07
4.0444e-07
4.03503e-07
4.02546e-07
4.01574e-07
4.00578e-07
3.99575e-07
3.98573e-07
3.97662e-07
4.51494e-07
4.51419e-07
4.51269e-07
4.51042e-07
4.5074e-07
4.50364e-07
4.49918e-07
4.49406e-07
4.48832e-07
4.482e-07
4.47515e-07
4.4678e-07
4.46001e-07
4.4518e-07
4.44322e-07
4.43431e-07
4.42509e-07
4.41561e-07
4.40589e-07
4.39597e-07
4.38587e-07
4.37562e-07
4.36525e-07
4.35477e-07
4.34422e-07
4.33361e-07
4.32298e-07
4.31233e-07
4.30172e-07
4.29115e-07
4.28063e-07
4.27016e-07
4.25979e-07
4.24955e-07
4.23947e-07
4.22954e-07
4.21975e-07
4.21014e-07
4.20075e-07
4.19159e-07
4.18265e-07
4.17395e-07
4.1655e-07
4.15734e-07
4.14946e-07
4.14185e-07
4.1345e-07
4.12737e-07
4.12045e-07
4.11377e-07
4.10732e-07
4.10108e-07
4.09501e-07
4.08913e-07
4.08337e-07
4.07779e-07
4.07233e-07
4.06715e-07
4.06236e-07
4.05875e-07
4.4933e-07
4.49267e-07
4.49141e-07
4.4895e-07
4.48695e-07
4.48378e-07
4.48e-07
4.47564e-07
4.47074e-07
4.46532e-07
4.45943e-07
4.45308e-07
4.44631e-07
4.43916e-07
4.43166e-07
4.42383e-07
4.41572e-07
4.40734e-07
4.39874e-07
4.38993e-07
4.38095e-07
4.37182e-07
4.36258e-07
4.35324e-07
4.34382e-07
4.33436e-07
4.32488e-07
4.3154e-07
4.30595e-07
4.29658e-07
4.28726e-07
4.27802e-07
4.26889e-07
4.25993e-07
4.25115e-07
4.24254e-07
4.23412e-07
4.22593e-07
4.21801e-07
4.21037e-07
4.20301e-07
4.19596e-07
4.18923e-07
4.18285e-07
4.17684e-07
4.17119e-07
4.16593e-07
4.16106e-07
4.1566e-07
4.15256e-07
4.14895e-07
4.1458e-07
4.14311e-07
4.14091e-07
4.13917e-07
4.13795e-07
4.13723e-07
4.13719e-07
4.13797e-07
4.14023e-07
4.47635e-07
4.4758e-07
4.47471e-07
4.47306e-07
4.47086e-07
4.46811e-07
4.46483e-07
4.46104e-07
4.45676e-07
4.45202e-07
4.44685e-07
4.44126e-07
4.43529e-07
4.42896e-07
4.42231e-07
4.41535e-07
4.40811e-07
4.40063e-07
4.39292e-07
4.38503e-07
4.37697e-07
4.36878e-07
4.36047e-07
4.35208e-07
4.34361e-07
4.33512e-07
4.32661e-07
4.31812e-07
4.30968e-07
4.30132e-07
4.29304e-07
4.28486e-07
4.27681e-07
4.26897e-07
4.26133e-07
4.25391e-07
4.24671e-07
4.23979e-07
4.23318e-07
4.22692e-07
4.221e-07
4.21545e-07
4.21032e-07
4.20563e-07
4.20141e-07
4.19769e-07
4.19448e-07
4.19181e-07
4.18972e-07
4.18826e-07
4.18745e-07
4.18733e-07
4.18793e-07
4.18931e-07
4.19148e-07
4.19451e-07
4.19846e-07
4.20347e-07
4.20971e-07
4.21771e-07
4.46344e-07
4.46296e-07
4.46199e-07
4.46052e-07
4.45856e-07
4.45612e-07
4.4532e-07
4.44982e-07
4.44601e-07
4.44177e-07
4.43713e-07
4.43212e-07
4.42675e-07
4.42104e-07
4.41503e-07
4.40874e-07
4.40218e-07
4.39539e-07
4.3884e-07
4.38123e-07
4.3739e-07
4.36644e-07
4.35889e-07
4.35125e-07
4.34356e-07
4.33584e-07
4.32813e-07
4.32044e-07
4.31283e-07
4.3053e-07
4.29788e-07
4.29058e-07
4.28344e-07
4.27652e-07
4.26985e-07
4.26341e-07
4.25725e-07
4.2514e-07
4.24591e-07
4.24082e-07
4.23614e-07
4.2319e-07
4.22816e-07
4.22494e-07
4.22229e-07
4.22023e-07
4.21881e-07
4.2181e-07
4.21813e-07
4.21896e-07
4.22065e-07
4.22324e-07
4.22681e-07
4.23142e-07
4.23715e-07
4.24408e-07
4.2523e-07
4.26196e-07
4.27326e-07
4.28658e-07
4.45412e-07
4.45368e-07
4.4528e-07
4.45146e-07
4.44967e-07
4.44744e-07
4.44477e-07
4.44168e-07
4.43819e-07
4.43431e-07
4.43005e-07
4.42544e-07
4.4205e-07
4.41525e-07
4.40971e-07
4.4039e-07
4.39784e-07
4.39157e-07
4.38509e-07
4.37845e-07
4.37167e-07
4.36477e-07
4.35777e-07
4.35071e-07
4.3436e-07
4.33648e-07
4.32936e-07
4.32229e-07
4.3153e-07
4.30842e-07
4.30166e-07
4.29503e-07
4.28859e-07
4.28239e-07
4.27646e-07
4.2708e-07
4.26544e-07
4.26043e-07
4.25583e-07
4.25166e-07
4.24796e-07
4.24476e-07
4.24212e-07
4.24008e-07
4.23869e-07
4.238e-07
4.23806e-07
4.23894e-07
4.2407e-07
4.24341e-07
4.24715e-07
4.25198e-07
4.258e-07
4.26531e-07
4.27399e-07
4.28416e-07
4.29595e-07
4.30952e-07
4.32504e-07
4.34282e-07
4.44807e-07
4.44766e-07
4.44683e-07
4.44558e-07
4.4439e-07
4.4418e-07
4.43929e-07
4.43639e-07
4.4331e-07
4.42944e-07
4.42543e-07
4.42109e-07
4.41642e-07
4.41146e-07
4.40623e-07
4.40073e-07
4.395e-07
4.38906e-07
4.38294e-07
4.37665e-07
4.37022e-07
4.36369e-07
4.35707e-07
4.35039e-07
4.34367e-07
4.33694e-07
4.33023e-07
4.32358e-07
4.31701e-07
4.31056e-07
4.30425e-07
4.29808e-07
4.29211e-07
4.2864e-07
4.28098e-07
4.27585e-07
4.27104e-07
4.26662e-07
4.26263e-07
4.25911e-07
4.25609e-07
4.25362e-07
4.25175e-07
4.25053e-07
4.25003e-07
4.25029e-07
4.25139e-07
4.25339e-07
4.25638e-07
4.26042e-07
4.26561e-07
4.27204e-07
4.27982e-07
4.28904e-07
4.29984e-07
4.31234e-07
4.3267e-07
4.34307e-07
4.36166e-07
4.38266e-07
4.4451e-07
4.4447e-07
4.4439e-07
4.44268e-07
4.44106e-07
4.43902e-07
4.43659e-07
4.43378e-07
4.43059e-07
4.42704e-07
4.42315e-07
4.41894e-07
4.41441e-07
4.40959e-07
4.40451e-07
4.39917e-07
4.3936e-07
4.38783e-07
4.38187e-07
4.37576e-07
4.36952e-07
4.36317e-07
4.35674e-07
4.35024e-07
4.34372e-07
4.33719e-07
4.33069e-07
4.32424e-07
4.31788e-07
4.31166e-07
4.30557e-07
4.29963e-07
4.2939e-07
4.28844e-07
4.28328e-07
4.27842e-07
4.2739e-07
4.26977e-07
4.26609e-07
4.2629e-07
4.26023e-07
4.25813e-07
4.25665e-07
4.25586e-07
4.25581e-07
4.25657e-07
4.25821e-07
4.26079e-07
4.26442e-07
4.26915e-07
4.2751e-07
4.28236e-07
4.29104e-07
4.30127e-07
4.31317e-07
4.32689e-07
4.34261e-07
4.36045e-07
4.38065e-07
4.40335e-07
4.4451e-07
4.4447e-07
4.4439e-07
4.44268e-07
4.44106e-07
4.43902e-07
4.43659e-07
4.43378e-07
4.43059e-07
4.42704e-07
4.42315e-07
4.41894e-07
4.41441e-07
4.4096e-07
4.40451e-07
4.39917e-07
4.3936e-07
4.38783e-07
4.38188e-07
4.37576e-07
4.36952e-07
4.36317e-07
4.35674e-07
4.35025e-07
4.34372e-07
4.33719e-07
4.33069e-07
4.32424e-07
4.31789e-07
4.31166e-07
4.30557e-07
4.29963e-07
4.2939e-07
4.28844e-07
4.28328e-07
4.27842e-07
4.2739e-07
4.26977e-07
4.26609e-07
4.2629e-07
4.26023e-07
4.25813e-07
4.25666e-07
4.25586e-07
4.25582e-07
4.25658e-07
4.25821e-07
4.2608e-07
4.26442e-07
4.26915e-07
4.2751e-07
4.28236e-07
4.29105e-07
4.30127e-07
4.31318e-07
4.3269e-07
4.34261e-07
4.36046e-07
4.38066e-07
4.40335e-07
4.44808e-07
4.44767e-07
4.44683e-07
4.44558e-07
4.4439e-07
4.4418e-07
4.4393e-07
4.43639e-07
4.4331e-07
4.42945e-07
4.42544e-07
4.42109e-07
4.41643e-07
4.41147e-07
4.40623e-07
4.40074e-07
4.39501e-07
4.38907e-07
4.38294e-07
4.37665e-07
4.37023e-07
4.3637e-07
4.35708e-07
4.3504e-07
4.34367e-07
4.33695e-07
4.33024e-07
4.32358e-07
4.31702e-07
4.31057e-07
4.30426e-07
4.29809e-07
4.29211e-07
4.28641e-07
4.28099e-07
4.27586e-07
4.27105e-07
4.26663e-07
4.26264e-07
4.25912e-07
4.2561e-07
4.25363e-07
4.25176e-07
4.25054e-07
4.25004e-07
4.2503e-07
4.2514e-07
4.2534e-07
4.25639e-07
4.26043e-07
4.26563e-07
4.27205e-07
4.27983e-07
4.28905e-07
4.29985e-07
4.31235e-07
4.32672e-07
4.34309e-07
4.36168e-07
4.38268e-07
4.45413e-07
4.45369e-07
4.4528e-07
4.45147e-07
4.44968e-07
4.44745e-07
4.44478e-07
4.44169e-07
4.4382e-07
4.43431e-07
4.43006e-07
4.42545e-07
4.42051e-07
4.41526e-07
4.40972e-07
4.40391e-07
4.39785e-07
4.39157e-07
4.3851e-07
4.37846e-07
4.37168e-07
4.36478e-07
4.35778e-07
4.35072e-07
4.34361e-07
4.33648e-07
4.32937e-07
4.3223e-07
4.31531e-07
4.30843e-07
4.30167e-07
4.29504e-07
4.2886e-07
4.2824e-07
4.27647e-07
4.27081e-07
4.26545e-07
4.26044e-07
4.25584e-07
4.25168e-07
4.24798e-07
4.24478e-07
4.24213e-07
4.24009e-07
4.23871e-07
4.23801e-07
4.23808e-07
4.23895e-07
4.24072e-07
4.24343e-07
4.24717e-07
4.252e-07
4.25803e-07
4.26533e-07
4.27401e-07
4.28419e-07
4.29598e-07
4.30955e-07
4.32508e-07
4.34285e-07
4.46345e-07
4.46297e-07
4.462e-07
4.46053e-07
4.45857e-07
4.45613e-07
4.45321e-07
4.44983e-07
4.44602e-07
4.44178e-07
4.43714e-07
4.43213e-07
4.42676e-07
4.42105e-07
4.41504e-07
4.40875e-07
4.40219e-07
4.39541e-07
4.38841e-07
4.38124e-07
4.37391e-07
4.36646e-07
4.3589e-07
4.35126e-07
4.34357e-07
4.33586e-07
4.32814e-07
4.32046e-07
4.31284e-07
4.30532e-07
4.2979e-07
4.2906e-07
4.28345e-07
4.27654e-07
4.26986e-07
4.26343e-07
4.25727e-07
4.25142e-07
4.24593e-07
4.24084e-07
4.23616e-07
4.23192e-07
4.22818e-07
4.22496e-07
4.22231e-07
4.22025e-07
4.21884e-07
4.21812e-07
4.21816e-07
4.21899e-07
4.22067e-07
4.22327e-07
4.22684e-07
4.23146e-07
4.23718e-07
4.24411e-07
4.25234e-07
4.26201e-07
4.2733e-07
4.28662e-07
4.47636e-07
4.47581e-07
4.47472e-07
4.47307e-07
4.47087e-07
4.46812e-07
4.46484e-07
4.46105e-07
4.45677e-07
4.45203e-07
4.44686e-07
4.44127e-07
4.43531e-07
4.42898e-07
4.42232e-07
4.41536e-07
4.40812e-07
4.40064e-07
4.39294e-07
4.38505e-07
4.37699e-07
4.36879e-07
4.36049e-07
4.35209e-07
4.34363e-07
4.33513e-07
4.32663e-07
4.31813e-07
4.3097e-07
4.30134e-07
4.29306e-07
4.28488e-07
4.27683e-07
4.26899e-07
4.26135e-07
4.25393e-07
4.24673e-07
4.23981e-07
4.23321e-07
4.22694e-07
4.22102e-07
4.21548e-07
4.21034e-07
4.20566e-07
4.20144e-07
4.19772e-07
4.1945e-07
4.19184e-07
4.18975e-07
4.18829e-07
4.18748e-07
4.18737e-07
4.18797e-07
4.18935e-07
4.19152e-07
4.19456e-07
4.1985e-07
4.20352e-07
4.20977e-07
4.21777e-07
4.49331e-07
4.49268e-07
4.49142e-07
4.48951e-07
4.48697e-07
4.48379e-07
4.48001e-07
4.47566e-07
4.47076e-07
4.46534e-07
4.45944e-07
4.45309e-07
4.44633e-07
4.43918e-07
4.43167e-07
4.42385e-07
4.41573e-07
4.40736e-07
4.39875e-07
4.38995e-07
4.38097e-07
4.37184e-07
4.3626e-07
4.35326e-07
4.34384e-07
4.33438e-07
4.3249e-07
4.31542e-07
4.30598e-07
4.2966e-07
4.28728e-07
4.27804e-07
4.26891e-07
4.25995e-07
4.25117e-07
4.24257e-07
4.23415e-07
4.22596e-07
4.21803e-07
4.21039e-07
4.20304e-07
4.19599e-07
4.18926e-07
4.18288e-07
4.17687e-07
4.17122e-07
4.16596e-07
4.1611e-07
4.15663e-07
4.15259e-07
4.14899e-07
4.14584e-07
4.14315e-07
4.14095e-07
4.13922e-07
4.138e-07
4.13728e-07
4.13725e-07
4.13803e-07
4.1403e-07
4.51495e-07
4.51421e-07
4.5127e-07
4.51044e-07
4.50742e-07
4.50366e-07
4.4992e-07
4.49408e-07
4.48834e-07
4.48202e-07
4.47516e-07
4.46782e-07
4.46003e-07
4.45182e-07
4.44324e-07
4.43433e-07
4.42511e-07
4.41563e-07
4.40591e-07
4.39599e-07
4.38589e-07
4.37564e-07
4.36527e-07
4.3548e-07
4.34424e-07
4.33364e-07
4.323e-07
4.31236e-07
4.30174e-07
4.29117e-07
4.28066e-07
4.27019e-07
4.25981e-07
4.24958e-07
4.2395e-07
4.22957e-07
4.21978e-07
4.21017e-07
4.20078e-07
4.19162e-07
4.18268e-07
4.17398e-07
4.16554e-07
4.15737e-07
4.14949e-07
4.14189e-07
4.13453e-07
4.12741e-07
4.12049e-07
4.11381e-07
4.10736e-07
4.10113e-07
4.09506e-07
4.08918e-07
4.08342e-07
4.07785e-07
4.07239e-07
4.06722e-07
4.06244e-07
4.05883e-07
4.54217e-07
4.54125e-07
4.53941e-07
4.53663e-07
4.53294e-07
4.52836e-07
4.52297e-07
4.5168e-07
4.50993e-07
4.50243e-07
4.49434e-07
4.48571e-07
4.47662e-07
4.46709e-07
4.45718e-07
4.44693e-07
4.43637e-07
4.42555e-07
4.4145e-07
4.40324e-07
4.39181e-07
4.38024e-07
4.36854e-07
4.35675e-07
4.34487e-07
4.33295e-07
4.32098e-07
4.30901e-07
4.29705e-07
4.28513e-07
4.27325e-07
4.2614e-07
4.24962e-07
4.23797e-07
4.22645e-07
4.21504e-07
4.20375e-07
4.19261e-07
4.18164e-07
4.17085e-07
4.16022e-07
4.14975e-07
4.13944e-07
4.1293e-07
4.11931e-07
4.10948e-07
4.09982e-07
4.09036e-07
4.08109e-07
4.07199e-07
4.06288e-07
4.05372e-07
4.04445e-07
4.03508e-07
4.02552e-07
4.0158e-07
4.00584e-07
3.99582e-07
3.98581e-07
3.9767e-07
4.57623e-07
4.57505e-07
4.57268e-07
4.56912e-07
4.56443e-07
4.55866e-07
4.55191e-07
4.54429e-07
4.53589e-07
4.5268e-07
4.5171e-07
4.50688e-07
4.49617e-07
4.48504e-07
4.47353e-07
4.46169e-07
4.44956e-07
4.43718e-07
4.42458e-07
4.41179e-07
4.39885e-07
4.38578e-07
4.3726e-07
4.35932e-07
4.34597e-07
4.33257e-07
4.31913e-07
4.30568e-07
4.29224e-07
4.27884e-07
4.26546e-07
4.25211e-07
4.23881e-07
4.22562e-07
4.21254e-07
4.19956e-07
4.18667e-07
4.17391e-07
4.16131e-07
4.14887e-07
4.13659e-07
4.12448e-07
4.11254e-07
4.10079e-07
4.0892e-07
4.07774e-07
4.06634e-07
4.05494e-07
4.04342e-07
4.03171e-07
4.01978e-07
4.00772e-07
3.99545e-07
3.98292e-07
3.96998e-07
3.95661e-07
3.94263e-07
3.92818e-07
3.9133e-07
3.89895e-07
4.61923e-07
4.6176e-07
4.61435e-07
4.6095e-07
4.60317e-07
4.5955e-07
4.58669e-07
4.5769e-07
4.56631e-07
4.55504e-07
4.54318e-07
4.53081e-07
4.51801e-07
4.50482e-07
4.49131e-07
4.47752e-07
4.46349e-07
4.44926e-07
4.43487e-07
4.42033e-07
4.40566e-07
4.3909e-07
4.37606e-07
4.36114e-07
4.34617e-07
4.33115e-07
4.31611e-07
4.30106e-07
4.28602e-07
4.27101e-07
4.25602e-07
4.24105e-07
4.22612e-07
4.21128e-07
4.19654e-07
4.18189e-07
4.16731e-07
4.15283e-07
4.13847e-07
4.12424e-07
4.11012e-07
4.09608e-07
4.08214e-07
4.06829e-07
4.05452e-07
4.04082e-07
4.02717e-07
4.01358e-07
4.00003e-07
3.98653e-07
3.97303e-07
3.95938e-07
3.94535e-07
3.93078e-07
3.91546e-07
3.89936e-07
3.88226e-07
3.86439e-07
3.84572e-07
3.82728e-07
4.67398e-07
4.67184e-07
4.66752e-07
4.66105e-07
4.6526e-07
4.64244e-07
4.63091e-07
4.61831e-07
4.60488e-07
4.59081e-07
4.57621e-07
4.56118e-07
4.54578e-07
4.53009e-07
4.51415e-07
4.49804e-07
4.48177e-07
4.46538e-07
4.4489e-07
4.43234e-07
4.41571e-07
4.39903e-07
4.38231e-07
4.36555e-07
4.34875e-07
4.33194e-07
4.31511e-07
4.29829e-07
4.28147e-07
4.2647e-07
4.24794e-07
4.23121e-07
4.21451e-07
4.19791e-07
4.18141e-07
4.16501e-07
4.1487e-07
4.13251e-07
4.11648e-07
4.10064e-07
4.08498e-07
4.0695e-07
4.05423e-07
4.03917e-07
4.02431e-07
4.0096e-07
3.995e-07
3.98042e-07
3.96576e-07
3.9509e-07
3.9357e-07
3.92e-07
3.90371e-07
3.88674e-07
3.86916e-07
3.85093e-07
3.8318e-07
3.81165e-07
3.79025e-07
3.76825e-07
4.74052e-07
4.73618e-07
4.7283e-07
4.71737e-07
4.70409e-07
4.68917e-07
4.67318e-07
4.6565e-07
4.63936e-07
4.62187e-07
4.60408e-07
4.58605e-07
4.56784e-07
4.54953e-07
4.53115e-07
4.51274e-07
4.49431e-07
4.47587e-07
4.45743e-07
4.43897e-07
4.42051e-07
4.40203e-07
4.38353e-07
4.36501e-07
4.34647e-07
4.32791e-07
4.30933e-07
4.29074e-07
4.27215e-07
4.25357e-07
4.23499e-07
4.2164e-07
4.19783e-07
4.17932e-07
4.16089e-07
4.14252e-07
4.12422e-07
4.106e-07
4.08792e-07
4.06997e-07
4.05216e-07
4.0345e-07
4.01705e-07
3.99984e-07
3.98294e-07
3.9663e-07
3.94999e-07
3.93391e-07
3.91813e-07
3.90246e-07
3.88698e-07
3.87144e-07
3.85596e-07
3.84017e-07
3.82408e-07
3.8067e-07
3.78824e-07
3.76804e-07
3.74674e-07
3.72369e-07
4.85754e-07
4.85002e-07
4.83586e-07
4.8163e-07
4.79341e-07
4.76914e-07
4.74476e-07
4.72077e-07
4.69721e-07
4.67394e-07
4.65087e-07
4.62801e-07
4.6054e-07
4.5831e-07
4.56111e-07
4.53944e-07
4.51802e-07
4.49682e-07
4.4758e-07
4.45492e-07
4.43414e-07
4.41345e-07
4.39283e-07
4.37224e-07
4.35168e-07
4.33113e-07
4.31058e-07
4.29003e-07
4.26949e-07
4.24896e-07
4.22843e-07
4.20787e-07
4.18735e-07
4.16689e-07
4.14652e-07
4.12621e-07
4.10601e-07
4.08592e-07
4.06604e-07
4.04638e-07
4.02703e-07
4.00797e-07
3.98935e-07
3.9711e-07
3.9534e-07
3.93607e-07
3.91934e-07
3.90285e-07
3.88692e-07
3.87093e-07
3.85543e-07
3.83948e-07
3.82408e-07
3.80766e-07
3.79167e-07
3.77457e-07
3.75927e-07
3.7412e-07
3.72494e-07
3.70357e-07
4.94462e-07
4.92733e-07
4.90085e-07
4.86954e-07
4.83731e-07
4.80628e-07
4.77694e-07
4.74894e-07
4.72178e-07
4.69515e-07
4.66898e-07
4.64335e-07
4.6183e-07
4.59383e-07
4.5699e-07
4.54639e-07
4.52322e-07
4.50032e-07
4.47763e-07
4.45509e-07
4.43267e-07
4.41034e-07
4.38805e-07
4.36577e-07
4.34348e-07
4.32117e-07
4.29882e-07
4.27642e-07
4.25398e-07
4.23149e-07
4.20895e-07
4.18636e-07
4.16373e-07
4.14108e-07
4.11849e-07
4.09597e-07
4.07357e-07
4.05122e-07
4.02892e-07
4.00658e-07
3.98437e-07
3.96234e-07
3.94094e-07
3.92023e-07
3.90073e-07
3.88221e-07
3.86523e-07
3.84905e-07
3.83442e-07
3.81998e-07
3.80707e-07
3.79343e-07
3.78183e-07
3.76826e-07
3.75832e-07
3.74427e-07
3.73672e-07
3.72073e-07
3.71898e-07
3.69479e-07
5.42491e-07
5.28367e-07
5.14595e-07
5.04011e-07
4.9658e-07
4.91178e-07
4.86714e-07
4.82619e-07
4.78725e-07
4.75041e-07
4.71601e-07
4.68412e-07
4.65438e-07
4.62629e-07
4.59941e-07
4.57338e-07
4.54801e-07
4.52314e-07
4.49869e-07
4.47456e-07
4.45067e-07
4.42695e-07
4.40332e-07
4.37975e-07
4.35619e-07
4.33263e-07
4.30903e-07
4.28537e-07
4.26166e-07
4.23789e-07
4.21406e-07
4.1902e-07
4.16631e-07
4.14242e-07
4.11856e-07
4.09478e-07
4.07111e-07
4.04755e-07
4.02416e-07
4.00095e-07
3.97804e-07
3.95554e-07
3.93363e-07
3.91252e-07
3.89239e-07
3.87335e-07
3.8555e-07
3.83866e-07
3.82285e-07
3.80757e-07
3.79312e-07
3.7785e-07
3.76504e-07
3.75025e-07
3.73839e-07
3.7214e-07
3.71377e-07
3.68628e-07
3.69555e-07
3.61917e-07
3.97342e-07
3.45268e-07
3.21852e-07
3.03534e-07
2.86097e-07
2.68727e-07
2.49576e-07
2.2893e-07
2.05536e-07
1.80103e-07
1.51608e-07
1.21701e-07
8.92698e-08
5.71609e-08
2.4044e-08
-6.54025e-09
-3.6372e-08
-6.16879e-08
-8.50718e-08
-1.02457e-07
-1.17632e-07
-1.26091e-07
-1.33027e-07
-1.3291e-07
-1.33176e-07
-1.24877e-07
-1.21226e-07
-1.0478e-07
-9.81171e-08
-1.3358e-07
3.81445e-07
3.26099e-07
3.09453e-07
2.9463e-07
2.78262e-07
2.61073e-07
2.42347e-07
2.21941e-07
1.98765e-07
1.73743e-07
1.45888e-07
1.16908e-07
8.55719e-08
5.47711e-08
2.29543e-08
-6.3499e-09
-3.50976e-08
-5.95064e-08
-8.24246e-08
-9.95649e-08
-1.15009e-07
-1.23817e-07
-1.31792e-07
-1.32303e-07
-1.34149e-07
-1.27371e-07
-1.24072e-07
-1.14098e-07
-9.31285e-08
-1.66678e-07
3.68078e-07
3.23963e-07
3.0865e-07
2.94308e-07
2.77478e-07
2.59508e-07
2.39891e-07
2.18974e-07
1.95653e-07
1.70595e-07
1.42839e-07
1.14063e-07
8.30555e-08
5.26691e-08
2.13208e-08
-7.47606e-09
-3.58705e-08
-5.98884e-08
-8.26164e-08
-9.94652e-08
-1.1506e-07
-1.23763e-07
-1.32042e-07
-1.32971e-07
-1.3465e-07
-1.29684e-07
-1.24938e-07
-1.22377e-07
-8.92822e-08
-1.4445e-07
3.57204e-07
3.19927e-07
3.02713e-07
2.88801e-07
2.72632e-07
2.55036e-07
2.3566e-07
2.14761e-07
1.91388e-07
1.66269e-07
1.38587e-07
1.09981e-07
7.93285e-08
4.93354e-08
1.85065e-08
-9.88561e-09
-3.77714e-08
-6.15232e-08
-8.39446e-08
-1.00927e-07
-1.16323e-07
-1.25644e-07
-1.33478e-07
-1.35726e-07
-1.36121e-07
-1.34104e-07
-1.25549e-07
-1.2937e-07
-9.27155e-08
-1.29917e-07
3.46819e-07
3.1683e-07
2.99418e-07
2.86497e-07
2.70777e-07
2.52672e-07
2.32678e-07
2.11232e-07
1.87567e-07
1.62156e-07
1.34438e-07
1.05731e-07
7.53321e-08
4.54011e-08
1.50525e-08
-1.32992e-08
-4.06653e-08
-6.46488e-08
-8.65483e-08
-1.04201e-07
-1.18944e-07
-1.29482e-07
-1.36324e-07
-1.40281e-07
-1.38752e-07
-1.38944e-07
-1.26959e-07
-1.30646e-07
-9.99067e-08
-1.12195e-07
3.37772e-07
3.14359e-07
2.96927e-07
2.83317e-07
2.67644e-07
2.49543e-07
2.29326e-07
2.07484e-07
1.83552e-07
1.57801e-07
1.30002e-07
1.01072e-07
7.086e-08
4.08027e-08
1.08733e-08
-1.76495e-08
-4.44815e-08
-6.88559e-08
-9.02165e-08
-1.08639e-07
-1.22798e-07
-1.34531e-07
-1.4052e-07
-1.45902e-07
-1.43009e-07
-1.43875e-07
-1.31214e-07
-1.31009e-07
-1.08914e-07
-1.0579e-07
3.30435e-07
3.12051e-07
2.95065e-07
2.80522e-07
2.64774e-07
2.46633e-07
2.26142e-07
2.03797e-07
1.7948e-07
1.53286e-07
1.25312e-07
9.60571e-08
6.59345e-08
3.56569e-08
6.04484e-09
-2.26882e-08
-4.91019e-08
-7.38362e-08
-9.48309e-08
-1.13879e-07
-1.2776e-07
-1.40363e-07
-1.46107e-07
-1.521e-07
-1.49207e-07
-1.49337e-07
-1.3816e-07
-1.33661e-07
-1.17329e-07
-1.06779e-07
3.24927e-07
3.09811e-07
2.93444e-07
2.78123e-07
2.62014e-07
2.43671e-07
2.22866e-07
1.99995e-07
1.75227e-07
1.48532e-07
1.20297e-07
9.06782e-08
6.05298e-08
3.00189e-08
5.69194e-10
-2.83166e-08
-5.45144e-08
-7.94643e-08
-1.00355e-07
-1.19784e-07
-1.33828e-07
-1.46813e-07
-1.53084e-07
-1.59067e-07
-1.57242e-07
-1.56154e-07
-1.47009e-07
-1.39326e-07
-1.25644e-07
-1.12468e-07
3.21088e-07
3.07615e-07
2.91899e-07
2.76053e-07
2.59367e-07
2.40635e-07
2.19452e-07
1.96038e-07
1.70761e-07
1.43524e-07
1.14931e-07
8.49294e-08
5.46302e-08
2.39099e-08
-5.54052e-09
-3.45017e-08
-6.06796e-08
-8.57081e-08
-1.06743e-07
-1.26358e-07
-1.40933e-07
-1.54051e-07
-1.61268e-07
-1.67133e-07
-1.6667e-07
-1.64834e-07
-1.57191e-07
-1.4812e-07
-1.35112e-07
-1.21457e-07
3.18527e-07
3.05558e-07
2.90333e-07
2.74144e-07
2.56789e-07
2.37498e-07
2.15844e-07
1.91861e-07
1.66028e-07
1.38215e-07
1.09171e-07
7.87753e-08
4.82136e-08
1.73035e-08
-1.22705e-08
-4.12663e-08
-6.75529e-08
-9.25913e-08
-1.13928e-07
-1.33641e-07
-1.48885e-07
-1.62213e-07
-1.70502e-07
-1.76522e-07
-1.77317e-07
-1.75443e-07
-1.68794e-07
-1.59487e-07
-1.46663e-07
-1.33009e-07
3.16787e-07
3.03745e-07
2.8871e-07
2.72212e-07
2.54182e-07
2.3421e-07
2.11989e-07
1.87397e-07
1.6096e-07
1.32546e-07
1.02967e-07
7.21556e-08
4.125e-08
1.01401e-08
-1.9622e-08
-4.86605e-08
-7.51153e-08
-1.00157e-07
-1.21848e-07
-1.41693e-07
-1.57619e-07
-1.71334e-07
-1.80677e-07
-1.87235e-07
-1.89194e-07
-1.87867e-07
-1.82101e-07
-1.73214e-07
-1.60669e-07
-1.47204e-07
3.15469e-07
3.02178e-07
2.8702e-07
2.70117e-07
2.5142e-07
2.30702e-07
2.0783e-07
1.82578e-07
1.55476e-07
1.26433e-07
9.62498e-08
6.49826e-08
3.36875e-08
2.33509e-09
-2.76374e-08
-5.67475e-08
-8.33923e-08
-1.08465e-07
-1.30486e-07
-1.5056e-07
-1.67126e-07
-1.81385e-07
-1.91766e-07
-1.99189e-07
-2.02359e-07
-2.02074e-07
-1.9731e-07
-1.8928e-07
-1.77349e-07
-1.64341e-07
3.14304e-07
3.0074e-07
2.85232e-07
2.67786e-07
2.48402e-07
2.26904e-07
2.03301e-07
1.77327e-07
1.49485e-07
1.19764e-07
8.89285e-08
5.71416e-08
2.54327e-08
-6.21306e-09
-3.64127e-08
-6.5613e-08
-9.24458e-08
-1.17595e-07
-1.39894e-07
-1.60264e-07
-1.77448e-07
-1.92361e-07
-2.03791e-07
-2.12352e-07
-2.16862e-07
-2.17983e-07
-2.14569e-07
-2.07717e-07
-1.96901e-07
-1.84616e-07
3.13167e-07
2.99273e-07
2.83281e-07
2.6519e-07
2.45073e-07
2.22753e-07
1.98325e-07
1.71548e-07
1.42879e-07
1.12405e-07
8.08747e-08
4.84952e-08
1.63409e-08
-1.56302e-08
-4.6083e-08
-7.53822e-08
-1.02372e-07
-1.2763e-07
-1.50166e-07
-1.70847e-07
-1.88632e-07
-2.04294e-07
-2.16785e-07
-2.26686e-07
-2.32738e-07
-2.35552e-07
-2.33932e-07
-2.28684e-07
-2.1946e-07
-2.0842e-07
3.12019e-07
2.97683e-07
2.81131e-07
2.62326e-07
2.41402e-07
2.18185e-07
1.92812e-07
1.65116e-07
1.35526e-07
1.04196e-07
7.19143e-08
3.88808e-08
6.2277e-09
-2.60794e-08
-5.68026e-08
-8.62063e-08
-1.13307e-07
-1.38663e-07
-1.61401e-07
-1.82371e-07
-2.00716e-07
-2.17182e-07
-2.3078e-07
-2.4213e-07
-2.49972e-07
-2.54771e-07
-2.55389e-07
-2.5231e-07
-2.45245e-07
-2.36101e-07
3.10922e-07
2.9598e-07
2.78787e-07
2.59201e-07
2.37352e-07
2.13111e-07
1.86642e-07
1.57875e-07
1.27249e-07
9.4952e-08
6.18337e-08
2.81033e-08
-5.1091e-09
-3.77554e-08
-6.87432e-08
-9.82394e-08
-1.25408e-07
-1.50794e-07
-1.7369e-07
-1.94889e-07
-2.13742e-07
-2.30979e-07
-2.45744e-07
-2.58601e-07
-2.68447e-07
-2.75556e-07
-2.78845e-07
-2.78594e-07
-2.74402e-07
-2.68095e-07
3.1e-07
2.9424e-07
2.76273e-07
2.55784e-07
2.32842e-07
2.07389e-07
1.79641e-07
1.49627e-07
1.17821e-07
8.44546e-08
5.03938e-08
1.59322e-08
-1.78864e-08
-5.0867e-08
-8.20993e-08
-1.11633e-07
-1.38832e-07
-1.64132e-07
-1.87118e-07
-2.08427e-07
-2.27725e-07
-2.45619e-07
-2.61563e-07
-2.75944e-07
-2.87942e-07
-2.97647e-07
-3.04057e-07
-3.07309e-07
-3.06868e-07
-3.04513e-07
3.0936e-07
2.92537e-07
2.73565e-07
2.51951e-07
2.27687e-07
2.00797e-07
1.7156e-07
1.40117e-07
1.06966e-07
7.2432e-08
3.73241e-08
2.10165e-09
-3.23524e-08
-6.56375e-08
-9.709e-08
-1.26559e-07
-1.53735e-07
-1.78796e-07
-2.01772e-07
-2.23006e-07
-2.42646e-07
-2.61015e-07
-2.78074e-07
-2.93913e-07
-3.08152e-07
-3.2062e-07
-3.30591e-07
-3.37935e-07
-3.42239e-07
-3.4492e-07
3.08976e-07
2.9083e-07
2.70507e-07
2.47442e-07
2.21576e-07
1.9301e-07
1.62061e-07
1.2901e-07
9.43403e-08
5.85388e-08
2.22933e-08
-1.37097e-08
-4.88103e-08
-8.23423e-08
-1.13972e-07
-1.43247e-07
-1.70307e-07
-1.94957e-07
-2.17769e-07
-2.38701e-07
-2.58486e-07
-2.77079e-07
-2.95068e-07
-3.12189e-07
-3.28654e-07
-3.43914e-07
-3.5779e-07
-3.69683e-07
-3.79656e-07
-3.88415e-07
3.08493e-07
2.8878e-07
2.66731e-07
2.41854e-07
2.14078e-07
1.83585e-07
1.50694e-07
1.15848e-07
7.94925e-08
4.23148e-08
4.86468e-09
-3.19347e-08
-6.76562e-08
-1.01374e-07
-1.33079e-07
-1.62047e-07
-1.88816e-07
-2.12893e-07
-2.35297e-07
-2.55678e-07
-2.75285e-07
-2.93762e-07
-3.1232e-07
-3.30378e-07
-3.48854e-07
-3.6676e-07
-3.84692e-07
-4.01428e-07
-4.1779e-07
-4.33613e-07
3.07415e-07
2.85858e-07
2.61735e-07
2.34687e-07
2.04663e-07
1.71945e-07
1.36859e-07
9.99995e-08
6.18006e-08
2.31196e-08
-1.55655e-08
-5.31853e-08
-8.94351e-08
-1.23286e-07
-1.54881e-07
-1.83438e-07
-2.09662e-07
-2.33005e-07
-2.54671e-07
-2.74221e-07
-2.932e-07