/*--------------------------------*- C++ -*----------------------------------*\
| =========                 |                                                 |
| \\      /  F ield         | OpenFOAM: The Open Source CFD Toolbox           |
|  \\    /   O peration     | Version:  2312                                  |
|   \\  /    A nd           | Website:  www.openfoam.com                      |
|    \\/     M anipulation  |                                                 |
\*---------------------------------------------------------------------------*/
FoamFile
{
    version     2.0;
    format      ascii;
    arch        "LSB;label=32;scalar=64";
    class       surfaceScalarField;
    location    "15000";
    object      phi;
}
// * * * * * * * * * * * * * * * * * * * * * * * * * * * * * * * * * * * * * //

dimensions      [0 3 -1 0 0 0 0];

oriented        oriented;

internalField   nonuniform List<scalar> 
21240
(
0.000664975
1.69148e-06
0.000661075
3.90005e-06
0.000655758
5.31683e-06
0.000649528
6.23053e-06
0.000642661
6.86718e-06
0.000635299
7.36143e-06
0.000627535
7.76373e-06
0.000619448
8.0871e-06
0.000611111
8.33747e-06
0.000602587
8.52377e-06
0.000593929
8.65828e-06
0.000585176
8.75317e-06
0.000576358
8.818e-06
0.000567499
8.85908e-06
0.000558618
8.88013e-06
0.000549735
8.88332e-06
0.000540865
8.87048e-06
0.000532021
8.8433e-06
0.000523218
8.80288e-06
0.000514469
8.74975e-06
0.000505784
8.68467e-06
0.000497176
8.60851e-06
0.000488654
8.52157e-06
0.000480231
8.42329e-06
0.000471917
8.31353e-06
0.000463724
8.19273e-06
0.000455663
8.06152e-06
0.000447744
7.91901e-06
0.00043998
7.76405e-06
0.000432384
7.59603e-06
0.000424967
7.41673e-06
0.000417741
7.2264e-06
0.000410716
7.02418e-06
0.000403911
6.80589e-06
0.000397339
6.57148e-06
0.000391017
6.32183e-06
0.000384953
6.06445e-06
0.000379153
5.79945e-06
0.000373624
5.52923e-06
0.000368384
5.24054e-06
0.000363454
4.93004e-06
0.000358876
4.57762e-06
0.000354685
4.19143e-06
0.00035093
3.75486e-06
0.000347628
3.30128e-06
0.000344816
2.81233e-06
0.000342467
2.34955e-06
0.000340599
1.86743e-06
0.000339138
1.46066e-06
0.000338121
1.01752e-06
0.000337422
6.98864e-07
0.000337155
2.66964e-07
0.000337104
5.09946e-08
0.00033754
-4.36366e-07
0.000338014
-4.73512e-07
0.000339197
-1.18261e-06
0.000339963
-7.66504e-07
0.000342077
-2.11366e-06
0.00034262
-5.42965e-07
-3.68198e-06
0.000346302
0.000667556
8.0173e-07
0.000669123
2.33391e-06
0.000670859
3.58043e-06
0.000672534
4.55511e-06
0.000674069
5.3323e-06
0.00067545
5.98071e-06
0.000676672
6.54189e-06
0.000677725
7.0342e-06
0.000678598
7.46461e-06
0.000679284
7.83747e-06
0.000679784
8.15826e-06
0.000680103
8.43384e-06
0.00068025
8.67114e-06
0.000680233
8.8759e-06
0.000680061
9.05224e-06
0.000679742
9.20285e-06
0.000679282
9.32979e-06
0.000678691
9.43461e-06
0.000677975
9.51853e-06
0.000677143
9.58218e-06
0.000676201
9.62634e-06
0.000675158
9.65154e-06
0.000674021
9.6585e-06
0.000672798
9.64702e-06
0.000671494
9.6171e-06
0.000670119
9.56788e-06
0.000668681
9.49985e-06
0.000667187
9.41263e-06
0.000665644
9.30697e-06
0.000664059
9.18073e-06
0.000662442
9.03416e-06
0.000660804
8.86458e-06
0.000659153
8.67455e-06
0.000657498
8.46132e-06
0.000655841
8.22863e-06
0.000654192
7.97027e-06
0.000652565
7.69126e-06
0.000650984
7.38134e-06
0.000649462
7.05084e-06
0.000648017
6.68579e-06
0.000646642
6.30484e-06
0.000645336
5.88393e-06
0.000644075
5.4518e-06
0.000642862
4.96824e-06
0.000641678
4.48473e-06
0.000640548
3.9432e-06
0.00063946
3.43709e-06
0.000638456
2.87181e-06
0.000637519
2.39684e-06
0.000636696
1.84121e-06
0.00063596
1.43447e-06
0.000635346
8.8064e-07
0.000634848
5.49544e-07
0.000634449
-3.7204e-08
0.000634277
-3.0137e-07
0.000634059
-9.65163e-07
0.000634334
-1.04174e-06
0.000633948
-1.7273e-06
0.000635043
-1.63763e-06
-2.17863e-06
0.000633539
0.000666951
5.16972e-07
0.00066782
1.46487e-06
0.000669063
2.33813e-06
0.000670491
3.12681e-06
0.000671997
3.82668e-06
0.000673532
4.44532e-06
0.000675079
4.99486e-06
0.000676627
5.48637e-06
0.000678164
5.92756e-06
0.000679678
6.32327e-06
0.00068116
6.67687e-06
0.000682602
6.99157e-06
0.000684002
7.27079e-06
0.00068536
7.51792e-06
0.000686676
7.736e-06
0.000687952
7.92747e-06
0.000689187
8.09438e-06
0.000690383
8.23832e-06
0.000691542
8.36049e-06
0.000692662
8.46157e-06
0.000693746
8.54217e-06
0.000694795
8.60283e-06
0.000695809
8.64426e-06
0.00069679
8.66653e-06
0.000697737
8.66961e-06
0.000698652
8.65287e-06
0.000699536
8.61637e-06
0.000700388
8.55996e-06
0.000701211
8.48414e-06
0.000702004
8.38792e-06
0.000702767
8.27089e-06
0.000703501
8.13112e-06
0.000704206
7.9692e-06
0.000704883
7.78407e-06
0.000705534
7.57761e-06
0.000706157
7.34786e-06
0.000706752
7.09628e-06
0.000707315
6.81835e-06
0.00070785
6.51608e-06
0.000708351
6.18451e-06
0.000708826
5.8298e-06
0.000709263
5.44679e-06
0.00070967
5.04474e-06
0.000710024
4.61383e-06
0.000710344
4.16561e-06
0.0007106
3.68634e-06
0.00071084
3.19756e-06
0.000711028
2.68393e-06
0.000711241
2.18346e-06
0.00071141
1.67203e-06
0.000711642
1.20275e-06
0.000711798
7.2524e-07
0.000712036
3.10719e-07
0.00071212
-1.21291e-07
0.000712276
-4.56761e-07
0.000712163
-8.5184e-07
0.000712263
-1.14214e-06
0.000712036
-1.50068e-06
0.000712143
-1.74414e-06
-2.00755e-06
0.000711972
0.000666854
3.2955e-07
0.00066731
1.00929e-06
0.000667974
1.6734e-06
0.0006688
2.30114e-06
0.000669743
2.88325e-06
0.000670772
3.41676e-06
0.000671864
3.90316e-06
0.000673004
4.34605e-06
0.000674182
4.74926e-06
0.00067539
5.11594e-06
0.000676618
5.44846e-06
0.000677861
5.74882e-06
0.000679113
6.01889e-06
0.00068037
6.26059e-06
0.00068163
6.47572e-06
0.000682892
6.66598e-06
0.000684153
6.83288e-06
0.000685414
6.97777e-06
0.000686673
7.10159e-06
0.000687929
7.20505e-06
0.000689183
7.2886e-06
0.000690433
7.35282e-06
0.000691679
7.39815e-06
0.000692921
7.42498e-06
0.000694157
7.43313e-06
0.000695387
7.42247e-06
0.000696611
7.39262e-06
0.000697827
7.34407e-06
0.000699035
7.27661e-06
0.000700232
7.19055e-06
0.000701418
7.08441e-06
0.000702592
6.95803e-06
0.000703751
6.80986e-06
0.000704893
6.64163e-06
0.000706019
6.45217e-06
0.000707123
6.24393e-06
0.000708206
6.01301e-06
0.000709263
5.76153e-06
0.000710296
5.48324e-06
0.000711296
5.18436e-06
0.000712267
4.85894e-06
0.000713194
4.51979e-06
0.000714081
4.15717e-06
0.000714907
3.78774e-06
0.000715682
3.39118e-06
0.000716377
2.99116e-06
0.000717018
2.55698e-06
0.000717571
2.13047e-06
0.000718084
1.67061e-06
0.000718511
1.24526e-06
0.000718921
7.92502e-07
0.000719239
4.07002e-07
0.000719552
-2.42922e-09
0.000719796
-3.64982e-07
0.000720122
-7.82765e-07
0.000720348
-1.07823e-06
0.000720715
-1.50834e-06
0.000720989
-1.77546e-06
0.000721513
-2.2679e-06
-2.49812e-06
0.000722004
0.000666738
2.57805e-07
0.00066697
7.77693e-07
0.000667357
1.28638e-06
0.000667881
1.77689e-06
0.000668521
2.24326e-06
0.000669256
2.68183e-06
0.000670068
3.09109e-06
0.000670943
3.47105e-06
0.00067187
3.82254e-06
0.000672839
4.1466e-06
0.000673844
4.44422e-06
0.000674876
4.7163e-06
0.000675931
4.96371e-06
0.000677005
5.18735e-06
0.000678092
5.38811e-06
0.000679191
5.56688e-06
0.0006803
5.72456e-06
0.000681415
5.86203e-06
0.000682537
5.97989e-06
0.000683663
6.0787e-06
0.000684793
6.15874e-06
0.000685925
6.22052e-06
0.000687059
6.26433e-06
0.000688194
6.29058e-06
0.000689328
6.299e-06
0.000690461
6.28975e-06
0.000691591
6.26241e-06
0.000692717
6.21766e-06
0.000693839
6.15508e-06
0.000694954
6.0753e-06
0.000696062
5.97678e-06
0.000697159
5.86015e-06
0.000698246
5.72355e-06
0.000699318
5.56937e-06
0.000700374
5.3957e-06
0.000701413
5.20591e-06
0.00070243
4.99536e-06
0.000703424
4.7679e-06
0.000704391
4.51633e-06
0.000705326
4.24897e-06
0.000706228
3.95743e-06
0.000707091
3.65658e-06
0.000707916
3.33247e-06
0.000708699
3.00472e-06
0.000709442
2.64749e-06
0.000710145
2.28879e-06
0.000710812
1.88983e-06
0.000711443
1.49894e-06
0.000712051
1.06265e-06
0.000712636
6.6011e-07
0.000713221
2.07771e-07
0.00071379
-1.61732e-07
0.000714366
-5.78407e-07
0.000714904
-9.02692e-07
0.000715457
-1.33649e-06
0.000716015
-1.63636e-06
0.000716633
-2.1261e-06
0.000717285
-2.42732e-06
0.000718066
-3.04924e-06
-3.36248e-06
0.000718931
0.000666724
2.00294e-07
0.000666899
6.0242e-07
0.000667184
1.00147e-06
0.00066757
1.39089e-06
0.000668047
1.76694e-06
0.000668602
2.12663e-06
0.000669225
2.46784e-06
0.000669907
2.78931e-06
0.000670639
3.09042e-06
0.000671415
3.37095e-06
0.000672228
3.63093e-06
0.000673074
3.87054e-06
0.000673947
4.0901e-06
0.000674845
4.28998e-06
0.000675762
4.47053e-06
0.000676697
4.63219e-06
0.000677646
4.77538e-06
0.000678607
4.90063e-06
0.000679579
5.00826e-06
0.000680559
5.0986e-06
0.000681546
5.17183e-06
0.000682538
5.22833e-06
0.000683534
5.26826e-06
0.000684533
5.29193e-06
0.000685533
5.29911e-06
0.000686533
5.28995e-06
0.000687531
5.26415e-06
0.000688526
5.22232e-06
0.000689517
5.16406e-06
0.000690503
5.08988e-06
0.000691481
4.99856e-06
0.00069245
4.89068e-06
0.000693409
4.76487e-06
0.000694355
4.62307e-06
0.000695287
4.46373e-06
0.000696204
4.2894e-06
0.000697103
4.09624e-06
0.000697984
3.88717e-06
0.000698843
3.65665e-06
0.000699681
3.41124e-06
0.000700494
3.14476e-06
0.000701282
2.86861e-06
0.000702042
2.57207e-06
0.000702777
2.27e-06
0.000703482
1.94266e-06
0.000704159
1.61158e-06
0.000704801
1.24818e-06
0.00070541
8.89572e-07
0.000705975
4.9728e-07
0.000706502
1.33096e-07
0.000706997
-2.87074e-07
0.000707493
-6.57876e-07
0.000707997
-1.08238e-06
0.000708526
-1.4313e-06
0.000709073
-1.88314e-06
0.000709673
-2.23717e-06
0.000710318
-2.77111e-06
0.000711049
-3.15777e-06
0.00071183
-3.83051e-06
-4.25825e-06
0.000712726
0.000666708
1.58649e-07
0.000666833
4.7744e-07
0.00066704
7.95024e-07
0.000667324
1.10681e-06
0.000667681
1.41024e-06
0.000668104
1.70311e-06
0.000668588
1.98368e-06
0.000669127
2.25066e-06
0.000669714
2.50329e-06
0.000670344
2.74114e-06
0.000671012
2.9627e-06
0.000671714
3.16812e-06
0.000672447
3.35749e-06
0.000673206
3.53084e-06
0.000673989
3.68821e-06
0.000674791
3.82972e-06
0.000675611
3.95553e-06
0.000676446
4.06588e-06
0.000677293
4.16088e-06
0.000678151
4.24068e-06
0.000679017
4.30535e-06
0.000679891
4.35512e-06
0.000680769
4.39007e-06
0.00068165
4.41036e-06
0.000682534
4.4158e-06
0.000683417
4.40644e-06
0.000684299
4.38213e-06
0.000685178
4.34327e-06
0.000686053
4.2896e-06
0.000686921
4.22135e-06
0.000687782
4.13766e-06
0.000688634
4.03888e-06
0.000689475
3.92421e-06
0.000690303
3.79494e-06
0.000691116
3.65013e-06
0.000691914
3.49124e-06
0.000692695
3.31573e-06
0.000693457
3.12528e-06
0.000694197
2.91658e-06
0.000694914
2.694e-06
0.000695605
2.4541e-06
0.00069627
2.20396e-06
0.000696905
1.93658e-06
0.000697515
1.65998e-06
0.000698097
1.36051e-06
0.000698659
1.04996e-06
0.000699198
7.09062e-07
0.000699727
3.60179e-07
0.000700249
-2.43291e-08
0.000700761
-3.79394e-07
0.000701247
-7.72552e-07
0.000701731
-1.14225e-06
0.000702206
-1.55739e-06
0.00070271
-1.935e-06
0.000703221
-2.39415e-06
0.000703787
-2.80327e-06
0.000704371
-3.35454e-06
0.000705038
-3.82573e-06
0.000705728
-4.51974e-06
-5.06695e-06
0.000706536
0.000666699
1.26763e-07
0.000666795
3.81075e-07
0.000666955
6.34755e-07
0.000667177
8.84591e-07
0.000667459
1.12881e-06
0.000667796
1.36584e-06
0.000668185
1.59433e-06
0.000668623
1.81316e-06
0.000669105
2.0214e-06
0.000669628
2.21829e-06
0.000670187
2.40315e-06
0.00067078
2.57555e-06
0.000671402
2.73525e-06
0.000672051
2.88209e-06
0.000672723
3.01595e-06
0.000673416
3.13675e-06
0.000674127
3.24447e-06
0.000674854
3.33914e-06
0.000675594
3.42075e-06
0.000676345
3.48929e-06
0.000677106
3.54474e-06
0.000677874
3.58721e-06
0.000678647
3.61673e-06
0.000679424
3.63333e-06
0.000680203
3.63684e-06
0.000680982
3.62724e-06
0.00068176
3.60445e-06
0.000682535
3.56868e-06
0.000683304
3.5198e-06
0.000684068
3.45779e-06
0.000684824
3.38211e-06
0.00068557
3.29282e-06
0.000686304
3.18962e-06
0.000687026
3.07315e-06
0.000687733
2.94302e-06
0.000688425
2.79969e-06
0.000689099
2.64168e-06
0.000689755
2.46935e-06
0.00069039
2.28108e-06
0.000691005
2.07885e-06
0.000691598
1.86146e-06
0.00069217
1.63202e-06
0.000692719
1.38741e-06
0.000693248
1.13054e-06
0.000693754
8.55388e-07
0.000694237
5.66849e-07
0.000694688
2.58093e-07
0.000695109
-6.14435e-08
0.0006955
-4.14587e-07
0.000695888
-7.67438e-07
0.000696255
-1.1404e-06
0.000696624
-1.5105e-06
0.000696978
-1.91147e-06
0.000697352
-2.30905e-06
0.000697721
-2.76296e-06
0.000698132
-3.21512e-06
0.000698539
-3.76121e-06
0.000699011
-4.29769e-06
0.000699467
-4.97611e-06
-5.61517e-06
0.000700016
0.000666693
1.00796e-07
0.000666771
3.02853e-07
0.000666901
5.04533e-07
0.000667082
7.03491e-07
0.000667313
8.98474e-07
0.00066759
1.08833e-06
0.000667912
1.27203e-06
0.000668277
1.44866e-06
0.000668681
1.61743e-06
0.000669121
1.77765e-06
0.000669596
1.92879e-06
0.000670101
2.07037e-06
0.000670634
2.20206e-06
0.000671193
2.32357e-06
0.000671774
2.43466e-06
0.000672376
2.53517e-06
0.000672995
2.62498e-06
0.00067363
2.70401e-06
0.000674279
2.77214e-06
0.000674939
2.8293e-06
0.000675608
2.87541e-06
0.000676285
2.91048e-06
0.000676967
2.93449e-06
0.000677653
2.94739e-06
0.000678341
2.94904e-06
0.000679029
2.93933e-06
0.000679715
2.91826e-06
0.000680398
2.88588e-06
0.000681075
2.84214e-06
0.000681746
2.78683e-06
0.000682409
2.71966e-06
0.000683061
2.64047e-06
0.000683701
2.54925e-06
0.000684328
2.44615e-06
0.00068494
2.33117e-06
0.000685536
2.20401e-06
0.000686114
2.06406e-06
0.000686672
1.9107e-06
0.00068721
1.74377e-06
0.000687725
1.56354e-06
0.000688216
1.37077e-06
0.000688682
1.16565e-06
0.000689121
9.48124e-07
0.000689535
7.16817e-07
0.00068992
4.7048e-07
0.000690282
2.04618e-07
0.00069062
-7.99174e-08
0.000690939
-3.80609e-07
0.000691223
-6.98309e-07
0.000691488
-1.03275e-06
0.000691727
-1.37933e-06
0.000691957
-1.74034e-06
0.000692164
-2.1184e-06
0.000692375
-2.52016e-06
0.000692565
-2.95315e-06
0.000692774
-3.42396e-06
0.000692959
-3.94564e-06
0.000693178
-4.51714e-06
0.000693361
-5.15885e-06
-5.8538e-06
0.000693599
0.000666688
7.89794e-08
0.000666754
2.37221e-07
0.000666863
3.95219e-07
0.000667016
5.51236e-07
0.00066721
7.04365e-07
0.000667444
8.53765e-07
0.000667718
9.9866e-07
0.000668028
1.13835e-06
0.000668373
1.27221e-06
0.000668751
1.39968e-06
0.00066916
1.52028e-06
0.000669597
1.6336e-06
0.000670059
1.73929e-06
0.000670546
1.83705e-06
0.000671054
1.92662e-06
0.000671581
2.00779e-06
0.000672126
2.0804e-06
0.000672686
2.14431e-06
0.000673258
2.19939e-06
0.000673842
2.2455e-06
0.000674435
2.28254e-06
0.000675035
2.31046e-06
0.00067564
2.32923e-06
0.000676249
2.33873e-06
0.000676859
2.33883e-06
0.000677469
2.3294e-06
0.000678077
2.31046e-06
0.000678681
2.28195e-06
0.000679279
2.24386e-06
0.00067987
2.19589e-06
0.000680452
2.13791e-06
0.000681023
2.06958e-06
0.000681581
1.99112e-06
0.000682125
1.90231e-06
0.000682652
1.80348e-06
0.000683162
1.69381e-06
0.000683653
1.57335e-06
0.000684123
1.44082e-06
0.00068457
1.29702e-06
0.000684992
1.1409e-06
0.000685389
9.74386e-07
0.000685759
7.95454e-07
0.000686101
6.06073e-07
0.000686416
4.01811e-07
0.000686701
1.85568e-07
0.000686955
-4.92383e-08
0.000687176
-3.01509e-07
0.00068737
-5.73698e-07
0.000687526
-8.55256e-07
0.000687653
-1.15891e-06
0.000687741
-1.46817e-06
0.000687806
-1.80499e-06
0.000687835
-2.14742e-06
0.000687848
-2.53257e-06
0.000687822
-2.92804e-06
0.000687788
-3.38967e-06
0.000687708
-3.86506e-06
0.000687625
-4.43429e-06
0.000687478
-5.012e-06
-5.71428e-06
0.000687338
0.000666686
6.01353e-08
0.000666742
1.80578e-07
0.000666837
3.00856e-07
0.000666968
4.19697e-07
0.000667136
5.36445e-07
0.000667339
6.50494e-07
0.000667577
7.61273e-07
0.000667847
8.6826e-07
0.000668148
9.70977e-07
0.000668479
1.06899e-06
0.000668837
1.1619e-06
0.000669221
1.24937e-06
0.000669629
1.33111e-06
0.00067006
1.40683e-06
0.00067051
1.4763e-06
0.000670978
1.53931e-06
0.000671463
1.59571e-06
0.000671962
1.64534e-06
0.000672473
1.68807e-06
0.000672995
1.72373e-06
0.000673525
1.75226e-06
0.000674062
1.77354e-06
0.000674604
1.78755e-06
0.000675149
1.79413e-06
0.000675694
1.7932e-06
0.000676239
1.78459e-06
0.000676781
1.76834e-06
0.000677319
1.74432e-06
0.00067785
1.71258e-06
0.000678373
1.67276e-06
0.000678886
1.62483e-06
0.000679388
1.5684e-06
0.000679875
1.50379e-06
0.000680347
1.43058e-06
0.000680801
1.34923e-06
0.000681236
1.2587e-06
0.00068165
1.15939e-06
0.000682041
1.04973e-06
0.000682407
9.30982e-07
0.000682747
8.01427e-07
0.000683057
6.63545e-07
0.000683339
5.14289e-07
0.000683588
3.56801e-07
0.000683804
1.85381e-07
0.000683984
5.93606e-09
0.000684132
-1.97121e-07
0.000684238
-4.08168e-07
0.000684305
-6.40613e-07
0.000684329
-8.78529e-07
0.000684311
-1.14106e-06
0.000684247
-1.4042e-06
0.000684142
-1.70068e-06
0.00068399
-1.99513e-06
0.000683799
-2.34093e-06
0.000683553
-2.68285e-06
0.000683267
-3.1036e-06
0.000682916
-3.51342e-06
0.00068252
-4.03841e-06
0.00068204
-4.53192e-06
-5.1877e-06
0.000681513
0.000666683
4.34178e-08
0.000666734
1.30356e-07
0.000666817
2.17184e-07
0.000666934
3.03005e-07
0.000667083
3.87364e-07
0.000667264
4.69837e-07
0.000667475
5.50023e-07
0.000667716
6.27549e-07
0.000667985
7.02072e-07
0.00066828
7.73268e-07
0.000668601
8.40848e-07
0.000668946
9.04548e-07
0.000669313
9.64138e-07
0.000669701
1.0194e-06
0.000670107
1.07014e-06
0.00067053
1.11618e-06
0.000670968
1.15739e-06
0.00067142
1.19364e-06
0.000671883
1.2248e-06
0.000672356
1.25075e-06
0.000672837
1.27139e-06
0.000673324
1.28664e-06
0.000673815
1.29646e-06
0.000674308
1.30071e-06
0.000674802
1.29933e-06
0.000675295
1.29217e-06
0.000675784
1.27925e-06
0.000676268
1.26045e-06
0.000676744
1.23581e-06
0.000677212
1.205e-06
0.000677669
1.16805e-06
0.000678113
1.12458e-06
0.000678542
1.07491e-06
0.000678954
1.01858e-06
0.000679347
9.56038e-07
0.000679719
8.86275e-07
0.000680069
8.09833e-07
0.000680393
7.25183e-07
0.000680691
6.33691e-07
0.000680959
5.33489e-07
0.000681195
4.27071e-07
0.000681398
3.11189e-07
0.000681566
1.89215e-07
0.000681696
5.55464e-08
0.000681788
-8.65074e-08
0.000681836
-2.45414e-07
0.000681838
-4.10342e-07
0.000681792
-5.94243e-07
0.000681694
-7.80787e-07
0.000681544
-9.90501e-07
0.000681338
-1.1982e-06
0.000681075
-1.4382e-06
0.000680752
-1.67214e-06
0.000680367
-1.95586e-06
0.000679913
-2.22835e-06
0.000679386
-2.5773e-06
0.000678776
-2.90307e-06
0.00067808
-3.34224e-06
0.000677279
-3.73134e-06
-4.28508e-06
0.000676377
0.000666682
2.81728e-08
0.000666728
8.45751e-08
0.000666804
1.40909e-07
0.00066691
1.96602e-07
0.000667046
2.51364e-07
0.000667211
3.04927e-07
0.000667404
3.57034e-07
0.000667624
4.07446e-07
0.000667871
4.5594e-07
0.000668141
5.02305e-07
0.000668436
5.46347e-07
0.000668753
5.87893e-07
0.00066909
6.26783e-07
0.000669447
6.62867e-07
0.000669821
6.96011e-07
0.000670211
7.26093e-07
0.000670615
7.53015e-07
0.000671032
7.76678e-07
0.00067146
7.96995e-07
0.000671897
8.13866e-07
0.000672341
8.27236e-07
0.000672791
8.37031e-07
0.000673244
8.43219e-07
0.000673699
8.45696e-07
0.000674154
8.44417e-07
0.000674607
8.39266e-07
0.000675056
8.30274e-07
0.000675499
8.17324e-07
0.000675934
8.00454e-07
0.00067636
7.79411e-07
0.000676773
7.54248e-07
0.000677173
7.24662e-07
0.000677557
6.90907e-07
0.000677923
6.52592e-07
0.000678269
6.10086e-07
0.000678593
5.62593e-07
0.000678892
5.10602e-07
0.000679165
4.52914e-07
0.000679408
3.90648e-07
0.000679619
3.22242e-07
0.000679796
2.49682e-07
0.000679937
1.70314e-07
0.000680039
8.69886e-08
0.000680099
-4.43676e-09
0.000680116
-1.03017e-07
0.000680083
-2.12545e-07
0.000679998
-3.25801e-07
0.000679857
-4.53351e-07
0.000679659
-5.81979e-07
0.000679397
-7.28427e-07
0.000679071
-8.72253e-07
0.000678674
-1.0414e-06
0.000678206
-1.2042e-06
0.000677656
-1.40599e-06
0.000677024
-1.59596e-06
0.000676292
-1.84589e-06
0.000675462
-2.07248e-06
0.000674508
-2.38879e-06
0.000673435
-2.65789e-06
-3.05941e-06
0.000672209
0.000666681
1.38579e-08
0.000666724
4.15989e-08
0.000666796
6.93065e-08
0.000666895
9.67013e-08
0.000667023
1.23643e-07
0.000667178
1.50001e-07
0.000667359
1.7565e-07
0.000667566
2.00473e-07
0.000667798
2.2436e-07
0.000668053
2.47207e-07
0.000668331
2.68919e-07
0.000668629
2.89407e-07
0.000668947
3.08591e-07
0.000669284
3.26395e-07
0.000669637
3.42751e-07
0.000670005
3.57595e-07
0.000670388
3.70878e-07
0.000670782
3.82545e-07
0.000671186
3.92553e-07
0.000671599
4.00849e-07
0.000672019
4.07405e-07
0.000672444
4.12178e-07
0.000672872
4.15149e-07
0.000673301
4.16261e-07
0.00067373
4.15496e-07
0.000674157
4.12792e-07
0.000674579
4.08163e-07
0.000674995
4.01542e-07
0.000675402
3.9295e-07
0.000675799
3.82253e-07
0.000676184
3.69492e-07
0.000676554
3.54499e-07
0.000676908
3.37412e-07
0.000677242
3.18e-07
0.000677556
2.96469e-07
0.000677846
2.72387e-07
0.000678111
2.46048e-07
0.000678347
2.16807e-07
0.000678552
1.85279e-07
0.000678724
1.50587e-07
0.00067886
1.13798e-07
0.000678957
7.34404e-08
0.000679013
3.10923e-08
0.000679024
-1.60135e-08
0.000678987
-6.59889e-08
0.000678896
-1.21972e-07
0.00067875
-1.79664e-07
0.000678542
-2.44951e-07
0.000678271
-3.10592e-07
0.000677928
-3.85991e-07
0.000677516
-4.5976e-07
0.000677022
-5.4745e-07
0.000676449
-6.3126e-07
0.000675779
-7.36414e-07
0.000675017
-8.34219e-07
0.000674136
-9.64796e-07
0.000673145
-1.08108e-06
0.000672003
-1.24669e-06
0.000670729
-1.3841e-06
-1.59503e-06
0.000669265
0.000666681
-5.92137e-12
0.000666722
-1.84536e-11
0.000666791
-3.15303e-11
0.000666888
-4.51909e-11
0.000667012
-5.9433e-11
0.000667162
-7.40488e-11
0.000667338
-8.89116e-11
0.000667538
-1.04202e-10
0.000667763
-1.19953e-10
0.00066801
-1.35693e-10
0.000668279
-1.51042e-10
0.000668569
-1.66426e-10
0.000668878
-1.82518e-10
0.000669204
-1.99071e-10
0.000669547
-2.15201e-10
0.000669905
-2.31014e-10
0.000670276
-2.48007e-10
0.000670659
-2.67134e-10
0.000671052
-2.87076e-10
0.000671453
-3.05738e-10
0.000671861
-3.23409e-10
0.000672273
-3.43154e-10
0.000672689
-3.67117e-10
0.000673105
-3.93101e-10
0.000673521
-4.16419e-10
0.000673934
-4.35703e-10
0.000674343
-4.55813e-10
0.000674745
-4.83413e-10
0.000675139
-5.19226e-10
0.000675521
-5.55435e-10
0.000675891
-5.82775e-10
0.000676247
-6.00635e-10
0.000676585
-6.20501e-10
0.000676903
-6.56883e-10
0.0006772
-7.13804e-10
0.000677474
-7.77916e-10
0.00067772
-8.26946e-10
0.000677938
-8.4786e-10
0.000678124
-8.5011e-10
0.000678276
-8.64863e-10
0.00067839
-9.24125e-10
0.000678465
-1.04157e-09
0.000678497
-1.19229e-09
0.000678482
-1.3316e-09
0.000678418
-1.40842e-09
0.000678297
-1.39645e-09
0.000678119
-1.32699e-09
0.000677875
-1.26858e-09
0.000677566
-1.30302e-09
0.000677182
-1.49913e-09
0.000676724
-1.88702e-09
0.000676179
-2.44087e-09
0.00067555
-3.08859e-09
0.000674818
-3.73007e-09
0.000673988
-4.26773e-09
0.000673028
-4.62352e-09
0.000671951
-4.75953e-09
0.000670709
-4.67364e-09
0.00066933
-4.40177e-09
-3.99608e-09
0.000667739
0.000666681
-1.38697e-08
0.000666722
-4.16356e-08
0.000666791
-6.93693e-08
0.000666888
-9.67913e-08
0.000667012
-1.23762e-07
0.000667162
-1.50148e-07
0.000667338
-1.75827e-07
0.000667538
-2.0068e-07
0.000667763
-2.24599e-07
0.00066801
-2.47477e-07
0.000668279
-2.6922e-07
0.000668569
-2.89738e-07
0.000668878
-3.08955e-07
0.000669204
-3.26792e-07
0.000669547
-3.4318e-07
0.000669905
-3.58055e-07
0.000670276
-3.71372e-07
0.000670659
-3.83077e-07
0.000671052
-3.93125e-07
0.000671453
-4.01458e-07
0.000671861
-4.08049e-07
0.000672273
-4.12861e-07
0.000672689
-4.1588e-07
0.000673105
-4.17044e-07
0.000673521
-4.16326e-07
0.000673934
-4.1366e-07
0.000674343
-4.09071e-07
0.000674745
-4.02504e-07
0.000675138
-3.93983e-07
0.000675521
-3.83359e-07
0.000675891
-3.70652e-07
0.000676246
-3.55695e-07
0.000676584
-3.38647e-07
0.000676903
-3.19308e-07
0.0006772
-2.97889e-07
0.000677473
-2.73935e-07
0.00067772
-2.47694e-07
0.000677938
-2.18494e-07
0.000678124
-1.86972e-07
0.000678276
-1.52309e-07
0.00067839
-1.15636e-07
0.000678465
-7.55045e-08
0.000678497
-3.34407e-08
0.000678482
1.33357e-08
0.000678418
6.3192e-08
0.000678297
1.19201e-07
0.000678119
1.77025e-07
0.000677875
2.42427e-07
0.000677566
3.08004e-07
0.000677181
3.83015e-07
0.000676723
4.56015e-07
0.000676178
5.42608e-07
0.00067555
6.25132e-07
0.000674817
7.29009e-07
0.000673987
8.25742e-07
0.000673027
9.55607e-07
0.000671951
1.07162e-06
0.000670709
1.23739e-06
0.000669329
1.37534e-06
1.58707e-06
0.000667738
0.000666681
-2.81844e-08
0.000666724
-8.46113e-08
0.000666796
-1.40971e-07
0.000666895
-1.9669e-07
0.000667023
-2.51481e-07
0.000667178
-3.05072e-07
0.000667359
-3.57208e-07
0.000667566
-4.07651e-07
0.000667798
-4.56176e-07
0.000668053
-5.02571e-07
0.000668331
-5.46644e-07
0.000668629
-5.8822e-07
0.000668947
-6.27141e-07
0.000669284
-6.63258e-07
0.000669637
-6.96434e-07
0.000670005
-7.26546e-07
0.000670388
-7.53503e-07
0.000670782
-7.77203e-07
0.000671186
-7.97559e-07
0.000671599
-8.14467e-07
0.000672019
-8.27871e-07
0.000672444
-8.37705e-07
0.000672872
-8.43941e-07
0.000673301
-8.46468e-07
0.00067373
-8.45235e-07
0.000674157
-8.40122e-07
0.000674579
-8.3117e-07
0.000674995
-8.18274e-07
0.000675402
-8.01474e-07
0.000675799
-7.80501e-07
0.000676184
-7.55392e-07
0.000676554
-7.25841e-07
0.000676908
-6.92125e-07
0.000677242
-6.53881e-07
0.000677556
-6.11485e-07
0.000677846
-5.64117e-07
0.00067811
-5.12222e-07
0.000678346
-4.54575e-07
0.000678552
-3.92312e-07
0.000678723
-3.23928e-07
0.000678859
-2.51476e-07
0.000678956
-1.7232e-07
0.000679012
-8.92747e-08
0.000679024
1.70591e-09
0.000678986
1.00277e-07
0.000678896
2.09819e-07
0.00067875
3.23208e-07
0.000678541
4.50882e-07
0.00067827
5.7945e-07
0.000677927
7.25522e-07
0.000677515
8.68602e-07
0.000677021
1.03668e-06
0.000676448
1.19822e-06
0.000675778
1.39876e-06
0.000675016
1.58766e-06
0.000674135
1.83688e-06
0.000673143
2.06319e-06
0.000672001
2.37965e-06
0.000670727
2.64926e-06
3.05156e-06
0.000669262
0.000666682
-4.34292e-08
0.000666728
-1.30391e-07
0.000666804
-2.17244e-07
0.00066691
-3.03092e-07
0.000667046
-3.87479e-07
0.000667211
-4.69979e-07
0.000667404
-5.50193e-07
0.000667624
-6.27749e-07
0.00066787
-7.02302e-07
0.000668141
-7.73529e-07
0.000668436
-8.41138e-07
0.000668753
-9.04868e-07
0.00066909
-9.64489e-07
0.000669446
-1.01978e-06
0.000669821
-1.07055e-06
0.000670211
-1.11662e-06
0.000670615
-1.15787e-06
0.000671032
-1.19415e-06
0.00067146
-1.22536e-06
0.000671897
-1.25133e-06
0.000672341
-1.27201e-06
0.00067279
-1.2873e-06
0.000673244
-1.29717e-06
0.000673699
-1.30147e-06
0.000674153
-1.30013e-06
0.000674606
-1.293e-06
0.000675055
-1.28013e-06
0.000675498
-1.26138e-06
0.000675934
-1.23681e-06
0.000676359
-1.20607e-06
0.000676773
-1.16917e-06
0.000677173
-1.12574e-06
0.000677557
-1.0761e-06
0.000677923
-1.01984e-06
0.000678269
-9.57402e-07
0.000678592
-8.87761e-07
0.000678892
-8.11415e-07
0.000679164
-7.26808e-07
0.000679407
-6.3532e-07
0.000679618
-5.35143e-07
0.000679796
-4.28831e-07
0.000679936
-3.1316e-07
0.000680039
-1.91461e-07
0.000680098
-5.8031e-08
0.000680115
8.38245e-08
0.000680082
2.42756e-07
0.000679997
4.07804e-07
0.000679856
5.91821e-07
0.000679657
7.78325e-07
0.000679395
9.87705e-07
0.000679069
1.1947e-06
0.000678672
1.43368e-06
0.000678204
1.66641e-06
0.000677654
1.94891e-06
0.000677021
2.22035e-06
0.000676289
2.56859e-06
0.000675458
2.89406e-06
0.000674505
3.33335e-06
0.000673431
3.72293e-06
4.27743e-06
0.000672205
0.000666683
-6.01463e-08
0.000666734
-1.80612e-07
0.000666817
-3.00915e-07
0.000666934
-4.19781e-07
0.000667083
-5.36556e-07
0.000667264
-6.50631e-07
0.000667475
-7.61438e-07
0.000667716
-8.68454e-07
0.000667985
-9.712e-07
0.00066828
-1.06924e-06
0.000668601
-1.16218e-06
0.000668946
-1.24968e-06
0.000669313
-1.33145e-06
0.0006697
-1.4072e-06
0.000670107
-1.4767e-06
0.00067053
-1.53974e-06
0.000670968
-1.59617e-06
0.00067142
-1.64584e-06
0.000671883
-1.6886e-06
0.000672356
-1.7243e-06
0.000672837
-1.75286e-06
0.000673324
-1.77418e-06
0.000673815
-1.78823e-06
0.000674308
-1.79486e-06
0.000674802
-1.79397e-06
0.000675294
-1.7854e-06
0.000675783
-1.76918e-06
0.000676267
-1.74522e-06
0.000676744
-1.71355e-06
0.000677212
-1.67379e-06
0.000677668
-1.62591e-06
0.000678112
-1.56951e-06
0.000678541
-1.50494e-06
0.000678953
-1.43179e-06
0.000679346
-1.35054e-06
0.000679719
-1.26013e-06
0.000680068
-1.16092e-06
0.000680393
-1.0513e-06
0.00068069
-9.32559e-07
0.000680958
-8.03026e-07
0.000681194
-6.65241e-07
0.000681397
-5.16185e-07
0.000681565
-3.58964e-07
0.000681694
-1.87791e-07
0.000681787
-8.39111e-09
0.000681835
1.94531e-07
0.000681837
4.05716e-07
0.00068179
6.38296e-07
0.000681693
8.76188e-07
0.000681542
1.13841e-06
0.000681336
1.4009e-06
0.000681073
1.69643e-06
0.00068075
1.98973e-06
0.000680364
2.33436e-06
0.000679909
2.67526e-06
0.000679382
3.09531e-06
0.000678772
3.5048e-06
0.000678075
4.02988e-06
0.000677274
4.52382e-06
5.18032e-06
0.000676371
0.000666686
-7.89899e-08
0.000666742
-2.37254e-07
0.000666837
-3.95275e-07
0.000666968
-5.51317e-07
0.000667136
-7.04471e-07
0.000667339
-8.53896e-07
0.000667577
-9.98818e-07
0.000667847
-1.13854e-06
0.000668148
-1.27242e-06
0.000668479
-1.39992e-06
0.000668837
-1.52055e-06
0.000669221
-1.63389e-06
0.000669629
-1.73962e-06
0.00067006
-1.83741e-06
0.00067051
-1.92701e-06
0.000670978
-2.0082e-06
0.000671463
-2.08084e-06
0.000671962
-2.14479e-06
0.000672473
-2.19991e-06
0.000672995
-2.24604e-06
0.000673525
-2.28312e-06
0.000674062
-2.31108e-06
0.000674604
-2.32989e-06
0.000675148
-2.33943e-06
0.000675694
-2.33957e-06
0.000676239
-2.33018e-06
0.000676781
-2.31127e-06
0.000677318
-2.28281e-06
0.00067785
-2.24479e-06
0.000678373
-2.19688e-06
0.000678886
-2.13895e-06
0.000679387
-2.07065e-06
0.000679874
-1.99222e-06
0.000680346
-1.90348e-06
0.0006808
-1.80473e-06
0.000681235
-1.69518e-06
0.000681649
-1.5748e-06
0.00068204
-1.44232e-06
0.000682406
-1.29853e-06
0.000682745
-1.14243e-06
0.000683056
-9.75991e-07
0.000683337
-7.97235e-07
0.000683586
-6.08096e-07
0.000683803
-4.04067e-07
0.000683982
-1.87963e-07
0.00068413
4.67634e-08
0.000684236
2.99175e-07
0.000684303
5.71484e-07
0.000684326
8.53037e-07
0.000684308
1.15644e-06
0.000684244
1.46514e-06
0.00068414
1.80108e-06
0.000683987
2.14243e-06
0.000683795
2.52648e-06
0.000683549
2.92097e-06
0.000683262
3.3819e-06
0.00068291
3.85695e-06
0.000682514
4.42623e-06
0.000682033
5.0043e-06
5.70725e-06
0.000681506
0.000666688
-1.00806e-07
0.000666754
-3.02884e-07
0.000666863