/*--------------------------------*- C++ -*----------------------------------*\
| =========                 |                                                 |
| \\      /  F ield         | OpenFOAM: The Open Source CFD Toolbox           |
|  \\    /   O peration     | Version:  2312                                  |
|   \\  /    A nd           | Website:  www.openfoam.com                      |
|    \\/     M anipulation  |                                                 |
\*---------------------------------------------------------------------------*/
FoamFile
{
    version     2.0;
    format      ascii;
    arch        "LSB;label=32;scalar=64";
    class       surfaceScalarField;
    location    "99000";
    object      phi;
}
// * * * * * * * * * * * * * * * * * * * * * * * * * * * * * * * * * * * * * //

dimensions      [0 3 -1 0 0 0 0];

oriented        oriented;

internalField   nonuniform List<scalar> 
5250
(
0.000496295
2.41704e-06
0.000490551
5.74459e-06
0.000482189
8.36192e-06
0.000471257
1.09322e-05
0.000457952
1.33045e-05
0.00044264
1.53124e-05
0.00042568
1.69602e-05
0.000407348
1.83319e-05
0.000387822
1.95257e-05
0.000367224
2.05975e-05
0.000345661
2.15631e-05
0.000323238
2.2423e-05
0.000300064
2.31738e-05
0.000276255
2.38096e-05
0.000251934
2.43213e-05
0.000227237
2.46963e-05
0.000202319
2.49187e-05
0.00017735
2.49688e-05
0.000152526
2.4824e-05
0.000128071
2.44553e-05
0.000104241
2.38295e-05
8.13533e-05
2.28878e-05
5.98147e-05
2.15386e-05
4.0116e-05
1.96988e-05
2.27216e-05
1.73944e-05
7.96275e-06
1.47588e-05
-4.01075e-06
1.19735e-05
-1.32002e-05
9.18943e-06
-1.96863e-05
6.4861e-06
-2.36617e-05
3.97545e-06
-2.55641e-05
1.90233e-06
-2.57888e-05
2.24735e-07
-2.45299e-05
-1.25886e-06
-2.21904e-05
-2.33951e-06
-1.9164e-05
-3.02647e-06
-1.58134e-05
-3.35058e-06
-1.24584e-05
-3.35495e-06
-9.36572e-06
-3.0927e-06
-6.73806e-06
-2.62766e-06
-4.71388e-06
-2.02418e-06
-3.37376e-06
-1.34012e-06
-2.74323e-06
-6.30533e-07
-2.80445e-06
6.12179e-08
-3.46578e-06
6.6133e-07
-4.71121e-06
1.24543e-06
-6.3906e-06
1.67939e-06
-8.32488e-06
1.93427e-06
-1.03344e-05
2.00956e-06
-1.22716e-05
1.93715e-06
-1.40257e-05
1.75412e-06
-1.55178e-05
1.49205e-06
-1.66991e-05
1.18136e-06
-1.7553e-05
8.53863e-07
-1.80922e-05
5.39228e-07
-1.83518e-05
2.59604e-07
-1.83699e-05
1.80911e-08
-1.82482e-05
-1.21724e-07
-1.80293e-05
-2.18829e-07
-1.7757e-05
-2.7238e-07
-1.74709e-05
-2.86052e-07
-1.72054e-05
-2.65537e-07
-1.69892e-05
-2.162e-07
-1.68473e-05
-1.41863e-07
-1.67989e-05
-4.84581e-08
-1.68623e-05
6.34254e-08
-1.70433e-05
1.8105e-07
-1.73474e-05
3.04086e-07
-1.77788e-05
4.31375e-07
-1.83412e-05
5.62384e-07
-1.90382e-05
6.96991e-07
-1.98736e-05
8.35475e-07
-2.08523e-05
9.78613e-07
-2.19796e-05
1.12732e-06
-2.32608e-05
1.28125e-06
-2.47004e-05
1.43955e-06
-2.63017e-05
1.60128e-06
-2.80667e-05
1.765e-06
-2.99951e-05
1.92845e-06
-3.20837e-05
2.08854e-06
-3.43253e-05
2.2416e-06
-3.67089e-05
2.38363e-06
-3.92191e-05
2.51022e-06
-4.18355e-05
2.61642e-06
-4.4533e-05
2.69744e-06
-4.72833e-05
2.75035e-06
-5.00612e-05
2.77789e-06
-5.28266e-05
2.7654e-06
-5.55271e-05
2.70049e-06
-5.8114e-05
2.58693e-06
2.42546e-06
0.000882181
1.05861e-05
0.00087393
1.39952e-05
0.000865365
1.69269e-05
0.000856559
1.97383e-05
0.000847383
2.24806e-05
0.000837596
2.50997e-05
0.000827008
2.75481e-05
0.000815535
2.9805e-05
0.00080318
3.188e-05
0.000789974
3.38044e-05
0.000775935
3.5602e-05
0.000761081
3.72763e-05
0.000745438
3.8817e-05
0.000729042
4.02055e-05
0.000711942
4.14216e-05
0.000694192
4.24465e-05
0.000675846
4.32639e-05
0.000656961
4.38539e-05
0.00063759
4.41956e-05
0.000617781
4.42639e-05
0.000597575
4.40358e-05
0.000576975
4.34881e-05
0.000555907
4.2606e-05
0.00053422
4.1386e-05
0.000511764
3.98508e-05
0.000488473
3.80495e-05
0.000464396
3.60503e-05
0.000439648
3.3937e-05
0.000414351
3.17837e-05
0.000388615
2.97112e-05
0.000362497
2.80201e-05
0.000336592
2.61298e-05
0.000311025
2.43081e-05
0.00028604
2.26459e-05
0.00026185
2.11635e-05
0.000238656
1.98431e-05
0.000216653
1.86482e-05
0.00019602
1.75404e-05
0.000176905
1.64872e-05
0.000159416
1.54653e-05
0.000143611
1.44649e-05
0.000129502
1.34779e-05
0.000117054
1.25095e-05
0.000106151
1.15642e-05
9.67874e-05
1.06091e-05
8.88506e-05
9.61624e-06
8.20739e-05
8.7109e-06
7.62878e-05
7.79567e-06
7.13396e-05
6.88534e-06
6.70947e-05
5.99909e-06
6.34391e-05
5.14759e-06
6.02802e-05
4.34029e-06
5.75428e-05
3.59127e-06
5.51648e-05
2.91723e-06
5.30917e-05
2.33266e-06
5.12646e-05
1.84525e-06
4.9688e-05
1.45485e-06
4.83137e-05
1.15546e-06
4.71031e-05
9.3821e-07
4.60242e-05
7.9283e-07
4.50497e-05
7.08996e-07
4.41551e-05
6.78392e-07
4.3304e-05
7.09201e-07
4.24892e-05
7.66418e-07
4.17093e-05
8.43322e-07
4.09531e-05
9.37217e-07
4.02129e-05
1.0443e-06
3.94819e-05
1.16241e-06
3.87565e-05
1.28773e-06
3.80356e-05
1.41794e-06
3.73161e-05
1.55495e-06
3.65941e-05
1.70061e-06
3.58671e-05
1.85427e-06
3.5134e-05
2.01441e-06
3.43928e-05
2.18074e-06
3.36409e-05
2.35318e-06
3.28762e-05
2.52971e-06
3.20991e-05
2.70557e-06
3.13136e-05
2.87405e-06
3.05276e-05
3.02753e-06
2.97523e-05
3.15899e-06
2.9e-05
3.26246e-06
2.82863e-05
3.3301e-06
2.76311e-05
3.35265e-06
2.70595e-05
3.32195e-06
2.66067e-05
3.23078e-06
2.63032e-05
3.06882e-06
2.61823e-05
2.82142e-06
2.62858e-05
2.48344e-06
2.0602e-06
0.00103412
1.53329e-05
0.0010293
1.88069e-05
0.00102412
2.21106e-05
0.00101867
2.51911e-05
0.00101303
2.81155e-05
0.00100719
3.09386e-05
0.00100106
3.36811e-05
0.000994535
3.63313e-05
0.000987547
3.88679e-05
0.000980077
4.12742e-05
0.000972138
4.3541e-05
0.000963752
4.56624e-05
0.000954936
4.76329e-05
0.000945698
4.94438e-05
0.000936036
5.10834e-05
0.000925946
5.25369e-05
0.000915421
5.37882e-05
0.000904454
5.48208e-05
0.000893032
5.56182e-05
0.00088113
5.61661e-05
0.000868715
5.64506e-05
0.000855741
5.64622e-05
0.000842157
5.61896e-05
0.000827912
5.56308e-05
0.000812974
5.47887e-05
0.000797331
5.36926e-05
0.000780997
5.23842e-05
0.000764006
5.09286e-05
0.000746402
4.93873e-05
0.000728293
4.78206e-05
0.000710052
4.62605e-05
0.000691537
4.46454e-05
0.000672873
4.29715e-05
0.000654002
4.15176e-05
0.000634992
4.01727e-05
0.000615925
3.89108e-05
0.000596864
3.77092e-05
0.000577861
3.65425e-05
0.000558964
3.53843e-05
0.000540217
3.42132e-05
0.000521665
3.30163e-05
0.000503357
3.17856e-05
0.000485346
3.05206e-05
0.000467686
2.92244e-05
0.000450345
2.79503e-05
0.000433269
2.66918e-05
0.000416673
2.53074e-05
0.000400583
2.3886e-05
0.000385011
2.24566e-05
0.000369975
2.10359e-05
0.000355486
1.96365e-05
0.000341557
1.82685e-05
0.000328207
1.69413e-05
0.00031546
1.56649e-05
0.000303344
1.44485e-05
0.000291891
1.32986e-05
0.000281125
1.22201e-05
0.000271067
1.12136e-05
0.000261727
1.02783e-05
0.000253108
9.41212e-06
0.000245205
8.61229e-06
0.000238007
7.87592e-06
0.000231518
7.19865e-06
0.000225708
6.57615e-06
0.000220547
6.00429e-06
0.000216004
5.48028e-06
0.000212046
5.00228e-06
0.000208641
4.56719e-06
0.000205759
4.17008e-06
0.000203368
3.80841e-06
0.000201446
3.47687e-06
0.000199964
3.18313e-06
0.000198877
2.94143e-06
0.000198155
2.73626e-06
0.000197772
2.56374e-06
0.000197703
2.42147e-06
0.000197927
2.30584e-06
0.000198423
2.20963e-06
0.000199172
2.12487e-06
0.000200157
2.04344e-06
0.000201357
1.95837e-06
0.000202755
1.86497e-06
0.000204343
1.7414e-06
0.00020612
1.57608e-06
0.000208081
1.36101e-06
0.000210222
1.08932e-06
0.000212552
7.39389e-07
0.000215088
2.84907e-07
0.000217825
-2.53546e-07
-8.64723e-07
0.00110143
1.94666e-05
0.00109769
2.25484e-05
0.00109407
2.57316e-05
0.00109041
2.88431e-05
0.00108669
3.1844e-05
0.00108287
3.47536e-05
0.00107897
3.75851e-05
0.00107496
4.03407e-05
0.00107081
4.30106e-05
0.00106651
4.55807e-05
0.00106203
4.80223e-05
0.00105737
5.03189e-05
0.00105253
5.24679e-05
0.00104752
5.44618e-05
0.00104231
5.6291e-05
0.0010369
5.79448e-05
0.00103128
5.94111e-05
0.00102542
6.06786e-05
0.0010193
6.17351e-05
0.0010129
6.25699e-05
0.00100618
6.3172e-05
0.000999106
6.35349e-05
0.000991641
6.36551e-05
0.000983736
6.35354e-05
0.000975342
6.3183e-05
0.000966424
6.26105e-05
0.000956993
6.18153e-05
0.000947064
6.08577e-05
0.000936646
5.98047e-05
0.000925796
5.86707e-05
0.000914573
5.74836e-05
0.000902949
5.62696e-05
0.000890877
5.50433e-05
0.000878568
5.38266e-05
0.000866114
5.26269e-05
0.000853575
5.14493e-05
0.000840964
5.03208e-05
0.000828326
4.91806e-05
0.000815725
4.79848e-05
0.000803179
4.67592e-05
0.000790689
4.55069e-05
0.000778247
4.42271e-05
0.000765848
4.29202e-05
0.000753485
4.15868e-05
0.000741205
4.02309e-05
0.000729054
3.88425e-05
0.000716994
3.73671e-05
0.000705035
3.58454e-05
0.000693139
3.43522e-05
0.000681307
3.28687e-05
0.000669549
3.13944e-05
0.000657883
2.99342e-05
0.00064633
2.84943e-05
0.000634914
2.70811e-05
0.000623662
2.57005e-05
0.000612603
2.43569e-05
0.00060177
2.30539e-05
0.00059119
2.17935e-05
0.000580891
2.05765e-05
0.0005709
1.94033e-05
0.000561239
1.82733e-05
0.000551929
1.71859e-05
0.000542988
1.61401e-05
0.000534429
1.51351e-05
0.000526263
1.41697e-05
0.000518499
1.32448e-05
0.000511124
1.23773e-05
0.000504143
1.15481e-05
0.000497579
1.0734e-05
0.000491437
9.95021e-06
0.000485715
9.19957e-06
0.000480415
8.48294e-06
0.000475556
7.79986e-06
0.000471144
7.14818e-06
0.000467183
6.5249e-06
0.000463678
5.92647e-06
0.000460634
5.35043e-06
0.000458052
4.79126e-06
0.000455934
4.24304e-06
0.000454277
3.70056e-06
0.000453081
3.15396e-06
0.00045235
2.59643e-06
0.000452071
2.02056e-06
0.000452235
1.41198e-06
0.000452832
7.63566e-07
0.000453864
5.75646e-08
0.000455249
-6.46256e-07
0.000456973
-1.43903e-06
0.00045902
-2.30005e-06
-3.22149e-06
0.00108836
2.2362e-05
0.00108571
2.52014e-05
0.00108325
2.81894e-05
0.00108085
3.12478e-05
0.0010784
3.42931e-05
0.00107588
3.72683e-05
0.00107332
4.01476e-05
0.00107074
4.29238e-05
0.00106815
4.55947e-05
0.00106558
4.81543e-05
0.00106301
5.05914e-05
0.00106044
5.28934e-05
0.00105785
5.50486e-05
0.00105527
5.7047e-05
0.00105268
5.88802e-05
0.00105008
6.05407e-05
0.00104747
6.20214e-05
0.00104484
6.3316e-05
0.00104215
6.44204e-05
0.00103939
6.53353e-05
0.00103652
6.60395e-05
0.00103352
6.65331e-05
0.00103036
6.68196e-05
0.00102699
6.69031e-05
0.00102338
6.679e-05
0.0010195
6.64909e-05
0.00101529
6.60212e-05
0.00101075
6.5405e-05
0.00100588
6.4669e-05
0.00100072
6.38371e-05
0.00099527
6.29305e-05
0.00098957
6.19694e-05
0.000983649
6.09641e-05
0.000977556
5.99197e-05
0.000971335
5.88478e-05
0.000965025
5.77591e-05
0.000958688
5.66578e-05
0.000952333
5.5536e-05
0.00094594
5.43774e-05
0.00093954
5.31592e-05
0.000933128
5.19193e-05
0.000926689
5.06659e-05
0.000920221
4.9388e-05
0.000913726
4.80816e-05
0.000907213
4.67447e-05
0.000900676
4.53792e-05
0.000894055
4.39878e-05
0.000887326
4.25741e-05
0.000880532
4.1147e-05
0.000873689
3.97117e-05
0.000866811
3.82723e-05
0.000859912
3.68331e-05
0.000853007
3.53996e-05
0.00084611
3.39776e-05
0.000839238
3.25726e-05
0.000832405
3.11896e-05
0.000825627
2.98322e-05
0.000818918
2.85029e-05
0.000812291
2.72034e-05
0.000805759
2.59347e-05
0.000799335
2.46974e-05
0.000793029
2.34918e-05
0.000786851
2.2318e-05
0.00078081
2.1176e-05
0.000774915
2.00656e-05
0.000769173
1.89863e-05
0.000763613
1.7937e-05
0.000758247
1.69146e-05
0.000753065
1.59154e-05
0.000748076
1.49392e-05
0.000743289
1.39874e-05
0.000738712
1.30596e-05
0.000734357
1.21546e-05
0.000730234
1.12709e-05
0.000726354
1.04058e-05
0.000722724
9.5557e-06
0.000719358
8.71676e-06
0.000716265
7.88471e-06
0.000713453
7.05472e-06
0.000710932
6.22187e-06
0.000708705
5.38044e-06
0.000706777
4.52468e-06
0.000705148
3.64974e-06
0.000703811
2.74879e-06
0.000702756
1.81871e-06
0.000701954
8.59467e-07
0.000701447
-1.39004e-07
0.000701246
-1.23831e-06
0.00070131
-2.36433e-06
-3.53845e-06
0.00109847
2.50857e-05
0.00109535
2.83271e-05
0.00109194
3.16016e-05
0.00108831
3.48744e-05
0.0010845
3.81054e-05
0.00108051
4.12569e-05
0.00107636
4.42994e-05
0.00107207
4.72141e-05
0.00106767
4.99888e-05
0.00106321
5.26139e-05
0.00105872
5.50806e-05
0.00105424
5.73795e-05
0.00104978
5.95015e-05
0.00104539
6.14385e-05
0.00104109
6.31839e-05
0.0010369
6.47329e-05
0.00103284
6.60824e-05
0.00102892
6.72308e-05
0.00102516
6.81777e-05
0.00102158
6.89234e-05
0.00101815
6.94692e-05
0.00101486
6.98183e-05
0.0010117
6.99766e-05
0.00100866
6.99523e-05
0.00100569
6.97557e-05
0.00100278
6.93994e-05
0.000999903
6.88987e-05
0.000997034
6.8274e-05
0.000994163
6.75405e-05
0.000991301
6.66991e-05
0.000988457
6.57739e-05
0.000985645
6.47816e-05
0.000982875
6.37343e-05
0.000980153
6.26418e-05
0.000977488
6.1513e-05
0.000974891
6.03558e-05
0.000972374
5.91748e-05
0.000969938
5.79723e-05
0.000967568
5.6747e-05
0.000965232
5.54953e-05
0.00096293
5.42209e-05
0.000960663
5.29329e-05
0.00095842
5.16312e-05
0.00095619
5.03121e-05
0.000953959
4.89757e-05
0.000951713
4.76252e-05
0.000949436
4.62649e-05
0.000947115
4.48942e-05
0.00094475
4.3512e-05
0.000942341
4.21211e-05
0.000939887
4.07259e-05
0.000937389
3.93312e-05
0.000934847
3.79422e-05
0.00093226
3.65641e-05
0.000929632
3.5201e-05
0.000926965
3.38566e-05
0.000924263
3.25335e-05
0.000921533
3.12338e-05
0.000918777
2.99589e-05
0.000916003
2.87093e-05
0.000913215
2.74854e-05
0.000910419
2.62871e-05
0.000907623
2.5114e-05
0.000904834
2.39656e-05
0.000902058
2.2841e-05
0.000899305
2.17395e-05
0.000896582
2.06598e-05
0.000893896
1.96013e-05
0.000891248
1.85631e-05
0.000888644
1.75429e-05
0.000886092
1.65391e-05
0.000883602
1.55505e-05
0.000881181
1.45755e-05
0.000878839
1.3613e-05
0.000876584
1.26602e-05
0.000874425
1.17145e-05
0.00087237
1.07724e-05
0.000870424
9.8301e-06
0.000868595
8.88425e-06
0.000866886
7.93054e-06
0.000865302
6.96511e-06
0.000863842
5.98398e-06
0.00086251
4.98244e-06
0.000861301
3.9578e-06
0.000860213
2.90675e-06
0.000859245
1.82692e-06
0.000858385
7.21502e-07
0.000857581
-4.35159e-07
0.000856866
-1.64932e-06
-2.88513e-06
0.00117796
2.83192e-05
0.0011741
3.21842e-05
0.00116977
3.59387e-05
0.00116504
3.9598e-05
0.00115998
4.31731e-05
0.00115458
4.66573e-05
0.00114884
5.00312e-05
0.00114279
5.32694e-05
0.00113643
5.63487e-05
0.00112979
5.92506e-05
0.00112291
6.19606e-05
0.00111583
6.44669e-05
0.00110857
6.67589e-05
0.00110118
6.88274e-05
0.0010937
7.06649e-05
0.00108617
7.22656e-05
0.00107862
7.36261e-05
0.00107111
7.47453e-05
0.00106366
7.56244e-05
0.00105632
7.6267e-05
0.00104911
7.66787e-05
0.00104206
7.68676e-05
0.00103519
7.68432e-05
0.00102853
7.66177e-05
0.00102208
7.62051e-05
0.00101586
7.56209e-05
0.00100987
7.48812e-05
0.00100414
7.40017e-05
0.000998688
7.2997e-05
0.000993505
7.18823e-05
0.000988604
7.06747e-05
0.000983995
6.9391e-05
0.000979683
6.80467e-05
0.000975669
6.66551e-05
0.000971955
6.52272e-05
0.000968539
6.3772e-05
0.000965417
6.2297e-05
0.00096258
6.08086e-05
0.000960016
5.93113e-05
0.000957703
5.78079e-05
0.000955625
5.62998e-05
0.000953768
5.47894e-05
0.00095212
5.32789e-05
0.000950662
5.17702e-05
0.000949373
5.02649e-05
0.000948234
4.87644e-05
0.000947228
4.72704e-05
0.000946339
4.57836e-05
0.000945546
4.43054e-05
0.000944829
4.28376e-05
0.000944172
4.13834e-05
0.000943557
3.99459e-05
0.000942971
3.85279e-05
0.000942403
3.71321e-05
0.000941844
3.57604e-05
0.000941286
3.44141e-05
0.000940726
3.30942e-05
0.000940158
3.18015e-05
0.00093958
3.05364e-05
0.000938991
2.92986e-05
0.000938389
2.80879e-05
0.000937772
2.69038e-05
0.000937141
2.57453e-05
0.000936495
2.46116e-05
0.000935834
2.35016e-05
0.000935159
2.24141e-05
0.000934471
2.13481e-05
0.00093377
2.03021e-05
0.000933059
1.92747e-05
0.000932338
1.82637e-05
0.00093161
1.72672e-05
0.000930877
1.62832e-05
0.000930143
1.53098e-05
0.00092941
1.43454e-05
0.000928683
1.33877e-05
0.000927963
1.24342e-05
0.000927253
1.14823e-05
0.000926555
1.05284e-05
0.000925869
9.57006e-06
0.000925196
8.60374e-06
0.000924535
7.62594e-06
0.000923885
6.63356e-06
0.000923246
5.62146e-06
0.000922613
4.59127e-06
0.00092198
3.53996e-06
0.000921342
2.46483e-06
0.000920695
1.36838e-06
0.000920009
2.51041e-07
0.00091928
-9.20422e-07
-2.1028e-06
0.00119581
2.97213e-05
0.00119423
3.37674e-05
0.00119239
3.77805e-05
0.00119026
4.17241e-05
0.00118785
4.55804e-05
0.00118517
4.93382e-05
0.00118222
5.29862e-05
0.00117898
5.65103e-05
0.00117543
5.98922e-05
0.00117157
6.31121e-05
0.00116738
6.61497e-05
0.00116286
6.8986e-05
0.00115802
7.16043e-05
0.00115286
7.39902e-05
0.00114739
7.61319e-05
0.00114164
7.80201e-05
0.00113561
7.96483e-05
0.00112935
8.10122e-05
0.00112286
8.21105e-05
0.00111618
8.2944e-05
0.00110934
8.35166e-05
0.00110238
8.38344e-05
0.00109532
8.39059e-05
0.00108819
8.37418e-05
0.00108104
8.33547e-05
0.0010739
8.27587e-05
0.00106682
8.19697e-05
0.00105981
8.10056e-05
0.00105292
7.98855e-05
0.00104618
7.86276e-05
0.0010396
7.72495e-05
0.00103323
7.57678e-05
0.00102707
7.41995e-05
0.00102116
7.25638e-05
0.00101552
7.08731e-05
0.00101015
6.91393e-05
0.00100508
6.73732e-05
0.0010003
6.5585e-05
0.000995827
6.37831e-05
0.00099166
6.1975e-05
0.000987793
6.01666e-05
0.000984221
5.83611e-05
0.000980937
5.65628e-05
0.000977931
5.47766e-05
0.000975189
5.30066e-05
0.000972698
5.12556e-05
0.000970442
4.95263e-05
0.000968405
4.78213e-05
0.000966567
4.61429e-05
0.000964911
4.44933e-05
0.00096342
4.28748e-05
0.000962077
4.12892e-05
0.000960866
3.97381e-05
0.000959776
3.82226e-05
0.000958793
3.67433e-05
0.000957906
3.53006e-05
0.000957106
3.38945e-05
0.000956383
3.2525e-05
0.000955728
3.11915e-05
0.000955133
2.98935e-05
0.000954591
2.863e-05
0.000954095
2.73999e-05
0.000953638
2.62018e-05
0.000953215
2.50344e-05
0.000952821
2.38961e-05
0.00095245
2.2785e-05
0.000952099
2.16994e-05
0.000951763
2.06372e-05
0.000951442
1.95965e-05
0.00095113
1.85749e-05
0.000950827
1.75703e-05
0.00095053
1.65803e-05
0.000950238
1.56026e-05
0.000949948
1.4635e-05
0.00094966
1.36753e-05
0.000949374
1.27209e-05
0.000949087
1.17691e-05
0.000948798
1.08174e-05
0.000948505
9.8628e-06
0.000948206
8.90274e-06
0.000947897
7.93467e-06
0.000947575
6.95595e-06
0.000947232
5.96485e-06
0.000946864
4.9591e-06
0.000946467
3.93705e-06
0.000946035
2.89661e-06
0.000945569
1.83403e-06
0.000945074
7.46559e-07
0.000944505
-3.51755e-07
-1.45786e-06
0.00106713
2.74056e-05
0.00106967
3.1228e-05
0.00107222
3.52325e-05
0.00107476
3.91866e-05
0.00107728
4.30561e-05
0.00107978
4.68436e-05
0.00108222
5.0543e-05
0.00108458
5.41482e-05
0.00108683
5.76474e-05
0.00108892
6.1022e-05
0.00109082
6.42493e-05
0.0010925
6.73063e-05
0.00109393
7.0172e-05
0.00109509
7.28282e-05
0.00109596
7.52594e-05
0.00109653
7.74533e-05
0.00109678
7.93995e-05
0.0010967
8.10902e-05
0.00109629
8.25196e-05
0.00109555
8.36847e-05
0.00109448
8.45848e-05
0.00109309
8.52218e-05
0.0010914
8.56004e-05
0.00108941
8.57278e-05
0.00108716
8.5613e-05
0.00108465
8.5266e-05
0.00108192
8.46947e-05
0.00107901
8.3919e-05
0.00107593
8.2967e-05
0.00107271
8.18502e-05
0.00106937
8.05843e-05
0.00106595
7.91864e-05
0.00106248
7.76736e-05
0.00105898
7.60621e-05
0.00105549
7.43673e-05
0.00105202
7.26036e-05
0.00104861
7.07841e-05
0.00104527
6.89212e-05
0.00104203
6.70263e-05
0.0010389
6.51094e-05
0.00103588
6.31796e-05
0.001033
6.12447e-05
0.00103025
5.9312e-05
0.00102764
5.73881e-05
0.00102517
5.54791e-05
0.00102283
5.35903e-05
0.00102063
5.17263e-05
0.00101856
4.9891e-05
0.00101662
4.80877e-05
0.00101479
4.63194e-05
0.00101308
4.45886e-05
0.00101147
4.2897e-05
0.00100996
4.12463e-05
0.00100855
3.96375e-05
0.00100722
3.80714e-05
0.00100597
3.65483e-05
0.0010048
3.50681e-05
0.00100369
3.36307e-05
0.00100265
3.22353e-05
0.00100166
3.08809e-05
0.00100072
2.95665e-05
0.000999834
2.82906e-05
0.000998984
2.70514e-05
0.000998171
2.58473e-05
0.000997391
2.46761e-05
0.00099664
2.35358e-05
0.000995916
2.24241e-05
0.000995214
2.13387e-05
0.000994533
2.02773e-05
0.000993871
1.92374e-05
0.000993225
1.82166e-05
0.000992592
1.72123e-05
0.000991973
1.6222e-05
0.000991365
1.52433e-05
0.000990767
1.42736e-05
0.000990177
1.33105e-05
0.000989595
1.23514e-05
0.000989018
1.13938e-05
0.000988446
1.04353e-05
0.000987875
9.47356e-06
0.000987303
8.50648e-06
0.000986727
7.53182e-06
0.000986144
6.54799e-06
0.00098555
5.55341e-06
0.00098494
4.54671e-06
0.000984309
3.52813e-06
0.000983645
2.49746e-06
0.000982935
1.45711e-06
0.000982172
4.10602e-07
-6.64698e-07
0.000830452
2.19236e-05
0.00083618
2.54999e-05
0.000842239
2.9174e-05
0.000848576
3.28493e-05
0.000855157
3.64754e-05
0.000861957
4.00431e-05
0.000868943
4.35575e-05
0.000876076
4.70152e-05
0.000883321
5.04027e-05
0.000890642
5.37003e-05
0.000898006
5.68853e-05
0.000905377
5.99357e-05
0.000912717
6.28314e-05
0.000919991
6.55547e-05
0.000927161
6.80897e-05
0.000934192
7.04221e-05
0.000941052
7.25397e-05
0.00094771
7.44319e-05
0.000954139
7.60901e-05
0.000960316
7.75078e-05
0.00096622
7.86806e-05
0.000971836
7.96067e-05
0.000977149
8.02869e-05
0.000982153
8.07241e-05
0.000986842
8.0924e-05
0.000991214
8.08942e-05
0.000995263
8.06457e-05
0.00099899
8.01919e-05
0.00100241
7.95472e-05
0.00100553
7.87253e-05
0.00100838
7.77403e-05
0.00101096
7.66067e-05
0.00101329
7.53395e-05
0.0010154
7.39536e-05
0.0010173
7.24641e-05
0.00101902
7.08855e-05
0.00102057
6.92319e-05
0.00102198
6.75164e-05
0.00102325
6.57517e-05
0.00102441
6.39493e-05
0.00102547
6.21199e-05
0.00102644
6.02734e-05
0.00102734
5.84187e-05
0.00102816
5.65639e-05
0.00102892
5.47163e-05
0.00102963
5.28823e-05
0.00103029
5.10678e-05
0.0010309
4.92777e-05
0.00103148
4.75164e-05
0.00103201
4.57875e-05
0.0010325
4.40941e-05
0.00103296
4.24386e-05
0.00103338
4.08232e-05
0.00103377
3.92493e-05
0.00103413
3.77181e-05
0.00103444
3.623e-05
0.00103473
3.47854e-05
0.00103497
3.33839e-05
0.00103518
3.2025e-05
0.00103536
3.07078e-05
0.00103549
2.9431e-05
0.00103559
2.81931e-05
0.00103565
2.69923e-05
0.00103567
2.58269e-05
0.00103565
2.46947e-05
0.00103559
2.35935e-05
0.0010355
2.25209e-05
0.00103536
2.14746e-05
0.00103519
2.0452e-05
0.00103497
1.94507e-05
0.00103472
1.84682e-05
0.00103443
1.75018e-05
0.0010341
1.65489e-05
0.00103374
1.56072e-05
0.00103334
1.46741e-05
0.0010329
1.37471e-05
0.00103243
1.2824e-05
0.00103192
1.19024e-05
0.00103138
1.09803e-05
0.0010308
1.00555e-05
0.00103018
9.12623e-06
0.00102952
8.19102e-06
0.00102882
7.24836e-06
0.00102807
6.29738e-06
0.00102728
5.33749e-06
0.00102644
4.36822e-06
0.00102555
3.39037e-06
0.0010246
2.40403e-06
0.0010236
1.41172e-06
4.19344e-07
0.000557869
1.51579e-05
0.000565026
1.83433e-05
0.00057256
2.16405e-05
0.000580511
2.48977e-05
0.000588853
2.81335e-05
0.000597551
3.13449e-05
0.000606583
3.45254e-05
0.000615935
3.76634e-05
0.000625593
4.0745e-05
0.000635539
4.37541e-05
0.00064575
4.66741e-05
0.000656198
4.94883e-05
0.000666849
5.21807e-05
0.000677667
5.47359e-05
0.000688617
5.71395e-05
0.000699661
5.93782e-05
0.000710761
6.14398e-05
0.00072188
6.33137e-05
0.000732979
6.49909e-05
0.000744023
6.6464e-05
0.000754976
6.77272e-05
0.000765805
6.87771e-05
0.00077648
6.96122e-05
0.000786971
7.02332e-05
0.000797252
7.0643e-05
0.0008073
7.08465e-05
0.000817095
7.08506e-05
0.000826623
7.06636e-05
0.000835875
7.0295e-05
0.000844845
6.97556e-05
0.000853529
6.90568e-05
0.000861925
6.82108e-05
0.000870034
6.72302e-05
0.000877859
6.61282e-05
0.000885405
6.49179e-05
0.000892678
6.36126e-05
0.000899685
6.22254e-05
0.000906432
6.0769e-05
0.000912928
5.92556e-05
0.000919181
5.76964e-05
0.000925199
5.61023e-05
0.000930989
5.44834e-05
0.000936559
5.28486e-05
0.000941916
5.12066e-05
0.000947068
4.95648e-05
0.00095202
4.79301e-05
0.000956779
4.63086e-05
0.000961351
4.47059e-05
0.000965741
4.31267e-05
0.000969953
4.15749e-05
0.000973993
4.00542e-05
0.000977865
3.85673e-05
0.000981571
3.71166e-05
0.000985117
3.57039e-05
0.000988504
3.43304e-05
0.000991737
3.29969e-05
0.000994819
3.17038e-05
0.000997752
3.0451e-05
0.00100054
2.92381e-05
0.00100318
2.80643e-05
0.00100568
2.69284e-05
0.00100805
2.58292e-05
0.00101028
2.4765e-05
0.00101237
2.3734e-05
0.00101433
2.27343e-05
0.00101616
2.17636e-05
0.00101786
2.08198e-05
0.00101943
1.99006e-05
0.00102088
1.90034e-05
0.00102221
1.81259e-05
0.00102341
1.72655e-05
0.00102449
1.64199e-05
0.00102545
1.55866e-05
0.0010263
1.47631e-05
0.00102703
1.39472e-05
0.00102764
1.31365e-05
0.00102813
1.2329e-05
0.00102851
1.15225e-05
0.00102878
1.07152e-05
0.00102893
9.90539e-06
0.00102896
9.0913e-06
0.00102888
8.27185e-06
0.00102868
7.4459e-06
0.00102837
6.61238e-06
0.00102793
5.77132e-06
0.00102738
4.92195e-06
0.00102671
4.06482e-06
0.00102591
3.20079e-06
0.00102499
2.33032e-06
1.45637e-06
0.000284085
8.5034e-06
0.000290958
1.14701e-05
0.000298395
1.42031e-05
0.000306324
1.6969e-05
0.000314722
1.97354e-05
0.000323578
2.24897e-05
0.000332886
2.52171e-05
0.000342644
2.79054e-05
0.000352845
3.05432e-05
0.00036348
3.31195e-05
0.000374532
3.56226e-05
0.00038598
3.80401e-05
0.000397801
4.03596e-05
0.000409968
4.2569e-05
0.00042245
4.4657e-05
0.000435216
4.66126e-05
0.00044823
4.84261e-05
0.000461455
5.00883e-05
0.000474855
5.15914e-05
0.00048839
5.29286e-05
0.000502022
5.40949e-05
0.000515713
5.50863e-05
0.000529425
5.59005e-05
0.000543121
5.65376e-05
0.000556766
5.69979e-05
0.000570328
5.72843e-05
0.000583777
5.74015e-05
0.000597085
5.73551e-05
0.000610229
5.71519e-05
0.000623184
5.67999e-05
0.000635933
5.6308e-05
0.000648458
5.56858e-05
0.000660745
5.49434e-05
0.000672782
5.40911e-05
0.00068456
5.31398e-05
0.000696072
5.21008e-05
0.000707312
5.09855e-05
0.000718276
4.98049e-05
0.000728962
4.85699e-05
0.000739368
4.72904e-05
0.000749494
4.59763e-05
0.00075934
4.46368e-05
0.000768908
4.32805e-05
0.0007782
4.1915e-05
0.000787217
4.05475e-05
0.000795963
3.91843e-05
0.00080444
3.78311e-05
0.000812653
3.64932e-05
0.000820605
3.5175e-05
0.000828299
3.38806e-05
0.00083574
3.26133e-05
0.000842931
3.13759e-05
0.000849877
3.01708e-05
0.000856581
2.89995e-05
0.000863048
2.78636e-05
0.000869281
2.67637e-05
0.000875285
2.57005e-05
0.000881062
2.46739e-05
0.000886616
2.36837e-05
0.000891951
2.27292e-05
0.00089707
2.18095e-05
0.000901976
2.09234e-05
0.000906672
2.00696e-05
0.000911159
1.92465e-05
0.000915441
1.84521e-05
0.00091952
1.76847e-05
0.000923398
1.69421e-05
0.000927076
1.62222e-05
0.000930557
1.55228e-05
0.000933841
1.48417e-05
0.00093693
1.41766e-05
0.000939825
1.35252e-05
0.000942526
1.28854e-05
0.000945034
1.22549e-05
0.00094735
1.16316e-05
0.000949473
1.10135e-05
0.000951403
1.03985e-05
0.00095314
9.78516e-06
0.000954684
9.17135e-06
0.000956034
8.55583e-06
0.000957188
7.93725e-06
0.000958145
7.31418e-06
0.000958905
6.68619e-06
0.000959465
6.05211e-06
0.000959825
5.41182e-06
0.000959982
4.76529e-06
0.000959934
4.11215e-06
0.000959681
3.45369e-06
0.000959222
2.78973e-06
2.12161e-06
8.22256e-06
3.49769e-06
1.44305e-05
5.26215e-06
2.10373e-05
7.59622e-06
2.83818e-05
9.62449e-06
3.6261e-05
1.18562e-05
4.47541e-05
1.39966e-05
5.37952e-05
1.61759e-05
6.34057e-05
1.8295e-05
7.35617e-05
2.03872e-05
8.42596e-05
2.24215e-05
9.54815e-05
2.44006e-05
0.00010721
2.63115e-05
0.000119423
2.8147e-05
0.000132094
2.98978e-05
0.000145196
3.1555e-05
0.000158698
3.31103e-05
0.000172569
3.45556e-05
0.000186773
3.58839e-05
0.000201276
3.70887e-05
0.000216039
3.81649e-05
0.000231026
3.91079e-05
0.000246198
3.99148e-05
0.000261515
4.05835e-05
0.000276938
4.1114e-05
0.000292434
4.1502e-05
0.000307963
4.17553e-05
0.00032349
4.1875e-05
0.00033898
4.18648e-05
0.000354402
4.17301e-05
0.000369725
4.14772e-05
0.00038492
4.1113e-05
0.000399961
4.06442e-05
0.000414828
4.00764e-05
0.000429502
3.94176e-05
0.000443964
3.86771e-05
0.000458201
3.78641e-05
0.000472198
3.69884e-05
0.000485944
3.60593e-05
0.000499429
3.50851e-05
0.000512645
3.40745e-05
0.000525585
3.30358e-05
0.000538245
3.19771e-05
0.000550619
3.09061e-05
0.000562705
2.98294e-05
0.000574499
2.87528e-05
0.000586002
2.76813e-05
0.000597214
2.66198e-05
0.000608134
2.55729e-05
0.000618764
2.45445e-05
0.000629107
2.35379e-05
0.000639164
2.25562e-05
0.000648938
2.16017e-05
0.000658433
2.06766e-05
0.00066765
1.97824e-05
0.000676593
1.89202e-05
0.000685266
1.8091e-05
0.000693671
1.72952e-05
0.000701812
1.65329e-05
0.000709692
1.58041e-05
0.000717312
1.51084e-05
0.000724677
1.4445e-05
0.000731787
1.3813e-05
0.000738646
1.32111e-05
0.000745254
1.2638e-05
0.000751614
1.20922e-05
0.000757727
1.15719e-05
0.000763594
1.10754e-05
0.000769215
1.06008e-05
0.000774592
1.01461e-05
0.000779724
9.70955e-06
0.000784612
9.28901e-06
0.000789254
8.8825e-06
0.000793652
8.48817e-06
0.000797802
8.10402e-06
0.000801706
7.72817e-06
0.00080536
7.35898e-06
0.000808764
6.99456e-06
0.000811916
6.63341e-06
0.000814813
6.27417e-06
0.000817454
5.91523e-06
0.000819835
5.55567e-06
0.000821955
5.19441e-06
0.000823811
4.83041e-06
0.0008254
4.46343e-06
0.000826719
4.0927e-06
0.000827766
3.71809e-06
0.000828538
3.33981e-06
0.000829034
2.9576e-06
0.000829252
2.57232e-06
2.18387e-06
-0.000266764
-1.60518e-07
-0.00026231
8.07445e-07
-0.00025708
2.36676e-06
-0.000251073
3.61675e-06
-0.000244333
5.11659e-06
-0.000236838
6.50129e-06
-0.000228628
7.96628e-06
-0.000219707
9.37414e-06
-0.000210113
1.07935e-05
-0.000199861
1.21693e-05
-0.000188981
1.35207e-05
-0.000177493
1.48234e-05
-0.000165425
1.60791e-05
-0.000152802
1.72748e-05
-0.000139654
1.84065e-05
-0.000126009
1.94657e-05
-0.000111901
2.04471e-05
-9.73614e-05
2.13447e-05
-8.24265e-05
2.21538e-05
-6.7132e-05
2.28704e-05
-5.15155e-05
2.34914e-05
-3.56154e-05
2.40146e-05
-1.94704e-05
2.44385e-05
-3.11871e-06
2.47623e-05
1.33956e-05
2.49877e-05
3.00412e-05
2.51097e-05
4.67821e-05
2.51341e-05
6.35822e-05
2.50647e-05
8.04063e-05
2.4906e-05
9.72197e-05
2.46638e-05
0.000113987
2.43454e-05
0.000130669
2.39628e-05
0.000147247
2.34981e-05
0.000163703
2.29618e-05
0.000180015
2.23649e-05
0.000196164
2.17153e-05
0.000212129
2.10227e-05
0.000227895
2.02936e-05
0.000243445
1.95354e-05
0.000258765
1.87547e-05
0.000273842
1.79581e-05
0.000288667
1.71523e-05
0.000303227
1.63457e-05
0.000317514
1.55425e-05
0.000331521
1.47461e-05
0.000345242
1.39605e-05
0.000358672
1.31898e-05
0.000371807
1.24374e-05
0.000384646
1.17064e-05
0.000397184
1.09993e-05
0.000409422
1.03184e-05
0.000421358
9.66557e-06
0.000432993
9.04221e-06
0.000444325
8.44945e-06
0.000455358
7.88804e-06
0.00046609
7.35849e-06
0.000476524
6.86101e-06
0.000486662
6.39559e-06
0.000496504
5.96198e-06
0.000506052
5.55974e-06
0.000515309
5.18816e-06
0.000524276
4.8463e-06
0.000532954
4.53304e-06
0.000541345
4.2471e-06
0.00054945
3.98709e-06
0.000557271
3.7515e-06