/*--------------------------------*- C++ -*----------------------------------*\
| =========                 |                                                 |
| \\      /  F ield         | OpenFOAM: The Open Source CFD Toolbox           |
|  \\    /   O peration     | Version:  2312                                  |
|   \\  /    A nd           | Website:  www.openfoam.com                      |
|    \\/     M anipulation  |                                                 |
\*---------------------------------------------------------------------------*/
FoamFile
{
    version     2.0;
    format      ascii;
    arch        "LSB;label=32;scalar=64";
    class       volScalarField;
    location    "117000";
    object      p;
}
// * * * * * * * * * * * * * * * * * * * * * * * * * * * * * * * * * * * * * //

dimensions      [0 2 -2 0 0 0 0];

internalField   nonuniform List<scalar> 
10800
(
5.34733e-07
5.20609e-07
5.06841e-07
4.96263e-07
4.88839e-07
4.83446e-07
4.78993e-07
4.74911e-07
4.71033e-07
4.67366e-07
4.63946e-07
4.60778e-07
4.57828e-07
4.55047e-07
4.52388e-07
4.49818e-07
4.47314e-07
4.44865e-07
4.42459e-07
4.40087e-07
4.37742e-07
4.35414e-07
4.33099e-07
4.3079e-07
4.28482e-07
4.26172e-07
4.23858e-07
4.21535e-07
4.19203e-07
4.1686e-07
4.14504e-07
4.12135e-07
4.09751e-07
4.07353e-07
4.0494e-07
4.02512e-07
4.0007e-07
3.97614e-07
3.95143e-07
3.9266e-07
3.90163e-07
3.87653e-07
3.85132e-07
3.82597e-07
3.8005e-07
3.7749e-07
3.74917e-07
3.72326e-07
3.69723e-07
3.67091e-07
3.64453e-07
3.61757e-07
3.59084e-07
3.56262e-07
3.53593e-07
3.50438e-07
3.4806e-07
3.43629e-07
3.433e-07
3.32678e-07
4.86691e-07
4.84964e-07
4.82318e-07
4.79192e-07
4.75974e-07
4.72878e-07
4.69953e-07
4.67164e-07
4.6446e-07
4.61811e-07
4.5921e-07
4.56663e-07
4.54178e-07
4.51752e-07
4.49382e-07
4.47056e-07
4.44767e-07
4.42505e-07
4.40266e-07
4.38044e-07
4.35835e-07
4.33635e-07
4.3144e-07
4.29248e-07
4.27054e-07
4.24856e-07
4.22653e-07
4.20441e-07
4.18221e-07
4.15989e-07
4.13746e-07
4.1149e-07
4.09221e-07
4.06938e-07
4.04642e-07
4.0233e-07
4.00006e-07
3.97666e-07
3.95316e-07
3.92948e-07
3.90572e-07
3.88175e-07
3.85775e-07
3.83349e-07
3.80927e-07
3.7847e-07
3.7603e-07
3.73537e-07
3.71088e-07
3.68556e-07
3.66117e-07
3.63547e-07
3.61173e-07
3.58584e-07
3.56408e-07
3.53868e-07
3.52225e-07
3.49813e-07
3.49312e-07
3.46612e-07
4.77956e-07
4.77205e-07
4.75791e-07
4.73838e-07
4.71553e-07
4.69131e-07
4.66699e-07
4.64307e-07
4.61959e-07
4.59641e-07
4.57345e-07
4.5507e-07
4.52821e-07
4.50603e-07
4.48418e-07
4.46265e-07
4.44139e-07
4.42035e-07
4.39949e-07
4.37876e-07
4.35813e-07
4.33758e-07
4.31708e-07
4.29661e-07
4.27614e-07
4.25564e-07
4.23512e-07
4.21453e-07
4.19388e-07
4.17315e-07
4.15234e-07
4.13142e-07
4.11041e-07
4.08929e-07
4.06806e-07
4.04671e-07
4.02526e-07
4.00367e-07
3.982e-07
3.96017e-07
3.93828e-07
3.9162e-07
3.89409e-07
3.87177e-07
3.84946e-07
3.82688e-07
3.8044e-07
3.78157e-07
3.75899e-07
3.73592e-07
3.71336e-07
3.69012e-07
3.66778e-07
3.64447e-07
3.62271e-07
3.59945e-07
3.57879e-07
3.55565e-07
3.53647e-07
3.51251e-07
4.66226e-07
4.65793e-07
4.65006e-07
4.63915e-07
4.6259e-07
4.611e-07
4.59504e-07
4.57841e-07
4.56131e-07
4.54387e-07
4.52613e-07
4.50815e-07
4.49001e-07
4.47175e-07
4.45343e-07
4.43508e-07
4.41672e-07
4.39834e-07
4.37994e-07
4.36152e-07
4.34308e-07
4.32459e-07
4.30608e-07
4.28751e-07
4.26889e-07
4.25022e-07
4.23148e-07
4.21267e-07
4.19379e-07
4.17483e-07
4.1558e-07
4.13667e-07
4.11747e-07
4.09817e-07
4.07879e-07
4.05932e-07
4.03977e-07
4.02012e-07
4.0004e-07
3.98056e-07
3.96066e-07
3.94064e-07
3.92055e-07
3.90032e-07
3.88002e-07
3.85956e-07
3.83902e-07
3.81826e-07
3.79743e-07
3.77629e-07
3.75509e-07
3.7335e-07
3.71187e-07
3.68974e-07
3.66761e-07
3.64487e-07
3.62222e-07
3.59878e-07
3.57562e-07
3.55162e-07
4.59535e-07
4.59321e-07
4.58889e-07
4.58243e-07
4.57398e-07
4.56383e-07
4.55231e-07
4.53972e-07
4.52631e-07
4.51225e-07
4.49766e-07
4.48263e-07
4.46724e-07
4.45155e-07
4.43561e-07
4.41948e-07
4.40319e-07
4.38678e-07
4.37025e-07
4.35362e-07
4.33691e-07
4.32012e-07
4.30325e-07
4.28631e-07
4.26931e-07
4.25224e-07
4.23512e-07
4.21793e-07
4.20068e-07
4.18337e-07
4.16601e-07
4.1486e-07
4.13113e-07
4.11362e-07
4.09605e-07
4.07844e-07
4.06079e-07
4.04309e-07
4.02535e-07
4.00756e-07
3.98973e-07
3.97185e-07
3.95393e-07
3.93594e-07
3.91789e-07
3.89978e-07
3.88158e-07
3.86329e-07
3.84488e-07
3.82632e-07
3.80757e-07
3.78854e-07
3.76914e-07
3.74926e-07
3.7287e-07
3.70736e-07
3.68514e-07
3.66211e-07
3.6383e-07
3.61472e-07
4.54024e-07
4.53862e-07
4.53536e-07
4.53051e-07
4.52417e-07
4.5165e-07
4.50768e-07
4.49789e-07
4.48728e-07
4.47599e-07
4.4641e-07
4.4517e-07
4.43886e-07
4.42563e-07
4.41206e-07
4.39821e-07
4.3841e-07
4.36978e-07
4.35528e-07
4.3406e-07
4.32579e-07
4.31084e-07
4.29577e-07
4.28061e-07
4.26535e-07
4.25001e-07
4.23459e-07
4.21911e-07
4.20357e-07
4.18798e-07
4.17235e-07
4.15667e-07
4.14097e-07
4.12524e-07
4.10949e-07
4.09372e-07
4.07794e-07
4.06215e-07
4.04635e-07
4.03055e-07
4.01474e-07
3.99892e-07
3.98309e-07
3.96723e-07
3.95133e-07
3.93537e-07
3.91933e-07
3.90319e-07
3.88689e-07
3.87045e-07
3.85378e-07
3.83694e-07
3.81983e-07
3.80249e-07
3.78469e-07
3.76646e-07
3.74745e-07
3.72789e-07
3.70773e-07
3.68825e-07
4.49689e-07
4.4957e-07
4.49332e-07
4.48976e-07
4.48504e-07
4.47926e-07
4.47248e-07
4.46483e-07
4.45639e-07
4.44725e-07
4.43751e-07
4.42722e-07
4.41644e-07
4.40523e-07
4.39362e-07
4.38168e-07
4.36942e-07
4.3569e-07
4.34415e-07
4.33118e-07
4.31803e-07
4.30472e-07
4.29127e-07
4.27769e-07
4.26401e-07
4.25024e-07
4.23639e-07
4.22248e-07
4.20851e-07
4.19451e-07
4.18049e-07
4.16645e-07
4.1524e-07
4.13836e-07
4.12433e-07
4.11033e-07
4.09635e-07
4.08242e-07
4.06853e-07
4.05469e-07
4.0409e-07
4.02717e-07
4.01349e-07
3.99988e-07
3.98631e-07
3.97281e-07
3.95934e-07
3.94591e-07
3.93246e-07
3.91898e-07
3.90536e-07
3.89157e-07
3.8775e-07
3.86319e-07
3.84854e-07
3.83364e-07
3.81828e-07
3.80271e-07
3.7869e-07
3.772e-07
4.4625e-07
4.46157e-07
4.45972e-07
4.45692e-07
4.45321e-07
4.4486e-07
4.44316e-07
4.43695e-07
4.43003e-07
4.42246e-07
4.4143e-07
4.4056e-07
4.3964e-07
4.38677e-07
4.37674e-07
4.36635e-07
4.35565e-07
4.34466e-07
4.33342e-07
4.32195e-07
4.31028e-07
4.29845e-07
4.28646e-07
4.27434e-07
4.26212e-07
4.2498e-07
4.23742e-07
4.22498e-07
4.21251e-07
4.20001e-07
4.18751e-07
4.17502e-07
4.16255e-07
4.15012e-07
4.13775e-07
4.12544e-07
4.11321e-07
4.10106e-07
4.08902e-07
4.07709e-07
4.06527e-07
4.05359e-07
4.04203e-07
4.03061e-07
4.01932e-07
4.00817e-07
3.99714e-07
3.98624e-07
3.97545e-07
3.96481e-07
3.95424e-07
3.94376e-07
3.93324e-07
3.9227e-07
3.91203e-07
3.90132e-07
3.89046e-07
3.87972e-07
3.86917e-07
3.85986e-07
4.435e-07
4.43424e-07
4.43272e-07
4.43043e-07
4.42738e-07
4.42359e-07
4.41908e-07
4.4139e-07
4.40809e-07
4.4017e-07
4.39476e-07
4.38732e-07
4.37941e-07
4.37108e-07
4.36236e-07
4.3533e-07
4.34391e-07
4.33424e-07
4.32432e-07
4.31417e-07
4.30382e-07
4.29329e-07
4.28262e-07
4.27181e-07
4.26091e-07
4.24992e-07
4.23887e-07
4.22779e-07
4.21668e-07
4.20557e-07
4.19448e-07
4.18342e-07
4.17243e-07
4.16151e-07
4.15068e-07
4.13996e-07
4.12937e-07
4.11893e-07
4.10865e-07
4.09855e-07
4.08865e-07
4.07896e-07
4.06949e-07
4.06027e-07
4.05129e-07
4.04259e-07
4.03415e-07
4.026e-07
4.0181e-07
4.01046e-07
4.00307e-07
3.99595e-07
3.98908e-07
3.98248e-07
3.97609e-07
3.96998e-07
3.96408e-07
3.95863e-07
3.95373e-07
3.95027e-07
4.41312e-07
4.41249e-07
4.41121e-07
4.40927e-07
4.40669e-07
4.40347e-07
4.39964e-07
4.39522e-07
4.39025e-07
4.38474e-07
4.37875e-07
4.37229e-07
4.3654e-07
4.35811e-07
4.35046e-07
4.34247e-07
4.33418e-07
4.32561e-07
4.31679e-07
4.30775e-07
4.29851e-07
4.28911e-07
4.27957e-07
4.2699e-07
4.26014e-07
4.25032e-07
4.24044e-07
4.23054e-07
4.22064e-07
4.21077e-07
4.20093e-07
4.19117e-07
4.18149e-07
4.17193e-07
4.1625e-07
4.15324e-07
4.14415e-07
4.13527e-07
4.12661e-07
4.11821e-07
4.11008e-07
4.10225e-07
4.09475e-07
4.08758e-07
4.08079e-07
4.07439e-07
4.0684e-07
4.06284e-07
4.05771e-07
4.05305e-07
4.04887e-07
4.0452e-07
4.04206e-07
4.03948e-07
4.03744e-07
4.03602e-07
4.03521e-07
4.03521e-07
4.03616e-07
4.0388e-07
4.396e-07
4.39545e-07
4.39434e-07
4.39266e-07
4.39042e-07
4.38762e-07
4.38428e-07
4.38042e-07
4.37607e-07
4.37124e-07
4.36596e-07
4.36026e-07
4.35416e-07
4.34769e-07
4.34088e-07
4.33375e-07
4.32633e-07
4.31865e-07
4.31073e-07
4.30261e-07
4.2943e-07
4.28583e-07
4.27723e-07
4.26852e-07
4.25974e-07
4.25089e-07
4.24202e-07
4.23314e-07
4.22429e-07
4.21547e-07
4.20673e-07
4.19809e-07
4.18957e-07
4.1812e-07
4.17301e-07
4.16502e-07
4.15727e-07
4.14978e-07
4.14258e-07
4.13571e-07
4.12918e-07
4.12305e-07
4.11733e-07
4.11207e-07
4.10728e-07
4.10302e-07
4.09931e-07
4.09617e-07
4.09365e-07
4.09181e-07
4.09067e-07
4.0903e-07
4.09072e-07
4.09199e-07
4.09413e-07
4.09725e-07
4.10137e-07
4.10668e-07
4.11334e-07
4.12193e-07
4.38299e-07
4.3825e-07
4.38151e-07
4.38002e-07
4.37802e-07
4.37552e-07
4.37254e-07
4.3691e-07
4.3652e-07
4.36086e-07
4.35612e-07
4.35099e-07
4.34549e-07
4.33964e-07
4.33347e-07
4.32701e-07
4.32027e-07
4.31329e-07
4.30608e-07
4.29868e-07
4.29111e-07
4.28339e-07
4.27555e-07
4.26762e-07
4.25962e-07
4.25158e-07
4.24353e-07
4.23549e-07
4.22749e-07
4.21956e-07
4.21172e-07
4.20401e-07
4.19645e-07
4.18908e-07
4.18193e-07
4.17502e-07
4.16839e-07
4.16208e-07
4.15611e-07
4.15054e-07
4.14538e-07
4.14069e-07
4.13651e-07
4.13287e-07
4.12983e-07
4.12741e-07
4.12568e-07
4.12468e-07
4.12447e-07
4.12512e-07
4.12669e-07
4.12925e-07
4.13284e-07
4.13757e-07
4.14348e-07
4.1507e-07
4.15931e-07
4.16946e-07
4.18136e-07
4.19543e-07
4.37364e-07
4.37319e-07
4.37229e-07
4.37092e-07
4.36909e-07
4.36681e-07
4.36408e-07
4.36092e-07
4.35734e-07
4.35336e-07
4.349e-07
4.34427e-07
4.3392e-07
4.33381e-07
4.32811e-07
4.32213e-07
4.3159e-07
4.30943e-07
4.30275e-07
4.29589e-07
4.28887e-07
4.28171e-07
4.27445e-07
4.26711e-07
4.25971e-07
4.25228e-07
4.24485e-07
4.23745e-07
4.23011e-07
4.22286e-07
4.21572e-07
4.20873e-07
4.20192e-07
4.19532e-07
4.18898e-07
4.18291e-07
4.17716e-07
4.17177e-07
4.16678e-07
4.16223e-07
4.15816e-07
4.15462e-07
4.15165e-07
4.14931e-07
4.14765e-07
4.14672e-07
4.14659e-07
4.14733e-07
4.149e-07
4.15168e-07
4.15545e-07
4.16039e-07
4.1666e-07
4.17417e-07
4.1832e-07
4.19381e-07
4.20615e-07
4.22035e-07
4.23663e-07
4.25527e-07
4.36764e-07
4.36721e-07
4.36636e-07
4.36508e-07
4.36336e-07
4.36121e-07
4.35864e-07
4.35566e-07
4.35229e-07
4.34854e-07
4.34442e-07
4.33996e-07
4.33517e-07
4.33007e-07
4.32468e-07
4.31902e-07
4.31311e-07
4.30699e-07
4.30066e-07
4.29416e-07
4.28751e-07
4.28073e-07
4.27385e-07
4.2669e-07
4.25991e-07
4.25289e-07
4.24589e-07
4.23893e-07
4.23204e-07
4.22524e-07
4.21858e-07
4.21209e-07
4.20579e-07
4.19973e-07
4.19393e-07
4.18845e-07
4.18331e-07
4.17856e-07
4.17424e-07
4.1704e-07
4.16708e-07
4.16434e-07
4.16223e-07
4.1608e-07
4.16011e-07
4.16023e-07
4.16123e-07
4.16319e-07
4.16619e-07
4.17031e-07
4.17564e-07
4.18229e-07
4.19035e-07
4.19995e-07
4.21122e-07
4.22427e-07
4.23929e-07
4.25641e-07
4.27586e-07
4.29782e-07
4.36478e-07
4.36437e-07
4.36354e-07
4.3623e-07
4.36063e-07
4.35855e-07
4.35606e-07
4.35317e-07
4.3499e-07
4.34626e-07
4.34227e-07
4.33794e-07
4.33328e-07
4.32833e-07
4.32309e-07
4.31759e-07
4.31185e-07
4.3059e-07
4.29975e-07
4.29343e-07
4.28696e-07
4.28038e-07
4.2737e-07
4.26695e-07
4.26016e-07
4.25336e-07
4.24657e-07
4.23983e-07
4.23317e-07
4.22662e-07
4.2202e-07
4.21396e-07
4.20793e-07
4.20214e-07
4.19664e-07
4.19145e-07
4.18663e-07
4.18222e-07
4.17825e-07
4.17478e-07
4.17185e-07
4.16953e-07
4.16785e-07
4.1669e-07
4.16672e-07
4.1674e-07
4.169e-07
4.1716e-07
4.17529e-07
4.18016e-07
4.18632e-07
4.19386e-07
4.20291e-07
4.21358e-07
4.22602e-07
4.24037e-07
4.25681e-07
4.27548e-07
4.2966e-07
4.32033e-07
4.36497e-07
4.36456e-07
4.36373e-07
4.36249e-07
4.36082e-07
4.35874e-07
4.35625e-07
4.35337e-07
4.3501e-07
4.34646e-07
4.34247e-07
4.33814e-07
4.33349e-07
4.32854e-07
4.32331e-07
4.31781e-07
4.31208e-07
4.30612e-07
4.29998e-07
4.29366e-07
4.2872e-07
4.28062e-07
4.27395e-07
4.26721e-07
4.26043e-07
4.25363e-07
4.24686e-07
4.24013e-07
4.23347e-07
4.22693e-07
4.22052e-07
4.21429e-07
4.20827e-07
4.20249e-07
4.197e-07
4.19183e-07
4.18702e-07
4.18261e-07
4.17866e-07
4.1752e-07
4.17229e-07
4.16998e-07
4.16833e-07
4.1674e-07
4.16725e-07
4.16795e-07
4.16958e-07
4.1722e-07
4.17591e-07
4.18081e-07
4.18699e-07
4.19455e-07
4.20363e-07
4.21434e-07
4.22681e-07
4.2412e-07
4.25767e-07
4.27638e-07
4.29755e-07
4.32131e-07
4.3682e-07
4.36778e-07
4.36693e-07
4.36565e-07
4.36393e-07
4.36179e-07
4.35922e-07
4.35625e-07
4.35288e-07
4.34914e-07
4.34503e-07
4.34057e-07
4.33579e-07
4.3307e-07
4.32532e-07
4.31967e-07
4.31378e-07
4.30767e-07
4.30135e-07
4.29487e-07
4.28823e-07
4.28147e-07
4.27461e-07
4.26768e-07
4.26071e-07
4.25372e-07
4.24674e-07
4.2398e-07
4.23293e-07
4.22617e-07
4.21954e-07
4.21307e-07
4.20681e-07
4.20078e-07
4.19502e-07
4.18957e-07
4.18447e-07
4.17976e-07
4.17548e-07
4.17169e-07
4.16842e-07
4.16573e-07
4.16367e-07
4.1623e-07
4.16168e-07
4.16186e-07
4.16293e-07
4.16495e-07
4.16801e-07
4.17221e-07
4.17762e-07
4.18435e-07
4.19251e-07
4.2022e-07
4.21357e-07
4.22673e-07
4.24186e-07
4.2591e-07
4.27866e-07
4.30075e-07
4.37458e-07
4.37413e-07
4.37322e-07
4.37186e-07
4.37004e-07
4.36776e-07
4.36504e-07
4.36189e-07
4.35832e-07
4.35435e-07
4.35e-07
4.34529e-07
4.34023e-07
4.33485e-07
4.32917e-07
4.32321e-07
4.317e-07
4.31055e-07
4.3039e-07
4.29706e-07
4.29007e-07
4.28294e-07
4.27571e-07
4.2684e-07
4.26103e-07
4.25364e-07
4.24625e-07
4.2389e-07
4.2316e-07
4.22439e-07
4.2173e-07
4.21036e-07
4.2036e-07
4.19706e-07
4.19077e-07
4.18477e-07
4.17908e-07
4.17376e-07
4.16884e-07
4.16436e-07
4.16037e-07
4.15691e-07
4.15403e-07
4.15178e-07
4.15022e-07
4.1494e-07
4.14938e-07
4.15023e-07
4.15202e-07
4.15483e-07
4.15873e-07
4.16381e-07
4.17017e-07
4.17789e-07
4.18709e-07
4.19787e-07
4.21039e-07
4.22478e-07
4.24126e-07
4.2601e-07
4.38429e-07
4.3838e-07
4.38281e-07
4.38132e-07
4.37933e-07
4.37685e-07
4.37388e-07
4.37044e-07
4.36655e-07
4.36223e-07
4.35751e-07
4.35239e-07
4.34691e-07
4.34109e-07
4.33495e-07
4.32851e-07
4.3218e-07
4.31485e-07
4.30767e-07
4.30031e-07
4.29277e-07
4.28509e-07
4.2773e-07
4.26941e-07
4.26146e-07
4.25347e-07
4.24547e-07
4.23749e-07
4.22955e-07
4.22168e-07
4.21391e-07
4.20627e-07
4.19879e-07
4.19149e-07
4.18442e-07
4.17759e-07
4.17105e-07
4.16483e-07
4.15897e-07
4.1535e-07
4.14845e-07
4.14387e-07
4.13981e-07
4.1363e-07
4.13338e-07
4.13111e-07
4.12954e-07
4.1287e-07
4.12866e-07
4.12948e-07
4.13123e-07
4.13397e-07
4.13777e-07
4.1427e-07
4.14885e-07
4.1563e-07
4.16516e-07
4.17558e-07
4.18775e-07
4.20208e-07
4.39765e-07
4.3971e-07
4.39599e-07
4.39432e-07
4.39209e-07
4.3893e-07
4.38597e-07
4.38213e-07
4.37779e-07
4.37298e-07
4.36772e-07
4.36204e-07
4.35597e-07
4.34953e-07
4.34275e-07
4.33566e-07
4.32827e-07
4.32063e-07
4.31276e-07
4.30467e-07
4.29641e-07
4.288e-07
4.27945e-07
4.2708e-07
4.26208e-07
4.2533e-07
4.24449e-07
4.23569e-07
4.2269e-07
4.21817e-07
4.20951e-07
4.20096e-07
4.19253e-07
4.18426e-07
4.17617e-07
4.16829e-07
4.16065e-07
4.15328e-07
4.14621e-07
4.13946e-07
4.13307e-07
4.12708e-07
4.12151e-07
4.1164e-07
4.11178e-07
4.10769e-07
4.10417e-07
4.10125e-07
4.09895e-07
4.09733e-07
4.09642e-07
4.09628e-07
4.09695e-07
4.09848e-07
4.10091e-07
4.10432e-07
4.10875e-07
4.11439e-07
4.12139e-07
4.13031e-07
4.41511e-07
4.41447e-07
4.41319e-07
4.41127e-07
4.4087e-07
4.40549e-07
4.40168e-07
4.39727e-07
4.39232e-07
4.38684e-07
4.38087e-07
4.37444e-07
4.36758e-07
4.36033e-07
4.35272e-07
4.34477e-07
4.33652e-07
4.32799e-07
4.31923e-07
4.31024e-07
4.30106e-07
4.29172e-07
4.28224e-07
4.27265e-07
4.26296e-07
4.25321e-07
4.24341e-07
4.2336e-07
4.22379e-07
4.21401e-07
4.20428e-07
4.19462e-07
4.18505e-07
4.17561e-07
4.1663e-07
4.15717e-07
4.14821e-07
4.13947e-07
4.13097e-07
4.12272e-07
4.11476e-07
4.1071e-07
4.09977e-07
4.0928e-07
4.0862e-07
4.08e-07
4.07423e-07
4.06891e-07
4.06404e-07
4.05965e-07
4.05573e-07
4.05235e-07
4.0495e-07
4.04724e-07
4.04553e-07
4.04447e-07
4.04402e-07
4.04441e-07
4.04575e-07
4.04879e-07
4.4373e-07
4.43654e-07
4.43503e-07
4.43275e-07
4.42971e-07
4.42593e-07
4.42144e-07
4.41628e-07
4.4105e-07
4.40413e-07
4.39722e-07
4.38981e-07
4.38194e-07
4.37365e-07
4.36498e-07
4.35596e-07
4.34663e-07
4.33701e-07
4.32715e-07
4.31706e-07
4.30678e-07
4.29632e-07
4.28572e-07
4.275e-07
4.26418e-07
4.25328e-07
4.24233e-07
4.23134e-07
4.22033e-07
4.20933e-07
4.19836e-07
4.18743e-07
4.17656e-07
4.16577e-07
4.15508e-07
4.14451e-07
4.13408e-07
4.1238e-07
4.11369e-07
4.10377e-07
4.09406e-07
4.08456e-07
4.0753e-07
4.0663e-07
4.05755e-07
4.04908e-07
4.0409e-07
4.03301e-07
4.0254e-07
4.01808e-07
4.011e-07
4.00419e-07
3.99765e-07
3.99141e-07
3.9854e-07
3.97969e-07
3.97421e-07
3.96919e-07
3.96474e-07
3.96173e-07
4.46509e-07
4.46417e-07
4.46232e-07
4.45954e-07
4.45583e-07
4.45125e-07
4.44583e-07
4.43964e-07
4.43275e-07
4.42521e-07
4.41708e-07
4.40842e-07
4.39927e-07
4.38968e-07
4.3797e-07
4.36937e-07
4.35872e-07
4.34779e-07
4.33662e-07
4.32522e-07
4.31363e-07
4.30187e-07
4.28997e-07
4.27795e-07
4.26582e-07
4.2536e-07
4.24132e-07
4.229e-07
4.21664e-07
4.20427e-07
4.1919e-07
4.17954e-07
4.16722e-07
4.15494e-07
4.14272e-07
4.13058e-07
4.11852e-07
4.10656e-07
4.09471e-07
4.08298e-07
4.07137e-07
4.05991e-07
4.04859e-07
4.03741e-07
4.02638e-07
4.0155e-07
4.00475e-07
3.99414e-07
3.98365e-07
3.97332e-07
3.96309e-07
3.95298e-07
3.94285e-07
3.93272e-07
3.92247e-07
3.9122e-07
3.90179e-07
3.89152e-07
3.88147e-07
3.87265e-07
4.49976e-07
4.49857e-07
4.4962e-07
4.49264e-07
4.48795e-07
4.48218e-07
4.47543e-07
4.4678e-07
4.45939e-07
4.45029e-07
4.44058e-07
4.43034e-07
4.4196e-07
4.40844e-07
4.39689e-07
4.38501e-07
4.37282e-07
4.36037e-07
4.34769e-07
4.3348e-07
4.32173e-07
4.30851e-07
4.29515e-07
4.28168e-07
4.2681e-07
4.25444e-07
4.24071e-07
4.22692e-07
4.21308e-07
4.19922e-07
4.18534e-07
4.17144e-07
4.15755e-07
4.14368e-07
4.12982e-07
4.116e-07
4.10222e-07
4.08848e-07
4.0748e-07
4.06118e-07
4.04762e-07
4.03413e-07
4.02071e-07
4.00735e-07
3.99406e-07
3.98083e-07
3.96765e-07
3.95453e-07
3.94141e-07
3.92829e-07
3.91506e-07
3.90171e-07
3.88808e-07
3.87422e-07
3.86001e-07
3.84556e-07
3.83068e-07
3.81562e-07
3.80035e-07
3.78599e-07
4.54335e-07
4.54173e-07
4.53849e-07
4.53365e-07
4.52733e-07
4.51968e-07
4.51088e-07
4.50112e-07
4.49055e-07
4.47929e-07
4.46745e-07
4.4551e-07
4.44231e-07
4.42914e-07
4.41563e-07
4.40184e-07
4.38781e-07
4.37357e-07
4.35914e-07
4.34456e-07
4.32983e-07
4.31498e-07
4.30002e-07
4.28496e-07
4.26981e-07
4.25459e-07
4.2393e-07
4.22396e-07
4.20856e-07
4.19311e-07
4.17763e-07
4.16212e-07
4.14659e-07
4.13104e-07
4.11547e-07
4.0999e-07
4.08432e-07
4.06875e-07
4.05318e-07
4.03761e-07
4.02205e-07
4.00649e-07
3.99092e-07
3.97535e-07
3.95975e-07
3.94412e-07
3.92841e-07
3.91263e-07
3.89671e-07
3.88065e-07
3.86438e-07
3.84795e-07
3.83123e-07
3.81431e-07
3.79696e-07
3.77921e-07
3.76074e-07
3.74175e-07
3.72219e-07
3.7033e-07
4.59867e-07
4.59654e-07
4.59223e-07
4.58578e-07
4.57735e-07
4.56722e-07
4.55573e-07
4.54317e-07
4.5298e-07
4.51578e-07
4.50124e-07
4.48626e-07
4.47093e-07
4.4553e-07
4.43943e-07
4.42337e-07
4.40716e-07
4.39083e-07
4.37439e-07
4.35786e-07
4.34125e-07
4.32456e-07
4.30781e-07
4.29099e-07
4.2741e-07
4.25717e-07
4.24017e-07
4.22312e-07
4.20603e-07
4.18888e-07
4.17168e-07
4.15444e-07
4.13715e-07
4.11982e-07
4.10246e-07
4.08505e-07
4.06761e-07
4.05014e-07
4.03263e-07
4.0151e-07
3.99752e-07
3.97992e-07
3.96227e-07
3.94458e-07
3.92684e-07
3.90905e-07
3.89118e-07
3.87324e-07
3.85519e-07
3.83701e-07
3.81865e-07
3.80004e-07
3.78109e-07
3.7617e-07
3.74167e-07
3.72091e-07
3.69925e-07
3.67682e-07
3.65364e-07
3.63065e-07
4.66578e-07
4.66146e-07
4.65359e-07
4.6427e-07
4.62946e-07
4.61459e-07
4.59866e-07
4.58207e-07
4.56502e-07
4.54761e-07
4.52993e-07
4.51201e-07
4.49393e-07
4.47574e-07
4.4575e-07
4.43923e-07
4.42095e-07
4.40266e-07
4.38436e-07
4.36604e-07
4.3477e-07
4.32933e-07
4.31093e-07
4.29249e-07
4.27401e-07
4.25547e-07
4.23687e-07
4.21822e-07
4.19949e-07
4.1807e-07
4.16183e-07
4.14289e-07
4.12387e-07
4.10477e-07
4.0856e-07
4.06634e-07
4.04702e-07
4.02761e-07
4.00813e-07
3.98856e-07
3.96892e-07
3.94919e-07
3.92939e-07
3.90948e-07
3.88951e-07
3.86939e-07
3.84921e-07
3.82884e-07
3.80841e-07
3.7877e-07
3.76695e-07
3.74583e-07
3.72468e-07
3.70306e-07
3.68147e-07
3.65927e-07
3.63717e-07
3.61427e-07
3.59163e-07
3.56821e-07
4.7832e-07
4.7757e-07
4.76157e-07
4.74206e-07
4.71923e-07
4.69504e-07
4.67076e-07
4.64688e-07
4.62344e-07
4.60032e-07
4.57742e-07
4.55473e-07
4.53231e-07
4.51021e-07
4.48844e-07
4.467e-07
4.44583e-07
4.42489e-07
4.40413e-07
4.38351e-07
4.36299e-07
4.34257e-07
4.32219e-07
4.30185e-07
4.28151e-07
4.26116e-07
4.24079e-07
4.22036e-07
4.19987e-07
4.17931e-07
4.15867e-07
4.13794e-07
4.11713e-07
4.0962e-07
4.07519e-07
4.05406e-07
4.03284e-07
4.01149e-07
3.99007e-07
3.96851e-07
3.94689e-07
3.9251e-07
3.9033e-07
3.88129e-07
3.85931e-07
3.83707e-07
3.81496e-07
3.7925e-07
3.77031e-07
3.74765e-07
3.72551e-07
3.70272e-07
3.68085e-07
3.65802e-07
3.63679e-07
3.61409e-07
3.59402e-07
3.5715e-07
3.55299e-07
3.5297e-07
4.87068e-07
4.85341e-07
4.82696e-07
4.79572e-07
4.76357e-07
4.73264e-07
4.70343e-07
4.67559e-07
4.6486e-07
4.62216e-07
4.59622e-07
4.57082e-07
4.54605e-07
4.52188e-07
4.49826e-07
4.4751e-07
4.4523e-07
4.4298e-07
4.40751e-07
4.38541e-07
4.36344e-07
4.34157e-07
4.31975e-07
4.29796e-07
4.27617e-07
4.25434e-07
4.23246e-07
4.2105e-07
4.18846e-07
4.16632e-07
4.14407e-07
4.1217e-07
4.09921e-07
4.07658e-07
4.05383e-07
4.03094e-07
4.00794e-07
3.98479e-07
3.96154e-07
3.93813e-07
3.91465e-07
3.89098e-07
3.86729e-07
3.84335e-07
3.81948e-07
3.79525e-07
3.77123e-07
3.74669e-07
3.72259e-07
3.6977e-07
3.67374e-07
3.64851e-07
3.62523e-07
3.59985e-07
3.5786e-07
3.55375e-07
3.53789e-07
3.51437e-07
3.50998e-07
3.48364e-07
5.35114e-07
5.20991e-07
5.07225e-07
4.96649e-07
4.89228e-07
4.83839e-07
4.7939e-07
4.75313e-07
4.71441e-07
4.6778e-07
4.64368e-07
4.61207e-07
4.58266e-07
4.55494e-07
4.52844e-07
4.50283e-07
4.47791e-07
4.45352e-07
4.42958e-07
4.40598e-07
4.38265e-07
4.35951e-07
4.33649e-07
4.31354e-07
4.29061e-07
4.26767e-07
4.24467e-07
4.22161e-07
4.19846e-07
4.1752e-07
4.15182e-07
4.12832e-07
4.10467e-07
4.0809e-07
4.05698e-07
4.03293e-07
4.00874e-07
3.98442e-07
3.95997e-07
3.9354e-07
3.91072e-07
3.88591e-07
3.861e-07
3.83598e-07
3.81084e-07
3.78559e-07
3.76022e-07
3.7347e-07
3.70906e-07
3.68316e-07
3.6572e-07
3.63068e-07
3.60441e-07
3.57667e-07
3.55046e-07
3.51943e-07
3.49614e-07
3.4524e-07
3.44966e-07
3.34393e-07
3.72479e-07
3.21907e-07
3.00874e-07
2.83261e-07
2.65584e-07
2.47797e-07
2.27906e-07
2.06711e-07
1.81942e-07
1.55361e-07
1.24413e-07
9.20925e-08
5.53217e-08
1.84882e-08
-2.2234e-08
-6.09776e-08
-1.02946e-07
-1.40663e-07
-1.81243e-07
-2.15393e-07
-2.5253e-07
-2.81426e-07
-3.14006e-07
-3.36466e-07
-3.64795e-07
-3.78707e-07
-4.07125e-07
-4.08063e-07
-4.42826e-07
-5.44004e-07
3.58549e-07
3.03418e-07
2.89369e-07
2.74341e-07
2.57347e-07
2.39978e-07
2.20397e-07
1.99359e-07
1.74788e-07
1.48574e-07
1.18264e-07
8.68094e-08
5.12179e-08
1.57146e-08
-2.34749e-08
-6.07445e-08
-1.00913e-07
-1.37138e-07
-1.75861e-07
-2.09022e-07
-2.44818e-07
-2.73018e-07
-3.05396e-07
-3.27196e-07
-3.56142e-07
-3.70675e-07
-3.95967e-07
-4.10172e-07
-4.16526e-07
-5.64323e-07
3.4633e-07
3.00949e-07
2.87935e-07
2.73403e-07
2.55912e-07
2.37552e-07
2.1745e-07
1.96071e-07
1.71452e-07
1.45114e-07
1.15042e-07
8.36911e-08
4.86641e-08
1.35251e-08
-2.47601e-08
-6.14187e-08
-1.00578e-07
-1.3642e-07
-1.74536e-07
-2.07274e-07
-2.42604e-07
-2.70664e-07
-3.01795e-07
-3.25268e-07
-3.51341e-07
-3.71942e-07
-3.9108e-07
-4.19687e-07
-4.01735e-07
-5.02984e-07
3.36124e-07
2.9682e-07
2.81719e-07
2.67707e-07
2.50914e-07
2.33171e-07
2.13259e-07
1.91721e-07
1.67155e-07
1.40672e-07
1.10927e-07
7.96099e-08
4.53386e-08
1.04299e-08
-2.66404e-08
-6.30498e-08
-1.00667e-07
-1.36371e-07
-1.72319e-07
-2.05522e-07
-2.38049e-07
-2.68257e-07
-2.96382e-07
-3.23199e-07
-3.45038e-07
-3.71736e-07
-3.8139e-07
-4.19571e-07
-3.96857e-07
-4.64928e-07
3.26266e-07
2.94198e-07
2.78235e-07
2.6537e-07
2.49131e-07
2.30594e-07
2.10161e-07
1.88059e-07
1.63453e-07
1.36568e-07
1.0707e-07
7.54963e-08
4.19156e-08
6.93762e-09
-2.89481e-08
-6.53548e-08
-1.01334e-07
-1.37145e-07
-1.71117e-07
-2.05028e-07
-2.35435e-07
-2.67001e-07
-2.92192e-07
-3.2183e-07
-3.39658e-07
-3.69845e-07
-3.76188e-07
-4.11739e-07
-4.02473e-07
-4.37666e-07
3.1763e-07
2.9244e-07
2.75656e-07
2.6232e-07
2.46345e-07
2.2771e-07
2.07094e-07
1.84507e-07
1.59776e-07
1.32465e-07
1.03085e-07
7.12104e-08
3.81499e-08
3.0626e-09
-3.18262e-08
-6.82198e-08
-1.02743e-07
-1.38617e-07
-1.70835e-07
-2.05085e-07
-2.33542e-07
-2.65737e-07
-2.89168e-07
-3.19562e-07
-3.36446e-07
-3.65783e-07
-3.75134e-07
-4.02752e-07
-4.07896e-07
-4.25301e-07
3.10557e-07
2.90897e-07
2.7402e-07
2.59816e-07
2.43951e-07
2.25249e-07
2.04382e-07
1.81226e-07
1.56189e-07
1.28405e-07
9.89536e-08
6.67891e-08
3.40038e-08
-1.10017e-09
-3.53101e-08
-7.14595e-08
-1.0497e-07
-1.40458e-07
-1.71555e-07
-2.05328e-07
-2.32875e-07
-2.64447e-07
-2.87732e-07
-3.16868e-07
-3.35368e-07
-3.61462e-07
-3.75681e-07
-3.96863e-07
-4.09086e-07
-4.22229e-07
3.05279e-07
2.89457e-07
2.73088e-07
2.5791e-07
2.41799e-07
2.22942e-07
2.01758e-07
1.78043e-07
1.52533e-07
1.24293e-07
9.4575e-08
6.22029e-08
2.94323e-08
-5.52813e-09
-3.94013e-08
-7.50238e-08
-1.07991e-07
-1.42623e-07
-1.73227e-07
-2.05844e-07
-2.33326e-07
-2.63385e-07
-2.87486e-07
-3.14486e-07
-3.35179e-07
-3.58282e-07
-3.75963e-07
-3.94079e-07
-4.08859e-07
-4.21386e-07
3.01874e-07
2.88111e-07
2.72399e-07
2.56561e-07
2.39896e-07
2.20711e-07
1.99117e-07
1.74869e-07
1.48761e-07
1.20073e-07
8.99263e-08
5.74068e-08
2.44523e-08
-1.0252e-08
-4.4036e-08
-7.89529e-08
-1.11677e-07
-1.452e-07
-1.7563e-07
-2.06825e-07
-2.34473e-07
-2.62889e-07
-2.87696e-07
-3.12966e-07
-3.34949e-07
-3.56587e-07
-3.7559e-07
-3.93141e-07
-4.08517e-07
-4.21818e-07
3.00092e-07
2.86928e-07
2.7179e-07
2.55573e-07
2.38195e-07
2.18492e-07
1.96366e-07
1.71587e-07
1.44809e-07
1.15657e-07
8.49846e-08
5.2322e-08
1.90884e-08
-1.53392e-08
-4.91298e-08
-8.3318e-08
-1.15865e-07
-1.48287e-07
-1.78521e-07
-2.08402e-07
-2.36003e-07
-2.631e-07
-2.88095e-07
-3.12298e-07
-3.34644e-07
-3.55733e-07
-3.75093e-07
-3.92762e-07
-4.08604e-07
-4.22694e-07
2.99449e-07
2.86054e-07
2.71132e-07
2.54656e-07
2.3656e-07
2.162e-07
1.93424e-07
1.68077e-07
1.40604e-07
1.10951e-07
7.9717e-08
4.68664e-08
1.33454e-08
-2.08589e-08
-5.46325e-08
-8.81771e-08
-1.20462e-07
-1.51931e-07
-1.81786e-07
-2.10595e-07
-2.37829e-07
-2.63953e-07
-2.88681e-07
-3.12214e-07
-3.34442e-07
-3.55301e-07
-3.74766e-07
-3.92685e-07
-4.09039e-07
-4.23847e-07
2.99364e-07
2.85526e-07
2.70442e-07
2.53614e-07
2.34814e-07
2.13722e-07
1.90212e-07
1.64236e-07
1.3606e-07
1.0586e-07
7.40628e-08
4.09622e-08
7.18285e-09
-2.6874e-08
-6.05622e-08
-9.35723e-08
-1.25477e-07
-1.56142e-07
-1.85444e-07
-2.13358e-07
-2.40002e-07
-2.6533e-07
-2.89562e-07
-3.12554e-07
-3.34495e-07
-3.55173e-07
-3.74673e-07
-3.92825e-07
-4.09637e-07
-4.25158e-07
2.99431e-07
2.85196e-07
2.69674e-07
2.52317e-07
2.32797e-07
2.10938e-07
1.86647e-07
1.59974e-07
1.31079e-07
1.00285e-07
6.79292e-08
3.4521e-08
5.13003e-10
-3.34597e-08
-6.70038e-08
-9.95582e-08
-1.30998e-07
-1.60946e-07
-1.89587e-07
-2.16682e-07
-2.42627e-07
-2.67199e-07
-2.90845e-07
-3.13282e-07
-3.34888e-07
-3.55314e-07
-3.74841e-07
-3.93105e-07
-4.10379e-07
-4.26428e-07
2.99403e-07
2.84851e-07
2.68743e-07
2.50704e-07
2.30416e-07
2.07759e-07
1.82648e-07
1.55204e-07
1.25556e-07
9.41133e-08
6.11923e-08
2.74271e-08
-6.79446e-09
-4.07279e-08
-7.40911e-08
-1.06232e-07
-1.37155e-07
-1.66418e-07
-1.94338e-07
-2.20629e-07
-2.45805e-07
-2.6961e-07
-2.92598e-07
-3.14444e-07
-3.35642e-07
-3.55766e-07
-3.75237e-07
-3.93562e-07
-4.11177e-07
-4.27692e-07
2.99193e-07
2.843e-07
2.67559e-07
2.48755e-07
2.27638e-07
2.04122e-07
1.78129e-07
1.49828e-07
1.19364e-07
8.72085e-08
5.36948e-08
1.95273e-08
-1.49108e-08
-4.88335e-08
-8.19963e-08
-1.13734e-07
-1.44106e-07
-1.72679e-07
-1.9983e-07
-2.25293e-07
-2.49642e-07
-2.72634e-07
-2.94893e-07
-3.16083e-07
-3.36793e-07
-3.56537e-07
-3.75872e-07
-3.94168e-07
-4.12048e-07
-4.28891e-07
2.98863e-07
2.83504e-07
2.66109e-07
2.46492e-07
2.24462e-07
1.99977e-07
1.72992e-07
1.4372e-07
1.12349e-07
7.93993e-08
4.52444e-08
1.06282e-08
-2.4041e-08
-5.79688e-08
-9.09142e-08
-1.22237e-07
-1.52019e-07
-1.79869e-07
-2.06196e-07
-2.30782e-07
-2.54231e-07
-2.76347e-07
-2.97781e-07
-3.18242e-07
-3.38348e-07
-3.5764e-07
-3.7671e-07
-3.94914e-07
-4.12934e-07
-4.30033e-07
2.98593e-07
2.8255e-07
2.64439e-07
2.43936e-07
2.20865e-07
1.95245e-07
1.67103e-07
1.36711e-07
1.04313e-07
7.04716e-08
3.56113e-08
5.00722e-10
-3.44142e-08
-6.83469e-08
-1.01048e-07
-1.3192e-07
-1.61057e-07
-1.88126e-07
-2.13561e-07
-2.37195e-07
-2.5966e-07
-2.8081e-07
-3.01316e-07
-3.20946e-07
-3.40321e-07
-3.59058e-07
-3.77722e-07
-3.95755e-07
-4.13767e-07
-4.31085e-07
2.98632e-07
2.81604e-07
2.62594e-07
2.41041e-07
2.16729e-07
1.89754e-07
1.60249e-07
1.28559e-07
9.4996e-08
6.0158e-08
2.45257e-08
-1.11156e-08
-4.62785e-08
-8.01945e-08
-1.12605e-07
-1.42964e-07
-1.71383e-07
-1.97588e-07
-2.22045e-07
-2.44633e-07
-2.66022e-07
-2.86092e-07
-3.05565e-07
-3.24227e-07
-3.42749e-07
-3.60779e-07
-3.78904e-07
-3.96618e-07
-4.14505e-07
-4.31929e-07
2.99099e-07
2.80772e-07
2.60526e-07
2.37607e-07
2.11779e-07
1.83199e-07
1.52111e-07
1.18937e-07
8.40663e-08
4.81303e-08
1.16692e-08
-2.45207e-08
-5.99128e-08
-9.37669e-08
-1.25818e-07
-1.55581e-07
-1.83188e-07
-2.08429e-07
-2.31805e-07
-2.53237e-07
-2.73442e-07
-2.92307e-07
-3.10626e-07
-3.28166e-07
-3.45698e-07
-3.62834e-07
-3.80261e-07
-3.97461e-07
-4.15044e-07
-4.32417e-07
2.99761e-07
2.79872e-07
2.57903e-07
2.33197e-07
2.0554e-07
1.75111e-07
1.42234e-07
1.07399e-07
7.10848e-08
3.39623e-08
-3.36607e-09
-4.00998e-08
-7.56783e-08
-1.09402e-07
-1.41002e-07
-1.7007e-07
-1.9675e-07
-2.20913e-07
-2.43081e-07
-2.63232e-07
-2.82116e-07
-2.99634e-07
-3.16653e-07
-3.32891e-07
-3.49273e-07
-3.65279e-07
-3.81836e-07
-3.98216e-07
-4.15303e-07
-4.3226e-07
2.99837e-07
2.78108e-07
2.54076e-07
2.27229e-07
1.97428e-07
1.64891e-07
1.30009e-07
9.33403e-08
5.54545e-08
1.70705e-08
-2.11443e-08
-5.83929e-08
-9.40868e-08
-1.27582e-07
-1.58613e-07
-1.86862e-07
-2.12479e-07
-2.35433e-07