/*--------------------------------*- C++ -*----------------------------------*\
| =========                 |                                                 |
| \\      /  F ield         | OpenFOAM: The Open Source CFD Toolbox           |
|  \\    /   O peration     | Version:  2312                                  |
|   \\  /    A nd           | Website:  www.openfoam.com                      |
|    \\/     M anipulation  |                                                 |
\*---------------------------------------------------------------------------*/
FoamFile
{
    version     2.0;
    format      ascii;
    arch        "LSB;label=32;scalar=64";
    class       surfaceScalarField;
    location    "117000";
    object      phi;
}
// * * * * * * * * * * * * * * * * * * * * * * * * * * * * * * * * * * * * * //

dimensions      [0 3 -1 0 0 0 0];

oriented        oriented;

internalField   nonuniform List<scalar> 
21240
(
0.000664975
1.69213e-06
0.000661073
3.90203e-06
0.000655752
5.3202e-06
0.000649517
6.23542e-06
0.000642643
6.87378e-06
0.000635273
7.36997e-06
0.000627499
7.77446e-06
0.000619398
8.10032e-06
0.000611045
8.35355e-06
0.000602502
8.54313e-06
0.00059382
8.68137e-06
0.00058504
8.78057e-06
0.000576189
8.85037e-06
0.000567292
8.89707e-06
0.000558368
8.92451e-06
0.000549433
8.93515e-06
0.000540502
8.93081e-06
0.000531589
8.91308e-06
0.000522705
8.88327e-06
0.000513863
8.84247e-06
0.000505072
8.79149e-06
0.000496341
8.73094e-06
0.000487679
8.66122e-06
0.000479097
8.58266e-06
0.000470601
8.49545e-06
0.000462202
8.39974e-06
0.000453906
8.29567e-06
0.000445723
8.18323e-06
0.00043766
8.06255e-06
0.000429727
7.93349e-06
0.00042193
7.79627e-06
0.00041428
7.65054e-06
0.000406783
7.49681e-06
0.000399449
7.3343e-06
0.000392285
7.1641e-06
0.0003853
6.98468e-06
0.000378502
6.79824e-06
0.0003719
6.60179e-06
0.0003655
6.39957e-06
0.000359314
6.18589e-06
0.000353346
5.96878e-06
0.000347608
5.73745e-06
0.000342101
5.50688e-06
0.000336844
5.25688e-06
0.000331829
5.01513e-06
0.000327085
4.74413e-06
0.00032259
4.49478e-06
0.000318393
4.19762e-06
0.000314446
3.94643e-06
0.000310835
3.61171e-06
0.000307466
3.36901e-06
0.000304495
2.97037e-06
0.000301736
2.75918e-06
0.000299507
2.22887e-06
0.000297397
2.11002e-06
0.000296162
1.23463e-06
0.000294694
1.46835e-06
0.000294916
-2.21435e-07
0.000293764
1.15129e-06
-3.20668e-06
0.000296971
0.000667556
8.02769e-07
0.000669121
2.33724e-06
0.000670855
3.58627e-06
0.000672526
4.56369e-06
0.000674056
5.34389e-06
0.000675431
5.99566e-06
0.000676645
6.56064e-06
0.000677688
7.05722e-06
0.000678549
7.49247e-06
0.000679221
7.87083e-06
0.000679704
8.19792e-06
0.000680004
8.48067e-06
0.000680129
8.7261e-06
0.000680086
8.94007e-06
0.000679883
9.1269e-06
0.000679529
9.28953e-06
0.00067903
9.43011e-06
0.000678392
9.55021e-06
0.000677624
9.6513e-06
0.000676732
9.73443e-06
0.000675723
9.80074e-06
0.000674603
9.85076e-06
0.000673379
9.88536e-06
0.000672057
9.90457e-06
0.000670644
9.90915e-06
0.000669145
9.8987e-06
0.000667566
9.8741e-06
0.000665915
9.83442e-06
0.000664197
9.78097e-06
0.000662418
9.71202e-06
0.000660585
9.62968e-06
0.000658704
9.53108e-06
0.000656781
9.41972e-06
0.000654825
9.29083e-06
0.000652838
9.15031e-06
0.000650833
8.9903e-06
0.00064881
8.82069e-06
0.000646784
8.6285e-06
0.000644753
8.43024e-06
0.000642734
8.20449e-06
0.000640725
7.97867e-06
0.000638745
7.71738e-06
0.000636785
7.4661e-06
0.000634876
7.16627e-06
0.000632998
6.89315e-06
0.000631192
6.54994e-06
0.000629426
6.26105e-06
0.000627757
5.86656e-06
0.000626131
5.57189e-06
0.00062463
5.11323e-06
0.00062317
4.82912e-06
0.000621854
4.28591e-06
0.000620575
4.03872e-06
0.000619423
3.38037e-06
0.000618322
3.21086e-06
0.000617159
2.39814e-06
0.000616266
2.36092e-06
0.000614669
1.37603e-06
0.0006143
1.51979e-06
4.31276e-07
0.000610662
0.000666951
5.18394e-07
0.000667819
1.46931e-06
0.000669059
2.3458e-06
0.000670485
3.13796e-06
0.000671987
3.84164e-06
0.000673519
4.46449e-06
0.00067506
5.01874e-06
0.000676602
5.5155e-06
0.000678132
5.96258e-06
0.000679638
6.36489e-06
0.00068111
6.72599e-06
0.000682542
7.04912e-06
0.00068393
7.33783e-06
0.000685274
7.5956e-06
0.000686575
7.8257e-06
0.000687834
8.03076e-06
0.000689051
8.21303e-06
0.000690227
8.37404e-06
0.000691363
8.5153e-06
0.00069246
8.6377e-06
0.000693519
8.74243e-06
0.000694539
8.8299e-06
0.000695524
8.90112e-06
0.000696472
8.95601e-06
0.000697386
8.99555e-06
0.000698265
9.01912e-06
0.000699112
9.02787e-06
0.000699925
9.02057e-06
0.000700708
8.99877e-06
0.000701459
8.96043e-06
0.000702181
8.90789e-06
0.000702874
8.83794e-06
0.00070354
8.75418e-06
0.000704179
8.65173e-06
0.000704793
8.53611e-06
0.000705383
8.40004e-06
0.000705952
8.25193e-06
0.0007065
8.08096e-06
0.00070703
7.89981e-06
0.000707542
7.69253e-06
0.000708043
7.47801e-06
0.000708527
7.23295e-06
0.000709008
6.98506e-06
0.000709474
6.70073e-06
0.000709947
6.41991e-06
0.000710402
6.09498e-06
0.000710881
5.78225e-06
0.000711331
5.4158e-06
0.000711831
5.07272e-06
0.000712279
4.66481e-06
0.000712815
4.29319e-06
0.000713255
3.84601e-06
0.000713846
3.44745e-06
0.000714258
2.96858e-06
0.000714925
2.54412e-06
0.000715268
2.05433e-06
0.000716026
1.60345e-06
0.000716249
1.15324e-06
0.000717105
6.63484e-07
3.55085e-07
0.000717181
0.000666854
3.3117e-07
0.000667309
1.0143e-06
0.000667973
1.68205e-06
0.000668797
2.3137e-06
0.000669738
2.90007e-06
0.000670765
3.43825e-06
0.000671854
3.92982e-06
0.000672991
4.37843e-06
0.000674165
4.78799e-06
0.000675368
5.16175e-06
0.000676592
5.50222e-06
0.00067783
5.81144e-06
0.000679076
6.09143e-06
0.000680328
6.34414e-06
0.000681582
6.57162e-06
0.000682837
6.77569e-06
0.000684092
6.95803e-06
0.000685346
7.11998e-06
0.000686599
7.26275e-06
0.000687849
7.38719e-06
0.000689097
7.4942e-06
0.000690343
7.58428e-06
0.000691586
7.65813e-06
0.000692826
7.71599e-06
0.000694063
7.75838e-06
0.000695297
7.78527e-06
0.000696528
7.79708e-06
0.000697755
7.79355e-06
0.000698978
7.77504e-06
0.000700198
7.74109e-06
0.000701414
7.69201e-06
0.000702624
7.62724e-06
0.000703832
7.54697e-06
0.000705033
7.45065e-06
0.00070623
7.33828e-06
0.000707421
7.20951e-06
0.000708609
7.06386e-06
0.000709788
6.90165e-06
0.000710967
6.72135e-06
0.000712135
6.52478e-06
0.000713304
6.30822e-06
0.000714461
6.07654e-06
0.000715624
5.82184e-06
0.00071677
5.55477e-06
0.00071793
5.25958e-06
0.000719068
4.95759e-06
0.000720231
4.61895e-06
0.000721363
4.28397e-06
0.000722537
3.89814e-06
0.000723667
3.53493e-06
0.000724863
3.09732e-06
0.000725994
2.71553e-06
0.000727221
2.22016e-06
0.000728353
1.83684e-06
0.000729622
1.27486e-06
0.000730758
9.18452e-07
0.000732082
2.78771e-07
0.000733233
3.21743e-09
0.000734697
-8.00938e-07
-9.62622e-07
0.000736015
0.000666738
2.59394e-07
0.00066697
7.82829e-07
0.000667357
1.29532e-06
0.00066788
1.78989e-06
0.00066852
2.26063e-06
0.000669254
2.70398e-06
0.000670066
3.11847e-06
0.00067094
3.5042e-06
0.000671866
3.86206e-06
0.000672834
4.19317e-06
0.000673838
4.49863e-06
0.00067487
4.77942e-06
0.000675925
5.03649e-06
0.000676998
5.27082e-06
0.000678086
5.48345e-06
0.000679187
5.67541e-06
0.000680297
5.8477e-06
0.000681416
6.00124e-06
0.000682542
6.1368e-06
0.000683674
6.2551e-06
0.000684811
6.35667e-06
0.000685953
6.44206e-06
0.0006871
6.5116e-06
0.00068825
6.56574e-06
0.000689404
6.60456e-06
0.000690561
6.62847e-06
0.000691721
6.6373e-06
0.000692883
6.63148e-06
0.000694047
6.6105e-06
0.000695213
6.57499e-06
0.000696381
6.52395e-06
0.00069755
6.4584e-06
0.000698721
6.37664e-06
0.000699891
6.28043e-06
0.000701062
6.16695e-06
0.000702232
6.03927e-06
0.000703404
5.89272e-06
0.000704573
5.73263e-06
0.000705743
5.55136e-06
0.000706909
5.35793e-06
0.000708078
5.13992e-06
0.000709242
4.91242e-06
0.000710408
4.65523e-06
0.00071157
4.39337e-06
0.000712735
4.09408e-06
0.000713895
3.79838e-06
0.00071506
3.45325e-06
0.000716219
3.12523e-06
0.000717388
2.72874e-06
0.000718552
2.37099e-06
0.000719735
1.91445e-06
0.000720919
1.5315e-06
0.000722137
1.00193e-06
0.000723372
6.01799e-07
0.000724674
-2.66261e-08
0.000725994
-4.01559e-07
0.000727383
-1.10979e-06
0.000728855
-1.46923e-06
0.000730391
-2.33667e-06
-2.64581e-06
0.000732074
0.000666724
2.01968e-07
0.000666899
6.0755e-07
0.000667184
1.01026e-06
0.000667571
1.4036e-06
0.000668047
1.78385e-06
0.000668603
2.14811e-06
0.000669228
2.49431e-06
0.00066991
2.82124e-06
0.000670644
3.12836e-06
0.000671422
3.41552e-06
0.000672238
3.68282e-06
0.000673087
3.93054e-06
0.000673964
4.15904e-06
0.000674866
4.36877e-06
0.000675789
4.5602e-06
0.000676731
4.73387e-06
0.000677688
4.89029e-06
0.000678659
5.03e-06
0.000679643
5.15346e-06
0.000680637
5.26115e-06
0.00068164
5.35337e-06
0.000682652
5.43057e-06
0.00068367
5.49286e-06
0.000684695
5.54066e-06
0.000685726
5.57388e-06
0.000686762
5.59295e-06
0.000687801
5.59754e-06
0.000688845
5.58817e-06
0.000689891
5.56416e-06
0.00069094
5.52625e-06
0.00069199
5.47328e-06
0.000693042
5.40641e-06
0.000694095
5.32376e-06
0.000695149
5.2272e-06
0.000696202
5.1138e-06
0.000697254
4.98662e-06
0.000698306
4.84103e-06
0.000699357
4.68208e-06
0.000700405
4.50252e-06
0.000701453
4.31055e-06
0.000702498
4.09479e-06
0.000703542
3.86846e-06
0.000704583
3.61371e-06
0.000705625
3.35166e-06
0.000706665
3.05433e-06
0.000707708
2.75534e-06
0.00070875
2.41101e-06
0.000709801
2.07481e-06
0.000710851
1.67873e-06
0.000711914
1.30731e-06
0.000712974
8.54501e-07
0.000714052
4.53157e-07
0.000715116
-6.13165e-08
0.000716226
-5.08772e-07
0.000717325
-1.12536e-06
0.000718508
-1.58459e-06
0.000719703
-2.30462e-06
0.000721005
-2.77171e-06
0.000722302
-3.63341e-06
-4.08674e-06
0.000723743
0.000666708
1.60187e-07
0.000666834
4.8215e-07
0.000667041
8.0308e-07
0.000667326
1.11843e-06
0.000667684
1.42567e-06
0.00066811
1.72267e-06
0.000668596
2.00773e-06
0.000669138
2.27962e-06
0.000669729
2.53759e-06
0.000670363
2.7813e-06
0.000671036
3.00938e-06
0.000671745
3.22197e-06
0.000672485
3.41921e-06
0.000673252
3.60121e-06
0.000674045
3.76809e-06
0.000674858
3.92006e-06
0.000675691
4.05732e-06
0.000676541
4.18014e-06
0.000677406
4.28873e-06
0.000678284
4.38336e-06
0.000679173
4.46415e-06
0.000680072
4.53139e-06
0.00068098
4.58508e-06
0.000681895
4.62547e-06
0.000682816
4.65246e-06
0.000683743
4.66632e-06
0.000684674
4.66674e-06
0.000685608
4.65405e-06
0.000686544
4.6277e-06
0.000687483
4.58818e-06
0.000688421
4.53457e-06
0.00068936
4.46762e-06
0.000690298
4.38591e-06
0.000691234
4.29067e-06
0.000692169
4.1797e-06
0.0006931
4.05503e-06
0.000694028
3.91329e-06
0.000694952
3.75778e-06
0.000695871
3.58336e-06
0.000696786
3.39538e-06
0.000697695
3.18594e-06
0.0006986
2.96367e-06
0.000699497
2.71641e-06
0.000700391
2.45804e-06
0.000701276
2.16971e-06
0.000702158
1.87338e-06
0.000703029
1.53942e-06
0.000703902
1.2022e-06
0.000704765
8.15101e-07
0.000705641
4.32222e-07
0.000706516
-2.1013e-08
0.000707409
-4.40164e-07
0.000708303
-9.54488e-07
0.00070922
-1.42638e-06
0.000710123
-2.0282e-06
0.000711085
-2.54651e-06
0.000712034
-3.25326e-06
0.000713076
-3.81422e-06
0.000714097
-4.65389e-06
-5.24676e-06
0.000715257
0.000666699
1.28103e-07
0.000666796
3.85159e-07
0.000666957
6.41714e-07
0.000667181
8.94589e-07
0.000667465
1.14205e-06
0.000667805
1.38258e-06
0.000668198
1.61487e-06
0.000668639
1.83782e-06
0.000669126
2.05058e-06
0.000669655
2.25243e-06
0.000670222
2.44275e-06
0.000670823
2.62116e-06
0.000671454
2.78745e-06
0.000672114
2.94151e-06
0.000672799
3.08329e-06
0.000673506
3.21278e-06
0.000674234
3.32997e-06
0.000674979
3.43494e-06
0.00067574
3.52772e-06
0.000676515
3.60841e-06
0.000677302
3.67703e-06
0.000678099
3.73367e-06
0.000678906
3.77832e-06
0.000679721
3.81107e-06
0.000680541
3.8318e-06
0.000681367
3.84061e-06
0.000682196
3.83728e-06
0.000683029
3.82191e-06
0.000683862
3.79414e-06
0.000684696
3.75412e-06
0.00068553
3.70126e-06
0.000686361
3.63584e-06
0.00068719
3.55697e-06
0.000688016
3.46513e-06
0.000688837
3.35901e-06
0.000689652
3.23945e-06
0.000690461
3.10449e-06
0.000691263
2.95558e-06
0.000692057
2.78981e-06
0.000692842
2.6096e-06
0.000693618
2.41059e-06
0.000694385
2.19674e-06
0.00069514
1.96148e-06
0.000695886
1.71123e-06
0.00069662
1.43605e-06
0.000697347
1.14635e-06
0.000698059
8.27177e-07
0.000698766
4.95488e-07
0.000699452
1.2969e-07
0.000700136
-2.52537e-07
0.000700799
-6.83353e-07
0.000701476
-1.11762e-06
0.000702134
-1.61287e-06
0.000702812
-2.10425e-06
0.000703464
-2.67951e-06
0.000704152
-3.23509e-06
0.000704806
-3.90664e-06
0.000705522
-4.53014e-06
0.000706185
-5.31763e-06
-6.00893e-06
0.000706947
0.000666693
1.01884e-07
0.000666772
3.06144e-07
0.000666904
5.1011e-07
0.000667087
7.11468e-07
0.00066732
9.08998e-07
0.000667601
1.1016e-06
0.000667927
1.28826e-06
0.000668297
1.46812e-06
0.000668707
1.64042e-06
0.000669155
1.80453e-06
0.000669638
1.95994e-06
0.000670153
2.10623e-06
0.000670697
2.24308e-06
0.000671268
2.37024e-06
0.000671864
2.48755e-06
0.000672482
2.59487e-06
0.00067312
2.69211e-06
0.000673776
2.77919e-06
0.000674447
2.85606e-06
0.000675133
2.92269e-06
0.000675831
2.97905e-06
0.00067654
3.0251e-06
0.000677257
3.0608e-06
0.000677982
3.08612e-06
0.000678713
3.10096e-06
0.000679448
3.10528e-06
0.000680187
3.09892e-06
0.000680927
3.08182e-06
0.000681667
3.05375e-06
0.000682407
3.01461e-06
0.000683144
2.96409e-06
0.000683877
2.90208e-06
0.000684606
2.82813e-06
0.000685329
2.74213e-06
0.000686045
2.64347e-06
0.000686752
2.53208e-06
0.00068745
2.4071e-06
0.000688137
2.26857e-06
0.000688811
2.1153e-06
0.000689473
1.94749e-06
0.00069012
1.76352e-06
0.000690753
1.56387e-06
0.000691368
1.3463e-06
0.000691968
1.11174e-06
0.000692547
8.57076e-07
0.000693109
5.83936e-07
0.000693648
2.88021e-07
0.000694171
-2.71576e-08
0.000694675
-3.73872e-07
0.000695164
-7.4188e-07
0.000695622
-1.1418e-06
0.000696071
-1.56622e-06
0.000696487
-2.02875e-06
0.0006969
-2.51756e-06
0.000697274
-3.05321e-06
0.000697656
-3.61677e-06
0.000697988
-4.23889e-06
0.000698347
-4.8888e-06
0.000698642
-5.61281e-06
-6.35993e-06
0.000698993
0.000666689
7.97748e-08
0.000666755
2.39596e-07
0.000666866
3.99209e-07
0.000667021
5.569e-07
0.000667218
7.11794e-07
0.000667457
8.63084e-07
0.000667735
1.01003e-06
0.000668051
1.15196e-06
0.000668403
1.28827e-06
0.000668789
1.41846e-06
0.000669207
1.54207e-06
0.000669655
1.65871e-06
0.00067013
1.76808e-06
0.00067063
1.86989e-06
0.000671153
1.96393e-06
0.000671698
2.05002e-06
0.000672262
2.12801e-06
0.000672844
2.19778e-06
0.000673441
2.25921e-06
0.000674051
2.31223e-06
0.000674673
2.35674e-06
0.000675306
2.39266e-06
0.000675947
2.41992e-06
0.000676594
2.43842e-06
0.000677247
2.44808e-06
0.000677904
2.44876e-06
0.000678562
2.44036e-06
0.000679222
2.4227e-06
0.00067988
2.39567e-06
0.000680535
2.359e-06
0.000681187
2.31256e-06
0.000681833
2.256e-06
0.000682472
2.18917e-06
0.000683102
2.1116e-06
0.000683723
2.02314e-06
0.000684332
1.92314e-06
0.000684927
1.81152e-06
0.000685508
1.68734e-06
0.000686073
1.55066e-06
0.00068662
1.40013e-06
0.000687148
1.2361e-06
0.000687655
1.0566e-06
0.000688139
8.62504e-07
0.0006886
6.50915e-07
0.000689033
4.23711e-07
0.00068944
1.76861e-07
0.000689816
-8.76481e-08
0.000690169
-3.80136e-07
0.000690485
-6.90168e-07
0.000690773
-1.0295e-06
0.000691019
-1.38829e-06
0.000691237
-1.78386e-06
0.000691407
-2.19905e-06
0.000691551
-2.66111e-06
0.000691639
-3.14128e-06
0.000691705
-3.6828e-06
0.000691704
-4.23783e-06
0.00069169
-4.87493e-06
0.000691592
-5.51479e-06
-6.26537e-06
0.000691497
0.000666686
6.06116e-08
0.000666743
1.81956e-07
0.00066684
3.03121e-07
0.000666974
4.22855e-07
0.000667145
5.40531e-07
0.000667352
6.55568e-07
0.000667595
7.67428e-07
0.000667871
8.7561e-07
0.00066818
9.79665e-07
0.000668519
1.07918e-06
0.000668887
1.17381e-06
0.000669283
1.26321e-06
0.000669704
1.34712e-06
0.000670149
1.42529e-06
0.000670615
1.4975e-06
0.000671101
1.56358e-06
0.000671606
1.62338e-06
0.000672127
1.67674e-06
0.000672663
1.72357e-06
0.000673211
1.76373e-06
0.000673771
1.79714e-06
0.00067434
1.82368e-06
0.000674916
1.84329e-06
0.000675499
1.85581e-06
0.000676086
1.8612e-06
0.000676675
1.85927e-06
0.000677266
1.84996e-06
0.000677855
1.83304e-06
0.000678443
1.80847e-06
0.000679026
1.77591e-06
0.000679603
1.73533e-06
0.000680173
1.68629e-06
0.000680733
1.62881e-06
0.000681282
1.56225e-06
0.000681819
1.48674e-06
0.000682341
1.40134e-06
0.000682846
1.30642e-06
0.000683332
1.20056e-06
0.000683799
1.08454e-06
0.000684242
9.56245e-07
0.000684661
8.17111e-07
0.000685054
6.63947e-07
0.000685417
4.99335e-07
0.00068575
3.18433e-07
0.000686048
1.25959e-07
0.000686312
-8.71728e-08
0.000686539
-3.15023e-07
0.000686726
-5.67025e-07
0.000686867
-8.31078e-07
0.000686964
-1.12653e-06
0.000687008
-1.43266e-06
0.000687004
-1.78001e-06
0.00068694
-2.13436e-06
0.000686823
-2.54432e-06
0.000686635
-2.95367e-06
0.000686393
-3.44015e-06
0.000686066
-3.91167e-06
0.000685684
-4.49279e-06
0.000685202
-5.03258e-06
-5.73028e-06
0.000684667
0.000666684
4.35594e-08
0.000666735
1.3069e-07
0.00066682
2.17645e-07
0.00066694
3.03549e-07
0.000667092
3.87969e-07
0.000667277
4.70503e-07
0.000667494
5.50777e-07
0.000667741
6.28439e-07
0.000668018
7.03165e-07
0.000668322
7.74658e-07
0.000668653
8.42652e-07
0.00066901
9.069e-07
0.00066939
9.6719e-07
0.000669792
1.02332e-06
0.000670214
1.07513e-06
0.000670655
1.12246e-06
0.000671113
1.16518e-06
0.000671587
1.20315e-06
0.000672074
1.23629e-06
0.000672573
1.26448e-06
0.000673083
1.28764e-06
0.000673601
1.30565e-06
0.000674126
1.31845e-06
0.000674656
1.3259e-06
0.000675189
1.32797e-06
0.000675724
1.32447e-06
0.000676258
1.31538e-06
0.000676791
1.30046e-06
0.00067732
1.2797e-06
0.000677843
1.25279e-06
0.000678358
1.21975e-06
0.000678864
1.18014e-06
0.000679359
1.13406e-06
0.000679841
1.08087e-06
0.000680307
1.02082e-06
0.000680755
9.52945e-07
0.000681184
8.77786e-07
0.00068159
7.93878e-07
0.000681973
7.02229e-07
0.000682328
6.00619e-07
0.000682654
4.90846e-07
0.000682949
3.69513e-07
0.000683208
2.39764e-07
0.00068343
9.65368e-08
0.000683612
-5.58492e-08
0.000683752
-2.27382e-07
0.000683844
-4.0697e-07
0.000683886
-6.0832e-07
0.000683872
-8.17132e-07
0.0006838
-1.05454e-06
0.000683664
-1.29688e-06
0.000683462
-1.57776e-06
0.000683186
-1.8583e-06
0.000682834
-2.19229e-06
0.000682396
-2.51606e-06
0.000681872
-2.91606e-06
0.000681248
-3.288e-06
0.000680527
-3.77119e-06
0.000679688
-4.19448e-06
-4.78254e-06
0.000678741
0.000666682
2.79721e-08
0.000666729
8.38442e-08
0.000666807
1.39533e-07
0.000666916
1.94486e-07
0.000667056
2.48433e-07
0.000667225
3.01125e-07
0.000667424
3.52327e-07
0.00066765
4.01816e-07
0.000667904
4.49388e-07
0.000668184
4.94851e-07
0.000668488
5.38033e-07
0.000668817
5.78772e-07
0.000669167
6.16927e-07
0.000669538
6.52363e-07
0.000669928
6.84966e-07
0.000670336
7.14627e-07
0.00067076
7.41256e-07
0.000671198
7.64757e-07
0.000671649
7.85062e-07
0.000672112
8.02083e-07
0.000672584
8.15764e-07
0.000673063
8.26016e-07
0.000673549
8.32796e-07
0.000674039
8.36e-07
0.000674531
8.35595e-07
0.000675024
8.3145e-07
0.000675516
8.23545e-07
0.000676005
8.11704e-07
0.000676489
7.95929e-07
0.000676965
7.75972e-07
0.000677433
7.51879e-07
0.00067789
7.2329e-07
0.000678334
6.90331e-07
0.000678762
6.52472e-07
0.000679173
6.09977e-07
0.000679564
5.6206e-07
0.000679933
5.09216e-07
0.000680276
4.50262e-07
0.000680592
3.86088e-07
0.000680878
3.14892e-07
0.000681131
2.38229e-07
0.000681347
1.53369e-07
0.000681523
6.31118e-08
0.000681657
-3.74728e-08
0.000681747
-1.45013e-07
0.000681784
-2.64908e-07
0.000681767
-3.9008e-07
0.00068169
-5.31542e-07
0.000681551
-6.77239e-07
0.000681341
-8.44572e-07
0.000681057
-1.01367e-06
0.000680692
-1.21236e-06
0.000680242
-1.40806e-06
0.000679695
-1.64547e-06
0.00067905
-1.87117e-06
0.000678291
-2.15721e-06
0.000677419
-2.41598e-06
0.000676412
-2.76409e-06
0.000675275
-3.05736e-06
-3.48491e-06
0.000673977
0.000666681
1.33131e-08
0.000666725
3.97988e-08
0.000666799
6.60899e-08
0.000666901
9.19265e-08
0.000667033
1.17184e-07
0.000667192
1.41748e-07
0.000667379
1.65511e-07
0.000667592
1.88369e-07
0.000667831
2.10229e-07
0.000668095
2.31002e-07
0.000668383
2.5061e-07
0.000668692
2.68976e-07
0.000669023
2.86034e-07
0.000669374
3.01723e-07
0.000669743
3.15988e-07
0.000670129
3.28778e-07
0.00067053
3.4005e-07
0.000670945
3.49758e-07
0.000671372
3.57868e-07
0.00067181
3.64339e-07
0.000672257
3.69142e-07
0.00067271
3.72233e-07
0.00067317
3.73591e-07
0.000673632
3.73161e-07
0.000674097
3.70928e-07
0.000674562
3.66823e-07
0.000675024
3.60837e-07
0.000675483
3.52873e-07
0.000675936
3.42939e-07
0.000676381
3.30896e-07
0.000676816
3.16774e-07
0.000677239
3.00377e-07
0.000677648
2.81777e-07
0.00067804
2.60684e-07
0.000678412
2.3725e-07
0.000678763
2.1104e-07
0.00067909
1.82341e-07
0.00067939
1.505e-07
0.00067966
1.16038e-07
0.000679897
7.79756e-08
0.000680098
3.72439e-08
0.000680259
-7.69125e-09
0.000680379
-5.63566e-08
0.000680451
-1.10165e-07
0.000680473
-1.66848e-07
0.000680438
-2.30294e-07
0.000680345
-2.9638e-07
0.000680184
-3.712e-07
0.000679955
-4.47956e-07
0.000679647
-5.36379e-07
0.000679259
-6.25308e-07
0.000678777
-7.30341e-07
0.000678202
-8.33148e-07
0.000677515
-9.58805e-07
0.000676721
-1.07721e-06
0.000675793
-1.2289e-06
0.000674741
-1.36441e-06
0.000673527
-1.54955e-06
0.000672172
-1.70269e-06
-1.93097e-06
0.000670618
0.000666681
-8.87727e-10
0.000666724
-2.87518e-09
0.000666795
-5.06256e-09
0.000666894
-7.43888e-09
0.000667021
-9.99044e-09
0.000667176
-1.27038e-08
0.000667357
-1.55657e-08
0.000667564
-1.85633e-08
0.000667796
-2.16837e-08
0.000668052
-2.49145e-08
0.00066833
-2.82434e-08
0.000668631
-3.16586e-08
0.000668952
-3.51483e-08
0.000669293
-3.87015e-08
0.000669651
-4.23075e-08
0.000670026
-4.59562e-08
0.000670415
-4.96382e-08
0.000670818
-5.33448e-08
0.000671233
-5.70679e-08
0.000671659
-6.08006e-08
0.000672092
-6.45362e-08
0.000672533
-6.82692e-08
0.000672978
-7.19944e-08
0.000673427
-7.57076e-08
0.000673877
-7.94055e-08
0.000674327
-8.30858e-08
0.000674775
-8.67468e-08
0.000675218
-9.03882e-08
0.000675655
-9.40102e-08
0.000676084
-9.7614e-08
0.000676502
-1.01202e-07
0.000676907
-1.04775e-07
0.000677297
-1.08339e-07
0.00067767
-1.11896e-07
0.000678022
-1.15452e-07
0.000678352
-1.19008e-07
0.000678657
-1.2257e-07
0.000678934
-1.26143e-07
0.00067918
-1.29735e-07
0.000679391
-1.33366e-07
0.000679565
-1.37074e-07
0.000679698
-1.40915e-07
0.000679787
-1.44979e-07
0.000679826
-1.49144e-07
0.000679813
-1.53386e-07
0.00067974
-1.57749e-07
0.000679606
-1.62262e-07
0.000679402
-1.66838e-07
0.000679125
-1.71493e-07
0.000678765
-1.76274e-07
0.000678321
-1.81326e-07
0.000677777
-1.86601e-07
0.000677136
-1.92191e-07
0.000676376
-1.97992e-07
0.000675502
-2.04158e-07
0.000674484
-2.10556e-07
0.000673337
-2.17392e-07
0.000672012
-2.24477e-07
0.000670541
-2.32049e-07
-2.39878e-07
0.00066885
0.000666681
-1.50845e-08
0.000666724
-4.5516e-08
0.000666795
-7.61637e-08
0.000666894
-1.0673e-07
0.000667021
-1.37065e-07
0.000667175
-1.67028e-07
0.000667356
-1.96485e-07
0.000667563
-2.25308e-07
0.000667795
-2.53378e-07
0.00066805
-2.80581e-07
0.000668329
-3.06813e-07
0.000668629
-3.31975e-07
0.00066895
-3.55977e-07
0.00066929
-3.78736e-07
0.000669648
-4.00177e-07
0.000670022
-4.20226e-07
0.000670411
-4.38824e-07
0.000670814
-4.55906e-07
0.000671228
-4.71424e-07
0.000671653
-4.8532e-07
0.000672086
-4.97555e-07
0.000672526
-5.08071e-07
0.00067297
-5.16839e-07
0.000673419
-5.23795e-07
0.000673868
-5.28917e-07
0.000674317
-5.32132e-07
0.000674764
-5.33427e-07
0.000675206
-5.32706e-07
0.000675642
-5.29974e-07
0.00067607
-5.25098e-07
0.000676486
-5.18111e-07
0.000676891
-5.08821e-07
0.00067728
-4.97308e-07
0.000677651
-4.8329e-07
0.000678002
-4.66929e-07
0.000678331
-4.478e-07
0.000678635
-4.26204e-07
0.00067891
-4.01497e-07
0.000679155
-3.7421e-07
0.000679365
-3.43352e-07
0.000679537
-3.09822e-07
0.000679669
-2.72069e-07
0.000679755
-2.316e-07
0.000679792
-1.85991e-07
0.000679776
-1.37788e-07
0.000679702
-8.31981e-08
0.000679566
-2.65714e-08
0.00067936
3.92018e-08
0.000679082
1.0696e-07
0.000678719
1.85897e-07
0.000678273
2.64752e-07
0.000677727
3.5936e-07
0.000677084
4.51095e-07
0.000676321
5.65316e-07
0.000675445
6.71471e-07
0.000674424
8.10546e-07
0.000673274
9.32431e-07
0.000671946
1.1036e-06
0.000670473
1.24154e-06
1.45432e-06
0.000668778
0.000666681
-2.97169e-08
0.000666725
-8.94772e-08
0.000666799
-1.4946e-07
0.000666901
-2.09073e-07
0.000667032
-2.68024e-07
0.000667191
-3.26035e-07
0.000667377
-3.82847e-07
0.00066759
-4.38212e-07
0.000667829
-4.919e-07
0.000668092
-5.43695e-07
0.000668378
-5.93401e-07
0.000668687
-6.40831e-07
0.000669017
-6.85822e-07
0.000669367
-7.28219e-07
0.000669734
-7.67885e-07
0.000670119
-8.04691e-07
0.000670518
-8.38529e-07
0.000670932
-8.69288e-07
0.000671357
-8.9688e-07
0.000671793
-9.21207e-07
0.000672238
-9.42198e-07
0.000672689
-9.59754e-07
0.000673146
-9.73821e-07
0.000673607
-9.84288e-07
0.000674069
-9.91115e-07
0.000674531
-9.94166e-07
0.000674991
-9.93418e-07
0.000675447
-9.88694e-07
0.000675897
-9.79998e-07
0.000676339
-9.67082e-07
0.000676771
-9.49997e-07
0.000677191
-9.28389e-07
0.000677596
-9.02388e-07
0.000677984
-8.71476e-07
0.000678353
-8.35924e-07
0.0006787
-7.94956e-07
0.000679023
-7.49081e-07
0.000679319
-6.97124e-07
0.000679584
-6.39992e-07
0.000679817
-5.75885e-07
0.000680013
-5.06377e-07
0.00068017
-4.28686e-07
0.000680284
-3.45499e-07
0.00068035
-2.52493e-07
0.000680367
-1.54208e-07
0.000680328
-4.40781e-08
0.000680229
7.23943e-08
0.000680062
2.0559e-07
0.000679827
3.42329e-07
0.000679513
5.00396e-07
0.000679118
6.59665e-07
0.000678629
8.48255e-07
0.000678047
1.03313e-06
0.000677352
1.25948e-06
0.000676551
1.47317e-06
0.000675614
1.74708e-06
0.000674554
1.99245e-06
0.000673331
2.32724e-06
0.000671967
2.60549e-06
3.01847e-06
0.000670403
0.000666682
-4.52635e-08
0.000666729
-1.3619e-07
0.000666807
-2.27336e-07
0.000666916
-3.17786e-07
0.000667055
-4.07086e-07
0.000667223
-4.94808e-07
0.000667421
-5.80551e-07
0.000667647
-6.6394e-07
0.0006679
-7.44627e-07
0.000668178
-8.2229e-07
0.000668481
-8.96639e-07
0.000668808
-9.67406e-07
0.000669156
-1.03435e-06
0.000669525
-1.09726e-06
0.000669914
-1.15595e-06
0.000670319
-1.21023e-06
0.000670741
-1.25997e-06
0.000671176
-1.30501e-06
0.000671625
-1.34524e-06
0.000672084
-1.38053e-06
0.000672553
-1.4108e-06
0.000673029
-1.43591e-06
0.000673511
-1.4558e-06
0.000673997
-1.47031e-06
0.000674485
-1.47941e-06
0.000674974
-1.4829e-06
0.000675461
-1.48076e-06
0.000675945
-1.47275e-06
0.000676424
-1.45887e-06
0.000676896
-1.43879e-06
0.000677358
-1.41255e-06
0.00067781
-1.37971e-06
0.000678248
-1.34038e-06
0.00067867
-1.29392e-06
0.000679075
-1.2406e-06
0.000679459
-1.17946e-06
0.000679821
-1.11105e-06
0.000680158
-1.03392e-06
0.000680467
-9.49092e-07
0.000680746
-8.54352e-07
0.000680991
-7.51521e-07
0.000681199
-6.37179e-07
0.000681368
-5.1447e-07
0.000681494
-3.78091e-07
0.000681573
-2.33409e-07
0.000681601
-7.24229e-08
0.000681575
9.83289e-08
0.000681489
2.91966e-07
0.000681339
4.9225e-07
0.000681119
7.2084e-07
0.000680825
9.53682e-07
0.000680448
1.22493e-06
0.000679986
1.495e-06
0.000679427
1.81857e-06
0.000678769
2.13072e-06
0.000677997
2.51939e-06
0.000677111
2.87827e-06
0.000676089
3.34921e-06
0.000674937
3.75771e-06
4.33264e-06
0.000673623
0.000666684
-6.22598e-08
0.000666735
-1.87273e-07
0.00066682
-3.12485e-07
0.000666939
-4.36608e-07
0.000667091
-5.58993e-07
0.000667275
-6.79034e-07
0.00066749
-7.96169e-07
0.000667736
-9.09873e-07
0.000668011
-1.01967e-06
0.000668314
-1.12514e-06
0.000668644
-1.22588e-06
0.000668998
-1.32157e-06
0.000669375
-1.41189e-06
0.000669775
-1.49658e-06
0.000670194
-1.57541e-06
0.000670632
-1.64819e-06
0.000671087
-1.71473e-06
0.000671557
-1.77489e-06
0.00067204
-1.82854e-06
0.000672535
-1.87553e-06
0.00067304
-1.91578e-06
0.000673553
-1.94915e-06
0.000674073
-1.97555e-06
0.000674597
-1.99486e-06
0.000675125
-2.00699e-06
0.000675654
-2.01178e-06
0.000676182
-2.00914e-06
0.000676708
-1.99885e-06
0.00067723
-1.98086e-06
0.000677746
-1.95485e-06
0.000678255
-1.92079e-06
0.000678753
-1.87823e-06
0.00067924
-1.82722e-06
0.000679713
-1.76709e-06
0.000680171
-1.69802e-06
0.00068061
-1.61905e-06
0.00068103
-1.53058e-06
0.000681427
-1.4312e-06
0.0006818
-1.32169e-06
0.000682145
-1.19995e-06
0.000682461
-1.06744e-06
0.000682745
-9.2094e-07
0.000682994
-7.63077e-07
0.000683204
-5.88903e-07
0.000683374
-4.03011e-07
0.000683499
-1.97885e-07
0.00068358
1.80548e-08
0.000683608
2.63813e-07
0.00068358
5.19826e-07
0.000683494
8.07045e-07
0.000683344
1.10418e-06
0.000683126
1.44262e-06
0.000682834
1.78701e-06
0.000682465
2.18739e-06
0.00068201
2.58561e-06
0.000681468
3.06185e-06
0.000680825
3.52075e-06
0.000680083
4.09103e-06
0.000679225
4.61634e-06
5.30282e-06
0.000678255
0.000666686
-8.13516e-08
0.000666743
-2.44679e-07
0.000666839
-4.08157e-07
0.000666972
-5.70038e-07
0.000667143
-7.29424e-07
0.000667349
-8.85486e-07
0.00066759
-1.03746e-06
0.000667865
-1.18465e-06
0.000668172
-1.32644e-06
0.000668509
-1.46229e-06
0.000668875
-1.59172e-06
0.000669268
-1.71435e-06
0.000669686
-1.82981e-06
0.000670127
-1.93783e-06
0.00067059
-2.03817e-06
0.000671072
-2.13062e-06
0.000671572
-2.21503e-06
0.000672089
-2.29124e-06
0.000672619
-2.35916e-06
0.000673163
-2.41866e-06
0.000673716
-2.46966e-06
0.000674279
-2.51206e-06
0.00067485
-2.54578e-06
0.000675425
-2.57071e-06
0.000676005
-2.58676e-06
0.000676587
-2.5938e-06
0.00067717
-2.59171e-06
0.000677751
-2.58033e-06
0.00067833
-2.55953e-06
0.000678904
-2.52905e-06
0.000679472
-2.48876e-06
0.000680032
-2.43833e-06
0.000680583
-2.37759e-06
0.000681122
-2.3061e-06
0.000681647
-2.2237e-06
0.000682158
-2.12976e-06
0.000682652
-2.02421e-06
0.000683126
-1.90612e-06
0.00068358
-1.77557e-06
0.000684012
-1.63121e-06
0.000684418
-1.47344e-06
0.000684797
-1.30024e-06
0.000685146
-1.11256e-06
0.000685465
-9.07397e-07
0.000685749
-6.86698e-07
0.000685997
-4.45959e-07
0.000686204
-1.89171e-07
0.000686375
9.2313e-08
0.000686499
3.95811e-07
0.000686579
7.27842e-07
0.000686605
1.0782e-06
0.000686582
1.46566e-06
0.000686497
1.87149e-06
0.000686359
2.32504e-06
0.00068615
2.79467e-06
0.000685885
3.32725e-06
0.000685536
3.87016e-06
0.000685128
4.49809e-06
0.000684621
5.12383e-06
5.86543e-06
0.000684058
0.000666689
-1.03374e-07
0.000666755
-3.10944e-07
0.000666865
-5.18556e-07
0.000667019
-7.23864e-07
0.000667215
-9.25626e-07