/*--------------------------------*- C++ -*----------------------------------*\
| =========                 |                                                 |
| \\      /  F ield         | OpenFOAM: The Open Source CFD Toolbox           |
|  \\    /   O peration     | Version:  2312                                  |
|   \\  /    A nd           | Website:  www.openfoam.com                      |
|    \\/     M anipulation  |                                                 |
\*---------------------------------------------------------------------------*/
FoamFile
{
    version     2.0;
    format      ascii;
    arch        "LSB;label=32;scalar=64";
    class       surfaceScalarField;
    location    "90000";
    object      phi;
}
// * * * * * * * * * * * * * * * * * * * * * * * * * * * * * * * * * * * * * //

dimensions      [0 3 -1 0 0 0 0];

oriented        oriented;

internalField   nonuniform List<scalar> 
21240
(
0.000664974
1.6922e-06
0.000661072
3.90225e-06
0.000655752
5.3206e-06
0.000649516
6.23602e-06
0.000642641
6.87461e-06
0.00063527
7.37106e-06
0.000627494
7.77584e-06
0.000619392
8.10201e-06
0.000611037
8.35556e-06
0.000602491
8.5455e-06
0.000593807
8.68412e-06
0.000585023
8.78372e-06
0.000576169
8.85393e-06
0.000567268
8.90107e-06
0.000558339
8.92895e-06
0.000549399
8.94004e-06
0.000540463
8.93617e-06
0.000531544
8.9189e-06
0.000522655
8.88956e-06
0.000513805
8.84922e-06
0.000505007
8.7987e-06
0.000496268
8.7386e-06
0.000487599
8.66932e-06
0.000479008
8.59117e-06
0.000470503
8.50436e-06
0.000462094
8.40902e-06
0.000453789
8.30529e-06
0.000445596
8.19317e-06
0.000437523
8.07277e-06
0.000429579
7.94396e-06
0.000421772
7.80697e-06
0.000414111
7.66141e-06
0.000406603
7.50782e-06
0.000399257
7.34541e-06
0.000392082
7.17528e-06
0.000385086
6.9959e-06
0.000378277
6.80945e-06
0.000371664
6.61298e-06
0.000365253
6.4107e-06
0.000359056
6.19695e-06
0.000353076
5.97972e-06
0.000347328
5.74828e-06
0.000341811
5.51756e-06
0.000336543
5.26743e-06
0.000331518
5.02551e-06
0.000326763
4.75438e-06
0.000322258
4.50484e-06
0.000318051
4.20755e-06
0.000314095
3.95615e-06
0.000310473
3.62131e-06
0.000307095
3.37838e-06
0.000304115
2.97961e-06
0.000301347
2.7681e-06
0.00029911
2.23767e-06
0.000296992
2.1179e-06
0.000295749
1.24268e-06
0.000294274
1.47547e-06
0.000294487
-2.13892e-07
0.00029333
1.1576e-06
-3.20463e-06
0.000296534
0.000667556
8.02878e-07
0.000669121
2.33762e-06
0.000670854
3.58698e-06
0.000672525
4.56478e-06
0.000674055
5.34541e-06
0.000675428
5.99765e-06
0.000676641
6.56314e-06
0.000677683
7.06029e-06
0.000678542
7.49614e-06
0.000679212
7.87514e-06
0.000679694
8.20292e-06
0.000679991
8.48638e-06
0.000680112
8.73256e-06
0.000680066
8.9473e-06
0.00067986
9.13494e-06
0.000679502
9.29839e-06
0.000678998
9.43982e-06
0.000678356
9.56077e-06
0.000677583
9.66272e-06
0.000676685
9.74672e-06
0.00067567
9.81389e-06
0.000674544
9.86477e-06
0.000673313
9.9002e-06
0.000671984
9.92024e-06
0.000670563
9.92563e-06
0.000669056
9.91596e-06
0.000667469
9.89211e-06
0.000665809
9.85314e-06
0.000664082
9.80035e-06
0.000662293
9.73204e-06
0.00066045
9.65029e-06
0.000658559
9.55223e-06
0.000656626
9.44135e-06
0.000654658
9.31291e-06
0.000652661
9.17277e-06
0.000650644
9.01311e-06
0.000648609
8.84378e-06
0.00064657
8.65185e-06
0.000644527
8.45378e-06
0.000642496
8.2282e-06
0.000640473
8.00248e-06
0.00063848
7.7413e-06
0.000636508
7.49004e-06
0.000634585
7.19025e-06
0.000632693
6.91712e-06
0.000630874
6.57389e-06
0.000629094
6.28496e-06
0.000627411
5.89037e-06
0.000625771
5.59568e-06
0.000624256
5.13681e-06
0.000622782
4.85273e-06
0.000621452
4.30907e-06
0.000620158
4.0621e-06
0.000618993
3.40283e-06
0.000617877
3.23396e-06
0.0006167
2.4195e-06
0.000615792
2.38385e-06
0.000614182
1.39595e-06
0.000613796
1.54316e-06
4.50227e-07
0.000610141
0.000666951
5.18549e-07
0.000667819
1.46984e-06
0.000669059
2.34679e-06
0.000670484
3.13947e-06
0.000671986
3.84374e-06
0.000673516
4.46724e-06
0.000675057
5.0222e-06
0.000676598
5.51972e-06
0.000678126
5.96762e-06
0.000679631
6.3708e-06
0.000681101
6.73281e-06
0.00068253
7.0569e-06
0.000683916
7.34661e-06
0.000685258
7.60541e-06
0.000686556
7.83658e-06
0.000687812
8.04273e-06
0.000689026
8.22611e-06
0.000690198
8.38825e-06
0.00069133
8.53066e-06
0.000692423
8.65421e-06
0.000693477
8.7601e-06
0.000694493
8.84872e-06
0.000695472
8.92108e-06
0.000696415
8.9771e-06
0.000697323
9.01776e-06
0.000698196
9.04242e-06
0.000699036
9.05224e-06
0.000699843
9.04597e-06
0.000700619
9.02517e-06
0.000701363
8.9878e-06
0.000702077
8.93618e-06
0.000702762
8.86711e-06
0.000703419
8.78418e-06
0.00070405
8.68252e-06
0.000704655
8.56763e-06
0.000705236
8.43226e-06
0.000705795
8.28478e-06
0.000706332
8.1144e-06
0.000706852
7.9338e-06
0.000707353
7.72702e-06
0.000707843
7.51297e-06
0.000708316
7.26831e-06
0.000708785
7.02082e-06
0.000709238
6.73679e-06
0.000709699
6.45635e-06
0.000710142
6.13158e-06
0.000710607
5.81923e-06
0.000711045
5.45279e-06
0.00071153
5.11017e-06
0.000711965
4.70204e-06
0.000712487
4.33108e-06
0.000712913
3.88335e-06
0.000713489
3.48584e-06
0.000713886
3.00591e-06
0.000714537
2.58307e-06
0.000714865
2.09142e-06
0.000715605
1.64317e-06
0.000715811
1.19006e-06
0.00071665
7.04641e-07
3.9199e-07
0.000716708
0.000666854
3.3136e-07
0.000667309
1.01496e-06
0.000667972
1.68327e-06
0.000668796
2.31557e-06
0.000669737
2.90267e-06
0.000670763
3.44166e-06
0.000671851
3.93411e-06
0.000672987
4.38367e-06
0.00067416
4.79425e-06
0.000675362
5.16908e-06
0.000676584
5.51068e-06
0.00067782
5.82109e-06
0.000679064
6.1023e-06
0.000680313
6.35628e-06
0.000681565
6.58506e-06
0.000682817
6.79046e-06
0.000684069
6.97416e-06
0.00068532
7.13749e-06
0.000686569
7.28165e-06
0.000687816
7.4075e-06
0.00068906
7.51591e-06
0.000690301
7.6074e-06
0.00069154
7.68265e-06
0.000692775
7.7419e-06
0.000694007
7.78566e-06
0.000695235
7.81391e-06
0.000696461
7.82706e-06
0.000697682
7.82484e-06
0.000698899
7.8076e-06
0.000700112
7.77491e-06
0.000701321
7.72704e-06
0.000702525
7.66344e-06
0.000703725
7.58431e-06
0.000704918
7.48907e-06
0.000706108
7.37776e-06
0.00070729
7.24999e-06
0.00070847
7.10531e-06
0.00070964
6.94402e-06
0.00071081
6.76462e-06
0.000711968
6.56886e-06
0.000713127
6.35314e-06
0.000714274
6.1222e-06
0.000715426
5.8683e-06
0.000716561
5.60185e-06
0.00071771
5.30748e-06
0.000718836
5.00601e-06
0.000719987
4.66824e-06
0.000721106
4.33364e-06
0.000722267
3.94879e-06
0.000723383
3.58574e-06
0.000724565
3.14927e-06
0.000725681
2.76728e-06
0.000726894
2.27336e-06
0.00072801
1.88938e-06
0.000729264
1.32923e-06
0.000730384
9.7137e-07
0.000731694
3.33504e-07
0.000732833
5.07801e-08
0.000734279
-7.41549e-07
-9.07599e-07
0.000735579
0.000666738
2.59592e-07
0.00066697
7.83579e-07
0.000667356
1.29674e-06
0.00066788
1.79208e-06
0.000668519
2.26369e-06
0.000669252
2.70799e-06
0.000670063
3.12354e-06
0.000670936
3.51039e-06
0.000671861
3.86945e-06
0.000672828
4.20184e-06
0.00067383
4.50863e-06
0.000674861
4.79081e-06
0.000675914
5.04933e-06
0.000676985
5.28516e-06
0.000678071
5.49932e-06
0.000679168
5.69285e-06
0.000680276
5.86674e-06
0.000681391
6.02189e-06
0.000682514
6.15909e-06
0.000683642
6.27903e-06
0.000684776
6.38225e-06
0.000685914
6.4693e-06
0.000687056
6.54049e-06
0.000688202
6.59627e-06
0.000689351
6.63672e-06
0.000690502
6.66225e-06
0.000691657
6.67266e-06
0.000692813
6.66841e-06
0.000693972
6.64898e-06
0.000695132
6.61497e-06
0.000696293
6.56541e-06
0.000697455
6.50131e-06
0.000698619
6.42096e-06
0.000699782
6.32612e-06
0.000700946
6.21398e-06
0.000702108
6.08759e-06
0.000703271
5.94232e-06
0.000704432
5.78344e-06
0.000705593
5.60338e-06
0.000706751
5.41109e-06
0.000707909
5.19423e-06
0.000709064
4.96778e-06
0.00071022
4.71171e-06
0.000711371
4.45079e-06
0.000712526
4.15262e-06
0.000713675
3.85773e-06
0.000714829
3.51376e-06
0.000715976
3.18643e-06
0.000717134
2.79126e-06
0.000718285
2.43415e-06
0.000719455
1.97928e-06
0.000720626
1.59683e-06
0.00072183
1.06941e-06
0.00072305
6.69546e-07
0.000724335
4.37115e-08
0.000725642
-3.35062e-07
0.000727015
-1.03955e-06
0.000728466
-1.40022e-06
0.000729987
-2.26317e-06
-2.57444e-06
0.000731654
0.000666724
2.02216e-07
0.000666899
6.08421e-07
0.000667184
1.01189e-06
0.00066757
1.4061e-06
0.000668046
1.78734e-06
0.000668602
2.15269e-06
0.000669225
2.50009e-06
0.000669907
2.82831e-06
0.00067064
3.1368e-06
0.000671416
3.42542e-06
0.000672231
3.69425e-06
0.000673078
3.94357e-06
0.000673954
4.17373e-06
0.000674854
4.38517e-06
0.000675774
4.57835e-06
0.000676714
4.75382e-06
0.000677668
4.91206e-06
0.000678636
5.05363e-06
0.000679617
5.17895e-06
0.000680607
5.28853e-06
0.000681607
5.38265e-06
0.000682614
5.46175e-06
0.000683629
5.52594e-06
0.000684649
5.57562e-06
0.000685675
5.61072e-06
0.000686706
5.63166e-06
0.000687741
5.6381e-06
0.000688778
5.63055e-06
0.000689819
5.60834e-06
0.000690862
5.5722e-06
0.000691906
5.52098e-06
0.000692952
5.45582e-06
0.000693998
5.37485e-06
0.000695044
5.27995e-06
0.00069609
5.16816e-06
0.000697135
5.04256e-06
0.000698179
4.89853e-06
0.000699221
4.7411e-06
0.000700261
4.56304e-06
0.0007013
4.37251e-06
0.000702336
4.15822e-06
0.000703371
3.93327e-06
0.000704402
3.67998e-06
0.000705434
3.41926e-06
0.000706463
3.12342e-06
0.000707495
2.8257e-06
0.000708526
2.48289e-06
0.000709565
2.14778e-06
0.000710603
1.75316e-06
0.000711654
1.38246e-06
0.000712703
9.31e-07
0.00071377
5.29775e-07
0.000714818
2.14119e-08
0.000715914
-4.27138e-07
0.000717
-1.04187e-06
0.000718166
-1.50135e-06
0.000719345
-2.21825e-06
0.000720631
-2.68616e-06
0.000721911
-3.54374e-06
-3.99887e-06
0.000723336
0.000666708
1.60457e-07
0.000666834
4.83107e-07
0.000667041
8.0487e-07
0.000667326
1.12119e-06
0.000667683
1.42953e-06
0.000668108
1.72775e-06
0.000668594
2.01415e-06
0.000669135
2.28748e-06
0.000669725
2.54698e-06
0.000670358
2.79233e-06
0.00067103
3.02213e-06
0.000671737
3.23651e-06
0.000672475
3.4356e-06
0.000673241
3.61952e-06
0.000674031
3.78837e-06
0.000674843
3.94235e-06
0.000675673
4.08166e-06
0.00067652
4.20656e-06
0.000677382
4.31725e-06
0.000678256
4.414e-06
0.000679142
4.49693e-06
0.000680037
4.5663e-06
0.000680941
4.62212e-06
0.000681852
4.66465e-06
0.000682769
4.69377e-06
0.000683691
4.70973e-06
0.000684617
4.71224e-06
0.000685546
4.70163e-06
0.000686477
4.67733e-06
0.000687409
4.63984e-06
0.000688342
4.58822e-06
0.000689275
4.52325e-06
0.000690206
4.44348e-06
0.000691136
4.35016e-06
0.000692063
4.24108e-06
0.000692987
4.11826e-06
0.000693907
3.97835e-06
0.000694824
3.82464e-06
0.000695735
3.65201e-06
0.000696641
3.46577e-06
0.000697542
3.25808e-06
0.000698437
3.0375e-06
0.000699325
2.79196e-06
0.000700209
2.53518e-06
0.000701084
2.24855e-06
0.000701956
1.95374e-06
0.000702818
1.62163e-06
0.000703679
1.28605e-06
0.000704531
9.01201e-07
0.000705393
5.2026e-07
0.000706254
7.02876e-08
0.000707134
-3.50036e-07
0.000708017
-8.61258e-07
0.000708921
-1.33183e-06
0.00070981
-1.93076e-06
0.000710757
-2.44852e-06
0.000711691
-3.15188e-06
0.000712718
-3.71289e-06
0.000713722
-4.54817e-06
-5.14188e-06
0.000714865
0.000666699
1.28394e-07
0.000666796
3.86194e-07
0.000666957
6.43656e-07
0.00066718
8.97589e-07
0.000667464
1.14625e-06
0.000667803
1.38812e-06
0.000668196
1.62187e-06
0.000668637
1.84641e-06
0.000669123
2.06086e-06
0.000669651
2.2645e-06
0.000670216
2.45671e-06
0.000670816
2.63709e-06
0.000671446
2.80541e-06
0.000672104
2.96158e-06
0.000672786
3.10552e-06
0.000673492
3.23723e-06
0.000674217
3.35668e-06
0.000674959
3.46394e-06
0.000675717
3.55904e-06
0.000676489
3.64206e-06
0.000677273
3.71303e-06
0.000678067
3.77204e-06
0.000678871
3.81905e-06
0.000679681
3.85416e-06
0.000680498
3.87725e-06
0.000681319
3.8884e-06
0.000682144
3.8874e-06
0.000682971
3.87434e-06
0.0006838
3.84886e-06
0.000684628
3.8111e-06
0.000685456
3.76049e-06
0.000686282
3.69729e-06
0.000687105
3.62061e-06
0.000687924
3.53094e-06
0.000688738
3.42697e-06
0.000689547
3.30952e-06
0.000690349
3.17666e-06
0.000691143
3.02982e-06
0.000691929
2.86612e-06
0.000692707
2.68793e-06
0.000693474
2.49097e-06
0.000694233
2.27912e-06
0.000694979
2.04592e-06
0.000695716
1.79764e-06
0.00069644
1.52454e-06
0.000697157
1.23674e-06
0.000697859
9.19625e-07
0.000698556
5.89584e-07
0.000699232
2.25109e-07
0.000699904
-1.52211e-07
0.000700556
-5.81502e-07
0.00070122
-1.01433e-06
0.000701866
-1.50696e-06
0.000702531
-1.99668e-06
0.000703169
-2.56876e-06
0.000703843
-3.12294e-06
0.000704482
-3.79076e-06
0.000705183
-4.41336e-06
0.000705831
-5.19628e-06
-5.88741e-06
0.000706576
0.000666693
1.02194e-07
0.000666772
3.0725e-07
0.000666903
5.12189e-07
0.000667086
7.14684e-07
0.000667319
9.13508e-07
0.0006676
1.10755e-06
0.000667926
1.29579e-06
0.000668295
1.47736e-06
0.000668704
1.65149e-06
0.000669151
1.81753e-06
0.000669633
1.97498e-06
0.000670146
2.12339e-06
0.000670689
2.26245e-06
0.000671259
2.3919e-06
0.000671853
2.51155e-06
0.000672469
2.62127e-06
0.000673105
2.72095e-06
0.000673758
2.81052e-06
0.000674427
2.8899e-06
0.00067511
2.95908e-06
0.000675805
3.01799e-06
0.000676511
3.06661e-06
0.000677225
3.10488e-06
0.000677946
3.13278e-06
0.000678673
3.15019e-06
0.000679405
3.15706e-06
0.000680139
3.15325e-06
0.000680874
3.13868e-06
0.00068161
3.11312e-06
0.000682345
3.07648e-06
0.000683077
3.02843e-06
0.000683805
2.96887e-06
0.000684529
2.89734e-06
0.000685246
2.81375e-06
0.000685955
2.71747e-06
0.000686656
2.60844e-06
0.000687347
2.48581e-06
0.000688027
2.34959e-06
0.000688695
2.19865e-06
0.00068935
2.03312e-06
0.000689989
1.85147e-06
0.000690614
1.65408e-06
0.000691221
1.43884e-06
0.000691812
1.20655e-06
0.000692383
9.54275e-07
0.000692936
6.8343e-07
0.000693466
3.89882e-07
0.000693979
7.66328e-08
0.00069447
-2.66295e-07
0.00069495
-6.32143e-07
0.000695398
-1.02933e-06
0.000695835
-1.45153e-06
0.000696239
-1.91105e-06
0.00069664
-2.39765e-06
0.000697001
-2.92984e-06
0.00069737
-3.49129e-06
0.000697688
-4.10939e-06
0.000698032
-4.75749e-06
0.000698313
-5.47669e-06
-6.2225e-06
0.000698648
0.000666689
8.01016e-08
0.000666755
2.40766e-07
0.000666866
4.01409e-07
0.00066702
5.60307e-07
0.000667217
7.16575e-07
0.000667455
8.69397e-07
0.000667733
1.01802e-06
0.000668049
1.16177e-06
0.0006684
1.30003e-06
0.000668786
1.43228e-06
0.000669202
1.55806e-06
0.000669649
1.67697e-06
0.000670123
1.78869e-06
0.000670622
1.89294e-06
0.000671144
1.98948e-06
0.000671687
2.07814e-06
0.000672249
2.15874e-06
0.000672828
2.23116e-06
0.000673423
2.29529e-06
0.000674031
2.35102e-06
0.000674651
2.39827e-06
0.00067528
2.43695e-06
0.000675918
2.46698e-06
0.000676563
2.48824e-06
0.000677212
2.50066e-06
0.000677865
2.50409e-06
0.00067852
2.49844e-06
0.000679175
2.48351e-06
0.000679829
2.45919e-06
0.000680481
2.42522e-06
0.000681128
2.38146e-06
0.000681769
2.32756e-06
0.000682403
2.26337e-06
0.000683028
2.18841e-06
0.000683643
2.10256e-06
0.000684246
2.00514e-06
0.000684836
1.89609e-06
0.000685411
1.77446e-06
0.00068597
1.64033e-06
0.00068651
1.49233e-06
0.000687031
1.33085e-06
0.000687531
1.15386e-06
0.000688008
9.62299e-07
0.000688461
7.53182e-07
0.000688887
5.28442e-07
0.000689287
2.83773e-07
0.000689652
2.41323e-08
0.000689995
-2.66256e-07
0.000690303
-5.73639e-07
0.000690581
-9.10309e-07
0.000690817
-1.26599e-06
0.000691025
-1.65878e-06
0.000691184
-2.0706e-06
0.000691316
-2.52987e-06
0.000691393
-3.00627e-06
0.000691447
-3.54499e-06
0.000691433
-4.0957e-06
0.000691405
-4.7301e-06
0.000691294
-5.3649e-06
-6.11304e-06
0.000691184
0.000666686
6.09532e-08
0.000666743
1.8318e-07
0.000666839
3.05425e-07
0.000666973
4.26426e-07
0.000667144
5.45545e-07
0.000667352
6.62192e-07
0.000667594
7.75817e-07
0.00066787
8.85911e-07
0.000668178
9.92012e-07
0.000668516
1.0937e-06
0.000668884
1.19061e-06
0.000669278
1.2824e-06
0.000669698
1.36879e-06
0.000670141
1.44952e-06
0.000670607
1.52438e-06
0.000671092
1.59316e-06
0.000671595
1.65572e-06
0.000672114
1.71189e-06
0.000672648
1.76156e-06
0.000673194
1.80459e-06
0.000673751
1.8409e-06
0.000674318
1.87036e-06
0.000674892
1.89289e-06
0.000675472
1.90835e-06
0.000676056
1.91666e-06
0.000676642
1.91766e-06
0.00067723
1.91127e-06
0.000677816
1.89726e-06
0.000678399
1.87557e-06
0.000678979
1.84588e-06
0.000679552
1.80817e-06
0.000680118
1.76197e-06
0.000680674
1.70732e-06
0.000681219
1.64356e-06
0.00068175
1.57085e-06
0.000682267
1.48822e-06
0.000682767
1.39607e-06
0.000683249
1.29297e-06
0.000683709
1.17971e-06
0.000684148
1.05415e-06
0.000684561
9.17758e-07
0.000684947
7.67313e-07
0.000685304
6.05443e-07
0.00068563
4.2721e-07
0.000685921
2.37279e-07
0.000686176
2.87915e-08
0.000686396
-1.96161e-07
0.000686576
-4.45432e-07
0.000686708
-7.06409e-07
0.000686797
-9.98831e-07
0.000686832
-1.30158e-06
0.000686819
-1.64572e-06
0.000686745
-1.99636e-06
0.000686618
-2.40298e-06
0.00068642
-2.80824e-06
0.000686167
-3.29126e-06
0.000685829
-3.75817e-06
0.000685435
-4.33575e-06
0.00068494
-4.87024e-06
-5.56443e-06
0.000684391
0.000666684
4.39133e-08
0.000666735
1.3196e-07
0.00066682
2.20036e-07
0.000666939
3.07255e-07
0.000667092
3.93175e-07
0.000667277
4.77382e-07
0.000667493
5.59492e-07
0.00066774
6.39141e-07
0.000668016
7.15995e-07
0.00066832
7.89747e-07
0.00066865
8.60119e-07
0.000669006
9.26854e-07
0.000669385
9.89728e-07
0.000669786
1.04853e-06
0.000670207
1.10309e-06
0.000670647
1.15324e-06
0.000671104
1.19884e-06
0.000671576
1.23974e-06
0.000672062
1.27585e-06
0.000672559
1.30704e-06
0.000673067
1.33322e-06
0.000673583
1.35428e-06
0.000674106
1.37014e-06
0.000674634
1.38066e-06
0.000675164
1.3858e-06
0.000675697
1.38537e-06
0.000676229
1.37934e-06
0.000676758
1.36747e-06
0.000677284
1.34975e-06
0.000677804
1.32586e-06
0.000678317
1.29584e-06
0.000678819
1.25922e-06
0.00067931
1.21613e-06
0.000679788
1.1659e-06
0.00068025
1.10881e-06
0.000680695
1.04388e-06
0.000681119
9.7166e-07
0.000681521
8.90682e-07
0.000681899
8.0197e-07
0.00068225
7.03289e-07
0.000682571
5.96457e-07
0.00068286
4.78046e-07
0.000683115
3.51202e-07
0.000683331
2.10677e-07
0.000683506
6.21029e-08
0.00068364
-1.05236e-07
0.000683726
-2.81917e-07
0.000683761
-4.8015e-07
0.00068374
-6.85594e-07
0.000683661
-9.19614e-07
0.000683518
-1.15828e-06
0.000683307
-1.43555e-06
0.000683023
-1.7121e-06
0.000682662
-2.04227e-06
0.000682216
-2.36167e-06
0.000681682
-2.75762e-06
0.000681049
-3.12467e-06
0.000680317
-3.60358e-06
0.000679468
-4.02134e-06
-4.60493e-06
0.000678508
0.000666682
2.83363e-08
0.000666729
8.51501e-08
0.000666807
1.41993e-07
0.000666916
1.98299e-07
0.000667055
2.53789e-07
0.000667225
3.08203e-07
0.000667423
3.61293e-07
0.000667649
4.12828e-07
0.000667903
4.6259e-07
0.000668182
5.10379e-07
0.000668486
5.56009e-07
0.000668814
5.9931e-07
0.000669163
6.40127e-07
0.000669533
6.78317e-07
0.000669923
7.13756e-07
0.00067033
7.46323e-07
0.000670753
7.75919e-07
0.00067119
8.02441e-07
0.00067164
8.25809e-07
0.000672101
8.45929e-07
0.000672571
8.62738e-07
0.00067305
8.7614e-07
0.000673534
8.86084e-07
0.000674022
8.92462e-07
0.000674512
8.95234e-07
0.000675004
8.94266e-07
0.000675493
8.89535e-07
0.00067598
8.80859e-07
0.000676461
8.68241e-07
0.000676936
8.5143e-07
0.000677401
8.3047e-07
0.000677855
8.05003e-07
0.000678296
7.75153e-07
0.000678722
7.40394e-07
0.00067913
7.00986e-07
0.000679518
6.56148e-07
0.000679883
6.06375e-07
0.000680223
5.50488e-07
0.000680536
4.8938e-07
0.000680818
4.21248e-07
0.000681066
3.47656e-07
0.000681279
2.65832e-07
0.000681451
1.78466e-07
0.000681581
8.13466e-08
0.000681664
-2.11637e-08
0.000681697
-1.38301e-07
0.000681675
-2.60144e-07
0.000681593
-3.98131e-07
0.000681448
-5.40161e-07
0.000681232
-7.03795e-07
0.000680943
-8.68997e-07
0.000680571
-1.06377e-06
0.000680114
-1.25525e-06
0.00067956
-1.48844e-06
0.000678908
-1.7095e-06
0.000678141
-1.991e-06
0.000677261
-2.24464e-06
0.000676246
-2.58785e-06
0.0006751
-2.87539e-06
-3.29766e-06
0.000673792
0.000666681
1.36857e-08
0.000666725
4.11329e-08
0.000666799
6.86012e-08
0.000666901
9.58176e-08
0.000667032
1.22648e-07
0.000667192
1.48966e-07
0.000667378
1.74653e-07
0.000667591
1.99595e-07
0.00066783
2.23688e-07
0.000668094
2.4683e-07
0.000668381
2.68933e-07
0.00066869
2.89909e-07
0.000669021
3.09682e-07
0.000669371
3.28179e-07
0.000669739
3.45336e-07
0.000670125
3.6109e-07
0.000670525
3.75389e-07
0.000670939
3.88179e-07
0.000671366
3.99417e-07
0.000671803
4.09053e-07
0.000672248
4.17052e-07
0.000672701
4.23362e-07
0.000673159
4.27955e-07
0.000673621
4.30772e-07
0.000674084
4.31792e-07
0.000674548
4.3094e-07
0.000675009
4.28206e-07
0.000675466
4.23489e-07
0.000675918
4.16794e-07
0.000676361
4.07982e-07
0.000676795
3.97082e-07
0.000677216
3.83897e-07
0.000677622
3.68501e-07
0.000678012
3.50603e-07
0.000678383
3.30357e-07
0.000678732
3.07331e-07
0.000679056
2.81812e-07
0.000679354
2.53145e-07
0.000679621
2.21846e-07
0.000679855
1.86913e-07
0.000680054
1.49241e-07
0.000680212
1.07288e-07
0.000680328
6.2594e-08
0.000680397
1.28994e-08
0.000680416
-4.03257e-08
0.000680378
-1.00365e-07
0.000680281
-1.62844e-07
0.000680117
-2.33972e-07
0.000679883
-3.06883e-07
0.000679571
-3.91388e-07
0.000679178
-4.76214e-07
0.000678691
-5.77065e-07
0.000678112
-6.75433e-07
0.00067742
-7.96567e-07
0.00067662
-9.10118e-07
0.000675686
-1.0569e-06
0.000674629
-1.18707e-06
0.000673408
-1.36684e-06
0.000672046
-1.51407e-06
-1.73645e-06
0.000670485
0.000666681
-5.11015e-10
0.000666724
-1.52264e-09
0.000666795
-2.52031e-09
0.000666894
-3.50234e-09
0.000667021
-4.46561e-09
0.000667175
-5.40767e-09
0.000667356
-6.32664e-09
0.000667563
-7.22088e-09
0.000667795
-8.08889e-09
0.000668051
-8.92924e-09
0.000668329
-9.74066e-09
0.00066863
-1.05221e-08
0.000668951
-1.12729e-08
0.000669291
-1.19925e-08
0.000669649
-1.26805e-08
0.000670023
-1.33371e-08
0.000670413
-1.39624e-08
0.000670816
-1.45568e-08
0.00067123
-1.51209e-08
0.000671655
-1.56555e-08
0.000672088
-1.61616e-08
0.000672528
-1.66404e-08
0.000672973
-1.70933e-08
0.000673421
-1.75219e-08
0.000673871
-1.79277e-08
0.00067432
-1.83131e-08
0.000674767
-1.86798e-08
0.00067521
-1.90301e-08
0.000675646
-1.93662e-08
0.000676074
-1.96909e-08
0.000676491
-2.00063e-08
0.000676895
-2.03156e-08
0.000677284
-2.06213e-08
0.000677656
-2.09268e-08
0.000678007
-2.12341e-08
0.000678336
-2.15469e-08
0.00067864
-2.18674e-08
0.000678915
-2.21992e-08
0.000679159
-2.25444e-08
0.000679369
-2.29063e-08
0.000679542
-2.32907e-08
0.000679673
-2.37091e-08
0.00067976
-2.41804e-08
0.000679797
-2.47137e-08
0.000679782
-2.53034e-08
0.000679708
-2.58912e-08
0.000679571
-2.64859e-08
0.000679364
-2.71359e-08
0.000679085
-2.7862e-08
0.000678723
-2.86528e-08
0.000678276
-2.95076e-08
0.000677729
-3.04258e-08
0.000677085
-3.14214e-08
0.000676321
-3.24891e-08
0.000675445
-3.36509e-08
0.000674423
-3.48889e-08
0.000673272
-3.62396e-08
0.000671943
-3.76666e-08
0.000670468
-3.92261e-08
-4.08495e-08
0.000668772
0.000666681
-1.4704e-08
0.000666723
-4.41579e-08
0.000666795
-7.36125e-08
0.000666894
-1.02783e-07
0.000667021
-1.31529e-07
0.000667175
-1.59721e-07
0.000667356
-1.87236e-07
0.000667563
-2.13958e-07
0.000667795
-2.39777e-07
0.00066805
-2.64591e-07
0.000668329
-2.88308e-07
0.000668629
-3.10839e-07
0.00066895
-3.32105e-07
0.00066929
-3.52033e-07
0.000669648
-3.70558e-07
0.000670022
-3.87617e-07
0.000670411
-4.0316e-07
0.000670814
-4.17131e-07
0.000671228
-4.29491e-07
0.000671653
-4.4019e-07
0.000672086
-4.49195e-07
0.000672526
-4.56456e-07
0.000672971
-4.61949e-07
0.000673419
-4.65617e-07
0.000673868
-4.67443e-07
0.000674317
-4.67357e-07
0.000674764
-4.6535e-07
0.000675206
-4.61329e-07
0.000675642
-4.55301e-07
0.00067607
-4.47134e-07
0.000676486
-4.3686e-07
0.00067689
-4.24289e-07
0.000677279
-4.095e-07
0.000677651
-3.92208e-07
0.000678002
-3.72573e-07
0.00067833
-3.50169e-07
0.000678634
-3.25288e-07
0.000678909
-2.97284e-07
0.000679153
-2.66675e-07
0.000679363
-2.32468e-07
0.000679535
-1.95555e-07
0.000679666
-1.54396e-07
0.000679752
-1.10507e-07
0.000679789
-6.15145e-08
0.000679774
-1.01499e-08
0.000679699
4.88569e-08
0.000679562
1.1018e-07
0.000679355
1.79989e-07
0.000679076
2.51474e-07
0.000678713
3.34448e-07
0.000678266
4.17606e-07
0.000677718
5.16653e-07
0.000677074
6.13054e-07
0.000676309
7.32084e-07
0.000675432
8.43338e-07
0.00067441
9.87681e-07
0.000673258
1.11517e-06
0.000671929
1.29215e-06
0.000670453
1.43627e-06
1.65547e-06
0.000668757
0.000666681
-2.93371e-08
0.000666725
-8.81246e-08
0.000666799
-1.46922e-07
0.000666901
-2.0515e-07
0.000667032
-2.62526e-07
0.000667191
-3.18784e-07
0.000667377
-3.73672e-07
0.00066759
-4.26957e-07
0.000667829
-4.78418e-07
0.000668092
-5.2785e-07
0.000668379
-5.75068e-07
0.000668688
-6.19896e-07
0.000669018
-6.62181e-07
0.000669368
-7.01778e-07
0.000669736
-7.38561e-07
0.000670121
-7.72411e-07
0.000670521
-8.03228e-07
0.000670935
-8.3091e-07
0.000671361
-8.55379e-07
0.000671797
-8.76542e-07
0.000672242
-8.94337e-07
0.000672694
-9.08672e-07
0.000673152
-9.19498e-07
0.000673613
-9.2671e-07
0.000674076
-9.30272e-07
0.000674538
-9.30053e-07
0.000674999
-9.26034e-07
0.000675456
-9.18038e-07
0.000675907
-9.06072e-07
0.000676349
-8.89891e-07
0.000676782
-8.69543e-07
0.000677202
-8.44675e-07
0.000677608
-8.15417e-07
0.000677997
-7.81248e-07
0.000678367
-7.42435e-07
0.000678715
-6.98203e-07
0.000679039
-6.49052e-07
0.000679336
-5.93808e-07
0.000679602
-5.33371e-07
0.000679836
-4.65945e-07
0.000680033
-3.93095e-07
0.000680191
-3.12053e-07
0.000680306
-2.25501e-07
0.000680374
-1.29172e-07
0.000680391
-2.78445e-08
0.000680352
8.76965e-08
0.000680254
2.08508e-07
0.000680089
3.45284e-07
0.000679854
4.85945e-07
0.000679541
6.48075e-07
0.000679147
8.11643e-07
0.000678659
1.00467e-06
0.000678077
1.19425e-06
0.000677384
1.42541e-06
0.000676583
1.64425e-06
0.000675647
1.92341e-06
0.000674588
2.17445e-06
0.000673365
2.51501e-06
0.000672002
2.79952e-06
3.21882e-06
0.000670439
0.000666682
-4.4887e-08
0.000666729
-1.34854e-07
0.000666807
-2.24832e-07
0.000666916
-3.13921e-07
0.000667055
-4.01674e-07
0.000667224
-4.87675e-07
0.000667422
-5.71534e-07
0.000667647
-6.52884e-07
0.0006679
-7.3139e-07
0.000668179
-8.0674e-07
0.000668483
-8.78653e-07
0.00066881
-9.46873e-07
0.000669159
-1.01117e-06
0.000669528
-1.07134e-06
0.000669917
-1.12721e-06
0.000670323
-1.1786e-06
0.000670745
-1.22538e-06
0.000671182
-1.26741e-06
0.000671631
-1.30458e-06
0.000672091
-1.33678e-06
0.000672561
-1.36392e-06
0.000673038
-1.38588e-06
0.000673521
-1.40259e-06
0.000674008
-1.41392e-06
0.000674498
-1.41982e-06
0.000674988
-1.42011e-06
0.000675477
-1.41477e-06
0.000675962
-1.40355e-06
0.000676443
-1.38646e-06
0.000676916
-1.36318e-06
0.00067738
-1.33375e-06
0.000677833
-1.2977e-06
0.000678273
-1.25518e-06
0.000678697
-1.20551e-06
0.000679104
-1.14899e-06
0.00067949
-1.08464e-06
0.000679854
-1.01302e-06
0.000680193
-9.32654e-07
0.000680504
-8.44582e-07
0.000680785
-7.46575e-07
0.000681032
-6.40449e-07
0.000681243
-5.22781e-07
0.000681414
-3.96716e-07
0.000681542
-2.56989e-07
0.000681623
-1.09103e-07
0.000681655
5.61944e-08
0.000681631
2.32023e-07
0.000681547
4.29085e-07
0.0006814
6.33227e-07
0.000681182
8.65842e-07
0.000680891
1.10298e-06
0.000680517
1.3786e-06
0.000680058
1.65335e-06
0.000679502
1.98163e-06
0.000678847
2.29891e-06
0.000678078
2.6927e-06
0.000677195
3.05727e-06
0.000676176
3.53375e-06
0.000675027
3.94859e-06
4.52953e-06
0.000673717
0.000666684
-6.18896e-08
0.000666735
-1.85963e-07
0.00066682
-3.10037e-07
0.000666939
-4.32835e-07
0.000667091
-5.53717e-07
0.000667275
-6.72088e-07
0.000667491
-7.87393e-07
0.000667737
-8.99122e-07
0.000668013
-1.00681e-06
0.000668316
-1.11003e-06
0.000668646
-1.20842e-06
0.000669001
-1.30164e-06
0.000669379
-1.3894e-06
0.000669779
-1.47144e-06
0.000670199
-1.54754e-06
0.000670638
-1.61752e-06
0.000671094
-1.6812e-06
0.000671565
-1.73845e-06
0.00067205
-1.78914e-06
0.000672546
-1.83314e-06
0.000673052
-1.87036e-06
0.000673567
-1.90068e-06
0.000674089
-1.92402e-06
0.000674615
-1.94024e-06
0.000675144
-1.94928e-06
0.000675675
-1.95096e-06
0.000676206
-1.94522e-06
0.000676734
-1.93183e-06
0.000677258
-1.91074e-06
0.000677777
-1.88162e-06
0.000678287
-1.84446e-06
0.000678789
-1.79881e-06
0.000679278
-1.74469e-06
0.000679754
-1.68146e-06
0.000680214
-1.60928e-06
0.000680657
-1.5272e-06
0.000681079
-1.4356e-06
0.00068148
-1.33308e-06
0.000681856
-1.22042e-06
0.000682205
-1.0955e-06
0.000682524
-9.59777e-07
0.000682811
-8.10052e-07
0.000683063
-6.48938e-07
0.000683278
-4.71513e-07
0.000683451
-2.82385e-07
0.000683582
-7.4348e-08
0.000683665
1.48486e-07
0.000683698
3.96793e-07
0.000683674
6.56591e-07
0.000683592
9.47714e-07
0.000683446
1.24904e-06
0.000683233
1.59167e-06
0.000682946
1.94065e-06
0.000682582
2.34554e-06
0.000682132
2.74883e-06
0.000681595
3.22991e-06
0.000680958
3.6945e-06
0.000680222
4.26995e-06
0.000679368
4.80166e-06
5.49363e-06
0.000678404
0.000666686
-8.0991e-08
0.000666743
-2.43408e-07
0.000666839
-4.05787e-07
0.000666973
-5.66392e-07
0.000667143
-7.24334e-07
0.00066735
-8.78792e-07
0.000667591
-1.02901e-06
0.000667867
-1.17431e-06
0.000668174
-1.31407e-06
0.000668512
-1.44777e-06
0.000668878
-1.57495e-06
0.000669272
-1.69522e-06
0.000669691
-1.80823e-06
0.000670133
-1.91372e-06
0.000670597
-2.01144e-06
0.00067108
-2.10122e-06
0.000671582
-2.18289e-06
0.0006721
-2.25633e-06
0.000672632
-2.32141e-06
0.000673177
-2.37805e-06
0.000673733
-2.42616e-06
0.000674298
-2.46565e-06
0.00067487
-2.49643e-06
0.000675449
-2.51842e-06
0.000676031
-2.53151e-06
0.000676615
-2.53558e-06
0.000677201
-2.53054e-06
0.000677785
-2.51619e-06
0.000678367
-2.49241e-06
0.000678944
-2.45897e-06
0.000679515
-2.41572e-06
0.000680079
-2.36232e-06
0.000680633
-2.29862e-06
0.000681176
-2.22415e-06
0.000681705
-2.13879e-06
0.00068222
-2.04187e-06
0.000682717
-1.93332e-06
0.000683197
-1.81222e-06
0.000683655
-1.67864e-06
0.000684091
-1.53124e-06
0.000684501
-1.37036e-06
0.000684885
-1.19404e-06
0.000685239
-1.00318e-06
0.000685563
-7.94811e-07
0.000685851
-5.70855e-07
0.000686104
-3.26983e-07
0.00068632
-6.75797e-08
0.000686496
2.20473e-07
0.000686626
5.26947e-07
0.000686711
8.62496e-07
0.000686743
1.2169e-06
0.000686726
1.60832e-06
0.000686648
2.01863e-06
0.000686518
2.47638e-06
0.000686316
2.95098e-06
0.000686057
3.48803e-06
0.000685715
4.03658e-06
0.000685316
4.66919e-06
0.000684816
5.30137e-06
6.04777e-06
0.000684262
0.000666689
-1.03027e-07
0.000666755
-3.09725e-07
0.000666866
-5.16289e-07
0.00066702
-7.20382e-07