/*--------------------------------*- C++ -*----------------------------------*\
| =========                 |                                                 |
| \\      /  F ield         | OpenFOAM: The Open Source CFD Toolbox           |
|  \\    /   O peration     | Version:  2312                                  |
|   \\  /    A nd           | Website:  www.openfoam.com                      |
|    \\/     M anipulation  |                                                 |
\*---------------------------------------------------------------------------*/
FoamFile
{
    version     2.0;
    format      ascii;
    arch        "LSB;label=32;scalar=64";
    class       volVectorField;
    location    "90000";
    object      U;
}
// * * * * * * * * * * * * * * * * * * * * * * * * * * * * * * * * * * * * * //

dimensions      [0 1 -1 0 0 0 0];

internalField   nonuniform List<vector> 
10800
(
(0.000992484 4.94174e-06 0)
(0.000990039 1.24572e-05 0)
(0.000986873 1.74783e-05 0)
(0.000980502 2.06617e-05 0)
(0.00097109 2.27444e-05 0)
(0.000959802 2.42377e-05 0)
(0.000947703 2.53764e-05 0)
(0.000935329 2.62353e-05 0)
(0.000922822 2.68387e-05 0)
(0.000910161 2.72117e-05 0)
(0.000897299 2.7392e-05 0)
(0.000884235 2.74225e-05 0)
(0.000871004 2.73411e-05 0)
(0.000857661 2.71759e-05 0)
(0.000844258 2.69452e-05 0)
(0.000830833 2.66606e-05 0)
(0.000817412 2.633e-05 0)
(0.000804012 2.59601e-05 0)
(0.000790651 2.55563e-05 0)
(0.000777342 2.51235e-05 0)
(0.000764101 2.46655e-05 0)
(0.000750942 2.41854e-05 0)
(0.000737881 2.36851e-05 0)
(0.000724931 2.31668e-05 0)
(0.000712105 2.26311e-05 0)
(0.000699415 2.20797e-05 0)
(0.000686876 2.15126e-05 0)
(0.000674498 2.09312e-05 0)
(0.000662295 2.03351e-05 0)
(0.000650278 1.97261e-05 0)
(0.000638462 1.91025e-05 0)
(0.000626856 1.84672e-05 0)
(0.000615477 1.78174e-05 0)
(0.000604332 1.71572e-05 0)
(0.00059344 1.64822e-05 0)
(0.000582806 1.5799e-05 0)
(0.000572451 1.51e-05 0)
(0.000562378 1.43961e-05 0)
(0.000552612 1.36745e-05 0)
(0.000543146 1.29532e-05 0)
(0.00053402 1.22103e-05 0)
(0.000525208 1.1476e-05 0)
(0.000516776 1.07128e-05 0)
(0.000508655 9.97124e-06 0)
(0.000500979 9.18687e-06 0)
(0.00049357 8.44524e-06 0)
(0.000486736 7.63579e-06 0)
(0.00048002 6.901e-06 0)
(0.000474187 6.0576e-06 0)
(0.000468022 5.3282e-06 0)
(0.00046357 4.44221e-06 0)
(0.000457449 3.67115e-06 0)
(0.000455435 2.78078e-06 0)
(0.000447718 1.71949e-06 0)
(0.000451276 1.15098e-06 0)
(0.000436888 -1.2647e-06 0)
(0.000455316 1.11506e-07 0)
(0.000419337 -7.72807e-06 0)
(0.000477711 2.03096e-06 0)
(0.000382958 -2.44839e-05 0)
(0.00100003 5.80168e-06 0)
(0.00100172 1.4991e-05 0)
(0.00100423 2.15205e-05 0)
(0.00100706 2.60822e-05 0)
(0.00100979 2.9439e-05 0)
(0.00101219 3.21191e-05 0)
(0.00101422 3.437e-05 0)
(0.00101589 3.62783e-05 0)
(0.00101727 3.78766e-05 0)
(0.00101838 3.91954e-05 0)
(0.00101923 4.02762e-05 0)
(0.00101982 4.11648e-05 0)
(0.00102015 4.19016e-05 0)
(0.00102021 4.2517e-05 0)
(0.00102002 4.30306e-05 0)
(0.00101959 4.34554e-05 0)
(0.00101894 4.37999e-05 0)
(0.00101808 4.40708e-05 0)
(0.00101701 4.42738e-05 0)
(0.00101575 4.44134e-05 0)
(0.00101432 4.44935e-05 0)
(0.00101271 4.45167e-05 0)
(0.00101094 4.44849e-05 0)
(0.00100901 4.43992e-05 0)
(0.00100695 4.42609e-05 0)
(0.00100474 4.40696e-05 0)
(0.00100243 4.38267e-05 0)
(0.00099998 4.35306e-05 0)
(0.000997454 4.31833e-05 0)
(0.000994792 4.27818e-05 0)
(0.000992095 4.23295e-05 0)
(0.000989254 4.18207e-05 0)
(0.000986432 4.12624e-05 0)
(0.000983439 4.0644e-05 0)
(0.000980545 3.99793e-05 0)
(0.000977424 3.92485e-05 0)
(0.000974523 3.84778e-05 0)
(0.000971283 3.7631e-05 0)
(0.000968456 3.67568e-05 0)
(0.000965088 3.57891e-05 0)
(0.000962448 3.48172e-05 0)
(0.000958907 3.37204e-05 0)
(0.000956619 3.2662e-05 0)
(0.000952792 3.14219e-05 0)
(0.00095111 3.02968e-05 0)
(0.000946775 2.88876e-05 0)
(0.000946103 2.77301e-05 0)
(0.000940835 2.61041e-05 0)
(0.00094184 2.49731e-05 0)
(0.000934867 2.30432e-05 0)
(0.000938664 2.20383e-05 0)
(0.000928603 1.96499e-05 0)
(0.000937074 1.8937e-05 0)
(0.000921477 1.58266e-05 0)
(0.000937812 1.56659e-05 0)
(0.00091238 1.14232e-05 0)
(0.000941998 1.21483e-05 0)
(0.000899272 6.30392e-06 0)
(0.000951531 7.93609e-06 0)
(0.00087901 8.85303e-07 0)
(0.000999989 1.96207e-06 0)
(0.00100078 5.76256e-06 0)
(0.00100224 9.28662e-06 0)
(0.00100423 1.24504e-05 0)
(0.00100654 1.52511e-05 0)
(0.00100897 1.77339e-05 0)
(0.0010114 1.99536e-05 0)
(0.00101376 2.19531e-05 0)
(0.00101608 2.37597e-05 0)
(0.00101834 2.53901e-05 0)
(0.00102056 2.68575e-05 0)
(0.00102273 2.81751e-05 0)
(0.00102484 2.93576e-05 0)
(0.0010269 3.04186e-05 0)
(0.00102888 3.13707e-05 0)
(0.0010308 3.22236e-05 0)
(0.00103265 3.29854e-05 0)
(0.00103444 3.36618e-05 0)
(0.00103617 3.42585e-05 0)
(0.00103783 3.47786e-05 0)
(0.00103945 3.52268e-05 0)
(0.00104099 3.56043e-05 0)
(0.00104249 3.59152e-05 0)
(0.00104393 3.61586e-05 0)
(0.00104533 3.6339e-05 0)
(0.00104665 3.6453e-05 0)
(0.00104795 3.65062e-05 0)
(0.00104916 3.64921e-05 0)
(0.00105037 3.64193e-05 0)
(0.00105148 3.62767e-05 0)
(0.00105261 3.60774e-05 0)
(0.00105362 3.5804e-05 0)
(0.00105468 3.54774e-05 0)
(0.00105557 3.50697e-05 0)
(0.00105659 3.46144e-05 0)
(0.00105736 3.40681e-05 0)
(0.00105836 3.34837e-05 0)
(0.001059 3.27932e-05 0)
(0.00106002 3.20802e-05 0)
(0.0010605 3.12392e-05 0)
(0.0010616 3.04002e-05 0)
(0.00106187 2.94006e-05 0)
(0.00106314 2.84409e-05 0)
(0.00106312 2.72728e-05 0)
(0.0010647 2.62016e-05 0)
(0.00106426 2.4852e-05 0)
(0.00106633 2.36836e-05 0)
(0.00106527 2.21366e-05 0)
(0.00106812 2.08919e-05 0)
(0.00106612 1.91297e-05 0)
(0.00107019 1.78378e-05 0)
(0.00106672 1.58445e-05 0)
(0.00107267 1.45445e-05 0)
(0.00106694 1.23201e-05 0)
(0.00107575 1.10616e-05 0)
(0.00106652 8.65892e-06 0)
(0.0010797 7.50293e-06 0)
(0.00106511 5.1226e-06 0)
(0.00108495 4.09867e-06 0)
(0.00106222 2.24592e-06 0)
(0.00100001 1.74096e-06 0)
(0.00100047 5.15738e-06 0)
(0.00100128 8.41698e-06 0)
(0.00100239 1.14435e-05 0)
(0.00100374 1.4196e-05 0)
(0.00100526 1.66715e-05 0)
(0.00100689 1.88919e-05 0)
(0.00100859 2.08868e-05 0)
(0.00101034 2.26833e-05 0)
(0.00101212 2.43022e-05 0)
(0.00101394 2.57592e-05 0)
(0.00101579 2.70669e-05 0)
(0.00101765 2.82379e-05 0)
(0.00101952 2.9284e-05 0)
(0.0010214 3.0217e-05 0)
(0.00102328 3.10469e-05 0)
(0.00102517 3.17829e-05 0)
(0.00102704 3.24319e-05 0)
(0.00102892 3.30004e-05 0)
(0.00103079 3.34924e-05 0)
(0.00103266 3.39129e-05 0)
(0.00103452 3.4264e-05 0)
(0.00103638 3.45496e-05 0)
(0.00103824 3.47703e-05 0)
(0.00104009 3.49294e-05 0)
(0.00104193 3.50257e-05 0)
(0.00104378 3.50627e-05 0)
(0.0010456 3.50373e-05 0)
(0.00104744 3.49537e-05 0)
(0.00104925 3.48067e-05 0)
(0.00105109 3.46016e-05 0)
(0.00105288 3.43311e-05 0)
(0.0010547 3.40024e-05 0)
(0.00105647 3.36052e-05 0)
(0.00105829 3.31494e-05 0)
(0.00106003 3.26215e-05 0)
(0.00106185 3.20344e-05 0)
(0.00106355 3.13713e-05 0)
(0.00106538 3.06483e-05 0)
(0.00106704 2.98456e-05 0)
(0.00106888 2.89817e-05 0)
(0.00107048 2.80355e-05 0)
(0.00107236 2.7025e-05 0)
(0.00107389 2.59333e-05 0)
(0.00107583 2.477e-05 0)
(0.00107726 2.35334e-05 0)
(0.0010793 2.22094e-05 0)
(0.0010806 2.08342e-05 0)
(0.00108279 1.93391e-05 0)
(0.00108392 1.78413e-05 0)
(0.00108634 1.61614e-05 0)
(0.00108723 1.45757e-05 0)
(0.00108997 1.26932e-05 0)
(0.00109053 1.10882e-05 0)
(0.00109373 8.98013e-06 0)
(0.0010938 7.48176e-06 0)
(0.00109767 5.1129e-06 0)
(0.00109703 3.92784e-06 0)
(0.00110184 1.21118e-06 0)
(0.00110016 6.27776e-07 0)
(0.001 1.15229e-06 0)
(0.00100023 3.42947e-06 0)
(0.00100067 5.64118e-06 0)
(0.00100134 7.75572e-06 0)
(0.0010022 9.75173e-06 0)
(0.00100324 1.16189e-05 0)
(0.00100441 1.3356e-05 0)
(0.00100569 1.49669e-05 0)
(0.00100705 1.64578e-05 0)
(0.00100848 1.78348e-05 0)
(0.00100997 1.91034e-05 0)
(0.0010115 2.02682e-05 0)
(0.00101306 2.13343e-05 0)
(0.00101466 2.23063e-05 0)
(0.00101628 2.31894e-05 0)
(0.00101792 2.39883e-05 0)
(0.00101958 2.47074e-05 0)
(0.00102124 2.53507e-05 0)
(0.00102292 2.59216e-05 0)
(0.00102461 2.64228e-05 0)
(0.00102631 2.68568e-05 0)
(0.00102801 2.72255e-05 0)
(0.00102973 2.75304e-05 0)
(0.00103144 2.77731e-05 0)
(0.00103316 2.79541e-05 0)
(0.00103489 2.80745e-05 0)
(0.00103662 2.8134e-05 0)
(0.00103835 2.81338e-05 0)
(0.00104009 2.80723e-05 0)
(0.00104183 2.79512e-05 0)
(0.00104357 2.77673e-05 0)
(0.00104531 2.75235e-05 0)
(0.00104706 2.72143e-05 0)
(0.0010488 2.68451e-05 0)
(0.00105055 2.64064e-05 0)
(0.00105229 2.59084e-05 0)
(0.00105404 2.53347e-05 0)
(0.00105578 2.47043e-05 0)
(0.00105752 2.39891e-05 0)
(0.00105926 2.3223e-05 0)
(0.001061 2.23584e-05 0)
(0.00106273 2.14542e-05 0)
(0.00106446 2.04308e-05 0)
(0.0010662 1.93882e-05 0)
(0.00106792 1.81944e-05 0)
(0.00106966 1.70172e-05 0)
(0.00107137 1.56382e-05 0)
(0.00107312 1.43363e-05 0)
(0.00107482 1.27529e-05 0)
(0.0010766 1.1346e-05 0)
(0.00107828 9.53052e-06 0)
(0.00108013 8.05235e-06 0)
(0.00108179 5.96211e-06 0)
(0.00108377 4.46634e-06 0)
(0.00108542 2.03482e-06 0)
(0.00108762 6.11779e-07 0)
(0.00108926 -2.25279e-06 0)
(0.00109177 -3.44947e-06 0)
(0.00109328 -6.88603e-06 0)
(0.0010961 -7.63694e-06 0)
(0.001 9.26083e-07 0)
(0.00100017 2.76953e-06 0)
(0.00100051 4.58583e-06 0)
(0.001001 6.35609e-06 0)
(0.00100165 8.06285e-06 0)
(0.00100242 9.69225e-06 0)
(0.00100332 1.1235e-05 0)
(0.0010043 1.26863e-05 0)
(0.00100537 1.40446e-05 0)
(0.00100651 1.53104e-05 0)
(0.00100771 1.6485e-05 0)
(0.00100896 1.75705e-05 0)
(0.00101025 1.85691e-05 0)
(0.00101159 1.94835e-05 0)
(0.00101296 2.03163e-05 0)
(0.00101435 2.10705e-05 0)
(0.00101578 2.17491e-05 0)
(0.00101722 2.23549e-05 0)
(0.00101868 2.28903e-05 0)
(0.00102016 2.3358e-05 0)
(0.00102165 2.37595e-05 0)
(0.00102316 2.40972e-05 0)
(0.00102468 2.43718e-05 0)
(0.0010262 2.45853e-05 0)
(0.00102774 2.47378e-05 0)
(0.00102928 2.48312e-05 0)
(0.00103083 2.48642e-05 0)
(0.00103239 2.48393e-05 0)
(0.00103395 2.47538e-05 0)
(0.00103551 2.46109e-05 0)
(0.00103707 2.44058e-05 0)
(0.00103864 2.41438e-05 0)
(0.00104021 2.38168e-05 0)
(0.00104178 2.34332e-05 0)
(0.00104335 2.29803e-05 0)
(0.00104492 2.2472e-05 0)
(0.00104648 2.1888e-05 0)
(0.00104805 2.12511e-05 0)
(0.00104961 2.05293e-05 0)
(0.00105118 1.97596e-05 0)
(0.00105272 1.88917e-05 0)
(0.00105429 1.79855e-05 0)
(0.00105582 1.69614e-05 0)
(0.0010574 1.59156e-05 0)
(0.00105891 1.47227e-05 0)
(0.0010605 1.35361e-05 0)
(0.00106199 1.21583e-05 0)
(0.00106361 1.08328e-05 0)
(0.00106508 9.24919e-06 0)
(0.00106676 7.7924e-06 0)
(0.00106819 5.97609e-06 0)
(0.00106996 4.40635e-06 0)
(0.00107132 2.32134e-06 0)
(0.00107322 6.69852e-07 0)
(0.0010745 -1.74239e-06 0)
(0.00107663 -3.43629e-06 0)
(0.00107779 -6.27878e-06 0)
(0.00108026 -7.95729e-06 0)
(0.00108119 -1.13776e-05 0)
(0.00108399 -1.29379e-05 0)
(0.001 7.31495e-07 0)
(0.00100013 2.18797e-06 0)
(0.00100037 3.62495e-06 0)
(0.00100074 5.02978e-06 0)
(0.00100122 6.39106e-06 0)
(0.0010018 7.69945e-06 0)
(0.00100249 8.94807e-06 0)
(0.00100326 1.01324e-05 0)
(0.00100411 1.12499e-05 0)
(0.00100503 1.22995e-05 0)
(0.00100602 1.3281e-05 0)
(0.00100705 1.41948e-05 0)
(0.00100814 1.50415e-05 0)
(0.00100927 1.58222e-05 0)
(0.00101044 1.65377e-05 0)
(0.00101164 1.71893e-05 0)
(0.00101287 1.77783e-05 0)
(0.00101413 1.83061e-05 0)
(0.00101542 1.87737e-05 0)
(0.00101672 1.91826e-05 0)
(0.00101804 1.95335e-05 0)
(0.00101938 1.98276e-05 0)
(0.00102073 2.00652e-05 0)
(0.00102209 2.02475e-05 0)
(0.00102346 2.0374e-05 0)
(0.00102484 2.04461e-05 0)
(0.00102623 2.04624e-05 0)
(0.00102762 2.04246e-05 0)
(0.00102901 2.03302e-05 0)
(0.00103041 2.01815e-05 0)
(0.00103181 1.99744e-05 0)
(0.00103321 1.97127e-05 0)
(0.00103461 1.93897e-05 0)
(0.00103601 1.90117e-05 0)
(0.0010374 1.85681e-05 0)
(0.00103879 1.80695e-05 0)
(0.00104017 1.74995e-05 0)
(0.00104155 1.68751e-05 0)
(0.00104292 1.6171e-05 0)
(0.00104429 1.54149e-05 0)
(0.00104563 1.45675e-05 0)
(0.00104699 1.36732e-05 0)
(0.00104831 1.2671e-05 0)
(0.00104967 1.16318e-05 0)
(0.00105096 1.04604e-05 0)
(0.00105231 9.26963e-06 0)
(0.00105356 7.91076e-06 0)
(0.00105491 6.56221e-06 0)
(0.00105613 4.99153e-06 0)
(0.00105751 3.47981e-06 0)
(0.00105868 1.66386e-06 0)
(0.00106013 -1.29812e-08 0)
(0.00106127 -2.1163e-06 0)
(0.00106282 -3.94633e-06 0)
(0.0010639 -6.38694e-06 0)
(0.00106561 -8.34383e-06 0)
(0.00106658 -1.12035e-05 0)
(0.0010685 -1.3254e-05 0)
(0.00106925 -1.66665e-05 0)
(0.00107135 -1.87521e-05 0)
(0.001 5.82379e-07 0)
(0.0010001 1.74316e-06 0)
(0.00100029 2.89206e-06 0)
(0.00100058 4.02121e-06 0)
(0.00100095 5.12312e-06 0)
(0.00100142 6.1911e-06 0)
(0.00100197 7.21952e-06 0)
(0.0010026 8.20395e-06 0)
(0.00100329 9.14104e-06 0)
(0.00100406 1.00285e-05 0)
(0.00100488 1.08647e-05 0)
(0.00100575 1.16488e-05 0)
(0.00100668 1.23803e-05 0)
(0.00100764 1.30587e-05 0)
(0.00100865 1.3684e-05 0)
(0.00100969 1.42562e-05 0)
(0.00101077 1.47756e-05 0)
(0.00101187 1.52424e-05 0)
(0.001013 1.5657e-05 0)
(0.00101415 1.60198e-05 0)
(0.00101531 1.63311e-05 0)
(0.0010165 1.65913e-05 0)
(0.0010177 1.68004e-05 0)
(0.00101891 1.6959e-05 0)
(0.00102013 1.70665e-05 0)
(0.00102136 1.71236e-05 0)
(0.00102259 1.71292e-05 0)
(0.00102383 1.70841e-05 0)
(0.00102507 1.69865e-05 0)
(0.00102632 1.68375e-05 0)
(0.00102756 1.66343e-05 0)
(0.0010288 1.63788e-05 0)
(0.00103004 1.60665e-05 0)
(0.00103127 1.57006e-05 0)
(0.00103249 1.52743e-05 0)
(0.00103372 1.47931e-05 0)
(0.00103492 1.42467e-05 0)
(0.00103612 1.36441e-05 0)
(0.0010373 1.29698e-05 0)
(0.00103848 1.22385e-05 0)
(0.00103963 1.14269e-05 0)
(0.00104079 1.05583e-05 0)
(0.0010419 9.59759e-06 0)
(0.00104303 8.58212e-06 0)
(0.00104411 7.45788e-06 0)
(0.00104522 6.2846e-06 0)
(0.00104625 4.97931e-06 0)
(0.00104734 3.63665e-06 0)
(0.00104832 2.12869e-06 0)
(0.0010494 6.04641e-07 0)
(0.00105032 -1.13365e-06 0)
(0.0010514 -2.85268e-06 0)
(0.00105226 -4.8621e-06 0)
(0.00105338 -6.79466e-06 0)
(0.00105417 -9.13175e-06 0)
(0.00105538 -1.12918e-05 0)
(0.00105605 -1.40246e-05 0)
(0.00105737 -1.64158e-05 0)
(0.00105781 -1.96388e-05 0)
(0.00105915 -2.2251e-05 0)
(0.001 4.64732e-07 0)
(0.00100008 1.39162e-06 0)
(0.00100024 2.31062e-06 0)
(0.00100047 3.21639e-06 0)
(0.00100078 4.10366e-06 0)
(0.00100116 4.96756e-06 0)
(0.00100162 5.80373e-06 0)
(0.00100214 6.60845e-06 0)
(0.00100273 7.37861e-06 0)
(0.00100337 8.11172e-06 0)
(0.00100407 8.80573e-06 0)
(0.00100482 9.45905e-06 0)
(0.00100561 1.00704e-05 0)
(0.00100645 1.0639e-05 0)
(0.00100732 1.11641e-05 0)
(0.00100823 1.16454e-05 0)
(0.00100917 1.20825e-05 0)
(0.00101014 1.24754e-05 0)
(0.00101113 1.28238e-05 0)
(0.00101214 1.31278e-05 0)
(0.00101318 1.33873e-05 0)
(0.00101423 1.36024e-05 0)
(0.00101529 1.37728e-05 0)
(0.00101637 1.38986e-05 0)
(0.00101746 1.39792e-05 0)
(0.00101855 1.40149e-05 0)
(0.00101965 1.40047e-05 0)
(0.00102076 1.39487e-05 0)
(0.00102186 1.38458e-05 0)
(0.00102296 1.36959e-05 0)
(0.00102406 1.34973e-05 0)
(0.00102516 1.32502e-05 0)
(0.00102625 1.29521e-05 0)
(0.00102733 1.26036e-05 0)
(0.0010284 1.22009e-05 0)
(0.00102946 1.17453e-05 0)
(0.0010305 1.12316e-05 0)
(0.00103153 1.06622e-05 0)
(0.00103254 1.00295e-05 0)
(0.00103354 9.33779e-06 0)
(0.0010345 8.5762e-06 0)
(0.00103546 7.75222e-06 0)
(0.00103638 6.84971e-06 0)
(0.00103729 5.88128e-06 0)
(0.00103814 4.82297e-06 0)
(0.001039 3.69534e-06 0)
(0.0010398 2.46256e-06 0)
(0.00104061 1.15782e-06 0)
(0.00104133 -2.72634e-07 0)
(0.00104209 -1.77415e-06 0)
(0.00104274 -3.428e-06 0)
(0.00104347 -5.14761e-06 0)
(0.00104402 -7.05879e-06 0)
(0.00104472 -9.02554e-06 0)
(0.00104517 -1.12424e-05 0)
(0.00104586 -1.34914e-05 0)
(0.00104616 -1.60733e-05 0)
(0.00104686 -1.86388e-05 0)
(0.00104692 -2.16568e-05 0)
(0.00104753 -2.45639e-05 0)
(0.001 3.67316e-07 0)
(0.00100007 1.10013e-06 0)
(0.0010002 1.82739e-06 0)
(0.0010004 2.5453e-06 0)
(0.00100066 3.2501e-06 0)
(0.00100098 3.93819e-06 0)
(0.00100137 4.60628e-06 0)
(0.00100182 5.2514e-06 0)
(0.00100232 5.87092e-06 0)
(0.00100287 6.46262e-06 0)
(0.00100347 7.02455e-06 0)
(0.00100412 7.55513e-06 0)
(0.00100481 8.05302e-06 0)
(0.00100554 8.51715e-06 0)
(0.00100631 8.94668e-06 0)
(0.00100711 9.34092e-06 0)
(0.00100794 9.69933e-06 0)
(0.0010088 1.00215e-05 0)
(0.00100968 1.0307e-05 0)
(0.00101058 1.05555e-05 0)
(0.0010115 1.07668e-05 0)
(0.00101244 1.09405e-05 0)
(0.00101339 1.10764e-05 0)
(0.00101435 1.11741e-05 0)
(0.00101533 1.12332e-05 0)
(0.0010163 1.12534e-05 0)
(0.00101728 1.1234e-05 0)
(0.00101827 1.11745e-05 0)
(0.00101925 1.10742e-05 0)
(0.00102023 1.09323e-05 0)
(0.0010212 1.0748e-05 0)
(0.00102217 1.05202e-05 0)
(0.00102313 1.02479e-05 0)
(0.00102407 9.92953e-06 0)
(0.001025 9.56395e-06 0)
(0.00102592 9.14932e-06 0)
(0.00102681 8.68414e-06 0)
(0.00102769 8.16603e-06 0)
(0.00102854 7.59338e-06 0)
(0.00102936 6.96294e-06 0)
(0.00103016 6.27319e-06 0)
(0.00103093 5.51959e-06 0)
(0.00103166 4.70101e-06 0)
(0.00103236 3.811e-06 0)
(0.00103301 2.84942e-06 0)
(0.00103364 1.80683e-06 0)
(0.00103421 6.85222e-07 0)
(0.00103475 -5.29524e-07 0)
(0.00103522 -1.83094e-06 0)
(0.00103568 -3.24171e-06 0)
(0.00103604 -4.74925e-06 0)
(0.00103641 -6.38895e-06 0)
(0.00103664 -8.13507e-06 0)
(0.00103692 -1.00426e-05 0)
(0.001037 -1.20645e-05 0)
(0.00103719 -1.42875e-05 0)
(0.00103708 -1.66293e-05 0)
(0.00103717 -1.92254e-05 0)
(0.00103678 -2.19351e-05 0)
(0.00103668 -2.49669e-05 0)
(0.001 2.84162e-07 0)
(0.00100006 8.51196e-07 0)
(0.00100017 1.41426e-06 0)
(0.00100034 1.97062e-06 0)
(0.00100057 2.51757e-06 0)
(0.00100086 3.05247e-06 0)
(0.00100119 3.57286e-06 0)
(0.00100158 4.07646e-06 0)
(0.00100202 4.5612e-06 0)
(0.0010025 5.02525e-06 0)
(0.00100303 5.467e-06 0)
(0.00100361 5.88503e-06 0)
(0.00100422 6.27813e-06 0)
(0.00100487 6.64525e-06 0)
(0.00100555 6.98551e-06 0)
(0.00100626 7.29814e-06 0)
(0.001007 7.5825e-06 0)
(0.00100777 7.838e-06 0)
(0.00100856 8.06418e-06 0)
(0.00100937 8.26053e-06 0)
(0.0010102 8.42667e-06 0)
(0.00101104 8.56214e-06 0)
(0.0010119 8.66658e-06 0)
(0.00101277 8.73946e-06 0)
(0.00101364 8.78043e-06 0)
(0.00101452 8.78884e-06 0)
(0.0010154 8.76431e-06 0)
(0.00101628 8.70596e-06 0)
(0.00101716 8.61344e-06 0)
(0.00101803 8.4855e-06 0)
(0.0010189 8.32185e-06 0)
(0.00101975 8.12075e-06 0)
(0.00102059 7.88206e-06 0)
(0.00102142 7.60332e-06 0)
(0.00102223 7.28474e-06 0)
(0.00102301 6.92277e-06 0)
(0.00102378 6.51831e-06 0)
(0.00102451 6.06616e-06 0)
(0.00102522 5.56849e-06 0)
(0.0010259 5.01757e-06 0)
(0.00102653 4.41776e-06 0)
(0.00102714 3.7574e-06 0)
(0.00102769 3.04465e-06 0)
(0.00102821 2.26164e-06 0)
(0.00102867 1.42294e-06 0)
(0.00102909 5.00916e-07 0)
(0.00102943 -4.79089e-07 0)
(0.00102974 -1.55986e-06 0)
(0.00102996 -2.69892e-06 0)
(0.00103015 -3.96488e-06 0)
(0.00103022 -5.28663e-06 0)
(0.00103026 -6.77231e-06 0)
(0.00103017 -8.30344e-06 0)
(0.00103006 -1.00517e-05 0)
(0.00102976 -1.18218e-05 0)
(0.00102948 -1.38877e-05 0)
(0.00102895 -1.59295e-05 0)
(0.00102847 -1.83841e-05 0)
(0.00102763 -2.07277e-05 0)
(0.00102686 -2.36556e-05 0)
(0.001 2.1123e-07 0)
(0.00100005 6.32788e-07 0)
(0.00100015 1.05155e-06 0)
(0.00100031 1.46559e-06 0)
(0.00100051 1.87299e-06 0)
(0.00100076 2.27185e-06 0)
(0.00100106 2.6604e-06 0)
(0.00100141 3.03694e-06 0)
(0.0010018 3.39996e-06 0)
(0.00100224 3.74803e-06 0)
(0.00100271 4.07989e-06 0)
(0.00100323 4.39441e-06 0)
(0.00100378 4.69057e-06 0)
(0.00100437 4.96746e-06 0)
(0.00100498 5.22431e-06 0)
(0.00100563 5.4604e-06 0)
(0.0010063 5.67512e-06 0)
(0.001007 5.86789e-06 0)
(0.00100772 6.03824e-06 0)
(0.00100846 6.18564e-06 0)
(0.00100921 6.30972e-06 0)
(0.00100998 6.40996e-06 0)
(0.00101076 6.48605e-06 0)
(0.00101155 6.53739e-06 0)
(0.00101234 6.56371e-06 0)
(0.00101314 6.56427e-06 0)
(0.00101394 6.53886e-06 0)
(0.00101474 6.48649e-06 0)
(0.00101553 6.40705e-06 0)
(0.00101631 6.29915e-06 0)
(0.00101709 6.16285e-06 0)
(0.00101785 5.99622e-06 0)
(0.0010186 5.79964e-06 0)
(0.00101932 5.57029e-06 0)
(0.00102003 5.30921e-06 0)
(0.00102071 5.01222e-06 0)
(0.00102136 4.68146e-06 0)
(0.00102198 4.31071e-06 0)
(0.00102257 3.90399e-06 0)
(0.00102312 3.45188e-06 0)
(0.00102362 2.96159e-06 0)
(0.00102408 2.41868e-06 0)
(0.00102449 1.8357e-06 0)
(0.00102484 1.19024e-06 0)
(0.00102513 5.03688e-07 0)
(0.00102537 -2.59019e-07 0)
(0.00102553 -1.06192e-06 0)
(0.00102563 -1.96062e-06 0)
(0.00102563 -2.89629e-06 0)
(0.00102557 -3.95655e-06 0)
(0.00102539 -5.04381e-06 0)
(0.00102514 -6.29738e-06 0)
(0.00102475 -7.55695e-06 0)
(0.00102429 -9.04534e-06 0)
(0.00102366 -1.05e-05 0)
(0.00102296 -1.22784e-05 0)
(0.00102203 -1.3951e-05 0)
(0.00102105 -1.60928e-05 0)
(0.00101975 -1.79999e-05 0)
(0.00101839 -2.05969e-05 0)
(0.001 1.45518e-07 0)
(0.00100005 4.35967e-07 0)
(0.00100014 7.24564e-07 0)
(0.00100028 1.01002e-06 0)
(0.00100047 1.29106e-06 0)
(0.0010007 1.5664e-06 0)
(0.00100097 1.83485e-06 0)
(0.00100129 2.09524e-06 0)
(0.00100165 2.34651e-06 0)
(0.00100205 2.58768e-06 0)
(0.00100249 2.81784e-06 0)
(0.00100296 3.03615e-06 0)
(0.00100347 3.24187e-06 0)
(0.00100401 3.43432e-06 0)
(0.00100458 3.6129e-06 0)
(0.00100518 3.77703e-06 0)
(0.0010058 3.92623e-06 0)
(0.00100645 4.06003e-06 0)
(0.00100711 4.17804e-06 0)
(0.0010078 4.27981e-06 0)
(0.0010085 4.36504e-06 0)
(0.00100921 4.43328e-06 0)
(0.00100993 4.48427e-06 0)
(0.00101066 4.51749e-06 0)
(0.0010114 4.53277e-06 0)
(0.00101213 4.52944e-06 0)
(0.00101287 4.50738e-06 0)
(0.0010136 4.46573e-06 0)
(0.00101433 4.40448e-06 0)
(0.00101505 4.32242e-06 0)
(0.00101575 4.21975e-06 0)
(0.00101644 4.09474e-06 0)
(0.00101711 3.94795e-06 0)
(0.00101776 3.77687e-06 0)
(0.00101839 3.58268e-06 0)
(0.00101899 3.36165e-06 0)
(0.00101955 3.11605e-06 0)
(0.00102008 2.84027e-06 0)
(0.00102057 2.53841e-06 0)
(0.00102102 2.20191e-06 0)
(0.00102142 1.83793e-06 0)
(0.00102176 1.43326e-06 0)
(0.00102205 1.00016e-06 0)
(0.00102228 5.18016e-07 0)
(0.00102244 7.44876e-09 0)
(0.00102253 -5.63938e-07 0)
(0.00102254 -1.1619e-06 0)
(0.00102246 -1.83823e-06 0)
(0.00102229 -2.53609e-06 0)
(0.00102202 -3.33761e-06 0)
(0.00102164 -4.14916e-06 0)
(0.00102115 -5.10194e-06 0)
(0.00102053 -6.04237e-06 0)
(0.00101978 -7.18106e-06 0)
(0.00101886 -8.2665e-06 0)
(0.00101781 -9.63805e-06 0)
(0.00101656 -1.08835e-05 0)
(0.00101515 -1.25514e-05 0)
(0.00101348 -1.39644e-05 0)
(0.00101164 -1.60104e-05 0)
(0.001 8.46355e-08 0)
(0.00100005 2.53586e-07 0)
(0.00100013 4.21494e-07 0)
(0.00100026 5.87624e-07 0)
(0.00100044 7.51239e-07 0)
(0.00100066 9.11609e-07 0)
(0.00100091 1.06803e-06 0)
(0.00100121 1.21985e-06 0)
(0.00100155 1.36642e-06 0)
(0.00100193 1.50717e-06 0)
(0.00100234 1.64155e-06 0)
(0.00100279 1.76907e-06 0)
(0.00100327 1.88926e-06 0)
(0.00100378 2.00171e-06 0)
(0.00100432 2.10604e-06 0)
(0.00100489 2.20189e-06 0)
(0.00100548 2.28895e-06 0)
(0.00100609 2.36691e-06 0)
(0.00100672 2.43552e-06 0)
(0.00100737 2.49449e-06 0)
(0.00100803 2.54361e-06 0)
(0.00100871 2.58258e-06 0)
(0.00100939 2.61124e-06 0)
(0.00101008 2.62924e-06 0)
(0.00101077 2.63646e-06 0)
(0.00101147 2.63246e-06 0)
(0.00101216 2.61717e-06 0)
(0.00101285 2.59001e-06 0)
(0.00101354 2.551e-06 0)
(0.00101421 2.49932e-06 0)
(0.00101487 2.43515e-06 0)
(0.00101551 2.3573e-06 0)
(0.00101613 2.26622e-06 0)
(0.00101673 2.1602e-06 0)
(0.0010173 2.04011e-06 0)
(0.00101784 1.90341e-06 0)
(0.00101834 1.75178e-06 0)
(0.00101881 1.58132e-06 0)
(0.00101923 1.39504e-06 0)
(0.00101961 1.187e-06 0)
(0.00101994 9.62372e-07 0)
(0.00102021 7.11945e-07 0)
(0.00102041 4.44564e-07 0)
(0.00102055 1.45793e-07 0)
(0.00102062 -1.69533e-07 0)
(0.0010206 -5.24204e-07 0)
(0.0010205 -8.93919e-07 0)
(0.00102031 -1.31484e-06 0)
(0.00102001 -1.74668e-06 0)
(0.0010196 -2.24698e-06 0)
(0.00101907 -2.7495e-06 0)
(0.00101842 -3.34635e-06 0)
(0.00101762 -3.92885e-06 0)
(0.00101667 -4.64526e-06 0)
(0.00101555 -5.31739e-06 0)
(0.00101425 -6.18481e-06 0)
(0.00101275 -6.95496e-06 0)
(0.00101105 -8.01646e-06 0)
(0.0010091 -8.88734e-06 0)
(0.00100691 -1.01995e-05 0)
(0.001 2.65436e-08 0)
(0.00100004 7.9555e-08 0)
(0.00100013 1.32262e-07 0)
(0.00100026 1.84431e-07 0)
(0.00100042 2.35828e-07 0)
(0.00100064 2.86221e-07 0)
(0.00100089 3.35385e-07 0)
(0.00100118 3.83105e-07 0)
(0.00100151 4.29177e-07 0)
(0.00100187 4.73412e-07 0)
(0.00100227 5.15634e-07 0)
(0.00100271 5.55677e-07 0)
(0.00100317 5.93391e-07 0)
(0.00100367 6.28633e-07 0)
(0.00100419 6.61278e-07 0)
(0.00100474 6.912e-07 0)
(0.00100532 7.18298e-07 0)
(0.00100591 7.42459e-07 0)
(0.00100653 7.63597e-07 0)
(0.00100716 7.81608e-07 0)
(0.0010078 7.9642e-07 0)
(0.00100845 8.07922e-07 0)
(0.00100912 8.16055e-07 0)
(0.00100979 8.20693e-07 0)
(0.00101046 8.21791e-07 0)
(0.00101114 8.19189e-07 0)
(0.00101181 8.12861e-07 0)
(0.00101248 8.02595e-07 0)
(0.00101314 7.88396e-07 0)
(0.00101379 7.69971e-07 0)
(0.00101442 7.47379e-07 0)
(0.00101504 7.20199e-07 0)
(0.00101563 6.8859e-07 0)
(0.0010162 6.51931e-07 0)
(0.00101675 6.10552e-07 0)
(0.00101726 5.63528e-07 0)
(0.00101773 5.11473e-07 0)
(0.00101817 4.52993e-07 0)
(0.00101856 3.89175e-07 0)
(0.0010189 3.17891e-07 0)
(0.00101919 2.41014e-07 0)
(0.00101942 1.55256e-07 0)
(0.00101958 6.37837e-08 0)
(0.00101967 -3.85645e-08 0)
(0.00101969 -1.46463e-07 0)
(0.00101963 -2.68135e-07 0)
(0.00101947 -3.94776e-07 0)
(0.00101921 -5.39298e-07 0)
(0.00101885 -6.87261e-07 0)
(0.00101837 -8.59263e-07 0)
(0.00101776 -1.0315e-06 0)
(0.00101702 -1.23699e-06 0)
(0.00101613 -1.43671e-06 0)
(0.00101507 -1.68382e-06 0)
(0.00101384 -1.91427e-06 0)
(0.00101242 -2.21411e-06 0)
(0.00101079 -2.47805e-06 0)
(0.00100894 -2.84592e-06 -3.72215e-38)
(0.00100684 -3.14397e-06 0)
(0.00100447 -3.60005e-06 0)
(0.001 -3.06275e-08 0)
(0.00100004 -9.17212e-08 0)
(0.00100013 -1.52403e-07 0)
(0.00100026 -2.12418e-07 0)
(0.00100042 -2.7151e-07 0)
(0.00100064 -3.29429e-07 0)
(0.00100089 -3.85936e-07 0)
(0.00100118 -4.408e-07 0)
(0.00100151 -4.93809e-07 0)
(0.00100187 -5.44759e-07 0)
(0.00100227 -5.93465e-07 0)
(0.00100271 -6.39753e-07 0)
(0.00100317 -6.83467e-07 0)
(0.00100367 -7.2446e-07 0)
(0.00100419 -7.62604e-07 0)
(0.00100474 -7.97774e-07 0)
(0.00100532 -8.2987e-07 0)
(0.00100591 -8.58781e-07 0)
(0.00100652 -8.84429e-07 0)
(0.00100715 -9.06713e-07 0)
(0.0010078 -9.2557e-07 0)
(0.00100845 -9.40899e-07 0)
(0.00100912 -9.52653e-07 0)
(0.00100979 -9.60716e-07 0)
(0.00101046 -9.65059e-07 0)
(0.00101113 -9.65537e-07 0)
(0.00101181 -9.62141e-07 0)
(0.00101247 -9.54676e-07 0)
(0.00101313 -9.43166e-07 0)
(0.00101378 -9.27338e-07 0)
(0.00101442 -9.07272e-07 0)
(0.00101503 -8.8257e-07 0)
(0.00101563 -8.5341e-07 0)
(0.0010162 -8.19201e-07 0)
(0.00101674 -7.8029e-07 0)
(0.00101725 -7.35784e-07 0)
(0.00101773 -6.86315e-07 0)
(0.00101816 -6.30523e-07 0)
(0.00101855 -5.69512e-07 0)
(0.00101889 -5.01193e-07 0)
(0.00101918 -4.27453e-07 0)
(0.00101941 -3.45044e-07 0)
(0.00101957 -2.57165e-07 0)
(0.00101966 -1.58702e-07 0)
(0.00101968 -5.50428e-08 0)
(0.00101961 6.19734e-08 0)
(0.00101946 1.83581e-07 0)
(0.0010192 3.22682e-07 0)
(0.00101884 4.64808e-07 0)
(0.00101835 6.30543e-07 0)
(0.00101775 7.96009e-07 0)
(0.001017 9.94199e-07 0)
(0.00101611 1.18597e-06 0)
(0.00101506 1.42457e-06 0)
(0.00101383 1.64576e-06 0)
(0.0010124 1.93574e-06 0)
(0.00101077 2.18892e-06 0)
(0.00100892 2.54541e-06 3.72215e-38)
(0.00100682 2.83103e-06 0)
(0.00100445 3.27415e-06 0)
(0.001 -8.86839e-08 0)
(0.00100005 -2.65646e-07 0)
(0.00100013 -4.41459e-07 0)
(0.00100026 -6.15361e-07 0)
(0.00100044 -7.86596e-07 0)
(0.00100065 -9.54417e-07 0)
(0.00100091 -1.11811e-06 0)
(0.00100121 -1.27699e-06 0)
(0.00100155 -1.43042e-06 0)
(0.00100193 -1.57781e-06 0)
(0.00100234 -1.7186e-06 0)
(0.00100279 -1.85229e-06 0)
(0.00100327 -1.97842e-06 0)
(0.00100378 -2.09654e-06 0)
(0.00100432 -2.20631e-06 0)
(0.00100488 -2.30733e-06 0)
(0.00100547 -2.39933e-06 0)
(0.00100608 -2.48198e-06 0)
(0.00100671 -2.55504e-06 0)
(0.00100736 -2.61822e-06 0)
(0.00100802 -2.67133e-06 0)
(0.0010087 -2.71407e-06 0)
(0.00100938 -2.74631e-06 0)
(0.00101007 -2.76768e-06 0)
(0.00101076 -2.7781e-06 0)
(0.00101146 -2.77714e-06 0)
(0.00101215 -2.76474e-06 0)
(0.00101284 -2.74034e-06 0)
(0.00101352 -2.70398e-06 0)
(0.00101419 -2.65486e-06 0)
(0.00101485 -2.59318e-06 0)
(0.00101549 -2.51777e-06 0)
(0.00101611 -2.42911e-06 0)
(0.0010167 -2.3255e-06 0)
(0.00101727 -2.20786e-06 0)
(0.00101781 -2.07365e-06 0)
(0.00101832 -1.92457e-06 0)
(0.00101878 -1.75678e-06 0)
(0.00101921 -1.57329e-06 0)
(0.00101958 -1.3682e-06 0)
(0.00101991 -1.1467e-06 0)
(0.00102017 -8.99638e-07 0)
(0.00102038 -6.35814e-07 0)
(0.00102052 -3.40898e-07 0)
(0.00102058 -2.96159e-08 0)
(0.00102057 3.2069e-07 0)
(0.00102046 6.85626e-07 0)
(0.00102027 1.10132e-06 0)
(0.00101997 1.52749e-06 0)
(0.00101956 2.02167e-06 0)
(0.00101903 2.51754e-06 0)
(0.00101837 3.10725e-06 0)
(0.00101757 3.68198e-06 0)
(0.00101662 4.3901e-06 0)
(0.00101549 5.05314e-06 0)
(0.0010142 5.91098e-06 0)
(0.00101269 6.67056e-06 0)
(0.00101099 7.72109e-06 0)
(0.00100904 8.57971e-06 0)
(0.00100685 9.87943e-06 0)
(0.001 -1.49479e-07 0)
(0.00100005 -4.47764e-07 0)
(0.00100014 -7.44092e-07 0)
(0.00100028 -1.03715e-06 0)
(0.00100046 -1.32564e-06 0)
(0.0010007 -1.60827e-06 0)
(0.00100097 -1.88382e-06 0)
(0.00100129 -2.15112e-06 0)
(0.00100165 -2.4091e-06 0)
(0.00100205 -2.65676e-06 0)
(0.00100248 -2.89318e-06 0)
(0.00100296 -3.11752e-06 0)
(0.00100346 -3.32904e-06 0)
(0.001004 -3.52704e-06 0)
(0.00100457 -3.71092e-06 0)
(0.00100517 -3.8801e-06 0)
(0.00100579 -4.03413e-06 0)
(0.00100644 -4.1725e-06 0)
(0.0010071 -4.29485e-06 0)
(0.00100778 -4.40073e-06 0)
(0.00100848 -4.48986e-06 0)
(0.00100919 -4.56177e-06 0)
(0.00100991 -4.61624e-06 0)
(0.00101064 -4.65275e-06 0)
(0.00101137 -4.67114e-06 0)
(0.00101211 -4.67076e-06 0)
(0.00101284 -4.65151e-06 0)
(0.00101358 -4.61254e-06 0)
(0.0010143 -4.55385e-06 0)
(0.00101502 -4.47428e-06 0)
(0.00101572 -4.37402e-06 0)
(0.00101641 -4.25138e-06 0)
(0.00101708 -4.10692e-06 0)
(0.00101773 -3.93818e-06 0)
(0.00101835 -3.74634e-06 0)
(0.00101895 -3.52771e-06 0)
(0.00101951 -3.28458e-06 0)
(0.00102004 -3.01136e-06 0)
(0.00102053 -2.71219e-06 0)
(0.00102097 -2.3785e-06 0)
(0.00102137 -2.01754e-06 0)
(0.00102171 -1.61604e-06 0)
(0.001022 -1.18637e-06 0)
(0.00102222 -7.07857e-07 0)
(0.00102238 -2.01237e-07 0)
(0.00102247 3.65972e-07 0)
(0.00102247 9.59327e-07 0)
(0.0010224 1.63059e-06 0)
(0.00102222 2.32297e-06 0)
(0.00102195 3.11857e-06 0)
(0.00102157 3.92373e-06 0)
(0.00102107 4.86969e-06 0)
(0.00102044 5.8027e-06 0)
(0.00101969 6.93354e-06 0)
(0.00101877 8.01029e-06 0)