/*--------------------------------*- C++ -*----------------------------------*\
| =========                 |                                                 |
| \\      /  F ield         | OpenFOAM: The Open Source CFD Toolbox           |
|  \\    /   O peration     | Version:  2312                                  |
|   \\  /    A nd           | Website:  www.openfoam.com                      |
|    \\/     M anipulation  |                                                 |
\*---------------------------------------------------------------------------*/
FoamFile
{
    version     2.0;
    format      ascii;
    arch        "LSB;label=32;scalar=64";
    class       volVectorField;
    location    "89000";
    object      U;
}
// * * * * * * * * * * * * * * * * * * * * * * * * * * * * * * * * * * * * * //

dimensions      [0 1 -1 0 0 0 0];

internalField   nonuniform List<vector> 
10800
(
(0.000992484 4.94175e-06 0)
(0.000990039 1.24573e-05 0)
(0.000986873 1.74783e-05 0)
(0.000980502 2.06618e-05 0)
(0.00097109 2.27446e-05 0)
(0.000959802 2.42379e-05 0)
(0.000947703 2.53766e-05 0)
(0.000935328 2.62356e-05 0)
(0.000922821 2.6839e-05 0)
(0.000910159 2.72121e-05 0)
(0.000897298 2.73924e-05 0)
(0.000884233 2.74229e-05 0)
(0.000871001 2.73416e-05 0)
(0.000857658 2.71765e-05 0)
(0.000844254 2.69459e-05 0)
(0.000830829 2.66613e-05 0)
(0.000817407 2.63308e-05 0)
(0.000804007 2.5961e-05 0)
(0.000790645 2.55573e-05 0)
(0.000777335 2.51246e-05 0)
(0.000764093 2.46666e-05 0)
(0.000750934 2.41865e-05 0)
(0.000737872 2.36864e-05 0)
(0.00072492 2.3168e-05 0)
(0.000712093 2.26324e-05 0)
(0.000699403 2.2081e-05 0)
(0.000686862 2.1514e-05 0)
(0.000674483 2.09327e-05 0)
(0.000662279 2.03366e-05 0)
(0.000650261 1.97276e-05 0)
(0.000638443 1.91041e-05 0)
(0.000626836 1.84687e-05 0)
(0.000615455 1.78189e-05 0)
(0.000604309 1.71587e-05 0)
(0.000593415 1.64837e-05 0)
(0.00058278 1.58004e-05 0)
(0.000572424 1.51014e-05 0)
(0.000562349 1.43975e-05 0)
(0.000552581 1.36759e-05 0)
(0.000543115 1.29545e-05 0)
(0.000533987 1.22116e-05 0)
(0.000525174 1.14773e-05 0)
(0.00051674 1.0714e-05 0)
(0.000508617 9.97243e-06 0)
(0.00050094 9.18804e-06 0)
(0.00049353 8.44636e-06 0)
(0.000486695 7.63689e-06 0)
(0.000479977 6.90206e-06 0)
(0.000474143 6.05865e-06 0)
(0.000467977 5.32921e-06 0)
(0.000463523 4.44319e-06 0)
(0.000457401 3.67212e-06 0)
(0.000455384 2.78164e-06 0)
(0.000447668 1.72045e-06 0)
(0.000451223 1.15155e-06 0)
(0.000436837 -1.26374e-06 0)
(0.000455259 1.11503e-07 0)
(0.000419285 -7.7274e-06 0)
(0.00047765 2.03054e-06 0)
(0.000382905 -2.44855e-05 0)
(0.00100003 5.80172e-06 0)
(0.00100172 1.49912e-05 0)
(0.00100423 2.15207e-05 0)
(0.00100706 2.60826e-05 0)
(0.00100979 2.94394e-05 0)
(0.00101219 3.21196e-05 0)
(0.00101422 3.43707e-05 0)
(0.00101589 3.62791e-05 0)
(0.00101727 3.78776e-05 0)
(0.00101838 3.91966e-05 0)
(0.00101923 4.02776e-05 0)
(0.00101982 4.11663e-05 0)
(0.00102015 4.19034e-05 0)
(0.00102021 4.25189e-05 0)
(0.00102002 4.30328e-05 0)
(0.00101959 4.34578e-05 0)
(0.00101894 4.38025e-05 0)
(0.00101807 4.40736e-05 0)
(0.00101701 4.42768e-05 0)
(0.00101575 4.44167e-05 0)
(0.00101431 4.44971e-05 0)
(0.0010127 4.45204e-05 0)
(0.00101093 4.44889e-05 0)
(0.001009 4.44034e-05 0)
(0.00100694 4.42653e-05 0)
(0.00100473 4.40743e-05 0)
(0.00100242 4.38315e-05 0)
(0.000999968 4.35357e-05 0)
(0.00099744 4.31885e-05 0)
(0.000994777 4.27871e-05 0)
(0.000992079 4.2335e-05 0)
(0.000989236 4.18263e-05 0)
(0.000986413 4.12682e-05 0)
(0.00098342 4.06499e-05 0)
(0.000980524 3.99853e-05 0)
(0.000977402 3.92546e-05 0)
(0.000974498 3.84839e-05 0)
(0.000971257 3.76372e-05 0)
(0.000968429 3.67631e-05 0)
(0.000965059 3.57954e-05 0)
(0.000962418 3.48235e-05 0)
(0.000958875 3.37267e-05 0)
(0.000956585 3.26683e-05 0)
(0.000952757 3.14283e-05 0)
(0.000951073 3.03031e-05 0)
(0.000946736 2.88939e-05 0)
(0.000946062 2.77364e-05 0)
(0.000940793 2.61103e-05 0)
(0.000941795 2.49793e-05 0)
(0.000934822 2.30494e-05 0)
(0.000938615 2.20445e-05 0)
(0.000928554 1.96561e-05 0)
(0.000937022 1.89431e-05 0)
(0.000921424 1.58326e-05 0)
(0.000937755 1.5672e-05 0)
(0.000912323 1.1429e-05 0)
(0.000941937 1.21545e-05 0)
(0.000899212 6.30907e-06 0)
(0.000951466 7.94222e-06 0)
(0.000878944 8.89417e-07 0)
(0.000999989 1.96212e-06 0)
(0.00100078 5.76273e-06 0)
(0.00100224 9.28692e-06 0)
(0.00100423 1.24509e-05 0)
(0.00100654 1.52517e-05 0)
(0.00100897 1.77348e-05 0)
(0.0010114 1.99546e-05 0)
(0.00101376 2.19543e-05 0)
(0.00101607 2.37612e-05 0)
(0.00101834 2.53918e-05 0)
(0.00102056 2.68594e-05 0)
(0.00102273 2.81774e-05 0)
(0.00102484 2.93601e-05 0)
(0.0010269 3.04214e-05 0)
(0.00102888 3.13738e-05 0)
(0.0010308 3.2227e-05 0)
(0.00103265 3.29892e-05 0)
(0.00103444 3.36659e-05 0)
(0.00103617 3.42629e-05 0)
(0.00103783 3.47834e-05 0)
(0.00103944 3.52319e-05 0)
(0.00104099 3.56097e-05 0)
(0.00104249 3.59209e-05 0)
(0.00104392 3.61647e-05 0)
(0.00104532 3.63454e-05 0)
(0.00104664 3.64597e-05 0)
(0.00104794 3.65132e-05 0)
(0.00104915 3.64995e-05 0)
(0.00105036 3.64269e-05 0)
(0.00105147 3.62846e-05 0)
(0.0010526 3.60856e-05 0)
(0.0010536 3.58124e-05 0)
(0.00105467 3.5486e-05 0)
(0.00105556 3.50786e-05 0)
(0.00105657 3.46236e-05 0)
(0.00105734 3.40774e-05 0)
(0.00105834 3.34932e-05 0)
(0.00105898 3.28029e-05 0)
(0.00106 3.20901e-05 0)
(0.00106048 3.12492e-05 0)
(0.00106158 3.04104e-05 0)
(0.00106185 2.94109e-05 0)
(0.00106312 2.84514e-05 0)
(0.0010631 2.72833e-05 0)
(0.00106467 2.62122e-05 0)
(0.00106423 2.48627e-05 0)
(0.0010663 2.36944e-05 0)
(0.00106524 2.21475e-05 0)
(0.00106809 2.09029e-05 0)
(0.00106608 1.91406e-05 0)
(0.00107015 1.78489e-05 0)
(0.00106668 1.58554e-05 0)
(0.00107262 1.45557e-05 0)
(0.00106689 1.23309e-05 0)
(0.0010757 1.10729e-05 0)
(0.00106647 8.66954e-06 0)
(0.00107965 7.51441e-06 0)
(0.00106505 5.13298e-06 0)
(0.00108489 4.11052e-06 0)
(0.00106216 2.25614e-06 0)
(0.00100001 1.74103e-06 0)
(0.00100047 5.1576e-06 0)
(0.00100128 8.41737e-06 0)
(0.00100239 1.14441e-05 0)
(0.00100374 1.41968e-05 0)
(0.00100526 1.66726e-05 0)
(0.00100689 1.88932e-05 0)
(0.00100859 2.08884e-05 0)
(0.00101033 2.26852e-05 0)
(0.00101212 2.43044e-05 0)
(0.00101394 2.57617e-05 0)
(0.00101579 2.70698e-05 0)
(0.00101765 2.82412e-05 0)
(0.00101952 2.92876e-05 0)
(0.0010214 3.0221e-05 0)
(0.00102328 3.10513e-05 0)
(0.00102516 3.17877e-05 0)
(0.00102704 3.24371e-05 0)
(0.00102892 3.3006e-05 0)
(0.00103079 3.34984e-05 0)
(0.00103266 3.39193e-05 0)
(0.00103452 3.42708e-05 0)
(0.00103638 3.45569e-05 0)
(0.00103823 3.47779e-05 0)
(0.00104008 3.49375e-05 0)
(0.00104192 3.50342e-05 0)
(0.00104377 3.50716e-05 0)
(0.0010456 3.50466e-05 0)
(0.00104743 3.49634e-05 0)
(0.00104924 3.48167e-05 0)
(0.00105107 3.46121e-05 0)
(0.00105287 3.43419e-05 0)
(0.00105469 3.40135e-05 0)
(0.00105646 3.36167e-05 0)
(0.00105828 3.31612e-05 0)
(0.00106001 3.26336e-05 0)
(0.00106183 3.20469e-05 0)
(0.00106353 3.1384e-05 0)
(0.00106536 3.06614e-05 0)
(0.00106702 2.98589e-05 0)
(0.00106886 2.89952e-05 0)
(0.00107046 2.80493e-05 0)
(0.00107234 2.70391e-05 0)
(0.00107387 2.59476e-05 0)
(0.0010758 2.47845e-05 0)
(0.00107723 2.35481e-05 0)
(0.00107927 2.22244e-05 0)
(0.00108057 2.08493e-05 0)
(0.00108276 1.93545e-05 0)
(0.00108389 1.78568e-05 0)
(0.0010863 1.61774e-05 0)
(0.00108719 1.45916e-05 0)
(0.00108993 1.27097e-05 0)
(0.00109048 1.11045e-05 0)
(0.00109369 8.99724e-06 0)
(0.00109375 7.49838e-06 0)
(0.00109762 5.13053e-06 0)
(0.00109699 3.94457e-06 0)
(0.00110179 1.22938e-06 0)
(0.00110011 6.44596e-07 0)
(0.001 1.15237e-06 0)
(0.00100023 3.42974e-06 0)
(0.00100067 5.64167e-06 0)
(0.00100134 7.75646e-06 0)
(0.0010022 9.75274e-06 0)
(0.00100324 1.16202e-05 0)
(0.00100441 1.33576e-05 0)
(0.00100569 1.49689e-05 0)
(0.00100705 1.64602e-05 0)
(0.00100848 1.78376e-05 0)
(0.00100997 1.91065e-05 0)
(0.0010115 2.02718e-05 0)
(0.00101306 2.13382e-05 0)
(0.00101466 2.23107e-05 0)
(0.00101628 2.31942e-05 0)
(0.00101792 2.39936e-05 0)
(0.00101957 2.47132e-05 0)
(0.00102124 2.5357e-05 0)
(0.00102292 2.59284e-05 0)
(0.00102461 2.64301e-05 0)
(0.00102631 2.68646e-05 0)
(0.00102801 2.72338e-05 0)
(0.00102972 2.75392e-05 0)
(0.00103144 2.77823e-05 0)
(0.00103316 2.79638e-05 0)
(0.00103488 2.80847e-05 0)
(0.00103661 2.81448e-05 0)
(0.00103834 2.8145e-05 0)
(0.00104008 2.8084e-05 0)
(0.00104182 2.79633e-05 0)
(0.00104356 2.77799e-05 0)
(0.0010453 2.75366e-05 0)
(0.00104704 2.72278e-05 0)
(0.00104879 2.68591e-05 0)
(0.00105053 2.64207e-05 0)
(0.00105227 2.59232e-05 0)
(0.00105402 2.53499e-05 0)
(0.00105576 2.47199e-05 0)
(0.0010575 2.40051e-05 0)
(0.00105924 2.32393e-05 0)
(0.00106098 2.23752e-05 0)
(0.00106271 2.14713e-05 0)
(0.00106444 2.04483e-05 0)
(0.00106617 1.9406e-05 0)
(0.0010679 1.82126e-05 0)
(0.00106963 1.70357e-05 0)
(0.00107135 1.56571e-05 0)
(0.00107309 1.43554e-05 0)
(0.00107479 1.27724e-05 0)
(0.00107657 1.13657e-05 0)
(0.00107825 9.55071e-06 0)
(0.00108009 8.07262e-06 0)
(0.00108175 5.98299e-06 0)
(0.00108373 4.48724e-06 0)
(0.00108538 2.05664e-06 0)
(0.00108758 6.33522e-07 0)
(0.00108922 -2.22983e-06 0)
(0.00109173 -3.4269e-06 0)
(0.00109323 -6.86199e-06 0)
(0.00109605 -7.61383e-06 0)
(0.001 9.26171e-07 0)
(0.00100017 2.76983e-06 0)
(0.00100051 4.58638e-06 0)
(0.001001 6.35691e-06 0)
(0.00100165 8.06398e-06 0)
(0.00100242 9.69372e-06 0)
(0.00100332 1.12369e-05 0)
(0.0010043 1.26886e-05 0)
(0.00100537 1.40473e-05 0)
(0.00100651 1.53134e-05 0)
(0.00100771 1.64885e-05 0)
(0.00100896 1.75745e-05 0)
(0.00101025 1.85736e-05 0)
(0.00101159 1.94885e-05 0)
(0.00101295 2.03218e-05 0)
(0.00101435 2.10766e-05 0)
(0.00101577 2.17557e-05 0)
(0.00101722 2.23621e-05 0)
(0.00101868 2.2898e-05 0)
(0.00102016 2.33663e-05 0)
(0.00102165 2.37684e-05 0)
(0.00102316 2.41066e-05 0)
(0.00102467 2.43818e-05 0)
(0.0010262 2.4596e-05 0)
(0.00102773 2.4749e-05 0)
(0.00102928 2.48429e-05 0)
(0.00103082 2.48766e-05 0)
(0.00103238 2.48522e-05 0)
(0.00103394 2.47672e-05 0)
(0.0010355 2.46249e-05 0)
(0.00103706 2.44204e-05 0)
(0.00103863 2.41589e-05 0)
(0.0010402 2.38324e-05 0)
(0.00104177 2.34494e-05 0)
(0.00104333 2.2997e-05 0)
(0.00104491 2.24892e-05 0)
(0.00104647 2.19057e-05 0)
(0.00104804 2.12693e-05 0)
(0.00104959 2.05479e-05 0)
(0.00105116 1.97787e-05 0)
(0.0010527 1.89113e-05 0)
(0.00105427 1.80055e-05 0)
(0.0010558 1.69819e-05 0)
(0.00105737 1.59366e-05 0)
(0.00105888 1.47442e-05 0)
(0.00106047 1.3558e-05 0)
(0.00106196 1.21808e-05 0)
(0.00106359 1.08556e-05 0)
(0.00106505 9.27265e-06 0)
(0.00106673 7.81622e-06 0)
(0.00106815 6.00056e-06 0)
(0.00106992 4.43107e-06 0)
(0.00107129 2.34674e-06 0)
(0.00107319 6.95334e-07 0)
(0.00107446 -1.71613e-06 0)
(0.00107659 -3.41008e-06 0)
(0.00107775 -6.25144e-06 0)
(0.00108022 -7.93014e-06 0)
(0.00108114 -1.13489e-05 0)
(0.00108394 -1.29097e-05 0)
(0.001 7.31594e-07 0)
(0.00100013 2.18831e-06 0)
(0.00100037 3.62557e-06 0)
(0.00100074 5.03073e-06 0)
(0.00100121 6.39235e-06 0)
(0.0010018 7.70113e-06 0)
(0.00100249 8.95017e-06 0)
(0.00100326 1.0135e-05 0)
(0.00100411 1.1253e-05 0)
(0.00100503 1.23031e-05 0)
(0.00100602 1.32851e-05 0)
(0.00100705 1.41994e-05 0)
(0.00100814 1.50467e-05 0)
(0.00100927 1.58279e-05 0)
(0.00101044 1.6544e-05 0)
(0.00101164 1.71963e-05 0)
(0.00101287 1.77859e-05 0)
(0.00101413 1.83143e-05 0)
(0.00101541 1.87826e-05 0)
(0.00101672 1.91921e-05 0)
(0.00101804 1.95436e-05 0)
(0.00101937 1.98384e-05 0)
(0.00102072 2.00766e-05 0)
(0.00102208 2.02596e-05 0)
(0.00102346 2.03868e-05 0)
(0.00102484 2.04595e-05 0)
(0.00102622 2.04765e-05 0)
(0.00102761 2.04393e-05 0)
(0.00102901 2.03455e-05 0)
(0.0010304 2.01975e-05 0)
(0.0010318 1.9991e-05 0)
(0.0010332 1.973e-05 0)
(0.0010346 1.94075e-05 0)
(0.001036 1.90302e-05 0)
(0.00103738 1.85872e-05 0)
(0.00103878 1.80892e-05 0)
(0.00104015 1.75197e-05 0)
(0.00104154 1.6896e-05 0)
(0.0010429 1.61924e-05 0)
(0.00104427 1.54369e-05 0)
(0.00104561 1.45901e-05 0)
(0.00104698 1.36964e-05 0)
(0.00104829 1.26947e-05 0)
(0.00104965 1.16561e-05 0)
(0.00105093 1.04853e-05 0)
(0.00105228 9.29511e-06 0)
(0.00105354 7.93688e-06 0)
(0.00105489 6.58888e-06 0)
(0.0010561 5.01892e-06 0)
(0.00105748 3.50776e-06 0)
(0.00105865 1.69265e-06 0)
(0.00106009 1.6352e-08 0)
(0.00106123 -2.08601e-06 0)
(0.00106278 -3.91565e-06 0)
(0.00106386 -6.35528e-06 0)
(0.00106557 -8.31202e-06 0)
(0.00106654 -1.11706e-05 0)
(0.00106846 -1.3221e-05 0)
(0.00106921 -1.66321e-05 0)
(0.00107131 -1.87179e-05 0)
(0.001 5.82486e-07 0)
(0.0010001 1.74353e-06 0)
(0.00100029 2.89274e-06 0)
(0.00100058 4.02224e-06 0)
(0.00100095 5.12453e-06 0)
(0.00100142 6.19294e-06 0)
(0.00100197 7.22182e-06 0)
(0.0010026 8.20674e-06 0)
(0.00100329 9.14435e-06 0)
(0.00100405 1.00323e-05 0)
(0.00100488 1.08692e-05 0)
(0.00100575 1.16539e-05 0)
(0.00100668 1.23859e-05 0)
(0.00100764 1.3065e-05 0)
(0.00100865 1.36909e-05 0)
(0.00100969 1.42639e-05 0)
(0.00101077 1.47839e-05 0)
(0.00101187 1.52514e-05 0)
(0.00101299 1.56667e-05 0)
(0.00101414 1.60302e-05 0)
(0.00101531 1.63422e-05 0)
(0.00101649 1.66032e-05 0)
(0.00101769 1.6813e-05 0)
(0.0010189 1.69723e-05 0)
(0.00102012 1.70805e-05 0)
(0.00102135 1.71384e-05 0)
(0.00102259 1.71447e-05 0)
(0.00102383 1.71003e-05 0)
(0.00102507 1.70034e-05 0)
(0.00102631 1.68552e-05 0)
(0.00102755 1.66527e-05 0)
(0.00102879 1.63979e-05 0)
(0.00103003 1.60862e-05 0)
(0.00103126 1.5721e-05 0)
(0.00103248 1.52955e-05 0)
(0.0010337 1.48149e-05 0)
(0.00103491 1.42692e-05 0)
(0.00103611 1.36672e-05 0)
(0.00103729 1.29937e-05 0)
(0.00103847 1.2263e-05 0)
(0.00103962 1.14521e-05 0)
(0.00104077 1.05842e-05 0)
(0.00104189 9.62416e-06 0)
(0.00104301 8.60935e-06 0)
(0.00104409 7.48581e-06 0)
(0.0010452 6.31318e-06 0)
(0.00104623 5.00861e-06 0)
(0.00104731 3.66659e-06 0)
(0.00104829 2.15937e-06 0)
(0.00104937 6.35912e-07 0)
(0.00105029 -1.10161e-06 0)
(0.00105137 -2.82005e-06 0)
(0.00105223 -4.82856e-06 0)
(0.00105335 -6.76051e-06 0)
(0.00105414 -9.09645e-06 0)
(0.00105534 -1.1256e-05 0)
(0.00105602 -1.39875e-05 0)
(0.00105733 -1.63783e-05 0)
(0.00105777 -1.95997e-05 0)
(0.00105911 -2.22118e-05 0)
(0.001 4.64847e-07 0)
(0.00100008 1.39201e-06 0)
(0.00100024 2.31135e-06 0)
(0.00100047 3.21749e-06 0)
(0.00100078 4.10519e-06 0)
(0.00100116 4.96955e-06 0)
(0.00100162 5.80621e-06 0)
(0.00100214 6.61146e-06 0)
(0.00100273 7.38219e-06 0)
(0.00100337 8.1159e-06 0)
(0.00100407 8.81054e-06 0)
(0.00100481 9.46451e-06 0)
(0.00100561 1.00766e-05 0)
(0.00100644 1.06458e-05 0)
(0.00100732 1.11717e-05 0)
(0.00100823 1.16537e-05 0)
(0.00100917 1.20916e-05 0)
(0.00101013 1.24852e-05 0)
(0.00101113 1.28344e-05 0)
(0.00101214 1.31392e-05 0)
(0.00101317 1.33995e-05 0)
(0.00101423 1.36154e-05 0)
(0.00101529 1.37865e-05 0)
(0.00101637 1.39131e-05 0)
(0.00101745 1.39946e-05 0)
(0.00101855 1.4031e-05 0)
(0.00101965 1.40216e-05 0)
(0.00102075 1.39664e-05 0)
(0.00102185 1.38643e-05 0)
(0.00102296 1.37152e-05 0)
(0.00102406 1.35174e-05 0)
(0.00102515 1.32711e-05 0)
(0.00102624 1.29738e-05 0)
(0.00102732 1.2626e-05 0)
(0.00102839 1.22241e-05 0)
(0.00102945 1.17693e-05 0)
(0.00103049 1.12563e-05 0)
(0.00103152 1.06877e-05 0)
(0.00103253 1.00557e-05 0)
(0.00103352 9.3648e-06 0)
(0.00103449 8.60397e-06 0)
(0.00103544 7.78076e-06 0)
(0.00103636 6.87903e-06 0)
(0.00103727 5.91135e-06 0)
(0.00103813 4.85384e-06 0)
(0.00103898 3.72699e-06 0)
(0.00103978 2.49504e-06 0)
(0.00104059 1.1911e-06 0)
(0.0010413 -2.38441e-07 0)
(0.00104207 -1.73917e-06 0)
(0.00104271 -3.39207e-06 0)
(0.00104344 -5.11091e-06 0)
(0.00104399 -7.02105e-06 0)
(0.00104469 -8.98703e-06 0)
(0.00104514 -1.12026e-05 0)
(0.00104583 -1.34509e-05 0)
(0.00104613 -1.60315e-05 0)
(0.00104682 -1.85963e-05 0)
(0.00104688 -2.16126e-05 0)
(0.00104749 -2.45193e-05 0)
(0.001 3.67438e-07 0)
(0.00100007 1.10056e-06 0)
(0.0010002 1.82817e-06 0)
(0.0010004 2.54648e-06 0)
(0.00100066 3.25172e-06 0)
(0.00100098 3.94031e-06 0)
(0.00100137 4.60893e-06 0)
(0.00100182 5.25462e-06 0)
(0.00100232 5.87475e-06 0)
(0.00100287 6.46709e-06 0)
(0.00100347 7.0297e-06 0)
(0.00100412 7.56098e-06 0)
(0.00100481 8.05959e-06 0)
(0.00100554 8.52448e-06 0)
(0.00100631 8.95477e-06 0)
(0.00100711 9.3498e-06 0)
(0.00100794 9.70902e-06 0)
(0.0010088 1.0032e-05 0)
(0.00100968 1.03183e-05 0)
(0.00101058 1.05677e-05 0)
(0.0010115 1.07798e-05 0)
(0.00101244 1.09544e-05 0)
(0.00101339 1.10911e-05 0)
(0.00101435 1.11897e-05 0)
(0.00101532 1.12497e-05 0)
(0.0010163 1.12707e-05 0)
(0.00101728 1.12521e-05 0)
(0.00101826 1.11935e-05 0)
(0.00101924 1.10941e-05 0)
(0.00102022 1.09531e-05 0)
(0.0010212 1.07696e-05 0)
(0.00102216 1.05427e-05 0)
(0.00102312 1.02711e-05 0)
(0.00102406 9.95365e-06 0)
(0.00102499 9.58892e-06 0)
(0.00102591 9.17512e-06 0)
(0.0010268 8.71079e-06 0)
(0.00102768 8.19351e-06 0)
(0.00102852 7.6217e-06 0)
(0.00102935 6.99211e-06 0)
(0.00103014 6.30321e-06 0)
(0.00103091 5.55046e-06 0)
(0.00103164 4.73276e-06 0)
(0.00103234 3.8436e-06 0)
(0.001033 2.88293e-06 0)
(0.00103362 1.84122e-06 0)
(0.00103419 7.20557e-07 0)
(0.00103473 -4.93286e-07 0)
(0.0010352 -1.79375e-06 0)
(0.00103566 -3.20362e-06 0)
(0.00103602 -4.71013e-06 0)
(0.00103639 -6.34889e-06 0)
(0.00103661 -8.09387e-06 0)
(0.0010369 -1.00004e-05 0)
(0.00103697 -1.20211e-05 0)
(0.00103716 -1.42431e-05 0)
(0.00103705 -1.65834e-05 0)
(0.00103714 -1.91787e-05 0)
(0.00103675 -2.18866e-05 0)
(0.00103665 -2.49176e-05 0)
(0.001 2.84289e-07 0)
(0.00100006 8.51638e-07 0)
(0.00100017 1.41507e-06 0)
(0.00100034 1.97186e-06 0)
(0.00100057 2.51928e-06 0)
(0.00100085 3.0547e-06 0)
(0.00100119 3.57565e-06 0)
(0.00100158 4.07985e-06 0)
(0.00100202 4.56524e-06 0)
(0.0010025 5.02997e-06 0)
(0.00100303 5.47243e-06 0)
(0.00100361 5.8912e-06 0)
(0.00100422 6.28507e-06 0)
(0.00100487 6.65298e-06 0)
(0.00100555 6.99406e-06 0)
(0.00100626 7.30752e-06 0)
(0.001007 7.59273e-06 0)
(0.00100777 7.84911e-06 0)
(0.00100856 8.07616e-06 0)
(0.00100937 8.2734e-06 0)
(0.0010102 8.44044e-06 0)
(0.00101104 8.57681e-06 0)
(0.0010119 8.68216e-06 0)
(0.00101276 8.75595e-06 0)
(0.00101364 8.79785e-06 0)
(0.00101451 8.80716e-06 0)
(0.0010154 8.78356e-06 0)
(0.00101628 8.72613e-06 0)
(0.00101715 8.63452e-06 0)
(0.00101803 8.50749e-06 0)
(0.00101889 8.34475e-06 0)
(0.00101974 8.14456e-06 0)
(0.00102059 7.90678e-06 0)
(0.00102141 7.62895e-06 0)
(0.00102222 7.31128e-06 0)
(0.00102301 6.95021e-06 0)
(0.00102377 6.54666e-06 0)
(0.00102451 6.09542e-06 0)
(0.00102521 5.59866e-06 0)
(0.00102589 5.04865e-06 0)
(0.00102652 4.44977e-06 0)
(0.00102712 3.79035e-06 0)
(0.00102768 3.07855e-06 0)
(0.0010282 2.2965e-06 0)
(0.00102865 1.45878e-06 0)
(0.00102907 5.37754e-07 0)
(0.00102942 -4.41227e-07 0)
(0.00102972 -1.52103e-06 0)
(0.00102995 -2.65905e-06 0)
(0.00103013 -3.924e-06 0)
(0.0010302 -5.24461e-06 0)
(0.00103024 -6.72922e-06 0)
(0.00103015 -8.25911e-06 0)
(0.00103003 -1.00062e-05 0)
(0.00102974 -1.1775e-05 0)
(0.00102946 -1.38398e-05 0)
(0.00102893 -1.588e-05 0)
(0.00102845 -1.83334e-05 0)
(0.0010276 -2.06752e-05 0)
(0.00102683 -2.3602e-05 0)
(0.001 2.11362e-07 0)
(0.00100005 6.33247e-07 0)
(0.00100015 1.0524e-06 0)
(0.00100031 1.46688e-06 0)
(0.00100051 1.87477e-06 0)
(0.00100076 2.27417e-06 0)
(0.00100106 2.6633e-06 0)
(0.00100141 3.04048e-06 0)
(0.0010018 3.40417e-06 0)
(0.00100224 3.75295e-06 0)
(0.00100271 4.08556e-06 0)
(0.00100323 4.40084e-06 0)
(0.00100378 4.69781e-06 0)
(0.00100437 4.97553e-06 0)
(0.00100498 5.23324e-06 0)
(0.00100563 5.4702e-06 0)
(0.0010063 5.68581e-06 0)
(0.001007 5.87949e-06 0)
(0.00100772 6.05076e-06 0)
(0.00100846 6.19909e-06 0)
(0.00100921 6.32412e-06 0)
(0.00100998 6.42531e-06 0)
(0.00101076 6.50235e-06 0)
(0.00101155 6.55464e-06 0)
(0.00101234 6.58192e-06 0)
(0.00101314 6.58345e-06 0)
(0.00101394 6.55901e-06 0)
(0.00101473 6.50761e-06 0)
(0.00101552 6.42912e-06 0)
(0.00101631 6.32219e-06 0)
(0.00101708 6.18686e-06 0)
(0.00101785 6.02118e-06 0)
(0.00101859 5.82556e-06 0)
(0.00101932 5.59718e-06 0)
(0.00102002 5.33705e-06 0)
(0.0010207 5.04102e-06 0)
(0.00102135 4.71123e-06 0)
(0.00102198 4.34144e-06 0)
(0.00102256 3.93569e-06 0)
(0.00102311 3.48455e-06 0)
(0.00102361 2.99525e-06 0)
(0.00102407 2.45333e-06 0)
(0.00102448 1.87138e-06 0)
(0.00102483 1.22695e-06 0)
(0.00102512 5.41456e-07 0)
(0.00102536 -2.2018e-07 0)
(0.00102552 -1.02204e-06 0)
(0.00102561 -1.91971e-06 0)
(0.00102562 -2.85427e-06 0)
(0.00102555 -3.91338e-06 0)
(0.00102537 -4.9994e-06 0)
(0.00102512 -6.25177e-06 0)
(0.00102474 -7.51002e-06 0)
(0.00102427 -8.99714e-06 0)
(0.00102364 -1.04503e-05 0)
(0.00102293 -1.22274e-05 0)
(0.00102201 -1.38984e-05 0)
(0.00102102 -1.60388e-05 0)
(0.00101973 -1.79441e-05 0)
(0.00101837 -2.05396e-05 0)
(0.001 1.45654e-07 0)
(0.00100005 4.36439e-07 0)
(0.00100014 7.25436e-07 0)
(0.00100028 1.01135e-06 0)
(0.00100047 1.2929e-06 0)
(0.0010007 1.5688e-06 0)
(0.00100097 1.83785e-06 0)
(0.00100129 2.09889e-06 0)
(0.00100165 2.35085e-06 0)
(0.00100205 2.59275e-06 0)
(0.00100249 2.82368e-06 0)
(0.00100296 3.04279e-06 0)
(0.00100347 3.24935e-06 0)
(0.00100401 3.44266e-06 0)
(0.00100458 3.62212e-06 0)
(0.00100518 3.78715e-06 0)
(0.0010058 3.93728e-06 0)
(0.00100645 4.07201e-06 0)
(0.00100711 4.19097e-06 0)
(0.0010078 4.29371e-06 0)
(0.0010085 4.37992e-06 0)
(0.00100921 4.44914e-06 0)
(0.00100993 4.50112e-06 0)
(0.00101066 4.53534e-06 0)
(0.00101139 4.55161e-06 0)
(0.00101213 4.54928e-06 0)
(0.00101287 4.52823e-06 0)
(0.0010136 4.48758e-06 0)
(0.00101432 4.42733e-06 0)
(0.00101504 4.34628e-06 0)
(0.00101575 4.24461e-06 0)
(0.00101644 4.12061e-06 0)
(0.00101711 3.97482e-06 0)
(0.00101776 3.80474e-06 0)
(0.00101838 3.61155e-06 0)
(0.00101898 3.39152e-06 0)
(0.00101955 3.14693e-06 0)
(0.00102008 2.87216e-06 0)
(0.00102057 2.57131e-06 0)
(0.00102101 2.23582e-06 0)
(0.00102141 1.87287e-06 0)
(0.00102176 1.46922e-06 0)
(0.00102205 1.03715e-06 0)
(0.00102227 5.56037e-07 0)
(0.00102243 4.65463e-08 0)
(0.00102252 -5.23775e-07 0)
(0.00102253 -1.12059e-06 0)
(0.00102245 -1.79569e-06 0)
(0.00102228 -2.49229e-06 0)
(0.00102201 -3.29256e-06 0)
(0.00102163 -4.10281e-06 0)
(0.00102114 -5.05427e-06 0)
(0.00102051 -5.99328e-06 0)
(0.00101976 -7.13058e-06 0)
(0.00101885 -8.21448e-06 0)
(0.0010178 -9.58454e-06 0)
(0.00101654 -1.08283e-05 0)
(0.00101514 -1.24945e-05 0)
(0.00101346 -1.39057e-05 0)
(0.00101162 -1.595e-05 0)
(0.001 8.4774e-08 0)
(0.00100005 2.54068e-07 0)
(0.00100013 4.22385e-07 0)
(0.00100026 5.88981e-07 0)
(0.00100044 7.53115e-07 0)
(0.00100066 9.14055e-07 0)
(0.00100091 1.0711e-06 0)
(0.00100121 1.22357e-06 0)
(0.00100155 1.37086e-06 0)
(0.00100193 1.51235e-06 0)
(0.00100234 1.64752e-06 0)
(0.00100279 1.77586e-06 0)
(0.00100327 1.89691e-06 0)
(0.00100378 2.01024e-06 0)
(0.00100432 2.11547e-06 0)
(0.00100489 2.21224e-06 0)
(0.00100548 2.30025e-06 0)
(0.00100609 2.37917e-06 0)
(0.00100672 2.44875e-06 0)
(0.00100737 2.50871e-06 0)
(0.00100803 2.55883e-06 0)
(0.0010087 2.59881e-06 0)
(0.00100939 2.62848e-06 0)
(0.00101008 2.6475e-06 0)
(0.00101077 2.65575e-06 0)
(0.00101147 2.65277e-06 0)
(0.00101216 2.63852e-06 0)
(0.00101285 2.61239e-06 0)
(0.00101353 2.57441e-06 0)
(0.0010142 2.52376e-06 0)
(0.00101486 2.46062e-06 0)
(0.0010155 2.38381e-06 0)
(0.00101613 2.29376e-06 0)
(0.00101672 2.18877e-06 0)
(0.00101729 2.06972e-06 0)
(0.00101783 1.93406e-06 0)
(0.00101834 1.78346e-06 0)
(0.00101881 1.61405e-06 0)
(0.00101923 1.42882e-06 0)
(0.00101961 1.22184e-06 0)
(0.00101993 9.98272e-07 0)
(0.0010202 7.48932e-07 0)
(0.00102041 4.82623e-07 0)
(0.00102055 1.8495e-07 0)
(0.00102061 -1.29274e-07 0)
(0.0010206 -4.82833e-07 0)
(0.0010205 -8.51354e-07 0)
(0.0010203 -1.27102e-06 0)
(0.00102 -1.70157e-06 0)
(0.0010196 -2.20058e-06 0)
(0.00101907 -2.70173e-06 0)
(0.00101841 -3.29719e-06 0)
(0.00101761 -3.87822e-06 0)
(0.00101666 -4.59314e-06 0)
(0.00101554 -5.26367e-06 0)
(0.00101424 -6.12948e-06 0)
(0.00101274 -6.89788e-06 0)
(0.00101104 -7.95763e-06 0)
(0.00100909 -8.82658e-06 0)
(0.0010069 -1.01368e-05 0)
(0.001 2.66836e-08 0)
(0.00100004 8.00424e-08 0)
(0.00100013 1.33161e-07 0)
(0.00100026 1.85801e-07 0)
(0.00100042 2.37723e-07 0)
(0.00100064 2.88692e-07 0)
(0.00100089 3.38481e-07 0)
(0.00100118 3.86872e-07 0)
(0.00100151 4.33662e-07 0)
(0.00100187 4.78655e-07 0)
(0.00100227 5.21672e-07 0)
(0.00100271 5.62545e-07 0)
(0.00100317 6.0112e-07 0)
(0.00100367 6.37251e-07 0)
(0.00100419 6.7081e-07 0)
(0.00100474 7.01669e-07 0)
(0.00100532 7.29723e-07 0)
(0.00100591 7.54858e-07 0)
(0.00100653 7.76986e-07 0)
(0.00100716 7.96e-07 0)
(0.0010078 8.11825e-07 0)
(0.00100845 8.24348e-07 0)
(0.00100912 8.33512e-07 0)
(0.00100979 8.39185e-07 0)
(0.00101046 8.41322e-07 0)
(0.00101114 8.39762e-07 0)
(0.00101181 8.34479e-07 0)
(0.00101248 8.25259e-07 0)
(0.00101314 8.12108e-07 0)
(0.00101379 7.9473e-07 0)
(0.00101442 7.73186e-07 0)
(0.00101504 7.47055e-07 0)
(0.00101563 7.16493e-07 0)
(0.0010162 6.80886e-07 0)
(0.00101675 6.40558e-07 0)
(0.00101726 5.94589e-07 0)
(0.00101773 5.43594e-07 0)
(0.00101817 4.86175e-07 0)
(0.00101856 4.23432e-07 0)
(0.0010189 3.53222e-07 0)
(0.00101919 2.77445e-07 0)
(0.00101941 1.92785e-07 0)
(0.00101958 1.0244e-07 0)
(0.00101967 1.24555e-09 0)
(0.00101969 -1.05528e-07 0)
(0.00101962 -2.25922e-07 0)
(0.00101947 -3.51265e-07 0)
(0.00101921 -4.9453e-07 0)
(0.00101885 -6.41202e-07 0)
(0.00101837 -8.11868e-07 0)
(0.00101776 -9.82718e-07 0)
(0.00101702 -1.18679e-06 0)
(0.00101612 -1.38502e-06 0)
(0.00101507 -1.6306e-06 0)
(0.00101384 -1.85942e-06 0)
(0.00101242 -2.15758e-06 0)
(0.00101079 -2.41974e-06 0)
(0.00100893 -2.78576e-06 -3.70841e-38)
(0.00100683 -3.08186e-06 0)
(0.00100447 -3.53591e-06 0)
(0.001 -3.04869e-08 0)
(0.00100004 -9.12319e-08 0)
(0.00100013 -1.51501e-07 0)
(0.00100026 -2.11043e-07 0)
(0.00100042 -2.6961e-07 0)
(0.00100064 -3.26952e-07 0)
(0.00100089 -3.82832e-07 0)
(0.00100118 -4.37023e-07 0)
(0.00100151 -4.89313e-07 0)
(0.00100187 -5.39504e-07 0)
(0.00100227 -5.87413e-07 0)
(0.00100271 -6.32869e-07 0)
(0.00100317 -6.7572e-07 0)
(0.00100367 -7.15822e-07 0)
(0.00100419 -7.5305e-07 0)
(0.00100474 -7.87281e-07 0)
(0.00100532 -8.18418e-07 0)
(0.00100591 -8.46353e-07 0)
(0.00100652 -8.71008e-07 0)
(0.00100715 -8.92287e-07 0)
(0.0010078 -9.10128e-07 0)
(0.00100845 -9.24431e-07 0)
(0.00100912 -9.35153e-07 0)
(0.00100979 -9.42178e-07 0)
(0.00101046 -9.45478e-07 0)
(0.00101113 -9.44909e-07 0)
(0.00101181 -9.40464e-07 0)
(0.00101247 -9.31948e-07 0)
(0.00101313 -9.19386e-07 0)
(0.00101378 -9.02505e-07 0)
(0.00101442 -8.81386e-07 0)
(0.00101503 -8.55629e-07 0)
(0.00101563 -8.25414e-07 0)
(0.0010162 -7.90147e-07 0)
(0.00101674 -7.50176e-07 0)
(0.00101725 -7.04606e-07 0)
(0.00101773 -6.54069e-07 0)
(0.00101816 -5.972e-07 0)
(0.00101855 -5.35109e-07 0)
(0.00101889 -4.65692e-07 0)
(0.00101918 -3.90849e-07 0)
(0.00101941 -3.0732e-07 0)
(0.00101957 -2.18291e-07 0)
(0.00101966 -1.18676e-07 0)
(0.00101968 -1.37707e-08 0)
(0.00101961 1.04416e-07 0)
(0.00101946 2.27211e-07 0)
(0.0010192 3.67588e-07 0)
(0.00101884 5.11069e-07 0)
(0.00101835 6.78178e-07 0)
(0.00101775 8.45051e-07 0)
(0.001017 1.04469e-06 0)
(0.00101611 1.23799e-06 0)
(0.00101506 1.47817e-06 0)
(0.00101383 1.70102e-06 0)
(0.0010124 1.99271e-06 0)
(0.00101077 2.24771e-06 0)
(0.00100892 2.60608e-06 3.70841e-38)
(0.00100682 2.89368e-06 0)
(0.00100445 3.33887e-06 0)
(0.001 -8.85434e-08 0)
(0.00100005 -2.65158e-07 0)
(0.00100013 -4.40559e-07 0)
(0.00100026 -6.13991e-07 0)
(0.00100044 -7.84703e-07 0)
(0.00100065 -9.5195e-07 0)
(0.00100091 -1.11502e-06 0)
(0.00100121 -1.27323e-06 0)
(0.00100155 -1.42595e-06 0)
(0.00100193 -1.57258e-06 0)
(0.00100234 -1.71258e-06 0)
(0.00100279 -1.84545e-06 0)
(0.00100327 -1.97072e-06 0)
(0.00100378 -2.08796e-06 0)
(0.00100432 -2.19681e-06 0)
(0.00100488 -2.29691e-06 0)
(0.00100547 -2.38796e-06 0)
(0.00100608 -2.46963e-06 0)
(0.00100671 -2.54171e-06 0)
(0.00100736 -2.60389e-06 0)
(0.00100802 -2.656e-06 0)
(0.0010087 -2.69772e-06 0)
(0.00100938 -2.72893e-06 0)
(0.00101007 -2.74928e-06 0)
(0.00101076 -2.75866e-06 0)
(0.00101146 -2.75666e-06 0)
(0.00101215 -2.74322e-06 0)
(0.00101284 -2.71777e-06 0)
(0.00101352 -2.68037e-06 0)
(0.00101419 -2.6302e-06 0)
(0.00101485 -2.56747e-06 0)
(0.00101549 -2.49101e-06 0)
(0.00101611 -2.4013e-06 0)
(0.00101671 -2.29664e-06 0)
(0.00101728 -2.17793e-06 0)
(0.00101782 -2.04266e-06 0)
(0.00101832 -1.89252e-06 0)
(0.00101879 -1.72365e-06 0)
(0.00101921 -1.53907e-06 0)
(0.00101959 -1.33288e-06 0)
(0.00101991 -1.11026e-06 0)
(0.00102018 -8.62064e-07 0)
(0.00102038 -5.97071e-07 0)
(0.00102052 -3.00962e-07 0)
(0.00102058 1.15724e-08 0)
(0.00102057 3.63037e-07 0)
(0.00102047 7.29151e-07 0)
(0.00102027 1.14606e-06 0)
(0.00101997 1.57352e-06 0)
(0.00101956 2.06902e-06 0)
(0.00101903 2.56629e-06 0)
(0.00101838 3.15744e-06 0)
(0.00101757 3.73369e-06 0)
(0.00101662 4.44335e-06 0)
(0.0010155 5.10805e-06 0)
(0.0010142 5.96758e-06 0)
(0.0010127 6.72898e-06 0)
(0.001011 7.78136e-06 0)
(0.00100904 8.64199e-06 0)
(0.00100686 9.94375e-06 0)
(0.001 -1.4934e-07 0)
(0.00100005 -4.47282e-07 0)
(0.00100014 -7.43205e-07 0)
(0.00100028 -1.0358e-06 0)
(0.00100047 -1.32378e-06 0)
(0.0010007 -1.60584e-06 0)
(0.00100097 -1.88078e-06 0)
(0.00100129 -2.14742e-06 0)
(0.00100165 -2.4047e-06 0)
(0.00100205 -2.65162e-06 0)
(0.00100248 -2.88726e-06 0)
(0.00100296 -3.11079e-06 0)
(0.00100347 -3.32147e-06 0)
(0.001004 -3.5186e-06 0)
(0.00100457 -3.70159e-06 0)
(0.00100517 -3.86986e-06 0)
(0.00100579 -4.02295e-06 0)
(0.00100644 -4.16038e-06 0)
(0.0010071 -4.28176e-06 0)
(0.00100778 -4.38666e-06 0)
(0.00100848 -4.4748e-06 0)
(0.00100919 -4.54571e-06 0)
(0.00100991 -4.59917e-06 0)
(0.00101064 -4.63467e-06 0)
(0.00101138 -4.65204e-06 0)
(0.00101211 -4.65064e-06 0)
(0.00101285 -4.63037e-06 0)
(0.00101358 -4.59037e-06 0)
(0.0010143 -4.53066e-06 0)
(0.00101502 -4.45006e-06 0)
(0.00101572 -4.34877e-06 0)
(0.00101641 -4.2251e-06 0)
(0.00101708 -4.07961e-06 0)
(0.00101773 -3.90983e-06 0)
(0.00101836 -3.71695e-06 0)
(0.00101895 -3.49728e-06 0)
(0.00101951 -3.2531e-06 0)
(0.00102004 -2.97883e-06 0)
(0.00102053 -2.67859e-06 0)
(0.00102098 -2.34384e-06 0)
(0.00102137 -1.98179e-06 0)
(0.00102172 -1.57921e-06 0)
(0.001022 -1.14844e-06 0)
(0.00102223 -6.688e-07 0)
(0.00102239 -1.61086e-07 0)
(0.00102247 4.07326e-07 0)
(0.00102248 1.00195e-06 0)
(0.0010224 1.67447e-06 0)
(0.00102223 2.36813e-06 0)
(0.00102196 3.16507e-06 0)
(0.00102157 3.97164e-06 0)
(0.00102108 4.91902e-06 0)
(0.00102045 5.85353e-06 0)
(0.0010197 6.98588e-06 0)