/*--------------------------------*- C++ -*----------------------------------*\
| =========                 |                                                 |
| \\      /  F ield         | OpenFOAM: The Open Source CFD Toolbox           |
|  \\    /   O peration     | Version:  2312                                  |
|   \\  /    A nd           | Website:  www.openfoam.com                      |
|    \\/     M anipulation  |                                                 |
\*---------------------------------------------------------------------------*/
FoamFile
{
    version     2.0;
    format      ascii;
    arch        "LSB;label=32;scalar=64";
    class       surfaceScalarField;
    location    "17000";
    object      phi;
}
// * * * * * * * * * * * * * * * * * * * * * * * * * * * * * * * * * * * * * //

dimensions      [0 3 -1 0 0 0 0];

oriented        oriented;

internalField   nonuniform List<scalar> 
21240
(
0.000664975
1.69177e-06
0.000661074
3.90092e-06
0.000655756
5.31832e-06
0.000649523
6.23268e-06
0.000642653
6.87008e-06
0.000635288
7.36517e-06
0.000627519
7.76841e-06
0.000619426
8.09283e-06
0.000611082
8.34439e-06
0.00060255
8.53204e-06
0.000593882
8.66807e-06
0.000585117
8.76471e-06
0.000576286
8.83153e-06
0.000567411
8.87482e-06
0.000558513
8.89838e-06
0.000549608
8.90452e-06
0.000540713
8.89503e-06
0.000531842
8.87145e-06
0.000523007
8.83503e-06
0.00051422
8.78668e-06
0.000505493
8.72714e-06
0.000496836
8.65694e-06
0.000488259
8.57641e-06
0.000479774
8.4856e-06
0.000471389
8.38467e-06
0.000463115
8.27372e-06
0.000454963
8.15273e-06
0.000446941
8.02125e-06
0.000439062
7.87941e-06
0.000431335
7.72722e-06
0.00042377
7.56493e-06
0.000416379
7.39123e-06
0.000409173
7.20606e-06
0.000402163
7.00904e-06
0.000395361
6.80247e-06
0.000388776
6.58496e-06
0.000382419
6.35677e-06
0.000376306
6.11295e-06
0.000370449
5.85706e-06
0.000364862
5.58715e-06
0.000359548
5.31416e-06
0.000354516
5.03157e-06
0.000349767
4.74944e-06
0.000345321
4.44579e-06
0.000341186
4.13491e-06
0.000337404
3.78182e-06
0.00033398
3.42434e-06
0.00033097
3.00973e-06
0.000328353
2.61781e-06
0.000326202
2.15027e-06
0.00032444
1.76197e-06
0.00032319
1.25034e-06
0.000322259
9.30798e-07
0.000321909
3.50667e-07
0.000321691
2.17031e-07
0.00032226
-5.68705e-07
0.000322524
-2.63719e-07
0.000324277
-1.75297e-06
0.000324526
-2.49484e-07
-3.84857e-06
0.000328375
0.000667556
8.0219e-07
0.000669122
2.33539e-06
0.000670857
3.58303e-06
0.000672531
4.55892e-06
0.000674063
5.33744e-06
0.000675441
5.98732e-06
0.00067666
6.55015e-06
0.000677708
7.04429e-06
0.000678576
7.47673e-06
0.000679256
7.85187e-06
0.000679749
8.17527e-06
0.00068006
8.45378e-06
0.000680197
8.69434e-06
0.000680169
8.90275e-06
0.000679984
9.08325e-06
0.00067965
9.23864e-06
0.000679174
9.37095e-06
0.000678564
9.48167e-06
0.000677827
9.57215e-06
0.00067697
9.64334e-06
0.000676001
9.69612e-06
0.000674927
9.73091e-06
0.000673755
9.74835e-06
0.000672492
9.74848e-06
0.000671145
9.73175e-06
0.000669721
9.69759e-06
0.000668228
9.64639e-06
0.000666672
9.57736e-06
0.00066506
9.49137e-06
0.0006634
9.38703e-06
0.000661699
9.26542e-06
0.000659967
9.12392e-06
0.000658208
8.96475e-06
0.000656432
8.78462e-06
0.000654647
8.58786e-06
0.000652863
8.36852e-06
0.000651087
8.13284e-06
0.000649329
7.87078e-06
0.000647592
7.5943e-06
0.000645891
7.28858e-06
0.000644231
6.97435e-06
0.000642637
6.62506e-06
0.000641113
6.27342e-06
0.000639685
5.87355e-06
0.000638338
5.48193e-06
0.000637096
5.02434e-06
0.00063592
4.59978e-06
0.000634845
4.08472e-06
0.000633817
3.64596e-06
0.000632894
3.07377e-06
0.000632009
2.64664e-06
0.000631244
2.01575e-06
0.000630533
1.64116e-06
0.000629929
9.55457e-07
0.000629453
6.92507e-07
0.000628923
-3.89054e-08
0.000628816
-1.56117e-07
0.000628002
-9.39163e-07
0.000628639
-8.86459e-07
-1.57975e-06
0.00062637
0.000666951
5.1761e-07
0.00066782
1.46687e-06
0.000669061
2.3416e-06
0.000670488
3.13184e-06
0.000671992
3.83342e-06
0.000673526
4.45394e-06
0.00067507
5.00556e-06
0.000676615
5.49935e-06
0.000678149
5.94305e-06
0.000679659
6.34155e-06
0.000681136
6.69829e-06
0.000682573
7.01648e-06
0.000683968
7.29956e-06
0.00068532
7.55095e-06
0.00068663
7.77382e-06
0.000687897
7.97073e-06
0.000689125
8.14371e-06
0.000690312
8.2943e-06
0.00069146
8.42381e-06
0.000692571
8.53314e-06
0.000693644
8.62311e-06
0.00069468
8.69416e-06
0.000695682
8.7469e-06
0.000696649
8.78148e-06
0.000697582
8.79833e-06
0.000698483
8.79709e-06
0.000699351
8.77796e-06
0.000700188
8.74029e-06
0.000700995
8.68461e-06
0.000701772
8.61005e-06
0.00070252
8.51726e-06
0.00070324
8.40438e-06
0.000703932
8.27236e-06
0.000704598
8.11892e-06
0.000705239
7.94663e-06
0.000705855
7.75235e-06
0.000706448
7.53951e-06
0.000707017
7.30213e-06
0.000707566
7.0458e-06
0.000708092
6.76239e-06
0.000708603
6.4631e-06
0.000709093
6.13533e-06
0.00070957
5.79645e-06
0.00071002
5.42337e-06
0.000710459
5.043e-06
0.000710866
4.6173e-06
0.000711272
4.19384e-06
0.000711642
3.71418e-06
0.000712029
3.25932e-06
0.000712367
2.7363e-06
0.000712742
2.27076e-06
0.000713041
1.7168e-06
0.000713426
1.25623e-06
0.000713698
6.83814e-07
0.000714155
2.35522e-07
0.000714413
-2.96818e-07
0.000714944
-6.87265e-07
0.000715139
-1.13408e-06
0.000715752
-1.49993e-06
-1.75499e-06
0.000715928
0.000666854
3.3029e-07
0.000667309
1.0116e-06
0.000667973
1.67739e-06
0.000668798
2.30694e-06
0.000669741
2.891e-06
0.000670768
3.42664e-06
0.000671858
3.91537e-06
0.000672997
4.3608e-06
0.000674173
4.76678e-06
0.000675378
5.13652e-06
0.000676604
5.47243e-06
0.000677844
5.77652e-06
0.000679093
6.05069e-06
0.000680347
6.29687e-06
0.000681604
6.51699e-06
0.000682862
6.71281e-06
0.000684119
6.88587e-06
0.000685376
7.03745e-06
0.000686632
7.16862e-06
0.000687884
7.28023e-06
0.000689135
7.37288e-06
0.000690382
7.44712e-06
0.000691625
7.50328e-06
0.000692865
7.54181e-06
0.000694101
7.56281e-06
0.000695331
7.56643e-06
0.000696557
7.55241e-06
0.000697776
7.52085e-06
0.000698989
7.47147e-06
0.000700195
7.40453e-06
0.000701393
7.31936e-06
0.000702581
7.21604e-06
0.00070376
7.09339e-06
0.000704927
6.95201e-06
0.000706083
6.79074e-06
0.000707224
6.61096e-06
0.000708353
6.4105e-06
0.000709464
6.19096e-06
0.000710561
5.94876e-06
0.000711637
5.68717e-06
0.000712698
5.40208e-06
0.000713734
5.09929e-06
0.000714757
4.7728e-06
0.000715751
4.42997e-06
0.000716732
4.06135e-06
0.000717672
3.67724e-06
0.0007186
3.26592e-06
0.00071947
2.84478e-06
0.00072033
2.39901e-06
0.000721111
1.95562e-06
0.000721893
1.48833e-06
0.000722571
1.03886e-06
0.000723273
5.5388e-07
0.000723841
1.15934e-07
0.000724505
-4.28015e-07
0.000725074
-8.65598e-07
0.000725824
-1.43723e-06
0.000726485
-1.79552e-06
0.000727404
-2.41857e-06
-2.63427e-06
0.000728283
0.000666738
2.58548e-07
0.00066697
7.8012e-07
0.000667357
1.29063e-06
0.000667881
1.78307e-06
0.00066852
2.25151e-06
0.000669254
2.69233e-06
0.000670066
3.10402e-06
0.00067094
3.48663e-06
0.000671866
3.84099e-06
0.000672834
4.16817e-06
0.000673837
4.46922e-06
0.000674869
4.74505e-06
0.000675923
4.99654e-06
0.000676995
5.22463e-06
0.000678082
5.43027e-06
0.00067918
5.61443e-06
0.000680288
5.778e-06
0.000681404
5.92184e-06
0.000682526
6.04663e-06
0.000683653
6.15306e-06
0.000684784
6.24149e-06
0.000685919
6.3124e-06
0.000687056
6.36599e-06
0.000688195
6.40271e-06
0.000689336
6.42251e-06
0.000690476
6.42573e-06
0.000691617
6.41196e-06
0.000692756
6.38161e-06
0.000693893
6.33412e-06
0.000695028
6.27017e-06
0.000696158
6.18867e-06
0.000697284
6.09042e-06
0.000698404
5.97365e-06
0.000699516
5.83995e-06
0.00070062
5.68706e-06
0.000701713
5.51775e-06
0.000702795
5.32828e-06
0.000703863
5.12249e-06
0.000704918
4.89441e-06
0.000705954
4.65061e-06
0.000706973
4.38305e-06
0.00070797
4.10267e-06
0.000708946
3.797e-06
0.000709894
3.48156e-06
0.00071082
3.13582e-06
0.000711714
2.78308e-06
0.000712587
2.39279e-06
0.000713428
2.00349e-06
0.000714258
1.56944e-06
0.000715061
1.15228e-06
0.000715873
6.76529e-07
0.000716675
2.3669e-07
0.000717498
-2.6917e-07
0.00071831
-6.95951e-07
0.000719138
-1.25546e-06
0.000719962
-1.6903e-06
0.000720845
-2.31978e-06
0.000721769
-2.71934e-06
0.000722784
-3.43427e-06
-3.7632e-06
0.000723913
0.000666724
2.01107e-07
0.000666899
6.04937e-07
0.000667184
1.00581e-06
0.00066757
1.39718e-06
0.000668046
1.77531e-06
0.000668601
2.13724e-06
0.000669224
2.48087e-06
0.000669906
2.80495e-06
0.000670638
3.10887e-06
0.000671414
3.39246e-06
0.000672227
3.65575e-06
0.000673074
3.89897e-06
0.000673948
4.12242e-06
0.000674846
4.32651e-06
0.000675764
4.51165e-06
0.0006767
4.67832e-06
0.000677652
4.82694e-06
0.000678615
4.95802e-06
0.00067959
5.07194e-06
0.000680574
5.16914e-06
0.000681566
5.24984e-06
0.000682564
5.31436e-06
0.000683567
5.36281e-06
0.000684574
5.39554e-06
0.000685584
5.41246e-06
0.000686596
5.41383e-06
0.000687609
5.3993e-06
0.000688621
5.36924e-06
0.000689632
5.32316e-06
0.00069064
5.26163e-06
0.000691645
5.18369e-06
0.000692646
5.09004e-06
0.00069364
4.9792e-06
0.000694628
4.85254e-06
0.000695607
4.70813e-06
0.000696576
4.54821e-06
0.000697535
4.36952e-06
0.000698482
4.17521e-06
0.000699416
3.96023e-06
0.000700337
3.72997e-06
0.000701243
3.47747e-06
0.000702134
3.21163e-06
0.000703009
2.92154e-06
0.00070387
2.6204e-06
0.000704715
2.29065e-06
0.000705545
1.9534e-06
0.000706355
1.58242e-06
0.000707146
1.21289e-06
0.000707911
8.04556e-07
0.00070865
4.13219e-07
0.00070935
-2.39333e-08
0.000710048
-4.60909e-07
0.000710747
-9.68116e-07
0.000711466
-1.41531e-06
0.000712194
-1.98286e-06
0.000712956
-2.4527e-06
0.000713734
-3.0971e-06
0.000714583
-3.56882e-06
0.000715444
-4.29504e-06
-4.73378e-06
0.000716414
0.000666708
1.59434e-07
0.000666833
4.79876e-07
0.00066704
7.9922e-07
0.000667324
1.11289e-06
0.000667681
1.41832e-06
0.000668105
1.71334e-06
0.00066859
1.99622e-06
0.000669129
2.26568e-06
0.000669717
2.52096e-06
0.000670348
2.76166e-06
0.000671017
2.98632e-06
0.000671721
3.19508e-06
0.000672456
3.38802e-06
0.000673217
3.56522e-06
0.000674002
3.72675e-06
0.000674807
3.87276e-06
0.000675631
4.00341e-06
0.00067647
4.11891e-06
0.000677322
4.21945e-06
0.000678186
4.30523e-06
0.00067906
4.37633e-06
0.000679941
4.43295e-06
0.000680829
4.4751e-06
0.000681722
4.50299e-06
0.000682617
4.51651e-06
0.000683516
4.51579e-06
0.000684414
4.50058e-06
0.000685312
4.47107e-06
0.000686209
4.42693e-06
0.000687102
4.36846e-06
0.000687991
4.29499e-06
0.000688874
4.20687e-06
0.00068975
4.1031e-06
0.000690618
3.9845e-06
0.000691476
3.84981e-06
0.000692324
3.70031e-06
0.00069316
3.5338e-06
0.000693983
3.35214e-06
0.000694791
3.15206e-06
0.000695584
2.93704e-06
0.000696359
2.70272e-06
0.000697115
2.45487e-06
0.000697851
2.18616e-06
0.000698566
1.90474e-06
0.000699259
1.598e-06
0.000699933
1.27906e-06
0.000700587
9.28699e-07
0.00070123
5.69696e-07
0.000701864
1.70916e-07
0.000702495
-2.17997e-07
0.000703121
-6.49508e-07
0.000703733
-1.07345e-06
0.000704331
-1.5661e-06
0.000704947
-2.03148e-06
0.000705556
-2.59146e-06
0.000706199
-3.0961e-06
0.000706836
-3.73383e-06
0.000707538
-4.2707e-06
0.000708238
-4.99469e-06
-5.54447e-06
0.000709048
0.000666699
1.27496e-07
0.000666795
3.83349e-07
0.000666956
6.38669e-07
0.000667178
8.90248e-07
0.00066746
1.13633e-06
0.000667798
1.37534e-06
0.000668189
1.60596e-06
0.000668627
1.82705e-06
0.00066911
2.03771e-06
0.000669635
2.23719e-06
0.000670196
2.42484e-06
0.000670791
2.60024e-06
0.000671416
2.76312e-06
0.000672068
2.91336e-06
0.000672744
3.05088e-06
0.000673441
3.1756e-06
0.000674157
3.2875e-06
0.000674889
3.38661e-06
0.000675636
3.47294e-06
0.000676394
3.54653e-06
0.000677163
3.60739e-06
0.000677941
3.65555e-06
0.000678725
3.691e-06
0.000679514
3.7138e-06
0.000680307
3.72385e-06
0.000681101
3.72115e-06
0.000681896
3.70551e-06
0.000682691
3.67699e-06
0.000683482
3.63537e-06
0.00068427
3.58072e-06
0.000685052
3.5126e-06
0.000685828
3.43103e-06
0.000686596
3.33546e-06
0.000687354
3.22618e-06
0.000688101
3.10252e-06
0.000688837
2.9649e-06
0.000689558
2.8121e-06
0.000690266
2.64467e-06
0.000690957
2.46092e-06
0.000691632
2.26217e-06
0.000692288
2.04624e-06
0.000692928
1.81537e-06
0.000693548
1.56587e-06
0.000694152
1.30104e-06
0.000694735
1.01511e-06
0.000695299
7.14366e-07
0.000695837
3.90861e-07
0.000696349
5.79253e-08
0.000696834
-3.14283e-07
0.000697311
-6.9444e-07
0.000697769
-1.10768e-06
0.000698223
-1.52807e-06
0.000698655
-1.99751e-06
0.000699094
-2.47073e-06
0.000699511
-3.00864e-06
0.000699953
-3.53782e-06
0.000700368
-4.14886e-06
0.000700828
-4.73084e-06
0.000701252
-5.41854e-06
-6.04839e-06
0.000701756
0.000666693
1.01456e-07
0.000666771
3.04897e-07
0.000666902
5.08049e-07
0.000667083
7.08568e-07
0.000667315
9.05209e-07
0.000667593
1.09684e-06
0.000667917
1.28242e-06
0.000668283
1.46105e-06
0.000668688
1.63195e-06
0.000669131
1.79445e-06
0.000669608
1.94801e-06
0.000670116
2.09219e-06
0.000670652
2.22662e-06
0.000671215
2.35104e-06
0.0006718
2.46525e-06
0.000672407
2.56907e-06
0.000673032
2.66239e-06
0.000673674
2.74512e-06
0.000674329
2.81717e-06
0.000674997
2.8785e-06
0.000675676
2.92902e-06
0.000676363
2.96869e-06
0.000677056
2.99746e-06
0.000677755
3.01529e-06
0.000678456
3.0221e-06
0.00067916
3.01777e-06
0.000679863
3.00219e-06
0.000680565
2.97527e-06
0.000681263
2.93691e-06
0.000681957
2.88697e-06
0.000682644
2.82523e-06
0.000683324
2.75145e-06
0.000683994
2.6654e-06
0.000684653
2.56694e-06
0.0006853
2.45588e-06
0.000685933
2.33192e-06
0.00068655
2.19465e-06
0.000687151
2.04357e-06
0.000687734
1.87829e-06
0.000688298
1.69851e-06
0.00068884
1.50409e-06
0.000689361
1.29472e-06
0.000689857
1.0699e-06
0.000690329
8.28842e-07
0.000690773
5.70736e-07
0.000691193
2.94089e-07
0.000691588
-3.43607e-09
0.000691964
-3.18671e-07
0.000692306
-6.5606e-07
0.000692627
-1.01537e-06
0.000692918
-1.39864e-06
0.000693194
-1.80447e-06
0.000693438
-2.24131e-06
0.000693673
-2.7057e-06
0.000693872
-3.20711e-06
0.000694072
-3.7378e-06
0.00069423
-4.3075e-06
0.000694408
-4.90835e-06
0.000694539
-5.54932e-06
-6.22858e-06
0.000694719
0.000666689
7.95485e-08
0.000666754
2.38984e-07
0.000666864
3.9825e-07
0.000667017
5.5561e-07
0.000667212
7.10161e-07
0.000667448
8.61073e-07
0.000667723
1.00757e-06
0.000668035
1.14897e-06
0.000668382
1.28463e-06
0.000668763
1.41402e-06
0.000669174
1.53666e-06
0.000669614
1.65213e-06
0.000670081
1.76011e-06
0.000670571
1.86028e-06
0.000671084
1.95241e-06
0.000671617
2.03629e-06
0.000672168
2.11175e-06
0.000672734
2.17866e-06
0.000673314
2.23688e-06
0.000673907
2.28632e-06
0.000674509
2.32686e-06
0.000675119
2.35839e-06
0.000675736
2.38087e-06
0.000676357
2.39418e-06
0.000676981
2.39824e-06
0.000677605
2.39289e-06
0.00067823
2.37805e-06
0.000678851
2.35355e-06
0.000679469
2.31936e-06
0.000680081
2.27522e-06
0.000680685
2.22104e-06
0.00068128
2.1564e-06
0.000681864
2.08134e-06
0.000682436
1.99538e-06
0.000682993
1.89869e-06
0.000683534
1.7905e-06
0.000684058
1.671e-06
0.000684562
1.53898e-06
0.000685046
1.39503e-06
0.000685506
1.23767e-06
0.000685942
1.06811e-06
0.000686353
8.84042e-07
0.000686736
6.87128e-07
0.000687091
4.73611e-07
0.000687415
2.46491e-07
0.000687707
2.75158e-09
0.000687967
-2.63324e-07
0.000688197
-5.48935e-07
0.000688389
-8.48505e-07
0.000688548
-1.17438e-06
0.000688665
-1.51548e-06
0.000688751
-1.89065e-06
0.000688792
-2.28194e-06
0.000688804
-2.71788e-06
0.000688764
-3.16703e-06
0.0006887
-3.67381e-06
0.000688576
-4.1833e-06
0.000688438
-4.77032e-06
0.000688229
-5.34087e-06
-6.02408e-06
0.000688025
0.000666686
6.0602e-08
0.000666743
1.82023e-07
0.000666837
3.0334e-07
0.00066697
4.23278e-07
0.000667139
5.41188e-07
0.000667343
6.56467e-07
0.000667582
7.68551e-07
0.000667854
8.76917e-07
0.000668158
9.81091e-07
0.000668491
1.08064e-06
0.000668853
1.17519e-06
0.000669241
1.26438e-06
0.000669653
1.34793e-06
0.000670088
1.42556e-06
0.000670543
1.49704e-06
0.000671017
1.56218e-06
0.000671508
1.6208e-06
0.000672014
1.67275e-06
0.000672533
1.71791e-06
0.000673063
1.75614e-06
0.000673603
1.78732e-06
0.00067415
1.81135e-06
0.000674702
1.82814e-06
0.000675259
1.83758e-06
0.000675818
1.83958e-06
0.000676376
1.83397e-06
0.000676934
1.8207e-06
0.000677488
1.79955e-06
0.000678037
1.77054e-06
0.000678579
1.73335e-06
0.000679112
1.68799e-06
0.000679634
1.63398e-06
0.000680144
1.57146e-06
0.000680639
1.49985e-06
0.000681119
1.4195e-06
0.00068158
1.32941e-06
0.000682021
1.2301e-06
0.000682439
1.12006e-06
0.000682834
1.00034e-06
0.000683203
8.68879e-07
0.000683543
7.27606e-07
0.000683854
5.73287e-07
0.000684132
4.08893e-07
0.000684377
2.29298e-07
0.000684583
3.98979e-08
0.000684758
-1.71548e-07
0.000684888
-3.93414e-07
0.000684976
-6.37294e-07
0.000685018
-8.90297e-07
0.000685015
-1.17144e-06
0.00068496
-1.46071e-06
0.000684858
-1.78811e-06
0.000684697
-2.12109e-06
0.000684485
-2.50611e-06
0.000684207
-2.88863e-06
0.000683875
-3.34227e-06
0.000683468
-3.77583e-06
0.000683008
-4.31074e-06
0.000682462
-4.79516e-06
-5.43213e-06
0.00068187
0.000666683
4.37741e-08
0.000666734
1.31459e-07
0.000666818
2.19079e-07
0.000666936
3.05736e-07
0.000667086
3.90978e-07
0.000667268
4.74385e-07
0.000667481
5.55558e-07
0.000667724
6.34126e-07
0.000667995
7.09746e-07
0.000668294
7.82101e-07
0.000668618
8.50903e-07
0.000668967
9.15888e-07
0.000669338
9.76825e-07
0.00066973
1.0335e-06
0.000670141
1.08573e-06
0.00067057
1.13333e-06
0.000671015
1.17618e-06
0.000671473
1.21412e-06
0.000671944
1.24705e-06
0.000672425
1.27485e-06
0.000672915
1.29741e-06
0.000673412
1.31463e-06
0.000673914
1.32644e-06
0.000674419
1.33271e-06
0.000674925
1.33339e-06
0.00067543
1.32831e-06
0.000675934
1.31744e-06
0.000676433
1.30058e-06
0.000676925
1.27776e-06
0.00067741
1.24867e-06
0.000677885
1.21336e-06
0.000678347
1.17139e-06
0.000678796
1.12296e-06
0.000679228
1.06745e-06
0.000679642
1.00527e-06
0.000680036
9.3545e-07
0.000680408
8.58595e-07
0.000680755
7.73214e-07
0.000681075
6.80503e-07
0.000681365
5.78343e-07
0.000681624
4.68826e-07
0.000681849
3.48603e-07
0.000682037
2.20925e-07
0.000682185
8.06538e-08
0.000682293
-6.83075e-08
0.000682357
-2.34708e-07
0.000682371
-4.07884e-07
0.000682335
-6.00773e-07
0.000682243
-7.99126e-07
0.000682095
-1.02325e-06
0.000681885
-1.25074e-06
0.000681611
-1.51394e-06
0.000681266
-1.77633e-06
0.000680849
-2.08865e-06
0.00068035
-2.39018e-06
0.00067977
-2.76192e-06
0.000679097
-3.10333e-06
0.000678334
-3.54752e-06
0.000677467
-3.92786e-06
-4.46546e-06
0.0006765
0.000666682
2.84134e-08
0.000666728
8.53204e-08
0.000666805
1.42188e-07
0.000666912
1.98444e-07
0.00066705
2.53801e-07
0.000667216
3.07992e-07
0.000667411
3.60762e-07
0.000667633
4.11871e-07
0.000667882
4.61099e-07
0.000668155
5.08236e-07
0.000668453
5.53092e-07
0.000668774
5.9549e-07
0.000669115
6.35271e-07
0.000669476
6.72289e-07
0.000669856
7.06415e-07
0.000670252
7.37525e-07
0.000670662
7.65516e-07
0.000671086
7.90286e-07
0.000671521
8.11756e-07
0.000671966
8.2983e-07
0.000672419
8.44442e-07
0.000672878
8.55499e-07
0.000673342
8.62958e-07
0.000673808
8.6672e-07
0.000674275
8.66748e-07
0.00067474
8.62907e-07
0.000675202
8.5519e-07
0.000675659
8.43435e-07
0.000676109
8.27674e-07
0.00067655
8.07667e-07
0.00067698
7.83476e-07
0.000677397
7.54746e-07
0.000677798
7.21656e-07
0.000678182
6.83724e-07
0.000678546
6.41287e-07
0.000678888
5.93572e-07
0.000679205
5.41112e-07
0.000679496
4.82728e-07
0.000679757
4.19417e-07
0.000679986
3.49469e-07
0.00068018
2.74606e-07
0.000680337
1.9214e-07
0.000680453
1.04832e-07
0.000680524
8.86946e-09
0.000680551
-9.45311e-08
0.000680525
-2.09217e-07
0.000680445
-3.28158e-07
0.000680306
-4.61839e-07
0.000680106
-5.98469e-07
0.000679837
-7.54693e-07
0.000679498
-9.11778e-07
0.000679081
-1.0963e-06
0.000678582
-1.27769e-06
0.000677991
-1.49796e-06
0.000677308
-1.70644e-06
0.000676516
-1.97053e-06
0.000675619
-2.20655e-06
0.000674597
-2.52514e-06
0.000673457
-2.78771e-06
-3.17779e-06
0.000672169
0.000666681
1.39799e-08
0.000666724
4.19766e-08
0.000666797
6.99546e-08
0.000666897
9.76342e-08
0.000667026
1.24877e-07
0.000667183
1.51551e-07
0.000667366
1.77534e-07
0.000667575
2.02708e-07
0.000667809
2.26964e-07
0.000668067
2.50198e-07
0.000668348
2.72316e-07
0.00066865
2.9323e-07
0.000668973
3.12858e-07
0.000669314
3.31127e-07
0.000669672
3.4797e-07
0.000670047
3.63324e-07
0.000670435
3.77135e-07
0.000670836
3.89349e-07
0.000671248
3.99925e-07
0.000671669
4.08811e-07
0.000672097
4.15974e-07
0.000672531
4.21363e-07
0.000672969
4.24957e-07
0.000673409
4.26698e-07
0.00067385
4.2657e-07
0.000674288
4.245e-07
0.000674723
4.20485e-07
0.000675152
4.14436e-07
0.000675573
4.06373e-07
0.000675985
3.96164e-07
0.000676384
3.83849e-07
0.00067677
3.69237e-07
0.000677139
3.5243e-07
0.000677489
3.33162e-07
0.000677819
3.11621e-07
0.000678125
2.87387e-07
0.000678406
2.60764e-07
0.000678657
2.31112e-07
0.000678878
1.98991e-07
0.000679064
1.63454e-07
0.000679213
1.25453e-07
0.000679322
8.34944e-08
0.000679387
3.91291e-08
0.000679406
-1.00982e-08
0.000679374
-6.26627e-08
0.000679286
-1.21239e-07
0.00067914
-1.81851e-07
0.000678929
-2.50327e-07
0.00067865
-3.20058e-07
0.000678296
-4.00358e-07
0.000677865
-4.80651e-07
0.000677344
-5.75809e-07
0.000676735
-6.68552e-07
0.00067602
-7.82492e-07
0.000675202
-8.89069e-07
0.000674258
-1.02629e-06
0.000673198
-1.14698e-06
0.000671987
-1.31356e-06
0.000670647
-1.4478e-06
-1.65318e-06
0.000669122
0.000666681
-3.88379e-12
0.000666723
-1.23872e-11
0.000666793
-2.16344e-11
0.00066689
-3.15491e-11
0.000667015
-4.20349e-11
0.000667167
-5.30231e-11
0.000667344
-6.44501e-11
0.000667547
-7.63333e-11
0.000667774
-8.88126e-11
0.000668025
-1.01984e-10
0.000668297
-1.15746e-10
0.00066859
-1.29977e-10
0.000668903
-1.44786e-10
0.000669235
-1.60348e-10
0.000669583
-1.76499e-10
0.000669946
-1.92794e-10
0.000670324
-2.09087e-10
0.000670713
-2.25756e-10
0.000671113
-2.43085e-10
0.000671522
-2.60666e-10
0.000671939
-2.77859e-10
0.00067236
-2.94851e-10
0.000672786
-3.12782e-10
0.000673213
-3.32394e-10
0.00067364
-3.52934e-10
0.000674064
-3.72903e-10
0.000674485
-3.92146e-10
0.0006749
-4.12556e-10
0.000675307
-4.36166e-10
0.000675704
-4.62509e-10
0.000676088
-4.88474e-10
0.000676458
-5.11658e-10
0.000676811
-5.3338e-10
0.000677144
-5.58555e-10
0.000677457
-5.90544e-10
0.000677745
-6.27608e-10
0.000678006
-6.6268e-10
0.000678238
-6.90348e-10
0.000678438
-7.12415e-10
0.000678602
-7.38285e-10
0.000678728
-7.79549e-10
0.000678812
-8.37303e-10
0.000678852
-9.03507e-10
0.000678843
-9.56857e-10
0.000678782
-9.83999e-10
0.000678661
-9.98042e-10
0.00067848
-1.02084e-09
0.000678231
-1.07521e-09
0.000677912
-1.17526e-09
0.000677513
-1.31062e-09
0.000677034
-1.44873e-09
0.00067646
-1.54807e-09
0.000675793
-1.58353e-09
0.000675012
-1.55848e-09
0.000674124
-1.51397e-09
0.0006731
-1.51246e-09
0.000671954
-1.62262e-09
0.000670643
-1.88778e-09
0.000669197
-2.31705e-09
-2.87181e-09
0.000667547
0.000666681
-1.39877e-08
0.000666723
-4.20012e-08
0.000666793
-6.99977e-08
0.00066689
-9.76971e-08
0.000667015
-1.2496e-07
0.000667167
-1.51657e-07
0.000667344
-1.77662e-07
0.000667547
-2.0286e-07
0.000667774
-2.27141e-07
0.000668025
-2.50401e-07
0.000668297
-2.72547e-07
0.00066859
-2.93488e-07
0.000668903
-3.13147e-07
0.000669235
-3.31446e-07
0.000669583
-3.48322e-07
0.000669946
-3.63708e-07
0.000670324
-3.77551e-07
0.000670713
-3.89798e-07
0.000671113
-4.00409e-07
0.000671522
-4.0933e-07
0.000671939
-4.16527e-07
0.00067236
-4.21951e-07
0.000672786
-4.2558e-07
0.000673213
-4.2736e-07
0.00067364
-4.27273e-07
0.000674064
-4.25243e-07
0.000674485
-4.21266e-07
0.0006749
-4.15258e-07
0.000675307
-4.07241e-07
0.000675704
-3.97085e-07
0.000676088
-3.84822e-07
0.000676458
-3.70256e-07
0.000676811
-3.53492e-07
0.000677144
-3.34274e-07
0.000677457
-3.12797e-07
0.000677745
-2.88636e-07
0.000678006
-2.62083e-07
0.000678238
-2.32487e-07
0.000678437
-2.0041e-07
0.000678602
-1.64924e-07
0.000678728
-1.27001e-07
0.000678812
-8.51497e-08
0.000678852
-4.09005e-08
0.000678843
8.16826e-09
0.000678781
6.06976e-08
0.000678661
1.19246e-07
0.00067848
1.79819e-07
0.000678231
2.48193e-07
0.000677912
3.17726e-07
0.000677513
3.97756e-07
0.000677034
4.77774e-07
0.00067646
5.72733e-07
0.000675793
6.65404e-07
0.000675012
7.79393e-07
0.000674124
8.86059e-07
0.000673099
1.02328e-06
0.000671954
1.14376e-06
0.000670642
1.30981e-06
0.000669197
1.4432e-06
1.64749e-06
0.000667546
0.000666681
-2.8421e-08
0.000666724
-8.53447e-08
0.000666797
-1.42231e-07
0.000666897
-1.98506e-07
0.000667026
-2.53884e-07
0.000667183
-3.08096e-07
0.000667366
-3.60888e-07
0.000667575
-4.12022e-07
0.000667809
-4.61274e-07
0.000668067
-5.08437e-07
0.000668348
-5.5332e-07
0.00066865
-5.95745e-07
0.000668973
-6.35556e-07
0.000669314
-6.72604e-07
0.000669672
-7.06762e-07
0.000670047
-7.37904e-07
0.000670435
-7.65927e-07
0.000670836
-7.9073e-07
0.000671248
-8.12234e-07
0.000671669
-8.30342e-07
0.000672097
-8.44988e-07
0.000672531
-8.56078e-07
0.000672969
-8.63573e-07
0.000673409
-8.67373e-07
0.00067385
-8.67441e-07
0.000674288
-8.6364e-07
0.000674723
-8.55961e-07
0.000675152
-8.44246e-07
0.000675573
-8.28531e-07
0.000675984
-8.08576e-07
0.000676384
-7.84436e-07
0.00067677
-7.55752e-07
0.000677139
-7.22705e-07
0.000677489
-6.84822e-07
0.000677819
-6.42447e-07
0.000678125
-5.94805e-07
0.000678405
-5.42414e-07
0.000678657
-4.84085e-07
0.000678877
-4.20818e-07
0.000679063
-3.50922e-07
0.000679213
-2.76138e-07
0.000679321
-1.93784e-07
0.000679387
-1.06593e-07
0.000679406
-1.06868e-08
0.000679374
9.25849e-08
0.000679286
2.07256e-07
0.00067914
3.26157e-07
0.000678928
4.59734e-07
0.00067865
5.96173e-07
0.000678295
7.52138e-07
0.000677864
9.08954e-07
0.000677343
1.09328e-06
0.000676734
1.2746e-06
0.000676019
1.49491e-06
0.000675201
1.70348e-06
0.000674257
1.96758e-06
0.000673197
2.2034e-06
0.000671986
2.52149e-06
0.000670646
2.78324e-06
3.17226e-06
0.000669121
0.000666682
-4.37816e-08
0.000666728
-1.31483e-07
0.000666805
-2.1912e-07
0.000666912
-3.05796e-07
0.00066705
-3.91059e-07
0.000667216
-4.74487e-07
0.000667411
-5.55682e-07
0.000667633
-6.34273e-07
0.000667882
-7.09917e-07
0.000668155
-7.82297e-07
0.000668453
-8.51126e-07
0.000668774
-9.16138e-07
0.000669115
-9.77103e-07
0.000669476
-1.03381e-06
0.000669856
-1.08607e-06
0.000670252
-1.13371e-06
0.000670662
-1.17658e-06
0.000671086
-1.21455e-06
0.000671521
-1.24752e-06
0.000671966
-1.27535e-06
0.000672419
-1.29795e-06
0.000672878
-1.31519e-06
0.000673342
-1.32704e-06
0.000673808
-1.33335e-06
0.000674274
-1.33407e-06
0.00067474
-1.32903e-06
0.000675202
-1.31819e-06
0.000675659
-1.30137e-06
0.000676109
-1.2786e-06
0.00067655
-1.24956e-06
0.00067698
-1.2143e-06
0.000677397
-1.17238e-06
0.000677798
-1.12398e-06
0.000678182
-1.06852e-06
0.000678546
-1.00641e-06
0.000678887
-9.36654e-07
0.000679205
-8.59867e-07
0.000679495
-7.7454e-07
0.000679756
-6.81872e-07
0.000679985
-5.7976e-07
0.000680179
-4.70316e-07
0.000680336
-3.50195e-07
0.000680452
-2.2263e-07
0.000680524
-8.24508e-08
0.00068055
6.64084e-08
0.000680524
2.32792e-07
0.000680445
4.05936e-07
0.000680306
5.98733e-07
0.000680105
7.96905e-07
0.000679836
1.02078e-06
0.000679497
1.248e-06
0.000679079
1.51101e-06
0.000678581
1.77332e-06
0.00067799
2.08568e-06
0.000677306
2.38729e-06
0.000676515
2.75906e-06
0.000675618
3.1003e-06
0.000674595
3.54404e-06
0.000673455
3.9236e-06
4.4602e-06
0.000672167
0.000666683
-6.06093e-08
0.000666734
-1.82047e-07
0.000666818
-3.0338e-07
0.000666936
-4.23337e-07
0.000667086
-5.41267e-07
0.000667268
-6.56566e-07
0.000667481
-7.68671e-07
0.000667724
-8.7706e-07
0.000667995
-9.81257e-07
0.000668294
-1.08083e-06
0.000668618
-1.1754e-06
0.000668967
-1.26462e-06
0.000669338
-1.3482e-06
0.00066973
-1.42585e-06
0.000670141
-1.49737e-06
0.00067057
-1.56254e-06
0.000671014
-1.62119e-06
0.000671473
-1.67318e-06
0.000671944
-1.71836e-06
0.000672425
-1.75662e-06
0.000672915
-1.78784e-06
0.000673412
-1.8119e-06
0.000673913
-1.82873e-06
0.000674418
-1.8382e-06
0.000674925
-1.84024e-06
0.00067543
-1.83467e-06
0.000675933
-1.82143e-06
0.000676432
-1.80032e-06
0.000676925
-1.77135e-06
0.00067741
-1.73421e-06
0.000677884
-1.6889e-06
0.000678347
-1.63493e-06
0.000678795
-1.57246e-06
0.000679228
-1.50089e-06
0.000679642
-1.42059e-06
0.000680036
-1.33058e-06
0.000680407
-1.23133e-06
0.000680754
-1.12135e-06
0.000681074
-1.00167e-06
0.000681364
-8.70251e-07
0.000681623
-7.29049e-07
0.000681848
-5.7483e-07
0.000682036
-4.10549e-07
0.000682184
-2.31045e-07
0.000682292
-4.16749e-08
0.000682355
1.69705e-07
0.00068237
3.91534e-07
0.000682333
6.35332e-07
0.000682242
8.88172e-07
0.000682094
1.16908e-06
0.000681884
1.4581e-06
0.000681609
1.78531e-06
0.000681264
2.1182e-06
0.000680847
2.50326e-06
0.000680348
2.88585e-06
0.000679768
3.33954e-06
0.000679095
3.77295e-06
0.000678332
4.30748e-06
0.000677464
4.79117e-06
5.42722e-06
0.000676497
0.000666686
-7.95555e-08
0.000666743
-2.39007e-07
0.000666837
-3.98289e-07
0.00066697
-5.55666e-07
0.000667139
-7.10237e-07
0.000667343
-8.61168e-07
0.000667582
-1.00769e-06
0.000667854
-1.1491e-06
0.000668158
-1.28479e-06
0.000668491
-1.4142e-06
0.000668853
-1.53686e-06
0.000669241
-1.65237e-06
0.000669653
-1.76037e-06
0.000670087
-1.86057e-06
0.000670543
-1.95273e-06
0.000671017
-2.03664e-06
0.000671508
-2.11213e-06
0.000672014
-2.17906e-06
0.000672533
-2.23732e-06
0.000673063
-2.28678e-06
0.000673602
-2.32735e-06
0.000674149
-2.35892e-06
0.000674702
-2.38143e-06
0.000675259
-2.39477e-06
0.000675817
-2.39887e-06
0.000676376
-2.39356e-06
0.000676933
-2.37875e-06
0.000677487
-2.35429e-06
0.000678036
-2.32014e-06
0.000678578
-2.27604e-06
0.000679111
-2.22191e-06
0.000679633
-2.15732e-06
0.000680143
-2.08229e-06
0.000680639
-1.99638e-06
0.000681118
-1.89974e-06
0.000681579
-1.79162e-06
0.00068202
-1.67218e-06
0.000682439
-1.54021e-06
0.000682833
-1.3963e-06
0.000683202
-1.23899e-06
0.000683542
-1.06949e-06
0.000683853
-8.85513e-07
0.000684131
-6.88706e-07
0.000684376
-4.75285e-07
0.000684582
-2.48232e-07
0.000684756
-4.38643e-09
0.000684886
2.61505e-07
0.000684975
5.47058e-07
0.000685016
8.46487e-07
0.000685013
1.17215e-06
0.000684958
1.51301e-06
0.000684856
1.888e-06
0.000684695
2.27919e-06
0.000684483
2.71517e-06
0.000684204
3.16438e-06
0.000683872
3.67124e-06
0.000683465
4.1806e-06
0.000683005
4.76732e-06
0.000682459
5.3372e-06
6.01961e-06
0.000681866
0.000666689
-1.01462e-07
0.000666754
-3.04919e-07
0.000666864
-5.08085e-07
0.000667017