/*--------------------------------*- C++ -*----------------------------------*\
| =========                 |                                                 |
| \\      /  F ield         | OpenFOAM: The Open Source CFD Toolbox           |
|  \\    /   O peration     | Version:  2312                                  |
|   \\  /    A nd           | Website:  www.openfoam.com                      |
|    \\/     M anipulation  |                                                 |
\*---------------------------------------------------------------------------*/
FoamFile
{
    version     2.0;
    format      ascii;
    arch        "LSB;label=32;scalar=64";
    class       volScalarField;
    location    "90000";
    object      p;
}
// * * * * * * * * * * * * * * * * * * * * * * * * * * * * * * * * * * * * * //

dimensions      [0 2 -2 0 0 0 0];

internalField   nonuniform List<scalar> 
2715
(
5.11998e-07
4.97875e-07
4.84107e-07
4.73529e-07
4.66106e-07
4.60714e-07
4.56262e-07
4.52182e-07
4.48305e-07
4.44639e-07
4.41221e-07
4.38055e-07
4.35107e-07
4.32328e-07
4.29671e-07
4.27102e-07
4.24601e-07
4.22154e-07
4.1975e-07
4.17381e-07
4.15038e-07
4.12714e-07
4.10401e-07
4.08094e-07
4.05789e-07
4.03481e-07
4.01169e-07
3.98849e-07
3.9652e-07
3.94179e-07
3.91825e-07
3.89458e-07
3.87077e-07
3.84682e-07
3.82271e-07
3.79846e-07
3.77407e-07
3.74954e-07
3.72486e-07
3.70006e-07
3.67513e-07
3.65007e-07
3.62489e-07
3.59959e-07
3.57416e-07
3.5486e-07
3.52292e-07
3.49706e-07
3.47108e-07
3.44481e-07
3.41849e-07
3.39158e-07
3.36491e-07
3.33675e-07
3.31012e-07
3.27864e-07
3.25491e-07
3.21067e-07
3.20744e-07
3.10126e-07
4.63955e-07
4.62228e-07
4.59583e-07
4.56456e-07
4.5324e-07
4.50144e-07
4.4722e-07
4.44432e-07
4.4173e-07
4.39081e-07
4.36482e-07
4.33937e-07
4.31453e-07
4.2903e-07
4.26661e-07
4.24337e-07
4.2205e-07
4.1979e-07
4.17553e-07
4.15334e-07
4.13127e-07
4.10929e-07
4.08737e-07
4.06546e-07
4.04355e-07
4.0216e-07
3.99959e-07
3.9775e-07
3.95532e-07
3.93303e-07
3.91062e-07
3.88808e-07
3.86542e-07
3.84262e-07
3.81968e-07
3.7966e-07
3.77339e-07
3.75003e-07
3.72656e-07
3.70291e-07
3.67918e-07
3.65526e-07
3.6313e-07
3.60708e-07
3.58291e-07
3.55838e-07
3.53404e-07
3.50916e-07
3.48472e-07
3.45946e-07
3.43513e-07
3.4095e-07
3.38582e-07
3.36e-07
3.33831e-07
3.31299e-07
3.29664e-07
3.2726e-07
3.26769e-07
3.24078e-07
4.55217e-07
4.54466e-07
4.53052e-07
4.511e-07
4.48815e-07
4.46394e-07
4.43963e-07
4.41572e-07
4.39225e-07
4.36908e-07
4.34613e-07
4.32339e-07
4.30091e-07
4.27875e-07
4.25692e-07
4.23541e-07
4.21417e-07
4.19314e-07
4.1723e-07
4.15159e-07
4.13098e-07
4.11046e-07
4.08998e-07
4.06953e-07
4.04908e-07
4.02861e-07
4.0081e-07
3.98754e-07
3.96692e-07
3.94621e-07
3.92543e-07
3.90454e-07
3.88355e-07
3.86246e-07
3.84126e-07
3.81994e-07
3.79852e-07
3.77697e-07
3.75533e-07
3.73354e-07
3.71168e-07
3.68965e-07
3.66758e-07
3.6453e-07
3.62304e-07
3.60051e-07
3.57808e-07
3.5553e-07
3.53278e-07
3.50977e-07
3.48727e-07
3.46409e-07
3.44182e-07
3.41858e-07
3.3969e-07
3.37373e-07
3.35316e-07
3.33011e-07
3.31105e-07
3.2872e-07
4.43485e-07
4.43052e-07
4.42265e-07
4.41174e-07
4.39849e-07
4.3836e-07
4.36765e-07
4.35102e-07
4.33393e-07
4.3165e-07
4.29877e-07
4.2808e-07
4.26267e-07
4.24443e-07
4.22612e-07
4.20779e-07
4.18944e-07
4.17108e-07
4.1527e-07
4.13429e-07
4.11587e-07
4.0974e-07
4.07891e-07
4.06036e-07
4.04177e-07
4.02312e-07
4.0044e-07
3.98562e-07
3.96676e-07
3.94783e-07
3.92882e-07
3.90972e-07
3.89054e-07
3.87128e-07
3.85193e-07
3.83249e-07
3.81297e-07
3.79336e-07
3.77367e-07
3.75388e-07
3.73402e-07
3.71404e-07
3.69399e-07
3.67381e-07
3.65357e-07
3.63315e-07
3.61267e-07
3.59197e-07
3.57121e-07
3.55015e-07
3.52902e-07
3.50751e-07
3.48596e-07
3.46391e-07
3.44188e-07
3.41923e-07
3.39667e-07
3.37331e-07
3.35021e-07
3.3263e-07
4.36789e-07
4.36575e-07
4.36144e-07
4.35497e-07
4.34653e-07
4.33638e-07
4.32487e-07
4.31229e-07
4.29888e-07
4.28483e-07
4.27025e-07
4.25523e-07
4.23985e-07
4.22417e-07
4.20824e-07
4.19212e-07
4.17585e-07
4.15945e-07
4.14294e-07
4.12633e-07
4.10963e-07
4.09286e-07
4.07601e-07
4.05909e-07
4.04211e-07
4.02506e-07
4.00796e-07
3.99079e-07
3.97357e-07
3.95629e-07
3.93895e-07
3.92157e-07
3.90413e-07
3.88664e-07
3.86911e-07
3.85153e-07
3.83391e-07
3.81625e-07
3.79855e-07
3.7808e-07
3.76301e-07
3.74517e-07
3.72729e-07
3.70935e-07
3.69136e-07
3.67329e-07
3.65515e-07
3.63691e-07
3.61856e-07
3.60006e-07
3.58137e-07
3.56242e-07
3.5431e-07
3.5233e-07
3.50284e-07
3.48161e-07
3.45948e-07
3.43656e-07
3.41288e-07
3.38941e-07
4.31274e-07
4.31111e-07
4.30786e-07
4.30301e-07
4.29668e-07
4.28901e-07
4.28019e-07
4.2704e-07
4.2598e-07
4.24852e-07
4.23664e-07
4.22425e-07
4.21142e-07
4.1982e-07
4.18464e-07
4.1708e-07
4.15671e-07
4.1424e-07
4.12791e-07
4.11325e-07
4.09845e-07
4.08351e-07
4.06847e-07
4.05332e-07
4.03808e-07
4.02276e-07
4.00736e-07
3.99191e-07
3.97639e-07
3.96083e-07
3.94522e-07
3.92957e-07
3.9139e-07
3.8982e-07
3.88248e-07
3.86674e-07
3.85099e-07
3.83524e-07
3.81948e-07
3.80372e-07
3.78795e-07
3.77218e-07
3.75639e-07
3.74058e-07
3.72473e-07
3.70884e-07
3.69286e-07
3.67678e-07
3.66055e-07
3.64417e-07
3.62757e-07
3.6108e-07
3.59375e-07
3.5765e-07
3.55879e-07
3.54066e-07
3.52176e-07
3.5023e-07
3.48226e-07
3.4629e-07
4.26933e-07
4.26814e-07
4.26576e-07
4.2622e-07
4.25749e-07
4.25171e-07
4.24494e-07
4.23729e-07
4.22885e-07
4.21973e-07
4.20999e-07
4.1997e-07
4.18893e-07
4.17773e-07
4.16614e-07
4.1542e-07
4.14196e-07
4.12945e-07
4.11671e-07
4.10376e-07
4.09062e-07
4.07733e-07
4.06389e-07
4.05033e-07
4.03667e-07
4.02291e-07
4.00908e-07
3.99519e-07
3.98125e-07
3.96728e-07
3.95328e-07
3.93926e-07
3.92524e-07
3.91123e-07
3.89723e-07
3.88326e-07
3.86932e-07
3.85542e-07
3.84157e-07
3.82777e-07
3.81402e-07
3.80034e-07
3.78671e-07
3.77314e-07
3.75962e-07
3.74617e-07
3.73275e-07
3.71938e-07
3.706e-07
3.69259e-07
3.67906e-07
3.66537e-07
3.6514e-07
3.63717e-07
3.62259e-07
3.60777e-07
3.59251e-07
3.57705e-07
3.56135e-07
3.54657e-07
4.23488e-07
4.23396e-07
4.2321e-07
4.22931e-07
4.2256e-07
4.221e-07
4.21556e-07
4.20936e-07
4.20244e-07
4.19488e-07
4.18672e-07
4.17802e-07
4.16884e-07
4.15921e-07
4.14919e-07
4.13881e-07
4.12812e-07
4.11714e-07
4.10591e-07
4.09446e-07
4.0828e-07
4.07098e-07
4.05901e-07
4.04691e-07
4.0347e-07
4.02241e-07
4.01004e-07
3.99762e-07
3.98517e-07
3.9727e-07
3.96022e-07
3.94775e-07
3.93531e-07
3.92292e-07
3.91057e-07
3.89829e-07
3.88609e-07
3.87398e-07
3.86197e-07
3.85008e-07
3.83831e-07
3.82667e-07
3.81516e-07
3.80379e-07
3.79255e-07
3.78146e-07
3.77049e-07
3.75965e-07
3.74892e-07
3.73833e-07
3.72784e-07
3.71743e-07
3.707e-07
3.69654e-07
3.68596e-07
3.67535e-07
3.66459e-07
3.65396e-07
3.64352e-07
3.63433e-07
4.20732e-07
4.20657e-07
4.20505e-07
4.20276e-07
4.19971e-07
4.19592e-07
4.19142e-07
4.18624e-07
4.18044e-07
4.17405e-07
4.16711e-07
4.15968e-07
4.15178e-07
4.14345e-07
4.13475e-07
4.12569e-07
4.11631e-07
4.10665e-07
4.09674e-07
4.0866e-07
4.07626e-07
4.06575e-07
4.05509e-07
4.0443e-07
4.03341e-07
4.02244e-07
4.01141e-07
4.00034e-07
3.98926e-07
3.97817e-07
3.9671e-07
3.95607e-07
3.9451e-07
3.9342e-07
3.9234e-07
3.91272e-07
3.90216e-07
3.89175e-07
3.88151e-07
3.87145e-07
3.86158e-07
3.85193e-07
3.84251e-07
3.83333e-07
3.8244e-07
3.81575e-07
3.80737e-07
3.79928e-07
3.79145e-07
3.78389e-07
3.77656e-07
3.76952e-07
3.76272e-07
3.7562e-07
3.7499e-07
3.74389e-07
3.73809e-07
3.73275e-07
3.72795e-07
3.7246e-07
4.18538e-07
4.18475e-07
4.18347e-07
4.18153e-07
4.17895e-07
4.17574e-07
4.17191e-07
4.16749e-07
4.16252e-07
4.15702e-07
4.15103e-07
4.14458e-07
4.1377e-07
4.13042e-07
4.12277e-07
4.11479e-07
4.10651e-07
4.09794e-07
4.08913e-07
4.08011e-07
4.07088e-07
4.06149e-07
4.05196e-07
4.04231e-07
4.03257e-07
4.02275e-07
4.01289e-07
4.00301e-07
3.99313e-07
3.98328e-07
3.97346e-07
3.96372e-07
3.95407e-07
3.94453e-07
3.93513e-07
3.92589e-07
3.91684e-07
3.90799e-07
3.89936e-07
3.891e-07
3.88291e-07
3.87512e-07
3.86765e-07
3.86053e-07
3.85378e-07
3.84742e-07
3.84148e-07
3.83599e-07
3.83093e-07
3.82634e-07
3.82222e-07
3.81863e-07
3.81556e-07
3.81306e-07
3.8111e-07
3.80978e-07
3.80906e-07
3.80916e-07
3.81022e-07
3.81296e-07
4.16819e-07
4.16764e-07
4.16653e-07
4.16485e-07
4.16261e-07
4.15982e-07
4.15648e-07
4.15262e-07
4.14827e-07
4.14345e-07
4.13817e-07
4.13248e-07
4.12638e-07
4.11992e-07
4.11311e-07
4.10599e-07
4.09858e-07
4.09091e-07
4.083e-07
4.07488e-07
4.06658e-07
4.05813e-07
4.04954e-07
4.04084e-07
4.03207e-07
4.02324e-07
4.01439e-07
4.00552e-07
3.99668e-07
3.98789e-07
3.97917e-07
3.97054e-07
3.96205e-07
3.9537e-07
3.94553e-07
3.93757e-07
3.92985e-07
3.92239e-07
3.91522e-07
3.90837e-07
3.90189e-07
3.89578e-07
3.8901e-07
3.88488e-07
3.88014e-07
3.87593e-07
3.87227e-07
3.86919e-07
3.86673e-07
3.86494e-07
3.86387e-07
3.86356e-07
3.86405e-07
3.86539e-07
3.86762e-07
3.87082e-07
3.87503e-07
3.88043e-07
3.88719e-07
3.89589e-07
4.15511e-07
4.15462e-07
4.15363e-07
4.15214e-07
4.15014e-07
4.14765e-07
4.14467e-07
4.14122e-07
4.13733e-07
4.133e-07
4.12826e-07
4.12313e-07
4.11763e-07
4.11179e-07
4.10563e-07
4.09917e-07
4.09244e-07
4.08546e-07
4.07826e-07
4.07087e-07
4.06331e-07
4.0556e-07
4.04777e-07
4.03985e-07
4.03186e-07
4.02384e-07
4.0158e-07
4.00777e-07
3.99979e-07
3.99187e-07
3.98405e-07
3.97636e-07
3.96882e-07
3.96147e-07
3.95434e-07
3.94745e-07
3.94085e-07
3.93456e-07
3.92862e-07
3.92307e-07
3.91795e-07
3.9133e-07
3.90915e-07
3.90555e-07
3.90254e-07
3.90017e-07
3.89848e-07
3.89753e-07
3.89737e-07
3.89808e-07
3.8997e-07
3.90232e-07
3.90598e-07
3.91077e-07
3.91676e-07
3.92405e-07
3.93274e-07
3.94298e-07
3.95497e-07
3.96913e-07
4.14568e-07
4.14523e-07
4.14433e-07
4.14297e-07
4.14114e-07
4.13886e-07
4.13613e-07
4.13297e-07
4.1294e-07
4.12542e-07
4.12106e-07
4.11634e-07
4.11127e-07
4.10588e-07
4.10019e-07
4.09421e-07
4.08798e-07
4.08152e-07
4.07485e-07
4.06799e-07
4.06098e-07
4.05383e-07
4.04658e-07
4.03924e-07
4.03185e-07
4.02444e-07
4.01702e-07
4.00964e-07
4.00231e-07
3.99507e-07
3.98794e-07
3.98097e-07
3.97417e-07
3.9676e-07
3.96127e-07
3.95522e-07
3.94949e-07
3.94412e-07
3.93916e-07
3.93463e-07
3.93058e-07
3.92707e-07
3.92413e-07
3.92183e-07
3.9202e-07
3.91931e-07
3.91922e-07
3.92e-07
3.92171e-07
3.92444e-07
3.92826e-07
3.93326e-07
3.93952e-07
3.94714e-07
3.95624e-07
3.96692e-07
3.97933e-07
3.9936e-07
4.00996e-07
4.02869e-07
4.1396e-07
4.13918e-07
4.13833e-07
4.13705e-07
4.13533e-07
4.13318e-07
4.13061e-07
4.12764e-07
4.12427e-07
4.12052e-07
4.1164e-07
4.11194e-07
4.10715e-07
4.10206e-07
4.09667e-07
4.09101e-07
4.08511e-07
4.07899e-07
4.07267e-07
4.06617e-07
4.05953e-07
4.05276e-07
4.04588e-07
4.03894e-07
4.03196e-07
4.02495e-07
4.01796e-07
4.011e-07
4.00412e-07
3.99734e-07
3.99069e-07
3.98421e-07
3.97792e-07
3.97187e-07
3.9661e-07
3.96063e-07
3.9555e-07
3.95077e-07
3.94647e-07
3.94265e-07
3.93936e-07
3.93664e-07
3.93455e-07
3.93315e-07
3.93249e-07
3.93264e-07
3.93368e-07
3.93567e-07
3.9387e-07
3.94286e-07
3.94823e-07
3.95492e-07
3.96303e-07
3.97268e-07
3.984e-07
3.99711e-07
4.01219e-07
4.02937e-07
4.04888e-07
4.07091e-07
4.13667e-07
4.13626e-07
4.13543e-07
4.13419e-07
4.13252e-07
4.13044e-07
4.12795e-07
4.12507e-07
4.1218e-07
4.11816e-07
4.11416e-07
4.10983e-07
4.10518e-07
4.10023e-07
4.095e-07
4.0895e-07
4.08377e-07
4.07781e-07
4.07167e-07
4.06535e-07
4.05889e-07
4.05231e-07
4.04563e-07
4.03889e-07
4.0321e-07
4.02531e-07
4.01853e-07
4.0118e-07
4.00515e-07
3.9986e-07
3.99219e-07
3.98596e-07
3.97994e-07
3.97416e-07
3.96867e-07
3.9635e-07
3.95869e-07
3.95428e-07
3.95033e-07
3.94688e-07
3.94397e-07
3.94166e-07
3.94001e-07
3.93908e-07
3.93892e-07
3.93961e-07
3.94124e-07
3.94386e-07
3.94758e-07
3.95249e-07
3.95868e-07
3.96625e-07
3.97533e-07
3.98604e-07
3.99853e-07
4.01292e-07
4.0294e-07
4.04812e-07
4.0693e-07
4.09307e-07
4.13677e-07
4.13637e-07
4.13554e-07
4.1343e-07
4.13263e-07
4.13055e-07
4.12806e-07
4.12518e-07
4.12191e-07
4.11827e-07
4.11428e-07
4.10995e-07
4.10531e-07
4.10036e-07
4.09512e-07
4.08963e-07
4.0839e-07
4.07795e-07
4.0718e-07
4.06549e-07
4.05903e-07
4.05246e-07
4.04578e-07
4.03905e-07
4.03227e-07
4.02548e-07
4.0187e-07
4.01198e-07
4.00533e-07
3.99879e-07
3.99239e-07
3.98616e-07
3.98015e-07
3.97438e-07
3.96889e-07
3.96373e-07
3.95893e-07
3.95453e-07
3.95059e-07
3.94714e-07
3.94425e-07
3.94195e-07
3.94031e-07
3.93939e-07
3.93925e-07
3.93996e-07
3.94159e-07
3.94423e-07
3.94797e-07
3.95289e-07
3.95909e-07
3.96668e-07
3.97579e-07
3.98651e-07
3.99902e-07
4.01343e-07
4.02994e-07
4.04868e-07
4.06988e-07
4.09368e-07
4.13993e-07
4.13951e-07
4.13866e-07
4.13738e-07
4.13566e-07
4.13352e-07
4.13095e-07
4.12798e-07
4.12461e-07
4.12087e-07
4.11676e-07
4.1123e-07
4.10752e-07
4.10243e-07
4.09705e-07
4.0914e-07
4.08551e-07
4.0794e-07
4.07308e-07
4.0666e-07
4.05996e-07
4.0532e-07
4.04634e-07
4.03942e-07
4.03244e-07
4.02545e-07
4.01847e-07
4.01154e-07
4.00467e-07
3.99791e-07
3.99128e-07
3.98482e-07
3.97855e-07
3.97252e-07
3.96677e-07
3.96132e-07
3.95623e-07
3.95152e-07
3.94725e-07
3.94346e-07
3.94019e-07
3.93751e-07
3.93545e-07
3.93409e-07
3.93347e-07
3.93366e-07
3.93473e-07
3.93677e-07
3.93984e-07
3.94405e-07
3.94947e-07
3.95621e-07
3.96438e-07
3.97409e-07
3.98546e-07
3.99864e-07
4.01378e-07
4.03104e-07
4.05062e-07
4.07273e-07
4.14622e-07
4.14578e-07
4.14487e-07
4.14351e-07
4.14169e-07
4.13941e-07
4.13669e-07
4.13354e-07
4.12997e-07
4.126e-07
4.12165e-07
4.11693e-07
4.11187e-07
4.10649e-07
4.10081e-07
4.09485e-07
4.08864e-07
4.08219e-07
4.07553e-07
4.0687e-07
4.0617e-07
4.05457e-07
4.04734e-07
4.04002e-07
4.03266e-07
4.02527e-07
4.01788e-07
4.01052e-07
4.00322e-07
3.996e-07
3.98891e-07
3.98197e-07
3.97521e-07
3.96867e-07
3.96238e-07
3.95637e-07
3.95069e-07
3.94536e-07
3.94044e-07
3.93596e-07
3.93197e-07
3.9285e-07
3.92562e-07
3.92338e-07
3.92181e-07
3.92099e-07
3.92097e-07
3.92181e-07
3.9236e-07
3.92641e-07
3.93031e-07
3.93539e-07
3.94174e-07
3.94946e-07
3.95866e-07
3.96945e-07
3.98196e-07
3.99635e-07
4.01283e-07
4.03168e-07
4.15586e-07
4.15537e-07
4.15438e-07
4.15289e-07
4.1509e-07
4.14841e-07
4.14544e-07
4.142e-07
4.13811e-07
4.1338e-07
4.12907e-07
4.12395e-07
4.11847e-07
4.11264e-07
4.1065e-07
4.10006e-07
4.09335e-07
4.08639e-07
4.07921e-07
4.07184e-07
4.0643e-07
4.05662e-07
4.04882e-07
4.04093e-07
4.03298e-07
4.02498e-07
4.01698e-07
4.00899e-07
4.00105e-07
3.99317e-07
3.9854e-07
3.97775e-07
3.97026e-07
3.96296e-07
3.95588e-07
3.94905e-07
3.9425e-07
3.93627e-07
3.9304e-07
3.92492e-07
3.91986e-07
3.91528e-07
3.91121e-07
3.90768e-07
3.90476e-07
3.90248e-07
3.90089e-07
3.90004e-07
3.89998e-07
3.90079e-07
3.90253e-07
3.90526e-07
3.90904e-07
3.91397e-07
3.92009e-07
3.92753e-07
3.93637e-07
3.94677e-07
3.95892e-07
3.97324e-07
4.16914e-07
4.16859e-07
4.16748e-07
4.16581e-07
4.16357e-07
4.16079e-07
4.15746e-07
4.15361e-07
4.14927e-07
4.14446e-07
4.1392e-07
4.13352e-07
4.12744e-07
4.121e-07
4.11421e-07
4.10711e-07
4.09973e-07
4.09208e-07
4.0842e-07
4.07611e-07
4.06785e-07
4.05942e-07
4.05087e-07
4.04222e-07
4.03348e-07
4.0247e-07
4.01588e-07
4.00707e-07
3.99828e-07
3.98954e-07
3.98087e-07
3.9723e-07
3.96387e-07
3.95558e-07
3.94748e-07
3.93959e-07
3.93194e-07
3.92455e-07
3.91747e-07
3.91071e-07
3.90431e-07
3.8983e-07
3.89271e-07
3.88759e-07
3.88295e-07
3.87885e-07
3.87531e-07
3.87235e-07
3.87002e-07
3.86837e-07
3.86744e-07
3.86728e-07
3.86792e-07
3.86942e-07
3.87182e-07
3.8752e-07
3.8796e-07
3.8852e-07
3.89216e-07
3.90106e-07
4.18652e-07
4.18589e-07
4.18461e-07
4.18268e-07
4.18011e-07
4.1769e-07
4.17308e-07
4.16868e-07
4.16372e-07
4.15824e-07
4.15226e-07
4.14583e-07
4.13897e-07
4.13171e-07
4.12409e-07
4.11614e-07
4.10788e-07
4.09935e-07
4.09058e-07
4.08158e-07
4.0724e-07
4.06305e-07
4.05356e-07
4.04395e-07
4.03426e-07
4.0245e-07
4.01469e-07
4.00487e-07
3.99505e-07
3.98525e-07
3.97551e-07
3.96583e-07
3.95625e-07
3.94679e-07
3.93747e-07
3.92831e-07
3.91934e-07
3.91059e-07
3.90206e-07
3.89379e-07
3.88581e-07
3.87813e-07
3.87078e-07
3.86378e-07
3.85715e-07
3.85093e-07
3.84513e-07
3.83977e-07
3.83487e-07
3.83044e-07
3.82649e-07
3.82307e-07
3.82018e-07
3.81787e-07
3.81611e-07
3.815e-07
3.81451e-07
3.81484e-07
3.81613e-07
3.81911e-07
4.20864e-07
4.20788e-07
4.20637e-07
4.20409e-07
4.20105e-07
4.19727e-07
4.19277e-07
4.18761e-07
4.18183e-07
4.17545e-07
4.16854e-07
4.16112e-07
4.15325e-07
4.14495e-07
4.13627e-07
4.12725e-07
4.11791e-07
4.10828e-07
4.09841e-07
4.08831e-07
4.07802e-07
4.06755e-07
4.05694e-07
4.04621e-07
4.03537e-07
4.02446e-07
4.01349e-07
4.00249e-07
3.99147e-07
3.98045e-07
3.96946e-07
3.95851e-07
3.94762e-07
3.93681e-07
3.9261e-07
3.91551e-07
3.90506e-07
3.89475e-07
3.88462e-07
3.87467e-07
3.86493e-07
3.85541e-07
3.84611e-07
3.83707e-07
3.82829e-07
3.81979e-07
3.81157e-07
3.80364e-07
3.79598e-07
3.78861e-07
3.78147e-07
3.77462e-07
3.76803e-07
3.76173e-07
3.75566e-07
3.74988e-07
3.74434e-07
3.73925e-07
3.73473e-07
3.73165e-07
4.23637e-07
4.23544e-07
4.23359e-07
4.23081e-07
4.2271e-07
4.22251e-07
4.21709e-07
4.2109e-07
4.204e-07
4.19646e-07
4.18832e-07
4.17965e-07
4.17049e-07
4.1609e-07
4.15091e-07
4.14057e-07
4.12991e-07
4.11897e-07
4.10779e-07
4.09638e-07
4.08478e-07
4.07301e-07
4.06109e-07
4.04905e-07
4.0369e-07
4.02467e-07
4.01238e-07
4.00003e-07
3.98766e-07
3.97526e-07
3.96287e-07
3.9505e-07
3.93815e-07
3.92585e-07
3.9136e-07
3.90143e-07
3.88934e-07
3.87735e-07
3.86547e-07
3.85371e-07
3.84207e-07
3.83057e-07
3.81921e-07
3.80799e-07
3.79692e-07
3.78599e-07
3.77519e-07
3.76454e-07
3.754e-07
3.74361e-07
3.73332e-07
3.72314e-07
3.71293e-07
3.70273e-07
3.69239e-07
3.68204e-07
3.67156e-07
3.66121e-07
3.65107e-07
3.64217e-07
4.27096e-07
4.26978e-07
4.2674e-07
4.26385e-07
4.25915e-07
4.25337e-07
4.24662e-07
4.23899e-07
4.23057e-07
4.22147e-07
4.21175e-07
4.2015e-07
4.19076e-07
4.17958e-07
4.16803e-07
4.15613e-07
4.14393e-07
4.13147e-07
4.11877e-07
4.10587e-07
4.09279e-07
4.07955e-07
4.06618e-07
4.05268e-07
4.03909e-07
4.02541e-07
4.01165e-07
3.99784e-07
3.98399e-07
3.9701e-07
3.95619e-07
3.94227e-07
3.92836e-07
3.91445e-07
3.90057e-07
3.88671e-07
3.8729e-07
3.85913e-07
3.84541e-07
3.83175e-07
3.81815e-07
3.80462e-07
3.79115e-07
3.77775e-07
3.76441e-07
3.75113e-07
3.73791e-07
3.72473e-07
3.71155e-07
3.69836e-07
3.68505e-07
3.67161e-07
3.65789e-07
3.64393e-07
3.62962e-07
3.61508e-07
3.60011e-07
3.58495e-07
3.56957e-07
3.55511e-07
4.3145e-07
4.31288e-07
4.30963e-07
4.30479e-07
4.29847e-07
4.29081e-07
4.28201e-07
4.27224e-07
4.26166e-07
4.2504e-07
4.23855e-07
4.22619e-07
4.21339e-07
4.2002e-07
4.18669e-07
4.17289e-07
4.15884e-07
4.14458e-07
4.13014e-07
4.11554e-07
4.10079e-07
4.08592e-07
4.07094e-07
4.05586e-07
4.0407e-07
4.02545e-07
4.01014e-07
3.99477e-07
3.97935e-07
3.96388e-07
3.94837e-07
3.93283e-07
3.91726e-07
3.90168e-07
3.88608e-07
3.87047e-07
3.85486e-07
3.83924e-07
3.82363e-07
3.80802e-07
3.79241e-07
3.7768e-07
3.76118e-07
3.74556e-07
3.7299e-07
3.7142e-07
3.69842e-07
3.68256e-07
3.66656e-07
3.65042e-07
3.63407e-07
3.61755e-07
3.60075e-07
3.58377e-07
3.56633e-07
3.54849e-07
3.5299e-07
3.51077e-07
3.49107e-07
3.47204e-07
4.36976e-07
4.36763e-07
4.36332e-07
4.35686e-07
4.34843e-07
4.3383e-07
4.3268e-07
4.31424e-07
4.30086e-07
4.28683e-07
4.27228e-07
4.25729e-07
4.24194e-07
4.2263e-07
4.21042e-07
4.19434e-07
4.17812e-07
4.16177e-07
4.14531e-07
4.12876e-07
4.11213e-07
4.09542e-07
4.07864e-07
4.0618e-07
4.04489e-07
4.02793e-07
4.01091e-07
3.99384e-07
3.97671e-07
3.95953e-07
3.9423e-07
3.92503e-07
3.90771e-07
3.89034e-07
3.87294e-07
3.85549e-07
3.83802e-07
3.8205e-07
3.80295e-07
3.78536e-07
3.76774e-07
3.75008e-07
3.73238e-07
3.71463e-07
3.69683e-07
3.67897e-07
3.66104e-07
3.64303e-07
3.62491e-07
3.60665e-07
3.58821e-07
3.56952e-07
3.55047e-07
3.53096e-07
3.5108e-07
3.48989e-07
3.46808e-07
3.44551e-07
3.42218e-07
3.39905e-07
4.43682e-07
4.4325e-07
4.42463e-07
4.41373e-07
4.40049e-07
4.38561e-07
4.36968e-07
4.35307e-07
4.33601e-07
4.3186e-07
4.3009e-07
4.28297e-07
4.26488e-07
4.24667e-07
4.22841e-07
4.21013e-07
4.19183e-07
4.17352e-07
4.15519e-07
4.13685e-07
4.11849e-07
4.1001e-07
4.08167e-07
4.06321e-07
4.0447e-07
4.02613e-07
4.00751e-07
3.98882e-07
3.97006e-07
3.95123e-07
3.93233e-07
3.91335e-07
3.8943e-07
3.87516e-07
3.85595e-07
3.83665e-07
3.81728e-07
3.79782e-07
3.77829e-07
3.75867e-07
3.73898e-07
3.71919e-07
3.69933e-07
3.67935e-07
3.65931e-07
3.63912e-07
3.61886e-07
3.5984e-07
3.57788e-07
3.55707e-07
3.53621e-07
3.51498e-07
3.49372e-07
3.47197e-07
3.45026e-07
3.42792e-07
3.40569e-07
3.38266e-07
3.3599e-07
3.33634e-07
4.55421e-07
4.54671e-07
4.53257e-07
4.51306e-07
4.49022e-07
4.46603e-07
4.44173e-07
4.41785e-07
4.3944e-07
4.37126e-07
4.34834e-07
4.32564e-07
4.3032e-07
4.28108e-07
4.2593e-07
4.23783e-07
4.21664e-07
4.19568e-07
4.17489e-07
4.15425e-07
4.13371e-07
4.11325e-07
4.09285e-07
4.07248e-07
4.05211e-07
4.03173e-07
4.01132e-07
3.99086e-07
3.97034e-07
3.94974e-07
3.92907e-07
3.9083e-07
3.88745e-07
3.86648e-07
3.84543e-07
3.82425e-07
3.80299e-07
3.78159e-07
3.76012e-07
3.7385e-07
3.71683e-07
3.69498e-07
3.67311e-07
3.65104e-07
3.62899e-07
3.60668e-07
3.58449e-07
3.56195e-07
3.53967e-07
3.51692e-07
3.49469e-07
3.47179e-07
3.44981e-07
3.42687e-07
3.4055e-07
3.38266e-07
3.36242e-07
3.33973e-07
3.32103e-07
3.29755e-07
4.64165e-07
4.62438e-07
4.59793e-07
4.56668e-07
4.53453e-07
4.50359e-07
4.47437e-07
4.44651e-07
4.41951e-07
4.39306e-07
4.3671e-07
4.34168e-07
4.31688e-07
4.29269e-07
4.26905e-07
4.24587e-07
4.22305e-07
4.20051e-07
4.1782e-07
4.15607e-07
4.13407e-07
4.11217e-07
4.09032e-07
4.0685e-07
4.04667e-07
4.02481e-07
4.00289e-07
3.9809e-07
3.95883e-07
3.93665e-07
3.91436e-07
3.89195e-07
3.86941e-07
3.84674e-07
3.82396e-07
3.80102e-07
3.77797e-07
3.75476e-07
3.73147e-07
3.708e-07
3.68446e-07
3.66073e-07
3.63697e-07
3.61296e-07
3.58902e-07
3.56472e-07
3.54061e-07
3.51598e-07
3.4918e-07
3.4668e-07
3.44275e-07
3.4174e-07
3.39401e-07
3.36851e-07
3.34713e-07
3.32214e-07
3.30613e-07
3.28245e-07
3.27789e-07
3.25136e-07
5.1221e-07
4.98087e-07
4.8432e-07
4.73744e-07
4.66322e-07
4.60932e-07
4.56482e-07
4.52404e-07
4.4853e-07
4.44867e-07
4.41452e-07
4.3829e-07
4.35346e-07
4.32571e-07
4.29919e-07
4.27356e-07
4.2486e-07
4.22419e-07
4.20022e-07
4.17659e-07
4.15323e-07
4.13005e-07
4.107e-07
4.08402e-07
4.06105e-07
4.03807e-07
4.01504e-07
3.99195e-07
3.96876e-07
3.94546e-07
3.92204e-07
3.8985e-07
3.87481e-07
3.85099e-07
3.82703e-07
3.80293e-07
3.7787e-07
3.75433e-07
3.72983e-07
3.70521e-07
3.68046e-07
3.6556e-07
3.63062e-07
3.60553e-07
3.58033e-07
3.555e-07
3.52955e-07
3.50394e-07
3.47822e-07
3.45223e-07
3.42618e-07
3.39956e-07
3.37318e-07
3.34532e-07
3.31901e-07
3.28786e-07
3.26446e-07
3.22058e-07
3.2177e-07
3.11188e-07
3.16434e-07
3.15013e-07
3.10137e-07
3.04015e-07
2.98041e-07
2.93113e-07
2.89726e-07
2.87989e-07
2.87676e-07
2.88296e-07
2.8924e-07
2.90021e-07
2.90379e-07
2.90374e-07
2.90306e-07
3.25564e-07
3.21788e-07
3.15394e-07
3.09342e-07
3.04856e-07
3.02112e-07
3.0089e-07
3.00806e-07
3.01426e-07
3.02191e-07
3.02666e-07
3.02757e-07
3.02711e-07
3.02926e-07
3.03727e-07
3.05313e-07
3.07614e-07
3.10492e-07
3.13613e-07
3.16608e-07
3.19479e-07
3.22446e-07
3.25305e-07
3.27154e-07
3.26551e-07
3.22183e-07
3.09889e-07
2.80871e-07
2.46772e-07
6.83645e-08
3.26777e-07
3.23441e-07
3.19567e-07
3.16236e-07
3.13985e-07
3.12732e-07
3.12044e-07
3.11492e-07
3.10877e-07
3.10369e-07
3.10423e-07
3.1141e-07
3.13363e-07
3.16024e-07
3.19088e-07
3.22391e-07
3.25876e-07
3.29465e-07
3.33206e-07
3.37273e-07
3.42043e-07
3.47442e-07
3.52792e-07
3.57285e-07
3.60144e-07
3.6014e-07
3.53239e-07
3.35337e-07
3.02019e-07
1.60698e-07
3.30352e-07
3.28175e-07
3.26307e-07
3.24849e-07
3.23851e-07
3.23254e-07
3.22925e-07
3.22797e-07
3.22963e-07
3.23692e-07
3.25183e-07
3.2747e-07
3.3042e-07
3.33749e-07
3.37182e-07
3.40629e-07
3.44264e-07
3.48437e-07
3.53511e-07
3.59713e-07
3.66891e-07
3.74516e-07
3.81992e-07
3.89167e-07
3.95661e-07
4.00137e-07
3.99286e-07
3.89812e-07
3.61144e-07
2.52945e-07
3.36741e-07
3.35239e-07
3.34396e-07
3.33978e-07
3.33829e-07
3.33914e-07
3.34277e-07
3.34995e-07
3.36164e-07
3.37835e-07
3.39973e-07
3.42462e-07
3.45199e-07
3.48216e-07
3.51747e-07
3.56159e-07
3.61708e-07
3.68391e-07
3.7604e-07
3.84462e-07
3.93336e-07
4.02499e-07
4.12158e-07
4.22462e-07
4.32818e-07
4.4178e-07
4.46857e-07
4.4475e-07
4.23848e-07
3.44577e-07
3.44557e-07
3.43645e-07
3.435e-07
3.43847e-07
3.44474e-07
3.45319e-07
3.46429e-07
3.47883e-07
3.49742e-07
3.52024e-07
3.54724e-07
3.57852e-07
3.61489e-07
3.65818e-07
3.7103e-07
3.77211e-07
3.84353e-07
3.92305e-07
4.00865e-07
4.09982e-07
4.19886e-07
4.31022e-07
4.43667e-07
4.57468e-07
4.71508e-07
4.84723e-07
4.95373e-07
5.00207e-07
4.88301e-07
4.33103e-07
3.53418e-07
3.53062e-07
3.53516e-07
3.545e-07
3.55792e-07
3.57311e-07
3.59083e-07
3.61185e-07
3.63694e-07
3.66667e-07
3.70155e-07
3.74219e-07
3.78932e-07
3.84364e-07
3.90559e-07
3.9751e-07
4.05184e-07
4.13637e-07
4.23104e-07
4.33967e-07
4.46543e-07
4.60857e-07
4.76624e-07
4.93313e-07
5.10514e-07
5.27853e-07
5.4392e-07
5.55418e-07
5.52921e-07
5.17772e-07
3.62783e-07
3.62995e-07
3.63998e-07
3.6554e-07
3.67415e-07
3.69542e-07
3.71942e-07
3.74693e-07
3.77882e-07
3.81584e-07
3.85859e-07
3.90762e-07
3.96344e-07
4.02652e-07
4.09742e-07
4.17697e-07
4.26647e-07
4.36807e-07
4.48399e-07
4.61535e-07
4.76222e-07
4.92326e-07
5.09726e-07
5.28555e-07
5.49018e-07
5.7068e-07
5.91902e-07
6.09558e-07
6.15818e-07
5.96733e-07
3.72408e-07
3.73176e-07
3.74696e-07
3.76749e-07
3.79155e-07
3.81846e-07
3.84849e-07
3.88238e-07
3.921e-07
3.96514e-07
4.01544e-07
4.07246e-07
4.13682e-07
4.20924e-07
4.29063e-07
4.38211e-07
4.48496e-07
4.60049e-07
4.7299e-07
4.87398e-07
5.03326e-07
5.20923e-07
5.40537e-07
5.62481e-07
5.86675e-07
6.12351e-07
6.37999e-07
6.61087e-07
6.75293e-07
6.69078e-07
3.81861e-07
3.83165e-07
3.85158e-07
3.87665e-07
3.90547e-07
3.93754e-07
3.97315e-07
4.01302e-07
4.05798e-07
4.1088e-07
4.16616e-07
4.23071e-07
4.30315e-07
4.38432e-07
4.4752e-07
4.57689e-07
4.69062e-07
4.81771e-07
4.95964e-07
5.11819e-07
5.29569e-07
5.49477e-07
5.71739e-07
5.96344e-07
6.23084e-07
6.51498e-07
6.80775e-07
7.08742e-07
7.29798e-07
7.33358e-07
3.90749e-07
3.92553e-07
3.9497e-07
3.9788e-07
4.01184e-07
4.04855e-07
4.08924e-07
4.13458e-07
4.18535e-07
4.24231e-07
4.30616e-07
4.37762e-07
4.45747e-07
4.54661e-07
4.64612e-07
4.75717e-07
4.88116e-07
5.01964e-07
5.17439e-07
5.34736e-07
5.54064e-07
5.75615e-07
5.99551e-07
6.25947e-07
6.54818e-07
6.86013e-07
7.18898e-07
7.51207e-07
7.7792e-07
7.88635e-07
3.98617e-07
4.00863e-07
4.03643e-07
4.0689e-07
4.1055e-07
4.14614e-07
4.19117e-07
4.24121e-07
4.29698e-07
4.3592e-07
4.42861e-07
4.50599e-07
4.59217e-07
4.68812e-07
4.79497e-07
4.914e-07
5.04666e-07
5.1946e-07
5.35964e-07
5.54378e-07
5.74918e-07
5.97802e-07
6.23263e-07
6.51495e-07
6.82607e-07
7.16371e-07
7.52037e-07
7.87417e-07
8.1831e-07
8.33865e-07
4.05026e-07
4.07631e-07
4.10699e-07
4.14211e-07
4.1815e-07
4.22525e-07
4.27374e-07
4.32754e-07
4.3873e-07
4.45373e-07
4.5276e-07
4.6097e-07
4.70094e-07
4.80233e-07
4.91506e-07
5.04044e-07
5.18e-07
5.33544e-07
5.50869e-07
5.70185e-07
5.91727e-07
6.15738e-07
6.42464e-07
6.72092e-07
7.0472e-07
7.4013e-07
7.77695e-07
8.15384e-07
8.49513e-07
8.68509e-07
4.09576e-07
4.12436e-07
4.15705e-07
4.19398e-07
4.23529e-07
4.28121e-07
4.33211e-07
4.38852e-07
4.45107e-07
4.52045e-07
4.59741e-07
4.6828e-07
4.77756e-07
4.88273e-07
4.99952e-07
5.1293e-07
5.27362e-07
5.43423e-07
5.61311e-07
5.81245e-07
6.03466e-07
6.28222e-07
6.55767e-07
6.86297e-07
7.1994e-07
7.56518e-07
7.95462e-07
8.3477e-07
8.70999e-07
8.92141e-07
4.11965e-07
4.14958e-07
4.1833e-07
4.22117e-07
4.26347e-07
4.31049e-07
4.36264e-07
4.42041e-07
4.4844e-07
4.55529e-07
4.63385e-07
4.72094e-07
4.81751e-07
4.92462e-07
5.04351e-07
5.17555e-07
5.32233e-07
5.4856e-07
5.66739e-07
5.8699e-07
6.09559e-07
6.34697e-07
6.62664e-07
6.93668e-07
7.27842e-07
7.65013e-07
8.04625e-07
8.44701e-07
8.81937e-07
9.0413e-07
4.12028e-07
4.15023e-07
4.18396e-07
4.22184e-07
4.26415e-07
4.31119e-07
4.36335e-07
4.42113e-07
4.48514e-07
4.55604e-07
4.63462e-07
4.72173e-07
4.81831e-07
4.92544e-07
5.04435e-07
5.17641e-07
5.3232e-07
5.4865e-07
5.66831e-07
5.87084e-07
6.09656e-07
6.34796e-07
6.62767e-07
6.93775e-07
7.27954e-07
7.6513e-07
8.04749e-07
8.44833e-07
8.8208e-07
9.04286e-07
4.09765e-07
4.12629e-07
4.15902e-07
4.19599e-07
4.23733e-07
4.28328e-07
4.33423e-07
4.39068e-07
4.45328e-07
4.5227e-07
4.59971e-07
4.68514e-07
4.77995e-07
4.88517e-07
5.00202e-07
5.13185e-07
5.27623e-07
5.4369e-07
5.61586e-07
5.81527e-07
6.03756e-07
6.28521e-07
6.56075e-07
6.86618e-07
7.20274e-07
7.56868e-07
7.95832e-07
8.35166e-07
8.71429e-07
8.9261e-07
4.05337e-07
4.0795e-07
4.11024e-07
4.14541e-07
4.18486e-07
4.22868e-07
4.27724e-07
4.3311e-07
4.39094e-07
4.45745e-07
4.53139e-07
4.61357e-07
4.70489e-07
4.80637e-07
4.91918e-07
5.04466e-07
5.18432e-07
5.33987e-07
5.51323e-07
5.70651e-07
5.92207e-07
6.16232e-07
6.42975e-07
6.72622e-07
7.05273e-07
7.4071e-07
7.78309e-07
8.16041e-07
8.50229e-07
8.6929e-07
3.99044e-07
4.01302e-07
4.0409e-07
4.07345e-07
4.11013e-07
4.15086e-07
4.19599e-07
4.24613e-07
4.302e-07
4.36433e-07
4.43385e-07
4.51133e-07
4.59763e-07
4.6937e-07
4.80068e-07
4.91984e-07
5.05264e-07
5.20072e-07
5.36593e-07
5.55024e-07
5.75582e-07
5.98487e-07
6.23973e-07
6.52231e-07
6.83375e-07
7.17176e-07
7.5289e-07
7.88331e-07
8.19309e-07
8.34959e-07
3.91286e-07
3.93105e-07
3.95533e-07
3.98453e-07
4.01768e-07
4.0545e-07
4.09531e-07
4.14078e-07
4.19169e-07
4.24878e-07
4.31277e-07
4.38437e-07
4.46437e-07
4.55367e-07
4.65333e-07
4.76455e-07
4.88872e-07
5.02739e-07
5.18234e-07
5.35553e-07
5.54905e-07
5.76483e-07
6.0045e-07
6.26882e-07
6.55795e-07
6.8704e-07
7.19985e-07
7.52372e-07
7.79194e-07
7.90044e-07
3.82499e-07
3.83822e-07
3.85828e-07
3.88348e-07
3.91242e-07
3.94463e-07
3.98039e-07
4.02042e-07
4.06555e-07
4.11654e-07
4.17407e-07
4.23879e-07
4.31141e-07
4.39277e-07
4.48384e-07
4.58574e-07
4.69969e-07
4.82701e-07
4.96919e-07
5.12802e-07
5.30581e-07
5.50522e-07
5.72821e-07
5.97467e-07
6.24259e-07
6.52735e-07
6.82089e-07
7.10152e-07
7.31342e-07
7.35083e-07
3.73139e-07
3.73928e-07
3.75464e-07
3.77531e-07
3.79953e-07
3.82661e-07
3.85682e-07
3.8909e-07
3.92972e-07
3.97405e-07
4.02455e-07
4.08177e-07
4.14634e-07
4.21899e-07
4.30061e-07
4.39233e-07
4.49544e-07
4.61125e-07
4.74094e-07
4.88535e-07
5.04499e-07
5.22136e-07
5.41794e-07
5.63788e-07
5.88041e-07
6.13789e-07
6.39529e-07
6.62733e-07
6.77101e-07
6.71118e-07
3.63596e-07
3.63832e-07
3.64854e-07
3.66414e-07