/*--------------------------------*- C++ -*----------------------------------*\
| =========                 |                                                 |
| \\      /  F ield         | OpenFOAM: The Open Source CFD Toolbox           |
|  \\    /   O peration     | Version:  2312                                  |
|   \\  /    A nd           | Website:  www.openfoam.com                      |
|    \\/     M anipulation  |                                                 |
\*---------------------------------------------------------------------------*/
FoamFile
{
    version     2.0;
    format      ascii;
    arch        "LSB;label=32;scalar=64";
    class       surfaceScalarField;
    location    "179000";
    object      phi;
}
// * * * * * * * * * * * * * * * * * * * * * * * * * * * * * * * * * * * * * //

dimensions      [0 3 -1 0 0 0 0];

oriented        oriented;

internalField   nonuniform List<scalar> 
5250
(
0.000136204
-1.07188e-06
0.000137149
-9.447e-07
0.000138133
-9.83972e-07
0.000139285
-1.15157e-06
0.000140664
-1.37941e-06
0.00014225
-1.58563e-06
0.000143937
-1.68719e-06
0.000145579
-1.64208e-06
0.000147054
-1.47523e-06
0.00014815
-1.09607e-06
0.000148743
-5.92476e-07
0.000148752
-8.93075e-09
0.000148339
4.12691e-07
0.000147563
7.76058e-07
0.000146535
1.0276e-06
0.000145376
1.15957e-06
0.000144184
1.1918e-06
0.000143016
1.16754e-06
0.000141849
1.16704e-06
0.000140628
1.22179e-06
0.000139304
1.32392e-06
0.000137779
1.52479e-06
0.000135954
1.82529e-06
0.00013375
2.20338e-06
0.000131124
2.62634e-06
0.000128067
3.05639e-06
0.00012464
3.42715e-06
0.0001209
3.7407e-06
0.00011681
4.08927e-06
0.000112372
4.43871e-06
0.000107588
4.78381e-06
0.000102465
5.1228e-06
9.70113e-05
5.45376e-06
9.1238e-05
5.77331e-06
8.51675e-05
6.07049e-06
7.88403e-05
6.32716e-06
7.23145e-05
6.52578e-06
6.56546e-05
6.65993e-06
5.89292e-05
6.72538e-06
5.22099e-05
6.71934e-06
4.55703e-05
6.63958e-06
3.90819e-05
6.4884e-06
3.28087e-05
6.27321e-06
2.6805e-05
6.00365e-06
2.11156e-05
5.68939e-06
1.57744e-05
5.34129e-06
1.08051e-05
4.96922e-06
6.22107e-06
4.58406e-06
2.02018e-06
4.20089e-06
-1.79125e-06
3.81143e-06
-5.20799e-06
3.41674e-06
-8.23494e-06
3.02695e-06
-1.0878e-05
2.64309e-06
-1.31421e-05
2.26407e-06
-1.50299e-05
1.88779e-06
-1.65421e-05
1.51226e-06
-1.76773e-05
1.13514e-06
-1.84311e-05
7.53829e-07
-1.87986e-05
3.67445e-07
-1.87678e-05
-3.08055e-08
-1.83635e-05
-4.04216e-07
-1.75713e-05
-7.92234e-07
-1.63869e-05
-1.18445e-06
-1.48114e-05
-1.57549e-06
-1.28516e-05
-1.95973e-06
-1.05201e-05
-2.33153e-06
-7.83541e-06
-2.6847e-06
-4.82184e-06
-3.01357e-06
-1.51017e-06
-3.31167e-06
2.06317e-06
-3.57334e-06
5.86311e-06
-3.79994e-06
9.84904e-06
-3.98593e-06
1.39758e-05
-4.12672e-06
1.81972e-05
-4.22141e-06
2.24652e-05
-4.26806e-06
2.67358e-05
-4.27055e-06
3.09655e-05
-4.22969e-06
3.51202e-05
-4.15472e-06
3.9166e-05
-4.04585e-06
4.30827e-05
-3.91662e-06
4.68504e-05
-3.76771e-06
5.04685e-05
-3.61817e-06
5.39307e-05
-3.4622e-06
5.72537e-05
-3.32292e-06
6.04271e-05
-3.17341e-06
6.34929e-05
-3.06579e-06
6.63933e-05
-2.90048e-06
6.91977e-05
-2.80433e-06
-2.58675e-06
0.000295714
2.0355e-06
0.000292598
2.17202e-06
0.000289918
1.69584e-06
0.000288032
7.3411e-07
0.000287201
-5.48473e-07
0.000287462
-1.84674e-06
0.000288481
-2.70614e-06
0.000289792
-2.95284e-06
0.000290825
-2.50821e-06
0.00029122
-1.49085e-06
0.000290837
-2.09385e-07
0.000289417
1.41084e-06
0.000286849
2.98073e-06
0.000283295
4.32976e-06
0.000278982
5.34128e-06
0.000274173
5.9682e-06
0.00026913
6.23444e-06
0.000264096
6.20212e-06
0.000259349
5.91362e-06
0.000254838
5.73274e-06
0.000250434
5.72803e-06
0.000246065
5.89437e-06
0.000241682
6.20777e-06
0.000237263
6.62283e-06
0.000232796
7.09252e-06
0.000228265
7.58737e-06
0.000223577
8.11596e-06
0.000218542
8.77519e-06
0.000213078
9.55338e-06
0.000207211
1.03053e-05
0.000200894
1.11012e-05
0.000194088
1.19288e-05
0.000186818
1.27236e-05
0.000179196
1.33957e-05
0.000171381
1.38853e-05
0.000163479
1.42287e-05
0.00015555
1.44551e-05
0.000147662
1.45476e-05
0.000139882
1.45059e-05
0.000132276
1.43254e-05
0.000124929
1.39864e-05
0.000117924
1.34931e-05
0.000111327
1.28706e-05
0.000105186
1.21445e-05
9.95398e-05
1.13358e-05
9.44167e-05
1.04643e-05
8.98365e-05
9.54938e-06
8.58106e-05
8.61001e-06
8.2348e-05
7.66346e-06
7.94348e-05
6.72468e-06
7.70472e-05
5.80433e-06
7.51638e-05
4.91037e-06
7.37635e-05
4.04336e-06
7.28298e-05
3.19775e-06
7.23525e-05
2.36511e-06
7.23248e-05
1.53995e-06
7.27389e-05
7.21047e-07
7.35869e-05
-9.41834e-08
7.48185e-05
-8.64184e-07
7.64442e-05
-1.65645e-06
7.84979e-05
-2.45796e-06
8.097e-05
-3.26429e-06
8.38541e-05
-4.06858e-06
8.71418e-05
-4.8632e-06
9.08194e-05
-5.63727e-06
9.4869e-05
-6.38117e-06
9.92658e-05
-7.08151e-06
0.000103982
-7.72927e-06
0.000108981
-8.31113e-06
0.00011423
-8.82271e-06
0.000119685
-9.25456e-06
0.000125301
-9.60185e-06
0.000131022
-9.8474e-06
0.000136794
-9.99432e-06
0.000142561
-1.00349e-05
0.000148277
-9.98605e-06
0.000153885
-9.83792e-06
0.000159356
-9.62573e-06
0.000164642
-9.33209e-06
0.000169745
-9.0195e-06
0.000174626
-8.64824e-06
0.000179323
-8.31523e-06
0.0001838
-7.93893e-06
0.000188136
-7.65923e-06
0.000192287
-7.32465e-06
0.000196369
-7.14808e-06
0.000200331
-6.86222e-06
0.000204321
-6.79408e-06
-6.53596e-06
0.000487745
3.74836e-06
0.000485539
4.37858e-06
0.000482863
4.37154e-06
0.000479744
3.85277e-06
0.000476074
3.12215e-06
0.000471716
2.51123e-06
0.000466713
2.29654e-06
0.00046112
2.64008e-06
0.000455119
3.49352e-06
0.000448601
5.02628e-06
0.000441408
6.98395e-06
0.000433798
9.02107e-06
0.000426015
1.07633e-05
0.000418439
1.19064e-05
0.000411504
1.22758e-05
0.000405618
1.1854e-05
0.000401065
1.07876e-05
0.000397872
9.3953e-06
0.000395589
8.19622e-06
0.000393919
7.40359e-06
0.000392405
7.24149e-06
0.000390423
7.87598e-06
0.000387433
9.19808e-06
0.000383107
1.09491e-05
0.000377372
1.28275e-05
0.000370391
1.45687e-05
0.000362526
1.59803e-05
0.000354399
1.69024e-05
0.000346483
1.74698e-05
0.000338674
1.81136e-05
0.000330978
1.87979e-05
0.000323425
1.94812e-05
0.000316037
2.01122e-05
0.000308747
2.06849e-05
0.000301363
2.12701e-05
0.000293809
2.17826e-05
0.000286189
2.20748e-05
0.000278537
2.21996e-05
0.000270908
2.2135e-05
0.00026343
2.18035e-05
0.000256284
2.1132e-05
0.000249658
2.0119e-05
0.000243674
1.88549e-05
0.000238385
1.74336e-05
0.00023383
1.58905e-05
0.000230032
1.42628e-05
0.000226988
1.25927e-05
0.000224677
1.09218e-05
0.000223053
9.2868e-06
0.000222062
7.71636e-06
0.000221634
6.23193e-06
0.000221701
4.84346e-06
0.000222213
3.53169e-06
0.000223123
2.28776e-06
0.000224393
1.09487e-06
0.000225985
-5.20006e-08
0.000227826
-1.11979e-06
0.000229909
-2.17789e-06
0.000232274
-3.22856e-06
0.000234903
-4.28533e-06
0.000237798
-5.35334e-06
0.000240967
-6.43385e-06
0.000244418
-7.51905e-06
0.000248156
-8.60163e-06
0.000252181
-9.66149e-06
0.000256488
-1.06889e-05
0.000261063
-1.16563e-05
0.000265892
-1.25583e-05
0.000270944
-1.33631e-05
0.000276195
-1.40737e-05
0.000281596
-1.46554e-05
0.000287117
-1.5123e-05
0.000292703
-1.54332e-05
0.000298328
-1.56193e-05
0.000303913
-1.56198e-05
0.000309432
-1.55054e-05
0.000314789
-1.5195e-05
0.000319976
-1.48129e-05
0.000324906
-1.42617e-05
0.000329604
-1.37175e-05
0.000334011
-1.30557e-05
0.000338193
-1.24966e-05
0.000342129
-1.18749e-05
0.000345897
-1.14277e-05
0.000349543
-1.09707e-05
0.000353092
-1.06973e-05
0.000356716
-1.04855e-05
0.000360282
-1.03604e-05
-1.03892e-05
0.000596105
-7.55616e-06
0.00060768
-7.19663e-06
0.000618769
-6.71771e-06
0.000628643
-6.02069e-06
0.00063672
-4.95523e-06
0.000642635
-3.40333e-06
0.000646234
-1.30277e-06
0.000647676
1.19821e-06
0.000646747
4.42267e-06
0.000643642
8.13098e-06
0.000638547
1.20784e-05
0.000631694
1.58745e-05
0.000623364
1.90937e-05
0.00061384
2.14297e-05
0.000603401
2.27147e-05
0.000592374
2.28815e-05
0.000581181
2.19806e-05
0.000570319
2.02572e-05
0.000560354
1.81618e-05
0.000551104
1.66533e-05
0.000542253
1.6092e-05
0.000533737
1.63927e-05
0.000525668
1.7267e-05
0.000518288
1.83284e-05
0.000511933
1.91831e-05
0.000506977
1.95245e-05
0.000503674
1.92838e-05
0.000501747
1.88287e-05
0.00050042
1.87972e-05
0.00049927
1.92636e-05
0.000497327
2.07403e-05
0.000493587
2.3222e-05
0.000487469
2.62303e-05
0.000479104
2.905e-05
0.000469404
3.09692e-05
0.000459453
3.17346e-05
0.000449659
3.18686e-05
0.00044037
3.1488e-05
0.000431894
3.06112e-05
0.000424444
2.92538e-05
0.000418072
2.7504e-05
0.000412652
2.55388e-05
0.00040803
2.34768e-05
0.000404201
2.12626e-05
0.000401148
1.89436e-05
0.000398862
1.65484e-05
0.000397353
1.41024e-05
0.000396612
1.16623e-05
0.000396604
9.29496e-06
0.000397261
7.05916e-06
0.000398498
4.99559e-06
0.000400208
3.1335e-06
0.000402269
1.47032e-06
0.000404567
-1.00806e-08
0.000407047
-1.38543e-06
0.000409612
-2.61717e-06
0.000412253
-3.76079e-06
0.00041493
-4.85504e-06
0.000417636
-5.93442e-06
0.000420379
-7.02794e-06
0.000423174
-8.14832e-06
0.000426051
-9.31146e-06
0.000429031
-1.04984e-05
0.000432148
-1.17189e-05
0.000435409
-1.29223e-05
0.000438848
-1.41276e-05
0.000442451
-1.52599e-05
0.000446251
-1.63581e-05
0.000450219
-1.7331e-05
0.000454379
-1.8234e-05
0.000458692
-1.89681e-05
0.00046317
-1.9601e-05
0.000467763
-2.00263e-05
0.000472465
-2.03217e-05
0.000477195
-2.03495e-05
0.000481926
-2.02359e-05
0.000486546
-1.98158e-05
0.00049102
-1.92862e-05
0.00049524
-1.84818e-05
0.000499181
-1.76589e-05
0.000502804
-1.66783e-05
0.000506095
-1.57878e-05
0.000509149
-1.49291e-05
0.000511911
-1.41892e-05
0.00051467
-1.37298e-05
0.000517224
-1.3251e-05
0.000520071
-1.33333e-05
0.000522817
-1.31059e-05
-1.36738e-05
0.000566632
-2.27324e-05
0.000583118
-2.36827e-05
0.000600453
-2.40524e-05
0.000618227
-2.37947e-05
0.000636115
-2.28434e-05
0.000653858
-2.11459e-05
0.000671241
-1.86856e-05
0.00068793
-1.54909e-05
0.000703961
-1.16082e-05
0.000719229
-7.13734e-06
0.000733511
-2.20313e-06
0.000746715
2.67041e-06
0.000758559
7.24935e-06
0.000768626
1.13627e-05
0.000776448
1.48929e-05
0.000781611
1.77179e-05
0.000783819
1.9773e-05
0.00078283
2.12463e-05
0.000778281
2.27106e-05
0.000770445
2.44891e-05
0.000760074
2.64632e-05
0.000747857
2.86096e-05
0.000734417
3.07073e-05
0.000720215
3.25298e-05
0.000705536
3.38625e-05
0.00069059
3.447e-05
0.000675749
3.41248e-05
0.000661833
3.27449e-05
0.000649127
3.1503e-05
0.000636904
3.14869e-05
0.000624747
3.28978e-05
0.00061275
3.52182e-05
0.000601591
3.739e-05
0.000592184
3.84565e-05
0.000584954
3.81997e-05
0.000579269
3.74194e-05
0.000574588
3.65489e-05
0.000569811
3.6265e-05
0.00056364
3.67829e-05
0.000555672
3.72212e-05
0.000546689
3.64874e-05
0.000538131
3.40971e-05
0.00053094
3.06671e-05
0.000525393
2.68099e-05
0.00052173
2.26066e-05
0.000520102
1.81766e-05
0.000520479
1.37253e-05
0.000522655
9.48585e-06
0.000526325
5.62492e-06
0.000531136
2.24846e-06
0.000536838
-7.05846e-07
0.000543137
-3.16631e-06
0.000549721
-5.11323e-06
0.000556301
-6.58996e-06
0.000562582
-7.66658e-06
0.000568378
-8.4129e-06
0.000573544
-8.92744e-06
0.000578009
-9.31952e-06
0.000581751
-9.67698e-06
0.000584826
-1.01021e-05
0.000587294
-1.06169e-05
0.000589284
-1.13011e-05
0.000590878
-1.20924e-05
0.000592219
-1.30603e-05
0.000593364
-1.40674e-05
0.00059444
-1.52034e-05
0.000595465
-1.62852e-05
0.000596542
-1.74351e-05
0.000597669
-1.84576e-05
0.000598923
-1.94878e-05
0.000600306
-2.03512e-05
0.00060187
-2.11655e-05
0.000603625
-2.17805e-05
0.000605579
-2.22762e-05
0.000607716
-2.24865e-05
0.00060996
-2.24801e-05
0.000612237
-2.20921e-05
0.000614385
-2.14343e-05
0.000616325
-2.04219e-05
0.000617882
-1.92162e-05
0.000619107
-1.79037e-05
0.000619847
-1.65271e-05
0.000620417
-1.54989e-05
0.000620569
-1.43415e-05
0.000620986
-1.41473e-05
0.000621127
-1.33916e-05
0.000622128
-1.43341e-05
0.000622969
-1.39474e-05
-1.58044e-05
0.000510851
-4.17379e-05
0.000530879
-4.37105e-05
0.000551504
-4.46775e-05
0.000572366
-4.46571e-05
0.000593182
-4.36599e-05
0.000613745
-4.17085e-05
0.000633912
-3.88528e-05
0.000653594
-3.51729e-05
0.000672759
-3.07735e-05
0.000691438
-2.58164e-05
0.000709811
-2.05754e-05
0.000727855
-1.53739e-05
0.000745537
-1.04322e-05
0.00076283
-5.93059e-06
0.000779734
-2.01146e-06
0.000796055
1.3971e-06
0.000811606
4.22173e-06
0.000826399
6.4533e-06
0.000840838
8.27219e-06
0.000855317
1.00098e-05
0.000869762
1.20182e-05
0.000884051
1.43211e-05
0.000897835
1.69226e-05
0.000910494
1.9871e-05
0.000921126
2.32309e-05
0.000928606
2.69903e-05
0.000931562
3.11681e-05
0.00092821
3.60968e-05
0.000917626
4.2087e-05
0.000900485
4.86284e-05
0.000877861
5.55219e-05
0.000851033
6.20463e-05
0.000821249
6.71733e-05
0.000789971
6.97353e-05
0.000759394
6.87761e-05
0.000731646
6.51678e-05
0.000706337
6.18577e-05
0.0006826
6.00021e-05
0.000660724
5.86584e-05
0.000642249
5.56961e-05
0.000628529
5.02074e-05
0.000619099
4.35278e-05
0.000612751
3.70146e-05
0.000607849
3.17118e-05
0.000603268
2.71879e-05
0.000599158
2.22864e-05
0.000596339
1.65442e-05
0.000595549
1.02761e-05
0.000597165
4.00919e-06
0.000601258
-1.84511e-06
0.000607502
-6.94901e-06
0.000615478
-1.11428e-05
0.000624709
-1.43441e-05
0.00063464
-1.65208e-05
0.000644697
-1.77243e-05
0.000654371
-1.80864e-05
0.000663214
-1.77702e-05
0.000670926
-1.70316e-05
0.000677286
-1.60367e-05
0.000682254
-1.50704e-05
0.000685828
-1.41913e-05
0.000688172
-1.36451e-05
0.000689414
-1.33341e-05
0.000689799
-1.34455e-05
0.000689486
-1.37537e-05
0.000688693
-1.44103e-05
0.000687548
-1.51403e-05
0.000686194
-1.60814e-05
0.000684727
-1.69903e-05
0.000683217
-1.79778e-05
0.00068175
-1.88845e-05
0.000680338
-1.97537e-05
0.000679059
-2.05017e-05
0.000677841
-2.10579e-05
0.000676695
-2.13404e-05
0.000675403
-2.11886e-05
0.000673877
-2.05658e-05
0.000671811
-1.93685e-05
0.000669149
-1.77599e-05
0.00066562
-1.5687e-05
0.000661344
-1.36274e-05
0.000656115
-1.12979e-05
0.000650426
-9.81047e-06
0.000644034
-7.94913e-06
0.000638123
-8.23652e-06
0.000632003
-7.27196e-06
0.000627857
-1.01882e-05
0.000623762
-9.85239e-06
-1.52339e-05
0.00049694
-6.33307e-05
0.000518863
-6.56333e-05
0.000540846
-6.6661e-05
0.000562664
-6.64753e-05
0.000584097
-6.50923e-05
0.000604894
-6.25058e-05
0.000624783
-5.87412e-05
0.000643515
-5.39052e-05
0.000660959
-4.8218e-05
0.000677152
-4.20086e-05
0.000692248
-3.56719e-05
0.000706468
-2.95938e-05
0.000720112
-2.40767e-05
0.0007335
-1.93181e-05
0.000746915
-1.5427e-05
0.000760754
-1.24411e-05
0.000775315
-1.03395e-05
0.000790799
-9.03138e-06
0.000807402
-8.3302e-06
0.000825379
-7.96767e-06
0.000845094
-7.69618e-06
0.000866746
-7.33095e-06
0.000890278
-6.60934e-06
0.000915427
-5.27811e-06
0.000941745
-3.08724e-06
0.000968531
2.03906e-07
0.000994571
5.12806e-06
0.00101934
1.13309e-05
0.00104267
1.87543e-05
0.00106367
2.76284e-05
0.00108143
3.77644e-05
0.00109482
4.86494e-05
0.0011022
5.97998e-05
0.00110124
7.06947e-05
0.00108921
8.08022e-05
0.00106446
8.99244e-05
0.00102871
9.76016e-05
0.000984783
0.000103931
0.000935737
0.000107704
0.000885192
0.000106241
0.000837042
9.83571e-05
0.000794014
8.65561e-05
0.000755653
7.53753e-05
0.000721838
6.5527e-05
0.000694368
5.46573e-05
0.000674892
4.17625e-05
0.000662916
2.85203e-05
0.000656703
1.64894e-05
0.000654472
6.23978e-06
0.000654874
-2.24737e-06
0.000657352
-9.42635e-06
0.000662048
-1.58388e-05
0.000668827
-2.11237e-05
0.000677296
-2.49895e-05
0.00068683
-2.72579e-05
0.000696737
-2.79935e-05
0.000706296
-2.73292e-05
0.000714943
-2.56788e-05
0.000722217
-2.33105e-05
0.000727902
-2.07553e-05
0.000731896
-1.81862e-05
0.000734312
-1.60604e-05
0.000735321
-1.43435e-05
0.000735205
-1.33297e-05
0.00073424
-1.27886e-05
0.000732673
-1.2843e-05
0.000730712
-1.31799e-05
0.000728457
-1.38263e-05
0.000726031
-1.45642e-05
0.000723435
-1.53815e-05
0.000720772
-1.62213e-05
0.000717986
-1.69679e-05
0.000715137
-1.76527e-05
0.000712057
-1.79782e-05
0.000708689
-1.79719e-05
0.000704685
-1.71846e-05
0.000699742
-1.56229e-05
0.000693265
-1.28923e-05
0.000684808
-9.30268e-06
0.000674008
-4.88644e-06
0.000661005
-6.24287e-07
0.000646514
3.19237e-06
0.000631466
5.23744e-06
0.00061658
6.93778e-06
0.000603378
4.96475e-06
0.000591599
4.507e-06
0.000583706
-2.29476e-06
0.000577206
-3.35253e-06
-1.49721e-05
0.000517407
-8.78848e-05
0.000542221
-9.04474e-05
0.000567029
-9.14689e-05
0.000591672
-9.11176e-05
0.000616026
-8.9447e-05
0.0006399
-8.63798e-05
0.000662926
-8.17673e-05
0.00068453
-7.55087e-05
0.000704004
-6.76917e-05
0.000720682
-5.86873e-05
0.000734154
-4.91438e-05
0.000744423
-3.98626e-05
0.00075196
-3.16142e-05
0.000757618
-2.49761e-05
0.000762444
-2.02522e-05
0.000767482
-1.74796e-05
0.000773657
-1.65144e-05
0.000781731
-1.71049e-05
0.000792325
-1.89242e-05
0.000805935
-2.15785e-05
0.000822877
-2.46376e-05
0.000843224
-2.76777e-05
0.000866895
-3.02806e-05
0.000893588
-3.19714e-05
0.000922763
-3.22623e-05
0.000953792
-3.08253e-05
0.000986364
-2.7444e-05
0.00101976
-2.20692e-05
0.00105321
-1.46907e-05
0.00108613
-5.28764e-06
0.00111816
5.72824e-06
0.00114846
1.83485e-05
0.00117635
3.19111e-05
0.00120075
4.62948e-05
0.00122045
6.10988e-05
0.00123509
7.52896e-05
0.00124439
8.82961e-05
0.00124755
0.000100776
0.00124276
0.000112498
0.00122735
0.000121643
0.00119891
0.000126804
0.00115618
0.000129288
0.00110126
0.00013029
0.00103969
0.000127094
0.000977419
0.000116931
0.000918703
0.000100479
0.000865825
8.13982e-05
0.000819979
6.23354e-05
0.000782756
4.34622e-05
0.000755491
2.50176e-05
0.000737891
8.17417e-06
0.000728101
-6.04854e-06
0.000724114
-1.71374e-05
0.000724385
-2.52596e-05
0.000727692
-3.05653e-05
0.00073293
-3.32311e-05
0.000739029
-3.34284e-05
0.000745086
-3.17358e-05
0.000750362
-2.85866e-05
0.0007544
-2.47935e-05
0.00075699
-2.0776e-05
0.000758166
-1.72363e-05
0.000758153
-1.43306e-05
0.000757262
-1.24381e-05
0.000755846
-1.13726e-05
0.000754126
-1.11235e-05
0.000752257
-1.13103e-05
0.000750171
-1.17408e-05
0.000747862
-1.22554e-05
0.000745247
-1.2766e-05
0.000742497
-1.34711e-05
0.000739666
-1.41369e-05
0.000736818
-1.48052e-05
0.000733492
-1.46517e-05
0.000728882
-1.33621e-05
0.000721778
-1.00808e-05
0.000711054
-4.89879e-06
0.000696325
1.8366e-06
0.000677675
9.34708e-06
0.000656266
1.65233e-05
0.000633492
2.21494e-05
0.000611099
2.55852e-05
0.000590611
2.57252e-05
0.000573164
2.43852e-05
0.000559999
1.81297e-05
0.000550392
1.41134e-05
0.00054643
1.66786e-06
0.000544708
-1.63045e-06
-1.98775e-05
0.000500486
-0.000114245
0.000527416
-0.000117377
0.000554397
-0.000118449
0.000581203
-0.000117923
0.000607909
-0.000116153
0.000634762
-0.000113233
0.000661952
-0.000108958
0.000689378
-0.000102935
0.000716501
-9.48151e-05
0.000742363
-8.45483e-05
0.000765772
-7.25531e-05
0.000785623
-5.97134e-05
0.000801212
-4.72038e-05
0.000812456
-3.62202e-05
0.000819931
-2.77269e-05
0.000824754
-2.23019e-05
0.000828335
-2.00962e-05
0.000832146
-2.09153e-05
0.000837536
-2.43148e-05
0.0008456
-2.96425e-05
0.000857083
-3.61198e-05
0.000872318
-4.29135e-05
0.00089124
-4.92024e-05
0.000913521
-5.42526e-05
0.00093873
-5.74707e-05
0.000966339
-5.84345e-05
0.000995816
-5.6921e-05
0.00102667
-5.29189e-05
0.00105851
-4.65303e-05
0.00109109
-3.78687e-05
0.00112394
-2.7122e-05
0.00115691
-1.46252e-05
0.00118963
-8.13326e-07
0.00122174
1.41939e-05
0.00125266
3.01736e-05
0.00128118
4.67732e-05
0.00130594
6.35336e-05
0.00132629
8.04228e-05
0.00134167
9.7123e-05
0.00135087
0.000112443
0.00135263
0.000125042
0.00134699
0.000134926
0.00133458
0.000142699
0.00131418
0.000147498
0.00128308
0.000148029
0.00123895
0.00014461
0.0011826
0.000137752
0.00111851
0.000126423
0.00105244
0.000109537
0.000989419
8.8034e-05
0.000933207
6.43855e-05
0.000886225
4.09338e-05
0.000849589
1.94987e-05
0.000822897
1.43254e-06
0.00080534
-1.30084e-05
0.000794629
-2.25201e-05
0.000788721
-2.752e-05
0.00078579
-2.88058e-05
0.000784344
-2.714e-05
0.000783312
-2.3762e-05
0.000782072
-1.9536e-05
0.000780378
-1.55423e-05
0.00077831
-1.22623e-05
0.000776055
-1.01827e-05
0.000773884
-9.2025e-06
0.000771894
-9.13306e-06
0.000770188
-9.60447e-06
0.000768649
-1.02021e-05
0.000767347
-1.09527e-05
0.000766174
-1.15931e-05
0.000765137
-1.2434e-05
0.00076372
-1.27201e-05
0.00076099
-1.20751e-05
0.000755451
-9.11266e-06
0.000745413
-3.32438e-06
0.000730049
5.28308e-06
0.000709022
1.61285e-05
0.000683881
2.69776e-05
0.000656403
3.68249e-05
0.000629638
4.32881e-05
0.00060516
4.66275e-05
0.000584746
4.59996e-05
0.000568864
4.16073e-05
0.000557448
3.58013e-05
0.00055102
2.45574e-05
0.000547764
1.73693e-05
0.000549637
-2.05055e-07
0.000553208
-5.2012e-06
-2.90105e-05
0.00047987
-0.000141971
0.000508516
-0.000146024
0.000536985
-0.000146919
0.000564399
-0.000145337
0.000590354
-0.000142108
0.00061502
-0.000137899
0.000639
-0.000132938
0.000663007
-0.000126942
0.000687501
-0.000119309
0.000712443
-0.000109491
0.000737264
-9.73736e-05
0.000761018
-8.34671e-05
0.000782669
-6.88552e-05
0.000801405
-5.49567e-05
0.000816887
-4.32086e-05
0.000829371
-3.4786e-05
0.00083969
-3.04153e-05
0.000849065
-3.02903e-05
0.000858826
-3.4075e-05
0.000870173
-4.09903e-05
0.000884008
-4.99548e-05
0.000900829
-5.97346e-05
0.000920725
-6.9098e-05
0.000943451
-7.69785e-05
0.000968555
-8.25751e-05
0.000995508
-8.53874e-05
0.00102379
-8.51983e-05
0.00105289
-8.20225e-05
0.00108238
-7.60233e-05
0.00111196
-6.74429e-05
0.0011414
-5.65654e-05
0.00117054
-4.37621e-05
0.00119916
-2.9439e-05
0.00122717
-1.38152e-05
0.0012542
3.14228e-06
0.00128008
2.08941e-05
0.00130476
3.88573e-05
0.00132829
5.68937e-05
0.00135055
7.48605e-05
0.00137082
9.21739e-05
0.00138758
0.000108282
0.00139917
0.000123331
0.00140449
0.000137384
0.00140248
0.000149504
0.00139208
0.000158427
0.00137315
0.000163545
0.00134615
0.000164748
0.00131074
0.000161841
0.00126575
0.000154519
0.00121133
0.000142461
0.00115017
0.000125537
0.00108699
0.000104123
0.00102672
7.97663e-05
0.000973405
5.47455e-05
0.000928724
3.1672e-05
0.000893587
1.26173e-05
0.00086735
-1.28323e-06
0.000848481
-9.93719e-06
0.000834943
-1.36011e-05
0.000824888
-1.37076e-05
0.000816928
-1.15755e-05
0.000810175
-8.78982e-06
0.000804331
-6.41777e-06
0.000799375
-5.22684e-06
0.000795588
-5.41607e-06
0.000793092
-6.63681e-06
0.000792086
-8.59805e-06
0.000792367
-1.04834e-05
0.000793691
-1.22767e-05
0.000795221
-1.31228e-05
0.000795708
-1.29212e-05
0.00079342
-1.04322e-05
0.000786284
-4.93925e-06
0.000773146
4.02501e-06
0.000753337
1.64856e-05
0.000728449
3.01703e-05
0.000700208
4.43701e-05
0.000671891
5.52943e-05
0.000645184
6.35323e-05
0.000622231
6.6241e-05
0.000603323
6.55355e-05
0.000588913
6.0409e-05
0.000578645
5.18758e-05
0.000571591
4.28549e-05
0.000568428
2.7721e-05
0.00056683
1.89671e-05
0.000569526
-2.90167e-06
0.000572675
-8.34945e-06
-3.76059e-05
0.000479906
-0.000168743
0.000508985
-0.000175102
0.000539132
-0.000177066
0.000568813
-0.000175017
0.000596584
-0.00016988
0.000621554
-0.000162869
0.000643638
-0.000155021
0.000663463
-0.000146767
0.000681978
-0.000137824
0.000699994
-0.000127507
0.000717889
-0.000115268
0.000735575
-0.000101154
0.000752682
-8.5962e-05
0.00076881
-7.10853e-05
0.00078376
-5.81578e-05
0.00079765
-4.86763e-05
0.000810933
-4.36984e-05
0.000824304
-4.36611e-05
0.000838555
-4.83262e-05
0.000854407
-5.68419e-05
0.000872352
-6.79004e-05
0.000892586
-7.99682e-05
0.000915025
-9.15376e-05
0.000939381
-0.000101334
0.000965249
-0.000108444
0.000992203
-0.000112341
0.00101985
-0.000112842
0.00104784
-0.000110017
0.00107591
-0.000104097
0.00110386
-9.53878e-05
0.00113151
-8.42218e-05
0.0011587
-7.09442e-05
0.00118517
-5.59148e-05
0.00121082
-3.94595e-05
0.00123585
-2.18926e-05
0.00126032
-3.57508e-06
0.00128341
1.5766e-05
0.00130526
3.50443e-05
0.00132578
5.43383e-05
0.00134456
7.33966e-05
0.00136095
9.18908e-05
0.00137466
0.000109622
0.00138564
0.000126403
0.00139333
0.000141815
0.00139638
0.000155375
0.00139324
0.000166692
0.00138266
0.000175328
0.00136396
0.000180534
0.00133693
0.000181552
0.00130165
0.000177745
0.0012584
0.000168783
0.00120814
0.000154384
0.00115308
0.000134829
0.00109664
0.00011118
0.00104259
8.57218e-05
0.000994161
6.10487e-05
0.000953197
3.96805e-05
0.000920119
2.31415e-05
0.000894277
1.22405e-05
0.000874126
6.44331e-06
0.000858091
4.45937e-06
0.000845006
4.29505e-06
0.000834498
4.09057e-06
0.000826592
2.67868e-06
0.00082166
-4.83248e-07
0.000819741
-4.71837e-06
0.000820655
-9.5117e-06
0.000823445
-1.32739e-05
0.000826613
-1.54445e-05
0.000828141
-1.46507e-05
0.000825666
-1.04461e-05
0.000817584
-2.35008e-06
0.000802414
1.02301e-05
0.0007813
2.51392e-05
0.000755395
4.2391e-05
0.000727723
5.78424e-05
0.000700205
7.18877e-05
0.000675169
8.03299e-05
0.00065335
8.53513e-05
0.000635546
8.40454e-05
0.000621102
7.99793e-05
0.000609804
7.17074e-05
0.000601175
6.05043e-05
0.000594023
5.00074e-05
0.000589463
3.22805e-05
0.000585357
2.30735e-05
0.00058476
-2.30438e-06
0.000584087
-7.67635e-06
-4.2605e-05
0.00049099
-0.000191106
0.000516429
-0.000200542
0.00054443
-0.000205066
0.000573847
-0.000204435
0.000602996
-0.000199029
0.000630114
-0.000189986
0.000654007
-0.000178915
0.000674461
-0.00016722
0.000692139
-0.000155502
0.000708083
-0.000143451
0.000723162
-0.000130346
0.000737781
-0.000115773
0.00075194
-0.000100121
0.000765477
-8.46221e-05
0.000778319
-7.10001e-05
0.000790625
-6.09814e-05
0.000802787
-5.58608e-05
0.000815354
-5.62285e-05
0.000828903
-6.1875e-05
0.000843916
-7.18546e-05
0.000860693
-8.46772e-05
0.000879312
-9.8588e-05
0.000899644
-0.000111869
0.000921411
-0.000123101
0.000944273
-0.000131306
0.000967907
-0.000135974
0.000992053
-0.000136988
0.00101653
-0.000134493
0.00104121
-0.000128775
0.00106598
-0.000120164
0.00109077
-0.000109004
0.00111544
-9.56168e-05
0.00113982
-8.02997e-05
0.00116371
-6.3345e-05
0.00118687
-4.50497e-05
0.00120905
-2.57612e-05
0.00123068
-5.85799e-06
0.00125074
1.49774e-05
0.00126937
3.57129e-05
0.00128652
5.62442e-05
0.00130209
7.63156e-05
0.00131596
9.57554e-05
0.00132788
0.000114482
0.00133734
0.000132353
0.00134358
0.000149136
0.00134586
0.000164416
0.0013435
0.000177686
0.00133577
0.000188268
0.0013218
0.00019552
0.00130087
0.000198678
0.00127267
0.000196985
0.00123749
0.000189564
0.00119624
0.000176079
0.0011505
0.000156915
0.00110266
0.000133561
0.00105568
0.000108033
0.0010124
8.29594e-05
0.00097467
6.08708e-05
0.00094299
4.39203e-05
0.000916731
3.27026e-05
0.000895048
2.61421e-05
0.000877351
2.19925e-05
0.0008637
1.77415e-05
0.000854296
1.20829e-05
0.000849317
4.49546e-06
0.000848175
-3.57615e-06
0.000849608
-1.09449e-05
0.000851755
-1.54205e-05
0.000852174
-1.58641e-05
0.00084897
-1.1446e-05
0.000840225
-1.70185e-06
0.000825567
1.23079e-05
0.000805508
3.02892e-05
0.000782041
4.8607e-05
0.000756868
6.7563e-05
0.000732344
8.23674e-05
0.000709746
9.44856e-05
0.000690329
9.97461e-05
0.000673667
0.000102014
0.000660159
9.75532e-05
0.00064864
9.14982e-05
0.00063866
8.16871e-05
0.000630206
6.89583e-05
0.000622134
5.80795e-05
0.000616128
3.82861e-05
0.000610033
2.91691e-05
0.000607488
2.40648e-07
0.000604826
-5.01403e-06
-4.43376e-05
0.000534469
-0.000209426
0.000555017
-0.00022109
0.000577763
-0.000227812
0.000602436
-0.000229108
0.000628135
-0.000224728
0.00065325
-0.000215101
0.000675981
-0.000201646
0.000695214
-0.000186454
0.000711077
-0.000171365
0.000724724
-0.000157098
0.000737558
-0.000143181
0.000750488
-0.000128703
0.000763651
-0.000113285
0.00077663
-9.76008e-05
0.000788882
-8.32522e-05
0.000800098
-7.21975e-05
0.00081035
-6.6112e-05
0.000820048
-6.59268e-05
0.000829804
-7.16316e-05
0.000840259
-8.23088e-05
0.000851929
-9.63475e-05
0.000865113
-0.000111772
0.000879863
-0.00012662
0.000896027
-0.000139264
0.000913343
-0.000148622
0.000931537
-0.000154169
0.000950393
-0.000155844
0.000969765
-0.000153864
0.000989558
-0.000148568
0.00100971
-0.000140318
0.00103015
-0.000129442
0.00105077
-0.000116236
0.00107146
-0.000100994
0.0010921
-8.39819e-05
0.00111251
-6.54577e-05
0.00113247
-4.57181e-05
0.00115171
-2.51042e-05
0.00117057
-3.88291e-06
0.00118802
1.82639e-05
0.00120417
4.00974e-05
0.00121882
6.16685e-05
0.00123176
8.28123e-05
0.00124283
0.000103411
0.0012519
0.000123282
0.00125881
0.000142227
0.00126323
0.00015999
0.00126463
0.000176294
0.00126231
0.000190586
0.00125564
0.000202185
0.00124411
0.000210212
0.00122727
0.000213829
0.00120484
0.000211989
0.00117696
0.000203961
0.00114439
0.000189483
0.0011086
0.000169352
0.00107155
0.000145078
0.0010353
0.000119214
0.00100137
9.47988e-05
0.000970669
7.46235e-05
0.000943502
5.98693e-05
0.000920175
4.94697e-05
0.000901026
4.11408e-05
0.000886581
3.21865e-05
0.000876915
2.17489e-05
0.000871493
9.9178e-06
0.000869053
-1.13634e-06
0.000867636
-9.52741e-06
0.00086538
-1.31644e-05
0.000860253
-1.07377e-05
0.000851478
-2.6709e-06
0.000838088
1.16883e-05
0.000821394
2.90016e-05
0.000802054
4.96291e-05
0.000781879
6.87824e-05
0.000762102
8.73397e-05
0.000744248
0.000100222
0.000728352
0.000110381
0.000715327
0.000112772
0.000703924
0.000113417
0.00069431
0.000107167
0.000685735
0.000100074
0.000677628
8.9794e-05
0.000670647
7.59388e-05
0.000663509
6.52175e-05
0.000658603
4.31921e-05
0.00065326
3.45124e-05
0.000650618
2.88251e-06
0.000648011
-2.40647e-06
-4.37374e-05
0.000604001
-0.00022429
0.000620838
-0.000237927
0.000639181
-0.000246156
0.000658796
-0.000248722
0.000679524
-0.000245456
0.000700692
-0.00023627
0.000720726
-0.00022168
0.00073767
-0.000203397
0.000750389
-0.000184085
0.000759388
-0.000166097
0.000766475
-0.000150267
0.000773632
-0.00013586
0.000781965
-0.000121618
0.000791385
-0.000107021
0.000801004
-9.28707e-05
0.000809785
-8.09786e-05
0.000817092
-7.34192e-05
0.000822876
-7.17111e-05
0.000827625
-7.638e-05
0.000832114
-8.67983e-05
0.000837164
-0.000101397
0.000843409
-0.000118017
0.000851186
-0.000134397
0.000860551
-0.000148629
0.000871338
-0.000159409
0.000883317
-0.000166148
0.000896252
-0.000168779
0.000909995
-0.000167608
0.000924445
-0.000163018
0.000939544
-0.000155417
0.000955226
-0.000145124
0.000971413
-0.000132424
0.000987991
-0.000117571
0.00100483
-0.000100826
0.00102179
-8.24119e-05
0.0010387
-6.26341e-05
0.00105529
-4.16862e-05
0.00107138
-1.99718e-05
0.00108704
2.60434e-06
0.00110167
2.5462e-05
0.00111514
4.81955e-05
0.00112729
7.06619e-05
0.00113801
9.26909e-05
0.00114719
0.000114104
0.00115463
0.000134792
0.00116006
0.000154555
0.00116328
0.000173074
0.0011641
0.000189773
0.00116218
0.000204103
0.00115705