/*--------------------------------*- C++ -*----------------------------------*\
| =========                 |                                                 |
| \\      /  F ield         | OpenFOAM: The Open Source CFD Toolbox           |
|  \\    /   O peration     | Version:  2312                                  |
|   \\  /    A nd           | Website:  www.openfoam.com                      |
|    \\/     M anipulation  |                                                 |
\*---------------------------------------------------------------------------*/
FoamFile
{
    version     2.0;
    format      ascii;
    arch        "LSB;label=32;scalar=64";
    class       volVectorField;
    location    "58000";
    object      U;
}
// * * * * * * * * * * * * * * * * * * * * * * * * * * * * * * * * * * * * * //

dimensions      [0 1 -1 0 0 0 0];

internalField   nonuniform List<vector> 
2685
(
(0.000207551 -7.83e-07 0)
(0.000210564 -6.50125e-07 0)
(0.000213329 -5.33936e-07 0)
(0.000215862 -4.33468e-07 0)
(0.000218178 -3.47617e-07 0)
(0.000220294 -2.75186e-07 0)
(0.000222224 -2.14907e-07 0)
(0.000223983 -1.6548e-07 0)
(0.000225586 -1.25592e-07 0)
(0.000227044 -9.3951e-08 0)
(0.00022837 -6.93051e-08 0)
(0.000229575 -5.04668e-08 0)
(0.00023067 -3.63326e-08 0)
(0.000231665 -2.58996e-08 0)
(0.000232568 -1.82795e-08 0)
(0.000233389 -1.2709e-08 0)
(0.000234135 -8.55648e-09 0)
(0.000234814 -5.32376e-09 0)
(0.000235431 -2.64259e-09 0)
(0.000235993 -2.66933e-10 0)
(0.000236505 1.93881e-09 0)
(0.000236973 4.01414e-09 0)
(0.000237401 5.91815e-09 0)
(0.000237794 7.54627e-09 0)
(0.000238157 8.74759e-09 0)
(0.000238493 9.34307e-09 0)
(0.000238806 9.14454e-09 0)
(0.000239099 7.97397e-09 0)
(0.000239376 5.68241e-09 0)
(0.00023964 2.16725e-09 0)
(0.000239893 -2.614e-09 0)
(0.000240138 -8.63517e-09 0)
(0.000240377 -1.57999e-08 0)
(0.00024061 -2.3949e-08 0)
(0.00024084 -3.28763e-08 0)
(0.000241068 -4.2351e-08 0)
(0.000241295 -5.21391e-08 0)
(0.000241521 -6.20186e-08 0)
(0.000241747 -7.17873e-08 0)
(0.000241975 -8.12624e-08 0)
(0.000242202 -9.02783e-08 0)
(0.000242431 -9.86824e-08 0)
(0.00024266 -1.06333e-07 0)
(0.00024289 -1.13104e-07 0)
(0.00024312 -1.18886e-07 0)
(0.00024335 -1.23601e-07 0)
(0.000243578 -1.27205e-07 0)
(0.000243803 -1.29688e-07 0)
(0.000244026 -1.31078e-07 0)
(0.000244244 -1.31436e-07 0)
(0.000244455 -1.30848e-07 0)
(0.00024466 -1.29421e-07 0)
(0.000244856 -1.27275e-07 0)
(0.000245042 -1.24534e-07 0)
(0.000245218 -1.21318e-07 0)
(0.000245382 -1.17736e-07 0)
(0.000245535 -1.13878e-07 0)
(0.000245675 -1.0981e-07 0)
(0.000245803 -1.05575e-07 0)
(0.000245918 -1.01197e-07 0)
(0.000246022 -9.66865e-08 0)
(0.000246114 -9.20574e-08 0)
(0.000246195 -8.73319e-08 0)
(0.000246265 -8.25468e-08 0)
(0.000246324 -7.77543e-08 0)
(0.000246374 -7.30182e-08 0)
(0.000246414 -6.84119e-08 0)
(0.000246446 -6.40078e-08 0)
(0.00024647 -5.98713e-08 0)
(0.000246487 -5.60362e-08 0)
(0.000246498 -5.24972e-08 0)
(0.000246503 -4.91822e-08 0)
(0.000246504 -4.59434e-08 0)
(0.000246501 -4.26452e-08 0)
(0.000246494 -3.92381e-08 0)
(0.000246484 -3.55746e-08 0)
(0.000246472 -3.15234e-08 0)
(0.000246457 -2.70751e-08 0)
(0.00024644 -2.22291e-08 0)
(0.000246422 -1.70992e-08 0)
(0.000246402 -1.17665e-08 0)
(0.000246382 -6.51168e-09 0)
(0.000246361 -1.40075e-09 0)
(0.000246342 3.15152e-09 0)
(0.000246323 7.22176e-09 0)
(0.000246307 1.03e-08 0)
(0.000246291 1.25274e-08 0)
(0.000246281 1.38789e-08 0)
(0.000246268 1.29255e-08 0)
(0.00054184 -1.27204e-05 0)
(0.000547539 -1.17472e-05 0)
(0.000552944 -1.0829e-05 0)
(0.000558069 -9.96554e-06 0)
(0.000562923 -9.15601e-06 0)
(0.000567518 -8.39928e-06 0)
(0.000571866 -7.69388e-06 0)
(0.000575978 -7.03807e-06 0)
(0.000579863 -6.42994e-06 0)
(0.000583533 -5.86745e-06 0)
(0.000586997 -5.3485e-06 0)
(0.000590264 -4.87095e-06 0)
(0.000593345 -4.43264e-06 0)
(0.000596248 -4.03143e-06 0)
(0.000598981 -3.66519e-06 0)
(0.000601553 -3.33178e-06 0)
(0.000603973 -3.0291e-06 0)
(0.000606248 -2.75511e-06 0)
(0.000608387 -2.50785e-06 0)
(0.000610396 -2.28547e-06 0)
(0.000612284 -2.08626e-06 0)
(0.000614059 -1.90865e-06 0)
(0.000615728 -1.75123e-06 0)
(0.000617299 -1.61266e-06 0)
(0.000618779 -1.49168e-06 0)
(0.000620177 -1.38703e-06 0)
(0.0006215 -1.29741e-06 0)
(0.000622755 -1.22149e-06 0)
(0.000623949 -1.15781e-06 0)
(0.000625089 -1.1049e-06 0)
(0.000626182 -1.06126e-06 0)
(0.000627233 -1.02547e-06 0)
(0.000628246 -9.96252e-07 0)
(0.000629228 -9.72489e-07 0)
(0.000630181 -9.53239e-07 0)
(0.000631108 -9.37683e-07 0)
(0.000632012 -9.25103e-07 0)
(0.000632896 -9.14857e-07 0)
(0.000633759 -9.06383e-07 0)
(0.000634605 -8.99187e-07 0)
(0.000635432 -8.92827e-07 0)
(0.000636242 -8.86874e-07 0)
(0.000637035 -8.80876e-07 0)
(0.000637809 -8.74324e-07 0)
(0.000638565 -8.66635e-07 0)
(0.000639301 -8.57158e-07 0)
(0.000640016 -8.45197e-07 0)
(0.000640709 -8.30055e-07 0)
(0.000641378 -8.11091e-07 0)
(0.00064202 -7.87792e-07 0)
(0.000642636 -7.59841e-07 0)
(0.000643223 -7.27181e-07 0)
(0.000643779 -6.90045e-07 0)
(0.000644303 -6.48947e-07 0)
(0.000644796 -6.04628e-07 0)
(0.000645256 -5.57969e-07 0)
(0.000645683 -5.0989e-07 0)
(0.000646077 -4.61257e-07 0)
(0.00064644 -4.12814e-07 0)
(0.000646772 -3.65151e-07 0)
(0.000647075 -3.1871e-07 0)
(0.000647348 -2.73812e-07 0)
(0.000647593 -2.30723e-07 0)
(0.000647811 -1.89685e-07 0)
(0.000648004 -1.5096e-07 0)
(0.000648172 -1.14813e-07 0)
(0.000648317 -8.15185e-08 0)
(0.000648441 -5.12847e-08 0)
(0.000648545 -2.42648e-08 0)
(0.000648631 -4.67605e-10 0)
(0.000648701 2.02104e-08 0)
(0.000648757 3.80288e-08 0)
(0.000648801 5.33813e-08 0)
(0.000648834 6.65843e-08 0)
(0.000648857 7.78837e-08 0)
(0.000648872 8.73268e-08 0)
(0.000648878 9.50447e-08 0)
(0.000648876 1.00831e-07 0)
(0.000648866 1.0464e-07 0)
(0.000648851 1.06033e-07 0)
(0.000648827 1.04917e-07 0)
(0.000648801 1.00963e-07 0)
(0.000648767 9.44382e-08 0)
(0.000648737 8.50812e-08 0)
(0.000648697 7.42394e-08 0)
(0.000648668 6.12746e-08 0)
(0.000648627 4.8302e-08 0)
(0.000648607 3.68674e-08 0)
(0.000648561 2.18735e-08 0)
(0.000774828 -2.64488e-05 0)
(0.000779176 -2.49904e-05 0)
(0.000783372 -2.36011e-05 0)
(0.000787422 -2.22801e-05 0)
(0.000791334 -2.10258e-05 0)
(0.000795114 -1.98361e-05 0)
(0.000798769 -1.87089e-05 0)
(0.000802305 -1.76413e-05 0)
(0.000805728 -1.66306e-05 0)
(0.000809043 -1.56739e-05 0)
(0.000812254 -1.47685e-05 0)
(0.000815365 -1.39115e-05 0)
(0.00081838 -1.31003e-05 0)
(0.000821301 -1.23323e-05 0)
(0.000824132 -1.16053e-05 0)
(0.000826874 -1.09171e-05 0)
(0.000829528 -1.02661e-05 0)
(0.000832098 -9.65057e-06 0)
(0.000834583 -9.06949e-06 0)
(0.000836985 -8.52205e-06 0)
(0.000839306 -8.00783e-06 0)
(0.000841546 -7.52665e-06 0)
(0.000843708 -7.07856e-06 0)
(0.000845792 -6.6637e-06 0)
(0.000847801 -6.28218e-06 0)
(0.000849737 -5.93396e-06 0)
(0.000851606 -5.61873e-06 0)
(0.00085341 -5.33581e-06 0)
(0.000855154 -5.08407e-06 0)
(0.000856845 -4.86191e-06 0)
(0.000858487 -4.66733e-06 0)
(0.000860086 -4.49796e-06 0)
(0.000861646 -4.35121e-06 0)
(0.000863171 -4.22435e-06 0)
(0.000864666 -4.11463e-06 0)
(0.000866134 -4.01934e-06 0)
(0.000867578 -3.93583e-06 0)
(0.000869002 -3.86146e-06 0)
(0.000870409 -3.79365e-06 0)
(0.000871802 -3.72985e-06 0)
(0.000873186 -3.66758e-06 0)
(0.000874563 -3.6045e-06 0)
(0.000875933 -3.53853e-06 0)
(0.000877299 -3.46786e-06 0)
(0.000878659 -3.39103e-06 0)
(0.000880012 -3.30693e-06 0)
(0.000881353 -3.21477e-06 0)
(0.000882679 -3.11407e-06 0)
(0.000883985 -3.00463e-06 0)
(0.000885264 -2.88658e-06 0)
(0.000886511 -2.76038e-06 0)
(0.00088772 -2.62686e-06 0)
(0.000888886 -2.48724e-06 0)
(0.000890003 -2.34308e-06 0)
(0.000891068 -2.19621e-06 0)
(0.000892078 -2.04851e-06 0)
(0.00089303 -1.90177e-06 0)
(0.000893924 -1.75745e-06 0)
(0.000894759 -1.61658e-06 0)
(0.000895537 -1.47973e-06 0)
(0.00089626 -1.34712e-06 0)
(0.000896928 -1.21887e-06 0)
(0.000897544 -1.09513e-06 0)
(0.000898111 -9.76205e-07 0)
(0.00089863 -8.62581e-07 0)
(0.000899104 -7.54786e-07 0)
(0.000899535 -6.53551e-07 0)
(0.000899928 -5.59554e-07 0)
(0.000900284 -4.73695e-07 0)
(0.000900608 -3.96378e-07 0)
(0.000900902 -3.28009e-07 0)
(0.000901171 -2.67766e-07 0)
(0.000901416 -2.15112e-07 0)
(0.000901641 -1.67892e-07 0)
(0.000901843 -1.25385e-07 0)
(0.00090203 -8.51178e-08 0)
(0.000902192 -4.76692e-08 0)
(0.000902341 -1.07956e-08 0)
(0.000902465 2.32927e-08 0)
(0.000902579 5.62949e-08 0)
(0.000902669 8.46417e-08 0)
(0.000902754 1.09907e-07 0)
(0.000902821 1.28258e-07 0)
(0.000902883 1.42221e-07 0)
(0.000902945 1.47936e-07 0)
(0.000902989 1.51245e-07 0)
(0.000903065 1.44989e-07 0)
(0.000903089 1.43231e-07 0)
(0.000903188 1.27902e-07 0)
(0.000955976 -3.2393e-05 0)
(0.000957056 -3.0735e-05 0)
(0.000958104 -2.91629e-05 0)
(0.000959123 -2.76758e-05 0)
(0.000960115 -2.62724e-05 0)
(0.000961084 -2.495e-05 0)
(0.000962033 -2.37056e-05 0)
(0.000962964 -2.25352e-05 0)
(0.000963882 -2.14345e-05 0)
(0.000964789 -2.0399e-05 0)
(0.000965689 -1.94241e-05 0)
(0.000966585 -1.85053e-05 0)
(0.000967481 -1.76385e-05 0)
(0.000968377 -1.68197e-05 0)
(0.000969277 -1.60454e-05 0)
(0.000970182 -1.53123e-05 0)
(0.000971092 -1.46174e-05 0)
(0.000972008 -1.39582e-05 0)
(0.000972928 -1.33323e-05 0)
(0.000973853 -1.27376e-05 0)
(0.000974781 -1.21726e-05 0)
(0.000975711 -1.16363e-05 0)
(0.000976641 -1.11284e-05 0)
(0.000977571 -1.06495e-05 0)
(0.000978497 -1.0201e-05 0)
(0.000979419 -9.78479e-06 0)
(0.000980335 -9.40271e-06 0)
(0.000981244 -9.05609e-06 0)
(0.000982148 -8.74526e-06 0)
(0.00098305 -8.46923e-06 0)
(0.000983951 -8.22568e-06 0)
(0.000984858 -8.01132e-06 0)
(0.000985775 -7.82238e-06 0)
(0.000986705 -7.65524e-06 0)
(0.000987652 -7.50699e-06 0)
(0.000988619 -7.37571e-06 0)
(0.000989608 -7.26047e-06 0)
(0.000990621 -7.16105e-06 0)
(0.000991657 -7.0774e-06 0)
(0.000992721 -7.00902e-06 0)
(0.000993812 -6.95444e-06 0)
(0.000994936 -6.91084e-06 0)
(0.000996094 -6.87401e-06 0)
(0.00099729 -6.83853e-06 0)
(0.000998527 -6.79822e-06 0)
(0.000999805 -6.74668e-06 0)
(0.00100112 -6.67785e-06 0)
(0.00100248 -6.58652e-06 0)
(0.00100387 -6.46868e-06 0)
(0.00100529 -6.32174e-06 0)
(0.00100672 -6.14467e-06 0)
(0.00100816 -5.93801e-06 0)
(0.0010096 -5.70382e-06 0)
(0.00101103 -5.44553e-06 0)
(0.00101243 -5.16771e-06 0)
(0.00101379 -4.87568e-06 0)
(0.0010151 -4.5751e-06 0)
(0.00101636 -4.27139e-06 0)
(0.00101755 -3.96934e-06 0)
(0.00101868 -3.6727e-06 0)
(0.00101974 -3.38416e-06 0)
(0.00102072 -3.1053e-06 0)
(0.00102164 -2.83732e-06 0)
(0.00102249 -2.58081e-06 0)
(0.00102328 -2.33701e-06 0)
(0.001024 -2.10669e-06 0)
(0.00102466 -1.89204e-06 0)
(0.00102526 -1.69372e-06 0)
(0.00102581 -1.51418e-06 0)
(0.00102631 -1.35225e-06 0)
(0.00102677 -1.2092e-06 0)
(0.00102719 -1.08075e-06 0)
(0.00102757 -9.66577e-07 0)
(0.00102792 -8.60536e-07 0)
(0.00102824 -7.61801e-07 0)
(0.00102853 -6.66417e-07 0)
(0.0010288 -5.73117e-07 0)
(0.00102904 -4.85796e-07 0)
(0.00102927 -3.98715e-07 0)
(0.00102946 -3.29023e-07 0)
(0.00102964 -2.57555e-07 0)
(0.00102978 -2.19558e-07 0)
(0.00102993 -1.72937e-07 0)
(0.00103001 -1.72731e-07 0)
(0.00103017 -1.52173e-07 0)
(0.00103021 -1.78837e-07 0)
(0.00103039 -1.772e-07 0)
(0.0010304 -2.0475e-07 0)
(0.00103062 -2.13259e-07 0)
(0.00107194 -3.1363e-05 0)
(0.00107071 -2.97467e-05 0)
(0.00106954 -2.82102e-05 0)
(0.00106844 -2.67533e-05 0)
(0.00106739 -2.53754e-05 0)
(0.00106641 -2.40756e-05 0)
(0.00106547 -2.28529e-05 0)
(0.00106458 -2.17056e-05 0)
(0.00106373 -2.06316e-05 0)
(0.00106292 -1.9628e-05 0)
(0.00106213 -1.86917e-05 0)
(0.00106138 -1.7819e-05 0)
(0.00106065 -1.70059e-05 0)
(0.00105994 -1.62477e-05 0)
(0.00105927 -1.55393e-05 0)
(0.00105862 -1.48754e-05 0)
(0.001058 -1.42507e-05 0)
(0.00105741 -1.36609e-05 0)
(0.00105686 -1.31028e-05 0)
(0.00105634 -1.25742e-05 0)
(0.00105587 -1.20734e-05 0)
(0.00105543 -1.15991e-05 0)
(0.00105503 -1.11502e-05 0)
(0.00105467 -1.07258e-05 0)
(0.00105436 -1.03257e-05 0)
(0.00105408 -9.9511e-06 0)
(0.00105383 -9.60498e-06 0)
(0.00105361 -9.29166e-06 0)
(0.00105342 -9.01614e-06 0)
(0.00105326 -8.78297e-06 0)
(0.00105312 -8.59504e-06 0)
(0.00105301 -8.45275e-06 0)
(0.00105293 -8.35377e-06 0)
(0.00105289 -8.29343e-06 0)
(0.00105288 -8.26568e-06 0)
(0.00105293 -8.26423e-06 0)
(0.00105302 -8.28363e-06 0)
(0.00105316 -8.31996e-06 0)
(0.00105336 -8.371e-06 0)
(0.00105362 -8.43587e-06 0)
(0.00105393 -8.51421e-06 0)
(0.00105431 -8.6052e-06 0)
(0.00105475 -8.70673e-06 0)
(0.00105526 -8.81473e-06 0)
(0.00105584 -8.92304e-06 0)
(0.00105649 -9.02365e-06 0)
(0.00105722 -9.10729e-06 0)
(0.00105802 -9.16428e-06 0)
(0.0010589 -9.18537e-06 0)
(0.00105985 -9.16249e-06 0)
(0.00106088 -9.08934e-06 0)
(0.00106196 -8.9618e-06 0)
(0.00106311 -8.77817e-06 0)
(0.00106429 -8.53926e-06 0)
(0.00106551 -8.24839e-06 0)
(0.00106674 -7.91111e-06 0)
(0.00106797 -7.53503e-06 0)
(0.00106918 -7.129e-06 0)
(0.00107037 -6.70269e-06 0)
(0.00107151 -6.26535e-06 0)
(0.0010726 -5.82569e-06 0)
(0.00107363 -5.3904e-06 0)
(0.0010746 -4.96527e-06 0)
(0.00107549 -4.55344e-06 0)
(0.00107632 -4.15841e-06 0)
(0.00107708 -3.78115e-06 0)
(0.00107777 -3.4251e-06 0)
(0.0010784 -3.09085e-06 0)
(0.00107896 -2.78274e-06 0)
(0.00107947 -2.5008e-06 0)
(0.00107992 -2.24821e-06 0)
(0.00108033 -2.02311e-06 0)
(0.00108069 -1.82361e-06 0)
(0.00108101 -1.64723e-06 0)
(0.0010813 -1.48373e-06 0)
(0.00108156 -1.33697e-06 0)
(0.00108181 -1.18588e-06 0)
(0.00108202 -1.05195e-06 0)
(0.00108223 -8.99604e-07 0)
(0.00108239 -7.77548e-07 0)
(0.00108257 -6.31171e-07 0)
(0.00108268 -5.36337e-07 0)
(0.00108282 -4.20745e-07 0)
(0.00108287 -3.69923e-07 0)
(0.001083 -3.12265e-07 0)
(0.001083 -3.04952e-07 0)
(0.00108312 -3.17823e-07 0)
(0.0010831 -3.29961e-07 0)
(0.00108322 -4.00606e-07 0)
(0.00111165 -2.67252e-05 0)
(0.00110941 -2.53836e-05 0)
(0.0011073 -2.41138e-05 0)
(0.00110532 -2.29129e-05 0)
(0.00110347 -2.17764e-05 0)
(0.00110173 -2.06989e-05 0)
(0.0011001 -1.96753e-05 0)
(0.00109857 -1.87011e-05 0)
(0.00109714 -1.77732e-05 0)
(0.00109578 -1.68897e-05 0)
(0.00109449 -1.60503e-05 0)
(0.00109326 -1.52558e-05 0)
(0.00109207 -1.45073e-05 0)
(0.00109092 -1.38061e-05 0)
(0.0010898 -1.3153e-05 0)
(0.00108871 -1.25475e-05 0)
(0.00108765 -1.19884e-05 0)
(0.00108662 -1.14738e-05 0)
(0.00108562 -1.10014e-05 0)
(0.00108467 -1.05686e-05 0)
(0.00108376 -1.01727e-05 0)
(0.0010829 -9.81061e-06 0)
(0.0010821 -9.4787e-06 0)
(0.00108136 -9.17323e-06 0)
(0.00108069 -8.89086e-06 0)
(0.00108009 -8.62952e-06 0)
(0.00107955 -8.38902e-06 0)
(0.00107909 -8.17131e-06 0)
(0.0010787 -7.98018e-06 0)
(0.00107837 -7.82043e-06 0)
(0.00107811 -7.69671e-06 0)
(0.00107791 -7.61245e-06 0)
(0.00107776 -7.56918e-06 0)
(0.00107767 -7.56639e-06 0)
(0.00107763 -7.60183e-06 0)
(0.00107763 -7.6722e-06 0)
(0.00107769 -7.77397e-06 0)
(0.00107779 -7.90399e-06 0)
(0.00107793 -8.05988e-06 0)
(0.00107813 -8.23999e-06 0)
(0.00107837 -8.44304e-06 0)
(0.00107866 -8.66756e-06 0)
(0.001079 -8.91115e-06 0)
(0.00107939 -9.17001e-06 0)
(0.00107982 -9.43842e-06 0)
(0.00108031 -9.70871e-06 0)
(0.00108084 -9.97142e-06 0)
(0.00108144 -1.02156e-05 0)
(0.00108209 -1.04296e-05 0)
(0.0010828 -1.06015e-05 0)
(0.00108359 -1.07197e-05 0)
(0.00108443 -1.07742e-05 0)
(0.00108534 -1.07565e-05 0)
(0.0010863 -1.06609e-05 0)
(0.00108732 -1.04848e-05 0)
(0.00108837 -1.02288e-05 0)
(0.00108945 -9.89767e-06 0)
(0.00109053 -9.49888e-06 0)
(0.00109161 -9.0432e-06 0)
(0.00109267 -8.54274e-06 0)
(0.00109369 -8.01098e-06 0)
(0.00109466 -7.46018e-06 0)
(0.00109557 -6.90254e-06 0)
(0.00109642 -6.34708e-06 0)
(0.00109719 -5.80299e-06 0)
(0.00109788 -5.27558e-06 0)
(0.0010985 -4.77194e-06 0)
(0.00109905 -4.29539e-06 0)
(0.00109953 -3.85191e-06 0)
(0.00109995 -3.44398e-06 0)
(0.0011003 -3.0746e-06 0)
(0.0011006 -2.74562e-06 0)
(0.00110086 -2.45216e-06 0)
(0.00110107 -2.19764e-06 0)
(0.00110125 -1.96397e-06 0)
(0.00110139 -1.76369e-06 0)
(0.00110152 -1.56179e-06 0)
(0.00110161 -1.39164e-06 0)
(0.0011017 -1.19951e-06 0)
(0.00110175 -1.048e-06 0)
(0.00110182 -8.66337e-07 0)
(0.00110184 -7.40774e-07 0)
(0.00110189 -5.95e-07 0)
(0.00110189 -5.10625e-07 0)
(0.00110192 -4.35523e-07 0)
(0.00110191 -3.96713e-07 0)
(0.00110193 -4.12907e-07 0)
(0.00110191 -4.04479e-07 0)
(0.00110193 -4.98309e-07 0)
(0.00111696 -2.09818e-05 0)
(0.0011143 -1.9961e-05 0)
(0.00111177 -1.9005e-05 0)
(0.00110936 -1.81114e-05 0)
(0.00110707 -1.72746e-05 0)
(0.0011049 -1.64868e-05 0)
(0.00110284 -1.57385e-05 0)
(0.0011009 -1.50206e-05 0)
(0.00109905 -1.43253e-05 0)
(0.0010973 -1.36475e-05 0)
(0.00109563 -1.29854e-05 0)
(0.00109403 -1.23402e-05 0)
(0.0010925 -1.17159e-05 0)
(0.00109102 -1.11177e-05 0)
(0.00108959 -1.05516e-05 0)
(0.00108819 -1.00234e-05 0)
(0.00108684 -9.53804e-06 0)
(0.00108552 -9.09993e-06 0)
(0.00108424 -8.7124e-06 0)
(0.00108301 -8.37753e-06 0)
(0.00108184 -8.0957e-06 0)
(0.00108072 -7.86536e-06 0)
(0.00107967 -7.68319e-06 0)
(0.0010787 -7.54456e-06 0)
(0.00107782 -7.44445e-06 0)
(0.00107704 -7.37837e-06 0)
(0.00107636 -7.34319e-06 0)
(0.00107578 -7.33734e-06 0)
(0.00107533 -7.36054e-06 0)
(0.00107499 -7.4133e-06 0)
(0.00107476 -7.496e-06 0)
(0.00107465 -7.60836e-06 0)
(0.00107466 -7.74916e-06 0)
(0.00107477 -7.91633e-06 0)
(0.001075 -8.10732e-06 0)
(0.00107532 -8.31945e-06 0)
(0.00107573 -8.5504e-06 0)
(0.00107623 -8.79831e-06 0)
(0.00107682 -9.06183e-06 0)
(0.00107748 -9.33993e-06 0)
(0.0010782 -9.63161e-06 0)
(0.00107899 -9.93568e-06 0)
(0.00107984 -1.02505e-05 0)
(0.00108074 -1.05737e-05 0)
(0.00108169 -1.09021e-05 0)
(0.00108268 -1.12313e-05 0)
(0.00108372 -1.15554e-05 0)
(0.0010848 -1.18669e-05 0)
(0.00108593 -1.21565e-05 0)
(0.00108709 -1.24131e-05 0)
(0.00108831 -1.26241e-05 0)
(0.00108956 -1.27758e-05 0)
(0.00109085 -1.28549e-05 0)
(0.00109217 -1.28491e-05 0)
(0.00109351 -1.27489e-05 0)
(0.00109487 -1.25484e-05 0)
(0.00109622 -1.22463e-05 0)
(0.00109754 -1.18462e-05 0)
(0.00109884 -1.13565e-05 0)
(0.00110008 -1.07892e-05 0)
(0.00110126 -1.01597e-05 0)
(0.00110235 -9.48406e-06 0)
(0.00110336 -8.77954e-06 0)
(0.00110427 -8.06132e-06 0)
(0.00110508 -7.34491e-06 0)
(0.00110579 -6.64207e-06 0)
(0.0011064 -5.96516e-06 0)
(0.00110691 -5.32256e-06 0)
(0.00110734 -4.72301e-06 0)
(0.00110768 -4.17222e-06 0)
(0.00110795 -3.6731e-06 0)
(0.00110816 -3.22956e-06 0)
(0.00110831 -2.83441e-06 0)
(0.00110841 -2.49291e-06 0)
(0.00110848 -2.18342e-06 0)
(0.0011085 -1.92033e-06 0)
(0.0011085 -1.66503e-06 0)
(0.00110848 -1.45173e-06 0)
(0.00110844 -1.22492e-06 0)
(0.00110838 -1.04485e-06 0)
(0.00110833 -8.43697e-07 0)
(0.00110827 -6.99052e-07 0)
(0.0011082 -5.45867e-07 0)
(0.00110815 -4.47812e-07 0)
(0.00110809 -3.75091e-07 0)
(0.00110804 -3.26057e-07 0)
(0.00110798 -3.52828e-07 0)
(0.00110796 -3.38069e-07 0)
(0.00110789 -4.49295e-07 0)
(0.00113915 -1.47015e-05 0)
(0.00113584 -1.39122e-05 0)
(0.00113261 -1.31845e-05 0)
(0.00112946 -1.25177e-05 0)
(0.00112639 -1.19073e-05 0)
(0.0011234 -1.13444e-05 0)
(0.00112048 -1.08175e-05 0)
(0.00111765 -1.03142e-05 0)
(0.00111491 -9.82262e-06 0)
(0.00111224 -9.33413e-06 0)
(0.00110966 -8.84429e-06 0)
(0.00110715 -8.35342e-06 0)
(0.00110472 -7.86613e-06 0)
(0.00110236 -7.39015e-06 0)
(0.00110007 -6.93501e-06 0)
(0.00109784 -6.51085e-06 0)
(0.00109568 -6.12761e-06 0)
(0.00109357 -5.7945e-06 0)
(0.00109153 -5.51963e-06 0)
(0.00108956 -5.30954e-06 0)
(0.00108765 -5.16862e-06 0)
(0.00108583 -5.09851e-06 0)
(0.00108408 -5.09794e-06 0)
(0.00108243 -5.16316e-06 0)
(0.00108089 -5.28881e-06 0)
(0.00107945 -5.46898e-06 0)
(0.00107814 -5.69814e-06 0)
(0.00107695 -5.97149e-06 0)
(0.0010759 -6.28481e-06 0)
(0.001075 -6.63584e-06 0)
(0.00107425 -7.02219e-06 0)
(0.00107365 -7.4401e-06 0)
(0.00107321 -7.88481e-06 0)
(0.00107294 -8.35075e-06 0)
(0.00107282 -8.83195e-06 0)
(0.00107286 -9.32261e-06 0)
(0.00107304 -9.81772e-06 0)
(0.00107337 -1.03134e-05 0)
(0.00107384 -1.08069e-05 0)
(0.00107444 -1.12966e-05 0)
(0.00107516 -1.17819e-05 0)
(0.00107599 -1.22625e-05 0)
(0.00107694 -1.27386e-05 0)
(0.00107799 -1.32103e-05 0)
(0.00107915 -1.36766e-05 0)
(0.00108041 -1.41356e-05 0)
(0.00108175 -1.45829e-05 0)
(0.00108319 -1.50118e-05 0)
(0.00108471 -1.54121e-05 0)
(0.0010863 -1.57705e-05 0)
(0.00108795 -1.6071e-05 0)
(0.00108965 -1.62955e-05 0)
(0.00109139 -1.64256e-05 0)
(0.00109315 -1.64439e-05 0)
(0.0010949 -1.63364e-05 0)
(0.00109664 -1.60937e-05 0)
(0.00109834 -1.57122e-05 0)
(0.00109998 -1.51949e-05 0)
(0.00110154 -1.45513e-05 0)
(0.00110301 -1.37965e-05 0)
(0.00110438 -1.295e-05 0)
(0.00110562 -1.2034e-05 0)
(0.00110674 -1.10725e-05 0)
(0.00110772 -1.00883e-05 0)
(0.00110857 -9.10444e-06 0)
(0.00110929 -8.14019e-06 0)
(0.00110989 -7.21379e-06 0)
(0.00111037 -6.33896e-06 0)
(0.00111074 -5.5272e-06 0)
(0.00111102 -4.78637e-06 0)
(0.00111121 -4.11914e-06 0)
(0.00111133 -3.5289e-06 0)
(0.00111139 -3.00713e-06 0)
(0.00111139 -2.55706e-06 0)
(0.00111134 -2.15725e-06 0)
(0.00111126 -1.81868e-06 0)
(0.00111115 -1.50624e-06 0)
(0.00111102 -1.248e-06 0)
(0.00111088 -9.95614e-07 0)
(0.00111073 -7.98556e-07 0)
(0.00111057 -5.99088e-07 0)
(0.00111043 -4.59462e-07 0)
(0.00111028 -3.2584e-07 0)
(0.00111017 -2.45168e-07 0)
(0.00111004 -1.97424e-07 0)
(0.00110997 -1.67657e-07 0)
(0.00110984 -2.15159e-07 0)
(0.0011098 -2.13181e-07 0)
(0.00110968 -3.39478e-07 0)
(0.00119732 -6.41921e-06 0)
(0.00119313 -5.74854e-06 0)
(0.00118899 -5.13261e-06 0)
(0.00118488 -4.57453e-06 0)
(0.00118081 -4.0743e-06 0)
(0.00117677 -3.62843e-06 0)
(0.00117277 -3.22967e-06 0)
(0.00116881 -2.86787e-06 0)
(0.0011649 -2.53165e-06 0)
(0.00116104 -2.21027e-06 0)
(0.00115724 -1.89565e-06 0)
(0.0011535 -1.58405e-06 0)
(0.00114984 -1.2766e-06 0)
(0.00114625 -9.78772e-07 0)
(0.00114275 -6.99056e-07 0)
(0.00113932 -4.47606e-07 0)
(0.00113598 -2.35227e-07 0)
(0.00113274 -7.26401e-08 0)
(0.00112958 3.00015e-08 0)
(0.00112651 6.35633e-08 0)
(0.00112354 2.07342e-08 0)
(0.00112067 -1.03185e-07 0)
(0.0011179 -3.09832e-07 0)
(0.00111523 -5.97995e-07 0)
(0.00111266 -9.64571e-07 0)
(0.00111021 -1.40566e-06 0)
(0.00110788 -1.91767e-06 0)
(0.00110566 -2.49765e-06 0)
(0.00110357 -3.1432e-06 0)
(0.00110161 -3.84978e-06 0)
(0.00109978 -4.61095e-06 0)
(0.0010981 -5.41861e-06 0)
(0.00109657 -6.26232e-06 0)
(0.00109519 -7.1304e-06 0)
(0.00109399 -8.01103e-06 0)
(0.00109295 -8.89218e-06 0)
(0.00109209 -9.76514e-06 0)
(0.0010914 -1.06245e-05 0)
(0.00109089 -1.14676e-05 0)
(0.00109055 -1.22947e-05 0)
(0.00109038 -1.31068e-05 0)
(0.00109038 -1.39059e-05 0)
(0.00109054 -1.4693e-05 0)
(0.00109086 -1.5468e-05 0)
(0.00109134 -1.62282e-05 0)
(0.00109197 -1.69685e-05 0)
(0.00109274 -1.76807e-05 0)
(0.00109363 -1.83528e-05 0)
(0.00109464 -1.89696e-05 0)
(0.00109575 -1.95125e-05 0)
(0.00109695 -1.99601e-05 0)
(0.00109821 -2.02901e-05 0)
(0.00109952 -2.04802e-05 0)
(0.00110086 -2.05105e-05 0)
(0.0011022 -2.03657e-05 0)
(0.00110353 -2.00366e-05 0)
(0.00110482 -1.95214e-05 0)
(0.00110607 -1.88262e-05 0)
(0.00110724 -1.79651e-05 0)
(0.00110833 -1.69589e-05 0)
(0.00110932 -1.58342e-05 0)
(0.00111021 -1.46208e-05 0)
(0.00111099 -1.33507e-05 0)
(0.00111165 -1.20553e-05 0)
(0.0011122 -1.07651e-05 0)
(0.00111264 -9.50692e-06 0)
(0.00111298 -8.30439e-06 0)
(0.00111321 -7.17586e-06 0)
(0.00111336 -6.13514e-06 0)
(0.00111344 -5.1913e-06 0)
(0.00111344 -4.34681e-06 0)
(0.00111338 -3.60348e-06 0)
(0.00111327 -2.95237e-06 0)
(0.00111312 -2.39314e-06 0)
(0.00111293 -1.90635e-06 0)
(0.00111272 -1.49724e-06 0)
(0.00111249 -1.13683e-06 0)
(0.00111225 -8.43416e-07 0)
(0.001112 -5.79185e-07 0)
(0.00111176 -3.78179e-07 0)
(0.00111152 -1.9646e-07 0)
(0.00111131 -7.58791e-08 0)
(0.00111109 2.28626e-08 0)
(0.00111093 7.35192e-08 0)
(0.00111073 8.43718e-08 0)
(0.00111063 8.54082e-08 0)
(0.00111045 1.01609e-08 0)
(0.0011104 -5.72802e-09 0)
(0.00111021 -1.50221e-07 0)
(0.0012676 3.55788e-06 0)
(0.00126309 4.16244e-06 0)
(0.00125861 4.72136e-06 0)
(0.00125415 5.23192e-06 0)
(0.00124971 5.69271e-06 0)
(0.00124528 6.10387e-06 0)
(0.00124087 6.46748e-06 0)
(0.00123647 6.78723e-06 0)
(0.00123209 7.06791e-06 0)
(0.00122772 7.31485e-06 0)
(0.00122339 7.53292e-06 0)
(0.00121909 7.72517e-06 0)
(0.00121483 7.89175e-06 0)
(0.00121063 8.02965e-06 0)
(0.0012065 8.13293e-06 0)
(0.00120243 8.19371e-06 0)
(0.00119844 8.2033e-06 0)
(0.00119454 8.1531e-06 0)
(0.00119073 8.0353e-06 0)
(0.001187 7.84327e-06 0)
(0.00118337 7.57188e-06 0)
(0.00117984 7.21801e-06 0)
(0.0011764 6.78104e-06 0)
(0.00117305 6.26296e-06 0)
(0.00116979 5.66797e-06 0)
(0.00116661 5.00111e-06 0)
(0.00116352 4.26652e-06 0)
(0.00116051 3.46606e-06 0)
(0.00115758 2.59875e-06 0)
(0.00115473 1.66417e-06 0)
(0.00115196 6.62137e-07 0)
(0.00114927 -4.05875e-07 0)
(0.00114667 -1.53468e-06 0)
(0.00114414 -2.71486e-06 0)
(0.00114172 -3.93392e-06 0)
(0.00113941 -5.17942e-06 0)
(0.00113722 -6.43836e-06 0)
(0.00113516 -7.6997e-06 0)
(0.00113324 -8.95639e-06 0)
(0.00113146 -1.02039e-05 0)
(0.00112983 -1.14355e-05 0)
(0.00112835 -1.26481e-05 0)
(0.00112702 -1.38387e-05 0)
(0.00112583 -1.50027e-05 0)
(0.00112478 -1.61333e-05 0)
(0.00112386 -1.72211e-05 0)
(0.00112306 -1.82537e-05 0)
(0.00112237 -1.92154e-05 0)
(0.00112179 -2.00875e-05 0)
(0.00112129 -2.08485e-05 0)
(0.00112087 -2.14749e-05 0)
(0.00112052 -2.19427e-05 0)
(0.00112022 -2.22292e-05 0)
(0.00111996 -2.23147e-05 0)
(0.00111974 -2.2185e-05 0)
(0.00111954 -2.18326e-05 0)
(0.00111936 -2.12583e-05 0)
(0.00111919 -2.04717e-05 0)
(0.00111902 -1.94907e-05 0)
(0.00111885 -1.83409e-05 0)
(0.00111866 -1.70538e-05 0)
(0.00111846 -1.56648e-05 0)
(0.00111824 -1.42115e-05 0)
(0.001118 -1.2731e-05 0)
(0.00111774 -1.12587e-05 0)
(0.00111746 -9.82613e-06 0)
(0.00111716 -8.46024e-06 0)
(0.00111683 -7.1821e-06 0)
(0.0011165 -6.00675e-06 0)
(0.00111614 -4.94383e-06 0)
(0.00111577 -3.99597e-06 0)
(0.0011154 -3.16394e-06 0)
(0.00111501 -2.43971e-06 0)
(0.00111462 -1.82051e-06 0)
(0.00111422 -1.29045e-06 0)
(0.00111383 -8.49973e-07 0)
(0.00111344 -4.77206e-07 0)
(0.00111307 -1.80966e-07 0)
(0.00111271 6.543e-08 0)
(0.00111237 2.44093e-07 0)
(0.00111204 3.83929e-07 0)
(0.00111177 4.65669e-07 0)
(0.00111148 5.10447e-07 0)
(0.00111127 5.17887e-07 0)
(0.00111102 4.76407e-07 0)
(0.00111088 4.41245e-07 0)
(0.00111065 3.24111e-07 0)
(0.00111058 2.86997e-07 0)
(0.00111034 1.09202e-07 0)
(0.00130431 1.31782e-05 0)
(0.00130063 1.3733e-05 0)
(0.00129697 1.42482e-05 0)
(0.00129333 1.47215e-05 0)
(0.00128972 1.51514e-05 0)
(0.00128612 1.55376e-05 0)
(0.00128254 1.58808e-05 0)
(0.00127896 1.61821e-05 0)
(0.0012754 1.64434e-05 0)
(0.00127185 1.66661e-05 0)
(0.00126832 1.68506e-05 0)
(0.0012648 1.69958e-05 0)
(0.0012613 1.70986e-05 0)
(0.00125783 1.71544e-05 0)
(0.00125439 1.71572e-05 0)
(0.001251 1.70999e-05 0)
(0.00124764 1.69755e-05 0)
(0.00124433 1.67777e-05 0)
(0.00124107 1.65014e-05 0)
(0.00123785 1.61436e-05 0)
(0.00123468 1.57033e-05 0)
(0.00123156 1.51814e-05 0)
(0.00122847 1.45802e-05 0)
(0.00122543 1.39033e-05 0)
(0.00122241 1.31546e-05 0)
(0.00121942 1.2339e-05 0)
(0.00121646 1.14611e-05 0)
(0.00121352 1.05254e-05 0)
(0.0012106 9.53554e-06 0)
(0.0012077 8.49189e-06 0)
(0.00120481 7.39291e-06 0)
(0.00120192 6.23715e-06 0)
(0.00119905 5.02362e-06 0)
(0.00119617 3.75356e-06 0)
(0.0011933 2.43101e-06 0)
(0.00119043 1.06134e-06 0)
(0.00118758 -3.46765e-07 0)
(0.00118473 -1.78264e-06 0)
(0.00118191 -3.23427e-06 0)
(0.00117913 -4.69064e-06 0)
(0.00117639 -6.14542e-06 0)
(0.00117369 -7.58943e-06 0)
(0.00117104 -9.01334e-06 0)
(0.00116842 -1.0408e-05 0)
(0.00116584 -1.17609e-05 0)
(0.0011633 -1.30588e-05 0)
(0.00116078 -1.42881e-05 0)
(0.00115828 -1.5433e-05 0)
(0.00115581 -1.64755e-05 0)
(0.00115336 -1.73955e-05 0)
(0.00115093 -1.81713e-05 0)
(0.00114852 -1.87807e-05 0)
(0.00114615 -1.92024e-05 0)
(0.00114382 -1.94184e-05 0)
(0.00114154 -1.94153e-05 0)
(0.00113931 -1.91867e-05 0)
(0.00113717 -1.87338e-05 0)
(0.0011351 -1.80662e-05 0)
(0.00113313 -1.72019e-05 0)
(0.00113126 -1.61658e-05 0)
(0.00112951 -1.49888e-05 0)
(0.00112786 -1.37059e-05 0)
(0.00112633 -1.23537e-05 0)
(0.00112491 -1.09691e-05 0)
(0.0011236 -9.58666e-06 0)
(0.0011224 -8.23762e-06 0)
(0.00112129 -6.94845e-06 0)
(0.00112027 -5.74014e-06 0)
(0.00111934 -4.62766e-06 0)
(0.00111847 -3.62086e-06 0)
(0.00111767 -2.72324e-06 0)
(0.00111693 -1.93658e-06 0)
(0.00111624 -1.25561e-06 0)
(0.00111559 -6.77805e-07 0)
(0.00111499 -1.9207e-07 0)
(0.00111443 2.0344e-07 0)
(0.0011139 5.23194e-07 0)
(0.00111341 7.65545e-07 0)
(0.00111296 9.46732e-07 0)
(0.00111255 1.06299e-06 0)
(0.00111217 1.12849e-06 0)
(0.00111185 1.14553e-06 0)
(0.00111153 1.11473e-06 0)
(0.00111129 1.06405e-06 0)
(0.00111102 9.54269e-07 0)
(0.00111086 8.75293e-07 0)
(0.00111062 7.00999e-07 0)
(0.00111054 6.39504e-07 0)
(0.00111029 4.10883e-07 0)
(0.00127175 1.96413e-05 0)
(0.00126995 2.01219e-05 0)
(0.00126819 2.05717e-05 0)
(0.00126647 2.09887e-05 0)
(0.00126478 2.13717e-05 0)
(0.00126312 2.17197e-05 0)
(0.00126148 2.20324e-05 0)
(0.00125986 2.23094e-05 0)
(0.00125826 2.25501e-05 0)
(0.00125668 2.27532e-05 0)
(0.00125511 2.29163e-05 0)
(0.00125355 2.30356e-05 0)
(0.00125201 2.31069e-05 0)
(0.00125048 2.31246e-05 0)
(0.00124896 2.30832e-05 0)
(0.00124745 2.29773e-05 0)
(0.00124595 2.28025e-05 0)
(0.00124446 2.25553e-05 0)
(0.00124296 2.22341e-05 0)
(0.00124146 2.18385e-05 0)
(0.00123994 2.13704e-05 0)
(0.00123839 2.08323e-05 0)
(0.00123682 2.0228e-05 0)
(0.00123521 1.95614e-05 0)
(0.00123356 1.88359e-05 0)
(0.00123186 1.80547e-05 0)
(0.0012301 1.72202e-05 0)
(0.00122828 1.63337e-05 0)
(0.00122639 1.53961e-05 0)
(0.00122445 1.4407e-05 0)
(0.00122243 1.33657e-05 0)
(0.00122035 1.22714e-05 0)
(0.00121819 1.11234e-05 0)
(0.00121597 9.92198e-06 0)
(0.00121367 8.66893e-06 0)
(0.00121129 7.36955e-06 0)
(0.00120884 6.03044e-06 0)
(0.00120633 4.66003e-06 0)
(0.00120374 3.26958e-06 0)
(0.00120107 1.87081e-06 0)
(0.00119832 4.71471e-07 0)
(0.00119549 -9.17031e-07 0)
(0.00119258 -2.28171e-06 0)
(0.0011896 -3.60906e-06 0)
(0.00118654 -4.88872e-06 0)
(0.0011834 -6.11016e-06 0)
(0.00118019 -7.26164e-06 0)
(0.00117689 -8.33096e-06 0)
(0.00117353 -9.3051e-06 0)
(0.00117009 -1.01697e-05 0)
(0.0011666 -1.091e-05 0)
(0.00116307 -1.15129e-05 0)
(0.00115953 -1.1965e-05 0)
(0.00115599 -1.22547e-05 0)
(0.00115248 -1.23738e-05 0)
(0.00114905 -1.23182e-05 0)
(0.00114571 -1.20891e-05 0)
(0.00114249 -1.1693e-05 0)
(0.00113942 -1.11421e-05 0)
(0.00113653 -1.04536e-05 0)
(0.00113382 -9.64922e-06 0)
(0.00113131 -8.7537e-06 0)
(0.001129 -7.79381e-06 0)
(0.0011269 -6.79682e-06 0)