/*--------------------------------*- C++ -*----------------------------------*\
| =========                 |                                                 |
| \\      /  F ield         | OpenFOAM: The Open Source CFD Toolbox           |
|  \\    /   O peration     | Version:  2312                                  |
|   \\  /    A nd           | Website:  www.openfoam.com                      |
|    \\/     M anipulation  |                                                 |
\*---------------------------------------------------------------------------*/
FoamFile
{
    version     2.0;
    format      ascii;
    arch        "LSB;label=32;scalar=64";
    class       volScalarField;
    location    "107000";
    object      p;
}
// * * * * * * * * * * * * * * * * * * * * * * * * * * * * * * * * * * * * * //

dimensions      [0 2 -2 0 0 0 0];

internalField   nonuniform List<scalar> 
10800
(
5.33847e-07
5.19725e-07
5.05958e-07
4.9538e-07
4.87958e-07
4.82568e-07
4.78117e-07
4.74038e-07
4.70164e-07
4.665e-07
4.63084e-07
4.59921e-07
4.56976e-07
4.542e-07
4.51546e-07
4.48981e-07
4.46484e-07
4.44041e-07
4.41641e-07
4.39276e-07
4.36938e-07
4.34618e-07
4.32309e-07
4.30008e-07
4.27708e-07
4.25406e-07
4.23099e-07
4.20785e-07
4.18461e-07
4.16127e-07
4.13779e-07
4.11419e-07
4.09045e-07
4.06657e-07
4.04254e-07
4.01837e-07
3.99406e-07
3.96961e-07
3.94503e-07
3.92032e-07
3.89549e-07
3.87053e-07
3.84546e-07
3.82027e-07
3.79497e-07
3.76953e-07
3.74398e-07
3.71826e-07
3.69242e-07
3.66631e-07
3.64013e-07
3.61339e-07
3.58688e-07
3.5589e-07
3.53244e-07
3.50115e-07
3.4776e-07
3.43358e-07
3.43055e-07
3.32455e-07
4.85803e-07
4.84076e-07
4.81431e-07
4.78305e-07
4.7509e-07
4.71996e-07
4.69073e-07
4.66286e-07
4.63585e-07
4.60939e-07
4.58342e-07
4.558e-07
4.53318e-07
4.50898e-07
4.48532e-07
4.46212e-07
4.43928e-07
4.41672e-07
4.39439e-07
4.37223e-07
4.35021e-07
4.32828e-07
4.3064e-07
4.28454e-07
4.26268e-07
4.24078e-07
4.21883e-07
4.19679e-07
4.17467e-07
4.15244e-07
4.1301e-07
4.10763e-07
4.08504e-07
4.0623e-07
4.03945e-07
4.01644e-07
3.99332e-07
3.97004e-07
3.94666e-07
3.9231e-07
3.89948e-07
3.87566e-07
3.85181e-07
3.82771e-07
3.80366e-07
3.77926e-07
3.75505e-07
3.73031e-07
3.70601e-07
3.68091e-07
3.65674e-07
3.63127e-07
3.60776e-07
3.58213e-07
3.56063e-07
3.53551e-07
3.51937e-07
3.49556e-07
3.49087e-07
3.46422e-07
4.77061e-07
4.7631e-07
4.74897e-07
4.72945e-07
4.70661e-07
4.68241e-07
4.65811e-07
4.63421e-07
4.61075e-07
4.58761e-07
4.56468e-07
4.54196e-07
4.51951e-07
4.49737e-07
4.47557e-07
4.45409e-07
4.43288e-07
4.41189e-07
4.39108e-07
4.37041e-07
4.34984e-07
4.32936e-07
4.30892e-07
4.28852e-07
4.26811e-07
4.24769e-07
4.22724e-07
4.20674e-07
4.18617e-07
4.16552e-07
4.1448e-07
4.12397e-07
4.10306e-07
4.08203e-07
4.06091e-07
4.03967e-07
4.01833e-07
3.99686e-07
3.97531e-07
3.95361e-07
3.93185e-07
3.90992e-07
3.88796e-07
3.86579e-07
3.84365e-07
3.82123e-07
3.79894e-07
3.77629e-07
3.7539e-07
3.73104e-07
3.70869e-07
3.68567e-07
3.66357e-07
3.64051e-07
3.61902e-07
3.59605e-07
3.5757e-07
3.55289e-07
3.53408e-07
3.51047e-07
4.65324e-07
4.64891e-07
4.64105e-07
4.63014e-07
4.6169e-07
4.60202e-07
4.58607e-07
4.56946e-07
4.55239e-07
4.53497e-07
4.51726e-07
4.49931e-07
4.4812e-07
4.46298e-07
4.4447e-07
4.4264e-07
4.40808e-07
4.38974e-07
4.3714e-07
4.35303e-07
4.33464e-07
4.31622e-07
4.29776e-07
4.27926e-07
4.26071e-07
4.2421e-07
4.22344e-07
4.20471e-07
4.1859e-07
4.16703e-07
4.14807e-07
4.12904e-07
4.10993e-07
4.09073e-07
4.07145e-07
4.05209e-07
4.03265e-07
4.01312e-07
3.99352e-07
3.97381e-07
3.95404e-07
3.93417e-07
3.91422e-07
3.89415e-07
3.87402e-07
3.85373e-07
3.83338e-07
3.81281e-07
3.79219e-07
3.77128e-07
3.75031e-07
3.72897e-07
3.70759e-07
3.68573e-07
3.66389e-07
3.64143e-07
3.61907e-07
3.5959e-07
3.57299e-07
3.54929e-07
4.58621e-07
4.58407e-07
4.57976e-07
4.57331e-07
4.56487e-07
4.55473e-07
4.54322e-07
4.53065e-07
4.51726e-07
4.50322e-07
4.48866e-07
4.47366e-07
4.4583e-07
4.44264e-07
4.42674e-07
4.41064e-07
4.3944e-07
4.37802e-07
4.36154e-07
4.34496e-07
4.3283e-07
4.31156e-07
4.29475e-07
4.27788e-07
4.26094e-07
4.24393e-07
4.22687e-07
4.20975e-07
4.19258e-07
4.17535e-07
4.15807e-07
4.14075e-07
4.12337e-07
4.10595e-07
4.08848e-07
4.07097e-07
4.05343e-07
4.03584e-07
4.01822e-07
4.00056e-07
3.98286e-07
3.96511e-07
3.94733e-07
3.92949e-07
3.9116e-07
3.89364e-07
3.87561e-07
3.85749e-07
3.83927e-07
3.8209e-07
3.80234e-07
3.78353e-07
3.76437e-07
3.74474e-07
3.72447e-07
3.70344e-07
3.68152e-07
3.65882e-07
3.63536e-07
3.6121e-07
4.53099e-07
4.52936e-07
4.52611e-07
4.52127e-07
4.51494e-07
4.50728e-07
4.49847e-07
4.4887e-07
4.47811e-07
4.46683e-07
4.45497e-07
4.4426e-07
4.42978e-07
4.41658e-07
4.40305e-07
4.38923e-07
4.37516e-07
4.36088e-07
4.34641e-07
4.33178e-07
4.31701e-07
4.30211e-07
4.2871e-07
4.27199e-07
4.25679e-07
4.24151e-07
4.22615e-07
4.21074e-07
4.19527e-07
4.17976e-07
4.1642e-07
4.14861e-07
4.13299e-07
4.11735e-07
4.10169e-07
4.08602e-07
4.07034e-07
4.05466e-07
4.03898e-07
4.0233e-07
4.00761e-07
3.99193e-07
3.97623e-07
3.96052e-07
3.94477e-07
3.92899e-07
3.91312e-07
3.89717e-07
3.88107e-07
3.86483e-07
3.84837e-07
3.83173e-07
3.81482e-07
3.7977e-07
3.78013e-07
3.76216e-07
3.74344e-07
3.72419e-07
3.70435e-07
3.68519e-07
4.4875e-07
4.48631e-07
4.48393e-07
4.48038e-07
4.47567e-07
4.46989e-07
4.46313e-07
4.45549e-07
4.44706e-07
4.43795e-07
4.42822e-07
4.41795e-07
4.4072e-07
4.39601e-07
4.38444e-07
4.37252e-07
4.3603e-07
4.34782e-07
4.3351e-07
4.32217e-07
4.30906e-07
4.2958e-07
4.28239e-07
4.26887e-07
4.25524e-07
4.24152e-07
4.22773e-07
4.21388e-07
4.19998e-07
4.18605e-07
4.1721e-07
4.15813e-07
4.14417e-07
4.13021e-07
4.11627e-07
4.10236e-07
4.08848e-07
4.07465e-07
4.06086e-07
4.04713e-07
4.03346e-07
4.01986e-07
4.00631e-07
3.99283e-07
3.9794e-07
3.96604e-07
3.95271e-07
3.93944e-07
3.92616e-07
3.91287e-07
3.89947e-07
3.88592e-07
3.87209e-07
3.85803e-07
3.8436e-07
3.82894e-07
3.81383e-07
3.79854e-07
3.78302e-07
3.76842e-07
4.45296e-07
4.45203e-07
4.45018e-07
4.44739e-07
4.44368e-07
4.43908e-07
4.43366e-07
4.42746e-07
4.42055e-07
4.413e-07
4.40485e-07
4.39617e-07
4.387e-07
4.37739e-07
4.36738e-07
4.35702e-07
4.34635e-07
4.33539e-07
4.32418e-07
4.31275e-07
4.30112e-07
4.28933e-07
4.27738e-07
4.26531e-07
4.25313e-07
4.24087e-07
4.22854e-07
4.21616e-07
4.20374e-07
4.19131e-07
4.17888e-07
4.16645e-07
4.15406e-07
4.14171e-07
4.12941e-07
4.11719e-07
4.10504e-07
4.09299e-07
4.08105e-07
4.06922e-07
4.05752e-07
4.04595e-07
4.03451e-07
4.02322e-07
4.01207e-07
4.00106e-07
3.99018e-07
3.97943e-07
3.9688e-07
3.95832e-07
3.94793e-07
3.93764e-07
3.92733e-07
3.91702e-07
3.90657e-07
3.8961e-07
3.88549e-07
3.875e-07
3.86472e-07
3.85569e-07
4.42529e-07
4.42454e-07
4.42302e-07
4.42074e-07
4.41769e-07
4.4139e-07
4.40941e-07
4.40424e-07
4.39844e-07
4.39206e-07
4.38514e-07
4.37771e-07
4.36982e-07
4.36151e-07
4.35282e-07
4.34378e-07
4.33442e-07
4.32478e-07
4.31488e-07
4.30476e-07
4.29445e-07
4.28396e-07
4.27332e-07
4.26256e-07
4.25169e-07
4.24075e-07
4.22975e-07
4.21871e-07
4.20766e-07
4.19661e-07
4.18557e-07
4.17458e-07
4.16365e-07
4.1528e-07
4.14204e-07
4.1314e-07
4.12089e-07
4.11054e-07
4.10035e-07
4.09034e-07
4.08053e-07
4.07095e-07
4.06159e-07
4.05248e-07
4.04362e-07
4.03504e-07
4.02674e-07
4.01873e-07
4.01099e-07
4.00353e-07
3.9963e-07
3.98935e-07
3.98265e-07
3.97625e-07
3.97007e-07
3.96418e-07
3.95851e-07
3.9533e-07
3.94864e-07
3.94543e-07
4.40325e-07
4.40261e-07
4.40133e-07
4.3994e-07
4.39682e-07
4.39361e-07
4.38979e-07
4.38538e-07
4.38041e-07
4.37492e-07
4.36894e-07
4.3625e-07
4.35562e-07
4.34835e-07
4.34072e-07
4.33275e-07
4.32448e-07
4.31593e-07
4.30714e-07
4.29813e-07
4.28892e-07
4.27955e-07
4.27004e-07
4.26041e-07
4.25069e-07
4.2409e-07
4.23107e-07
4.22121e-07
4.21136e-07
4.20153e-07
4.19175e-07
4.18204e-07
4.17242e-07
4.16292e-07
4.15356e-07
4.14435e-07
4.13534e-07
4.12653e-07
4.11796e-07
4.10964e-07
4.10159e-07
4.09386e-07
4.08644e-07
4.07938e-07
4.07269e-07
4.0664e-07
4.06052e-07
4.05509e-07
4.05011e-07
4.0456e-07
4.04156e-07
4.03806e-07
4.03507e-07
4.03266e-07
4.03081e-07
4.02958e-07
4.02898e-07
4.02919e-07
4.03036e-07
4.03322e-07
4.38594e-07
4.38539e-07
4.38428e-07
4.3826e-07
4.38037e-07
4.37757e-07
4.37424e-07
4.37039e-07
4.36604e-07
4.36122e-07
4.35596e-07
4.35027e-07
4.34418e-07
4.33773e-07
4.33093e-07
4.32382e-07
4.31642e-07
4.30876e-07
4.30086e-07
4.29276e-07
4.28447e-07
4.27603e-07
4.26746e-07
4.25878e-07
4.25003e-07
4.24122e-07
4.23238e-07
4.22354e-07
4.21472e-07
4.20595e-07
4.19725e-07
4.18866e-07
4.18019e-07
4.17187e-07
4.16373e-07
4.1558e-07
4.14811e-07
4.14068e-07
4.13355e-07
4.12674e-07
4.12029e-07
4.11423e-07
4.10859e-07
4.10341e-07
4.09872e-07
4.09455e-07
4.09095e-07
4.08793e-07
4.08554e-07
4.08381e-07
4.0828e-07
4.08256e-07
4.08311e-07
4.08453e-07
4.08684e-07
4.09012e-07
4.09442e-07
4.09991e-07
4.10676e-07
4.11555e-07
4.37274e-07
4.37225e-07
4.37126e-07
4.36977e-07
4.36778e-07
4.36528e-07
4.36231e-07
4.35887e-07
4.35497e-07
4.35065e-07
4.34591e-07
4.34079e-07
4.3353e-07
4.32947e-07
4.32331e-07
4.31686e-07
4.31014e-07
4.30317e-07
4.29598e-07
4.2886e-07
4.28104e-07
4.27335e-07
4.26553e-07
4.25762e-07
4.24965e-07
4.24164e-07
4.23361e-07
4.2256e-07
4.21763e-07
4.20973e-07
4.20193e-07
4.19426e-07
4.18674e-07
4.17941e-07
4.1723e-07
4.16544e-07
4.15886e-07
4.15259e-07
4.14668e-07
4.14116e-07
4.13607e-07
4.13144e-07
4.12732e-07
4.12375e-07
4.12077e-07
4.11844e-07
4.1168e-07
4.1159e-07
4.11579e-07
4.11654e-07
4.11821e-07
4.12086e-07
4.12458e-07
4.12942e-07
4.13547e-07
4.14282e-07
4.15157e-07
4.16188e-07
4.17394e-07
4.18816e-07
4.36319e-07
4.36274e-07
4.36184e-07
4.36048e-07
4.35865e-07
4.35637e-07
4.35365e-07
4.35049e-07
4.34692e-07
4.34294e-07
4.33859e-07
4.33387e-07
4.3288e-07
4.32342e-07
4.31773e-07
4.31176e-07
4.30553e-07
4.29908e-07
4.29241e-07
4.28556e-07
4.27856e-07
4.27142e-07
4.26417e-07
4.25684e-07
4.24946e-07
4.24206e-07
4.23465e-07
4.22727e-07
4.21996e-07
4.21273e-07
4.20562e-07
4.19865e-07
4.19187e-07
4.18531e-07
4.17899e-07
4.17296e-07
4.16725e-07
4.16189e-07
4.15694e-07
4.15243e-07
4.14841e-07
4.14491e-07
4.142e-07
4.13971e-07
4.13811e-07
4.13725e-07
4.13718e-07
4.13798e-07
4.13972e-07
4.14247e-07
4.14632e-07
4.15134e-07
4.15764e-07
4.1653e-07
4.17443e-07
4.18515e-07
4.19759e-07
4.21191e-07
4.2283e-07
4.24707e-07
4.35699e-07
4.35656e-07
4.35571e-07
4.35443e-07
4.35271e-07
4.35057e-07
4.348e-07
4.34503e-07
4.34166e-07
4.33791e-07
4.3338e-07
4.32934e-07
4.32455e-07
4.31945e-07
4.31407e-07
4.30842e-07
4.30252e-07
4.2964e-07
4.29008e-07
4.28359e-07
4.27694e-07
4.27018e-07
4.26331e-07
4.25637e-07
4.24939e-07
4.24239e-07
4.2354e-07
4.22845e-07
4.22157e-07
4.2148e-07
4.20815e-07
4.20167e-07
4.1954e-07
4.18935e-07
4.18358e-07
4.17811e-07
4.173e-07
4.16827e-07
4.16398e-07
4.16017e-07
4.15688e-07
4.15417e-07
4.15209e-07
4.1507e-07
4.15005e-07
4.15021e-07
4.15125e-07
4.15325e-07
4.15629e-07
4.16046e-07
4.16584e-07
4.17254e-07
4.18066e-07
4.19032e-07
4.20165e-07
4.21478e-07
4.22987e-07
4.24706e-07
4.26659e-07
4.28863e-07
4.35392e-07
4.35351e-07
4.35269e-07
4.35145e-07
4.34978e-07
4.3477e-07
4.34521e-07
4.34232e-07
4.33905e-07
4.33542e-07
4.33142e-07
4.32709e-07
4.32244e-07
4.31749e-07
4.31225e-07
4.30676e-07
4.30102e-07
4.29507e-07
4.28892e-07
4.28261e-07
4.27614e-07
4.26956e-07
4.26289e-07
4.25614e-07
4.24936e-07
4.24256e-07
4.23578e-07
4.22905e-07
4.2224e-07
4.21585e-07
4.20944e-07
4.20321e-07
4.19718e-07
4.1914e-07
4.18591e-07
4.18073e-07
4.17592e-07
4.17151e-07
4.16756e-07
4.1641e-07
4.16119e-07
4.15888e-07
4.15722e-07
4.15629e-07
4.15613e-07
4.15682e-07
4.15844e-07
4.16106e-07
4.16477e-07
4.16966e-07
4.17584e-07
4.1834e-07
4.19248e-07
4.20318e-07
4.21565e-07
4.23003e-07
4.2465e-07
4.26521e-07
4.28637e-07
4.31013e-07
4.35391e-07
4.3535e-07
4.35267e-07
4.35143e-07
4.34977e-07
4.34768e-07
4.34519e-07
4.34231e-07
4.33904e-07
4.3354e-07
4.33141e-07
4.32708e-07
4.32242e-07
4.31747e-07
4.31224e-07
4.30674e-07
4.30101e-07
4.29505e-07
4.28891e-07
4.28259e-07
4.27613e-07
4.26955e-07
4.26287e-07
4.25613e-07
4.24934e-07
4.24255e-07
4.23577e-07
4.22904e-07
4.22238e-07
4.21583e-07
4.20943e-07
4.20319e-07
4.19717e-07
4.19139e-07
4.18589e-07
4.18072e-07
4.17591e-07
4.1715e-07
4.16754e-07
4.16408e-07
4.16117e-07
4.15886e-07
4.15721e-07
4.15627e-07
4.1561e-07
4.15679e-07
4.15841e-07
4.16103e-07
4.16474e-07
4.16963e-07
4.17581e-07
4.18337e-07
4.19245e-07
4.20314e-07
4.21561e-07
4.22999e-07
4.24646e-07
4.26516e-07
4.28632e-07
4.31008e-07
4.35694e-07
4.35651e-07
4.35567e-07
4.35438e-07
4.35267e-07
4.35052e-07
4.34795e-07
4.34498e-07
4.34161e-07
4.33786e-07
4.33375e-07
4.32929e-07
4.3245e-07
4.31941e-07
4.31402e-07
4.30837e-07
4.30247e-07
4.29635e-07
4.29003e-07
4.28354e-07
4.2769e-07
4.27013e-07
4.26326e-07
4.25633e-07
4.24934e-07
4.24234e-07
4.23535e-07
4.2284e-07
4.22153e-07
4.21475e-07
4.20811e-07
4.20163e-07
4.19535e-07
4.1893e-07
4.18353e-07
4.17807e-07
4.17295e-07
4.16823e-07
4.16393e-07
4.16012e-07
4.15683e-07
4.15412e-07
4.15203e-07
4.15064e-07
4.14998e-07
4.15014e-07
4.15118e-07
4.15318e-07
4.15622e-07
4.16038e-07
4.16576e-07
4.17246e-07
4.18057e-07
4.19023e-07
4.20155e-07
4.21467e-07
4.22975e-07
4.24694e-07
4.26646e-07
4.28849e-07
4.36311e-07
4.36266e-07
4.36176e-07
4.36039e-07
4.35857e-07
4.35629e-07
4.35356e-07
4.35041e-07
4.34683e-07
4.34286e-07
4.33851e-07
4.33379e-07
4.32872e-07
4.32334e-07
4.31765e-07
4.31168e-07
4.30546e-07
4.299e-07
4.29233e-07
4.28549e-07
4.27848e-07
4.27134e-07
4.26409e-07
4.25677e-07
4.24939e-07
4.24198e-07
4.23457e-07
4.2272e-07
4.21988e-07
4.21265e-07
4.20554e-07
4.19857e-07
4.19179e-07
4.18523e-07
4.17891e-07
4.17288e-07
4.16716e-07
4.16181e-07
4.15686e-07
4.15235e-07
4.14832e-07
4.14482e-07
4.14191e-07
4.13962e-07
4.13801e-07
4.13714e-07
4.13706e-07
4.13785e-07
4.13959e-07
4.14234e-07
4.14618e-07
4.1512e-07
4.15749e-07
4.16513e-07
4.17425e-07
4.18496e-07
4.19739e-07
4.2117e-07
4.22808e-07
4.24683e-07
4.37262e-07
4.37213e-07
4.37114e-07
4.36965e-07
4.36766e-07
4.36517e-07
4.3622e-07
4.35875e-07
4.35486e-07
4.35054e-07
4.3458e-07
4.34068e-07
4.33519e-07
4.32935e-07
4.3232e-07
4.31675e-07
4.31003e-07
4.30306e-07
4.29587e-07
4.28849e-07
4.28093e-07
4.27323e-07
4.26542e-07
4.25751e-07
4.24954e-07
4.24153e-07
4.2335e-07
4.22549e-07
4.21752e-07
4.20962e-07
4.20182e-07
4.19415e-07
4.18663e-07
4.1793e-07
4.17219e-07
4.16532e-07
4.15874e-07
4.15248e-07
4.14657e-07
4.14104e-07
4.13595e-07
4.13132e-07
4.12719e-07
4.12362e-07
4.12064e-07
4.11831e-07
4.11665e-07
4.11573e-07
4.11561e-07
4.11635e-07
4.11801e-07
4.12066e-07
4.12436e-07
4.1292e-07
4.13523e-07
4.14257e-07
4.1513e-07
4.16159e-07
4.17363e-07
4.18783e-07
4.38579e-07
4.38524e-07
4.38413e-07
4.38246e-07
4.38022e-07
4.37743e-07
4.37409e-07
4.37024e-07
4.3659e-07
4.36108e-07
4.35581e-07
4.35012e-07
4.34404e-07
4.33758e-07
4.33079e-07
4.32367e-07
4.31627e-07
4.30861e-07
4.30072e-07
4.29261e-07
4.28433e-07
4.27589e-07
4.26732e-07
4.25864e-07
4.24988e-07
4.24108e-07
4.23224e-07
4.2234e-07
4.21458e-07
4.20581e-07
4.19711e-07
4.18851e-07
4.18004e-07
4.17172e-07
4.16358e-07
4.15565e-07
4.14796e-07
4.14053e-07
4.13339e-07
4.12658e-07
4.12013e-07
4.11407e-07
4.10843e-07
4.10324e-07
4.09854e-07
4.09437e-07
4.09076e-07
4.08772e-07
4.08531e-07
4.08357e-07
4.08255e-07
4.0823e-07
4.08284e-07
4.08424e-07
4.08653e-07
4.08979e-07
4.09407e-07
4.09954e-07
4.10637e-07
4.11513e-07
4.40306e-07
4.40243e-07
4.40115e-07
4.39922e-07
4.39664e-07
4.39343e-07
4.38961e-07
4.3852e-07
4.38023e-07
4.37474e-07
4.36876e-07
4.36231e-07
4.35544e-07
4.34817e-07
4.34054e-07
4.33257e-07
4.3243e-07
4.31575e-07
4.30696e-07
4.29795e-07
4.28874e-07
4.27937e-07
4.26986e-07
4.26023e-07
4.25051e-07
4.24072e-07
4.23089e-07
4.22103e-07
4.21118e-07
4.20135e-07
4.19157e-07
4.18186e-07
4.17224e-07
4.16273e-07
4.15337e-07
4.14417e-07
4.13515e-07
4.12634e-07
4.11776e-07
4.10944e-07
4.10139e-07
4.09365e-07
4.08623e-07
4.07916e-07
4.07246e-07
4.06616e-07
4.06028e-07
4.05485e-07
4.04985e-07
4.04531e-07
4.04126e-07
4.03774e-07
4.03474e-07
4.03231e-07
4.03043e-07
4.02919e-07
4.02855e-07
4.02874e-07
4.02988e-07
4.03271e-07
4.42508e-07
4.42432e-07
4.42281e-07
4.42052e-07
4.41748e-07
4.41369e-07
4.40919e-07
4.40402e-07
4.39823e-07
4.39185e-07
4.38492e-07
4.3775e-07
4.36961e-07
4.3613e-07
4.3526e-07
4.34356e-07
4.3342e-07
4.32456e-07
4.31467e-07
4.30455e-07
4.29423e-07
4.28374e-07
4.2731e-07
4.26234e-07
4.25148e-07
4.24054e-07
4.22954e-07
4.2185e-07
4.20744e-07
4.19639e-07
4.18535e-07
4.17436e-07
4.16343e-07
4.15258e-07
4.14182e-07
4.13117e-07
4.12066e-07
4.1103e-07
4.10011e-07
4.0901e-07
4.08029e-07
4.0707e-07
4.06133e-07
4.05221e-07
4.04335e-07
4.03477e-07
4.02645e-07
4.01843e-07
4.01067e-07
4.00319e-07
3.99594e-07
3.98898e-07
3.98226e-07
3.97584e-07
3.96963e-07
3.96371e-07
3.95801e-07
3.95277e-07
3.94808e-07
3.94484e-07
4.45271e-07
4.45179e-07
4.44993e-07
4.44714e-07
4.44343e-07
4.43884e-07
4.43341e-07
4.42721e-07
4.4203e-07
4.41275e-07
4.4046e-07
4.39592e-07
4.38675e-07
4.37714e-07
4.36713e-07
4.35677e-07
4.34609e-07
4.33514e-07
4.32393e-07
4.31249e-07
4.30087e-07
4.28907e-07
4.27712e-07
4.26505e-07
4.25288e-07
4.24061e-07
4.22828e-07
4.2159e-07
4.20348e-07
4.19105e-07
4.17861e-07
4.16619e-07
4.15379e-07
4.14144e-07
4.12914e-07
4.11691e-07
4.10477e-07
4.09272e-07
4.08077e-07
4.06893e-07
4.05722e-07
4.04565e-07
4.03421e-07
4.02291e-07
4.01174e-07
4.00072e-07
3.98983e-07
3.97907e-07
3.96843e-07
3.95793e-07
3.94753e-07
3.93722e-07
3.92688e-07
3.91653e-07
3.90605e-07
3.89555e-07
3.8849e-07
3.87439e-07
3.86408e-07
3.855e-07
4.48722e-07
4.48603e-07
4.48365e-07
4.4801e-07
4.47539e-07
4.46961e-07
4.46285e-07
4.45521e-07
4.44678e-07
4.43767e-07
4.42794e-07
4.41767e-07
4.40691e-07
4.39572e-07
4.38415e-07
4.37223e-07
4.36001e-07
4.34752e-07
4.3348e-07
4.32188e-07
4.30877e-07
4.2955e-07
4.28209e-07
4.26857e-07
4.25494e-07
4.24122e-07
4.22743e-07
4.21358e-07
4.19968e-07
4.18575e-07
4.17179e-07
4.15782e-07
4.14385e-07
4.12989e-07
4.11595e-07
4.10204e-07
4.08816e-07
4.07432e-07
4.06053e-07
4.0468e-07
4.03312e-07
4.01951e-07
4.00596e-07
3.99247e-07
3.97904e-07
3.96567e-07
3.95235e-07
3.93907e-07
3.92578e-07
3.91248e-07
3.89904e-07
3.88545e-07
3.87158e-07
3.85746e-07
3.843e-07
3.82832e-07
3.81319e-07
3.79786e-07
3.7823e-07
3.76765e-07
4.53068e-07
4.52905e-07
4.5258e-07
4.52096e-07
4.51463e-07
4.50697e-07
4.49816e-07
4.48838e-07
4.47779e-07
4.46651e-07
4.45465e-07
4.44227e-07
4.42946e-07
4.41625e-07
4.40271e-07
4.38889e-07
4.37482e-07
4.36054e-07
4.34607e-07
4.33144e-07
4.31666e-07
4.30176e-07
4.28675e-07
4.27164e-07
4.25643e-07
4.24115e-07
4.2258e-07
4.21038e-07
4.19491e-07
4.17939e-07
4.16383e-07
4.14824e-07
4.13262e-07
4.11698e-07
4.10132e-07
4.08564e-07
4.06996e-07
4.05428e-07
4.03859e-07
4.02291e-07
4.00721e-07
3.99152e-07
3.97582e-07
3.96009e-07
3.94434e-07
3.92853e-07
3.91264e-07
3.89667e-07
3.88054e-07
3.86426e-07
3.84778e-07
3.83112e-07
3.81419e-07
3.79708e-07
3.7795e-07
3.76152e-07
3.74276e-07
3.72345e-07
3.70355e-07
3.68433e-07
4.58587e-07
4.58373e-07
4.57942e-07
4.57296e-07
4.56452e-07
4.55439e-07
4.54288e-07
4.53031e-07
4.51691e-07
4.50287e-07
4.4883e-07
4.4733e-07
4.45793e-07
4.44227e-07
4.42636e-07
4.41027e-07
4.39402e-07
4.37764e-07
4.36116e-07
4.34458e-07
4.32791e-07
4.31117e-07
4.29435e-07
4.27747e-07
4.26053e-07
4.24352e-07
4.22646e-07
4.20934e-07
4.19216e-07
4.17493e-07
4.15765e-07
4.14032e-07
4.12295e-07
4.10552e-07
4.08805e-07
4.07054e-07
4.053e-07
4.03541e-07
4.01778e-07
4.00012e-07
3.98241e-07
3.96466e-07
3.94687e-07
3.92903e-07
3.91113e-07
3.89317e-07
3.87513e-07
3.85701e-07
3.83878e-07
3.8204e-07
3.80184e-07
3.78302e-07
3.76383e-07
3.74416e-07
3.72384e-07
3.70273e-07
3.68074e-07
3.65797e-07
3.63445e-07
3.61114e-07
4.65287e-07
4.64854e-07
4.64067e-07
4.62977e-07
4.61652e-07
4.60164e-07
4.58569e-07
4.56908e-07
4.552e-07
4.53457e-07
4.51686e-07
4.49891e-07
4.48079e-07
4.46257e-07
4.44428e-07
4.42597e-07
4.40764e-07
4.3893e-07
4.37095e-07
4.35258e-07
4.33418e-07
4.31575e-07
4.29729e-07
4.27878e-07
4.26023e-07
4.24162e-07
4.22295e-07
4.20422e-07
4.18541e-07
4.16653e-07
4.14758e-07
4.12854e-07
4.10942e-07
4.09022e-07
4.07095e-07
4.05158e-07
4.03214e-07
4.01261e-07
3.993e-07
3.97329e-07
3.95352e-07
3.93364e-07
3.91369e-07
3.89361e-07
3.87347e-07
3.85316e-07
3.8328e-07
3.81221e-07
3.79157e-07
3.77063e-07
3.74963e-07
3.72825e-07
3.70683e-07
3.68493e-07
3.66305e-07
3.64055e-07
3.61815e-07
3.59496e-07
3.57204e-07
3.5483e-07
4.77021e-07
4.76271e-07
4.74857e-07
4.72905e-07
4.70621e-07
4.682e-07
4.6577e-07
4.6338e-07
4.61034e-07
4.58718e-07
4.56424e-07
4.54152e-07
4.51906e-07
4.49692e-07
4.47511e-07
4.45361e-07
4.43239e-07
4.4114e-07
4.39058e-07
4.3699e-07
4.34932e-07
4.32883e-07
4.30839e-07
4.28797e-07
4.26757e-07
4.24714e-07
4.22668e-07
4.20617e-07
4.1856e-07
4.16495e-07
4.14422e-07
4.1234e-07
4.10248e-07
4.08145e-07
4.06033e-07
4.03909e-07
4.01775e-07
3.99628e-07
3.97473e-07
3.95303e-07
3.93127e-07
3.90934e-07
3.88737e-07
3.8652e-07
3.84305e-07
3.82063e-07
3.79833e-07
3.77568e-07
3.75328e-07
3.73041e-07
3.70804e-07
3.68501e-07
3.66289e-07
3.6398e-07
3.61828e-07
3.59527e-07
3.57486e-07
3.55198e-07
3.53308e-07
3.5094e-07
4.85762e-07
4.84034e-07
4.81389e-07
4.78263e-07
4.75047e-07
4.71953e-07
4.69029e-07
4.66242e-07
4.6354e-07
4.60893e-07
4.58295e-07
4.55751e-07
4.53269e-07
4.50847e-07
4.4848e-07
4.46159e-07
4.43873e-07
4.41617e-07
4.39382e-07
4.37165e-07
4.34961e-07
4.32767e-07
4.30578e-07
4.28392e-07
4.26204e-07
4.24014e-07
4.21818e-07
4.19614e-07
4.17401e-07
4.15177e-07
4.12943e-07
4.10696e-07
4.08437e-07
4.06163e-07
4.03878e-07
4.01577e-07
3.99265e-07
3.96937e-07
3.94599e-07
3.92244e-07
3.89882e-07
3.87499e-07
3.85115e-07
3.82704e-07
3.80299e-07
3.77858e-07
3.75436e-07
3.72961e-07
3.70531e-07
3.68019e-07
3.656e-07
3.63052e-07
3.60699e-07
3.58133e-07
3.55981e-07
3.53465e-07
3.51847e-07
3.49462e-07
3.48988e-07
3.46316e-07
5.33805e-07
5.19682e-07
5.05915e-07
4.95337e-07
4.87914e-07
4.82523e-07
4.78072e-07
4.73992e-07
4.70116e-07
4.66451e-07
4.63034e-07
4.5987e-07
4.56923e-07
4.54146e-07
4.5149e-07
4.48924e-07
4.46425e-07
4.4398e-07
4.41579e-07
4.39213e-07
4.36872e-07
4.34551e-07
4.32241e-07
4.29938e-07
4.27637e-07
4.25335e-07
4.23027e-07
4.20712e-07
4.18388e-07
4.16053e-07
4.13706e-07
4.11346e-07
4.08972e-07
4.06583e-07
4.04181e-07
4.01764e-07
3.99333e-07
3.96889e-07
3.94431e-07
3.91961e-07
3.89478e-07
3.86983e-07
3.84476e-07
3.81957e-07
3.79427e-07
3.76883e-07
3.74328e-07
3.71755e-07
3.69171e-07
3.66559e-07
3.63941e-07
3.61266e-07
3.58615e-07
3.55815e-07
3.53169e-07
3.50038e-07
3.47684e-07
3.43279e-07
3.42975e-07
3.32379e-07
3.72294e-07
3.21921e-07
3.01067e-07
2.83599e-07
2.66079e-07
2.4846e-07
2.28767e-07
2.07794e-07
1.83284e-07
1.56997e-07
1.26378e-07
9.44368e-08
5.80713e-08
2.17111e-08
-1.85241e-08
-5.66884e-08
-9.80802e-08
-1.35098e-07
-1.75008e-07
-2.08331e-07
-2.44737e-07
-2.72707e-07
-3.04555e-07
-3.26059e-07
-3.53789e-07
-3.66773e-07
-3.95017e-07
-3.95081e-07
-4.30323e-07
-5.32648e-07
3.58453e-07
3.03551e-07
2.89671e-07
2.74773e-07
2.57926e-07
2.40715e-07
2.21334e-07
2.00519e-07
1.76206e-07
1.50281e-07
1.20294e-07
8.92064e-08
5.40075e-08
1.89584e-08
-1.9764e-08
-5.64813e-08
-9.61053e-08
-1.31667e-07
-1.69766e-07
-2.02147e-07
-2.37245e-07
-2.64586e-07
-2.96234e-07
-3.17137e-07
-3.45427e-07
-3.59109e-07
-3.83966e-07
-3.97653e-07
-4.03833e-07
-5.52256e-07
3.46294e-07
3.01093e-07
2.88242e-07
2.73832e-07
2.56499e-07
2.38321e-07
2.18422e-07
1.97264e-07
1.72903e-07
1.46851e-07
1.17101e-07
8.61082e-08
5.14718e-08
1.67718e-08
-2.1049e-08
-5.71793e-08
-9.57904e-08
-1.31e-07
-1.68471e-07
-2.00488e-07
-2.35089e-07
-2.62342e-07
-2.92723e-07
-3.15383e-07
-3.40726e-07
-3.60657e-07
-3.79187e-07
-4.07451e-07
-3.88983e-07
-4.90064e-07
3.36146e-07
2.97019e-07
2.82104e-07
2.68216e-07
2.51567e-07
2.3399e-07
2.14285e-07
1.92967e-07
1.68662e-07
1.42456e-07
1.13034e-07
8.20592e-08
4.81785e-08
1.36832e-08
-2.29212e-08
-5.88376e-08
-9.59016e-08
-1.31027e-07
-1.66329e-07
-1.98878e-07
-2.30656e-07
-2.60127e-07
-2.87426e-07
-3.13547e-07
-3.34532e-07
-3.60667e-07
-3.69474e-07
-4.07409e-07
-3.84145e-07
-4.51664e-07
3.26351e-07
2.9444e-07
2.78648e-07
2.65899e-07
2.49818e-07
2.31456e-07
2.11236e-07
1.89353e-07
1.65009e-07
1.38394e-07
1.09218e-07
7.79744e-08
4.4783e-08
1.01972e-08
-2.52241e-08
-6.11686e-08
-9.65942e-08
-1.31868e-07
-1.65181e-07
-1.98476e-07
-2.28105e-07
-2.59009e-07
-2.83338e-07
-3.12306e-07
-3.29228e-07
-3.58856e-07
-3.64375e-07
-3.99522e-07
-3.90142e-07
-4.24641e-07
3.17775e-07
2.9272e-07
2.76106e-07
2.62899e-07
2.47085e-07
2.28626e-07
2.08222e-07
1.85853e-07
1.61384e-07
1.34337e-07
1.05277e-07
7.37203e-08
4.1044e-08
6.33116e-09
-2.81001e-08
-6.40552e-08
-9.80326e-08
-1.33394e-07
-1.64962e-07
-1.98617e-07
-2.26318e-07
-2.5785e-07
-2.80445e-07
-3.10137e-07
-3.26199e-07
-3.54859e-07
-3.63606e-07
-3.90475e-07
-3.95392e-07
-4.12437e-07
3.1076e-07
2.91218e-07
2.74504e-07
2.60444e-07
2.44745e-07
2.26217e-07
2.05562e-07
1.82625e-07
1.57847e-07
1.30325e-07
1.01186e-07
6.9333e-08
3.69202e-08
2.18132e-09
-3.15889e-08
-6.73098e-08
-1.003e-07
-1.35281e-07
-1.65761e-07
-1.98936e-07
-2.25775e-07
-2.56654e-07
-2.79163e-07
-3.07531e-07
-3.25284e-07
-3.50599e-07
-3.64231e-07
-3.84703e-07
-3.96637e-07
-4.09429e-07
3.05533e-07
2.89819e-07
2.7361e-07
2.58588e-07
2.42647e-07
2.23965e-07
2.0299e-07
1.79497e-07
1.54241e-07
1.26263e-07
9.68463e-08
6.47834e-08
3.23667e-08
-2.23113e-09
-3.56918e-08
-7.08865e-08
-1.03371e-07
-1.37491e-07
-1.67528e-07
-1.99531e-07
-2.26362e-07
-2.55694e-07
-2.79079e-07
-3.05264e-07
-3.25242e-07
-3.47522e-07
-3.64584e-07
-3.82022e-07
-3.96356e-07
-4.08507e-07
3.02175e-07
2.88518e-07
2.72963e-07
2.57289e-07
2.40798e-07
2.21793e-07
2.00404e-07
1.76379e-07
1.50518e-07
1.22094e-07
9.22347e-08
6.00246e-08
2.74021e-08
-6.94004e-09
-4.03421e-08
-7.4831e-08
-1.07111e-07
-1.40121e-07
-1.7003e-07
-2.00605e-07
-2.27645e-07
-2.55326e-07
-2.79444e-07
-3.03894e-07
-3.25148e-07
-3.4596e-07
-3.64271e-07
-3.81124e-07
-3.9596e-07
-4.0881e-07
3.00439e-07
2.87383e-07
2.72395e-07
2.56351e-07
2.39152e-07
2.19635e-07
1.9771e-07
1.73154e-07
1.46615e-07
1.17728e-07
8.73299e-08
5.49755e-08
2.20532e-08
-1.20158e-08
-4.54521e-08
-7.92183e-08
-1.11354e-07
-1.43272e-07
-1.73019e-07
-2.02292e-07
-2.29311e-07
-2.55691e-07
-2.80003e-07
-3.034e-07
-3.2499e-07
-3.4525e-07
-3.63859e-07
-3.80784e-07
-3.96003e-07
-4.09541e-07
2.99844e-07
2.8656e-07
2.71787e-07
2.55488e-07
2.37574e-07
2.17405e-07
1.94826e-07
1.69702e-07
1.42461e-07
1.13071e-07
8.21004e-08
4.95528e-08
1.63261e-08
-1.75296e-08
-5.09703e-08
-8.41085e-08
-1.16006e-07
-1.46993e-07
-1.76384e-07
-2.04612e-07
-2.31281e-07
-2.56715e-07
-2.80766e-07
-3.0351e-07
-3.24969e-07
-3.44986e-07
-3.63658e-07
-3.80771e-07
-3.96417e-07
-4.10557e-07
2.99808e-07
2.86086e-07
2.71152e-07
2.54503e-07
2.35887e-07
2.14989e-07
1.91674e-07
1.65919e-07
1.37969e-07
1.08029e-07
7.64856e-08
4.36787e-08
1.01801e-08
-2.35438e-08
-5.6916e-08
-8.95427e-08
-1.21079e-07
-1.51292e-07
-1.80148e-07
-2.07516e-07
-2.33613e-07
-2.58283e-07
-2.8185e-07
-3.0407e-07
-3.2524e-07
-3.45063e-07
-3.63736e-07
-3.81023e-07
-3.9704e-07
-4.11777e-07
2.9993e-07
2.85812e-07
2.70442e-07
2.53267e-07
2.33932e-07
2.12268e-07
1.88172e-07
1.61716e-07
1.33043e-07
1.02501e-07
7.03924e-08
3.72653e-08
3.52702e-09
-3.01325e-08
-6.33754e-08
-9.55738e-08
-1.26663e-07
-1.56191e-07
-1.84409e-07
-2.10995e-07
-2.36415e-07
-2.60365e-07
-2.83363e-07
-3.05052e-07
-3.2589e-07
-3.45458e-07
-3.64131e-07
-3.8148e-07
-3.97878e-07
-4.13035e-07
2.99963e-07
2.85527e-07
2.69573e-07
2.51717e-07
2.31616e-07
2.09154e-07
1.84238e-07
1.57008e-07
1.27577e-07
9.63779e-08
6.36973e-08
3.01986e-08
-3.76367e-09
-3.7406e-08
-7.04827e-08
-1.02297e-07
-1.32889e-07
-1.61768e-07
-1.89287e-07
-2.1511e-07
-2.39786e-07
-2.63011e-07
-2.85373e-07
-3.06504e-07
-3.26941e-07
-3.46218e-07
-3.64811e-07
-3.82191e-07
-3.98858e-07
-4.14397e-07
2.99819e-07
2.85041e-07
2.68456e-07
2.49836e-07
2.28907e-07
2.05585e-07
1.79786e-07
1.51695e-07
1.21445e-07
8.95236e-08
5.62436e-08
2.23273e-08
-1.18628e-08
-4.5517e-08
-7.84097e-08
-1.09851e-07
-1.39913e-07
-1.68139e-07
-1.94916e-07
-2.19954e-07
-2.43833e-07
-2.6629e-07
-2.87951e-07
-3.08467e-07
-3.28433e-07
-3.47353e-07
-3.65799e-07
-3.83136e-07
-4.00017e-07
-4.15823e-07
2.99558e-07
2.84317e-07
2.67078e-07
2.47644e-07
2.25804e-07
2.01514e-07
1.74723e-07
1.45656e-07
1.14495e-07
8.17694e-08
4.78406e-08
1.34599e-08
-2.09739e-08
-5.46557e-08
-8.735e-08
-1.18406e-07
-1.47902e-07
-1.75442e-07
-2.01427e-07
-2.25631e-07
-2.48646e-07
-2.70275e-07
-2.91149e-07
-3.10983e-07
-3.30373e-07
-3.48876e-07
-3.67064e-07
-3.84315e-07
-4.01306e-07
-4.17339e-07
2.99363e-07
2.83441e-07
2.65485e-07
2.45165e-07
2.22286e-07
1.96861e-07
1.68914e-07
1.38722e-07
1.0653e-07
7.29032e-08
3.82601e-08
3.36941e-09
-3.13249e-08
-6.5034e-08
-9.75058e-08
-1.28139e-07
-1.5702e-07
-1.83815e-07
-2.08943e-07
-2.32239e-07
-2.54314e-07
-2.75026e-07
-2.9502e-07
-3.14075e-07
-3.3278e-07
-3.50772e-07
-3.68584e-07
-3.85686e-07
-4.02669e-07
-4.18918e-07
2.99484e-07
2.82579e-07
2.63725e-07
2.42354e-07
2.18237e-07
1.91459e-07
1.62149e-07
1.30655e-07
9.72934e-08
6.26598e-08
2.72342e-08
-8.20309e-09
-4.3162e-08
-7.68771e-08
-1.09082e-07
-1.39231e-07
-1.67427e-07
-1.93393e-07
-2.17585e-07
-2.39878e-07
-2.60926e-07
-2.80611e-07
-2.9963e-07
-3.17776e-07
-3.3569e-07
-3.5303e-07
-3.70356e-07
-3.87181e-07
-4.04071e-07
-4.20449e-07
3.0004e-07
2.81846e-07
2.61756e-07
2.39022e-07
2.1339e-07
1.85007e-07
1.54113e-07
1.21131e-07
8.64553e-08
5.07135e-08
1.4447e-08
-2.15556e-08
-5.67622e-08
-9.04388e-08
-1.2231e-07
-1.51894e-07
-1.7931e-07
-2.04351e-07
-2.27503e-07
-2.48688e-07
-2.68606e-07
-2.87143e-07
-3.05074e-07
-3.22164e-07
-3.39164e-07
-3.55682e-07
-3.72385e-07
-3.88761e-07
-4.05409e-07
-4.21788e-07
3.00783e-07
2.81018e-07
2.59242e-07
2.34737e-07
2.07276e-07
1.77039e-07
1.44352e-07
1.09706e-07
7.35798e-08
3.66409e-08
-5.06703e-10
-3.70706e-08
-7.24843e-08
-1.06054e-07
-1.37502e-07
-1.66423e-07
-1.92946e-07
-2.1695e-07
-2.38937e-07
-2.58891e-07
-2.77544e-07
-2.94796e-07
-3.11499e-07
-3.27363e-07
-3.43299e-07
-3.58776e-07
-3.74707e-07
-3.90355e-07
-4.06603e-07
-4.22654e-07
3.00999e-07
2.79415e-07
2.55556e-07
2.28901e-07
1.99299e-07
1.66956e-07
1.32264e-07
9.57789e-08
5.80742e-08
1.98625e-08
-1.81868e-08
-5.52843e-08
-9.08361e-08
-1.24204e-07
-1.55112e-07