/*--------------------------------*- C++ -*----------------------------------*\
| =========                 |                                                 |
| \\      /  F ield         | OpenFOAM: The Open Source CFD Toolbox           |
|  \\    /   O peration     | Version:  2312                                  |
|   \\  /    A nd           | Website:  www.openfoam.com                      |
|    \\/     M anipulation  |                                                 |
\*---------------------------------------------------------------------------*/
FoamFile
{
    version     2.0;
    format      ascii;
    arch        "LSB;label=32;scalar=64";
    class       surfaceScalarField;
    location    "111000";
    object      phi;
}
// * * * * * * * * * * * * * * * * * * * * * * * * * * * * * * * * * * * * * //

dimensions      [0 3 -1 0 0 0 0];

oriented        oriented;

internalField   nonuniform List<scalar> 
21240
(
0.000664975
1.69212e-06
0.000661073
3.90204e-06
0.000655752
5.32029e-06
0.000649517
6.23562e-06
0.000642642
6.87413e-06
0.000635272
7.37052e-06
0.000627497
7.77526e-06
0.000619395
8.1014e-06
0.00061104
8.35496e-06
0.000602495
8.54491e-06
0.000593812
8.68357e-06
0.000585029
8.78322e-06
0.000576175
8.85351e-06
0.000567274
8.90075e-06
0.000558346
8.92876e-06
0.000549406
8.93999e-06
0.000540469
8.93629e-06
0.00053155
8.9192e-06
0.00052266
8.89006e-06
0.00051381
8.84995e-06
0.00050501
8.79966e-06
0.000496271
8.73981e-06
0.0004876
8.67079e-06
0.000479007
8.59292e-06
0.000470501
8.50639e-06
0.000462089
8.41135e-06
0.000453781
8.30791e-06
0.000445585
8.19608e-06
0.000437509
8.07598e-06
0.000429562
7.94746e-06
0.000421751
7.81074e-06
0.000414086
7.66547e-06
0.000406573
7.51213e-06
0.000399223
7.34997e-06
0.000392043
7.18007e-06
0.000385042
7.0009e-06
0.000378228
6.81465e-06
0.000371609
6.61834e-06
0.000365193
6.41622e-06
0.000358991
6.20259e-06
0.000353005
5.98548e-06
0.000347251
5.75412e-06
0.000341728
5.52348e-06
0.000336454
5.2734e-06
0.000331423
5.03152e-06
0.000326662
4.7604e-06
0.000322151
4.51089e-06
0.000317938
4.21356e-06
0.000313976
3.96219e-06
0.000310348
3.62727e-06
0.000306964
3.38438e-06
0.000303978
2.98548e-06
0.000301205
2.77398e-06
0.000298961
2.24337e-06
0.000296838
2.1233e-06
0.00029559
1.24796e-06
0.000294109
1.48052e-06
0.000294318
-2.08876e-07
0.000293156
1.16203e-06
-3.20247e-06
0.000296359
0.000667556
8.02745e-07
0.000669121
2.33724e-06
0.000670855
3.58638e-06
0.000672526
4.56398e-06
0.000674056
5.34445e-06
0.00067543
5.99656e-06
0.000676643
6.56197e-06
0.000677686
7.05906e-06
0.000678546
7.49489e-06
0.000679217
7.8739e-06
0.000679699
8.20172e-06
0.000679997
8.48527e-06
0.000680118
8.73158e-06
0.000680073
8.94647e-06
0.000679867
9.1343e-06
0.000679509
9.29799e-06
0.000679006
9.43967e-06
0.000678364
9.56093e-06
0.000677591
9.66321e-06
0.000676693
9.74757e-06
0.000675678
9.81512e-06
0.000674551
9.86642e-06
0.00067332
9.9023e-06
0.00067199
9.9228e-06
0.000670568
9.92868e-06
0.000669059
9.9195e-06
0.000667471
9.89617e-06
0.00066581
9.85773e-06
0.00066408
9.80547e-06
0.00066229
9.73769e-06
0.000660444
9.65647e-06
0.000658551
9.55894e-06
0.000656614
9.44859e-06
0.000654644
9.32065e-06
0.000652643
9.18101e-06
0.000650622
9.02183e-06
0.000648583
8.85296e-06
0.00064654
8.66147e-06
0.000644493
8.46382e-06
0.000642457
8.23863e-06
0.000640429
8.01331e-06
0.00063843
7.75245e-06
0.000636452
7.50155e-06
0.000634524
7.20202e-06
0.000632626
6.92923e-06
0.0006308
6.58618e-06
0.000629013
6.29761e-06
0.000627324
5.90311e-06
0.000625677
5.60882e-06
0.000624155
5.14989e-06
0.000622673
4.86633e-06
0.000621336
4.32239e-06
0.000620034
4.07613e-06
0.000618861
3.41624e-06
0.000617736
3.24844e-06
0.000616551
2.43282e-06
0.000615632
2.39886e-06
0.000614014
1.40911e-06
0.000613617
1.55911e-06
4.63946e-07
0.000609951
0.000666951
5.18339e-07
0.000667819
1.46926e-06
0.00066906
2.34587e-06
0.000670485
3.13827e-06
0.000671987
3.84231e-06
0.000673518
4.46561e-06
0.00067506
5.02043e-06
0.000676601
5.51785e-06
0.00067813
5.9657e-06
0.000679635
6.36887e-06
0.000681106
6.73092e-06
0.000682536
7.0551e-06
0.000683923
7.34495e-06
0.000685265
7.60392e-06
0.000686564
7.83531e-06
0.000687821
8.04173e-06
0.000689035
8.22542e-06
0.000690208
8.38791e-06
0.000691341
8.5307e-06
0.000692433
8.65469e-06
0.000693487
8.76103e-06
0.000694504
8.85015e-06
0.000695483
8.92304e-06
0.000696426
8.97962e-06
0.000697334
9.02086e-06
0.000698207
9.04613e-06
0.000699047
9.05658e-06
0.000699854
9.05095e-06
0.000700628
9.03081e-06
0.000701372
8.9941e-06
0.000702085
8.94315e-06
0.000702769
8.87476e-06
0.000703426
8.7925e-06
0.000704055
8.6915e-06
0.000704658
8.57729e-06
0.000705238
8.44255e-06
0.000705795
8.29574e-06
0.00070633
8.12597e-06
0.000706848
7.94601e-06
0.000707347
7.73978e-06
0.000707834
7.52636e-06
0.000708304
7.28219e-06
0.000708771
7.03532e-06
0.000709221
6.75171e-06
0.000709678
6.47189e-06
0.000710117
6.14745e-06
0.000710579
5.83577e-06
0.000711012
5.46952e-06
0.000711494
5.12765e-06
0.000711924
4.71956e-06
0.000712441
4.34952e-06
0.000712861
3.90165e-06
0.000713432
3.50533e-06
0.000713823
3.02502e-06
0.000714468
2.60378e-06
0.000714789
2.11145e-06
0.000715523
1.66529e-06
0.000715721
1.21116e-06
0.000716552
7.28558e-07
4.14684e-07
0.000716601
0.000666854
3.31089e-07
0.000667309
1.0142e-06
0.000667973
1.68207e-06
0.000668797
2.31399e-06
0.000669739
2.90077e-06
0.000670765
3.4395e-06
0.000671853
3.93174e-06
0.00067299
4.38114e-06
0.000674164
4.79164e-06
0.000675367
5.16643e-06
0.000676589
5.50805e-06
0.000677826
5.81854e-06
0.000679071
6.09988e-06
0.000680321
6.35405e-06
0.000681573
6.58307e-06
0.000682826
6.78875e-06
0.000684079
6.97279e-06
0.00068533
7.13651e-06
0.00068658
7.2811e-06
0.000687827
7.40742e-06
0.000689072
7.51634e-06
0.000690314
7.60838e-06
0.000691552
7.68422e-06
0.000692788
7.74408e-06
0.00069402
7.78849e-06
0.000695249
7.81742e-06
0.000696474
7.83126e-06
0.000697696
7.82976e-06
0.000698913
7.81326e-06
0.000700126
7.7813e-06
0.000701335
7.73419e-06
0.000702538
7.67135e-06
0.000703738
7.59299e-06
0.000704931
7.49852e-06
0.00070612
7.38798e-06
0.000707302
7.26096e-06
0.00070848
7.11707e-06
0.00070965
6.9565e-06
0.000710818
6.77787e-06
0.000711975
6.5828e-06
0.000713133
6.36785e-06
0.000714278
6.13755e-06
0.000715429
5.88442e-06
0.000716562
5.61857e-06
0.000717709
5.325e-06
0.000718832
5.02405e-06
0.000719981
4.68715e-06
0.000721098
4.35301e-06
0.000722256
3.9691e-06
0.000723369
3.6064e-06
0.000724548
3.17099e-06
0.00072566
2.78921e-06
0.000726869
2.29649e-06
0.000727982
1.91254e-06
0.000729231
1.35381e-06
0.000730347
9.95808e-07
0.000731653
3.59409e-07
0.000732789
7.54188e-08
0.000734229
-7.12023e-07
-8.78553e-07
0.000735523
0.000666738
2.59265e-07
0.00066697
7.82636e-07
0.000667357
1.29525e-06
0.000667881
1.7901e-06
0.00066852
2.26131e-06
0.000669254
2.70528e-06
0.000670066
3.12055e-06
0.00067094
3.50721e-06
0.000671865
3.86613e-06
0.000672833
4.19845e-06
0.000673836
4.50525e-06
0.000674867
4.7875e-06
0.000675921
5.04615e-06
0.000676993
5.28217e-06
0.000678079
5.49657e-06
0.000679177
5.69041e-06
0.000680285
5.86466e-06
0.000681402
6.02023e-06
0.000682525
6.15789e-06
0.000683654
6.27835e-06
0.000684788
6.38213e-06
0.000685927
6.46977e-06
0.000687069
6.5416e-06
0.000688215
6.59805e-06
0.000689365
6.63921e-06
0.000690517
6.66546e-06
0.000691671
6.67664e-06
0.000692828
6.67317e-06
0.000693987
6.65454e-06
0.000695147
6.62134e-06
0.000696308
6.57261e-06
0.00069747
6.50934e-06
0.000698633
6.42984e-06
0.000699796
6.33585e-06
0.000700959
6.22457e-06
0.000702121
6.09901e-06
0.000703284
5.9546e-06
0.000704444
5.79655e-06
0.000705604
5.61735e-06
0.000706761
5.42585e-06
0.000707919
5.20985e-06
0.000709073
4.98416e-06
0.000710228
4.72895e-06
0.000711378
4.46875e-06
0.000712531
4.17144e-06
0.000713678
3.87721e-06
0.000714831
3.53412e-06
0.000715977
3.20739e-06
0.000717133
2.81319e-06
0.000718283
2.45664e-06
0.000719451
2.0029e-06
0.000720619
1.62102e-06
0.00072182
1.09498e-06
0.000723037
6.95751e-07
0.000724318
7.29898e-08
0.000725622
-3.08146e-07
0.000726992
-1.01045e-06
0.000728438
-1.37052e-06
0.000729957
-2.23125e-06
-2.54176e-06
0.00073162
0.000666724
2.01814e-07
0.000666899
6.07294e-07
0.000667185
1.01011e-06
0.000667571
1.40375e-06
0.000668048
1.7845e-06
0.000668604
2.14944e-06
0.000669228
2.49651e-06
0.00066991
2.82449e-06
0.000670644
3.1328e-06
0.000671421
3.42132e-06
0.000672236
3.69013e-06
0.000673084
3.9395e-06
0.00067396
4.16978e-06
0.000674861
4.38141e-06
0.000675783
4.57485e-06
0.000676723
4.75064e-06
0.000677678
4.90926e-06
0.000678647
5.05127e-06
0.000679628
5.1771e-06
0.000680619
5.28723e-06
0.000681619
5.38194e-06
0.000682627
5.46168e-06
0.000683642
5.52656e-06
0.000684663
5.57697e-06
0.00068569
5.61283e-06
0.000686721
5.63455e-06
0.000687755
5.64181e-06
0.000688793
5.63511e-06
0.000689834
5.61376e-06
0.000690877
5.57851e-06
0.000691921
5.52818e-06
0.000692967
5.46393e-06
0.000694013
5.38388e-06
0.000695059
5.28989e-06
0.000696104
5.17904e-06
0.000697149
5.05436e-06
0.000698192
4.91127e-06
0.000699234
4.75474e-06
0.000700274
4.57762e-06
0.000701312
4.38798e-06
0.000702347
4.17463e-06
0.000703381
3.95054e-06
0.000704411
3.6982e-06
0.000705442
3.43833e-06
0.00070647
3.14347e-06
0.0007075
2.84659e-06
0.00070853
2.50479e-06
0.000709567
2.17048e-06
0.000710603
1.77689e-06
0.000711653
1.40689e-06
0.000712699
9.56449e-07
0.000713764
5.55734e-07
0.000714812
4.69693e-08
0.000715906
-3.98325e-07
0.000716991
-1.012e-06
0.000718154
-1.47105e-06
0.00071933
-2.1865e-06
0.000720614
-2.65374e-06
0.000721892
-3.50946e-06
-3.96373e-06
0.000723314
0.000666708
1.59997e-07
0.000666834
4.81813e-07
0.000667041
8.02828e-07
0.000667327
1.11849e-06
0.000667685
1.42626e-06
0.00066811
1.724e-06
0.000668597
2.01e-06
0.000669138
2.28303e-06
0.000669729
2.54232e-06
0.000670362
2.78753e-06
0.000671035
3.01728e-06
0.000671743
3.2317e-06
0.000672482
3.4309e-06
0.000673248
3.61501e-06
0.000674039
3.78412e-06
0.000674851
3.93843e-06
0.000675682
4.07814e-06
0.00067653
4.20351e-06
0.000677393
4.31473e-06
0.000678268
4.41206e-06
0.000679154
4.49562e-06
0.00068005
4.56568e-06
0.000680954
4.62224e-06
0.000681866
4.66554e-06
0.000682783
4.69547e-06
0.000683705
4.71228e-06
0.000684632
4.71567e-06
0.000685561
4.70596e-06
0.000686492
4.68259e-06
0.000687424
4.64604e-06
0.000688357
4.59539e-06
0.00068929
4.53139e-06
0.000690221
4.45261e-06
0.000691151
4.36027e-06
0.000692077
4.25219e-06
0.000693001
4.13036e-06
0.000693921
3.99145e-06
0.000694837
3.83873e-06
0.000695748
3.6671e-06
0.000696654
3.48183e-06
0.000697553
3.27513e-06
0.000698449
3.05549e-06
0.000699336
2.81094e-06
0.000700219
2.55506e-06
0.000701093
2.2694e-06
0.000701964
1.97546e-06
0.000702825
1.64435e-06
0.000703686
1.30967e-06
0.000704536
9.2595e-07
0.000705397
5.45991e-07
0.000706256
9.77231e-08
0.000707135
-3.22826e-07
0.000708014
-8.32667e-07
0.000708918
-1.30227e-06
0.000709806
-1.8997e-06
0.000710751
-2.41655e-06
0.000711683
-3.11841e-06
0.000712708
-3.67867e-06
0.000713711
-4.51235e-06
-5.105e-06
0.000714852
0.000666699
1.27878e-07
0.000666796
3.84743e-07
0.000666957
6.41364e-07
0.000667181
8.94553e-07
0.000667465
1.14257e-06
0.000667805
1.3839e-06
0.000668198
1.61719e-06
0.00066864
1.84138e-06
0.000669126
2.05557e-06
0.000669655
2.25904e-06
0.000670221
2.45118e-06
0.000670821
2.63157e-06
0.000671452
2.8e-06
0.000672111
2.95635e-06
0.000672794
3.10056e-06
0.0006735
3.23261e-06
0.000674226
3.35248e-06
0.000674969
3.46022e-06
0.000675728
3.55587e-06
0.0006765
3.63951e-06
0.000677285
3.71114e-06
0.00067808
3.77088e-06
0.000678883
3.81866e-06
0.000679694
3.85459e-06
0.000680511
3.87853e-06
0.000681333
3.89058e-06
0.000682158
3.89051e-06
0.000682985
3.87841e-06
0.000683814
3.85391e-06
0.000684643
3.81716e-06
0.000685471
3.76757e-06
0.000686297
3.7054e-06
0.00068712
3.62977e-06
0.000687939
3.54114e-06
0.000688753
3.43822e-06
0.000689561
3.32183e-06
0.000690363
3.19003e-06
0.000691157
3.04423e-06
0.000691943
2.88158e-06
0.00069272
2.70442e-06
0.000693487
2.5085e-06
0.000694245
2.29765e-06
0.00069499
2.06549e-06
0.000695727
1.81819e-06
0.00069645
1.54612e-06
0.000697166
1.25926e-06
0.000697868
9.43143e-07
0.000698563
6.1395e-07
0.000699239
2.50321e-07
0.00069991
-1.25181e-07
0.000700562
-5.53697e-07
0.000701224
-9.85746e-07
0.000701869
-1.47728e-06
0.000702533
-1.96613e-06
0.00070317
-2.53693e-06
0.000703844
-3.09016e-06
0.000704482
-3.75662e-06
0.000705182
-4.37823e-06
0.000705829
-5.15975e-06
-5.84973e-06
0.000706574
0.000666693
1.01627e-07
0.000666772
3.05656e-07
0.000666904
5.09669e-07
0.000667087
7.11344e-07
0.00066732
9.09454e-07
0.000667601
1.10289e-06
0.000667928
1.29063e-06
0.000668297
1.47179e-06
0.000668707
1.64562e-06
0.000669155
1.81147e-06
0.000669637
1.96882e-06
0.000670151
2.11723e-06
0.000670695
2.25637e-06
0.000671265
2.386e-06
0.00067186
2.50592e-06
0.000672477
2.61599e-06
0.000673113
2.71609e-06
0.000673767
2.80616e-06
0.000674437
2.88611e-06
0.00067512
2.95592e-06
0.000675816
3.01553e-06
0.000676522
3.06491e-06
0.000677237
3.10399e-06
0.000677959
3.13274e-06
0.000678686
3.15105e-06
0.000679418
3.15887e-06
0.000680152
3.15603e-06
0.000680888
3.14246e-06
0.000681624
3.11793e-06
0.000682359
3.08234e-06
0.000683091
3.03536e-06
0.00068382
2.97688e-06
0.000684543
2.90644e-06
0.00068526
2.82395e-06
0.00068597
2.72877e-06
0.000686671
2.62084e-06
0.000687361
2.49931e-06
0.000688041
2.36418e-06
0.000688709
2.21433e-06
0.000689363
2.04987e-06
0.000690002
1.86929e-06
0.000690627
1.67295e-06
0.000691234
1.45876e-06
0.000691825
1.22748e-06
0.000692394
9.76233e-07
0.000692947
7.06362e-07
0.000693477
4.13834e-07
0.000693989
1.01403e-07
0.00069448
-2.40019e-07
0.000694959
-6.04988e-07
0.000695407
-1.00114e-06
0.000695843
-1.42245e-06
0.000696247
-1.88092e-06
0.000696648
-2.36663e-06
0.000697008
-2.89771e-06
0.000697376
-3.45822e-06
0.000697695
-4.07513e-06
0.000698039
-4.72222e-06
0.000698319
-5.44021e-06
-6.18485e-06
0.000698655
0.000666689
7.94902e-08
0.000666755
2.39045e-07
0.000666866
3.98686e-07
0.000667021
5.56696e-07
0.000667218
7.12188e-07
0.000667457
8.64347e-07
0.000667735
1.01242e-06
0.000668051
1.15572e-06
0.000668403
1.29365e-06
0.000668789
1.42567e-06
0.000669206
1.55133e-06
0.000669653
1.67022e-06
0.000670128
1.78202e-06
0.000670627
1.88644e-06
0.00067115
1.98324e-06
0.000671694
2.07224e-06
0.000672257
2.15328e-06
0.000672836
2.22621e-06
0.000673432
2.29093e-06
0.00067404
2.34731e-06
0.000674661
2.39529e-06
0.000675291
2.43475e-06
0.000675929
2.46561e-06
0.000676574
2.48776e-06
0.000677224
2.50111e-06
0.000677877
2.50551e-06
0.000678533
2.50087e-06
0.000679188
2.48698e-06
0.000679842
2.46372e-06
0.000680494
2.43084e-06
0.000681141
2.38818e-06
0.000681782
2.3354e-06
0.000682416
2.27234e-06
0.000683042
2.19852e-06
0.000683657
2.1138e-06
0.00068426
2.01752e-06
0.00068485
1.9096e-06
0.000685425
1.78909e-06
0.000685983
1.65607e-06
0.000686524
1.50918e-06
0.000687044
1.34879e-06
0.000687545
1.17288e-06
0.000688021
9.82376e-07
0.000688474
7.74284e-07
0.0006889
5.50565e-07
0.000689299
3.0683e-07
0.000689665
4.77391e-08
0.000690008
-2.40779e-07
0.000690315
-5.4728e-07
0.000690593
-8.83089e-07
0.00069083
-1.23781e-06
0.000691037
-1.62971e-06
0.000691197
-2.04054e-06
0.000691329
-2.49893e-06
0.000691405
-2.97435e-06
0.000691459
-3.51218e-06
0.000691446
-4.06189e-06
0.000691419
-4.69533e-06
0.000691308
-5.32916e-06
-6.07621e-06
0.0006912
0.000666686
6.03035e-08
0.000666744
1.8135e-07
0.00066684
3.02529e-07
0.000666974
4.22582e-07
0.000667145
5.40872e-07
0.000667353
6.56808e-07
0.000667595
7.69838e-07
0.000667872
8.79452e-07
0.00066818
9.85187e-07
0.000668519
1.08662e-06
0.000668887
1.18338e-06
0.000669282
1.27514e-06
0.000669702
1.36159e-06
0.000670146
1.44249e-06
0.000670612
1.5176e-06
0.000671098
1.58673e-06
0.000671601
1.64972e-06
0.000672121
1.70641e-06
0.000672655
1.75668e-06
0.000673202
1.80038e-06
0.00067376
1.83742e-06
0.000674327
1.86768e-06
0.000674902
1.89106e-06
0.000675482
1.90743e-06
0.000676066
1.9167e-06
0.000676653
1.91869e-06
0.000677241
1.91333e-06
0.000677827
1.90039e-06
0.000678411
1.8798e-06
0.000678991
1.85122e-06
0.000679564
1.81464e-06
0.00068013
1.76959e-06
0.000680686
1.71609e-06
0.000681231
1.65348e-06
0.000681763
1.58193e-06
0.00068228
1.50046e-06
0.000682781
1.40945e-06
0.000683262
1.30749e-06
0.000683723
1.19535e-06
0.000684161
1.0709e-06
0.000684574
9.35609e-07
0.000684961
7.86234e-07
0.000685318
6.2542e-07
0.000685644
4.48193e-07
0.000685935
2.59235e-07
0.000686191
5.1419e-08
0.00068641
-1.71846e-07
0.00068659
-4.20282e-07
0.000686723
-6.80354e-07
0.000686812
-9.71905e-07
0.000686848
-1.27375e-06
0.000686835
-1.61705e-06
0.000686761
-1.96681e-06
0.000686635
-2.37261e-06
0.000686438
-2.77702e-06
0.000686185
-3.25923e-06
0.000685848
-3.72533e-06
0.000685455
-4.30207e-06
0.000684962
-4.8358e-06
-5.52904e-06
0.000684414
0.000666684
4.32326e-08
0.000666735
1.30041e-07
0.000666821
2.16999e-07
0.00066694
3.03221e-07
0.000667093
3.88267e-07
0.000667278
4.71724e-07
0.000667494
5.53203e-07
0.000667741
6.3234e-07
0.000668018
7.08801e-07
0.000668322
7.82275e-07
0.000668653
8.52481e-07
0.000669009
9.19161e-07
0.000669388
9.82086e-07
0.00066979
1.04105e-06
0.000670212
1.09586e-06
0.000670652
1.14635e-06
0.000671109
1.19238e-06
0.000671582
1.23381e-06
0.000672068
1.27052e-06
0.000672566
1.30238e-06
0.000673074
1.32931e-06
0.000673591
1.35117e-06
0.000674114
1.3679e-06
0.000674642
1.37935e-06
0.000675173
1.38545e-06
0.000675706
1.38603e-06
0.000676238
1.38105e-06
0.000676768
1.37026e-06
0.000677295
1.35365e-06
0.000677815
1.33089e-06
0.000678327
1.30201e-06
0.000678831
1.26655e-06
0.000679322
1.22462e-06
0.0006798
1.17556e-06
0.000680262
1.11963e-06
0.000680707
1.05586e-06
0.000681131
9.8479e-07
0.000681534
9.04947e-07
0.000681912
8.17354e-07
0.000682263
7.19768e-07
0.000682585
6.14011e-07
0.000682874
4.96645e-07
0.000683129
3.7083e-07
0.000683346
2.31287e-07
0.000683521
8.3565e-08
0.000683655
-8.22699e-08
0.000683741
-2.58161e-07
0.000683777
-4.55537e-07
0.000683756
-6.60103e-07
0.000683678
-8.93288e-07
0.000683535
-1.13113e-06
0.000683326
-1.40763e-06
0.000683042
-1.68341e-06
0.000682683
-2.01286e-06
0.000682237
-2.33155e-06
0.000681705
-2.7268e-06
0.000681073
-3.0932e-06
0.000680342
-3.57142e-06
0.000679495
-3.98862e-06
-4.57145e-06
0.000678537
0.000666682
2.76321e-08
0.000666729
8.31646e-08
0.000666807
1.38847e-07
0.000666916
1.9412e-07
0.000667056
2.48703e-07
0.000667225
3.02334e-07
0.000667424
3.54766e-07
0.00066765
4.05764e-07
0.000667904
4.55111e-07
0.000668184
5.02601e-07
0.000668488
5.4805e-07
0.000668816
5.9128e-07
0.000669166
6.32136e-07
0.000669537
6.70471e-07
0.000669926
7.06154e-07
0.000670334
7.39062e-07
0.000670757
7.6909e-07
0.000671195
7.96131e-07
0.000671645
8.20099e-07
0.000672106
8.40895e-07
0.000672577
8.5845e-07
0.000673056
8.72664e-07
0.00067354
8.83479e-07
0.000674029
8.90782e-07
0.00067452
8.94528e-07
0.000675011
8.94576e-07
0.000675501
8.90898e-07
0.000675988
8.83306e-07
0.00067647
8.71799e-07
0.000676945
8.56118e-07
0.000677411
8.36306e-07
0.000677865
8.11995e-07
0.000678306
7.83308e-07
0.000678732
7.49711e-07
0.00067914
7.11463e-07
0.000679529
6.67774e-07
0.000679894
6.1914e-07
0.000680235
5.64373e-07
0.000680548
5.04366e-07
0.00068083
4.37309e-07
0.000681079
3.6476e-07
0.000681292
2.83939e-07
0.000681466
1.97517e-07
0.000681596
1.01261e-07
0.000681678
5.93903e-10
0.000681712
-1.16122e-07
0.000681691
-2.37104e-07
0.00068161
-3.74278e-07
0.000681465
-5.15521e-07
0.000681251
-6.78397e-07
0.000680962
-8.42856e-07
0.000680592
-1.03692e-06
0.000680136
-1.22774e-06
0.000679583
-1.4603e-06
0.000678933
-1.68079e-06
0.000678168
-1.96172e-06
0.000677289
-2.21487e-06
0.000676275
-2.55755e-06
0.000675131
-2.84471e-06
-3.26644e-06
0.000673826
0.000666681
1.29651e-08
0.000666725
3.91017e-08
0.000666799
6.53828e-08
0.000666901
9.15408e-08
0.000667033
1.17441e-07
0.000667192
1.42955e-07
0.000667379
1.67964e-07
0.000667592
1.92351e-07
0.000667831
2.16011e-07
0.000668095
2.38842e-07
0.000668382
2.60748e-07
0.000668692
2.81643e-07
0.000669023
3.01444e-07
0.000669373
3.20075e-07
0.000669742
3.37467e-07
0.000670127
3.53554e-07
0.000670528
3.68279e-07
0.000670943
3.81581e-07
0.000671369
3.93414e-07
0.000671807
4.03721e-07
0.000672253
4.12462e-07
0.000672706
4.19579e-07
0.000673164
4.25039e-07
0.000673626
4.28777e-07
0.00067409
4.30766e-07
0.000674554
4.30925e-07
0.000675015
4.29238e-07
0.000675473
4.256e-07
0.000675925
4.20008e-07
0.000676368
4.12319e-07
0.000676802
4.02556e-07
0.000677224
3.90516e-07
0.000677631
3.76269e-07
0.000678021
3.5952e-07
0.000678392
3.40417e-07
0.000678741
3.18523e-07
0.000679066
2.94123e-07
0.000679364
2.66555e-07
0.000679632
2.36333e-07
0.000679867
2.02448e-07
0.000680066
1.65788e-07
0.000680225
1.2481e-07
0.000680342
8.10365e-08
0.000680411
3.21311e-08
0.000680431
-1.96252e-08
0.000680394
-7.89791e-08
0.000680297
-1.40678e-07
0.000680134
-2.1104e-07
0.000679902
-2.83228e-07
0.00067959
-3.67065e-07
0.000679199
-4.51254e-07
0.000678713
-5.51513e-07
0.000678135
-6.49329e-07
0.000677445
-7.69957e-07
0.000676647
-8.83055e-07
0.000675715
-1.02941e-06
0.000674659
-1.15923e-06
0.00067344
-1.33865e-06
0.000672081
-1.48564e-06
-1.7077e-06
0.000670522
0.000666681
-1.23824e-09
0.000666724
-3.57846e-09
0.000666795
-5.77536e-09
0.000666894
-7.82814e-09
0.000667021
-9.73364e-09
0.000667176
-1.14907e-08
0.000667357
-1.30989e-08
0.000667564
-1.45584e-08
0.000667796
-1.58691e-08
0.000668051
-1.70317e-08
0.00066833
-1.80488e-08
0.000668631
-1.89219e-08
0.000668952
-1.96541e-08
0.000669292
-2.02489e-08
0.00066965
-2.07105e-08
0.000670025
-2.10436e-08
0.000670415
-2.12535e-08
0.000670817
-2.13453e-08
0.000671232
-2.1324e-08
0.000671657
-2.11994e-08
0.000672091
-2.09742e-08
0.000672531
-2.06571e-08
0.000672976
-2.02548e-08
0.000673425
-1.97756e-08
0.000673875
-1.9226e-08
0.000674324
-1.86158e-08
0.000674771
-1.79476e-08
0.000675214
-1.72398e-08
0.000675651
-1.64907e-08
0.000676079
-1.57092e-08
0.000676496
-1.49086e-08
0.000676901
-1.40937e-08
0.00067729
-1.32784e-08
0.000677662
-1.24564e-08
0.000678014
-1.16483e-08
0.000678344
-1.0867e-08
0.000678648
-1.00977e-08
0.000678924
-9.37131e-09
0.000679169
-8.67933e-09
0.000679379
-8.03847e-09
0.000679553
-7.44473e-09
0.000679684
-6.90128e-09
0.000679772
-6.43393e-09
0.00067981
-6.04994e-09
0.000679796
-5.74597e-09
0.000679723
-5.53174e-09
0.000679587
-5.39793e-09
0.000679382
-5.36903e-09
0.000679104
-5.43964e-09
0.000678743
-5.64686e-09
0.000678297
-5.93937e-09
0.000677752
-6.37194e-09
0.00067711
-6.92519e-09
0.000676347
-7.5996e-09
0.000675473
-8.43087e-09
0.000674453
-9.38069e-09
0.000673304
-1.05139e-08
0.000671977
-1.17688e-08
0.000670505
-1.32103e-08
-1.47443e-08
0.000668812
0.000666681
-1.54311e-08
0.000666723
-4.62083e-08
0.000666795
-7.68625e-08
0.000666894
-1.07104e-07
0.000667021
-1.36793e-07
0.000667175
-1.65802e-07
0.000667356
-1.94009e-07
0.000667563
-2.21299e-07
0.000667795
-2.47566e-07
0.00066805
-2.72708e-07
0.000668329
-2.96636e-07
0.000668629
-3.19266e-07
0.00066895
-3.40521e-07
0.00066929
-3.60333e-07
0.000669648
-3.78642e-07
0.000670022
-3.95389e-07
0.000670412
-4.10528e-07
0.000670814
-4.2401e-07
0.000671229
-4.358e-07
0.000671653
-4.45853e-07
0.000672087
-4.54144e-07
0.000672527
-4.60627e-07
0.000672972
-4.65284e-07
0.00067342
-4.68064e-07
0.00067387
-4.68957e-07
0.000674319
-4.67897e-07
0.000674766
-4.64883e-07
0.000675208
-4.59827e-07
0.000675645
-4.52741e-07
0.000676073
-4.43499e-07
0.00067649
-4.3214e-07
0.000676894
-4.18478e-07
0.000677283
-4.02598e-07
0.000677655
-3.8422e-07
0.000678007
-3.63509e-07
0.000678336
-3.40043e-07
0.00067864
-3.14118e-07
0.000678916
-2.85095e-07
0.000679161
-2.53493e-07
0.000679371
-2.1833e-07
0.000679544
-1.80497e-07
0.000679676
-1.38476e-07
0.000679763
-9.37694e-08
0.000679801
-4.40351e-08
0.000679787
8.35465e-09
0.000679713
6.81861e-08
0.000679578
1.30122e-07
0.000679372
2.00509e-07
0.000679094
2.72552e-07
0.000678732
3.56017e-07
0.000678287
4.39643e-07
0.000677741
5.39067e-07
0.000677098
6.35822e-07
0.000676336
7.55106e-07
0.000675461
8.66607e-07
0.00067444
1.01108e-06
0.000673291
1.13872e-06
0.000671963
1.3157e-06
0.00067049
1.45986e-06
1.67896e-06
0.000668797
0.000666681
-3.00538e-08
0.000666725
-9.01471e-08
0.000666798
-1.50129e-07
0.000666901
-2.09416e-07
0.000667032
-2.67724e-07
0.000667191
-3.2479e-07
0.000667377
-3.80365e-07
0.00066759
-4.34213e-07
0.000667829
-4.86119e-07
0.000668092
-5.35879e-07
0.000668378
-5.8331e-07
0.000668687
-6.28241e-07
0.000669017
-6.70521e-07
0.000669367
-7.1001e-07
0.000669735
-7.46587e-07
0.00067012
-7.80136e-07
0.00067052
-8.10564e-07
0.000670934
-8.37773e-07
0.000671359
-8.6169e-07
0.000671796
-8.82228e-07
0.000672241
-8.99331e-07
0.000672693
-9.12912e-07
0.000673151
-9.22927e-07
0.000673612
-9.29279e-07
0.000674075
-9.31937e-07
0.000674538
-9.30776e-07
0.000674999
-9.25783e-07
0.000675456
-9.16787e-07
0.000675907
-9.038e-07
0.00067635
-8.86583e-07
0.000676783
-8.6519e-07
0.000677204
-8.39274e-07
0.00067761
-8.08968e-07
0.000678
-7.7376e-07
0.00067837
-7.33918e-07
0.000678719
-6.88674e-07
0.000679043
-6.38531e-07
0.00067934
-5.82325e-07
0.000679608
-5.20951e-07
0.000679842
-4.52627e-07
0.000680041
-3.78904e-07
0.000680199
-2.97038e-07
0.000680315
-2.0969e-07
0.000680384
-1.12674e-07
0.000680403
-1.09367e-08
0.000680365
1.05849e-07
0.000680268
2.27155e-07
0.000680104
3.64405e-07
0.000679871
5.05562e-07
0.000679559
6.681e-07
0.000679167
8.32058e-07
0.000678681
1.02535e-06
0.000678101
1.2152e-06
0.00067741
1.44649e-06
0.000676611
1.66549e-06
0.000675677
1.94465e-06
0.00067462
2.19575e-06
0.0006734
2.53615e-06
0.000672039
2.82062e-06
3.23963e-06
0.000670479
0.000666682
-4.55857e-08
0.000666729
-1.36825e-07
0.000666807
-2.27959e-07
0.000666915
-3.18081e-07
0.000667054
-4.06744e-07
0.000667223
-4.93534e-07
0.000667421
-5.78063e-07
0.000667647
-6.59965e-07
0.000667899
-7.38906e-07
0.000668178
-8.14578e-07
0.000668481
-8.86703e-07
0.000668808
-9.55026e-07
0.000669157
-1.01932e-06
0.000669526
-1.0794e-06
0.000669915
-1.13506e-06
0.000670321
-1.18617e-06
0.000670743
-1.23257e-06
0.000671179
-1.27415e-06
0.000671628
-1.31079e-06
0.000672089
-1.34239e-06
0.000672558
-1.36886e-06
0.000673035
-1.3901e-06
0.000673518
-1.40603e-06
0.000674006
-1.41654e-06
0.000674495
-1.42157e-06
0.000674985
-1.42096e-06
0.000675474
-1.41468e-06
0.00067596
-1.40251e-06
0.000676441
-1.38444e-06
0.000676914
-1.36017e-06
0.000677379
-1.32974e-06
0.000677832
-1.2927e-06
0.000678273
-1.24918e-06
0.000678697
-1.19853e-06
0.000679104
-1.14104e-06
0.000679491
-1.07573e-06
0.000679856
-1.00318e-06
0.000680196
-9.21913e-07
0.000680508
-8.32967e-07
0.000680789
-7.34129e-07
0.000681038
-6.27207e-07
0.000681249
-5.08806e-07
0.000681422
-3.82053e-07
0.000681551
-2.41709e-07
0.000681633
-9.32571e-08
0.000681666
7.30739e-08
0.000681644
2.4931e-07
0.000681561
4.46764e-07
0.000681416
6.51303e-07
0.000681199
8.84204e-07
0.00068091
1.12165e-06
0.000680538
1.39743e-06
0.000680081
1.67239e-06
0.000679526
2.00068e-06
0.000678874
2.31806e-06
0.000678107
2.7117e-06
0.000677226
3.07628e-06
0.00067621
3.55245e-06
0.000675063
3.9672e-06
4.54768e-06
0.000673755
0.000666684
-6.2562e-08
0.000666735
-1.87861e-07
0.00066682
-3.13046e-07
0.000666939
-4.36839e-07
0.00066709
-5.58597e-07
0.000667275
-6.77728e-07
0.00066749
-7.93678e-07
0.000667736
-9.05939e-07
0.000668011
-1.01404e-06
0.000668314
-1.11758e-06
0.000668644
-1.21617e-06
0.000668998
-1.30949e-06
0.000669376
-1.39725e-06
0.000669776
-1.47919e-06
0.000670196
-1.55511e-06
0.000670635
-1.62481e-06
0.00067109
-1.68814e-06
0.000671561
-1.74496e-06
0.000672045
-1.79514e-06
0.000672542
-1.83857e-06
0.000673048
-1.87515e-06
0.000673563
-1.90478e-06
0.000674084
-1.92738e-06
0.00067461
-1.94282e-06
0.00067514
-1.95103e-06
0.000675671
-1.95186e-06
0.000676201
-1.94523e-06
0.000676729
-1.93094e-06
0.000677254
-1.90892e-06
0.000677773
-1.87887e-06
0.000678284
-1.84077e-06
0.000678785
-1.79417e-06
0.000679275
-1.73912e-06
0.000679752
-1.67497e-06
0.000680212
-1.60188e-06
0.000680656
-1.51891e-06
0.000681079
-1.42645e-06
0.00068148
-1.3231e-06
0.000681857
-1.20963e-06
0.000682207
-1.08394e-06
0.000682527
-9.47494e-07
0.000682815
-7.97094e-07
0.000683068
-6.35337e-07
0.000683284
-4.57344e-07
0.000683458
-2.67698e-07
0.000683591
-5.93451e-08
0.000683676
1.64394e-07
0.00068371
4.12965e-07
0.000683688
6.73085e-07
0.000683608
9.64393e-07
0.000683463
1.26597e-06
0.000683252
1.60865e-06
0.000682967
1.95777e-06
0.000682605
2.36255e-06
0.000682157
2.76589e-06
0.000681622
3.24668e-06
0.000680987
3.71123e-06
0.000680253
4.28622e-06
0.000679403
4.81781e-06
5.50915e-06
0.000678441
0.000666686
-8.16292e-08
0.000666743
-2.4521e-07
0.000666839
-4.08644e-07
0.000666972
-5.70192e-07
0.000667142
-7.28965e-07
0.000667349
-8.84143e-07
0.00066759
-1.03497e-06
0.000667865
-1.18077e-06
0.000668172
-1.32094e-06
0.000668509
-1.45493e-06
0.000668875
-1.5823e-06
0.000669268
-1.70266e-06
0.000669687
-1.81568e-06
0.000670129
-1.92107e-06
0.000670592
-2.01862e-06
0.000671076
-2.10813e-06
0.000671577
-2.18947e-06
0.000672094
-2.26249e-06
0.000672626
-2.3271e-06
0.000673171
-2.3832e-06
0.000673727
-2.43071e-06
0.000674291
-2.46954e-06
0.000674864
-2.49963e-06
0.000675442
-2.52087e-06
0.000676024
-2.53319e-06
0.000676608
-2.53646e-06
0.000677194
-2.53058e-06
0.000677778
-2.51538e-06
0.00067836
-2.49074e-06
0.000678938
-2.45642e-06
0.000679509
-2.41229e-06
0.000680073
-2.35802e-06
0.000680627
-2.29345e-06
0.00068117
-2.21813e-06
0.000681701
-2.13192e-06
0.000682216
-2.03419e-06
0.000682714
-1.92485e-06
0.000683194
-1.80299e-06
0.000683653
-1.66867e-06
0.00068409
-1.52058e-06
0.000684501
-1.35905e-06
0.000684886
-1.18213e-06
0.000685242
-9.90687e-07
0.000685566
-7.81835e-07
0.000685856
-5.5741e-07
0.00068611
-3.13198e-07
0.000686328
-5.35888e-08
0.000686506
2.35193e-07
0.000686637
5.41893e-07
0.000686724
8.77492e-07
0.000686758
1.23205e-06
0.000686743
1.6234e-06
0.000686667
2.03381e-06
0.000686538
2.49134e-06
0.000686338
2.96596e-06
0.000686082
3.50257e-06
0.000685742
4.05107e-06
0.000685345
4.68307e-06
0.000684848
5.31512e-06
6.06073e-06
0.000684296
0.000666689
-1.03623e-07
0.000666755
-3.11408e-07
0.000666865
-5.18959e-07
0.000667019
-7.23932e-07
0.000667215
-9.25099e-07