/*--------------------------------*- C++ -*----------------------------------*\
| =========                 |                                                 |
| \\      /  F ield         | OpenFOAM: The Open Source CFD Toolbox           |
|  \\    /   O peration     | Version:  2312                                  |
|   \\  /    A nd           | Website:  www.openfoam.com                      |
|    \\/     M anipulation  |                                                 |
\*---------------------------------------------------------------------------*/
FoamFile
{
    version     2.0;
    format      ascii;
    arch        "LSB;label=32;scalar=64";
    class       volVectorField;
    location    "111000";
    object      U;
}
// * * * * * * * * * * * * * * * * * * * * * * * * * * * * * * * * * * * * * //

dimensions      [0 1 -1 0 0 0 0];

internalField   nonuniform List<vector> 
10800
(
(0.000992484 4.94162e-06 0)
(0.000990039 1.24569e-05 0)
(0.000986874 1.74778e-05 0)
(0.000980503 2.0661e-05 0)
(0.000971092 2.27436e-05 0)
(0.000959805 2.42368e-05 0)
(0.000947707 2.53754e-05 0)
(0.000935334 2.62343e-05 0)
(0.000922828 2.68377e-05 0)
(0.000910167 2.72107e-05 0)
(0.000897307 2.73911e-05 0)
(0.000884243 2.74217e-05 0)
(0.000871012 2.73405e-05 0)
(0.00085767 2.71755e-05 0)
(0.000844267 2.69451e-05 0)
(0.000830842 2.66607e-05 0)
(0.000817421 2.63305e-05 0)
(0.000804022 2.5961e-05 0)
(0.00079066 2.55576e-05 0)
(0.00077735 2.51253e-05 0)
(0.000764107 2.46677e-05 0)
(0.000750947 2.41881e-05 0)
(0.000737884 2.36884e-05 0)
(0.000724931 2.31706e-05 0)
(0.000712102 2.26355e-05 0)
(0.00069941 2.20846e-05 0)
(0.000686867 2.1518e-05 0)
(0.000674484 2.09372e-05 0)
(0.000662277 2.03416e-05 0)
(0.000650255 1.9733e-05 0)
(0.000638433 1.91099e-05 0)
(0.000626822 1.84749e-05 0)
(0.000615436 1.78255e-05 0)
(0.000604285 1.71656e-05 0)
(0.000593385 1.64908e-05 0)
(0.000582744 1.58077e-05 0)
(0.000572382 1.51088e-05 0)
(0.000562301 1.44049e-05 0)
(0.000552526 1.36832e-05 0)
(0.000543053 1.29618e-05 0)
(0.000533918 1.22188e-05 0)
(0.000525097 1.14842e-05 0)
(0.000516656 1.07207e-05 0)
(0.000508526 9.97887e-06 0)
(0.000500841 9.1942e-06 0)
(0.000493424 8.45215e-06 0)
(0.00048658 7.64236e-06 0)
(0.000479856 6.9071e-06 0)
(0.000474012 6.06329e-06 0)
(0.00046784 5.33346e-06 0)
(0.000463376 4.44681e-06 0)
(0.000457251 3.67559e-06 0)
(0.00045522 2.78381e-06 0)
(0.000447507 1.72323e-06 0)
(0.000451039 1.1513e-06 0)
(0.000436667 -1.26174e-06 0)
(0.000455057 1.0728e-07 0)
(0.000419107 -7.7285e-06 0)
(0.000477432 2.02176e-06 0)
(0.000382714 -2.4498e-05 0)
(0.00100003 5.80124e-06 0)
(0.00100172 1.49898e-05 0)
(0.00100423 2.15186e-05 0)
(0.00100706 2.60797e-05 0)
(0.00100979 2.9436e-05 0)
(0.0010122 3.21157e-05 0)
(0.00101422 3.43664e-05 0)
(0.00101589 3.62745e-05 0)
(0.00101727 3.78728e-05 0)
(0.00101839 3.91917e-05 0)
(0.00101924 4.02727e-05 0)
(0.00101983 4.11616e-05 0)
(0.00102016 4.1899e-05 0)
(0.00102022 4.25149e-05 0)
(0.00102003 4.30292e-05 0)
(0.0010196 4.34548e-05 0)
(0.00101895 4.38002e-05 0)
(0.00101809 4.40722e-05 0)
(0.00101702 4.42763e-05 0)
(0.00101577 4.44173e-05 0)
(0.00101433 4.44988e-05 0)
(0.00101272 4.45233e-05 0)
(0.00101095 4.44931e-05 0)
(0.00100902 4.44091e-05 0)
(0.00100696 4.42724e-05 0)
(0.00100475 4.40829e-05 0)
(0.00100244 4.38417e-05 0)
(0.000999982 4.35475e-05 0)
(0.000997453 4.3202e-05 0)
(0.000994788 4.28023e-05 0)
(0.000992088 4.23518e-05 0)
(0.000989243 4.18448e-05 0)
(0.000986416 4.12883e-05 0)
(0.00098342 4.06716e-05 0)
(0.000980521 4.00084e-05 0)
(0.000977394 3.92792e-05 0)
(0.000974486 3.85099e-05 0)
(0.000971241 3.76645e-05 0)
(0.000968407 3.67916e-05 0)
(0.000965033 3.5825e-05 0)
(0.000962385 3.48543e-05 0)
(0.000958836 3.37584e-05 0)
(0.000956539 3.27008e-05 0)
(0.000952706 3.14615e-05 0)
(0.000951012 3.03371e-05 0)
(0.000946671 2.89284e-05 0)
(0.000945985 2.77716e-05 0)
(0.000940712 2.61457e-05 0)
(0.000941701 2.50155e-05 0)
(0.000934724 2.30854e-05 0)
(0.000938503 2.20816e-05 0)
(0.000928439 1.96924e-05 0)
(0.000936889 1.89812e-05 0)
(0.000921289 1.58688e-05 0)
(0.000937602 1.57112e-05 0)
(0.000912167 1.1464e-05 0)
(0.000941763 1.21946e-05 0)
(0.000899029 6.34132e-06 0)
(0.000951272 7.9826e-06 0)
(0.000878727 9.17039e-07 0)
(0.000999989 1.96137e-06 0)
(0.00100078 5.76062e-06 0)
(0.00100224 9.28359e-06 0)
(0.00100423 1.24464e-05 0)
(0.00100655 1.52464e-05 0)
(0.00100897 1.77286e-05 0)
(0.0010114 1.99478e-05 0)
(0.00101377 2.1947e-05 0)
(0.00101608 2.37534e-05 0)
(0.00101834 2.53838e-05 0)
(0.00102056 2.68514e-05 0)
(0.00102274 2.81694e-05 0)
(0.00102485 2.93524e-05 0)
(0.00102691 3.04141e-05 0)
(0.0010289 3.1367e-05 0)
(0.00103081 3.22209e-05 0)
(0.00103267 3.29839e-05 0)
(0.00103445 3.36616e-05 0)
(0.00103618 3.42598e-05 0)
(0.00103785 3.47815e-05 0)
(0.00103946 3.52315e-05 0)
(0.00104101 3.56108e-05 0)
(0.00104251 3.59237e-05 0)
(0.00104395 3.61692e-05 0)
(0.00104534 3.63518e-05 0)
(0.00104667 3.6468e-05 0)
(0.00104796 3.65236e-05 0)
(0.00104918 3.6512e-05 0)
(0.00105039 3.64416e-05 0)
(0.0010515 3.63014e-05 0)
(0.00105263 3.61047e-05 0)
(0.00105363 3.58337e-05 0)
(0.00105469 3.55095e-05 0)
(0.00105558 3.51043e-05 0)
(0.0010566 3.46515e-05 0)
(0.00105737 3.41074e-05 0)
(0.00105836 3.35253e-05 0)
(0.001059 3.2837e-05 0)
(0.00106002 3.21263e-05 0)
(0.00106049 3.12872e-05 0)
(0.00106159 3.04503e-05 0)
(0.00106186 2.94524e-05 0)
(0.00106312 2.84948e-05 0)
(0.0010631 2.7328e-05 0)
(0.00106467 2.62589e-05 0)
(0.00106423 2.49102e-05 0)
(0.00106629 2.3744e-05 0)
(0.00106523 2.21975e-05 0)
(0.00106807 2.09553e-05 0)
(0.00106606 1.91928e-05 0)
(0.00107012 1.7904e-05 0)
(0.00106665 1.59093e-05 0)
(0.00107259 1.46133e-05 0)
(0.00106685 1.23862e-05 0)
(0.00107565 1.11332e-05 0)
(0.00106641 8.72591e-06 0)
(0.00107959 7.57765e-06 0)
(0.00106497 5.19085e-06 0)
(0.00108482 4.17779e-06 0)
(0.00106206 2.3167e-06 0)
(0.00100001 1.74001e-06 0)
(0.00100047 5.15471e-06 0)
(0.00100128 8.41279e-06 0)
(0.00100239 1.14379e-05 0)
(0.00100375 1.41893e-05 0)
(0.00100526 1.6664e-05 0)
(0.00100689 1.88837e-05 0)
(0.00100859 2.0878e-05 0)
(0.00101034 2.26743e-05 0)
(0.00101213 2.42931e-05 0)
(0.00101395 2.57502e-05 0)
(0.0010158 2.70583e-05 0)
(0.00101766 2.82298e-05 0)
(0.00101954 2.92766e-05 0)
(0.00102142 3.02105e-05 0)
(0.0010233 3.10415e-05 0)
(0.00102518 3.17788e-05 0)
(0.00102706 3.24293e-05 0)
(0.00102894 3.29994e-05 0)
(0.00103081 3.34932e-05 0)
(0.00103268 3.39157e-05 0)
(0.00103454 3.42688e-05 0)
(0.0010364 3.45567e-05 0)
(0.00103826 3.47797e-05 0)
(0.00104011 3.49413e-05 0)
(0.00104195 3.50401e-05 0)
(0.0010438 3.50798e-05 0)
(0.00104563 3.50572e-05 0)
(0.00104746 3.49763e-05 0)
(0.00104927 3.48321e-05 0)
(0.00105111 3.46299e-05 0)
(0.0010529 3.43623e-05 0)
(0.00105472 3.40365e-05 0)
(0.00105649 3.36422e-05 0)
(0.00105831 3.31893e-05 0)
(0.00106005 3.26642e-05 0)
(0.00106187 3.20801e-05 0)
(0.00106357 3.14196e-05 0)
(0.00106539 3.06995e-05 0)
(0.00106705 2.98993e-05 0)
(0.00106889 2.90382e-05 0)
(0.00107049 2.80944e-05 0)
(0.00107237 2.70868e-05 0)
(0.00107389 2.59971e-05 0)
(0.00107583 2.48367e-05 0)
(0.00107726 2.36019e-05 0)
(0.00107929 2.2281e-05 0)
(0.00108059 2.09071e-05 0)
(0.00108278 1.94156e-05 0)
(0.00108391 1.79187e-05 0)
(0.00108632 1.62431e-05 0)
(0.0010872 1.46577e-05 0)
(0.00108994 1.27804e-05 0)
(0.00109048 1.11749e-05 0)
(0.00109369 9.07327e-06 0)
(0.00109374 7.57327e-06 0)
(0.00109762 5.21227e-06 0)
(0.00109696 4.02443e-06 0)
(0.00110178 1.31773e-06 0)
(0.00110008 7.30844e-07 0)
(0.001 1.15103e-06 0)
(0.00100023 3.42596e-06 0)
(0.00100067 5.63569e-06 0)
(0.00100134 7.7485e-06 0)
(0.0010022 9.74305e-06 0)
(0.00100324 1.1609e-05 0)
(0.00100441 1.33452e-05 0)
(0.0010057 1.49554e-05 0)
(0.00100706 1.64459e-05 0)
(0.00100849 1.78227e-05 0)
(0.00100998 1.90913e-05 0)
(0.00101151 2.02565e-05 0)
(0.00101307 2.13231e-05 0)
(0.00101467 2.22959e-05 0)
(0.00101629 2.318e-05 0)
(0.00101793 2.398e-05 0)
(0.00101959 2.47006e-05 0)
(0.00102126 2.53455e-05 0)
(0.00102294 2.59182e-05 0)
(0.00102463 2.64214e-05 0)
(0.00102633 2.68576e-05 0)
(0.00102803 2.72286e-05 0)
(0.00102975 2.7536e-05 0)
(0.00103146 2.77812e-05 0)
(0.00103318 2.79649e-05 0)
(0.00103491 2.80882e-05 0)
(0.00103664 2.81507e-05 0)
(0.00103837 2.81534e-05 0)
(0.00104011 2.80951e-05 0)
(0.00104185 2.7977e-05 0)
(0.00104359 2.77964e-05 0)
(0.00104533 2.75558e-05 0)
(0.00104708 2.72498e-05 0)
(0.00104882 2.68839e-05 0)
(0.00105057 2.64484e-05 0)
(0.00105231 2.59537e-05 0)
(0.00105406 2.53833e-05 0)
(0.00105579 2.4756e-05 0)
(0.00105754 2.40441e-05 0)
(0.00105927 2.3281e-05 0)
(0.00106101 2.24197e-05 0)
(0.00106274 2.15183e-05 0)
(0.00106448 2.04982e-05 0)
(0.00106621 1.94584e-05 0)
(0.00106793 1.82679e-05 0)
(0.00106966 1.70931e-05 0)
(0.00107138 1.57176e-05 0)
(0.00107312 1.44178e-05 0)
(0.00107482 1.28382e-05 0)
(0.0010766 1.14331e-05 0)
(0.00107828 9.6218e-06 0)
(0.00108012 8.14516e-06 0)
(0.00108178 6.0599e-06 0)
(0.00108375 4.56557e-06 0)
(0.0010854 2.14037e-06 0)
(0.0010876 7.18883e-07 0)
(0.00108923 -2.13798e-06 0)
(0.00109173 -3.33335e-06 0)
(0.00109324 -6.76133e-06 0)
(0.00109604 -7.51131e-06 0)
(0.001 9.24602e-07 0)
(0.00100017 2.76538e-06 0)
(0.00100051 4.57931e-06 0)
(0.00100101 6.34748e-06 0)
(0.00100165 8.05247e-06 0)
(0.00100243 9.68038e-06 0)
(0.00100332 1.1222e-05 0)
(0.00100431 1.26724e-05 0)
(0.00100538 1.403e-05 0)
(0.00100652 1.52954e-05 0)
(0.00100772 1.647e-05 0)
(0.00100897 1.75558e-05 0)
(0.00101026 1.85549e-05 0)
(0.0010116 1.947e-05 0)
(0.00101297 2.03037e-05 0)
(0.00101437 2.10593e-05 0)
(0.00101579 2.17393e-05 0)
(0.00101723 2.23468e-05 0)
(0.0010187 2.28841e-05 0)
(0.00102018 2.33539e-05 0)
(0.00102167 2.37577e-05 0)
(0.00102318 2.40978e-05 0)
(0.0010247 2.43751e-05 0)
(0.00102623 2.45914e-05 0)
(0.00102776 2.47468e-05 0)
(0.0010293 2.48432e-05 0)
(0.00103085 2.48794e-05 0)
(0.00103241 2.48577e-05 0)
(0.00103397 2.47755e-05 0)
(0.00103553 2.4636e-05 0)
(0.0010371 2.44344e-05 0)
(0.00103867 2.41758e-05 0)
(0.00104023 2.38523e-05 0)
(0.0010418 2.34723e-05 0)
(0.00104337 2.3023e-05 0)
(0.00104494 2.25182e-05 0)
(0.0010465 2.19378e-05 0)
(0.00104807 2.13043e-05 0)
(0.00104963 2.0586e-05 0)
(0.0010512 1.98198e-05 0)
(0.00105274 1.89554e-05 0)
(0.00105431 1.80525e-05 0)
(0.00105583 1.70319e-05 0)
(0.00105741 1.59893e-05 0)
(0.00105892 1.48001e-05 0)
(0.00106051 1.36165e-05 0)
(0.00106199 1.22425e-05 0)
(0.00106362 1.09198e-05 0)
(0.00106508 9.34034e-06 0)
(0.00106676 7.88621e-06 0)
(0.00106818 6.07427e-06 0)
(0.00106995 4.50685e-06 0)
(0.00107132 2.42649e-06 0)
(0.00107321 7.76908e-07 0)
(0.00107449 -1.63018e-06 0)
(0.00107661 -3.32222e-06 0)
(0.00107777 -6.1583e-06 0)
(0.00108023 -7.83444e-06 0)
(0.00108116 -1.12471e-05 0)
(0.00108395 -1.28044e-05 0)
(0.001 7.29759e-07 0)
(0.00100013 2.18309e-06 0)
(0.00100037 3.61727e-06 0)
(0.00100074 5.01963e-06 0)
(0.00100122 6.37878e-06 0)
(0.0010018 7.68539e-06 0)
(0.00100249 8.93257e-06 0)
(0.00100326 1.01158e-05 0)
(0.00100412 1.12326e-05 0)
(0.00100504 1.22817e-05 0)
(0.00100602 1.32631e-05 0)
(0.00100706 1.4177e-05 0)
(0.00100815 1.50242e-05 0)
(0.00100928 1.58057e-05 0)
(0.00101045 1.65222e-05 0)
(0.00101165 1.71752e-05 0)
(0.00101289 1.77658e-05 0)
(0.00101415 1.82954e-05 0)
(0.00101543 1.87651e-05 0)
(0.00101674 1.91763e-05 0)
(0.00101806 1.95296e-05 0)
(0.0010194 1.98264e-05 0)
(0.00102075 2.00669e-05 0)
(0.00102211 2.02522e-05 0)
(0.00102348 2.03819e-05 0)
(0.00102486 2.04573e-05 0)
(0.00102625 2.0477e-05 0)
(0.00102764 2.04427e-05 0)
(0.00102904 2.03519e-05 0)
(0.00103044 2.02069e-05 0)
(0.00103183 2.00035e-05 0)
(0.00103323 1.97456e-05 0)
(0.00103463 1.94264e-05 0)
(0.00103603 1.90523e-05 0)
(0.00103742 1.86126e-05 0)
(0.00103881 1.81178e-05 0)
(0.00104019 1.75516e-05 0)
(0.00104157 1.69311e-05 0)
(0.00104294 1.62309e-05 0)
(0.00104431 1.54786e-05 0)
(0.00104565 1.4635e-05 0)
(0.00104701 1.37444e-05 0)
(0.00104833 1.2746e-05 0)
(0.00104968 1.17105e-05 0)
(0.00105097 1.0543e-05 0)
(0.00105232 9.35574e-06 0)
(0.00105357 8.00098e-06 0)
(0.00105492 6.65584e-06 0)
(0.00105614 5.08958e-06 0)
(0.00105751 3.58128e-06 0)
(0.00105869 1.77023e-06 0)
(0.00106013 9.68393e-08 0)
(0.00106127 -2.0011e-06 0)
(0.00106282 -3.82795e-06 0)
(0.0010639 -6.263e-06 0)
(0.0010656 -8.21717e-06 0)
(0.00106657 -1.10709e-05 0)
(0.00106849 -1.31185e-05 0)
(0.00106924 -1.65241e-05 0)
(0.00107133 -1.86059e-05 0)
(0.001 5.80414e-07 0)
(0.0010001 1.73763e-06 0)
(0.00100029 2.88335e-06 0)
(0.00100058 4.0097e-06 0)
(0.00100095 5.10918e-06 0)
(0.00100142 6.17511e-06 0)
(0.00100197 7.20186e-06 0)
(0.0010026 8.18498e-06 0)
(0.0010033 9.12112e-06 0)
(0.00100406 1.0008e-05 0)
(0.00100488 1.0844e-05 0)
(0.00100576 1.16282e-05 0)
(0.00100669 1.236e-05 0)
(0.00100765 1.30392e-05 0)
(0.00100866 1.36655e-05 0)
(0.00100971 1.42391e-05 0)
(0.00101078 1.47601e-05 0)
(0.00101188 1.52288e-05 0)
(0.00101301 1.56455e-05 0)
(0.00101416 1.60108e-05 0)
(0.00101533 1.63246e-05 0)
(0.00101652 1.65877e-05 0)
(0.00101772 1.67998e-05 0)
(0.00101893 1.69616e-05 0)
(0.00102015 1.70724e-05 0)
(0.00102138 1.7133e-05 0)
(0.00102261 1.71422e-05 0)
(0.00102385 1.71008e-05 0)
(0.0010251 1.7007e-05 0)
(0.00102634 1.6862e-05 0)
(0.00102758 1.66628e-05 0)
(0.00102882 1.64112e-05 0)
(0.00103006 1.6103e-05 0)
(0.00103129 1.57412e-05 0)
(0.00103252 1.5319e-05 0)
(0.00103374 1.48419e-05 0)
(0.00103494 1.42996e-05 0)
(0.00103614 1.3701e-05 0)
(0.00103732 1.30309e-05 0)
(0.0010385 1.23036e-05 0)
(0.00103965 1.14961e-05 0)
(0.00104081 1.06315e-05 0)
(0.00104192 9.6748e-06 0)
(0.00104305 8.66315e-06 0)
(0.00104413 7.54297e-06 0)
(0.00104523 6.37338e-06 0)
(0.00104626 5.07213e-06 0)
(0.00104735 3.73299e-06 0)
(0.00104833 2.22908e-06 0)
(0.0010494 7.08356e-07 0)
(0.00105032 -1.02579e-06 0)
(0.00105141 -2.74158e-06 0)
(0.00105226 -4.74644e-06 0)
(0.00105339 -6.67552e-06 0)
(0.00105417 -9.00732e-06 0)
(0.00105538 -1.11636e-05 0)
(0.00105605 -1.38907e-05 0)
(0.00105736 -1.62779e-05 0)
(0.00105781 -1.94948e-05 0)
(0.00105914 -2.21024e-05 0)
(0.001 4.62557e-07 0)
(0.00100008 1.38549e-06 0)
(0.00100024 2.30096e-06 0)
(0.00100047 3.20359e-06 0)
(0.00100078 4.08815e-06 0)
(0.00100117 4.94975e-06 0)
(0.00100162 5.78401e-06 0)
(0.00100215 6.58722e-06 0)
(0.00100273 7.35626e-06 0)
(0.00100338 8.08865e-06 0)
(0.00100407 8.78232e-06 0)
(0.00100482 9.43565e-06 0)
(0.00100562 1.00474e-05 0)
(0.00100645 1.06167e-05 0)
(0.00100733 1.11429e-05 0)
(0.00100824 1.16256e-05 0)
(0.00100918 1.20644e-05 0)
(0.00101015 1.24592e-05 0)
(0.00101114 1.28099e-05 0)
(0.00101216 1.31164e-05 0)
(0.00101319 1.33787e-05 0)
(0.00101425 1.35967e-05 0)
(0.00101531 1.37703e-05 0)
(0.00101639 1.38994e-05 0)
(0.00101748 1.39836e-05 0)
(0.00101857 1.40229e-05 0)
(0.00101967 1.40166e-05 0)
(0.00102078 1.39645e-05 0)
(0.00102188 1.38656e-05 0)
(0.00102298 1.37198e-05 0)
(0.00102408 1.35255e-05 0)
(0.00102518 1.32827e-05 0)
(0.00102627 1.29889e-05 0)
(0.00102735 1.26446e-05 0)
(0.00102842 1.22463e-05 0)
(0.00102948 1.1795e-05 0)
(0.00103052 1.12857e-05 0)
(0.00103155 1.07205e-05 0)
(0.00103256 1.00921e-05 0)
(0.00103356 9.40468e-06 0)
(0.00103452 8.64736e-06 0)
(0.00103548 7.82753e-06 0)
(0.00103639 6.92924e-06 0)
(0.0010373 5.96484e-06 0)
(0.00103816 4.91072e-06 0)
(0.00103902 3.78702e-06 0)
(0.00103981 2.55844e-06 0)
(0.00104062 1.25756e-06 0)
(0.00104134 -1.68589e-07 0)
(0.00104211 -1.66633e-06 0)
(0.00104275 -3.31584e-06 0)
(0.00104348 -5.03185e-06 0)
(0.00104403 -6.93856e-06 0)
(0.00104473 -8.90168e-06 0)
(0.00104518 -1.11136e-05 0)
(0.00104587 -1.33588e-05 0)
(0.00104618 -1.59356e-05 0)
(0.00104687 -1.84971e-05 0)
(0.00104694 -2.15097e-05 0)
(0.00104753 -2.44122e-05 0)
(0.001 3.64951e-07 0)
(0.00100007 1.09347e-06 0)
(0.0010002 1.81687e-06 0)
(0.0010004 2.53135e-06 0)
(0.00100066 3.23317e-06 0)
(0.00100099 3.91872e-06 0)
(0.00100137 4.5847e-06 0)
(0.00100182 5.22813e-06 0)
(0.00100232 5.84639e-06 0)
(0.00100288 6.43724e-06 0)
(0.00100348 6.99873e-06 0)
(0.00100413 7.52926e-06 0)
(0.00100482 8.02749e-06 0)
(0.00100555 8.49232e-06 0)
(0.00100632 8.92291e-06 0)
(0.00100712 9.31855e-06 0)
(0.00100795 9.67869e-06 0)
(0.00100881 1.00029e-05 0)
(0.00100969 1.02907e-05 0)
(0.00101059 1.05418e-05 0)
(0.00101152 1.07559e-05 0)
(0.00101246 1.09328e-05 0)
(0.00101341 1.10719e-05 0)
(0.00101437 1.11731e-05 0)
(0.00101534 1.12359e-05 0)
(0.00101632 1.12599e-05 0)
(0.0010173 1.12445e-05 0)
(0.00101829 1.11891e-05 0)
(0.00101927 1.1093e-05 0)
(0.00102025 1.09554e-05 0)
(0.00102122 1.07755e-05 0)
(0.00102219 1.05521e-05 0)
(0.00102315 1.02842e-05 0)
(0.00102409 9.97031e-06 0)
(0.00102502 9.60923e-06 0)
(0.00102594 9.19908e-06 0)
(0.00102683 8.73839e-06 0)
(0.00102771 8.22472e-06 0)
(0.00102856 7.65652e-06 0)
(0.00102938 7.03045e-06 0)
(0.00103018 6.34508e-06 0)
(0.00103095 5.59575e-06 0)
(0.00103168 4.78147e-06 0)
(0.00103238 3.8956e-06 0)
(0.00103303 2.93824e-06 0)
(0.00103366 1.89965e-06 0)
(0.00103423 7.82173e-07 0)
(0.00103477 -4.28708e-07 0)
(0.00103524 -1.72609e-06 0)
(0.0010357 -3.13319e-06 0)
(0.00103606 -4.6367e-06 0)
(0.00103643 -6.27277e-06 0)
(0.00103666 -8.01477e-06 0)
(0.00103694 -9.91865e-06 0)
(0.00103702 -1.19364e-05 0)
(0.00103721 -1.41556e-05 0)
(0.0010371 -1.64931e-05 0)
(0.00103719 -1.90852e-05 0)
(0.00103681 -2.17906e-05 0)
(0.0010367 -2.48178e-05 0)
(0.001 2.81631e-07 0)
(0.00100006 8.44058e-07 0)
(0.00100017 1.40298e-06 0)
(0.00100035 1.95566e-06 0)
(0.00100057 2.4994e-06 0)
(0.00100086 3.03155e-06 0)
(0.00100119 3.54965e-06 0)
(0.00100158 4.0514e-06 0)
(0.00100202 4.53475e-06 0)
(0.00100251 4.99784e-06 0)
(0.00100304 5.43905e-06 0)
(0.00100361 5.85696e-06 0)
(0.00100422 6.25034e-06 0)
(0.00100487 6.61813e-06 0)
(0.00100556 6.95944e-06 0)
(0.00100627 7.27347e-06 0)
(0.00100701 7.55957e-06 0)
(0.00100778 7.81714e-06 0)
(0.00100857 8.04569e-06 0)
(0.00100938 8.24469e-06 0)
(0.00101021 8.41376e-06 0)
(0.00101106 8.55239e-06 0)
(0.00101191 8.66022e-06 0)
(0.00101278 8.73669e-06 0)
(0.00101366 8.78146e-06 0)
(0.00101453 8.79381e-06 0)
(0.00101542 8.77338e-06 0)
(0.0010163 8.71925e-06 0)
(0.00101718 8.63105e-06 0)
(0.00101805 8.50753e-06 0)
(0.00101891 8.34837e-06 0)
(0.00101977 8.15181e-06 0)
(0.00102061 7.9177e-06 0)
(0.00102144 7.64356e-06 0)
(0.00102225 7.32959e-06 0)
(0.00102303 6.97222e-06 0)
(0.0010238 6.57234e-06 0)
(0.00102453 6.12474e-06 0)
(0.00102524 5.63159e-06 0)
(0.00102592 5.08512e-06 0)
(0.00102655 4.48975e-06 0)
(0.00102716 3.83373e-06 0)
(0.00102771 3.1253e-06 0)
(0.00102823 2.3465e-06 0)
(0.00102869 1.51201e-06 0)
(0.00102911 5.94019e-07 0)
(0.00102946 -3.81918e-07 0)
(0.00102976 -1.45887e-06 0)
(0.00102999 -2.59409e-06 0)
(0.00103017 -3.85647e-06 0)
(0.00103025 -5.17447e-06 0)
(0.00103029 -6.65666e-06 0)
(0.00103019 -8.18405e-06 0)
(0.00103008 -9.92883e-06 0)
(0.00102979 -1.16953e-05 0)
(0.00102951 -1.37578e-05 0)
(0.00102898 -1.57959e-05 0)
(0.0010285 -1.82469e-05 0)
(0.00102766 -2.05871e-05 0)
(0.00102689 -2.35108e-05 0)
(0.001 2.0856e-07 0)
(0.00100005 6.25255e-07 0)
(0.00100015 1.03964e-06 0)
(0.00100031 1.44979e-06 0)
(0.00100051 1.85377e-06 0)
(0.00100076 2.24971e-06 0)
(0.00100106 2.6358e-06 0)
(0.00100141 3.01037e-06 0)
(0.0010018 3.37187e-06 0)
(0.00100224 3.71887e-06 0)
(0.00100272 4.05012e-06 0)
(0.00100323 4.36445e-06 0)
(0.00100379 4.66084e-06 0)
(0.00100437 4.93837e-06 0)
(0.00100499 5.19624e-06 0)
(0.00100564 5.43373e-06 0)
(0.00100631 5.6502e-06 0)
(0.00100701 5.84505e-06 0)
(0.00100773 6.0178e-06 0)
(0.00100847 6.16789e-06 0)
(0.00100922 6.29495e-06 0)
(0.00100999 6.39841e-06 0)
(0.00101077 6.47795e-06 0)
(0.00101156 6.53296e-06 0)
(0.00101236 6.56314e-06 0)
(0.00101315 6.56773e-06 0)
(0.00101395 6.5465e-06 0)
(0.00101475 6.49844e-06 0)
(0.00101554 6.4234e-06 0)
(0.00101633 6.32e-06 0)
(0.0010171 6.18828e-06 0)
(0.00101787 6.02626e-06 0)
(0.00101861 5.83434e-06 0)
(0.00101934 5.60966e-06 0)
(0.00102005 5.35324e-06 0)
(0.00102073 5.06091e-06 0)
(0.00102138 4.73477e-06 0)
(0.001022 4.3686e-06 0)
(0.00102259 3.9664e-06 0)
(0.00102314 3.51875e-06 0)
(0.00102364 3.03286e-06 0)
(0.0010241 2.49425e-06 0)
(0.00102451 1.91552e-06 0)
(0.00102486 1.27418e-06 0)
(0.00102516 5.91756e-07 0)
(0.00102539 -1.67136e-07 0)
(0.00102555 -9.66363e-07 0)
(0.00102565 -1.86152e-06 0)
(0.00102566 -2.79359e-06 0)
(0.00102559 -3.85035e-06 0)
(0.00102542 -4.93409e-06 0)
(0.00102517 -6.18434e-06 0)
(0.00102478 -7.44057e-06 0)
(0.00102432 -8.92582e-06 0)
(0.00102369 -1.03773e-05 0)
(0.00102299 -1.21527e-05 0)
(0.00102207 -1.38224e-05 0)
(0.00102108 -1.5961e-05 0)
(0.00101979 -1.78655e-05 0)
(0.00101843 -2.04591e-05 0)
(0.001 1.4274e-07 0)
(0.00100005 4.28121e-07 0)
(0.00100014 7.12151e-07 0)
(0.00100028 9.93546e-07 0)
(0.00100047 1.27102e-06 0)
(0.0010007 1.54329e-06 0)
(0.00100097 1.80916e-06 0)
(0.00100129 2.06745e-06 0)
(0.00100165 2.31711e-06 0)
(0.00100205 2.55712e-06 0)
(0.00100249 2.78659e-06 0)
(0.00100297 3.00465e-06 0)
(0.00100347 3.21056e-06 0)
(0.00100402 3.40361e-06 0)
(0.00100459 3.58318e-06 0)
(0.00100518 3.74869e-06 0)
(0.00100581 3.89964e-06 0)
(0.00100645 4.03552e-06 0)
(0.00100712 4.15593e-06 0)
(0.00100781 4.26041e-06 0)
(0.0010085 4.34864e-06 0)
(0.00100922 4.42012e-06 0)
(0.00100994 4.4746e-06 0)
(0.00101067 4.51153e-06 0)
(0.00101141 4.5307e-06 0)
(0.00101214 4.53144e-06 0)
(0.00101288 4.5136e-06 0)
(0.00101361 4.47629e-06 0)
(0.00101434 4.41949e-06 0)
(0.00101506 4.34197e-06 0)
(0.00101576 4.2439e-06 0)
(0.00101646 4.12354e-06 0)
(0.00101713 3.98142e-06 0)
(0.00101778 3.81502e-06 0)
(0.00101841 3.6255e-06 0)
(0.001019 3.40911e-06 0)
(0.00101957 3.16812e-06 0)
(0.0010201 2.89688e-06 0)
(0.00102059 2.59951e-06 0)
(0.00102104 2.26739e-06 0)
(0.00102144 1.90772e-06 0)
(0.00102178 1.50721e-06 0)
(0.00102207 1.07818e-06 0)
(0.0010223 5.99942e-07 0)
(0.00102246 9.31285e-08 0)
(0.00102255 -4.74465e-07 0)
(0.00102256 -1.06874e-06 0)
(0.00102249 -1.74157e-06 0)
(0.00102232 -2.43602e-06 0)
(0.00102205 -3.23428e-06 0)
(0.00102167 -4.04265e-06 0)
(0.00102118 -4.99241e-06 0)
(0.00102056 -5.92995e-06 0)
(0.00101981 -7.06591e-06 0)
(0.0010189 -8.14878e-06 0)
(0.00101785 -9.51778e-06 0)
(0.0010166 -1.0761e-05 0)
(0.00101519 -1.24263e-05 0)
(0.00101353 -1.38375e-05 0)
(0.00101168 -1.58809e-05 0)
(0.001 8.17774e-08 0)
(0.00100005 2.45512e-07 0)
(0.00100013 4.08714e-07 0)
(0.00100026 5.70652e-07 0)
(0.00100044 7.30585e-07 0)
(0.00100066 8.8778e-07 0)
(0.00100092 1.04153e-06 0)
(0.00100122 1.19116e-06 0)
(0.00100156 1.33604e-06 0)
(0.00100193 1.47557e-06 0)
(0.00100235 1.6092e-06 0)
(0.00100279 1.73641e-06 0)
(0.00100327 1.85675e-06 0)
(0.00100379 1.96976e-06 0)
(0.00100433 2.07506e-06 0)
(0.00100489 2.17226e-06 0)
(0.00100548 2.26104e-06 0)
(0.00100609 2.34107e-06 0)
(0.00100673 2.41208e-06 0)
(0.00100737 2.47375e-06 0)
(0.00100804 2.52586e-06 0)
(0.00100871 2.56808e-06 0)
(0.0010094 2.60023e-06 0)
(0.00101009 2.62193e-06 0)
(0.00101078 2.63305e-06 0)
(0.00101148 2.63311e-06 0)
(0.00101217 2.62204e-06 0)
(0.00101286 2.59922e-06 0)
(0.00101355 2.56466e-06 0)
(0.00101422 2.5175e-06 0)
(0.00101488 2.45791e-06 0)
(0.00101552 2.38469e-06 0)
(0.00101614 2.29826e-06 0)
(0.00101674 2.19688e-06 0)
(0.00101731 2.08143e-06 0)
(0.00101785 1.94932e-06 0)
(0.00101836 1.80223e-06 0)
(0.00101883 1.63625e-06 0)
(0.00101925 1.45437e-06 0)
(0.00101963 1.25062e-06 0)
(0.00101995 1.03018e-06 0)
(0.00102022 7.83834e-07 0)
(0.00102043 5.20342e-07 0)
(0.00102057 2.25349e-07 0)
(0.00102064 -8.64418e-08 0)
(0.00102063 -4.37599e-07 0)
(0.00102053 -8.0382e-07 0)
(0.00102033 -1.22142e-06 0)
(0.00102004 -1.65016e-06 0)
(0.00101963 -2.14757e-06 0)
(0.00101911 -2.64733e-06 0)
(0.00101845 -3.24159e-06 0)
(0.00101765 -3.82166e-06 0)
(0.0010167 -4.5358e-06 0)
(0.00101559 -5.20587e-06 0)
(0.00101429 -6.0713e-06 0)
(0.0010128 -6.83979e-06 0)
(0.0010111 -7.89953e-06 0)
(0.00100915 -8.76918e-06 0)
(0.00100697 -1.00796e-05 0)
(0.001 2.36454e-08 0)
(0.00100004 7.13644e-08 0)
(0.00100013 1.19291e-07 0)
(0.00100026 1.67197e-07 0)
(0.00100042 2.14844e-07 0)
(0.00100064 2.61995e-07 0)
(0.00100089 3.08419e-07 0)
(0.00100118 3.53895e-07 0)
(0.00100151 3.98215e-07 0)
(0.00100187 4.41177e-07 0)
(0.00100227 4.82596e-07 0)
(0.00100271 5.22291e-07 0)
(0.00100318 5.60098e-07 0)
(0.00100367 5.95859e-07 0)
(0.0010042 6.2943e-07 0)
(0.00100475 6.60669e-07 0)
(0.00100532 6.89451e-07 0)
(0.00100591 7.15646e-07 0)
(0.00100653 7.39147e-07 0)
(0.00100716 7.59826e-07 0)
(0.0010078 7.7759e-07 0)
(0.00100846 7.92305e-07 0)
(0.00100912 8.0389e-07 0)
(0.00100979 8.12194e-07 0)
(0.00101047 8.17148e-07 0)
(0.00101114 8.18569e-07 0)
(0.00101182 8.16408e-07 0)
(0.00101249 8.10429e-07 0)
(0.00101315 8.00617e-07 0)
(0.00101379 7.86653e-07 0)
(0.00101443 7.68577e-07 0)
(0.00101505 7.45944e-07 0)
(0.00101564 7.18897e-07 0)
(0.00101621 6.86792e-07 0)
(0.00101676 6.49942e-07 0)
(0.00101727 6.074e-07 0)
(0.00101775 5.5977e-07 0)
(0.00101818 5.0563e-07 0)
(0.00101857 4.46067e-07 0)
(0.00101892 3.78925e-07 0)
(0.0010192 3.06079e-07 0)
(0.00101943 2.24222e-07 0)
(0.0010196 1.36528e-07 0)
(0.00101969 3.78325e-08 0)
(0.00101971 -6.65219e-08 0)
(0.00101965 -1.84947e-07 0)
(0.00101949 -3.08464e-07 0)
(0.00101924 -4.50035e-07 0)
(0.00101888 -5.95226e-07 0)
(0.0010184 -7.64694e-07 0)
(0.00101779 -9.34571e-07 0)
(0.00101705 -1.13791e-06 0)
(0.00101616 -1.33564e-06 0)
(0.00101511 -1.58097e-06 0)
(0.00101388 -1.80984e-06 0)
(0.00101247 -2.10827e-06 0)
(0.00101084 -2.37107e-06 0)
(0.00100899 -2.73788e-06 -3.93427e-38)
(0.00100689 -3.03527e-06 0)
(0.00100453 -3.49053e-06 0)
(0.001 -3.35373e-08 0)
(0.00100004 -9.99468e-08 0)
(0.00100013 -1.65433e-07 0)
(0.00100026 -2.29736e-07 0)
(0.00100042 -2.92604e-07 0)
(0.00100064 -3.53792e-07 0)
(0.00100089 -4.13066e-07 0)
(0.00100118 -4.70203e-07 0)
(0.00100151 -5.24994e-07 0)
(0.00100187 -5.77248e-07 0)
(0.00100227 -6.2679e-07 0)
(0.00100271 -6.7346e-07 0)
(0.00100317 -7.17116e-07 0)
(0.00100367 -7.57627e-07 0)
(0.00100419 -7.94884e-07 0)
(0.00100474 -8.2878e-07 0)
(0.00100532 -8.59234e-07 0)
(0.00100591 -8.86158e-07 0)
(0.00100652 -9.09493e-07 0)
(0.00100715 -9.2916e-07 0)
(0.0010078 -9.4512e-07 0)
(0.00100845 -9.57295e-07 0)
(0.00100912 -9.65659e-07 0)
(0.00100979 -9.70124e-07 0)
(0.00101046 -9.70682e-07 0)
(0.00101114 -9.67212e-07 0)
(0.00101181 -9.59729e-07 0)
(0.00101248 -9.48063e-07 0)
(0.00101314 -9.32259e-07 0)
(0.00101379 -9.12067e-07 0)
(0.00101442 -8.8759e-07 0)
(0.00101504 -8.5845e-07 0)
(0.00101563 -8.24846e-07 0)
(0.0010162 -7.86209e-07 0)
(0.00101675 -7.42904e-07 0)
(0.00101726 -6.94057e-07 0)
(0.00101773 -6.40319e-07 0)
(0.00101817 -5.80345e-07 0)
(0.00101856 -5.15258e-07 0)
(0.0010189 -4.42981e-07 0)
(0.00101919 -3.65413e-07 0)
(0.00101942 -2.7933e-07 0)
(0.00101959 -1.87914e-07 0)
(0.00101968 -8.60988e-08 0)
(0.0010197 2.07831e-08 0)
(0.00101963 1.40807e-07 0)
(0.00101948 2.65316e-07 0)
(0.00101922 4.07113e-07 0)
(0.00101886 5.51785e-07 0)
(0.00101838 7.19767e-07 0)
(0.00101778 8.87294e-07 0)
(0.00101704 1.08723e-06 0)
(0.00101615 1.28061e-06 0)
(0.00101509 1.5205e-06 0)
(0.00101387 1.74286e-06 0)
(0.00101245 2.03365e-06 0)
(0.00101082 2.28754e-06 0)
(0.00100897 2.64439e-06 3.93427e-38)
(0.00100687 2.93025e-06 0)
(0.00100451 3.37333e-06 0)
(0.001 -9.15778e-08 0)
(0.00100005 -2.73829e-07 0)
(0.00100013 -4.54421e-07 0)
(0.00100026 -6.32591e-07 0)
(0.00100044 -8.07584e-07 0)
(0.00100065 -9.78659e-07 0)
(0.00100091 -1.14511e-06 0)
(0.00100121 -1.30626e-06 0)
(0.00100155 -1.46147e-06 0)
(0.00100193 -1.61017e-06 0)
(0.00100234 -1.75181e-06 0)
(0.00100279 -1.8859e-06 0)
(0.00100327 -2.01199e-06 0)
(0.00100378 -2.12967e-06 0)
(0.00100432 -2.23858e-06 0)
(0.00100488 -2.33837e-06 0)
(0.00100547 -2.42877e-06 0)
(0.00100608 -2.50949e-06 0)
(0.00100671 -2.5803e-06 0)
(0.00100736 -2.64093e-06 0)
(0.00100802 -2.69122e-06 0)
(0.00100869 -2.73089e-06 0)
(0.00100938 -2.75982e-06 0)
(0.00101007 -2.77769e-06 0)
(0.00101076 -2.78442e-06 0)
(0.00101145 -2.77961e-06 0)
(0.00101215 -2.76324e-06 0)
(0.00101284 -2.73476e-06 0)
(0.00101352 -2.69423e-06 0)
(0.00101419 -2.64087e-06 0)
(0.00101485 -2.57491e-06 0)
(0.00101549 -2.49521e-06 0)
(0.00101611 -2.40225e-06 0)
(0.00101671 -2.29437e-06 0)
(0.00101728 -2.17249e-06 0)
(0.00101782 -2.03411e-06 0)
(0.00101832 -1.88094e-06 0)
(0.00101879 -1.70916e-06 0)
(0.00101921 -1.52177e-06 0)
(0.00101959 -1.31293e-06 0)
(0.00101992 -1.08778e-06 0)
(0.00102019 -8.37271e-07 0)
(0.00102039 -5.70088e-07 0)
(0.00102053 -2.72085e-07 0)
(0.0010206 4.22204e-08 0)
(0.00102058 3.95194e-07 0)
(0.00102048 7.6253e-07 0)
(0.00102029 1.18035e-06 0)
(0.00101999 1.60863e-06 0)
(0.00101959 2.10464e-06 0)
(0.00101906 2.60223e-06 0)
(0.0010184 3.19323e-06 0)
(0.0010176 3.76919e-06 0)
(0.00101665 4.47806e-06 0)
(0.00101553 5.14192e-06 0)
(0.00101424 6e-06 0)
(0.00101274 6.75996e-06 0)
(0.00101104 7.81019e-06 0)
(0.00100909 8.66878e-06 0)
(0.00100691 9.96774e-06 0)
(0.001 -1.52317e-07 0)
(0.00100005 -4.5579e-07 0)
(0.00100014 -7.56808e-07 0)
(0.00100028 -1.05406e-06 0)
(0.00100046 -1.34623e-06 0)
(0.00100069 -1.63206e-06 0)
(0.00100097 -1.91032e-06 0)
(0.00100129 -2.17986e-06 0)
(0.00100165 -2.4396e-06 0)
(0.00100205 -2.68855e-06 0)
(0.00100248 -2.92582e-06 0)
(0.00100296 -3.15057e-06 0)
(0.00100346 -3.36208e-06 0)
(0.001004 -3.55966e-06 0)
(0.00100457 -3.74273e-06 0)
(0.00100517 -3.91074e-06 0)
(0.00100579 -4.06323e-06 0)
(0.00100643 -4.19974e-06 0)
(0.0010071 -4.31992e-06 0)
(0.00100778 -4.42335e-06 0)
(0.00100848 -4.50975e-06 0)
(0.00100919 -4.57869e-06 0)
(0.00100991 -4.62998e-06 0)
(0.00101064 -4.66311e-06 0)
(0.00101137 -4.67794e-06 0)
(0.00101211 -4.67386e-06 0)
(0.00101284 -4.65079e-06 0)
(0.00101357 -4.60789e-06 0)
(0.0010143 -4.5452e-06 0)
(0.00101501 -4.46157e-06 0)
(0.00101572 -4.35721e-06 0)
(0.00101641 -4.23046e-06 0)
(0.00101708 -4.08191e-06 0)
(0.00101773 -3.9091e-06 0)
(0.00101835 -3.71323e-06 0)
(0.00101895 -3.49066e-06 0)
(0.00101951 -3.24365e-06 0)
(0.00102004 -2.96669e-06 0)
(0.00102053 -2.66385e-06 0)
(0.00102098 -2.32669e-06 0)
(0.00102137 -1.96234e-06 0)
(0.00102172 -1.55768e-06 0)
(0.00102201 -1.12496e-06 0)
(0.00102224 -6.43653e-07 0)
(0.0010224 -1.3437e-07 0)
(0.00102248 4.35241e-07 0)
(0.00102249 1.0308e-06 0)
(0.00102241 1.70389e-06 0)
(0.00102224 2.39806e-06 0)
(0.00102198 3.1951e-06 0)
(0.00102159 4.00174e-06 0)
(0.0010211 4.9486e-06 0)
(0.00102047 5.88257e-06 0)
(0.00101973 7.01369e-06 0)