/*--------------------------------*- C++ -*----------------------------------*\
| =========                 |                                                 |
| \\      /  F ield         | OpenFOAM: The Open Source CFD Toolbox           |
|  \\    /   O peration     | Version:  2312                                  |
|   \\  /    A nd           | Website:  www.openfoam.com                      |
|    \\/     M anipulation  |                                                 |
\*---------------------------------------------------------------------------*/
FoamFile
{
    version     2.0;
    format      ascii;
    arch        "LSB;label=32;scalar=64";
    class       surfaceScalarField;
    location    "11000";
    object      phi;
}
// * * * * * * * * * * * * * * * * * * * * * * * * * * * * * * * * * * * * * //

dimensions      [0 3 -1 0 0 0 0];

oriented        oriented;

internalField   nonuniform List<scalar> 
21240
(
0.000664976
1.69033e-06
0.00066108
3.8966e-06
0.000655769
5.311e-06
0.000649547
6.22195e-06
0.000642691
6.85551e-06
0.000635345
7.34658e-06
0.000627599
7.74535e-06
0.000619535
8.06428e-06
0.000611225
8.3096e-06
0.000602735
8.49074e-06
0.000594116
8.61917e-06
0.000585409
8.70643e-06
0.000576646
8.76281e-06
0.000567852
8.79462e-06
0.000559047
8.8045e-06
0.000550252
8.79472e-06
0.000541484
8.76801e-06
0.000532759
8.72584e-06
0.000524091
8.6679e-06
0.000515498
8.59264e-06
0.000506998
8.50022e-06
0.000498603
8.3952e-06
0.000490321
8.28176e-06
0.000482166
8.1553e-06
0.000474161
8.00441e-06
0.000466336
7.8249e-06
0.000458709
7.6276e-06
0.000451281
7.42778e-06
0.000444051
7.23027e-06
0.00043703
7.02077e-06
0.000430254
6.77552e-06
0.000423783
6.47101e-06
0.000417686
6.09755e-06
0.000412027
5.65884e-06
0.000406855
5.17214e-06
0.000402203
4.65218e-06
0.000398086
4.11622e-06
0.000394521
3.56506e-06
0.000391513
3.00871e-06
0.000389068
2.44492e-06
0.000387175
1.89294e-06
0.000385819
1.3559e-06
0.000384949
8.6961e-07
0.000384525
4.24338e-07
0.000384461
6.40113e-08
0.0003847
-2.3865e-07
0.000385142
-4.4231e-07
0.000385765
-6.22846e-07
0.000386449
-6.84473e-07
0.000387236
-7.86895e-07
0.00038797
-7.34105e-07
0.000388798
-8.28227e-07
0.000389452
-6.53343e-07
0.000390284
-8.32397e-07
0.000390739
-4.54911e-07
0.000391621
-8.82055e-07
0.000391678
-5.71389e-08
0.000392805
-1.1272e-06
0.000392003
8.02642e-07
-1.83946e-06
0.000393842
0.000667557
7.9992e-07
0.000669126
2.32808e-06
0.000670866
3.57027e-06
0.000672548
4.54015e-06
0.000674092
5.31192e-06
0.000675484
5.95446e-06
0.00067672
6.50936e-06
0.00067779
6.99442e-06
0.000678683
7.41623e-06
0.000679394
7.77951e-06
0.000679923
8.09004e-06
0.000680276
8.35417e-06
0.000680461
8.57789e-06
0.000680489
8.76627e-06
0.000680369
8.92403e-06
0.000680109
9.05518e-06
0.000679716
9.16117e-06
0.000679201
9.24063e-06
0.000678576
9.29337e-06
0.000677846
9.3218e-06
0.000677018
9.3284e-06
0.0006761
9.31328e-06
0.000675107
9.27457e-06
0.000674054
9.20862e-06
0.000672947
9.11178e-06
0.000671787
8.9846e-06
0.000670581
8.83353e-06
0.000669346
8.66258e-06
0.000668108
8.46816e-06
0.000666894
8.23506e-06
0.000665718
7.9512e-06
0.000664579
7.61027e-06
0.000663455
7.22145e-06
0.000662316
6.79834e-06
0.000661129
6.35923e-06
0.000659874
5.90726e-06
0.000658545
5.44476e-06
0.000657161
4.94912e-06
0.000655754
4.41563e-06
0.000654375
3.82367e-06
0.000653076
3.1922e-06
0.00065191
2.52148e-06
0.000650916
1.86445e-06
0.000650121
1.2188e-06
0.000649527
6.57636e-07
0.00064914
1.491e-07
0.000648954
-2.56695e-07
0.00064895
-6.19215e-07
0.000649094
-8.28417e-07
0.000649356
-1.04844e-06
0.000649726
-1.10389e-06
0.000650142
-1.24469e-06
0.000650665
-1.176e-06
0.000651127
-1.29458e-06
0.000651807
-1.13463e-06
0.000652181
-1.25596e-06
0.000653128
-1.00452e-06
0.000653111
-1.10993e-06
0.000654717
-8.03388e-07
-7.54811e-07
0.000653632
0.000666952
5.14488e-07
0.000667823
1.45706e-06
0.000669069
2.32469e-06
0.000670502
3.10723e-06
0.000672013
3.80028e-06
0.000673556
4.4115e-06
0.000675113
4.95303e-06
0.000676671
5.43558e-06
0.000678221
5.86649e-06
0.00067975
6.25067e-06
0.000681248
6.59185e-06
0.000682709
6.893e-06
0.000684131
7.15666e-06
0.000685511
7.38556e-06
0.000686852
7.58306e-06
0.000688155
7.75251e-06
0.00068942
7.89577e-06
0.000690648
8.01254e-06
0.000691839
8.10231e-06
0.000692995
8.16634e-06
0.000694116
8.20719e-06
0.000695203
8.22627e-06
0.000696255
8.22225e-06
0.000697272
8.19175e-06
0.000698253
8.13134e-06
0.000699196
8.04108e-06
0.000700104
7.92532e-06
0.000700978
7.78933e-06
0.000701812
7.63349e-06
0.000702598
7.44972e-06
0.000703323
7.22634e-06
0.000703978
6.95477e-06
0.000704564
6.63563e-06
0.000705082
6.28004e-06
0.000705538
5.90354e-06
0.000705924
5.52076e-06
0.000706231
5.13841e-06
0.000706427
4.75277e-06
0.000706489
4.35411e-06
0.000706382
3.93066e-06
0.0007061
3.47388e-06
0.000705635
2.98668e-06
0.000705025
2.47435e-06
0.000704288
1.95573e-06
0.000703502
1.44345e-06
0.000702691
9.59753e-07
0.000701927
5.07817e-07
0.0007012
1.07422e-07
0.000700611
-2.3902e-07
0.000700087
-5.24637e-07
0.000699774
-7.90657e-07
0.000699513
-9.84137e-07
0.000699527
-1.19011e-06
0.000699539
-1.30608e-06
0.000699887
-1.48303e-06
0.00070015
-1.51881e-06
0.000700846
-1.7003e-06
0.000701361
-1.62477e-06
0.000702426
-1.86859e-06
-1.60783e-06
0.000703279
0.000666854
3.26692e-07
0.000667311
1.00039e-06
0.000667978
1.65804e-06
0.000668806
2.2788e-06
0.000669753
2.85326e-06
0.000670786
3.37846e-06
0.000671883
3.85589e-06
0.00067303
4.28892e-06
0.000674215
4.68107e-06
0.000675431
5.03548e-06
0.000676668
5.35475e-06
0.00067792
5.64074e-06
0.000679182
5.89468e-06
0.00068045
6.11793e-06
0.00068172
6.31262e-06
0.000682992
6.48102e-06
0.000684263
6.62443e-06
0.000685533
6.74285e-06
0.000686799
6.83607e-06
0.00068806
6.90513e-06
0.000689315
6.9521e-06
0.000690563
6.9784e-06
0.000691802
6.98289e-06
0.000693031
6.9629e-06
0.000694246
6.91621e-06
0.000695443
6.84394e-06
0.000696619
6.74935e-06
0.000697772
6.63639e-06
0.000698901
6.50462e-06
0.000700001
6.35001e-06
0.000701063
6.16446e-06
0.000702073
5.94442e-06
0.000703019
5.69025e-06
0.000703885
5.41351e-06
0.000704663
5.12558e-06
0.000705341
4.84259e-06
0.000705912
4.56729e-06
0.000706362
4.30297e-06
0.000706683
4.03356e-06
0.000706859
3.75391e-06
0.000706893
3.44047e-06
0.000706781
3.09877e-06
0.000706545
2.70984e-06
0.0007062
2.3011e-06
0.000705789
1.8544e-06
0.00070533
1.41884e-06
0.000704878
9.6003e-07
0.000704437
5.48262e-07
0.000704077
1.20966e-07
0.000703797
-2.45078e-07
0.000703656
-6.49054e-07
0.000703609
-9.37803e-07
0.000703731
-1.31198e-06
0.000703949
-1.52397e-06
0.000704362
-1.89573e-06
0.000704874
-2.03139e-06
0.000705612
-2.4376e-06
0.000706475
-2.48835e-06
0.000707586
-2.9792e-06
-2.92225e-06
0.0007089
0.000666738
2.54971e-07
0.00066697
7.68404e-07
0.000667358
1.27019e-06
0.000667884
1.75332e-06
0.000668525
2.21169e-06
0.000669262
2.64164e-06
0.000670076
3.04164e-06
0.000670954
3.41151e-06
0.000671883
3.75185e-06
0.000672855
4.06369e-06
0.000673861
4.34817e-06
0.000674896
4.60609e-06
0.000675953
4.83781e-06
0.000677027
5.0439e-06
0.000678114
5.22551e-06
0.000679211
5.38398e-06
0.000680316
5.51994e-06
0.000681425
5.63331e-06
0.000682537
5.72399e-06
0.000683649
5.79285e-06
0.00068476
5.8415e-06
0.000685867
5.87113e-06
0.000686969
5.88094e-06
0.000688063
5.86896e-06
0.000689146
5.83369e-06
0.000690213
5.77667e-06
0.000691262
5.70086e-06
0.000692288
5.60965e-06
0.00069329
5.50261e-06
0.000694263
5.37721e-06
0.0006952
5.22736e-06
0.000696093
5.05109e-06
0.000696935
4.84844e-06
0.00069772
4.62927e-06
0.000698443
4.40245e-06
0.000699103
4.18217e-06
0.0006997
3.97034e-06
0.000700232
3.7711e-06
0.000700696
3.56946e-06
0.000701088
3.36174e-06
0.000701405
3.12359e-06
0.000701645
2.8586e-06
0.000701811
2.54401e-06
0.00070191
2.20189e-06
0.000701955
1.80973e-06
0.000701963
1.41102e-06
0.000701953
9.70156e-07
0.000701948
5.52438e-07
0.000701978
9.15596e-08
0.000702028
-2.95221e-07
0.000702119
-7.3964e-07
0.000702279
-1.09865e-06
0.000702514
-1.54611e-06
0.000702856
-1.86648e-06
0.000703297
-2.33636e-06
0.000703878
-2.61264e-06
0.000704573
-3.13276e-06
0.000705448
-3.36331e-06
0.000706446
-3.97759e-06
-4.15478e-06
0.000707679
0.000666724
1.97214e-07
0.0006669
5.92887e-07
0.000667185
9.85075e-07
0.000667571
1.36716e-06
0.000668048
1.73532e-06
0.000668603
2.08654e-06
0.000669226
2.41872e-06
0.000669907
2.73039e-06
0.000670638
3.0208e-06
0.000671412
3.28973e-06
0.000672223
3.5373e-06
0.000673065
3.76362e-06
0.000673934
3.96862e-06
0.000674826
4.15246e-06
0.000675735
4.31579e-06
0.00067666
4.45936e-06
0.000677597
4.58338e-06
0.000678542
4.68761e-06
0.000679494
4.77201e-06
0.00068045
4.83732e-06
0.000681407
4.88477e-06
0.000682362
4.91521e-06
0.000683315
4.92799e-06
0.000684263
4.92167e-06
0.000685201
4.89539e-06
0.000686127
4.85079e-06
0.000687037
4.79047e-06
0.00068793
4.71701e-06
0.000688803
4.62974e-06
0.000689653
4.52655e-06
0.000690478
4.40319e-06
0.00069127
4.25901e-06
0.000692023
4.09529e-06
0.000692732
3.92048e-06
0.000693392
3.74188e-06
0.000694004
3.57e-06
0.000694569
3.40538e-06
0.000695091
3.2495e-06
0.000695571
3.08937e-06
0.000696013
2.91981e-06
0.000696416
2.72091e-06
0.000696781
2.49319e-06
0.000697107
2.21838e-06
0.000697397
1.91177e-06
0.00069765
1.5568e-06
0.000697876
1.18477e-06
0.000698074
7.72517e-07
0.000698258
3.67608e-07
0.000698427
-7.69557e-08
0.000698636
-5.04322e-07
0.000698871
-9.74891e-07
0.000699164
-1.39124e-06
0.000699496
-1.87869e-06
0.000699913
-2.28328e-06
0.000700379
-2.80257e-06
0.000700963
-3.19633e-06
0.000701605
-3.77493e-06
0.000702401
-4.15889e-06
0.000703256
-4.83301e-06
-5.20576e-06
0.000704307
0.000666708
1.55704e-07
0.000666833
4.68319e-07
0.000667038
7.79345e-07
0.000667321
1.08415e-06
0.000667677
1.38008e-06
0.000668098
1.66496e-06
0.00066858
1.93703e-06
0.000669116
2.19488e-06
0.000669699
2.43774e-06
0.000670323
2.66499e-06
0.000670985
2.87524e-06
0.00067168
3.06867e-06
0.000672404
3.24504e-06
0.000673152
3.40428e-06
0.000673921
3.54669e-06
0.000674708
3.67267e-06
0.000675509
3.78217e-06
0.000676322
3.87485e-06
0.000677143
3.95065e-06
0.00067797
4.01019e-06
0.000678801
4.05442e-06
0.000679632
4.08387e-06
0.000680462
4.09795e-06
0.000681288
4.09557e-06
0.000682107
4.0763e-06
0.000682916
4.04167e-06
0.000683713
3.99396e-06
0.000684495
3.93506e-06
0.00068526
3.86428e-06
0.000686007
3.77973e-06
0.000686732
3.67838e-06
0.000687431
3.56012e-06
0.000688099
3.42683e-06
0.000688734
3.28532e-06
0.000689335
3.14161e-06
0.000689902
3.00292e-06
0.000690438
2.86911e-06
0.000690948
2.73938e-06
0.000691434
2.60309e-06
0.0006919
2.45405e-06
0.000692344
2.27722e-06
0.000692767
2.07051e-06
0.000693164
1.82138e-06
0.000693537
1.53828e-06
0.000693883
1.21075e-06
0.00069421
8.58255e-07
0.000694516
4.65969e-07
0.000694823
6.09329e-08
0.000695111
-3.65484e-07
0.000695401
-7.93551e-07
0.000695685
-1.2592e-06
0.000695995
-1.70165e-06
0.000696315
-2.1981e-06
0.000696687
-2.65555e-06
0.000697079
-3.1941e-06
0.000697553
-3.67116e-06
0.000698051
-4.27247e-06
0.000698666
-4.7742e-06
0.000699301
-5.4682e-06
-5.99708e-06
0.000700093
0.000666698
1.24042e-07
0.000666794
3.72654e-07
0.000666953
6.20298e-07
0.000667173
8.63724e-07
0.000667452
1.10111e-06
0.000667787
1.3309e-06
0.000668172
1.55171e-06
0.000668604
1.76232e-06
0.00066908
1.96175e-06
0.000669596
2.14925e-06
0.000670147
2.32422e-06
0.00067073
2.48615e-06
0.00067134
2.63461e-06
0.000671975
2.76939e-06
0.000672631
2.89065e-06
0.000673305
2.99851e-06
0.000673995
3.09278e-06
0.000674696
3.17305e-06
0.000675408
3.23924e-06
0.000676126
3.29184e-06
0.000676849
3.33156e-06
0.000677574
3.35871e-06
0.000678299
3.37273e-06
0.000679022
3.37277e-06
0.00067974
3.35869e-06
0.00068045
3.33185e-06
0.000681149
3.29417e-06
0.000681838
3.24694e-06
0.000682512
3.18945e-06
0.000683172
3.11989e-06
0.000683814
3.03611e-06
0.000684436
2.93819e-06
0.000685035
2.82832e-06
0.000685608
2.71187e-06
0.000686156
2.59388e-06
0.00068668
2.47896e-06
0.000687182
2.36672e-06
0.000687667
2.25458e-06
0.000688136
2.13415e-06
0.000688592
1.99837e-06
0.000689033
1.83654e-06
0.000689458
1.64461e-06
0.000689864
1.41538e-06
0.000690251
1.15214e-06
0.00069061
8.51534e-07
0.000690944
5.23947e-07
0.000691244
1.6635e-07
0.000691521
-2.16716e-07
0.000691784
-6.27882e-07
0.000692038
-1.0478e-06
0.000692275
-1.49617e-06
0.000692521
-1.94778e-06
0.000692757
-2.43426e-06
0.000693021
-2.91898e-06
0.00069328
-3.45351e-06
0.000693589
-3.97969e-06
0.000693893
-4.57717e-06
0.000694275
-5.15614e-06
0.000694645
-5.83764e-06
-6.47846e-06
0.000695126
0.000666692
9.83727e-08
0.00066677
2.95361e-07
0.000666898
4.91686e-07
0.000667077
6.84977e-07
0.000667304
8.73943e-07
0.000667578
1.05745e-06
0.000667895
1.23444e-06
0.000668253
1.40393e-06
0.00066865
1.56507e-06
0.000669082
1.71725e-06
0.000669546
1.85997e-06
0.00067004
1.99272e-06
0.000670559
2.11499e-06
0.000671102
2.22651e-06
0.000671665
2.32729e-06
0.000672247
2.41733e-06
0.000672843
2.49637e-06
0.000673452
2.56398e-06
0.000674071
2.62009e-06
0.000674698
2.66507e-06
0.00067533
2.69944e-06
0.000675966
2.72333e-06
0.000676602
2.73623e-06
0.000677237
2.73744e-06
0.000677869
2.727e-06
0.000678495
2.70603e-06
0.000679113
2.67613e-06
0.000679722
2.63808e-06
0.00068032
2.59123e-06
0.000680906
2.53389e-06
0.000681478
2.46458e-06
0.000682032
2.38339e-06
0.000682568
2.29258e-06
0.000683084
2.19623e-06
0.000683579
2.09853e-06
0.000684056
2.00211e-06
0.000684516
1.90662e-06
0.000684962
1.8084e-06
0.000685395
1.70121e-06
0.000685816
1.57768e-06
0.000686222
1.43079e-06
0.000686611
1.25517e-06
0.000686979
1.04774e-06
0.000687323
8.07556e-07
0.000687639
5.35842e-07
0.000687929
2.34147e-07
0.000688192
-9.6461e-08
0.000688427
-4.52312e-07
0.000688628
-8.29091e-07
0.000688807
-1.22674e-06
0.000688954
-1.64321e-06
0.000689088
-2.08192e-06
0.000689194
-2.53987e-06
0.0006893
-3.02488e-06
0.000689378
-3.53187e-06
0.000689472
-4.07376e-06
0.000689537
-4.6421e-06
0.000689637
-5.25603e-06
0.000689699
-5.89992e-06
-6.6034e-06
0.000689824
0.000666688
7.69083e-08
0.000666753
2.30822e-07
0.00066686
3.84257e-07
0.00066701
5.35455e-07
0.0006672
6.83487e-07
0.00066743
8.27523e-07
0.000667698
9.6678e-07
0.000668001
1.1005e-06
0.000668338
1.22801e-06
0.000668707
1.34883e-06
0.000669104
1.46253e-06
0.000669528
1.56864e-06
0.000669976
1.66671e-06
0.000670446
1.75646e-06
0.000670936
1.83785e-06
0.000671442
1.91081e-06
0.000671964
1.97505e-06
0.000672497
2.03019e-06
0.000673041
2.07615e-06
0.000673593
2.11318e-06
0.000674151
2.14168e-06
0.000674713
2.16167e-06
0.000675276
2.17267e-06
0.00067584
2.17415e-06
0.0006764
2.1662e-06
0.000676957
2.14974e-06
0.000677507
2.12605e-06
0.000678049
2.09556e-06
0.000678583
2.05769e-06
0.000679106
2.01091e-06
0.000679616
1.95419e-06
0.000680112
1.8876e-06
0.000680591
1.81326e-06
0.000681053
1.73413e-06
0.000681498
1.65371e-06
0.000681927
1.57326e-06
0.000682341
1.49253e-06
0.000682742
1.40743e-06
0.00068313
1.3135e-06
0.000683504
1.20351e-06
0.000683862
1.0732e-06
0.0006842
9.16459e-07
0.000684515
7.33163e-07
0.000684803
5.19763e-07
0.000685057
2.81312e-07
0.000685275
1.64396e-08
0.000685456
-2.77866e-07
0.0006856
-5.96111e-07
0.0006857
-9.29472e-07
0.000685765
-1.29118e-06
0.000685785
-1.66356e-06
0.000685773
-2.06991e-06
0.000685716
-2.48304e-06
0.000685633
-2.94154e-06
0.000685503
-3.40143e-06
0.000685354
-3.92528e-06
0.000685153
-4.4408e-06
0.000684945
-5.04781e-06
0.000684674
-5.62915e-06
-6.341e-06
0.000684411
0.000666685
5.84514e-08
0.000666741
1.75377e-07
0.000666833
2.91953e-07
0.000666961
4.06893e-07
0.000667125
5.19529e-07
0.000667324
6.29263e-07
0.000667555
7.35523e-07
0.000667818
8.37741e-07
0.00066811
9.3542e-07
0.000668431
1.02818e-06
0.000668778
1.11566e-06
0.000669149
1.19751e-06
0.000669542
1.27332e-06
0.000669956
1.34287e-06
0.000670388
1.4061e-06
0.000670836
1.4629e-06
0.000671298
1.513e-06
0.000671772
1.55609e-06
0.000672256
1.5921e-06
0.000672748
1.62123e-06
0.000673246
1.64374e-06
0.000673748
1.65958e-06
0.000674252
1.66838e-06
0.000674756
1.66969e-06
0.000675259
1.66364e-06
0.000675758
1.65093e-06
0.000676251
1.63253e-06
0.000676738
1.60864e-06
0.000677217
1.57877e-06
0.000677687
1.5416e-06
0.000678144
1.49649e-06
0.000678588
1.44343e-06
0.000679017
1.38429e-06
0.00067943
1.32112e-06
0.000679827
1.2567e-06
0.000680209
1.19143e-06
0.000680577
1.12519e-06
0.00068093
1.05399e-06
0.000681269
9.74853e-07
0.000681591
8.81218e-07
0.000681893
7.70916e-07
0.000682172
6.37844e-07
0.000682421
4.8375e-07
0.000682637
3.03729e-07
0.000682814
1.045e-07
0.000682954
-1.23876e-07
0.000683045
-3.68425e-07
0.000683088
-6.3934e-07
0.000683079
-9.20355e-07
0.000683019
-1.23144e-06
0.000682903
-1.5473e-06
0.000682735
-1.90167e-06
0.000682506
-2.25429e-06
0.000682225
-2.66033e-06
0.000681878
-3.05458e-06
0.000681479
-3.52595e-06
0.000681006
-3.96816e-06
0.000680482
-4.52415e-06
0.000679873
-5.02017e-06
-5.68468e-06
0.000679217
0.000666683
4.21423e-08
0.000666732
1.26418e-07
0.000666813
2.10446e-07
0.000666927
2.93323e-07
0.000667072
3.74586e-07
0.000667247
4.53819e-07
0.000667452
5.30619e-07
0.000667685
6.04585e-07
0.000667946
6.75362e-07
0.000668231
7.42668e-07
0.00066854
8.06249e-07
0.000668872
8.65813e-07
0.000669224
9.21075e-07
0.000669595
9.71853e-07
0.000669983
1.01808e-06
0.000670387
1.05968e-06
0.000670803
1.09641e-06
0.000671231
1.12805e-06
0.000671669
1.15454e-06
0.000672114
1.17602e-06
0.000672565
1.19265e-06
0.00067302
1.20437e-06
0.000673478
1.21087e-06
0.000673936
1.21182e-06
0.000674392
1.20736e-06
0.000674845
1.19797e-06
0.000675293
1.18434e-06
0.000675735
1.16653e-06
0.00067617
1.14418e-06
0.000676595
1.11627e-06
0.000677009
1.08239e-06
0.00067741
1.04251e-06
0.000677796
9.98094e-07
0.000678167
9.5048e-07
0.000678522
9.01748e-07
0.000678862
8.51799e-07
0.000679186
8.00647e-07
0.000679495
7.44889e-07
0.000679787
6.82681e-07
0.00068006
6.08632e-07
0.000680309
5.21866e-07
0.00068053
4.17001e-07
0.000680717
2.96531e-07
0.000680865
1.55384e-07
0.000680969
1.37021e-09
0.000681025
-1.79965e-07
0.000681026
-3.70131e-07
0.000680971
-5.83431e-07
0.000680853
-8.03083e-07
0.000680672
-1.05009e-06
0.000680423
-1.29821e-06
0.000680104
-1.58249e-06
0.00067971
-1.86078e-06
0.00067924
-2.19022e-06
0.000678688
-2.50228e-06
0.000678051
-2.88937e-06
0.000677323
-3.23959e-06
0.0006765
-3.70196e-06
0.000675574
-4.0935e-06
-4.65406e-06
0.000674543
0.000666681
2.73173e-08
0.000666726
8.19352e-08
0.0006668
1.36394e-07
0.000666903
1.90117e-07
0.000667035
2.42812e-07
0.000667195
2.94215e-07
0.000667381
3.4407e-07
0.000667594
3.92119e-07
0.000667831
4.38134e-07
0.000668092
4.81932e-07
0.000668374
5.23342e-07
0.000668678
5.62172e-07
0.000669001
5.98232e-07
0.000669341
6.31403e-07
0.000669698
6.61633e-07
0.000670069
6.88852e-07
0.000670452
7.12911e-07
0.000670847
7.33652e-07
0.00067125
7.5104e-07
0.000671661
7.6515e-07
0.000672078
7.76076e-07
0.000672498
7.8375e-07
0.000672921
7.8798e-07
0.000673344
7.88556e-07
0.000673766
7.85574e-07
0.000674185
7.7933e-07
0.000674599
7.70263e-07
0.000675007
7.58363e-07
0.000675408
7.43394e-07
0.000675799
7.24672e-07
0.00067618
7.01992e-07
0.000676547
6.75298e-07
0.000676899
6.45592e-07
0.000677236
6.13624e-07
0.000677557
5.80763e-07
0.000677862
5.4675e-07
0.000678151
5.11665e-07
0.000678423
4.73062e-07
0.000678676
4.29943e-07
0.000678906
3.78517e-07
0.000679109
3.18582e-07
0.00067928
2.46178e-07
0.000679413
1.63568e-07
0.000679502
6.66683e-08
0.000679544
-4.04365e-08
0.000679528
-1.64168e-07
0.000679452
-2.94512e-07
0.000679311
-4.41864e-07
0.0006791
-5.92776e-07
0.000678815
-7.64362e-07
0.000678452
-9.35422e-07
0.000678004
-1.13431e-06
0.00067747
-1.32679e-06
0.000676838
-1.55908e-06
0.000676112
-1.77538e-06
0.000675273
-2.05062e-06
0.000674327
-2.29344e-06
0.00067325
-2.62519e-06
0.000672052
-2.89599e-06
-3.3021e-06
0.0006707
0.000666681
1.34282e-08
0.000666722
4.02735e-08
0.000666792
6.70401e-08
0.000666888
9.34479e-08
0.000667012
1.19355e-07
0.000667161
1.44633e-07
0.000667336
1.69156e-07
0.000667536
1.928e-07
0.000667758
2.15454e-07
0.000668003
2.37026e-07
0.000668269
2.57429e-07
0.000668555
2.76568e-07
0.000668858
2.94356e-07
0.000669179
3.10729e-07
0.000669515
3.25657e-07
0.000669865
3.39096e-07
0.000670227
3.50976e-07
0.000670599
3.61226e-07
0.00067098
3.69828e-07
0.000671369
3.76807e-07
0.000671763
3.82193e-07
0.00067216
3.85949e-07
0.00067256
3.87999e-07
0.000672961
3.88254e-07
0.00067336
3.86763e-07
0.000673755
3.83644e-07
0.000674146
3.79082e-07
0.000674532
3.73052e-07
0.00067491
3.6546e-07
0.000675278
3.56001e-07
0.000675636
3.44617e-07
0.00067598
3.31266e-07
0.000676309
3.16417e-07
0.000676622
3.00348e-07
0.000676919
2.83693e-07
0.0006772
2.66247e-07
0.000677463
2.48097e-07
0.000677708
2.2802e-07
0.000677933
2.05655e-07
0.000678132
1.79097e-07
0.000678302
1.48392e-07
0.000678437
1.1145e-07
0.000678531
6.95578e-08
0.000678577
2.0452e-08
0.000678571
-3.40306e-08
0.000678503
-9.67627e-08
0.000678372
-1.62794e-07
0.000678168
-2.37878e-07
0.00067789
-3.14578e-07
0.000677528
-4.02429e-07
0.000677082
-4.89654e-07
0.00067654
-5.91995e-07
0.000675903
-6.90389e-07
0.000675155
-8.10514e-07
0.0006743
-9.21256e-07
0.000673314
-1.06431e-06
0.000672209
-1.18867e-06
0.000670946
-1.36201e-06
0.000669551
-1.50049e-06
-1.71395e-06
0.000667963
0.00066668
-7.56607e-12
0.00066672
-2.26731e-11
0.000666787
-3.88572e-11
0.000666881
-5.48885e-11
0.000667
-7.03099e-11
0.000667145
-8.73399e-11
0.000667314
-1.06752e-10
0.000667507
-1.25056e-10
0.000667723
-1.40294e-10
0.00066796
-1.57226e-10
0.000668218
-1.80746e-10
0.000668494
-2.06343e-10
0.000668789
-2.24787e-10
0.0006691
-2.3706e-10
0.000669426
-2.56674e-10
0.000669765
-2.91985e-10
0.000670117
-3.31411e-10
0.000670478
-3.54714e-10
0.000670848
-3.59851e-10
0.000671226
-3.71709e-10
0.000671608
-4.16892e-10
0.000671995
-4.90872e-10
0.000672383
-5.54811e-10
0.000672772
-5.71953e-10
0.000673159
-5.48667e-10
0.000673544
-5.39321e-10
0.000673923
-6.05037e-10
0.000674297
-7.59079e-10
0.000674663
-9.45756e-10
0.00067502
-1.07163e-09
0.000675366
-1.0696e-09
0.000675698
-9.52239e-10
0.000676016
-8.17225e-10
0.000676317
-8.0525e-10
0.000676601
-1.03179e-09
0.000676869
-1.53232e-09
0.00067712
-2.24503e-09
0.000677351
-3.03338e-09
0.00067756
-3.73455e-09
0.000677743
-4.21148e-09
0.000677896
-4.38643e-09
0.000678012
-4.25103e-09
0.000678085
-3.85762e-09
0.000678109
-3.29199e-09
0.000678078
-2.65418e-09
0.000677983
-2.01257e-09
0.000677822
-1.43397e-09
0.000677585
-9.56391e-10
0.000677271
-5.90963e-10
0.000676869
-3.33901e-10
0.000676379
-1.69313e-10
0.000675787
-7.9341e-11
0.000675097
-4.62651e-11
0.000674286
-5.38905e-11
0.000673365
-8.90772e-11
0.000672301
-1.42585e-10
0.000671113
-2.08608e-10
0.000669751
-2.8248e-10
0.000668251
-3.62144e-10
-4.46611e-10
0.000666537
0.00066668
-1.34433e-08
0.00066672
-4.03186e-08
0.000666787
-6.71175e-08
0.000666881
-9.35571e-08
0.000667
-1.19495e-07
0.000667145
-1.44807e-07
0.000667314
-1.69368e-07
0.000667507
-1.93049e-07
0.000667723
-2.15733e-07
0.00066796
-2.37339e-07
0.000668218
-2.57789e-07
0.000668494
-2.76979e-07
0.000668789
-2.94803e-07
0.0006691
-3.11201e-07
0.000669426
-3.26168e-07
0.000669765
-3.39677e-07
0.000670117
-3.51636e-07
0.000670478
-3.61932e-07
0.000670848
-3.70544e-07
0.000671226
-3.77546e-07
0.000671608
-3.83022e-07
0.000671995
-3.86925e-07
0.000672383
-3.89103e-07
0.000672772
-3.89392e-07
0.000673159
-3.87855e-07
0.000673543
-3.84717e-07
0.000673923
-3.80286e-07
0.000674297
-3.74561e-07
0.000674663
-3.67341e-07
0.00067502
-3.58132e-07
0.000675366
-3.46745e-07
0.000675698
-3.33162e-07
0.000676015
-3.18044e-07
0.000676317
-3.01951e-07
0.000676601
-2.85744e-07
0.000676869
-2.69291e-07
0.000677119
-2.52557e-07
0.00067735
-2.34047e-07
0.00067756
-2.13076e-07
0.000677743
-1.8747e-07
0.000677896
-1.57114e-07
0.000678011
-1.19903e-07
0.000678085
-7.72198e-08
0.000678108
-2.69474e-08
0.000678077
2.87043e-08
0.000677982
9.27456e-08
0.000677821
1.59931e-07
0.000677584
2.35968e-07
0.00067727
3.13396e-07
0.000676868
4.0176e-07
0.000676378
4.89313e-07
0.000675787
5.91833e-07
0.000675096
6.90294e-07
0.000674286
8.10404e-07
0.000673365
9.21076e-07
0.0006723
1.06402e-06
0.000671112
1.18825e-06
0.00066975
1.36145e-06
0.00066825
1.49977e-06
1.71306e-06
0.000666537
0.000666681
-2.73322e-08
0.000666722
-8.19797e-08
0.000666792
-1.3647e-07
0.000666888
-1.90225e-07
0.000667012
-2.4295e-07
0.000667161
-2.94387e-07
0.000667336
-3.4428e-07
0.000667535
-3.92364e-07
0.000667758
-4.3841e-07
0.000668003
-4.82241e-07
0.000668269
-5.23697e-07
0.000668555
-5.62577e-07
0.000668858
-5.98674e-07
0.000669179
-6.31868e-07
0.000669515
-6.62137e-07
0.000669865
-6.89425e-07
0.000670227
-7.13561e-07
0.000670599
-7.34349e-07
0.00067098
-7.51747e-07
0.000671369
-7.6588e-07
0.000671763
-7.76894e-07
0.00067216
-7.84711e-07
0.00067256
-7.89066e-07
0.000672961
-7.89676e-07
0.000673359
-7.86649e-07
0.000673755
-7.80386e-07
0.000674146
-7.71446e-07
0.000674532
-7.59845e-07
0.000674909
-7.4524e-07
0.000675278
-7.26766e-07
0.000675635
-7.04086e-07
0.000675979
-6.77165e-07
0.000676309
-6.47194e-07
0.000676622
-6.15197e-07
0.000676919
-5.82771e-07
0.000677199
-5.49728e-07
0.000677463
-5.16028e-07
0.000677708
-4.78964e-07
0.000677932
-4.3722e-07
0.000678131
-3.86735e-07
0.000678301
-3.27152e-07
0.000678436
-2.54493e-07
0.00067853
-1.71114e-07
0.000678576
-7.30853e-08
0.000678569
3.51976e-08
0.000678502
1.60207e-07
0.00067837
2.91681e-07
0.000678166
4.39967e-07
0.000677888
5.91597e-07
0.000677526
7.63689e-07
0.00067708
9.35075e-07
0.000676538
1.13414e-06
0.000675901
1.32669e-06
0.000675153
1.55896e-06
0.000674299
1.7752e-06
0.000673312
2.05033e-06
0.000672208
2.29302e-06
0.000670944
2.62462e-06
0.000669549
2.89527e-06
3.30122e-06
0.000667961
0.000666681
-4.21568e-08
0.000666726
-1.26461e-07
0.0006668
-2.10521e-07
0.000666903
-2.93429e-07
0.000667035
-3.74721e-07
0.000667195
-4.53986e-07
0.000667381
-5.30824e-07
0.000667594
-6.04825e-07
0.000667831
-6.75631e-07
0.000668092
-7.4297e-07
0.000668374
-8.06596e-07
0.000668678
-8.66209e-07
0.000669001
-9.21506e-07
0.000669341
-9.72308e-07
0.000669698
-1.01858e-06
0.000670069
-1.06023e-06
0.000670452
-1.09704e-06
0.000670846
-1.12873e-06
0.00067125
-1.15523e-06
0.000671661
-1.17673e-06
0.000672077
-1.19345e-06
0.000672498
-1.2053e-06
0.000672921
-1.21193e-06
0.000673344
-1.21292e-06
0.000673766
-1.20841e-06
0.000674184
-1.199e-06
0.000674598
-1.18549e-06
0.000675007
-1.16797e-06
0.000675407
-1.14597e-06
0.000675799
-1.1183e-06
0.000676179
-1.08443e-06
0.000676546
-1.04433e-06
0.000676899
-9.99653e-07
0.000677236
-9.52004e-07
0.000677557
-9.03682e-07
0.000677861
-8.54663e-07
0.00067815
-8.04848e-07
0.000678422
-7.50584e-07
0.000678674
-6.89716e-07
0.000678904
-6.16595e-07
0.000679107
-5.30187e-07
0.000679278
-4.25096e-07
0.000679411
-3.03901e-07
0.000679499
-1.61702e-07
0.000679541
-6.29141e-09
0.000679525
1.76024e-07
0.000679449
3.6732e-07
0.000679308
5.81545e-07
0.000679097
8.01907e-07
0.000678812
1.04941e-06
0.000678449
1.29785e-06
0.000678001
1.5823e-06
0.000677467
1.86067e-06
0.000676836
2.19009e-06
0.000676109
2.50209e-06
0.00067527
2.88908e-06
0.000674324
3.23917e-06
0.000673247
3.7014e-06
0.00067205
4.09279e-06
4.65319e-06
0.000670698
0.000666683
-5.84655e-08
0.000666732
-1.75419e-07
0.000666813
-2.92025e-07
0.000666927
-4.06995e-07
0.000667072
-5.1966e-07
0.000667247
-6.29425e-07
0.000667452
-7.35721e-07
0.000667685
-8.37973e-07
0.000667945
-9.35681e-07
0.000668231
-1.02847e-06
0.00066854
-1.116e-06
0.000668872
-1.19789e-06
0.000669224
-1.27374e-06
0.000669595
-1.34331e-06
0.000669983
-1.40657e-06
0.000670386
-1.46344e-06
0.000670803
-1.51361e-06
0.000671231
-1.55675e-06
0.000671669
-1.59277e-06
0.000672114
-1.62192e-06
0.000672565
-1.64451e-06
0.00067302
-1.66048e-06
0.000673478
-1.6694e-06
0.000673935
-1.67074e-06
0.000674392
-1.66465e-06
0.000674845
-1.65192e-06
0.000675293
-1.63364e-06
0.000675735
-1.61002e-06
0.000676169
-1.58048e-06
0.000676594
-1.54356e-06
0.000677009
-1.49845e-06
0.000677409
-1.44519e-06
0.000677796
-1.38579e-06
0.000678166
-1.32258e-06
0.000678521
-1.25854e-06
0.00067886
-1.19414e-06
0.000679185
-1.12917e-06
0.000679494
-1.0594e-06
0.000679785
-9.81554e-07
0.000680058
-8.88824e-07
0.000680306
-7.78884e-07
0.000680527
-6.45616e-07
0.000680714
-4.90843e-07
0.000680862
-3.09808e-07
0.000680965
-1.09374e-07
0.000681021
1.20105e-07
0.000681022
3.65708e-07
0.000680967
6.37496e-07
0.000680849
9.19193e-07
0.000680668
1.23076e-06
0.000680419
1.54693e-06
0.0006801
1.90147e-06
0.000679706
2.25416e-06
0.000679236
2.66019e-06
0.000678684
3.05437e-06
0.000678047
3.52564e-06
0.000677319
3.96774e-06
0.000676496
4.52359e-06
0.00067557
5.01947e-06
5.68382e-06
0.000674539
0.000666685
-7.69218e-08
0.000666741
-2.30862e-07
0.000666833
-3.84326e-07
0.000666961
-5.35553e-07
0.000667125
-6.83612e-07
0.000667324
-8.27679e-07
0.000667555
-9.6697e-07
0.000667818
-1.10072e-06
0.00066811
-1.22826e-06
0.000668431
-1.34911e-06
0.000668778
-1.46285e-06
0.000669149
-1.56901e-06
0.000669542
-1.66711e-06
0.000669956
-1.75688e-06
0.000670387
-1.83831e-06
0.000670835
-1.91133e-06
0.000671297
-1.97564e-06
0.000671771
-2.03082e-06
0.000672255
-2.07679e-06
0.000672747
-2.11384e-06
0.000673245
-2.14242e-06
0.000673747
-2.16253e-06
0.000674252
-2.17364e-06
0.000674756
-2.17515e-06
0.000675259
-2.16717e-06
0.000675757
-2.15069e-06
0.000676251
-2.1271e-06
0.000676738
-2.09686e-06
0.000677216
-2.05932e-06
0.000677686
-2.01276e-06
0.000678143
-1.95605e-06
0.000678587
-1.88927e-06
0.000679016
-1.81469e-06
0.000679429
-1.73551e-06
0.000679826
-1.65542e-06
0.000680208
-1.57578e-06
0.000680575
-1.49623e-06
0.000680928
-1.41248e-06
0.000681266
-1.31979e-06
0.000681588
-1.21067e-06
0.00068189
-1.08073e-06
0.000682168
-9.2383e-07
0.000682417
-7.39917e-07
0.000682633
-5.25588e-07
0.000682809
-2.86048e-07
0.000682949
-1.98567e-08
0.00068304
2.75193e-07
0.000683083
5.94303e-07
0.000683074
9.28326e-07
0.000683014
1.29049e-06
0.000682898
1.66319e-06
0.00068273
2.0697e-06
0.000682501
2.4829e-06
0.00068222
2.94139e-06
0.000681873
3.40122e-06
0.000681474
3.92497e-06
0.000681001
4.44037e-06
0.000680477
5.04724e-06
0.000679868
5.62845e-06
6.34015e-06
0.000679212
0.000666688
-9.83854e-08
0.000666753
-2.95399e-07
0.00066686
-4.91752e-07
0.00066701
-6.85069e-07