/*--------------------------------*- C++ -*----------------------------------*\
| =========                 |                                                 |
| \\      /  F ield         | OpenFOAM: The Open Source CFD Toolbox           |
|  \\    /   O peration     | Version:  2312                                  |
|   \\  /    A nd           | Website:  www.openfoam.com                      |
|    \\/     M anipulation  |                                                 |
\*---------------------------------------------------------------------------*/
FoamFile
{
    version     2.0;
    format      ascii;
    arch        "LSB;label=32;scalar=64";
    class       volVectorField;
    location    "11000";
    object      U;
}
// * * * * * * * * * * * * * * * * * * * * * * * * * * * * * * * * * * * * * //

dimensions      [0 1 -1 0 0 0 0];

internalField   nonuniform List<vector> 
10800
(
(0.000992484 4.93856e-06 0)
(0.000990044 1.24475e-05 0)
(0.00098689 1.74615e-05 0)
(0.000980536 2.06361e-05 0)
(0.000971149 2.27093e-05 0)
(0.000959894 2.41931e-05 0)
(0.000947836 2.53202e-05 0)
(0.000935512 2.61634e-05 0)
(0.000923068 2.67506e-05 0)
(0.00091048 2.71086e-05 0)
(0.000897707 2.7268e-05 0)
(0.000884749 2.72687e-05 0)
(0.000871642 2.71582e-05 0)
(0.000858448 2.69666e-05 0)
(0.000845221 2.66989e-05 0)
(0.000831996 2.63609e-05 0)
(0.000818808 2.59741e-05 0)
(0.00080568 2.55566e-05 0)
(0.000792621 2.51031e-05 0)
(0.000779658 2.4593e-05 0)
(0.000766835 2.40208e-05 0)
(0.00075417 2.3421e-05 0)
(0.000741655 2.28345e-05 0)
(0.000729306 2.22437e-05 0)
(0.00071717 2.15734e-05 0)
(0.000705291 2.07817e-05 0)
(0.000693698 1.99253e-05 0)
(0.000682398 1.9118e-05 0)
(0.000671398 1.84189e-05 0)
(0.000660696 1.77742e-05 0)
(0.000650335 1.70305e-05 0)
(0.000640376 1.60179e-05 0)
(0.000630935 1.4619e-05 0)
(0.000622095 1.28255e-05 0)
(0.000613971 1.0727e-05 0)
(0.000606586 8.48183e-06 0)
(0.000600028 6.2565e-06 0)
(0.000594247 4.19813e-06 0)
(0.000589359 2.39963e-06 0)
(0.00058523 9.22504e-07 0)
(0.000582058 -2.35021e-07 0)
(0.000579541 -1.07472e-06 0)
(0.000578028 -1.64697e-06 0)
(0.000576884 -1.99047e-06 0)
(0.000576815 -2.16494e-06 0)
(0.000576568 -2.2241e-06 0)
(0.000577667 -2.18606e-06 0)
(0.000577655 -2.12064e-06 0)
(0.000579848 -1.94287e-06 0)
(0.000579207 -1.89387e-06 0)
(0.000582932 -1.56961e-06 0)
(0.000580301 -1.71905e-06 0)
(0.000587074 -1.02549e-06 0)
(0.000579746 -1.7699e-06 0)
(0.000593393 -3.67768e-08 0)
(0.000575312 -2.44745e-06 0)
(0.000604882 2.18775e-06 0)
(0.000562208 -4.82902e-06 0)
(0.000628612 7.61302e-06 0)
(0.000531283 -1.1703e-05 0)
(0.00100003 5.79111e-06 0)
(0.00100172 1.4958e-05 0)
(0.00100424 2.14634e-05 0)
(0.00100708 2.59985e-05 0)
(0.00100984 2.93252e-05 0)
(0.00101226 3.19724e-05 0)
(0.00101432 3.41878e-05 0)
(0.00101603 3.6055e-05 0)
(0.00101745 3.76048e-05 0)
(0.00101862 3.88698e-05 0)
(0.00101954 3.9892e-05 0)
(0.00102021 4.07139e-05 0)
(0.00102062 4.1372e-05 0)
(0.00102078 4.18941e-05 0)
(0.00102071 4.23028e-05 0)
(0.00102043 4.26159e-05 0)
(0.00101993 4.28371e-05 0)
(0.00101924 4.29596e-05 0)
(0.00101838 4.29856e-05 0)
(0.00101736 4.29283e-05 0)
(0.00101617 4.27953e-05 0)
(0.00101485 4.25827e-05 0)
(0.00101343 4.22821e-05 0)
(0.0010119 4.18812e-05 0)
(0.00101027 4.13684e-05 0)
(0.00100855 4.07482e-05 0)
(0.00100677 4.00474e-05 0)
(0.00100494 3.9275e-05 0)
(0.00100307 3.8409e-05 0)
(0.0010012 3.73825e-05 0)
(0.000999409 3.6156e-05 0)
(0.000997663 3.47177e-05 0)
(0.000996026 3.31204e-05 0)
(0.000994314 3.14133e-05 0)
(0.000992648 2.96529e-05 0)
(0.000990756 2.78006e-05 0)
(0.00098892 2.58269e-05 0)
(0.000986752 2.35854e-05 0)
(0.000984816 2.10566e-05 0)
(0.000982483 1.815e-05 0)
(0.000980755 1.50145e-05 0)
(0.000978494 1.16663e-05 0)
(0.000977381 8.44116e-06 0)
(0.000975345 5.29651e-06 0)
(0.000975204 2.66087e-06 0)
(0.00097327 2.68968e-07 0)
(0.000974398 -1.38177e-06 0)
(0.000972208 -2.90484e-06 0)
(0.000975021 -3.57149e-06 0)
(0.000971792 -4.46977e-06 0)
(0.000976911 -4.36575e-06 0)
(0.000971431 -5.0025e-06 0)
(0.000980094 -4.27982e-06 0)
(0.000970447 -4.99467e-06 0)
(0.00098489 -3.67112e-06 0)
(0.000967954 -4.67386e-06 0)
(0.000992095 -2.66682e-06 0)
(0.000962737 -3.97676e-06 0)
(0.00100324 -1.40519e-06 0)
(0.00095322 -2.28571e-06 0)
(0.000999989 1.94747e-06 0)
(0.00100078 5.71678e-06 0)
(0.00100225 9.20745e-06 0)
(0.00100425 1.23347e-05 0)
(0.00100658 1.50946e-05 0)
(0.00100902 1.75326e-05 0)
(0.00101147 1.97031e-05 0)
(0.00101386 2.16472e-05 0)
(0.0010162 2.33903e-05 0)
(0.0010185 2.49492e-05 0)
(0.00102075 2.6338e-05 0)
(0.00102297 2.75686e-05 0)
(0.00102513 2.86512e-05 0)
(0.00102724 2.95961e-05 0)
(0.00102929 3.04164e-05 0)
(0.00103128 3.11253e-05 0)
(0.00103321 3.17295e-05 0)
(0.00103507 3.22258e-05 0)
(0.00103689 3.26104e-05 0)
(0.00103864 3.28878e-05 0)
(0.00104033 3.30694e-05 0)
(0.00104198 3.31609e-05 0)
(0.00104361 3.31559e-05 0)
(0.00104518 3.30369e-05 0)
(0.00104667 3.2786e-05 0)
(0.00104808 3.24017e-05 0)
(0.00104946 3.19066e-05 0)
(0.00105081 3.13238e-05 0)
(0.00105212 3.06528e-05 0)
(0.00105332 2.98449e-05 0)
(0.00105445 2.88426e-05 0)
(0.00105549 2.75992e-05 0)
(0.00105644 2.61238e-05 0)
(0.00105725 2.44657e-05 0)
(0.001058 2.27075e-05 0)
(0.00105861 2.09085e-05 0)
(0.00105917 1.91161e-05 0)
(0.00105952 1.7297e-05 0)
(0.00105979 1.54376e-05 0)
(0.0010597 1.34692e-05 0)
(0.0010595 1.14024e-05 0)
(0.00105882 9.22996e-06 0)
(0.00105816 7.0463e-06 0)
(0.00105693 4.87718e-06 0)
(0.00105601 2.87893e-06 0)
(0.00105448 1.03387e-06 0)
(0.0010537 -5.13032e-07 0)
(0.00105204 -1.85258e-06 0)
(0.00105172 -2.87924e-06 0)
(0.00105001 -3.75728e-06 0)
(0.00105049 -4.36416e-06 0)
(0.00104863 -4.88229e-06 0)
(0.00105026 -5.19204e-06 0)
(0.00104798 -5.45587e-06 0)
(0.00105119 -5.58311e-06 0)
(0.00104793 -5.58973e-06 0)
(0.0010534 -5.63485e-06 0)
(0.00104832 -5.24419e-06 0)
(0.00105717 -5.3462e-06 0)
(0.00104906 -4.21307e-06 0)
(0.00100001 1.72353e-06 0)
(0.00100047 5.10265e-06 0)
(0.00100128 8.32213e-06 0)
(0.0010024 1.13049e-05 0)
(0.00100376 1.40093e-05 0)
(0.00100529 1.64321e-05 0)
(0.00100693 1.85948e-05 0)
(0.00100864 2.05258e-05 0)
(0.00101041 2.22506e-05 0)
(0.00101222 2.37896e-05 0)
(0.00101405 2.5159e-05 0)
(0.00101592 2.63708e-05 0)
(0.00101781 2.74338e-05 0)
(0.00101971 2.83572e-05 0)
(0.00102162 2.91531e-05 0)
(0.00102353 2.98339e-05 0)
(0.00102544 3.0407e-05 0)
(0.00102735 3.08734e-05 0)
(0.00102926 3.12326e-05 0)
(0.00103115 3.14898e-05 0)
(0.00103302 3.16549e-05 0)
(0.00103488 3.17345e-05 0)
(0.00103677 3.17237e-05 0)
(0.00103865 3.16107e-05 0)
(0.00104048 3.13854e-05 0)
(0.00104225 3.1052e-05 0)
(0.00104403 3.06251e-05 0)
(0.00104579 3.01217e-05 0)
(0.00104752 2.95405e-05 0)
(0.00104919 2.88622e-05 0)
(0.0010508 2.80521e-05 0)
(0.00105236 2.70931e-05 0)
(0.00105384 2.59877e-05 0)
(0.00105521 2.47825e-05 0)
(0.00105645 2.35247e-05 0)
(0.00105754 2.22753e-05 0)
(0.00105849 2.10416e-05 0)
(0.00105926 1.98263e-05 0)
(0.00105985 1.85627e-05 0)
(0.00106022 1.72219e-05 0)
(0.00106039 1.57206e-05 0)
(0.00106032 1.40847e-05 0)
(0.00106007 1.22585e-05 0)
(0.0010596 1.03634e-05 0)
(0.00105905 8.34697e-06 0)
(0.00105835 6.40523e-06 0)
(0.0010577 4.4202e-06 0)
(0.00105697 2.6564e-06 0)
(0.00105642 8.69572e-07 0)
(0.00105583 -5.53646e-07 0)
(0.00105563 -2.07989e-06 0)
(0.00105535 -3.12091e-06 0)
(0.00105559 -4.46329e-06 0)
(0.00105562 -5.13751e-06 0)
(0.00105637 -6.41314e-06 0)
(0.00105672 -6.71548e-06 0)
(0.00105808 -8.06277e-06 0)
(0.00105871 -7.92583e-06 0)
(0.00106082 -9.54469e-06 0)
(0.00106162 -8.84547e-06 0)
(0.001 1.13227e-06 0)
(0.00100023 3.36694e-06 0)
(0.00100067 5.53333e-06 0)
(0.00100134 7.59907e-06 0)
(0.00100221 9.54205e-06 0)
(0.00100325 1.13517e-05 0)
(0.00100443 1.30262e-05 0)
(0.00100571 1.45686e-05 0)
(0.00100709 1.59837e-05 0)
(0.00100852 1.72771e-05 0)
(0.00101001 1.84545e-05 0)
(0.00101154 1.952e-05 0)
(0.00101312 2.04757e-05 0)
(0.00101471 2.13245e-05 0)
(0.00101634 2.20719e-05 0)
(0.00101799 2.27239e-05 0)
(0.00101964 2.32837e-05 0)
(0.0010213 2.37505e-05 0)
(0.00102297 2.41232e-05 0)
(0.00102464 2.44052e-05 0)
(0.00102629 2.46031e-05 0)
(0.00102794 2.47222e-05 0)
(0.00102962 2.47585e-05 0)
(0.0010313 2.47026e-05 0)
(0.00103292 2.45463e-05 0)
(0.00103451 2.42948e-05 0)
(0.00103609 2.39603e-05 0)
(0.00103767 2.35578e-05 0)
(0.0010392 2.30852e-05 0)
(0.00104068 2.25302e-05 0)
(0.0010421 2.18636e-05 0)
(0.00104348 2.10735e-05 0)
(0.00104479 2.01582e-05 0)
(0.00104602 1.91604e-05 0)
(0.00104715 1.81213e-05 0)
(0.00104819 1.71069e-05 0)
(0.00104913 1.61305e-05 0)
(0.00104998 1.52154e-05 0)
(0.00105073 1.43001e-05 0)
(0.00105138 1.33734e-05 0)
(0.00105191 1.23315e-05 0)
(0.00105233 1.11944e-05 0)
(0.00105263 9.86663e-06 0)
(0.00105283 8.44785e-06 0)
(0.00105293 6.84193e-06 0)
(0.00105296 5.24647e-06 0)
(0.00105296 3.49966e-06 0)
(0.00105293 1.89938e-06 0)
(0.00105294 1.62622e-07 0)
(0.00105301 -1.30293e-06 0)
(0.00105313 -2.97614e-06 0)
(0.00105329 -4.23381e-06 0)
(0.00105359 -5.86895e-06 0)
(0.00105401 -6.89344e-06 0)
(0.00105461 -8.57731e-06 0)
(0.00105534 -9.36366e-06 0)
(0.00105631 -1.12317e-05 0)
(0.00105742 -1.17642e-05 0)
(0.00105876 -1.4002e-05 0)
(0.00106017 -1.42351e-05 0)
(0.001 9.06278e-07 0)
(0.00100018 2.70765e-06 0)
(0.00100051 4.47908e-06 0)
(0.00100101 6.20107e-06 0)
(0.00100165 7.85556e-06 0)
(0.00100243 9.42836e-06 0)
(0.00100332 1.09099e-05 0)
(0.0010043 1.22943e-05 0)
(0.00100537 1.35792e-05 0)
(0.00100651 1.47646e-05 0)
(0.0010077 1.58522e-05 0)
(0.00100894 1.68433e-05 0)
(0.00101023 1.7738e-05 0)
(0.00101155 1.85377e-05 0)
(0.0010129 1.92457e-05 0)
(0.00101429 1.98661e-05 0)
(0.00101568 2.04004e-05 0)
(0.0010171 2.0848e-05 0)
(0.00101853 2.12088e-05 0)
(0.00101996 2.14862e-05 0)
(0.00102138 2.16859e-05 0)
(0.0010228 2.1812e-05 0)
(0.00102426 2.18619e-05 0)
(0.00102571 2.18294e-05 0)
(0.00102711 2.17099e-05 0)
(0.00102848 2.15102e-05 0)
(0.00102986 2.12417e-05 0)
(0.00103123 2.09163e-05 0)
(0.00103257 2.0532e-05 0)
(0.00103386 2.00803e-05 0)
(0.0010351 1.95418e-05 0)
(0.00103632 1.8913e-05 0)
(0.00103748 1.81975e-05 0)
(0.00103859 1.74323e-05 0)
(0.00103961 1.66488e-05 0)
(0.00104057 1.58956e-05 0)
(0.00104145 1.51756e-05 0)
(0.00104227 1.44991e-05 0)
(0.00104302 1.38085e-05 0)
(0.00104371 1.30851e-05 0)
(0.00104434 1.22385e-05 0)
(0.00104492 1.12765e-05 0)
(0.00104544 1.01134e-05 0)
(0.0010459 8.82428e-06 0)
(0.00104631 7.3283e-06 0)
(0.00104667 5.77429e-06 0)
(0.00104698 4.04452e-06 0)
(0.00104728 2.3651e-06 0)
(0.00104754 5.2389e-07 0)
(0.0010478 -1.15192e-06 0)
(0.00104812 -3.03979e-06 0)
(0.00104853 -4.64717e-06 0)
(0.00104899 -6.56632e-06 0)
(0.00104956 -8.06306e-06 0)
(0.00105021 -1.00865e-05 0)
(0.00105099 -1.14692e-05 0)
(0.00105188 -1.37121e-05 0)
(0.00105292 -1.4984e-05 0)
(0.00105403 -1.76066e-05 0)
(0.00105527 -1.87597e-05 0)
(0.001 7.11858e-07 0)
(0.00100013 2.12653e-06 0)
(0.00100037 3.51886e-06 0)
(0.00100073 4.8757e-06 0)
(0.00100121 6.18516e-06 0)
(0.00100179 7.4377e-06 0)
(0.00100247 8.62616e-06 0)
(0.00100324 9.74529e-06 0)
(0.00100408 1.07918e-05 0)
(0.00100499 1.17644e-05 0)
(0.00100596 1.26631e-05 0)
(0.00100698 1.34877e-05 0)
(0.00100804 1.42373e-05 0)
(0.00100914 1.4912e-05 0)
(0.00101028 1.55135e-05 0)
(0.00101146 1.6044e-05 0)
(0.00101265 1.65034e-05 0)
(0.00101386 1.68906e-05 0)
(0.0010151 1.72051e-05 0)
(0.00101633 1.74498e-05 0)
(0.00101756 1.76286e-05 0)
(0.0010188 1.77444e-05 0)
(0.00102007 1.77946e-05 0)
(0.00102134 1.77742e-05 0)
(0.00102256 1.76809e-05 0)
(0.00102375 1.75209e-05 0)
(0.00102495 1.73041e-05 0)
(0.00102616 1.70393e-05 0)
(0.00102733 1.67238e-05 0)
(0.00102846 1.63495e-05 0)
(0.00102956 1.5902e-05 0)
(0.00103063 1.53802e-05 0)
(0.00103166 1.47903e-05 0)
(0.00103264 1.41627e-05 0)
(0.00103357 1.35236e-05 0)
(0.00103444 1.29081e-05 0)
(0.00103527 1.23169e-05 0)
(0.00103605 1.17512e-05 0)
(0.0010368 1.1164e-05 0)
(0.00103751 1.05327e-05 0)
(0.0010382 9.78798e-06 0)
(0.00103885 8.92609e-06 0)
(0.00103947 7.8856e-06 0)
(0.00104005 6.71364e-06 0)
(0.00104058 5.3551e-06 0)
(0.00104109 3.91081e-06 0)
(0.00104156 2.30732e-06 0)
(0.00104201 6.92258e-07 0)
(0.00104246 -1.07189e-06 0)
(0.0010429 -2.75766e-06 0)
(0.00104333 -4.61074e-06 0)
(0.00104377 -6.31458e-06 0)
(0.00104423 -8.27534e-06 0)
(0.00104476 -1.00016e-05 0)
(0.00104531 -1.21153e-05 0)
(0.00104597 -1.38696e-05 0)
(0.00104665 -1.62377e-05 0)
(0.00104747 -1.80259e-05 0)
(0.00104826 -2.07795e-05 0)
(0.00104914 -2.26081e-05 0)
(0.001 5.64056e-07 0)
(0.0010001 1.68593e-06 0)
(0.00100029 2.79343e-06 0)
(0.00100057 3.87827e-06 0)
(0.00100094 4.9326e-06 0)
(0.0010014 5.94954e-06 0)
(0.00100194 6.92323e-06 0)
(0.00100255 7.84861e-06 0)
(0.00100324 8.72179e-06 0)
(0.00100398 9.54041e-06 0)
(0.00100478 1.03031e-05 0)
(0.00100564 1.10084e-05 0)
(0.00100653 1.16545e-05 0)
(0.00100746 1.22408e-05 0)
(0.00100844 1.27679e-05 0)
(0.00100944 1.32365e-05 0)
(0.00101047 1.36459e-05 0)
(0.00101151 1.39945e-05 0)
(0.00101258 1.42818e-05 0)
(0.00101365 1.451e-05 0)
(0.00101471 1.46821e-05 0)
(0.00101579 1.47998e-05 0)
(0.0010169 1.48605e-05 0)
(0.00101801 1.48605e-05 0)
(0.00101908 1.47987e-05 0)
(0.00102013 1.46811e-05 0)
(0.00102118 1.45158e-05 0)
(0.00102224 1.43092e-05 0)
(0.00102328 1.40583e-05 0)
(0.00102427 1.37559e-05 0)
(0.00102524 1.3392e-05 0)
(0.00102619 1.29668e-05 0)
(0.00102711 1.24888e-05 0)
(0.001028 1.19825e-05 0)
(0.00102883 1.14698e-05 0)
(0.00102964 1.09737e-05 0)
(0.0010304 1.04927e-05 0)
(0.00103115 1.00192e-05 0)
(0.00103186 9.51533e-06 0)
(0.00103255 8.95399e-06 0)
(0.00103323 8.28416e-06 0)
(0.00103388 7.49304e-06 0)
(0.0010345 6.54205e-06 0)
(0.0010351 5.45282e-06 0)
(0.00103566 4.19943e-06 0)
(0.00103618 2.83867e-06 0)
(0.00103666 1.33373e-06 0)
(0.00103709 -2.27024e-07 0)
(0.00103749 -1.91438e-06 0)
(0.00103788 -3.61741e-06 0)
(0.00103825 -5.45361e-06 0)
(0.00103861 -7.26107e-06 0)
(0.00103896 -9.24405e-06 0)
(0.00103934 -1.11513e-05 0)
(0.00103972 -1.332e-05 0)
(0.00104015 -1.53575e-05 0)
(0.00104057 -1.77739e-05 0)
(0.00104107 -1.99755e-05 0)
(0.00104149 -2.27479e-05 0)
(0.00104195 -2.51311e-05 0)
(0.001 4.48319e-07 0)
(0.00100008 1.34036e-06 0)
(0.00100023 2.22229e-06 0)
(0.00100046 3.08843e-06 0)
(0.00100076 3.93325e-06 0)
(0.00100114 4.75174e-06 0)
(0.00100158 5.53936e-06 0)
(0.00100209 6.29189e-06 0)
(0.00100266 7.00585e-06 0)
(0.00100328 7.67877e-06 0)
(0.00100395 8.30873e-06 0)
(0.00100467 8.89366e-06 0)
(0.00100543 9.43151e-06 0)
(0.00100622 9.92114e-06 0)
(0.00100706 1.03627e-05 0)
(0.00100792 1.07565e-05 0)
(0.00100881 1.11014e-05 0)
(0.00100971 1.13958e-05 0)
(0.00101064 1.16394e-05 0)
(0.00101158 1.18338e-05 0)
(0.0010125 1.19815e-05 0)
(0.00101344 1.20832e-05 0)
(0.00101442 1.21367e-05 0)
(0.0010154 1.21391e-05 0)
(0.00101634 1.20902e-05 0)
(0.00101726 1.19951e-05 0)
(0.00101819 1.18607e-05 0)
(0.00101913 1.16911e-05 0)
(0.00102005 1.14837e-05 0)
(0.00102093 1.12314e-05 0)
(0.00102178 1.09273e-05 0)
(0.00102263 1.05718e-05 0)
(0.00102346 1.01741e-05 0)
(0.00102425 9.75278e-06 0)
(0.001025 9.32627e-06 0)
(0.00102573 8.90838e-06 0)
(0.00102643 8.49728e-06 0)
(0.00102711 8.07979e-06 0)
(0.00102777 7.62678e-06 0)
(0.00102841 7.10879e-06 0)
(0.00102903 6.49093e-06 0)
(0.00102963 5.75328e-06 0)
(0.0010302 4.87625e-06 0)
(0.00103074 3.86246e-06 0)
(0.00103124 2.70843e-06 0)
(0.00103169 1.43645e-06 0)
(0.0010321 4.45091e-08 0)
(0.00103248 -1.43622e-06 0)
(0.00103281 -3.00877e-06 0)
(0.00103309 -4.64628e-06 0)
(0.00103333 -6.37801e-06 0)
(0.00103355 -8.1673e-06 0)
(0.00103372 -1.00608e-05 0)
(0.00103388 -1.2016e-05 0)
(0.00103401 -1.41069e-05 0)
(0.00103414 -1.62625e-05 0)
(0.00103422 -1.8608e-05 0)
(0.00103433 -2.10211e-05 0)
(0.00103433 -2.36826e-05 0)
(0.00103431 -2.64137e-05 0)
(0.001 3.53238e-07 0)
(0.00100007 1.05616e-06 0)
(0.00100019 1.75161e-06 0)
(0.00100039 2.43555e-06 0)
(0.00100064 3.104e-06 0)
(0.00100095 3.75332e-06 0)
(0.00100133 4.38002e-06 0)
(0.00100176 4.98077e-06 0)
(0.00100224 5.5527e-06 0)
(0.00100277 6.09364e-06 0)
(0.00100334 6.60179e-06 0)
(0.00100396 7.07521e-06 0)
(0.00100461 7.51195e-06 0)
(0.0010053 7.91089e-06 0)
(0.00100602 8.27194e-06 0)
(0.00100678 8.59496e-06 0)
(0.00100755 8.87882e-06 0)
(0.00100834 9.12201e-06 0)
(0.00100915 9.32421e-06 0)
(0.00100997 9.48677e-06 0)
(0.00101079 9.61147e-06 0)
(0.00101162 9.69856e-06 0)
(0.00101249 9.74606e-06 0)
(0.00101336 9.75151e-06 0)
(0.00101419 9.71527e-06 0)
(0.001015 9.64144e-06 0)
(0.00101583 9.53569e-06 0)
(0.00101667 9.40041e-06 0)
(0.00101749 9.23308e-06 0)
(0.00101827 9.02722e-06 0)
(0.00101904 8.77792e-06 0)
(0.00101979 8.48552e-06 0)
(0.00102053 8.15891e-06 0)
(0.00102124 7.81196e-06 0)
(0.00102192 7.45998e-06 0)
(0.00102257 7.11021e-06 0)
(0.0010232 6.76128e-06 0)
(0.00102382 6.39702e-06 0)
(0.00102441 5.99629e-06 0)
(0.00102498 5.52918e-06 0)
(0.00102553 4.97384e-06 0)
(0.00102605 4.30644e-06 0)
(0.00102655 3.52147e-06 0)
(0.001027 2.60836e-06 0)
(0.00102741 1.58131e-06 0)
(0.00102776 4.33395e-07 0)
(0.00102806 -8.06264e-07 0)
(0.00102831 -2.1523e-06 0)
(0.00102849 -3.57242e-06 0)
(0.00102861 -5.09827e-06 0)
(0.00102868 -6.68128e-06 0)
(0.00102868 -8.38348e-06 0)
(0.00102863 -1.01344e-05 0)
(0.00102853 -1.20394e-05 0)
(0.00102836 -1.39836e-05 0)
(0.00102815 -1.61415e-05 0)
(0.00102786 -1.83202e-05 0)
(0.00102754 -2.07949e-05 0)
(0.00102708 -2.32601e-05 0)
(0.00102655 -2.61338e-05 0)
(0.001 2.72734e-07 0)
(0.00100006 8.15469e-07 0)
(0.00100017 1.35266e-06 0)
(0.00100033 1.88139e-06 0)
(0.00100055 2.3988e-06 0)
(0.00100082 2.9022e-06 0)
(0.00100114 3.38903e-06 0)
(0.00100151 3.85671e-06 0)
(0.00100193 4.30302e-06 0)
(0.00100239 4.72623e-06 0)
(0.00100289 5.12485e-06 0)
(0.00100343 5.49722e-06 0)
(0.001004 5.84168e-06 0)
(0.00100461 6.15725e-06 0)
(0.00100524 6.44371e-06 0)
(0.00100591 6.70076e-06 0)
(0.00100659 6.92728e-06 0)
(0.00100729 7.12193e-06 0)
(0.00100802 7.28445e-06 0)
(0.00100875 7.41581e-06 0)
(0.00100947 7.51727e-06 0)
(0.00101022 7.58869e-06 0)
(0.001011 7.62837e-06 0)
(0.00101178 7.63428e-06 0)
(0.00101252 7.60696e-06 0)
(0.00101324 7.5496e-06 0)
(0.00101399 7.46664e-06 0)
(0.00101474 7.35927e-06 0)
(0.00101548 7.22532e-06 0)
(0.00101618 7.05905e-06 0)
(0.00101687 6.85721e-06 0)
(0.00101755 6.61986e-06 0)
(0.00101821 6.3551e-06 0)
(0.00101884 6.07274e-06 0)
(0.00101945 5.78528e-06 0)
(0.00102003 5.49551e-06 0)
(0.00102059 5.20271e-06 0)
(0.00102113 4.89015e-06 0)
(0.00102165 4.54326e-06 0)
(0.00102215 4.13384e-06 0)
(0.00102262 3.64977e-06 0)
(0.00102306 3.06566e-06 0)
(0.00102345 2.38557e-06 0)
(0.0010238 1.59064e-06 0)
(0.0010241 7.04414e-07 0)
(0.00102434 -2.96348e-07 0)
(0.00102451 -1.36736e-06 0)
(0.00102461 -2.54886e-06 0)
(0.00102464 -3.78036e-06 0)
(0.00102459 -5.13312e-06 0)
(0.00102446 -6.51432e-06 0)
(0.00102424 -8.04711e-06 0)
(0.00102394 -9.58514e-06 0)
(0.00102356 -1.13306e-05 0)
(0.00102309 -1.30473e-05 0)
(0.00102253 -1.50601e-05 0)
(0.00102186 -1.69846e-05 0)
(0.0010211 -1.93427e-05 0)
(0.00102018 -2.15045e-05 0)
(0.00101912 -2.4301e-05 0)
(0.001 2.02656e-07 0)
(0.00100005 6.05933e-07 0)
(0.00100015 1.00519e-06 0)
(0.00100029 1.39835e-06 0)
(0.00100049 1.7834e-06 0)
(0.00100073 2.15842e-06 0)
(0.00100101 2.52155e-06 0)
(0.00100134 2.87092e-06 0)
(0.00100171 3.20487e-06 0)
(0.00100212 3.52212e-06 0)
(0.00100256 3.82151e-06 0)
(0.00100305 4.1017e-06 0)
(0.00100356 4.36142e-06 0)
(0.0010041 4.59984e-06 0)
(0.00100467 4.81673e-06 0)
(0.00100527 5.01172e-06 0)
(0.00100589 5.18385e-06 0)
(0.00100652 5.33203e-06 0)
(0.00100718 5.45599e-06 0)
(0.00100784 5.55643e-06 0)
(0.00100849 5.63418e-06 0)
(0.00100916 5.68894e-06 0)
(0.00100987 5.71935e-06 0)
(0.00101058 5.72387e-06 0)
(0.00101125 5.70306e-06 0)
(0.00101191 5.65928e-06 0)
(0.00101258 5.59585e-06 0)
(0.00101327 5.51321e-06 0)
(0.00101394 5.40962e-06 0)
(0.00101458 5.28035e-06 0)
(0.0010152 5.12336e-06 0)
(0.00101581 4.93849e-06 0)
(0.00101641 4.7325e-06 0)
(0.00101698 4.51199e-06 0)
(0.00101752 4.2867e-06 0)
(0.00101804 4.05681e-06 0)
(0.00101854 3.82218e-06 0)
(0.00101901 3.56757e-06 0)
(0.00101946 3.28359e-06 0)
(0.00101989 2.94578e-06 0)
(0.00102028 2.54865e-06 0)
(0.00102064 2.06825e-06 0)
(0.00102094 1.51392e-06 0)
(0.0010212 8.63792e-07 0)
(0.00102139 1.44385e-07 0)
(0.00102151 -6.71984e-07 0)
(0.00102155 -1.54061e-06 0)
(0.00102151 -2.51223e-06 0)
(0.00102138 -3.51605e-06 0)
(0.00102116 -4.63877e-06 0)
(0.00102084 -5.77099e-06 0)
(0.00102041 -7.0585e-06 0)
(0.00101988 -8.32618e-06 0)
(0.00101923 -9.81206e-06 0)
(0.00101846 -1.12316e-05 0)
(0.00101757 -1.29695e-05 0)
(0.00101654 -1.45618e-05 0)
(0.00101536 -1.66274e-05 0)
(0.00101401 -1.84093e-05 0)
(0.00101247 -2.09011e-05 0)
(0.001 1.39919e-07 0)
(0.00100005 4.18347e-07 0)
(0.00100013 6.94036e-07 0)
(0.00100027 9.65605e-07 0)
(0.00100044 1.2317e-06 0)
(0.00100066 1.49103e-06 0)
(0.00100092 1.74235e-06 0)
(0.00100122 1.98437e-06 0)
(0.00100156 2.21597e-06 0)
(0.00100193 2.43624e-06 0)
(0.00100234 2.64435e-06 0)
(0.00100278 2.83937e-06 0)
(0.00100325 3.02035e-06 0)
(0.00100374 3.18671e-06 0)
(0.00100427 3.33824e-06 0)
(0.00100482 3.4746e-06 0)
(0.00100539 3.59507e-06 0)
(0.00100597 3.69885e-06 0)
(0.00100657 3.78577e-06 0)
(0.00100718 3.85627e-06 0)
(0.00100778 3.91086e-06 0)
(0.0010084 3.94924e-06 0)
(0.00100906 3.97045e-06 0)
(0.00100972 3.97342e-06 0)
(0.00101034 3.95861e-06 0)
(0.00101094 3.92758e-06 0)
(0.00101157 3.88258e-06 0)
(0.0010122 3.82364e-06 0)
(0.00101282 3.74952e-06 0)
(0.00101341 3.65675e-06 0)
(0.00101398 3.54416e-06 0)
(0.00101454 3.41153e-06 0)
(0.00101509 3.26388e-06 0)
(0.00101561 3.10523e-06 0)
(0.0010161 2.94251e-06 0)
(0.00101656 2.7747e-06 0)
(0.00101701 2.60205e-06 0)
(0.00101743 2.41247e-06 0)
(0.00101783 2.2005e-06 0)
(0.00101819 1.94732e-06 0)
(0.00101852 1.65123e-06 0)
(0.0010188 1.29276e-06 0)
(0.00101903 8.82081e-07 0)
(0.0010192 3.98908e-07 0)
(0.00101929 -1.32395e-07 0)
(0.00101932 -7.38811e-07 0)
(0.00101925 -1.38054e-06 0)
(0.00101909 -2.10513e-06 0)
(0.00101882 -2.84865e-06 0)
(0.00101845 -3.69135e-06 0)
(0.00101797 -4.53323e-06 0)
(0.00101736 -5.50781e-06 0)
(0.00101662 -6.45391e-06 0)
(0.00101575 -7.58919e-06 0)
(0.00101473 -8.65118e-06 0)
(0.00101356 -9.99254e-06 0)
(0.00101221 -1.11839e-05 0)
(0.00101069 -1.27959e-05 0)
(0.00100896 -1.41249e-05 0)
(0.00100702 -1.60921e-05 0)
(0.001 8.20724e-08 0)
(0.00100004 2.45388e-07 0)
(0.00100013 4.07107e-07 0)
(0.00100025 5.66437e-07 0)
(0.00100041 7.22599e-07 0)
(0.00100062 8.74854e-07 0)
(0.00100086 1.02247e-06 0)
(0.00100114 1.1647e-06 0)
(0.00100146 1.30089e-06 0)
(0.00100181 1.43051e-06 0)
(0.00100219 1.55305e-06 0)
(0.00100261 1.66796e-06 0)
(0.00100305 1.77467e-06 0)
(0.00100351 1.87285e-06 0)
(0.00100401 1.96232e-06 0)
(0.00100453 2.04287e-06 0)
(0.00100506 2.11405e-06 0)
(0.00100561 2.17541e-06 0)
(0.00100619 2.22687e-06 0)
(0.00100676 2.26862e-06 0)
(0.00100733 2.30092e-06 0)
(0.00100792 2.32355e-06 0)
(0.00100854 2.33597e-06 0)
(0.00100916 2.33759e-06 0)
(0.00100975 2.32869e-06 0)
(0.00101032 2.3101e-06 0)
(0.00101091 2.28304e-06 0)
(0.00101151 2.2474e-06 0)
(0.00101209 2.20252e-06 0)
(0.00101264 2.14638e-06 0)
(0.00101318 2.07848e-06 0)
(0.00101371 1.99862e-06 0)
(0.00101422 1.90976e-06 0)
(0.0010147 1.81388e-06 0)
(0.00101516 1.715e-06 0)
(0.00101559 1.612e-06 0)
(0.001016 1.50524e-06 0)
(0.00101638 1.38717e-06 0)
(0.00101673 1.2552e-06 0)
(0.00101705 1.09766e-06 0)
(0.00101733 9.14508e-07 0)
(0.00101756 6.93164e-07 0)
(0.00101773 4.41061e-07 0)
(0.00101784 1.44064e-07 0)
(0.00101787 -1.80807e-07 0)
(0.00101782 -5.53876e-07 0)
(0.00101767 -9.4733e-07 0)
(0.00101742 -1.3944e-06 0)
(0.00101706 -1.85119e-06 0)
(0.00101658 -2.37362e-06 0)
(0.00101597 -2.89244e-06 0)
(0.00101523 -3.50022e-06 0)
(0.00101435 -4.08484e-06 0)
(0.00101331 -4.79732e-06 0)
(0.00101211 -5.4547e-06 0)
(0.00101073 -6.30214e-06 0)
(0.00100916 -7.03983e-06 0)
(0.00100739 -8.06555e-06 0)
(0.00100539 -8.88667e-06 0)
(0.00100314 -1.01485e-05 0)
(0.001 2.70321e-08 0)
(0.00100004 8.08225e-08 0)
(0.00100012 1.34086e-07 0)
(0.00100024 1.86566e-07 0)
(0.0010004 2.3801e-07 0)
(0.0010006 2.88171e-07 0)
(0.00100083 3.36806e-07 0)
(0.00100111 3.8368e-07 0)
(0.00100141 4.28583e-07 0)
(0.00100175 4.71326e-07 0)
(0.00100212 5.11729e-07 0)
(0.00100252 5.49615e-07 0)
(0.00100295 5.84827e-07 0)
(0.0010034 6.17245e-07 0)
(0.00100388 6.46778e-07 0)
(0.00100439 6.73326e-07 0)
(0.00100491 6.96773e-07 0)
(0.00100544 7.17022e-07 0)
(0.001006 7.34045e-07 0)
(0.00100656 7.47843e-07 0)
(0.00100711 7.58425e-07 0)
(0.00100768 7.65719e-07 0)
(0.00100828 7.69648e-07 0)
(0.00100889 7.70104e-07 0)
(0.00100946 7.67178e-07 0)
(0.00101001 7.60987e-07 0)
(0.00101058 7.51782e-07 0)
(0.00101117 7.39468e-07 0)
(0.00101173 7.23971e-07 0)
(0.00101227 7.04855e-07 0)
(0.00101278 6.82154e-07 0)
(0.00101329 6.55749e-07 0)
(0.00101379 6.26392e-07 0)
(0.00101425 5.94325e-07 0)
(0.00101469 5.60584e-07 0)
(0.0010151 5.2463e-07 0)
(0.00101549 4.86778e-07 0)
(0.00101585 4.44774e-07 0)
(0.00101619 3.98278e-07 0)
(0.00101648 3.43656e-07 0)
(0.00101673 2.81239e-07 0)
(0.00101694 2.06706e-07 0)
(0.00101708 1.22612e-07 0)
(0.00101715 2.37093e-08 0)
(0.00101715 -8.42005e-08 0)
(0.00101706 -2.08544e-07 0)
(0.00101687 -3.39729e-07 0)
(0.00101657 -4.89729e-07 0)
(0.00101616 -6.42962e-07 0)
(0.00101562 -8.19401e-07 0)
(0.00101495 -9.94314e-07 0)
(0.00101414 -1.20067e-06 0)
(0.00101318 -1.39839e-06 0)
(0.00101206 -1.6413e-06 0)
(0.00101076 -1.86399e-06 0)
(0.00100927 -2.15398e-06 0)
(0.00100758 -2.40395e-06 0)
(0.00100567 -2.75622e-06 -4.2907e-38)
(0.00100353 -3.03418e-06 0)
(0.00100113 -3.46921e-06 0)
(0.001 -2.70927e-08 0)
(0.00100004 -8.10039e-08 0)
(0.00100012 -1.34396e-07 0)
(0.00100024 -1.87005e-07 0)
(0.0010004 -2.38572e-07 0)
(0.0010006 -2.8887e-07 0)
(0.00100083 -3.37659e-07 0)
(0.00100111 -3.8468e-07 0)
(0.00100141 -4.29704e-07 0)
(0.00100175 -4.72583e-07 0)
(0.00100212 -5.13173e-07 0)
(0.00100252 -5.51264e-07 0)
(0.00100295 -5.86624e-07 0)
(0.0010034 -6.1914e-07 0)
(0.00100388 -6.4883e-07 0)
(0.00100439 -6.75661e-07 0)
(0.00100491 -6.99423e-07 0)
(0.00100544 -7.19858e-07 0)
(0.001006 -7.36922e-07 0)
(0.00100656 -7.50814e-07 0)
(0.00100711 -7.61756e-07 0)
(0.00100768 -7.69641e-07 0)
(0.00100828 -7.7408e-07 0)
(0.00100889 -7.74674e-07 0)
(0.00100946 -7.71562e-07 0)
(0.00101001 -7.65298e-07 0)
(0.00101058 -7.56618e-07 0)
(0.00101117 -7.45536e-07 0)
(0.00101173 -7.31533e-07 0)
(0.00101227 -7.13426e-07 0)
(0.00101278 -6.9071e-07 0)
(0.00101329 -6.63369e-07 0)
(0.00101379 -6.32934e-07 0)
(0.00101425 -6.00774e-07 0)
(0.00101469 -5.68848e-07 0)
(0.0010151 -5.36902e-07 0)
(0.00101549 -5.04755e-07 0)
(0.00101585 -4.69063e-07 0)
(0.00101618 -4.28182e-07 0)
(0.00101648 -3.77383e-07 0)
(0.00101673 -3.16372e-07 0)
(0.00101694 -2.40761e-07 0)
(0.00101708 -1.53517e-07 0)
(0.00101715 -5.00708e-08 0)
(0.00101715 6.30054e-08 0)
(0.00101706 1.92478e-07 0)
(0.00101687 3.28275e-07 0)
(0.00101657 4.82088e-07 0)
(0.00101616 6.38239e-07 0)
(0.00101562 8.16736e-07 0)
(0.00101495 9.92963e-07 0)
(0.00101414 1.20004e-06 0)
(0.00101318 1.39802e-06 0)
(0.00101206 1.64088e-06 0)
(0.00101076 1.86329e-06 0)
(0.00100927 2.15285e-06 0)
(0.00100758 2.4023e-06 0)
(0.00100567 2.75398e-06 4.2907e-38)
(0.00100353 3.03131e-06 0)
(0.00100113 3.46567e-06 0)
(0.001 -8.21325e-08 0)
(0.00100004 -2.45568e-07 0)
(0.00100013 -4.07415e-07 0)
(0.00100025 -5.66873e-07 0)
(0.00100041 -7.23157e-07 0)
(0.00100062 -8.75547e-07 0)
(0.00100086 -1.02331e-06 0)
(0.00100114 -1.16569e-06 0)
(0.00100146 -1.302e-06 0)
(0.00100181 -1.43176e-06 0)
(0.00100219 -1.55449e-06 0)
(0.00100261 -1.66959e-06 0)
(0.00100305 -1.77645e-06 0)
(0.00100351 -1.87473e-06 0)
(0.00100401 -1.96436e-06 0)
(0.00100453 -2.04518e-06 0)
(0.00100506 -2.11667e-06 0)
(0.00100561 -2.17822e-06 0)
(0.00100619 -2.22972e-06 0)
(0.00100676 -2.27156e-06 0)
(0.00100733 -2.30422e-06 0)
(0.00100792 -2.32743e-06 0)
(0.00100854 -2.34036e-06 0)
(0.00100916 -2.34211e-06 0)
(0.00100975 -2.33304e-06 0)
(0.00101032 -2.31437e-06 0)
(0.0010109 -2.28783e-06 0)
(0.00101151 -2.2534e-06 0)
(0.00101209 -2.20999e-06 0)
(0.00101264 -2.15485e-06 0)
(0.00101318 -2.08694e-06 0)
(0.00101371 -2.00615e-06 0)
(0.00101422 -1.91623e-06 0)
(0.0010147 -1.82026e-06 0)
(0.00101516 -1.72315e-06 0)
(0.00101559 -1.62409e-06 0)
(0.001016 -1.52297e-06 0)
(0.00101638 -1.41113e-06 0)
(0.00101673 -1.28473e-06 0)
(0.00101705 -1.131e-06 0)
(0.00101733 -9.49263e-07 0)
(0.00101756 -7.26886e-07 0)
(0.00101773 -4.71688e-07 0)
(0.00101784 -1.70209e-07 0)
(0.00101787 1.59803e-07 0)
(0.00101782 5.37921e-07 0)
(0.00101767 9.35935e-07 0)
(0.00101742 1.38678e-06 0)
(0.00101706 1.84646e-06 0)
(0.00101658 2.37094e-06 0)
(0.00101597 2.89106e-06 0)
(0.00101523 3.49955e-06 0)
(0.00101435 4.08444e-06 0)
(0.00101331 4.79686e-06 0)
(0.00101211 5.45398e-06 0)
(0.00101073 6.30099e-06 0)
(0.00100916 7.03817e-06 0)
(0.00100738 8.06331e-06 0)
(0.00100538 8.88381e-06 0)
(0.00100314 1.0145e-05 0)
(0.001 -1.39978e-07 0)
(0.00100005 -4.18524e-07 0)
(0.00100013 -6.94339e-07 0)
(0.00100027 -9.66032e-07 0)
(0.00100044 -1.23224e-06 0)
(0.00100066 -1.49171e-06 0)
(0.00100092 -1.74318e-06 0)
(0.00100122 -1.98535e-06 0)
(0.00100156 -2.21706e-06 0)
(0.00100193 -2.43746e-06 0)
(0.00100234 -2.64576e-06 0)
(0.00100278 -2.84097e-06 0)
(0.00100325 -3.02209e-06 0)
(0.00100374 -3.18855e-06 0)
(0.00100427 -3.34023e-06 0)
(0.00100482 -3.47687e-06 0)
(0.00100539 -3.59764e-06 0)
(0.00100597 -3.70161e-06 0)
(0.00100657 -3.78857e-06 0)
(0.00100718 -3.85915e-06 0)
(0.00100778 -3.91409e-06 0)
(0.0010084 -3.95304e-06 0)
(0.00100906 -3.97475e-06 0)
(0.00100972 -3.97785e-06 0)
(0.00101034 -3.96287e-06 0)
(0.00101094 -3.93176e-06 0)
(0.00101157 -3.88726e-06 0)
(0.0010122 -3.8295e-06 0)
(0.00101282 -3.75682e-06 0)
(0.00101341 -3.66503e-06 0)
(0.00101398 -3.55245e-06 0)
(0.00101454 -3.41893e-06 0)
(0.00101509 -3.27022e-06 0)
(0.00101561 -3.11145e-06 0)
(0.0010161 -2.95043e-06 0)
(0.00101656 -2.78645e-06 0)
(0.00101701 -2.61926e-06 0)
(0.00101743 -2.43577e-06 0)
(0.00101782 -2.22925e-06 0)
(0.00101819 -1.97983e-06 0)
(0.00101851 -1.68517e-06 0)
(0.00101879 -1.32574e-06 0)
(0.00101902 -9.12081e-07 0)
(0.00101919 -4.24582e-07 0)
(0.00101929 1.11688e-07 0)
(0.00101931 7.23094e-07 0)
(0.00101924 1.36929e-06 0)
(0.00101908 2.09758e-06 0)
(0.00101882 2.84396e-06 0)
(0.00101845 3.68866e-06 0)
(0.00101796 4.53184e-06 0)