/*--------------------------------*- C++ -*----------------------------------*\
| =========                 |                                                 |
| \\      /  F ield         | OpenFOAM: The Open Source CFD Toolbox           |
|  \\    /   O peration     | Version:  2312                                  |
|   \\  /    A nd           | Website:  www.openfoam.com                      |
|    \\/     M anipulation  |                                                 |
\*---------------------------------------------------------------------------*/
FoamFile
{
    version     2.0;
    format      ascii;
    arch        "LSB;label=32;scalar=64";
    class       volScalarField;
    location    "66000";
    object      p;
}
// * * * * * * * * * * * * * * * * * * * * * * * * * * * * * * * * * * * * * //

dimensions      [0 2 -2 0 0 0 0];

internalField   nonuniform List<scalar> 
2685
(
-2.76841e-07
-2.93217e-07
-2.90203e-07
-2.88149e-07
-2.88169e-07
-2.88826e-07
-2.89135e-07
-2.8909e-07
-2.89177e-07
-2.89879e-07
-2.91448e-07
-2.93989e-07
-2.97532e-07
-3.02057e-07
-3.07463e-07
-3.13502e-07
-3.19692e-07
-3.25341e-07
-3.29732e-07
-3.32343e-07
-3.32941e-07
-3.31438e-07
-3.2806e-07
-3.23356e-07
-3.17842e-07
-3.12048e-07
-3.06239e-07
-3.00807e-07
-2.95988e-07
-2.91877e-07
-2.88487e-07
-2.85774e-07
-2.83633e-07
-2.81952e-07
-2.80675e-07
-2.79762e-07
-2.79119e-07
-2.78672e-07
-2.78359e-07
-2.78133e-07
-2.77957e-07
-2.77803e-07
-2.7764e-07
-2.77441e-07
-2.77177e-07
-2.76814e-07
-2.76316e-07
-2.75633e-07
-2.74711e-07
-2.73494e-07
-2.71925e-07
-2.69949e-07
-2.67517e-07
-2.64581e-07
-2.61103e-07
-2.57052e-07
-2.52408e-07
-2.47159e-07
-2.41329e-07
-2.34923e-07
-2.2796e-07
-2.20473e-07
-2.12506e-07
-2.0411e-07
-1.95346e-07
-1.86279e-07
-1.76979e-07
-1.67517e-07
-1.57965e-07
-1.48395e-07
-1.38873e-07
-1.29464e-07
-1.20224e-07
-1.11204e-07
-1.02449e-07
-9.40032e-08
-8.59043e-08
-7.81766e-08
-7.08394e-08
-6.39058e-08
-5.73835e-08
-5.1275e-08
-4.55782e-08
-4.02873e-08
-3.53931e-08
-3.08837e-08
-2.67448e-08
-2.29605e-08
-1.95135e-08
-1.63856e-08
-3.36539e-07
-3.22835e-07
-3.17662e-07
-3.14733e-07
-3.11972e-07
-3.0914e-07
-3.06511e-07
-3.04447e-07
-3.0321e-07
-3.02949e-07
-3.03729e-07
-3.05567e-07
-3.08444e-07
-3.12292e-07
-3.16961e-07
-3.22154e-07
-3.27343e-07
-3.31698e-07
-3.34293e-07
-3.34465e-07
-3.31981e-07
-3.27158e-07
-3.20624e-07
-3.13227e-07
-3.057e-07
-2.98757e-07
-2.92854e-07
-2.88078e-07
-2.84474e-07
-2.82e-07
-2.80506e-07
-2.79764e-07
-2.79508e-07
-2.79543e-07
-2.79723e-07
-2.79963e-07
-2.80185e-07
-2.80337e-07
-2.80397e-07
-2.80358e-07
-2.80221e-07
-2.79999e-07
-2.79701e-07
-2.79335e-07
-2.78903e-07
-2.78417e-07
-2.77852e-07
-2.77141e-07
-2.76226e-07
-2.75047e-07
-2.73544e-07
-2.71652e-07
-2.69313e-07
-2.66473e-07
-2.63082e-07
-2.59083e-07
-2.5453e-07
-2.49389e-07
-2.43625e-07
-2.37249e-07
-2.30283e-07
-2.22761e-07
-2.1473e-07
-2.06247e-07
-1.97373e-07
-1.8818e-07
-1.7874e-07
-1.69131e-07
-1.59428e-07
-1.49706e-07
-1.40036e-07
-1.30485e-07
-1.21114e-07
-1.11978e-07
-1.03124e-07
-9.459e-08
-8.64092e-08
-7.86076e-08
-7.12048e-08
-6.42138e-08
-5.76419e-08
-5.14913e-08
-4.57599e-08
-4.04415e-08
-3.55267e-08
-3.10031e-08
-2.68555e-08
-2.30671e-08
-1.96196e-08
-1.64942e-08
-3.63896e-07
-3.51457e-07
-3.46088e-07
-3.42996e-07
-3.39875e-07
-3.36247e-07
-3.32369e-07
-3.28745e-07
-3.25762e-07
-3.23593e-07
-3.22255e-07
-3.21668e-07
-3.21704e-07
-3.22209e-07
-3.23008e-07
-3.23893e-07
-3.24615e-07
-3.24905e-07
-3.24506e-07
-3.23239e-07
-3.21034e-07
-3.17975e-07
-3.14258e-07
-3.10207e-07
-3.06338e-07
-3.02787e-07
-2.99487e-07
-2.96297e-07
-2.93172e-07
-2.90187e-07
-2.87459e-07
-2.85058e-07
-2.82983e-07
-2.8121e-07
-2.79742e-07
-2.78592e-07
-2.77727e-07
-2.77064e-07
-2.76607e-07
-2.76383e-07
-2.76372e-07
-2.76519e-07
-2.76757e-07
-2.77022e-07
-2.77256e-07
-2.77433e-07
-2.77523e-07
-2.77446e-07
-2.771e-07
-2.7641e-07
-2.75315e-07
-2.73753e-07
-2.71665e-07
-2.69006e-07
-2.65732e-07
-2.61831e-07
-2.57292e-07
-2.52108e-07
-2.46276e-07
-2.39805e-07
-2.32724e-07
-2.25074e-07
-2.16909e-07
-2.08293e-07
-1.99291e-07
-1.89977e-07
-1.80427e-07
-1.70718e-07
-1.60927e-07
-1.5113e-07
-1.41397e-07
-1.31795e-07
-1.22384e-07
-1.13217e-07
-1.04342e-07
-9.57972e-08
-8.76144e-08
-7.98185e-08
-7.24278e-08
-6.54538e-08
-5.89022e-08
-5.27732e-08
-4.70627e-08
-4.17625e-08
-3.68614e-08
-3.23465e-08
-2.82029e-08
-2.44141e-08
-2.09618e-08
-1.78271e-08
-4.14217e-07
-4.02515e-07
-3.93973e-07
-3.87219e-07
-3.81161e-07
-3.75258e-07
-3.69398e-07
-3.6369e-07
-3.58323e-07
-3.53449e-07
-3.49138e-07
-3.4538e-07
-3.42108e-07
-3.39227e-07
-3.36627e-07
-3.34199e-07
-3.3183e-07
-3.29398e-07
-3.26775e-07
-3.23835e-07
-3.20491e-07
-3.16739e-07
-3.12649e-07
-3.08333e-07
-3.03908e-07
-2.99396e-07
-2.94816e-07
-2.90339e-07
-2.86193e-07
-2.82565e-07
-2.7954e-07
-2.77135e-07
-2.75305e-07
-2.73967e-07
-2.73034e-07
-2.72444e-07
-2.72208e-07
-2.72324e-07
-2.72702e-07
-2.73194e-07
-2.73669e-07
-2.74057e-07
-2.74337e-07
-2.74504e-07
-2.74555e-07
-2.74479e-07
-2.7425e-07
-2.73823e-07
-2.73138e-07
-2.72139e-07
-2.7078e-07
-2.69002e-07
-2.66745e-07
-2.63963e-07
-2.60589e-07
-2.56639e-07
-2.52125e-07
-2.47019e-07
-2.4131e-07
-2.3501e-07
-2.28148e-07
-2.20756e-07
-2.12872e-07
-2.04554e-07
-1.95873e-07
-1.86905e-07
-1.77721e-07
-1.68392e-07
-1.58989e-07
-1.49585e-07
-1.40248e-07
-1.3104e-07
-1.22018e-07
-1.13232e-07
-1.04724e-07
-9.65248e-08
-8.86613e-08
-8.11551e-08
-7.40238e-08
-6.72797e-08
-6.09298e-08
-5.49758e-08
-4.94143e-08
-4.42381e-08
-3.94375e-08
-3.50005e-08
-3.09136e-08
-2.71611e-08
-2.37263e-08
-2.05919e-08
-4.5624e-07
-4.44998e-07
-4.35364e-07
-4.26876e-07
-4.19008e-07
-4.11365e-07
-4.03765e-07
-3.96206e-07
-3.88788e-07
-3.81636e-07
-3.74835e-07
-3.68417e-07
-3.62364e-07
-3.56626e-07
-3.51139e-07
-3.45833e-07
-3.4064e-07
-3.35495e-07
-3.30345e-07
-3.2514e-07
-3.19841e-07
-3.14409e-07
-3.0884e-07
-3.03186e-07
-2.97548e-07
-2.92047e-07
-2.86805e-07
-2.81943e-07
-2.77564e-07
-2.73745e-07
-2.70531e-07
-2.67906e-07
-2.65819e-07
-2.64192e-07
-2.62948e-07
-2.62024e-07
-2.6137e-07
-2.60915e-07
-2.60558e-07
-2.60242e-07
-2.59956e-07
-2.59714e-07
-2.59524e-07
-2.59371e-07
-2.5922e-07
-2.59023e-07
-2.58728e-07
-2.58278e-07
-2.57614e-07
-2.56672e-07
-2.55395e-07
-2.53734e-07
-2.51633e-07
-2.49063e-07
-2.45985e-07
-2.42389e-07
-2.38275e-07
-2.33599e-07
-2.28215e-07
-2.2227e-07
-2.15898e-07
-2.09132e-07
-2.01961e-07
-1.94399e-07
-1.86505e-07
-1.78352e-07
-1.70014e-07
-1.61551e-07
-1.53023e-07
-1.44488e-07
-1.36003e-07
-1.27622e-07
-1.19394e-07
-1.11363e-07
-1.03567e-07
-9.60416e-08
-8.88163e-08
-8.19063e-08
-7.53189e-08
-6.90597e-08
-6.31355e-08
-5.75507e-08
-5.2305e-08
-4.73937e-08
-4.28098e-08
-3.85444e-08
-3.45871e-08
-3.09256e-08
-2.75467e-08
-2.44364e-08
-4.89334e-07
-4.78958e-07
-4.70168e-07
-4.6187e-07
-4.53409e-07
-4.44556e-07
-4.35339e-07
-4.25915e-07
-4.16468e-07
-4.0715e-07
-3.98051e-07
-3.8921e-07
-3.80628e-07
-3.72286e-07
-3.64155e-07
-3.56213e-07
-3.48442e-07
-3.40823e-07
-3.33336e-07
-3.25963e-07
-3.18689e-07
-3.11512e-07
-3.0445e-07
-2.97546e-07
-2.90872e-07
-2.84522e-07
-2.78581e-07
-2.73108e-07
-2.68137e-07
-2.63681e-07
-2.59733e-07
-2.56262e-07
-2.5321e-07
-2.50537e-07
-2.48216e-07
-2.46228e-07
-2.44548e-07
-2.43142e-07
-2.41973e-07
-2.4101e-07
-2.40226e-07
-2.39598e-07
-2.3909e-07
-2.38659e-07
-2.38249e-07
-2.37807e-07
-2.37279e-07
-2.36612e-07
-2.35756e-07
-2.34661e-07
-2.33282e-07
-2.3158e-07
-2.29522e-07
-2.27082e-07
-2.24236e-07
-2.20979e-07
-2.17294e-07
-2.13206e-07
-2.0878e-07
-2.03867e-07
-1.98399e-07
-1.92513e-07
-1.86316e-07
-1.79841e-07
-1.73095e-07
-1.66111e-07
-1.58948e-07
-1.51666e-07
-1.44318e-07
-1.36947e-07
-1.29596e-07
-1.22308e-07
-1.15122e-07
-1.08078e-07
-1.01208e-07
-9.45406e-08
-8.80989e-08
-8.18986e-08
-7.5953e-08
-7.02738e-08
-6.48682e-08
-5.97385e-08
-5.48843e-08
-5.03037e-08
-4.59935e-08
-4.19489e-08
-3.81634e-08
-3.4629e-08
-3.13365e-08
-2.82764e-08
-5.32938e-07
-5.21604e-07
-5.11884e-07
-5.02353e-07
-4.92229e-07
-4.81298e-07
-4.69671e-07
-4.57617e-07
-4.4541e-07
-4.33262e-07
-4.213e-07
-4.09585e-07
-3.98137e-07
-3.86958e-07
-3.76045e-07
-3.65398e-07
-3.5502e-07
-3.44918e-07
-3.35099e-07
-3.25568e-07
-3.16336e-07
-3.0742e-07
-2.98847e-07
-2.90661e-07
-2.82903e-07
-2.75609e-07
-2.68801e-07
-2.6249e-07
-2.56678e-07
-2.5136e-07
-2.46521e-07
-2.42144e-07
-2.38202e-07
-2.34677e-07
-2.31555e-07
-2.28826e-07
-2.26476e-07
-2.2448e-07
-2.22806e-07
-2.21414e-07
-2.20256e-07
-2.19277e-07
-2.18425e-07
-2.17648e-07
-2.169e-07
-2.16141e-07
-2.15331e-07
-2.14435e-07
-2.13412e-07
-2.12226e-07
-2.10842e-07
-2.09224e-07
-2.07344e-07
-2.05176e-07
-2.02697e-07
-1.99893e-07
-1.96754e-07
-1.93281e-07
-1.89489e-07
-1.85361e-07
-1.8091e-07
-1.76129e-07
-1.71008e-07
-1.65593e-07
-1.59935e-07
-1.54073e-07
-1.48043e-07
-1.41888e-07
-1.35651e-07
-1.29372e-07
-1.23085e-07
-1.16822e-07
-1.10613e-07
-1.04492e-07
-9.8487e-08
-9.26223e-08
-8.69191e-08
-8.1395e-08
-7.60644e-08
-7.09376e-08
-6.60218e-08
-6.13214e-08
-5.68392e-08
-5.25771e-08
-4.85354e-08
-4.47127e-08
-4.11057e-08
-3.77097e-08
-3.45191e-08
-3.15276e-08
-5.92313e-07
-5.78508e-07
-5.6586e-07
-5.53375e-07
-5.40344e-07
-5.2648e-07
-5.11816e-07
-4.96571e-07
-4.81025e-07
-4.65426e-07
-4.49943e-07
-4.34681e-07
-4.19695e-07
-4.05021e-07
-3.90686e-07
-3.76721e-07
-3.63161e-07
-3.50041e-07
-3.37395e-07
-3.25254e-07
-3.13648e-07
-3.02604e-07
-2.92147e-07
-2.82297e-07
-2.73062e-07
-2.64444e-07
-2.56438e-07
-2.49036e-07
-2.42229e-07
-2.36008e-07
-2.3036e-07
-2.25269e-07
-2.20716e-07
-2.16679e-07
-2.1313e-07
-2.1004e-07
-2.07376e-07
-2.05099e-07
-2.03163e-07
-2.01522e-07
-2.00125e-07
-1.98925e-07
-1.97877e-07
-1.96941e-07
-1.96079e-07
-1.95254e-07
-1.94431e-07
-1.93572e-07
-1.92642e-07
-1.91603e-07
-1.90422e-07
-1.89067e-07
-1.87508e-07
-1.8572e-07
-1.83682e-07
-1.81378e-07
-1.78796e-07
-1.75927e-07
-1.72765e-07
-1.6931e-07
-1.65555e-07
-1.61479e-07
-1.57154e-07
-1.52655e-07
-1.47975e-07
-1.43102e-07
-1.38058e-07
-1.32881e-07
-1.27611e-07
-1.22282e-07
-1.1692e-07
-1.11551e-07
-1.06198e-07
-1.00888e-07
-9.56451e-08
-9.04924e-08
-8.5449e-08
-8.05301e-08
-7.57483e-08
-7.11152e-08
-6.66402e-08
-6.2331e-08
-5.81936e-08
-5.42323e-08
-5.04498e-08
-4.68469e-08
-4.3423e-08
-4.01761e-08
-3.71032e-08
-3.42006e-08
-6.51162e-07
-6.35874e-07
-6.20967e-07
-6.05851e-07
-5.90031e-07
-5.73286e-07
-5.55641e-07
-5.37283e-07
-5.18471e-07
-4.99448e-07
-4.80406e-07
-4.61483e-07
-4.4278e-07
-4.24377e-07
-4.06348e-07
-3.88766e-07
-3.71703e-07
-3.55228e-07
-3.39405e-07
-3.24287e-07
-3.09918e-07
-2.96333e-07
-2.8356e-07
-2.71613e-07
-2.60489e-07
-2.50176e-07
-2.40658e-07
-2.31919e-07
-2.23942e-07
-2.16711e-07
-2.10206e-07
-2.04404e-07
-1.99272e-07
-1.94773e-07
-1.90861e-07
-1.87489e-07
-1.84607e-07
-1.82164e-07
-1.80111e-07
-1.784e-07
-1.76982e-07
-1.75814e-07
-1.74852e-07
-1.74053e-07
-1.73374e-07
-1.72774e-07
-1.72211e-07
-1.71645e-07
-1.71039e-07
-1.70356e-07
-1.69563e-07
-1.68629e-07
-1.67529e-07
-1.66237e-07
-1.64736e-07
-1.6301e-07
-1.61046e-07
-1.58837e-07
-1.56378e-07
-1.53666e-07
-1.50703e-07
-1.47494e-07
-1.44042e-07
-1.40351e-07
-1.36472e-07
-1.32438e-07
-1.28274e-07
-1.23995e-07
-1.19614e-07
-1.15157e-07
-1.10647e-07
-1.06107e-07
-1.01556e-07
-9.70142e-08
-9.24987e-08
-8.80269e-08
-8.36157e-08
-7.92816e-08
-7.50394e-08
-7.09017e-08
-6.68785e-08
-6.29778e-08
-5.92061e-08
-5.55689e-08
-5.20701e-08
-4.87119e-08
-4.54949e-08
-4.24192e-08
-3.94845e-08
-3.66901e-08
-6.95205e-07
-6.79555e-07
-6.63662e-07
-6.46995e-07
-6.29221e-07
-6.10272e-07
-5.90273e-07
-5.69453e-07
-5.48057e-07
-5.26307e-07
-5.04383e-07
-4.82435e-07
-4.60595e-07
-4.38986e-07
-4.17724e-07
-3.96924e-07
-3.76694e-07
-3.57137e-07
-3.38342e-07
-3.20388e-07
-3.03335e-07
-2.87224e-07
-2.72078e-07
-2.57909e-07
-2.44726e-07
-2.32533e-07
-2.21324e-07
-2.11091e-07
-2.01815e-07
-1.9347e-07
-1.86024e-07
-1.79437e-07
-1.73662e-07
-1.68646e-07
-1.64333e-07
-1.60665e-07
-1.57585e-07
-1.55036e-07
-1.52963e-07
-1.51311e-07
-1.50028e-07
-1.4906e-07
-1.48355e-07
-1.47862e-07
-1.47532e-07
-1.47318e-07
-1.47174e-07
-1.4706e-07
-1.46935e-07
-1.46764e-07
-1.46514e-07
-1.46156e-07
-1.45663e-07
-1.45013e-07
-1.44185e-07
-1.43164e-07
-1.41937e-07
-1.40495e-07
-1.38831e-07
-1.36945e-07
-1.34838e-07
-1.32516e-07
-1.29988e-07
-1.27266e-07
-1.24371e-07
-1.21324e-07
-1.18116e-07
-1.14738e-07
-1.11231e-07
-1.07631e-07
-1.03964e-07
-1.00249e-07
-9.64989e-08
-9.27279e-08
-8.89489e-08
-8.51771e-08
-8.14275e-08
-7.77146e-08
-7.40511e-08
-7.04476e-08
-6.69124e-08
-6.34533e-08
-6.00787e-08
-5.67956e-08
-5.36101e-08
-5.05263e-08
-4.75468e-08
-4.46721e-08
-4.19e-08
-3.9231e-08
-7.23755e-07
-7.08069e-07
-6.91459e-07
-6.73546e-07
-6.5423e-07
-6.33604e-07
-6.11873e-07
-5.89269e-07
-5.66007e-07
-5.42273e-07
-5.18236e-07
-4.94056e-07
-4.69886e-07
-4.45878e-07
-4.22179e-07
-3.98928e-07
-3.76257e-07
-3.54282e-07
-3.33106e-07
-3.12818e-07
-2.93492e-07
-2.75187e-07
-2.57948e-07
-2.41812e-07
-2.26802e-07
-2.12933e-07
-2.00207e-07
-1.88615e-07
-1.78136e-07
-1.68737e-07
-1.60378e-07
-1.53013e-07
-1.46588e-07
-1.41047e-07
-1.36328e-07
-1.32369e-07
-1.29108e-07
-1.2648e-07
-1.24422e-07
-1.2287e-07
-1.21763e-07
-1.21037e-07
-1.20636e-07
-1.205e-07
-1.20576e-07
-1.20814e-07
-1.21164e-07
-1.21583e-07
-1.2203e-07
-1.22465e-07
-1.22856e-07
-1.2317e-07
-1.2338e-07
-1.23461e-07
-1.23393e-07
-1.23158e-07
-1.22743e-07
-1.22136e-07
-1.21332e-07
-1.20325e-07
-1.19116e-07
-1.17705e-07
-1.16099e-07
-1.14304e-07
-1.12331e-07
-1.10195e-07
-1.07909e-07
-1.05494e-07
-1.02938e-07
-1.0024e-07
-9.74167e-08
-9.45041e-08
-9.15289e-08
-8.85054e-08
-8.54441e-08
-8.23564e-08
-7.92536e-08
-7.61468e-08
-7.30469e-08
-6.9963e-08
-6.69043e-08
-6.3881e-08
-6.09023e-08
-5.79753e-08
-5.51049e-08
-5.2295e-08
-4.95545e-08
-4.68926e-08
-4.42967e-08
-4.17721e-08
-7.37819e-07
-7.21937e-07
-7.04533e-07
-6.85537e-07
-6.6506e-07
-6.43301e-07
-6.2046e-07
-5.96719e-07
-5.72247e-07
-5.47212e-07
-5.21784e-07
-4.96136e-07
-4.70436e-07
-4.44852e-07
-4.19544e-07
-3.94662e-07
-3.70349e-07
-3.46733e-07
-3.23931e-07
-3.02046e-07
-2.81167e-07
-2.61371e-07
-2.42717e-07
-2.25251e-07
-2.09005e-07
-1.93995e-07
-1.80226e-07
-1.67687e-07
-1.56358e-07
-1.46207e-07
-1.37195e-07
-1.29273e-07
-1.22387e-07
-1.16478e-07
-1.11484e-07
-1.0734e-07
-1.03977e-07
-1.01328e-07
-9.93218e-08
-9.789e-08
-9.69644e-08
-9.64788e-08
-9.63694e-08
-9.65753e-08
-9.70386e-08
-9.77044e-08
-9.85216e-08
-9.94424e-08
-1.00422e-07
-1.01421e-07
-1.02402e-07
-1.03332e-07
-1.04181e-07
-1.04924e-07
-1.05538e-07
-1.06006e-07
-1.0631e-07
-1.06441e-07
-1.06388e-07
-1.06147e-07
-1.05713e-07
-1.05087e-07
-1.04271e-07
-1.03268e-07
-1.02085e-07
-1.00729e-07
-9.92098e-08
-9.75365e-08
-9.57187e-08
-9.37701e-08
-9.17065e-08
-8.95301e-08
-8.72503e-08
-8.48815e-08
-8.24377e-08
-7.99309e-08
-7.73736e-08
-7.47778e-08
-7.21552e-08
-6.95176e-08
-6.68746e-08
-6.42334e-08
-6.16006e-08
-5.8982e-08
-5.6384e-08
-5.38129e-08
-5.12704e-08
-4.87577e-08
-4.62928e-08
-4.38736e-08
-7.38439e-07
-7.2301e-07
-7.04818e-07
-6.85188e-07
-6.64188e-07
-6.41899e-07
-6.18499e-07
-5.94148e-07
-5.6902e-07
-5.43289e-07
-5.17133e-07
-4.9073e-07
-4.64255e-07
-4.37878e-07
-4.11764e-07
-3.86068e-07
-3.60937e-07
-3.36506e-07
-3.12898e-07
-2.90224e-07
-2.68583e-07
-2.48056e-07
-2.28705e-07
-2.1058e-07
-1.93714e-07
-1.78126e-07
-1.63822e-07
-1.50797e-07
-1.39035e-07
-1.28508e-07
-1.19179e-07
-1.10999e-07
-1.03913e-07
-9.78582e-08
-9.27732e-08
-8.85909e-08
-8.52419e-08
-8.26544e-08
-8.07561e-08
-7.94749e-08
-7.87401e-08
-7.84829e-08
-7.86368e-08
-7.9138e-08
-7.99258e-08
-8.09428e-08
-8.21355e-08
-8.34536e-08
-8.48511e-08
-8.62857e-08
-8.77191e-08
-8.91169e-08
-9.04485e-08
-9.16871e-08
-9.28096e-08
-9.37963e-08
-9.46309e-08
-9.53003e-08
-9.57945e-08
-9.61063e-08
-9.6231e-08
-9.61666e-08
-9.59132e-08
-9.54728e-08
-9.48495e-08
-9.40487e-08
-9.30776e-08
-9.19441e-08
-9.06568e-08
-8.92241e-08
-8.7654e-08
-8.59549e-08
-8.41373e-08
-8.22133e-08
-8.01947e-08
-7.80928e-08
-7.592e-08
-7.36891e-08
-7.14104e-08
-6.90896e-08
-6.67329e-08
-6.4349e-08
-6.19463e-08
-5.95327e-08
-5.71151e-08
-5.47001e-08
-5.22943e-08
-4.99046e-08
-4.75386e-08
-4.52012e-08
-7.31651e-07
-7.15385e-07
-6.97232e-07
-6.77606e-07
-6.56476e-07
-6.3409e-07
-6.10545e-07
-5.86047e-07
-5.60751e-07
-5.34848e-07
-5.08513e-07
-4.81926e-07
-4.55263e-07
-4.28697e-07
-4.02391e-07
-3.76504e-07
-3.51185e-07
-3.26569e-07
-3.0277e-07
-2.79916e-07
-2.58102e-07
-2.37407e-07
-2.17897e-07
-1.99626e-07
-1.82626e-07
-1.66916e-07
-1.52498e-07
-1.3937e-07
-1.27524e-07
-1.16932e-07
-1.07557e-07
-9.93538e-08
-9.227e-08
-8.62467e-08
-8.12194e-08
-7.71194e-08
-7.38751e-08
-7.14135e-08
-6.96612e-08
-6.85451e-08
-6.79931e-08
-6.79351e-08
-6.8303e-08
-6.90316e-08
-7.00589e-08
-7.13264e-08
-7.2779e-08
-7.43657e-08
-7.60395e-08
-7.77573e-08
-7.94799e-08
-8.11724e-08
-8.28038e-08
-8.43462e-08
-8.57761e-08
-8.7073e-08
-8.82202e-08
-8.92038e-08
-9.00132e-08
-9.06405e-08
-9.10804e-08
-9.133e-08
-9.13885e-08
-9.12572e-08
-9.0939e-08
-9.04384e-08
-8.97609e-08
-8.89134e-08
-8.79033e-08
-8.67389e-08
-8.54291e-08
-8.39835e-08
-8.24118e-08
-8.07242e-08
-7.89311e-08
-7.70424e-08
-7.5069e-08
-7.3023e-08
-7.09139e-08
-6.87486e-08
-6.65347e-08
-6.42816e-08
-6.19982e-08
-5.96926e-08
-5.73724e-08
-5.50445e-08
-5.2716e-08
-5.03934e-08
-4.80829e-08
-4.57899e-08
-7.23935e-07
-7.07445e-07
-6.89292e-07
-6.69671e-07
-6.48612e-07
-6.26312e-07
-6.02876e-07
-5.78501e-07
-5.53332e-07
-5.27564e-07
-5.01358e-07
-4.749e-07
-4.48369e-07
-4.21937e-07
-3.95764e-07
-3.70008e-07
-3.44814e-07
-3.20319e-07
-2.96646e-07
-2.73908e-07
-2.522e-07
-2.31605e-07
-2.12189e-07
-1.94001e-07
-1.77074e-07
-1.61427e-07
-1.47076e-07
-1.34027e-07
-1.22286e-07
-1.11789e-07
-1.02516e-07
-9.44201e-08
-8.74473e-08
-8.15365e-08
-7.66226e-08
-7.26364e-08
-6.95066e-08
-6.71602e-08
-6.55238e-08
-6.45241e-08
-6.40892e-08
-6.41484e-08
-6.46339e-08
-6.54801e-08
-6.66248e-08
-6.80094e-08
-6.95787e-08
-7.12815e-08
-7.30705e-08
-7.49027e-08
-7.67385e-08
-7.85431e-08
-8.02866e-08
-8.19382e-08
-8.34754e-08
-8.48781e-08
-8.61297e-08
-8.72164e-08
-8.81276e-08
-8.88554e-08
-8.93944e-08
-8.97417e-08
-8.98964e-08
-8.98597e-08
-8.96343e-08
-8.92246e-08
-8.86362e-08
-8.78757e-08
-8.69508e-08
-8.58697e-08
-8.46412e-08
-8.32748e-08
-8.17801e-08
-8.0167e-08
-7.84457e-08
-7.6626e-08
-7.47172e-08
-7.27282e-08
-7.06686e-08
-6.85495e-08
-6.638e-08
-6.41684e-08
-6.19229e-08
-5.96515e-08
-5.7362e-08
-5.50614e-08
-5.27566e-08
-5.04543e-08
-4.81607e-08
-4.58818e-08
-7.24557e-07
-7.08126e-07
-6.90034e-07
-6.70466e-07
-6.49456e-07
-6.27198e-07
-6.03797e-07
-5.79451e-07
-5.54303e-07
-5.28549e-07
-5.02352e-07
-4.75904e-07
-4.49359e-07
-4.229e-07
-3.96688e-07
-3.70886e-07
-3.45642e-07
-3.21094e-07
-2.97369e-07
-2.74569e-07
-2.52798e-07
-2.3214e-07
-2.1266e-07
-1.94409e-07
-1.7742e-07
-1.61712e-07
-1.47302e-07
-1.34198e-07
-1.22398e-07
-1.11855e-07
-1.02539e-07
-9.44044e-08
-8.73954e-08
-8.14519e-08
-7.65085e-08
-7.24963e-08
-6.93438e-08
-6.69779e-08
-6.5325e-08
-6.43118e-08
-6.38659e-08
-6.39169e-08
-6.43963e-08
-6.52386e-08
-6.63815e-08
-6.77659e-08
-6.93367e-08
-7.10424e-08
-7.28357e-08
-7.46731e-08
-7.65155e-08
-7.83273e-08
-8.00755e-08
-8.1736e-08
-8.32835e-08
-8.46975e-08
-8.59608e-08
-8.70596e-08
-8.79832e-08
-8.87237e-08
-8.92755e-08
-8.96358e-08
-8.98037e-08
-8.97801e-08
-8.95679e-08
-8.91714e-08
-8.8596e-08
-8.78484e-08
-8.69361e-08
-8.58672e-08
-8.46507e-08
-8.32959e-08
-8.18122e-08
-8.021e-08
-7.84993e-08
-7.66898e-08
-7.47897e-08
-7.28071e-08
-7.07539e-08
-6.86409e-08
-6.64773e-08
-6.4271e-08
-6.20301e-08
-5.97625e-08
-5.74761e-08
-5.51778e-08
-5.28745e-08
-5.0573e-08
-4.82794e-08
-7.33372e-07
-7.17295e-07
-6.99305e-07
-6.7982e-07
-6.58807e-07
-6.36516e-07
-6.1304e-07
-5.88589e-07
-5.63315e-07
-5.37414e-07
-5.11058e-07
-4.84431e-07
-4.57708e-07
-4.31062e-07
-4.04658e-07
-3.78658e-07
-3.53212e-07
-3.28461e-07
-3.04517e-07
-2.81518e-07
-2.59548e-07
-2.38695e-07
-2.19028e-07
-2.006e-07
-1.83448e-07
-1.6759e-07
-1.53029e-07
-1.39767e-07
-1.27793e-07
-1.17082e-07
-1.07598e-07
-9.92941e-08
-9.21193e-08
-8.60141e-08
-8.09135e-08
-7.67487e-08
-7.34477e-08
-7.09373e-08
-6.91436e-08
-6.79932e-08
-6.74134e-08
-6.73338e-08
-6.76858e-08
-6.84038e-08
-6.94255e-08
-7.06918e-08
-7.21475e-08
-7.37412e-08
-7.54255e-08
-7.7157e-08
-7.88964e-08
-8.06082e-08
-8.22607e-08
-8.38266e-08
-8.52819e-08
-8.66061e-08
-8.77824e-08
-8.87967e-08
-8.96382e-08
-9.02989e-08
-9.07733e-08
-9.10584e-08
-9.11531e-08
-9.10587e-08
-9.07776e-08
-9.03143e-08
-8.96739e-08
-8.88629e-08
-8.78886e-08
-8.67591e-08
-8.54832e-08
-8.40701e-08
-8.25295e-08
-8.08715e-08
-7.91056e-08
-7.72426e-08
-7.52954e-08
-7.32755e-08
-7.11881e-08
-6.90395e-08
-6.68395e-08
-6.45979e-08
-6.23236e-08
-6.00245e-08
-5.7708e-08
-5.53816e-08
-5.30523e-08
-5.07265e-08
-4.84103e-08
-7.40879e-07
-7.25617e-07
-7.07673e-07
-6.88215e-07
-6.67353e-07
-6.45179e-07
-6.21862e-07
-5.97561e-07
-5.72452e-07
-5.46709e-07
-5.20511e-07
-4.94037e-07
-4.67465e-07
-4.40966e-07
-4.14708e-07
-3.8885e-07
-3.63541e-07
-3.3892e-07
-3.15115e-07
-2.92241e-07
-2.70394e-07
-2.49659e-07
-2.30101e-07
-2.11773e-07
-1.9471e-07
-1.78934e-07
-1.6445e-07
-1.51255e-07
-1.39333e-07
-1.28659e-07
-1.19194e-07
-1.10889e-07
-1.03691e-07
-9.75364e-08
-9.23632e-08
-8.81036e-08
-8.46874e-08
-8.20424e-08
-8.00956e-08
-7.87744e-08
-7.80075e-08
-7.77254e-08
-7.78611e-08
-7.83502e-08
-7.91317e-08
-8.01477e-08
-8.13442e-08
-8.26707e-08
-8.40809e-08
-8.55321e-08
-8.69857e-08
-8.84071e-08
-8.97655e-08
-9.10339e-08
-9.21888e-08
-9.32105e-08
-9.40826e-08
-9.47916e-08
-9.53275e-08
-9.56827e-08
-9.58525e-08
-9.58345e-08
-9.56284e-08
-9.52363e-08
-9.46616e-08
-9.391e-08
-9.2988e-08
-9.1903e-08
-9.06627e-08
-8.9274e-08
-8.77447e-08
-8.60847e-08
-8.43051e-08
-8.24177e-08
-8.04346e-08
-7.83669e-08
-7.62262e-08
-7.40237e-08
-7.17682e-08
-6.94662e-08
-6.71245e-08
-6.47517e-08
-6.23566e-08
-5.9947e-08
-5.753e-08
-5.51124e-08
-5.27016e-08
-5.03056e-08
-4.79306e-08
-7.40633e-07
-7.25001e-07
-7.07813e-07
-6.88996e-07
-6.68663e-07
-6.47012e-07
-6.24242e-07
-6.00537e-07
-5.76065e-07
-5.50996e-07
-5.25502e-07
-4.99757e-07
-4.73932e-07
-4.48199e-07
-4.22719e-07
-3.97649e-07
-3.73132e-07
-3.49302e-07
-3.26278e-07
-3.04167e-07
-2.83062e-07
-2.6304e-07
-2.44164e-07
-2.26484e-07
-2.10031e-07
-1.94824e-07
-1.80869e-07
-1.68157e-07
-1.56666e-07
-1.46367e-07
-1.3722e-07
-1.29175e-07
-1.22179e-07
-1.16172e-07
-1.11091e-07
-1.0687e-07
-1.03441e-07
-1.00734e-07
-9.86784e-08
-9.72051e-08
-9.62451e-08
-9.57317e-08
-9.56007e-08
-9.57906e-08
-9.62431e-08
-9.69032e-08
-9.77194e-08
-9.86436e-08
-9.96314e-08
-1.00642e-07
-1.01639e-07
-1.02588e-07
-1.03461e-07
-1.04231e-07
-1.04875e-07
-1.05376e-07
-1.05717e-07
-1.05888e-07
-1.05877e-07
-1.05681e-07
-1.05295e-07
-1.04718e-07
-1.03953e-07
-1.03002e-07
-1.01872e-07
-1.00569e-07
-9.91022e-08
-9.74813e-08
-9.57186e-08
-9.38264e-08
-9.18077e-08
-8.96731e-08
-8.74339e-08
-8.51025e-08
-8.26926e-08
-8.02169e-08
-7.76868e-08
-7.51143e-08
-7.25135e-08
-6.98957e-08
-6.72682e-08
-6.46377e-08
-6.2011e-08
-5.93952e-08
-5.67971e-08
-5.42203e-08
-5.1667e-08
-4.91505e-08
-4.66698e-08
-7.26697e-07
-7.1124e-07
-6.94828e-07
-6.7708e-07
-6.57892e-07
-6.37356e-07
-6.15677e-07
-5.93088e-07
-5.69805e-07
-5.46017e-07
-5.21897e-07
-4.97604e-07
-4.73297e-07
-4.49129e-07
-4.25252e-07
-4.01809e-07
-3.78934e-07
-3.56749e-07
-3.35361e-07
-3.14859e-07
-2.95319e-07
-2.76804e-07
-2.5936e-07
-2.43026e-07
-2.27828e-07
-2.13781e-07
-2.0089e-07
-1.89144e-07
-1.78522e-07
-1.68993e-07
-1.60515e-07
-1.53041e-07
-1.46518e-07
-1.40888e-07
-1.36089e-07
-1.32058e-07
-1.28732e-07
-1.26047e-07
-1.23937e-07
-1.2234e-07
-1.21192e-07
-1.20432e-07
-1.19999e-07
-1.19837e-07
-1.19892e-07
-1.20112e-07
-1.2045e-07
-1.2086e-07
-1.21302e-07
-1.21738e-07
-1.22133e-07
-1.22456e-07
-1.22679e-07
-1.22777e-07
-1.22731e-07
-1.22521e-07
-1.22135e-07
-1.21562e-07
-1.20794e-07
-1.19827e-07
-1.1866e-07
-1.17295e-07
-1.15738e-07
-1.13994e-07
-1.12076e-07
-1.09996e-07
-1.07765e-07
-1.0539e-07
-1.02865e-07
-1.002e-07
-9.74229e-08
-9.45587e-08
-9.16278e-08
-8.86452e-08
-8.56208e-08
-8.25645e-08
-7.94882e-08
-7.64044e-08
-7.33226e-08
-7.02528e-08
-6.7206e-08
-6.41929e-08
-6.12216e-08
-5.82985e-08
-5.54281e-08
-5.26186e-08
-4.98791e-08
-4.7204e-08
-4.45991e-08
-6.98032e-07
-6.82576e-07
-6.66853e-07
-6.50325e-07
-6.32655e-07
-6.13773e-07
-5.93803e-07
-5.72976e-07
-5.51543e-07
-5.29726e-07
-5.07711e-07
-4.8565e-07
-4.63678e-07
-4.41919e-07
-4.20495e-07
-3.99522e-07
-3.79112e-07
-3.59371e-07
-3.40392e-07
-3.22256e-07
-3.05027e-07
-2.88745e-07
-2.73434e-07
-2.59106e-07
-2.45772e-07
-2.33436e-07
-2.22094e-07
-2.11736e-07
-2.02344e-07
-1.93892e-07
-1.86347e-07
-1.79667e-07
-1.73806e-07
-1.68709e-07
-1.64321e-07
-1.60583e-07
-1.57436e-07
-1.54826e-07
-1.52695e-07
-1.50989e-07
-1.49655e-07
-1.48639e-07
-1.4789e-07
-1.47358e-07
-1.46991e-07
-1.46745e-07
-1.46573e-07
-1.46435e-07
-1.46291e-07
-1.46106e-07
-1.45848e-07
-1.45486e-07
-1.44994e-07
-1.4435e-07
-1.43534e-07
-1.42529e-07
-1.41323e-07
-1.39905e-07
-1.38271e-07
-1.36418e-07
-1.34346e-07
-1.32063e-07
-1.29576e-07
-1.26902e-07
-1.24057e-07
-1.21049e-07
-1.1787e-07
-1.14535e-07
-1.11078e-07
-1.07528e-07
-1.03907e-07
-1.00234e-07
-9.65217e-08
-9.27854e-08
-8.90377e-08
-8.52933e-08
-8.15677e-08
-7.78756e-08
-7.42292e-08
-7.06391e-08
-6.71145e-08
-6.36645e-08
-6.02972e-08
-5.70194e-08
-5.3837e-08
-5.07538e-08
-4.77718e-08
-4.48906e-08
-4.21108e-08
-6.53657e-07
-6.38506e-07
-6.23725e-07
-6.08715e-07
-5.92975e-07
-5.76279e-07
-5.58649e-07
-5.40277e-07
-5.21424e-07
-5.02339e-07
-4.83219e-07
-4.64202e-07
-4.45393e-07
-4.26873e-07
-4.08717e-07
-3.91001e-07
-3.73801e-07
-3.57187e-07
-3.41225e-07
-3.2597e-07
-3.11469e-07
-2.97757e-07
-2.84863e-07
-2.728e-07
-2.61564e-07
-2.51143e-07
-2.41521e-07
-2.32681e-07
-2.24609e-07
-2.17286e-07
-2.10695e-07
-2.04809e-07
-1.99597e-07
-1.95019e-07
-1.91031e-07
-1.87585e-07
-1.84631e-07
-1.82118e-07
-1.79999e-07
-1.78223e-07
-1.76744e-07
-1.75518e-07
-1.745e-07
-1.73649e-07
-1.72922e-07
-1.72278e-07
-1.71675e-07
-1.71075e-07
-1.7044e-07
-1.69733e-07
-1.68923e-07
-1.67977e-07
-1.66871e-07
-1.6558e-07
-1.64085e-07
-1.62371e-07
-1.60425e-07
-1.58238e-07
-1.55806e-07
-1.53125e-07
-1.50196e-07
-1.47018e-07
-1.43597e-07
-1.39942e-07
-1.36105e-07
-1.32118e-07
-1.28005e-07
-1.23773e-07
-1.19438e-07
-1.15022e-07
-1.10551e-07
-1.06047e-07
-1.0153e-07
-9.70179e-08
-9.25289e-08
-8.80807e-08
-8.36902e-08
-7.93742e-08
-7.51475e-08
-7.1023e-08
-6.70106e-08
-6.31183e-08
-5.9353e-08
-5.57204e-08
-5.22245e-08
-4.88675e-08
-4.56505e-08
-4.25741e-08
-3.96384e-08
-5.94297e-07
-5.80586e-07
-5.68035e-07
-5.55637e-07
-5.42673e-07
-5.28853e-07
-5.14205e-07
-4.98953e-07
-4.83383e-07
-4.67744e-07
-4.52213e-07
-4.36892e-07
-4.2184e-07
-4.07092e-07
-3.92676e-07
-3.78626e-07
-3.64975e-07
-3.51762e-07
-3.39022e-07
-3.26787e-07
-3.15088e-07
-3.03952e-07
-2.93407e-07
-2.83469e-07
-2.74149e-07
-2.65446e-07
-2.57355e-07
-2.49868e-07
-2.42977e-07
-2.36673e-07
-2.30944e-07
-2.25774e-07
-2.21142e-07
-2.17026e-07
-2.134e-07
-2.10234e-07
-2.07494e-07
-2.05141e-07
-2.03131e-07
-2.01417e-07
-1.9995e-07
-1.98683e-07
-1.97571e-07
-1.96574e-07
-1.95655e-07
-1.94778e-07
-1.93907e-07
-1.93006e-07
-1.92039e-07
-1.90971e-07
-1.89766e-07
-1.88394e-07
-1.86826e-07
-1.85035e-07
-1.83002e-07
-1.80709e-07
-1.78144e-07
-1.75298e-07
-1.72162e-07
-1.68736e-07
-1.65013e-07
-1.6098e-07
-1.56706e-07
-1.52251e-07
-1.47608e-07
-1.42777e-07
-1.37778e-07
-1.32646e-07
-1.27419e-07
-1.2213e-07
-1.16806e-07
-1.11472e-07
-1.06151e-07
-1.0087e-07
-9.56532e-08
-9.0524e-08
-8.55007e-08
-8.05983e-08
-7.58304e-08
-7.12088e-08
-6.67432e-08
-6.24414e-08
-5.83095e-08
-5.43525e-08
-5.05729e-08
-4.69718e-08
-4.35487e-08
-4.03017e-08
-3.72279e-08
-5.34345e-07
-5.23103e-07
-5.13481e-07
-5.04039e-07
-4.93986e-07
-4.83105e-07
-4.7151e-07
-4.59471e-07
-4.47267e-07
-4.35113e-07
-4.23137e-07
-4.11401e-07
-3.99925e-07
-3.88711e-07
-3.77756e-07
-3.67061e-07
-3.56631e-07
-3.46474e-07
-3.36594e-07
-3.27e-07
-3.17702e-07
-3.08718e-07
-3.00077e-07
-2.91821e-07
-2.83994e-07
-2.76629e-07
-2.69747e-07
-2.63362e-07
-2.57474e-07
-2.52078e-07
-2.47161e-07
-2.42705e-07
-2.38686e-07
-2.35084e-07
-2.31886e-07
-2.29083e-07
-2.26657e-07
-2.24584e-07
-2.22833e-07
-2.21364e-07
-2.20129e-07
-2.19076e-07
-2.18151e-07
-2.17305e-07
-2.16491e-07
-2.15669e-07
-2.14802e-07
-2.13852e-07
-2.12782e-07
-2.11557e-07
-2.10139e-07
-2.08496e-07
-2.066e-07
-2.04423e-07
-2.01945e-07
-1.99149e-07
-1.96026e-07
-1.92578e-07
-1.88822e-07
-1.84734e-07
-1.80326e-07
-1.75586e-07
-1.70509e-07
-1.65139e-07
-1.59529e-07
-1.53717e-07
-1.47738e-07
-1.41631e-07
-1.35441e-07
-1.29207e-07
-1.22961e-07
-1.16735e-07
-1.10561e-07
-1.04471e-07
-9.84928e-08
-9.26516e-08
-8.69683e-08
-8.14607e-08
-7.61433e-08
-7.10271e-08
-6.61196e-08
-6.14254e-08
-5.69477e-08
-5.26884e-08
-4.86481e-08
-4.48256e-08
-4.12179e-08
-3.78205e-08
-3.46278e-08
-4.90322e-07
-4.80039e-07
-4.71349e-07
-4.63143e-07
-4.54761e-07
-4.45971e-07
-4.36803e-07
-4.27416e-07
-4.17998e-07
-4.08699e-07
-3.99612e-07
-3.90775e-07
-3.8219e-07
-3.73836e-07
-3.65687e-07
-3.5772e-07
-3.49919e-07
-3.42265e-07
-3.3474e-07
-3.27323e-07
-3.20002e-07
-3.12777e-07
-3.05662e-07
-2.98703e-07
-2.91973e-07
-2.85566e-07
-2.79566e-07
-2.74034e-07
-2.69001e-07
-2.6448e-07
-2.60465e-07
-2.56923e-07
-2.53798e-07
-2.51051e-07
-2.48657e-07
-2.46593e-07
-2.44837e-07
-2.43352e-07
-2.42103e-07
-2.41056e-07
-2.40187e-07
-2.39471e-07
-2.38876e-07
-2.38358e-07
-2.37865e-07
-2.37343e-07
-2.36739e-07
-2.36003e-07
-2.35084e-07
-2.33935e-07
-2.32511e-07
-2.30773e-07
-2.2869e-07
-2.26235e-07
-2.23385e-07
-2.20135e-07
-2.16469e-07
-2.12407e-07
-2.08004e-07
-2.03126e-07
-1.97707e-07
-1.91875e-07
-1.85735e-07
-1.79316e-07
-1.72629e-07
-1.65706e-07
-1.58603e-07
-1.51378e-07
-1.44084e-07
-1.36764e-07
-1.29461e-07
-1.22215e-07
-1.15069e-07
-1.08058e-07
-1.01217e-07
-9.45749e-08
-8.81539e-08
-8.19707e-08
-7.60385e-08
-7.03693e-08
-6.49709e-08
-5.98461e-08
-5.49948e-08
-5.04155e-08
-4.61051e-08
-4.20593e-08
-3.82718e-08
-3.47347e-08
-3.14393e-08
-4.5706e-07
-4.45883e-07
-4.36319e-07
-4.27903e-07
-4.20104e-07
-4.12523e-07
-4.04976e-07
-3.97461e-07
-3.90079e-07
-3.82956e-07
-3.76179e-07
-3.6978e-07
-3.6374e-07
-3.58009e-07
-3.52521e-07
-3.47209e-07