/*--------------------------------*- C++ -*----------------------------------*\
| =========                 |                                                 |
| \\      /  F ield         | OpenFOAM: The Open Source CFD Toolbox           |
|  \\    /   O peration     | Version:  2312                                  |
|   \\  /    A nd           | Website:  www.openfoam.com                      |
|    \\/     M anipulation  |                                                 |
\*---------------------------------------------------------------------------*/
FoamFile
{
    version     2.0;
    format      ascii;
    arch        "LSB;label=32;scalar=64";
    class       surfaceScalarField;
    location    "146000";
    object      phi;
}
// * * * * * * * * * * * * * * * * * * * * * * * * * * * * * * * * * * * * * //

dimensions      [0 3 -1 0 0 0 0];

oriented        oriented;

internalField   nonuniform List<scalar> 
21240
(
0.000664973
1.69339e-06
0.000661068
3.90564e-06
0.000655742
5.32605e-06
0.000649498
6.24345e-06
0.000642614
6.88394e-06
0.000635232
7.38221e-06
0.000627443
7.78872e-06
0.000619327
8.11652e-06
0.000610955
8.37159e-06
0.000602392
8.56293e-06
0.000593689
8.70281e-06
0.000584886
8.80355e-06
0.000576011
8.87475e-06
0.000567088
8.92273e-06
0.000558137
8.95129e-06
0.000549174
8.9629e-06
0.000540215
8.95938e-06
0.000531273
8.94229e-06
0.00052236
8.91296e-06
0.000513487
8.87247e-06
0.000504665
8.82164e-06
0.000495904
8.76107e-06
0.000487213
8.69118e-06
0.000478601
8.61228e-06
0.000470076
8.52461e-06
0.000461648
8.42832e-06
0.000453324
8.32355e-06
0.000445114
8.21033e-06
0.000437025
8.0888e-06
0.000429066
7.95885e-06
0.000421246
7.82074e-06
0.000413572
7.67411e-06
0.000406052
7.51951e-06
0.000398696
7.3562e-06
0.000391511
7.18529e-06
0.000384505
7.00528e-06
0.000377687
6.81838e-06
0.000371065
6.62165e-06
0.000364646
6.41932e-06
0.00035844
6.20578e-06
0.000352451
5.98896e-06
0.000346693
5.75823e-06
0.000341165
5.52839e-06
0.000335885
5.27952e-06
0.000330846
5.03894e-06
0.000326077
4.7696e-06
0.000321555
4.52179e-06
0.000317328
4.22682e-06
0.000313351
3.97745e-06
0.000309705
3.6454e-06
0.0003063
3.40469e-06
0.000303291
3.00913e-06
0.000300491
2.79985e-06
0.000298219
2.27285e-06
0.000296064
2.15408e-06
0.000294781
1.28315e-06
0.000293264
1.51757e-06
0.000293426
-1.6213e-07
0.00029222
1.20603e-06
-3.1568e-06
0.000295377
0.000667555
8.04921e-07
0.000669117
2.34379e-06
0.000670846
3.5972e-06
0.00067251
4.57889e-06
0.000674031
5.36322e-06
0.000675394
6.01899e-06
0.000676595
6.58783e-06
0.000677624
7.08813e-06
0.000678468
7.52694e-06
0.000679122
7.90869e-06
0.000679586
8.23898e-06
0.000679865
8.52472e-06
0.000679967
8.77294e-06
0.0006799
8.98947e-06
0.000679673
9.17863e-06
0.000679292
9.34334e-06
0.000678766
9.48576e-06
0.000678101
9.60744e-06
0.000677304
9.70984e-06
0.000676382
9.79403e-06
0.000675343
9.86113e-06
0.000674192
9.9117e-06
0.000672937
9.94658e-06
0.000671583
9.96585e-06
0.000670138
9.97027e-06
0.000668607
9.95945e-06
0.000666996
9.93431e-06
0.000665312
9.89393e-06
0.000663561
9.83963e-06
0.000661751
9.76974e-06
0.000659885
9.68639e-06
0.000657972
9.58676e-06
0.000656017
9.47434e-06
0.000654029
9.34446e-06
0.000652011
9.20298e-06
0.000649975
9.04218e-06
0.000647921
8.87185e-06
0.000645864
8.67923e-06
0.000643802
8.4806e-06
0.000641753
8.25492e-06
0.000639713
8.02919e-06
0.000637702
7.76861e-06
0.000635713
7.51793e-06
0.000633773
7.21956e-06
0.000631864
6.94756e-06
0.000630027
6.60665e-06
0.00062823
6.31939e-06
0.000626528
5.92806e-06
0.00062487
5.63546e-06
0.000623335
5.1808e-06
0.000621841
4.89915e-06
0.000620489
4.36054e-06
0.000619173
4.11629e-06
0.000617983
3.46259e-06
0.00061684
3.29709e-06
0.000615635
2.48792e-06
0.000614695
2.45781e-06
0.000613059
1.4739e-06
0.000612633
1.63217e-06
5.40642e-07
0.000608935
0.00066695
5.21669e-07
0.000667815
1.47903e-06
0.00066905
2.36179e-06
0.000670469
3.16005e-06
0.000671963
3.86964e-06
0.000673483
4.4982e-06
0.000675013
5.05794e-06
0.000676541
5.55997e-06
0.000678056
6.0121e-06
0.000679546
6.41921e-06
0.000681
6.78485e-06
0.000682412
7.11226e-06
0.00068378
7.40497e-06
0.000685103
7.66645e-06
0.000686382
7.89998e-06
0.000687617
8.10817e-06
0.00068881
8.29326e-06
0.00068996
8.45679e-06
0.00069107
8.60026e-06
0.000692139
8.72458e-06
0.000693169
8.83093e-06
0.000694161
8.91972e-06
0.000695116
8.99199e-06
0.000696034
9.04766e-06
0.000696917
9.08773e-06
0.000697765
9.1116e-06
0.000698579
9.12044e-06
0.000699359
9.11304e-06
0.000700108
9.09098e-06
0.000700825
9.05228e-06
0.000701513
8.99925e-06
0.000702171
8.9288e-06
0.000702801
8.84443e-06
0.000703403
8.7415e-06
0.000703981
8.62532e-06
0.000704534
8.48893e-06
0.000705066
8.34043e-06
0.000705576
8.16948e-06
0.000706068
7.98825e-06
0.000706541
7.78149e-06
0.000707003
7.5673e-06
0.000707448
7.32341e-06
0.00070789
7.07634e-06
0.000708316
6.79396e-06
0.000708749
6.51452e-06
0.000709163
6.19239e-06
0.000709601
5.88161e-06
0.00071001
5.51883e-06
0.000710467
5.17833e-06
0.000710873
4.77486e-06
0.000711365
4.40663e-06
0.000711762
3.96444e-06
0.000712307
3.57054e-06
0.000712673
3.09674e-06
0.000713291
2.679e-06
0.000713586
2.1933e-06
0.000714291
1.75271e-06
0.000714461
1.3042e-06
0.000715261
8.31925e-07
5.20229e-07
0.000715281
0.000666853
3.35351e-07
0.000667305
1.0267e-06
0.000667965
1.70252e-06
0.000668783
2.34205e-06
0.000669716
2.93607e-06
0.000670733
3.48164e-06
0.00067181
3.98031e-06
0.000672935
4.43574e-06
0.000674095
4.85183e-06
0.000675282
5.23179e-06
0.000676489
5.57813e-06
0.000677708
5.8929e-06
0.000678935
6.17809e-06
0.000680166
6.43565e-06
0.000681398
6.66763e-06
0.000682631
6.87584e-06
0.000683862
7.06197e-06
0.000685091
7.22737e-06
0.000686318
7.37323e-06
0.000687543
7.50043e-06
0.000688764
7.60985e-06
0.000689981
7.70205e-06
0.000691196
7.7777e-06
0.000692406
7.83708e-06
0.000693613
7.88071e-06
0.000694816
7.90862e-06
0.000696015
7.92121e-06
0.00069721
7.91829e-06
0.000698401
7.9002e-06
0.000699587
7.86658e-06
0.000700768
7.81769e-06
0.000701944
7.75309e-06
0.000703115
7.6729e-06
0.00070428
7.57677e-06
0.000705441
7.4645e-06
0.000706594
7.33608e-06
0.000707744
7.1907e-06
0.000708884
7.02917e-06
0.000710023
6.84944e-06
0.00071115
6.65401e-06
0.000712279
6.43845e-06
0.000713394
6.20856e-06
0.000714515
5.95538e-06
0.000715618
5.69084e-06
0.000716735
5.39783e-06
0.000717828
5.09924e-06
0.000718946
4.76355e-06
0.000720032
4.43288e-06
0.000721159
4.0509e-06
0.000722241
3.69281e-06
0.000723388
3.26003e-06
0.000724469
2.88381e-06
0.000725645
2.39444e-06
0.000726725
2.0165e-06
0.000727942
1.46215e-06
0.000729026
1.10953e-06
0.0007303
4.78173e-07
0.000731409
1.95348e-07
0.000732814
-5.72945e-07
-7.40465e-07
0.000734074
0.000666738
2.64252e-07
0.000666967
7.97733e-07
0.000667349
1.32014e-06
0.000667867
1.82434e-06
0.000668498
2.30441e-06
0.000669223
2.75676e-06
0.000670024
3.17992e-06
0.000670886
3.57396e-06
0.000671798
3.93975e-06
0.000672751
4.27842e-06
0.000673738
4.59104e-06
0.000674752
4.87859e-06
0.000675788
5.14202e-06
0.000676842
5.38231e-06
0.000677909
5.60047e-06
0.000678987
5.79757e-06
0.000680075
5.97458e-06
0.00068117
6.13245e-06
0.000682271
6.27194e-06
0.000683377
6.39379e-06
0.000684489
6.49855e-06
0.000685604
6.58679e-06
0.000686723
6.65884e-06
0.000687845
6.71518e-06
0.00068897
6.75592e-06
0.000690097
6.78149e-06
0.000691226
6.79174e-06
0.000692357
6.78716e-06
0.00069349
6.76723e-06
0.000694624
6.73266e-06
0.000695759
6.68243e-06
0.000696895
6.61768e-06
0.000698031
6.53662e-06
0.000699167
6.44122e-06
0.000700303
6.32848e-06
0.000701437
6.20177e-06
0.000702572
6.05616e-06
0.000703703
5.89737e-06
0.000704835
5.71736e-06
0.000705964
5.52571e-06
0.000707093
5.30942e-06
0.000708217
5.08433e-06
0.000709343
4.82944e-06
0.000710463
4.57072e-06
0.000711586
4.27441e-06
0.000712703
3.98263e-06
0.000713825
3.64125e-06
0.00071494
3.31799e-06
0.000716065
2.92624e-06
0.000717183
2.57424e-06
0.00071832
2.12396e-06
0.000719456
1.74781e-06
0.000720623
1.22675e-06
0.000721805
8.34696e-07
0.000723045
2.22347e-07
0.000724317
-1.62722e-07
0.000725649
-8.54094e-07
0.000727054
-1.20911e-06
0.000728538
-2.05733e-06
-2.36694e-06
0.000730165
0.000666723
2.07919e-07
0.000666896
6.25148e-07
0.000667176
1.03932e-06
0.000667557
1.44381e-06
0.000668026
1.8349e-06
0.000668574
2.20963e-06
0.000669188
2.56594e-06
0.000669859
2.90257e-06
0.00067058
3.21897e-06
0.000671343
3.51498e-06
0.000672144
3.79069e-06
0.000672976
4.04637e-06
0.000673835
4.28235e-06
0.000674719
4.49911e-06
0.000675622
4.69709e-06
0.000676543
4.87686e-06
0.000677478
5.03892e-06
0.000678427
5.18383e-06
0.000679387
5.31204e-06
0.000680357
5.42406e-06
0.000681335
5.52022e-06
0.000682321
5.60096e-06
0.000683313
5.66643e-06
0.000684311
5.71708e-06
0.000685314
5.75283e-06
0.000686322
5.77416e-06
0.000687333
5.78076e-06
0.000688347
5.77319e-06
0.000689363
5.75079e-06
0.000690381
5.71437e-06
0.000691401
5.66276e-06
0.000692422
5.59722e-06
0.000693442
5.51583e-06
0.000694463
5.42062e-06
0.000695483
5.30853e-06
0.000696502
5.18288e-06
0.000697519
5.03882e-06
0.000698535
4.88174e-06
0.000699548
4.70409e-06
0.000700559
4.51449e-06
0.000701567
4.30116e-06
0.000702574
4.07788e-06
0.000703577
3.82623e-06
0.00070458
3.56808e-06
0.000705579
3.27469e-06
0.000706581
2.98061e-06
0.000707582
2.64118e-06
0.000708589
2.31083e-06
0.000709594
1.92049e-06
0.000710613
1.5554e-06
0.000711628
1.10887e-06
0.000712663
7.13212e-07
0.000713684
2.05532e-07
0.000714743
-2.23794e-07
0.000715798
-8.32767e-07
0.000716921
-1.28559e-06
0.000718058
-1.99188e-06
0.000719303
-2.45314e-06
0.000720541
-3.296e-06
-3.74757e-06
0.000721922
0.000666708
1.66901e-07
0.000666831
5.02021e-07
0.000667034
8.35893e-07
0.000667314
1.16387e-06
0.000667666
1.48339e-06
0.000668083
1.79229e-06
0.00066856
2.08883e-06
0.000669091
2.37174e-06
0.00066967
2.64027e-06
0.000670291
2.89406e-06
0.00067095
3.13172e-06
0.000671643
3.35339e-06
0.000672366
3.55918e-06
0.000673116
3.74922e-06
0.000673889
3.92362e-06
0.000674683
4.08259e-06
0.000675496
4.22635e-06
0.000676325
4.35518e-06
0.000677167
4.46929e-06
0.000678022
4.56898e-06
0.000678888
4.65439e-06
0.000679763
4.72582e-06
0.000680646
4.7833e-06
0.000681536
4.82714e-06
0.000682432
4.85722e-06
0.000683332
4.87387e-06
0.000684236
4.87681e-06
0.000685143
4.86642e-06
0.000686052
4.84217e-06
0.000686961
4.80462e-06
0.000687871
4.75283e-06
0.000688781
4.68769e-06
0.000689689
4.60771e-06
0.000690595
4.51428e-06
0.000691499
4.40512e-06
0.000692399
4.28245e-06
0.000693295
4.14276e-06
0.000694187
3.98963e-06
0.000695074
3.81767e-06
0.000695956
3.63262e-06
0.000696831
3.42622e-06
0.000697701
3.2076e-06
0.000698563
2.9641e-06
0.000699421
2.7102e-06
0.000700269
2.42643e-06
0.000701114
2.13553e-06
0.000701948
1.80722e-06
0.000702782
1.47685e-06
0.000703605
1.09728e-06
0.000704437
7.23429e-07
0.000705264
2.82054e-07
0.000706114
-1.36195e-07
0.000706957
-6.37989e-07
0.000707832
-1.09916e-06
0.000708688
-1.68835e-06
0.0007096
-2.19711e-06
0.000710496
-2.88842e-06
0.000711484
-3.44091e-06
0.000712448
-4.26042e-06
-4.84796e-06
0.000713549
0.000666698
1.35526e-07
0.000666793
4.07132e-07
0.000666951
6.77999e-07
0.00066717
9.44846e-07
0.000667447
1.2059e-06
0.00066778
1.4596e-06
0.000668164
1.7046e-06
0.000668596
1.93979e-06
0.000669072
2.16427e-06
0.000669589
2.37732e-06
0.000670142
2.5783e-06
0.000670729
2.76681e-06
0.000671346
2.94262e-06
0.000671989
3.10565e-06
0.000672657
3.25582e-06
0.000673346
3.39315e-06
0.000674055
3.51764e-06
0.000674781
3.62936e-06
0.000675522
3.72836e-06
0.000676276
3.81478e-06
0.000677042
3.88863e-06
0.000677817
3.95007e-06
0.000678602
3.99907e-06
0.000679393
4.03578e-06
0.00068019
4.06011e-06
0.000680992
4.0722e-06
0.000681797
4.07185e-06
0.000682604
4.05923e-06
0.000683412
4.03398e-06
0.00068422
3.99635e-06
0.000685028
3.94574e-06
0.000685833
3.88252e-06
0.000686635
3.8058e-06
0.000687433
3.71619e-06
0.000688226
3.61231e-06
0.000689013
3.49517e-06
0.000689793
3.36273e-06
0.000690566
3.21665e-06
0.00069133
3.05387e-06
0.000692085
2.87708e-06
0.00069283
2.68171e-06
0.000693565
2.47208e-06
0.000694288
2.24129e-06
0.000695002
1.99622e-06
0.000695702
1.72649e-06
0.000696394
1.44301e-06
0.000697071
1.13021e-06
0.000697743
8.05443e-07
0.000698395
4.45614e-07
0.000699039
7.90882e-08
0.000699664
-3.43457e-07
0.000700297
-7.68712e-07
0.000700912
-1.25275e-06
0.000701545
-1.73267e-06
0.000702151
-2.29389e-06
0.000702791
-2.83747e-06
0.000703395
-3.49205e-06
0.000704058
-4.10399e-06
0.000704667
-4.86984e-06
-5.5517e-06
0.000705371
0.000666692
1.09942e-07
0.000666769
3.29993e-07
0.000666898
5.4949e-07
0.000667077
7.66014e-07
0.000667304
9.78302e-07
0.000667579
1.18521e-06
0.000667898
1.38569e-06
0.000668259
1.57886e-06
0.000668659
1.76392e-06
0.000669096
1.94022e-06
0.000669567
2.10723e-06
0.000670069
2.26453e-06
0.0006706
2.41178e-06
0.000671157
2.54875e-06
0.000671738
2.67525e-06
0.00067234
2.79116e-06
0.000672961
2.89639e-06
0.000673599
2.9909e-06
0.000674253
3.07463e-06
0.00067492
3.14758e-06
0.000675599
3.20974e-06
0.000676288
3.26111e-06
0.000676986
3.30167e-06
0.00067769
3.33142e-06
0.0006784
3.3503e-06
0.000679114
3.35832e-06
0.00067983
3.35534e-06
0.000680548
3.34137e-06
0.000681266
3.3162e-06
0.000681982
3.27981e-06
0.000682696
3.2319e-06
0.000683406
3.17244e-06
0.000684111
3.10099e-06
0.00068481
3.01757e-06
0.0006855
2.92152e-06
0.000686183
2.81292e-06
0.000686855
2.69086e-06
0.000687516
2.55555e-06
0.000688164
2.40572e-06
0.000688799
2.24177e-06
0.000689419
2.06194e-06
0.000690024
1.867e-06
0.000690611
1.65448e-06
0.000691181
1.42568e-06
0.000691731
1.17716e-06
0.000692263
9.11039e-07
0.00069277
6.22511e-07
0.000693261
3.14916e-07
0.000693725
-1.87285e-08
0.000694182
-3.77928e-07
0.000694606
-7.67089e-07
0.000695017
-1.18005e-06
0.000695394
-1.62987e-06
0.000695767
-2.1056e-06
0.000696099
-2.62576e-06
0.000696437
-3.17493e-06
0.000696723
-3.7784e-06
0.000697032
-4.41358e-06
0.000697277
-5.11453e-06
-5.84795e-06
0.000697573
0.000666688
8.83797e-08
0.000666753
2.65065e-07
0.000666861
4.41263e-07
0.000667012
6.15154e-07
0.000667205
7.85815e-07
0.000667438
9.52396e-07
0.000667709
1.11412e-06
0.000668018
1.27027e-06
0.000668361
1.42024e-06
0.000668738
1.56348e-06
0.000669146
1.69953e-06
0.000669582
1.82798e-06
0.000670046
1.94851e-06
0.000670534
2.06085e-06
0.000671044
2.16477e-06
0.000671575
2.2601e-06
0.000672125
2.3467e-06
0.000672691
2.42447e-06
0.000673273
2.49332e-06
0.000673867
2.55317e-06
0.000674473
2.60396e-06
0.000675088
2.64566e-06
0.000675712
2.6782e-06
0.000676341
2.70154e-06
0.000676976
2.71561e-06
0.000677614
2.72035e-06
0.000678254
2.71567e-06
0.000678894
2.70147e-06
0.000679532
2.67765e-06
0.000680168
2.64402e-06
0.000680799
2.60049e-06
0.000681425
2.54678e-06
0.000682043
2.48275e-06
0.000682653
2.40805e-06
0.000683252
2.32251e-06
0.000683839
2.22562e-06
0.000684413
2.11725e-06
0.000684972
1.99664e-06
0.000685514
1.86378e-06
0.000686038
1.71751e-06
0.000686542
1.55806e-06
0.000687025
1.38373e-06
0.000687484
1.19516e-06
0.00068792
9.89766e-07
0.000688328
7.6907e-07
0.00068871
5.29054e-07
0.00068906
2.73008e-07
0.000689379
-4.03961e-09
0.000689667
-3.07018e-07
0.000689925
-6.35562e-07
0.00069014
-9.82305e-07
0.000690325
-1.36491e-06
0.000690461
-1.76595e-06
0.000690569
-2.21324e-06
0.000690619
-2.67647e-06
0.000690646
-3.20137e-06
0.000690603
-3.73611e-06
0.000690545
-4.35538e-06
0.000690401
-4.97071e-06
-5.70334e-06
0.000690257
0.000666685
6.96709e-08
0.000666742
2.08772e-07
0.000666836
3.474e-07
0.000666966
4.84195e-07
0.000667134
6.18478e-07
0.000667337
7.49626e-07
0.000667574
8.77057e-07
0.000667844
1.00024e-06
0.000668145
1.11869e-06
0.000668477
1.23199e-06
0.000668837
1.33974e-06
0.000669223
1.44161e-06
0.000669634
1.53732e-06
0.000670068
1.62661e-06
0.000670524
1.70927e-06
0.000670999
1.78514e-06
0.000671491
1.85406e-06
0.000672
1.91591e-06
0.000672523
1.9706e-06
0.000673058
2.01802e-06
0.000673604
2.05812e-06
0.000674159
2.0908e-06
0.000674721
2.11604e-06
0.000675289
2.13373e-06
0.00067586
2.14384e-06
0.000676434
2.14626e-06
0.000677009
2.14095e-06
0.000677583
2.12775e-06
0.000678154
2.10664e-06
0.000678721
2.07736e-06
0.000679281
2.03994e-06
0.000679834
1.99397e-06
0.000680377
1.93954e-06
0.000680909
1.87607e-06
0.000681428
1.80374e-06
0.000681932
1.72169e-06
0.000682419
1.6303e-06
0.000682887
1.52829e-06
0.000683334
1.41639e-06
0.000683759
1.29265e-06
0.000684159
1.15846e-06
0.000684532
1.01078e-06
0.000684875
8.52086e-07
0.000685187
6.77713e-07
0.000685464
4.91936e-07
0.000685706
2.87608e-07
0.000685906
7.26509e-08
0.000686072
-1.6987e-07
0.000686188
-4.2355e-07
0.00068626
-7.07193e-07
0.000686278
-1.00039e-06
0.000686247
-1.33367e-06
0.000686153
-1.67257e-06
0.000686006
-2.06616e-06
0.000685787
-2.45719e-06
0.000685511
-2.92504e-06
0.000685149
-3.37485e-06
0.000684729
-3.93531e-06
0.000684208
-4.44923e-06
-5.12501e-06
0.00068363
0.000666683
5.29763e-08
0.000666734
1.58565e-07
0.000666817
2.63674e-07
0.000666934
3.67315e-07
0.000667084
4.69004e-07
0.000667265
5.68293e-07
0.000667477
6.64766e-07
0.000667719
7.58035e-07
0.00066799
8.47747e-07
0.000668289
9.33579e-07
0.000668613
1.01524e-06
0.000668962
1.09248e-06
0.000669335
1.16506e-06
0.000669729
1.23279e-06
0.000670142
1.2955e-06
0.000670574
1.35303e-06
0.000671023
1.40528e-06
0.000671487
1.45212e-06
0.000671964
1.49347e-06
0.000672453
1.52925e-06
0.000672952
1.5594e-06
0.000673459
1.58384e-06
0.000673972
1.60254e-06
0.00067449
1.61541e-06
0.000675012
1.62245e-06
0.000675535
1.62351e-06
0.000676057
1.61863e-06
0.000676577
1.60762e-06
0.000677093
1.59052e-06
0.000677603
1.56708e-06
0.000678106
1.53736e-06
0.000678599
1.501e-06
0.00067908
1.45814e-06
0.000679548
1.40822e-06
0.00068
1.35153e-06
0.000680435
1.28719e-06
0.000680849
1.21576e-06
0.000681242
1.1359e-06
0.00068161
1.04861e-06
0.00068195
9.51779e-07
0.000682262
8.47206e-07
0.000682541
7.31597e-07
0.000682785
6.08023e-07
0.000682991
4.71343e-07
0.000683157
3.2675e-07
0.000683278
1.66311e-07
0.000683351
-9.45083e-10
0.000683375
-1.93465e-07
0.000683342
-3.90829e-07
0.000683251
-6.15574e-07
0.000683094
-8.4411e-07
0.000682871
-1.10993e-06
0.000682572
-1.37399e-06
0.000682196
-1.69033e-06
0.000681734
-1.99463e-06
0.000681183
-2.3743e-06
0.000680531
-2.72329e-06
0.00067978
-3.18346e-06
0.00067891
-3.57974e-06
-4.14249e-06
0.000677928
0.000666682
3.7648e-08
0.000666728
1.12483e-07
0.000666805
1.8682e-07
0.000666912
2.59993e-07
0.00066705
3.31683e-07
0.000667216
4.0159e-07
0.000667412
4.69438e-07
0.000667635
5.34968e-07
0.000667884
5.97945e-07
0.00066816
6.58151e-07
0.00066846
7.1539e-07
0.000668783
7.69486e-07
0.000669128
8.20286e-07
0.000669493
8.67653e-07
0.000669877
9.11474e-07
0.000670278
9.51644e-07
0.000670695
9.88083e-07
0.000671127
1.02071e-06
0.000671571
1.04948e-06
0.000672026
1.07432e-06
0.00067249
1.09521e-06
0.000672962
1.1121e-06
0.000673439
1.12497e-06
0.000673921
1.13376e-06
0.000674405
1.13848e-06
0.000674889
1.13904e-06
0.000675372
1.13549e-06
0.000675852
1.12768e-06
0.000676327
1.11569e-06
0.000676795
1.09931e-06
0.000677254
1.07866e-06
0.000677701
1.05342e-06
0.000678136
1.02379e-06
0.000678554
9.89309e-07
0.000678956
9.5028e-07
0.000679337
9.06005e-07
0.000679696
8.57018e-07
0.000680029
8.02231e-07
0.000680335
7.42557e-07
0.000680611
6.76298e-07
0.000680853
6.05003e-07
0.000681059
5.26004e-07
0.000681225
4.41939e-07
0.000681347
3.48583e-07
0.000681424
2.50411e-07
0.000681449
1.40816e-07
0.000681421
2.74638e-08
0.000681331
-1.03975e-07
0.000681178
-2.37798e-07
0.000680955
-3.9202e-07
0.000680657
-5.46702e-07
0.000680277
-7.29643e-07
0.000679811
-9.08146e-07
0.000679248
-1.12701e-06
0.000678586
-1.33239e-06
0.000677808
-1.59687e-06
0.000676917
-1.83179e-06
0.000675888
-2.15515e-06
0.000674729
-2.42059e-06
-2.82031e-06
0.000673407
0.000666681
2.31482e-08
0.000666725
6.8905e-08
0.000666797
1.14135e-07
0.000666899
1.58476e-07
0.000667029
2.01753e-07
0.000667187
2.43802e-07
0.000667372
2.84473e-07
0.000667583
3.23626e-07
0.00066782
3.61137e-07
0.000668081
3.96888e-07
0.000668366
4.30778e-07
0.000668672
4.62717e-07
0.000669
4.92627e-07
0.000669347
5.20441e-07
0.000669713
5.46108e-07
0.000670095
5.69579e-07
0.000670492
5.90823e-07
0.000670903
6.09808e-07
0.000671326
6.26522e-07
0.000671759
6.40944e-07
0.000672201
6.53077e-07
0.000672651
6.62909e-07
0.000673105
6.70455e-07
0.000673563
6.75701e-07
0.000674023
6.78676e-07
0.000674483
6.79358e-07
0.00067494
6.77786e-07
0.000675394
6.7392e-07
0.000675842
6.67818e-07
0.000676282
6.59403e-07
0.000676712
6.48762e-07
0.000677129
6.35763e-07
0.000677533
6.20535e-07
0.000677919
6.02855e-07
0.000678286
5.82927e-07
0.000678632
5.60394e-07
0.000678953
5.35592e-07
0.000679248
5.07945e-07
0.000679512
4.78017e-07
0.000679744
4.44894e-07
0.000679939
4.09492e-07
0.000680095
3.70369e-07
0.000680208
3.29007e-07
0.000680273
2.83107e-07
0.000680289
2.35152e-07
0.000680248
1.81405e-07
0.000680149
1.26032e-07
0.000679982
6.30321e-08
0.000679746
-9.73376e-10
0.00067943
-7.66231e-08
0.000679034
-1.50881e-07
0.000678545
-2.39869e-07
0.000677962
-3.25092e-07
0.000677266
-4.31744e-07
0.000676463
-5.29371e-07
0.000675525
-6.58849e-07
0.000674463
-7.70011e-07
0.000673238
-9.29453e-07
0.000671871
-1.05429e-06
-1.25329e-06
0.000670304
0.000666681
8.96815e-09
0.000666723
2.63795e-08
0.000666794
4.32095e-08
0.000666893
5.94261e-08
0.00066702
7.49818e-08
0.000667174
8.98376e-08
0.000667355
1.03964e-07
0.000667561
1.17336e-07
0.000667792
1.29936e-07
0.000668047
1.4175e-07
0.000668325
1.52767e-07
0.000668625
1.62983e-07
0.000668945
1.72399e-07
0.000669285
1.81021e-07
0.000669642
1.88864e-07
0.000670016
1.95938e-07
0.000670404
2.02264e-07
0.000670806
2.0787e-07
0.00067122
2.12779e-07
0.000671644
2.17022e-07
0.000672076
2.20633e-07
0.000672515
2.23658e-07
0.00067296
2.26132e-07
0.000673407
2.28102e-07
0.000673856
2.29614e-07
0.000674305
2.30719e-07
0.000674751
2.31468e-07
0.000675193
2.31913e-07
0.000675629
2.32118e-07
0.000676056
2.32117e-07
0.000676473
2.3199e-07
0.000676877
2.31785e-07
0.000677266
2.31571e-07
0.000677637
2.31387e-07
0.000677989
2.31284e-07
0.000678318
2.31355e-07
0.000678622
2.31614e-07
0.000678898
2.32136e-07
0.000679143
2.32977e-07
0.000679354
2.34253e-07
0.000679527
2.36059e-07
0.000679659
2.38504e-07
0.000679746
2.41526e-07
0.000679784
2.45199e-07
0.00067977
2.49555e-07
0.000679697
2.54718e-07
0.000679562
2.60719e-07
0.000679357
2.67551e-07
0.000679081
2.75202e-07
0.000678721
2.83807e-07
0.000678276
2.93486e-07
0.000677732
3.04292e-07
0.000677091
3.16294e-07
0.00067633
3.29474e-07
0.000675456
3.44091e-07
0.000674437
3.59939e-07
0.00067329
3.77441e-07
0.000671964
3.9614e-07
0.000670493
4.16837e-07
4.38417e-07
0.000668802
0.000666681
-5.28455e-09
0.000666724
-1.64999e-08
0.000666795
-2.82308e-08
0.000666895
-4.03127e-08
0.000667023
-5.26502e-08
0.000667178
-6.51506e-08
0.000667359
-7.77229e-08
0.000667567
-9.02762e-08
0.0006678
-1.02723e-07
0.000668056
-1.14977e-07
0.000668336
-1.26957e-07
0.000668638
-1.38579e-07
0.00066896
-1.49766e-07
0.000669301
-1.60437e-07
0.000669661
-1.70516e-07
0.000670036
-1.79927e-07
0.000670427
-1.88598e-07
0.000670832
-1.9645e-07
0.000671248
-2.03417e-07
0.000671674
-2.09415e-07
0.000672109
-2.14378e-07
0.000672551
-2.18215e-07
0.000672998
-2.2086e-07
0.000673448
-2.22208e-07
0.0006739
-2.22196e-07
0.000674352
-2.20701e-07
0.000674801
-2.17663e-07
0.000675246
-2.12931e-07
0.000675684
-2.06458e-07
0.000676114
-1.9805e-07
0.000676534
-1.87685e-07
0.000676941
-1.75107e-07
0.000677333
-1.60339e-07
0.000677707
-1.43032e-07
0.000678062
-1.23295e-07
0.000678394
-1.00633e-07
0.000678701
-7.53028e-08
0.00067898
-4.66172e-08
0.000679228
-1.51877e-08
0.000679442
1.99537e-08
0.000679619
5.90791e-08
0.000679755
1.02897e-07
0.000679846
1.50099e-07
0.000679888
2.03386e-07
0.000679877
2.6008e-07
0.000679808
3.24183e-07
0.000679677
3.91541e-07
0.000679476
4.68378e-07
0.000679204
5.47831e-07
0.000678848
6.3978e-07
0.000678408
7.33024e-07
0.000677869
8.43278e-07
0.000677233
9.52178e-07
0.000676478
1.08486e-06
0.000675611
1.21133e-06
0.000674598
1.372e-06
0.000673458
1.51775e-06
0.00067214
1.71388e-06
0.000670678
1.87964e-06
2.12082e-06
0.000668995
0.000666681
-2.00909e-08
0.000666726
-6.09623e-08
0.0006668
-1.02351e-07
0.000666904
-1.43795e-07
0.000667036
-1.85056e-07
0.000667197
-2.25905e-07
0.000667385
-2.66124e-07
0.0006676
-3.05504e-07
0.000667841
-3.43845e-07
0.000668107
-3.80959e-07
0.000668397
-4.1667e-07
0.000668709
-4.50811e-07
0.000669043
-4.83227e-07
0.000669396
-5.13766e-07
0.000669768
-5.42294e-07
0.000670157
-5.68675e-07
0.000670561
-5.92791e-07
0.000670979
-6.14516e-07
0.000671409
-6.33746e-07
0.00067185
-6.50355e-07
0.0006723
-6.64247e-07
0.000672757
-6.75291e-07
0.00067322
-6.83396e-07
0.000673686
-6.88412e-07
0.000674154
-6.90257e-07
0.000674622
-6.88747e-07
0.000675088
-6.83813e-07
0.00067555
-6.75224e-07
0.000676007
-6.62932e-07
0.000676456
-6.46632e-07
0.000676894
-6.2632e-07
0.000677321
-6.0158e-07
0.000677733
-5.72489e-07
0.000678128
-5.38462e-07
0.000678505
-4.99717e-07
0.000678859
-4.55409e-07
0.00067919
-4.06004e-07
0.000679494
-3.50247e-07
0.000679768
-2.89005e-07
0.000680008
-2.20367e-07
0.000680213
-1.45877e-07
0.000680379
-6.2934e-08
0.000680504
2.5238e-08
0.000680581
1.26375e-07
0.000680607
2.33423e-07
0.000680578
3.53692e-07
0.000680489
4.79827e-07
0.000680335
6.23003e-07
0.000680112
7.7104e-07
0.00067981
9.41527e-07
0.000679428
1.11448e-06
0.000678954
1.31792e-06
0.000678387
1.51918e-06
0.000677709
1.76301e-06
0.000676924
1.99612e-06
0.000676005
2.29035e-06
0.000674965
2.55863e-06
0.000673762
2.91672e-06
0.000672419
3.22188e-06
3.66092e-06
0.000670879
0.000666682
-3.59005e-08
0.00066673
-1.08466e-07
0.000666809
-1.81543e-07
0.00066692
-2.54339e-07
0.000667061
-3.2645e-07
0.000667233
-3.97499e-07
0.000667434
-4.67127e-07
0.000667663
-5.34993e-07
0.00066792
-6.00781e-07
0.000668203
-6.64195e-07
0.000668512
-7.24967e-07
0.000668844
-7.82845e-07
0.000669198
-8.37602e-07
0.000669573
-8.89025e-07
0.000669968
-9.36925e-07
0.00067038
-9.81121e-07
0.000670809
-1.02146e-06
0.000671252
-1.05777e-06
0.000671709
-1.08993e-06
0.000672176
-1.11779e-06
0.000672653
-1.14122e-06
0.000673138
-1.16008e-06
0.000673629
-1.17424e-06
0.000674124
-1.18354e-06
0.000674621
-1.18788e-06
0.00067512
-1.18703e-06
0.000675617
-1.18092e-06
0.000676111
-1.16926e-06
0.0006766
-1.15198e-06
0.000677082
-1.12873e-06
0.000677555
-1.09948e-06
0.000678017
-1.06372e-06
0.000678466
-1.02152e-06
0.0006789
-9.72166e-07
0.000679316
-9.15894e-07
0.000679712
-8.51655e-07
0.000680086
-7.79974e-07
0.000680435
-6.99302e-07
0.000680757
-6.10651e-07
0.000681048
-5.11703e-07
0.000681307
-4.0429e-07
0.000681529
-2.84885e-07
0.000681711
-1.5673e-07
0.000681852
-1.51423e-08
0.000681948
1.3796e-07
0.000681992
3.09334e-07
0.000681982
4.89496e-07
0.000681913
6.92205e-07
0.000681781
9.02889e-07
0.00068158
1.14303e-06
0.000681306
1.38864e-06
0.00068095
1.67365e-06
0.00068051
1.95898e-06
0.000679974
2.29865e-06
0.000679342
2.62894e-06
0.000678596
3.03614e-06
0.000677738
3.41656e-06
0.000676746
3.90837e-06
0.000675626
4.34246e-06
4.94009e-06
0.000674347
0.000666684
-5.32632e-08
0.000666736
-1.60638e-07
0.000666823
-2.68495e-07
0.000666944
-3.75665e-07
0.0006671
-4.81548e-07
0.000667288
-5.85586e-07
0.000667508
-6.87255e-07
0.000667759
-7.86069e-07
0.00066804
-8.81582e-07
0.000668349
-9.73389e-07
0.000668685
-1.06113e-06
0.000669047
-1.14447e-06
0.000669432
-1.22312e-06
0.00066984
-1.29683e-06
0.000670268
-1.36536e-06
0.000670716
-1.4285e-06
0.00067118
-1.48609e-06
0.000671661
-1.53793e-06
0.000672155
-1.5839e-06
0.000672661
-1.62383e-06
0.000673177
-1.6576e-06
0.000673702
-1.68505e-06
0.000674234
-1.70606e-06
0.000674771
-1.72046e-06
0.000675311
-1.72813e-06
0.000675853
-1.72885e-06
0.000676394
-1.72252e-06
0.000676934
-1.70884e-06
0.00067747
-1.68773e-06
0.000678
-1.65881e-06
0.000678522
-1.622e-06
0.000679035
-1.57679e-06
0.000679537
-1.52318e-06
0.000680025
-1.46044e-06
0.000680498
-1.38871e-06
0.000680953
-1.30695e-06
0.000681389
-1.21553e-06
0.000681803
-1.11295e-06
0.000682192
-9.99998e-07
0.000682555
-8.74429e-07
0.000682888
-7.37762e-07
0.00068319
-5.86621e-07
0.000683457
-4.23756e-07
0.000683686
-2.44103e-07
0.000683877
-5.2857e-08
0.000684025
1.6096e-07
0.000684126
3.88808e-07
0.000684176
6.41748e-07
0.000684172
9.07126e-07
0.00068411
1.2048e-06
0.000683985
1.51348e-06
0.000683795
1.86434e-06
0.000683531
2.2226e-06
0.000683192
2.63737e-06
0.000682769
3.05215e-06
0.000682261
3.54468e-06
0.000681654
4.02344e-06
0.00068095
4.61158e-06
0.000680132
5.16085e-06
5.86588e-06
0.000679206
0.000666686
-7.28172e-08
0.000666745
-2.19415e-07
0.000666843
-3.66436e-07
0.00066698
-5.12243e-07
0.000667154
-6.55988e-07
0.000667365
-7.96886e-07
0.000667612
-9.34211e-07
0.000667893
-1.0673e-06
0.000668207
-1.19557e-06
0.000668553
-1.3185e-06
0.000668927
-1.43565e-06
0.000669329
-1.54661e-06
0.000669757
-1.65107e-06
0.000670209
-1.74873e-06
0.000670683
-1.83936e-06
0.000671177
-1.92275e-06
0.00067169
-1.99874e-06
0.000672219
-2.06716e-06
0.000672763
-2.12788e-06
0.00067332
-2.18078e-06
0.000673888
-2.22574e-06
0.000674466
-2.26264e-06
0.000675051
-2.29135e-06
0.000675642
-2.31175e-06
0.000676238
-2.32369e-06
0.000676836
-2.32702e-06
0.000677435
-2.32157e-06
0.000678034
-2.30713e-06
0.000678629
-2.28352e-06
0.000679221
-2.25044e-06
0.000679807
-2.20772e-06
0.000680385
-2.15494e-06
0.000680954
-2.09194e-06
0.000681511
-2.01816e-06
0.000682056
-1.93346e-06
0.000682586
-1.83708e-06
0.0006831
-1.72897e-06
0.000683595
-1.60807e-06
0.000684069
-1.4745e-06
0.000684522
-1.32676e-06
0.000684949
-1.1653e-06
0.00068535
-9.87938e-07
0.000685722
-7.95739e-07
0.000686064
-5.85504e-07
0.00068637
-3.59463e-07
0.000686645
-1.13323e-07
0.000686882
1.5165e-07
0.000687079
4.44435e-07
0.000687231
7.55157e-07
0.00068734
1.09621e-06
0.000687396
1.45685e-06
0.000687405
1.85522e-06
0.000687355
2.27332e-06
0.000687253
2.73929e-06
0.000687081
3.22373e-06
0.000686856
3.7701e-06
0.000686548
4.33098e-06
0.000686186
4.97342e-06
0.000685726
5.62129e-06
6.37683e-06
0.000685215
0.000666689
-9.53924e-08
0.000666757
-2.87318e-07
0.00066687
-4.79542e-07
0.000667028
-6.69824e-07
0.000667229
-8.56971e-07
0.000667472
-1.0399e-06
0.000667755
-1.21762e-06
0.000668077
-1.38927e-06