/*--------------------------------*- C++ -*----------------------------------*\
| =========                 |                                                 |
| \\      /  F ield         | OpenFOAM: The Open Source CFD Toolbox           |
|  \\    /   O peration     | Version:  2312                                  |
|   \\  /    A nd           | Website:  www.openfoam.com                      |
|    \\/     M anipulation  |                                                 |
\*---------------------------------------------------------------------------*/
FoamFile
{
    version     2.0;
    format      ascii;
    arch        "LSB;label=32;scalar=64";
    class       volVectorField;
    location    "14000";
    object      U;
}
// * * * * * * * * * * * * * * * * * * * * * * * * * * * * * * * * * * * * * //

dimensions      [0 1 -1 0 0 0 0];

internalField   nonuniform List<vector> 
10800
(
(0.000992484 4.9402e-06 0)
(0.000990041 1.24525e-05 0)
(0.000986882 1.74698e-05 0)
(0.000980519 2.06491e-05 0)
(0.00097112 2.27273e-05 0)
(0.000959847 2.42154e-05 0)
(0.000947769 2.53478e-05 0)
(0.000935421 2.61997e-05 0)
(0.000922945 2.67954e-05 0)
(0.000910321 2.71592e-05 0)
(0.000897504 2.73285e-05 0)
(0.000884493 2.73468e-05 0)
(0.000871324 2.7252e-05 0)
(0.000858054 2.70703e-05 0)
(0.000844737 2.68201e-05 0)
(0.000831411 2.65147e-05 0)
(0.000818105 2.61612e-05 0)
(0.000804839 2.57626e-05 0)
(0.00079163 2.53254e-05 0)
(0.000778496 2.48584e-05 0)
(0.000765455 2.4363e-05 0)
(0.000752524 2.38356e-05 0)
(0.000739725 2.32782e-05 0)
(0.000727076 2.27007e-05 0)
(0.00071459 2.21055e-05 0)
(0.000702282 2.14837e-05 0)
(0.000690174 2.08263e-05 0)
(0.000678287 2.01404e-05 0)
(0.000666643 1.94418e-05 0)
(0.000655251 1.87374e-05 0)
(0.000644132 1.80055e-05 0)
(0.000633304 1.72181e-05 0)
(0.000622804 1.63681e-05 0)
(0.000612647 1.54972e-05 0)
(0.000602868 1.46568e-05 0)
(0.000593455 1.38767e-05 0)
(0.000584442 1.31114e-05 0)
(0.000575808 1.22814e-05 0)
(0.000567647 1.12779e-05 0)
(0.000559946 1.00538e-05 0)
(0.000552893 8.58579e-06 0)
(0.000546406 6.94945e-06 0)
(0.000540769 5.20036e-06 0)
(0.000535681 3.47289e-06 0)
(0.000531623 1.80858e-06 0)
(0.000527866 3.28494e-07 0)
(0.000525404 -9.80324e-07 0)
(0.00052267 -2.03135e-06 0)
(0.000521903 -2.86721e-06 0)
(0.000519664 -3.4869e-06 0)
(0.000521085 -3.83416e-06 0)
(0.000518285 -4.19575e-06 0)
(0.000523262 -3.97218e-06 0)
(0.000517412 -4.50029e-06 0)
(0.000529473 -3.23977e-06 0)
(0.000514445 -5.09814e-06 0)
(0.000542588 -1.16719e-06 0)
(0.000503691 -7.6554e-06 0)
(0.000570096 4.00163e-06 0)
(0.000474493 -1.6018e-05 0)
(0.00100003 5.79645e-06 0)
(0.00100172 1.49747e-05 0)
(0.00100423 2.1492e-05 0)
(0.00100707 2.60405e-05 0)
(0.00100981 2.93825e-05 0)
(0.00101223 3.20463e-05 0)
(0.00101427 3.42789e-05 0)
(0.00101596 3.61663e-05 0)
(0.00101736 3.7741e-05 0)
(0.0010185 3.90334e-05 0)
(0.00101939 4.00844e-05 0)
(0.00102001 4.09389e-05 0)
(0.00102038 4.16368e-05 0)
(0.0010205 4.22081e-05 0)
(0.00102037 4.26723e-05 0)
(0.00102001 4.30412e-05 0)
(0.00101943 4.33223e-05 0)
(0.00101866 4.35206e-05 0)
(0.0010177 4.36421e-05 0)
(0.00101655 4.36916e-05 0)
(0.00101525 4.36714e-05 0)
(0.00101378 4.35798e-05 0)
(0.00101218 4.34168e-05 0)
(0.00101044 4.3184e-05 0)
(0.00100859 4.2885e-05 0)
(0.00100662 4.2517e-05 0)
(0.00100457 4.2077e-05 0)
(0.00100242 4.15551e-05 0)
(0.00100021 4.09529e-05 0)
(0.000997917 4.02709e-05 0)
(0.000995633 3.95188e-05 0)
(0.000993267 3.86841e-05 0)
(0.000990942 3.77611e-05 0)
(0.000988506 3.67231e-05 0)
(0.000986196 3.55886e-05 0)
(0.000983768 3.43487e-05 0)
(0.000981623 3.30447e-05 0)
(0.000979307 3.16339e-05 0)
(0.00097745 3.01398e-05 0)
(0.000975216 2.846e-05 0)
(0.000973649 2.66575e-05 0)
(0.000971325 2.46237e-05 0)
(0.000970068 2.255e-05 0)
(0.000967484 2.03046e-05 0)
(0.00096673 1.82064e-05 0)
(0.00096371 1.5946e-05 0)
(0.000963836 1.39615e-05 0)
(0.000960061 1.16288e-05 0)
(0.000961669 9.66393e-06 0)
(0.000956548 7.0364e-06 0)
(0.000960634 5.06822e-06 0)
(0.000953089 2.10448e-06 0)
(0.000961301 4.60642e-07 0)
(0.000949447 -2.61356e-06 0)
(0.000964576 -3.38052e-06 0)
(0.000944968 -6.40033e-06 0)
(0.000971473 -5.88106e-06 0)
(0.000938034 -8.75593e-06 0)
(0.000983619 -7.06331e-06 0)
(0.000926339 -9.17908e-06 0)
(0.000999989 1.95482e-06 0)
(0.00100078 5.73982e-06 0)
(0.00100224 9.24714e-06 0)
(0.00100424 1.23926e-05 0)
(0.00100656 1.51731e-05 0)
(0.001009 1.76336e-05 0)
(0.00101143 1.98283e-05 0)
(0.00101381 2.17999e-05 0)
(0.00101614 2.3575e-05 0)
(0.00101842 2.51701e-05 0)
(0.00102066 2.65981e-05 0)
(0.00102285 2.78714e-05 0)
(0.00102499 2.90034e-05 0)
(0.00102707 3.00076e-05 0)
(0.00102909 3.08962e-05 0)
(0.00103104 3.16782e-05 0)
(0.00103294 3.23601e-05 0)
(0.00103477 3.29457e-05 0)
(0.00103654 3.344e-05 0)
(0.00103826 3.38474e-05 0)
(0.00103992 3.41707e-05 0)
(0.00104153 3.44085e-05 0)
(0.00104309 3.456e-05 0)
(0.00104459 3.46259e-05 0)
(0.00104605 3.46098e-05 0)
(0.00104746 3.45103e-05 0)
(0.00104883 3.43265e-05 0)
(0.00105014 3.40495e-05 0)
(0.00105141 3.36788e-05 0)
(0.00105262 3.32097e-05 0)
(0.00105381 3.26502e-05 0)
(0.00105493 3.19941e-05 0)
(0.00105604 3.12446e-05 0)
(0.00105705 3.03794e-05 0)
(0.00105807 2.9405e-05 0)
(0.00105897 2.83014e-05 0)
(0.00105993 2.70942e-05 0)
(0.0010607 2.57575e-05 0)
(0.00106158 2.43202e-05 0)
(0.0010622 2.2726e-05 0)
(0.001063 2.10145e-05 0)
(0.00106339 1.91136e-05 0)
(0.0010641 1.71216e-05 0)
(0.00106419 1.49781e-05 0)
(0.0010649 1.287e-05 0)
(0.0010647 1.07059e-05 0)
(0.00106557 8.72714e-06 0)
(0.001065 6.73051e-06 0)
(0.00106616 4.99065e-06 0)
(0.00106499 3.14847e-06 0)
(0.00106658 1.58896e-06 0)
(0.00106441 -2.0687e-07 0)
(0.00106677 -1.63578e-06 0)
(0.00106312 -3.40311e-06 0)
(0.00106683 -4.61906e-06 0)
(0.00106099 -6.22347e-06 0)
(0.00106738 -7.00415e-06 0)
(0.00105843 -8.20136e-06 0)
(0.00106941 -8.3795e-06 0)
(0.00105558 -8.89558e-06 0)
(0.00100001 1.73231e-06 0)
(0.00100047 5.13016e-06 0)
(0.00100128 8.36967e-06 0)
(0.0010024 1.13742e-05 0)
(0.00100375 1.41026e-05 0)
(0.00100528 1.65518e-05 0)
(0.00100691 1.8743e-05 0)
(0.00100862 2.07055e-05 0)
(0.00101037 2.2466e-05 0)
(0.00101217 2.4045e-05 0)
(0.001014 2.54577e-05 0)
(0.00101586 2.67163e-05 0)
(0.00101773 2.78321e-05 0)
(0.00101962 2.88169e-05 0)
(0.00102152 2.96818e-05 0)
(0.00102342 3.04367e-05 0)
(0.00102531 3.10888e-05 0)
(0.00102721 3.16443e-05 0)
(0.0010291 3.21084e-05 0)
(0.00103099 3.24863e-05 0)
(0.00103288 3.27811e-05 0)
(0.00103476 3.29939e-05 0)
(0.00103663 3.31247e-05 0)
(0.0010385 3.31747e-05 0)
(0.00104036 3.31459e-05 0)
(0.0010422 3.30404e-05 0)
(0.00104405 3.28564e-05 0)
(0.00104587 3.25904e-05 0)
(0.00104768 3.22376e-05 0)
(0.00104946 3.17988e-05 0)
(0.00105124 3.12752e-05 0)
(0.00105299 3.0672e-05 0)
(0.00105472 2.9984e-05 0)
(0.00105641 2.92073e-05 0)
(0.00105807 2.83277e-05 0)
(0.00105969 2.7348e-05 0)
(0.00106129 2.6265e-05 0)
(0.00106281 2.51015e-05 0)
(0.00106431 2.38522e-05 0)
(0.00106572 2.25393e-05 0)
(0.00106709 2.11289e-05 0)
(0.00106832 1.96435e-05 0)
(0.00106951 1.80333e-05 0)
(0.00107049 1.63635e-05 0)
(0.00107146 1.45892e-05 0)
(0.00107218 1.2841e-05 0)
(0.00107295 1.10435e-05 0)
(0.00107341 9.37842e-06 0)
(0.00107402 7.66832e-06 0)
(0.00107421 6.15166e-06 0)
(0.00107469 4.50211e-06 0)
(0.00107458 3.08446e-06 0)
(0.00107496 1.39027e-06 0)
(0.0010745 2.1652e-09 0)
(0.00107499 -1.79126e-06 0)
(0.00107436 -3.08727e-06 0)
(0.00107526 -4.94935e-06 0)
(0.00107449 -6.03861e-06 0)
(0.0010761 -7.91727e-06 0)
(0.00107521 -8.64997e-06 0)
(0.001 1.14235e-06 0)
(0.00100023 3.39836e-06 0)
(0.00100067 5.58737e-06 0)
(0.00100134 7.67738e-06 0)
(0.0010022 9.64675e-06 0)
(0.00100324 1.14849e-05 0)
(0.00100442 1.31902e-05 0)
(0.0010057 1.47663e-05 0)
(0.00100707 1.62187e-05 0)
(0.0010085 1.75534e-05 0)
(0.00100999 1.87754e-05 0)
(0.00101152 1.98889e-05 0)
(0.00101309 2.08981e-05 0)
(0.00101469 2.18074e-05 0)
(0.00101632 2.26214e-05 0)
(0.00101796 2.33446e-05 0)
(0.00101962 2.39801e-05 0)
(0.00102129 2.45311e-05 0)
(0.00102297 2.50002e-05 0)
(0.00102465 2.53906e-05 0)
(0.00102634 2.57038e-05 0)
(0.00102804 2.59404e-05 0)
(0.00102973 2.60997e-05 0)
(0.00103143 2.6183e-05 0)
(0.00103312 2.61911e-05 0)
(0.00103481 2.61263e-05 0)
(0.0010365 2.59859e-05 0)
(0.00103818 2.57686e-05 0)
(0.00103984 2.54693e-05 0)
(0.0010415 2.50913e-05 0)
(0.00104314 2.46329e-05 0)
(0.00104477 2.41016e-05 0)
(0.00104636 2.34888e-05 0)
(0.00104793 2.27974e-05 0)
(0.00104947 2.20095e-05 0)
(0.00105098 2.11366e-05 0)
(0.00105245 2.01652e-05 0)
(0.00105387 1.91275e-05 0)
(0.00105523 1.80046e-05 0)
(0.00105654 1.68339e-05 0)
(0.00105778 1.55641e-05 0)
(0.00105896 1.42416e-05 0)
(0.00106007 1.27886e-05 0)
(0.0010611 1.13035e-05 0)
(0.00106206 9.69854e-06 0)
(0.00106295 8.1543e-06 0)
(0.00106377 6.53992e-06 0)
(0.00106453 5.11024e-06 0)
(0.00106524 3.6113e-06 0)
(0.0010659 2.37771e-06 0)
(0.00106654 9.58931e-07 0)
(0.00106713 -1.55694e-07 0)
(0.00106774 -1.66478e-06 0)
(0.00106833 -2.79067e-06 0)
(0.00106891 -4.55008e-06 0)
(0.00106951 -5.74226e-06 0)
(0.00107013 -7.86367e-06 0)
(0.00107093 -9.07029e-06 0)
(0.00107167 -1.16121e-05 0)
(0.0010728 -1.26969e-05 0)
(0.001 9.16272e-07 0)
(0.00100017 2.73877e-06 0)
(0.00100051 4.53258e-06 0)
(0.00100101 6.27854e-06 0)
(0.00100165 7.95894e-06 0)
(0.00100243 9.55966e-06 0)
(0.00100332 1.10711e-05 0)
(0.0010043 1.24882e-05 0)
(0.00100537 1.38089e-05 0)
(0.00100651 1.50334e-05 0)
(0.00100771 1.6163e-05 0)
(0.00100895 1.71991e-05 0)
(0.00101024 1.81433e-05 0)
(0.00101157 1.8998e-05 0)
(0.00101294 1.97657e-05 0)
(0.00101433 2.0449e-05 0)
(0.00101574 2.10498e-05 0)
(0.00101717 2.15704e-05 0)
(0.00101862 2.2013e-05 0)
(0.00102008 2.23802e-05 0)
(0.00102155 2.26732e-05 0)
(0.00102303 2.2893e-05 0)
(0.00102451 2.30393e-05 0)
(0.001026 2.3114e-05 0)
(0.00102749 2.31177e-05 0)
(0.00102898 2.3053e-05 0)
(0.00103046 2.29175e-05 0)
(0.00103194 2.27112e-05 0)
(0.0010334 2.24305e-05 0)
(0.00103486 2.20795e-05 0)
(0.0010363 2.1657e-05 0)
(0.00103774 2.11699e-05 0)
(0.00103914 2.06108e-05 0)
(0.00104052 1.99834e-05 0)
(0.00104188 1.92741e-05 0)
(0.00104321 1.84949e-05 0)
(0.00104451 1.7636e-05 0)
(0.00104577 1.67261e-05 0)
(0.00104699 1.57488e-05 0)
(0.00104817 1.47364e-05 0)
(0.0010493 1.36451e-05 0)
(0.00105039 1.25123e-05 0)
(0.00105143 1.12734e-05 0)
(0.00105241 1.00062e-05 0)
(0.00105333 8.63546e-06 0)
(0.0010542 7.3048e-06 0)
(0.00105499 5.90041e-06 0)
(0.00105574 4.62577e-06 0)
(0.00105642 3.26643e-06 0)
(0.00105708 2.09112e-06 0)
(0.00105769 7.28479e-07 0)
(0.00105833 -4.43016e-07 0)
(0.00105892 -1.98935e-06 0)
(0.00105962 -3.30745e-06 0)
(0.00106029 -5.23395e-06 0)
(0.00106118 -6.78067e-06 0)
(0.00106192 -9.18239e-06 0)
(0.00106303 -1.09092e-05 0)
(0.00106376 -1.3851e-05 0)
(0.00106509 -1.56487e-05 0)
(0.001 7.21799e-07 0)
(0.00100013 2.1575e-06 0)
(0.00100037 3.57213e-06 0)
(0.00100073 4.9528e-06 0)
(0.00100121 6.2879e-06 0)
(0.0010018 7.56791e-06 0)
(0.00100248 8.78568e-06 0)
(0.00100325 9.93643e-06 0)
(0.00100409 1.10173e-05 0)
(0.00100501 1.20271e-05 0)
(0.00100599 1.29652e-05 0)
(0.00100702 1.38317e-05 0)
(0.00100809 1.46268e-05 0)
(0.00100921 1.53514e-05 0)
(0.00101037 1.6006e-05 0)
(0.00101155 1.65918e-05 0)
(0.00101277 1.71092e-05 0)
(0.00101401 1.75591e-05 0)
(0.00101526 1.79426e-05 0)
(0.00101654 1.82613e-05 0)
(0.00101783 1.85153e-05 0)
(0.00101912 1.8705e-05 0)
(0.00102043 1.88302e-05 0)
(0.00102173 1.8892e-05 0)
(0.00102305 1.8891e-05 0)
(0.00102436 1.88286e-05 0)
(0.00102567 1.87029e-05 0)
(0.00102697 1.85136e-05 0)
(0.00102826 1.82584e-05 0)
(0.00102953 1.79406e-05 0)
(0.00103081 1.75598e-05 0)
(0.00103206 1.71203e-05 0)
(0.00103329 1.66163e-05 0)
(0.0010345 1.60496e-05 0)
(0.00103568 1.54109e-05 0)
(0.00103684 1.47089e-05 0)
(0.00103797 1.39381e-05 0)
(0.00103906 1.3118e-05 0)
(0.00104011 1.2237e-05 0)
(0.00104113 1.13144e-05 0)
(0.0010421 1.03178e-05 0)
(0.00104303 9.27056e-06 0)
(0.00104391 8.12925e-06 0)
(0.00104476 6.94837e-06 0)
(0.00104555 5.68295e-06 0)
(0.0010463 4.43307e-06 0)
(0.00104701 3.12512e-06 0)
(0.00104769 1.89618e-06 0)
(0.00104836 5.95865e-07 0)
(0.00104904 -6.05078e-07 0)
(0.00104969 -1.96153e-06 0)
(0.00105039 -3.22308e-06 0)
(0.00105106 -4.79095e-06 0)
(0.00105182 -6.24461e-06 0)
(0.00105251 -8.18852e-06 0)
(0.00105337 -9.92884e-06 0)
(0.0010541 -1.23841e-05 0)
(0.00105512 -1.441e-05 0)
(0.0010558 -1.74499e-05 0)
(0.00105689 -1.96636e-05 0)
(0.001 5.73387e-07 0)
(0.0010001 1.71492e-06 0)
(0.00100029 2.84316e-06 0)
(0.00100057 3.95005e-06 0)
(0.00100095 5.02792e-06 0)
(0.00100141 6.06991e-06 0)
(0.00100195 7.0702e-06 0)
(0.00100257 8.02407e-06 0)
(0.00100326 8.92799e-06 0)
(0.00100402 9.77946e-06 0)
(0.00100483 1.05767e-05 0)
(0.00100569 1.13186e-05 0)
(0.0010066 1.20041e-05 0)
(0.00100756 1.26328e-05 0)
(0.00100854 1.32045e-05 0)
(0.00100957 1.3719e-05 0)
(0.00101062 1.41759e-05 0)
(0.00101169 1.45753e-05 0)
(0.00101278 1.49176e-05 0)
(0.0010139 1.52033e-05 0)
(0.00101502 1.54324e-05 0)
(0.00101616 1.56047e-05 0)
(0.00101731 1.57199e-05 0)
(0.00101846 1.57788e-05 0)
(0.00101961 1.57818e-05 0)
(0.00102077 1.57297e-05 0)
(0.00102192 1.56211e-05 0)
(0.00102306 1.54555e-05 0)
(0.0010242 1.52315e-05 0)
(0.00102532 1.49515e-05 0)
(0.00102643 1.46161e-05 0)
(0.00102754 1.42273e-05 0)
(0.00102861 1.37814e-05 0)
(0.00102966 1.32783e-05 0)
(0.00103069 1.27126e-05 0)
(0.0010317 1.20901e-05 0)
(0.00103268 1.14097e-05 0)
(0.00103363 1.06833e-05 0)
(0.00103454 9.90541e-06 0)
(0.00103542 9.08454e-06 0)
(0.00103626 8.20147e-06 0)
(0.00103708 7.26576e-06 0)
(0.00103785 6.25439e-06 0)
(0.00103859 5.19827e-06 0)
(0.00103929 4.07792e-06 0)
(0.00103995 2.94993e-06 0)
(0.00104057 1.78064e-06 0)
(0.00104115 6.36731e-07 0)
(0.00104169 -5.61838e-07 0)
(0.00104222 -1.74266e-06 0)
(0.00104274 -3.05758e-06 0)
(0.00104329 -4.38959e-06 0)
(0.00104381 -5.9654e-06 0)
(0.00104442 -7.58154e-06 0)
(0.00104495 -9.55868e-06 0)
(0.00104562 -1.15368e-05 0)
(0.00104614 -1.40065e-05 0)
(0.00104687 -1.63584e-05 0)
(0.00104729 -1.93758e-05 0)
(0.001048 -2.20528e-05 0)
(0.001 4.56761e-07 0)
(0.00100008 1.36655e-06 0)
(0.00100023 2.26719e-06 0)
(0.00100047 3.15315e-06 0)
(0.00100077 4.01905e-06 0)
(0.00100115 4.85986e-06 0)
(0.0010016 5.67105e-06 0)
(0.00100211 6.44871e-06 0)
(0.00100269 7.18958e-06 0)
(0.00100332 7.89103e-06 0)
(0.00100401 8.55082e-06 0)
(0.00100474 9.16709e-06 0)
(0.00100552 9.7384e-06 0)
(0.00100633 1.02638e-05 0)
(0.00100718 1.07425e-05 0)
(0.00100807 1.11739e-05 0)
(0.00100898 1.15574e-05 0)
(0.00100992 1.18927e-05 0)
(0.00101087 1.21798e-05 0)
(0.00101185 1.24188e-05 0)
(0.00101284 1.26094e-05 0)
(0.00101384 1.27512e-05 0)
(0.00101484 1.28439e-05 0)
(0.00101586 1.2888e-05 0)
(0.00101688 1.28839e-05 0)
(0.00101789 1.28317e-05 0)
(0.00101891 1.27303e-05 0)
(0.00101992 1.25791e-05 0)
(0.00102092 1.23774e-05 0)
(0.0010219 1.21268e-05 0)
(0.00102288 1.18281e-05 0)
(0.00102385 1.1482e-05 0)
(0.00102479 1.10861e-05 0)
(0.0010257 1.06387e-05 0)
(0.0010266 1.01376e-05 0)
(0.00102747 9.5853e-06 0)
(0.00102832 8.98369e-06 0)
(0.00102913 8.3381e-06 0)
(0.0010299 7.64715e-06 0)
(0.00103065 6.91006e-06 0)
(0.00103136 6.11702e-06 0)
(0.00103203 5.26543e-06 0)
(0.00103266 4.34798e-06 0)
(0.00103326 3.3746e-06 0)
(0.00103381 2.34751e-06 0)
(0.00103432 1.28823e-06 0)
(0.00103479 1.95915e-07 0)
(0.00103524 -9.13542e-07 0)
(0.00103566 -2.06303e-06 0)
(0.00103606 -3.24802e-06 0)
(0.00103643 -4.52557e-06 0)
(0.00103681 -5.89408e-06 0)
(0.00103715 -7.43188e-06 0)
(0.00103753 -9.11157e-06 0)
(0.00103783 -1.10324e-05 0)
(0.0010382 -1.31104e-05 0)
(0.00103844 -1.54862e-05 0)
(0.00103879 -1.79872e-05 0)
(0.00103888 -2.08593e-05 0)
(0.00103909 -2.37707e-05 0)
(0.001 3.60599e-07 0)
(0.00100007 1.07897e-06 0)
(0.0010002 1.79067e-06 0)
(0.00100039 2.49178e-06 0)
(0.00100065 3.17843e-06 0)
(0.00100097 3.84692e-06 0)
(0.00100135 4.49381e-06 0)
(0.00100178 5.11597e-06 0)
(0.00100227 5.71068e-06 0)
(0.00100282 6.27559e-06 0)
(0.0010034 6.80865e-06 0)
(0.00100403 7.30804e-06 0)
(0.00100471 7.77229e-06 0)
(0.00100542 8.2003e-06 0)
(0.00100616 8.59118e-06 0)
(0.00100693 8.94406e-06 0)
(0.00100773 9.25818e-06 0)
(0.00100855 9.53301e-06 0)
(0.0010094 9.76838e-06 0)
(0.00101026 9.96407e-06 0)
(0.00101113 1.01197e-05 0)
(0.00101201 1.02345e-05 0)
(0.00101291 1.03085e-05 0)
(0.00101381 1.03416e-05 0)
(0.00101471 1.03343e-05 0)
(0.00101561 1.02861e-05 0)
(0.00101651 1.01965e-05 0)
(0.0010174 1.00644e-05 0)
(0.00101828 9.88974e-06 0)
(0.00101915 9.67323e-06 0)
(0.00102002 9.41605e-06 0)
(0.00102086 9.11755e-06 0)
(0.00102169 8.7765e-06 0)
(0.00102248 8.39008e-06 0)
(0.00102326 7.95814e-06 0)
(0.00102401 7.48058e-06 0)
(0.00102473 6.96141e-06 0)
(0.00102542 6.40096e-06 0)
(0.00102608 5.80138e-06 0)
(0.0010267 5.15597e-06 0)
(0.00102728 4.46283e-06 0)
(0.00102783 3.7116e-06 0)
(0.00102833 2.90764e-06 0)
(0.00102879 2.04547e-06 0)
(0.00102921 1.14476e-06 0)
(0.00102959 1.99235e-07 0)
(0.00102991 -7.67342e-07 0)
(0.00103021 -1.77902e-06 0)
(0.00103045 -2.81939e-06 0)
(0.00103067 -3.94415e-06 0)
(0.00103085 -5.13126e-06 0)
(0.00103101 -6.46916e-06 0)
(0.00103111 -7.91269e-06 0)
(0.0010312 -9.57799e-06 0)
(0.0010312 -1.13719e-05 0)
(0.00103122 -1.34472e-05 0)
(0.0010311 -1.56439e-05 0)
(0.001031 -1.81779e-05 0)
(0.00103067 -2.08005e-05 0)
(0.00103035 -2.38182e-05 0)
(0.001 2.78875e-07 0)
(0.00100006 8.34482e-07 0)
(0.00100017 1.38518e-06 0)
(0.00100034 1.92816e-06 0)
(0.00100056 2.4606e-06 0)
(0.00100084 2.97981e-06 0)
(0.00100117 3.4832e-06 0)
(0.00100154 3.96837e-06 0)
(0.00100197 4.4332e-06 0)
(0.00100244 4.87576e-06 0)
(0.00100296 5.29435e-06 0)
(0.00100351 5.68742e-06 0)
(0.0010041 6.05364e-06 0)
(0.00100473 6.39196e-06 0)
(0.00100538 6.70148e-06 0)
(0.00100607 6.98131e-06 0)
(0.00100678 7.23065e-06 0)
(0.00100751 7.4489e-06 0)
(0.00100826 7.63577e-06 0)
(0.00100903 7.79088e-06 0)
(0.00100981 7.91375e-06 0)
(0.0010106 8.00374e-06 0)
(0.0010114 8.0606e-06 0)
(0.0010122 8.08426e-06 0)
(0.00101301 8.07496e-06 0)
(0.00101382 8.03217e-06 0)
(0.00101462 7.95536e-06 0)
(0.00101542 7.84339e-06 0)
(0.0010162 7.69657e-06 0)
(0.00101697 7.51493e-06 0)
(0.00101773 7.29972e-06 0)
(0.00101848 7.04952e-06 0)
(0.0010192 6.7639e-06 0)
(0.00101989 6.43951e-06 0)
(0.00102057 6.07746e-06 0)
(0.00102121 5.67605e-06 0)
(0.00102183 5.24035e-06 0)
(0.00102241 4.7675e-06 0)
(0.00102295 4.26194e-06 0)
(0.00102346 3.71337e-06 0)
(0.00102393 3.12512e-06 0)
(0.00102435 2.482e-06 0)
(0.00102473 1.79627e-06 0)
(0.00102506 1.05291e-06 0)
(0.00102534 2.79489e-07 0)
(0.00102557 -5.46544e-07 0)
(0.00102575 -1.38653e-06 0)
(0.00102588 -2.28964e-06 0)
(0.00102595 -3.2089e-06 0)
(0.00102598 -4.23495e-06 0)
(0.00102595 -5.29758e-06 0)
(0.00102587 -6.53724e-06 0)
(0.00102571 -7.83052e-06 0)
(0.00102551 -9.38235e-06 0)
(0.00102521 -1.09778e-05 0)
(0.00102486 -1.29209e-05 0)
(0.00102437 -1.4859e-05 0)
(0.00102382 -1.72528e-05 0)
(0.00102305 -1.95431e-05 0)
(0.0010222 -2.2441e-05 0)
(0.001 2.0749e-07 0)
(0.00100005 6.20886e-07 0)
(0.00100015 1.03075e-06 0)
(0.0010003 1.43507e-06 0)
(0.0010005 1.83187e-06 0)
(0.00100074 2.2192e-06 0)
(0.00100103 2.59519e-06 0)
(0.00100137 2.95809e-06 0)
(0.00100175 3.3063e-06 0)
(0.00100217 3.63837e-06 0)
(0.00100263 3.95296e-06 0)
(0.00100313 4.24882e-06 0)
(0.00100366 4.5249e-06 0)
(0.00100422 4.78028e-06 0)
(0.00100481 5.01418e-06 0)
(0.00100543 5.2258e-06 0)
(0.00100607 5.41444e-06 0)
(0.00100673 5.57953e-06 0)
(0.00100741 5.72075e-06 0)
(0.00100811 5.83768e-06 0)
(0.00100881 5.9299e-06 0)
(0.00100953 5.99676e-06 0)
(0.00101026 6.03807e-06 0)
(0.00101098 6.05363e-06 0)
(0.00101171 6.0436e-06 0)
(0.00101244 6.00737e-06 0)
(0.00101317 5.9446e-06 0)
(0.00101389 5.85419e-06 0)
(0.00101459 5.73658e-06 0)
(0.00101528 5.59144e-06 0)
(0.00101596 5.41994e-06 0)
(0.00101663 5.22041e-06 0)
(0.00101726 4.99294e-06 0)
(0.00101787 4.73422e-06 0)
(0.00101846 4.44597e-06 0)
(0.00101902 4.12574e-06 0)
(0.00101954 3.7786e-06 0)
(0.00102003 3.40024e-06 0)
(0.00102048 2.99586e-06 0)
(0.00102089 2.55426e-06 0)
(0.00102126 2.08139e-06 0)
(0.00102157 1.56091e-06 0)
(0.00102184 1.00791e-06 0)
(0.00102206 4.03674e-07 0)
(0.00102221 -2.22137e-07 0)
(0.00102231 -8.99174e-07 0)
(0.00102235 -1.58427e-06 0)
(0.00102233 -2.33615e-06 0)
(0.00102224 -3.0954e-06 0)
(0.00102208 -3.96348e-06 0)
(0.00102185 -4.8483e-06 0)
(0.00102155 -5.9086e-06 0)
(0.00102116 -6.98677e-06 0)
(0.00102068 -8.32188e-06 0)
(0.00102008 -9.64698e-06 0)
(0.00101939 -1.13285e-05 0)
(0.00101853 -1.29276e-05 0)
(0.00101756 -1.50175e-05 0)
(0.00101636 -1.68928e-05 0)
(0.00101501 -1.94569e-05 0)
(0.001 1.43396e-07 0)
(0.00100005 4.29096e-07 0)
(0.00100014 7.12398e-07 0)
(0.00100027 9.91964e-07 0)
(0.00100045 1.26646e-06 0)
(0.00100068 1.53458e-06 0)
(0.00100094 1.79505e-06 0)
(0.00100125 2.04668e-06 0)
(0.0010016 2.28835e-06 0)
(0.00100198 2.51906e-06 0)
(0.00100241 2.73784e-06 0)
(0.00100286 2.94379e-06 0)
(0.00100335 3.13615e-06 0)
(0.00100386 3.31422e-06 0)
(0.00100441 3.47741e-06 0)
(0.00100498 3.62509e-06 0)
(0.00100557 3.75674e-06 0)
(0.00100618 3.87189e-06 0)
(0.0010068 3.97026e-06 0)
(0.00100745 4.0515e-06 0)
(0.0010081 4.11526e-06 0)
(0.00100876 4.16102e-06 0)
(0.00100943 4.18864e-06 0)
(0.0010101 4.19791e-06 0)
(0.00101077 4.18893e-06 0)
(0.00101144 4.16117e-06 0)
(0.00101211 4.11441e-06 0)
(0.00101277 4.04779e-06 0)
(0.00101341 3.96169e-06 0)
(0.00101404 3.85571e-06 0)
(0.00101466 3.73076e-06 0)
(0.00101526 3.58533e-06 0)
(0.00101584 3.41972e-06 0)
(0.00101638 3.23118e-06 0)
(0.0010169 3.0214e-06 0)
(0.00101739 2.78795e-06 0)
(0.00101785 2.53504e-06 0)
(0.00101826 2.25843e-06 0)
(0.00101864 1.96277e-06 0)
(0.00101897 1.63835e-06 0)
(0.00101925 1.29137e-06 0)
(0.00101949 9.07406e-07 0)
(0.00101966 5.00834e-07 0)
(0.00101978 5.32857e-08 0)
(0.00101984 -4.08201e-07 0)
(0.00101983 -9.13151e-07 0)
(0.00101975 -1.4228e-06 0)
(0.00101959 -1.99011e-06 0)
(0.00101936 -2.55958e-06 0)
(0.00101906 -3.22194e-06 0)
(0.00101866 -3.88944e-06 0)
(0.00101817 -4.70416e-06 0)
(0.00101757 -5.5173e-06 0)
(0.00101686 -6.5467e-06 0)
(0.00101601 -7.5425e-06 0)
(0.00101502 -8.84344e-06 0)
(0.00101385 -1.00393e-05 0)
(0.00101251 -1.16664e-05 0)
(0.00101095 -1.30598e-05 0)
(0.00100917 -1.5076e-05 0)
(0.001 8.41677e-08 0)
(0.00100004 2.5186e-07 0)
(0.00100013 4.18158e-07 0)
(0.00100026 5.82294e-07 0)
(0.00100042 7.43498e-07 0)
(0.00100064 9.01013e-07 0)
(0.00100089 1.05411e-06 0)
(0.00100118 1.20208e-06 0)
(0.0010015 1.34427e-06 0)
(0.00100186 1.48009e-06 0)
(0.00100226 1.60896e-06 0)
(0.00100269 1.73034e-06 0)
(0.00100315 1.84376e-06 0)
(0.00100364 1.9488e-06 0)
(0.00100415 2.04508e-06 0)
(0.00100468 2.13221e-06 0)
(0.00100524 2.20987e-06 0)
(0.00100582 2.27775e-06 0)
(0.00100641 2.33567e-06 0)
(0.00100702 2.38339e-06 0)
(0.00100764 2.4207e-06 0)
(0.00100826 2.44727e-06 0)
(0.00100889 2.46302e-06 0)
(0.00100953 2.46778e-06 0)
(0.00101016 2.46161e-06 0)
(0.00101079 2.44413e-06 0)
(0.00101142 2.41525e-06 0)
(0.00101204 2.3744e-06 0)
(0.00101264 2.32186e-06 0)
(0.00101323 2.25727e-06 0)
(0.00101381 2.1812e-06 0)
(0.00101437 2.09261e-06 0)
(0.0010149 1.9918e-06 0)
(0.0010154 1.87699e-06 0)
(0.00101587 1.7494e-06 0)
(0.00101631 1.60722e-06 0)
(0.00101672 1.45323e-06 0)
(0.00101709 1.2843e-06 0)
(0.00101741 1.10371e-06 0)
(0.00101768 9.04909e-07 0)
(0.00101791 6.92542e-07 0)
(0.00101809 4.56866e-07 0)
(0.0010182 2.07848e-07 0)
(0.00101825 -6.73502e-08 0)
(0.00101823 -3.50796e-07 0)
(0.00101814 -6.62978e-07 0)
(0.00101798 -9.77495e-07 0)
(0.00101773 -1.33121e-06 0)
(0.0010174 -1.68508e-06 0)
(0.00101698 -2.10104e-06 0)
(0.00101647 -2.51687e-06 0)
(0.00101584 -3.0301e-06 0)
(0.00101509 -3.53588e-06 0)
(0.00101421 -4.18521e-06 0)
(0.00101317 -4.80266e-06 0)
(0.00101197 -5.62514e-06 0)
(0.00101057 -6.36415e-06 0)
(0.00100897 -7.39752e-06 0)
(0.00100714 -8.25532e-06 0)
(0.00100506 -9.54485e-06 0)
(0.001 2.7734e-08 0)
(0.00100004 8.29867e-08 0)
(0.00100012 1.37781e-07 0)
(0.00100025 1.91867e-07 0)
(0.00100041 2.44992e-07 0)
(0.00100061 2.96909e-07 0)
(0.00100086 3.47377e-07 0)
(0.00100114 3.96168e-07 0)
(0.00100145 4.43066e-07 0)
(0.00100181 4.87868e-07 0)
(0.00100219 5.30385e-07 0)
(0.00100261 5.7044e-07 0)
(0.00100305 6.07874e-07 0)
(0.00100352 6.42541e-07 0)
(0.00100402 6.74311e-07 0)
(0.00100454 7.03055e-07 0)
(0.00100508 7.28667e-07 0)
(0.00100564 7.51044e-07 0)
(0.00100622 7.70116e-07 0)
(0.00100681 7.85789e-07 0)
(0.00100741 7.98002e-07 0)
(0.00100801 8.06659e-07 0)
(0.00100863 8.11733e-07 0)
(0.00100924 8.13144e-07 0)
(0.00100986 8.10887e-07 0)
(0.00101047 8.04836e-07 0)
(0.00101108 7.94986e-07 0)
(0.00101168 7.81167e-07 0)
(0.00101226 7.63461e-07 0)
(0.00101283 7.41693e-07 0)
(0.00101338 7.16024e-07 0)
(0.00101392 6.86093e-07 0)
(0.00101443 6.52083e-07 0)
(0.00101491 6.13425e-07 0)
(0.00101536 5.70571e-07 0)
(0.00101578 5.22806e-07 0)
(0.00101616 4.70994e-07 0)
(0.0010165 4.13938e-07 0)
(0.00101679 3.52833e-07 0)
(0.00101704 2.85498e-07 0)
(0.00101724 2.13765e-07 0)
(0.00101738 1.34349e-07 0)
(0.00101746 5.06818e-08 0)
(0.00101748 -4.18409e-08 0)
(0.00101742 -1.37413e-07 0)
(0.00101729 -2.43573e-07 0)
(0.00101708 -3.50896e-07 0)
(0.00101679 -4.72459e-07 0)
(0.00101641 -5.94134e-07 0)
(0.00101593 -7.37625e-07 0)
(0.00101535 -8.80272e-07 0)
(0.00101465 -1.0565e-06 0)
(0.00101382 -1.22856e-06 0)
(0.00101285 -1.4503e-06 0)
(0.00101171 -1.65891e-06 0)
(0.0010104 -1.93934e-06 0)
(0.00100888 -2.18824e-06 0)
(0.00100715 -2.54144e-06 -4.05827e-38)
(0.00100517 -2.83004e-06 0)
(0.00100292 -3.27288e-06 0)
(0.001 -2.77873e-08 0)
(0.00100004 -8.31557e-08 0)
(0.00100012 -1.38069e-07 0)
(0.00100025 -1.92274e-07 0)
(0.00100041 -2.45519e-07 0)
(0.00100061 -2.97559e-07 0)
(0.00100086 -3.4815e-07 0)
(0.00100114 -3.9706e-07 0)
(0.00100145 -4.44075e-07 0)
(0.00100181 -4.89e-07 0)
(0.00100219 -5.31646e-07 0)
(0.00100261 -5.71827e-07 0)
(0.00100305 -6.09384e-07 0)
(0.00100352 -6.44182e-07 0)
(0.00100402 -6.76102e-07 0)
(0.00100454 -7.05003e-07 0)
(0.00100508 -7.30759e-07 0)
(0.00100564 -7.5327e-07 0)
(0.00100622 -7.72496e-07 0)
(0.00100681 -7.88362e-07 0)
(0.00100741 -8.00778e-07 0)
(0.00100801 -8.09608e-07 0)
(0.00100863 -8.1482e-07 0)
(0.00100924 -8.16387e-07 0)
(0.00100986 -8.14364e-07 0)
(0.00101047 -8.08609e-07 0)
(0.00101108 -7.9903e-07 0)
(0.00101168 -7.85384e-07 0)
(0.00101226 -7.67788e-07 0)
(0.00101283 -7.46197e-07 0)
(0.00101338 -7.20888e-07 0)
(0.00101392 -6.91469e-07 0)
(0.00101443 -6.57946e-07 0)
(0.00101491 -6.19558e-07 0)
(0.00101536 -5.76732e-07 0)
(0.00101578 -5.28952e-07 0)
(0.00101616 -4.77406e-07 0)
(0.0010165 -4.21107e-07 0)
(0.00101679 -3.61174e-07 0)
(0.00101704 -2.95056e-07 0)
(0.00101724 -2.24111e-07 0)
(0.00101738 -1.44766e-07 0)
(0.00101746 -6.0547e-08 0)
(0.00101748 3.26335e-08 0)
(0.00101742 1.28283e-07 0)
(0.00101729 2.33202e-07 0)
(0.00101708 3.37625e-07 0)
(0.00101679 4.54778e-07 0)
(0.00101641 5.71132e-07 0)
(0.00101593 7.09255e-07 0)
(0.00101535 8.47356e-07 0)
(0.00101465 1.02056e-06 0)
(0.00101382 1.19148e-06 0)
(0.00101285 1.414e-06 0)
(0.00101171 1.625e-06 0)
(0.0010104 1.90895e-06 0)
(0.00100888 2.16195e-06 0)
(0.00100715 2.51934e-06 4.05827e-38)
(0.00100517 2.8118e-06 0)
(0.00100292 3.25793e-06 0)
(0.001 -8.42205e-08 0)
(0.00100004 -2.52027e-07 0)
(0.00100013 -4.18444e-07 0)
(0.00100026 -5.82698e-07 0)
(0.00100042 -7.44021e-07 0)
(0.00100064 -9.01658e-07 0)
(0.00100089 -1.05487e-06 0)
(0.00100118 -1.20296e-06 0)
(0.0010015 -1.34527e-06 0)
(0.00100186 -1.48121e-06 0)
(0.00100226 -1.61021e-06 0)
(0.00100269 -1.73172e-06 0)
(0.00100315 -1.84526e-06 0)
(0.00100363 -1.95043e-06 0)
(0.00100415 -2.04685e-06 0)
(0.00100468 -2.13414e-06 0)
(0.00100524 -2.21194e-06 0)
(0.00100582 -2.27995e-06 0)
(0.00100641 -2.33803e-06 0)
(0.00100702 -2.38594e-06 0)
(0.00100764 -2.42345e-06 0)
(0.00100826 -2.45019e-06 0)
(0.00100889 -2.46608e-06 0)
(0.00100953 -2.471e-06 0)
(0.00101016 -2.46505e-06 0)
(0.00101079 -2.44787e-06 0)
(0.00101142 -2.41925e-06 0)
(0.00101204 -2.37858e-06 0)
(0.00101264 -2.32615e-06 0)
(0.00101323 -2.26173e-06 0)
(0.00101381 -2.18602e-06 0)
(0.00101437 -2.09793e-06 0)
(0.0010149 -1.99761e-06 0)
(0.0010154 -1.88307e-06 0)
(0.00101587 -1.7555e-06 0)
(0.00101631 -1.61331e-06 0)
(0.00101672 -1.45957e-06 0)
(0.00101709 -1.29139e-06 0)
(0.00101741 -1.11195e-06 0)
(0.00101768 -9.14352e-07 0)
(0.00101791 -7.02773e-07 0)
(0.00101808 -4.67157e-07 0)
(0.0010182 -2.1759e-07 0)
(0.00101825 5.8311e-08 0)
(0.00101823 3.41807e-07 0)
(0.00101814 6.5276e-07 0)
(0.00101798 9.64462e-07 0)
(0.00101773 1.31389e-06 0)
(0.0010174 1.66253e-06 0)
(0.00101698 2.07317e-06 0)
(0.00101646 2.48449e-06 0)
(0.00101584 2.99471e-06 0)
(0.00101509 3.49933e-06 0)
(0.0010142 4.14939e-06 0)
(0.00101317 4.76917e-06 0)
(0.00101196 5.59509e-06 0)
(0.00101057 6.33815e-06 0)
(0.00100897 7.37564e-06 0)
(0.00100714 8.23727e-06 0)
(0.00100505 9.53006e-06 0)
(0.001 -1.43448e-07 0)
(0.00100005 -4.29261e-07 0)
(0.00100014 -7.12678e-07 0)
(0.00100027 -9.9236e-07 0)
(0.00100045 -1.26697e-06 0)
(0.00100068 -1.53521e-06 0)
(0.00100094 -1.7958e-06 0)
(0.00100125 -2.04755e-06 0)
(0.0010016 -2.28934e-06 0)
(0.00100198 -2.52016e-06 0)
(0.00100241 -2.73907e-06 0)
(0.00100286 -2.94515e-06 0)
(0.00100335 -3.13762e-06 0)
(0.00100386 -3.31582e-06 0)
(0.00100441 -3.47915e-06 0)
(0.00100498 -3.62699e-06 0)
(0.00100557 -3.75878e-06 0)
(0.00100618 -3.87405e-06 0)
(0.0010068 -3.97258e-06 0)
(0.00100745 -4.054e-06 0)
(0.0010081 -4.11796e-06 0)
(0.00100876 -4.16389e-06 0)
(0.00100943 -4.19165e-06 0)
(0.0010101 -4.20107e-06 0)
(0.00101077 -4.19231e-06 0)
(0.00101144 -4.16484e-06 0)
(0.00101211 -4.11834e-06 0)
(0.00101277 -4.05189e-06 0)
(0.00101341 -3.9659e-06 0)
(0.00101404 -3.86009e-06 0)
(0.00101466 -3.73548e-06 0)
(0.00101526 -3.59054e-06 0)
(0.00101584 -3.42541e-06 0)
(0.00101638 -3.23714e-06 0)
(0.0010169 -3.02739e-06 0)
(0.00101739 -2.79392e-06 0)
(0.00101785 -2.54126e-06 0)
(0.00101826 -2.26536e-06 0)
(0.00101863 -1.97082e-06 0)
(0.00101897 -1.64757e-06 0)
(0.00101925 -1.30136e-06 0)
(0.00101948 -9.1749e-07 0)
(0.00101966 -5.10373e-07 0)
(0.00101978 -6.21398e-08 0)
(0.00101983 3.99426e-07 0)
(0.00101982 9.03253e-07 0)
(0.00101974 1.4102e-06 0)
(0.00101959 1.97333e-06 0)
(0.00101936 2.53769e-06 0)
(0.00101905 3.19486e-06 0)
(0.00101866 3.85792e-06 0)
(0.00101816 4.66964e-06 0)
(0.00101757 5.48158e-06 0)