/*--------------------------------*- C++ -*----------------------------------*\
| =========                 |                                                 |
| \\      /  F ield         | OpenFOAM: The Open Source CFD Toolbox           |
|  \\    /   O peration     | Version:  2312                                  |
|   \\  /    A nd           | Website:  www.openfoam.com                      |
|    \\/     M anipulation  |                                                 |
\*---------------------------------------------------------------------------*/
FoamFile
{
    version     2.0;
    format      ascii;
    arch        "LSB;label=32;scalar=64";
    class       volScalarField;
    location    "28000";
    object      p;
}
// * * * * * * * * * * * * * * * * * * * * * * * * * * * * * * * * * * * * * //

dimensions      [0 2 -2 0 0 0 0];

internalField   nonuniform List<scalar> 
2715
(
5.0081e-07
4.86687e-07
4.7292e-07
4.62342e-07
4.54919e-07
4.49528e-07
4.45076e-07
4.40996e-07
4.3712e-07
4.33455e-07
4.30038e-07
4.26873e-07
4.23926e-07
4.21148e-07
4.18492e-07
4.15925e-07
4.13425e-07
4.1098e-07
4.08577e-07
4.0621e-07
4.03869e-07
4.01546e-07
3.99235e-07
3.9693e-07
3.94628e-07
3.92324e-07
3.90015e-07
3.87698e-07
3.85373e-07
3.83037e-07
3.80689e-07
3.78329e-07
3.75955e-07
3.73568e-07
3.71167e-07
3.68754e-07
3.66327e-07
3.63889e-07
3.61438e-07
3.58977e-07
3.56505e-07
3.54024e-07
3.51533e-07
3.49034e-07
3.46526e-07
3.44008e-07
3.41482e-07
3.38943e-07
3.36396e-07
3.33826e-07
3.31256e-07
3.28632e-07
3.26039e-07
3.233e-07
3.20724e-07
3.17665e-07
3.15392e-07
3.11071e-07
3.10841e-07
3.0039e-07
4.52767e-07
4.51039e-07
4.48394e-07
4.45268e-07
4.42052e-07
4.38957e-07
4.36034e-07
4.33247e-07
4.30545e-07
4.27897e-07
4.25299e-07
4.22755e-07
4.20272e-07
4.1785e-07
4.15483e-07
4.13161e-07
4.10875e-07
4.08617e-07
4.06382e-07
4.04164e-07
4.0196e-07
3.99765e-07
3.97575e-07
3.95387e-07
3.93199e-07
3.91007e-07
3.8881e-07
3.86606e-07
3.84392e-07
3.82169e-07
3.79935e-07
3.77688e-07
3.7543e-07
3.73158e-07
3.70875e-07
3.68578e-07
3.66271e-07
3.63949e-07
3.61619e-07
3.59273e-07
3.56922e-07
3.54552e-07
3.52183e-07
3.49791e-07
3.47406e-07
3.4499e-07
3.42595e-07
3.40151e-07
3.37755e-07
3.35281e-07
3.32905e-07
3.30403e-07
3.281e-07
3.25588e-07
3.23491e-07
3.21033e-07
3.1947e-07
3.17143e-07
3.16716e-07
3.14092e-07
4.44027e-07
4.43276e-07
4.41862e-07
4.3991e-07
4.37626e-07
4.35205e-07
4.32775e-07
4.30385e-07
4.28038e-07
4.25723e-07
4.23429e-07
4.21156e-07
4.1891e-07
4.16696e-07
4.14515e-07
4.12365e-07
4.10243e-07
4.08143e-07
4.06061e-07
4.03993e-07
4.01935e-07
3.99885e-07
3.97841e-07
3.958e-07
3.93759e-07
3.91717e-07
3.89671e-07
3.87621e-07
3.85565e-07
3.83501e-07
3.8143e-07
3.7935e-07
3.77261e-07
3.75162e-07
3.73054e-07
3.70935e-07
3.68808e-07
3.66668e-07
3.64522e-07
3.62362e-07
3.60198e-07
3.58018e-07
3.55838e-07
3.53638e-07
3.51443e-07
3.49224e-07
3.47018e-07
3.4478e-07
3.4257e-07
3.40315e-07
3.38112e-07
3.35846e-07
3.33671e-07
3.31401e-07
3.29287e-07
3.27026e-07
3.25021e-07
3.2277e-07
3.20912e-07
3.18578e-07
4.32292e-07
4.3186e-07
4.31073e-07
4.29982e-07
4.28658e-07
4.27169e-07
4.25575e-07
4.23913e-07
4.22205e-07
4.20463e-07
4.18691e-07
4.16896e-07
4.15085e-07
4.13262e-07
4.11434e-07
4.09602e-07
4.0777e-07
4.05936e-07
4.04101e-07
4.02264e-07
4.00424e-07
3.98582e-07
3.96736e-07
3.94886e-07
3.93031e-07
3.91171e-07
3.89306e-07
3.87433e-07
3.85555e-07
3.83669e-07
3.81776e-07
3.79875e-07
3.77967e-07
3.76052e-07
3.74129e-07
3.72198e-07
3.7026e-07
3.68314e-07
3.66362e-07
3.64402e-07
3.62435e-07
3.60459e-07
3.58478e-07
3.56485e-07
3.54488e-07
3.52475e-07
3.50458e-07
3.48421e-07
3.46379e-07
3.4431e-07
3.42236e-07
3.40126e-07
3.38013e-07
3.35855e-07
3.33698e-07
3.31482e-07
3.29276e-07
3.26992e-07
3.24731e-07
3.22386e-07
4.25593e-07
4.25379e-07
4.24948e-07
4.24302e-07
4.23458e-07
4.22444e-07
4.21294e-07
4.20036e-07
4.18697e-07
4.17293e-07
4.15836e-07
4.14336e-07
4.128e-07
4.11233e-07
4.09643e-07
4.08034e-07
4.06409e-07
4.04772e-07
4.03124e-07
4.01466e-07
3.998e-07
3.98127e-07
3.96446e-07
3.94759e-07
3.93066e-07
3.91367e-07
3.89662e-07
3.87952e-07
3.86237e-07
3.84517e-07
3.82792e-07
3.81062e-07
3.79328e-07
3.77591e-07
3.75849e-07
3.74104e-07
3.72356e-07
3.70605e-07
3.6885e-07
3.67093e-07
3.65333e-07
3.63569e-07
3.61803e-07
3.60032e-07
3.58257e-07
3.56477e-07
3.54691e-07
3.52897e-07
3.51093e-07
3.49276e-07
3.47441e-07
3.45581e-07
3.43684e-07
3.4174e-07
3.3973e-07
3.37642e-07
3.35466e-07
3.33213e-07
3.30885e-07
3.28577e-07
4.20074e-07
4.19911e-07
4.19586e-07
4.19102e-07
4.18469e-07
4.17703e-07
4.16822e-07
4.15844e-07
4.14785e-07
4.13658e-07
4.12472e-07
4.11234e-07
4.09953e-07
4.08633e-07
4.0728e-07
4.05898e-07
4.04491e-07
4.03063e-07
4.01617e-07
4.00155e-07
3.98678e-07
3.97189e-07
3.95689e-07
3.94179e-07
3.9266e-07
3.91133e-07
3.896e-07
3.8806e-07
3.86516e-07
3.84967e-07
3.83414e-07
3.81858e-07
3.803e-07
3.7874e-07
3.77179e-07
3.75618e-07
3.74056e-07
3.72494e-07
3.70933e-07
3.69372e-07
3.67811e-07
3.66252e-07
3.64691e-07
3.6313e-07
3.61565e-07
3.59997e-07
3.58421e-07
3.56837e-07
3.55239e-07
3.53627e-07
3.51994e-07
3.50346e-07
3.48671e-07
3.46977e-07
3.45238e-07
3.43457e-07
3.41599e-07
3.39685e-07
3.37711e-07
3.35805e-07
4.15728e-07
4.15609e-07
4.15372e-07
4.15016e-07
4.14545e-07
4.13968e-07
4.13292e-07
4.12527e-07
4.11685e-07
4.10774e-07
4.09801e-07
4.08775e-07
4.07699e-07
4.06581e-07
4.05424e-07
4.04233e-07
4.03011e-07
4.01763e-07
4.00492e-07
3.992e-07
3.9789e-07
3.96565e-07
3.95225e-07
3.93874e-07
3.92513e-07
3.91143e-07
3.89765e-07
3.88383e-07
3.86995e-07
3.85605e-07
3.84212e-07
3.82819e-07
3.81426e-07
3.80034e-07
3.78644e-07
3.77257e-07
3.75875e-07
3.74497e-07
3.73124e-07
3.71758e-07
3.70398e-07
3.69044e-07
3.67697e-07
3.66357e-07
3.65023e-07
3.63697e-07
3.62375e-07
3.61058e-07
3.5974e-07
3.58422e-07
3.5709e-07
3.55742e-07
3.54367e-07
3.52967e-07
3.51533e-07
3.50077e-07
3.48576e-07
3.47054e-07
3.45509e-07
3.44052e-07
4.12277e-07
4.12185e-07
4.12e-07
4.11721e-07
4.1135e-07
4.1089e-07
4.10348e-07
4.09728e-07
4.09038e-07
4.08282e-07
4.07468e-07
4.066e-07
4.05683e-07
4.04723e-07
4.03723e-07
4.02687e-07
4.0162e-07
4.00525e-07
3.99405e-07
3.98263e-07
3.97101e-07
3.95923e-07
3.94729e-07
3.93524e-07
3.92307e-07
3.91083e-07
3.89852e-07
3.88616e-07
3.87376e-07
3.86135e-07
3.84895e-07
3.83655e-07
3.82419e-07
3.81187e-07
3.79961e-07
3.78743e-07
3.77533e-07
3.76332e-07
3.75142e-07
3.73965e-07
3.72799e-07
3.71648e-07
3.7051e-07
3.69387e-07
3.68277e-07
3.67182e-07
3.661e-07
3.65032e-07
3.63975e-07
3.62933e-07
3.61901e-07
3.60878e-07
3.59853e-07
3.58826e-07
3.57786e-07
3.56743e-07
3.55685e-07
3.5464e-07
3.53614e-07
3.52709e-07
4.09514e-07
4.09438e-07
4.09287e-07
4.09059e-07
4.08754e-07
4.08375e-07
4.07926e-07
4.07409e-07
4.0683e-07
4.06192e-07
4.055e-07
4.04758e-07
4.03969e-07
4.03139e-07
4.0227e-07
4.01366e-07
4.00431e-07
3.99468e-07
3.98479e-07
3.97468e-07
3.96438e-07
3.9539e-07
3.94327e-07
3.93253e-07
3.92168e-07
3.91075e-07
3.89977e-07
3.88875e-07
3.87771e-07
3.86668e-07
3.85568e-07
3.84471e-07
3.83381e-07
3.82298e-07
3.81226e-07
3.80165e-07
3.79117e-07
3.78085e-07
3.77069e-07
3.76073e-07
3.75096e-07
3.74141e-07
3.73209e-07
3.72303e-07
3.71421e-07
3.70568e-07
3.69741e-07
3.68944e-07
3.68174e-07
3.6743e-07
3.66711e-07
3.66019e-07
3.65352e-07
3.64713e-07
3.64096e-07
3.63507e-07
3.6294e-07
3.62417e-07
3.61949e-07
3.61623e-07
4.07312e-07
4.07248e-07
4.07121e-07
4.06928e-07
4.0667e-07
4.06349e-07
4.05967e-07
4.05526e-07
4.0503e-07
4.04481e-07
4.03883e-07
4.03239e-07
4.02553e-07
4.01826e-07
4.01064e-07
4.00267e-07
3.99441e-07
3.98587e-07
3.97709e-07
3.96808e-07
3.95889e-07
3.94953e-07
3.94003e-07
3.93041e-07
3.9207e-07
3.91093e-07
3.90111e-07
3.89127e-07
3.88144e-07
3.87163e-07
3.86187e-07
3.85218e-07
3.84258e-07
3.8331e-07
3.82376e-07
3.81459e-07
3.8056e-07
3.79682e-07
3.78827e-07
3.77997e-07
3.77196e-07
3.76425e-07
3.75686e-07
3.74982e-07
3.74315e-07
3.73688e-07
3.73103e-07
3.72562e-07
3.72065e-07
3.71615e-07
3.71212e-07
3.70861e-07
3.70562e-07
3.70321e-07
3.70133e-07
3.70008e-07
3.69944e-07
3.69961e-07
3.70072e-07
3.7035e-07
4.05584e-07
4.05529e-07
4.05418e-07
4.05251e-07
4.05027e-07
4.04748e-07
4.04415e-07
4.0403e-07
4.03596e-07
4.03114e-07
4.02588e-07
4.02019e-07
4.01411e-07
4.00767e-07
4.00088e-07
3.99377e-07
3.98638e-07
3.97872e-07
3.97084e-07
3.96274e-07
3.95447e-07
3.94603e-07
3.93747e-07
3.92881e-07
3.92007e-07
3.91127e-07
3.90245e-07
3.89362e-07
3.88482e-07
3.87606e-07
3.86738e-07
3.8588e-07
3.85035e-07
3.84205e-07
3.83393e-07
3.82602e-07
3.81834e-07
3.81093e-07
3.80382e-07
3.79703e-07
3.7906e-07
3.78455e-07
3.77893e-07
3.77376e-07
3.76908e-07
3.76492e-07
3.76132e-07
3.7583e-07
3.75589e-07
3.75416e-07
3.75314e-07
3.75288e-07
3.75341e-07
3.7548e-07
3.75706e-07
3.76029e-07
3.76453e-07
3.76996e-07
3.77673e-07
3.78541e-07
4.04266e-07
4.04217e-07
4.04119e-07
4.0397e-07
4.0377e-07
4.03522e-07
4.03224e-07
4.0288e-07
4.02491e-07
4.02059e-07
4.01586e-07
4.01074e-07
4.00526e-07
3.99943e-07
3.99328e-07
3.98683e-07
3.98012e-07
3.97316e-07
3.96598e-07
3.9586e-07
3.95106e-07
3.94337e-07
3.93556e-07
3.92767e-07
3.91971e-07
3.9117e-07
3.90369e-07
3.89569e-07
3.88774e-07
3.87985e-07
3.87206e-07
3.8644e-07
3.8569e-07
3.84958e-07
3.84248e-07
3.83563e-07
3.82907e-07
3.82282e-07
3.81692e-07
3.81141e-07
3.80632e-07
3.8017e-07
3.79759e-07
3.79402e-07
3.79105e-07
3.78871e-07
3.78705e-07
3.78613e-07
3.786e-07
3.78673e-07
3.78837e-07
3.791e-07
3.79467e-07
3.79947e-07
3.80546e-07
3.81275e-07
3.82142e-07
3.83164e-07
3.8436e-07
3.8577e-07
4.03314e-07
4.03269e-07
4.03179e-07
4.03043e-07
4.0286e-07
4.02632e-07
4.0236e-07
4.02045e-07
4.01688e-07
4.01291e-07
4.00856e-07
4.00384e-07
3.99878e-07
3.9934e-07
3.98772e-07
3.98175e-07
3.97554e-07
3.96909e-07
3.96243e-07
3.95559e-07
3.94859e-07
3.94146e-07
3.93422e-07
3.92691e-07
3.91953e-07
3.91214e-07
3.90474e-07
3.89738e-07
3.89007e-07
3.88285e-07
3.87575e-07
3.8688e-07
3.86203e-07
3.85547e-07
3.84916e-07
3.84314e-07
3.83744e-07
3.83209e-07
3.82715e-07
3.82264e-07
3.81861e-07
3.81512e-07
3.8122e-07
3.8099e-07
3.80829e-07
3.80742e-07
3.80734e-07
3.80812e-07
3.80983e-07
3.81255e-07
3.81636e-07
3.82134e-07
3.82759e-07
3.83518e-07
3.84425e-07
3.85489e-07
3.86724e-07
3.88146e-07
3.89775e-07
3.91639e-07
4.02695e-07
4.02653e-07
4.02568e-07
4.0244e-07
4.02268e-07
4.02054e-07
4.01797e-07
4.015e-07
4.01164e-07
4.00789e-07
4.00378e-07
3.99933e-07
3.99455e-07
3.98946e-07
3.98408e-07
3.97843e-07
3.97254e-07
3.96643e-07
3.96011e-07
3.95363e-07
3.94699e-07
3.94023e-07
3.93337e-07
3.92644e-07
3.91947e-07
3.91248e-07
3.9055e-07
3.89856e-07
3.89169e-07
3.88492e-07
3.87829e-07
3.87182e-07
3.86555e-07
3.85951e-07
3.85375e-07
3.84829e-07
3.84318e-07
3.83846e-07
3.83417e-07
3.83035e-07
3.82706e-07
3.82435e-07
3.82226e-07
3.82086e-07
3.8202e-07
3.82034e-07
3.82135e-07
3.82333e-07
3.82634e-07
3.83046e-07
3.83581e-07
3.84245e-07
3.85052e-07
3.86011e-07
3.87136e-07
3.8844e-07
3.8994e-07
3.91649e-07
3.9359e-07
3.95781e-07
4.0239e-07
4.0235e-07
4.02267e-07
4.02143e-07
4.01977e-07
4.01769e-07
4.0152e-07
4.01232e-07
4.00905e-07
4.00541e-07
4.00142e-07
3.9971e-07
3.99245e-07
3.9875e-07
3.98228e-07
3.97679e-07
3.97106e-07
3.96511e-07
3.95897e-07
3.95266e-07
3.94621e-07
3.93963e-07
3.93296e-07
3.92623e-07
3.91945e-07
3.91267e-07
3.90589e-07
3.89917e-07
3.89252e-07
3.88598e-07
3.87958e-07
3.87336e-07
3.86734e-07
3.86157e-07
3.85608e-07
3.85091e-07
3.8461e-07
3.84169e-07
3.83774e-07
3.83428e-07
3.83136e-07
3.82905e-07
3.82738e-07
3.82643e-07
3.82626e-07
3.82692e-07
3.82851e-07
3.8311e-07
3.83478e-07
3.83964e-07
3.84577e-07
3.85328e-07
3.86229e-07
3.87292e-07
3.88532e-07
3.89961e-07
3.91598e-07
3.93458e-07
3.95563e-07
3.97926e-07
4.0239e-07
4.02349e-07
4.02267e-07
4.02143e-07
4.01976e-07
4.01768e-07
4.0152e-07
4.01231e-07
4.00905e-07
4.00541e-07
4.00142e-07
3.99709e-07
3.99245e-07
3.9875e-07
3.98227e-07
3.97678e-07
3.97105e-07
3.96511e-07
3.95897e-07
3.95266e-07
3.9462e-07
3.93963e-07
3.93296e-07
3.92622e-07
3.91945e-07
3.91266e-07
3.90589e-07
3.89917e-07
3.89252e-07
3.88598e-07
3.87958e-07
3.87335e-07
3.86734e-07
3.86156e-07
3.85607e-07
3.8509e-07
3.84609e-07
3.84169e-07
3.83773e-07
3.83427e-07
3.83136e-07
3.82904e-07
3.82737e-07
3.82642e-07
3.82625e-07
3.82691e-07
3.8285e-07
3.83109e-07
3.83477e-07
3.83962e-07
3.84576e-07
3.85327e-07
3.86228e-07
3.87291e-07
3.8853e-07
3.89959e-07
3.91597e-07
3.93456e-07
3.95561e-07
3.97924e-07
4.02694e-07
4.02652e-07
4.02567e-07
4.02439e-07
4.02267e-07
4.02053e-07
4.01796e-07
4.01499e-07
4.01163e-07
4.00788e-07
4.00377e-07
3.99932e-07
3.99454e-07
3.98944e-07
3.98407e-07
3.97842e-07
3.97253e-07
3.96641e-07
3.9601e-07
3.95362e-07
3.94698e-07
3.94022e-07
3.93336e-07
3.92643e-07
3.91946e-07
3.91246e-07
3.90548e-07
3.89855e-07
3.89168e-07
3.88491e-07
3.87827e-07
3.8718e-07
3.86553e-07
3.8595e-07
3.85373e-07
3.84827e-07
3.84316e-07
3.83844e-07
3.83414e-07
3.83033e-07
3.82704e-07
3.82432e-07
3.82224e-07
3.82083e-07
3.82017e-07
3.82031e-07
3.82132e-07
3.82329e-07
3.8263e-07
3.83043e-07
3.83577e-07
3.84241e-07
3.85048e-07
3.86007e-07
3.87132e-07
3.88436e-07
3.89935e-07
3.91644e-07
3.93585e-07
3.95776e-07
4.03312e-07
4.03267e-07
4.03177e-07
4.03041e-07
4.02859e-07
4.02631e-07
4.02359e-07
4.02043e-07
4.01686e-07
4.01289e-07
4.00854e-07
4.00382e-07
3.99876e-07
3.99338e-07
3.9877e-07
3.98174e-07
3.97552e-07
3.96907e-07
3.96241e-07
3.95557e-07
3.94857e-07
3.94144e-07
3.9342e-07
3.92688e-07
3.91951e-07
3.91211e-07
3.90472e-07
3.89735e-07
3.89004e-07
3.88282e-07
3.87572e-07
3.86877e-07
3.862e-07
3.85544e-07
3.84913e-07
3.84311e-07
3.8374e-07
3.83206e-07
3.82711e-07
3.8226e-07
3.81857e-07
3.81508e-07
3.81215e-07
3.80986e-07
3.80825e-07
3.80737e-07
3.80729e-07
3.80806e-07
3.80978e-07
3.8125e-07
3.8163e-07
3.82128e-07
3.82752e-07
3.83512e-07
3.84418e-07
3.85481e-07
3.86716e-07
3.88138e-07
3.89766e-07
3.9163e-07
4.04264e-07
4.04215e-07
4.04116e-07
4.03968e-07
4.03768e-07
4.03519e-07
4.03222e-07
4.02878e-07
4.02489e-07
4.02057e-07
4.01584e-07
4.01072e-07
4.00523e-07
3.9994e-07
3.99325e-07
3.98681e-07
3.98009e-07
3.97313e-07
3.96595e-07
3.95857e-07
3.95103e-07
3.94334e-07
3.93553e-07
3.92764e-07
3.91967e-07
3.91167e-07
3.90366e-07
3.89566e-07
3.8877e-07
3.87981e-07
3.87203e-07
3.86436e-07
3.85686e-07
3.84954e-07
3.84244e-07
3.83559e-07
3.82902e-07
3.82277e-07
3.81687e-07
3.81135e-07
3.80627e-07
3.80164e-07
3.79753e-07
3.79396e-07
3.79098e-07
3.78864e-07
3.78698e-07
3.78606e-07
3.78593e-07
3.78665e-07
3.78829e-07
3.79091e-07
3.79458e-07
3.79938e-07
3.80536e-07
3.81264e-07
3.82131e-07
3.83153e-07
3.84348e-07
3.85758e-07
4.05581e-07
4.05526e-07
4.05415e-07
4.05248e-07
4.05024e-07
4.04745e-07
4.04412e-07
4.04027e-07
4.03593e-07
4.03111e-07
4.02585e-07
4.02016e-07
4.01408e-07
4.00763e-07
4.00084e-07
3.99374e-07
3.98634e-07
3.97869e-07
3.9708e-07
3.96271e-07
3.95443e-07
3.946e-07
3.93744e-07
3.92877e-07
3.92003e-07
3.91123e-07
3.9024e-07
3.89358e-07
3.88477e-07
3.87601e-07
3.86733e-07
3.85875e-07
3.85029e-07
3.84199e-07
3.83387e-07
3.82596e-07
3.81828e-07
3.81087e-07
3.80375e-07
3.79696e-07
3.79053e-07
3.78448e-07
3.77885e-07
3.77368e-07
3.769e-07
3.76484e-07
3.76123e-07
3.75821e-07
3.7558e-07
3.75406e-07
3.75303e-07
3.75277e-07
3.7533e-07
3.75468e-07
3.75694e-07
3.76017e-07
3.7644e-07
3.76982e-07
3.77658e-07
3.78526e-07
4.07309e-07
4.07245e-07
4.07117e-07
4.06925e-07
4.06667e-07
4.06346e-07
4.05964e-07
4.05523e-07
4.05026e-07
4.04478e-07
4.0388e-07
4.03236e-07
4.02549e-07
4.01823e-07
4.0106e-07
4.00264e-07
3.99437e-07
3.98583e-07
3.97704e-07
3.96804e-07
3.95884e-07
3.94948e-07
3.93998e-07
3.93036e-07
3.92065e-07
3.91088e-07
3.90106e-07
3.89122e-07
3.88138e-07
3.87157e-07
3.86181e-07
3.85212e-07
3.84252e-07
3.83304e-07
3.8237e-07
3.81452e-07
3.80552e-07
3.79674e-07
3.78819e-07
3.77989e-07
3.77187e-07
3.76416e-07
3.75677e-07
3.74973e-07
3.74306e-07
3.73678e-07
3.73093e-07
3.72551e-07
3.72054e-07
3.71603e-07
3.712e-07
3.70848e-07
3.70549e-07
3.70307e-07
3.70119e-07
3.69993e-07
3.69928e-07
3.69944e-07
3.70054e-07
3.70332e-07
4.0951e-07
4.09434e-07
4.09283e-07
4.09055e-07
4.0875e-07
4.08371e-07
4.07922e-07
4.07405e-07
4.06826e-07
4.06188e-07
4.05496e-07
4.04754e-07
4.03965e-07
4.03135e-07
4.02266e-07
4.01362e-07
4.00427e-07
3.99463e-07
3.98474e-07
3.97463e-07
3.96433e-07
3.95385e-07
3.94322e-07
3.93247e-07
3.92162e-07
3.91069e-07
3.89971e-07
3.88869e-07
3.87765e-07
3.86662e-07
3.85561e-07
3.84464e-07
3.83373e-07
3.82291e-07
3.81218e-07
3.80157e-07
3.79109e-07
3.78076e-07
3.7706e-07
3.76063e-07
3.75086e-07
3.74131e-07
3.73199e-07
3.72292e-07
3.7141e-07
3.70556e-07
3.69729e-07
3.68931e-07
3.68161e-07
3.67417e-07
3.66696e-07
3.66004e-07
3.65337e-07
3.64697e-07
3.64079e-07
3.6349e-07
3.62922e-07
3.62398e-07
3.61929e-07
3.61602e-07
4.12273e-07
4.1218e-07
4.11995e-07
4.11716e-07
4.11345e-07
4.10886e-07
4.10343e-07
4.09723e-07
4.09033e-07
4.08278e-07
4.07463e-07
4.06595e-07
4.05678e-07
4.04718e-07
4.03718e-07
4.02682e-07
4.01615e-07
4.0052e-07
3.994e-07
3.98257e-07
3.97095e-07
3.95917e-07
3.94723e-07
3.93517e-07
3.92301e-07
3.91076e-07
3.89845e-07
3.88609e-07
3.87369e-07
3.86128e-07
3.84887e-07
3.83647e-07
3.82411e-07
3.81179e-07
3.79953e-07
3.78734e-07
3.77523e-07
3.76322e-07
3.75132e-07
3.73954e-07
3.72788e-07
3.71637e-07
3.70498e-07
3.69375e-07
3.68265e-07
3.67169e-07
3.66086e-07
3.65017e-07
3.6396e-07
3.62918e-07
3.61885e-07
3.60862e-07
3.59836e-07
3.58808e-07
3.57768e-07
3.56724e-07
3.55665e-07
3.54619e-07
3.53592e-07
3.52686e-07
4.15723e-07
4.15604e-07
4.15367e-07
4.15011e-07
4.14541e-07
4.13963e-07
4.13287e-07
4.12522e-07
4.1168e-07
4.10769e-07
4.09796e-07
4.08769e-07
4.07694e-07
4.06575e-07
4.05418e-07
4.04227e-07
4.03005e-07
4.01757e-07
4.00486e-07
3.99194e-07
3.97884e-07
3.96558e-07
3.95219e-07
3.93867e-07
3.92506e-07
3.91135e-07
3.89758e-07
3.88375e-07
3.86987e-07
3.85596e-07
3.84204e-07
3.8281e-07
3.81417e-07
3.80024e-07
3.78634e-07
3.77247e-07
3.75864e-07
3.74486e-07
3.73113e-07
3.71746e-07
3.70386e-07
3.69032e-07
3.67684e-07
3.66344e-07
3.6501e-07
3.63682e-07
3.6236e-07
3.61042e-07
3.59724e-07
3.58405e-07
3.57072e-07
3.55724e-07
3.54348e-07
3.52947e-07
3.51513e-07
3.50056e-07
3.48554e-07
3.47031e-07
3.45485e-07
3.44027e-07
4.20068e-07
4.19906e-07
4.19581e-07
4.19097e-07
4.18464e-07
4.17698e-07
4.16817e-07
4.15839e-07
4.1478e-07
4.13652e-07
4.12466e-07
4.11229e-07
4.09947e-07
4.08627e-07
4.07274e-07
4.05891e-07
4.04485e-07
4.03057e-07
4.0161e-07
4.00148e-07
3.98671e-07
3.97182e-07
3.95682e-07
3.94171e-07
3.92652e-07
3.91125e-07
3.89592e-07
3.88052e-07
3.86507e-07
3.84958e-07
3.83405e-07
3.81849e-07
3.80291e-07
3.7873e-07
3.77169e-07
3.75607e-07
3.74045e-07
3.72482e-07
3.70921e-07
3.69359e-07
3.67799e-07
3.66238e-07
3.64677e-07
3.63115e-07
3.6155e-07
3.59982e-07
3.58405e-07
3.56821e-07
3.55222e-07
3.53609e-07
3.51976e-07
3.50326e-07
3.48651e-07
3.46956e-07
3.45216e-07
3.43435e-07
3.41575e-07
3.3966e-07
3.37686e-07
3.35778e-07
4.25587e-07
4.25374e-07
4.24942e-07
4.24297e-07
4.23453e-07
4.22439e-07
4.21288e-07
4.20031e-07
4.18691e-07
4.17287e-07
4.15831e-07
4.1433e-07
4.12794e-07
4.11227e-07
4.09637e-07
4.08027e-07
4.06403e-07
4.04765e-07
4.03117e-07
4.01459e-07
3.99793e-07
3.98119e-07
3.96439e-07
3.94751e-07
3.93058e-07
3.91359e-07
3.89654e-07
3.87943e-07
3.86228e-07
3.84507e-07
3.82782e-07
3.81052e-07
3.79318e-07
3.7758e-07
3.75838e-07
3.74093e-07
3.72344e-07
3.70592e-07
3.68838e-07
3.6708e-07
3.65319e-07
3.63555e-07
3.61788e-07
3.60017e-07
3.58241e-07
3.56461e-07
3.54674e-07
3.52879e-07
3.51075e-07
3.49257e-07
3.47421e-07
3.4556e-07
3.43663e-07
3.41718e-07
3.39706e-07
3.37618e-07
3.35441e-07
3.33187e-07
3.30858e-07
3.28549e-07
4.32286e-07
4.31854e-07
4.31067e-07
4.29977e-07
4.28652e-07
4.27163e-07
4.25569e-07
4.23907e-07
4.22199e-07
4.20456e-07
4.18685e-07
4.1689e-07
4.15078e-07
4.13256e-07
4.11427e-07
4.09596e-07
4.07763e-07
4.05929e-07
4.04094e-07
4.02256e-07
4.00417e-07
3.98574e-07
3.96728e-07
3.94878e-07
3.93023e-07
3.91163e-07
3.89297e-07
3.87424e-07
3.85545e-07
3.83659e-07
3.81765e-07
3.79864e-07
3.77956e-07
3.7604e-07
3.74117e-07
3.72186e-07
3.70248e-07
3.68301e-07
3.66349e-07
3.64388e-07
3.62421e-07
3.60444e-07
3.58463e-07
3.56469e-07
3.54471e-07
3.52458e-07
3.5044e-07
3.48403e-07
3.4636e-07
3.4429e-07
3.42215e-07
3.40104e-07
3.37991e-07
3.35831e-07
3.33674e-07
3.31457e-07
3.2925e-07
3.26965e-07
3.24703e-07
3.22357e-07
4.44021e-07
4.4327e-07
4.41856e-07
4.39904e-07
4.3762e-07
4.35199e-07
4.32769e-07
4.30379e-07
4.28032e-07
4.25716e-07
4.23422e-07
4.2115e-07
4.18903e-07
4.16689e-07
4.14508e-07
4.12358e-07
4.10236e-07
4.08135e-07
4.06053e-07
4.03985e-07
4.01927e-07
3.99877e-07
3.97833e-07
3.95791e-07
3.9375e-07
3.91707e-07
3.89662e-07
3.87611e-07
3.85555e-07
3.83491e-07
3.81419e-07
3.79339e-07
3.7725e-07
3.7515e-07
3.73042e-07
3.70922e-07
3.68795e-07
3.66655e-07
3.64508e-07
3.62348e-07
3.60183e-07
3.58003e-07
3.55822e-07
3.53622e-07
3.51426e-07
3.49206e-07
3.47e-07
3.44761e-07
3.4255e-07
3.40294e-07
3.38091e-07
3.35824e-07
3.33648e-07
3.31377e-07
3.29262e-07
3.27e-07
3.24994e-07
3.22743e-07
3.20883e-07
3.18548e-07
4.52761e-07
4.51033e-07
4.48388e-07
4.45262e-07
4.42046e-07
4.38951e-07
4.36027e-07
4.3324e-07
4.30538e-07
4.27891e-07
4.25292e-07
4.22748e-07
4.20265e-07
4.17843e-07
4.15476e-07
4.13153e-07
4.10867e-07
4.0861e-07
4.06374e-07
4.04156e-07
4.01952e-07
3.99756e-07
3.97566e-07
3.95378e-07
3.9319e-07
3.90998e-07
3.88801e-07
3.86596e-07
3.84382e-07
3.82158e-07
3.79923e-07
3.77677e-07
3.75418e-07
3.73146e-07
3.70863e-07
3.68566e-07
3.66258e-07
3.63935e-07
3.61604e-07
3.59258e-07
3.56906e-07
3.54537e-07
3.52167e-07
3.49774e-07
3.47389e-07
3.44971e-07
3.42576e-07
3.40131e-07
3.37735e-07
3.3526e-07
3.32883e-07
3.3038e-07
3.28076e-07
3.25564e-07
3.23466e-07
3.21007e-07
3.19443e-07
3.17115e-07
3.16687e-07
3.14061e-07
5.00804e-07
4.86681e-07
4.72913e-07
4.62336e-07
4.54913e-07
4.49521e-07
4.4507e-07
4.4099e-07
4.37114e-07
4.33448e-07
4.30031e-07
4.26866e-07
4.23919e-07
4.21141e-07
4.18485e-07
4.15918e-07
4.13418e-07
4.10972e-07
4.08569e-07
4.06202e-07
4.0386e-07
4.01537e-07
3.99226e-07
3.96921e-07
3.94618e-07
3.92314e-07
3.90005e-07
3.87688e-07
3.85363e-07
3.83026e-07
3.80678e-07
3.78317e-07
3.75943e-07
3.73556e-07
3.71155e-07
3.68741e-07
3.66314e-07
3.63875e-07
3.61424e-07
3.58962e-07
3.5649e-07
3.54008e-07
3.51517e-07
3.49016e-07
3.46508e-07
3.43989e-07
3.41463e-07
3.38923e-07
3.36376e-07
3.33805e-07
3.31234e-07
3.28609e-07
3.26015e-07
3.23276e-07
3.20699e-07
3.17638e-07
3.15365e-07
3.11043e-07
3.10812e-07
3.0036e-07
3.06692e-07
3.05251e-07
3.00368e-07
2.94263e-07
2.88325e-07
2.83446e-07
2.80111e-07
2.78409e-07
2.78097e-07
2.78667e-07
2.79512e-07
2.80162e-07
2.8039e-07
2.80277e-07
2.80124e-07
3.15584e-07
3.11835e-07
3.05479e-07
2.99465e-07
2.95008e-07
2.92283e-07
2.91066e-07
2.90967e-07
2.91546e-07
2.92249e-07
2.92649e-07
2.92666e-07
2.92554e-07
2.9271e-07
2.93452e-07
2.94966e-07
2.9718e-07
2.99952e-07
3.0295e-07
3.05825e-07
3.08595e-07
3.11479e-07
3.1425e-07
3.16008e-07
3.15323e-07
3.10896e-07
2.98554e-07
2.6944e-07
2.35427e-07
5.6573e-08
3.16678e-07
3.13383e-07
3.09543e-07
3.06233e-07
3.03989e-07
3.02728e-07
3.02015e-07
3.01426e-07
3.00771e-07
3.0023e-07
3.00259e-07
3.01215e-07
3.03115e-07
3.05698e-07
3.08664e-07
3.11862e-07
3.15243e-07
3.18737e-07
3.22392e-07
3.26387e-07
3.3109e-07
3.36409e-07
3.41668e-07
3.46084e-07
3.48892e-07
3.48855e-07
3.41923e-07
3.23998e-07
2.90727e-07
1.49156e-07
3.20146e-07
3.17999e-07
3.16148e-07
3.14693e-07
3.13686e-07
3.1307e-07
3.12714e-07
3.12555e-07
3.12691e-07
3.13386e-07
3.14837e-07
3.17071e-07
3.19952e-07
3.232e-07
3.2655e-07
3.29918e-07
3.33486e-07
3.37602e-07
3.42624e-07
3.48761e-07
3.55859e-07
3.63391e-07
3.70793e-07
3.77925e-07
3.84394e-07
3.88853e-07
3.87994e-07
3.78537e-07
3.49908e-07
2.41598e-07
3.26412e-07
3.24929e-07
3.24091e-07
3.23665e-07
3.235e-07
3.23564e-07
3.239e-07
3.24591e-07
3.25729e-07
3.27361e-07
3.29451e-07
3.31883e-07
3.34557e-07
3.37515e-07
3.40996e-07
3.45364e-07
3.50863e-07
3.57481e-07
3.65052e-07
3.7339e-07
3.82183e-07
3.91286e-07
4.00912e-07
4.11195e-07
4.21534e-07
4.30488e-07
4.3558e-07
4.33516e-07
4.12663e-07
3.33375e-07
3.34097e-07
3.33197e-07
3.3305e-07
3.33384e-07
3.33992e-07
3.34815e-07
3.35899e-07
3.37325e-07
3.39151e-07
3.41393e-07
3.44047e-07
3.47126e-07
3.50714e-07
3.54995e-07
3.60157e-07
3.66284e-07
3.73363e-07
3.81244e-07
3.89734e-07
3.98793e-07
4.08657e-07
4.1977e-07
4.32393e-07
4.46171e-07
4.60195e-07
4.73419e-07
4.84106e-07
4.88999e-07
4.77158e-07
4.22e-07
3.42831e-07
3.4248e-07
3.42926e-07
3.43895e-07
3.45166e-07
3.46661e-07
3.48406e-07
3.50479e-07
3.52955e-07
3.5589e-07
3.59338e-07
3.63359e-07
3.68028e-07
3.73413e-07
3.79558e-07
3.86455e-07
3.94072e-07
4.02473e-07
4.11899e-07
4.22731e-07
4.35279e-07
4.49559e-07
4.65293e-07
4.8196e-07
4.99165e-07
5.16535e-07
5.32654e-07
5.4422e-07
5.41803e-07
5.06729e-07
3.5207e-07
3.52283e-07
3.53275e-07
3.548e-07
3.56653e-07
3.58754e-07
3.61128e-07
3.6385e-07
3.67008e-07
3.70676e-07
3.74915e-07
3.79779e-07
3.85319e-07
3.91583e-07
3.98627e-07
4.06536e-07
4.15442e-07
4.25563e-07
4.37119e-07
4.50218e-07
4.64868e-07
4.80939e-07
4.98323e-07
5.17158e-07
5.37648e-07
5.5935e-07
5.80625e-07
5.98355e-07
6.04706e-07
5.85715e-07
3.61576e-07
3.62341e-07
3.63848e-07
3.65882e-07
3.68265e-07
3.70933e-07
3.73909e-07
3.77271e-07
3.81104e-07
3.85486e-07
3.90481e-07
3.96146e-07
4.02544e-07
4.09745e-07
4.17844e-07
4.26952e-07
4.37199e-07
4.48716e-07
4.61621e-07
4.75996e-07
4.91896e-07
5.09479e-07
5.29095e-07
5.51056e-07
5.75274e-07
6.00986e-07
6.26691e-07
6.4986e-07
6.64167e-07
6.58052e-07
3.70916e-07
3.72213e-07
3.74191e-07
3.7668e-07
3.79539e-07
3.82722e-07
3.86258e-07
3.90218e-07
3.94686e-07
3.99738e-07
4.05442e-07
4.11862e-07
4.19071e-07
4.27152e-07
4.36203e-07
4.46336e-07
4.57675e-07
4.70351e-07
4.84514e-07
5.00345e-07
5.18079e-07
5.37981e-07
5.60244e-07
5.84858e-07
6.11623e-07
6.40082e-07
6.69427e-07
6.97482e-07
7.18639e-07
7.22295e-07
3.79698e-07
3.81493e-07
3.83894e-07
3.86785e-07
3.90068e-07
3.93715e-07
3.97759e-07
4.02268e-07
4.07318e-07
4.12984e-07
4.19339e-07
4.26452e-07
4.34404e-07
4.43286e-07
4.53203e-07
4.64276e-07
4.76643e-07
4.90462e-07
5.05912e-07
5.23188e-07
5.42502e-07
5.64047e-07
5.87985e-07
6.14396e-07
6.43299e-07
6.74546e-07
7.07501e-07
7.39894e-07
7.66705e-07
7.77509e-07
3.87468e-07
3.89701e-07
3.92465e-07
3.95693e-07
3.99332e-07
4.03373e-07
4.07852e-07
4.1283e-07
4.1838e-07
4.24574e-07
4.31486e-07
4.39193e-07
4.47779e-07
4.57343e-07
4.67997e-07
4.79869e-07
4.93107e-07
5.07874e-07
5.24355e-07
5.42751e-07
5.63278e-07
5.86158e-07
6.11627e-07
6.39877e-07
6.71024e-07
7.04836e-07
7.40569e-07
7.76031e-07
8.0702e-07
8.22654e-07
3.93786e-07
3.96377e-07
3.99428e-07
4.0292e-07
4.06837e-07
4.1119e-07
4.16015e-07
4.21369e-07
4.27319e-07
4.33934e-07
4.41292e-07
4.49472e-07
4.58566e-07
4.68675e-07
4.79917e-07
4.92427e-07
5.06355e-07
5.21874e-07
5.39177e-07
5.58477e-07
5.80008e-07
6.04016e-07
6.30749e-07
6.60395e-07
6.93056e-07
7.28513e-07
7.66141e-07
8.03908e-07
8.38127e-07
8.57194e-07
3.98253e-07
4.01097e-07
4.04348e-07
4.08022e-07
4.12131e-07
4.16699e-07
4.21765e-07
4.2738e-07
4.33608e-07
4.40518e-07
4.48185e-07
4.56694e-07
4.66139e-07
4.76626e-07
4.88275e-07
5.01224e-07
5.15629e-07
5.31665e-07
5.49532e-07
5.69449e-07
5.91659e-07
6.16411e-07
6.43961e-07
6.74509e-07
7.08181e-07
7.44804e-07
7.83808e-07
8.23188e-07
8.59498e-07
8.80702e-07
4.00568e-07
4.03543e-07
4.06896e-07
4.10662e-07
4.14869e-07
4.19548e-07
4.24737e-07
4.30488e-07
4.36859e-07
4.43919e-07
4.51745e-07
4.60423e-07
4.70049e-07
4.80729e-07
4.92588e-07
5.05762e-07
5.2041e-07
5.36712e-07
5.54868e-07
5.75101e-07
5.97657e-07
6.2279e-07
6.50762e-07
6.81779e-07
7.1598e-07
7.53191e-07
7.92857e-07
8.32998e-07
8.70305e-07
8.92547e-07
4.00566e-07
4.03541e-07
4.06894e-07
4.1066e-07
4.14867e-07
4.19546e-07
4.24735e-07
4.30485e-07
4.36856e-07
4.43917e-07
4.51743e-07
4.60421e-07
4.70047e-07
4.80727e-07
4.92585e-07
5.05759e-07
5.20408e-07
5.36709e-07
5.54865e-07
5.75098e-07
5.97654e-07
6.22787e-07
6.50758e-07
6.81776e-07
7.15977e-07
7.53187e-07
7.92853e-07
8.32993e-07
8.703e-07
8.92542e-07
3.98248e-07
4.01091e-07
4.04342e-07
4.08016e-07
4.12125e-07
4.16693e-07
4.21758e-07
4.27374e-07
4.33602e-07
4.40511e-07
4.48178e-07
4.56687e-07
4.66132e-07
4.76619e-07
4.88268e-07
5.01216e-07
5.1562e-07
5.31656e-07
5.49523e-07
5.6944e-07
5.91649e-07
6.16401e-07
6.43951e-07
6.74498e-07
7.0817e-07
7.44792e-07
7.83795e-07
8.23175e-07
8.59483e-07
8.80685e-07
3.93777e-07
3.96368e-07
3.99418e-07
4.0291e-07
4.06827e-07
4.1118e-07
4.16005e-07
4.21358e-07
4.27307e-07
4.33923e-07
4.4128e-07
4.4946e-07
4.58554e-07
4.68662e-07
4.79904e-07
4.92413e-07
5.06341e-07
5.2186e-07
5.39163e-07
5.58461e-07
5.79993e-07
6.04e-07
6.30732e-07
6.60378e-07
6.93037e-07
7.28493e-07
7.6612e-07
8.03885e-07
8.38101e-07
8.57166e-07
3.87455e-07
3.89688e-07
3.92452e-07
3.95679e-07
3.99318e-07
4.03359e-07
4.07837e-07
4.12816e-07
4.18365e-07
4.24559e-07
4.3147e-07
4.39176e-07
4.47763e-07
4.57326e-07
4.6798e-07
4.79851e-07
4.93088e-07
5.07854e-07
5.24335e-07
5.4273e-07
5.63256e-07
5.86136e-07
6.11603e-07
6.39853e-07
6.70998e-07
7.04809e-07
7.4054e-07
7.75999e-07
8.06984e-07
8.22615e-07
3.79682e-07
3.81476e-07
3.83877e-07
3.86768e-07
3.9005e-07
3.93697e-07
3.97741e-07
4.02249e-07
4.07298e-07
4.12965e-07
4.19318e-07
4.26431e-07
4.34383e-07
4.43264e-07
4.5318e-07
4.64252e-07
4.76619e-07
4.90438e-07
5.05886e-07
5.23162e-07
5.42475e-07
5.64018e-07
5.87956e-07
6.14365e-07
6.43266e-07
6.74511e-07
7.07463e-07
7.39854e-07
7.6666e-07
7.77458e-07
3.70897e-07
3.72194e-07
3.74171e-07
3.76659e-07
3.79519e-07
3.82701e-07
3.86236e-07
3.90196e-07
3.94663e-07
3.99715e-07
4.05418e-07
4.11838e-07
4.19046e-07
4.27126e-07
4.36176e-07
4.46309e-07
4.57647e-07
4.70321e-07
4.84483e-07
5.00313e-07
5.18046e-07
5.37947e-07
5.60208e-07
5.84821e-07
6.11584e-07
6.4004e-07
6.69382e-07
6.97433e-07
7.18584e-07
7.22233e-07
3.61555e-07
3.62318e-07
3.63825e-07
3.65858e-07
3.68242e-07
3.70908e-07
3.73884e-07
3.77245e-07
3.81078e-07
3.85459e-07
3.90453e-07
3.96118e-07
4.02514e-07
4.09715e-07
4.17813e-07
4.26921e-07
4.37166e-07
4.48682e-07
4.61586e-07
4.75959e-07
4.91858e-07
5.0944e-07
5.29054e-07
5.51012e-07
5.75229e-07
6.00938e-07
6.26639e-07
6.49803e-07
6.64103e-07
6.57979e-07
3.52047e-07
3.52258e-07