/*--------------------------------*- C++ -*----------------------------------*\
| =========                 |                                                 |
| \\      /  F ield         | OpenFOAM: The Open Source CFD Toolbox           |
|  \\    /   O peration     | Version:  2312                                  |
|   \\  /    A nd           | Website:  www.openfoam.com                      |
|    \\/     M anipulation  |                                                 |
\*---------------------------------------------------------------------------*/
FoamFile
{
    version     2.0;
    format      ascii;
    arch        "LSB;label=32;scalar=64";
    class       surfaceScalarField;
    location    "78000";
    object      phi;
}
// * * * * * * * * * * * * * * * * * * * * * * * * * * * * * * * * * * * * * //

dimensions      [0 3 -1 0 0 0 0];

oriented        oriented;

internalField   nonuniform List<scalar> 
21240
(
0.000664974
1.6923e-06
0.000661072
3.90254e-06
0.000655751
5.32107e-06
0.000649514
6.23667e-06
0.000642639
6.87543e-06
0.000635267
7.37205e-06
0.00062749
7.77699e-06
0.000619386
8.10332e-06
0.000611029
8.35704e-06
0.000602482
8.54712e-06
0.000593796
8.68588e-06
0.000585011
8.78561e-06
0.000576155
8.85595e-06
0.000567252
8.9032e-06
0.00055832
8.93119e-06
0.000549378
8.94237e-06
0.000540439
8.93857e-06
0.000531518
8.92137e-06
0.000522626
8.89207e-06
0.000513774
8.85177e-06
0.000504973
8.80127e-06
0.000496232
8.74117e-06
0.00048756
8.67188e-06
0.000478966
8.59371e-06
0.000470459
8.50686e-06
0.000462048
8.41147e-06
0.00045374
8.30767e-06
0.000445545
8.19547e-06
0.00043747
8.07498e-06
0.000429524
7.94607e-06
0.000421715
7.80897e-06
0.000414051
7.6633e-06
0.000406542
7.50959e-06
0.000399195
7.34706e-06
0.000392018
7.17681e-06
0.000385021
6.99731e-06
0.00037821
6.81075e-06
0.000371596
6.61417e-06
0.000365184
6.41178e-06
0.000358986
6.19794e-06
0.000353005
5.98064e-06
0.000347256
5.74913e-06
0.000341738
5.51836e-06
0.00033647
5.2682e-06
0.000331443
5.02625e-06
0.000326688
4.75513e-06
0.000322183
4.50557e-06
0.000317974
4.20834e-06
0.000314017
3.95694e-06
0.000310395
3.62219e-06
0.000307016
3.37927e-06
0.000304035
2.98065e-06
0.000301266
2.76913e-06
0.000299027
2.23888e-06
0.000296908
2.11902e-06
0.000295664
1.24408e-06
0.000294187
1.47679e-06
0.000294399
-2.1207e-07
0.00029324
1.15927e-06
-3.20323e-06
0.000296443
0.000667556
8.03049e-07
0.00066912
2.33814e-06
0.000670854
3.58786e-06
0.000672524
4.566e-06
0.000674053
5.34696e-06
0.000675425
5.99953e-06
0.000676637
6.56534e-06
0.000677677
7.06279e-06
0.000678535
7.49895e-06
0.000679204
7.87824e-06
0.000679684
8.20628e-06
0.00067998
8.49e-06
0.000680099
8.73643e-06
0.000680051
8.9514e-06
0.000679843
9.13924e-06
0.000679482
9.30289e-06
0.000678976
9.44448e-06
0.000678332
9.56558e-06
0.000677557
9.66766e-06
0.000676657
9.75176e-06
0.000675639
9.81901e-06
0.00067451
9.86995e-06
0.000673277
9.90542e-06
0.000671945
9.92547e-06
0.000670521
9.93085e-06
0.000669011
9.92114e-06
0.000667422
9.89724e-06
0.000665759
9.8582e-06
0.000664029
9.80531e-06
0.000662238
9.73689e-06
0.000660392
9.65501e-06
0.000658498
9.55681e-06
0.000656562
9.44578e-06
0.000654592
9.31718e-06
0.000652592
9.17688e-06
0.000650572
9.01705e-06
0.000648535
8.84754e-06
0.000646494
8.65545e-06
0.000644449
8.45721e-06
0.000642415
8.23149e-06
0.00064039
8.00561e-06
0.000638395
7.74431e-06
0.00063642
7.4929e-06
0.000634495
7.19304e-06
0.000632602
6.91977e-06
0.000630781
6.57652e-06
0.000628999
6.28746e-06
0.000627314
5.89291e-06
0.000625673
5.59809e-06
0.000624156
5.13933e-06
0.00062268
4.85511e-06
0.000621349
4.31162e-06
0.000620054
4.06449e-06
0.000618887
3.40545e-06
0.00061777
3.23641e-06
0.000616592
2.42217e-06
0.000615682
2.38644e-06
0.000614071
1.39865e-06
0.000613684
1.54603e-06
4.52878e-07
0.000610028
0.000666951
5.18809e-07
0.000667818
1.47062e-06
0.000669058
2.34807e-06
0.000670483
3.14124e-06
0.000671984
3.84599e-06
0.000673514
4.46996e-06
0.000675053
5.02537e-06
0.000676593
5.52332e-06
0.00067812
5.97165e-06
0.000679623
6.37523e-06
0.000681092
6.73762e-06
0.00068252
7.06209e-06
0.000683904
7.35215e-06
0.000685244
7.61127e-06
0.000686541
7.84274e-06
0.000687794
8.04918e-06
0.000689006
8.23281e-06
0.000690177
8.39519e-06
0.000691306
8.5378e-06
0.000692397
8.66154e-06
0.000693448
8.76758e-06
0.000694462
8.85633e-06
0.000695438
8.9288e-06
0.000696379
8.9849e-06
0.000697284
9.0256e-06
0.000698155
9.0503e-06
0.000698992
9.06012e-06
0.000699796
9.05383e-06
0.000700569
9.03299e-06
0.00070131
8.99556e-06
0.000702021
8.94386e-06
0.000702703
8.87471e-06
0.000703357
8.79165e-06
0.000703985
8.68988e-06
0.000704587
8.57486e-06
0.000705164
8.43936e-06
0.00070572
8.29173e-06
0.000706254
8.12123e-06
0.000706771
7.94046e-06
0.000707269
7.73357e-06
0.000707755
7.51936e-06
0.000708225
7.2746e-06
0.000708691
7.02696e-06
0.000709141
6.74286e-06
0.000709599
6.46227e-06
0.000710038
6.13749e-06
0.0007105
5.82499e-06
0.000710935
5.45858e-06
0.000711417
5.11582e-06
0.000711848
4.70776e-06
0.000712367
4.33666e-06
0.000712789
3.88904e-06
0.000713362
3.49142e-06
0.000713756
3.01158e-06
0.000714404
2.58872e-06
0.000714729
2.09707e-06
0.000715467
1.64892e-06
0.00071567
1.19559e-06
0.000716505
7.10647e-07
3.97331e-07
0.000716561
0.000666854
3.31692e-07
0.000667308
1.01595e-06
0.000667972
1.6849e-06
0.000668795
2.31784e-06
0.000669735
2.90556e-06
0.00067076
3.44516e-06
0.000671847
3.93819e-06
0.000672982
4.38831e-06
0.000674155
4.79944e-06
0.000675355
5.17479e-06
0.000676576
5.51689e-06
0.00067781
5.82777e-06
0.000679053
6.10943e-06
0.0006803
6.36384e-06
0.00068155
6.59302e-06
0.0006828
6.79879e-06
0.00068405
6.98284e-06
0.000685299
7.14648e-06
0.000686546
7.29093e-06
0.00068779
7.41704e-06
0.000689032
7.52568e-06
0.000690271
7.61737e-06
0.000691507
7.6928e-06
0.00069274
7.7522e-06
0.00069397
7.79608e-06
0.000695195
7.82443e-06
0.000696418
7.83764e-06
0.000697636
7.83548e-06
0.000698851
7.81827e-06
0.000700061
7.78558e-06
0.000701267
7.7377e-06
0.000702468
7.67407e-06
0.000703664
7.5949e-06
0.000704855
7.49962e-06
0.000706041
7.38823e-06
0.00070722
7.26039e-06
0.000708396
7.11563e-06
0.000709563
6.95427e-06
0.000710729
6.77477e-06
0.000711884
6.57896e-06
0.00071304
6.36314e-06
0.000714182
6.13214e-06
0.000715331
5.87815e-06
0.000716462
5.61168e-06
0.000717607
5.31722e-06
0.000718729
5.01576e-06
0.000719876
4.67792e-06
0.000720991
4.34336e-06
0.000722149
3.95846e-06
0.000723261
3.59547e-06
0.000724439
3.15899e-06
0.000725551
2.77705e-06
0.000726759
2.28314e-06
0.000727871
1.89914e-06
0.000729121
1.33909e-06
0.000730237
9.81027e-07
0.000731543
3.43294e-07
0.000732679
5.96767e-08
0.00073412
-7.31153e-07
-8.9832e-07
0.000735416
0.000666738
2.59976e-07
0.00066697
7.84766e-07
0.000667356
1.29872e-06
0.000667879
1.79484e-06
0.000668517
2.26721e-06
0.00066925
2.71225e-06
0.00067006
3.1285e-06
0.000670932
3.51605e-06
0.000671856
3.87577e-06
0.000672822
4.20879e-06
0.000673822
4.5162e-06
0.000674851
4.79896e-06
0.000675903
5.05803e-06
0.000676972
5.29438e-06
0.000678056
5.50903e-06
0.000679152
5.70302e-06
0.000680257
5.87734e-06
0.000681371
6.03289e-06
0.000682491
6.17045e-06
0.000683618
6.29073e-06
0.000684749
6.39426e-06
0.000685885
6.48158e-06
0.000687025
6.55302e-06
0.000688168
6.60901e-06
0.000689314
6.64966e-06
0.000690463
6.67534e-06
0.000691615
6.6859e-06
0.000692769
6.68176e-06
0.000693925
6.66242e-06
0.000695082
6.62849e-06
0.00069624
6.57898e-06
0.0006974
6.51491e-06
0.00069856
6.43458e-06
0.00069972
6.33977e-06
0.00070088
6.22762e-06
0.00070204
6.10123e-06
0.000703199
5.95594e-06
0.000704356
5.79706e-06
0.000705514
5.61698e-06
0.000706668
5.42468e-06
0.000707824
5.2078e-06
0.000708975
4.98136e-06
0.000710127
4.72528e-06
0.000711275
4.46439e-06
0.000712426
4.16622e-06
0.00071357
3.87138e-06
0.000714721
3.52742e-06
0.000715864
3.20016e-06
0.000717017
2.80503e-06
0.000718165
2.44798e-06
0.000719331
1.99321e-06
0.000720497
1.61083e-06
0.000721696
1.08362e-06
0.000722912
6.83865e-07
0.000724191
5.92288e-08
0.000725494
-3.21126e-07
0.000726862
-1.02491e-06
0.000728307
-1.38597e-06
0.000729824
-2.24807e-06
-2.56037e-06
0.000731486
0.000666724
2.02689e-07
0.000666899
6.09825e-07
0.000667183
1.01421e-06
0.000667569
1.40932e-06
0.000668045
1.79145e-06
0.000668599
2.15765e-06
0.000669222
2.50588e-06
0.000669903
2.83491e-06
0.000670635
3.14418e-06
0.00067141
3.43354e-06
0.000672223
3.7031e-06
0.000673069
3.9531e-06
0.000673943
4.18391e-06
0.000674841
4.39597e-06
0.000675761
4.58973e-06
0.000676698
4.76575e-06
0.000677651
4.9245e-06
0.000678617
5.06655e-06
0.000679595
5.19233e-06
0.000680584
5.30232e-06
0.000681581
5.39682e-06
0.000682586
5.47626e-06
0.000683599
5.54076e-06
0.000684617
5.59073e-06
0.000685641
5.62609e-06
0.000686669
5.64725e-06
0.000687701
5.65389e-06
0.000688736
5.64652e-06
0.000689774
5.62446e-06
0.000690814
5.58846e-06
0.000691855
5.53735e-06
0.000692898
5.47229e-06
0.000693941
5.39141e-06
0.000694984
5.29658e-06
0.000696027
5.18486e-06
0.000697069
5.05932e-06
0.00069811
4.91534e-06
0.000699149
4.75796e-06
0.000700186
4.57996e-06
0.000701221
4.38949e-06
0.000702254
4.17526e-06
0.000703285
3.95038e-06
0.000704313
3.69716e-06
0.000705341
3.43654e-06
0.000706366
3.1408e-06
0.000707394
2.84322e-06
0.000708421
2.50054e-06
0.000709456
2.1656e-06
0.000710489
1.77115e-06
0.000711537
1.40062e-06
0.000712581
9.49337e-07
0.000713643
5.4815e-07
0.000714688
3.88872e-08
0.00071578
-4.07846e-07
0.000716861
-1.02242e-06
0.000718022
-1.48207e-06
0.000719196
-2.19842e-06
0.000720477
-2.66663e-06
0.000721752
-3.52327e-06
-3.9792e-06
0.000723171
0.000666708
1.60992e-07
0.000666833
4.84695e-07
0.00066704
8.07499e-07
0.000667325
1.12484e-06
0.000667682
1.43418e-06
0.000668106
1.73338e-06
0.000668591
2.02072e-06
0.000669131
2.29497e-06
0.00066972
2.55536e-06
0.000670352
2.80156e-06
0.000671023
3.03218e-06
0.000671729
3.24734e-06
0.000672466
3.44719e-06
0.00067323
3.63181e-06
0.000674018
3.80133e-06
0.000674828
3.95595e-06
0.000675657
4.09585e-06
0.000676502
4.22132e-06
0.000677362
4.33253e-06
0.000678234
4.42976e-06
0.000679118
4.51314e-06
0.000680011
4.58292e-06
0.000680913
4.63913e-06
0.000681822
4.68201e-06
0.000682736
4.71144e-06
0.000683656
4.72769e-06
0.000684579
4.73047e-06
0.000685506
4.72009e-06
0.000686434
4.69601e-06
0.000687364
4.6587e-06
0.000688294
4.60726e-06
0.000689224
4.54245e-06
0.000690152
4.46283e-06
0.000691079
4.36964e-06
0.000692003
4.26068e-06
0.000692925
4.13798e-06
0.000693842
3.99819e-06
0.000694755
3.8446e-06
0.000695663
3.67209e-06
0.000696567
3.48598e-06
0.000697463
3.27842e-06
0.000698356
3.05798e-06
0.00069924
2.81259e-06
0.000700121
2.55598e-06
0.000700992
2.26951e-06
0.000701861
1.97491e-06
0.000702718
1.643e-06
0.000703576
1.30767e-06
0.000704424
9.2312e-07
0.000705282
5.42541e-07
0.000706138
9.33271e-08
0.000707014
-3.27475e-07
0.000707891
-8.38143e-07
0.000708791
-1.30834e-06
0.000709676
-1.90664e-06
0.000710618
-2.42427e-06
0.000711546
-3.12692e-06
0.000712568
-3.68803e-06
0.000713567
-4.52221e-06
-5.11644e-06
0.000714704
0.000666699
1.28986e-07
0.000666795
3.87954e-07
0.000666956
6.4657e-07
0.00066718
9.01636e-07
0.000667462
1.15141e-06
0.000667801
1.39436e-06
0.000668193
1.62916e-06
0.000668633
1.85472e-06
0.000669118
2.07015e-06
0.000669645
2.27474e-06
0.000670209
2.46787e-06
0.000670808
2.64912e-06
0.000671437
2.81829e-06
0.000672093
2.97525e-06
0.000672775
3.11995e-06
0.000673478
3.25237e-06
0.000674201
3.37249e-06
0.000674942
3.48039e-06
0.000675699
3.57608e-06
0.000676469
3.65966e-06
0.000677251
3.73114e-06
0.000678043
3.79063e-06
0.000678844
3.83809e-06
0.000679653
3.8736e-06
0.000680467
3.89707e-06
0.000681286
3.90857e-06
0.000682109
3.90789e-06
0.000682934
3.89513e-06
0.00068376
3.86991e-06
0.000684586
3.83241e-06
0.000685411
3.78202e-06
0.000686235
3.71904e-06
0.000687055
3.64256e-06
0.000687872
3.55309e-06
0.000688683
3.4493e-06
0.000689489
3.33203e-06
0.000690288
3.19935e-06
0.00069108
3.05269e-06
0.000691863
2.88918e-06
0.000692637
2.71119e-06
0.000693401
2.51443e-06
0.000694157
2.3028e-06
0.000694899
2.06983e-06
0.000695633
1.8218e-06
0.000696354
1.54897e-06
0.000697067
1.26145e-06
0.000697766
9.44625e-07
0.000698459
6.14867e-07
0.000699131
2.50602e-07
0.000699799
-1.25551e-07
0.000700447
-5.54689e-07
0.000701107
-9.87175e-07
0.000701748
-1.47926e-06
0.000702408
-1.96856e-06
0.000703042
-2.5399e-06
0.000703711
-3.0937e-06
0.000704345
-3.76058e-06
0.00070504
-4.38299e-06
0.000705682
-5.16462e-06
-5.85589e-06
0.000706422
0.000666693
1.02838e-07
0.000666772
3.09164e-07
0.000666903
5.15358e-07
0.000667085
7.19087e-07
0.000667318
9.19118e-07
0.000667598
1.11434e-06
0.000667923
1.30373e-06
0.000668291
1.48641e-06
0.0006687
1.66161e-06
0.000669146
1.8287e-06
0.000669627
1.98714e-06
0.000670139
2.13652e-06
0.000670681
2.27649e-06
0.00067125
2.40681e-06
0.000671842
2.5273e-06
0.000672457
2.63781e-06
0.000673091
2.73823e-06
0.000673743
2.8285e-06
0.00067441
2.90854e-06
0.000675092
2.97834e-06
0.000675785
3.03782e-06
0.000676489
3.08699e-06
0.000677201
3.12576e-06
0.000677921
3.15413e-06
0.000678646
3.17197e-06
0.000679375
3.17925e-06
0.000680107
3.17581e-06
0.000680841
3.16159e-06
0.000681574
3.13635e-06
0.000682307
3.10002e-06
0.000683036
3.05225e-06
0.000683762
2.99296e-06
0.000684483
2.92169e-06
0.000685198
2.83834e-06
0.000685905
2.7423e-06
0.000686604
2.63351e-06
0.000687292
2.51112e-06
0.000687969
2.37515e-06
0.000688634
2.22446e-06
0.000689286
2.0592e-06
0.000689923
1.87782e-06
0.000690545
1.68073e-06
0.000691149
1.46579e-06
0.000691737
1.23384e-06
0.000692304
9.81915e-07
0.000692854
7.11452e-07
0.00069338
4.18321e-07
0.000693889
1.05399e-07
0.000694377
-2.36608e-07
0.000694853
-6.0197e-07
0.000695297
-9.98573e-07
0.00069573
-1.42021e-06
0.00069613
-1.87901e-06
0.000696526
-2.36499e-06
0.000696883
-2.89627e-06
0.000697246
-3.45709e-06
0.000697559
-4.07405e-06
0.000697898
-4.72163e-06
0.000698173
-5.43934e-06
-6.18487e-06
0.000698502
0.000666689
8.07915e-08
0.000666755
2.42815e-07
0.000666866
4.04802e-07
0.00066702
5.65021e-07
0.000667216
7.22582e-07
0.000667454
8.76668e-07
0.000667731
1.02652e-06
0.000668046
1.17146e-06
0.000668397
1.31088e-06
0.000668781
1.44425e-06
0.000669197
1.5711e-06
0.000669643
1.69105e-06
0.000670115
1.80376e-06
0.000670613
1.90895e-06
0.000671134
2.00639e-06
0.000671676
2.0959e-06
0.000672237
2.17731e-06
0.000672815
2.2505e-06
0.000673408
2.31534e-06
0.000674015
2.37175e-06
0.000674633
2.41964e-06
0.000675261
2.45892e-06
0.000675897
2.4895e-06
0.00067654
2.51128e-06
0.000677188
2.52418e-06
0.000677839
2.52807e-06
0.000678492
2.52284e-06
0.000679145
2.50831e-06
0.000679797
2.48436e-06
0.000680447
2.45075e-06
0.000681092
2.40732e-06
0.000681731
2.35374e-06
0.000682363
2.28985e-06
0.000682986
2.2152e-06
0.000683598
2.12964e-06
0.000684199
2.03252e-06
0.000684787
1.92377e-06
0.00068536
1.80245e-06
0.000685915
1.66863e-06
0.000686454
1.52097e-06
0.000686972
1.35984e-06
0.000687469
1.18323e-06
0.000687943
9.92062e-07
0.000688393
7.8337e-07
0.000688816
5.59075e-07
0.000689213
3.14843e-07
0.000689576
5.51932e-08
0.000689915
-2.3364e-07
0.000690219
-5.40522e-07
0.000690493
-8.76573e-07
0.000690726
-1.2315e-06
0.00069093
-1.62353e-06
0.000691085
-2.03445e-06
0.000691213
-2.49289e-06
0.000691285
-2.9682e-06
0.000691334
-3.50603e-06
0.000691315
-4.05539e-06
0.000691282
-4.6889e-06
0.000691165
-5.322e-06
-6.0694e-06
0.00069105
0.000666686
6.16813e-08
0.000666743
1.85343e-07
0.000666839
3.09008e-07
0.000666973
4.31403e-07
0.000667143
5.51889e-07
0.00066735
6.69871e-07
0.000667592
7.84797e-07
0.000667867
8.96154e-07
0.000668175
1.00348e-06
0.000668512
1.10635e-06
0.000668879
1.2044e-06
0.000669273
1.29729e-06
0.000669692
1.38473e-06
0.000670134
1.46647e-06
0.000670599
1.54228e-06
0.000671082
1.61198e-06
0.000671584
1.67539e-06
0.000672103
1.73238e-06
0.000672635
1.78282e-06
0.00067318
1.82658e-06
0.000673736
1.86358e-06
0.000674302
1.89368e-06
0.000674874
1.91681e-06
0.000675453
1.93284e-06
0.000676035
1.94168e-06
0.00067662
1.94317e-06
0.000677206
1.93725e-06
0.00067779
1.92368e-06
0.000678372
1.90242e-06
0.00067895
1.87313e-06
0.000679521
1.83579e-06
0.000680085
1.78996e-06
0.000680639
1.73567e-06
0.000681182
1.67226e-06
0.000681712
1.59989e-06
0.000682227
1.51762e-06
0.000682725
1.42582e-06
0.000683204
1.32309e-06
0.000683663
1.2102e-06
0.000684099
1.08504e-06
0.000684509
9.49065e-07
0.000684894
7.99066e-07
0.000685248
6.37665e-07
0.000685571
4.5993e-07
0.00068586
2.70491e-07
0.000686113
6.21938e-08
0.000686329
-1.61294e-07
0.000686505
-4.09987e-07
0.000686635
-6.70224e-07
0.00068672
-9.61847e-07
0.000686753
-1.26369e-06
0.000686736
-1.60691e-06
0.000686658
-1.95647e-06
0.000686527
-2.36204e-06
0.000686325
-2.76601e-06
0.000686067
-3.24787e-06
0.000685725
-3.71324e-06
0.000685325
-4.28958e-06
0.000684825
-4.82217e-06
-5.51514e-06
0.000684271
0.000666684
4.46724e-08
0.000666735
1.34214e-07
0.00066682
2.23771e-07
0.000666939
3.12445e-07
0.000667091
3.9979e-07
0.000667276
4.85391e-07
0.000667492
5.68858e-07
0.000667738
6.49827e-07
0.000668013
7.27962e-07
0.000668317
8.02951e-07
0.000668647
8.74516e-07
0.000669002
9.42399e-07
0.00066938
1.00637e-06
0.00066978
1.06623e-06
0.000670201
1.1218e-06
0.00067064
1.1729e-06
0.000671096
1.21941e-06
0.000671567
1.26117e-06
0.000672052
1.2981e-06
0.000672548
1.33006e-06
0.000673055
1.35697e-06
0.00067357
1.37871e-06
0.000674091
1.39521e-06
0.000674618
1.40634e-06
0.000675147
1.41205e-06
0.000675678
1.41215e-06
0.000676209
1.40663e-06
0.000676738
1.39524e-06
0.000677262
1.37798e-06
0.000677781
1.35453e-06
0.000678291
1.32493e-06
0.000678793
1.28872e-06
0.000679282
1.24603e-06
0.000679758
1.19619e-06
0.000680219
1.13949e-06
0.000680661
1.07496e-06
0.000681084
1.00315e-06
0.000681485
9.22584e-07
0.000681861
8.34305e-07
0.000682209
7.36076e-07
0.000682529
6.2972e-07
0.000682816
5.11806e-07
0.000683068
3.85485e-07
0.000683283
2.45485e-07
0.000683456
9.73436e-08
0.000683587
-6.85693e-08
0.00068367
-2.44685e-07
0.000683702
-4.42144e-07
0.000683679
-6.46708e-07
0.000683597
-8.79794e-07
0.00068345
-1.11742e-06
0.000683237
-1.3936e-06
0.000682949
-1.66891e-06
0.000682585
-1.99783e-06
0.000682135
-2.31577e-06
0.000681597
-2.7103e-06
0.00068096
-3.07561e-06
0.000680223
-3.55295e-06
0.00067937
-3.96863e-06
-4.55054e-06
0.000678405
0.000666682
2.91184e-08
0.000666729
8.74736e-08
0.000666807
1.45842e-07
0.000666916
2.03647e-07
0.000667055
2.60607e-07
0.000667224
3.16457e-07
0.000667422
3.70948e-07
0.000667648
4.23845e-07
0.000667901
4.74929e-07
0.00066818
5.23996e-07
0.000668483
5.70859e-07
0.00066881
6.15346e-07
0.000669159
6.57302e-07
0.000669529
6.96583e-07
0.000669918
7.33064e-07
0.000670324
7.66624e-07
0.000670746
7.97165e-07
0.000671183
8.24583e-07
0.000671632
8.488e-07
0.000672093
8.69724e-07
0.000672562
8.87292e-07
0.00067304
9.01411e-07
0.000673523
9.12031e-07
0.00067401
9.19047e-07
0.0006745
9.22422e-07
0.00067499
9.22023e-07
0.000675479
9.17832e-07
0.000675964
9.09669e-07
0.000676445
8.97542e-07
0.000676918
8.81201e-07
0.000677382
8.60697e-07
0.000677835
8.35673e-07
0.000678275
8.06259e-07
0.000678699
7.71932e-07
0.000679106
7.32958e-07
0.000679492
6.88559e-07
0.000679856
6.39235e-07
0.000680195
5.83811e-07
0.000680506
5.23183e-07
0.000680786
4.55553e-07
0.000681034
3.82488e-07
0.000681244
3.01218e-07
0.000681415
2.14427e-07
0.000681543
1.1786e-07
0.000681624
1.63987e-08
0.000681655
-9.9783e-08
0.000681631
-2.20885e-07
0.000681547
-3.58007e-07
0.0006814
-4.99057e-07
0.000681181
-6.61625e-07
0.00068089
-8.25651e-07
0.000680515
-1.01918e-06
0.000680056
-1.2093e-06
0.000679499
-1.44105e-06
0.000678844
-1.6605e-06
0.000678074
-1.94035e-06
0.00067719
-2.19209e-06
0.000676171
-2.53344e-06
0.000675021
-2.81875e-06
-3.23896e-06
0.000673709
0.000666681
1.44835e-08
0.000666725
4.35019e-08
0.000666799
7.25245e-08
0.000666901
1.01269e-07
0.000667032
1.29597e-07
0.000667191
1.5738e-07
0.000667378
1.84495e-07
0.000667591
2.10826e-07
0.000667829
2.36267e-07
0.000668092
2.60714e-07
0.000668379
2.84076e-07
0.000668688
3.06265e-07
0.000669018
3.27202e-07
0.000669368
3.46815e-07
0.000669736
3.65038e-07
0.000670121
3.8181e-07
0.000670521
3.97078e-07
0.000670935
4.10788e-07
0.000671361
4.229e-07
0.000671797
4.33363e-07
0.000672242
4.42145e-07
0.000672695
4.49196e-07
0.000673152
4.54489e-07
0.000673613
4.57968e-07
0.000674076
4.59614e-07
0.000674539
4.59357e-07
0.000674999
4.57187e-07
0.000675456
4.5301e-07
0.000675907
4.46831e-07
0.000676349
4.38517e-07
0.000676782
4.281e-07
0.000677202
4.15387e-07
0.000677608
4.00457e-07
0.000677997
3.83024e-07
0.000678367
3.63246e-07
0.000678715
3.40694e-07
0.000679038
3.1566e-07
0.000679334
2.87497e-07
0.000679601
2.56721e-07
0.000679834
2.22336e-07
0.000680031
1.85235e-07
0.000680189
1.43875e-07
0.000680303
9.97706e-08
0.000680371
5.05649e-08
0.000680388
-8.38488e-10
0.000680349
-6.04903e-08
0.00068025
-1.22076e-07
0.000680084
-1.92207e-07
0.000679849
-2.64039e-07
0.000679535
-3.47392e-07
0.00067914
-4.30958e-07
0.000678651
-5.30457e-07
0.000678069
-6.27338e-07
0.000677375
-7.46898e-07
0.000676573
-8.58712e-07
0.000675637
-1.00367e-06
0.000674576
-1.13181e-06
0.000673352
-1.3095e-06
0.000671988
-1.45437e-06
-1.67439e-06
0.000670424
0.000666681
2.91809e-10
0.000666723
8.68454e-10
0.000666795
1.43623e-09
0.000666894
1.9944e-09
0.000667021
2.54142e-09
0.000667175
3.07606e-09
0.000667356
3.59736e-09
0.000667563
4.10446e-09
0.000667795
4.59655e-09
0.00066805
5.07288e-09
0.000668329
5.53283e-09
0.000668629
5.97593e-09
0.00066895
6.40187e-09
0.00066929
6.81043e-09
0.000669648
7.20151e-09
0.000670022
7.57511e-09
0.000670411
7.93135e-09
0.000670814
8.27052e-09
0.000671228
8.59298e-09
0.000671652
8.89936e-09
0.000672085
9.19016e-09
0.000672525
9.46614e-09
0.00067297
9.72809e-09
0.000673418
9.97679e-09
0.000673867
1.02134e-08
0.000674316
1.04388e-08
0.000674763
1.06542e-08
0.000675205
1.08607e-08
0.00067564
1.10597e-08
0.000676068
1.12526e-08
0.000676484
1.14409e-08
0.000676888
1.16259e-08
0.000677277
1.18091e-08
0.000677648
1.19925e-08
0.000677999
1.21771e-08
0.000678327
1.23655e-08
0.00067863
1.25577e-08
0.000678905
1.2757e-08
0.000679149
1.29629e-08
0.000679358
1.31795e-08
0.00067953
1.34092e-08
0.00067966
1.36617e-08
0.000679746
1.39486e-08
0.000679782
1.42731e-08
0.000679767
1.46231e-08
0.000679691
1.49442e-08
0.000679554
1.52835e-08
0.000679346
1.5661e-08
0.000679066
1.60807e-08
0.000678702
1.65364e-08
0.000678254
1.70276e-08
0.000677706
1.75547e-08
0.000677061
1.81255e-08
0.000676295
1.87361e-08
0.000675417
1.93992e-08
0.000674393
2.0105e-08
0.00067324
2.08744e-08
0.000671909
2.16857e-08
0.000670432
2.25719e-08
2.34933e-08
0.000668734
0.000666681
-1.39021e-08
0.000666724
-4.17766e-08
0.000666795
-6.96687e-08
0.000666894
-9.73026e-08
0.000667021
-1.24543e-07
0.000667175
-1.51262e-07
0.000667356
-1.7734e-07
0.000667563
-2.02662e-07
0.000667795
-2.27124e-07
0.00066805
-2.50624e-07
0.000668329
-2.73071e-07
0.000668629
-2.94378e-07
0.00066895
-3.14469e-07
0.00066929
-3.33269e-07
0.000669648
-3.50714e-07
0.000670023
-3.66743e-07
0.000670412
-3.81303e-07
0.000670814
-3.94339e-07
0.000671229
-4.05809e-07
0.000671653
-4.15664e-07
0.000672086
-4.23868e-07
0.000672526
-4.3037e-07
0.000672971
-4.35142e-07
0.000673419
-4.38127e-07
0.000673869
-4.39304e-07
0.000674318
-4.38599e-07
0.000674764
-4.36001e-07
0.000675207
-4.31413e-07
0.000675643
-4.2484e-07
0.00067607
-4.16142e-07
0.000676487
-4.05352e-07
0.000676891
-3.92272e-07
0.00067728
-3.76978e-07
0.000677651
-3.59181e-07
0.000678002
-3.39035e-07
0.00067833
-3.16109e-07
0.000678634
-2.90693e-07
0.000678909
-2.62132e-07
0.000679152
-2.30944e-07
0.000679362
-1.96128e-07
0.000679534
-1.58579e-07
0.000679664
-1.16756e-07
0.00067975
-7.21883e-08
0.000679787
-2.25627e-08
0.000679771
3.02737e-08
0.000679696
9.01706e-08
0.000679559
1.52449e-07
0.000679351
2.2335e-07
0.000679071
2.9601e-07
0.000678708
3.80248e-07
0.00067826
4.64776e-07
0.000677712
5.65311e-07
0.000677067
6.6332e-07
0.000676302
7.84084e-07
0.000675424
8.9721e-07
0.0006744
1.04356e-06
0.000673248
1.17323e-06
0.000671917
1.35251e-06
0.000670441
1.49913e-06
1.72097e-06
0.000668743
0.000666681
-2.8547e-08
0.000666725
-8.57771e-08
0.000666799
-1.43033e-07
0.000666901
-1.99746e-07
0.000667032
-2.55635e-07
0.000667191
-3.10439e-07
0.000667378
-3.6391e-07
0.000667591
-4.15814e-07
0.00066783
-4.65935e-07
0.000668093
-5.1407e-07
0.00066838
-5.60033e-07
0.00066869
-6.03654e-07
0.00066902
-6.44778e-07
0.00066937
-6.8326e-07
0.000669738
-7.18976e-07
0.000670123
-7.51807e-07
0.000670524
-7.81652e-07
0.000670938
-8.08408e-07
0.000671364
-8.31996e-07
0.0006718
-8.52323e-07
0.000672246
-8.69324e-07
0.000672698
-8.82905e-07
0.000673156
-8.93015e-07
0.000673618
-8.99546e-07
0.000674081
-9.02461e-07
0.000674544
-9.01624e-07
0.000675005
-8.97014e-07
0.000675462
-8.8845e-07
0.000675913
-8.75936e-07
0.000676356
-8.59221e-07
0.000676789
-8.38352e-07
0.00067721
-8.1297e-07
0.000677616
-7.832e-07
0.000678005
-7.48518e-07
0.000678376
-7.09186e-07
0.000678724
-6.64422e-07
0.000679048
-6.14724e-07
0.000679345
-5.58912e-07
0.000679612
-4.97881e-07
0.000679845
-4.29829e-07
0.000680043
-3.56318e-07
0.000680201
-2.74577e-07
0.000680316
-1.87297e-07
0.000680384
-9.02576e-08
0.000680402
1.18415e-08
0.000680363
1.28995e-07
0.000680265
2.5069e-07
0.0006801
3.88512e-07
0.000679866
5.30351e-07
0.000679552
6.93786e-07
0.000679158
8.58753e-07
0.00067867
1.05329e-06
0.000678089
1.24449e-06
0.000677396
1.4774e-06
0.000676595
1.69812e-06
0.000675659
1.9793e-06
0.0006746
2.23252e-06
0.000673377
2.57538e-06
0.000672014
2.86241e-06
3.28431e-06
0.00067045
0.000666682
-4.41163e-08
0.000666729
-1.32564e-07
0.000666807
-2.21039e-07
0.000666916
-3.08649e-07
0.000667055
-3.94953e-07
0.000667224
-4.79536e-07
0.000667422
-5.62011e-07
0.000667649
-6.42015e-07
0.000667902
-7.19213e-07
0.000668181
-7.93297e-07
0.000668485
-8.63988e-07
0.000668812
-9.31029e-07
0.000669162
-9.94195e-07
0.000669532
-1.05328e-06
0.000669921
-1.1081e-06
0.000670328
-1.1585e-06
0.00067075
-1.20433e-06
0.000671187
-1.24545e-06
0.000671637
-1.28177e-06
0.000672098
-1.31315e-06
0.000672568
-1.33951e-06
0.000673046
-1.36073e-06
0.00067353
-1.37674e-06
0.000674018
-1.3874e-06
0.000674508
-1.39266e-06
0.000674999
-1.39235e-06
0.000675488
-1.38642e-06
0.000675974
-1.37465e-06
0.000676455
-1.35701e-06
0.000676929
-1.33321e-06
0.000677394
-1.30325e-06
0.000677848
-1.2667e-06
0.000678288
-1.22366e-06
0.000678713
-1.17349e-06
0.000679121
-1.11645e-06
0.000679508
-1.05156e-06
0.000679872
-9.79392e-07
0.000680212
-8.9846e-07
0.000680524
-8.09795e-07
0.000680805
-7.11164e-07
0.000681053
-6.04386e-07
0.000681265
-4.86031e-07
0.000681437
-3.59249e-07
0.000681565
-2.18778e-07
0.000681647
-7.02241e-08
0.000681679
9.68667e-08
0.000681657
2.73484e-07
0.000681573
4.71621e-07
0.000681427
6.76936e-07
0.00068121
9.10832e-07
0.000680919
1.14934e-06
0.000680546
1.42646e-06
0.000680088
1.70281e-06
0.000679532
2.03281e-06
0.000678878
2.35195e-06
0.00067811
2.74771e-06
0.000677228
3.11444e-06
0.00067621
3.59315e-06
0.000675062
4.01049e-06
4.5939e-06
0.000673753
0.000666684
-6.11466e-08
0.000666735
-1.83756e-07
0.00066682
-3.0638e-07
0.000666939
-4.27753e-07
0.000667092
-5.47237e-07
0.000667276
-6.64241e-07
0.000667493
-7.78214e-07
0.000667739
-8.88645e-07
0.000668015
-9.95071e-07
0.000668319
-1.09708e-06
0.000668649
-1.19428e-06
0.000669004
-1.28637e-06
0.000669383
-1.37303e-06
0.000669784
-1.45402e-06
0.000670205
-1.52913e-06
0.000670645
-1.59814e-06
0.000671101
-1.66091e-06
0.000671573
-1.71729e-06
0.000672058
-1.76715e-06
0.000672556
-1.81036e-06
0.000673063
-1.84683e-06
0.000673579
-1.87643e-06
0.000674101
-1.89909e-06
0.000674628
-1.91467e-06
0.000675159
-1.9231e-06
0.000675691
-1.92419e-06
0.000676222
-1.91788e-06
0.000676751
-1.90395e-06
0.000677277
-1.88233e-06
0.000677796
-1.8527e-06
0.000678308
-1.81504e-06
0.00067881
-1.76888e-06
0.000679301
-1.71427e-06
0.000679778
-1.65053e-06
0.000680239
-1.57785e-06
0.000680683
-1.49525e-06
0.000681107
-1.40311e-06
0.000681508
-1.30003e-06
0.000681885
-1.18678e-06
0.000682235
-1.06124e-06
0.000682556
-9.24868e-07
0.000682844
-7.74441e-07
0.000683097
-6.12592e-07
0.000683313
-4.34381e-07
0.000683487
-2.44471e-07
0.00068362
-3.59122e-08
0.000683705
1.88806e-07
0.000683738
4.38059e-07
0.000683716
6.98978e-07
0.000683636
9.9135e-07
0.000683491
1.29401e-06
0.000683279
1.63809e-06
0.000682994
1.98861e-06
0.000682631
2.39516e-06
0.000682183
2.80026e-06
0.000681647
3.28322e-06
0.000681012
3.74991e-06
0.000680278
4.32746e-06
0.000679427
4.86164e-06
5.55586e-06
0.000678465
0.000666686
-8.02836e-08
0.000666743
-2.41307e-07
0.000666839
-4.02306e-07
0.000666973
-5.61555e-07
0.000667144
-7.18166e-07
0.000667351
-8.71324e-07
0.000667593
-1.02027e-06
0.000667869
-1.16434e-06
0.000668177
-1.3029e-06
0.000668515
-1.43544e-06
0.000668882
-1.5615e-06
0.000669277
-1.68069e-06
0.000669696
-1.79266e-06
0.000670139
-1.89715e-06
0.000670604
-1.99392e-06
0.000671089
-2.08279e-06
0.000671591
-2.16359e-06
0.00067211
-2.2362e-06
0.000672644
-2.3005e-06
0.00067319
-2.35639e-06
0.000673747
-2.40378e-06
0.000674313
-2.44259e-06
0.000674886
-2.47273e-06
0.000675466
-2.4941e-06
0.000676049
-2.50661e-06
0.000676635
-2.51012e-06
0.000677222
-2.50453e-06
0.000677808
-2.48967e-06
0.000678391
-2.46539e-06
0.00067897
-2.43146e-06
0.000679542
-2.38772e-06
0.000680107
-2.33384e-06
0.000680663
-2.26967e-06
0.000681207
-2.19472e-06
0.000681738
-2.10887e-06
0.000682254
-2.01144e-06
0.000682753
-1.90238e-06
0.000683234
-1.78074e-06
0.000683694
-1.64659e-06
0.000684131
-1.49858e-06
0.000684543
-1.33708e-06
0.000684929
-1.16008e-06
0.000685285
-9.68501e-07
0.00068561
-7.59365e-07
0.0006859
-5.3461e-07
0.000686154
-2.89913e-07
0.000686373
-3.01311e-08
0.000686551
2.60061e-07
0.000686682
5.6747e-07
0.00068677
9.04166e-07
0.000686804
1.25984e-06
0.000686789
1.65264e-06
0.000686713
2.06443e-06
0.000686585
2.52373e-06
0.000686385
3.00007e-06
0.000686129
3.53885e-06
0.00068579
4.08944e-06
0.000685393
4.72396e-06
0.000684896
5.35856e-06
6.10693e-06
0.000684345
0.000666689
-1.02363e-07
0.000666755
-3.07753e-07
0.000666866
-5.13022e-07
0.00066702
-7.15842e-07
0.000667217
-9.14984e-07
0.000667455
-1.10933e-06
0.000667733
-1.29788e-06
0.000668048
-1.47974e-06