/*--------------------------------*- C++ -*----------------------------------*\
| =========                 |                                                 |
| \\      /  F ield         | OpenFOAM: The Open Source CFD Toolbox           |
|  \\    /   O peration     | Version:  2312                                  |
|   \\  /    A nd           | Website:  www.openfoam.com                      |
|    \\/     M anipulation  |                                                 |
\*---------------------------------------------------------------------------*/
FoamFile
{
    version     2.0;
    format      ascii;
    arch        "LSB;label=32;scalar=64";
    class       surfaceScalarField;
    location    "93000";
    object      phi;
}
// * * * * * * * * * * * * * * * * * * * * * * * * * * * * * * * * * * * * * //

dimensions      [0 3 -1 0 0 0 0];

oriented        oriented;

internalField   nonuniform List<scalar> 
5309
(
7.46632e-05
2.77442e-05
6.92759e-05
5.38739e-06
6.29894e-05
6.28643e-06
5.97931e-05
3.19629e-06
5.86911e-05
1.10205e-06
5.94415e-05
-7.50437e-07
6.06647e-05
-1.22315e-06
6.31971e-05
-2.53247e-06
6.56081e-05
-2.41096e-06
6.91415e-05
-3.53345e-06
7.2006e-05
-2.86444e-06
7.5887e-05
-3.88106e-06
7.85524e-05
-2.66535e-06
8.21986e-05
-3.64626e-06
8.41079e-05
-1.90924e-06
8.71842e-05
-3.07628e-06
8.79961e-05
-8.11922e-07
9.03501e-05
-2.354e-06
8.98943e-05
4.55773e-07
9.16184e-05
-1.72409e-06
8.98846e-05
1.73382e-06
9.11469e-05
-1.26234e-06
8.81205e-05
3.02644e-06
8.90655e-05
-9.45018e-07
8.4572e-05
4.49351e-06
8.55605e-05
-9.88471e-07
7.7031e-05
8.5295e-06
8.61067e-05
-9.07572e-06
3.69286e-05
4.91781e-05
-3.51381e-05
7.20667e-05
0.000148749
3.36281e-05
0.000146455
7.68133e-06
0.000144185
8.55666e-06
0.000142907
4.47485e-06
0.000142717
1.29181e-06
0.000144447
-2.48017e-06
0.000146957
-3.73388e-06
0.000151215
-6.79042e-06
0.000155623
-6.81866e-06
0.00016169
-9.60044e-06
0.000167188
-8.3623e-06
0.000174269
-1.09625e-05
0.000179958
-8.35457e-06
0.000187251
-1.09385e-05
0.000192295
-6.95337e-06
0.000199127
-9.90893e-06
0.000202833
-4.51749e-06
0.000208892
-8.41252e-06
0.000210941
-1.5933e-06
0.000216347
-7.13013e-06
0.000216224
1.85689e-06
0.00022155
-6.58848e-06
0.000218327
6.24917e-06
0.000224798
-7.41624e-06
0.000216071
1.32211e-05
0.000227246
-1.21635e-05
0.000204997
3.07779e-05
0.000225196
-2.92744e-05
0.000206179
6.81954e-05
-3.65682e-05
0.000207609
0.000197942
3.1521e-05
0.000198692
6.93068e-06
0.00020018
7.06899e-06
0.000201114
3.54053e-06
0.000202451
-4.47593e-08
0.00020486
-4.88954e-06
0.000207879
-6.75227e-06
0.000212363
-1.12745e-05
0.000217026
-1.14821e-05
0.000223302
-1.58758e-05
0.000229156
-1.42163e-05
0.000236713
-1.852e-05
0.000243067
-1.47082e-05
0.000251326
-1.91979e-05
0.000257469
-1.30963e-05
0.000265952
-1.83922e-05
0.000271301
-9.86587e-06
0.000279894
-1.70054e-05
0.000283807
-5.5063e-06
0.000292627
-1.59504e-05
0.000294407
7.64669e-08
0.000303784
-1.59655e-05
0.000302857
7.17677e-06
0.000313425
-1.79846e-05
0.000308743
1.79037e-05
0.000320064
-2.3485e-05
0.000316326
3.45161e-05
0.000321023
-3.39716e-05
0.000336789
5.24297e-05
-1.95991e-05
0.00031982
0.000234886
2.68878e-05
0.000234932
6.88454e-06
0.000237093
4.90815e-06
0.000239214
1.4188e-06
0.000241114
-1.94417e-06
0.000244351
-8.12669e-06
0.000247814
-1.02158e-05
0.00025247
-1.59304e-05
0.000257151
-1.61625e-05
0.000263191
-2.19164e-05
0.000268877
-1.99017e-05
0.000276043
-2.5686e-05
0.000282324
-2.09896e-05
0.000290259
-2.71329e-05
0.000296677
-1.95142e-05
0.000305089
-2.68039e-05
0.000311249
-1.60265e-05
0.000319926
-2.56816e-05
0.000325497
-1.10778e-05
0.000334241
-2.46948e-05
0.000339319
-5.0013e-06
0.000347926
-2.45722e-05
0.000352709
2.39375e-06
0.000360408
-2.56836e-05
0.000366564
1.17472e-05
0.000371121
-2.80414e-05
0.00038315
2.24872e-05
0.000378516
-2.93382e-05
0.000405303
2.56425e-05
-9.85083e-06
0.000395555
0.000263654
2.21153e-05
0.000263271
7.26796e-06
0.000265208
2.97083e-06
0.000267857
-1.22992e-06
0.000270357
-4.44452e-06
0.000273233
-1.10025e-05
0.000276587
-1.35693e-05
0.000280693
-2.00363e-05
0.000285175
-2.06447e-05
0.000290366
-2.71076e-05
0.000295814
-2.53498e-05
0.000301898
-3.17698e-05
0.00030809
-2.71815e-05
0.000314805
-3.3848e-05
0.000321508
-2.6217e-05
0.000328591
-3.3887e-05
0.000335661
-2.30964e-05
0.000342818
-3.28387e-05
0.000350324
-1.85838e-05
0.000357247
-3.16178e-05
0.000365501
-1.32555e-05
0.000371635
-3.07057e-05
0.000381253
-7.22415e-06
0.000385734
-3.01649e-05
0.000398187
-7.05524e-07
0.000399102
-2.89573e-05
0.000417169
4.42028e-06
0.000411614
-2.37826e-05
0.000435449
1.8075e-06
-8.78658e-06
0.000434384
0.000286462
1.80961e-05
0.00028604
7.68969e-06
0.000287434
1.57781e-06
0.000289565
-3.36136e-06
0.000291937
-6.81666e-06
0.000294425
-1.34908e-05
0.000297646
-1.679e-05
0.000301077
-2.34676e-05
0.000305364
-2.49318e-05
0.000309579
-3.13216e-05
0.000314804
-3.05757e-05
0.000319669
-3.66346e-05
0.00032575
-3.32619e-05
0.000331078
-3.91759e-05
0.000337937
-3.30762e-05
0.000343507
-3.94572e-05
0.000351145
-3.07348e-05
0.0003567
-3.8393e-05
0.000365281
-2.71649e-05
0.000370488
-3.6825e-05
0.000380326
-2.30932e-05
0.000384713
-3.50926e-05
0.000396408
-1.89192e-05
0.000399215
-3.29718e-05
0.000413681
-1.51723e-05
0.000414015
-2.92905e-05
0.000431655
-1.32206e-05
0.000430143
-2.22702e-05
0.000447167
-1.5216e-05
-1.38914e-05
0.000452271
0.000304245
1.51008e-05
0.00030424
7.69459e-06
0.000304952
8.66304e-07
0.000306494
-4.90326e-06
0.000308741
-9.06406e-06
0.000310775
-1.55245e-05
0.000313727
-1.97422e-05
0.000316429
-2.617e-05
0.000320355
-2.88571e-05
0.000323679
-3.46456e-05
0.000328511
-3.5408e-05
0.000332343
-4.04668e-05
0.000338066
-3.89843e-05
0.000342282
-4.33927e-05
0.000348895
-3.96887e-05
0.000353329
-4.38908e-05
0.000360895
-3.83014e-05
0.000365354
-4.28517e-05
0.000374023
-3.58338e-05
0.000378271
-4.1073e-05
0.000388269
-3.30911e-05
0.000392039
-3.88628e-05
0.000403663
-3.05428e-05
0.000406665
-3.59744e-05
0.000420039
-2.85464e-05
0.000422437
-3.16878e-05
0.000436676
-2.74605e-05
0.000440197
-2.57911e-05
0.000452021
-2.70394e-05
-2.09695e-05
0.000459099
0.000317497
1.31143e-05
0.000317861
7.33051e-06
0.000318299
4.28155e-07
0.000319319
-5.92318e-06
0.000321297
-1.10418e-05
0.000322966
-1.71932e-05
0.000325558
-2.23345e-05
0.000327707
-2.83189e-05
0.000331144
-3.22941e-05
0.000333812
-3.73139e-05
0.000338084
-3.96796e-05
0.000341184
-4.35672e-05
0.00034631
-4.41099e-05
0.000349776
-4.6859e-05
0.000355795
-4.57078e-05
0.000359533
-4.76288e-05
0.000366519
-4.52875e-05
0.000370431
-4.6764e-05
0.000378479
-4.38811e-05
0.000382473
-4.50675e-05
0.000391672
-4.229e-05
0.000395711
-4.29022e-05
0.000406065
-4.08964e-05
0.00041025
-4.01599e-05
0.000421455
-3.97506e-05
0.000426383
-3.6616e-05
0.000437457
-3.85352e-05
0.000444303
-3.26372e-05
0.000453696
-3.64323e-05
-2.90032e-05
0.00046173
0.000326648
1.19863e-05
0.000327239
6.7394e-06
0.000327735
-6.75178e-08
0.000328447
-6.63509e-06
0.000330075
-1.26702e-05
0.000331494
-1.86124e-05
0.00033369
-2.453e-05
0.000335475
-3.01046e-05
0.000338352
-3.51705e-05
0.000340596
-3.95577e-05
0.000344198
-4.32822e-05
0.000346854
-4.62227e-05
0.000351219
-4.84751e-05
0.000354273
-4.99133e-05
0.00035946
-5.08944e-05
0.0003629
-5.10695e-05
0.000368966
-5.13529e-05
0.000372794
-5.05921e-05
0.000379777
-5.08638e-05
0.000384029
-4.93193e-05
0.000391916
-5.01769e-05
0.000396705
-4.76912e-05
0.000405364
-4.95558e-05
0.000410952
-4.57481e-05
0.000420057
-4.88551e-05
0.000426872
-4.34317e-05
0.000435962
-4.76251e-05
0.000444104
-4.07789e-05
0.000453118
-4.54458e-05
-3.74845e-05
0.000461599
0.000332204
1.14519e-05
0.000332941
6.00271e-06
0.000333596
-7.23079e-07
0.000334219
-7.25805e-06
0.00033552
-1.39711e-05
0.000336782
-1.98744e-05
0.000338599
-2.63473e-05
0.000340179
-3.16839e-05
0.000342513
-3.75048e-05
0.000344511
-4.15561e-05
0.000347448
-4.62193e-05
0.000349871
-4.86447e-05
0.000353455
-5.20595e-05
0.000356333
-5.27913e-05
0.000360635
-5.51962e-05
0.000364022
-5.44571e-05
0.000369091
-5.6422e-05
0.000373058
-5.45589e-05
0.000378915
-5.6721e-05
0.000383559
-5.39626e-05
0.000390179
-5.67976e-05
0.000395635
-5.31473e-05
0.000402943
-5.68633e-05
0.000409374
-5.21793e-05
0.000417262
-5.67426e-05
0.000424721
-5.0891e-05
0.000433198
-5.6102e-05
0.000441396
-4.8977e-05
0.000450695
-5.47449e-05
-4.59456e-05
0.000459156
0.000334879
1.11891e-05
0.000335609
5.27184e-06
0.000336399
-1.51265e-06
0.000337116
-7.97494e-06
0.000338199
-1.50542e-05
0.000339372
-2.10473e-05
0.000340887
-2.78625e-05
0.000342372
-3.31689e-05
0.000344277
-3.94092e-05
0.000346149
-4.3429e-05
0.00034854
-4.86103e-05
0.000350854
-5.0958e-05
0.000353784
-5.49903e-05
0.000356604
-5.56106e-05
0.000360154
-5.87469e-05
0.000363574
-5.78766e-05
0.000367806
-6.06546e-05
0.000371926
-5.86787e-05
0.000376881
-6.16754e-05
0.000381806
-5.88874e-05
0.000387504
-6.24965e-05
0.000393326
-5.89688e-05
0.000399795
-6.33323e-05
0.000406554
-5.89378e-05
0.000413843
-6.40326e-05
0.000421471
-5.85186e-05
0.000429685
-6.4316e-05
0.000438032
-5.73235e-05
0.000447223
-6.39359e-05
-5.48656e-05
0.000456143
0.000335459
1.0836e-05
0.000336178
4.55278e-06
0.000337032
-2.36699e-06
0.000337888
-8.83108e-06
0.000338881
-1.60467e-05
0.000340034
-2.22002e-05
0.000341365
-2.91933e-05
0.000342829
-3.4633e-05
0.000344472
-4.10527e-05
0.000346293
-4.52503e-05
0.000348334
-5.06506e-05
0.000350592
-5.32167e-05
0.000353097
-5.74947e-05
0.000355883
-5.83963e-05
0.000358936
-6.18006e-05
0.000362361
-6.1301e-05
0.000366046
-6.43401e-05
0.000370217
-6.285e-05
0.00037461
-6.60677e-05
0.000379619
-6.38967e-05
0.00038479
-6.76679e-05
0.000390698
-6.48759e-05
0.000396729
-6.93634e-05
0.00040355
-6.57593e-05
0.000410529
-7.10111e-05
0.00041823
-6.62203e-05
0.000426234
-7.23194e-05
0.00043475
-6.58398e-05
0.000443803
-7.29888e-05
-6.41358e-05
0.000453073
0.000334896
1.02441e-05
0.000335687
3.76182e-06
0.000336577
-3.25739e-06
0.000337555
-9.80861e-06
0.000338561
-1.70526e-05
0.000339761
-2.34006e-05
0.000341035
-3.04673e-05
0.000342534
-3.61316e-05
0.00034408
-4.25988e-05
0.000345904
-4.70746e-05
0.000347784
-5.25306e-05
0.000350019
-5.54515e-05
0.00035231
-5.97855e-05
0.000355052
-6.1139e-05
0.000357847
-6.4595e-05
0.000361215
-6.46694e-05
0.000364614
-6.7739e-05
0.00036872
-6.69561e-05
0.000372819
-7.01668e-05
0.000377755
-6.8833e-05
0.000382644
-7.25566e-05
0.000388482
-7.07137e-05
0.000394248
-7.51299e-05
0.000401035
-7.25453e-05
0.000407759
-7.77356e-05
0.000415511
-7.39725e-05
0.000423248
-8.00565e-05
0.000431951
-7.45425e-05
0.000440728
-8.1766e-05
-7.37446e-05
0.000450337
0.000334549
9.4721e-06
0.000335404
2.90659e-06
0.000336301
-4.15464e-06
0.000337351
-1.08581e-05
0.000338413
-1.81148e-05
0.000339692
-2.46793e-05
0.000340993
-3.17686e-05
0.000342553
-3.76918e-05
0.000344101
-4.41462e-05
0.000345954
-4.89283e-05
0.000347786
-5.43623e-05
0.000350003
-5.76689e-05
0.000352196
-6.19778e-05
0.000354872
-6.38149e-05
0.000357523
-6.72463e-05
0.000360776
-6.79221e-05
0.000363999
-7.09621e-05
0.000367948
-7.09052e-05
0.000371848
-7.40673e-05
0.000376602
-7.35866e-05
0.000381273
-7.72279e-05
0.000386928
-7.63684e-05
0.000392453
-8.0655e-05
0.000399096
-7.91877e-05
0.000405543
-8.41834e-05
0.00041324
-8.16687e-05
0.000420653
-8.74696e-05
0.00042943
-8.33196e-05
0.000437831
-9.01674e-05
-8.3606e-05
0.000447693
0.000335524
8.66577e-06
0.000336382
2.0489e-06
0.000337261
-5.03414e-06
0.000338334
-1.19311e-05
0.000339445
-1.92259e-05
0.000340786
-2.60194e-05
0.000342131
-3.31137e-05
0.000343731
-3.92919e-05
0.00034529
-4.57051e-05
0.000347141
-5.07795e-05
0.000348929
-5.61501e-05
0.000351079
-5.98197e-05
0.000353165
-6.40635e-05
0.000355705
-6.63545e-05
0.000358193
-6.97348e-05
0.000361242
-7.0971e-05
0.00036426
-7.39798e-05
0.000367947
-7.45927e-05
0.000371614
-7.77342e-05
0.000376062
-7.80342e-05
0.000380481
-8.16473e-05
0.000385805
-8.16918e-05
0.000391065
-8.59151e-05
0.00039738
-8.55028e-05
0.000403552
-9.03554e-05
0.000410965
-8.9082e-05
0.000418093
-9.45974e-05
0.000426678
-9.19049e-05
0.000434778
-9.82671e-05
-9.3398e-05
0.00044457
0.000338634
8.03656e-06
-0.000338004
0.00033938
1.30238e-06
0.000340178
-5.83196e-06
0.00034119
-1.29428e-05
0.000342274
-2.03107e-05
0.000343583
-2.73281e-05
0.000344898
-3.44281e-05
0.000346435
-4.08291e-05
0.000347917
-4.71871e-05
0.00034965
-5.25129e-05
0.000351294
-5.77938e-05
0.000353256
-6.17813e-05
0.000355123
-6.59312e-05
0.000357404
-6.86352e-05
0.000359612
-7.1943e-05
0.000362343
-7.37021e-05
0.000365037
-7.66741e-05
0.000368361
-7.7916e-05
0.000371682
-8.10552e-05
0.000375728
-8.20801e-05
0.000379797
-8.57166e-05
0.000384689
-8.65842e-05
0.000389613
-9.08383e-05
0.000395483
-9.13733e-05
0.000401347
-9.62194e-05
0.000408333
-9.60682e-05
0.00041519
-0.000101454
0.000423417
-0.000100132
0.000431269
-0.000106119
-0.000102967
0.000440837
0.000343662
7.69862e-06
-0.000343324
0.000344205
7.59275e-07
0.000344866
-6.49307e-06
0.00034573
-1.38064e-05
0.000346687
-2.12675e-05
0.000347832
-2.84731e-05
0.000348989
-3.55856e-05
0.000350313
-4.21525e-05
0.00035158
-4.84539e-05
0.000353033
-5.39665e-05
0.000354391
-5.91514e-05
0.000356006
-6.3397e-05
0.000357521
-6.74459e-05
0.000359407
-7.05217e-05
0.000361214
-7.375e-05
0.000363527
-7.60144e-05
0.000365793
-7.89405e-05
0.00036869
-8.08127e-05
0.000371576
-8.39409e-05
0.000375191
-8.56959e-05
0.000378837
-8.93625e-05
0.00038329
-9.10371e-05
0.000387827
-9.53751e-05
0.000393239
-9.67853e-05
0.000398786
-0.000101766
0.000405294
-0.000102576
0.000411931
-0.000108091
0.000419679
-0.00010788
0.00042741
-0.00011385
-0.000112094
0.000436537
0.000349299
7.54575e-06
-0.000349146
0.000349677
3.8129e-07
0.000350224
-7.04069e-06
0.000350926
-1.4508e-05
0.000351702
-2.20433e-05
0.000352594
-2.93652e-05
0.000353496
-3.64875e-05
0.000354487
-4.31431e-05
0.000355429
-4.93967e-05
0.000356478
-5.5015e-05
0.000357454
-6.01276e-05
0.000358616
-6.45588e-05
0.000359713
-6.85433e-05
0.000361132
-7.194e-05
0.000362508
-7.51259e-05
0.00036437
-7.78765e-05
0.000366204
-8.07743e-05
0.000368688
-8.32969e-05
0.000371141
-8.6394e-05
0.000374384
-8.89395e-05
0.000377597
-9.25748e-05
0.000381704
-9.51446e-05
0.000385819
-9.94896e-05
0.000390882
-0.000101849
0.000396053
-0.000106937
0.000402165
-0.000108688
0.000408531
-0.000114457
0.000415794
-0.000115143
0.000423408
-0.000121464
-0.00012065
0.000431964
0.000354556
7.47178e-06
-0.000354482
0.000354812
1.24453e-07
0.000355241
-7.46963e-06
0.000355757
-1.50242e-05
0.000356313
-2.25985e-05
0.000356914
-2.9966e-05
0.000357518
-3.70915e-05
0.000358143
-4.37683e-05
0.000358741
-4.9995e-05
0.000359374
-5.56478e-05
0.000359986
-6.07402e-05
0.000360711
-6.52837e-05
0.000361452
-6.92842e-05
0.00036244
-7.29282e-05
0.00036348
-7.61652e-05
0.000364939
-7.9336e-05
0.00036645
-8.22851e-05
0.000368573
-8.54197e-05
0.000370692
-8.85137e-05
0.000373622
-9.18695e-05
0.000376455
-9.54073e-05
0.000380295
-9.89846e-05
0.000383955
-0.000103149
0.000388781
-0.000106674
0.000393424
-0.00011158
0.000399272
-0.000114536
0.000405094
-0.000120279
0.000411958
-0.000122007
0.000419136
-0.000128642
-0.000128511
0.000426997
0.000357655
7.14814e-06
-0.000357331
0.0003581
-3.20859e-07
0.000358592
-7.96139e-06
0.000359117
-1.5549e-05
0.000359638
-2.31194e-05
0.000360141
-3.04693e-05
0.000360615
-3.7566e-05
0.000361054
-4.42067e-05
0.000361463
-5.04043e-05
0.000361848
-5.60329e-05
0.000362243
-6.11352e-05
0.000362677
-6.57178e-05
0.000363195
-6.98018e-05
0.000363861
-7.35944e-05
0.000364683
-7.69873e-05
0.000365795
-8.04484e-05
0.000367091
-8.35804e-05
0.000368847
-8.71759e-05
0.000370729
-9.03962e-05
0.000373286
-9.44258e-05
0.000375808
-9.79294e-05
0.000379287
-0.000102464
0.00038249
-0.000106352
0.000387002
-0.000111187
0.000390964
-0.000115542
0.000396547
-0.000120119
0.000401412
-0.000125144
0.000407946
-0.000128541
0.000413944
-0.00013464
-0.000135635
0.000421068
0.000360728
6.52981e-06
-0.00036011
0.000361376
-9.69092e-07
0.000362029
-8.61434e-06
0.000362685
-1.62044e-05
0.000363296
-2.37311e-05
0.000363844
-3.10165e-05
0.000364305
-3.80278e-05
0.000364678
-4.45791e-05
0.000364973
-5.06992e-05
0.000365191
-5.62516e-05
0.000365392
-6.13359e-05
0.000365573
-6.58989e-05
0.000365844
-7.00729e-05
0.000366184
-7.3934e-05
0.000366738
-7.75413e-05
0.000367456
-8.11669e-05
0.000368483
-8.46071e-05
0.000369774
-8.84663e-05
0.000371391
-9.20135e-05
0.000373408
-9.64431e-05
0.000375643
-0.000100164
0.00037852
-0.000105341
0.000381324
-0.000109155
0.000385211
-0.000115074
0.000388487
-0.000118818
0.000393483
-0.000125115
0.000397069
-0.00012873
0.000403005
-0.000134477
0.000406748
-0.000138382
-0.000141743
0.000412855
0.000367405
5.9769e-06
-0.000366852
0.000367969
-1.53308e-06
0.000368534
-9.1794e-06
0.000369088
-1.67585e-05
0.000369568
-2.42109e-05
0.000369948
-3.13967e-05
0.000370188
-3.82675e-05
0.000370295
-4.46865e-05
0.000370265
-5.06692e-05
0.000370128
-5.61148e-05
0.000369923
-6.11303e-05
0.000369683
-6.56597e-05
0.000369503
-6.98927e-05
0.000369386
-7.38167e-05
0.000369487
-7.76421e-05
0.000369726
-8.14059e-05
0.000370329
-8.52107e-05
0.000371092
-8.92292e-05
0.000372327
-9.32489e-05
0.000373719
-9.7835e-05
0.000375623
-0.000102068
0.000377709
-0.000107427
0.000380162
-0.000111609
0.00038299
-0.000117902
0.000385655
-0.000121483
0.000389242
-0.000128702
0.000391375
-0.000130862
0.000395488
-0.000138591
0.000395773
-0.000138667
-0.000145451
0.000399481
0.000375671
5.45208e-06
-0.000375146
0.000376163
-2.02537e-06
0.000376619
-9.636e-06
0.000376992
-1.71308e-05
0.000377223
-2.44422e-05
0.000377294
-3.14672e-05
0.000377165
-3.81385e-05
0.000376853
-4.43745e-05
0.000376352
-5.01685e-05
0.00037572
-5.54828e-05
0.000374981
-6.0391e-05
0.000374217
-6.4896e-05
0.000373483
-6.91582e-05
0.000372856
-7.31903e-05
0.000372422
-7.72084e-05
0.000372195
-8.11783e-05
0.000372301
-8.5317e-05
0.000372605
-8.95326e-05
0.000373344
-9.3988e-05
0.000374166
-9.86572e-05
0.000375545
-0.000103447
0.000376781
-0.000108663
0.0003786
-0.000113427
0.000379903
-0.000119205
0.00038151
-0.00012309
0.000382327
-0.000129519
0.000382335
-0.000130871
0.000381912
-0.000138168
0.00037744
-0.000134194
-0.000143043
0.000375032
0.000383642
4.60794e-06
-0.000382798
0.000384325
-2.70837e-06
0.000384847
-1.01582e-05
0.000385169
-1.74525e-05
0.000385253
-2.45268e-05
0.000385076
-3.12896e-05
0.000384615
-3.76782e-05
0.000383895
-4.36543e-05
0.000382935
-4.92086e-05
0.0003818
-5.4348e-05
0.000380531
-5.91218e-05
0.000379226
-6.35905e-05
0.000377936
-6.78686e-05
0.000376781
-7.20355e-05
0.000375804
-7.62315e-05
0.000375099
-8.04731e-05
0.000374669
-8.4887e-05
0.00037451
-8.93737e-05
0.000374597
-9.40749e-05
0.000374754
-9.88143e-05
0.000375115
-0.000103808
0.000375193
-0.000108741
0.000375388
-0.000113623
0.000374389
-0.000118205
0.000373171
-0.000121873
0.000369378
-0.000125726
0.000364851
-0.000126343
0.000356148
-0.000129465
0.000344663
-0.000122709
-0.000128586
0.000330207
0.000393817
3.69333e-06
-0.000392902
0.000394608
-3.49962e-06
0.000395051
-1.06007e-05
0.000395225
-1.76274e-05
0.000395106
-2.4407e-05
0.000394602
-3.07859e-05
0.000393721
-3.6797e-05
0.000392501
-4.24348e-05
0.000390991
-4.76977e-05
0.000389253
-5.26102e-05
0.000387358
-5.7227e-05
0.000385399
-6.1632e-05
0.000383455
-6.59244e-05
0.000381632
-7.02121e-05
0.000379984
-7.45839e-05
0.000378594
-7.90827e-05
0.000377422
-8.37154e-05
0.000376462
-8.84133e-05
0.000375505
-9.3118e-05
0.000374346
-9.76556e-05
0.000372692
-0.000102153
0.000370349
-0.000106398
0.000367005
-0.000110279
0.000361788
-0.000112989
0.000354511
-0.000114596
0.000343384
-0.000114599
0.000329704
-0.000112664
0.000309248
-0.000109009
0.000286611
-0.000100072
-9.67581e-05
0.000254783
0.000407429
2.48577e-06
-0.000406221
0.000408202
-4.27247e-06
0.000408693
-1.10924e-05
0.00040865
-1.75838e-05
0.000408021
-2.37784e-05
0.000406904
-2.9669e-05
0.000405344
-3.52365e-05
0.00040338
-4.04711e-05
0.000401072
-4.53901e-05
0.000398498
-5.00355e-05
0.000395746
-5.44756e-05
0.000392907
-5.87928e-05
0.000390058
-6.30755e-05
0.000387257
-6.74107e-05
0.000384534
-7.18617e-05
0.000381894
-7.64424e-05
0.000379261
-8.10823e-05
0.000376479
-8.56315e-05
0.000373233
-8.9872e-05
0.000369126
-9.35485e-05
0.000363424
-9.64509e-05
0.000355836
-9.88106e-05
0.000345675
-0.000100118
0.000332379
-9.96932e-05
0.00031502
-9.72362e-05
0.000292596
-9.21748e-05
0.000264665
-8.47329e-05
0.000230545
-7.48895e-05
0.000193073
-6.26002e-05
-5.10262e-05
0.000147341
0.000423152
-8.89839e-08
-0.000420577
0.000424518
-5.63881e-06
0.000424918
-1.14921e-05
0.000424607
-1.72728e-05
0.000423638
-2.28095e-05
0.000422004
-2.80346e-05
0.000419724
-3.29572e-05
0.000416862
-3.76085e-05
0.000413501
-4.20295e-05
0.000409735
-4.62694e-05
0.000405657
-5.03981e-05
0.000401349
-5.44844e-05
0.000396864
-5.85902e-05
0.000392187
-6.27338e-05
0.000387212
-6.68866e-05
0.00038178
-7.10104e-05
0.000375648
-7.49503e-05
0.000368453
-7.84366e-05
0.000359759
-8.11781e-05
0.000349157
-8.29467e-05
0.000335891
-8.3184e-05
0.000318804
-8.17237e-05
0.000297074
-7.8388e-05
0.000270456
-7.30752e-05
0.000239236
-6.60161e-05
0.000202951
-5.58899e-05
0.000160558
-4.23397e-05
0.000115104
-2.94361e-05
7.35321e-05
-2.10279e-05
-1.68863e-05
3.93922e-05
0.000448442
-3.22593e-07
-0.000448208
0.000448935
-6.13195e-06
0.000448696
-1.12526e-05
0.000447447
-1.6024e-05
0.000445153
-2.05152e-05
0.000441879
-2.47616e-05
0.000437699
-2.87763e-05
0.000432671
-3.25812e-05
0.00042686
-3.62178e-05
0.000420332
-3.9742e-05
0.000413161
-4.32267e-05
0.000405398
-4.67219e-05
0.000397074
-5.02662e-05
0.000388116
-5.37758e-05
0.000378104
-5.68741e-05
0.000366586
-5.94923e-05
0.000353071
-6.14356e-05
0.000336797
-6.21629e-05
0.000317116
-6.14966e-05
0.000293854
-5.96844e-05
0.000268076
-5.74068e-05
0.00023797
-5.16169e-05
0.000201843
-4.22613e-05
0.000159948
-3.11803e-05
0.000115003
-2.10707e-05
7.22182e-05
-1.31054e-05
3.61942e-05
-6.31578e-06
8.79076e-06
-2.0326e-06
-1.00309e-05
-2.20627e-06
-5.44986e-06
-2.14673e-05
0.000482287
-2.80944e-06
-0.0004798
0.000481929
-5.77378e-06
0.000479608
-8.9314e-06
0.000475652
-1.20679e-05
0.000470168
-1.50315e-05
0.000463184
-1.77772e-05
0.00045472
-2.03127e-05
0.000444803
-2.2664e-05
0.000433439
-2.48544e-05
0.000420609
-2.69116e-05
0.000406245
-2.88629e-05
0.000390248
-3.07247e-05
0.000372478
-3.24968e-05
0.000352815
-3.41123e-05
0.000331453
-3.55124e-05
0.000308613
-3.66525e-05
0.000282624
-3.54464e-05
0.000252155
-3.16936e-05
0.000216507
-2.58488e-05
0.000176301
-1.94781e-05
0.00013264
-1.37456e-05
9.03479e-05
-9.32523e-06
5.29754e-05
-4.88878e-06
2.24273e-05
-6.32298e-07
-1.0232e-06
2.37984e-06
-1.70132e-05
2.88455e-06
-2.59016e-05
2.57265e-06
-3.01937e-05
2.25947e-06
-3.37612e-05
1.36129e-06
-3.27457e-07
-3.88836e-05
0.00045848
-0.000461289
0.000452706
0.000443775
0.000431707
0.000416675
0.000398898
0.000378585
0.000355921
0.000331067
0.000304155
0.000275292
0.000244568
0.000212071
0.000177959
0.000142446
0.000105794
7.03473e-05
3.86537e-05
1.28049e-05
-6.67322e-06
-2.04188e-05
-2.9744e-05
-3.46328e-05
-3.52651e-05
-3.28853e-05
-3.00007e-05
-2.74281e-05
-2.51686e-05
-2.38073e-05
-2.41348e-05
0.000397866
0.00037602
0.000353342
0.000328486
0.000301811
0.000275876
0.000250911
0.000224871
0.000197736
0.000169995
0.000140131
0.000111482
7.52061e-05
4.04524e-05
0.000451692
5.73251e-06
0.000442802
8.88953e-06
0.000430777
1.20253e-05
0.000415789
1.49883e-05
0.000398055
1.77335e-05
0.000377787
2.02687e-05
0.000355167
2.26197e-05
0.000330357
2.48095e-05
0.000303492
2.68656e-05
0.000274677
2.88151e-05
0.000244003
3.06737e-05
0.000211562
3.2441e-05
0.000177513
3.40489e-05
0.000142074
3.54388e-05
0.000105514
3.656e-05
7.01813e-05
3.5333e-05
3.86142e-05
3.15671e-05
1.28843e-05
2.57298e-05
-6.4919e-06
1.93762e-05
-2.01715e-05
1.36796e-05
-2.94438e-05
9.27228e-06
-3.42882e-05
4.84441e-06
-3.49037e-05
6.1552e-07
-3.25537e-05
-2.34999e-06
-2.97072e-05
-2.84648e-06
-2.71416e-05
-2.56565e-06
-2.48467e-05
-2.29491e-06
-2.34079e-05
-1.43877e-06
2.18941e-07
-2.36268e-05
0.000480906
6.05702e-06
0.000478617
1.11787e-05
0.000474692
1.595e-05
0.000469239
2.04416e-05
0.000462284
2.46888e-05
0.000453848
2.87048e-05
0.000443957
3.25108e-05
0.000432618
3.61484e-05
0.00041981
3.96729e-05
0.000405468
4.31571e-05
0.000389492
4.66501e-05
0.000371743
5.01904e-05
0.000352099
5.36921e-05
0.000330769
5.6769e-05
0.000307942
5.93869e-05
0.000281959
6.13165e-05
0.000251495
6.20305e-05
0.000215873
6.1352e-05
0.000175714
5.9535e-05
0.000132153
5.72407e-05
9.00117e-05
5.1414e-05
5.28095e-05
4.20466e-05
2.2424e-05
3.1001e-05
-8.62954e-07
2.09369e-05
-1.67079e-05
1.29984e-05
-2.54737e-05
6.20015e-06
-2.96758e-05
1.90721e-06
-3.31391e-05
2.0245e-06
5.15625e-06
-3.80764e-05
0.000448008
5.54243e-06
0.000447792
1.13943e-05
0.000446567
1.7175e-05
0.000444296
2.27126e-05
0.000441046
2.79389e-05
0.000436888
3.28632e-05
0.000431882
3.75163e-05
0.000426091
4.19394e-05
0.000419583
4.6181e-05
0.00041243
5.03106e-05
0.000404683
5.43967e-05
0.000396373
5.85008e-05
0.000387424
6.26404e-05
0.000377406
6.67876e-05
0.000365887
7.09054e-05
0.000352368
7.48362e-05
0.000336087
7.83111e-05
0.0003164
8.10385e-05
0.000293148
8.27875e-05
0.000267384
8.30042e-05
0.000237271
8.1527e-05
0.000201151
7.81672e-05
0.000159323
7.28288e-05
0.000114516
6.57442e-05
7.19594e-05
5.55547e-05
3.61702e-05
4.19894e-05
8.96787e-06
2.91095e-05
-9.67958e-06
2.06719e-05
1.64552e-05
-2.09786e-05
0.000423676
4.14898e-06
0.000424097
1.09732e-05
0.000423806
1.74666e-05
0.000422855
2.3663e-05
0.000421238
2.95558e-05
0.000418976
3.5126e-05
0.000416128
4.03634e-05
0.000412782
4.52855e-05
0.00040903
4.99338e-05
0.000404964
5.43763e-05
0.000400665
5.86952e-05
0.000396188
6.29787e-05
0.000391514
6.73137e-05
0.000386539
7.17631e-05
0.000381104
7.63399e-05
0.000374967
8.0974e-05
0.000367763
8.55148e-05
0.000359058
8.97438e-05
0.000348441
9.34044e-05
0.000335151
9.62938e-05
0.000318042
9.8636e-05
0.000296298
9.99114e-05
0.000269683
9.94434e-05
0.000238496
9.69316e-05
0.000202238
9.1813e-05
0.000159921
8.43058e-05
0.000114641
7.43901e-05
7.32926e-05
6.20201e-05
5.03697e-05
3.93781e-05
0.000407433
3.37208e-06
0.000407936
1.04703e-05
0.000407906
1.74965e-05
0.000407291
2.42783e-05
0.000406187
3.06598e-05
0.000404639
3.66739e-05
0.000402687
4.23151e-05
0.000400391
4.75818e-05
0.000397826
5.24982e-05
0.000395084
5.71189e-05
0.000392252
6.15273e-05
0.000389408
6.58226e-05
0.000386609
7.01123e-05
0.000383888
7.44847e-05
0.000381245
7.89824e-05
0.000378607
8.36121e-05
0.000375816
8.83055e-05
0.000372558
9.30025e-05
0.000368431
9.75311e-05
0.000362708
0.000102017
0.000355099
0.000106244
0.000344914
0.000110096
0.000331593
0.000112765
0.0003142
0.000114324
0.000291752
0.000114261
0.000263802
0.000112256
0.000229705
0.000108487
0.000192245
9.94799e-05
9.59972e-05
0.000146617
0.000393896
2.56568e-06
0.000394348
1.00176e-05
0.000394533
1.73123e-05
0.000394423
2.43878e-05
0.00039393
3.11532e-05
0.000393058
3.75453e-05
0.000391848
4.35257e-05
0.000390345
4.90846e-05
0.000388614
5.42289e-05
0.000386725
5.90077e-05
0.000384771
6.34814e-05
0.00038283
6.77638e-05
0.000381008
7.19348e-05
0.000379359
7.6133e-05
0.000377965
8.03763e-05
0.000376788
8.47897e-05
0.000375819
8.92747e-05
0.000374849
9.39723e-05
0.000373674
9.87056e-05
0.000372001
0.000103691
0.000369639
0.000108606
0.000366264
0.000113471
0.000361015
0.000118014
0.000353685
0.000121654
0.00034251
0.000125436
0.000328754
0.000126012
0.000308223
0.000129019
0.000285505
0.000122198
0.000127932
0.00025357
0.000383666
1.87695e-06
0.000384195
9.48869e-06
0.000384524
1.6984e-05
0.000384615
2.42965e-05
0.000384444
3.13242e-05
0.00038399
3.7999e-05
0.000383276
4.42399e-05
0.000382322
5.00389e-05
0.000381191
5.53594e-05
0.000379925
6.02733e-05
0.000378622
6.47848e-05
0.000377333
6.90527e-05
0.000376178
7.30905e-05
0.000375197
7.71132e-05
0.000374487
8.10864e-05
0.000374049
8.52283e-05
0.00037388
8.94431e-05
0.000373952
9.39004e-05
0.000374095
9.85624e-05
0.000374434
0.000103352
0.000374492
0.000108549
0.000374654
0.000113309
0.000373615
0.000119052
0.000372344
0.000122926
0.000368477
0.000129304
0.000363866
0.000130622
0.000355024
0.000137861
0.000343425
0.000133797
0.000142611
0.000328746
0.000375545
1.38111e-06
0.000376006
9.02773e-06
0.000376383
1.6607e-05
0.000376619
2.40601e-05
0.000376695
3.1249e-05
0.00037657
3.81232e-05
0.000376263
4.45478e-05
0.000375766
5.05359e-05
0.000375136
5.59886e-05
0.000374399
6.10109e-05
0.000373636
6.5548e-05
0.0003729
6.97886e-05
0.000372271
7.37195e-05
0.000371831
7.75526e-05
0.000371597
8.13208e-05
0.000371692
8.51328e-05
0.000371984
8.91519e-05
0.000372707
9.31775e-05
0.00037351
9.77591e-05
0.000374867
0.000101995
0.000376072
0.000107344
0.000377859
0.000111521
0.000379107
0.000117805
0.000380667
0.000121366
0.000381386
0.000128584
0.000381315
0.000130693
0.000380726
0.00013845
0.00037611
0.000138412
0.000145267
0.000373454
0.000367385
8.13746e-07
0.000367953
8.45943e-06
0.000368511
1.60497e-05
0.000368994
2.35768e-05
0.000369378
3.08655e-05
0.00036962
3.78804e-05
0.000369731
4.44378e-05
0.000369703
5.05638e-05
0.000369567
5.61242e-05
0.000369362
6.12163e-05
0.000369121
6.57884e-05
0.000368939
6.99713e-05
0.000368816
7.38416e-05
0.000368911
7.74579e-05
0.00036914
8.1092e-05
0.000369733
8.45397e-05
0.000370478
8.84066e-05
0.000371699
9.19571e-05
0.000373063
9.63952e-05
0.000374945
0.000100112
0.000376987
0.000105303
0.000379409
0.000109099
0.000382167
0.000115046
0.000384781
0.000118752
0.000388261
0.000125104
0.000390299
0.000128655
0.000394254
0.000134495
0.000394359
0.000138307
0.000141791
0.000397835
0.000360836
1.62503e-07
0.000361489
7.80643e-06
0.000362145
1.53934e-05
0.000362758
2.2964e-05
0.000363306
3.03177e-05
0.000363769
3.74178e-05
0.000364141
4.40654e-05
0.000364436
5.02687e-05
0.000364653
5.59068e-05
0.000364853
6.10166e-05
0.00036503
6.56111e-05
0.000365299
6.97031e-05
0.00036563
7.35101e-05
0.000366179
7.69096e-05
0.000366883
8.03878e-05
0.0003679
8.35223e-05
0.000369168
8.71391e-05
0.00037077
9.03544e-05
0.000372753
9.44125e-05
0.000374964
9.79004e-05
0.000377791
0.000102477
0.000380555
0.000106335
0.00038437
0.000111231
0.000387577
0.000115545
0.00039247
0.000120211
0.000395937