/*--------------------------------*- C++ -*----------------------------------*\
| =========                 |                                                 |
| \\      /  F ield         | OpenFOAM: The Open Source CFD Toolbox           |
|  \\    /   O peration     | Version:  2312                                  |
|   \\  /    A nd           | Website:  www.openfoam.com                      |
|    \\/     M anipulation  |                                                 |
\*---------------------------------------------------------------------------*/
FoamFile
{
    version     2.0;
    format      ascii;
    arch        "LSB;label=32;scalar=64";
    class       surfaceScalarField;
    location    "19000";
    object      phi;
}
// * * * * * * * * * * * * * * * * * * * * * * * * * * * * * * * * * * * * * //

dimensions      [0 3 -1 0 0 0 0];

oriented        oriented;

internalField   nonuniform List<scalar> 
21240
(
0.000664975
1.69195e-06
0.000661073
3.90149e-06
0.000655754
5.31928e-06
0.00064952
6.23408e-06
0.000642648
6.87196e-06
0.00063528
7.36759e-06
0.000627509
7.77143e-06
0.000619412
8.09653e-06
0.000611063
8.34886e-06
0.000602526
8.53739e-06
0.000593852
8.67439e-06
0.00058508
8.77215e-06
0.000576239
8.84025e-06
0.000567354
8.88497e-06
0.000558444
8.91012e-06
0.000549526
8.9181e-06
0.000540615
8.9107e-06
0.000531726
8.88944e-06
0.00052287
8.8556e-06
0.00051406
8.81019e-06
0.000505306
8.75398e-06
0.000496619
8.6875e-06
0.000488008
8.6111e-06
0.000479483
8.52494e-06
0.000471053
8.42926e-06
0.000462729
8.3241e-06
0.00045452
8.20946e-06
0.000446435
8.08518e-06
0.000438483
7.95142e-06
0.000430675
7.80801e-06
0.00042302
7.65502e-06
0.000415528
7.49176e-06
0.00040821
7.31873e-06
0.000401074
7.13545e-06
0.000394131
6.9428e-06
0.000387392
6.73903e-06
0.000380867
6.52554e-06
0.000374567
6.30035e-06
0.000368499
6.06739e-06
0.000362677
5.82248e-06
0.000357106
5.57068e-06
0.000351803
5.30281e-06
0.000346773
5.03011e-06
0.000342033
4.73955e-06
0.000337578
4.45501e-06
0.000333428
4.15004e-06
0.000329565
3.86295e-06
0.00032603
3.53543e-06
0.000322793
3.23693e-06
0.000319936
2.85706e-06
0.000317395
2.54114e-06
0.000315316
2.0787e-06
0.000313539
1.77759e-06
0.000312351
1.18805e-06
0.000311349
1.00167e-06
0.000311219
1.30413e-07
0.000310893
3.25538e-07
0.000312231
-1.33757e-06
0.00031213
1.00989e-07
-3.89334e-06
0.000316023
0.000667556
8.0249e-07
0.000669121
2.33635e-06
0.000670856
3.58472e-06
0.000672529
4.5614e-06
0.00067406
5.34077e-06
0.000675436
5.9916e-06
0.000676652
6.55549e-06
0.000677697
7.05081e-06
0.000678562
7.48457e-06
0.000679238
7.86119e-06
0.000679726
8.18626e-06
0.000680032
8.46665e-06
0.000680162
8.70933e-06
0.000680127
8.92011e-06
0.000679934
9.10325e-06
0.000679591
9.26164e-06
0.000679104
9.39734e-06
0.000678482
9.51184e-06
0.000677731
9.60654e-06
0.000676858
9.68242e-06
0.000675872
9.74049e-06
0.000674778
9.78123e-06
0.000673584
9.80531e-06
0.000672296
9.81276e-06
0.000670921
9.80412e-06
0.000669466
9.77903e-06
0.000667938
9.73801e-06
0.000666343
9.6802e-06
0.000664688
9.60651e-06
0.00066298
9.51552e-06
0.000661227
9.40872e-06
0.000659435
9.28363e-06
0.000657611
9.14278e-06
0.000655764
8.98232e-06
0.0006539
8.80686e-06
0.000652029
8.60999e-06
0.000650155
8.39956e-06
0.00064829
8.16473e-06
0.000646439
7.91919e-06
0.000644616
7.64479e-06
0.000642822
7.36516e-06
0.000641075
7.04953e-06
0.000639367
6.73789e-06
0.000637728
6.37851e-06
0.000636145
6.03864e-06
0.000634662
5.63243e-06
0.000633255
5.27041e-06
0.000631979
4.8112e-06
0.000630782
4.43402e-06
0.000629728
3.91063e-06
0.000628738
3.53135e-06
0.000627885
2.93209e-06
0.000627083
2.57985e-06
0.000626378
1.89273e-06
0.000625765
1.61443e-06
0.000625073
8.22537e-07
0.000624726
6.72567e-07
0.000623632
-2.43652e-07
0.00062397
-2.36653e-07
-1.10096e-06
0.000621177
0.000666951
5.18026e-07
0.000667819
1.46817e-06
0.00066906
2.34384e-06
0.000670486
3.13511e-06
0.000671989
3.8378e-06
0.000673522
4.45953e-06
0.000675065
5.01249e-06
0.000676608
5.50775e-06
0.000678139
5.9531e-06
0.000679647
6.35341e-06
0.000681121
6.71216e-06
0.000682555
7.03261e-06
0.000683946
7.3182e-06
0.000685294
7.57238e-06
0.000686599
7.79834e-06
0.000687862
7.99869e-06
0.000689083
8.17554e-06
0.000690265
8.33041e-06
0.000691407
8.46466e-06
0.00069251
8.57921e-06
0.000693575
8.67501e-06
0.000694604
8.75255e-06
0.000695597
8.81251e-06
0.000696555
8.85496e-06
0.000697478
8.88048e-06
0.000698369
8.88876e-06
0.000699226
8.8803e-06
0.000700052
8.8543e-06
0.000700847
8.81149e-06
0.000701612
8.75061e-06
0.000702348
8.67291e-06
0.000703055
8.57623e-06
0.000703736
8.46258e-06
0.000704389
8.32854e-06
0.000705018
8.17783e-06
0.000705623
8.00505e-06
0.000706206
7.81665e-06
0.000706767
7.60363e-06
0.00070731
7.37685e-06
0.000707833
7.12162e-06
0.000708342
6.85629e-06
0.000708834
6.55736e-06
0.000709317
6.25466e-06
0.000709784
5.91118e-06
0.00071025
5.5728e-06
0.000710699
5.18397e-06
0.000711158
4.81124e-06
0.000711592
4.37678e-06
0.000712056
3.9708e-06
0.000712475
3.49165e-06
0.000712952
3.05387e-06
0.000713351
2.53342e-06
0.000713862
2.06826e-06
0.000714238
1.51676e-06
0.000714817
1.03568e-06
0.000715161
4.78322e-07
0.000715848
-1.42162e-08
0.000716076
-4.71219e-07
0.000716758
-9.19391e-07
-1.24337e-06
0.000716901
0.000666854
3.30773e-07
0.000667309
1.0131e-06
0.000667973
1.67998e-06
0.000668797
2.31071e-06
0.000669739
2.89604e-06
0.000670765
3.43306e-06
0.000671855
3.9233e-06
0.000672992
4.37039e-06
0.000674167
4.77819e-06
0.00067537
5.14991e-06
0.000676595
5.48802e-06
0.000677833
5.79454e-06
0.000679079
6.07139e-06
0.000680331
6.32052e-06
0.000681586
6.54388e-06
0.000682841
6.74328e-06
0.000684096
6.9203e-06
0.000685351
7.07625e-06
0.000686603
7.21219e-06
0.000687853
7.32902e-06
0.000689101
7.42744e-06
0.000690345
7.50802e-06
0.000691587
7.57118e-06
0.000692824
7.61728e-06
0.000694058
7.64654e-06
0.000695288
7.65914e-06
0.000696513
7.65506e-06
0.000697733
7.63429e-06
0.000698948
7.59669e-06
0.000700156
7.54218e-06
0.000701359
7.47059e-06
0.000702553
7.38171e-06
0.000703741
7.27518e-06
0.000704919
7.15069e-06
0.000706088
7.00798e-06
0.000707247
6.84673e-06
0.000708396
6.66695e-06
0.000709532
6.46789e-06
0.000710659
6.24976e-06
0.00071177
6.01126e-06
0.000712873
5.75331e-06
0.000713955
5.47448e-06
0.000715034
5.17627e-06
0.000716088
4.85739e-06
0.000717142
4.518e-06
0.000718167
4.15923e-06
0.000719202
3.77656e-06
0.000720198
3.38055e-06
0.000721214
2.95447e-06
0.000722176
2.52962e-06
0.000723169
2.06166e-06
0.000724082
1.62015e-06
0.000725041
1.10957e-06
0.000725889
6.67841e-07
0.000726807
1.1816e-07
0.000727608
-3.22392e-07
0.000728556
-9.62825e-07
0.00072941
-1.3244e-06
0.000730521
-2.03116e-06
-2.26843e-06
0.000731546
0.000666738
2.59035e-07
0.00066697
7.81708e-07
0.000667356
1.2934e-06
0.00066788
1.7871e-06
0.000668519
2.2569e-06
0.000669253
2.69918e-06
0.000670064
3.11246e-06
0.000670937
3.4968e-06
0.000671863
3.85304e-06
0.00067283
4.18228e-06
0.000673833
4.48557e-06
0.000674863
4.76386e-06
0.000675917
5.01805e-06
0.000676988
5.24908e-06
0.000678074
5.45793e-06
0.000679172
5.6456e-06
0.000680279
5.81301e-06
0.000681394
5.96105e-06
0.000682516
6.09041e-06
0.000683643
6.20178e-06
0.000684775
6.29561e-06
0.000685911
6.37242e-06
0.000687049
6.43243e-06
0.000688191
6.47605e-06
0.000689334
6.50331e-06
0.000690479
6.51458e-06
0.000691624
6.50959e-06
0.00069277
6.4887e-06
0.000693915
6.45137e-06
0.000695059
6.39811e-06
0.000696201
6.32809e-06
0.000697341
6.24199e-06
0.000698478
6.13846e-06
0.00069961
6.01859e-06
0.000700738
5.88044e-06
0.000701858
5.72591e-06
0.000702973
5.55218e-06
0.000704079
5.36217e-06
0.000705177
5.15146e-06
0.000706264
4.92477e-06
0.000707341
4.67554e-06
0.000708404
4.41186e-06
0.000709457
4.1233e-06
0.000710491
3.82313e-06
0.000711516
3.49359e-06
0.000712518
3.15675e-06
0.000713512
2.78282e-06
0.000714483
2.40982e-06
0.000715449
1.9878e-06
0.000716397
1.5816e-06
0.000717353
1.10588e-06
0.000718303
6.70099e-07
0.000719288
1.24621e-07
0.000720267
-3.10868e-07
0.000721282
-8.97292e-07
0.000722297
-1.33732e-06
0.00072335
-2.01599e-06
0.000724454
-2.42818e-06
0.000725643
-3.21985e-06
-3.58132e-06
0.000726956
0.000666724
2.01641e-07
0.000666899
6.06588e-07
0.000667184
1.00865e-06
0.00066757
1.40129e-06
0.000668046
1.78079e-06
0.000668601
2.14419e-06
0.000669224
2.48941e-06
0.000669906
2.8152e-06
0.000670638
3.12098e-06
0.000671413
3.40658e-06
0.000672227
3.67207e-06
0.000673073
3.91768e-06
0.000673947
4.14373e-06
0.000674846
4.35063e-06
0.000675765
4.53882e-06
0.000676702
4.70879e-06
0.000677654
4.86101e-06
0.000678619
4.99599e-06
0.000679595
5.11411e-06
0.000680581
5.21583e-06
0.000681575
5.30142e-06
0.000682576
5.37124e-06
0.000683583
5.4254e-06
0.000684595
5.46422e-06
0.000685611
5.48765e-06
0.000686629
5.49601e-06
0.00068765
5.48902e-06
0.000688672
5.46699e-06
0.000689694
5.42943e-06
0.000690715
5.3768e-06
0.000691735
5.3083e-06
0.000692752
5.22459e-06
0.000693766
5.12435e-06
0.000694776
5.00869e-06
0.000695781
4.87566e-06
0.00069678
4.72719e-06
0.000697771
4.56032e-06
0.000698756
4.37804e-06
0.000699731
4.1757e-06
0.000700698
3.95821e-06
0.000701655
3.71846e-06
0.000702602
3.46476e-06
0.00070354
3.18585e-06
0.000704468
2.89514e-06
0.000705387
2.57457e-06
0.000706297
2.24597e-06
0.000707199
1.88133e-06
0.000708092
1.51623e-06
0.000708973
1.10725e-06
0.000709844
7.10553e-07
0.000710691
2.58472e-07
0.000711535
-1.73066e-07
0.000712363
-7.0384e-07
0.000713223
-1.17098e-06
0.00071409
-1.76364e-06
0.000715002
-2.24964e-06
0.000715916
-2.93023e-06
0.000716913
-3.42479e-06
0.000717911
-4.21789e-06
-4.69788e-06
0.000719027
0.000666708
1.59951e-07
0.000666833
4.81478e-07
0.00066704
8.01978e-07
0.000667325
1.11688e-06
0.000667682
1.42363e-06
0.000668106
1.72007e-06
0.000668591
2.00447e-06
0.00066913
2.27557e-06
0.000669719
2.5326e-06
0.00067035
2.7752e-06
0.00067102
3.00193e-06
0.000671725
3.21292e-06
0.000672461
3.40827e-06
0.000673223
3.58807e-06
0.000674009
3.7524e-06
0.000674817
3.90143e-06
0.000675643
4.03533e-06
0.000676484
4.15433e-06
0.00067734
4.2586e-06
0.000678207
4.34839e-06
0.000679085
4.4238e-06
0.000679971
4.48503e-06
0.000680864
4.53211e-06
0.000681763
4.56522e-06
0.000682667
4.58428e-06
0.000683573
4.58946e-06
0.000684482
4.58054e-06
0.000685391
4.55768e-06
0.0006863
4.5205e-06
0.000687207
4.46926e-06
0.000688112
4.40335e-06
0.000689014
4.32314e-06
0.000689911
4.22766e-06
0.000690802
4.11756e-06
0.000691686
3.99144e-06
0.000692563
3.8505e-06
0.00069343
3.69257e-06
0.000694289
3.51958e-06
0.000695136
3.32813e-06
0.000695973
3.12163e-06
0.000696796
2.89494e-06
0.000697607
2.65397e-06
0.000698403
2.39054e-06
0.000699184
2.114e-06
0.000699947
1.81092e-06
0.000700697
1.49619e-06
0.00070143
1.14867e-06
0.000702154
7.92162e-07
0.000702867
3.93732e-07
0.00070359
-1.2387e-08
0.000704299
-4.50106e-07
0.000705014
-8.87923e-07
0.000705707
-1.39684e-06
0.000706419
-1.88326e-06
0.000707121
-2.46524e-06
0.000707863
-2.99204e-06
0.000708592
-3.65939e-06
0.000709393
-4.22511e-06
0.000710182
-5.00729e-06
-5.60757e-06
0.000711092
0.000666699
1.27981e-07
0.000666795
3.8485e-07
0.000666956
6.4125e-07
0.000667179
8.93979e-07
0.000667461
1.14128e-06
0.0006678
1.38161e-06
0.000668191
1.61363e-06
0.00066863
1.83623e-06
0.000669114
2.04851e-06
0.000669639
2.24973e-06
0.000670202
2.43926e-06
0.000670798
2.61667e-06
0.000671425
2.78172e-06
0.000672079
2.93429e-06
0.000672757
3.07429e-06
0.000673457
3.20168e-06
0.000674175
3.31644e-06
0.000674911
3.4186e-06
0.000675662
3.50816e-06
0.000676425
3.58521e-06
0.000677199
3.64974e-06
0.000677982
3.70182e-06
0.000678773
3.74141e-06
0.000679569
3.76857e-06
0.00068037
3.78322e-06
0.000681175
3.78538e-06
0.00068198
3.77487e-06
0.000682786
3.75172e-06
0.000683591
3.71566e-06
0.000684394
3.66672e-06
0.000685192
3.60452e-06
0.000685986
3.5291e-06
0.000686774
3.43986e-06
0.000687555
3.33696e-06
0.000688327
3.21959e-06
0.000689089
3.08814e-06
0.00068984
2.94138e-06
0.00069058
2.77998e-06
0.000691306
2.60202e-06
0.000692019
2.40888e-06
0.000692716
2.19772e-06
0.000693399
1.97108e-06
0.000694065
1.72443e-06
0.000694717
1.46202e-06
0.000695351
1.17687e-06
0.000695971
8.76321e-07
0.000696569
5.50378e-07
0.00069715
2.11622e-07
0.000697704
-1.60565e-07
0.000698243
-5.51826e-07
0.000698771
-9.77813e-07
0.000699298
-1.41499e-06
0.000699801
-1.89989e-06
0.000700311
-2.3935e-06
0.000700795
-2.94932e-06
0.000701306
-3.50273e-06
0.000701786
-4.13963e-06
0.000702317
-4.75533e-06
0.0007028
-5.49076e-06
-6.17289e-06
0.000703365
0.000666693
1.01894e-07
0.000666771
3.06252e-07
0.000666902
5.10376e-07
0.000667084
7.11928e-07
0.000667316
9.09669e-07
0.000667595
1.10247e-06
0.000667919
1.2893e-06
0.000668286
1.46928e-06
0.000668693
1.64161e-06
0.000669137
1.80565e-06
0.000669616
1.96085e-06
0.000670126
2.10679e-06
0.000670664
2.24311e-06
0.000671229
2.36954e-06
0.000671817
2.48589e-06
0.000672427
2.59201e-06
0.000673056
2.68776e-06
0.000673701
2.77307e-06
0.000674362
2.84785e-06
0.000675035
2.91205e-06
0.000675719
2.96563e-06
0.000676412
3.00854e-06
0.000677113
3.0407e-06
0.000677819
3.06209e-06
0.00067853
3.07261e-06
0.000679243
3.07218e-06
0.000679957
3.06069e-06
0.000680671
3.038e-06
0.000681383
3.00398e-06
0.000682091
2.95846e-06
0.000682794
2.90126e-06
0.000683491
2.83213e-06
0.00068418
2.75079e-06
0.00068486
2.657e-06
0.000685529
2.55044e-06
0.000686187
2.43083e-06
0.00068683
2.2977e-06
0.00068746
2.1507e-06
0.000688072
1.98918e-06
0.000688668
1.81288e-06
0.000689245
1.62102e-06
0.000689803
1.41354e-06
0.000690338
1.18921e-06
0.000690852
9.48083e-07
0.000691341
6.88202e-07
0.000691807
4.09817e-07
0.000692247
1.10501e-07
0.000692669
-2.1028e-07
0.000693063
-5.54695e-07
0.000693434
-9.2315e-07
0.000693775
-1.31809e-06
0.000694099
-1.7397e-06
0.00069439
-2.19109e-06
0.000694671
-2.67432e-06
0.000694913
-3.19128e-06
0.000695155
-3.74488e-06
0.000695353
-4.33685e-06
0.000695568
-4.97099e-06
0.000695729
-5.65172e-06
-6.38087e-06
0.000695937
0.000666689
7.99277e-08
0.000666755
2.40157e-07
0.000666865
4.00264e-07
0.000667018
5.58515e-07
0.000667214
7.14013e-07
0.00066745
8.65932e-07
0.000667726
1.01351e-06
0.000668039
1.15604e-06
0.000668388
1.29293e-06
0.00066877
1.42362e-06
0.000669183
1.54765e-06
0.000669626
1.66461e-06
0.000670095
1.77417e-06
0.000670588
1.87602e-06
0.000671104
1.96994e-06
0.00067164
2.05571e-06
0.000672195
2.13318e-06
0.000672766
2.20219e-06
0.000673351
2.26264e-06
0.000673949
2.31441e-06
0.000674557
2.35742e-06
0.000675174
2.39154e-06
0.000675798
2.41672e-06
0.000676427
2.43284e-06
0.00067706
2.43982e-06
0.000677694
2.43751e-06
0.000678329
2.42584e-06
0.000678963
2.40459e-06
0.000679593
2.3737e-06
0.000680219
2.33289e-06
0.000680838
2.28209e-06
0.000681449
2.2209e-06
0.000682051
2.14927e-06
0.000682641
2.06666e-06
0.000683218
1.97312e-06
0.000683781
1.86791e-06
0.000684328
1.75115e-06
0.000684857
1.62176e-06
0.000685366
1.48005e-06
0.000685854
1.32457e-06
0.000686319
1.15605e-06
0.00068676
9.72421e-07
0.000687174
7.74883e-07
0.000687562
5.60391e-07
0.000687919
3.31177e-07
0.000688246
8.34314e-08
0.00068854
-1.83705e-07
0.000688804
-4.74785e-07
0.000689031
-7.81709e-07
0.000689225
-1.11718e-06
0.000689376
-1.46925e-06
0.000689495
-1.85835e-06
0.000689566
-2.26242e-06
0.000689607
-2.71496e-06
0.000689593
-3.17755e-06
0.000689553
-3.70487e-06
0.00068945
-4.23319e-06
0.000689329
-4.8506e-06
0.000689131
-5.45368e-06
-6.18146e-06
0.000688932
0.000666686
6.09141e-08
0.000666743
1.82988e-07
0.000666838
3.04996e-07
0.000666971
4.25666e-07
0.000667141
5.44352e-07
0.000667346
6.60454e-07
0.000667586
7.73413e-07
0.00066786
8.8271e-07
0.000668165
9.87875e-07
0.0006685
1.08848e-06
0.000668863
1.18415e-06
0.000669253
1.27454e-06
0.000669668
1.35935e-06
0.000670106
1.43832e-06
0.000670565
1.51123e-06
0.000671042
1.57787e-06
0.000671537
1.63807e-06
0.000672048
1.69168e-06
0.000672572
1.73857e-06
0.000673108
1.77862e-06
0.000673654
1.81172e-06
0.000674207
1.83774e-06
0.000674767
1.8566e-06
0.000675332
1.86817e-06
0.0006759
1.87239e-06
0.000676468
1.86907e-06
0.000677036
1.85817e-06
0.000677601
1.83943e-06
0.000678162
1.81285e-06
0.000678716
1.7781e-06
0.000679263
1.7352e-06
0.000679801
1.68365e-06
0.000680326
1.62357e-06
0.000680839
1.55427e-06
0.000681336
1.47603e-06
0.000681816
1.38788e-06
0.000682277
1.2903e-06
0.000682717
1.18183e-06
0.000683133
1.06335e-06
0.000683525
9.32812e-07
0.000683889
7.91774e-07
0.000684225
6.37191e-07
0.000684528
4.71649e-07
0.000684798
2.90481e-07
0.000685031
9.83091e-08
0.000685229
-1.14501e-07
0.000685385
-3.40375e-07
0.0006855
-5.89152e-07
0.000685567
-8.48812e-07
0.000685588
-1.13835e-06
0.000685556
-1.43706e-06
0.000685473
-1.77595e-06
0.00068533
-2.11952e-06
0.000685133
-2.51811e-06
0.000684868
-2.91168e-06
0.000684545
-3.38239e-06
0.000684143
-3.8312e-06
0.000683684
-4.39175e-06
0.000683132
-4.90177e-06
-5.57595e-06
0.000682527
0.000666684
4.40132e-08
0.000666734
1.32198e-07
0.000666819
2.20347e-07
0.000666937
3.07563e-07
0.000667088
3.93398e-07
0.000667271
4.77431e-07
0.000667485
5.5927e-07
0.000667729
6.38545e-07
0.000668002
7.14915e-07
0.000668303
7.88066e-07
0.000668629
8.57714e-07
0.00066898
9.23596e-07
0.000669354
9.85483e-07
0.000669749
1.04316e-06
0.000670164
1.09645e-06
0.000670597
1.14517e-06
0.000671046
1.18918e-06
0.000671509
1.22835e-06
0.000671985
1.26256e-06
0.000672472
1.29168e-06
0.000672968
1.31564e-06
0.000673471
1.33431e-06
0.00067398
1.34761e-06
0.000674493
1.35542e-06
0.000675008
1.35769e-06
0.000675523
1.35425e-06
0.000676036
1.34506e-06
0.000676545
1.3299e-06
0.000677049
1.30877e-06
0.000677546
1.28137e-06
0.000678033
1.24776e-06
0.00067851
1.20746e-06
0.000678973
1.16065e-06
0.00067942
1.10666e-06
0.00067985
1.04584e-06
0.000680261
9.77226e-07
0.00068065
9.01405e-07
0.000681015
8.16936e-07
0.000681353
7.24851e-07
0.000681663
6.23041e-07
0.000681942
5.13315e-07
0.000682186
3.92475e-07
0.000682394
2.63527e-07
0.000682563
1.21653e-07
0.00068269
-2.83803e-08
0.000682773
-1.97487e-07
0.000682807
-3.7396e-07
0.000682788
-5.7087e-07
0.000682714
-7.74561e-07
0.000682581
-1.00531e-06
0.000682384
-1.24024e-06
0.00068212
-1.51228e-06
0.000681784
-1.78285e-06
0.000681371
-2.10546e-06
0.000680875
-2.4155e-06
0.000680293
-2.80043e-06
0.000679615
-3.15352e-06
0.000678841
-3.61764e-06
0.000677956
-4.017e-06
-4.58317e-06
0.000676964
0.000666682
2.85757e-08
0.000666728
8.58219e-08
0.000666806
1.43049e-07
0.000666914
1.99683e-07
0.000667052
2.55441e-07
0.000667219
3.10054e-07
0.000667415
3.63273e-07
0.000667639
4.14858e-07
0.000667889
4.64589e-07
0.000668165
5.1226e-07
0.000668465
5.57682e-07
0.000668788
6.00679e-07
0.000669132
6.41094e-07
0.000669497
6.78778e-07
0.000669879
7.13606e-07
0.000670279
7.45453e-07
0.000670694
7.74218e-07
0.000671123
7.99794e-07
0.000671563
8.22104e-07
0.000672014
8.41051e-07
0.000672473
8.56572e-07
0.000672938
8.68571e-07
0.000673409
8.77001e-07
0.000673883
8.81757e-07
0.000674358
8.82806e-07
0.000674832
8.80015e-07
0.000675304
8.73369e-07
0.000675771
8.62691e-07
0.000676232
8.48e-07
0.000676684
8.29054e-07
0.000677126
8.05913e-07
0.000677555
7.78222e-07
0.000677969
7.46124e-07
0.000678367
7.09112e-07
0.000678745
6.67476e-07
0.000679102
6.20462e-07
0.000679435
5.68575e-07
0.000679741
5.10672e-07
0.000680018
4.47642e-07
0.000680264
3.77791e-07
0.000680474
3.02663e-07
0.000680647
2.19666e-07
0.000680779
1.31362e-07
0.000680867
3.39133e-08
0.000680909
-7.03008e-08
0.000680898
-1.86848e-07
0.000680833
-3.08205e-07
0.000680707
-4.44765e-07
0.000680517
-5.85131e-07
0.000680258
-7.45901e-07
0.000679926
-9.08084e-07
0.000679512
-1.09856e-06
0.000679014
-1.28552e-06
0.000678422
-1.51269e-06
0.000677733
-1.727e-06
0.000676933
-2.00003e-06
0.000676023
-2.24394e-06
0.000674982
-2.57604e-06
0.000673816
-2.8511e-06
-3.26036e-06
0.000672493
0.000666681
1.40632e-08
0.000666725
4.22336e-08
0.000666797
7.03951e-08
0.000666899
9.82682e-08
0.000667029
1.25714e-07
0.000667186
1.52604e-07
0.00066737
1.78815e-07
0.000667581
2.04229e-07
0.000667817
2.2874e-07
0.000668077
2.52244e-07
0.00066836
2.74647e-07
0.000668665
2.95862e-07
0.00066899
3.15808e-07
0.000669334
3.34412e-07
0.000669696
3.51607e-07
0.000670075
3.67329e-07
0.000670467
3.81526e-07
0.000670873
3.94142e-07
0.00067129
4.05135e-07
0.000671717
4.14454e-07
0.000672151
4.22066e-07
0.000672592
4.27918e-07
0.000673037
4.31988e-07
0.000673484
4.34216e-07
0.000673932
4.34588e-07
0.000674379
4.33031e-07
0.000674823
4.29538e-07
0.000675262
4.24014e-07
0.000675693
4.16472e-07
0.000676116
4.06778e-07
0.000676527
3.94971e-07
0.000676924
3.80858e-07
0.000677306
3.64522e-07
0.000677669
3.45686e-07
0.000678012
3.24517e-07
0.000678332
3.00602e-07
0.000678626
2.74232e-07
0.000678892
2.44776e-07
0.000679127
2.12747e-07
0.000679328
1.77196e-07
0.000679491
1.39001e-07
0.000679614
9.67098e-08
0.000679694
5.18062e-08
0.000679725
2.33312e-09
0.000679706
-5.12073e-08
0.00067963
-1.107e-07
0.000679494
-1.72543e-07
0.000679292
-2.42516e-07
0.000679021
-3.14166e-07
0.000678672
-3.9675e-07
0.000678244
-4.79592e-07
0.000677723
-5.77713e-07
0.000677111
-6.73263e-07
0.000676389
-7.90693e-07
0.000675562
-9.00254e-07
0.000674604
-1.04202e-06
0.000673527
-1.1667e-06
0.000672291
-1.34004e-06
0.00067092
-1.48036e-06
-1.69518e-06
0.000669355
0.000666681
-8.25027e-13
0.000666723
-3.32204e-12
0.000666793
-6.57339e-12
0.000666892
-1.06363e-11
0.000667017
-1.55476e-11
0.00066717
-2.12855e-11
0.000667349
-2.78034e-11
0.000667553
-3.5061e-11
0.000667782
-4.30483e-11
0.000668034
-5.17794e-11
0.000668309
-6.12294e-11
0.000668605
-7.12965e-11
0.000668921
-8.18823e-11
0.000669255
-9.30009e-11
0.000669607
-1.04737e-10
0.000669974
-1.17091e-10
0.000670356
-1.29975e-10
0.00067075
-1.43384e-10
0.000671156
-1.57481e-10
0.00067157
-1.72387e-10
0.000671992
-1.87945e-10
0.000672421
-2.0386e-10
0.000672853
-2.20068e-10
0.000673287
-2.36826e-10
0.000673722
-2.54253e-10
0.000674155
-2.72012e-10
0.000674585
-2.89547e-10
0.00067501
-3.06881e-10
0.000675426
-3.24724e-10
0.000675833
-3.43794e-10
0.000676229
-3.6386e-10
0.00067661
-3.83889e-10
0.000676975
-4.03397e-10
0.000677321
-4.23138e-10
0.000677646
-4.4498e-10
0.000677947
-4.69367e-10
0.000678222
-4.95128e-10
0.000678467
-5.1968e-10
0.00067868
-5.42356e-10
0.000678858
-5.65477e-10
0.000678998
-5.93083e-10
0.000679095
-6.25893e-10
0.000679148
-6.60595e-10
0.000679151
-6.94025e-10
0.0006791
-7.29181e-10
0.00067899
-7.54185e-10
0.000678818
-7.81103e-10
0.000678577
-8.21435e-10
0.000678263
-8.76271e-10
0.000677868
-9.36329e-10
0.000677389
-9.89355e-10
0.000676812
-1.0256e-09
0.00067614
-1.04844e-09
0.000675351
-1.07217e-09
0.000674451
-1.11952e-09
0.000673411
-1.20361e-09
0.000672245
-1.32351e-09
0.000670907
-1.45534e-09
0.000669428
-1.56792e-09
-1.63186e-09
0.000667734
0.000666681
-1.40648e-08
0.000666723
-4.22402e-08
0.000666793
-7.04082e-08
0.000666892
-9.82894e-08
0.000667017
-1.25745e-07
0.00066717
-1.52647e-07
0.000667349
-1.7887e-07
0.000667553
-2.04299e-07
0.000667782
-2.28826e-07
0.000668034
-2.52347e-07
0.000668309
-2.74769e-07
0.000668605
-2.96004e-07
0.000668921
-3.15971e-07
0.000669255
-3.34597e-07
0.000669607
-3.51815e-07
0.000669974
-3.67563e-07
0.000670356
-3.81785e-07
0.00067075
-3.94428e-07
0.000671156
-4.05449e-07
0.00067157
-4.14797e-07
0.000671992
-4.2244e-07
0.000672421
-4.28324e-07
0.000672853
-4.32426e-07
0.000673287
-4.34688e-07
0.000673722
-4.35094e-07
0.000674155
-4.33573e-07
0.000674585
-4.30115e-07
0.00067501
-4.24625e-07
0.000675426
-4.17118e-07
0.000675833
-4.07463e-07
0.000676229
-3.95696e-07
0.00067661
-3.81622e-07
0.000676975
-3.65325e-07
0.000677321
-3.46529e-07
0.000677646
-3.25404e-07
0.000677947
-3.01537e-07
0.000678222
-2.75218e-07
0.000678467
-2.45813e-07
0.00067868
-2.13829e-07
0.000678858
-1.78324e-07
0.000678998
-1.40183e-07
0.000679095
-9.79571e-08
0.000679148
-5.31228e-08
0.000679151
-3.67128e-09
0.0006791
4.97493e-08
0.00067899
1.09197e-07
0.000678818
1.70981e-07
0.000678577
2.40873e-07
0.000678263
3.12416e-07
0.000677868
3.94885e-07
0.000677389
4.77623e-07
0.000676812
5.75672e-07
0.00067614
6.71178e-07
0.00067535
7.88561e-07
0.000674451
8.98029e-07
0.00067341
1.03963e-06
0.000672245
1.16407e-06
0.000670906
1.33715e-06
0.000669428
1.47724e-06
1.69193e-06
0.000667734
0.000666681
-2.85773e-08
0.000666725
-8.58285e-08
0.000666797
-1.43062e-07
0.000666899
-1.99704e-07
0.000667029
-2.55471e-07
0.000667186
-3.10096e-07
0.00066737
-3.63328e-07
0.000667581
-4.14927e-07
0.000667817
-4.64674e-07
0.000668077
-5.12362e-07
0.00066836
-5.57803e-07
0.000668665
-6.0082e-07
0.00066899
-6.41255e-07
0.000669334
-6.78962e-07
0.000669696
-7.13813e-07
0.000670075
-7.45684e-07
0.000670467
-7.74474e-07
0.000670873
-8.00077e-07
0.00067129
-8.22414e-07
0.000671716
-8.4139e-07
0.000672151
-8.56942e-07
0.000672592
-8.68973e-07
0.000673037
-8.77434e-07
0.000673484
-8.82223e-07
0.000673932
-8.83306e-07
0.000674379
-8.80551e-07
0.000674823
-8.73939e-07
0.000675262
-8.63295e-07
0.000675693
-8.48639e-07
0.000676116
-8.2973e-07
0.000676527
-8.06629e-07
0.000676924
-7.78978e-07
0.000677306
-7.46918e-07
0.000677669
-7.09944e-07
0.000678012
-6.68351e-07
0.000678332
-6.21385e-07
0.000678626
-5.69549e-07
0.000678892
-5.11694e-07
0.000679127
-4.48709e-07
0.000679327
-3.78903e-07
0.000679491
-3.03827e-07
0.000679614
-2.20892e-07
0.000679694
-1.32655e-07
0.000679725
-3.52628e-08
0.000679706
6.88601e-08
0.00067963
1.85365e-07
0.000679494
3.06671e-07
0.000679292
4.43156e-07
0.000679021
5.83416e-07
0.000678672
7.44069e-07
0.000678243
9.06146e-07
0.000677722
1.09655e-06
0.00067711
1.28346e-06
0.000676388
1.5106e-06
0.000675561
1.72481e-06
0.000674603
1.99768e-06
0.000673526
2.24136e-06
0.00067229
2.57321e-06
0.000670919
2.84805e-06
3.25718e-06
0.000669354
0.000666682
-4.40148e-08
0.000666728
-1.32205e-07
0.000666806
-2.2036e-07
0.000666914
-3.07584e-07
0.000667052
-3.93428e-07
0.000667219
-4.77473e-07
0.000667415
-5.59324e-07
0.000667639
-6.38613e-07
0.000667889
-7.14998e-07
0.000668165
-7.88166e-07
0.000668465
-8.57832e-07
0.000668788
-9.23735e-07
0.000669132
-9.85641e-07
0.000669497
-1.04334e-06
0.000669879
-1.09665e-06
0.000670279
-1.14539e-06
0.000670694
-1.18943e-06
0.000671123
-1.22863e-06
0.000671563
-1.26286e-06
0.000672014
-1.29202e-06
0.000672473
-1.31601e-06
0.000672938
-1.3347e-06
0.000673409
-1.34804e-06
0.000673883
-1.35588e-06
0.000674358
-1.35818e-06
0.000674832
-1.35477e-06
0.000675303
-1.34562e-06
0.000675771
-1.33049e-06
0.000676231
-1.3094e-06
0.000676684
-1.28204e-06
0.000677126
-1.24846e-06
0.000677555
-1.2082e-06
0.000677969
-1.16142e-06
0.000678367
-1.10748e-06
0.000678745
-1.04669e-06
0.000679102
-9.78129e-07
0.000679435
-9.02357e-07
0.000679741
-8.17936e-07
0.000680018
-7.25894e-07
0.000680263
-6.24127e-07
0.000680474
-5.14451e-07
0.000680647
-3.9367e-07
0.000680779
-2.64788e-07
0.000680867
-1.22973e-07
0.000680909
2.69649e-08
0.000680898
1.96043e-07
0.000680832
3.72462e-07
0.000680706
5.69299e-07
0.000680516
7.72889e-07
0.000680257
1.00353e-06
0.000679925
1.23836e-06
0.000679511
1.51033e-06
0.000679014
1.78085e-06
0.000678421
2.10342e-06
0.000677732
2.41338e-06
0.000676932
2.79816e-06
0.000676022
3.15104e-06
0.00067498
3.6149e-06
0.000673814
4.01404e-06
4.58008e-06
0.000672491
0.000666684
-6.09158e-08
0.000666734
-1.82995e-07
0.000666819
-3.05009e-07
0.000666937
-4.25687e-07
0.000667088
-5.44382e-07
0.000667271
-6.60495e-07
0.000667485
-7.73466e-07
0.000667729
-8.82777e-07
0.000668002
-9.87957e-07
0.000668303
-1.08858e-06
0.000668629
-1.18426e-06
0.00066898
-1.27467e-06
0.000669354
-1.3595e-06
0.000669749
-1.4385e-06
0.000670164
-1.51142e-06
0.000670597
-1.57809e-06
0.000671045
-1.63831e-06
0.000671509
-1.69195e-06
0.000671985
-1.73887e-06
0.000672472
-1.77894e-06
0.000672968
-1.81207e-06
0.000673471
-1.83812e-06
0.00067398
-1.85701e-06
0.000674493
-1.86862e-06
0.000675008
-1.87287e-06
0.000675522
-1.86958e-06
0.000676036
-1.85871e-06
0.000676545
-1.84001e-06
0.000677049
-1.81346e-06
0.000677546
-1.77875e-06
0.000678033
-1.73588e-06
0.000678509
-1.68437e-06
0.000678972
-1.62432e-06
0.00067942
-1.55507e-06
0.00067985
-1.47686e-06
0.000680261
-1.38876e-06
0.00068065
-1.29122e-06
0.000681014
-1.1828e-06
0.000681353
-1.06437e-06
0.000681663
-9.33866e-07
0.000681941
-7.92877e-07
0.000682186
-6.38352e-07
0.000682394
-4.72875e-07
0.000682563
-2.91766e-07
0.000682689
-9.96403e-08
0.000682772
1.13097e-07
0.000682806
3.38926e-07
0.000682787
5.87637e-07
0.000682713
8.47201e-07
0.00068258
1.13664e-06
0.000682383
1.43524e-06
0.000682119
1.77407e-06
0.000681783
2.11759e-06
0.00068137
2.51615e-06
0.000680874
2.90964e-06
0.000680292
3.38023e-06
0.000679614
3.82883e-06
0.00067884
4.38915e-06
0.000677955
4.89894e-06
5.573e-06
0.000676962
0.000666686
-7.99294e-08
0.000666743
-2.40163e-07
0.000666838
-4.00276e-07
0.000666971
-5.58535e-07
0.000667141
-7.14042e-07
0.000667346
-8.65971e-07
0.000667586
-1.01356e-06
0.00066786
-1.15611e-06
0.000668165
-1.29301e-06
0.0006685
-1.42371e-06
0.000668863
-1.54776e-06
0.000669253
-1.66474e-06
0.000669668
-1.77432e-06
0.000670106
-1.87619e-06
0.000670564
-1.97013e-06
0.000671042
-2.05592e-06
0.000671537
-2.13341e-06
0.000672048
-2.20245e-06
0.000672572
-2.26293e-06
0.000673108
-2.31473e-06
0.000673653
-2.35776e-06
0.000674207
-2.39191e-06
0.000674767
-2.41712e-06
0.000675332
-2.43326e-06
0.000675899
-2.44028e-06
0.000676468
-2.438e-06
0.000677036
-2.42636e-06
0.000677601
-2.40514e-06
0.000678161
-2.37428e-06
0.000678716
-2.33351e-06
0.000679263
-2.28274e-06
0.0006798
-2.22159e-06
0.000680326
-2.15e-06
0.000680838
-2.06742e-06
0.000681335
-1.97392e-06
0.000681815
-1.86875e-06
0.000682276
-1.75204e-06
0.000682716
-1.62269e-06
0.000683133
-1.48102e-06
0.000683524
-1.32559e-06
0.000683889
-1.1571e-06
0.000684224
-9.73535e-07
0.000684527
-7.76058e-07
0.000684797
-5.61625e-07
0.00068503
-3.32461e-07
0.000685228
-8.47445e-08
0.000685384
1.8231e-07
0.000685498
4.73338e-07
0.000685566
7.80175e-07
0.000685587
1.11555e-06
0.000685554
1.46752e-06
0.000685472
1.85656e-06
0.000685329
2.26058e-06
0.000685132
2.7131e-06
0.000684866
3.17562e-06
0.000684543
3.70283e-06
0.000684141
4.23096e-06
0.000683682
4.84816e-06
0.00068313
5.45102e-06
6.17868e-06
0.000682524
0.000666689
-1.01895e-07
0.000666755
-3.06258e-07
0.000666865
-5.10388e-07
0.000667018
-7.11948e-07