/*--------------------------------*- C++ -*----------------------------------*\
| =========                 |                                                 |
| \\      /  F ield         | OpenFOAM: The Open Source CFD Toolbox           |
|  \\    /   O peration     | Version:  2312                                  |
|   \\  /    A nd           | Website:  www.openfoam.com                      |
|    \\/     M anipulation  |                                                 |
\*---------------------------------------------------------------------------*/
FoamFile
{
    version     2.0;
    format      ascii;
    arch        "LSB;label=32;scalar=64";
    class       volVectorField;
    location    "176000";
    object      U;
}
// * * * * * * * * * * * * * * * * * * * * * * * * * * * * * * * * * * * * * //

dimensions      [0 1 -1 0 0 0 0];

internalField   nonuniform List<vector> 
2685
(
(0.000529262 -4.95624e-05 0)
(0.000548294 -3.69917e-05 0)
(0.000550357 -2.66997e-05 0)
(0.000553286 -1.7349e-05 0)
(0.000556574 -9.17332e-06 0)
(0.000558803 -2.61064e-06 0)
(0.000559023 2.4653e-06 0)
(0.000556924 6.77432e-06 0)
(0.000552456 1.09182e-05 0)
(0.000545757 1.51044e-05 0)
(0.000536826 1.93621e-05 0)
(0.000525554 2.36903e-05 0)
(0.00051162 2.81357e-05 0)
(0.000494523 3.26566e-05 0)
(0.00047395 3.67093e-05 0)
(0.000450057 3.89086e-05 0)
(0.000423542 3.76197e-05 0)
(0.000395521 3.20206e-05 0)
(0.000367271 2.27018e-05 0)
(0.000339883 1.14294e-05 0)
(0.000314141 1.20121e-07 0)
(0.000290596 -9.91185e-06 0)
(0.000269323 -1.78648e-05 0)
(0.000250181 -2.30047e-05 0)
(0.000232866 -2.50731e-05 0)
(0.000217156 -2.43968e-05 0)
(0.000202855 -2.14364e-05 0)
(0.000189748 -1.67752e-05 0)
(0.000177579 -1.11261e-05 0)
(0.000166053 -5.18061e-06 0)
(0.000154835 5.18102e-07 0)
(0.000143578 5.60326e-06 0)
(0.000131963 9.85715e-06 0)
(0.000119775 1.3159e-05 0)
(0.000107102 1.54815e-05 0)
(9.42809e-05 1.67652e-05 0)
(8.17253e-05 1.70227e-05 0)
(6.98406e-05 1.63592e-05 0)
(5.89941e-05 1.49371e-05 0)
(4.94911e-05 1.29478e-05 0)
(4.15796e-05 1.05922e-05 0)
(3.54242e-05 8.06777e-06 0)
(3.10911e-05 5.53524e-06 0)
(2.85757e-05 3.08691e-06 0)
(2.78241e-05 7.47799e-07 0)
(2.86754e-05 -1.51045e-06 0)
(3.09658e-05 -3.62158e-06 0)
(3.4617e-05 -5.56043e-06 0)
(3.95153e-05 -7.32001e-06 0)
(4.55352e-05 -8.90385e-06 0)
(5.25452e-05 -1.03213e-05 0)
(6.04052e-05 -1.15834e-05 0)
(6.89668e-05 -1.27008e-05 0)
(7.80734e-05 -1.36823e-05 0)
(8.75602e-05 -1.45318e-05 0)
(9.72524e-05 -1.52479e-05 0)
(0.000106964 -1.5826e-05 0)
(0.000116502 -1.62617e-05 0)
(0.000125687 -1.65563e-05 0)
(0.000134363 -1.67157e-05 0)
(0.000142372 -1.67561e-05 0)
(0.00014954 -1.66838e-05 0)
(0.000155681 -1.65e-05 0)
(0.000160619 -1.6204e-05 0)
(0.000164227 -1.57856e-05 0)
(0.000166422 -1.52216e-05 0)
(0.000167265 -1.44533e-05 0)
(0.000166996 -1.34545e-05 0)
(0.00016597 -1.22782e-05 0)
(0.000164672 -1.0973e-05 0)
(0.000163651 -9.57084e-06 0)
(0.000163515 -8.0932e-06 0)
(0.000164825 -6.55928e-06 0)
(0.000167941 -4.98712e-06 0)
(0.000172913 -3.405e-06 0)
(0.000179571 -1.84715e-06 0)
(0.000187566 -3.54938e-07 0)
(0.0001964 1.007e-06 0)
(0.000205481 2.1849e-06 0)
(0.000214235 3.18371e-06 0)
(0.000222168 3.94026e-06 0)
(0.000228874 4.33021e-06 0)
(0.000234121 4.18843e-06 0)
(0.000237916 3.33248e-06 0)
(0.000240478 1.73644e-06 0)
(0.000242156 -5.36608e-07 0)
(0.000243328 -3.29009e-06 0)
(0.000244299 -6.19968e-06 0)
(0.00024524 -8.88367e-06 0)
(0.000246169 -1.09906e-05 0)
(0.00103737 -2.01907e-05 0)
(0.00103722 -1.57463e-05 0)
(0.00104205 -1.15425e-05 0)
(0.00104815 -7.43879e-06 0)
(0.00105491 -3.52492e-06 0)
(0.001062 2.47228e-07 0)
(0.00106938 4.07673e-06 0)
(0.0010774 8.26037e-06 0)
(0.00108576 1.29997e-05 0)
(0.001094 1.83679e-05 0)
(0.00110177 2.44797e-05 0)
(0.00110878 3.15124e-05 0)
(0.00111479 3.95659e-05 0)
(0.00111963 4.85869e-05 0)
(0.00112333 5.83448e-05 0)
(0.00112578 6.84629e-05 0)
(0.00112624 7.83537e-05 0)
(0.00112384 8.7442e-05 0)
(0.00111735 9.5261e-05 0)
(0.00110531 0.000101402 0)
(0.00108762 0.000105609 0)
(0.00106407 0.000107811 0)
(0.00103412 0.000107928 0)
(0.000998482 0.000105745 0)
(0.000958232 0.000101063 0)
(0.000914198 9.40985e-05 0)
(0.000867564 8.54613e-05 0)
(0.000819753 7.59883e-05 0)
(0.000772013 6.6536e-05 0)
(0.000725409 5.79929e-05 0)
(0.000680913 5.1131e-05 0)
(0.00063932 4.62789e-05 0)
(0.000601161 4.31335e-05 0)
(0.000566946 4.10103e-05 0)
(0.000536909 3.92648e-05 0)
(0.000510852 3.7347e-05 0)
(0.000488605 3.49101e-05 0)
(0.000469896 3.18561e-05 0)
(0.00045435 2.81687e-05 0)
(0.000441617 2.38262e-05 0)
(0.000431371 1.89308e-05 0)
(0.00042333 1.37456e-05 0)
(0.000417329 8.53785e-06 0)
(0.000413246 3.47276e-06 0)
(0.000410887 -1.38152e-06 0)
(0.000410247 -5.9903e-06 0)
(0.000411309 -1.02798e-05 0)
(0.000413881 -1.41834e-05 0)
(0.000417786 -1.76669e-05 0)
(0.000422861 -2.07277e-05 0)
(0.000428955 -2.33363e-05 0)
(0.000435923 -2.54498e-05 0)
(0.00044362 -2.70214e-05 0)
(0.000451892 -2.80121e-05 0)
(0.000460565 -2.8385e-05 0)
(0.000469437 -2.80893e-05 0)
(0.000478268 -2.70773e-05 0)
(0.000486794 -2.53393e-05 0)
(0.000494745 -2.29185e-05 0)
(0.000501828 -1.98839e-05 0)
(0.000507784 -1.62828e-05 0)
(0.00051247 -1.21158e-05 0)
(0.000515815 -7.36766e-06 0)
(0.000517781 -2.09553e-06 0)
(0.000518432 3.46896e-06 0)
(0.000517827 8.84863e-06 0)
(0.000516065 1.34467e-05 0)
(0.000513296 1.67442e-05 0)
(0.000509677 1.81576e-05 0)
(0.000505572 1.70762e-05 0)
(0.000501403 1.31597e-05 0)
(0.000497552 6.61211e-06 0)
(0.000494268 -1.85183e-06 0)
(0.00049163 -1.1277e-05 0)
(0.000489627 -2.06104e-05 0)
(0.00048818 -2.89222e-05 0)
(0.000487186 -3.5491e-05 0)
(0.000486547 -3.97914e-05 0)
(0.000486237 -4.14859e-05 0)
(0.000485953 -4.04898e-05 0)
(0.000485044 -3.70323e-05 0)
(0.00048284 -3.1641e-05 0)
(0.000478928 -2.50811e-05 0)
(0.000473541 -1.82054e-05 0)
(0.000467395 -1.18003e-05 0)
(0.000461312 -6.35474e-06 0)
(0.00045616 -2.02588e-06 0)
(0.000452578 1.34188e-06 0)
(0.000450753 4.08603e-06 0)
(0.000450598 6.5558e-06 0)
(0.00120094 -3.53171e-05 0)
(0.00120116 -3.47583e-05 0)
(0.00120551 -3.43239e-05 0)
(0.00121286 -3.40863e-05 0)
(0.00122257 -3.37932e-05 0)
(0.00123421 -3.30959e-05 0)
(0.00124754 -3.16041e-05 0)
(0.00126232 -2.912e-05 0)
(0.00127814 -2.552e-05 0)
(0.00129477 -2.06778e-05 0)
(0.00131233 -1.44776e-05 0)
(0.0013307 -6.84085e-06 0)
(0.00134957 2.18875e-06 0)
(0.00136862 1.25504e-05 0)
(0.00138733 2.40583e-05 0)
(0.00140522 3.638e-05 0)
(0.00142169 4.91625e-05 0)
(0.00143631 6.20852e-05 0)
(0.00144844 7.49715e-05 0)
(0.00145738 8.78704e-05 0)
(0.0014627 0.000100946 0)
(0.00146384 0.000114133 0)
(0.0014605 0.000127413 0)
(0.00145214 0.000140641 0)
(0.00143866 0.000153227 0)
(0.00142044 0.000164635 0)
(0.00139724 0.000174283 0)
(0.00136855 0.000181395 0)
(0.00133397 0.00018527 0)
(0.0012938 0.000185509 0)
(0.00124888 0.000182084 0)
(0.00120031 0.000175294 0)
(0.00114946 0.000165556 0)
(0.00109789 0.000153294 0)
(0.0010472 0.00013896 0)
(0.000998668 0.000123236 0)
(0.000953265 0.000107073 0)
(0.000911667 9.14309e-05 0)
(0.000874308 7.68648e-05 0)
(0.000841317 6.3425e-05 0)
(0.000812547 5.09535e-05 0)
(0.000787726 3.9298e-05 0)
(0.000766606 2.83083e-05 0)
(0.000748982 1.78547e-05 0)
(0.000734609 7.93383e-06 0)
(0.000723092 -1.33389e-06 0)
(0.000713993 -9.89397e-06 0)
(0.000706952 -1.77253e-05 0)
(0.000701647 -2.48042e-05 0)
(0.000697891 -3.1117e-05 0)
(0.00069562 -3.66815e-05 0)
(0.000694736 -4.15093e-05 0)
(0.000695147 -4.55471e-05 0)
(0.000696787 -4.87462e-05 0)
(0.000699594 -5.10174e-05 0)
(0.000703459 -5.22233e-05 0)
(0.000708188 -5.22107e-05 0)
(0.000713498 -5.08751e-05 0)
(0.000719066 -4.82423e-05 0)
(0.000724578 -4.44919e-05 0)
(0.000729803 -3.98686e-05 0)
(0.000734684 -3.46026e-05 0)
(0.000739315 -2.89048e-05 0)
(0.000743867 -2.29602e-05 0)
(0.000748558 -1.69093e-05 0)
(0.000753565 -1.0933e-05 0)
(0.000759089 -5.36766e-06 0)
(0.000765245 -5.95529e-07 0)
(0.000771872 3.07345e-06 0)
(0.000778715 5.46959e-06 0)
(0.000785479 6.5525e-06 0)
(0.000791816 6.36727e-06 0)
(0.000797315 5.08835e-06 0)
(0.00080182 3.15508e-06 0)
(0.000805486 1.32404e-06 0)
(0.000808237 2.58242e-07 0)
(0.000809971 1.4987e-07 0)
(0.00081064 9.63893e-07 0)
(0.00081002 2.89805e-06 0)
(0.000807987 6.46541e-06 0)
(0.000804833 1.21065e-05 0)
(0.000800831 1.93406e-05 0)
(0.00079598 2.65666e-05 0)
(0.000789898 3.15806e-05 0)
(0.000782405 3.23195e-05 0)
(0.000773741 2.7945e-05 0)
(0.000764028 1.91459e-05 0)
(0.000753362 7.85838e-06 0)
(0.000741921 -3.34127e-06 0)
(0.000729621 -1.19171e-05 0)
(0.0012564 -2.90971e-05 0)
(0.00125817 -3.50139e-05 0)
(0.00126208 -4.06316e-05 0)
(0.00126854 -4.60188e-05 0)
(0.00127765 -5.098e-05 0)
(0.00128931 -5.51971e-05 0)
(0.00130333 -5.83475e-05 0)
(0.00131946 -6.01947e-05 0)
(0.00133748 -6.05137e-05 0)
(0.00135726 -5.909e-05 0)
(0.00137862 -5.58007e-05 0)
(0.00140131 -5.06136e-05 0)
(0.00142507 -4.34734e-05 0)
(0.00144968 -3.4338e-05 0)
(0.00147482 -2.32036e-05 0)
(0.00150022 -1.01287e-05 0)
(0.0015254 4.82485e-06 0)
(0.00154971 2.15326e-05 0)
(0.00157271 3.983e-05 0)
(0.00159397 5.94431e-05 0)
(0.00161296 8.00088e-05 0)
(0.00162912 0.000101221 0)
(0.0016421 0.000122832 0)
(0.00165147 0.000144556 0)
(0.00165692 0.000166064 0)
(0.00165846 0.000186834 0)
(0.00165562 0.000206296 0)
(0.00164788 0.00022395 0)
(0.00163524 0.00023942 0)
(0.00161802 0.000252265 0)
(0.00159639 0.000261941 0)
(0.00157029 0.000267916 0)
(0.00153963 0.000269676 0)
(0.00150438 0.000266769 0)
(0.00146459 0.000258996 0)
(0.00142056 0.00024654 0)
(0.00137297 0.000229892 0)
(0.00132298 0.000209798 0)
(0.00127199 0.000187256 0)
(0.00122142 0.000163339 0)
(0.00117264 0.000139011 0)
(0.00112682 0.000115137 0)
(0.00108463 9.25462e-05 0)
(0.00104627 7.18845e-05 0)
(0.00101186 5.34817e-05 0)
(0.000981419 3.73819e-05 0)
(0.000954733 2.34023e-05 0)
(0.000931526 1.11249e-05 0)
(0.000911667 1.29314e-07 0)
(0.000894843 -9.80408e-06 0)
(0.000880651 -1.87447e-05 0)
(0.000868874 -2.67111e-05 0)
(0.000859302 -3.37988e-05 0)
(0.000851693 -4.0056e-05 0)
(0.00084596 -4.53697e-05 0)
(0.00084202 -4.93687e-05 0)
(0.000839632 -5.15612e-05 0)
(0.000838362 -5.16214e-05 0)
(0.000837666 -4.95248e-05 0)
(0.000837033 -4.55747e-05 0)
(0.000836144 -4.032e-05 0)
(0.000835005 -3.44166e-05 0)
(0.000833921 -2.84792e-05 0)
(0.00083328 -2.29654e-05 0)
(0.000833323 -1.81575e-05 0)
(0.000834059 -1.42286e-05 0)
(0.000835402 -1.13275e-05 0)
(0.000837268 -9.597e-06 0)
(0.000839656 -9.10905e-06 0)
(0.000842675 -9.98665e-06 0)
(0.000846389 -1.23327e-05 0)
(0.000850769 -1.60522e-05 0)
(0.00085577 -2.07873e-05 0)
(0.000861387 -2.5938e-05 0)
(0.000867715 -3.08321e-05 0)
(0.000874981 -3.47781e-05 0)
(0.000883433 -3.71373e-05 0)
(0.000893199 -3.74457e-05 0)
(0.000904399 -3.54268e-05 0)
(0.000917313 -3.09061e-05 0)
(0.000931964 -2.38856e-05 0)
(0.000948155 -1.46812e-05 0)
(0.000965882 -3.95827e-06 0)
(0.000984725 7.36633e-06 0)
(0.00100354 1.83376e-05 0)
(0.00102079 2.82172e-05 0)
(0.00103506 3.6919e-05 0)
(0.00104537 4.48358e-05 0)
(0.00105108 5.21779e-05 0)
(0.0010518 5.88041e-05 0)
(0.00124675 -2.96513e-05 0)
(0.0012455 -4.22676e-05 0)
(0.00124605 -5.39239e-05 0)
(0.00124924 -6.47165e-05 0)
(0.00125578 -7.46885e-05 0)
(0.001266 -8.37373e-05 0)
(0.00127989 -9.16477e-05 0)
(0.00129722 -9.81629e-05 0)
(0.00131765 -0.000103013 0)
(0.00134088 -0.000105955 0)
(0.00136663 -0.000106775 0)
(0.00139454 -0.000105229 0)
(0.00142423 -0.000101056 0)
(0.00145529 -9.40596e-05 0)
(0.00148721 -8.41285e-05 0)
(0.00151946 -7.12676e-05 0)
(0.00155147 -5.56061e-05 0)
(0.00158268 -3.72878e-05 0)
(0.00161235 -1.64575e-05 0)
(0.0016396 6.64506e-06 0)
(0.001664 3.17345e-05 0)
(0.0016856 5.84195e-05 0)
(0.00170427 8.61968e-05 0)
(0.00171966 0.000114414 0)
(0.00173161 0.000142437 0)
(0.00174008 0.000169679 0)
(0.00174503 0.000195736 0)
(0.00174652 0.000220304 0)
(0.00174468 0.000242948 0)
(0.0017395 0.000263367 0)
(0.00173088 0.000281457 0)
(0.00171894 0.000296834 0)
(0.00170385 0.00030891 0)
(0.00168569 0.000317429 0)
(0.00166452 0.000322197 0)
(0.00164038 0.000322633 0)
(0.00161295 0.0003183 0)
(0.00158178 0.000309378 0)
(0.00154674 0.000296161 0)
(0.00150802 0.000278789 0)
(0.00146592 0.00025772 0)
(0.00142105 0.000233855 0)
(0.00137429 0.000208085 0)
(0.00132679 0.000181168 0)
(0.00127973 0.000153928 0)
(0.0012342 0.000127264 0)
(0.00119098 0.000101966 0)
(0.0011506 7.85905e-05 0)
(0.00111352 5.73705e-05 0)
(0.00108025 3.83198e-05 0)
(0.00105099 2.14662e-05 0)
(0.00102526 6.76995e-06 0)
(0.00100245 -6.09139e-06 0)
(0.000982317 -1.75372e-05 0)
(0.000964951 -2.77083e-05 0)
(0.000950393 -3.61582e-05 0)
(0.000938103 -4.1966e-05 0)
(0.000927059 -4.42961e-05 0)
(0.000916364 -4.30056e-05 0)
(0.000905585 -3.88471e-05 0)
(0.000894725 -3.32501e-05 0)
(0.000884034 -2.7779e-05 0)
(0.000873919 -2.34352e-05 0)
(0.000864821 -2.02231e-05 0)
(0.000857046 -1.74745e-05 0)
(0.000850595 -1.4719e-05 0)
(0.00084528 -1.21371e-05 0)
(0.000840987 -1.03301e-05 0)
(0.000837397 -9.81631e-06 0)
(0.000833947 -1.0789e-05 0)
(0.000830387 -1.31832e-05 0)
(0.000826947 -1.68325e-05 0)
(0.000824154 -2.15302e-05 0)
(0.000822632 -2.69648e-05 0)
(0.000823006 -3.2741e-05 0)
(0.000825825 -3.84803e-05 0)
(0.000831519 -4.3831e-05 0)
(0.000840376 -4.84325e-05 0)
(0.000852475 -5.18824e-05 0)
(0.000867679 -5.38325e-05 0)
(0.000885814 -5.41331e-05 0)
(0.000906686 -5.27795e-05 0)
(0.000930016 -4.99195e-05 0)
(0.000955472 -4.58432e-05 0)
(0.000982581 -4.08484e-05 0)
(0.00101076 -3.51353e-05 0)
(0.00103923 -2.85888e-05 0)
(0.00106714 -2.07596e-05 0)
(0.00109399 -1.11322e-05 0)
(0.0011195 5.58149e-07 0)
(0.00118657 -1.89324e-05 0)
(0.00118572 -3.70493e-05 0)
(0.00118872 -5.56941e-05 0)
(0.00119644 -7.48091e-05 0)
(0.00120944 -9.40381e-05 0)
(0.00122775 -0.000112755 0)
(0.00125082 -0.000130222 0)
(0.0012777 -0.000145744 0)
(0.00130753 -0.000158739 0)
(0.00133963 -0.000168732 0)
(0.00137361 -0.000175332 0)
(0.00140922 -0.000178226 0)
(0.00144619 -0.000177168 0)
(0.00148421 -0.000171968 0)
(0.0015229 -0.000162515 0)
(0.00156183 -0.000148793 0)
(0.0016005 -0.000130858 0)
(0.0016383 -0.000108788 0)
(0.00167465 -8.2776e-05 0)
(0.00170905 -5.32247e-05 0)
(0.00174088 -2.06775e-05 0)
(0.00176918 1.43277e-05 0)
(0.00179282 5.10801e-05 0)
(0.0018111 8.89422e-05 0)
(0.00182398 0.000127241 0)
(0.00183146 0.000164807 0)
(0.00183354 0.000200529 0)
(0.00183033 0.000233363 0)
(0.00182226 0.000262729 0)
(0.00181004 0.000288195 0)
(0.00179458 0.000309132 0)
(0.00177665 0.000325568 0)
(0.00175692 0.000338297 0)
(0.00173614 0.000347631 0)
(0.00171482 0.000353475 0)
(0.00169315 0.000356458 0)
(0.00167131 0.000357294 0)
(0.00164937 0.000355534 0)
(0.00162692 0.00035039 0)
(0.0016033 0.000341962 0)
(0.00157794 0.000330561 0)
(0.00155027 0.00031594 0)
(0.00151981 0.000297989 0)
(0.00148652 0.000277193 0)
(0.00145067 0.000254212 0)
(0.00141245 0.000229896 0)
(0.00137225 0.000205204 0)
(0.00133128 0.000180271 0)
(0.00129081 0.000154424 0)
(0.0012511 0.00012788 0)
(0.00121198 0.000102469 0)
(0.00117398 7.9944e-05 0)
(0.00113828 6.01814e-05 0)
(0.00110561 4.16561e-05 0)
(0.00107588 2.38806e-05 0)
(0.00104863 8.68709e-06 0)
(0.00102333 -1.22593e-06 0)
(0.000999166 -4.72972e-06 0)
(0.000975015 -3.04233e-06 0)
(0.000950134 1.44116e-06 0)
(0.000924963 6.5659e-06 0)
(0.000901338 1.08563e-05 0)
(0.000881596 1.33662e-05 0)
(0.000866824 1.38345e-05 0)
(0.000855541 1.27446e-05 0)
(0.000844164 1.08672e-05 0)
(0.000829133 8.97852e-06 0)
(0.000808958 7.81313e-06 0)
(0.000784782 7.54344e-06 0)
(0.000759239 7.32494e-06 0)
(0.000734983 5.62548e-06 0)
(0.000714038 1.04121e-06 0)
(0.000697839 -7.06301e-06 0)
(0.000687247 -1.84607e-05 0)
(0.000682529 -3.23835e-05 0)
(0.000683679 -4.77292e-05 0)
(0.000690488 -6.32821e-05 0)
(0.000702528 -7.79004e-05 0)
(0.000719259 -9.0639e-05 0)
(0.000740105 -0.000100816 0)
(0.000764502 -0.00010801 0)
(0.000791948 -0.000112056 0)
(0.00082191 -0.000112968 0)
(0.000853744 -0.000110923 0)
(0.000886785 -0.000106227 0)
(0.000920407 -9.92274e-05 0)
(0.000954022 -9.02533e-05 0)
(0.000987176 -7.95416e-05 0)
(0.00101965 -6.73298e-05 0)
(0.00105143 -5.39374e-05 0)
(0.00113764 -1.71026e-05 0)
(0.00114681 -4.86463e-05 0)
(0.0011597 -8.12573e-05 0)
(0.00117611 -0.000113581 0)
(0.00119574 -0.000144363 0)
(0.00121809 -0.000172659 0)
(0.0012424 -0.00019789 0)
(0.00126798 -0.000219719 0)
(0.00129449 -0.000237924 0)
(0.00132208 -0.000252313 0)
(0.00135115 -0.000262721 0)
(0.00138219 -0.000269013 0)
(0.00141564 -0.000271019 0)
(0.00145178 -0.000268486 0)
(0.00149067 -0.000261114 0)
(0.00153215 -0.000248607 0)
(0.00157579 -0.000230666 0)
(0.00162096 -0.000207065 0)
(0.00166684 -0.000177793 0)
(0.00171249 -0.000143049 0)
(0.00175671 -0.000103198 0)
(0.00179812 -5.88474e-05 0)
(0.00183625 -1.10174e-05 0)
(0.00187098 3.9251e-05 0)
(0.00190001 9.08524e-05 0)
(0.00192155 0.000142801 0)
(0.00193567 0.000193612 0)
(0.00194198 0.000242108 0)
(0.00194002 0.000287049 0)
(0.00192995 0.000326931 0)
(0.00191223 0.000360885 0)
(0.00188749 0.000388222 0)
(0.00185683 0.000407791 0)
(0.00182158 0.00041942 0)
(0.00178314 0.000424141 0)
(0.00174326 0.000422506 0)
(0.00170382 0.000415289 0)
(0.00166647 0.000404941 0)
(0.0016324 0.000393801 0)
(0.0016021 0.0003823 0)
(0.00157535 0.000370365 0)
(0.00155149 0.000358416 0)
(0.00152932 0.000346023 0)
(0.00150709 0.000331992 0)
(0.00148336 0.000316378 0)
(0.00145786 0.000299747 0)
(0.00143079 0.000280735 0)
(0.0014013 0.000257973 0)
(0.00136823 0.00023379 0)
(0.00133229 0.000211728 0)
(0.00129553 0.000191267 0)
(0.00125838 0.000169157 0)
(0.00121972 0.00014477 0)
(0.0011805 0.000120471 0)
(0.00114406 9.82902e-05 0)
(0.00111122 7.95727e-05 0)
(0.00107755 6.65355e-05 0)
(0.00103841 6.17181e-05 0)
(0.00099577 6.49666e-05 0)
(0.000957402 7.13937e-05 0)
(0.000929451 7.38539e-05 0)
(0.000910773 6.7166e-05 0)
(0.000893686 5.18438e-05 0)
(0.000869687 3.64163e-05 0)
(0.000834814 3.27267e-05 0)
(0.00079015 4.56448e-05 0)
(0.0007396 6.88522e-05 0)
(0.000688271 9.06541e-05 0)
(0.000640959 0.000102157 0)
(0.000601175 0.000100358 0)
(0.000570979 8.65545e-05 0)
(0.000551123 6.37578e-05 0)
(0.000541391 3.5113e-05 0)
(0.000540765 3.33568e-06 0)
(0.000547961 -2.92439e-05 0)
(0.000561937 -6.08024e-05 0)
(0.00058164 -8.99982e-05 0)
(0.000605972 -0.000115869 0)
(0.000633855 -0.00013778 0)
(0.000664301 -0.000155382 0)
(0.000696483 -0.000168574 0)
(0.00072973 -0.000177463 0)
(0.000763496 -0.000182324 0)
(0.000797331 -0.000183494 0)
(0.000830824 -0.000181303 0)
(0.000863569 -0.000176072 0)
(0.000895174 -0.000168146 0)
(0.00092534 -0.000157928 0)
(0.000953987 -0.000145866 0)
(0.000981311 -0.00013246 0)
(0.00111825 -4.10919e-05 0)
(0.00112246 -8.18459e-05 0)
(0.00112462 -0.000120294 0)
(0.00112479 -0.000155205 0)
(0.00112317 -0.00018571 0)
(0.00112015 -0.000211785 0)
(0.0011164 -0.000234028 0)
(0.0011132 -0.000253288 0)
(0.00111224 -0.000270399 0)
(0.00111539 -0.00028596 0)
(0.00112426 -0.000300191 0)
(0.00114007 -0.000312837 0)
(0.00116349 -0.000323258 0)
(0.0011947 -0.000330541 0)
(0.00123345 -0.000333588 0)
(0.00127913 -0.000331223 0)
(0.00133089 -0.000322376 0)
(0.00138759 -0.000306268 0)
(0.0014479 -0.000282331 0)
(0.00151034 -0.000250189 0)
(0.00157337 -0.000209965 0)
(0.00163548 -0.000162372 0)
(0.00169486 -0.000108271 0)
(0.00174973 -4.87572e-05 0)
(0.0018001 1.44343e-05 0)
(0.00184554 7.97087e-05 0)
(0.00188394 0.000145811 0)
(0.00191441 0.000211562 0)
(0.00193677 0.000274927 0)
(0.00195034 0.000334157 0)
(0.00195415 0.000388071 0)
(0.00194793 0.000435132 0)
(0.00193183 0.000473787 0)
(0.0019059 0.000502982 0)
(0.00187091 0.00052168 0)
(0.0018285 0.000529442 0)
(0.00178028 0.000526795 0)
(0.00172814 0.000514304 0)
(0.00167485 0.000493503 0)
(0.00162351 0.000467947 0)
(0.00157665 0.000441132 0)
(0.00153582 0.000415357 0)
(0.00150153 0.000392938 0)
(0.00147331 0.000374856 0)
(0.00144973 0.000358558 0)
(0.00142835 0.000341406 0)
(0.00140664 0.0003255 0)
(0.00138338 0.000313762 0)
(0.00135865 0.000302267 0)
(0.0013322 0.000284268 0)
(0.00130288 0.000261989 0)
(0.00127047 0.000244167 0)
(0.00123692 0.000229718 0)
(0.00120377 0.000206902 0)
(0.00116859 0.000174864 0)
(0.00112696 0.000152767 0)
(0.00107876 0.000156057 0)
(0.00103056 0.000172337 0)
(0.000990711 0.00017329 0)
(0.000961611 0.000146815 0)
(0.000936756 0.000109753 0)
(0.000904849 9.12616e-05 0)
(0.00085707 0.000106836 0)
(0.000792382 0.000147196 0)
(0.00071799 0.000190034 0)
(0.00064511 0.000218247 0)
(0.00058298 0.000226278 0)
(0.000535885 0.000215615 0)
(0.000504167 0.000190019 0)
(0.00048624 0.000153601 0)
(0.000479915 0.000110152 0)
(0.000483079 6.28414e-05 0)
(0.000494003 1.4174e-05 0)
(0.000511634 -3.37855e-05 0)
(0.000535134 -7.94437e-05 0)
(0.000563478 -0.000121524 0)
(0.000595726 -0.000158988 0)
(0.000631053 -0.000191017 0)
(0.000668658 -0.00021706 0)
(0.000707722 -0.000236871 0)
(0.000747411 -0.000250534 0)
(0.000786973 -0.000258413 0)
(0.000825829 -0.000261008 0)
(0.000863592 -0.00025879 0)
(0.000899969 -0.000252134 0)
(0.000934603 -0.000241401 0)
(0.00096693 -0.000227131 0)
(0.000996162 -0.00021025 0)
(0.00102149 -0.000192051 0)
(0.00104244 -0.000174016 0)
(0.00101385 -2.7424e-05 0)
(0.00097715 -6.00542e-05 0)
(0.000932741 -8.69381e-05 0)
(0.000885739 -0.000108727 0)
(0.000839802 -0.000127928 0)
(0.00079789 -0.000147952 0)
(0.000763066 -0.000171614 0)
(0.000737925 -0.000200319 0)
(0.000724122 -0.000233856 0)
(0.000722369 -0.000270793 0)
(0.000732574 -0.000309089 0)
(0.000754172 -0.000346516 0)
(0.000786287 -0.000380966 0)
(0.000827984 -0.000410528 0)
(0.000878286 -0.00043355 0)
(0.000936218 -0.000448545 0)
(0.0010008 -0.00045412 0)
(0.00107087 -0.000449113 0)
(0.00114515 -0.000432754 0)
(0.00122211 -0.000404861 0)
(0.00130023 -0.000365575 0)
(0.00137796 -0.000315363 0)
(0.00145383 -0.000255355 0)
(0.00152643 -0.000187363 0)
(0.00159428 -0.000113097 0)
(0.00165661 -3.42018e-05 0)
(0.0017133 4.74678e-05 0)
(0.00176343 0.000129339 0)
(0.00180575 0.000209933 0)
(0.00183978 0.000288479 0)
(0.00186546 0.000362937 0)
(0.0018824 0.0004307 0)
(0.00188951 0.000490919 0)
(0.00188629 0.000542918 0)
(0.00187296 0.000584367 0)
(0.00184917 0.000613319 0)
(0.00181477 0.000629306 0)
(0.00177106 0.000631995 0)
(0.00172003 0.000620958 0)
(0.00166373 0.000596807 0)
(0.00160495 0.000562536 0)
(0.00154742 0.000523085 0)
(0.00149508 0.000482684 0)
(0.00145051 0.000444687 0)
(0.00141346 0.000413619 0)
(0.00138202 0.000392316 0)
(0.00135531 0.000376879 0)
(0.00133348 0.000360553 0)
(0.00131449 0.000343337 0)
(0.00129358 0.000331091 0)
(0.00126828 0.000323373 0)
(0.00124141 0.00031045 0)
(0.0012155 0.000287891 0)
(0.0011858 0.000267361 0)
(0.00114441 0.000264002 0)
(0.00109235 0.000274626 0)
(0.00104198 0.000277606 0)
(0.00100448 0.000256427 0)
(0.000977504 0.000218781 0)
(0.000946366 0.000191867 0)
(0.00089681 0.000198558 0)
(0.000826851 0.000237797 0)
(0.000746672 0.000288477 0)
(0.000669615 0.000327773 0)
(0.000604808 0.000343614 0)
(0.000555562 0.000335097 0)
(0.00052132 0.00030694 0)
(0.000499977 0.000264804 0)
(0.000489157 0.000213414 0)
(0.00048675 0.000156334 0)
(0.000491097 9.62612e-05 0)
(0.000501043 3.53348e-05 0)
(0.000516178 -2.4643e-05 0)
(0.000536192 -8.25917e-05 0)
(0.000560636 -0.000137448 0)
(0.000589328 -0.000188102 0)
(0.000622055 -0.000233384 0)
(0.00065848 -0.000272142 0)
(0.000698087 -0.000303398 0)
(0.000740132 -0.000326574 0)
(0.000783643 -0.000341691 0)
(0.000827556 -0.000349405 0)
(0.000870999 -0.000350766 0)
(0.000913551 -0.00034675 0)
(0.000955288 -0.000337789 0)
(0.000996508 -0.000323631 0)
(0.00103726 -0.000303685 0)
(0.00107687 -0.000277829 0)
(0.00111384 -0.000247201 0)
(0.00114612 -0.000214514 0)
(0.000705504 0.000105045 0)
(0.000626168 8.68145e-05 0)
(0.000550937 6.75636e-05 0)
(0.000484569 4.04427e-05 0)
(0.000431257 1.55728e-06 0)
(0.000393818 -4.87661e-05 0)
(0.000372682 -0.00010816 0)
(0.000366468 -0.000173348 0)
(0.000373361 -0.000240975 0)
(0.000391502 -0.000308132 0)
(0.000419178 -0.000372507 0)
(0.00045499 -0.000432282 0)
(0.000497875 -0.000486038 0)
(0.000547192 -0.00053255 0)
(0.000602598 -0.000570674 0)
(0.00066396 -0.000599181 0)
(0.000731201 -0.000616682 0)
(0.000804041 -0.000621674 0)
(0.00088192 -0.00061269 0)
(0.000963718 -0.000588797 0)
(0.00104792 -0.000549894 0)
(0.00113267 -0.000496849 0)
(0.00121626 -0.000430999 0)
(0.00129715 -0.000354072 0)
(0.00137404 -0.000268464 0)
(0.00144579 -0.000177104 0)
(0.00151158 -8.23662e-05 0)
(0.00157143 1.44334e-05 0)
(0.00162482 0.000111575 0)
(0.00167095 0.000206142 0)
(0.00170973 0.000296393 0)
(0.00174074 0.000382722 0)
(0.00176387 0.000463778 0)
(0.00177909 0.000535879 0)
(0.00178526 0.000597713 0)
(0.00178118 0.000649879 0)
(0.00176703 0.000690065 0)
(0.00174307 0.000714556 0)
(0.0017088 0.000722741 0)
(0.00166447 0.000715839 0)
(0.00161226 0.000693476 0)
(0.00155556 0.000655137 0)
(0.00149771 0.000605329 0)
(0.0014416 0.000554113 0)
(0.0013907 0.000509001 0)
(0.00134885 0.000469109 0)
(0.00131704 0.00043212 0)
(0.00129127 0.000403218 0)
(0.00126609 0.00038898 0)
(0.0012402 0.000384038 0)
(0.001216 0.00037462 0)
(0.00119273 0.000358226 0)
(0.00116378 0.000349383 0)
(0.00112412 0.000358874 0)
(0.00107867 0.000374748 0)
(0.00103878 0.000373132 0)
(0.00100994 0.000345539 0)
(0.0009847 0.000309838 0)
(0.000948607 0.000294648 0)
(0.000892713 0.000314895 0)
(0.000820397 0.000361915 0)
(0.000743421 0.000413364 0)
(0.000673411 0.000448871 0)
(0.000616732 0.000458361 0)
(0.000574403 0.000441597 0)
(0.000544351 0.000403756 0)
(0.000523713 0.000351296 0)
(0.000510147 0.000289643 0)
(0.000502193 0.000222587 0)
(0.000499172 0.000152575 0)
(0.000500964 8.12029e-05 0)
(0.000507794 9.66643e-06 0)
(0.00051891 -6.11004e-05 0)
(0.000533984 -0.000129966 0)
(0.000553733 -0.000195706 0)
(0.000578265 -0.000256989 0)
(0.000607521 -0.000312347 0)
(0.000641347 -0.0003602 0)
(0.000679406 -0.000398989 0)
(0.000721036 -0.000427465 0)
(0.000765156 -0.00044516 0)
(0.000810259 -0.000452829 0)
(0.000854687 -0.000452465 0)
(0.000897191 -0.00044662 0)
(0.000937507 -0.000437185 0)
(0.000976491 -0.00042438 0)
(0.00101562 -0.000406589 0)
(0.00105608 -0.000381338 0)
(0.00109792 -0.000346953 0)
(0.00113974 -0.000304097 0)
(0.000297691 0.000314591 0)
(0.000225034 0.000276657 0)
(0.000168064 0.000219459 0)
(0.000131466 0.00014718 0)
(0.00011399 6.46356e-05 0)
(0.00011229 -2.45089e-05 0)
(0.00012287 -0.000116846 0)
(0.000143553 -0.000209069 0)
(0.000172426 -0.000298586 0)
(0.00020753 -0.000383433 0)
(0.000247095 -0.000462213 0)
(0.000289694 -0.000534036 0)
(0.000334346 -0.000598418 0)
(0.00038069 -0.000655037 0)
(0.000428994 -0.000703519 0)
(0.000480228 -0.000743047 0)
(0.000535775 -0.000772179 0)
(0.000597062 -0.000788774 0)
(0.000664992 -0.000790324 0)
(0.000739549 -0.00077455 0)
(0.000819651 -0.000740124 0)
(0.000903357 -0.000687225 0)
(0.00098834 -0.000617556 0)
(0.00107236 -0.000533807 0)
(0.00115368 -0.000438789 0)
(0.00123087 -0.000335302 0)
(0.00130275 -0.000226366 0)
(0.00136847 -0.000115239 0)
(0.00142818 -4.48746e-06 0)
(0.00148156 0.000105042 0)
(0.00152785 0.00021219 0)
(0.00156731 0.000313879 0)
(0.00160017 0.000408178 0)
(0.00162594 0.000496322 0)
(0.00164425 0.000578334 0)
(0.00165527 0.000650031 0)
(0.00165826 0.000708175 0)
(0.00165149 0.000753692 0)
(0.00163444 0.000786291 0)
(0.0016081 0.000801437 0)
(0.00157303 0.000795511 0)
(0.00152908 0.000770326 0)
(0.00147741 0.000730667 0)
(0.00142265 0.000679378 0)
(0.00137114 0.000618525 0)
(0.00132588 0.000555933 0)
(0.00128479 0.000505015 0)
(0.00124559 0.000473652 0)
(0.00121016 0.000456101 0)
(0.00118129 0.000441021 0)
(0.00115636 0.000426896 0)
(0.00112781 0.000423669 0)
(0.00109187 0.000436136 0)
(0.00105425 0.000451211 0)
(0.00102435 0.000448487 0)
(0.00100414 0.000423037 0)
(0.000984338 0.000393626 0)
(0.000951932 0.000386877 0)
(0.000900785 0.000414703 0)
(0.000835435 0.000466816 0)
(0.000766583 0.000520815 0)
(0.000704138 0.000556648 0)
(0.000653242 0.000564536 0)
(0.000614289 0.000544761 0)
(0.000585035 0.000503247 0)
(0.000562821 0.000446997 0)
(0.000545783 0.000381473 0)
(0.000533076 0.000310004 0)
(0.000524656 0.00023439 0)
(0.000520808 0.00015574 0)
(0.000521846 7.50648e-05 0)
(0.000527562 -6.5292e-06 0)
(0.00053816 -8.79189e-05 0)
(0.000553881 -0.000167375 0)
(0.000574342 -0.000243434 0)
(0.000599281 -0.000314651 0)
(0.00062838 -0.000379512 0)
(0.000661297 -0.000436367 0)
(0.000697748 -0.000483351 0)
(0.000737486 -0.00051843 0)
(0.000780107 -0.00053984 0)
(0.000824628 -0.000547038 0)
(0.000869206 -0.000541728 0)
(0.000911388 -0.000528016 0)
(0.000949094 -0.000510929 0)
(0.000981703 -0.000493913 0)
(0.00101046 -0.000476921 0)
(0.00103777 -0.000456566 0)
(0.00106592 -0.000428298 0)
(0.0010959 -0.00038931 0)
(-2.47627e-05 0.000446639 0)
(-5.38119e-05 0.000358087 0)
(-5.46156e-05 0.000259485 0)
(-4.30658e-05 0.000151208 0)
(-1.78946e-05 3.80294e-05 0)
(1.66433e-05 -7.67974e-05 0)
(5.91133e-05 -0.000189475 0)
(0.000107474 -0.000296908 0)
(0.000159408 -0.00039678 0)
(0.000212701 -0.00048753 0)
(0.000265219 -0.000568375 0)
(0.000314959 -0.000639385 0)
(0.000360271 -0.000701422 0)
(0.000400117 -0.000755922 0)
(0.00043442 -0.000804433 0)
(0.00046449 -0.00084787 0)
(0.000493134 -0.000885713 0)
(0.000524337 -0.000915375 0)
(0.000562038 -0.000932548 0)
(0.000609033 -0.000932245 0)
(0.000666019 -0.000910566 0)
(0.000731796 -0.000865804 0)
(0.000803789 -0.000798942 0)
(0.000878971 -0.000713037 0)
(0.000954703 -0.00061217 0)
(0.00102889 -0.000500452 0)
(0.00110019 -0.000381265 0)
(0.00116739 -0.000257476 0)
(0.00122953 -0.000131978 0)
(0.00128636 -8.16869e-06 0)
(0.00133753 0.000111663 0)
(0.0013825 0.000227127 0)
(0.0014211 0.000337784 0)
(0.00145356 0.000441208 0)
(0.00148029 0.000534949 0)
(0.00150079 0.000619918 0)
(0.00151403 0.000697424 0)
(0.00151981 0.000763774 0)
(0.00151822 0.000813244 0)
(0.00150807 0.00084468 0)
(0.00148784 0.00085987 0)
(0.00145759 0.000857211 0)
(0.00141944 0.000831375 0)
(0.00137649 0.000780957 0)
(0.00133042 0.000716068 0)
(0.00128137 0.000653916 0)
(0.00123177 0.000604226 0)
(0.00118772 0.000563774 0)
(0.00115366 0.000527538 0)
(0.00112682 0.000499756 0)
(0.00109965 0.000489693 0)
(0.00106825 0.000497664 0)
(0.0010371 0.000509042 0)
(0.00101372 0.00050553 0)
(0.000999236 0.000483413 0)
(0.000985296 0.000459483 0)
(0.000960441 0.000457614 0)