/*--------------------------------*- C++ -*----------------------------------*\
| =========                 |                                                 |
| \\      /  F ield         | OpenFOAM: The Open Source CFD Toolbox           |
|  \\    /   O peration     | Version:  2312                                  |
|   \\  /    A nd           | Website:  www.openfoam.com                      |
|    \\/     M anipulation  |                                                 |
\*---------------------------------------------------------------------------*/
FoamFile
{
    version     2.0;
    format      ascii;
    arch        "LSB;label=32;scalar=64";
    class       volScalarField;
    location    "25000";
    object      p;
}
// * * * * * * * * * * * * * * * * * * * * * * * * * * * * * * * * * * * * * //

dimensions      [0 2 -2 0 0 0 0];

internalField   nonuniform List<scalar> 
10800
(
5.05741e-07
4.91618e-07
4.7785e-07
4.67273e-07
4.59849e-07
4.54457e-07
4.50005e-07
4.45925e-07
4.42048e-07
4.38381e-07
4.34963e-07
4.31797e-07
4.28849e-07
4.26069e-07
4.23412e-07
4.20843e-07
4.18341e-07
4.15893e-07
4.13489e-07
4.11119e-07
4.08776e-07
4.0645e-07
4.04137e-07
4.0183e-07
3.99525e-07
3.97218e-07
3.94907e-07
3.92588e-07
3.90261e-07
3.87924e-07
3.85574e-07
3.83213e-07
3.80839e-07
3.78453e-07
3.76054e-07
3.73643e-07
3.7122e-07
3.68786e-07
3.66343e-07
3.6389e-07
3.61429e-07
3.5896e-07
3.56485e-07
3.54003e-07
3.51516e-07
3.49023e-07
3.46525e-07
3.44018e-07
3.41508e-07
3.38978e-07
3.36453e-07
3.33878e-07
3.3134e-07
3.28661e-07
3.26153e-07
3.23161e-07
3.20968e-07
3.16724e-07
3.16559e-07
3.06245e-07
4.57699e-07
4.55971e-07
4.53326e-07
4.502e-07
4.46983e-07
4.43888e-07
4.40964e-07
4.38176e-07
4.35473e-07
4.32825e-07
4.30226e-07
4.27681e-07
4.25197e-07
4.22774e-07
4.20405e-07
4.18082e-07
4.15794e-07
4.13535e-07
4.11298e-07
4.09079e-07
4.06873e-07
4.04675e-07
4.02484e-07
4.00294e-07
3.98104e-07
3.95911e-07
3.93712e-07
3.91506e-07
3.89292e-07
3.87067e-07
3.84832e-07
3.82586e-07
3.80328e-07
3.78058e-07
3.75777e-07
3.73483e-07
3.7118e-07
3.68863e-07
3.66539e-07
3.64202e-07
3.61861e-07
3.59504e-07
3.57149e-07
3.54773e-07
3.52409e-07
3.50014e-07
3.47645e-07
3.4523e-07
3.42867e-07
3.40429e-07
3.38093e-07
3.35635e-07
3.3338e-07
3.30922e-07
3.28881e-07
3.26483e-07
3.24974e-07
3.22698e-07
3.22307e-07
3.1971e-07
4.4896e-07
4.4821e-07
4.46796e-07
4.44844e-07
4.42559e-07
4.40138e-07
4.37707e-07
4.35317e-07
4.3297e-07
4.30654e-07
4.28359e-07
4.26086e-07
4.23839e-07
4.21624e-07
4.19442e-07
4.17291e-07
4.15168e-07
4.13067e-07
4.10984e-07
4.08915e-07
4.06857e-07
4.04806e-07
4.02761e-07
4.00719e-07
3.98678e-07
3.96635e-07
3.94589e-07
3.92539e-07
3.90483e-07
3.8842e-07
3.86351e-07
3.84272e-07
3.82186e-07
3.80089e-07
3.77985e-07
3.75871e-07
3.7375e-07
3.71617e-07
3.69479e-07
3.67329e-07
3.65176e-07
3.63009e-07
3.60843e-07
3.5866e-07
3.56484e-07
3.54286e-07
3.52103e-07
3.49891e-07
3.47709e-07
3.45484e-07
3.43313e-07
3.41081e-07
3.3894e-07
3.36707e-07
3.34626e-07
3.32399e-07
3.30424e-07
3.28205e-07
3.2637e-07
3.24063e-07
4.37227e-07
4.36795e-07
4.36008e-07
4.34917e-07
4.33592e-07
4.32104e-07
4.30509e-07
4.28847e-07
4.27139e-07
4.25396e-07
4.23624e-07
4.21829e-07
4.20017e-07
4.18194e-07
4.16365e-07
4.14533e-07
4.127e-07
4.10866e-07
4.09031e-07
4.07193e-07
4.05354e-07
4.03511e-07
4.01665e-07
3.99815e-07
3.97961e-07
3.96101e-07
3.94236e-07
3.92365e-07
3.90487e-07
3.88603e-07
3.86712e-07
3.84814e-07
3.82909e-07
3.80997e-07
3.79079e-07
3.77153e-07
3.75222e-07
3.73283e-07
3.71339e-07
3.69387e-07
3.67431e-07
3.65466e-07
3.63497e-07
3.61519e-07
3.59536e-07
3.57541e-07
3.55541e-07
3.53523e-07
3.51502e-07
3.49454e-07
3.47403e-07
3.45319e-07
3.43232e-07
3.41101e-07
3.38975e-07
3.3679e-07
3.34616e-07
3.32364e-07
3.30127e-07
3.27802e-07
4.3053e-07
4.30317e-07
4.29885e-07
4.2924e-07
4.28396e-07
4.27382e-07
4.26231e-07
4.24973e-07
4.23634e-07
4.2223e-07
4.20773e-07
4.19273e-07
4.17736e-07
4.1617e-07
4.14579e-07
4.1297e-07
4.11345e-07
4.09708e-07
4.0806e-07
4.06402e-07
4.04737e-07
4.03064e-07
4.01384e-07
3.99697e-07
3.98005e-07
3.96307e-07
3.94604e-07
3.92895e-07
3.91182e-07
3.89464e-07
3.87742e-07
3.86015e-07
3.84285e-07
3.82552e-07
3.80815e-07
3.79076e-07
3.77334e-07
3.75589e-07
3.73843e-07
3.72094e-07
3.70344e-07
3.68591e-07
3.66836e-07
3.65079e-07
3.63318e-07
3.61553e-07
3.59784e-07
3.58007e-07
3.56222e-07
3.54425e-07
3.52609e-07
3.50768e-07
3.48889e-07
3.46963e-07
3.4497e-07
3.42902e-07
3.40745e-07
3.38509e-07
3.36201e-07
3.33917e-07
4.25013e-07
4.24851e-07
4.24526e-07
4.24042e-07
4.23409e-07
4.22643e-07
4.21762e-07
4.20784e-07
4.19725e-07
4.18597e-07
4.17411e-07
4.16174e-07
4.14893e-07
4.13573e-07
4.1222e-07
4.10838e-07
4.09431e-07
4.08004e-07
4.06558e-07
4.05096e-07
4.03621e-07
4.02132e-07
4.00633e-07
3.99124e-07
3.97606e-07
3.96081e-07
3.94549e-07
3.93012e-07
3.91469e-07
3.89923e-07
3.88373e-07
3.86821e-07
3.85266e-07
3.83711e-07
3.82154e-07
3.80598e-07
3.79041e-07
3.77486e-07
3.75931e-07
3.74378e-07
3.72826e-07
3.71275e-07
3.69724e-07
3.68173e-07
3.66619e-07
3.65062e-07
3.63498e-07
3.61926e-07
3.60341e-07
3.58743e-07
3.57127e-07
3.55495e-07
3.53838e-07
3.52161e-07
3.50437e-07
3.4867e-07
3.46825e-07
3.44925e-07
3.42966e-07
3.41074e-07
4.2067e-07
4.20551e-07
4.20314e-07
4.19958e-07
4.19488e-07
4.1891e-07
4.18234e-07
4.1747e-07
4.16628e-07
4.15716e-07
4.14744e-07
4.13718e-07
4.12643e-07
4.11524e-07
4.10368e-07
4.09177e-07
4.07956e-07
4.06708e-07
4.05438e-07
4.04147e-07
4.02838e-07
4.01513e-07
4.00175e-07
3.98825e-07
3.97465e-07
3.96097e-07
3.94721e-07
3.93341e-07
3.91956e-07
3.90568e-07
3.89178e-07
3.87788e-07
3.86398e-07
3.8501e-07
3.83625e-07
3.82243e-07
3.80865e-07
3.79493e-07
3.78127e-07
3.76767e-07
3.75413e-07
3.74067e-07
3.72728e-07
3.71397e-07
3.70072e-07
3.68755e-07
3.67443e-07
3.66137e-07
3.6483e-07
3.63521e-07
3.62199e-07
3.60861e-07
3.59495e-07
3.58107e-07
3.56685e-07
3.5524e-07
3.5375e-07
3.52238e-07
3.50702e-07
3.49253e-07
4.17221e-07
4.17129e-07
4.16944e-07
4.16665e-07
4.16294e-07
4.15835e-07
4.15292e-07
4.14673e-07
4.13983e-07
4.13228e-07
4.12414e-07
4.11546e-07
4.10629e-07
4.09669e-07
4.0867e-07
4.07635e-07
4.06568e-07
4.05474e-07
4.04355e-07
4.03213e-07
4.02053e-07
4.00875e-07
3.99683e-07
3.98479e-07
3.97264e-07
3.96041e-07
3.94812e-07
3.93578e-07
3.92341e-07
3.91103e-07
3.89864e-07
3.88628e-07
3.87395e-07
3.86167e-07
3.84945e-07
3.8373e-07
3.82524e-07
3.81329e-07
3.80144e-07
3.78971e-07
3.77812e-07
3.76666e-07
3.75534e-07
3.74417e-07
3.73314e-07
3.72226e-07
3.71151e-07
3.70089e-07
3.6904e-07
3.68006e-07
3.66981e-07
3.65967e-07
3.64948e-07
3.63928e-07
3.62895e-07
3.61858e-07
3.60807e-07
3.59767e-07
3.58745e-07
3.57843e-07
4.1446e-07
4.14385e-07
4.14233e-07
4.14005e-07
4.13701e-07
4.13322e-07
4.12873e-07
4.12356e-07
4.11777e-07
4.1114e-07
4.10448e-07
4.09706e-07
4.08918e-07
4.08088e-07
4.0722e-07
4.06317e-07
4.05383e-07
4.0442e-07
4.03432e-07
4.02422e-07
4.01392e-07
4.00346e-07
3.99285e-07
3.98211e-07
3.97128e-07
3.96037e-07
3.94941e-07
3.93841e-07
3.92739e-07
3.91638e-07
3.9054e-07
3.89446e-07
3.88359e-07
3.87279e-07
3.8621e-07
3.85152e-07
3.84108e-07
3.8308e-07
3.82069e-07
3.81076e-07
3.80104e-07
3.79153e-07
3.78226e-07
3.77324e-07
3.76448e-07
3.75599e-07
3.74778e-07
3.73985e-07
3.73219e-07
3.72481e-07
3.71765e-07
3.71078e-07
3.70415e-07
3.6978e-07
3.69166e-07
3.6858e-07
3.68015e-07
3.67493e-07
3.67025e-07
3.66698e-07
4.1226e-07
4.12197e-07
4.12069e-07
4.11876e-07
4.11619e-07
4.11298e-07
4.10916e-07
4.10475e-07
4.09979e-07
4.09431e-07
4.08833e-07
4.0819e-07
4.07504e-07
4.06778e-07
4.06016e-07
4.0522e-07
4.04395e-07
4.03542e-07
4.02664e-07
4.01765e-07
4.00846e-07
3.99911e-07
3.98962e-07
3.98002e-07
3.97033e-07
3.96057e-07
3.95077e-07
3.94095e-07
3.93113e-07
3.92134e-07
3.91161e-07
3.90194e-07
3.89237e-07
3.88291e-07
3.8736e-07
3.86445e-07
3.85549e-07
3.84674e-07
3.83822e-07
3.82996e-07
3.82198e-07
3.8143e-07
3.80694e-07
3.79994e-07
3.7933e-07
3.78706e-07
3.78124e-07
3.77586e-07
3.77092e-07
3.76643e-07
3.76242e-07
3.75893e-07
3.75596e-07
3.75355e-07
3.75168e-07
3.75043e-07
3.74977e-07
3.74992e-07
3.75099e-07
3.75373e-07
4.10534e-07
4.10479e-07
4.10368e-07
4.10201e-07
4.09977e-07
4.09698e-07
4.09366e-07
4.08981e-07
4.08547e-07
4.08066e-07
4.0754e-07
4.06972e-07
4.06364e-07
4.0572e-07
4.05042e-07
4.04332e-07
4.03593e-07
4.02829e-07
4.02041e-07
4.01232e-07
4.00406e-07
3.99564e-07
3.98709e-07
3.97844e-07
3.96971e-07
3.96093e-07
3.95212e-07
3.94331e-07
3.93452e-07
3.92578e-07
3.91712e-07
3.90856e-07
3.90013e-07
3.89185e-07
3.88375e-07
3.87586e-07
3.86821e-07
3.86082e-07
3.85373e-07
3.84697e-07
3.84056e-07
3.83453e-07
3.82893e-07
3.82378e-07
3.81912e-07
3.81499e-07
3.8114e-07
3.80838e-07
3.80599e-07
3.80426e-07
3.80324e-07
3.80298e-07
3.8035e-07
3.80487e-07
3.80711e-07
3.81032e-07
3.81452e-07
3.81989e-07
3.8266e-07
3.83521e-07
4.09217e-07
4.09168e-07
4.0907e-07
4.08921e-07
4.08722e-07
4.08473e-07
4.08176e-07
4.07832e-07
4.07444e-07
4.07012e-07
4.0654e-07
4.06028e-07
4.0548e-07
4.04898e-07
4.04283e-07
4.0364e-07
4.02969e-07
4.02274e-07
4.01557e-07
4.0082e-07
4.00066e-07
3.99299e-07
3.98519e-07
3.97731e-07
3.96936e-07
3.96137e-07
3.95337e-07
3.94539e-07
3.93745e-07
3.92958e-07
3.92181e-07
3.91416e-07
3.90668e-07
3.89938e-07
3.89229e-07
3.88546e-07
3.87891e-07
3.87268e-07
3.86679e-07
3.8613e-07
3.85623e-07
3.85162e-07
3.84752e-07
3.84396e-07
3.841e-07
3.83867e-07
3.83701e-07
3.83608e-07
3.83595e-07
3.83667e-07
3.8383e-07
3.84091e-07
3.84455e-07
3.84932e-07
3.85526e-07
3.8625e-07
3.87112e-07
3.88127e-07
3.89315e-07
3.90716e-07
4.08266e-07
4.08221e-07
4.08131e-07
4.07995e-07
4.07813e-07
4.07585e-07
4.07313e-07
4.06998e-07
4.06641e-07
4.06245e-07
4.0581e-07
4.05339e-07
4.04834e-07
4.04296e-07
4.03728e-07
4.03133e-07
4.02512e-07
4.01868e-07
4.01203e-07
4.0052e-07
3.99821e-07
3.99109e-07
3.98386e-07
3.97655e-07
3.96919e-07
3.96181e-07
3.95443e-07
3.94707e-07
3.93978e-07
3.93258e-07
3.92549e-07
3.91855e-07
3.91179e-07
3.90525e-07
3.89896e-07
3.89295e-07
3.88726e-07
3.88193e-07
3.87699e-07
3.87249e-07
3.86848e-07
3.86499e-07
3.86207e-07
3.85978e-07
3.85817e-07
3.85729e-07
3.8572e-07
3.85797e-07
3.85967e-07
3.86237e-07
3.86616e-07
3.87111e-07
3.87731e-07
3.88486e-07
3.89387e-07
3.90445e-07
3.91673e-07
3.93086e-07
3.94705e-07
3.96559e-07
4.07648e-07
4.07606e-07
4.07521e-07
4.07393e-07
4.07221e-07
4.07007e-07
4.06751e-07
4.06454e-07
4.06118e-07
4.05744e-07
4.05333e-07
4.04888e-07
4.04411e-07
4.03902e-07
4.03365e-07
4.02801e-07
4.02213e-07
4.01602e-07
4.00972e-07
4.00324e-07
3.99662e-07
3.98987e-07
3.98302e-07
3.9761e-07
3.96914e-07
3.96216e-07
3.95519e-07
3.94826e-07
3.9414e-07
3.93465e-07
3.92803e-07
3.92157e-07
3.91531e-07
3.90929e-07
3.90353e-07
3.89808e-07
3.89298e-07
3.88827e-07
3.88399e-07
3.88018e-07
3.8769e-07
3.87418e-07
3.8721e-07
3.87069e-07
3.87002e-07
3.87015e-07
3.87116e-07
3.87311e-07
3.8761e-07
3.8802e-07
3.88551e-07
3.89212e-07
3.90014e-07
3.90967e-07
3.92086e-07
3.93383e-07
3.94874e-07
3.96574e-07
3.98505e-07
4.00685e-07
4.07344e-07
4.07303e-07
4.0722e-07
4.07096e-07
4.0693e-07
4.06722e-07
4.06474e-07
4.06186e-07
4.0586e-07
4.05496e-07
4.05098e-07
4.04666e-07
4.04202e-07
4.03708e-07
4.03185e-07
4.02637e-07
4.02065e-07
4.01471e-07
4.00858e-07
4.00228e-07
3.99583e-07
3.98927e-07
3.98261e-07
3.97588e-07
3.96912e-07
3.96234e-07
3.95558e-07
3.94887e-07
3.94224e-07
3.93571e-07
3.92932e-07
3.92311e-07
3.9171e-07
3.91134e-07
3.90586e-07
3.9007e-07
3.8959e-07
3.8915e-07
3.88755e-07
3.88409e-07
3.88118e-07
3.87886e-07
3.8772e-07
3.87624e-07
3.87606e-07
3.87671e-07
3.87829e-07
3.88086e-07
3.88451e-07
3.88933e-07
3.89543e-07
3.9029e-07
3.91186e-07
3.92243e-07
3.93476e-07
3.94897e-07
3.96526e-07
3.98376e-07
4.0047e-07
4.02821e-07
4.07343e-07
4.07302e-07
4.0722e-07
4.07096e-07
4.0693e-07
4.06722e-07
4.06474e-07
4.06186e-07
4.05859e-07
4.05496e-07
4.05098e-07
4.04666e-07
4.04201e-07
4.03707e-07
4.03185e-07
4.02637e-07
4.02065e-07
4.01471e-07
4.00857e-07
4.00227e-07
3.99583e-07
3.98926e-07
3.98261e-07
3.97588e-07
3.96912e-07
3.96234e-07
3.95558e-07
3.94887e-07
3.94223e-07
3.9357e-07
3.92932e-07
3.9231e-07
3.9171e-07
3.91133e-07
3.90585e-07
3.90069e-07
3.89589e-07
3.89149e-07
3.88754e-07
3.88409e-07
3.88117e-07
3.87886e-07
3.87719e-07
3.87623e-07
3.87605e-07
3.8767e-07
3.87828e-07
3.88085e-07
3.8845e-07
3.88932e-07
3.89542e-07
3.90289e-07
3.91185e-07
3.92242e-07
3.93475e-07
3.94896e-07
3.96525e-07
3.98375e-07
4.00468e-07
4.0282e-07
4.07647e-07
4.07605e-07
4.0752e-07
4.07392e-07
4.07221e-07
4.07006e-07
4.0675e-07
4.06453e-07
4.06117e-07
4.05743e-07
4.05333e-07
4.04888e-07
4.0441e-07
4.03901e-07
4.03364e-07
4.028e-07
4.02212e-07
4.01601e-07
4.00971e-07
4.00323e-07
3.99661e-07
3.98985e-07
3.98301e-07
3.97609e-07
3.96912e-07
3.96214e-07
3.95518e-07
3.94825e-07
3.94139e-07
3.93464e-07
3.92801e-07
3.92156e-07
3.9153e-07
3.90927e-07
3.90352e-07
3.89807e-07
3.89297e-07
3.88825e-07
3.88397e-07
3.88016e-07
3.87688e-07
3.87416e-07
3.87207e-07
3.87067e-07
3.87e-07
3.87013e-07
3.87113e-07
3.87309e-07
3.87608e-07
3.88018e-07
3.88548e-07
3.89209e-07
3.90011e-07
3.90964e-07
3.92083e-07
3.9338e-07
3.94871e-07
3.9657e-07
3.98501e-07
4.00681e-07
4.08265e-07
4.0822e-07
4.0813e-07
4.07994e-07
4.07811e-07
4.07584e-07
4.07312e-07
4.06997e-07
4.0664e-07
4.06243e-07
4.05809e-07
4.05338e-07
4.04832e-07
4.04295e-07
4.03727e-07
4.03131e-07
4.0251e-07
4.01866e-07
4.01201e-07
4.00518e-07
3.99819e-07
3.99107e-07
3.98384e-07
3.97654e-07
3.96918e-07
3.96179e-07
3.95441e-07
3.94705e-07
3.93976e-07
3.93255e-07
3.92547e-07
3.91853e-07
3.91177e-07
3.90523e-07
3.89893e-07
3.89292e-07
3.88723e-07
3.8819e-07
3.87696e-07
3.87246e-07
3.86844e-07
3.86495e-07
3.86204e-07
3.85975e-07
3.85813e-07
3.85725e-07
3.85716e-07
3.85793e-07
3.85962e-07
3.86232e-07
3.86611e-07
3.87106e-07
3.87726e-07
3.88481e-07
3.89381e-07
3.90439e-07
3.91666e-07
3.9308e-07
3.94699e-07
3.96552e-07
4.09216e-07
4.09167e-07
4.09068e-07
4.08919e-07
4.0872e-07
4.08471e-07
4.08174e-07
4.07831e-07
4.07442e-07
4.0701e-07
4.06538e-07
4.06026e-07
4.05478e-07
4.04896e-07
4.04281e-07
4.03638e-07
4.02967e-07
4.02272e-07
4.01554e-07
4.00818e-07
4.00064e-07
3.99296e-07
3.98517e-07
3.97728e-07
3.96933e-07
3.96134e-07
3.95334e-07
3.94536e-07
3.93742e-07
3.92955e-07
3.92178e-07
3.91413e-07
3.90664e-07
3.89934e-07
3.89226e-07
3.88542e-07
3.87887e-07
3.87264e-07
3.86675e-07
3.86126e-07
3.85618e-07
3.85158e-07
3.84747e-07
3.84391e-07
3.84095e-07
3.83861e-07
3.83695e-07
3.83602e-07
3.83589e-07
3.8366e-07
3.83823e-07
3.84084e-07
3.84448e-07
3.84924e-07
3.85519e-07
3.86242e-07
3.87103e-07
3.88118e-07
3.89306e-07
3.90707e-07
4.10531e-07
4.10476e-07
4.10366e-07
4.10198e-07
4.09975e-07
4.09696e-07
4.09363e-07
4.08979e-07
4.08545e-07
4.08063e-07
4.07537e-07
4.06969e-07
4.06362e-07
4.05718e-07
4.05039e-07
4.04329e-07
4.03591e-07
4.02826e-07
4.02038e-07
4.0123e-07
4.00403e-07
3.99561e-07
3.98706e-07
3.97841e-07
3.96968e-07
3.96089e-07
3.95208e-07
3.94327e-07
3.93448e-07
3.92575e-07
3.91708e-07
3.90852e-07
3.90009e-07
3.89181e-07
3.88371e-07
3.87582e-07
3.86816e-07
3.86077e-07
3.85368e-07
3.84691e-07
3.8405e-07
3.83448e-07
3.82887e-07
3.82372e-07
3.81906e-07
3.81492e-07
3.81133e-07
3.80831e-07
3.80591e-07
3.80418e-07
3.80315e-07
3.80289e-07
3.80341e-07
3.80478e-07
3.80702e-07
3.81021e-07
3.81441e-07
3.81978e-07
3.82649e-07
3.83509e-07
4.12257e-07
4.12194e-07
4.12066e-07
4.11874e-07
4.11616e-07
4.11295e-07
4.10913e-07
4.10473e-07
4.09977e-07
4.09428e-07
4.08831e-07
4.08187e-07
4.07501e-07
4.06775e-07
4.06013e-07
4.05217e-07
4.04391e-07
4.03538e-07
4.02661e-07
4.01761e-07
4.00843e-07
3.99908e-07
3.98959e-07
3.97998e-07
3.97029e-07
3.96053e-07
3.95073e-07
3.94091e-07
3.93109e-07
3.9213e-07
3.91156e-07
3.90189e-07
3.89232e-07
3.88286e-07
3.87355e-07
3.8644e-07
3.85543e-07
3.84668e-07
3.83816e-07
3.82989e-07
3.82191e-07
3.81423e-07
3.80687e-07
3.79986e-07
3.79322e-07
3.78698e-07
3.78115e-07
3.77577e-07
3.77083e-07
3.76634e-07
3.76232e-07
3.75883e-07
3.75585e-07
3.75344e-07
3.75156e-07
3.7503e-07
3.74965e-07
3.74978e-07
3.75086e-07
3.75359e-07
4.14457e-07
4.14382e-07
4.1423e-07
4.14002e-07
4.13698e-07
4.13319e-07
4.1287e-07
4.12353e-07
4.11774e-07
4.11137e-07
4.10445e-07
4.09703e-07
4.08915e-07
4.08085e-07
4.07216e-07
4.06313e-07
4.05379e-07
4.04416e-07
4.03428e-07
4.02418e-07
4.01388e-07
4.00342e-07
3.9928e-07
3.98207e-07
3.97124e-07
3.96032e-07
3.94936e-07
3.93836e-07
3.92734e-07
3.91633e-07
3.90535e-07
3.8944e-07
3.88353e-07
3.87273e-07
3.86204e-07
3.85146e-07
3.84102e-07
3.83073e-07
3.82061e-07
3.81069e-07
3.80096e-07
3.79145e-07
3.78218e-07
3.77315e-07
3.76439e-07
3.75589e-07
3.74768e-07
3.73975e-07
3.73209e-07
3.7247e-07
3.71754e-07
3.71066e-07
3.70403e-07
3.69767e-07
3.69153e-07
3.68566e-07
3.68001e-07
3.67478e-07
3.6701e-07
3.66681e-07
4.17218e-07
4.17126e-07
4.1694e-07
4.16662e-07
4.16291e-07
4.15831e-07
4.15289e-07
4.14669e-07
4.13979e-07
4.13224e-07
4.1241e-07
4.11542e-07
4.10626e-07
4.09665e-07
4.08666e-07
4.07631e-07
4.06564e-07
4.0547e-07
4.0435e-07
4.03209e-07
4.02048e-07
4.00871e-07
3.99678e-07
3.98474e-07
3.97259e-07
3.96036e-07
3.94807e-07
3.93572e-07
3.92335e-07
3.91097e-07
3.89858e-07
3.88622e-07
3.87389e-07
3.8616e-07
3.84938e-07
3.83723e-07
3.82517e-07
3.81321e-07
3.80136e-07
3.78963e-07
3.77803e-07
3.76657e-07
3.75525e-07
3.74408e-07
3.73304e-07
3.72216e-07
3.7114e-07
3.70078e-07
3.69028e-07
3.67994e-07
3.66968e-07
3.65953e-07
3.64935e-07
3.63914e-07
3.6288e-07
3.61843e-07
3.60791e-07
3.5975e-07
3.58727e-07
3.57825e-07
4.20666e-07
4.20547e-07
4.2031e-07
4.19954e-07
4.19484e-07
4.18906e-07
4.1823e-07
4.17466e-07
4.16624e-07
4.15712e-07
4.1474e-07
4.13713e-07
4.12638e-07
4.1152e-07
4.10363e-07
4.09172e-07
4.07951e-07
4.06704e-07
4.05433e-07
4.04142e-07
4.02833e-07
4.01508e-07
4.0017e-07
3.9882e-07
3.97459e-07
3.96091e-07
3.94715e-07
3.93334e-07
3.91949e-07
3.90561e-07
3.89171e-07
3.87781e-07
3.86391e-07
3.85003e-07
3.83617e-07
3.82235e-07
3.80857e-07
3.79485e-07
3.78118e-07
3.76757e-07
3.75404e-07
3.74057e-07
3.72718e-07
3.71386e-07
3.70061e-07
3.68744e-07
3.67431e-07
3.66124e-07
3.64817e-07
3.63508e-07
3.62185e-07
3.60846e-07
3.5948e-07
3.58091e-07
3.56669e-07
3.55223e-07
3.53732e-07
3.5222e-07
3.50683e-07
3.49233e-07
4.25009e-07
4.24847e-07
4.24522e-07
4.24038e-07
4.23405e-07
4.22638e-07
4.21757e-07
4.2078e-07
4.19721e-07
4.18593e-07
4.17407e-07
4.1617e-07
4.14888e-07
4.13568e-07
4.12215e-07
4.10833e-07
4.09427e-07
4.07999e-07
4.06553e-07
4.05091e-07
4.03615e-07
4.02127e-07
4.00627e-07
3.99118e-07
3.976e-07
3.96075e-07
3.94543e-07
3.93005e-07
3.91463e-07
3.89916e-07
3.88366e-07
3.86813e-07
3.85259e-07
3.83703e-07
3.82146e-07
3.80589e-07
3.79033e-07
3.77477e-07
3.75922e-07
3.74368e-07
3.72816e-07
3.71264e-07
3.69713e-07
3.68161e-07
3.66607e-07
3.65049e-07
3.63485e-07
3.61912e-07
3.60327e-07
3.58729e-07
3.57112e-07
3.55479e-07
3.53822e-07
3.52144e-07
3.5042e-07
3.48652e-07
3.46806e-07
3.44905e-07
3.42946e-07
3.41053e-07
4.30526e-07
4.30312e-07
4.29881e-07
4.29235e-07
4.28391e-07
4.27377e-07
4.26226e-07
4.24969e-07
4.23629e-07
4.22225e-07
4.20768e-07
4.19268e-07
4.17731e-07
4.16165e-07
4.14574e-07
4.12965e-07
4.1134e-07
4.09703e-07
4.08054e-07
4.06397e-07
4.04731e-07
4.03058e-07
4.01378e-07
3.99691e-07
3.97999e-07
3.96301e-07
3.94597e-07
3.92888e-07
3.91175e-07
3.89457e-07
3.87734e-07
3.86007e-07
3.84277e-07
3.82543e-07
3.80806e-07
3.79067e-07
3.77324e-07
3.7558e-07
3.73833e-07
3.72084e-07
3.70333e-07
3.6858e-07
3.66825e-07
3.65066e-07
3.63305e-07
3.6154e-07
3.5977e-07
3.57993e-07
3.56208e-07
3.54409e-07
3.52593e-07
3.50751e-07
3.48872e-07
3.46945e-07
3.44952e-07
3.42883e-07
3.40725e-07
3.38489e-07
3.3618e-07
3.33895e-07
4.37223e-07
4.3679e-07
4.36003e-07
4.34913e-07
4.33588e-07
4.32099e-07
4.30504e-07
4.28842e-07
4.27134e-07
4.25391e-07
4.23619e-07
4.21824e-07
4.20012e-07
4.18189e-07
4.1636e-07
4.14528e-07
4.12695e-07
4.10861e-07
4.09025e-07
4.07187e-07
4.05348e-07
4.03505e-07
4.01659e-07
3.99809e-07
3.97954e-07
3.96094e-07
3.94229e-07
3.92357e-07
3.9048e-07
3.88595e-07
3.86704e-07
3.84806e-07
3.82901e-07
3.80988e-07
3.7907e-07
3.77144e-07
3.75212e-07
3.73272e-07
3.71328e-07
3.69376e-07
3.67419e-07
3.65454e-07
3.63485e-07
3.61506e-07
3.59523e-07
3.57527e-07
3.55527e-07
3.53508e-07
3.51486e-07
3.49438e-07
3.47387e-07
3.45301e-07
3.43214e-07
3.41083e-07
3.38955e-07
3.3677e-07
3.34595e-07
3.32342e-07
3.30104e-07
3.27779e-07
4.48956e-07
4.48205e-07
4.46791e-07
4.44839e-07
4.42554e-07
4.40133e-07
4.37702e-07
4.35312e-07
4.32965e-07
4.30649e-07
4.28354e-07
4.26081e-07
4.23834e-07
4.21618e-07
4.19436e-07
4.17286e-07
4.15163e-07
4.13062e-07
4.10978e-07
4.08909e-07
4.0685e-07
4.048e-07
4.02755e-07
4.00712e-07
3.98671e-07
3.96628e-07
3.94582e-07
3.92532e-07
3.90476e-07
3.88412e-07
3.86342e-07
3.84263e-07
3.82177e-07
3.8008e-07
3.77976e-07
3.75861e-07
3.73739e-07
3.71606e-07
3.69468e-07
3.67317e-07
3.65164e-07
3.62997e-07
3.6083e-07
3.58647e-07
3.5647e-07
3.54272e-07
3.52088e-07
3.49876e-07
3.47693e-07
3.45468e-07
3.43296e-07
3.41063e-07
3.38922e-07
3.36687e-07
3.34606e-07
3.32379e-07
3.30402e-07
3.28182e-07
3.26347e-07
3.24038e-07
4.57694e-07
4.55966e-07
4.53321e-07
4.50195e-07
4.46978e-07
4.43883e-07
4.40959e-07
4.38171e-07
4.35468e-07
4.3282e-07
4.30221e-07
4.27676e-07
4.25192e-07
4.22769e-07
4.204e-07
4.18076e-07
4.15789e-07
4.13529e-07
4.11292e-07
4.09073e-07
4.06866e-07
4.04669e-07
4.02477e-07
4.00288e-07
3.98097e-07
3.95904e-07
3.93705e-07
3.91498e-07
3.89284e-07
3.87059e-07
3.84824e-07
3.82577e-07
3.80319e-07
3.78048e-07
3.75767e-07
3.73473e-07
3.71169e-07
3.68852e-07
3.66528e-07
3.6419e-07
3.61849e-07
3.59491e-07
3.57136e-07
3.5476e-07
3.52395e-07
3.5e-07
3.4763e-07
3.45214e-07
3.4285e-07
3.40412e-07
3.38075e-07
3.35616e-07
3.33361e-07
3.30902e-07
3.2886e-07
3.26461e-07
3.24952e-07
3.22675e-07
3.22283e-07
3.19685e-07
5.05736e-07
4.91613e-07
4.77846e-07
4.67268e-07
4.59844e-07
4.54452e-07
4.5e-07
4.4592e-07
4.42043e-07
4.38376e-07
4.34958e-07
4.31792e-07
4.28843e-07
4.26064e-07
4.23406e-07
4.20837e-07
4.18335e-07
4.15887e-07
4.13483e-07
4.11113e-07
4.08769e-07
4.06444e-07
4.0413e-07
4.01823e-07
3.99518e-07
3.97211e-07
3.94899e-07
3.92581e-07
3.90253e-07
3.87915e-07
3.85566e-07
3.83204e-07
3.8083e-07
3.78443e-07
3.76044e-07
3.73632e-07
3.71209e-07
3.68775e-07
3.66331e-07
3.63878e-07
3.61417e-07
3.58948e-07
3.56472e-07
3.5399e-07
3.51502e-07
3.49008e-07
3.4651e-07
3.44002e-07
3.41491e-07
3.38961e-07
3.36435e-07
3.33859e-07
3.31321e-07
3.28641e-07
3.26133e-07
3.2314e-07
3.20946e-07
3.16701e-07
3.16535e-07
3.0622e-07
3.46022e-07
2.95566e-07
2.74758e-07
2.57624e-07
2.4061e-07
2.23589e-07
2.04547e-07
1.84164e-07
1.60351e-07
1.34642e-07
1.04877e-07
7.36223e-08
3.85581e-08
3.3497e-09
-3.45391e-08
-7.044e-08
-1.07491e-07
-1.40294e-07
-1.72525e-07
-1.98668e-07
-2.23298e-07
-2.40481e-07
-2.56144e-07
-2.63758e-07
-2.70992e-07
-2.69796e-07
-2.72123e-07
-2.64337e-07
-2.66178e-07
-3.12998e-07
3.32038e-07
2.77196e-07
2.63407e-07
2.48988e-07
2.32749e-07
2.16144e-07
1.97357e-07
1.77093e-07
1.53441e-07
1.28079e-07
9.89195e-08
6.85226e-08
3.45985e-08
6.99631e-10
-3.57353e-08
-7.02319e-08
-1.05678e-07
-1.37265e-07
-1.68656e-07
-1.94159e-07
-2.18809e-07
-2.36141e-07
-2.52639e-07
-2.60719e-07
-2.69559e-07
-2.68635e-07
-2.71561e-07
-2.66458e-07
-2.53299e-07
-3.53962e-07
3.19831e-07
2.74933e-07
2.62153e-07
2.48213e-07
2.31381e-07
2.13778e-07
1.94459e-07
1.73872e-07
1.50137e-07
1.24677e-07
9.56943e-08
6.54473e-08
3.1973e-08
-1.51552e-09
-3.7291e-08
-7.11894e-08
-1.06208e-07
-1.37283e-07
-1.68453e-07
-1.93664e-07
-2.18247e-07
-2.35453e-07
-2.52505e-07
-2.60837e-07
-2.70039e-07
-2.70915e-07
-2.72769e-07
-2.75421e-07
-2.48026e-07
-3.34423e-07
3.09663e-07
2.70952e-07
2.56059e-07
2.4274e-07
2.26724e-07
2.09631e-07
1.90386e-07
1.69615e-07
1.45848e-07
1.20249e-07
9.1457e-08
6.12937e-08
2.83492e-08
-4.81166e-09
-3.97966e-08
-7.33083e-08
-1.07478e-07
-1.38251e-07
-1.68644e-07
-1.94049e-07
-2.18526e-07
-2.366e-07
-2.53491e-07
-2.63849e-07
-2.72171e-07
-2.76884e-07
-2.75153e-07
-2.87683e-07
-2.51661e-07
-3.16747e-07
2.99856e-07
2.68465e-07
2.52799e-07
2.40566e-07
2.24897e-07
2.07035e-07
1.87261e-07
1.65923e-07
1.42029e-07
1.16025e-07
8.73601e-08
5.69611e-08
2.45047e-08
-8.70426e-09
-4.28755e-08
-7.64025e-08
-1.09588e-07
-1.40703e-07
-1.70231e-07
-1.96614e-07
-2.20161e-07
-2.40258e-07
-2.55961e-07
-2.6946e-07
-2.75768e-07
-2.8583e-07
-2.78405e-07
-2.94379e-07
-2.61515e-07
-2.93579e-07
2.91294e-07
2.66803e-07
2.50364e-07
2.37583e-07
2.22148e-07
2.04149e-07
1.84137e-07
1.62254e-07
1.38175e-07
1.11687e-07
8.30715e-08
5.23029e-08
2.02487e-08
-1.31981e-08
-4.65998e-08
-8.03861e-08
-1.12566e-07
-1.4426e-07
-1.72714e-07
-2.0031e-07
-2.22838e-07
-2.45125e-07
-2.59648e-07
-2.76447e-07
-2.80642e-07
-2.93674e-07
-2.8503e-07
-2.97779e-07
-2.76445e-07
-2.86089e-07
2.84326e-07
2.65308e-07
2.48857e-07
2.35098e-07
2.19712e-07
2.01582e-07
1.81293e-07
1.58759e-07
1.34347e-07
1.07287e-07
7.85858e-08
4.73728e-08
1.55713e-08
-1.81703e-08
-5.09582e-08
-8.50206e-08
-1.16338e-07
-1.48549e-07
-1.76106e-07
-2.04749e-07
-2.26549e-07
-2.50522e-07
-2.64625e-07
-2.83149e-07
-2.87712e-07
-3.00868e-07
-2.95499e-07
-3.02843e-07
-2.91986e-07
-2.90676e-07
2.79185e-07
2.63883e-07
2.47931e-07
2.33151e-07
2.17482e-07
1.9911e-07
1.78484e-07
1.55294e-07
1.30412e-07
1.02761e-07
7.38183e-08
4.21842e-08
1.04364e-08
-2.35268e-08
-5.5954e-08
-9.01176e-08
-1.20913e-07
-1.53296e-07
-1.80462e-07
-2.09543e-07
-2.3144e-07
-2.56023e-07
-2.71117e-07
-2.89865e-07
-2.96982e-07
-3.08637e-07
-3.08431e-07
-3.11368e-07
-3.0662e-07
-3.02092e-07
2.75903e-07
2.62511e-07
2.4721e-07
2.31703e-07
2.15463e-07
1.96671e-07
1.75612e-07
1.51788e-07
1.26318e-07
9.80843e-08
6.87356e-08
3.67411e-08
4.83656e-09
-2.92156e-08
-6.15656e-08
-9.55878e-08
-1.26252e-07
-1.58408e-07
-1.85724e-07
-2.14636e-07
-2.37375e-07
-2.61788e-07
-2.78852e-07
-2.97147e-07
-3.07594e-07
-3.18006e-07
-3.21732e-07
-3.23512e-07
-3.21197e-07
-3.16859e-07
2.74165e-07
2.61266e-07
2.46481e-07
2.3056e-07
2.13595e-07
1.94209e-07
1.72587e-07
1.48147e-07
1.22e-07
9.31984e-08
6.33067e-08
3.10081e-08
-1.22263e-09
-3.5249e-08
-6.77411e-08
-1.01434e-07
-1.32245e-07
-1.63907e-07
-1.91693e-07
-2.20121e-07
-2.43989e-07
-2.68052e-07
-2.87109e-07
-3.053e-07
-3.1842e-07
-3.29157e-07
-3.35235e-07
-3.37909e-07
-3.37032e-07
-3.33901e-07
2.73459e-07
2.603e-07
2.45684e-07
2.29455e-07
2.11743e-07
1.91645e-07
1.69337e-07
1.44274e-07
1.17391e-07
8.80267e-08
5.75036e-08
2.49235e-08
-7.72856e-09
-4.16795e-08
-7.44146e-08
-1.0771e-07
-1.38752e-07
-1.69864e-07
-1.98125e-07
-2.26102e-07
-2.50937e-07
-2.74921e-07
-2.95534e-07
-3.14287e-07
-3.29353e-07
-3.41352e-07
-3.49369e-07
-3.53756e-07
-3.54514e-07
-3.5307e-07
2.73228e-07
2.59633e-07
2.44821e-07
2.28195e-07
2.09739e-07
1.88881e-07
1.65793e-07
1.40075e-07
1.12421e-07
8.24801e-08
5.12856e-08
1.84075e-08
-1.46893e-08
-4.8581e-08
-8.15521e-08
-1.14487e-07
-1.45688e-07
-1.76339e-07
-2.04893e-07
-2.32605e-07
-2.58086e-07
-2.82324e-07
-3.0407e-07
-3.23834e-07
-3.40503e-07
-3.54277e-07
-3.64252e-07
-3.70807e-07
-3.73582e-07
-3.74362e-07
2.73096e-07
2.59121e-07
2.43852e-07
2.26671e-07
2.07449e-07
1.8581e-07
1.6189e-07
1.35464e-07
1.07009e-07
7.64584e-08
4.45811e-08
1.13633e-08
-2.21618e-08
-5.60445e-08
-8.91909e-08
-1.21839e-07
-1.53074e-07
-1.83366e-07
-2.12013e-07
-2.39593e-07
-2.65475e-07
-2.90116e-07
-3.12793e-07
-3.33722e-07
-3.51983e-07
-3.67689e-07
-3.79863e-07
-3.88829e-07
-3.94154e-07
-3.97559e-07
2.72852e-07
2.58567e-07
2.42701e-07
2.24832e-07
2.04799e-07
1.82353e-07
1.57557e-07
1.30355e-07
1.0106e-07
6.98471e-08
3.72768e-08
3.67012e-09
-3.02646e-08
-6.41863e-08
-9.74473e-08
-1.29857e-07
-1.61018e-07
-1.90987e-07
-2.19586e-07
-2.4704e-07
-2.73187e-07
-2.98215e-07
-3.21758e-07
-3.43842e-07
-3.63774e-07
-3.81466e-07
-3.9609e-07
-4.0771e-07
-4.16034e-07
-4.22479e-07
2.7245e-07
2.57808e-07
2.41295e-07
2.22664e-07
2.01763e-07
1.7845e-07
1.52713e-07
1.24646e-07
9.44498e-08
6.25058e-08
2.92153e-08
-4.82898e-09
-3.91697e-08
-7.31593e-08
-1.06493e-07
-1.38665e-07
-1.69673e-07
-1.99278e-07
-2.27727e-07
-2.54965e-07
-2.81277e-07
-3.06579e-07
-3.30938e-07
-3.54086e-07
-3.75748e-07
-3.95447e-07
-4.12745e-07
-4.27227e-07
-4.38976e-07
-4.48801e-07
2.7196e-07
2.56828e-07
2.39635e-07
2.20189e-07
1.98339e-07
1.74047e-07
1.47262e-07
1.18208e-07
8.70208e-08
5.4257e-08
2.02028e-08
-1.43321e-08
-4.90804e-08
-8.31529e-08
-1.16515e-07
-1.48416e-07
-1.79188e-07
-2.08338e-07
-2.36521e-07
-2.63403e-07
-2.8974e-07
-3.15154e-07
-3.4021e-07
-3.643e-07
-3.87664e-07
-4.09381e-07
-4.29511e-07
-4.47071e-07
-4.62608e-07
-4.76194e-07
2.71561e-07
2.55716e-07
2.3777e-07
2.17426e-07
1.945e-07
1.69056e-07
1.41063e-07
1.1086e-07
7.85722e-08
4.48791e-08
1.00118e-08
-2.50714e-08
-6.02158e-08
-9.4376e-08
-1.27697e-07
-1.59272e-07
-1.89691e-07
-2.18273e-07
-2.46023e-07
-2.72383e-07
-2.98535e-07
-3.23854e-07
-3.49389e-07
-3.74259e-07
-3.99178e-07
-4.22908e-07
-4.45917e-07
-4.66797e-07
-4.86414e-07
-5.04309e-07
2.71477e-07
2.54623e-07
2.35739e-07
2.14318e-07
1.90119e-07
1.63296e-07
1.33897e-07
1.0236e-07
6.88453e-08
3.41042e-08
-1.62025e-09
-3.7303e-08
-7.28094e-08
-1.07044e-07
-1.40223e-07
-1.71396e-07
-2.01303e-07
-2.29185e-07
-2.56288e-07
-2.81924e-07
-3.07617e-07
-3.32576e-07
-3.58286e-07
-3.83671e-07
-4.09901e-07
-4.35523e-07
-4.61359e-07
-4.85748e-07
-5.09734e-07
-5.32552e-07
2.71804e-07
2.53641e-07
2.33479e-07
2.1066e-07
1.84916e-07
1.56459e-07
1.25445e-07
9.23808e-08
5.75119e-08
2.16104e-08
-1.50044e-08
-5.13166e-08
-8.71297e-08
-1.21397e-07
-1.54308e-07
-1.84981e-07
-2.14186e-07
-2.4121e-07
-2.6741e-07
-2.92086e-07
-3.16991e-07
-3.41251e-07
-3.66741e-07
-3.92236e-07
-4.19413e-07
-4.46606e-07
-4.75092e-07
-5.02993e-07
-5.31555e-07
-5.59848e-07
2.72248e-07
2.52505e-07
2.30634e-07
2.06019e-07
1.78427e-07
1.48089e-07
1.15259e-07
8.04862e-08
4.41373e-08
6.98091e-09
-3.05468e-08
-6.74892e-08
-1.03537e-07
-1.37764e-07
-1.70261e-07
-2.00311e-07
-2.286e-07
-2.54586e-07
-2.79582e-07
-3.03023e-07
-3.26732e-07
-3.49881e-07
-3.74632e-07
-3.99675e-07
-4.27259e-07
-4.55414e-07
-4.86195e-07
-5.17197e-07
-5.50355e-07
-5.84111e-07
2.72115e-07
2.5053e-07
2.26592e-07
1.99823e-07
1.70077e-07
1.37598e-07
1.02738e-07
6.60799e-08
2.81238e-08
-1.03657e-08
-4.882e-08
-8.63622e-08
-1.22554e-07
-1.56629e-07
-1.88547e-07