/*--------------------------------*- C++ -*----------------------------------*\
| =========                 |                                                 |
| \\      /  F ield         | OpenFOAM: The Open Source CFD Toolbox           |
|  \\    /   O peration     | Version:  2312                                  |
|   \\  /    A nd           | Website:  www.openfoam.com                      |
|    \\/     M anipulation  |                                                 |
\*---------------------------------------------------------------------------*/
FoamFile
{
    version     2.0;
    format      ascii;
    arch        "LSB;label=32;scalar=64";
    class       volVectorField;
    location    "25000";
    object      U;
}
// * * * * * * * * * * * * * * * * * * * * * * * * * * * * * * * * * * * * * //

dimensions      [0 1 -1 0 0 0 0];

internalField   nonuniform List<vector> 
10800
(
(0.000992484 4.94173e-06 0)
(0.000990039 1.24572e-05 0)
(0.000986873 1.74782e-05 0)
(0.000980502 2.06615e-05 0)
(0.000971091 2.27441e-05 0)
(0.000959803 2.42372e-05 0)
(0.000947704 2.53756e-05 0)
(0.000935331 2.62342e-05 0)
(0.000922825 2.68372e-05 0)
(0.000910165 2.72097e-05 0)
(0.000897305 2.73893e-05 0)
(0.000884243 2.7419e-05 0)
(0.000871014 2.73367e-05 0)
(0.000857675 2.71704e-05 0)
(0.000844276 2.69383e-05 0)
(0.000830857 2.66522e-05 0)
(0.000817442 2.63198e-05 0)
(0.000804051 2.59478e-05 0)
(0.000790698 2.55416e-05 0)
(0.0007774 2.51061e-05 0)
(0.000764172 2.46449e-05 0)
(0.000751029 2.41612e-05 0)
(0.000737985 2.36569e-05 0)
(0.000725055 2.3134e-05 0)
(0.000712252 2.25933e-05 0)
(0.00069959 2.20361e-05 0)
(0.000687081 2.14626e-05 0)
(0.000674739 2.08743e-05 0)
(0.000662576 2.02704e-05 0)
(0.000650604 1.96527e-05 0)
(0.000638838 1.90197e-05 0)
(0.00062729 1.83741e-05 0)
(0.000615974 1.7713e-05 0)
(0.000604901 1.70407e-05 0)
(0.000594089 1.63525e-05 0)
(0.000583543 1.56552e-05 0)
(0.000573286 1.4941e-05 0)
(0.000563319 1.4221e-05 0)
(0.000553674 1.34822e-05 0)
(0.000544336 1.27432e-05 0)
(0.000535355 1.19813e-05 0)
(0.000526693 1.12276e-05 0)
(0.000518436 1.04437e-05 0)
(0.000510489 9.68207e-06 0)
(0.00050302 8.87681e-06 0)
(0.000495808 8.11449e-06 0)
(0.000489222 7.28367e-06 0)
(0.000482719 6.52816e-06 0)
(0.000477186 5.66777e-06 0)
(0.000471233 4.92046e-06 0)
(0.000467155 4.02614e-06 0)
(0.000461213 3.23215e-06 0)
(0.000459685 2.34713e-06 0)
(0.000452055 1.25234e-06 0)
(0.000456273 7.37548e-07 0)
(0.000441786 -1.70477e-06 0)
(0.00046107 -1.8766e-07 0)
(0.000424799 -7.97338e-06 0)
(0.000484083 1.90684e-06 0)
(0.000389086 -2.41485e-05 0)
(0.00100003 5.80169e-06 0)
(0.00100172 1.4991e-05 0)
(0.00100423 2.15203e-05 0)
(0.00100706 2.60818e-05 0)
(0.00100979 2.94381e-05 0)
(0.00101219 3.21176e-05 0)
(0.00101422 3.43678e-05 0)
(0.00101589 3.62752e-05 0)
(0.00101727 3.78723e-05 0)
(0.00101838 3.91897e-05 0)
(0.00101924 4.02688e-05 0)
(0.00101983 4.11552e-05 0)
(0.00102015 4.18896e-05 0)
(0.00102022 4.2502e-05 0)
(0.00102003 4.30123e-05 0)
(0.00101961 4.3433e-05 0)
(0.00101896 4.37729e-05 0)
(0.0010181 4.40386e-05 0)
(0.00101704 4.42356e-05 0)
(0.00101579 4.43684e-05 0)
(0.00101436 4.44408e-05 0)
(0.00101276 4.44552e-05 0)
(0.001011 4.44136e-05 0)
(0.00100908 4.43169e-05 0)
(0.00100704 4.41661e-05 0)
(0.00100484 4.39612e-05 0)
(0.00100255 4.37029e-05 0)
(0.00100012 4.339e-05 0)
(0.000997614 4.3024e-05 0)
(0.000994977 4.2602e-05 0)
(0.000992308 4.2127e-05 0)
(0.000989498 4.15938e-05 0)
(0.000986712 4.10084e-05 0)
(0.000983759 4.03613e-05 0)
(0.000980909 3.96643e-05 0)
(0.000977835 3.89001e-05 0)
(0.000974987 3.80916e-05 0)
(0.000971806 3.72066e-05 0)
(0.000969044 3.62888e-05 0)
(0.000965745 3.52781e-05 0)
(0.000963183 3.42563e-05 0)
(0.000959723 3.31123e-05 0)
(0.000957528 3.19973e-05 0)
(0.000953797 3.07071e-05 0)
(0.000952222 2.95184e-05 0)
(0.000947998 2.80578e-05 0)
(0.000947448 2.68294e-05 0)
(0.000942312 2.51542e-05 0)
(0.000943449 2.39444e-05 0)
(0.000936633 2.19733e-05 0)
(0.000940567 2.08803e-05 0)
(0.000930699 1.84687e-05 0)
(0.000939295 1.76556e-05 0)
(0.000923949 1.45571e-05 0)
(0.000940359 1.42794e-05 0)
(0.00091529 1.01118e-05 0)
(0.00094488 1.06932e-05 0)
(0.000902741 5.03084e-06 0)
(0.000954771 6.4802e-06 0)
(0.000883259 -2.50493e-07 0)
(0.000999989 1.96212e-06 0)
(0.00100078 5.76263e-06 0)
(0.00100224 9.28657e-06 0)
(0.00100423 1.24501e-05 0)
(0.00100654 1.52504e-05 0)
(0.00100897 1.77326e-05 0)
(0.0010114 1.99513e-05 0)
(0.00101376 2.19497e-05 0)
(0.00101607 2.37549e-05 0)
(0.00101834 2.53835e-05 0)
(0.00102056 2.68487e-05 0)
(0.00102273 2.81638e-05 0)
(0.00102484 2.93431e-05 0)
(0.0010269 3.04005e-05 0)
(0.00102888 3.13484e-05 0)
(0.0010308 3.21964e-05 0)
(0.00103266 3.29526e-05 0)
(0.00103444 3.36225e-05 0)
(0.00103617 3.42119e-05 0)
(0.00103784 3.47237e-05 0)
(0.00103945 3.51624e-05 0)
(0.001041 3.55293e-05 0)
(0.00104251 3.58283e-05 0)
(0.00104395 3.60584e-05 0)
(0.00104534 3.6224e-05 0)
(0.00104667 3.63215e-05 0)
(0.00104797 3.63564e-05 0)
(0.00104919 3.63224e-05 0)
(0.00105041 3.62273e-05 0)
(0.00105152 3.60606e-05 0)
(0.00105265 3.58345e-05 0)
(0.00105367 3.55325e-05 0)
(0.00105473 3.5174e-05 0)
(0.00105563 3.47327e-05 0)
(0.00105665 3.42401e-05 0)
(0.00105744 3.36548e-05 0)
(0.00105843 3.30272e-05 0)
(0.00105909 3.22923e-05 0)
(0.0010601 3.15298e-05 0)
(0.0010606 3.06393e-05 0)
(0.00106168 2.97442e-05 0)
(0.00106199 2.86905e-05 0)
(0.00106323 2.76684e-05 0)
(0.00106326 2.64425e-05 0)
(0.00106478 2.53032e-05 0)
(0.00106441 2.38942e-05 0)
(0.0010664 2.26528e-05 0)
(0.00106544 2.10477e-05 0)
(0.00106817 1.97264e-05 0)
(0.0010663 1.79117e-05 0)
(0.00107021 1.65416e-05 0)
(0.00106693 1.45066e-05 0)
(0.00107264 1.31284e-05 0)
(0.00106719 1.08791e-05 0)
(0.00107568 9.54526e-06 0)
(0.00106685 7.14095e-06 0)
(0.00107959 5.91277e-06 0)
(0.00106556 3.5554e-06 0)
(0.0010848 2.4578e-06 0)
(0.00106287 6.43794e-07 0)
(0.00100001 1.74111e-06 0)
(0.00100047 5.15771e-06 0)
(0.00100128 8.41734e-06 0)
(0.00100239 1.14437e-05 0)
(0.00100374 1.41958e-05 0)
(0.00100526 1.66709e-05 0)
(0.00100689 1.88904e-05 0)
(0.00100858 2.08841e-05 0)
(0.00101033 2.26792e-05 0)
(0.00101212 2.42963e-05 0)
(0.00101394 2.5751e-05 0)
(0.00101578 2.70561e-05 0)
(0.00101765 2.82239e-05 0)
(0.00101952 2.92663e-05 0)
(0.0010214 3.01949e-05 0)
(0.00102328 3.10198e-05 0)
(0.00102516 3.17502e-05 0)
(0.00102704 3.23927e-05 0)
(0.00102891 3.29538e-05 0)
(0.00103078 3.34375e-05 0)
(0.00103265 3.38487e-05 0)
(0.00103451 3.41894e-05 0)
(0.00103637 3.44635e-05 0)
(0.00103822 3.46712e-05 0)
(0.00104008 3.48162e-05 0)
(0.00104192 3.48969e-05 0)
(0.00104376 3.49167e-05 0)
(0.00104558 3.48725e-05 0)
(0.00104742 3.47684e-05 0)
(0.00104923 3.4599e-05 0)
(0.00105105 3.43698e-05 0)
(0.00105284 3.40729e-05 0)
(0.00105465 3.37161e-05 0)
(0.00105642 3.32882e-05 0)
(0.00105822 3.28002e-05 0)
(0.00105996 3.2237e-05 0)
(0.00106175 3.16136e-05 0)
(0.00106345 3.09104e-05 0)
(0.00106525 3.01469e-05 0)
(0.0010669 2.92995e-05 0)
(0.00106871 2.83912e-05 0)
(0.0010703 2.7396e-05 0)
(0.00107213 2.63379e-05 0)
(0.00107365 2.5193e-05 0)
(0.00107552 2.39799e-05 0)
(0.00107695 2.26866e-05 0)
(0.0010789 2.13122e-05 0)
(0.00108021 1.98776e-05 0)
(0.00108229 1.83332e-05 0)
(0.00108344 1.67747e-05 0)
(0.00108571 1.50492e-05 0)
(0.00108663 1.3403e-05 0)
(0.00108919 1.14824e-05 0)
(0.0010898 9.81806e-06 0)
(0.00109278 7.68295e-06 0)
(0.00109293 6.12508e-06 0)
(0.00109651 3.7423e-06 0)
(0.00109601 2.4917e-06 0)
(0.00110045 -2.23682e-07 0)
(0.001099 -8.86647e-07 0)
(0.001 1.15257e-06 0)
(0.00100023 3.43018e-06 0)
(0.00100067 5.64215e-06 0)
(0.00100134 7.75676e-06 0)
(0.0010022 9.75261e-06 0)
(0.00100323 1.16194e-05 0)
(0.00100441 1.33558e-05 0)
(0.00100569 1.49657e-05 0)
(0.00100705 1.64553e-05 0)
(0.00100848 1.78306e-05 0)
(0.00100996 1.90971e-05 0)
(0.00101149 2.02594e-05 0)
(0.00101305 2.13223e-05 0)
(0.00101465 2.22908e-05 0)
(0.00101627 2.31697e-05 0)
(0.00101791 2.39637e-05 0)
(0.00101956 2.46774e-05 0)
(0.00102123 2.53144e-05 0)
(0.00102291 2.58783e-05 0)
(0.00102459 2.63716e-05 0)
(0.00102629 2.67968e-05 0)
(0.00102799 2.71556e-05 0)
(0.0010297 2.74498e-05 0)
(0.00103141 2.76804e-05 0)
(0.00103313 2.78483e-05 0)
(0.00103485 2.79542e-05 0)
(0.00103657 2.79982e-05 0)
(0.0010383 2.79807e-05 0)
(0.00104003 2.79009e-05 0)
(0.00104176 2.77594e-05 0)
(0.00104349 2.75543e-05 0)
(0.00104522 2.72867e-05 0)
(0.00104696 2.69532e-05 0)
(0.00104869 2.65567e-05 0)
(0.00105042 2.60906e-05 0)
(0.00105214 2.55615e-05 0)
(0.00105387 2.49574e-05 0)
(0.00105559 2.4292e-05 0)
(0.00105731 2.35436e-05 0)
(0.00105902 2.27385e-05 0)
(0.00106072 2.18386e-05 0)
(0.00106243 2.08915e-05 0)
(0.00106412 1.98312e-05 0)
(0.00106582 1.87422e-05 0)
(0.00106749 1.75112e-05 0)
(0.00106918 1.62841e-05 0)
(0.00107083 1.48694e-05 0)
(0.00107253 1.35143e-05 0)
(0.00107415 1.18983e-05 0)
(0.00107587 1.04346e-05 0)
(0.00107746 8.59184e-06 0)
(0.00107925 7.05251e-06 0)
(0.00108081 4.94298e-06 0)
(0.00108273 3.38007e-06 0)
(0.00108426 9.4201e-07 0)
(0.00108641 -5.54608e-07 0)
(0.0010879 -3.40551e-06 0)
(0.00109037 -4.68328e-06 0)
(0.0010917 -8.0784e-06 0)
(0.00109448 -8.92575e-06 0)
(0.001 9.26529e-07 0)
(0.00100017 2.77073e-06 0)
(0.00100051 4.58761e-06 0)
(0.001001 6.35826e-06 0)
(0.00100165 8.0652e-06 0)
(0.00100242 9.69453e-06 0)
(0.00100331 1.1237e-05 0)
(0.0010043 1.26877e-05 0)
(0.00100537 1.4045e-05 0)
(0.00100651 1.53094e-05 0)
(0.0010077 1.64823e-05 0)
(0.00100895 1.75656e-05 0)
(0.00101024 1.85617e-05 0)
(0.00101158 1.94729e-05 0)
(0.00101294 2.0302e-05 0)
(0.00101434 2.1052e-05 0)
(0.00101576 2.17258e-05 0)
(0.0010172 2.2326e-05 0)
(0.00101866 2.28553e-05 0)
(0.00102013 2.33159e-05 0)
(0.00102162 2.37098e-05 0)
(0.00102313 2.40388e-05 0)
(0.00102464 2.4304e-05 0)
(0.00102616 2.4507e-05 0)
(0.00102769 2.46483e-05 0)
(0.00102923 2.47291e-05 0)
(0.00103077 2.47489e-05 0)
(0.00103232 2.47092e-05 0)
(0.00103387 2.46083e-05 0)
(0.00103542 2.44482e-05 0)
(0.00103697 2.42256e-05 0)
(0.00103853 2.39438e-05 0)
(0.00104008 2.3597e-05 0)
(0.00104164 2.31912e-05 0)
(0.00104319 2.27164e-05 0)
(0.00104474 2.21831e-05 0)
(0.00104628 2.15753e-05 0)
(0.00104783 2.09107e-05 0)
(0.00104936 2.01637e-05 0)
(0.0010509 1.93638e-05 0)
(0.00105241 1.84698e-05 0)
(0.00105395 1.7531e-05 0)
(0.00105544 1.64808e-05 0)
(0.00105698 1.54002e-05 0)
(0.00105845 1.41824e-05 0)
(0.00106 1.29592e-05 0)
(0.00106143 1.15592e-05 0)
(0.00106301 1.01954e-05 0)
(0.00106441 8.59432e-06 0)
(0.00106603 7.0979e-06 0)
(0.00106739 5.27155e-06 0)
(0.00106909 3.66089e-06 0)
(0.00107037 1.57635e-06 0)
(0.00107219 -1.19631e-07 0)
(0.00107338 -2.51998e-06 0)
(0.00107542 -4.26615e-06 0)
(0.00107649 -7.08147e-06 0)
(0.00107887 -8.82149e-06 0)
(0.00107969 -1.21944e-05 0)
(0.0010824 -1.38294e-05 0)
(0.001 7.32127e-07 0)
(0.00100013 2.18972e-06 0)
(0.00100037 3.62766e-06 0)
(0.00100074 5.03324e-06 0)
(0.00100121 6.39506e-06 0)
(0.0010018 7.70374e-06 0)
(0.00100248 8.95238e-06 0)
(0.00100326 1.01365e-05 0)
(0.00100411 1.12534e-05 0)
(0.00100503 1.2302e-05 0)
(0.00100601 1.32822e-05 0)
(0.00100704 1.41943e-05 0)
(0.00100813 1.50388e-05 0)
(0.00100925 1.58168e-05 0)
(0.00101042 1.65292e-05 0)
(0.00101162 1.71772e-05 0)
(0.00101285 1.7762e-05 0)
(0.00101411 1.8285e-05 0)
(0.00101539 1.87472e-05 0)
(0.00101669 1.915e-05 0)
(0.001018 1.94942e-05 0)
(0.00101933 1.97808e-05 0)
(0.00102068 2.00102e-05 0)
(0.00102204 2.01835e-05 0)
(0.0010234 2.03003e-05 0)
(0.00102477 2.03617e-05 0)
(0.00102615 2.03666e-05 0)
(0.00102753 2.03163e-05 0)
(0.00102892 2.02088e-05 0)
(0.00103031 2.00458e-05 0)
(0.00103169 1.9824e-05 0)
(0.00103308 1.9546e-05 0)
(0.00103446 1.92066e-05 0)
(0.00103585 1.88104e-05 0)
(0.00103722 1.8349e-05 0)
(0.00103859 1.78303e-05 0)
(0.00103995 1.7241e-05 0)
(0.00104131 1.65948e-05 0)
(0.00104265 1.58705e-05 0)
(0.001044 1.50909e-05 0)
(0.00104531 1.42229e-05 0)
(0.00104664 1.33037e-05 0)
(0.00104793 1.2281e-05 0)
(0.00104924 1.12156e-05 0)
(0.00105049 1.00248e-05 0)
(0.00105179 8.80676e-06 0)
(0.001053 7.43066e-06 0)
(0.0010543 6.05376e-06 0)
(0.00105547 4.46926e-06 0)
(0.00105679 2.92829e-06 0)
(0.00105791 1.10389e-06 0)
(0.00105929 -6.02537e-07 0)
(0.00106037 -2.70602e-06 0)
(0.00106185 -4.5657e-06 0)
(0.00106286 -6.99532e-06 0)
(0.00106448 -8.98352e-06 0)
(0.00106538 -1.18187e-05 0)
(0.00106722 -1.39048e-05 0)
(0.00106788 -1.72757e-05 0)
(0.0010699 -1.94033e-05 0)
(0.001 5.83211e-07 0)
(0.0010001 1.74551e-06 0)
(0.00100029 2.89577e-06 0)
(0.00100057 4.0261e-06 0)
(0.00100095 5.12897e-06 0)
(0.00100142 6.19769e-06 0)
(0.00100197 7.2266e-06 0)
(0.00100259 8.21123e-06 0)
(0.00100329 9.14824e-06 0)
(0.00100405 1.00353e-05 0)
(0.00100487 1.08707e-05 0)
(0.00100574 1.16537e-05 0)
(0.00100666 1.23837e-05 0)
(0.00100763 1.30602e-05 0)
(0.00100863 1.36831e-05 0)
(0.00100967 1.42525e-05 0)
(0.00101074 1.47685e-05 0)
(0.00101184 1.52315e-05 0)
(0.00101296 1.56418e-05 0)
(0.00101411 1.59997e-05 0)
(0.00101527 1.63055e-05 0)
(0.00101645 1.65596e-05 0)
(0.00101764 1.67621e-05 0)
(0.00101885 1.69133e-05 0)
(0.00102006 1.70129e-05 0)
(0.00102128 1.70613e-05 0)
(0.00102251 1.70577e-05 0)
(0.00102374 1.70026e-05 0)
(0.00102497 1.68945e-05 0)
(0.00102621 1.67341e-05 0)
(0.00102744 1.65192e-05 0)
(0.00102866 1.62509e-05 0)
(0.00102989 1.59257e-05 0)
(0.0010311 1.55456e-05 0)
(0.00103231 1.51055e-05 0)
(0.00103351 1.4609e-05 0)
(0.0010347 1.40479e-05 0)
(0.00103588 1.34289e-05 0)
(0.00103704 1.27397e-05 0)
(0.00103819 1.19911e-05 0)
(0.00103931 1.11645e-05 0)
(0.00104044 1.02782e-05 0)
(0.00104153 9.30313e-06 0)
(0.00104262 8.26966e-06 0)
(0.00104366 7.1327e-06 0)
(0.00104473 5.94171e-06 0)
(0.00104572 4.62644e-06 0)
(0.00104677 3.2667e-06 0)
(0.00104771 1.75275e-06 0)
(0.00104873 2.12392e-07 0)
(0.0010496 -1.52691e-06 0)
(0.00105063 -3.2621e-06 0)
(0.00105143 -5.26675e-06 0)
(0.0010525 -7.21585e-06 0)
(0.00105323 -9.53907e-06 0)
(0.00105437 -1.17154e-05 0)
(0.00105498 -1.4422e-05 0)
(0.00105623 -1.68305e-05 0)
(0.00105661 -2.00115e-05 0)
(0.00105787 -2.26446e-05 0)
(0.001 4.65769e-07 0)
(0.00100008 1.3946e-06 0)
(0.00100024 2.31539e-06 0)
(0.00100047 3.22276e-06 0)
(0.00100078 4.11145e-06 0)
(0.00100116 4.97656e-06 0)
(0.00100162 5.81369e-06 0)
(0.00100214 6.61912e-06 0)
(0.00100272 7.38972e-06 0)
(0.00100336 8.12297e-06 0)
(0.00100406 8.81681e-06 0)
(0.0010048 9.46962e-06 0)
(0.0010056 1.00801e-05 0)
(0.00100643 1.06475e-05 0)
(0.0010073 1.1171e-05 0)
(0.00100821 1.16502e-05 0)
(0.00100914 1.20849e-05 0)
(0.00101011 1.24749e-05 0)
(0.00101109 1.28199e-05 0)
(0.00101211 1.31201e-05 0)
(0.00101313 1.33754e-05 0)
(0.00101418 1.35856e-05 0)
(0.00101524 1.37507e-05 0)
(0.00101631 1.38707e-05 0)
(0.00101739 1.3945e-05 0)
(0.00101848 1.39738e-05 0)
(0.00101957 1.39563e-05 0)
(0.00102066 1.38924e-05 0)
(0.00102176 1.37812e-05 0)
(0.00102285 1.36224e-05 0)
(0.00102394 1.34146e-05 0)
(0.00102502 1.31576e-05 0)
(0.0010261 1.28495e-05 0)
(0.00102716 1.24902e-05 0)
(0.00102822 1.20769e-05 0)
(0.00102926 1.16099e-05 0)
(0.00103028 1.10851e-05 0)
(0.0010313 1.05037e-05 0)
(0.00103228 9.85979e-06 0)
(0.00103326 9.15584e-06 0)
(0.0010342 8.38342e-06 0)
(0.00103513 7.54712e-06 0)
(0.00103602 6.63456e-06 0)
(0.0010369 5.65407e-06 0)
(0.00103772 4.58706e-06 0)
(0.00103855 3.44793e-06 0)
(0.00103931 2.20842e-06 0)
(0.00104008 8.92947e-07 0)
(0.00104076 -5.41449e-07 0)
(0.00104149 -2.05236e-06 0)
(0.00104209 -3.70561e-06 0)
(0.00104278 -5.43255e-06 0)
(0.00104328 -7.33729e-06 0)
(0.00104394 -9.30967e-06 0)
(0.00104433 -1.1513e-05 0)
(0.00104497 -1.37661e-05 0)
(0.00104523 -1.63252e-05 0)
(0.00104587 -1.88937e-05 0)
(0.00104588 -2.18769e-05 0)
(0.00104643 -2.47876e-05 0)
(0.001 3.68557e-07 0)
(0.00100007 1.10373e-06 0)
(0.0010002 1.8332e-06 0)
(0.0010004 2.55316e-06 0)
(0.00100066 3.25983e-06 0)
(0.00100098 3.9496e-06 0)
(0.00100137 4.61915e-06 0)
(0.00100181 5.26548e-06 0)
(0.00100231 5.88598e-06 0)
(0.00100286 6.47839e-06 0)
(0.00100346 7.04075e-06 0)
(0.00100411 7.57145e-06 0)
(0.0010048 8.06915e-06 0)
(0.00100553 8.53277e-06 0)
(0.00100629 8.96144e-06 0)
(0.00100709 9.35447e-06 0)
(0.00100791 9.7113e-06 0)
(0.00100877 1.00315e-05 0)
(0.00100964 1.03147e-05 0)
(0.00101054 1.05605e-05 0)
(0.00101146 1.07686e-05 0)
(0.00101239 1.09388e-05 0)
(0.00101334 1.10708e-05 0)
(0.00101429 1.11641e-05 0)
(0.00101526 1.12185e-05 0)
(0.00101623 1.12335e-05 0)
(0.0010172 1.12086e-05 0)
(0.00101818 1.11432e-05 0)
(0.00101915 1.10366e-05 0)
(0.00102012 1.08881e-05 0)
(0.00102108 1.06969e-05 0)
(0.00102204 1.04618e-05 0)
(0.00102298 1.0182e-05 0)
(0.00102391 9.85586e-06 0)
(0.00102483 9.48252e-06 0)
(0.00102573 9.05968e-06 0)
(0.0010266 8.58659e-06 0)
(0.00102746 8.0601e-06 0)
(0.00102829 7.47967e-06 0)
(0.0010291 6.84092e-06 0)
(0.00102987 6.14385e-06 0)
(0.00103062 5.38227e-06 0)
(0.00103132 4.55727e-06 0)
(0.001032 3.65993e-06 0)
(0.00103263 2.69338e-06 0)
(0.00103323 1.64447e-06 0)
(0.00103376 5.19924e-07 0)
(0.00103428 -6.99639e-07 0)
(0.00103472 -2.00119e-06 0)
(0.00103515 -3.41509e-06 0)
(0.00103547 -4.91908e-06 0)
(0.00103581 -6.55984e-06 0)
(0.001036 -8.29787e-06 0)
(0.00103624 -1.02043e-05 0)
(0.00103628 -1.22123e-05 0)
(0.00103642 -1.44317e-05 0)
(0.00103628 -1.67519e-05 0)
(0.00103632 -1.93424e-05 0)
(0.0010359 -2.20211e-05 0)
(0.00103575 -2.50462e-05 0)
(0.001 2.85596e-07 0)
(0.00100006 8.55386e-07 0)
(0.00100017 1.42107e-06 0)
(0.00100034 1.97992e-06 0)
(0.00100057 2.52918e-06 0)
(0.00100085 3.06622e-06 0)
(0.00100119 3.58855e-06 0)
(0.00100158 4.09388e-06 0)
(0.00100201 4.58013e-06 0)
(0.0010025 5.04545e-06 0)
(0.00100303 5.48822e-06 0)
(0.0010036 5.907e-06 0)
(0.00100421 6.30058e-06 0)
(0.00100485 6.66789e-06 0)
(0.00100553 7.00805e-06 0)
(0.00100624 7.32028e-06 0)
(0.00100698 7.60392e-06 0)
(0.00100774 7.8584e-06 0)
(0.00100853 8.08322e-06 0)
(0.00100934 8.27789e-06 0)
(0.00101016 8.44203e-06 0)
(0.001011 8.57516e-06 0)
(0.00101185 8.67694e-06 0)
(0.00101271 8.74684e-06 0)
(0.00101358 8.78452e-06 0)
(0.00101445 8.78932e-06 0)
(0.00101532 8.7609e-06 0)
(0.00101619 8.69837e-06 0)
(0.00101706 8.60142e-06 0)
(0.00101793 8.46878e-06 0)
(0.00101878 8.30024e-06 0)
(0.00101962 8.09402e-06 0)
(0.00102045 7.85012e-06 0)
(0.00102127 7.56595e-06 0)
(0.00102206 7.24198e-06 0)
(0.00102284 6.87444e-06 0)
(0.00102358 6.46458e-06 0)
(0.00102431 6.0069e-06 0)
(0.001025 5.50408e-06 0)
(0.00102565 4.94788e-06 0)
(0.00102627 4.34344e-06 0)
(0.00102686 3.6783e-06 0)
(0.00102739 2.96177e-06 0)
(0.00102789 2.17481e-06 0)
(0.00102832 1.33358e-06 0)
(0.00102872 4.08793e-07 0)
(0.00102904 -5.72013e-07 0)
(0.00102932 -1.65408e-06 0)
(0.00102952 -2.79137e-06 0)
(0.00102968 -4.05669e-06 0)
(0.00102972 -5.37391e-06 0)
(0.00102974 -6.85698e-06 0)
(0.00102961 -8.37996e-06 0)
(0.00102947 -1.01231e-05 0)
(0.00102915 -1.18804e-05 0)
(0.00102883 -1.39384e-05 0)
(0.00102827 -1.59616e-05 0)
(0.00102776 -1.84054e-05 0)
(0.00102689 -2.07237e-05 0)
(0.00102609 -2.36387e-05 0)
(0.001 2.12844e-07 0)
(0.00100005 6.37532e-07 0)
(0.00100015 1.05931e-06 0)
(0.00100031 1.47624e-06 0)
(0.00100051 1.88637e-06 0)
(0.00100076 2.28781e-06 0)
(0.00100106 2.67876e-06 0)
(0.00100141 3.05753e-06 0)
(0.0010018 3.42256e-06 0)
(0.00100223 3.77244e-06 0)
(0.00100271 4.1059e-06 0)
(0.00100322 4.42177e-06 0)
(0.00100377 4.71906e-06 0)
(0.00100435 4.99682e-06 0)
(0.00100497 5.2543e-06 0)
(0.00100561 5.49075e-06 0)
(0.00100628 5.70557e-06 0)
(0.00100697 5.89817e-06 0)
(0.00100769 6.06809e-06 0)
(0.00100842 6.21479e-06 0)
(0.00100917 6.3379e-06 0)
(0.00100994 6.4369e-06 0)
(0.00101071 6.51149e-06 0)
(0.00101149 6.56108e-06 0)
(0.00101228 6.58539e-06 0)
(0.00101307 6.58373e-06 0)
(0.00101387 6.55586e-06 0)
(0.00101465 6.50082e-06 0)
(0.00101544 6.41852e-06 0)
(0.00101622 6.30759e-06 0)
(0.00101698 6.16812e-06 0)
(0.00101773 5.99818e-06 0)
(0.00101847 5.79822e-06 0)
(0.00101918 5.56541e-06 0)
(0.00101988 5.30087e-06 0)
(0.00102055 5.0004e-06 0)
(0.00102119 4.66629e-06 0)
(0.00102179 4.2922e-06 0)
(0.00102236 3.88242e-06 0)
(0.0010229 3.42731e-06 0)
(0.00102338 2.9345e-06 0)
(0.00102383 2.38915e-06 0)
(0.00102422 1.80448e-06 0)
(0.00102455 1.15744e-06 0)
(0.00102483 4.70355e-07 0)
(0.00102504 -2.92791e-07 0)
(0.00102518 -1.09485e-06 0)
(0.00102526 -1.99269e-06 0)
(0.00102524 -2.9256e-06 0)
(0.00102516 -3.98317e-06 0)
(0.00102496 -5.06523e-06 0)
(0.00102468 -6.31406e-06 0)
(0.00102428 -7.56547e-06 0)
(0.00102379 -9.0467e-06 0)
(0.00102314 -1.04896e-05 0)
(0.00102241 -1.22581e-05 0)
(0.00102146 -1.39146e-05 0)
(0.00102046 -1.60437e-05 0)
(0.00101914 -1.79298e-05 0)
(0.00101776 -2.05116e-05 0)
(0.001 1.47296e-07 0)
(0.00100005 4.41215e-07 0)
(0.00100014 7.33183e-07 0)
(0.00100028 1.0219e-06 0)
(0.00100046 1.30606e-06 0)
(0.00100069 1.5844e-06 0)
(0.00100097 1.85568e-06 0)
(0.00100129 2.11874e-06 0)
(0.00100165 2.37252e-06 0)
(0.00100204 2.616e-06 0)
(0.00100248 2.84829e-06 0)
(0.00100295 3.06853e-06 0)
(0.00100346 3.27599e-06 0)
(0.001004 3.46995e-06 0)
(0.00100457 3.64983e-06 0)
(0.00100516 3.81503e-06 0)
(0.00100578 3.9651e-06 0)
(0.00100642 4.09954e-06 0)
(0.00100709 4.21796e-06 0)
(0.00100777 4.31993e-06 0)
(0.00100846 4.40514e-06 0)
(0.00100917 4.47313e-06 0)
(0.00100989 4.52368e-06 0)
(0.00101061 4.55626e-06 0)
(0.00101134 4.57069e-06 0)
(0.00101207 4.56634e-06 0)
(0.0010128 4.54309e-06 0)
(0.00101353 4.5001e-06 0)
(0.00101425 4.43736e-06 0)
(0.00101496 4.3537e-06 0)
(0.00101565 4.24932e-06 0)
(0.00101633 4.12254e-06 0)
(0.001017 3.97392e-06 0)
(0.00101764 3.80099e-06 0)
(0.00101825 3.60496e-06 0)
(0.00101884 3.38212e-06 0)
(0.00101939 3.13481e-06 0)
(0.00101991 2.85742e-06 0)
(0.00102039 2.55414e-06 0)
(0.00102082 2.21638e-06 0)
(0.0010212 1.85145e-06 0)
(0.00102154 1.44607e-06 0)
(0.00102181 1.0127e-06 0)
(0.00102202 5.30595e-07 0)
(0.00102217 2.0725e-08 0)
(0.00102224 -5.49655e-07 0)
(0.00102223 -1.14568e-06 0)
(0.00102214 -1.81976e-06 0)
(0.00102195 -2.51432e-06 0)
(0.00102167 -3.31221e-06 0)
(0.00102127 -4.11859e-06 0)
(0.00102076 -5.06591e-06 0)
(0.00102011 -5.99892e-06 0)
(0.00101935 -7.13014e-06 0)
(0.00101842 -8.20555e-06 0)
(0.00101735 -9.5673e-06 0)
(0.00101608 -1.07996e-05 0)
(0.00101466 -1.24552e-05 0)
(0.00101298 -1.38515e-05 0)
(0.00101112 -1.58829e-05 0)
(0.001 8.6557e-08 0)
(0.00100005 2.59281e-07 0)
(0.00100013 4.30879e-07 0)
(0.00100026 6.00603e-07 0)
(0.00100044 7.67701e-07 0)
(0.00100065 9.31434e-07 0)
(0.00100091 1.09109e-06 0)
(0.00100121 1.246e-06 0)
(0.00100155 1.39552e-06 0)
(0.00100193 1.53906e-06 0)
(0.00100234 1.67607e-06 0)
(0.00100278 1.80605e-06 0)
(0.00100326 1.92853e-06 0)
(0.00100377 2.04309e-06 0)
(0.00100431 2.14935e-06 0)
(0.00100487 2.24695e-06 0)
(0.00100546 2.33558e-06 0)
(0.00100607 2.41492e-06 0)
(0.0010067 2.48473e-06 0)
(0.00100734 2.54472e-06 0)
(0.001008 2.59469e-06 0)
(0.00100867 2.63434e-06 0)
(0.00100935 2.66352e-06 0)
(0.00101003 2.68187e-06 0)
(0.00101072 2.6893e-06 0)
(0.00101141 2.68537e-06 0)
(0.0010121 2.67003e-06 0)
(0.00101278 2.6427e-06 0)
(0.00101346 2.60342e-06 0)
(0.00101412 2.55139e-06 0)
(0.00101477 2.48679e-06 0)
(0.00101541 2.40848e-06 0)
(0.00101602 2.31691e-06 0)
(0.00101661 2.21038e-06 0)
(0.00101717 2.08982e-06 0)
(0.0010177 1.95269e-06 0)
(0.0010182 1.80069e-06 0)
(0.00101865 1.62998e-06 0)
(0.00101907 1.44359e-06 0)
(0.00101943 1.23559e-06 0)
(0.00101974 1.01122e-06 0)
(0.00102 7.61283e-07 0)
(0.00102019 4.94654e-07 0)
(0.00102032 1.96936e-07 0)
(0.00102037 -1.17028e-07 0)
(0.00102034 -4.69964e-07 0)
(0.00102023 -8.37358e-07 0)
(0.00102002 -1.25556e-06 0)
(0.00101971 -1.68402e-06 0)
(0.00101929 -2.1805e-06 0)
(0.00101874 -2.6783e-06 0)
(0.00101807 -3.26997e-06 0)
(0.00101726 -3.84617e-06 0)
(0.0010163 -4.55587e-06 0)
(0.00101516 -5.21988e-06 0)
(0.00101386 -6.07883e-06 0)
(0.00101235 -6.83879e-06 0)
(0.00101064 -7.88991e-06 0)
(0.00100868 -8.7483e-06 0)
(0.00100648 -1.00481e-05 0)
(0.001 2.85828e-08 0)
(0.00100004 8.5618e-08 0)
(0.00100013 1.42283e-07 0)
(0.00100026 1.98333e-07 0)
(0.00100042 2.53521e-07 0)
(0.00100063 3.07607e-07 0)
(0.00100088 3.60357e-07 0)
(0.00100117 4.11548e-07 0)
(0.0010015 4.60971e-07 0)
(0.00100187 5.0843e-07 0)
(0.00100227 5.53742e-07 0)
(0.0010027 5.96738e-07 0)
(0.00100317 6.37263e-07 0)
(0.00100366 6.75171e-07 0)
(0.00100418 7.10337e-07 0)
(0.00100473 7.42634e-07 0)
(0.0010053 7.7196e-07 0)
(0.00100589 7.98205e-07 0)
(0.0010065 8.21285e-07 0)
(0.00100713 8.41098e-07 0)
(0.00100777 8.57576e-07 0)
(0.00100842 8.70613e-07 0)
(0.00100908 8.80157e-07 0)
(0.00100975 8.86089e-07 0)
(0.00101042 8.88368e-07 0)
(0.00101109 8.86848e-07 0)
(0.00101175 8.81509e-07 0)
(0.00101242 8.72151e-07 0)
(0.00101307 8.58789e-07 0)
(0.00101371 8.41144e-07 0)
(0.00101434 8.19285e-07 0)
(0.00101495 7.92809e-07 0)
(0.00101554 7.61883e-07 0)
(0.0010161 7.25912e-07 0)
(0.00101663 6.85231e-07 0)
(0.00101713 6.38943e-07 0)
(0.0010176 5.8767e-07 0)
(0.00101802 5.30043e-07 0)
(0.0010184 4.67167e-07 0)
(0.00101873 3.9693e-07 0)
(0.00101901 3.21238e-07 0)
(0.00101923 2.36806e-07 0)
(0.00101938 1.46861e-07 0)
(0.00101946 4.6243e-08 0)
(0.00101947 -5.96692e-08 0)
(0.00101939 -1.79084e-07 0)
(0.00101922 -3.03203e-07 0)
(0.00101895 -4.44959e-07 0)
(0.00101857 -5.89792e-07 0)
(0.00101808 -7.58335e-07 0)
(0.00101746 -9.26668e-07 0)
(0.00101671 -1.12789e-06 0)
(0.00101581 -1.32278e-06 0)
(0.00101474 -1.56468e-06 0)
(0.0010135 -1.78925e-06 0)
(0.00101207 -2.08282e-06 0)
(0.00101043 -2.33969e-06 0)
(0.00100857 -2.7001e-06 -3.66271e-38)
(0.00100647 -2.98977e-06 0)
(0.0010041 -3.43715e-06 0)
(0.001 -2.8489e-08 0)
(0.00100004 -8.53443e-08 0)
(0.00100013 -1.41836e-07 0)
(0.00100026 -1.9772e-07 0)
(0.00100042 -2.52751e-07 0)
(0.00100063 -3.06686e-07 0)
(0.00100088 -3.59293e-07 0)
(0.00100117 -4.10347e-07 0)
(0.0010015 -4.59641e-07 0)
(0.00100187 -5.06975e-07 0)
(0.00100227 -5.5217e-07 0)
(0.0010027 -5.95053e-07 0)
(0.00100317 -6.35472e-07 0)
(0.00100366 -6.73281e-07 0)
(0.00100418 -7.08352e-07 0)
(0.00100473 -7.4056e-07 0)
(0.0010053 -7.69802e-07 0)
(0.00100589 -7.95969e-07 0)
(0.0010065 -8.18975e-07 0)
(0.00100713 -8.38718e-07 0)
(0.00100777 -8.5513e-07 0)
(0.00100842 -8.68106e-07 0)
(0.00100908 -8.77592e-07 0)
(0.00100975 -8.83469e-07 0)
(0.00101042 -8.85698e-07 0)
(0.00101109 -8.84129e-07 0)
(0.00101175 -8.78742e-07 0)
(0.00101242 -8.6934e-07 0)
(0.00101307 -8.55935e-07 0)
(0.00101371 -8.38248e-07 0)
(0.00101434 -8.16348e-07 0)
(0.00101495 -7.89832e-07 0)
(0.00101554 -7.58867e-07 0)
(0.0010161 -7.22856e-07 0)
(0.00101663 -6.82134e-07 0)
(0.00101713 -6.35804e-07 0)
(0.0010176 -5.84486e-07 0)
(0.00101802 -5.26815e-07 0)
(0.0010184 -4.63891e-07 0)
(0.00101873 -3.93605e-07 0)
(0.00101901 -3.1786e-07 0)
(0.00101923 -2.33372e-07 0)
(0.00101938 -1.43368e-07 0)
(0.00101946 -4.26885e-08 0)
(0.00101947 6.32909e-08 0)
(0.00101939 1.82777e-07 0)
(0.00101922 3.06974e-07 0)
(0.00101895 4.48814e-07 0)
(0.00101857 5.93738e-07 0)
(0.00101808 7.62376e-07 0)
(0.00101746 9.30813e-07 0)
(0.00101671 1.13216e-06 0)
(0.00101581 1.32718e-06 0)
(0.00101474 1.56921e-06 0)
(0.0010135 1.79393e-06 0)
(0.00101207 2.08764e-06 0)
(0.00101043 2.34468e-06 0)
(0.00100857 2.70525e-06 3.66271e-38)
(0.00100647 2.99512e-06 0)
(0.0010041 3.44271e-06 0)
(0.001 -8.6464e-08 0)
(0.00100005 -2.59009e-07 0)
(0.00100013 -4.30437e-07 0)
(0.00100026 -5.99996e-07 0)
(0.00100044 -7.66938e-07 0)
(0.00100065 -9.30522e-07 0)
(0.00100091 -1.09004e-06 0)
(0.00100121 -1.24481e-06 0)
(0.00100155 -1.3942e-06 0)
(0.00100193 -1.53762e-06 0)
(0.00100234 -1.67451e-06 0)
(0.00100278 -1.80438e-06 0)
(0.00100326 -1.92676e-06 0)
(0.00100377 -2.04122e-06 0)
(0.00100431 -2.14739e-06 0)
(0.00100487 -2.2449e-06 0)
(0.00100546 -2.33344e-06 0)
(0.00100607 -2.41271e-06 0)
(0.0010067 -2.48245e-06 0)
(0.00100734 -2.54237e-06 0)
(0.001008 -2.59227e-06 0)
(0.00100867 -2.63186e-06 0)
(0.00100935 -2.66098e-06 0)
(0.00101003 -2.67929e-06 0)
(0.00101072 -2.68666e-06 0)
(0.00101141 -2.68269e-06 0)
(0.0010121 -2.6673e-06 0)
(0.00101278 -2.63993e-06 0)
(0.00101346 -2.6006e-06 0)
(0.00101412 -2.54853e-06 0)
(0.00101478 -2.48389e-06 0)
(0.00101541 -2.40554e-06 0)
(0.00101602 -2.31393e-06 0)
(0.00101661 -2.20736e-06 0)
(0.00101717 -2.08676e-06 0)
(0.0010177 -1.94959e-06 0)
(0.0010182 -1.79755e-06 0)
(0.00101865 -1.6268e-06 0)
(0.00101907 -1.44036e-06 0)
(0.00101943 -1.23231e-06 0)
(0.00101974 -1.00789e-06 0)
(0.00102 -7.57896e-07 0)
(0.00102019 -4.91213e-07 0)
(0.00102032 -1.93436e-07 0)
(0.00102037 1.20585e-07 0)
(0.00102035 4.73589e-07 0)
(0.00102023 8.41061e-07 0)
(0.00102002 1.25935e-06 0)
(0.00101971 1.6879e-06 0)
(0.00101929 2.18448e-06 0)
(0.00101875 2.68237e-06 0)
(0.00101807 3.27415e-06 0)
(0.00101726 3.85049e-06 0)
(0.0010163 4.56032e-06 0)
(0.00101516 5.22448e-06 0)
(0.00101386 6.08357e-06 0)
(0.00101235 6.84368e-06 0)
(0.00101064 7.89497e-06 0)
(0.00100868 8.75355e-06 0)
(0.00100648 1.00535e-05 0)
(0.001 -1.47205e-07 0)
(0.00100005 -4.40949e-07 0)
(0.00100014 -7.32751e-07 0)
(0.00100028 -1.02131e-06 0)
(0.00100046 -1.30532e-06 0)
(0.00100069 -1.58351e-06 0)
(0.00100097 -1.85465e-06 0)
(0.00100129 -2.11758e-06 0)
(0.00100165 -2.37123e-06 0)
(0.00100204 -2.6146e-06 0)
(0.00100248 -2.84677e-06 0)
(0.00100295 -3.0669e-06 0)
(0.00100346 -3.27425e-06 0)
(0.001004 -3.46812e-06 0)
(0.00100457 -3.64791e-06 0)
(0.00100516 -3.81303e-06 0)
(0.00100578 -3.96302e-06 0)
(0.00100642 -4.09738e-06 0)
(0.00100709 -4.21573e-06 0)
(0.00100777 -4.31763e-06 0)
(0.00100846 -4.40278e-06 0)
(0.00100917 -4.47072e-06 0)
(0.00100989 -4.5212e-06 0)
(0.00101061 -4.55373e-06 0)
(0.00101134 -4.56812e-06 0)
(0.00101207 -4.56372e-06 0)
(0.0010128 -4.54042e-06 0)
(0.00101353 -4.49739e-06 0)
(0.00101425 -4.43461e-06 0)
(0.00101496 -4.35091e-06 0)
(0.00101565 -4.2465e-06 0)
(0.00101633 -4.11968e-06 0)
(0.001017 -3.97102e-06 0)
(0.00101764 -3.79805e-06 0)
(0.00101825 -3.60198e-06 0)
(0.00101884 -3.37911e-06 0)
(0.00101939 -3.13176e-06 0)
(0.00101991 -2.85432e-06 0)
(0.00102039 -2.551e-06 0)
(0.00102082 -2.21319e-06 0)
(0.00102121 -1.84821e-06 0)
(0.00102154 -1.44278e-06 0)
(0.00102181 -1.00936e-06 0)
(0.00102203 -5.27199e-07 0)
(0.00102217 -1.72724e-08 0)
(0.00102224 5.53169e-07 0)
(0.00102223 1.14927e-06 0)
(0.00102214 1.82342e-06 0)
(0.00102195 2.51807e-06 0)
(0.00102167 3.31605e-06 0)
(0.00102127 4.12253e-06 0)
(0.00102076 5.06996e-06 0)
(0.00102012 6.0031e-06 0)
(0.00101935 7.13445e-06 0)
(0.00101842 8.20999e-06 0)