/*--------------------------------*- C++ -*----------------------------------*\
| =========                 |                                                 |
| \\      /  F ield         | OpenFOAM: The Open Source CFD Toolbox           |
|  \\    /   O peration     | Version:  2312                                  |
|   \\  /    A nd           | Website:  www.openfoam.com                      |
|    \\/     M anipulation  |                                                 |
\*---------------------------------------------------------------------------*/
FoamFile
{
    version     2.0;
    format      ascii;
    arch        "LSB;label=32;scalar=64";
    class       surfaceScalarField;
    location    "88000";
    object      phi;
}
// * * * * * * * * * * * * * * * * * * * * * * * * * * * * * * * * * * * * * //

dimensions      [0 3 -1 0 0 0 0];

oriented        oriented;

internalField   nonuniform List<scalar> 
21240
(
0.000664974
1.69222e-06
0.000661072
3.9023e-06
0.000655751
5.32069e-06
0.000649515
6.23615e-06
0.000642641
6.87478e-06
0.000635269
7.37128e-06
0.000627493
7.77611e-06
0.000619391
8.10233e-06
0.000611035
8.35594e-06
0.000602489
8.54594e-06
0.000593804
8.68462e-06
0.00058502
8.78428e-06
0.000576165
8.85456e-06
0.000567264
8.90177e-06
0.000558334
8.92972e-06
0.000549393
8.94088e-06
0.000540456
8.93708e-06
0.000531536
8.91989e-06
0.000522646
8.89062e-06
0.000513795
8.85035e-06
0.000504995
8.7999e-06
0.000496255
8.73987e-06
0.000487585
8.67066e-06
0.000478992
8.59257e-06
0.000470486
8.50582e-06
0.000462076
8.41055e-06
0.000453769
8.30687e-06
0.000445574
8.19479e-06
0.0004375
8.07444e-06
0.000429554
7.94567e-06
0.000421745
7.80871e-06
0.000414082
7.66319e-06
0.000406573
7.50962e-06
0.000399225
7.34723e-06
0.000392048
7.17711e-06
0.00038505
6.99774e-06
0.000378239
6.8113e-06
0.000371624
6.61483e-06
0.000365212
6.41255e-06
0.000359013
6.19879e-06
0.000353031
5.98156e-06
0.000347281
5.75011e-06
0.000341762
5.51938e-06
0.000336493
5.26924e-06
0.000331465
5.02731e-06
0.000326709
4.75617e-06
0.000322203
4.50662e-06
0.000317993
4.20932e-06
0.000314035
3.95791e-06
0.000310412
3.62306e-06
0.000307032
3.38012e-06
0.000304051
2.98135e-06
0.000301281
2.76981e-06
0.000299042
2.23938e-06
0.000296922
2.11946e-06
0.000295678
1.2443e-06
0.000294201
1.47696e-06
0.000294413
-2.12279e-07
0.000293254
1.159e-06
-3.20393e-06
0.000296458
0.000667556
8.02905e-07
0.000669121
2.33771e-06
0.000670854
3.58714e-06
0.000672525
4.56501e-06
0.000674054
5.34572e-06
0.000675428
5.99804e-06
0.00067664
6.56363e-06
0.000677681
7.06088e-06
0.000678541
7.49683e-06
0.000679211
7.87595e-06
0.000679691
8.20383e-06
0.000679988
8.48741e-06
0.000680109
8.73372e-06
0.000680062
8.94858e-06
0.000679856
9.13635e-06
0.000679497
9.29993e-06
0.000678992
9.44149e-06
0.000678349
9.56258e-06
0.000677575
9.66467e-06
0.000676677
9.7488e-06
0.000675661
9.8161e-06
0.000674534
9.86711e-06
0.000673302
9.90268e-06
0.000671971
9.92285e-06
0.000670549
9.92836e-06
0.00066904
9.91881e-06
0.000667452
9.89508e-06
0.000665791
9.85622e-06
0.000664062
9.80354e-06
0.000662272
9.73532e-06
0.000660427
9.65367e-06
0.000658535
9.55569e-06
0.000656599
9.4449e-06
0.00065463
9.31653e-06
0.000652631
9.17646e-06
0.000650612
9.01686e-06
0.000648575
8.84758e-06
0.000646534
8.6557e-06
0.000644489
8.45767e-06
0.000642456
8.23213e-06
0.000640431
8.00645e-06
0.000638436
7.7453e-06
0.000636461
7.49407e-06
0.000634536
7.19431e-06
0.000632642
6.92119e-06
0.00063082
6.57798e-06
0.000629038
6.28907e-06
0.000627353
5.8945e-06
0.000625711
5.59983e-06
0.000624193
5.14095e-06
0.000622716
4.85692e-06
0.000621384
4.31322e-06
0.000620088
4.06632e-06
0.00061892
3.40694e-06
0.000617801
3.23822e-06
0.000616622
2.42351e-06
0.000615711
2.38819e-06
0.000614099
1.39982e-06
0.00061371
1.54769e-06
4.54057e-07
0.000610052
0.000666951
5.18587e-07
0.000667819
1.46997e-06
0.000669059
2.34701e-06
0.000670484
3.1398e-06
0.000671986
3.84418e-06
0.000673516
4.4678e-06
0.000675057
5.02288e-06
0.000676597
5.52054e-06
0.000678125
5.96858e-06
0.000679629
6.37191e-06
0.000681099
6.73407e-06
0.000682528
7.05832e-06
0.000683914
7.3482e-06
0.000685255
7.60716e-06
0.000686553
7.8385e-06
0.000687808
8.04483e-06
0.000689021
8.22839e-06
0.000690193
8.39071e-06
0.000691324
8.53329e-06
0.000692416
8.65703e-06
0.000693469
8.7631e-06
0.000694484
8.8519e-06
0.000695463
8.92444e-06
0.000696405
8.98064e-06
0.000697312
9.02147e-06
0.000698184
9.0463e-06
0.000699023
9.05629e-06
0.000699829
9.05018e-06
0.000700603
9.02954e-06
0.000701346
8.99232e-06
0.000702059
8.94085e-06
0.000702743
8.87192e-06
0.000703398
8.78912e-06
0.000704027
8.68759e-06
0.000704631
8.57283e-06
0.00070521
8.43757e-06
0.000705768
8.29021e-06
0.000706303
8.11994e-06
0.000706822
7.93944e-06
0.000707321
7.73275e-06
0.000707809
7.5188e-06
0.00070828
7.27421e-06
0.000708747
7.02682e-06
0.000709198
6.74285e-06
0.000709657
6.4625e-06
0.000710097
6.13779e-06
0.000710561
5.82554e-06
0.000710996
5.45913e-06
0.000711479
5.11661e-06
0.000711912
4.70848e-06
0.000712431
4.33767e-06
0.000712854
3.8899e-06
0.000713428
3.4926e-06
0.000713823
3.01256e-06
0.000714471
2.59006e-06
0.000714796
2.09817e-06
0.000715534
1.65042e-06
0.000715737
1.19689e-06
0.000716572
7.12264e-07
3.98968e-07
0.000716627
0.000666854
3.31408e-07
0.000667309
1.01512e-06
0.000667972
1.68354e-06
0.000668796
2.31598e-06
0.000669737
2.90322e-06
0.000670762
3.44236e-06
0.00067185
3.93497e-06
0.000672986
4.38469e-06
0.000674159
4.79545e-06
0.000675361
5.17047e-06
0.000676583
5.51225e-06
0.000677818
5.82286e-06
0.000679062
6.10427e-06
0.000680311
6.35846e-06
0.000681562
6.58745e-06
0.000682813
6.79306e-06
0.000684065
6.97698e-06
0.000685315
7.14053e-06
0.000686563
7.28491e-06
0.000687809
7.41098e-06
0.000689053
7.51961e-06
0.000690294
7.61133e-06
0.000691531
7.6868e-06
0.000692766
7.74627e-06
0.000693997
7.79024e-06
0.000695224
7.81871e-06
0.000696449
7.83206e-06
0.000697669
7.83005e-06
0.000698885
7.81302e-06
0.000700097
7.78052e-06
0.000701305
7.73285e-06
0.000702508
7.66943e-06
0.000703706
7.59049e-06
0.000704898
7.49543e-06
0.000706087
7.38429e-06
0.000707268
7.25669e-06
0.000708446
7.11218e-06
0.000709615
6.95105e-06
0.000710782
6.7718e-06
0.000711939
6.5762e-06
0.000713097
6.36063e-06
0.000714241
6.12982e-06
0.000715392
5.87607e-06
0.000716525
5.60976e-06
0.000717672
5.31554e-06
0.000718796
5.01419e-06
0.000719945
4.67659e-06
0.000721062
4.3421e-06
0.000722221
3.95744e-06
0.000723335
3.59446e-06
0.000724514
3.15823e-06
0.000725628
2.77626e-06
0.000726838
2.28261e-06
0.000727952
1.89856e-06
0.000729203
1.33876e-06
0.000730321
9.80717e-07
0.000731628
3.43216e-07
0.000732765
5.97541e-08
0.000734208
-7.30889e-07
-8.97574e-07
0.000735505
0.000666738
2.59644e-07
0.00066697
7.83759e-07
0.000667356
1.29706e-06
0.00066788
1.79256e-06
0.000668519
2.26434e-06
0.000669252
2.70882e-06
0.000670063
3.12456e-06
0.000670936
3.51161e-06
0.00067186
3.87088e-06
0.000672827
4.20348e-06
0.000673829
4.5105e-06
0.000674859
4.79292e-06
0.000675911
5.05168e-06
0.000676982
5.28775e-06
0.000678067
5.50216e-06
0.000679165
5.69594e-06
0.000680271
5.87008e-06
0.000681387
6.02549e-06
0.000682508
6.16295e-06
0.000683636
6.28315e-06
0.000684769
6.38663e-06
0.000685907
6.47394e-06
0.000687048
6.54539e-06
0.000688193
6.60143e-06
0.000689341
6.64214e-06
0.000690492
6.66791e-06
0.000691645
6.67858e-06
0.000692801
6.67458e-06
0.000693958
6.65539e-06
0.000695117
6.62163e-06
0.000696278
6.5723e-06
0.000697439
6.50843e-06
0.000698601
6.42831e-06
0.000699763
6.3337e-06
0.000700925
6.22178e-06
0.000702086
6.09561e-06
0.000703248
5.95055e-06
0.000704407
5.79188e-06
0.000705567
5.61203e-06
0.000706723
5.41993e-06
0.000707881
5.20328e-06
0.000709033
4.97702e-06
0.000710188
4.72116e-06
0.000711338
4.46042e-06
0.000712491
4.16245e-06
0.000713637
3.86773e-06
0.00071479
3.52397e-06
0.000715935
3.19679e-06
0.000717091
2.80186e-06
0.00071824
2.44487e-06
0.000719408
1.9903e-06
0.000720576
1.60797e-06
0.000721778
1.08095e-06
0.000722995
6.81215e-07
0.000724278
5.65875e-08
0.000725582
-3.23463e-07
0.000726952
-1.0272e-06
0.0007284
-1.38796e-06
0.000729919
-2.2501e-06
-2.56167e-06
0.000731583
0.000666724
2.02281e-07
0.000666899
6.08632e-07
0.000667184
1.01226e-06
0.00066757
1.40665e-06
0.000668046
1.78808e-06
0.000668601
2.15364e-06
0.000669225
2.50125e-06
0.000669907
2.82971e-06
0.000670639
3.13844e-06
0.000671415
3.42731e-06
0.000672229
3.6964e-06
0.000673076
3.94598e-06
0.000673951
4.17641e-06
0.000674851
4.38813e-06
0.000675772
4.5816e-06
0.00067671
4.75736e-06
0.000677664
4.91589e-06
0.000678632
5.05776e-06
0.000679612
5.18338e-06
0.000680602
5.29326e-06
0.000681601
5.38768e-06
0.000682607
5.46707e-06
0.000683621
5.53156e-06
0.000684641
5.58154e-06
0.000685666
5.61694e-06
0.000686696
5.63817e-06
0.00068773
5.6449e-06
0.000688767
5.63764e-06
0.000689806
5.61571e-06
0.000690848
5.57986e-06
0.000691892
5.52891e-06
0.000692936
5.46402e-06
0.000693981
5.38333e-06
0.000695026
5.28869e-06
0.000696071
5.17717e-06
0.000697114
5.05183e-06
0.000698157
4.90807e-06
0.000699198
4.75088e-06
0.000700237
4.57309e-06
0.000701274
4.3828e-06
0.000702308
4.16877e-06
0.000703341
3.94406e-06
0.000704371
3.69104e-06
0.000705401
3.43056e-06
0.000706429
3.135e-06
0.000707459
2.83753e-06
0.000708488
2.49501e-06
0.000709525
2.16015e-06
0.000710561
1.76584e-06
0.00071161
1.39535e-06
0.000712656
9.44186e-07
0.000713721
5.4306e-07
0.000714768
3.41782e-08
0.000715862
-4.12878e-07
0.000716946
-1.02732e-06
0.000718109
-1.48683e-06
0.000719285
-2.2032e-06
0.000720568
-2.67115e-06
0.000721846
-3.52796e-06
-3.98329e-06
0.000723268
0.000666708
1.60529e-07
0.000666834
4.8334e-07
0.000667041
8.05284e-07
0.000667326
1.1218e-06
0.000667683
1.43035e-06
0.000668108
1.72881e-06
0.000668594
2.01545e-06
0.000669135
2.28904e-06
0.000669724
2.54881e-06
0.000670357
2.79443e-06
0.000671029
3.02453e-06
0.000671736
3.23921e-06
0.000672474
3.43861e-06
0.000673239
3.62284e-06
0.000674028
3.792e-06
0.000674839
3.94631e-06
0.000675669
4.08595e-06
0.000676516
4.21118e-06
0.000677377
4.3222e-06
0.000678251
4.41929e-06
0.000679136
4.50255e-06
0.000680031
4.57226e-06
0.000680934
4.62842e-06
0.000681844
4.67129e-06
0.000682761
4.70074e-06
0.000683682
4.71703e-06
0.000684607
4.71987e-06
0.000685535
4.70958e-06
0.000686465
4.68561e-06
0.000687396
4.64844e-06
0.000688328
4.59714e-06
0.00068926
4.53248e-06
0.00069019
4.45303e-06
0.000691119
4.36001e-06
0.000692045
4.25124e-06
0.000692968
4.12873e-06
0.000693887
3.98913e-06
0.000694802
3.83571e-06
0.000695712
3.66339e-06
0.000696617
3.47744e-06
0.000697516
3.27006e-06
0.00069841
3.04976e-06
0.000699296
2.80453e-06
0.000700179
2.54804e-06
0.000701052
2.26171e-06
0.000701923
1.96719e-06
0.000702782
1.6354e-06
0.000703642
1.30012e-06
0.000704492
9.1566e-07
0.000705353
5.35077e-07
0.000706211
8.58189e-08
0.000707089
-3.34794e-07
0.000707969
-8.45482e-07
0.000708871
-1.31572e-06
0.000709758
-1.91406e-06
0.000710703
-2.4316e-06
0.000711634
-3.13434e-06
0.000712658
-3.69529e-06
0.00071366
-4.5298e-06
-5.12354e-06
0.0007148
0.000666699
1.28472e-07
0.000666796
3.86449e-07
0.000666957
6.44108e-07
0.00066718
8.98258e-07
0.000667464
1.14716e-06
0.000667803
1.38928e-06
0.000668195
1.62329e-06
0.000668636
1.84812e-06
0.000669122
2.06286e-06
0.00066965
2.26681e-06
0.000670215
2.45934e-06
0.000670814
2.64004e-06
0.000671444
2.80871e-06
0.000672102
2.96522e-06
0.000672784
3.10952e-06
0.000673489
3.24158e-06
0.000674213
3.36139e-06
0.000674956
3.46902e-06
0.000675713
3.56448e-06
0.000676485
3.64787e-06
0.000677268
3.71921e-06
0.000678062
3.77859e-06
0.000678864
3.82598e-06
0.000679674
3.86145e-06
0.00068049
3.88491e-06
0.00068131
3.89643e-06
0.000682134
3.89579e-06
0.000682961
3.8831e-06
0.000683789
3.85798e-06
0.000684616
3.82059e-06
0.000685443
3.77033e-06
0.000686268
3.70748e-06
0.00068709
3.63116e-06
0.000687908
3.54184e-06
0.000688721
3.43821e-06
0.000689529
3.32111e-06
0.000690329
3.18859e-06
0.000691123
3.04209e-06
0.000691908
2.87874e-06
0.000692684
2.70089e-06
0.00069345
2.50428e-06
0.000694207
2.29276e-06
0.000694952
2.05992e-06
0.000695688
1.81198e-06
0.00069641
1.53925e-06
0.000697126
1.25179e-06
0.000697826
9.35031e-07
0.000698521
6.053e-07
0.000699195
2.41111e-07
0.000699866
-1.3533e-07
0.000700516
-5.64369e-07
0.000701178
-9.96899e-07
0.000701822
-1.48906e-06
0.000702484
-1.97845e-06
0.00070312
-2.54995e-06
0.000703792
-3.1038e-06
0.000704429
-3.77094e-06
0.000705127
-4.39329e-06
0.000705773
-5.1754e-06
-5.86639e-06
0.000706515
0.000666693
1.02278e-07
0.000666772
3.07524e-07
0.000666903
5.12675e-07
0.000667086
7.15404e-07
0.000667319
9.14482e-07
0.000667599
1.10879e-06
0.000667925
1.29733e-06
0.000668294
1.4792e-06
0.000668703
1.65364e-06
0.00066915
1.82002e-06
0.000669632
1.97781e-06
0.000670145
2.12658e-06
0.000670688
2.26601e-06
0.000671257
2.39583e-06
0.000671851
2.51586e-06
0.000672466
2.62597e-06
0.000673102
2.72603e-06
0.000673755
2.816e-06
0.000674424
2.89578e-06
0.000675106
2.96535e-06
0.000675801
3.02467e-06
0.000676506
3.07369e-06
0.000677219
3.11237e-06
0.00067794
3.14067e-06
0.000678666
3.15848e-06
0.000679397
3.16576e-06
0.00068013
3.16235e-06
0.000680865
3.14817e-06
0.0006816
3.12301e-06
0.000682334
3.08676e-06
0.000683065
3.03911e-06
0.000683793
2.97993e-06
0.000684515
2.90879e-06
0.000685232
2.82559e-06
0.00068594
2.72969e-06
0.00068664
2.62104e-06
0.00068733
2.49879e-06
0.000688009
2.36296e-06
0.000688675
2.2124e-06
0.000689329
2.04725e-06
0.000689967
1.86599e-06
0.000690591
1.66898e-06
0.000691197
1.45413e-06
0.000691787
1.22224e-06
0.000692356
9.70358e-07
0.000692907
6.99905e-07
0.000693436
4.06777e-07
0.000693947
9.3851e-08
0.000694437
-2.48337e-07
0.000694915
-6.1379e-07
0.000695361
-1.0105e-06
0.000695797
-1.43228e-06
0.000696199
-1.89126e-06
0.000696598
-2.37743e-06
0.000696957
-2.909e-06
0.000697323
-3.47002e-06
0.000697639
-4.0874e-06
0.000697981
-4.73511e-06
0.000698259
-5.45344e-06
-6.19894e-06
0.000698592
0.000666689
8.01901e-08
0.000666755
2.41055e-07
0.000666866
4.01924e-07
0.00066702
5.6107e-07
0.000667217
7.17607e-07
0.000667455
8.70719e-07
0.000667733
1.01965e-06
0.000668048
1.16372e-06
0.0006684
1.30232e-06
0.000668785
1.43492e-06
0.000669202
1.56107e-06
0.000669648
1.68036e-06
0.000670121
1.79247e-06
0.00067062
1.89712e-06
0.000671142
1.99407e-06
0.000671685
2.08313e-06
0.000672247
2.16415e-06
0.000672826
2.237e-06
0.00067342
2.30155e-06
0.000674027
2.35771e-06
0.000674647
2.40539e-06
0.000675276
2.4445e-06
0.000675913
2.47496e-06
0.000676557
2.49666e-06
0.000677206
2.50951e-06
0.000677859
2.51337e-06
0.000678513
2.50815e-06
0.000679167
2.49365e-06
0.000679821
2.46975e-06
0.000680471
2.43621e-06
0.000681117
2.39287e-06
0.000681758
2.33939e-06
0.000682391
2.27562e-06
0.000683016
2.20108e-06
0.00068363
2.11564e-06
0.000684232
2.01864e-06
0.000684821
1.91001e-06
0.000685395
1.78879e-06
0.000685952
1.65508e-06
0.000686492
1.50751e-06
0.000687012
1.34645e-06
0.000687511
1.1699e-06
0.000687986
9.78767e-07
0.000688438
7.70084e-07
0.000688863
5.45787e-07
0.000689261
3.01528e-07
0.000689626
4.19984e-08
0.000689967
-2.47282e-07
0.000690273
-5.54243e-07
0.00069055
-8.90462e-07
0.000690785
-1.24561e-06
0.00069099
-1.63789e-06
0.000691148
-2.04912e-06
0.000691279
-2.50786e-06
0.000691353
-2.9836e-06
0.000691405
-3.52178e-06
0.000691389
-4.07173e-06
0.00069136
-4.70559e-06
0.000691246
-5.3395e-06
-6.08714e-06
0.000691134
0.000666686
6.10457e-08
0.000666743
1.83483e-07
0.000666839
3.05965e-07
0.000666973
4.27226e-07
0.000667144
5.46627e-07
0.000667351
6.63577e-07
0.000667593
7.77525e-07
0.000667869
8.8796e-07
0.000668177
9.94418e-07
0.000668516
1.09648e-06
0.000668883
1.19377e-06
0.000669277
1.28596e-06
0.000669697
1.37276e-06
0.00067014
1.45391e-06
0.000670605
1.5292e-06
0.00067109
1.59841e-06
0.000671592
1.66141e-06
0.000672111
1.71802e-06
0.000672645
1.76814e-06
0.000673191
1.81163e-06
0.000673748
1.84839e-06
0.000674314
1.87831e-06
0.000674888
1.90129e-06
0.000675467
1.91721e-06
0.000676051
1.92598e-06
0.000676637
1.92743e-06
0.000677223
1.92149e-06
0.000677809
1.90794e-06
0.000678392
1.8867e-06
0.000678971
1.85747e-06
0.000679544
1.8202e-06
0.000680108
1.77445e-06
0.000680664
1.72025e-06
0.000681208
1.65693e-06
0.000681739
1.58467e-06
0.000682255
1.50249e-06
0.000682754
1.41078e-06
0.000683235
1.30813e-06
0.000683695
1.19532e-06
0.000684132
1.07021e-06
0.000684544
9.34283e-07
0.00068493
7.84299e-07
0.000685286
6.22897e-07
0.000685611
4.45124e-07
0.000685901
2.55652e-07
0.000686155
4.74066e-08
0.000686373
-1.76519e-07
0.000686552
-4.25348e-07
0.000686683
-6.858e-07
0.00068677
-9.7769e-07
0.000686805
-1.27985e-06
0.00068679
-1.62342e-06
0.000686714
-1.97342e-06
0.000686586
-2.37943e-06
0.000686386
-2.78397e-06
0.000686131
-3.26635e-06
0.000685792
-3.73246e-06
0.000685395
-4.30938e-06
0.000684899
-4.84294e-06
-5.53646e-06
0.000684348
0.000666684
4.40092e-08
0.000666735
1.32274e-07
0.00066682
2.20596e-07
0.000666939
3.08085e-07
0.000667092
3.94297e-07
0.000667277
4.7882e-07
0.000667493
5.61264e-07
0.000667739
6.41267e-07
0.000668015
7.18492e-07
0.000668319
7.92631e-07
0.00066865
8.63404e-07
0.000669005
9.30553e-07
0.000669384
9.93852e-07
0.000669785
1.05309e-06
0.000670206
1.1081e-06
0.000670646
1.1587e-06
0.000671102
1.20475e-06
0.000671574
1.24612e-06
0.00067206
1.28269e-06
0.000672557
1.31435e-06
0.000673064
1.34101e-06
0.00067358
1.36254e-06
0.000674102
1.37888e-06
0.00067463
1.38988e-06
0.00067516
1.39549e-06
0.000675692
1.39554e-06
0.000676224
1.38998e-06
0.000676753
1.37859e-06
0.000677278
1.36135e-06
0.000677798
1.33793e-06
0.00067831
1.30838e-06
0.000678812
1.27223e-06
0.000679303
1.22961e-06
0.00067978
1.17985e-06
0.000680241
1.12323e-06
0.000680685
1.05877e-06
0.000681109
9.87018e-07
0.00068151
9.06511e-07
0.000681887
8.18273e-07
0.000682237
7.20069e-07
0.000682558
6.13719e-07
0.000682846
4.95795e-07
0.0006831
3.6945e-07
0.000683316
2.29409e-07
0.00068349
8.12217e-08
0.000683623
-8.51792e-08
0.000683707
-2.61419e-07
0.000683741
-4.59113e-07
0.000683719
-6.63964e-07
0.000683639
-8.97393e-07
0.000683495
-1.13543e-06
0.000683283
-1.41207e-06
0.000682998
-1.68793e-06
0.000682636
-2.01743e-06
0.000682188
-2.33607e-06
0.000681653
-2.73129e-06
0.000681018
-3.0975e-06
0.000680284
-3.57563e-06
0.000679434
-3.99243e-06
-4.5752e-06
0.000678472
0.000666682
2.84347e-08
0.000666729
8.54725e-08
0.000666807
1.42567e-07
0.000666916
1.9915e-07
0.000667055
2.54942e-07
0.000667225
3.09679e-07
0.000667423
3.63113e-07
0.000667649
4.15011e-07
0.000667902
4.65155e-07
0.000668182
5.13341e-07
0.000668486
5.59384e-07
0.000668813
6.0311e-07
0.000669162
6.44364e-07
0.000669533
6.83003e-07
0.000669922
7.18898e-07
0.000670329
7.5193e-07
0.000670751
7.81998e-07
0.000671188
8.08997e-07
0.000671638
8.32847e-07
0.000672099
8.53453e-07
0.000672569
8.7075e-07
0.000673047
8.84642e-07
0.000673531
8.95078e-07
0.000674019
9.01948e-07
0.000674509
9.05213e-07
0.000675
9.04737e-07
0.00067549
9.00497e-07
0.000675976
8.92312e-07
0.000676457
8.80184e-07
0.000676931
8.63862e-07
0.000677396
8.4339e-07
0.00067785
8.18411e-07
0.000678291
7.89047e-07
0.000678716
7.54774e-07
0.000679123
7.15853e-07
0.00067951
6.71502e-07
0.000679875
6.22218e-07
0.000680215
5.66819e-07
0.000680527
5.06201e-07
0.000680808
4.38559e-07
0.000681057
3.65453e-07
0.000681268
2.84108e-07
0.000681441
1.97203e-07
0.000681569
1.00525e-07
0.000681651
-4.5373e-10
0.000681684
-1.17685e-07
0.000681661
-2.38947e-07
0.000681578
-3.76356e-07
0.000681432
-5.17786e-07
0.000681216
-6.80791e-07
0.000680925
-8.45312e-07
0.000680553
-1.03939e-06
0.000680095
-1.23015e-06
0.00067954
-1.4626e-06
0.000678887
-1.68287e-06
0.000678119
-1.96357e-06
0.000677238
-2.21632e-06
0.000676221
-2.55867e-06
0.000675074
-2.84522e-06
-3.26656e-06
0.000673765
0.000666681
1.37858e-08
0.000666725
4.14609e-08
0.000666799
6.91853e-08
0.000666901
9.66836e-08
0.000667032
1.2382e-07
0.000667192
1.50467e-07
0.000667378
1.76504e-07
0.000667591
2.01816e-07
0.00066783
2.26296e-07
0.000668094
2.49843e-07
0.000668381
2.72365e-07
0.00066869
2.93774e-07
0.00066902
3.13993e-07
0.00066937
3.32945e-07
0.000669739
3.50567e-07
0.000670124
3.66794e-07
0.000670524
3.81574e-07
0.000670938
3.9485e-07
0.000671365
4.06579e-07
0.000671802
4.1671e-07
0.000672247
4.25206e-07
0.0006727
4.32016e-07
0.000673158
4.37111e-07
0.000673619
4.4043e-07
0.000674082
4.41952e-07
0.000674546
4.41603e-07
0.000675007
4.39371e-07
0.000675464
4.35156e-07
0.000675915
4.28961e-07
0.000676358
4.20649e-07
0.000676791
4.10249e-07
0.000677212
3.97563e-07
0.000677619
3.82665e-07
0.000678008
3.65267e-07
0.000678378
3.45521e-07
0.000678727
3.22996e-07
0.000679051
2.9798e-07
0.000679348
2.69819e-07
0.000679615
2.39029e-07
0.000679849
2.0461e-07
0.000680047
1.67455e-07
0.000680205
1.26022e-07
0.000680321
8.18384e-08
0.000680389
3.25507e-08
0.000680408
-1.96358e-08
0.00068037
-7.92324e-08
0.000680272
-1.41152e-07
0.000680107
-2.11657e-07
0.000679873
-2.83912e-07
0.00067956
-3.67759e-07
0.000679167
-4.51905e-07
0.000678679
-5.52052e-07
0.000678099
-6.49669e-07
0.000677406
-7.70031e-07
0.000676606
-8.82759e-07
0.000675671
-1.0287e-06
0.000674613
-1.15796e-06
0.000673391
-1.33681e-06
0.000672029
-1.48302e-06
-1.70439e-06
0.000670467
0.000666681
-4.10387e-10
0.000666724
-1.19181e-09
0.000666795
-1.93171e-09
0.000666894
-2.62978e-09
0.000667021
-3.28467e-09
0.000667175
-3.89563e-09
0.000667356
-4.46224e-09
0.000667563
-4.98427e-09
0.000667795
-5.46181e-09
0.000668051
-5.89488e-09
0.000668329
-6.2839e-09
0.00066863
-6.62933e-09
0.000668951
-6.9319e-09
0.000669291
-7.19247e-09
0.000669649
-7.41203e-09
0.000670023
-7.59185e-09
0.000670412
-7.7332e-09
0.000670815
-7.83777e-09
0.00067123
-7.90724e-09
0.000671654
-7.9429e-09
0.000672087
-7.94742e-09
0.000672527
-7.92214e-09
0.000672972
-7.8691e-09
0.000673421
-7.79118e-09
0.00067387
-7.68945e-09
0.000674319
-7.56766e-09
0.000674766
-7.42746e-09
0.000675209
-7.27084e-09
0.000675645
-7.10072e-09
0.000676072
-6.92041e-09
0.000676489
-6.72976e-09
0.000676893
-6.53406e-09
0.000677282
-6.3345e-09
0.000677654
-6.13558e-09
0.000678005
-5.93707e-09
0.000678334
-5.74222e-09
0.000678637
-5.55393e-09
0.000678913
-5.37265e-09
0.000679157
-5.20525e-09
0.000679367
-5.04639e-09
0.000679539
-4.90469e-09
0.00067967
-4.7789e-09
0.000679756
-4.67908e-09
0.000679793
-4.60744e-09
0.000679778
-4.56176e-09
0.000679704
-4.53516e-09
0.000679567
-4.53704e-09
0.00067936
-4.58118e-09
0.000679081
-4.6575e-09
0.000678718
-4.76597e-09
0.000678271
-4.9099e-09
0.000677724
-5.09849e-09
0.000677079
-5.32229e-09
0.000676315
-5.59611e-09
0.000675438
-5.91645e-09
0.000674416
-6.28685e-09
0.000673264
-6.71112e-09
0.000671935
-7.1835e-09
0.00067046
-7.72297e-09
-8.29071e-09
0.000668763
0.000666681
-1.46032e-08
0.000666723
-4.38279e-08
0.000666795
-7.30251e-08
0.000666894
-1.01912e-07
0.000667021
-1.30351e-07
0.000667175
-1.58213e-07
0.000667356
-1.85377e-07
0.000667563
-2.11727e-07
0.000667795
-2.37157e-07
0.00066805
-2.61565e-07
0.000668329
-2.84861e-07
0.000668629
-3.06956e-07
0.00066895
-3.27776e-07
0.00066929
-3.47246e-07
0.000669648
-3.65304e-07
0.000670022
-3.81888e-07
0.000670411
-3.96948e-07
0.000670814
-4.10431e-07
0.000671228
-4.22297e-07
0.000671653
-4.32498e-07
0.000672086
-4.41003e-07
0.000672526
-4.47761e-07
0.000672971
-4.52749e-07
0.000673419
-4.55912e-07
0.000673868
-4.57231e-07
0.000674318
-4.56638e-07
0.000674764
-4.54126e-07
0.000675207
-4.49598e-07
0.000675643
-4.43065e-07
0.00067607
-4.34391e-07
0.000676487
-4.23613e-07
0.000676891
-4.10536e-07
0.00067728
-3.95242e-07
0.000677651
-3.77444e-07
0.000678002
-3.57301e-07
0.000678331
-3.34388e-07
0.000678635
-3.08994e-07
0.00067891
-2.80475e-07
0.000679154
-2.49347e-07
0.000679363
-2.1462e-07
0.000679536
-1.77185e-07
0.000679666
-1.35507e-07
0.000679753
-9.10992e-08
0.00067979
-4.16055e-08
0.000679775
1.05544e-08
0.0006797
7.0255e-08
0.000679563
1.32159e-07
0.000679356
2.02596e-07
0.000679077
2.74723e-07
0.000678713
3.58359e-07
0.000678266
4.42221e-07
0.000677719
5.41998e-07
0.000677075
6.3917e-07
0.00067631
7.58994e-07
0.000675433
8.71093e-07
0.000674411
1.01631e-06
0.000673259
1.14474e-06
0.000671929
1.32267e-06
0.000670454
1.46783e-06
1.68809e-06
0.000668757
0.000666681
-2.92375e-08
0.000666725
-8.77984e-08
0.000666799
-1.46341e-07
0.000666901
-2.0429e-07
0.000667032
-2.61362e-07
0.000667191
-3.17293e-07
0.000667378
-3.71835e-07
0.000667591
-4.24753e-07
0.000667829
-4.7583e-07
0.000668093
-5.24862e-07
0.000668379
-5.71663e-07
0.000668688
-6.16063e-07
0.000669019
-6.57907e-07
0.000669368
-6.97052e-07
0.000669736
-7.33374e-07
0.000670121
-7.66754e-07
0.000670521
-7.97095e-07
0.000670935
-8.24295e-07
0.000671361
-8.48277e-07
0.000671798
-8.68949e-07
0.000672243
-8.86251e-07
0.000672695
-9.00089e-07
0.000673153
-9.10417e-07
0.000673614
-9.1713e-07
0.000674077
-9.20192e-07
0.00067454
-9.19473e-07
0.000675001
-9.14954e-07
0.000675458
-9.06458e-07
0.000675909
-8.93993e-07
0.000676352
-8.77312e-07
0.000676784
-8.56465e-07
0.000677205
-8.31098e-07
0.000677611
-8.0134e-07
0.000678
-7.66671e-07
0.00067837
-7.27356e-07
0.000678719
-6.8262e-07
0.000679043
-6.32962e-07
0.000679339
-5.77209e-07
0.000679606
-5.16255e-07
0.00067984
-4.48308e-07
0.000680038
-3.74923e-07
0.000680195
-2.93343e-07
0.000680311
-2.06245e-07
0.000680378
-1.0941e-07
0.000680397
-7.86438e-09
0.000680358
1.08927e-07
0.00068026
2.3024e-07
0.000680095
3.67583e-07
0.000679861
5.08893e-07
0.000679548
6.71705e-07
0.000679154
8.3598e-07
0.000678666
1.02972e-06
0.000678085
1.22006e-06
0.000677392
1.45201e-06
0.000676592
1.67169e-06
0.000675656
1.9517e-06
0.000674597
2.20367e-06
0.000673375
2.54516e-06
0.000672012
2.83071e-06
3.25103e-06
0.000670449
0.000666682
-4.47893e-08
0.000666729
-1.34534e-07
0.000666807
-2.24263e-07
0.000666916
-3.13078e-07
0.000667055
-4.00535e-07
0.000667224
-4.86217e-07
0.000667422
-5.69736e-07
0.000667648
-6.50729e-07
0.000667901
-7.28859e-07
0.00066818
-8.03817e-07
0.000668483
-8.75325e-07
0.00066881
-9.43126e-07
0.000669159
-1.007e-06
0.000669529
-1.06673e-06
0.000669918
-1.12214e-06
0.000670324
-1.17307e-06
0.000670746
-1.21939e-06
0.000671183
-1.26095e-06
0.000671633
-1.29765e-06
0.000672093
-1.32937e-06
0.000672563
-1.35602e-06
0.00067304
-1.3775e-06
0.000673523
-1.39372e-06
0.000674011
-1.40457e-06
0.000674501
-1.40998e-06
0.000674991
-1.40978e-06
0.00067548
-1.40395e-06
0.000675966
-1.39225e-06
0.000676446
-1.37467e-06
0.00067692
-1.3509e-06
0.000677385
-1.32098e-06
0.000677838
-1.28445e-06
0.000678278
-1.24143e-06
0.000678703
-1.19128e-06
0.000679109
-1.13427e-06
0.000679496
-1.06943e-06
0.000679861
-9.97306e-07
0.0006802
-9.16447e-07
0.000680511
-8.27874e-07
0.000680793
-7.29364e-07
0.00068104
-6.22733e-07
0.000681252
-5.04564e-07
0.000681423
-3.77995e-07
0.000681552
-2.37764e-07
0.000681633
-8.94067e-08
0.000681665
7.69413e-08
0.000681642
2.53237e-07
0.000681559
4.50886e-07
0.000681412
6.55646e-07
0.000681195
8.88895e-07
0.000680904
1.12671e-06
0.000680531
1.40303e-06
0.000680072
1.67853e-06
0.000679517
2.00756e-06
0.000678863
2.32567e-06
0.000678094
2.72027e-06
0.000677212
3.08576e-06
0.000676194
3.56312e-06
0.000675046
3.97899e-06
4.56087e-06
0.000673736
0.000666684
-6.17947e-08
0.000666735
-1.85653e-07
0.00066682
-3.09485e-07
0.000666939
-4.32018e-07
0.000667091
-5.52613e-07
0.000667275
-6.70675e-07
0.000667491
-7.85653e-07
0.000667738
-8.97035e-07
0.000668013
-1.00436e-06
0.000668317
-1.1072e-06
0.000668646
-1.2052e-06
0.000669001
-1.29801e-06
0.00066938
-1.38536e-06
0.00066978
-1.46697e-06
0.0006702
-1.54264e-06
0.00067064
-1.61218e-06
0.000671096
-1.67541e-06
0.000671567
-1.73221e-06
0.000672052
-1.78244e-06
0.000672548
-1.82597e-06
0.000673055
-1.86273e-06
0.00067357
-1.89258e-06
0.000674092
-1.91545e-06
0.000674618
-1.93121e-06
0.000675148
-1.93977e-06
0.000675679
-1.94099e-06
0.00067621
-1.93478e-06
0.000676739
-1.92092e-06
0.000677264
-1.89935e-06
0.000677782
-1.86977e-06
0.000678294
-1.83214e-06
0.000678795
-1.78601e-06
0.000679285
-1.73142e-06
0.000679762
-1.66772e-06
0.000680222
-1.59507e-06
0.000680666
-1.51252e-06
0.000681089
-1.42045e-06
0.00068149
-1.31745e-06
0.000681866
-1.2043e-06
0.000682216
-1.07889e-06
0.000682536
-9.42676e-07
0.000682823
-7.92447e-07
0.000683076
-6.30824e-07
0.000683291
-4.52886e-07
0.000683465
-2.6326e-07
0.000683597
-5.48665e-08
0.000683681
1.69001e-07
0.000683714
4.17811e-07
0.000683692
6.78201e-07
0.000683611
9.69933e-07
0.000683466
1.27192e-06
0.000683253
1.61521e-06
0.000682967
1.96491e-06
0.000682604
2.3705e-06
0.000682155
2.7746e-06
0.000681619
3.25643e-06
0.000680983
3.72191e-06
0.000680248
4.29817e-06
0.000679396
4.83089e-06
5.5237e-06
0.000678433
0.000666686
-8.08997e-08
0.000666743
-2.43111e-07
0.000666839
-4.05258e-07
0.000666973
-5.65609e-07
0.000667143
-7.23275e-07
0.00066735
-8.77438e-07
0.000667592
-1.02734e-06
0.000667867
-1.17231e-06
0.000668174
-1.31173e-06
0.000668512
-1.44507e-06
0.000668879
-1.57187e-06
0.000669273
-1.69175e-06
0.000669692
-1.80437e-06
0.000670134
-1.90945e-06
0.000670598
-2.00676e-06
0.000671082
-2.09612e-06
0.000671584
-2.17736e-06
0.000672102
-2.25036e-06
0.000672635
-2.31501e-06
0.00067318
-2.37121e-06
0.000673736
-2.41888e-06
0.000674302
-2.45792e-06
0.000674874
-2.48826e-06
0.000675453
-2.50979e-06
0.000676036
-2.52244e-06
0.000676621
-2.52607e-06
0.000677207
-2.52057e-06
0.000677791
-2.50577e-06
0.000678374
-2.48155e-06
0.000678951
-2.44766e-06
0.000679523
-2.40396e-06
0.000680087
-2.35012e-06
0.000680642
-2.28597e-06
0.000681185
-2.21106e-06
0.000681715
-2.12524e-06
0.000682231
-2.02787e-06
0.000682729
-1.91888e-06
0.000683209
-1.79732e-06
0.000683668
-1.66328e-06
0.000684105
-1.51541e-06
0.000684516
-1.35407e-06
0.000684901
-1.17727e-06
0.000685256
-9.85918e-07
0.00068558
-7.77067e-07
0.000685869
-5.52615e-07
0.000686123
-3.08268e-07
0.00068634
-4.8571e-08
0.000686518
2.40573e-07
0.000686648
5.47542e-07
0.000686735
8.83629e-07
0.000686768
1.23865e-06
0.000686752
1.63068e-06
0.000686676
2.04167e-06
0.000686546
2.50006e-06
0.000686345
2.97544e-06
0.000686089
3.51316e-06
0.000685748
4.06259e-06
0.00068535
4.6959e-06
0.000684852
5.32908e-06
6.07618e-06
0.000684299
0.000666689
-1.0294e-07
0.000666755
-3.09442e-07
0.000666866
-5.15787e-07
0.00066702
-7.1964e-07
0.000667216
-9.1977e-07