/*--------------------------------*- C++ -*----------------------------------*\
| =========                 |                                                 |
| \\      /  F ield         | OpenFOAM: The Open Source CFD Toolbox           |
|  \\    /   O peration     | Version:  2312                                  |
|   \\  /    A nd           | Website:  www.openfoam.com                      |
|    \\/     M anipulation  |                                                 |
\*---------------------------------------------------------------------------*/
FoamFile
{
    version     2.0;
    format      ascii;
    arch        "LSB;label=32;scalar=64";
    class       volVectorField;
    location    "75000";
    object      U;
}
// * * * * * * * * * * * * * * * * * * * * * * * * * * * * * * * * * * * * * //

dimensions      [0 1 -1 0 0 0 0];

internalField   nonuniform List<vector> 
2685
(
(4.78594e-05 -6.9246e-06 0)
(5.83312e-05 -6.65735e-06 0)
(6.84771e-05 -6.35663e-06 0)
(7.82621e-05 -6.02893e-06 0)
(8.76574e-05 -5.68055e-06 0)
(9.66399e-05 -5.3175e-06 0)
(0.000105192 -4.9454e-06 0)
(0.000113302 -4.56942e-06 0)
(0.000120961 -4.19426e-06 0)
(0.000128168 -3.82406e-06 0)
(0.000134923 -3.46247e-06 0)
(0.000141232 -3.11261e-06 0)
(0.000147101 -2.77709e-06 0)
(0.000152543 -2.45803e-06 0)
(0.000157569 -2.15707e-06 0)
(0.000162196 -1.87543e-06 0)
(0.00016644 -1.6139e-06 0)
(0.000170319 -1.37291e-06 0)
(0.000173852 -1.15257e-06 0)
(0.00017706 -9.52699e-07 0)
(0.000179962 -7.72863e-07 0)
(0.000182579 -6.12427e-07 0)
(0.00018493 -4.70581e-07 0)
(0.000187038 -3.46369e-07 0)
(0.000188919 -2.38735e-07 0)
(0.000190595 -1.46548e-07 0)
(0.000192084 -6.8632e-08 0)
(0.000193403 -3.79289e-09 0)
(0.000194568 4.91627e-08 0)
(0.000195597 9.14079e-08 0)
(0.000196504 1.24079e-07 0)
(0.000197303 1.48261e-07 0)
(0.000198008 1.64982e-07 0)
(0.00019863 1.75201e-07 0)
(0.00019918 1.79813e-07 0)
(0.000199669 1.79641e-07 0)
(0.000200105 1.75439e-07 0)
(0.000200498 1.6789e-07 0)
(0.000200855 1.57611e-07 0)
(0.000201182 1.45159e-07 0)
(0.000201485 1.31028e-07 0)
(0.00020177 1.15663e-07 0)
(0.00020204 9.94537e-08 0)
(0.000202301 8.27469e-08 0)
(0.000202555 6.58433e-08 0)
(0.000202805 4.90009e-08 0)
(0.000203054 3.2436e-08 0)
(0.000203303 1.63258e-08 0)
(0.000203554 8.12054e-10 0)
(0.000203809 -1.39992e-08 0)
(0.000204068 -2.80353e-08 0)
(0.000204331 -4.12496e-08 0)
(0.0002046 -5.35964e-08 0)
(0.000204874 -6.50288e-08 0)
(0.000205154 -7.5513e-08 0)
(0.000205439 -8.5034e-08 0)
(0.000205729 -9.35899e-08 0)
(0.000206024 -1.01194e-07 0)
(0.000206324 -1.07868e-07 0)
(0.000206628 -1.13646e-07 0)
(0.000206935 -1.18564e-07 0)
(0.000207245 -1.22666e-07 0)
(0.000207558 -1.25995e-07 0)
(0.000207873 -1.28595e-07 0)
(0.000208189 -1.30511e-07 0)
(0.000208506 -1.31782e-07 0)
(0.000208823 -1.32456e-07 0)
(0.000209139 -1.32563e-07 0)
(0.000209454 -1.32167e-07 0)
(0.000209766 -1.31291e-07 0)
(0.000210076 -1.30045e-07 0)
(0.000210383 -1.28423e-07 0)
(0.000210686 -1.26608e-07 0)
(0.000210984 -1.24512e-07 0)
(0.000211278 -1.22451e-07 0)
(0.000211565 -1.20162e-07 0)
(0.000211848 -1.18218e-07 0)
(0.000212124 -1.16019e-07 0)
(0.000212396 -1.14619e-07 0)
(0.000212659 -1.12778e-07 0)
(0.000212919 -1.12459e-07 0)
(0.00021317 -1.11194e-07 0)
(0.000213422 -1.12714e-07 0)
(0.000213659 -1.12075e-07 0)
(0.000213908 -1.16661e-07 0)
(0.000214128 -1.16101e-07 0)
(0.000214389 -1.26117e-07 0)
(0.000214575 -1.23161e-07 0)
(0.000214915 -1.43061e-07 0)
(0.000303879 -3.89722e-05 0)
(0.000317218 -3.78748e-05 0)
(0.00033021 -3.66544e-05 0)
(0.000342822 -3.53297e-05 0)
(0.000355026 -3.39193e-05 0)
(0.000366801 -3.2441e-05 0)
(0.000378129 -3.09121e-05 0)
(0.000388999 -2.93487e-05 0)
(0.0003994 -2.77656e-05 0)
(0.000409329 -2.61769e-05 0)
(0.000418784 -2.4595e-05 0)
(0.000427766 -2.30312e-05 0)
(0.00043628 -2.14955e-05 0)
(0.000444333 -1.99967e-05 0)
(0.000451935 -1.85423e-05 0)
(0.000459095 -1.71388e-05 0)
(0.000465826 -1.57915e-05 0)
(0.000472143 -1.45048e-05 0)
(0.000478061 -1.32818e-05 0)
(0.000483595 -1.21251e-05 0)
(0.000488763 -1.10361e-05 0)
(0.000493581 -1.00157e-05 0)
(0.000498067 -9.06389e-06 0)
(0.000502239 -8.18022e-06 0)
(0.000506116 -7.36366e-06 0)
(0.000509714 -6.61269e-06 0)
(0.000513052 -5.92535e-06 0)
(0.000516148 -5.29935e-06 0)
(0.000519018 -4.73211e-06 0)
(0.000521679 -4.22081e-06 0)
(0.000524147 -3.76246e-06 0)
(0.000526439 -3.35391e-06 0)
(0.000528569 -2.99194e-06 0)
(0.000530551 -2.67329e-06 0)
(0.000532399 -2.39467e-06 0)
(0.000534126 -2.15286e-06 0)
(0.000535744 -1.9447e-06 0)
(0.000537265 -1.76713e-06 0)
(0.000538698 -1.6172e-06 0)
(0.000540053 -1.49212e-06 0)
(0.000541341 -1.38921e-06 0)
(0.000542568 -1.30598e-06 0)
(0.000543742 -1.24008e-06 0)
(0.00054487 -1.18932e-06 0)
(0.000545959 -1.15168e-06 0)
(0.000547013 -1.12528e-06 0)
(0.000548038 -1.10843e-06 0)
(0.000549037 -1.09955e-06 0)
(0.000550014 -1.09718e-06 0)
(0.000550973 -1.09994e-06 0)
(0.000551915 -1.10653e-06 0)
(0.000552843 -1.11589e-06 0)
(0.000553759 -1.12715e-06 0)
(0.000554665 -1.13967e-06 0)
(0.000555561 -1.15287e-06 0)
(0.00055645 -1.16629e-06 0)
(0.00055733 -1.17951e-06 0)
(0.000558204 -1.19217e-06 0)
(0.000559072 -1.20397e-06 0)
(0.000559932 -1.21462e-06 0)
(0.000560787 -1.22391e-06 0)
(0.000561634 -1.23164e-06 0)
(0.000562476 -1.23763e-06 0)
(0.00056331 -1.24175e-06 0)
(0.000564137 -1.24388e-06 0)
(0.000564956 -1.24387e-06 0)
(0.000565767 -1.24172e-06 0)
(0.00056657 -1.23721e-06 0)
(0.000567364 -1.23053e-06 0)
(0.000568147 -1.22133e-06 0)
(0.000568922 -1.21007e-06 0)
(0.000569684 -1.19624e-06 0)
(0.000570437 -1.18066e-06 0)
(0.000571175 -1.16258e-06 0)
(0.000571906 -1.14333e-06 0)
(0.000572617 -1.12175e-06 0)
(0.000573327 -1.09985e-06 0)
(0.000574006 -1.07589e-06 0)
(0.000574699 -1.0528e-06 0)
(0.000575342 -1.0278e-06 0)
(0.000576023 -1.00545e-06 0)
(0.000576622 -9.80799e-07 0)
(0.000577306 -9.61611e-07 0)
(0.000577844 -9.38613e-07 0)
(0.000578557 -9.25443e-07 0)
(0.000579003 -9.05641e-07 0)
(0.000579797 -9.01148e-07 0)
(0.000580087 -8.87688e-07 0)
(0.000581062 -8.92627e-07 0)
(0.000603042 -6.61611e-05 0)
(0.000612765 -6.44078e-05 0)
(0.000622198 -6.24746e-05 0)
(0.000631324 -6.03908e-05 0)
(0.000640132 -5.81842e-05 0)
(0.000648613 -5.58815e-05 0)
(0.000656761 -5.35077e-05 0)
(0.000664574 -5.1086e-05 0)
(0.00067205 -4.8638e-05 0)
(0.000679189 -4.61832e-05 0)
(0.000685994 -4.37391e-05 0)
(0.000692471 -4.13216e-05 0)
(0.000698625 -3.89446e-05 0)
(0.000704462 -3.66204e-05 0)
(0.000709992 -3.43593e-05 0)
(0.000715223 -3.21702e-05 0)
(0.000720165 -3.00602e-05 0)
(0.000724828 -2.80352e-05 0)
(0.000729223 -2.60996e-05 0)
(0.000733361 -2.42568e-05 0)
(0.000737254 -2.25093e-05 0)
(0.000740913 -2.08584e-05 0)
(0.000744351 -1.93046e-05 0)
(0.000747577 -1.78475e-05 0)
(0.000750605 -1.64861e-05 0)
(0.000753445 -1.52188e-05 0)
(0.000756109 -1.40433e-05 0)
(0.000758607 -1.29572e-05 0)
(0.000760952 -1.19574e-05 0)
(0.000763153 -1.10406e-05 0)
(0.000765222 -1.02032e-05 0)
(0.000767167 -9.44147e-06 0)
(0.000768998 -8.75141e-06 0)
(0.000770726 -8.12902e-06 0)
(0.000772359 -7.57015e-06 0)
(0.000773905 -7.07065e-06 0)
(0.000775374 -6.62633e-06 0)
(0.000776771 -6.2331e-06 0)
(0.000778106 -5.88692e-06 0)
(0.000779384 -5.58387e-06 0)
(0.000780613 -5.3201e-06 0)
(0.000781798 -5.09193e-06 0)
(0.000782946 -4.8958e-06 0)
(0.000784061 -4.72834e-06 0)
(0.000785148 -4.58631e-06 0)
(0.000786212 -4.46668e-06 0)
(0.000787257 -4.36656e-06 0)
(0.000788287 -4.28328e-06 0)
(0.000789305 -4.21432e-06 0)
(0.000790314 -4.15737e-06 0)
(0.000791318 -4.11032e-06 0)
(0.000792319 -4.07127e-06 0)
(0.000793318 -4.03848e-06 0)
(0.000794317 -4.01045e-06 0)
(0.000795317 -3.98582e-06 0)
(0.000796321 -3.96348e-06 0)
(0.000797327 -3.94237e-06 0)
(0.000798338 -3.92173e-06 0)
(0.000799353 -3.90072e-06 0)
(0.000800373 -3.87889e-06 0)
(0.000801397 -3.85556e-06 0)
(0.000802425 -3.83051e-06 0)
(0.000803457 -3.80312e-06 0)
(0.000804491 -3.77341e-06 0)
(0.00080553 -3.74074e-06 0)
(0.000806566 -3.70543e-06 0)
(0.000807607 -3.66672e-06 0)
(0.00080864 -3.62544e-06 0)
(0.000809679 -3.58057e-06 0)
(0.000810701 -3.53358e-06 0)
(0.000811734 -3.48303e-06 0)
(0.000812737 -3.43119e-06 0)
(0.000813759 -3.37597e-06 0)
(0.000814734 -3.32054e-06 0)
(0.000815745 -3.26208e-06 0)
(0.000816682 -3.2046e-06 0)
(0.000817682 -3.14465e-06 0)
(0.00081857 -3.08681e-06 0)
(0.000819568 -3.02741e-06 0)
(0.000820395 -2.97108e-06 0)
(0.000821405 -2.91456e-06 0)
(0.000822154 -2.86189e-06 0)
(0.0008232 -2.81063e-06 0)
(0.000823849 -2.76418e-06 0)
(0.00082497 -2.72019e-06 0)
(0.00082548 -2.68327e-06 0)
(0.000826736 -2.6472e-06 0)
(0.000827045 -2.62472e-06 0)
(0.000828536 -2.59457e-06 0)
(0.000898428 -8.26534e-05 0)
(0.000902467 -8.03599e-05 0)
(0.000906334 -7.78595e-05 0)
(0.000910023 -7.51876e-05 0)
(0.000913534 -7.23775e-05 0)
(0.000916865 -6.9461e-05 0)
(0.000920016 -6.64679e-05 0)
(0.000922989 -6.34259e-05 0)
(0.000925786 -6.03605e-05 0)
(0.000928409 -5.72947e-05 0)
(0.000930861 -5.42493e-05 0)
(0.000933148 -5.12428e-05 0)
(0.000935272 -4.82913e-05 0)
(0.000937239 -4.54089e-05 0)
(0.000939054 -4.26075e-05 0)
(0.000940722 -3.98975e-05 0)
(0.00094225 -3.72873e-05 0)
(0.000943644 -3.47839e-05 0)
(0.000944909 -3.23925e-05 0)
(0.000946051 -3.01166e-05 0)
(0.000947077 -2.79588e-05 0)
(0.000947993 -2.59203e-05 0)
(0.000948805 -2.40016e-05 0)
(0.00094952 -2.22022e-05 0)
(0.000950143 -2.05209e-05 0)
(0.000950682 -1.89556e-05 0)
(0.000951141 -1.75036e-05 0)
(0.000951528 -1.61619e-05 0)
(0.000951848 -1.49268e-05 0)
(0.000952107 -1.37944e-05 0)
(0.00095231 -1.27603e-05 0)
(0.000952464 -1.182e-05 0)
(0.000952573 -1.09686e-05 0)
(0.000952643 -1.02014e-05 0)
(0.000952679 -9.51344e-06 0)
(0.000952686 -8.89965e-06 0)
(0.000952668 -8.3551e-06 0)
(0.000952631 -7.87491e-06 0)
(0.000952577 -7.45425e-06 0)
(0.000952511 -7.08843e-06 0)
(0.000952438 -6.7729e-06 0)
(0.00095236 -6.50331e-06 0)
(0.000952281 -6.27548e-06 0)
(0.000952205 -6.08544e-06 0)
(0.000952133 -5.92939e-06 0)
(0.00095207 -5.80374e-06 0)
(0.000952018 -5.70503e-06 0)
(0.000951979 -5.63008e-06 0)
(0.000951955 -5.57575e-06 0)
(0.00095195 -5.53931e-06 0)
(0.000951964 -5.51799e-06 0)
(0.000951999 -5.50958e-06 0)
(0.000952058 -5.51167e-06 0)
(0.00095214 -5.5225e-06 0)
(0.000952249 -5.53987e-06 0)
(0.000952383 -5.56256e-06 0)
(0.000952545 -5.58846e-06 0)
(0.000952735 -5.61697e-06 0)
(0.000952956 -5.64581e-06 0)
(0.000953203 -5.6751e-06 0)
(0.000953485 -5.70211e-06 0)
(0.000953792 -5.72777e-06 0)
(0.000954136 -5.74862e-06 0)
(0.000954502 -5.7666e-06 0)
(0.000954909 -5.77718e-06 0)
(0.000955331 -5.78359e-06 0)
(0.0009558 -5.78005e-06 0)
(0.000956273 -5.77133e-06 0)
(0.0009568 -5.7505e-06 0)
(0.000957315 -5.72392e-06 0)
(0.000957895 -5.68407e-06 0)
(0.000958439 -5.63855e-06 0)
(0.000959066 -5.58027e-06 0)
(0.000959625 -5.5169e-06 0)
(0.000960291 -5.44345e-06 0)
(0.00096085 -5.36554e-06 0)
(0.000961551 -5.28261e-06 0)
(0.000962093 -5.19528e-06 0)
(0.000962827 -5.11017e-06 0)
(0.000963334 -5.01971e-06 0)
(0.000964104 -4.94027e-06 0)
(0.00096456 -4.85342e-06 0)
(0.000965375 -4.78658e-06 0)
(0.000965762 -4.71002e-06 0)
(0.000966643 -4.66042e-06 0)
(0.000966939 -4.60083e-06 0)
(0.000967924 -4.56961e-06 0)
(0.000968096 -4.53453e-06 0)
(0.000969244 -4.51829e-06 0)
(0.0011149 -8.44139e-05 0)
(0.00111335 -8.19844e-05 0)
(0.00111181 -7.93424e-05 0)
(0.00111029 -7.65246e-05 0)
(0.00110878 -7.35659e-05 0)
(0.00110729 -7.04994e-05 0)
(0.00110583 -6.73558e-05 0)
(0.00110439 -6.41637e-05 0)
(0.00110297 -6.09493e-05 0)
(0.00110157 -5.77361e-05 0)
(0.0011002 -5.45454e-05 0)
(0.00109884 -5.13962e-05 0)
(0.00109751 -4.83053e-05 0)
(0.00109619 -4.5287e-05 0)
(0.00109489 -4.23536e-05 0)
(0.0010936 -3.9515e-05 0)
(0.00109232 -3.67798e-05 0)
(0.00109105 -3.4155e-05 0)
(0.00108979 -3.16464e-05 0)
(0.00108854 -2.92585e-05 0)
(0.00108729 -2.6994e-05 0)
(0.00108604 -2.48545e-05 0)
(0.00108479 -2.28401e-05 0)
(0.00108355 -2.09504e-05 0)
(0.0010823 -1.91845e-05 0)
(0.00108105 -1.75407e-05 0)
(0.0010798 -1.60165e-05 0)
(0.00107855 -1.4609e-05 0)
(0.0010773 -1.33147e-05 0)
(0.00107604 -1.213e-05 0)
(0.00107479 -1.10507e-05 0)
(0.00107354 -1.00726e-05 0)
(0.00107228 -9.1908e-06 0)
(0.00107103 -8.40027e-06 0)
(0.00106979 -7.69568e-06 0)
(0.00106855 -7.07187e-06 0)
(0.00106731 -6.52389e-06 0)
(0.00106609 -6.04686e-06 0)
(0.00106487 -5.63583e-06 0)
(0.00106367 -5.28591e-06 0)
(0.00106248 -4.99209e-06 0)
(0.00106131 -4.74981e-06 0)
(0.00106015 -4.5546e-06 0)
(0.00105901 -4.40225e-06 0)
(0.0010579 -4.28857e-06 0)
(0.0010568 -4.20979e-06 0)
(0.00105574 -4.16204e-06 0)
(0.00105469 -4.14204e-06 0)
(0.00105368 -4.14615e-06 0)
(0.00105269 -4.17162e-06 0)
(0.00105174 -4.21498e-06 0)
(0.00105082 -4.2741e-06 0)
(0.00104993 -4.34562e-06 0)
(0.00104908 -4.4284e-06 0)
(0.00104827 -4.5191e-06 0)
(0.00104749 -4.61759e-06 0)
(0.00104675 -4.7202e-06 0)
(0.00104604 -4.82809e-06 0)
(0.00104538 -4.93681e-06 0)
(0.00104476 -5.04879e-06 0)
(0.00104418 -5.15835e-06 0)
(0.00104364 -5.26927e-06 0)
(0.00104316 -5.37442e-06 0)
(0.00104271 -5.47885e-06 0)
(0.00104232 -5.57424e-06 0)
(0.00104195 -5.66631e-06 0)
(0.00104166 -5.74639e-06 0)
(0.00104137 -5.81969e-06 0)
(0.00104117 -5.87914e-06 0)
(0.00104096 -5.92757e-06 0)
(0.00104084 -5.96272e-06 0)
(0.00104069 -5.98208e-06 0)
(0.00104064 -5.99218e-06 0)
(0.00104054 -5.98106e-06 0)
(0.00104056 -5.96846e-06 0)
(0.00104049 -5.928e-06 0)
(0.00104057 -5.89729e-06 0)
(0.00104053 -5.8306e-06 0)
(0.00104065 -5.78823e-06 0)
(0.00104062 -5.70095e-06 0)
(0.00104079 -5.65593e-06 0)
(0.00104077 -5.55739e-06 0)
(0.00104098 -5.52142e-06 0)
(0.00104096 -5.42459e-06 0)
(0.0010412 -5.40996e-06 0)
(0.00104118 -5.32974e-06 0)
(0.00104146 -5.34481e-06 0)
(0.00104145 -5.29643e-06 0)
(0.00104178 -5.34059e-06 0)
(0.00121901 -7.56367e-05 0)
(0.00121427 -7.3396e-05 0)
(0.00120968 -7.0963e-05 0)
(0.00120526 -6.837e-05 0)
(0.00120099 -6.56483e-05 0)
(0.00119689 -6.28271e-05 0)
(0.00119295 -5.99341e-05 0)
(0.00118917 -5.69945e-05 0)
(0.00118555 -5.40316e-05 0)
(0.00118207 -5.10663e-05 0)
(0.00117875 -4.81178e-05 0)
(0.00117556 -4.52027e-05 0)
(0.00117251 -4.23361e-05 0)
(0.00116958 -3.95314e-05 0)
(0.00116677 -3.68004e-05 0)
(0.00116407 -3.4153e-05 0)
(0.00116147 -3.15977e-05 0)
(0.00115897 -2.91406e-05 0)
(0.00115655 -2.67865e-05 0)
(0.00115421 -2.45395e-05 0)
(0.00115194 -2.24034e-05 0)
(0.00114974 -2.03809e-05 0)
(0.00114759 -1.84735e-05 0)
(0.0011455 -1.66814e-05 0)
(0.00114346 -1.5004e-05 0)
(0.00114146 -1.34403e-05 0)
(0.0011395 -1.19886e-05 0)
(0.00113758 -1.06469e-05 0)
(0.00113568 -9.41214e-06 0)
(0.00113381 -8.28112e-06 0)
(0.00113197 -7.25073e-06 0)
(0.00113015 -6.31725e-06 0)
(0.00112835 -5.47784e-06 0)
(0.00112657 -4.72831e-06 0)
(0.00112481 -4.06366e-06 0)
(0.00112307 -3.47918e-06 0)
(0.00112135 -2.97038e-06 0)
(0.00111964 -2.53286e-06 0)
(0.00111795 -2.16215e-06 0)
(0.00111627 -1.8538e-06 0)
(0.00111462 -1.60348e-06 0)
(0.00111298 -1.40684e-06 0)
(0.00111136 -1.25948e-06 0)
(0.00110975 -1.15756e-06 0)
(0.00110817 -1.09702e-06 0)
(0.00110661 -1.07451e-06 0)
(0.00110508 -1.08618e-06 0)
(0.00110356 -1.12922e-06 0)
(0.00110207 -1.19973e-06 0)
(0.00110061 -1.29527e-06 0)
(0.00109918 -1.41159e-06 0)
(0.00109777 -1.54698e-06 0)
(0.0010964 -1.69684e-06 0)
(0.00109506 -1.86072e-06 0)
(0.00109375 -2.03383e-06 0)
(0.00109247 -2.21792e-06 0)
(0.00109124 -2.40789e-06 0)
(0.00109003 -2.60764e-06 0)
(0.00108887 -2.811e-06 0)
(0.00108774 -3.02325e-06 0)
(0.00108666 -3.23641e-06 0)
(0.00108561 -3.45602e-06 0)
(0.00108463 -3.67235e-06 0)
(0.00108368 -3.88993e-06 0)
(0.0010828 -4.0989e-06 0)
(0.00108194 -4.30144e-06 0)
(0.00108118 -4.49163e-06 0)
(0.00108042 -4.66621e-06 0)
(0.00107977 -4.82694e-06 0)
(0.0010791 -4.96142e-06 0)
(0.00107855 -5.08517e-06 0)
(0.00107797 -5.17199e-06 0)
(0.0010775 -5.25726e-06 0)
(0.00107698 -5.29534e-06 0)
(0.00107658 -5.34726e-06 0)
(0.0010761 -5.34132e-06 0)
(0.00107576 -5.36972e-06 0)
(0.00107532 -5.32736e-06 0)
(0.00107502 -5.34374e-06 0)
(0.00107461 -5.27312e-06 0)
(0.00107436 -5.28934e-06 0)
(0.00107399 -5.1996e-06 0)
(0.00107377 -5.22857e-06 0)
(0.00107344 -5.13214e-06 0)
(0.00107325 -5.18768e-06 0)
(0.001073 -5.10155e-06 0)
(0.00107282 -5.19499e-06 0)
(0.00107267 -5.14021e-06 0)
(0.00107248 -5.27474e-06 0)
(0.00125811 -6.29885e-05 0)
(0.00125306 -6.11563e-05 0)
(0.00124818 -5.91504e-05 0)
(0.00124348 -5.6997e-05 0)
(0.00123896 -5.47215e-05 0)
(0.00123462 -5.2348e-05 0)
(0.00123046 -4.98992e-05 0)
(0.00122646 -4.73962e-05 0)
(0.00122263 -4.48587e-05 0)
(0.00121895 -4.23051e-05 0)
(0.00121542 -3.97518e-05 0)
(0.00121203 -3.72142e-05 0)
(0.00120877 -3.47057e-05 0)
(0.00120563 -3.22381e-05 0)
(0.00120261 -2.98226e-05 0)
(0.00119969 -2.74688e-05 0)
(0.00119686 -2.5186e-05 0)
(0.00119413 -2.29826e-05 0)
(0.00119149 -2.08638e-05 0)
(0.00118891 -1.88332e-05 0)
(0.0011864 -1.68943e-05 0)
(0.00118395 -1.505e-05 0)
(0.00118156 -1.33025e-05 0)
(0.00117921 -1.16554e-05 0)
(0.00117691 -1.01107e-05 0)
(0.00117464 -8.66674e-06 0)
(0.00117241 -7.32358e-06 0)
(0.00117022 -6.08032e-06 0)
(0.00116805 -4.93517e-06 0)
(0.00116591 -3.88523e-06 0)
(0.00116379 -2.92773e-06 0)
(0.00116169 -2.06026e-06 0)
(0.00115961 -1.27889e-06 0)
(0.00115754 -5.806e-07 0)
(0.0011555 3.71687e-08 0)
(0.00115347 5.77537e-07 0)
(0.00115145 1.04431e-06 0)
(0.00114945 1.44142e-06 0)
(0.00114746 1.77285e-06 0)
(0.00114548 2.04238e-06 0)
(0.00114352 2.2538e-06 0)
(0.00114157 2.41094e-06 0)
(0.00113964 2.51805e-06 0)
(0.00113772 2.57876e-06 0)
(0.00113581 2.59719e-06 0)
(0.00113392 2.57627e-06 0)
(0.00113205 2.5198e-06 0)
(0.0011302 2.42989e-06 0)
(0.00112837 2.31043e-06 0)
(0.00112655 2.16283e-06 0)
(0.00112476 1.99178e-06 0)
(0.00112299 1.798e-06 0)
(0.00112125 1.5874e-06 0)
(0.00111953 1.35948e-06 0)
(0.00111784 1.12112e-06 0)
(0.00111617 8.69041e-07 0)
(0.00111454 6.10473e-07 0)
(0.00111293 3.3886e-07 0)
(0.00111136 6.18577e-08 0)
(0.00110981 -2.29408e-07 0)
(0.00110831 -5.26116e-07 0)
(0.00110683 -8.36769e-07 0)
(0.0011054 -1.15137e-06 0)
(0.00110399 -1.47467e-06 0)
(0.00110266 -1.7978e-06 0)
(0.00110133 -2.1178e-06 0)
(0.0011001 -2.43141e-06 0)
(0.00109887 -2.7245e-06 0)
(0.00109775 -3.00754e-06 0)
(0.00109662 -3.25053e-06 0)
(0.00109561 -3.48553e-06 0)
(0.00109457 -3.66157e-06 0)
(0.00109367 -3.84056e-06 0)
(0.00109271 -3.94423e-06 0)
(0.00109189 -4.07192e-06 0)
(0.00109099 -4.1096e-06 0)
(0.00109024 -4.20185e-06 0)
(0.00108939 -4.18717e-06 0)
(0.0010887 -4.26556e-06 0)
(0.00108789 -4.21403e-06 0)
(0.00108725 -4.30274e-06 0)
(0.0010865 -4.22901e-06 0)
(0.0010859 -4.3507e-06 0)
(0.00108524 -4.26839e-06 0)
(0.00108467 -4.44341e-06 0)
(0.00108415 -4.36789e-06 0)
(0.00108358 -4.61167e-06 0)
(0.00108327 -4.56208e-06 0)
(0.00108264 -4.88075e-06 0)
(0.00130365 -5.28997e-05 0)
(0.00129943 -5.13899e-05 0)
(0.00129531 -4.97104e-05 0)
(0.00129131 -4.78831e-05 0)
(0.00128741 -4.59296e-05 0)
(0.00128362 -4.38702e-05 0)
(0.00127992 -4.1725e-05 0)
(0.00127633 -3.95129e-05 0)
(0.00127283 -3.72516e-05 0)
(0.00126942 -3.49586e-05 0)
(0.00126609 -3.265e-05 0)
(0.00126283 -3.034e-05 0)
(0.00125966 -2.80436e-05 0)
(0.00125655 -2.57734e-05 0)
(0.0012535 -2.35391e-05 0)
(0.0012505 -2.13513e-05 0)
(0.00124755 -1.92172e-05 0)
(0.00124465 -1.7144e-05 0)
(0.00124179 -1.5142e-05 0)
(0.00123897 -1.32187e-05 0)
(0.00123619 -1.13817e-05 0)
(0.00123344 -9.63206e-06 0)
(0.00123071 -7.9668e-06 0)
(0.00122801 -6.39041e-06 0)
(0.00122532 -4.9075e-06 0)
(0.00122265 -3.52003e-06 0)
(0.00122 -2.22624e-06 0)
(0.00121737 -1.02509e-06 0)
(0.00121476 8.29121e-08 0)
(0.00121216 1.0987e-06 0)
(0.00120957 2.02444e-06 0)
(0.001207 2.86246e-06 0)
(0.00120444 3.6164e-06 0)
(0.00120189 4.28875e-06 0)
(0.00119935 4.88152e-06 0)
(0.00119682 5.39735e-06 0)
(0.0011943 5.83969e-06 0)
(0.00119179 6.21214e-06 0)
(0.00118929 6.51849e-06 0)
(0.0011868 6.76217e-06 0)
(0.00118433 6.94716e-06 0)
(0.00118187 7.07677e-06 0)
(0.00117942 7.15501e-06 0)
(0.00117698 7.18511e-06 0)
(0.00117456 7.17129e-06 0)
(0.00117215 7.1162e-06 0)
(0.00116975 7.02415e-06 0)
(0.00116738 6.89684e-06 0)
(0.00116501 6.73881e-06 0)
(0.00116267 6.55034e-06 0)
(0.00116034 6.33678e-06 0)
(0.00115803 6.09706e-06 0)
(0.00115575 5.83827e-06 0)
(0.00115348 5.5577e-06 0)
(0.00115123 5.26463e-06 0)
(0.00114901 4.95403e-06 0)
(0.00114681 4.63675e-06 0)
(0.00114463 4.3041e-06 0)
(0.00114249 3.96726e-06 0)
(0.00114036 3.61406e-06 0)
(0.00113827 3.2554e-06 0)
(0.00113618 2.87876e-06 0)
(0.00113415 2.49425e-06 0)
(0.00113211 2.09453e-06 0)
(0.00113013 1.68652e-06 0)
(0.00112815 1.27501e-06 0)
(0.00112624 8.58974e-07 0)
(0.00112432 4.61267e-07 0)
(0.00112249 6.28878e-08 0)
(0.00112065 -2.89221e-07 0)
(0.00111892 -6.42793e-07 0)
(0.00111716 -9.20706e-07 0)
(0.00111554 -1.21119e-06 0)
(0.00111387 -1.39937e-06 0)
(0.00111235 -1.62598e-06 0)
(0.00111077 -1.72698e-06 0)
(0.00110935 -1.90888e-06 0)
(0.00110786 -1.94023e-06 0)
(0.00110651 -2.11112e-06 0)
(0.00110512 -2.09567e-06 0)
(0.00110383 -2.29367e-06 0)
(0.00110256 -2.25175e-06 0)
(0.00110131 -2.51425e-06 0)
(0.00110021 -2.46172e-06 0)
(0.00109897 -2.82046e-06 0)
(0.0010981 -2.77014e-06 0)
(0.00109681 -3.24771e-06 0)
(0.0010963 -3.21338e-06 0)
(0.00109487 -3.81932e-06 0)
(0.00137548 -4.44359e-05 0)
(0.00137152 -4.3095e-05 0)
(0.00136759 -4.15827e-05 0)
(0.00136372 -3.99187e-05 0)
(0.00135989 -3.81224e-05 0)
(0.00135612 -3.62134e-05 0)
(0.00135239 -3.42101e-05 0)
(0.00134872 -3.2131e-05 0)
(0.00134509 -2.9994e-05 0)
(0.00134151 -2.78151e-05 0)
(0.00133797 -2.56106e-05 0)
(0.00133447 -2.3396e-05 0)
(0.00133101 -2.11832e-05 0)
(0.00132759 -1.89869e-05 0)
(0.0013242 -1.68198e-05 0)
(0.00132086 -1.46911e-05 0)
(0.00131754 -1.26162e-05 0)
(0.00131426 -1.0597e-05 0)
(0.00131099 -8.63128e-06 0)
(0.00130774 -6.73536e-06 0)
(0.0013045 -4.91861e-06 0)
(0.00130131 -3.18545e-06 0)
(0.00129815 -1.54412e-06 0)
(0.00129499 5.35372e-09 0)
(0.00129184 1.46553e-06 0)
(0.00128871 2.83412e-06 0)
(0.0012856 4.11043e-06 0)
(0.00128251 5.29439e-06 0)
(0.00127942 6.38646e-06 0)
(0.00127635 7.38724e-06 0)
(0.00127329 8.29789e-06 0)
(0.00127025 9.12079e-06 0)
(0.00126722 9.85757e-06 0)
(0.00126419 1.05108e-05 0)
(0.00126118 1.10837e-05 0)
(0.00125818 1.15797e-05 0)
(0.00125519 1.20021e-05 0)
(0.00125221 1.23541e-05 0)
(0.00124924 1.26395e-05 0)
(0.00124629 1.28615e-05 0)
(0.00124334 1.30241e-05 0)
(0.00124041 1.31304e-05 0)
(0.00123749 1.31844e-05 0)
(0.00123458 1.31888e-05 0)
(0.00123168 1.31477e-05 0)
(0.00122879 1.30634e-05 0)
(0.00122592 1.29406e-05 0)
(0.00122305 1.27803e-05 0)
(0.00122021 1.25882e-05 0)
(0.00121737 1.23639e-05 0)
(0.00121455 1.21142e-05 0)
(0.00121174 1.18364e-05 0)
(0.00120894 1.15393e-05 0)
(0.00120616 1.12172e-05 0)
(0.00120339 1.08814e-05 0)
(0.00120063 1.05234e-05 0)
(0.00119789 1.01573e-05 0)
(0.00119517 9.77177e-06 0)
(0.00119246 9.3829e-06 0)
(0.00118977 8.97709e-06 0)
(0.0011871 8.56958e-06 0)
(0.00118444 8.14671e-06 0)
(0.0011818 7.71953e-06 0)
(0.00117916 7.27998e-06 0)
(0.00117655 6.83102e-06 0)
(0.00117393 6.37855e-06 0)
(0.00117134 5.91067e-06 0)
(0.00116874 5.45761e-06 0)
(0.00116619 4.98464e-06 0)
(0.00116362 4.55595e-06 0)
(0.00116111 4.10131e-06 0)
(0.00115859 3.72789e-06 0)
(0.00115615 3.31465e-06 0)
(0.00115371 3.02201e-06 0)
(0.00115134 2.66005e-06 0)
(0.001149 2.45812e-06 0)
(0.00114672 2.13529e-06 0)
(0.00114452 2.01509e-06 0)
(0.00114231 1.69637e-06 0)
(0.00114027 1.63645e-06 0)
(0.00113813 1.27454e-06 0)
(0.00113629 1.25258e-06 0)
(0.00113418 7.9765e-07 0)
(0.00113261 7.96843e-07 0)
(0.00113046 2.0525e-07 0)
(0.00112927 2.14665e-07 0)
(0.00112699 -5.45867e-07 0)
(0.0011263 -5.35484e-07 0)
(0.00112375 -1.48101e-06 0)
(0.00143257 -3.56757e-05 0)
(0.00142822 -3.44044e-05 0)
(0.00142391 -3.29658e-05 0)
(0.00141964 -3.13785e-05 0)
(0.00141541 -2.96609e-05 0)
(0.00141124 -2.78313e-05 0)
(0.00140713 -2.59084e-05 0)
(0.00140306 -2.39096e-05 0)
(0.00139906 -2.18514e-05 0)
(0.00139512 -1.97517e-05 0)
(0.00139123 -1.76242e-05 0)
(0.0013874 -1.54824e-05 0)
(0.00138364 -1.33441e-05 0)
(0.00137993 -1.12158e-05 0)
(0.00137628 -9.10476e-06 0)
(0.00137268 -7.03015e-06 0)
(0.00136913 -5.00171e-06 0)
(0.00136566 -3.03237e-06 0)
(0.00136225 -1.13376e-06 0)
(0.00135887 6.92964e-07 0)
(0.00135553 2.44888e-06 0)
(0.00135222 4.12678e-06 0)
(0.00134895 5.71573e-06 0)
(0.00134573 7.21583e-06 0)
(0.00134256 8.62899e-06 0)
(0.00133942 9.95467e-06 0)
(0.00133632 1.11894e-05 0)
(0.00133325 1.23325e-05 0)
(0.0013302 1.33856e-05 0)
(0.00132719 1.435e-05 0)
(0.00132421 1.52269e-05 0)
(0.00132125 1.60178e-05 0)
(0.00131831 1.67247e-05 0)
(0.00131539 1.73504e-05 0)
(0.0013125 1.78979e-05 0)
(0.00130962 1.83703e-05 0)
(0.00130676 1.87706e-05 0)
(0.00130391 1.9102e-05 0)
(0.00130108 1.93679e-05 0)
(0.00129826 1.95713e-05 0)
(0.00129545 1.9716e-05 0)
(0.00129265 1.98049e-05 0)
(0.00128986 1.98421e-05 0)
(0.00128707 1.98298e-05 0)
(0.0012843 1.97727e-05 0)
(0.00128153 1.96723e-05 0)
(0.00127876 1.9534e-05 0)
(0.001276 1.93577e-05 0)
(0.00127325 1.91502e-05 0)
(0.0012705 1.89094e-05 0)
(0.00126774 1.8644e-05 0)
(0.001265 1.83491e-05 0)
(0.00126225 1.80359e-05 0)
(0.00125951 1.76965e-05 0)
(0.00125676 1.73446e-05 0)
(0.00125402 1.6969e-05 0)
(0.00125127 1.65859e-05 0)
(0.00124853 1.61816e-05 0)
(0.00124579 1.57735e-05 0)
(0.00124305 1.53472e-05 0)
(0.00124029 1.49187e-05 0)
(0.00123755 1.44768e-05 0)
(0.0012348 1.40312e-05 0)
(0.00123205 1.35795e-05 0)
(0.00122929 1.31181e-05 0)
(0.00122654 1.26622e-05 0)
(0.00122376 1.21865e-05 0)
(0.001221 1.17342e-05 0)
(0.0012182 1.12485e-05 0)
(0.00121543 1.0813e-05 0)
(0.00121261 1.03259e-05 0)
(0.00120984 9.92457e-06 0)
(0.00120702 9.44565e-06 0)
(0.00120429 9.09643e-06 0)
(0.00120147 8.62928e-06 0)
(0.00119882 8.34356e-06 0)
(0.00119602 7.87738e-06 0)
(0.0011935 7.65474e-06 0)
(0.00119073 7.16082e-06 0)
(0.0011884 6.98933e-06 0)
(0.00118564 6.4237e-06 0)
(0.00118356 6.28699e-06 0)
(0.00118078 5.60308e-06 0)
(0.00117902 5.4913e-06 0)
(0.00117615 4.65063e-06 0)
(0.00117483 4.56496e-06 0)
(0.00117175 3.54131e-06 0)
(0.001171 3.49193e-06 0)
(0.00116753 2.26867e-06 0)
(0.00142052 -2.56546e-05 0)
(0.0014159 -2.44608e-05 0)
(0.00141133 -2.31164e-05 0)
(0.00140684 -2.16389e-05 0)
(0.00140243 -2.00448e-05 0)
(0.00139811 -1.83502e-05 0)
(0.00139387 -1.65715e-05 0)
(0.00138974 -1.47238e-05 0)
(0.00138571 -1.28224e-05 0)
(0.00138178 -1.0883e-05 0)
(0.00137796 -8.9187e-06 0)
(0.00137425 -6.94321e-06 0)
(0.00137064 -4.96792e-06 0)
(0.00136718 -3.00564e-06 0)
(0.00136381 -1.07301e-06 0)
(0.00136053 8.21073e-07 0)
(0.00135736 2.6761e-06 0)
(0.00135427 4.47733e-06 0)
(0.00135127 6.20813e-06 0)
(0.00134839 7.87322e-06 0)
(0.00134562 9.47161e-06 0)
(0.00134292 1.09973e-05 0)
(0.00134031 1.24503e-05 0)
(0.00133779 1.38271e-05 0)
(0.00133536 1.5123e-05 0)
(0.00133299 1.6336e-05 0)
(0.00133069 1.74655e-05 0)
(0.00132845 1.85118e-05 0)
(0.00132628 1.94751e-05 0)
(0.00132416 2.03564e-05 0)
(0.00132209 2.11569e-05 0)
(0.00132007 2.18779e-05 0)
(0.00131809 2.25217e-05 0)
(0.00131616 2.30904e-05 0)
(0.00131425 2.35868e-05 0)
(0.00131238 2.40135e-05 0)
(0.00131053 2.43735e-05 0)
(0.00130871 2.46696e-05 0)
(0.00130691 2.4905e-05 0)
(0.00130513 2.50826e-05 0)
(0.00130336 2.52059e-05 0)
(0.0013016 2.52775e-05 0)
(0.00129984 2.53015e-05 0)
(0.0012981 2.52797e-05 0)
(0.00129635 2.52168e-05 0)
(0.00129461 2.51137e-05 0)
(0.00129286 2.49759e-05 0)
(0.00129112 2.48028e-05 0)
(0.00128936 2.46014e-05 0)
(0.0012876 2.43689e-05 0)
(0.00128582 2.4114e-05 0)
(0.00128404 2.38317e-05 0)
(0.00128224 2.35329e-05 0)
(0.00128044 2.32095e-05 0)
(0.00127861 2.28752e-05 0)
(0.00127677 2.2519e-05 0)
(0.00127491 2.21563e-05 0)
(0.00127304 2.17746e-05 0)
(0.00127113 2.13892e-05 0)
(0.00126923 2.09888e-05 0)
(0.00126727 2.05849e-05 0)
(0.00126533 2.01719e-05 0)
(0.00126332 1.97528e-05 0)
(0.00126135 1.93335e-05 0)
(0.00125928 1.89014e-05 0)
(0.00125727 1.84825e-05 0)
(0.00125514 1.8039e-05 0)
(0.00125309 1.76274e-05 0)
(0.00125089 1.7174e-05 0)
(0.0012488 1.67782e-05 0)
(0.00124654 1.63158e-05 0)
(0.00124443 1.59448e-05 0)
(0.0012421 1.5472e-05 0)
(0.00124 1.51336e-05 0)
(0.0012376 1.46425e-05 0)
(0.00123553 1.43392e-05 0)
(0.00123308 1.38117e-05 0)
(0.00123109 1.3539e-05 0)
(0.00122858 1.29454e-05 0)
(0.00122673 1.26937e-05 0)
(0.00122415 1.19966e-05 0)
(0.0012225 1.17577e-05 0)
(0.00121982 1.09187e-05 0)
(0.00121843 1.06949e-05 0)
(0.0012156 9.68196e-06 0)
(0.00121455 9.49205e-06 0)
(0.00121147 8.28386e-06 0)
(0.00121087 8.1644e-06 0)
(0.00120738 6.75107e-06 0)
(0.00131364 -1.53835e-05 0)
(0.00130928 -1.43365e-05 0)
(0.00130502 -1.31673e-05 0)
(0.00130087 -1.18888e-05 0)
(0.00129683 -1.05164e-05 0)
(0.00129294 -9.06719e-06 0)
(0.00128918 -7.55095e-06 0)
(0.00128558 -5.98148e-06 0)
(0.00128213 -4.37111e-06 0)
(0.00127883 -2.72967e-06 0)
(0.0012757 -1.07244e-06 0)
(0.00127274 5.8923e-07 0)
(0.00126994 2.24962e-06 0)
(0.00126729 3.8906e-06 0)
(0.00126479 5.49992e-06 0)
(0.00126247 7.08025e-06 0)
(0.00126031 8.62284e-06 0)
(0.00125831 1.01245e-05 0)
(0.00125647 1.15866e-05 0)
(0.00125478 1.29983e-05 0)
(0.00125324 1.43506e-05 0)
(0.00125183 1.5641e-05 0)
(0.00125055 1.68679e-05 0)
(0.00124941 1.80276e-05 0)
(0.00124838 1.91165e-05 0)
(0.00124747 2.01339e-05 0)
(0.00124666 2.10803e-05 0)
(0.00124595 2.19556e-05 0)
(0.00124534 2.27598e-05 0)
(0.00124482 2.34935e-05 0)
(0.00124437 2.4158e-05 0)
(0.001244 2.47548e-05 0)
(0.00124369 2.52857e-05 0)
(0.00124345 2.57527e-05 0)
(0.00124326 2.61581e-05 0)
(0.00124312 2.65043e-05 0)
(0.00124302 2.67939e-05 0)
(0.00124295 2.70296e-05 0)
(0.00124292 2.72142e-05 0)
(0.00124292 2.73503e-05 0)
(0.00124293 2.74409e-05 0)
(0.00124296 2.74885e-05 0)
(0.001243 2.74963e-05 0)
(0.00124305 2.74661e-05 0)
(0.0012431 2.74018e-05 0)
(0.00124315 2.73043e-05 0)
(0.0012432 2.71781e-05 0)
(0.00124323 2.70231e-05 0)
(0.00124326 2.68448e-05 0)
(0.00124327 2.66413e-05 0)
(0.00124326 2.64196e-05 0)
(0.00124323 2.61762e-05 0)
(0.00124317 2.59194e-05 0)
(0.0012431 2.56437e-05 0)
(0.00124299 2.5359e-05 0)
(0.00124287 2.50581e-05 0)
(0.00124269 2.47514e-05 0)
(0.00124251 2.44315e-05 0)
(0.00124226 2.41078e-05 0)
(0.00124201 2.37746e-05 0)
(0.00124168 2.34375e-05 0)
(0.00124137 2.30966e-05 0)
(0.00124095 2.27489e-05 0)
(0.00124057 2.24056e-05 0)
(0.00124006 2.20491e-05 0)
(0.00123961 2.17084e-05 0)
(0.001239 2.13432e-05 0)
(0.00123849 2.101e-05 0)
(0.00123777 2.06348e-05 0)