/*--------------------------------*- C++ -*----------------------------------*\
| =========                 |                                                 |
| \\      /  F ield         | OpenFOAM: The Open Source CFD Toolbox           |
|  \\    /   O peration     | Version:  2312                                  |
|   \\  /    A nd           | Website:  www.openfoam.com                      |
|    \\/     M anipulation  |                                                 |
\*---------------------------------------------------------------------------*/
FoamFile
{
    version     2.0;
    format      ascii;
    arch        "LSB;label=32;scalar=64";
    class       volVectorField;
    location    "101000";
    object      U;
}
// * * * * * * * * * * * * * * * * * * * * * * * * * * * * * * * * * * * * * //

dimensions      [0 1 -1 0 0 0 0];

internalField   nonuniform List<vector> 
2715
(
(0.000267128 2.90353e-05 1.08035e-24)
(0.000278162 -3.58334e-06 0)
(0.000243057 -2.65427e-06 0)
(0.000227865 -3.3916e-06 0)
(0.000220017 -3.3989e-06 -2.52358e-23)
(0.000224801 -4.26498e-06 2.46936e-23)
(0.000226503 -4.39293e-06 0)
(0.000240289 -5.31566e-06 6.38505e-25)
(0.000246356 -4.8747e-06 0)
(0.000266113 -5.49448e-06 0)
(0.000273526 -4.53346e-06 -1.93778e-25)
(0.000296259 -4.817e-06 0)
(0.000302242 -3.265e-06 -4.26205e-26)
(0.000325056 -3.18856e-06 0)
(0.000327019 -1.07714e-06 2.32901e-24)
(0.000347683 -5.55784e-07 -2.32949e-24)
(0.000344129 1.62381e-06 0)
(0.000361392 1.77325e-06 -1.12766e-25)
(0.000351978 3.49283e-06 0)
(0.000365572 3.24506e-06 0)
(0.000351211 5.34104e-06 0)
(0.000361061 3.91372e-06 0)
(0.000343199 7.00327e-06 9.83464e-25)
(0.000348844 4.63079e-06 0)
(0.000328805 6.7494e-06 -3.83472e-23)
(0.000329603 8.63233e-06 3.69069e-23)
(0.000308934 4.02852e-07 0)
(0.000289959 1.51557e-05 0)
(0.000322058 5.47717e-05 0)
(-5.84737e-05 -7.1063e-05 1.65973e-24)
(0.000530095 4.85184e-05 6.31515e-23)
(0.00058214 1.31753e-05 -6.68357e-23)
(0.000555261 1.60191e-05 1.78912e-24)
(0.000549367 8.53133e-06 0)
(0.000540177 3.1632e-06 0)
(0.000554853 -1.29635e-06 2.42599e-23)
(0.000554671 -2.5325e-06 -2.08629e-24)
(0.00058396 -5.87973e-06 -2.23981e-23)
(0.000589356 -5.63493e-06 -5.64048e-25)
(0.000630254 -8.51762e-06 0)
(0.000637772 -6.92501e-06 -4.81159e-24)
(0.000686196 -9.62006e-06 5.41534e-24)
(0.000692358 -6.74848e-06 -8.34412e-25)
(0.000743808 -9.44861e-06 9.38313e-25)
(0.000745273 -5.38969e-06 7.21917e-24)
(0.000795581 -8.34181e-06 -8.35082e-24)
(0.000789906 -3.19845e-06 -2.10784e-24)
(0.000835693 -7.18627e-06 3.30417e-24)
(0.000822516 -3.7631e-07 -1.02709e-23)
(0.00086167 -5.86247e-06 1.09237e-23)
(0.000842952 3.03621e-06 0)
(0.0008716 -4.48204e-06 -8.94062e-25)
(0.000853529 6.34939e-06 3.20671e-23)
(0.000861921 -3.78315e-06 2.63654e-24)
(0.00086043 1.19127e-05 -3.40352e-23)
(0.000819617 -7.62871e-06 0)
(0.000883082 3.28365e-05 0)
(0.000687223 -3.93973e-05 2.59797e-24)
(0.00100043 0.000113706 9.49538e-23)
(0.000390771 -5.25015e-05 -9.81103e-23)
(0.000706032 4.80847e-05 4.24906e-24)
(0.000757143 1.96927e-06 -5.73812e-23)
(0.000748342 2.98332e-06 5.80973e-23)
(0.000758435 -2.67503e-06 3.47831e-24)
(0.00075561 -7.41737e-06 0)
(0.000779392 -1.42599e-05 0)
(0.00078024 -1.60185e-05 -1.42238e-24)
(0.000815795 -2.15697e-05 0)
(0.000820953 -2.10122e-05 -9.03543e-24)
(0.000867686 -2.61938e-05 1.52221e-24)
(0.000875837 -2.30235e-05 1.24045e-23)
(0.000930156 -2.7767e-05 -5.39618e-24)
(0.000938943 -2.15918e-05 0)
(0.000996211 -2.61906e-05 0)
(0.00100326 -1.69154e-05 1.2795e-23)
(0.00105864 -2.23611e-05 -1.28132e-23)
(0.00106263 -9.90298e-06 -1.73725e-25)
(0.00111167 -1.73597e-05 0)
(0.0011137 -9.61974e-07 1.04794e-23)
(0.00115118 -1.24381e-05 -2.27432e-23)
(0.00115553 8.98626e-06 -1.72454e-24)
(0.00117339 -9.86891e-06 1.29805e-23)
(0.00119019 2.15006e-05 0)
(0.00117393 -1.15547e-05 -2.16283e-24)
(0.00122377 4.02729e-05 0)
(0.00114312 -2.26597e-05 0)
(0.00126984 7.5852e-05 5.01737e-24)
(0.00106535 -4.79888e-05 -8.71544e-23)
(0.0013455 0.000123639 8.61728e-23)
(0.000982246 -3.86162e-05 6.0993e-24)
(0.000838285 3.47773e-05 6.03206e-23)
(0.000880976 -3.14236e-06 -1.25252e-22)
(0.000881826 -2.63946e-06 3.54169e-23)
(0.000897648 -6.99611e-06 2.54551e-23)
(0.000899593 -1.12074e-05 0)
(0.000925417 -2.00432e-05 3.12315e-24)
(0.000931216 -2.25576e-05 -1.41354e-24)
(0.000965974 -3.07356e-05 0)
(0.000976222 -3.00852e-05 1.16673e-24)
(0.00101872 -3.79931e-05 -6.97377e-24)
(0.00103317 -3.3643e-05 6.61552e-24)
(0.00108039 -4.13263e-05 0)
(0.00109788 -3.26777e-05 -7.72391e-25)
(0.00114561 -4.07102e-05 8.95536e-25)
(0.00116491 -2.73913e-05 1.90489e-23)
(0.0012085 -3.70639e-05 -2.03402e-23)
(0.00122935 -1.85821e-05 -2.02469e-24)
(0.00126403 -3.18583e-05 3.36156e-24)
(0.00128806 -7.50929e-06 0)
(0.00130852 -2.75489e-05 -1.32088e-23)
(0.00134011 5.51751e-06 1.24204e-23)
(0.00133957 -2.53854e-05 1.87487e-24)
(0.00138696 2.23352e-05 0)
(0.00135443 -2.62305e-05 -2.20271e-24)
(0.00143104 4.41715e-05 0)
(0.00135117 -3.09712e-05 -5.00193e-24)
(0.00147634 7.08417e-05 -4.79364e-23)
(0.00133327 -3.56613e-05 -3.84654e-23)
(0.00152557 8.49625e-05 1.75426e-22)
(0.00131053 2.21361e-07 -9.53058e-23)
(0.000942237 2.0741e-05 0)
(0.000974386 -8.80925e-06 5.3014e-23)
(0.000979973 -1.32522e-05 -9.44818e-23)
(0.000995438 -1.90348e-05 2.59479e-23)
(0.00100183 -2.36421e-05 0)
(0.00102606 -3.36064e-05 -3.21308e-24)
(0.00103731 -3.57543e-05 2.95979e-24)
(0.00106743 -4.49595e-05 0)
(0.00108337 -4.35854e-05 2.29405e-24)
(0.00111866 -5.28834e-05 0)
(0.00113956 -4.73806e-05 7.53619e-25)
(0.00117756 -5.67028e-05 0)
(0.00120257 -4.61234e-05 0)
(0.00123974 -5.60338e-05 0)
(0.00126788 -3.98308e-05 2.66903e-23)
(0.00130032 -5.17348e-05 -2.66948e-23)
(0.00133128 -2.94618e-05 0)
(0.00135522 -4.55594e-05 0)
(0.00138995 -1.63945e-05 0)
(0.00140185 -3.92604e-05 1.48642e-24)
(0.00144286 -1.22106e-06 0)
(0.00143895 -3.36413e-05 3.81906e-24)
(0.00149003 1.55623e-05 0)
(0.00146594 -2.95868e-05 4.55536e-24)
(0.00153198 3.41161e-05 0)
(0.0014834 -2.57023e-05 5.14433e-24)
(0.00156941 5.09203e-05 -4.84441e-23)
(0.00149326 -1.49857e-05 1.25673e-22)
(0.0016038 5.06832e-05 -9.83786e-23)
(0.00149176 1.85051e-05 0)
(0.00102386 5.92484e-06 5.73506e-23)
(0.00104684 -1.53138e-05 -1.28665e-22)
(0.00105568 -2.33698e-05 9.25394e-23)
(0.00106972 -2.98208e-05 -2.63893e-23)
(0.001079 -3.33971e-05 -2.67929e-23)
(0.00109987 -4.36063e-05 2.38269e-23)
(0.00111445 -4.65972e-05 2.25597e-23)
(0.0011402 -5.67275e-05 -4.27442e-23)
(0.00115939 -5.6075e-05 1.7781e-23)
(0.00118931 -6.58139e-05 0)
(0.0012131 -6.082e-05 -7.76937e-25)
(0.00124536 -7.01181e-05 5.11333e-25)
(0.00127269 -5.99092e-05 -6.03011e-25)
(0.00130451 -6.92117e-05 8.27589e-25)
(0.00133409 -5.3438e-05 3.54458e-23)
(0.00136259 -6.39595e-05 -3.69686e-23)
(0.00139354 -4.263e-05 -2.35228e-24)
(0.00141618 -5.61514e-05 3.6365e-24)
(0.0014484 -2.91475e-05 1.28436e-24)
(0.00146342 -4.74154e-05 -1.53241e-24)
(0.00149752 -1.43542e-05 0)
(0.0015036 -3.87189e-05 -3.67254e-23)
(0.00154053 7.50488e-07 6.82671e-23)
(0.00153678 -2.96455e-05 -3.54232e-23)
(0.00157728 1.51954e-05 -4.53606e-23)
(0.00156321 -1.8198e-05 4.0117e-23)
(0.00160796 2.56834e-05 4.93032e-23)
(0.00158263 -7.44335e-07 -1.45406e-22)
(0.00163394 2.69095e-05 1.93009e-22)
(0.00159234 2.17937e-05 -1.02615e-22)
(0.00108606 -8.40133e-06 -5.80452e-23)
(0.00110237 -2.27875e-05 1.23099e-23)
(0.00111295 -3.28196e-05 6.43e-23)
(0.00112582 -4.06956e-05 -7.45509e-24)
(0.00113676 -4.5019e-05 2.73252e-23)
(0.00115488 -5.48906e-05 -1.76813e-23)
(0.00117102 -5.90654e-05 0)
(0.00119376 -6.88288e-05 0)
(0.00121404 -6.96344e-05 0)
(0.00124068 -7.83106e-05 1.91887e-24)
(0.0012647 -7.50184e-05 7.38481e-25)
(0.00129396 -8.25022e-05 -5.27747e-25)
(0.0013204 -7.44225e-05 0)
(0.00135017 -8.09558e-05 -1.47107e-26)
(0.00137741 -6.80129e-05 4.64065e-23)
(0.00140552 -7.45173e-05 -4.6413e-23)
(0.00143226 -5.72219e-05 4.14934e-25)
(0.00145704 -6.49327e-05 0)
(0.00148264 -4.39936e-05 -1.32558e-24)
(0.00150313 -5.38159e-05 1.58544e-24)
(0.00152752 -3.00535e-05 3.57429e-24)
(0.00154325 -4.19577e-05 0)
(0.00156672 -1.65159e-05 0)
(0.0015773 -2.89504e-05 0)
(0.00160032 -4.40316e-06 5.64077e-23)
(0.00160492 -1.3552e-05 -4.10236e-23)
(0.00162878 5.01303e-06 0)
(0.00162531 4.70731e-06 -8.13953e-23)
(0.00165282 1.21398e-05 -2.94939e-24)
(0.00163779 2.09627e-05 1.05436e-22)
(0.00113051 -2.15417e-05 0)
(0.00114264 -3.15479e-05 -8.36272e-24)
(0.00115389 -4.20873e-05 3.1147e-23)
(0.0011661 -5.11206e-05 -2.38409e-23)
(0.00117808 -5.68849e-05 0)
(0.00119427 -6.59722e-05 -6.80173e-24)
(0.00121105 -7.15768e-05 0)
(0.00123167 -8.03005e-05 0)
(0.00125219 -8.30892e-05 0)
(0.00127649 -8.99773e-05 4.8826e-24)
(0.00130006 -8.91081e-05 -1.26063e-23)
(0.00132708 -9.39011e-05 5.93472e-24)
(0.00135225 -8.89048e-05 -1.45004e-24)
(0.00138033 -9.1638e-05 1.5202e-26)
(0.00140529 -8.27074e-05 5.93799e-23)
(0.00143277 -8.40361e-05 -5.94937e-23)
(0.00145598 -7.20913e-05 -4.28791e-25)
(0.00148174 -7.28538e-05 5.07242e-24)
(0.00150226 -5.91814e-05 -1.85817e-23)
(0.00152586 -5.9791e-05 2.44282e-23)
(0.00154332 -4.57846e-05 -1.76012e-23)
(0.00156478 -4.57366e-05 0)
(0.00157905 -3.29145e-05 0)
(0.00159851 -3.06794e-05 0)
(0.0016095 -2.10113e-05 -1.02835e-23)
(0.00162697 -1.42445e-05 0)
(0.00163466 -9.77177e-06 4.62825e-23)
(0.00165014 3.02467e-06 -4.57272e-23)
(0.00165389 1.81285e-06 -1.19979e-23)
(0.00166844 1.87194e-05 0)
(0.00115864 -3.34582e-05 8.86443e-24)
(0.00116873 -4.14261e-05 6.69733e-23)
(0.00118012 -5.17075e-05 -3.58141e-23)
(0.00119198 -6.12592e-05 -1.986e-24)
(0.00120466 -6.87322e-05 -3.07828e-23)
(0.00121969 -7.70593e-05 0)
(0.00123668 -8.40758e-05 2.36897e-23)
(0.00125581 -9.15727e-05 -3.22052e-24)
(0.00127635 -9.6328e-05 -1.84933e-23)
(0.00129878 -0.000101341 -6.81059e-24)
(0.00132203 -0.000102871 6.85191e-24)
(0.00134693 -0.000104942 4.88753e-25)
(0.00137147 -0.000102956 1.76652e-25)
(0.00139738 -0.000101995 5.47632e-26)
(0.00142141 -9.68829e-05 7.45772e-23)
(0.00144691 -9.33968e-05 -7.45472e-23)
(0.00146889 -8.63073e-05 -4.73835e-25)
(0.00149308 -8.10079e-05 1.21885e-24)
(0.00151211 -7.34249e-05 1.44332e-24)
(0.00153472 -6.66929e-05 -1.4538e-23)
(0.00155047 -5.99941e-05 1.44501e-23)
(0.00157164 -5.15737e-05 4.01008e-23)
(0.00158405 -4.68199e-05 3.24739e-24)
(0.00160394 -3.5992e-05 -3.84219e-23)
(0.00161298 -3.38364e-05 0)
(0.00163168 -1.99493e-05 4.59283e-23)
(0.00163716 -2.04088e-05 2.29724e-24)
(0.00165477 -3.86523e-06 5.12044e-23)
(0.00165612 -6.12889e-06 -9.70207e-23)
(0.00167307 1.18725e-05 1.26232e-23)
(0.00117206 -4.429e-05 -8.04728e-23)
(0.00118171 -5.19442e-05 8.12037e-23)
(0.00119301 -6.19576e-05 -2.44682e-23)
(0.00120487 -7.14707e-05 5.65599e-23)
(0.00121802 -8.04195e-05 -3.16417e-23)
(0.00123265 -8.82768e-05 -1.98492e-23)
(0.00124962 -9.64323e-05 2.07945e-23)
(0.00126797 -0.000102914 0)
(0.00128835 -0.000109181 -4.82809e-24)
(0.00130962 -0.00011273 1.90332e-24)
(0.00133259 -0.000116077 0)
(0.0013559 -0.000116047 -1.20476e-24)
(0.00138015 -0.000116276 1.1621e-24)
(0.00140409 -0.000112539 2.26079e-26)
(0.00142795 -0.000110153 9.28379e-23)
(0.00145115 -0.000103192 -9.27727e-23)
(0.00147323 -9.94176e-05 -1.88217e-26)
(0.00149486 -9.00055e-05 -5.59264e-24)
(0.00151437 -8.62961e-05 5.59947e-24)
(0.00153427 -7.49884e-05 0)
(0.00155095 -7.25189e-05 4.01539e-24)
(0.00156939 -5.93992e-05 -8.86023e-24)
(0.00158314 -5.88318e-05 0)
(0.00160051 -4.3636e-05 -5.31456e-23)
(0.0016111 -4.51634e-05 5.33254e-23)
(0.00162784 -2.76192e-05 4.73742e-23)
(0.00163463 -3.11983e-05 -1.08014e-22)
(0.00165132 -1.11303e-05 4.85731e-23)
(0.00165333 -1.68292e-05 -9.11747e-23)
(0.00167092 6.56083e-06 7.64133e-23)
(0.00117303 -5.43951e-05 -7.34692e-23)
(0.00118323 -6.27728e-05 1.36404e-22)
(0.00119453 -7.28249e-05 -8.94653e-23)
(0.00120672 -8.20917e-05 4.88288e-23)
(0.0012202 -9.20014e-05 -3.25691e-23)
(0.00123512 -9.97319e-05 -7.29209e-24)
(0.00125201 -0.000108649 3.11386e-23)
(0.00127033 -0.000114551 -2.47729e-23)
(0.00129048 -0.000121702 2.46604e-24)
(0.00131148 -0.000124423 -1.97243e-24)
(0.00133411 -0.000128784 0)
(0.00135679 -0.000127545 1.05242e-24)
(0.00138073 -0.000128927 -1.34333e-24)
(0.00140364 -0.000123622 1.71918e-25)
(0.0014274 -0.000122577 1.14907e-22)
(0.00144911 -0.000113759 -1.14788e-22)
(0.00147151 -0.000111503 4.84957e-24)
(0.00149113 -0.000100081 -2.45273e-25)
(0.0015116 -9.79783e-05 -5.92702e-24)
(0.00152892 -8.47048e-05 0)
(0.0015474 -8.37628e-05 -4.16115e-24)
(0.00156265 -6.89471e-05 4.59397e-24)
(0.00157923 -6.96403e-05 4.15586e-23)
(0.00159277 -5.31839e-05 -3.04527e-23)
(0.00160734 -5.56086e-05 -1.13397e-23)
(0.00161955 -3.71892e-05 4.89545e-23)
(0.00163162 -4.13658e-05 -2.35105e-23)
(0.001643 -2.0465e-05 9.20704e-23)
(0.00165168 -2.65683e-05 -2.11026e-22)
(0.00166319 -2.21854e-06 1.05981e-22)
(0.00116487 -6.45663e-05 -5.64478e-23)
(0.00117592 -7.38525e-05 1.32081e-23)
(0.00118745 -8.42277e-05 8.33459e-23)
(0.0012003 -9.33982e-05 -1.71865e-23)
(0.00121416 -0.000103779 0)
(0.00122984 -0.000111633 7.38571e-24)
(0.00124686 -0.000120957 6.62965e-24)
(0.00126577 -0.000126717 2.71072e-23)
(0.00128585 -0.000134213 -1.28676e-23)
(0.00130738 -0.00013667 -6.88274e-24)
(0.00132979 -0.000141347 -4.17729e-24)
(0.00135287 -0.000139664 4.01574e-24)
(0.00137647 -0.000141308 8.76281e-25)
(0.00139958 -0.00013542 -1.11941e-25)
(0.00142298 -0.00013461 1.40816e-22)
(0.00144462 -0.000125158 -1.41037e-22)
(0.00146679 -0.000123105 5.71021e-25)
(0.00148602 -0.000111108 -6.32366e-24)
(0.00150661 -0.000109156 -8.40929e-24)
(0.00152312 -9.5456e-05 1.46245e-23)
(0.00154232 -9.46028e-05 2.28145e-23)
(0.0015562 -7.95317e-05 2.18719e-23)
(0.00157445 -8.02966e-05 -2.93664e-23)
(0.00158582 -6.36502e-05 1.11067e-23)
(0.00160342 -6.62639e-05 1.17535e-23)
(0.00161223 -4.74554e-05 0)
(0.00162931 -5.21501e-05 -2.56926e-23)
(0.00163533 -3.03218e-05 -9.53514e-23)
(0.00165198 -3.75177e-05 -4.41445e-24)
(0.00165502 -1.14417e-05 1.23787e-22)
(0.00115152 -7.55616e-05 3.82887e-23)
(0.0011634 -8.55103e-05 -8.94443e-23)
(0.00117547 -9.62563e-05 -9.3219e-24)
(0.0011892 -0.000105579 8.88614e-24)
(0.00120368 -0.000116145 0)
(0.00122038 -0.00012428 -7.66172e-24)
(0.0012379 -0.00013377 -6.88072e-24)
(0.00125783 -0.000139702 -5.98394e-24)
(0.00127828 -0.0001472 8.62188e-24)
(0.00130088 -0.000149753 -1.06314e-23)
(0.00132348 -0.000154297 0)
(0.00134763 -0.000152628 5.30311e-25)
(0.00137115 -0.000153974 -6.61551e-25)
(0.00139531 -0.000148069 -1.79687e-25)
(0.00141832 -0.000146821 1.7191e-22)
(0.00144098 -0.000137409 -1.71921e-22)
(0.00146248 -0.000134799 6.47028e-25)
(0.0014827 -0.000122981 6.74649e-24)
(0.00150242 -0.000120379 -3.03786e-24)
(0.00151993 -0.000107045 0)
(0.00153822 -0.00010549 1.47363e-23)
(0.0015531 -9.09505e-05 -1.91422e-23)
(0.00157056 -9.10307e-05 -1.08017e-23)
(0.00158287 -7.49812e-05 -1.15271e-23)
(0.00160002 -7.70287e-05 -1.21925e-23)
(0.0016096 -5.86966e-05 0)
(0.00162678 -6.30874e-05 1.33132e-23)
(0.00163329 -4.13676e-05 -1.37815e-23)
(0.0016507 -4.87563e-05 1.01481e-22)
(0.00165392 -2.2089e-05 -1.42952e-22)
(0.00113795 -8.80027e-05 -3.96294e-23)
(0.00115039 -9.8264e-05 1.70961e-22)
(0.00116312 -0.000109265 -6.98504e-23)
(0.00117775 -0.000118929 3.50934e-23)
(0.00119306 -0.000129583 -3.55971e-23)
(0.00121086 -0.000138106 7.72539e-24)
(0.00122927 -0.000147625 -6.85162e-24)
(0.00125039 -0.000153894 2.15634e-23)
(0.00127169 -0.000161213 -2.65343e-23)
(0.00129557 -0.000164015 -6.07329e-24)
(0.00131888 -0.000168175 2.63413e-24)
(0.0013443 -0.000166688 3.29662e-24)
(0.0013682 -0.000167441 -1.36191e-24)
(0.00139357 -0.000161701 1.1488e-24)
(0.00141649 -0.000159688 2.09256e-22)
(0.00144034 -0.000150512 -2.09269e-22)
(0.00146122 -0.000147016 5.42772e-24)
(0.0014827 -0.000135582 1.14696e-24)
(0.00150129 -0.000132018 -2.75872e-23)
(0.00152022 -0.000119268 -2.0485e-24)
(0.00153693 -0.000116705 1.34897e-23)
(0.00155348 -0.000102972 3.33443e-23)
(0.00156905 -0.000102016 -4.34905e-23)
(0.00158325 -8.69877e-05 -1.2067e-23)
(0.0015985 -8.7963e-05 1.272e-23)
(0.00160998 -7.08349e-05 4.1332e-23)
(0.00162567 -7.40796e-05 -5.3862e-23)
(0.00163363 -5.37273e-05 1.31294e-22)
(0.00165067 -5.98296e-05 -2.20637e-22)
(0.00165404 -3.47396e-05 1.78539e-22)
(0.00112798 -0.000102146 -4.31784e-23)
(0.00114079 -0.000112548 -6.01733e-23)
(0.00115414 -0.000123677 1.20879e-22)
(0.00116965 -0.000133796 -3.91387e-23)
(0.00118586 -0.000144551 0)
(0.00120478 -0.000153544 -1.5926e-23)
(0.00122425 -0.000163022 3.30697e-23)
(0.00124663 -0.000169682 -2.62463e-23)
(0.00126904 -0.000176702 4.95108e-24)
(0.00129419 -0.000179765 5.7471e-24)
(0.00131846 -0.000183366 -5.79254e-24)
(0.00134501 -0.000182042 0)
(0.00136951 -0.000182006 0)
(0.00139577 -0.000176386 0)
(0.00141882 -0.000173423 2.5466e-22)
(0.00144336 -0.000164417 -2.54755e-22)
(0.0014638 -0.000159894 0)
(0.00148593 -0.000148763 -1.84197e-24)
(0.00150343 -0.000144153 0)
(0.00152324 -0.000131901 1.9646e-23)
(0.00153816 -0.000128308 -1.44054e-23)
(0.00155612 -0.000115305 1.10344e-23)
(0.0015691 -0.000113345 4.92422e-23)
(0.00158557 -9.92855e-05 -3.61011e-23)
(0.0015973 -9.92805e-05 -2.65166e-23)
(0.00161226 -8.33119e-05 1.38325e-23)
(0.00162341 -8.56151e-05 5.89931e-23)
(0.00163628 -6.64688e-05 -1.79783e-22)
(0.00164768 -7.17862e-05 1.5038e-22)
(0.00165747 -4.76697e-05 -6.27078e-23)
(0.00112438 -0.000118162 -6.49096e-23)
(0.00113737 -0.000128743 1.72703e-22)
(0.00115109 -0.000139942 -9.56249e-23)
(0.00116729 -0.000150553 3.71771e-23)
(0.00118423 -0.000161438 -7.17958e-23)
(0.00120416 -0.000170925 2.04479e-23)
(0.00122454 -0.000180298 4.63871e-24)
(0.00124809 -0.000187302 4.78466e-23)
(0.0012714 -0.000193887 -2.163e-23)
(0.00129766 -0.000197119 1.59819e-24)
(0.00132263 -0.000199972 -2.39644e-24)
(0.00134999 -0.000198688 2.11676e-24)
(0.00137485 -0.000197656 -1.49544e-24)
(0.00140149 -0.000192023 2.49098e-24)
(0.00142449 -0.000187925 3.09522e-22)
(0.00144897 -0.000178956 -3.09534e-22)
(0.00146898 -0.000173274 5.55733e-24)
(0.00149074 -0.000162322 3.11067e-24)
(0.00150748 -0.000156606 -2.73868e-23)
(0.00152685 -0.000144741 1.88699e-23)
(0.00154066 -0.000140119 0)
(0.00155842 -0.000127775 4.8769e-23)
(0.00156985 -0.000124835 -1.00009e-22)
(0.00158681 -0.000111782 9.8626e-24)
(0.00159632 -0.000110743 2.44785e-23)
(0.00161296 -9.62187e-05 1.15659e-22)
(0.00162091 -9.72597e-05 -4.3461e-23)
(0.0016372 -8.00905e-05 1.11296e-22)
(0.00164399 -8.3697e-05 -2.54791e-22)
(0.0016595 -6.22003e-05 1.60535e-22)
(0.00112642 -0.000135746 0)
(0.0011395 -0.000146749 -2.24864e-23)
(0.00115331 -0.000158099 1.07289e-23)
(0.00116999 -0.000169206 3.82643e-23)
(0.00118737 -0.000180249 -3.88913e-23)
(0.00120814 -0.000190186 -3.91957e-23)
(0.00122907 -0.000199394 3.12406e-23)
(0.00125359 -0.000206611 0)
(0.00127732 -0.000212623 -3.31879e-24)
(0.00130444 -0.00021585 6.1325e-24)
(0.0013295 -0.000217764 -6.77136e-25)
(0.00135742 -0.00021634 8.93793e-25)
(0.00138195 -0.000214101 -7.76625e-25)
(0.00140871 -0.000208308 -7.25051e-25)
(0.00143102 -0.000202881 3.77094e-22)
(0.00145517 -0.000193852 -3.77105e-22)
(0.00147428 -0.000186868 -1.10214e-25)
(0.00149533 -0.00017603 -9.1862e-24)
(0.00151114 -0.00016915 4.18182e-24)
(0.00152954 -0.000157599 -5.44352e-24)
(0.00154253 -0.00015202 -2.42308e-23)
(0.00155927 -0.000140191 3.65625e-23)
(0.00156999 -0.000136527 0)
(0.00158622 -0.000124195 -7.12225e-23)
(0.00159494 -0.000122632 4.20308e-23)
(0.00161165 -0.000109064 6.21498e-23)
(0.00161832 -0.000109644 -7.68108e-23)
(0.00163611 -9.37416e-05 1.61511e-23)
(0.00164058 -9.67128e-05 -3.32081e-23)
(0.00165956 -7.69309e-05 0)
(0.00112921 -0.000154519 -9.43563e-23)
(0.00114265 -0.0001663 1.63082e-22)
(0.0011567 -0.000178014 -1.14003e-22)
(0.00117384 -0.000189592 0)
(0.00119166 -0.000200801 -3.55722e-23)
(0.00121316 -0.000211043 2.78524e-23)
(0.00123451 -0.000220033 7.05452e-24)
(0.00125978 -0.000227244 2.04715e-23)
(0.00128363 -0.000232578 -2.11908e-23)
(0.00131137 -0.000235551 0)
(0.00133609 -0.000236392 7.10399e-25)
(0.00136444 -0.000234606 -1.49433e-24)
(0.00138811 -0.00023102 -2.29256e-24)
(0.00141511 -0.000224927 1.99617e-24)
(0.00143612 -0.00021803 4.60483e-22)
(0.00146032 -0.000208915 -4.60492e-22)
(0.00147793 -0.000200477 1.30228e-23)
(0.00149884 -0.000189848 3.65394e-24)
(0.00151325 -0.000181634 -4.81259e-24)
(0.00153127 -0.000170581 5.71081e-24)
(0.00154324 -0.000163872 0)
(0.00155929 -0.000152769 5.5293e-23)
(0.0015696 -0.00014827 -5.43572e-23)
(0.00158484 -0.000136803 0)
(0.00159377 -0.000134767 -7.83309e-23)
(0.00160953 -0.000122124 6.19379e-23)
(0.00161658 -0.000122576 0)
(0.00163426 -0.000107644 1.0446e-22)
(0.00163815 -0.000110661 -3.12232e-22)
(0.00165922 -9.20229e-05 1.39107e-22)
(0.00112898 -0.000174663 -9.84557e-23)
(0.00114292 -0.000187373 1.24794e-22)
(0.00115747 -0.0001996 2.31007e-23)
(0.00117508 -0.000211533 4.04645e-23)
(0.00119352 -0.000222847 -4.11953e-23)
(0.00121561 -0.000233149 8.69513e-24)
(0.00123756 -0.000241871 -7.39973e-24)
(0.00126337 -0.00024881 0)
(0.00128755 -0.000253448 -4.36213e-24)
(0.00131577 -0.000255885 -1.01411e-24)
(0.0013404 -0.000255667 6.29328e-25)
(0.00136922 -0.000253262 -1.93904e-24)
(0.00139226 -0.000248378 1.94053e-24)
(0.0014198 -0.000241797 1.10172e-24)
(0.00143961 -0.000233482 5.64403e-22)
(0.00146453 -0.000224195 -5.64502e-22)
(0.00148042 -0.000214298 -2.24707e-24)
(0.00150229 -0.000203923 1.1259e-23)
(0.00151466 -0.000194248 -4.13532e-23)
(0.00153377 -0.0001839 2.41558e-23)
(0.00154371 -0.000175779 -6.85312e-24)
(0.00156065 -0.000165766 -1.41215e-23)
(0.00156946 -0.000160021 0)
(0.00158487 -0.000149871 0)
(0.00159348 -0.000146961 1.61282e-23)
(0.00160809 -0.000135606 6.85239e-23)
(0.00161652 -0.00013579 -6.73075e-23)
(0.00163147 -0.000121859 3.53565e-23)
(0.00163824 -0.000125313 -1.11926e-22)
(0.00165544 -0.000107398 1.45273e-22)
(0.00111938 -0.00019571 -1.29581e-22)
(0.00113459 -0.000209331 7.98133e-23)
(0.00115064 -0.000222245 0)
(0.00116946 -0.000234565 0)
(0.00118945 -0.000246063 -3.66593e-23)
(0.00121266 -0.000256337 3.73187e-23)
(0.00123616 -0.00026487 2.49052e-23)
(0.00126296 -0.000271401 -3.03775e-23)
(0.00128855 -0.000275453 0)
(0.00131756 -0.00027715 1.73649e-24)
(0.00134328 -0.000276022 2.26038e-24)
(0.00137271 -0.000272731 -3.13143e-24)
(0.0013963 -0.000266741 2.02915e-24)
(0.00142441 -0.000259363 0)
(0.001444 -0.000249843 6.93972e-22)
(0.00146969 -0.000240066 -6.94065e-22)
(0.00148442 -0.000228882 0)
(0.00150756 -0.000218497 -5.89659e-24)
(0.00151767 -0.000207399 -2.05118e-23)
(0.00153879 -0.000197657 3.36346e-23)
(0.00154536 -0.000187918 1.46843e-23)
(0.00156505 -0.000179214 0)
(0.00156966 -0.000171667 4.96392e-23)
(0.00158811 -0.000163474 -6.48667e-23)
(0.0015925 -0.000158769 -7.02814e-23)
(0.00160935 -0.000149688 6.90384e-23)
(0.0016149 -0.000148568 0)
(0.0016295 -0.000136527 0)
(0.00163611 -0.000139961 -1.92919e-22)
(0.00164847 -0.000122682 1.1314e-22)
(0.00110576 -0.000220602 5.57856e-23)
(0.00112269 -0.000234786 2.65475e-23)
(0.00114097 -0.000248255 1.22286e-23)
(0.00116169 -0.000260886 -1.10928e-23)
(0.00118411 -0.000272521 9.74515e-24)
(0.00120916 -0.000282632 -2.22991e-23)
(0.00123516 -0.000290881 3.10307e-23)
(0.0012635 -0.000296786 8.32252e-25)
(0.00129147 -0.000300148 1.45531e-24)
(0.00132149 -0.000300798 -4.32889e-24)
(0.00134925 -0.000298679 -1.93654e-25)
(0.00137904 -0.00029409 -4.25246e-24)
(0.00140415 -0.00028699 -1.66922e-24)
(0.00143201 -0.000278302 6.26092e-24)
(0.00145244 -0.000267697 8.57103e-22)
(0.00147761 -0.000256821 -8.57088e-22)
(0.00149228 -0.000244596 1.26728e-23)
(0.00151513 -0.00023351 1.01507e-24)
(0.00152392 -0.000221302 -1.37556e-23)
(0.00154566 -0.000211495 -3.8944e-23)
(0.00154913 -0.000200394 6.44057e-23)
(0.0015711 -0.000192582 -4.95415e-23)
(0.00157024 -0.00018317 -4.0722e-25)
(0.00159313 -0.000177126 -7.2848e-23)
(0.00158947 -0.000169819 8.99877e-23)
(0.00161245 -0.000164219 1.87824e-23)
(0.00160812 -0.000159864 0)
(0.001628 -0.000152075 1.94874e-23)
(0.00162507 -0.000152554 3.9781e-23)
(0.00163654 -0.000138675 8.0792e-23)
(0.00110082 -0.000250907 -2.92774e-23)
(0.0011189 -0.000265409 0)
(0.0011389 -0.000279211 3.50614e-23)
(0.00116124 -0.000292002 -3.7305e-23)
(0.00118575 -0.00030356 -1.99162e-23)
(0.00121245 -0.000313269 -3.7795e-23)
(0.00124065 -0.000320883 5.68235e-23)
(0.00127031 -0.00032581 -2.05445e-23)
(0.00130032 -0.00032806 2.65362e-24)
(0.00133097 -0.000327254 -2.82292e-24)
(0.00136044 -0.00032373 8.19549e-24)
(0.0013899 -0.000317405 -1.43609e-24)
(0.00141638 -0.000308879 -1.72351e-23)
(0.00144292 -0.000298422 7.94195e-24)
(0.00146447 -0.000286621 1.06608e-21)
(0.0014875 -0.000274127 -1.06605e-21)
(0.00150311 -0.000261033 1.45229e-23)
(0.0015234 -0.000248564 -2.2552e-23)
(0.00153272 -0.000235723 -2.60677e-23)
(0.00155213 -0.000224897 7.66122e-23)
(0.00155494 -0.000213216 -4.31759e-23)
(0.00157591 -0.000205126 1.79985e-23)
(0.00157173 -0.0001948 7.61036e-23)
(0.00159651 -0.000189787 -1.34168e-22)
(0.00158447 -0.000180449 5.73778e-23)
(0.00161367 -0.000177931 -3.98105e-23)
(0.00159306 -0.000169465 8.23762e-23)
(0.00162311 -0.000167368 -1.011e-22)
(0.0015947 -0.000161239 0)
(0.00161444 -0.000154778 -4.2306e-23)
(0.00109725 -0.000285837 -3.03821e-23)
(0.00111693 -0.000300784 1.40772e-23)
(0.00113882 -0.000314836 -1.27327e-23)
(0.00116309 -0.000327638 0)
(0.00118972 -0.000338841 -2.47542e-23)
(0.0012183 -0.000347858 3.56999e-23)
(0.00124848 -0.000354397 -6.21203e-24)
(0.0012796 -0.000357963 3.93498e-24)
(0.00131124 -0.00035857 0)
(0.00134261 -0.00035593 0)
(0.00137326 -0.00035047 1.72188e-24)
(0.00140249 -0.000342112 7.81924e-24)
(0.00142979 -0.000331706 -5.83065e-24)
(0.00145503 -0.000319298 0)
(0.00147739 -0.000306001 1.33656e-21)
(0.00149806 -0.000291798 -1.3366e-21)
(0.00151489 -0.000277755 0)
(0.00153176 -0.000263739 -2.2115e-23)
(0.00154295 -0.000250444 1.71599e-23)
(0.00155774 -0.000238049 -9.30627e-24)
(0.00156271 -0.000226334 0)
(0.00157802 -0.000216729 0)
(0.00157486 -0.000206645 2.02537e-23)
(0.00159388 -0.000200522 -2.05991e-23)
(0.00157792 -0.000190849 -8.55871e-23)
(0.00160353 -0.00018851 1.04945e-22)
(0.00156641 -0.000177283 0)
(0.0015994 -0.00017871 -2.16022e-23)
(0.00153048 -0.000164255 2.17509e-23)
(0.00156467 -0.000167487 -4.35845e-23)
(0.0010879 -0.000324785 1.63342e-23)
(0.00111029 -0.00034042 -1.48801e-23)
(0.00113511 -0.000354842 1.34784e-23)
(0.0011624 -0.000367594 -4.09138e-23)
(0.00119195 -0.000378234 4.18985e-23)
(0.0012233 -0.000386266 2.26809e-23)
(0.00125599 -0.000391338 -2.31691e-23)
(0.00128933 -0.000393146 -6.16625e-25)
(0.0013228 -0.000391645 0)
(0.00135558 -0.000386797 0)
(0.00138727 -0.000378934 0)
(0.00141697 -0.000368279 1.04826e-23)
(0.00144462 -0.000355554 -1.05709e-23)
(0.00146936 -0.000341094 0)
(0.0014917 -0.000325894 1.68579e-21)
(0.00151092 -0.000310068 -1.68557e-21)
(0.00152793 -0.000294687 0)
(0.00154217 -0.000279337 -2.07346e-23)
(0.00155415 -0.000265173 3.0746e-23)
(0.00156416 -0.000251272 0)
(0.00157043 -0.000239039 0)
(0.00157694 -0.000227347 0)
(0.00157492 -0.000217318 -2.31969e-23)
(0.00157902 -0.000208207 9.22942e-23)
(0.00156152 -0.000199005 -9.03475e-23)
(0.00156468 -0.000192651 -9.25415e-23)
(0.00151584 -0.000181287 9.03667e-23)
(0.00152327 -0.000179492 2.2866e-23)
(0.00141435 -0.000160034 -2.29905e-23)
(0.00144191 -0.000168276 2.33955e-23)
(0.0010773 -0.00037357 1.40374e-22)
(0.00110331 -0.000388818 -1.27156e-22)
(0.00113206 -0.000402821 0)
(0.00116327 -0.000414847 0)
(0.00119652 -0.000424258 -2.73726e-23)
(0.00123132 -0.000430598 2.3877e-23)
(0.00126703 -0.000433542 0)
(0.001303 -0.000432923 6.6016e-25)
(0.00133853 -0.0004287 0)
(0.00137296 -0.000421022 0)
(0.00140561 -0.000410182 5.86193e-24)
(0.00143593 -0.000396667 0)
(0.00146345 -0.000381081 -1.22403e-23)
(0.00148785 -0.000364096 1.66286e-23)
(0.00150915 -0.000346433 2.15063e-21)
(0.00152715 -0.000328627 -2.15054e-21)
(0.00154238 -0.000311266 2.32925e-23)
(0.00155425 -0.000294418 -2.93782e-23)
(0.00156354 -0.000278541 0)
(0.00156859 -0.000263139 -1.29997e-23)
(0.0015702 -0.000249013 0)
(0.00156569 -0.000235075 -1.30833e-23)
(0.00155551 -0.000222925 2.48325e-23)
(0.00153755 -0.000210068 0)
(0.00150756 -0.000199059 -1.00651e-22)
(0.00147134 -0.000186461 9.82371e-23)
(0.00140473 -0.000174885 0)
(0.00135202 -0.000163178 0)
(0.0012135 -0.000145531 1.93378e-22)
(0.00118526 -0.00014573 -1.64254e-22)
(0.00106748 -0.000433719 0)
(0.00109743 -0.000450341 0)
(0.00113039 -0.000464455 0)
(0.00116618 -0.000475415 0)
(0.00120405 -0.000482768 0)
(0.00124312 -0.000486219 4.46882e-24)
(0.00128254 -0.00048565 0)
(0.00132163 -0.000481067 -1.6817e-23)
(0.00135961 -0.000472591 4.9664e-24)
(0.00139582 -0.00046052 4.45595e-23)
(0.00142947 -0.00044531 -6.42519e-23)
(0.00146005 -0.000427601 3.23911e-23)
(0.00148695 -0.000408086 -4.64061e-24)
(0.00151005 -0.000387521 0)
(0.00152899 -0.000366531 2.77037e-21)
(0.00154392 -0.000345691 -2.76829e-21)
(0.00155449 -0.000325367 0)
(0.00156065 -0.00030583 6.74397e-24)
(0.00156158 -0.000287075 5.82675e-23)
(0.00155625 -0.00026905 -1.02199e-22)
(0.00154313 -0.000251591 1.16501e-22)
(0.00151975 -0.000234417 5.79335e-23)
(0.00148472 -0.000217377 -1.43408e-22)
(0.00143418 -0.000199749 0)
(0.00136821 -0.000182954 0)
(0.00128122 -0.00016503 0)
(0.00117329 -0.000148542 0)
(0.00104496 -0.000127576 0)
(0.000879578 -0.000113413 0)
(0.000754318 -9.47187e-05 0)
(0.00105811 -0.000500542 1.45073e-23)
(0.00109615 -0.000513496 0)
(0.001138 -0.000525401 0)
(0.00118144 -0.000534089 1.62357e-23)
(0.0012253 -0.000538547 -1.62668e-23)
(0.00126891 -0.000538494 6.72803e-24)
(0.00131179 -0.000534001 -1.18829e-23)
(0.0013533 -0.000525232 -6.85754e-24)
(0.00139269 -0.000512485 0)
(0.00142913 -0.000496172 -1.06302e-23)
(0.00146185 -0.000476891 0)
(0.00149018 -0.000455351 0)
(0.00151357 -0.000432289 0)
(0.00153168 -0.000408362 0)
(0.00154395 -0.000383966 3.63277e-21)
(0.00155003 -0.000359377 -3.63428e-21)
(0.00154881 -0.000334781 0)
(0.00153947 -0.000310208 0)
(0.00152016 -0.000285844 0)
(0.00148951 -0.000262027 0)
(0.00144517 -0.000239328 1.7465e-23)
(0.0013851 -0.000216938 1.62028e-23)
(0.00130556 -0.000193186 3.18169e-23)
(0.00120448 -0.000168337 -1.26246e-22)
(0.00108007 -0.000144705 2.44999e-22)
(0.000932324 -0.000122268 -4.84946e-25)
(0.000766066 -9.73826e-05 -1.43607e-22)
(0.000583832 -7.35723e-05 0)