/*--------------------------------*- C++ -*----------------------------------*\
| =========                 |                                                 |
| \\      /  F ield         | OpenFOAM: The Open Source CFD Toolbox           |
|  \\    /   O peration     | Version:  2312                                  |
|   \\  /    A nd           | Website:  www.openfoam.com                      |
|    \\/     M anipulation  |                                                 |
\*---------------------------------------------------------------------------*/
FoamFile
{
    version     2.0;
    format      ascii;
    arch        "LSB;label=32;scalar=64";
    class       volVectorField;
    location    "53000";
    object      U;
}
// * * * * * * * * * * * * * * * * * * * * * * * * * * * * * * * * * * * * * //

dimensions      [0 1 -1 0 0 0 0];

internalField   nonuniform List<vector> 
2685
(
(0.000235772 -2.19937e-07 0)
(0.000237491 -1.72082e-07 0)
(0.000239048 -1.31821e-07 0)
(0.000240455 -9.79861e-08 0)
(0.000241726 -6.95274e-08 0)
(0.000242873 -4.55439e-08 0)
(0.000243907 -2.52956e-08 0)
(0.000244838 -8.20706e-09 0)
(0.000245677 6.14083e-09 0)
(0.000246433 1.8028e-08 0)
(0.000247116 2.76211e-08 0)
(0.000247733 3.50036e-08 0)
(0.000248293 4.0207e-08 0)
(0.000248803 4.32395e-08 0)
(0.00024927 4.41092e-08 0)
(0.0002497 4.28424e-08 0)
(0.000250098 3.94967e-08 0)
(0.00025047 3.41696e-08 0)
(0.000250819 2.70062e-08 0)
(0.00025115 1.82033e-08 0)
(0.000251465 8.01182e-09 0)
(0.000251766 -3.2638e-09 0)
(0.000252057 -1.52707e-08 0)
(0.000252339 -2.7617e-08 0)
(0.000252613 -3.98881e-08 0)
(0.000252881 -5.16695e-08 0)
(0.000253143 -6.25729e-08 0)
(0.0002534 -7.22604e-08 0)
(0.000253653 -8.04632e-08 0)
(0.000253901 -8.69943e-08 0)
(0.000254143 -9.17554e-08 0)
(0.00025438 -9.47345e-08 0)
(0.000254609 -9.59971e-08 0)
(0.000254832 -9.56785e-08 0)
(0.000255047 -9.39754e-08 0)
(0.000255252 -9.11339e-08 0)
(0.000255448 -8.74352e-08 0)
(0.000255634 -8.31868e-08 0)
(0.000255809 -7.87102e-08 0)
(0.000255972 -7.43229e-08 0)
(0.000256124 -7.03147e-08 0)
(0.000256263 -6.69219e-08 0)
(0.000256391 -6.43028e-08 0)
(0.000256506 -6.25176e-08 0)
(0.00025661 -6.15225e-08 0)
(0.000256701 -6.11813e-08 0)
(0.000256781 -6.12934e-08 0)
(0.000256851 -6.1634e-08 0)
(0.00025691 -6.19959e-08 0)
(0.000256959 -6.22234e-08 0)
(0.000257 -6.22305e-08 0)
(0.000257033 -6.20003e-08 0)
(0.000257058 -6.1568e-08 0)
(0.000257076 -6.09944e-08 0)
(0.000257088 -6.034e-08 0)
(0.000257095 -5.96435e-08 0)
(0.000257096 -5.88783e-08 0)
(0.000257093 -5.79609e-08 0)
(0.000257087 -5.69313e-08 0)
(0.000257076 -5.56735e-08 0)
(0.000257063 -5.40043e-08 0)
(0.000257046 -5.16938e-08 0)
(0.000257026 -4.84686e-08 0)
(0.000257003 -4.42906e-08 0)
(0.000256978 -3.9138e-08 0)
(0.000256951 -3.30833e-08 0)
(0.000256923 -2.62991e-08 0)
(0.000256895 -1.90389e-08 0)
(0.000256867 -1.16078e-08 0)
(0.000256839 -4.32932e-09 0)
(0.000256814 2.48866e-09 0)
(0.00025679 8.57685e-09 0)
(0.000256769 1.3721e-08 0)
(0.00025675 1.77979e-08 0)
(0.000256734 2.0833e-08 0)
(0.000256719 2.29347e-08 0)
(0.000256706 2.41478e-08 0)
(0.000256695 2.45025e-08 0)
(0.000256685 2.40779e-08 0)
(0.000256676 2.29874e-08 0)
(0.000256667 2.13651e-08 0)
(0.000256658 1.93634e-08 0)
(0.00025665 1.71162e-08 0)
(0.000256642 1.47721e-08 0)
(0.000256634 1.2403e-08 0)
(0.000256627 1.00975e-08 0)
(0.00025662 7.85907e-09 0)
(0.000256614 5.68115e-09 0)
(0.000256608 3.08334e-09 0)
(0.000599012 -7.518e-06 0)
(0.00060316 -6.83806e-06 0)
(0.000607063 -6.20837e-06 0)
(0.00061073 -5.62777e-06 0)
(0.000614171 -5.09486e-06 0)
(0.000617396 -4.60797e-06 0)
(0.000620415 -4.16524e-06 0)
(0.00062324 -3.76461e-06 0)
(0.000625881 -3.40392e-06 0)
(0.000628351 -3.08095e-06 0)
(0.00063066 -2.79344e-06 0)
(0.000632821 -2.53912e-06 0)
(0.000634846 -2.31566e-06 0)
(0.000636746 -2.12064e-06 0)
(0.000638533 -1.9515e-06 0)
(0.000640217 -1.80554e-06 0)
(0.000641809 -1.67999e-06 0)
(0.000643319 -1.57204e-06 0)
(0.000644755 -1.47905e-06 0)
(0.000646125 -1.39855e-06 0)
(0.000647436 -1.32841e-06 0)
(0.000648693 -1.26685e-06 0)
(0.000649903 -1.21248e-06 0)
(0.000651068 -1.16428e-06 0)
(0.000652193 -1.12147e-06 0)
(0.000653281 -1.08335e-06 0)
(0.000654331 -1.04913e-06 0)
(0.000655346 -1.01779e-06 0)
(0.000656325 -9.88175e-07 0)
(0.000657269 -9.59133e-07 0)
(0.000658176 -9.29731e-07 0)
(0.000659046 -8.99327e-07 0)
(0.000659877 -8.67543e-07 0)
(0.000660669 -8.34173e-07 0)
(0.000661422 -7.99091e-07 0)
(0.000662135 -7.62206e-07 0)
(0.000662807 -7.23439e-07 0)
(0.000663438 -6.82733e-07 0)
(0.00066403 -6.40063e-07 0)
(0.000664583 -5.95461e-07 0)
(0.000665098 -5.49046e-07 0)
(0.000665575 -5.01058e-07 0)
(0.000666017 -4.51894e-07 0)
(0.000666424 -4.02099e-07 0)
(0.0006668 -3.52336e-07 0)
(0.000667145 -3.03323e-07 0)
(0.00066746 -2.55761e-07 0)
(0.000667748 -2.10277e-07 0)
(0.000668009 -1.67391e-07 0)
(0.000668243 -1.27494e-07 0)
(0.000668453 -9.08488e-08 0)
(0.000668638 -5.75687e-08 0)
(0.0006688 -2.76146e-08 0)
(0.000668941 -8.11688e-10 0)
(0.000669062 2.31077e-08 0)
(0.000669165 4.44735e-08 0)
(0.000669251 6.36932e-08 0)
(0.000669322 8.11682e-08 0)
(0.000669379 9.71241e-08 0)
(0.000669424 1.11772e-07 0)
(0.000669457 1.25194e-07 0)
(0.000669481 1.37228e-07 0)
(0.000669494 1.47391e-07 0)
(0.000669497 1.55169e-07 0)
(0.00066949 1.59899e-07 0)
(0.000669475 1.61009e-07 0)
(0.00066945 1.58164e-07 0)
(0.000669418 1.51334e-07 0)
(0.000669379 1.40831e-07 0)
(0.000669335 1.27284e-07 0)
(0.000669287 1.11575e-07 0)
(0.000669238 9.47255e-08 0)
(0.000669188 7.77984e-08 0)
(0.000669138 6.1757e-08 0)
(0.000669091 4.73717e-08 0)
(0.000669046 3.53298e-08 0)
(0.000669003 2.60323e-08 0)
(0.000668963 1.94905e-08 0)
(0.000668926 1.54554e-08 0)
(0.000668891 1.35183e-08 0)
(0.000668859 1.31675e-08 0)
(0.000668831 1.39241e-08 0)
(0.000668805 1.51915e-08 0)
(0.000668782 1.67831e-08 0)
(0.000668761 1.78437e-08 0)
(0.000668744 1.91429e-08 0)
(0.000668727 1.86202e-08 0)
(0.000668715 1.94227e-08 0)
(0.000668698 1.64796e-08 0)
(0.000820419 -1.89528e-05 0)
(0.000824242 -1.7803e-05 0)
(0.000827943 -1.67039e-05 0)
(0.000831523 -1.56551e-05 0)
(0.000834983 -1.46565e-05 0)
(0.000838324 -1.37083e-05 0)
(0.000841546 -1.28109e-05 0)
(0.000844651 -1.1965e-05 0)
(0.000847638 -1.11712e-05 0)
(0.000850511 -1.04302e-05 0)
(0.000853272 -9.74273e-06 0)
(0.000855926 -9.1089e-06 0)
(0.000858479 -8.52846e-06 0)
(0.000860937 -8.00051e-06 0)
(0.000863306 -7.52347e-06 0)
(0.000865592 -7.09506e-06 0)
(0.000867801 -6.71247e-06 0)
(0.000869938 -6.37243e-06 0)
(0.000872007 -6.0714e-06 0)
(0.000874012 -5.80564e-06 0)
(0.000875958 -5.57126e-06 0)
(0.00087785 -5.36417e-06 0)
(0.000879693 -5.1801e-06 0)
(0.000881495 -5.01452e-06 0)
(0.000883261 -4.86267e-06 0)
(0.000884997 -4.71973e-06 0)
(0.000886709 -4.58104e-06 0)
(0.0008884 -4.44238e-06 0)
(0.000890071 -4.30033e-06 0)
(0.000891721 -4.15247e-06 0)
(0.000893347 -3.9975e-06 0)
(0.000894944 -3.83514e-06 0)
(0.000896507 -3.66593e-06 0)
(0.000898029 -3.49098e-06 0)
(0.000899503 -3.3117e-06 0)
(0.000900921 -3.1296e-06 0)
(0.000902279 -2.94624e-06 0)
(0.000903571 -2.76321e-06 0)
(0.000904793 -2.58217e-06 0)
(0.000905945 -2.40481e-06 0)
(0.000907024 -2.23283e-06 0)
(0.000908032 -2.06774e-06 0)
(0.000908972 -1.91073e-06 0)
(0.000909846 -1.76246e-06 0)
(0.000910658 -1.62293e-06 0)
(0.000911413 -1.49145e-06 0)
(0.000912112 -1.36687e-06 0)
(0.00091276 -1.24792e-06 0)
(0.000913359 -1.13352e-06 0)
(0.000913912 -1.02315e-06 0)
(0.000914421 -9.16878e-07 0)
(0.00091489 -8.15283e-07 0)
(0.000915321 -7.19116e-07 0)
(0.000915718 -6.29005e-07 0)
(0.000916084 -5.4539e-07 0)
(0.000916423 -4.68646e-07 0)
(0.000916737 -3.9913e-07 0)
(0.000917028 -3.36911e-07 0)
(0.000917297 -2.81283e-07 0)
(0.000917543 -2.30824e-07 0)
(0.000917767 -1.83717e-07 0)
(0.000917968 -1.38387e-07 0)
(0.000918147 -9.3868e-08 0)
(0.000918305 -4.95659e-08 0)
(0.000918445 -5.5588e-09 0)
(0.00091857 3.74709e-08 0)
(0.000918683 7.84159e-08 0)
(0.000918789 1.15943e-07 0)
(0.00091889 1.48767e-07 0)
(0.000918989 1.75884e-07 0)
(0.000919086 1.96807e-07 0)
(0.000919182 2.11583e-07 0)
(0.000919275 2.20768e-07 0)
(0.000919361 2.25001e-07 0)
(0.000919438 2.2487e-07 0)
(0.000919502 2.20824e-07 0)
(0.00091955 2.13568e-07 0)
(0.000919583 2.03662e-07 0)
(0.000919597 1.91732e-07 0)
(0.000919594 1.78312e-07 0)
(0.000919573 1.6372e-07 0)
(0.00091954 1.48778e-07 0)
(0.000919491 1.33015e-07 0)
(0.000919439 1.18745e-07 0)
(0.000919372 1.02951e-07 0)
(0.000919319 9.1419e-08 0)
(0.000919239 7.54727e-08 0)
(0.000919202 6.8706e-08 0)
(0.00091911 5.15764e-08 0)
(0.000968067 -2.47925e-05 0)
(0.000969257 -2.35677e-05 0)
(0.000970456 -2.23961e-05 0)
(0.000971659 -2.12764e-05 0)
(0.000972866 -2.02068e-05 0)
(0.000974074 -1.91855e-05 0)
(0.000975283 -1.82114e-05 0)
(0.00097649 -1.72845e-05 0)
(0.000977694 -1.6406e-05 0)
(0.000978892 -1.55784e-05 0)
(0.000980084 -1.48048e-05 0)
(0.000981268 -1.4088e-05 0)
(0.000982447 -1.34293e-05 0)
(0.000983622 -1.28279e-05 0)
(0.000984799 -1.22806e-05 0)
(0.000985982 -1.17823e-05 0)
(0.000987178 -1.1327e-05 0)
(0.000988389 -1.09089e-05 0)
(0.000989619 -1.05234e-05 0)
(0.000990868 -1.01679e-05 0)
(0.000992136 -9.84181e-06 0)
(0.000993422 -9.54608e-06 0)
(0.000994726 -9.28215e-06 0)
(0.000996048 -9.05081e-06 0)
(0.000997389 -8.8511e-06 0)
(0.000998753 -8.67957e-06 0)
(0.00100014 -8.53019e-06 0)
(0.00100157 -8.39466e-06 0)
(0.00100302 -8.26335e-06 0)
(0.00100451 -8.12642e-06 0)
(0.00100604 -7.97492e-06 0)
(0.0010076 -7.80164e-06 0)
(0.00100918 -7.60168e-06 0)
(0.00101077 -7.3725e-06 0)
(0.00101237 -7.11383e-06 0)
(0.00101396 -6.82739e-06 0)
(0.00101552 -6.51653e-06 0)
(0.00101705 -6.18595e-06 0)
(0.00101853 -5.84139e-06 0)
(0.00101995 -5.48921e-06 0)
(0.00102131 -5.13591e-06 0)
(0.00102259 -4.78753e-06 0)
(0.0010238 -4.44901e-06 0)
(0.00102493 -4.1238e-06 0)
(0.00102599 -3.81365e-06 0)
(0.00102697 -3.5188e-06 0)
(0.00102788 -3.23853e-06 0)
(0.00102872 -2.97191e-06 0)
(0.00102949 -2.71845e-06 0)
(0.0010302 -2.47863e-06 0)
(0.00103086 -2.25381e-06 0)
(0.00103146 -2.0458e-06 0)
(0.00103201 -1.85611e-06 0)
(0.00103252 -1.68519e-06 0)
(0.00103299 -1.53197e-06 0)
(0.00103342 -1.39374e-06 0)
(0.00103383 -1.2666e-06 0)
(0.0010342 -1.14622e-06 0)
(0.00103455 -1.02883e-06 0)
(0.00103488 -9.12139e-07 0)
(0.00103517 -7.95954e-07 0)
(0.00103544 -6.82254e-07 0)
(0.00103568 -5.74801e-07 0)
(0.00103589 -4.78587e-07 0)
(0.00103607 -3.98395e-07 0)
(0.00103623 -3.37719e-07 0)
(0.00103637 -2.9793e-07 0)
(0.0010365 -2.77921e-07 0)
(0.00103663 -2.74152e-07 0)
(0.00103676 -2.81198e-07 0)
(0.0010369 -2.92459e-07 0)
(0.00103705 -3.01179e-07 0)
(0.00103721 -3.0138e-07 0)
(0.00103738 -2.8858e-07 0)
(0.00103756 -2.60526e-07 0)
(0.00103775 -2.16846e-07 0)
(0.00103793 -1.60275e-07 0)
(0.0010381 -9.32842e-08 0)
(0.00103826 -2.24722e-08 0)
(0.00103839 5.06162e-08 0)
(0.00103849 1.15914e-07 0)
(0.00103857 1.77994e-07 0)
(0.00103861 2.2114e-07 0)
(0.00103864 2.62335e-07 0)
(0.00103862 2.74469e-07 0)
(0.00103863 2.94711e-07 0)
(0.00103855 2.75749e-07 0)
(0.00103854 2.82234e-07 0)
(0.00103843 2.40169e-07 0)
(0.00106355 -2.40924e-05 0)
(0.0010626 -2.29754e-05 0)
(0.00106171 -2.19024e-05 0)
(0.00106089 -2.08721e-05 0)
(0.00106013 -1.98848e-05 0)
(0.00105944 -1.89407e-05 0)
(0.00105881 -1.80402e-05 0)
(0.00105823 -1.7183e-05 0)
(0.00105771 -1.63692e-05 0)
(0.00105724 -1.56003e-05 0)
(0.00105681 -1.48802e-05 0)
(0.00105643 -1.42149e-05 0)
(0.00105608 -1.36117e-05 0)
(0.00105577 -1.30774e-05 0)
(0.00105549 -1.26157e-05 0)
(0.00105524 -1.22263e-05 0)
(0.00105504 -1.19042e-05 0)
(0.00105488 -1.16408e-05 0)
(0.00105478 -1.14255e-05 0)
(0.00105473 -1.12484e-05 0)
(0.00105475 -1.11015e-05 0)
(0.00105483 -1.09798e-05 0)
(0.00105498 -1.08819e-05 0)
(0.0010552 -1.08082e-05 0)
(0.0010555 -1.07599e-05 0)
(0.00105586 -1.07369e-05 0)
(0.0010563 -1.07365e-05 0)
(0.00105681 -1.07524e-05 0)
(0.0010574 -1.07748e-05 0)
(0.00105808 -1.07912e-05 0)
(0.00105883 -1.07878e-05 0)
(0.00105967 -1.0751e-05 0)
(0.00106058 -1.06691e-05 0)
(0.00106157 -1.05331e-05 0)
(0.00106262 -1.03376e-05 0)
(0.00106373 -1.00808e-05 0)
(0.00106488 -9.76448e-06 0)
(0.00106606 -9.39351e-06 0)
(0.00106725 -8.97541e-06 0)
(0.00106843 -8.51989e-06 0)
(0.00106959 -8.03814e-06 0)
(0.00107072 -7.54203e-06 0)
(0.0010718 -7.04303e-06 0)
(0.00107282 -6.55122e-06 0)
(0.00107378 -6.07435e-06 0)
(0.00107467 -5.61737e-06 0)
(0.0010755 -5.18249e-06 0)
(0.00107626 -4.76989e-06 0)
(0.00107695 -4.37872e-06 0)
(0.00107758 -4.00835e-06 0)
(0.00107816 -3.65914e-06 0)
(0.00107868 -3.33272e-06 0)
(0.00107914 -3.03158e-06 0)
(0.00107956 -2.75809e-06 0)
(0.00107994 -2.51334e-06 0)
(0.00108028 -2.29621e-06 0)
(0.00108058 -2.10291e-06 0)
(0.00108086 -1.9273e-06 0)
(0.00108112 -1.76195e-06 0)
(0.00108135 -1.59973e-06 0)
(0.00108157 -1.43548e-06 0)
(0.00108177 -1.26739e-06 0)
(0.00108196 -1.09754e-06 0)
(0.00108212 -9.31542e-07 0)
(0.00108226 -7.77505e-07 0)
(0.00108238 -6.44264e-07 0)
(0.00108247 -5.39635e-07 0)
(0.00108255 -4.68676e-07 0)
(0.00108262 -4.32755e-07 0)
(0.00108268 -4.28865e-07 0)
(0.00108275 -4.50439e-07 0)
(0.00108282 -4.87541e-07 0)
(0.0010829 -5.29575e-07 0)
(0.00108299 -5.64764e-07 0)
(0.0010831 -5.84947e-07 0)
(0.00108323 -5.8146e-07 0)
(0.00108337 -5.5394e-07 0)
(0.00108351 -4.97885e-07 0)
(0.00108366 -4.22947e-07 0)
(0.00108381 -3.24764e-07 0)
(0.00108394 -2.23686e-07 0)
(0.00108407 -1.07985e-07 0)
(0.00108417 -1.01387e-08 0)
(0.00108427 9.67943e-08 0)
(0.00108432 1.66564e-07 0)
(0.00108438 2.46666e-07 0)
(0.00108438 2.78831e-07 0)
(0.00108441 3.22924e-07 0)
(0.00108438 3.26581e-07 0)
(0.00109517 -2.05101e-05 0)
(0.00109354 -1.95767e-05 0)
(0.001092 -1.8695e-05 0)
(0.00109055 -1.78613e-05 0)
(0.00108921 -1.70718e-05 0)
(0.00108796 -1.63232e-05 0)
(0.00108683 -1.56116e-05 0)
(0.0010858 -1.49337e-05 0)
(0.00108488 -1.42867e-05 0)
(0.00108406 -1.36696e-05 0)
(0.00108335 -1.30841e-05 0)
(0.00108273 -1.25352e-05 0)
(0.0010822 -1.20299e-05 0)
(0.00108176 -1.15765e-05 0)
(0.0010814 -1.11819e-05 0)
(0.00108111 -1.08506e-05 0)
(0.00108087 -1.05835e-05 0)
(0.00108069 -1.03782e-05 0)
(0.00108056 -1.02297e-05 0)
(0.00108047 -1.01322e-05 0)
(0.00108043 -1.00802e-05 0)
(0.00108043 -1.00697e-05 0)
(0.00108047 -1.00983e-05 0)
(0.00108055 -1.01647e-05 0)
(0.00108068 -1.02681e-05 0)
(0.00108086 -1.04069e-05 0)
(0.00108108 -1.05774e-05 0)
(0.00108134 -1.07732e-05 0)
(0.00108164 -1.09847e-05 0)
(0.00108199 -1.11993e-05 0)
(0.00108239 -1.14024e-05 0)
(0.00108284 -1.1578e-05 0)
(0.00108335 -1.17102e-05 0)
(0.00108391 -1.17845e-05 0)
(0.00108454 -1.17886e-05 0)
(0.00108523 -1.17134e-05 0)
(0.00108597 -1.15534e-05 0)
(0.00108677 -1.13072e-05 0)
(0.00108761 -1.09779e-05 0)
(0.00108847 -1.05723e-05 0)
(0.00108935 -1.01012e-05 0)
(0.00109023 -9.57819e-06 0)
(0.00109109 -9.01839e-06 0)
(0.00109191 -8.43718e-06 0)
(0.0010927 -7.84871e-06 0)
(0.00109342 -7.2648e-06 0)
(0.00109409 -6.69435e-06 0)
(0.0010947 -6.14344e-06 0)
(0.00109523 -5.61603e-06 0)
(0.00109571 -5.11491e-06 0)
(0.00109612 -4.64263e-06 0)
(0.00109647 -4.20205e-06 0)
(0.00109678 -3.79623e-06 0)
(0.00109703 -3.42782e-06 0)
(0.00109725 -3.09806e-06 0)
(0.00109743 -2.80583e-06 0)
(0.00109758 -2.54719e-06 0)
(0.0010977 -2.31559e-06 0)
(0.0010978 -2.10278e-06 0)
(0.00109788 -1.90045e-06 0)
(0.00109794 -1.70194e-06 0)
(0.00109799 -1.50379e-06 0)
(0.00109803 -1.30666e-06 0)
(0.00109805 -1.11523e-06 0)
(0.00109807 -9.37347e-07 0)
(0.00109809 -7.82307e-07 0)
(0.00109809 -6.59082e-07 0)
(0.0010981 -5.74073e-07 0)
(0.00109811 -5.30218e-07 0)
(0.00109811 -5.25409e-07 0)
(0.00109812 -5.53816e-07 0)
(0.00109813 -6.04791e-07 0)
(0.00109815 -6.67109e-07 0)
(0.00109817 -7.263e-07 0)
(0.0010982 -7.72718e-07 0)
(0.00109825 -7.935e-07 0)
(0.0010983 -7.87307e-07 0)
(0.00109836 -7.44976e-07 0)
(0.00109842 -6.77483e-07 0)
(0.0010985 -5.76258e-07 0)
(0.00109857 -4.6567e-07 0)
(0.00109864 -3.30908e-07 0)
(0.0010987 -2.09293e-07 0)
(0.00109877 -7.29755e-08 0)
(0.00109882 3.03659e-08 0)
(0.00109888 1.41013e-07 0)
(0.00109891 2.12058e-07 0)
(0.00109894 2.76714e-07 0)
(0.00109897 3.23187e-07 0)
(0.00108939 -1.65209e-05 0)
(0.0010875 -1.5797e-05 0)
(0.00108571 -1.51376e-05 0)
(0.00108403 -1.45417e-05 0)
(0.00108245 -1.40071e-05 0)
(0.001081 -1.35298e-05 0)
(0.00107967 -1.31042e-05 0)
(0.00107848 -1.27239e-05 0)
(0.00107744 -1.23825e-05 0)
(0.00107654 -1.20755e-05 0)
(0.0010758 -1.18005e-05 0)
(0.00107522 -1.15577e-05 0)
(0.00107479 -1.13485e-05 0)
(0.00107451 -1.11749e-05 0)
(0.00107439 -1.10378e-05 0)
(0.0010744 -1.09371e-05 0)
(0.00107455 -1.0871e-05 0)
(0.00107482 -1.08371e-05 0)
(0.0010752 -1.08329e-05 0)
(0.00107568 -1.08566e-05 0)
(0.00107626 -1.09071e-05 0)
(0.00107691 -1.09841e-05 0)
(0.00107763 -1.10874e-05 0)
(0.00107842 -1.12165e-05 0)
(0.00107926 -1.13704e-05 0)
(0.00108014 -1.15468e-05 0)
(0.00108106 -1.17425e-05 0)
(0.001082 -1.19534e-05 0)
(0.00108296 -1.21738e-05 0)
(0.00108394 -1.23969e-05 0)
(0.00108494 -1.26144e-05 0)
(0.00108596 -1.2816e-05 0)
(0.00108699 -1.29896e-05 0)
(0.00108804 -1.31219e-05 0)
(0.00108911 -1.31984e-05 0)
(0.00109021 -1.32048e-05 0)
(0.00109132 -1.31284e-05 0)
(0.00109244 -1.29593e-05 0)
(0.00109357 -1.26922e-05 0)
(0.00109468 -1.23267e-05 0)
(0.00109577 -1.18681e-05 0)
(0.00109682 -1.1327e-05 0)
(0.00109783 -1.07179e-05 0)
(0.00109876 -1.00578e-05 0)
(0.00109962 -9.36463e-06 0)
(0.0011004 -8.6554e-06 0)
(0.00110109 -7.94533e-06 0)
(0.00110168 -7.24716e-06 0)
(0.00110219 -6.57131e-06 0)
(0.00110261 -5.92625e-06 0)
(0.00110294 -5.31895e-06 0)
(0.0011032 -4.75521e-06 0)
(0.0011034 -4.23957e-06 0)
(0.00110354 -3.77483e-06 0)
(0.00110363 -3.36148e-06 0)
(0.00110368 -2.9972e-06 0)
(0.00110369 -2.67678e-06 0)
(0.00110367 -2.39259e-06 0)
(0.00110363 -2.13573e-06 0)
(0.00110357 -1.89749e-06 0)
(0.00110349 -1.67097e-06 0)
(0.00110341 -1.4524e-06 0)
(0.00110332 -1.24191e-06 0)
(0.00110323 -1.04329e-06 0)
(0.00110315 -8.63356e-07 0)
(0.00110307 -7.10071e-07 0)
(0.001103 -5.9118e-07 0)
(0.00110294 -5.11878e-07 0)
(0.0011029 -4.74321e-07 0)
(0.00110285 -4.75748e-07 0)
(0.00110282 -5.10339e-07 0)
(0.00110279 -5.67414e-07 0)
(0.00110276 -6.36424e-07 0)
(0.00110274 -7.03127e-07 0)
(0.00110271 -7.58763e-07 0)
(0.00110269 -7.90374e-07 0)
(0.00110267 -7.96984e-07 0)
(0.00110266 -7.68692e-07 0)
(0.00110264 -7.15781e-07 0)
(0.00110264 -6.28987e-07 0)
(0.00110264 -5.30664e-07 0)
(0.00110264 -4.06968e-07 0)
(0.00110266 -2.90952e-07 0)
(0.00110267 -1.6011e-07 0)
(0.0011027 -5.32925e-08 0)
(0.00110272 5.64227e-08 0)
(0.00110276 1.39509e-07 0)
(0.00110277 2.0505e-07 0)
(0.00110282 2.70583e-07 0)
(0.00109217 -1.20064e-05 0)
(0.00108961 -1.149e-05 0)
(0.00108715 -1.10535e-05 0)
(0.0010848 -1.0699e-05 0)
(0.00108256 -1.04261e-05 0)
(0.00108044 -1.02317e-05 0)
(0.00107846 -1.01101e-05 0)
(0.00107661 -1.00539e-05 0)
(0.00107491 -1.00548e-05 0)
(0.00107338 -1.01057e-05 0)
(0.00107201 -1.0201e-05 0)
(0.00107082 -1.03371e-05 0)
(0.00106982 -1.05112e-05 0)
(0.00106901 -1.07208e-05 0)
(0.0010684 -1.09623e-05 0)
(0.00106799 -1.12309e-05 0)
(0.00106777 -1.15207e-05 0)
(0.00106775 -1.18252e-05 0)
(0.00106791 -1.21386e-05 0)
(0.00106824 -1.24558e-05 0)
(0.00106873 -1.27734e-05 0)
(0.00106937 -1.30893e-05 0)
(0.00107014 -1.34024e-05 0)
(0.00107104 -1.37121e-05 0)
(0.00107207 -1.40185e-05 0)
(0.0010732 -1.43219e-05 0)
(0.00107443 -1.46223e-05 0)
(0.00107576 -1.49195e-05 0)
(0.00107718 -1.5212e-05 0)
(0.00107868 -1.54968e-05 0)
(0.00108026 -1.57681e-05 0)
(0.0010819 -1.60169e-05 0)
(0.00108359 -1.62308e-05 0)
(0.00108533 -1.63939e-05 0)
(0.00108709 -1.6488e-05 0)
(0.00108886 -1.64943e-05 0)
(0.00109062 -1.63952e-05 0)
(0.00109235 -1.61766e-05 0)
(0.00109404 -1.58297e-05 0)
(0.00109567 -1.53526e-05 0)
(0.0010972 -1.47503e-05 0)
(0.00109864 -1.40349e-05 0)
(0.00109997 -1.32239e-05 0)
(0.00110117 -1.2339e-05 0)
(0.00110224 -1.14039e-05 0)
(0.00110318 -1.04424e-05 0)
(0.00110397 -9.47688e-06 0)
(0.00110464 -8.52765e-06 0)
(0.00110517 -7.61203e-06 0)
(0.00110559 -6.74431e-06 0)
(0.0011059 -5.9357e-06 0)
(0.00110611 -5.19422e-06 0)
(0.00110624 -4.52469e-06 0)
(0.0011063 -3.92857e-06 0)
(0.00110631 -3.40393e-06 0)
(0.00110626 -2.9457e-06 0)
(0.00110617 -2.5463e-06 0)
(0.00110605 -2.19653e-06 0)
(0.0011059 -1.88691e-06 0)
(0.00110573 -1.609e-06 0)
(0.00110555 -1.35656e-06 0)
(0.00110537 -1.12631e-06 0)
(0.00110518 -9.18145e-07 0)
(0.00110501 -7.34587e-07 0)
(0.00110484 -5.80015e-07 0)
(0.0011047 -4.59062e-07 0)
(0.00110457 -3.75596e-07 0)
(0.00110446 -3.30925e-07 0)
(0.00110437 -3.23959e-07 0)
(0.00110429 -3.49649e-07 0)
(0.00110421 -4.01208e-07 0)
(0.00110415 -4.68229e-07 0)
(0.00110409 -5.41377e-07 0)
(0.00110403 -6.08457e-07 0)
(0.00110396 -6.62711e-07 0)
(0.0011039 -6.93723e-07 0)
(0.00110384 -7.01636e-07 0)
(0.00110377 -6.78798e-07 0)
(0.00110372 -6.3441e-07 0)
(0.00110366 -5.61429e-07 0)
(0.00110362 -4.78184e-07 0)
(0.00110359 -3.74375e-07 0)
(0.00110357 -2.75647e-07 0)
(0.00110355 -1.66139e-07 0)
(0.00110356 -7.3834e-08 0)
(0.00110355 1.79967e-08 0)
(0.00110359 9.27306e-08 0)
(0.00110359 1.47818e-07 0)
(0.00110364 2.10128e-07 0)
(0.00113076 -5.17713e-06 0)
(0.00112708 -4.88394e-06 0)
(0.00112351 -4.67732e-06 0)
(0.00112005 -4.5628e-06 0)
(0.00111671 -4.54368e-06 0)
(0.00111349 -4.62016e-06 0)
(0.00111038 -4.78945e-06 0)
(0.0011074 -5.04655e-06 0)
(0.00110455 -5.3857e-06 0)
(0.00110183 -5.80181e-06 0)
(0.00109925 -6.29099e-06 0)
(0.00109682 -6.85e-06 0)
(0.00109455 -7.47448e-06 0)
(0.00109245 -8.15735e-06 0)
(0.00109053 -8.88796e-06 0)
(0.0010888 -9.65243e-06 0)
(0.00108728 -1.04337e-05 0)
(0.00108597 -1.12152e-05 0)
(0.00108487 -1.1984e-05 0)
(0.00108398 -1.27313e-05 0)
(0.0010833 -1.34532e-05 0)
(0.00108284 -1.41504e-05 0)
(0.00108257 -1.48262e-05 0)
(0.00108251 -1.54851e-05 0)
(0.00108265 -1.6131e-05 0)
(0.00108297 -1.67658e-05 0)
(0.00108349 -1.73891e-05 0)
(0.00108418 -1.79972e-05 0)
(0.00108504 -1.85837e-05 0)
(0.00108606 -1.9139e-05 0)
(0.00108722 -1.965e-05 0)
(0.00108851 -2.01009e-05 0)
(0.00108989 -2.04724e-05 0)
(0.00109135 -2.07433e-05 0)
(0.00109287 -2.08915e-05 0)
(0.00109441 -2.08957e-05 0)
(0.00109596 -2.07379e-05 0)
(0.00109748 -2.04054e-05 0)
(0.00109895 -1.98928e-05 0)
(0.00110036 -1.92026e-05 0)
(0.00110168 -1.83462e-05 0)
(0.00110289 -1.73426e-05 0)
(0.00110399 -1.62174e-05 0)
(0.00110496 -1.50005e-05 0)
(0.0011058 -1.37243e-05 0)
(0.00110651 -1.24212e-05 0)
(0.00110709 -1.11221e-05 0)
(0.00110755 -9.85468e-06 0)
(0.00110789 -8.64275e-06 0)
(0.00110811 -7.50539e-06 0)
(0.00110825 -6.4567e-06 0)
(0.00110829 -5.50568e-06 0)
(0.00110827 -4.65637e-06 0)
(0.00110818 -3.90818e-06 0)
(0.00110804 -3.25653e-06 0)
(0.00110785 -2.69365e-06 0)
(0.00110763 -2.20976e-06 0)
(0.00110739 -1.79426e-06 0)
(0.00110712 -1.43699e-06 0)
(0.00110685 -1.12923e-06 0)
(0.00110657 -8.64533e-07 0)
(0.0011063 -6.38829e-07 0)
(0.00110603 -4.50391e-07 0)
(0.00110579 -2.99063e-07 0)
(0.00110556 -1.85578e-07 0)
(0.00110536 -1.10233e-07 0)
(0.00110518 -7.25125e-08 0)
(0.00110503 -6.98062e-08 0)
(0.00110489 -9.79604e-08 0)
(0.00110477 -1.50214e-07 0)
(0.00110467 -2.19181e-07 0)
(0.00110457 -2.95347e-07 0)
(0.00110447 -3.71027e-07 0)
(0.00110438 -4.3689e-07 0)
(0.00110429 -4.88408e-07 0)
(0.0011042 -5.18524e-07 0)
(0.00110411 -5.28345e-07 0)
(0.00110402 -5.13183e-07 0)
(0.00110395 -4.80603e-07 0)
(0.00110388 -4.26382e-07 0)
(0.00110382 -3.63981e-07 0)
(0.00110377 -2.86956e-07 0)
(0.00110374 -2.13003e-07 0)
(0.00110371 -1.32292e-07 0)
(0.00110371 -6.27824e-08 0)
(0.00110369 4.67826e-09 0)
(0.00110372 6.19441e-08 0)
(0.00110372 1.02295e-07 0)
(0.00110377 1.51144e-07 0)
(0.00119703 4.21892e-06 0)
(0.00119265 4.26678e-06 0)
(0.00118837 4.22724e-06 0)
(0.00118419 4.09709e-06 0)
(0.00118011 3.87456e-06 0)
(0.00117612 3.55973e-06 0)
(0.00117222 3.15507e-06 0)
(0.00116841 2.665e-06 0)
(0.00116469 2.09438e-06 0)
(0.00116105 1.44635e-06 0)
(0.00115749 7.20874e-07 0)
(0.00115401 -8.51585e-08 0)
(0.00115061 -9.76195e-07 0)
(0.00114731 -1.95462e-06 0)
(0.00114409 -3.01724e-06 0)
(0.00114098 -4.15376e-06 0)
(0.00113798 -5.34862e-06 0)
(0.00113512 -6.58199e-06 0)
(0.00113241 -7.83337e-06 0)
(0.00112986 -9.08538e-06 0)
(0.0011275 -1.03269e-05 0)
(0.00112532 -1.1553e-05 0)
(0.00112334 -1.27582e-05 0)
(0.00112156 -1.39411e-05 0)
(0.00111998 -1.51009e-05 0)
(0.00111859 -1.62346e-05 0)
(0.0011174 -1.73361e-05 0)
(0.00111638 -1.83954e-05 0)
(0.00111553 -1.93996e-05 0)
(0.00111484 -2.03326e-05 0)
(0.0011143 -2.11756e-05 0)
(0.00111388 -2.19077e-05 0)
(0.00111357 -2.25061e-05 0)
(0.00111336 -2.29472e-05 0)
(0.00111322 -2.32085e-05 0)
(0.00111315 -2.32695e-05 0)
(0.00111311 -2.31145e-05 0)
(0.0011131 -2.27346e-05 0)
(0.00111311 -2.2129e-05 0)
(0.00111311 -2.13059e-05 0)
(0.00111311 -2.02828e-05 0)
(0.00111308 -1.90855e-05 0)
(0.00111302 -1.77464e-05 0)
(0.00111294 -1.63027e-05 0)
(0.00111281 -1.47934e-05 0)
(0.00111265 -1.32578e-05 0)
(0.00111245 -1.17329e-05 0)
(0.00111221 -1.02518e-05 0)
(0.00111194 -8.84251e-06 0)
(0.00111163 -7.52708e-06 0)
(0.0011113 -6.32111e-06 0)
(0.00111094 -5.23383e-06 0)
(0.00111056 -4.26853e-06 0)
(0.00111017 -3.4233e-06 0)
(0.00110976 -2.69211e-06 0)
(0.00110935 -2.066e-06 0)
(0.00110893 -1.53458e-06 0)
(0.00110851 -1.08715e-06 0)
(0.00110809 -7.13652e-07 0)
(0.00110769 -4.05423e-07 0)
(0.0011073 -1.55594e-07 0)
(0.00110692 4.10632e-08 0)
(0.00110658 1.88398e-07 0)
(0.00110626 2.89562e-07 0)
(0.00110597 3.47498e-07 0)
(0.00110572 3.65831e-07 0)
(0.00110549 3.48836e-07 0)
(0.00110529 3.02196e-07 0)
(0.00110511 2.32284e-07 0)
(0.00110495 1.46783e-07 0)
(0.00110481 5.30651e-08 0)
(0.00110468 -4.07118e-08 0)
(0.00110456 -1.28453e-07 0)
(0.00110444 -2.03496e-07 0)
(0.00110433 -2.63007e-07 0)
(0.00110423 -3.02779e-07 0)
(0.00110414 -3.24248e-07 0)
(0.00110405 -3.25278e-07 0)
(0.00110397 -3.11483e-07 0)
(0.0011039 -2.81213e-07 0)
(0.00110384 -2.434e-07 0)
(0.00110379 -1.95191e-07 0)
(0.00110377 -1.47377e-07 0)
(0.00110374 -9.544e-08 0)
(0.00110374 -4.91704e-08 0)
(0.00110373 -5.43212e-09 0)
(0.00110375 3.37346e-08 0)
(0.00110375 5.99558e-08 0)
(0.00110379 9.43079e-08 0)
(0.00125254 1.41458e-05 0)
(0.00124868 1.40157e-05 0)
(0.00124488 1.37995e-05 0)
(0.00124113 1.34979e-05 0)
(0.00123742 1.31129e-05 0)
(0.00123374 1.26467e-05 0)
(0.0012301 1.21015e-05 0)
(0.00122648 1.14791e-05 0)
(0.00122289 1.07813e-05 0)
(0.00121931 1.00099e-05 0)
(0.00121576 9.16599e-06 0)
(0.00121222 8.24935e-06 0)
(0.0012087 7.25766e-06 0)
(0.0012052 6.18717e-06 0)
(0.00120171 5.03445e-06 0)
(0.00119822 3.79893e-06 0)
(0.00119475 2.48278e-06 0)
(0.00119129 1.09371e-06 0)
(0.00118785 -3.55173e-07 0)
(0.00118445 -1.84816e-06 0)
(0.00118109 -3.36814e-06 0)
(0.00117779 -4.89878e-06 0)
(0.00117457 -6.4309e-06 0)
(0.00117142 -7.95437e-06 0)
(0.00116835 -9.45892e-06 0)
(0.00116536 -1.09347e-05 0)
(0.00116244 -1.23717e-05 0)
(0.00115959 -1.37536e-05 0)
(0.00115681 -1.5065e-05 0)
(0.00115408 -1.62887e-05 0)
(0.00115141 -1.74051e-05 0)
(0.0011488 -1.83926e-05 0)
(0.00114624 -1.9228e-05 0)
(0.00114374 -1.98873e-05 0)
(0.0011413 -2.03476e-05 0)
(0.00113892 -2.05889e-05 0)
(0.00113662 -2.05961e-05 0)
(0.00113439 -2.03614e-05 0)
(0.00113224 -1.98855e-05 0)
(0.00113018 -1.91785e-05 0)
(0.00112822 -1.82594e-05 0)
(0.00112636 -1.71558e-05 0)
(0.00112462 -1.59015e-05 0)
(0.00112298 -1.45349e-05 0)
(0.00112145 -1.30962e-05 0)
(0.00112003 -1.16258e-05 0)
(0.00111871 -1.01613e-05 0)
(0.0011175 -8.73636e-06 0)
(0.00111638 -7.37939e-06 0)
(0.00111534 -6.11244e-06 0)
(0.00111438 -4.951e-06 0)
(0.0011135 -3.90431e-06 0)
(0.00111267 -2.97592e-06 0)
(0.0011119 -2.16496e-06 0)
(0.00111117 -1.46668e-06 0)
(0.00111049 -8.74019e-07 0)
(0.00110985 -3.78576e-07 0)
(0.00110924 2.83601e-08 0)
(0.00110867 3.55013e-07 0)
(0.00110814 6.08895e-07 0)
(0.00110765 7.96678e-07 0)
(0.0011072 9.2441e-07 0)
(0.00110679 9.97708e-07 0)
(0.00110642 1.02224e-06 0)
(0.00110609 1.00385e-06 0)
(0.0011058 9.48942e-07 0)
(0.00110554 8.6436e-07 0)
(0.00110532 7.57623e-07 0)
(0.00110512 6.36187e-07 0)
(0.00110494 5.07837e-07 0)
(0.00110479 3.79336e-07 0)
(0.00110465 2.57292e-07 0)
(0.00110452 1.46398e-07 0)
(0.0011044 5.11045e-08 0)
(0.0011043 -2.69331e-08 0)
(0.0011042 -8.56979e-08 0)
(0.00110411 -1.26648e-07 0)
(0.00110403 -1.49528e-07 0)
(0.00110397 -1.58275e-07 0)
(0.00110391 -1.53295e-07 0)
(0.00110387 -1.39979e-07 0)
(0.00110383 -1.18388e-07 0)
(0.00110381 -9.40892e-08 0)
(0.00110378 -6.67897e-08 0)
(0.00110379 -4.02253e-08 0)
(0.00110378 -1.58985e-08 0)
(0.0011038 8.47035e-09 0)
(0.0011038 2.33899e-08 0)
(0.00110383 4.60758e-08 0)
(0.00125487 2.11878e-05 0)
(0.00125282 2.10043e-05 0)
(0.00125076 2.07503e-05 0)
(0.00124869 2.04269e-05 0)
(0.0012466 2.00356e-05 0)
(0.00124447 1.95777e-05 0)
(0.00124232 1.90538e-05 0)
(0.00124012 1.84632e-05 0)
(0.00123787 1.78049e-05 0)
(0.00123557 1.70771e-05 0)
(0.00123322 1.62778e-05 0)
(0.00123081 1.54047e-05 0)
(0.00122834 1.44554e-05 0)
(0.00122581 1.34276e-05 0)
(0.00122323 1.23194e-05 0)
(0.00122058 1.11307e-05 0)
(0.00121787 9.86495e-06 0)
(0.00121508 8.52877e-06 0)
(0.00121224 7.13127e-06 0)
(0.00120932 5.68415e-06 0)
(0.00120635 4.20188e-06 0)
(0.00120331 2.70033e-06 0)
(0.00120019 1.18974e-06 0)
(0.00119699 -3.17112e-07 0)
(0.00119373 -1.806e-06 0)
(0.0011904 -3.26223e-06 0)
(0.001187 -4.6709e-06 0)
(0.00118354 -6.02252e-06 0)
(0.00118001 -7.30471e-06 0)
(0.0011764 -8.50382e-06 0)
(0.00117274 -9.60521e-06 0)
(0.00116901 -1.05927e-05 0)
(0.00116523 -1.14481e-05 0)
(0.00116143 -1.2154e-05 0)
(0.00115761 -1.26944e-05 0)
(0.00115381 -1.30548e-05 0)
(0.00115006 -1.32243e-05 0)
(0.00114638 -1.31976e-05 0)
(0.00114281 -1.29754e-05 0)
(0.00113938 -1.25653e-05 0)
(0.00113611 -1.19818e-05 0)
(0.00113303 -1.1245e-05 0)
(0.00113015 -1.03803e-05 0)
(0.00112749 -9.41618e-06 0)
(0.00112505 -8.38332e-06 0)
(0.00112282 -7.31241e-06 0)
(0.0011208 -6.23285e-06 0)
(0.00111899 -5.17134e-06 0)
(0.00111736 -4.1508e-06 0)
(0.00111591 -3.18998e-06 0)
(0.00111461 -2.30286e-06 0)
(0.00111344 -1.49899e-06 0)
(0.00111239 -7.83808e-07 0)
(0.00111145 -1.59114e-07 0)
(0.0011106 3.75709e-07 0)
(0.00110983 8.23047e-07 0)
(0.00110913 1.18664e-06 0)
(0.0011085 1.47102e-06 0)
(0.00110793 1.68108e-06 0)
(0.00110742 1.82206e-06 0)
(0.00110695 1.89952e-06 0)
(0.00110655 1.91945e-06 0)
(0.00110618 1.88825e-06 0)
(0.00110587 1.81294e-06 0)
(0.00110559 1.70096e-06 0)
(0.00110536 1.56024e-06 0)