/*--------------------------------*- C++ -*----------------------------------*\
| =========                 |                                                 |
| \\      /  F ield         | OpenFOAM: The Open Source CFD Toolbox           |
|  \\    /   O peration     | Version:  2312                                  |
|   \\  /    A nd           | Website:  www.openfoam.com                      |
|    \\/     M anipulation  |                                                 |
\*---------------------------------------------------------------------------*/
FoamFile
{
    version     2.0;
    format      ascii;
    arch        "LSB;label=32;scalar=64";
    class       surfaceScalarField;
    location    "170000";
    object      phi;
}
// * * * * * * * * * * * * * * * * * * * * * * * * * * * * * * * * * * * * * //

dimensions      [0 3 -1 0 0 0 0];

oriented        oriented;

internalField   nonuniform List<scalar> 
5309
(
7.18598e-05
2.75576e-05
6.62884e-05
5.57138e-06
5.97806e-05
6.50782e-06
5.63396e-05
3.441e-06
5.49052e-05
1.43441e-06
5.53006e-05
-3.95443e-07
5.61866e-05
-8.85923e-07
5.83004e-05
-2.11381e-06
6.03145e-05
-2.01415e-06
6.33421e-05
-3.02763e-06
6.57277e-05
-2.38552e-06
6.89874e-05
-3.25973e-06
7.10656e-05
-2.07822e-06
7.39517e-05
-2.88609e-06
7.51638e-05
-1.21208e-06
7.73435e-05
-2.17968e-06
7.73807e-05
-3.72427e-08
7.87997e-05
-1.41899e-06
7.77426e-05
1.05708e-06
7.86831e-05
-9.4051e-07
7.674e-05
1.94309e-06
7.76778e-05
-9.37762e-07
7.50123e-05
2.6655e-06
7.63432e-05
-1.33088e-06
7.2848e-05
3.49517e-06
7.48648e-05
-2.01683e-06
6.81899e-05
6.67498e-06
7.74825e-05
-9.29261e-06
3.41078e-05
4.33746e-05
-3.10038e-05
6.51117e-05
0.000144535
3.38236e-05
0.000141839
8.26747e-06
0.000139061
9.28537e-06
0.000137296
5.20623e-06
0.000136666
2.06505e-06
0.000137804
-1.53393e-06
0.000139758
-2.83952e-06
0.00014339
-5.74573e-06
0.00014716
-5.785e-06
0.000152494
-8.36113e-06
0.000157255
-7.14658e-06
0.00016345
-9.45476e-06
0.000168267
-6.89558e-06
0.000174482
-9.10026e-06
0.000178505
-5.23523e-06
0.000184083
-7.75824e-06
0.000186715
-2.66916e-06
0.000191443
-6.14658e-06
0.000192506
-6.60125e-09
0.00019672
-5.15449e-06
0.000195963
2.70067e-06
0.000200472
-5.44665e-06
0.000197406
5.73111e-06
0.000203573
-7.49812e-06
0.000195928
1.1141e-05
0.000206995
-1.30841e-05
0.000186199
2.7471e-05
0.000206566
-2.96599e-05
0.000184165
6.57752e-05
-3.51144e-05
0.000188276
0.000193241
3.21401e-05
0.000193538
7.96994e-06
0.000194505
8.31831e-06
0.000194889
4.82227e-06
0.000195552
1.40194e-06
0.000197519
-3.50097e-06
0.000199943
-5.263e-06
0.000203838
-9.64087e-06
0.000207851
-9.79827e-06
0.000213459
-1.39685e-05
0.000218564
-1.22523e-05
0.000225322
-1.6212e-05
0.000230795
-1.23684e-05
0.000238084
-1.63896e-05
0.000243192
-1.03432e-05
0.000250539
-1.51051e-05
0.000254699
-6.8293e-06
0.000262021
-1.34685e-05
0.000264665
-2.65048e-06
0.000272199
-1.26892e-05
0.000272971
1.92887e-06
0.000281397
-1.38723e-05
0.000279654
7.47364e-06
0.000290136
-1.79797e-05
0.000284824
1.64533e-05
0.000297433
-2.5693e-05
0.000292977
3.19261e-05
0.000300052
-3.67344e-05
0.000315516
5.03114e-05
-1.90811e-05
0.000299482
0.000229788
2.79488e-05
0.000229485
8.27313e-06
0.000231207
6.59677e-06
0.000232956
3.07298e-06
0.000234365
-7.23332e-09
0.000237096
-6.23215e-06
0.000239953
-8.1196e-06
0.000244095
-1.3783e-05
0.000248095
-1.37983e-05
0.000253564
-1.94374e-05
0.000258457
-1.71448e-05
0.000264972
-2.27272e-05
0.000270316
-1.77126e-05
0.000277504
-2.35782e-05
0.000282808
-1.56463e-05
0.000290379
-2.2677e-05
0.000295223
-1.16726e-05
0.000303029
-2.12745e-05
0.000307077
-6.6992e-06
0.000315143
-2.07548e-05
0.000318456
-1.38402e-06
0.000326741
-2.21577e-05
0.00032995
4.26528e-06
0.000337787
-2.58173e-05
0.000343143
1.10976e-05
0.000348454
-3.10043e-05
0.00036105
1.93306e-05
0.000357786
-3.34704e-05
0.000387153
2.09442e-05
-1.04886e-05
0.000378561
0.00025823
2.36091e-05
0.000257564
8.93953e-06
0.000259079
5.08105e-06
0.00026129
8.62548e-07
0.000263358
-2.0758e-06
0.00026585
-8.72342e-06
0.000268629
-1.08993e-05
0.000272344
-1.74981e-05
0.000276135
-1.75893e-05
0.000280892
-2.41942e-05
0.000285519
-2.17718e-05
0.000291119
-2.83273e-05
0.000296341
-2.29339e-05
0.000302512
-2.97497e-05
0.000308075
-2.12095e-05
0.00031454
-2.91412e-05
0.000320301
-1.74338e-05
0.000326757
-2.77307e-05
0.000332828
-1.27703e-05
0.00033896
-2.68869e-05
0.000345804
-8.22785e-06
0.000351131
-2.7485e-05
0.000359725
-4.3287e-06
0.000363517
-2.96086e-05
0.0003758
-1.18559e-06
0.000376398
-3.16027e-05
0.000395815
-8.57336e-08
0.000390661
-2.83172e-05
0.000417359
-5.75367e-06
-1.17607e-05
0.000418631
0.000280756
1.99978e-05
0.000280067
9.62861e-06
0.000281075
4.07362e-06
0.0002829
-9.62271e-07
0.000284799
-3.97565e-06
0.000286971
-1.08947e-05
0.000289642
-1.3571e-05
0.000292715
-2.05704e-05
0.000296352
-2.12268e-05
0.000300162
-2.80043e-05
0.00030464
-2.62493e-05
0.000309037
-3.27245e-05
0.000314269
-2.81659e-05
0.000319037
-3.45174e-05
0.000324954
-2.71265e-05
0.00032983
-3.40179e-05
0.000336454
-2.40575e-05
0.000341137
-3.24139e-05
0.000348663
-2.02957e-05
0.000352774
-3.09984e-05
0.000361639
-1.70926e-05
0.000364735
-3.05808e-05
0.000375733
-1.53266e-05
0.000377223
-3.10987e-05
0.000391625
-1.55876e-05
0.000390947
-3.0925e-05
0.000409494
-1.86324e-05
0.000408011
-2.68344e-05
0.000427212
-2.4955e-05
-1.94203e-05
0.000434872
0.000298287
1.73753e-05
0.000297995
9.92089e-06
0.000298397
3.67108e-06
0.000299628
-2.1927e-06
0.000301463
-5.81042e-06
0.000303158
-1.25904e-05
0.00030565
-1.60631e-05
0.00030796
-2.28797e-05
0.000311359
-2.46265e-05
0.00031422
-3.08652e-05
0.000318468
-3.04969e-05
0.00032175
-3.60068e-05
0.000326833
-3.32486e-05
0.000330381
-3.80655e-05
0.000336304
-3.30492e-05
0.000339911
-3.76249e-05
0.000346736
-3.08831e-05
0.00035016
-3.58378e-05
0.000358032
-2.81675e-05
0.000360995
-3.39613e-05
0.000370172
-2.62693e-05
0.000372418
-3.28268e-05
0.000383291
-2.61998e-05
0.000384696
-3.25038e-05
0.000397588
-2.84801e-05
0.00039875
-3.20869e-05
0.000413037
-3.29194e-05
0.000416648
-3.04447e-05
0.000429217
-3.7524e-05
-2.93899e-05
0.000439186
0.000311313
1.57122e-05
0.000311391
9.8433e-06
0.000311562
3.49992e-06
0.000312257
-2.8881e-06
0.000313901
-7.454e-06
0.000315185
-1.38742e-05
0.000317427
-1.83053e-05
0.000319122
-2.45745e-05
0.000322172
-2.76768e-05
0.000324299
-3.29919e-05
0.000328151
-3.43496e-05
0.000330616
-3.84712e-05
0.000335286
-3.79194e-05
0.000338001
-4.07803e-05
0.000343517
-3.85654e-05
0.000346356
-4.04634e-05
0.000352765
-3.72919e-05
0.000355584
-3.86576e-05
0.000362936
-3.55194e-05
0.000365603
-3.66277e-05
0.000373947
-3.46134e-05
0.000376435
-3.53147e-05
0.000385772
-3.5537e-05
0.000388352
-3.50843e-05
0.000398483
-3.86106e-05
0.000402182
-3.57861e-05
0.000412322
-4.30594e-05
0.00041918
-3.73024e-05
0.000428293
-4.66375e-05
-3.93924e-05
0.000438296
0.000320255
1.48586e-05
0.000320548
9.5502e-06
0.000320825
3.22223e-06
0.000321199
-3.2616e-06
0.000322568
-8.82251e-06
0.000323567
-1.48734e-05
0.000325497
-2.02358e-05
0.000326791
-2.58682e-05
0.000329386
-3.02714e-05
0.000331049
-3.46554e-05
0.000334349
-3.76492e-05
0.000336337
-4.04595e-05
0.000340365
-4.19475e-05
0.000342656
-4.30715e-05
0.000347443
-4.33522e-05
0.000349999
-4.30193e-05
0.000355553
-4.28464e-05
0.000358338
-4.14419e-05
0.000364619
-4.18002e-05
0.000367625
-3.96337e-05
0.000374524
-4.15124e-05
0.000377862
-3.8653e-05
0.000385182
-4.28567e-05
0.000389249
-3.91513e-05
0.000396686
-4.60478e-05
0.000402277
-4.13771e-05
0.000409629
-5.04119e-05
0.000417402
-4.5075e-05
0.00042544
-5.46753e-05
-4.88812e-05
0.000434929
0.0003256
1.45669e-05
0.000326037
9.11334e-06
0.00032649
2.76946e-06
0.000326791
-3.56269e-06
0.000327881
-9.91201e-06
0.000328723
-1.57157e-05
0.000330317
-2.18296e-05
0.000331414
-2.69654e-05
0.000333516
-3.23737e-05
0.000334959
-3.60978e-05
0.000337641
-4.03317e-05
0.000339438
-4.22557e-05
0.000342728
-4.52376e-05
0.000344909
-4.52523e-05
0.000348836
-4.72793e-05
0.000351436
-4.56198e-05
0.000355983
-4.73932e-05
0.000359038
-4.44974e-05
0.000364118
-4.68803e-05
0.000367678
-4.31937e-05
0.000373133
-4.69673e-05
0.000377309
-4.28289e-05
0.000382946
-4.84939e-05
0.000387967
-4.41722e-05
0.000393713
-5.17936e-05
0.000399833
-4.74966e-05
0.000406055
-5.6634e-05
0.000413305
-5.23256e-05
0.000420881
-6.22512e-05
-5.7467e-05
0.000429467
0.000328063
1.45206e-05
0.000328483
8.69391e-06
0.000329079
2.17311e-06
0.000329496
-3.97948e-06
0.000330385
-1.0801e-05
0.000331178
-1.65087e-05
0.000332473
-2.31244e-05
0.000333529
-2.80217e-05
0.000335202
-3.40469e-05
0.000336596
-3.74919e-05
0.000338726
-4.24619e-05
0.000340513
-4.40423e-05
0.000343134
-4.78587e-05
0.000345379
-4.74974e-05
0.000348527
-5.04272e-05
0.000351307
-4.83995e-05
0.000354967
-5.10531e-05
0.000358343
-4.78734e-05
0.000362436
-5.0974e-05
0.000366449
-4.7206e-05
0.00037085
-5.13681e-05
0.00037552
-4.7499e-05
0.000380145
-5.31189e-05
0.000385468
-4.94954e-05
0.000390401
-5.67268e-05
0.000396376
-5.34713e-05
0.000401967
-6.22255e-05
0.000408752
-5.91103e-05
0.00041556
-6.90596e-05
-6.55456e-05
0.000423639
0.000328359
1.43532e-05
0.000328814
8.23893e-06
0.000329456
1.53023e-06
0.000330041
-4.56448e-06
0.000330835
-1.15945e-05
0.000331669
-1.73432e-05
0.000332766
-2.42207e-05
0.00033388
-2.91365e-05
0.000335268
-3.54349e-05
0.000336717
-3.894e-05
0.000338463
-4.42083e-05
0.000340324
-4.59029e-05
0.000342476
-5.0011e-05
0.000344833
-4.98545e-05
0.000347438
-5.30326e-05
0.00035038
-5.13413e-05
0.000353448
-5.41212e-05
0.000357032
-5.14571e-05
0.000360527
-5.44693e-05
0.000364751
-5.14296e-05
0.000368606
-5.52234e-05
0.000373401
-5.22943e-05
0.000377565
-5.72823e-05
0.000382845
-5.47761e-05
0.000387355
-6.12362e-05
0.00039311
-5.92261e-05
0.000398164
-6.72798e-05
0.000404583
-6.55295e-05
0.00041058
-7.50565e-05
-7.30396e-05
0.000418074
0.00032744
1.39508e-05
0.000328001
7.67782e-06
0.00032868
8.51194e-07
0.000329424
-5.30888e-06
0.000330221
-1.23914e-05
0.000331166
-1.82879e-05
0.000332195
-2.525e-05
0.000333423
-3.03646e-05
0.000334697
-3.67085e-05
0.000336245
-4.04875e-05
0.000337813
-4.57765e-05
0.00033976
-4.78504e-05
0.000341683
-5.1934e-05
0.000344119
-5.22897e-05
0.000346456
-5.53705e-05
0.000349466
-5.43512e-05
0.000352259
-5.69143e-05
0.000355889
-5.50871e-05
0.000359134
-5.77143e-05
0.000363361
-5.56558e-05
0.000367002
-5.8865e-05
0.000371739
-5.70311e-05
0.000375698
-6.12415e-05
0.000380843
-5.99204e-05
0.000385077
-6.54706e-05
0.000390595
-6.47437e-05
0.000395184
-7.18693e-05
0.000401203
-7.15479e-05
0.000406438
-8.02919e-05
-7.98565e-05
0.000413255
0.00032667
1.33768e-05
0.000327316
7.0319e-06
0.000328015
1.52435e-07
0.000328868
-6.16212e-06
0.000329722
-1.32454e-05
0.000330798
-1.93644e-05
0.000331862
-2.63137e-05
0.000333216
-3.17183e-05
0.0003345
-3.79925e-05
0.000336151
-4.21391e-05
0.000337688
-4.7313e-05
0.000339701
-4.98641e-05
0.000341553
-5.37854e-05
0.00034401
-5.47466e-05
0.000346249
-5.76095e-05
0.000349232
-5.73338e-05
0.000351919
-5.96021e-05
0.000355474
-5.86416e-05
0.000358622
-6.08621e-05
0.000362729
-5.97636e-05
0.000366281
-6.24167e-05
0.000370857
-6.16071e-05
0.0003747
-6.50848e-05
0.00037963
-6.48499e-05
0.000383649
-6.94894e-05
0.000388859
-6.9954e-05
0.000393025
-7.60351e-05
0.00039857
-7.70929e-05
0.000403047
-8.4769e-05
-8.59389e-05
0.000409129
0.000327159
1.27546e-05
0.000327827
6.36342e-06
0.000328532
-5.526e-07
0.000329441
-7.07121e-06
0.000330361
-1.41652e-05
0.000331543
-2.05459e-05
0.000332678
-2.74494e-05
0.000334124
-3.31638e-05
0.000335458
-3.93263e-05
0.000337164
-4.38456e-05
0.000338708
-4.88573e-05
0.000340717
-5.18731e-05
0.00034253
-5.55981e-05
0.000344915
-5.71317e-05
0.000347081
-5.97751e-05
0.000349926
-6.0179e-05
0.000352525
-6.22009e-05
0.000355886
-6.20034e-05
0.000358949
-6.39244e-05
0.000362819
-6.3634e-05
0.000366295
-6.58921e-05
0.00037059
-6.5903e-05
0.000374347
-6.88415e-05
0.000378936
-6.94383e-05
0.000382803
-7.33565e-05
0.000387561
-7.47128e-05
0.000391418
-7.98912e-05
0.000396316
-8.19916e-05
0.000400198
-8.86503e-05
-9.10727e-05
0.000405331
0.000329751
1.22814e-05
-0.000329278
0.000330349
5.76556e-06
0.000330989
-1.19305e-06
0.000331872
-7.95406e-06
0.000332798
-1.50911e-05
0.000333989
-2.17365e-05
0.00033514
-2.86006e-05
0.000336569
-3.45924e-05
0.000337886
-4.06438e-05
0.000339523
-4.54828e-05
0.000341001
-5.0335e-05
0.000342871
-5.37431e-05
0.000344562
-5.72897e-05
0.00034674
-5.93089e-05
0.000348745
-6.17805e-05
0.000351327
-6.27613e-05
0.000353752
-6.46259e-05
0.000356814
-6.50648e-05
0.000359715
-6.68255e-05
0.000363261
-6.71798e-05
0.000366604
-6.9235e-05
0.000370552
-6.98516e-05
0.0003742
-7.24889e-05
0.000378399
-7.36381e-05
0.000382141
-7.70977e-05
0.000386423
-7.89951e-05
0.000390049
-8.35174e-05
0.000394308
-8.62504e-05
0.000397716
-9.20585e-05
-9.53105e-05
0.000401954
0.000334315
1.20716e-05
-0.000334105
0.000334747
5.33386e-06
0.00033527
-1.71609e-06
0.000336034
-8.71844e-06
0.000336873
-1.59304e-05
0.000337941
-2.28037e-05
0.000338992
-2.96518e-05
0.000340252
-3.5853e-05
0.000341426
-4.18176e-05
0.000342832
-4.68883e-05
0.00034411
-5.16135e-05
0.000345684
-5.53165e-05
0.000347127
-5.87331e-05
0.000348961
-6.11428e-05
0.000350692
-6.35117e-05
0.000352912
-6.49817e-05
0.000355067
-6.67808e-05
0.000357773
-6.77706e-05
0.000360437
-6.94896e-05
0.000363648
-7.03901e-05
0.000366809
-7.23969e-05
0.000370441
-7.34829e-05
0.000373973
-7.60212e-05
0.000377849
-7.7514e-05
0.000381521
-8.07695e-05
0.000385419
-8.28938e-05
0.000388949
-8.70467e-05
0.000392678
-8.99799e-05
0.000395818
-9.51984e-05
-9.87544e-05
0.000399262
0.000339542
1.20084e-05
-0.000339479
0.000339861
5.01466e-06
0.000340298
-2.15322e-06
0.000340935
-9.35538e-06
0.000341644
-1.66391e-05
0.000342502
-2.36617e-05
0.000343358
-3.05079e-05
0.000344334
-3.68284e-05
0.000345253
-4.27367e-05
0.000346303
-4.79386e-05
0.000347278
-5.25888e-05
0.000348451
-5.6489e-05
0.000349568
-5.98499e-05
0.000350992
-6.25673e-05
0.000352402
-6.49214e-05
0.000354242
-6.68217e-05
0.000356105
-6.86435e-05
0.000358488
-7.01539e-05
0.000360908
-7.191e-05
0.000363868
-7.33496e-05
0.000366853
-7.53821e-05
0.0003703
-7.69302e-05
0.000373741
-7.94619e-05
0.000377467
-8.12401e-05
0.000381132
-8.44347e-05
0.000384843
-8.6605e-05
0.000388405
-9.06078e-05
0.000391797
-9.33723e-05
0.000394875
-9.82768e-05
-0.000101569
0.000397689
0.000344476
1.19867e-05
-0.000344455
0.000344714
4.77702e-06
0.000345078
-2.51735e-06
0.000345568
-9.84551e-06
0.000346105
-1.71755e-05
0.000346711
-2.42679e-05
0.000347321
-3.1118e-05
0.000347973
-3.74805e-05
0.000348603
-4.33667e-05
0.000349284
-4.86198e-05
0.000349957
-5.32612e-05
0.000350747
-5.72795e-05
0.000351576
-6.06792e-05
0.00035264
-6.36308e-05
0.000353797
-6.60784e-05
0.000355326
-6.83509e-05
0.000356978
-7.02952e-05
0.000359126
-7.23017e-05
0.000361378
-7.41622e-05
0.000364196
-7.6168e-05
0.000367058
-7.82435e-05
0.000370465
-8.03376e-05
0.000373838
-8.28352e-05
0.000377604
-8.50059e-05
0.000381271
-8.81019e-05
0.000385022
-9.03556e-05
0.00038864
-9.42263e-05
0.000391924
-9.66565e-05
0.000395029
-0.000101381
-0.000103915
0.000397375
0.000347311
1.16965e-05
-0.000347021
0.000347716
4.37222e-06
0.000348201
-3.00219e-06
0.000348727
-1.03724e-05
0.000349263
-1.7711e-05
0.000349803
-2.48075e-05
0.000350326
-3.16414e-05
0.00035083
-3.7985e-05
0.00035132
-4.38566e-05
0.000351802
-4.9101e-05
0.000352312
-5.37718e-05
0.000352874
-5.7841e-05
0.000353544
-6.13496e-05
0.000354369
-6.44554e-05
0.000355385
-6.70946e-05
0.000356684
-6.96501e-05
0.000358219
-7.18301e-05
0.000360171
-7.42539e-05
0.00036233
-7.6321e-05
0.000365023
-7.8861e-05
0.000367808
-8.1028e-05
0.000371199
-8.37285e-05
0.000374508
-8.61447e-05
0.000378392
-8.88897e-05
0.000382012
-9.17224e-05
0.000385967
-9.43102e-05
0.000389548
-9.78076e-05
0.00039295
-0.000100058
0.000395988
-0.000104419
-0.000105975
0.000398048
0.00034975
1.10463e-05
-0.0003491
0.000350429
3.69261e-06
0.000351138
-3.71124e-06
0.000351858
-1.10923e-05
0.000352548
-1.84011e-05
0.000353192
-2.54507e-05
0.000353768
-3.22174e-05
0.00035427
-3.84876e-05
0.000354716
-4.43018e-05
0.000355101
-4.94862e-05
0.000355492
-5.41628e-05
0.00035588
-5.82298e-05
0.000356386
-6.18554e-05
0.000356982
-6.50515e-05
0.000357823
-6.79358e-05
0.000358861
-7.06873e-05
0.000360238
-7.32077e-05
0.00036192
-7.59355e-05
0.000363959
-7.83597e-05
0.000366418
-8.132e-05
0.000369125
-8.37351e-05
0.000372381
-8.69846e-05
0.000375633
-8.93969e-05
0.000379559
-9.28154e-05
0.000383097
-9.52607e-05
0.000387292
-9.85054e-05
0.000390669
-0.000101185
0.000394344
-0.000103733
0.000396942
-0.000107017
-0.000107904
0.000398872
0.000355678
1.03789e-05
-0.00035501
0.000356352
3.0183e-06
0.000357046
-4.40482e-06
0.000357744
-1.17903e-05
0.000358384
-1.90415e-05
0.000358942
-2.60089e-05
0.000359379
-3.26539e-05
0.000359701
-3.88094e-05
0.000359906
-4.4507e-05
0.000360022
-4.96028e-05
0.000360095
-5.42352e-05
0.000360154
-5.82891e-05
0.000360302
-6.20036e-05
0.000360542
-6.5291e-05
0.000361036
-6.843e-05
0.000361717
-7.13679e-05
0.000362801
-7.42917e-05
0.00036413
-7.72646e-05
0.000365956
-8.01858e-05
0.00036808
-8.34441e-05
0.000370685
-8.63405e-05
0.000373659
-8.99579e-05
0.000376889
-9.26273e-05
0.000380633
-9.65597e-05
0.000384099
-9.87268e-05
0.000388265
-0.000102671
0.000391214
-0.000104134
0.000394899
-0.000107418
0.000396221
-0.000108339
-0.000109472
0.000397789
0.000363521
9.71248e-06
-0.000362855
0.000364158
2.38192e-06
0.000364782
-5.029e-06
0.000365351
-1.236e-05
0.000365804
-1.94938e-05
0.000366118
-2.6323e-05
0.000366253
-3.2789e-05
0.000366228
-3.87845e-05
0.000366035
-4.43134e-05
0.000365734
-4.93018e-05
0.000365348
-5.38497e-05
0.000364966
-5.79067e-05
0.000364643
-6.16804e-05
0.000364463
-6.51108e-05
0.000364519
-6.84867e-05
0.000364836
-7.16842e-05
0.000365553
-7.50091e-05
0.000366558
-7.82702e-05
0.000368085
-8.17125e-05
0.000369865
-8.52236e-05
0.000372261
-8.87365e-05
0.000374822
-9.25189e-05
0.000377907
-9.57121e-05
0.000381035
-9.96883e-05
0.000384195
-0.000101886
0.000387405
-0.000105881
0.000389392
-0.000106121
0.000391662
-0.000109688
0.000390336
-0.000107013
-0.000109083
0.000389947
0.000371058
8.62331e-06
-0.000369969
0.000371928
1.51143e-06
0.000372688
-5.78836e-06
0.000373269
-1.29408e-05
0.000373631
-1.98558e-05
0.00037376
-2.64525e-05
0.000373631
-3.266e-05
0.000373268
-3.84219e-05
0.000372686
-4.37307e-05
0.000371957
-4.85729e-05
0.000371115
-5.30076e-05
0.000370271
-5.70635e-05
0.000369471
-6.08803e-05
0.000368852
-6.44911e-05
0.000368453
-6.80881e-05
0.000368392
-7.16237e-05
0.000368692
-7.53088e-05
0.000369371
-7.89495e-05
0.000370449
-8.27902e-05
0.000371778
-8.65521e-05
0.000373556
-9.05146e-05
0.000375362
-9.43257e-05
0.000377584
-9.79338e-05
0.000379245
-0.000101349
0.000380903
-0.000103544
0.000381294
-0.000106272
0.000380689
-0.000105516
0.000378424
-0.000107423
0.000372359
-0.000100948
-0.000103082
0.000366357
0.000380284
7.53464e-06
-0.000379195
0.00038154
2.55899e-07
0.000382342
-6.59038e-06
0.000382862
-1.34608e-05
0.000383131
-2.01251e-05
0.000383046
-2.6368e-05
0.000382593
-3.22069e-05
0.00038182
-3.76486e-05
0.000380775
-4.26852e-05
0.00037953
-4.73279e-05
0.000378149
-5.16268e-05
0.00037674
-5.56542e-05
0.000375372
-5.95132e-05
0.000374179
-6.32973e-05
0.000373205
-6.71146e-05
0.000372573
-7.09916e-05
0.000372252
-7.49876e-05
0.000372304
-7.90021e-05
0.00037256
-8.30461e-05
0.000372876
-8.68673e-05
0.00037308
-9.07189e-05
0.000373016
-9.42617e-05
0.00037262
-9.75377e-05
0.000371016
-9.97452e-05
0.00036836
-0.000100888
0.000362972
-0.000100884
0.000356043
-9.85874e-05
0.000344697
-9.60777e-05
0.00033068
-8.69308e-05
-8.52952e-05
0.000312894
0.000393717
5.64929e-06
-0.000391832
0.000394541
-5.67183e-07
0.000395444
-7.49413e-06
0.000395889
-1.39055e-05
0.000395746
-1.99823e-05
0.00039512
-2.57417e-05
0.000394077
-3.11637e-05
0.000392656
-3.62276e-05
0.000390913
-4.09423e-05
0.000388926
-4.53411e-05
0.000386787
-4.94873e-05
0.000384591
-5.34589e-05
0.000382423
-5.73451e-05
0.000380361
-6.12348e-05
0.000378446
-6.52002e-05
0.00037672
-6.9265e-05
0.000375129
-7.33969e-05
0.000373604
-7.74771e-05
0.000371885
-8.13274e-05
0.000369716
-8.46982e-05
0.00036642
-8.7423e-05
0.00036188
-8.97214e-05
0.000355593
-9.12505e-05
0.000347095
-9.12478e-05
0.000335801
-8.95928e-05
0.000320616
-8.56992e-05
0.000301624
-7.95962e-05
0.000276832
-7.12851e-05
0.000250581
-6.06801e-05
-5.03309e-05
0.000215617
0.000407718
3.20908e-06
-0.000405277
0.000410033
-2.88209e-06
0.000411094
-8.55521e-06
0.000411387
-1.41991e-05
0.000411028
-1.96226e-05
0.000410022
-2.47365e-05
0.000408391
-2.95327e-05
0.000406195
-3.40312e-05
0.000403521
-3.82685e-05
0.000400466
-4.22863e-05
0.000397131
-4.61522e-05
0.000393603
-4.99304e-05
0.000389948
-5.36901e-05
0.000386171
-5.74582e-05
0.000382207
-6.1236e-05
0.000377953
-6.50112e-05
0.000373224
-6.86681e-05
0.00036772
-7.1973e-05
0.000361071
-7.46778e-05
0.000352965
-7.65925e-05
0.000342801
-7.72589e-05
0.000329613
-7.6534e-05
0.000312592
-7.42296e-05
0.000291506
-7.01613e-05
0.000266573
-6.46597e-05
0.00023791
-5.70366e-05
0.000203933
-4.56194e-05
0.000164982
-3.23333e-05
0.000125078
-2.07771e-05
-1.07509e-05
8.54984e-05
0.000433194
1.49564e-06
-0.00043148
0.000434011
-3.69906e-06
0.00043433
-8.8744e-06
0.000433753
-1.36228e-05
0.000432186
-1.80556e-05
0.000429673
-2.22231e-05
0.000426283
-2.61422e-05
0.000422082
-2.98302e-05
0.000417137
-3.33235e-05
0.000411522
-3.66718e-05
0.000405317
-3.99467e-05
0.000398584
-4.31981e-05
0.00039137
-4.64762e-05
0.000383626
-4.97142e-05
0.000374937
-5.25465e-05
0.000365056
-5.51302e-05
0.000353541
-5.71534e-05
0.000339698
-5.81294e-05
0.000322885
-5.78653e-05
0.000302787
-5.64948e-05
0.000280358
-5.48292e-05
0.000254529
-5.0705e-05
0.000223393
-4.30943e-05
0.000186455
-3.32232e-05
0.000145655
-2.38594e-05
0.000104602
-1.59841e-05
6.81125e-05
-9.12938e-06
3.83076e-05
-2.52844e-06
1.51972e-05
2.33331e-06
5.04693e-06
-6.00604e-07
0.000464553
-1.68878e-06
-0.000461369
0.000465408
-4.55417e-06
0.00046418
-7.64639e-06
0.000461285
-1.07277e-05
0.000456867
-1.36377e-05
0.00045097
-1.63263e-05
0.000443626
-1.87981e-05
0.000434872
-2.10762e-05
0.000424729
-2.31807e-05
0.000413195
-2.51373e-05
0.000400221
-2.69726e-05
0.000385729
-2.87059e-05
0.000369597
-3.03447e-05
0.000351718
-3.18355e-05
0.000332298
-3.31264e-05
0.000311525
-3.43568e-05
0.000288099
-3.37275e-05
0.000260783
-3.08137e-05
0.000228715
-2.57967e-05
0.000192203
-1.99826e-05
0.000151693
-1.43194e-05
0.000111073
-1.0085e-05
7.4038e-05
-6.0595e-06
4.28204e-05
-2.00558e-06
1.78253e-05
1.13565e-06
-2.03649e-07
2.04488e-06
-1.14141e-05
2.08108e-06
-1.65055e-05
2.56293e-06
-1.78402e-05
3.66808e-06
4.65897e-06
-1.74523e-05
0.000442866
-0.000444555
0.000438312
0.000430665
0.000419938
0.0004063
0.000389974
0.000371176
0.0003501
0.000326919
0.000301782
0.000274809
0.000246103
0.000215758
0.000183923
0.000150796
0.00011644
8.27121e-05
5.18984e-05
2.61016e-05
6.11903e-06
-8.20038e-06
-1.82854e-05
-2.43449e-05
-2.63505e-05
-2.52148e-05
-2.31699e-05
-2.10889e-05
-1.85259e-05
-1.48579e-05
-1.01989e-05
0.000391855
0.000370401
0.000348201
0.000323901
0.000297654
0.000271978
0.000247434
0.000221964
0.000195271
0.000168039
0.000138594
0.0001103
7.45698e-05
4.01744e-05
0.000479832
6.01658e-06
0.000470704
9.12764e-06
0.000458486
1.22187e-05
0.000443355
1.51304e-05
0.000425549
1.78068e-05
0.000405289
2.02594e-05
0.000382776
2.25132e-05
0.000358176
2.46002e-05
0.000331624
2.65522e-05
0.000303213
2.8411e-05
0.000272995
3.02174e-05
0.000240997
3.19983e-05
0.00020724
3.37568e-05
0.000171805
3.54351e-05
0.000134721
3.70842e-05
9.66361e-05
3.80846e-05
6.0106e-05
3.65301e-05
2.78029e-05
3.23031e-05
1.72982e-06
2.60731e-05
-1.78346e-05
1.95644e-05
-3.162e-05
1.37855e-05
-4.11883e-05
9.56829e-06
-4.65283e-05
5.33994e-06
-4.73961e-05
8.67835e-07
-4.44831e-05
-2.91299e-06
-4.10251e-05
-3.45797e-06
-3.8882e-05
-2.14312e-06
-3.81813e-05
-7.00692e-07
5.20031e-07
-3.87013e-05
0.000506839
6.57345e-06
0.000504358
1.16092e-05
0.000500304
1.62721e-05
0.00049481
2.06253e-05
0.000487917
2.46991e-05
0.000479666
2.85106e-05
0.000470099
3.20805e-05
0.000459246
3.54528e-05
0.000447104
3.86943e-05
0.000433632
4.18828e-05
0.000418738
4.51112e-05
0.000402302
4.84344e-05
0.000384166
5.1893e-05
0.000364245
5.53559e-05
0.000343049
5.82802e-05
0.000320222
6.09116e-05
0.000294025
6.27279e-05
0.000263013
6.33152e-05
0.000226445
6.26406e-05
0.000184962
6.10478e-05
0.000139359
5.93885e-05
9.46692e-05
5.42576e-05
5.45164e-05
4.54927e-05
2.09654e-05
3.44188e-05
-6.14491e-06
2.41973e-05
-2.59245e-05
1.63216e-05
-3.8587e-05
1.05194e-05
-4.50572e-05
5.76955e-06
4.23014e-06
-4.87673e-05
0.000470763
6.30621e-06
0.000470349
1.20232e-05
0.000468978
1.76432e-05
0.000466611
2.29924e-05
0.000463316
2.79943e-05
0.000459178
3.2649e-05
0.00045427
3.69877e-05
0.000448674
4.10491e-05
0.000442474
4.48943e-05
0.000435763
4.85942e-05
0.000428626
5.22482e-05
0.000421129
5.59317e-05
0.000413304
5.97179e-05
0.000405065
6.35948e-05
0.000395804
6.75408e-05
0.000385224
7.14919e-05
0.000372686
7.5266e-05
0.0003574
7.86006e-05
0.000338744
8.12973e-05
0.000316583
8.32081e-05
0.000292289
8.36833e-05
0.000263849
8.26969e-05
0.00022914
8.02025e-05
0.000187326
7.62323e-05
0.000140641
7.08829e-05
9.29021e-05
6.406e-05
5.08408e-05
5.25807e-05
1.67494e-05
3.98609e-05
3.05664e-05
-9.58678e-06
0.000443258
5.03026e-06
0.000443599
1.1682e-05
0.000443255
1.7988e-05
0.000442291
2.39559e-05
0.000440711
2.95741e-05
0.000438543
3.48178e-05
0.000435852
3.96785e-05
0.000432732
4.41683e-05
0.000429292
4.8335e-05
0.000425639
5.22466e-05
0.000421888
5.59997e-05
0.000418126
5.96937e-05
0.000414416
6.34274e-05
0.000410721
6.72897e-05
0.000406936
7.13258e-05
0.000402891
7.55369e-05
0.000398346
7.98112e-05
0.000392904
8.40424e-05
0.00038623
8.79711e-05
0.000377953
9.14857e-05
0.000367388
9.42484e-05
0.000353202
9.68823e-05
0.000334723
9.8682e-05
0.000311466
9.94887e-05
0.000283676
9.86729e-05
0.000251924
9.58124e-05
0.000212781
9.17239e-05
0.000168657
8.39849e-05
8.14118e-05
0.000117811
0.000424889
4.26388e-06
0.000425369
1.12025e-05
0.000425331
1.80255e-05
0.000424737
2.45506e-05
0.000423676
3.06351e-05
0.000422215
3.62785e-05
0.000420411
4.14824e-05
0.000418322
4.62569e-05
0.000416048
5.06093e-05
0.000413678
5.46165e-05
0.000411342
5.83358e-05
0.000409122
6.19134e-05
0.000407135
6.54153e-05
0.000405405
6.90188e-05
0.000404016
7.27151e-05
0.000402917
7.66364e-05
0.000402091
8.06372e-05
0.000401327
8.48066e-05
0.000400405
8.88927e-05
0.000398931
9.29593e-05
0.000396164
9.70158e-05
0.000392015
0.000101031
0.000385699
0.000104998
0.000377339
0.000107849
0.000365185
0.000110827
0.000350022
0.000110975
0.000327967
0.000113779
0.00030321
0.000108743
0.000113692
0.000270929
0.000409372
3.50839e-06
0.000409814
1.07597e-05
0.000410017
1.78227e-05
0.00040994
2.46282e-05
0.000409535
3.10395e-05
0.000408784
3.70295e-05
0.000407758
4.25088e-05
0.000406487
4.75276e-05
0.000405077
5.20197e-05
0.000403576
5.61174e-05
0.000402126
5.97854e-05
0.000400789
6.32511e-05
0.000399716
6.64878e-05
0.000398965
6.97695e-05
0.00039866
7.30206e-05
0.000398825
7.64711e-05
0.000399468
7.99944e-05
0.000400576
8.36983e-05
0.000401919
8.75504e-05
0.000403422
9.14557e-05
0.000404631
9.58075e-05
0.000405877
9.97842e-05
0.000406274
0.000104602
0.000406243
0.00010788
0.000404127
0.000112943
0.000400504
0.000114598
0.000394057
0.000120226
0.000384097
0.000118702
0.000124939
0.000372851
0.000397464
2.80028e-06
0.000398014
1.02096e-05
0.00039839
1.74463e-05
0.000398541
2.44771e-05
0.000398477
3.11033e-05
0.000398156
3.73503e-05
0.000397641
4.30244e-05
0.000396925
4.82431e-05
0.00039612
5.28248e-05
0.000395244
5.69934e-05
0.000394439
6.05904e-05
0.000393747
6.39437e-05
0.000393318
6.69161e-05
0.000393213
6.98752e-05
0.000393545
7.26877e-05
0.000394371
7.56452e-05
0.00039571
7.86554e-05
0.000397598
8.18109e-05
0.000399917
8.52316e-05
0.000402711
8.86615e-05
0.000405866
9.26523e-05
0.000409405
9.62451e-05
0.000413251
0.000100756
0.000416924
0.000104207
0.000420812
0.000109055
0.000423369
0.000112041
0.00042679
0.000116805
0.000426412
0.00011908
0.000122731
0.00042862
0.000387934
2.26888e-06
0.00038843
9.71428e-06
0.000388865
1.7011e-05
0.000389167
2.41748e-05
0.000389354
3.0917e-05
0.000389362
3.73421e-05
0.000389252
4.31345e-05
0.000388987
4.85081e-05
0.000388679
5.31327e-05
0.000388314
5.73581e-05
0.000388046
6.08582e-05
0.000387875
6.41154e-05
0.000387983
6.68076e-05
0.000388361
6.94976e-05
0.000389205
7.18437e-05
0.000390446
7.44036e-05
0.000392296
7.68054e-05
0.000394563
7.95441e-05
0.00039755
8.2245e-05
0.000400882
8.53294e-05
0.000405144
8.839e-05
0.000409538
9.18516e-05
0.000415164
9.51296e-05
0.000420405
9.89658e-05
0.000427364
0.000102095
0.000433075
0.00010633
0.000441297
0.000108583
0.000446926
0.000113451
0.000113725
0.000455932
0.0003786
1.67081e-06
0.000379198
9.11577e-06
0.00037981
1.63988e-05
0.000380353
2.36322e-05
0.000380842
3.04278e-05
0.0003812
3.6984e-05
0.0003815
4.2835e-05
0.000381673
4.83354e-05
0.000381852
5.29533e-05
0.000381967
5.72426e-05
0.000382225
6.06008e-05
0.000382528
6.38122e-05
0.000383166
6.617e-05
0.000383967
6.86959e-05
0.000385321
7.04901e-05
0.000386908
7.2817e-05
0.00038926
7.4453e-05
0.000391822
7.69819e-05
0.000395385
7.86823e-05
0.000399051
8.16634e-05
0.000404024
8.34174e-05
0.000408883
8.69924e-05
0.000415441
8.85715e-05
0.000421563
9.28435e-05
0.000429891
9.37675e-05
0.000437383
9.8838e-05
0.000447619
9.83476e-05
0.000456645
0.000104424
0.000101523
0.000468848
0.000370974
9.78487e-07
0.000371675
8.41486e-06
0.000372404
1.56698e-05
0.000373082
2.29545e-05
0.000373746
2.97634e-05
0.000374313
3.64173e-05
0.000374881
4.22673e-05
0.000375344
4.7872e-05
0.000375878
5.24197e-05
0.00037634
5.67806e-05
0.000377012
5.9929e-05
0.000377681
6.31427e-05
0.000378762
6.50888e-05
0.000379913
6.75449e-05
0.000381712
6.86913e-05
0.000383612
7.09171e-05
0.000386407
7.16579e-05
0.000389268
7.41205e-05
0.000393291
7.46594e-05
0.000397283
7.76712e-05
0.000402738
7.7963e-05
0.000408017
8.17135e-05
0.000415115
8.14728e-05
0.000421884
8.60746e-05
0.000430891
8.47614e-05
0.000439429
9.02999e-05
0.000450641
8.71353e-05