/*--------------------------------*- C++ -*----------------------------------*\
| =========                 |                                                 |
| \\      /  F ield         | OpenFOAM: The Open Source CFD Toolbox           |
|  \\    /   O peration     | Version:  2312                                  |
|   \\  /    A nd           | Website:  www.openfoam.com                      |
|    \\/     M anipulation  |                                                 |
\*---------------------------------------------------------------------------*/
FoamFile
{
    version     2.0;
    format      ascii;
    arch        "LSB;label=32;scalar=64";
    class       surfaceScalarField;
    location    "120000";
    object      phi;
}
// * * * * * * * * * * * * * * * * * * * * * * * * * * * * * * * * * * * * * //

dimensions      [0 3 -1 0 0 0 0];

oriented        oriented;

internalField   nonuniform List<scalar> 
5250
(
-1.77197e-05
-9.04106e-07
-1.68183e-05
-9.01427e-07
-1.59321e-05
-8.86162e-07
-1.50744e-05
-8.57725e-07
-1.42587e-05
-8.1575e-07
-1.34986e-05
-7.60097e-07
-1.28077e-05
-6.90856e-07
-1.21994e-05
-6.08359e-07
-1.16862e-05
-5.13178e-07
-1.12801e-05
-4.06114e-07
-1.09919e-05
-2.8815e-07
-1.08317e-05
-1.60203e-07
-1.08106e-05
-2.11362e-08
-1.09203e-05
1.09768e-07
-1.11658e-05
2.4543e-07
-1.15477e-05
3.81971e-07
-1.20634e-05
5.15685e-07
-1.27065e-05
6.43041e-07
-1.34671e-05
7.60637e-07
-1.43325e-05
8.65424e-07
-1.52869e-05
9.54337e-07
-1.63124e-05
1.02551e-06
-1.73915e-05
1.07916e-06
-1.8502e-05
1.11045e-06
-1.96155e-05
1.11356e-06
-2.07051e-05
1.08954e-06
-2.17434e-05
1.03833e-06
-2.27033e-05
9.59891e-07
-2.35572e-05
8.53916e-07
-2.42771e-05
7.19854e-07
-2.48347e-05
5.57667e-07
-2.52023e-05
3.67599e-07
-2.53515e-05
1.49112e-07
-2.52637e-05
-8.77579e-08
-2.49298e-05
-3.33859e-07
-2.43296e-05
-6.0027e-07
-2.34481e-05
-8.8144e-07
-2.22748e-05
-1.17334e-06
-2.08026e-05
-1.47222e-06
-1.90281e-05
-1.77449e-06
-1.69515e-05
-2.0766e-06
-1.45763e-05
-2.37515e-06
-1.19095e-05
-2.66683e-06
-8.96104e-06
-2.94847e-06
-5.74411e-06
-3.21693e-06
-2.2751e-06
-3.46901e-06
1.42653e-06
-3.70163e-06
5.34241e-06
-3.91588e-06
9.45178e-06
-4.10937e-06
1.3732e-05
-4.28024e-06
1.81594e-05
-4.4274e-06
2.27098e-05
-4.55038e-06
2.73593e-05
-4.64945e-06
3.20848e-05
-4.72558e-06
3.68639e-05
-4.77904e-06
4.16714e-05
-4.80757e-06
4.64813e-05
-4.80987e-06
5.12692e-05
-4.78788e-06
5.60124e-05
-4.74321e-06
6.06898e-05
-4.67741e-06
6.52818e-05
-4.59201e-06
6.97705e-05
-4.48872e-06
7.41397e-05
-4.36919e-06
7.8375e-05
-4.23529e-06
8.24638e-05
-4.08873e-06
8.63953e-05
-3.93153e-06
9.01606e-05
-3.76532e-06
9.37528e-05
-3.5922e-06
9.71664e-05
-3.41364e-06
0.000100398
-3.23177e-06
0.000103446
-3.04778e-06
0.00010631
-2.86386e-06
0.000108991
-2.68074e-06
0.000111491
-2.50077e-06
0.000113815
-2.32397e-06
0.000115968
-2.15305e-06
0.000117955
-1.98699e-06
0.000119785
-1.82921e-06
0.000121462
-1.67698e-06
0.000122997
-1.53533e-06
0.000124395
-1.39837e-06
0.00012567
-1.27456e-06
0.000126821
-1.15165e-06
0.000127868
-1.04623e-06
0.000128799
-9.31719e-07
0.000129644
-8.44629e-07
0.000130367
-7.23414e-07
0.000131024
-6.56275e-07
-4.88075e-07
4.99389e-05
-2.32736e-06
5.13876e-05
-2.35008e-06
5.28503e-05
-2.34884e-06
5.43153e-05
-2.32276e-06
5.57711e-05
-2.27151e-06
5.72062e-05
-2.19526e-06
5.86101e-05
-2.09468e-06
5.99726e-05
-1.97095e-06
6.12852e-05
-1.82574e-06
6.25402e-05
-1.66114e-06
6.37318e-05
-1.47972e-06
6.48562e-05
-1.28456e-06
6.59142e-05
-1.0792e-06
6.68925e-05
-8.68481e-07
6.77944e-05
-6.56474e-07
6.86243e-05
-4.47999e-07
6.9389e-05
-2.48951e-07
7.00988e-05
-6.67281e-08
7.07586e-05
1.00763e-07
7.13844e-05
2.3968e-07
7.19954e-05
3.43258e-07
7.26132e-05
4.07749e-07
7.32627e-05
4.29699e-07
7.3967e-05
4.06125e-07
7.4746e-05
3.34576e-07
7.56221e-05
2.13471e-07
7.66207e-05
3.97012e-08
7.77529e-05
-1.72356e-07
7.90422e-05
-4.35317e-07
8.05118e-05
-7.49788e-07
8.21838e-05
-1.11431e-06
8.40779e-05
-1.52656e-06
8.621e-05
-1.983e-06
8.86011e-05
-2.47877e-06
9.12741e-05
-3.00686e-06
9.42353e-05
-3.5615e-06
9.74904e-05
-4.13657e-06
0.000101043
-4.72586e-06
0.000104894
-5.3231e-06
0.000109041
-5.92196e-06
0.000113481
-6.51618e-06
0.000118205
-7.09962e-06
0.000123205
-7.66636e-06
0.000128467
-8.21072e-06
0.000133977
-8.72728e-06
0.000139719
-9.21083e-06
0.000145675
-9.65696e-06
0.000151822
-1.00633e-05
0.000158139
-1.04268e-05
0.000164604
-1.07448e-05
0.000171192
-1.10155e-05
0.00017788
-1.12381e-05
0.000184643
-1.14127e-05
0.000191457
-1.15398e-05
0.000198298
-1.16201e-05
0.000205145
-1.16538e-05
0.000211975
-1.164e-05
0.000218765
-1.15787e-05
0.000225494
-1.14718e-05
0.000232139
-1.13223e-05
0.00023868
-1.11329e-05
0.000245098
-1.09069e-05
0.000251376
-1.0647e-05
0.000257498
-1.0357e-05
0.000263448
-1.00395e-05
0.000269216
-9.69868e-06
0.000274787
-9.3369e-06
0.000280154
-8.95867e-06
0.000285306
-8.56581e-06
0.000290237
-8.1634e-06
0.000294942
-7.75221e-06
0.000299416
-7.33829e-06
0.000303656
-6.92063e-06
0.000307662
-6.507e-06
0.000311432
-6.09349e-06
0.00031497
-5.69098e-06
0.000318273
-5.29056e-06
0.000321353
-4.90885e-06
0.000324204
-4.52827e-06
0.000326845
-4.17615e-06
0.000329266
-3.81918e-06
0.000331496
-3.50474e-06
0.000333515
-3.17063e-06
0.000335372
-2.90267e-06
0.000337023
-2.58356e-06
0.000338553
-2.37431e-06
0.000339879
-2.04907e-06
0.000341142
-1.92e-06
-1.54039e-06
0.000212042
-3.24747e-06
0.000213048
-3.35597e-06
0.00021413
-3.43115e-06
0.00021528
-3.47274e-06
0.000216491
-3.48245e-06
0.000217758
-3.46216e-06
0.000219077
-3.41395e-06
0.000220447
-3.34028e-06
0.000221865
-3.2439e-06
0.000223332
-3.12783e-06
0.000224847
-2.99538e-06
0.000226413
-2.85017e-06
0.00022803
-2.69637e-06
0.0002297
-2.53861e-06
0.000231425
-2.38115e-06
0.000233205
-2.22814e-06
0.00023504
-2.08383e-06
0.000236927
-1.95368e-06
0.000238875
-1.84792e-06
0.000240891
-1.77565e-06
0.000242976
-1.74164e-06
0.000245134
-1.75031e-06
0.000247369
-1.80573e-06
0.000249687
-1.91191e-06
0.000252093
-2.07158e-06
0.000254592
-2.28565e-06
0.000257187
-2.55495e-06
0.000259896
-2.88128e-06
0.000262727
-3.26634e-06
0.000265688
-3.71049e-06
0.000268786
-4.21248e-06
0.000272029
-4.76957e-06
0.000275423
-5.37739e-06
0.000278974
-6.02951e-06
0.000282686
-6.71883e-06
0.000286563
-7.43826e-06
0.000290607
-8.18041e-06
0.000294818
-8.93763e-06
0.000299197
-9.702e-06
0.000303741
-1.04655e-05
0.000308445
-1.12203e-05
0.000313304
-1.19584e-05
0.00031831
-1.26723e-05
0.000323454
-1.3355e-05
0.000328726
-1.39997e-05
0.000334116
-1.46005e-05
0.000339611
-1.51519e-05
0.000345197
-1.56496e-05
0.00035086
-1.60897e-05
0.000356585
-1.64697e-05
0.000362357
-1.67875e-05
0.000368161
-1.70422e-05
0.000373982
-1.72331e-05
0.000379802
-1.73604e-05
0.000385606
-1.74242e-05
0.000391378
-1.74255e-05
0.000397103
-1.73648e-05
0.000402769
-1.72445e-05
0.000408363
-1.70665e-05
0.000413876
-1.68345e-05
0.000419294
-1.65511e-05
0.000424608
-1.6221e-05
0.000429807
-1.58466e-05
0.000434884
-1.54338e-05
0.000439829
-1.49843e-05
0.000444636
-1.45054e-05
0.000449296
-1.39974e-05
0.000453807
-1.34692e-05
0.00045816
-1.29192e-05
0.000462355
-1.23584e-05
0.000466385
-1.1782e-05
0.000470252
-1.12049e-05
0.000473948
-1.06167e-05
0.000477479
-1.00387e-05
0.000480837
-9.45163e-06
0.000484034
-8.88708e-06
0.000487055
-8.312e-06
0.000489921
-7.77477e-06
0.000492612
-7.2198e-06
0.00049516
-6.72342e-06
0.000497534
-6.19317e-06
0.000499781
-5.75156e-06
0.000501856
-5.24579e-06
0.000503828
-4.87471e-06
0.000505631
-4.38668e-06
0.000507363
-4.10635e-06
0.000508934
-3.61973e-06
0.000510472
-3.45864e-06
-2.94383e-06
0.000458891
-2.14205e-06
0.0004579
-2.36521e-06
0.000457015
-2.54616e-06
0.00045623
-2.68757e-06
0.00045554
-2.79285e-06
0.000454944
-2.86564e-06
0.00045444
-2.91002e-06
0.00045403
-2.93033e-06
0.000453717
-2.9308e-06
0.000453505
-2.91621e-06
0.000453401
-2.8911e-06
0.000453411
-2.85978e-06
0.000453542
-2.82739e-06
0.000453802
-2.79941e-06
0.000454202
-2.78059e-06
0.000454749
-2.77527e-06
0.000455453
-2.78822e-06
0.000456324
-2.8246e-06
0.000457366
-2.88944e-06
0.000458578
-2.98781e-06
0.000459961
-3.12432e-06
0.000461513
-3.30292e-06
0.000463235
-3.52709e-06
0.000465123
-3.80015e-06
0.000467176
-4.12457e-06
0.000469392
-4.50226e-06
0.000471773
-4.93562e-06
0.000474318
-5.42573e-06
0.000477021
-5.96952e-06
0.000479874
-6.56362e-06
0.000482868
-7.20633e-06
0.000485993
-7.89453e-06
0.000489239
-8.6239e-06
0.000492599
-9.38894e-06
0.000496063
-1.01833e-05
0.000499625
-1.09999e-05
0.000503275
-1.18312e-05
0.000507007
-1.26695e-05
0.000510812
-1.35065e-05
0.00051468
-1.43342e-05
0.000518605
-1.51444e-05
0.000522576
-1.59293e-05
0.000526584
-1.66811e-05
0.000530622
-1.73929e-05
0.00053468
-1.8058e-05
0.000538751
-1.86705e-05
0.000542824
-1.92251e-05
0.000546891
-1.97171e-05
0.000550944
-2.01426e-05
0.000554973
-2.04988e-05
0.000558969
-2.07833e-05
0.000562923
-2.09959e-05
0.000566827
-2.1137e-05
0.000570674
-2.1208e-05
0.000574459
-2.12089e-05
0.000578175
-2.11418e-05
0.000581818
-2.10072e-05
0.000585382
-2.08087e-05
0.000588863
-2.05475e-05
0.000592257
-2.02291e-05
0.000595561
-1.98547e-05
0.000598772
-1.94315e-05
0.000601885
-1.89599e-05
0.0006049
-1.84492e-05
0.000607814
-1.7898e-05
0.000610627
-1.73182e-05
0.000613335
-1.67055e-05
0.000615941
-1.60754e-05
0.000618441
-1.54191e-05
0.00062084
-1.47574e-05
0.000623133
-1.40745e-05
0.000625327
-1.33991e-05
0.000627415
-1.27051e-05
0.00062941
-1.20332e-05
0.0006313
-1.13419e-05
0.000633103
-1.06899e-05
0.000634804
-1.00127e-05
0.000636425
-9.39634e-06
0.000637947
-8.74204e-06
0.000639401
-8.17672e-06
0.000640758
-7.55075e-06
0.000642059
-7.05256e-06
0.00064327
-6.45653e-06
0.000644439
-6.0433e-06
0.000645527
-5.47461e-06
0.000646589
-5.16844e-06
0.000647588
-4.61953e-06
0.00064858
-4.4502e-06
-3.91652e-06
0.000693843
2.37353e-07
0.000691634
-1.56194e-07
0.000689595
-5.06434e-07
0.000687715
-8.0744e-07
0.000685988
-1.0658e-06
0.000684409
-1.28679e-06
0.000682974
-1.4755e-06
0.000681681
-1.63719e-06
0.000680527
-1.77674e-06
0.00067951
-1.89887e-06
0.000678627
-2.00808e-06
0.000677876
-2.10961e-06
0.000677259
-2.21e-06
0.000676775
-2.31499e-06
0.000676423
-2.42927e-06
0.000676206
-2.55796e-06
0.000676124
-2.70646e-06
0.000676179
-2.87971e-06
0.000676372
-3.08236e-06
0.000676703
-3.31893e-06
0.000677173
-3.59346e-06
0.000677779
-3.90936e-06
0.000678521
-4.26948e-06
0.000679397
-4.67611e-06
0.000680404
-5.13087e-06
0.000681536
-5.63456e-06
0.000682787
-6.18718e-06
0.000684149
-6.78767e-06
0.000685614
-7.43405e-06
0.000687174
-8.12384e-06
0.000688822
-8.85397e-06
0.000690548
-9.62043e-06
0.000692342
-1.04183e-05
0.000694195
-1.12418e-05
0.000696096
-1.20846e-05
0.000698036
-1.29397e-05
0.000700005
-1.37999e-05
0.000701993
-1.46576e-05
0.000703992
-1.55051e-05
0.000705992
-1.63346e-05
0.000707986
-1.71386e-05
0.000709967
-1.79099e-05
0.000711927
-1.86412e-05
0.00071386
-1.93264e-05
0.000715761
-1.99591e-05
0.000717625
-2.05343e-05
0.000719447
-2.10469e-05
0.000721223
-2.14934e-05
0.000722951
-2.18701e-05
0.000724627
-2.21752e-05
0.00072625
-2.24065e-05
0.000727819
-2.25643e-05
0.000729329
-2.26474e-05
0.00073078
-2.26583e-05
0.000732168
-2.25974e-05
0.000733495
-2.2469e-05
0.000734761
-2.22725e-05
0.000735965
-2.20134e-05
0.000737109
-2.16912e-05
0.000738194
-2.13137e-05
0.000739219
-2.08796e-05
0.000740186
-2.03992e-05
0.000741096
-1.98696e-05
0.000741951
-1.93041e-05
0.00074275
-1.86971e-05
0.000743497
-1.80655e-05
0.000744191
-1.73995e-05
0.000744837
-1.67212e-05
0.000745432
-1.60144e-05
0.000745983
-1.53086e-05
0.000746487
-1.45784e-05
0.000746952
-1.38637e-05
0.000747373
-1.31261e-05
0.00074776
-1.24202e-05
0.000748107
-1.16894e-05
0.000748427
-1.1009e-05
0.000748711
-1.0297e-05
0.000748973
-9.65852e-06
0.000749206
-8.97481e-06
0.000749423
-8.39393e-06
0.000749618
-7.74535e-06
0.000749803
-7.23826e-06
0.000749975
-6.6285e-06
0.000750145
-6.21269e-06
0.000750312
-5.64195e-06
0.000750482
-5.33804e-06
0.000750665
-4.80307e-06
0.000750853
-4.63815e-06
-4.13935e-06
0.000843217
3.07789e-06
0.00084052
2.54123e-06
0.000837964
2.04913e-06
0.000835558
1.59903e-06
0.000833304
1.18772e-06
0.000831206
8.11732e-07
0.000829263
4.67293e-07
0.000827474
1.51496e-07
0.000825846
-1.4862e-07
0.00082438
-4.32668e-07
0.00082307
-6.97632e-07
0.000821916
-9.55747e-07
0.00082092
-1.2139e-06
0.000820079
-1.47399e-06
0.000819389
-1.73926e-06
0.000818846
-2.01544e-06
0.000818447
-2.30757e-06
0.000818187
-2.61973e-06
0.000818061
-2.95585e-06
0.000818061
-3.31961e-06
0.000818182
-3.71418e-06
0.000818415
-4.14221e-06
0.000818751
-4.60585e-06
0.000819182
-5.10672e-06
0.000819697
-5.64581e-06
0.000820286
-6.22341e-06
0.000820938
-6.83921e-06
0.000821642
-7.49227e-06
0.000822389
-8.18072e-06
0.000823167
-8.90188e-06
0.000823966
-9.65246e-06
0.000824774
-1.04286e-05
0.000825581
-1.12256e-05
0.000826378
-1.20383e-05
0.000827154
-1.28611e-05
0.000827902
-1.36877e-05
0.000828614
-1.45117e-05
0.000829283
-1.53264e-05
0.000829903
-1.61251e-05
0.000830469
-1.69011e-05
0.000830978
-1.76477e-05
0.000831427
-1.83586e-05
0.000831813
-1.90276e-05
0.000832136
-1.96495e-05
0.000832396
-2.02184e-05
0.000832592
-2.07305e-05
0.000832726
-2.1181e-05
0.0008328
-2.15674e-05
0.000832816
-2.18861e-05
0.000832777
-2.21363e-05
0.000832686
-2.23151e-05
0.000832545
-2.24237e-05
0.000832358
-2.24605e-05
0.000832129
-2.24292e-05
0.00083186
-2.23286e-05
0.000831555
-2.21639e-05
0.000831216
-2.1933e-05
0.000830845
-2.16431e-05
0.000830446
-2.12917e-05
0.000830021
-2.08886e-05
0.000829571
-2.04301e-05
0.000829101
-1.99288e-05
0.00082861
-1.9379e-05
0.000828103
-1.87968e-05
0.000827579
-1.81732e-05
0.000827042
-1.75286e-05
0.000826492
-1.68492e-05
0.000825932
-1.61611e-05
0.000825361
-1.54439e-05
0.000824784
-1.47314e-05
0.0008242
-1.39939e-05
0.000823611
-1.32754e-05
0.000823019
-1.25338e-05
0.000822426
-1.18272e-05
0.000821833
-1.10963e-05
0.000821243
-1.04186e-05
0.000820657
-9.71104e-06
0.000820076
-9.0784e-06
0.000819507
-8.40499e-06
0.000818946
-7.83306e-06
0.000818402
-7.20184e-06
0.00081787
-6.70634e-06
0.000817365
-6.12268e-06
0.000816872
-5.72026e-06
0.000816416
-5.18629e-06
0.000815974
-4.89516e-06
0.000815579
-4.4082e-06
0.00081519
-4.24971e-06
-3.80059e-06
0.000905438
5.60902e-06
0.000903002
4.97721e-06
0.000900671
4.38053e-06
0.000898453
3.81724e-06
0.000896355
3.28496e-06
0.000894387
2.78055e-06
0.000892554
2.30027e-06
0.000890865
1.83995e-06
0.000889319
1.39757e-06
0.000887914
9.72225e-07
0.000886655
5.61408e-07
0.000885538
1.61457e-07
0.000884566
-2.42574e-07
0.000883736
-6.43729e-07
0.000883044
-1.04709e-06
0.000882489
-1.46071e-06
0.000882068
-1.88599e-06
0.000881773
-2.32465e-06
0.000881597
-2.77998e-06
0.000881532
-3.25521e-06
0.000881571
-3.75273e-06
0.000881703
-4.2744e-06
0.000881919
-4.82172e-06
0.000882208
-5.39577e-06
0.000882559
-5.99708e-06
0.000882962
-6.62569e-06
0.000883403
-7.28109e-06
0.000883873
-7.96219e-06
0.00088436
-8.66708e-06
0.000884851
-9.39337e-06
0.000885337
-1.01381e-05
0.000885806
-1.08979e-05
0.000886249
-1.16689e-05
0.000886658
-1.2447e-05
0.000887024
-1.32272e-05
0.000887341
-1.40046e-05
0.000887603
-1.47735e-05
0.000887805
-1.55287e-05
0.000887944
-1.62642e-05
0.000888018
-1.69747e-05
0.000888024
-1.76542e-05
0.000887964
-1.82979e-05
0.000887836
-1.89001e-05
0.000887643
-1.94566e-05
0.000887387
-1.99624e-05
0.000887071
-2.04142e-05
0.000886698
-2.08077e-05
0.000886271
-2.1141e-05
0.000885795
-2.14103e-05
0.000885275
-2.16156e-05
0.000884713
-2.17536e-05
0.000884116
-2.18265e-05
0.000883487
-2.18316e-05
0.000882831
-2.17727e-05
0.000882149
-2.16472e-05
0.000881446
-2.14607e-05
0.000880723
-2.12101e-05
0.000879984
-2.09035e-05
0.000879229
-2.05368e-05
0.000878461
-2.01212e-05
0.000877682
-1.9651e-05
0.000876894
-1.91404e-05
0.000876096
-1.85815e-05
0.000875292
-1.79923e-05
0.00087448
-1.73614e-05
0.000873663
-1.67113e-05
0.00087284
-1.60261e-05
0.000872012
-1.53337e-05
0.00087118
-1.4612e-05
0.000870345
-1.38962e-05
0.000869507
-1.31558e-05
0.000868667
-1.24352e-05
0.000867826
-1.1693e-05
0.000866984
-1.09857e-05
0.000866145
-1.02572e-05
0.000865307
-9.58051e-06
0.000864476
-8.87964e-06
0.000863647
-8.25009e-06
0.000862831
-7.5888e-06
0.00086202
-7.02223e-06
0.000861229
-6.41012e-06
0.000860444
-5.92204e-06
0.000859687
-5.36564e-06
0.000858939
-4.97163e-06
0.000858226
-4.47401e-06
0.000857522
-4.191e-06
0.000856865
-3.75065e-06
0.000856211
-3.59643e-06
-3.19741e-06
0.000930966
7.81688e-06
0.000928848
7.09479e-06
0.00092683
6.39861e-06
0.00092492
5.72713e-06
0.000923126
5.07888e-06
0.000921455
4.45217e-06
0.00091991
3.84513e-06
0.000918494
3.256e-06
0.000917209
2.68274e-06
0.000916059
2.12231e-06
0.000915049
1.57139e-06
0.000914183
1.0265e-06
0.000913458
4.83409e-07
0.000912871
-5.69646e-08
0.000912414
-5.90468e-07
0.000912083
-1.12959e-06
0.000911871
-1.6742e-06
0.000911775
-2.22886e-06
0.000911791
-2.79514e-06
0.000911909
-3.37366e-06
0.000912122
-3.96555e-06
0.00091242
-4.57237e-06
0.000912793
-5.19528e-06
0.000913232
-5.83488e-06
0.000913727
-6.49134e-06
0.000914266
-7.16449e-06
0.000914838
-7.85367e-06
0.000915434
-8.55783e-06
0.000916042
-9.27535e-06
0.000916653
-1.00043e-05
0.000917257
-1.0742e-05
0.000917845
-1.1486e-05
0.000918409
-1.22328e-05
0.000918941
-1.29791e-05
0.000919434
-1.37206e-05
0.000919883
-1.44534e-05
0.000920283
-1.51727e-05
0.000920628
-1.58743e-05
0.000920917
-1.6553e-05
0.000921147
-1.72047e-05
0.000921317
-1.78239e-05
0.000921426
-1.8407e-05
0.000921474
-1.89486e-05
0.000921463
-1.94456e-05
0.000921394
-1.98931e-05
0.000921269
-2.02888e-05
0.000921089
-2.06283e-05
0.000920859
-2.09105e-05
0.00092058
-2.11316e-05
0.000920256
-2.1292e-05
0.000919891
-2.13882e-05
0.000919487
-2.14226e-05
0.000919047
-2.13915e-05
0.000918573
-2.1299e-05
0.000918068
-2.11416e-05
0.000917532
-2.09256e-05
0.000916969
-2.06469e-05
0.00091638
-2.03143e-05
0.000915766
-1.99229e-05
0.000915129
-1.94841e-05
0.000914469
-1.89915e-05
0.000913789
-1.84598e-05
0.000913088
-1.78803e-05
0.000912367
-1.72712e-05
0.000911626
-1.66209e-05
0.000910867
-1.59519e-05
0.000910089
-1.52483e-05
0.000909293
-1.45377e-05
0.00090848
-1.37988e-05
0.000907649
-1.30656e-05
0.000906803
-1.23095e-05
0.00090594
-1.15724e-05
0.000905064
-1.08166e-05
0.000904172
-1.00942e-05
0.00090327
-9.35528e-06
0.000902355
-8.66519e-06
0.000901433
-7.95811e-06
0.000900501
-7.31732e-06
0.000899567
-6.65519e-06
0.000898624
-6.0798e-06
0.000897688
-5.47349e-06
0.000896745
-4.97925e-06
0.000895816
-4.43677e-06
0.000894884
-4.03947e-06
0.000893975
-3.56486e-06
0.000893064
-3.27991e-06
0.000892186
-2.87239e-06
0.000891308
-2.71906e-06
-2.37378e-06
0.000969025
1.01491e-05
0.000966804
9.31508e-06
0.000964703
8.49989e-06
0.000962727
7.70343e-06
0.00096088
6.92526e-06
0.000959168
6.16453e-06
0.000957593
5.42054e-06
0.000956157
4.69165e-06
0.000954863
3.97633e-06
0.000953712
3.27366e-06
0.000952702
2.58186e-06
0.000951828
1.90042e-06
0.000951082
1.22958e-06
0.000950457
5.67336e-07
0.000949964
-9.68083e-08
0.000949597
-7.62994e-07
0.000949352
-1.42933e-06
0.000949217
-2.09383e-06
0.000949182
-2.76019e-06
0.00094924
-3.43157e-06
0.000949383
-4.10818e-06
0.000949601
-4.79063e-06
0.000949885
-5.47981e-06
0.000950227
-6.1762e-06
0.000950615
-6.87963e-06
0.00095104
-7.58973e-06
0.000951492
-8.30586e-06
0.000951962
-9.02717e-06
0.000952439
-9.7523e-06
0.000952914
-1.04797e-05
0.000953379
-1.12072e-05
0.000953826
-1.19327e-05
0.000954247
-1.26534e-05
0.000954634
-1.33665e-05
0.000954982
-1.40686e-05
0.000955285
-1.47564e-05
0.000955538
-1.54261e-05
0.000955738
-1.6074e-05
0.000955881
-1.6696e-05
0.000955965
-1.72887e-05
0.000955989
-1.78475e-05
0.000955951
-1.83693e-05
0.000955852
-1.88498e-05
0.000955693
-1.92862e-05
0.000955474
-1.96742e-05
0.000955197
-2.0012e-05
0.000954864
-2.02955e-05
0.000954478
-2.0524e-05
0.00095404
-2.06939e-05
0.000953554
-2.08062e-05
0.000953024
-2.08574e-05
0.000952451
-2.08501e-05
0.00095184
-2.07805e-05
0.000951194
-2.06526e-05
0.000950515
-2.0463e-05
0.000949807
-2.02176e-05
0.000949073
-1.99123e-05
0.000948314
-1.95556e-05
0.000947533
-1.91423e-05
0.000946733
-1.86835e-05
0.000945914
-1.81728e-05
0.000945078
-1.7624e-05
0.000944227
-1.70291e-05
0.000943361
-1.64048e-05
0.000942481
-1.57408e-05
0.000941586
-1.50576e-05
0.000940679
-1.43412e-05
0.000939758
-1.36166e-05
0.000938824
-1.28654e-05
0.000937877
-1.21177e-05
0.000936917
-1.13495e-05
0.000935942
-1.05974e-05
0.000934955
-9.82996e-06
0.000933952
-9.09167e-06
0.000932939
-8.34186e-06
0.000931909
-7.63534e-06
0.00093087
-6.91881e-06
0.000929814
-6.26129e-06
0.000928751
-5.59206e-06
0.000927671
-5.00009e-06
0.000926588
-4.39e-06
0.000925488
-3.87974e-06
0.000924389
-3.3378e-06
0.000923275
-2.92578e-06
0.000922169
-2.45823e-06
0.000921052
-2.1628e-06
0.000919949
-1.77029e-06
0.000918841
-1.6105e-06
-1.29109e-06
0.0010161
1.25233e-05
0.0010138
1.1614e-05
0.00101158
1.07152e-05
0.00100946
9.8279e-06
0.00100743
8.95267e-06
0.00100551
8.09007e-06
0.00100369
7.24031e-06
0.00100197
6.4035e-06
0.00100037
5.57976e-06
0.000998876
4.76873e-06
0.000997487
3.97018e-06
0.000996204
3.18402e-06
0.000995025
2.4087e-06
0.000993948
1.64371e-06
0.000992961
8.90747e-07
0.000992044
1.54198e-07
0.00099122
-6.05551e-07
0.000990477
-1.35104e-06
0.000989808
-2.09143e-06
0.000989203
-2.82593e-06
0.00098865
-3.5552e-06
0.00098814
-4.28139e-06
0.000987666
-5.0051e-06
0.000987217
-5.72732e-06
0.000986785
-6.44817e-06
0.000986363
-7.16707e-06
0.00098594
-7.88355e-06
0.00098551
-8.59697e-06
0.000985064
-9.30623e-06
0.000984595
-1.00101e-05
0.000984094
-1.07068e-05
0.000983556
-1.13949e-05
0.000982975
-1.20722e-05
0.000982345
-1.27368e-05
0.000981663
-1.33861e-05
0.000980924
-1.40179e-05
0.000980127
-1.4629e-05
0.00097927
-1.52166e-05
0.000978351
-1.57774e-05
0.000977371
-1.63086e-05
0.00097633
-1.68068e-05
0.000975231
-1.72696e-05
0.000974075
-1.76935e-05
0.000972865
-1.80766e-05
0.000971606
-1.84153e-05
0.000970302
-1.87082e-05
0.000968959
-1.89519e-05
0.00096758
-1.91455e-05
0.000966172
-1.92861e-05
0.00096474
-1.93739e-05
0.000963289
-1.94069e-05
0.000961827
-1.93873e-05
0.000960359
-1.93124e-05
0.000958891
-1.9185e-05
0.00095743
-1.90021e-05
0.000955981
-1.87681e-05
0.000954548
-1.84798e-05
0.000953136
-1.81433e-05
0.000951749
-1.7755e-05
0.000950388
-1.7323e-05
0.000949058
-1.68429e-05
0.000947759
-1.6325e-05
0.000946494
-1.57636e-05
0.000945261
-1.51718e-05
0.000944062
-1.45419e-05
0.000942894
-1.389e-05
0.000941759
-1.32059e-05
0.000940651
-1.25092e-05
0.000939572
-1.17865e-05
0.000938516
-1.10615e-05
0.000937483
-1.03164e-05
0.000936466
-9.58038e-06
0.000935466
-8.82961e-06
0.000934474
-8.09997e-06
0.000933492
-7.35992e-06
0.000932511
-6.65434e-06
0.000931533
-5.94069e-06
0.000930549
-5.27674e-06
0.000929561
-4.60402e-06
0.000928559
-3.999e-06
0.000927549
-3.37957e-06
0.00092652
-2.85115e-06
0.000925478
-2.29502e-06
0.000924414
-1.86183e-06
0.000923331
-1.37566e-06
0.000922227
-1.05852e-06
0.000921101
-6.44323e-07
0.000919961
-4.70693e-07
-1.26096e-07
0.00103067
1.4209e-05
0.00102894
1.33437e-05
0.00102717
1.24781e-05
0.00102539
1.16142e-05
0.00102359
1.0754e-05
0.00102178
9.89919e-06
0.00101997
9.0511e-06
0.00101816
8.21134e-06
0.00101636
7.38075e-06
0.00101457
6.56018e-06
0.00101279
5.75057e-06
0.00101102
4.95192e-06
0.00100926
4.16461e-06
0.00100752
3.38955e-06
0.00100578
2.62562e-06
0.00100406
1.87254e-06
0.00100232
1.13206e-06
0.00100056
4.09431e-07
0.000998796
-3.23143e-07
0.000997023
-1.05303e-06
0.000995236
-1.76854e-06
0.000993429
-2.47416e-06
0.000991596
-3.17228e-06
0.000989733
-3.86388e-06
0.000987832
-4.54764e-06
0.000985889
-5.22333e-06
0.000983897
-5.89165e-06
0.000981852
-6.55249e-06
0.000979751
-7.20515e-06
0.00097759
-7.8488e-06
0.000975366
-8.48263e-06
0.000973077
-9.10592e-06
0.000970722
-9.71744e-06
0.000968301
-1.03155e-05
0.000965813
-1.08989e-05
0.000963262
-1.14662e-05
0.000960648
-1.20156e-05
0.000957977
-1.25449e-05
0.000955251
-1.30519e-05
0.000952477
-1.35345e-05
0.000949661
-1.39906e-05
0.00094681
-1.44184e-05
0.000943932
-1.48156e-05
0.000941036
-1.51805e-05
0.000938131
-1.55108e-05
0.000935228
-1.5805e-05
0.000932337
-1.60608e-05
0.000929468
-1.62769e-05
0.000926633
-1.64512e-05
0.000923843
-1.65835e-05
0.000921108
-1.66719e-05
0.000918437
-1.67164e-05
0.00091584
-1.67152e-05
0.000913324
-1.66689e-05
0.000910897
-1.65756e-05
0.000908566
-1.64369e-05
0.000906337
-1.62512e-05
0.000904215
-1.60209e-05
0.000902204
-1.57443e-05
0.000900306
-1.5425e-05
0.000898524
-1.50611e-05
0.000896857
-1.46578e-05
0.000895306
-1.42126e-05
0.000893867
-1.37326e-05
0.000892539
-1.32144e-05
0.000891317
-1.26672e-05
0.000890197
-1.20862e-05
0.000889171
-1.14834e-05
0.000888236
-1.08517e-05
0.000887381
-1.02065e-05
0.000886602
-9.5374e-06
0.000885887
-8.86464e-06
0.00088523
-8.17274e-06
0.000884618
-7.48852e-06
0.000884047
-6.78889e-06
0.000883503
-6.11056e-06
0.000882981
-5.41823e-06
0.000882468
-4.7639e-06
0.000881957
-4.09334e-06
0.00088144
-3.48195e-06
0.000880906
-2.8448e-06
0.000880351
-2.29612e-06
0.000879758
-1.70266e-06
0.000879137
-1.2402e-06
0.000878458
-6.96961e-07
0.000877749
-3.49666e-07
0.000876955
1.50082e-07
0.000876132
3.51694e-07
7.99797e-07
0.000982506
1.46861e-05
0.000981831
1.40187e-05
0.00098097
1.33392e-05
0.000979934
1.26505e-05
0.000978732
1.19553e-05
0.000977375
1.12566e-05
0.00097587
1.05564e-05
0.000974223
9.85746e-06
0.000972442
9.1618e-06
0.000970532
8.47077e-06
0.000968496
7.786e-06
0.000966339
7.10913e-06
0.000964063
6.44068e-06
0.000961671
5.78132e-06
0.000959165
5.13234e-06
0.000956544
4.49269e-06
0.000953817
3.85944e-06
0.000950993
3.23349e-06
0.000948052
2.61749e-06
0.000944987
2.01261e-06
0.0009418
1.41853e-06
0.000938491
8.34918e-07
0.000935054
2.64146e-07
0.000931509
-3.18776e-07
0.000927858
-8.9654e-07
0.000924101
-1.46665e-06
0.000920241
-2.03146e-06
0.000916281
-2.59234e-06
0.000912226
-3.14989e-06
0.000908081
-3.70359e-06
0.00090385
-4.25262e-06
0.000899542
-4.79699e-06
0.000895162
-5.33787e-06
0.000890721
-5.87486e-06
0.000886232
-6.40909e-06
0.000881705
-6.93959e-06
0.000877154
-7.4644e-06
0.00087259
-7.98135e-06
0.000868026
-8.48764e-06
0.000863473
-8.98137e-06
0.000858944
-9.46138e-06
0.000854452
-9.92639e-06
0.000850011
-1.03746e-05
0.000845634
-1.08043e-05
0.000841337
-1.12134e-05
0.000837132
-1.16001e-05
0.000833033
-1.1962e-05
0.000829054
-1.22974e-05
0.000825206
-1.26038e-05
0.000821502
-1.28792e-05
0.000817951
-1.31212e-05
0.000814563
-1.33283e-05
0.000811346
-1.34983e-05
0.000808307
-1.363e-05
0.000805453
-1.37214e-05
0.000802788
-1.37715e-05
0.000800315
-1.37785e-05
0.000798036
-1.3742e-05
0.000795953
-1.36607e-05
0.000794062
-1.35346e-05
0.000792364
-1.33631e-05
0.000790853
-1.3147e-05
0.000789527
-1.28863e-05
0.000788377
-1.25824e-05
0.000787398
-1.22358e-05
0.00078658
-1.18489e-05
0.000785916
-1.14224e-05
0.000785393
-1.09597e-05
0.000785002
-1.04616e-05
0.000784729
-9.93326e-06
0.000784566
-9.37423e-06
0.000784494
-8.79267e-06
0.000784507
-8.18525e-06
0.000784583
-7.56507e-06
0.000784717
-6.92265e-06
0.000784887
-6.28093e-06
0.000785087
-5.61814e-06
0.000785298
-4.97435e-06
0.000785509
-4.30505e-06
0.000785708
-3.68044e-06
0.000785877
-3.01402e-06
0.000786012
-2.43073e-06
0.000786083
-1.77352e-06
0.000786105
-1.26215e-06
0.000786024
-6.16455e-07
0.000785892
-2.17271e-07
0.000785599
4.42699e-07
0.000785267
6.83324e-07
1.34904e-06
0.000872188
1.38944e-05
0.000872622
1.35839e-05
0.00087271
1.32521e-05
0.000872458
1.29018e-05
0.000871878
1.25359e-05
0.000870977
1.21571e-05
0.000869765
1.17685e-05
0.00086825
1.13729e-05
0.000866438
1.09732e-05
0.000864337
1.0572e-05
0.000861953
1.01702e-05
0.000859293
9.76854e-06
0.000856367
9.36758e-06
0.000853181
8.96708e-06
0.000849746
8.56677e-06
0.000846072
8.16722e-06
0.000842163
7.76877e-06
0.000838026
7.37004e-06
0.000833675
6.96806e-06
0.000829128
6.56032e-06
0.000824401
6.14474e-06
0.000819517
5.71917e-06
0.000814498
5.28299e-06
0.000809344
4.83559e-06
0.00080407
4.37727e-06
0.000798697
3.9068e-06
0.000793243
3.42253e-06
0.000787727
2.92336e-06
0.000782168
2.40873e-06
0.000776586
1.87886e-06
0.000770999
1.33436e-06
0.000765427
7.75021e-07
0.000759891
1.98e-07
0.000754383
-3.66553e-07
0.000748922
-9.48632e-07
0.000743527
-1.54413e-06
0.000738212
-2.14938e-06
0.000732992
-2.76128e-06
0.00072788
-3.37574e-06
0.000722886
-3.98774e-06
0.000718021
-4.59624e-06
0.000713294
-5.19886e-06
0.000708713
-5.7936e-06
0.000704287
-6.37821e-06
0.000700023
-6.95012e-06
0.00069593
-7.50682e-06
0.000692014
-8.04585e-06
0.000688281
-8.56465e-06
0.000684738
-9.06051e-06
0.000681389
-9.53064e-06
0.00067824
-9.97175e-06
0.000675292
-1.03806e-05
0.000672549
-1.07548e-05
0.000670011
-1.10918e-05
0.000667679
-1.13895e-05
0.000665553
-1.16454e-05
0.000663632
-1.18577e-05
0.000661914
-1.20242e-05
0.000660397
-1.21436e-05
0.000659076
-1.22142e-05
0.000657949
-1.22355e-05
0.000657008
-1.22063e-05
0.000656249
-1.21271e-05
0.000655663
-1.19968e-05
0.000655245
-1.18173e-05
0.000654983
-1.15871e-05
0.00065487
-1.13098e-05
0.000654894
-1.09834e-05
0.000655046
-1.06132e-05
0.000655309
-1.01968e-05
0.000655676
-9.74147e-06
0.000656128
-9.24441e-06
0.000656658
-8.71457e-06
0.000657242
-8.14951e-06
0.000657877
-7.55791e-06
0.000658537
-6.94116e-06
0.000659222
-6.30281e-06
0.000659902
-5.65437e-06
0.000660579
-4.98223e-06
0.000661222
-4.32352e-06
0.000661833
-3.62421e-06
0.000662381
-2.97912e-06
0.000662859
-2.25171e-06
0.000663254
-1.65652e-06
0.000663528
-8.91333e-07
0.000663712
-4.00887e-07
0.00066372
4.35221e-07
0.000663658
7.45148e-07
1.72506e-06
0.000707189
1.25027e-05
0.000708102
1.26712e-05
0.000708546
1.28078e-05
0.000708534
1.2914e-05
0.000708079
1.29909e-05
0.000707196
1.30396e-05
0.000705904
1.3061e-05
0.000704221
1.30559e-05
0.00070217
1.30245e-05
0.000699774
1.29672e-05
0.00069706
1.28841e-05
0.000694054
1.27748e-05
0.000690783
1.26385e-05
0.000687275
1.2475e-05
0.000683558
1.22841e-05
0.00067966
1.20648e-05
0.000675613
1.18162e-05
0.000671445
1.15384e-05
0.00066718
1.12323e-05
0.000662842
1.08985e-05
0.00065845
1.0537e-05
0.000654023
1.01466e-05
0.000649579
9.72618e-06
0.000645139
9.27546e-06
0.000640721
8.79572e-06
0.000636339
8.28861e-06
0.000632006
7.75533e-06
0.000627733
7.19696e-06
0.000623527
6.61478e-06
0.000619395