/*--------------------------------*- C++ -*----------------------------------*\
| =========                 |                                                 |
| \\      /  F ield         | OpenFOAM: The Open Source CFD Toolbox           |
|  \\    /   O peration     | Version:  2312                                  |
|   \\  /    A nd           | Website:  www.openfoam.com                      |
|    \\/     M anipulation  |                                                 |
\*---------------------------------------------------------------------------*/
FoamFile
{
    version     2.0;
    format      ascii;
    arch        "LSB;label=32;scalar=64";
    class       surfaceScalarField;
    location    "41000";
    object      phi;
}
// * * * * * * * * * * * * * * * * * * * * * * * * * * * * * * * * * * * * * //

dimensions      [0 3 -1 0 0 0 0];

oriented        oriented;

internalField   nonuniform List<scalar> 
5309
(
7.46496e-05
2.77401e-05
6.92571e-05
5.39249e-06
6.29669e-05
6.2902e-06
5.97709e-05
3.19603e-06
5.86754e-05
1.09544e-06
5.94244e-05
-7.48964e-07
6.06516e-05
-1.22724e-06
6.318e-05
-2.52832e-06
6.5594e-05
-2.41403e-06
6.91154e-05
-3.52137e-06
7.19722e-05
-2.85689e-06
7.58125e-05
-3.84024e-06
7.84341e-05
-2.62158e-06
8.19622e-05
-3.52811e-06
8.37336e-05
-1.77148e-06
8.6511e-05
-2.77739e-06
8.69528e-05
-4.41737e-07
8.86401e-05
-1.68728e-06
8.7442e-05
1.19804e-06
8.77383e-05
-2.96304e-07
8.4706e-05
3.03233e-06
8.35446e-05
1.16136e-06
7.83602e-05
5.18448e-06
7.57321e-05
2.62809e-06
6.83194e-05
7.41263e-06
6.47083e-05
3.61116e-06
5.47426e-05
9.96571e-06
5.58851e-05
-1.14249e-06
1.67247e-05
3.91604e-05
-1.92064e-05
3.59311e-05
0.000148734
3.36345e-05
0.000146452
7.6748e-06
0.000144172
8.57006e-06
0.000142911
4.45703e-06
0.000142703
1.30293e-06
0.000144453
-2.4987e-06
0.000146946
-3.72063e-06
0.000151219
-6.80137e-06
0.00015561
-6.80435e-06
0.000161673
-9.58491e-06
0.000167146
-8.32989e-06
0.000174178
-1.08718e-05
0.000179807
-8.25124e-06
0.000186943
-1.06633e-05
0.000191829
-6.65807e-06
0.000198263
-9.21079e-06
0.000201605
-3.78358e-06
0.000206764
-6.84665e-06
0.000208081
-1.18848e-07
0.000211718
-3.9337e-06
0.000210078
4.67258e-06
0.000212131
-8.91639e-07
0.000206557
1.07583e-05
0.000207174
2.01108e-06
0.000195387
1.91998e-05
0.000196946
2.05207e-06
0.000170494
3.64174e-05
0.000179955
-1.06031e-05
0.000141447
7.76684e-05
-2.21146e-05
0.000144355
0.000197932
3.15573e-05
0.000198711
6.89561e-06
0.000200169
7.11272e-06
0.00020114
3.48619e-06
0.000202439
3.92293e-09
0.000204884
-4.9439e-06
0.000207867
-6.70352e-06
0.000212386
-1.13204e-05
0.000217014
-1.14323e-05
0.000223304
-1.58749e-05
0.00022912
-1.41461e-05
0.000236648
-1.83995e-05
0.000242945
-1.45484e-05
0.000251085
-1.88031e-05
0.00025711
-1.26839e-05
0.000265301
-1.74009e-05
0.000270396
-8.87887e-06
0.000278368
-1.48186e-05
0.00028168
-3.43157e-06
0.00028918
-1.14334e-05
0.000289983
3.87017e-06
0.000296909
-7.81806e-06
0.000293806
1.38616e-05
0.000300775
-4.95855e-06
0.000291019
2.89563e-05
0.000298752
-5.68145e-06
0.000283
5.21698e-05
0.000285673
-1.32759e-05
0.000279726
8.36148e-05
-1.09295e-06
0.000258705
0.000234886
2.69656e-05
0.000234971
6.80995e-06
0.000237091
4.99311e-06
0.000239252
1.32478e-06
0.000241095
-1.83861e-06
0.000244388
-8.23666e-06
0.000247791
-1.01074e-05
0.000252504
-1.60333e-05
0.000257118
-1.60464e-05
0.000263213
-2.19698e-05
0.000268816
-1.97492e-05
0.000276025
-2.56083e-05
0.000282187
-2.07105e-05
0.000290143
-2.67589e-05
0.000296361
-1.89016e-05
0.000304755
-2.57949e-05
0.000310543
-1.46673e-05
0.00031914
-2.34149e-05
0.000323927
-8.21864e-06
0.000332711
-2.0218e-05
0.000336033
5.48842e-07
0.000344895
-1.66804e-05
0.000346145
1.26114e-05
0.000354388
-1.3201e-05
0.000354767
2.85772e-05
0.000359726
-1.06406e-05
0.000363207
4.86885e-05
0.000357829
-7.89756e-06
0.000377655
6.37888e-05
1.86076e-05
0.000357954
0.000263648
2.22254e-05
0.000263302
7.15646e-06
0.000265197
3.09769e-06
0.000267877
-1.35457e-06
0.000270338
-4.2999e-06
0.000273251
-1.11499e-05
0.000276551
-1.34076e-05
0.000280711
-2.01934e-05
0.000285125
-2.04601e-05
0.00029039
-2.72344e-05
0.000295732
-2.50911e-05
0.000301919
-3.17953e-05
0.00030794
-2.67317e-05
0.000314812
-3.36308e-05
0.00032123
-2.53199e-05
0.000328562
-3.31272e-05
0.000335139
-2.12438e-05
0.000342688
-3.09644e-05
0.000349368
-1.48981e-05
0.000356894
-2.77445e-05
0.000363731
-6.28777e-06
0.000370663
-2.36123e-05
0.000378296
4.97849e-06
0.000383556
-1.84613e-05
0.000393338
1.87949e-05
0.000394539
-1.1841e-05
0.000409992
3.3235e-05
0.000402049
4.51205e-08
0.000425746
4.00926e-05
2.70588e-05
0.000417294
0.00028642
1.82094e-05
0.00028601
7.56706e-06
0.000287397
1.71072e-06
0.000289523
-3.48064e-06
0.000291897
-6.67443e-06
0.000294391
-1.36435e-05
0.000297611
-1.66276e-05
0.000301047
-2.36296e-05
0.000305315
-2.47274e-05
0.000309554
-3.1474e-05
0.000314737
-3.02738e-05
0.000319659
-3.67172e-05
0.000325658
-3.27309e-05
0.000331088
-3.90606e-05
0.000337812
-3.20444e-05
0.000343551
-3.88657e-05
0.000350987
-2.86804e-05
0.00035681
-3.67874e-05
0.000365107
-2.31944e-05
0.000370675
-3.33128e-05
0.000380183
-1.57961e-05
0.000384967
-2.83953e-05
0.00039643
-6.48489e-06
0.000399441
-2.14724e-05
0.000414039
4.19706e-06
0.000413529
-1.13316e-05
0.00043254
1.42241e-05
0.000427983
4.6021e-06
0.000448594
1.9482e-05
2.64317e-05
0.000449221
0.00030415
1.5183e-05
0.000304105
7.61186e-06
0.000304876
9.4034e-07
0.000306378
-4.98302e-06
0.000308685
-8.98197e-06
0.000310657
-1.56152e-05
0.000313684
-1.96545e-05
0.000316314
-2.62593e-05
0.000320317
-2.87308e-05
0.000323566
-3.47232e-05
0.000328481
-3.51889e-05
0.000332247
-4.04833e-05
0.00033806
-3.85432e-05
0.000342223
-4.32235e-05
0.000348947
-3.87685e-05
0.00035335
-4.32692e-05
0.000361084
-3.64141e-05
0.000365544
-4.12481e-05
0.000374501
-3.21507e-05
0.000378758
-3.75701e-05
0.000389312
-2.63499e-05
0.000392998
-3.20812e-05
0.000405674
-1.9161e-05
0.000408247
-2.40451e-05
0.000423469
-1.10253e-05
0.000424574
-1.24362e-05
0.000441812
-3.01469e-06
0.000443282
3.13253e-06
0.000458063
4.7009e-06
2.00308e-05
0.000464464
0.000317369
1.31381e-05
0.000317677
7.30334e-06
0.0003182
4.1802e-07
0.000319139
-5.92264e-06
0.000321224
-1.10663e-05
0.000322775
-1.71667e-05
0.000325503
-2.23829e-05
0.000327512
-2.82682e-05
0.000331114
-3.23327e-05
0.000333617
-3.72257e-05
0.000338088
-3.966e-05
0.000341004
-4.33994e-05
0.000346378
-4.39169e-05
0.000349643
-4.64889e-05
0.00035599
-4.51155e-05
0.000359514
-4.67935e-05
0.000366971
-4.38702e-05
0.000370657
-4.49346e-05
0.00037942
-4.09139e-05
0.000383163
-4.1313e-05
0.000393488
-3.66751e-05
0.000397195
-3.5788e-05
0.000409265
-3.12312e-05
0.000412977
-2.77569e-05
0.000426552
-2.46001e-05
0.000430841
-1.67252e-05
0.000444616
-1.67894e-05
0.000451159
-3.41089e-06
0.000462607
-6.74739e-06
1.09616e-05
0.000471677
0.000326521
1.19389e-05
0.000327039
6.78593e-06
0.00032763
-1.73011e-07
0.00032824
-6.53236e-06
0.000329991
-1.28174e-05
0.000331272
-1.84484e-05
0.000333625
-2.4736e-05
0.000335244
-2.98869e-05
0.000338325
-3.54132e-05
0.000340363
-3.92643e-05
0.000344225
-4.35216e-05
0.000346639
-4.58135e-05
0.000351341
-4.86189e-05
0.000354121
-4.92692e-05
0.000359762
-5.07558e-05
0.000362901
-4.99325e-05
0.000369609
-5.05785e-05
0.000373123
-4.84489e-05
0.000381043
-4.88336e-05
0.000384998
-4.52681e-05
0.000394243
-4.59207e-05
0.000398794
-4.03389e-05
0.000409321
-4.17574e-05
0.000414821
-3.32575e-05
0.000426208
-3.59867e-05
0.000433337
-2.38541e-05
0.000444724
-2.81769e-05
0.000453846
-1.25329e-05
0.000464881
-1.77825e-05
8.75032e-07
0.000474968
0.000332099
1.13373e-05
0.000332761
6.12404e-06
0.00033349
-9.02647e-07
0.000334022
-7.06438e-06
0.000335428
-1.42227e-05
0.000336573
-1.95932e-05
0.000338525
-2.66885e-05
0.00033996
-3.13214e-05
0.000342478
-3.79314e-05
0.000344297
-4.10838e-05
0.000347478
-4.67019e-05
0.000349685
-4.80206e-05
0.000353599
-5.25334e-05
0.000356235
-5.19048e-05
0.000360993
-5.5514e-05
0.000364128
-5.30676e-05
0.000369844
-5.62943e-05
0.000373592
-5.2197e-05
0.000380371
-5.56121e-05
0.000384911
-4.98089e-05
0.000392808
-5.3817e-05
0.000398408
-4.59396e-05
0.000407367
-5.07156e-05
0.000414378
-4.02688e-05
0.000424199
-4.58077e-05
0.000432856
-3.25111e-05
0.000443332
-3.8653e-05
0.000453298
-2.24992e-05
0.000464745
-2.92291e-05
-9.69345e-06
0.000475313
0.000334774
1.10325e-05
0.000335457
5.4414e-06
0.000336288
-1.73446e-06
0.000336947
-7.72315e-06
0.000338092
-1.53678e-05
0.000339198
-2.06991e-05
0.000340797
-2.82872e-05
0.000342197
-3.27212e-05
0.00034422
-3.99547e-05
0.000345991
-4.28544e-05
0.00034855
-4.9261e-05
0.000350742
-5.02134e-05
0.000353916
-5.57072e-05
0.000356611
-5.45998e-05
0.000360516
-5.94188e-05
0.000363839
-5.63908e-05
0.00036859
-6.10449e-05
0.000372708
-5.63147e-05
0.000378416
-6.13201e-05
0.000383542
-5.49351e-05
0.000390302
-6.05768e-05
0.000396682
-5.23205e-05
0.000404564
-5.85968e-05
0.000412393
-4.80982e-05
0.000421449
-5.48636e-05
0.000430689
-4.17509e-05
0.000441028
-4.89921e-05
0.000451411
-3.28828e-05
0.000463097
-4.09144e-05
-2.09058e-05
0.000474309
0.000335347
1.06778e-05
0.000336048
4.74004e-06
0.000336909
-2.59514e-06
0.000337748
-8.56189e-06
0.000338755
-1.63753e-05
0.000339898
-2.18416e-05
0.000341252
-2.9642e-05
0.000342707
-3.41755e-05
0.000344389
-4.16368e-05
0.000346206
-4.46712e-05
0.000348314
-5.13693e-05
0.000350579
-5.2478e-05
0.000353199
-5.83279e-05
0.000356018
-5.74182e-05
0.000359271
-6.26718e-05
0.000362795
-5.99146e-05
0.000366813
-6.50629e-05
0.000371225
-6.07275e-05
0.000376154
-6.6249e-05
0.00038166
-6.04411e-05
0.000387666
-6.65827e-05
0.000394456
-5.911e-05
0.000401722
-6.58635e-05
0.000409908
-5.62842e-05
0.000418612
-6.35679e-05
0.000428181
-5.13194e-05
0.000438431
-5.92423e-05
0.000449263
-4.37142e-05
0.000461
-5.2652e-05
-3.28813e-05
0.000472976
0.000334767
1.01072e-05
0.000335565
3.94153e-06
0.000336437
-3.46673e-06
0.000337434
-9.5594e-06
0.000338417
-1.73582e-05
0.000339654
-2.30786e-05
0.000340903
-3.08906e-05
0.000342453
-3.57258e-05
0.000343975
-4.31587e-05
0.000345872
-4.65687e-05
0.000347742
-5.32385e-05
0.000350081
-5.48168e-05
0.00035239
-6.06377e-05
0.000355289
-6.03166e-05
0.00035816
-6.55435e-05
0.000361779
-6.35333e-05
0.000365365
-6.86486e-05
0.000369886
-6.52488e-05
0.000374365
-7.07279e-05
0.000379983
-6.60587e-05
0.000385563
-7.21632e-05
0.000392466
-6.60131e-05
0.000399376
-7.27731e-05
0.000407717
-6.4625e-05
0.000416152
-7.20031e-05
0.000426004
-6.11709e-05
0.000436051
-6.92896e-05
0.000447376
-5.50397e-05
0.000458996
-6.42721e-05
-4.559e-05
0.000471705
0.000334402
9.36706e-06
0.000335284
3.05978e-06
0.000336147
-4.32987e-06
0.000337242
-1.06551e-05
0.000338258
-1.8374e-05
0.000339604
-2.44241e-05
0.000340849
-3.21358e-05
0.0003425
-3.73769e-05
0.000343986
-4.46444e-05
0.000345961
-4.85438e-05
0.000347735
-5.5013e-05
0.000350116
-5.71971e-05
0.000352271
-6.27931e-05
0.000355172
-6.3218e-05
0.000357837
-6.8208e-05
0.000361416
-6.71128e-05
0.000364755
-7.19873e-05
0.000369198
-6.96921e-05
0.000373403
-7.49324e-05
0.000378919
-7.1575e-05
0.000384209
-7.74533e-05
0.000391025
-7.28288e-05
0.000397637
-7.93849e-05
0.000405973
-7.29616e-05
0.00041411
-8.01398e-05
0.000424129
-7.11901e-05
0.000433894
-7.90541e-05
0.000445635
-6.67809e-05
0.000457007
-7.56442e-05
-5.90043e-05
0.000470421
0.000335363
8.59436e-06
0.00033626
2.16334e-06
0.000337098
-5.16862e-06
0.000338231
-1.17879e-05
0.000339286
-1.94291e-05
0.000340709
-2.58465e-05
0.000341984
-3.34111e-05
0.000343695
-3.90882e-05
0.000345175
-4.61238e-05
0.000347173
-5.0542e-05
0.00034888
-5.67203e-05
0.000351224
-5.95415e-05
0.000353245
-6.48136e-05
0.000356044
-6.60165e-05
0.000358512
-7.06769e-05
0.00036192
-7.05206e-05
0.000365016
-7.50827e-05
0.000369224
-7.39007e-05
0.000373153
-7.88611e-05
0.000378386
-7.68076e-05
0.000383381
-8.24487e-05
0.000389898
-7.93462e-05
0.000396209
-8.56959e-05
0.000404295
-8.10471e-05
0.000412144
-8.79891e-05
0.000422047
-8.10926e-05
0.000431568
-8.85753e-05
0.00044342
-7.86333e-05
0.000454611
-8.68351e-05
-7.28124e-05
0.000468419
0.000338465
7.99175e-06
-0.000337862
0.000339253
1.37521e-06
0.000340011
-5.92742e-06
0.000341085
-1.28613e-05
0.000342116
-2.04599e-05
0.000343509
-2.72397e-05
0.000344754
-3.46564e-05
0.000346407
-4.07407e-05
0.000347807
-4.75245e-05
0.000349695
-5.24293e-05
0.000351251
-5.82766e-05
0.000353416
-6.1707e-05
0.000355205
-6.66024e-05
0.000357757
-6.85685e-05
0.000359923
-7.28431e-05
0.000363024
-7.36214e-05
0.000365764
-7.78227e-05
0.000369611
-7.77475e-05
0.000373154
-8.24041e-05
0.000377973
-8.16268e-05
0.000382578
-8.7054e-05
0.000388641
-8.54089e-05
0.000394594
-9.16485e-05
0.000402214
-8.86671e-05
0.000409783
-9.55584e-05
0.000419277
-9.05865e-05
0.000428641
-9.79398e-05
0.000440253
-9.02446e-05
0.000451428
-9.80107e-05
-8.66373e-05
0.000465253
0.000343487
7.6714e-06
-0.000343167
0.000344068
7.94232e-07
0.000344698
-6.55776e-06
0.000345615
-1.37784e-05
0.00034653
-2.13747e-05
0.00034775
-2.84595e-05
0.000348853
-3.5759e-05
0.000350279
-4.21672e-05
0.000351478
-4.87236e-05
0.000353073
-5.40243e-05
0.000354353
-5.95566e-05
0.000356162
-6.35155e-05
0.000357598
-6.80389e-05
0.000359749
-7.07187e-05
0.000361499
-7.45933e-05
0.000364176
-7.62989e-05
0.000366451
-8.00977e-05
0.000369867
-8.11628e-05
0.00037291
-8.54476e-05
0.000377287
-8.60033e-05
0.000381381
-9.11488e-05
0.000386976
-9.10031e-05
0.000392456
-9.7129e-05
0.000399569
-9.57801e-05
0.000406787
-0.000102777
0.000415745
-9.9544e-05
0.00042497
-0.000107165
0.000436077
-0.000101352
0.000447395
-0.000109328
-0.00010014
0.000460897
0.000349122
7.52872e-06
-0.000348979
0.000349528
3.87821e-07
0.000350057
-7.08641e-06
0.000350798
-1.45194e-05
0.000351549
-2.21256e-05
0.000352497
-2.94075e-05
0.000353366
-3.66283e-05
0.000354435
-4.32364e-05
0.000355337
-4.96249e-05
0.000356496
-5.51836e-05
0.000357422
-6.04826e-05
0.000358741
-6.48351e-05
0.000359783
-6.90805e-05
0.000361428
-7.23639e-05
0.000362755
-7.59201e-05
0.000364947
-7.84905e-05
0.000366767
-8.19181e-05
0.000369738
-8.41335e-05
0.000372279
-8.79888e-05
0.000376255
-8.99798e-05
0.000379786
-9.46795e-05
0.000385008
-9.62249e-05
0.000389882
-0.000102004
0.000396616
-0.000102514
0.000403274
-0.000109434
0.000411789
-0.00010806
0.000420662
-0.000116038
0.00043122
-0.00011191
0.000442572
-0.00012068
-0.000113075
0.000455507
0.000354376
7.45869e-06
-0.000354306
0.000354651
1.13359e-07
0.000355072
-7.50766e-06
0.000355614
-1.50609e-05
0.00035616
-2.26717e-05
0.000356797
-3.00444e-05
0.00035739
-3.72214e-05
0.000358066
-4.39124e-05
0.000358651
-5.02103e-05
0.000359357
-5.58896e-05
0.000359955
-6.10805e-05
0.000360787
-6.56675e-05
0.000361512
-6.98051e-05
0.000362662
-7.35143e-05
0.000363687
-7.6945e-05
0.000365398
-8.0201e-05
0.000366909
-8.34297e-05
0.00036943
-8.66538e-05
0.000371603
-9.01619e-05
0.000375175
-9.3552e-05
0.000378204
-9.77087e-05
0.000383082
-0.000101103
0.00038726
-0.000106182
0.000393716
-0.000108969
0.000399488
-0.000115207
0.000407753
-0.000116324
0.000415708
-0.000123993
0.000425911
-0.000122113
0.00043663
-0.000131399
-0.000125335
0.00044889
0.000357466
7.13604e-06
-0.000357144
0.000357924
-3.44197e-07
0.000358415
-7.99898e-06
0.000358956
-1.56013e-05
0.000359478
-2.31938e-05
0.000360003
-3.05696e-05
0.000360481
-3.76997e-05
0.00036095
-4.43811e-05
0.000361367
-5.0627e-05
0.000361794
-5.63169e-05
0.000362202
-6.14883e-05
0.000362697
-6.61624e-05
0.000363234
-7.03426e-05
0.000363991
-7.42712e-05
0.000364842
-7.77955e-05
0.000366099
-8.14578e-05
0.000367437
-8.47676e-05
0.000369439
-8.86565e-05
0.000371395
-9.21177e-05
0.000374395
-9.65524e-05
0.00037707
-0.000100383
0.000381362
-0.000105395
0.000384908
-0.000109728
0.000390854
-0.000114915
0.00039556
-0.000119913
0.000403485
-0.000124249
0.000409851
-0.00013036
0.000419849
-0.00013211
0.000428665
-0.000140215
-0.000137117
0.000440447
0.000360524
6.51487e-06
-0.000359903
0.000361181
-1.00057e-06
0.000361838
-8.65669e-06
0.000362504
-1.62675e-05
0.000363123
-2.38122e-05
0.000363684
-3.11312e-05
0.000364156
-3.81713e-05
0.000364547
-4.47724e-05
0.000364857
-5.09364e-05
0.0003651
-5.65604e-05
0.000365322
-6.17104e-05
0.000365535
-6.63752e-05
0.000365837
-7.06449e-05
0.000366217
-7.46506e-05
0.000366815
-7.83937e-05
0.000367586
-8.2229e-05
0.000368676
-8.58579e-05
0.000370053
-9.00331e-05
0.000371769
-9.38332e-05
0.000373966
-9.87501e-05
0.000376368
-0.000102785
0.000379667
-0.000108695
0.000382774
-0.000112834
0.000387599
-0.000119741
0.000391423
-0.000123736
0.000398278
-0.000131104
0.000402816
-0.000134898
0.000411954
-0.000141248
0.000417402
-0.000145663
-0.000147984
0.000428269
0.000367176
5.95689e-06
-0.000366618
0.000367746
-1.57081e-06
0.000368319
-9.22875e-06
0.00036888
-1.68294e-05
0.000369369
-2.43006e-05
0.000369759
-3.1521e-05
0.000370009
-3.84215e-05
0.000370128
-4.48918e-05
0.000370111
-5.09191e-05
0.000369989
-5.64382e-05
0.000369799
-6.15203e-05
0.000369576
-6.61523e-05
0.000369414
-7.04835e-05
0.000369312
-7.45477e-05
0.000369435
-7.85169e-05
0.000369678
-8.24723e-05
0.00037031
-8.64896e-05
0.000371058
-9.07815e-05
0.000372341
-9.51161e-05
0.000373705
-0.000100114
0.000375714
-0.000104794
0.00037782
-0.0001108
0.00038052
-0.000115534
0.000383606
-0.000122828
0.000386743
-0.000126872
0.000391191
-0.000135552
0.000394021
-0.000137728
0.000400166
-0.000147393
0.000401178
-0.000146675
-0.000155482
0.000408676
0.000375412
5.42684e-06
-0.000374882
0.000375908
-2.0674e-06
0.000376371
-9.69167e-06
0.000376749
-1.72067e-05
0.000376987
-2.45395e-05
0.000377063
-3.15967e-05
0.000376942
-3.83008e-05
0.000376635
-4.45849e-05
0.000376143
-5.04266e-05
0.000375516
-5.58109e-05
0.000374783
-6.07875e-05
0.000374022
-6.53914e-05
0.000373289
-6.97503e-05
0.000372659
-7.3918e-05
0.000372214
-7.8072e-05
0.000371965
-8.22233e-05
0.000372035
-8.65588e-05
0.000372275
-9.10215e-05
0.000372941
-9.57821e-05
0.000373626
-0.0001008
0.000374907
-0.000106076
0.000375905
-0.000111797
0.00037767
-0.0001173
0.000378649
-0.000123806
0.000380392
-0.000128616
0.000380903
-0.000136063
0.000381267
-0.000138092
0.000380837
-0.000146963
0.000376523
-0.000142361
-0.00015413
0.000375171
0.000383343
4.57961e-06
-0.000382495
0.000384029
-2.7535e-06
0.000384555
-1.0218e-05
0.00038488
-1.75314e-05
0.000384969
-2.46288e-05
0.000384793
-3.14207e-05
0.000384336
-3.7844e-05
0.000383615
-4.38637e-05
0.000382657
-4.94683e-05
0.000381517
-5.4671e-05
0.000380245
-5.95153e-05
0.000378927
-6.40736e-05
0.000377624
-6.84477e-05
0.000376444
-7.27378e-05
0.000375432
-7.706e-05
0.000374674
-8.14651e-05
0.000374158
-8.60436e-05
0.000373886
-9.07488e-05
0.000373788
-9.56847e-05
0.000373716
-0.000100727
0.000373728
-0.000106088
0.000373386
-0.000111456
0.000373021
-0.000116934
0.000371291
-0.000122076
0.000369355
-0.00012668
0.000364366
-0.000131074
0.000359071
-0.000132796
0.00034836
-0.000136252
0.000336122
-0.000130123
-0.000136731
0.000318723
0.000393469
3.6612e-06
-0.00039255
0.000394259
-3.5438e-06
0.000394703
-1.06618e-05
0.000394879
-1.77076e-05
0.000394759
-2.45088e-05
0.000394253
-3.09146e-05
0.000393369
-3.69598e-05
0.000392143
-4.2638e-05
0.000390625
-4.79501e-05
0.000388874
-5.29199e-05
0.000386964
-5.76054e-05
0.00038498
-6.20895e-05
0.000383007
-6.64743e-05
0.000381136
-7.08673e-05
0.000379433
-7.53565e-05
0.000377954
-7.99867e-05
0.000376667
-8.47567e-05
0.00037553
-8.96113e-05
0.000374317
-9.44719e-05
0.000372804
-9.92139e-05
0.000370625
-0.000103909
0.000367603
-0.000108434
0.000363251
-0.000112582
0.000356804
-0.000115629
0.000347802
-0.000117678
0.000334751
-0.000118023
0.000318493
-0.000116539
0.000294839
-0.000112597
0.000269225
-0.00010451
-9.99602e-05
0.000232454
0.000406996
2.4529e-06
-0.000405788
0.000407774
-4.32187e-06
0.000408266
-1.11535e-05
0.00040822
-1.76613e-05
0.000407588
-2.38765e-05
0.000406465
-2.97924e-05
0.000404896
-3.53909e-05
0.000402921
-4.06627e-05
0.000400597
-4.56264e-05
0.000398002
-5.03243e-05
0.000395222
-5.48259e-05
0.000392346
-5.92133e-05
0.000389448
-6.35762e-05
0.00038658
-6.79994e-05
0.000383771
-7.25479e-05
0.000381011
-7.72268e-05
0.000378221
-8.19662e-05
0.000375208
-8.65987e-05
0.000371644
-9.09079e-05
0.000367049
-9.46188e-05
0.000360704
-9.75634e-05
0.000352192
-9.99213e-05
0.000340761
-0.000101152
0.000325734
-0.000100602
0.000306002
-9.79456e-05
0.00028067
-9.26907e-05
0.000249116
-8.49854e-05
0.000210992
-7.44734e-05
0.00016909
-6.26076e-05
-5.48047e-05
0.000123935
0.000422659
-1.14287e-07
-0.000420092
0.000424016
-5.6781e-06
0.000424408
-1.15457e-05
0.000424088
-1.73417e-05
0.000423108
-2.28969e-05
0.000421461
-2.81445e-05
0.000419164
-3.30945e-05
0.00041628
-3.77785e-05
0.000412892
-4.22384e-05
0.000409092
-4.65239e-05
0.000404971
-5.07049e-05
0.000400607
-5.48498e-05
0.00039605
-5.90188e-05
0.000391277
-6.32272e-05
0.000386173
-6.74432e-05
0.000380573
-7.16268e-05
0.000374215
-7.56083e-05
0.000366725
-7.91091e-05
0.000357639
-8.18213e-05
0.000346496
-8.34763e-05
0.000332479
-8.3546e-05
0.000314402
-8.18443e-05
0.000291392
-7.81427e-05
0.000263092
-7.23017e-05
0.000229643
-6.44965e-05
0.000190214
-5.32618e-05
0.000144121
-3.8893e-05
9.68402e-05
-2.71925e-05
5.68782e-05
-2.26456e-05
-2.66495e-05
2.8723e-05
0.000447806
-3.7244e-07
-0.000447548
0.000448297
-6.16925e-06
0.000448051
-1.12989e-05
0.000446791
-1.60824e-05
0.000444483
-2.05885e-05
0.000441191
-2.48526e-05
0.000436985
-2.88889e-05
0.000431926
-3.27193e-05
0.000426074
-3.63863e-05
0.000419495
-3.99453e-05
0.00041226
-4.34695e-05
0.000404417
-4.70064e-05
0.000395991
-5.05932e-05
0.000386901
-5.41374e-05
0.000376693
-5.72351e-05
0.000364935
-5.98682e-05
0.000351099
-6.17724e-05
0.000334418
-6.24287e-05
0.000314255
-6.16577e-05
0.00029051
-5.97313e-05
0.000264162
-5.71985e-05
0.000233266
-5.09478e-05
0.000196237
-4.11139e-05
0.000153503
-2.95676e-05
0.000107731
-1.87249e-05
6.43854e-05
-9.91586e-06
2.81588e-05
-2.66633e-06
1.25456e-06
-2.88237e-07
-1.65094e-05
-4.88164e-06
-1.41482e-05
-2.90106e-05
0.000481522
-2.82591e-06
-0.000479069
0.00048115
-5.79649e-06
0.000478811
-8.96019e-06
0.000474832
-1.21032e-05
0.000469318
-1.50747e-05
0.000462295
-1.78297e-05
0.000453783
-2.03762e-05
0.000443804
-2.27405e-05
0.000432363
-2.49458e-05
0.000419438
-2.70197e-05
0.000404957
-2.8989e-05
0.000388819
-3.08682e-05
0.000370881
-3.26554e-05
0.000351023
-3.42792e-05
0.00032947
-3.56817e-05
0.000306354
-3.67527e-05
0.000279981
-3.53997e-05
0.000249025
-3.14719e-05
0.000212894
-2.55268e-05
0.000172305
-1.91427e-05
0.000128622
-1.3515e-05
8.67253e-05
-9.05151e-06
5.00388e-05
-4.42737e-06
2.03452e-05
1.25958e-07
-2.06656e-06
3.68685e-06
-1.70014e-05
5.01899e-06
-2.49552e-05
5.28747e-06
-2.97936e-05
4.5502e-06
-3.65278e-05
1.85249e-06
-2.46215e-06
-4.82139e-05
0.000457553
-0.000460378
0.000451756
0.000442796
0.000430693
0.000415618
0.000397788
0.000377412
0.000354672
0.000329726
0.000302706
0.000273717
0.000242849
0.000210193
0.000175914
0.000140233
0.00010348
6.80801e-05
3.66082e-05
1.10814e-05
-8.06136e-06
-2.15764e-05
-3.06279e-05
-3.50553e-05
-3.49293e-05
-3.12425e-05
-2.62235e-05
-2.0936e-05
-1.63858e-05
-1.45333e-05
-1.69955e-05
0.000397706
0.000375856
0.000353177
0.000328319
0.000301639
0.000275699
0.000250731
0.00022469
0.000197554
0.00016981
0.000139963
0.00011131
7.5086e-05
4.03601e-05
0.000451682
5.79447e-06
0.000442724
8.95834e-06
0.000430623
1.21015e-05
0.00041555
1.5073e-05
0.000397721
1.78281e-05
0.000377347
2.03748e-05
0.000354607
2.27393e-05
0.000329663
2.49447e-05
0.000302644
2.70188e-05
0.000273656
2.89882e-05
0.000242788
3.08675e-05
0.000210134
3.26546e-05
0.000175856
3.42781e-05
0.000140175
3.56801e-05
0.000103427
3.6749e-05
6.80338e-05
3.53928e-05
3.65719e-05
3.14619e-05
1.10562e-05
2.55157e-05
-8.07536e-06
1.91316e-05
-2.15829e-05
1.35075e-05
-3.06275e-05
9.04467e-06
-3.50481e-05
4.42057e-06
-3.49151e-05
-1.33043e-07
-3.12292e-05
-3.68593e-06
-2.62103e-05
-5.0189e-06
-2.09204e-05
-5.28984e-06
-1.63659e-05
-4.5545e-06
-1.4508e-05
-1.85792e-06
2.45658e-06
-1.69646e-05
0.00048108
6.16575e-06
0.000478743
1.12958e-05
0.000474765
1.60794e-05
0.000469252
2.05858e-05
0.00046223
2.48502e-05
0.000453718
2.88868e-05
0.00044374
3.27177e-05
0.000432299
3.63852e-05
0.000419374
3.99446e-05
0.000404892
4.34693e-05
0.000388753
4.70066e-05
0.000370814
5.05937e-05
0.000350955
5.41378e-05
0.0003294
5.72343e-05
0.000306282
5.98674e-05
0.000279904
6.17703e-05
0.000248941
6.24248e-05
0.000212805
6.16519e-05
0.000172212
5.97243e-05
0.000128532
5.71883e-05
8.66458e-05
5.09305e-05
4.99746e-05
4.10918e-05
2.02953e-05
2.95462e-05
-2.09705e-06
1.87065e-05
-1.70131e-05
9.89716e-06
-2.49513e-05
2.64832e-06
-2.9782e-05
2.76206e-07
-3.65115e-05
4.87162e-06
1.41369e-05
-4.81918e-05
0.000448237
5.67549e-06
0.00044799
1.15423e-05
0.000446731
1.73381e-05
0.000444424
2.28934e-05
0.000441132
2.81413e-05
0.000436928
3.30917e-05
0.000431869
3.77762e-05
0.000426017
4.22368e-05
0.000419439
4.65229e-05
0.000412204
5.07046e-05
0.00040436
5.48502e-05
0.000395934
5.90199e-05
0.000386843
6.32289e-05
0.000376632
6.74453e-05
0.00036487
7.16292e-05
0.00035103
7.56105e-05
0.000334344
7.91107e-05
0.000314174
8.18217e-05
0.000290424
8.34745e-05
0.000264071
8.35414e-05
0.000233165
8.18363e-05
0.000196127
7.81301e-05
0.000153389
7.22839e-05
0.000107623
6.44718e-05
6.42951e-05
5.32255e-05
2.80912e-05
3.88522e-05
1.21039e-06
2.7157e-05
-1.65348e-05
2.26168e-05
2.66312e-05
-2.90292e-05
0.000423958
4.31552e-06
0.000424353
1.11482e-05
0.000424034
1.76565e-05
0.000423055
2.38721e-05
0.000421408
2.97885e-05
0.000419112
3.53875e-05
0.000416229
4.066e-05
0.000412841
4.56245e-05
0.000409041
5.03232e-05
0.00040492
5.48257e-05
0.000400556
5.92141e-05
0.000395998
6.3578e-05
0.000391224
6.80022e-05
0.000386118
7.25517e-05
0.000380516
7.72314e-05
0.000374155
8.19714e-05
0.000366661
8.66042e-05
0.00035757
9.09131e-05
0.000346421
9.4623e-05
0.000332396
9.75668e-05
0.00031431
9.99228e-05
0.00029129
0.00010115
0.000262979
0.000100594
0.000229521
9.79305e-05
0.00019008
9.26665e-05
0.00014398
8.49516e-05
9.6709e-05
7.44284e-05
5.67693e-05
6.25565e-05
5.47596e-05
2.8641e-05
0.000407724
3.53745e-06
0.000408216
1.06558e-05
0.00040817
1.77019e-05
0.000407539
2.45038e-05
0.000406417
3.09101e-05
0.000404849
3.6956e-05
0.000402874
4.2635e-05
0.00040055
4.79479e-05
0.000397955
5.29188e-05
0.000395175
5.76053e-05
0.000392299
6.20906e-05
0.0003894
6.64767e-05
0.000386531
7.0871e-05
0.000383721
7.53614e-05
0.00038096
7.99928e-05
0.000378167
8.4764e-05
0.000375152
8.96195e-05
0.000371584
9.44807e-05
0.000366984
9.92232e-05
0.000360633
0.000103918
0.000352113
0.000108443
0.000340674
0.000112589
0.000325635
0.000115633
0.000305888
0.000117678
0.000280539
0.000118016
0.000248966
0.000116524
0.000210824
0.00011257
0.000168905
0.000104476
9.99049e-05
0.00012376
0.000394213
2.7466e-06
0.000394658
1.02115e-05
0.000394834
1.75253e-05
0.000394715
2.46232e-05
0.000394209
3.14158e-05
0.000393325
3.78398e-05
0.0003921
4.38605e-05
0.000390582
4.94661e-05
0.000388831
5.46698e-05
0.00038692
5.95154e-05
0.000384936
6.4075e-05
0.000382962
6.84506e-05
0.000381091
7.27422e-05
0.000379386
7.70659e-05
0.000377907
8.14727e-05
0.000376618
8.60526e-05
0.000375478
9.07593e-05
0.000374262
9.56966e-05
0.000372745
0.00010074
0.000370562
0.000106102
0.000367534
0.00011147
0.000363174
0.000116949
0.000356717
0.00012209
0.000347701
0.000126693
0.000334635
0.000131082
0.000318355
0.000132804
0.000294677
0.000136248
0.000269035
0.000130117
0.000136709
0.000232231
0.000383987
2.06034e-06
0.000384514
9.68495e-06
0.000384839
1.72004e-05
0.000384928
2.45337e-05
0.000384752
3.15916e-05
0.000384296
3.82964e-05
0.000383575
4.45815e-05
0.000382616
5.04243e-05
0.000381476
5.58098e-05
0.000380204
6.07878e-05
0.000378886
6.53933e-05
0.000377583
6.97537e-05
0.000376402
7.39232e-05
0.000375389
7.8079e-05
0.000374629
8.22322e-05
0.000374112
8.65695e-05
0.000373837
9.1034e-05
0.000373737
9.57967e-05
0.000373662
0.000100816
0.00037367
0.000106094
0.000373324
0.000111816
0.000372951
0.000117322
0.000371213
0.000123828
0.000369266
0.000128641
0.000364263
0.000136085
0.000358951
0.000138117
0.000348213
0.000146986
0.000335954
0.000142377
0.000154154
0.00031851
0.00037587
1.56363e-06
0.000376333
9.22187e-06
0.000376711
1.68229e-05
0.00037695
2.42946e-05
0.000377025
3.15158e-05
0.000376905
3.84171e-05
0.000376598
4.48884e-05
0.000376105
5.09169e-05
0.000375478
5.64373e-05
0.000374745
6.15208e-05
0.000373984
6.61545e-05
0.00037325
7.04875e-05
0.000372619
7.45536e-05
0.000372174
7.85249e-05
0.000371923
8.24823e-05
0.000371991
8.6502e-05
0.000372229
9.07959e-05
0.000372892
9.51333e-05
0.000373575
0.000100133
0.000374853
0.000104816
0.000375846
0.000110823
0.000377606
0.000115561
0.000378576
0.000122857
0.000380313
0.000126904
0.000380809
0.000135589
0.000381163
0.000137763
0.000380708
0.00014744
0.000376377
0.000146708
0.00015554
0.000374991
0.000367711
9.93286e-07
0.000368283
8.6497e-06
0.000368845
1.62609e-05
0.000369334
2.38061e-05
0.000369724
3.11258e-05
0.000369974
3.81668e-05
0.000370093
4.4769e-05
0.000370076
5.09342e-05
0.000369954
5.65597e-05
0.000369763
6.17112e-05
0.00036954
6.63779e-05
0.000369378
7.06495e-05
0.000369274
7.46573e-05
0.000369397
7.84027e-05
0.000369638
8.22404e-05
0.000370269
8.58718e-05
0.000371015
9.00496e-05
0.000372296
9.38524e-05
0.000373656
9.87724e-05
0.000375663
0.000102809
0.000377763
0.000108724
0.00038046
0.000112865
0.000383538
0.000119779
0.00038667
0.000123772
0.000391106
0.000131153
0.000393927
0.000134941
0.000400056
0.000141312
0.00040105
0.000145713
0.000148061
0.00040853
0.000361148
3.36834e-07
0.000361806
7.992e-06
0.000362472
1.55947e-05
0.00036309
2.31877e-05
0.000363652
3.05642e-05
0.000364123
3.76952e-05
0.000364515
4.43777e-05
0.000364824
5.06249e-05
0.000365067
5.63164e-05
0.000365289
6.14894e-05
0.000365501
6.61655e-05
0.000365803
7.03477e-05
0.000366182
7.42788e-05
0.000366779
7.78053e-05
0.000367549
8.14707e-05
0.000368638
8.47826e-05
0.000370012
8.86754e-05
0.000371726
9.21384e-05
0.00037392
9.65783e-05
0.00037632
0.00010041
0.000379614
0.000105429
0.000382717
0.000109762
0.000387537
0.00011496
0.000391354
0.000119955
0.000398202
0.000124306
0.00040273
0.000130412
0.000411861
0.000132181