/*--------------------------------*- C++ -*----------------------------------*\
| =========                 |                                                 |
| \\      /  F ield         | OpenFOAM: The Open Source CFD Toolbox           |
|  \\    /   O peration     | Version:  2312                                  |
|   \\  /    A nd           | Website:  www.openfoam.com                      |
|    \\/     M anipulation  |                                                 |
\*---------------------------------------------------------------------------*/
FoamFile
{
    version     2.0;
    format      ascii;
    arch        "LSB;label=32;scalar=64";
    class       volScalarField;
    location    "118000";
    object      p;
}
// * * * * * * * * * * * * * * * * * * * * * * * * * * * * * * * * * * * * * //

dimensions      [0 2 -2 0 0 0 0];

internalField   nonuniform List<scalar> 
2715
(
3.72896e-07
3.22378e-07
3.01402e-07
2.83853e-07
2.66247e-07
2.48538e-07
2.28729e-07
2.07621e-07
1.82939e-07
1.56447e-07
1.25585e-07
9.33469e-08
5.66467e-08
1.98739e-08
-2.08099e-08
-5.95324e-08
-1.01515e-07
-1.39271e-07
-1.79942e-07
-2.14208e-07
-2.51534e-07
-2.80634e-07
-3.13501e-07
-3.36268e-07
-3.64982e-07
-3.79294e-07
-4.08181e-07
-4.09564e-07
-4.44877e-07
-5.46736e-07
3.58988e-07
3.03924e-07
2.89931e-07
2.74969e-07
2.58046e-07
2.40753e-07
2.21251e-07
2.00296e-07
1.75809e-07
1.49681e-07
1.19452e-07
8.80754e-08
5.25505e-08
1.71043e-08
-2.2049e-08
-5.92987e-08
-9.94805e-08
-1.35738e-07
-1.74541e-07
-2.07808e-07
-2.43756e-07
-2.72152e-07
-3.04784e-07
-3.26867e-07
-3.56163e-07
-3.71057e-07
-3.96788e-07
-4.11433e-07
-4.18273e-07
-5.66875e-07
3.46787e-07
3.01469e-07
2.8851e-07
2.74043e-07
2.56622e-07
2.38339e-07
2.18316e-07
1.9702e-07
1.72484e-07
1.46231e-07
1.16238e-07
8.49636e-08
5.00022e-08
1.49193e-08
-2.33294e-08
-5.99672e-08
-9.91358e-08
-1.35008e-07
-1.73198e-07
-2.06045e-07
-2.41552e-07
-2.69765e-07
-3.01145e-07
-3.24887e-07
-3.51298e-07
-3.72264e-07
-3.91815e-07
-4.20875e-07
-4.03339e-07
-5.05276e-07
3.366e-07
2.97363e-07
2.8232e-07
2.68375e-07
2.51653e-07
2.33983e-07
2.14148e-07
1.92691e-07
1.68206e-07
1.41804e-07
1.12138e-07
8.0894e-08
4.66874e-08
1.18327e-08
-2.52e-08
-6.15891e-08
-9.92115e-08
-1.34945e-07
-1.70958e-07
-2.04253e-07
-2.36903e-07
-2.67313e-07
-2.95655e-07
-3.22745e-07
-3.44883e-07
-3.71956e-07
-3.81969e-07
-4.20632e-07
-3.98289e-07
-4.66934e-07
3.26763e-07
2.94763e-07
2.78858e-07
2.66058e-07
2.49887e-07
2.31425e-07
2.11069e-07
1.89047e-07
1.64521e-07
1.37715e-07
1.08295e-07
7.67929e-08
4.32769e-08
8.35127e-09
-2.74944e-08
-6.38816e-08
-9.98592e-08
-1.357e-07
-1.69723e-07
-2.03727e-07
-2.34256e-07
-2.66005e-07
-2.91388e-07
-3.21301e-07
-3.39395e-07
-3.69963e-07
-3.76634e-07
-4.12658e-07
-4.0377e-07
-4.39463e-07
3.18148e-07
2.93025e-07
2.76301e-07
2.63031e-07
2.47124e-07
2.28563e-07
2.08023e-07
1.85514e-07
1.60863e-07
1.33629e-07
1.04327e-07
7.25216e-08
3.95267e-08
4.49019e-09
-3.03553e-08
-6.67301e-08
-1.01245e-07
-1.37147e-07
-1.69405e-07
-2.03747e-07
-2.32306e-07
-2.64676e-07
-2.88281e-07
-3.18943e-07
-3.36076e-07
-3.65779e-07
-3.75456e-07
-4.03511e-07
-4.09064e-07
-4.26915e-07
3.11098e-07
2.91502e-07
2.74689e-07
2.60548e-07
2.44753e-07
2.26123e-07
2.05333e-07
1.82253e-07
1.57295e-07
1.29588e-07
1.00213e-07
6.8117e-08
3.53986e-08
3.44601e-10
-3.38187e-08
-6.99488e-08
-1.03445e-07
-1.38958e-07
-1.70084e-07
-2.03943e-07
-2.31579e-07
-2.63314e-07
-2.86761e-07
-3.16146e-07
-3.34888e-07
-3.61321e-07
-3.75875e-07
-3.97463e-07
-4.10108e-07
-4.23678e-07
3.05844e-07
2.90082e-07
2.73779e-07
2.58666e-07
2.42623e-07
2.23838e-07
2.0273e-07
1.79091e-07
1.5366e-07
1.25496e-07
9.58546e-08
6.35501e-08
3.08474e-08
-4.0627e-09
-3.78869e-08
-7.34874e-08
-1.06436e-07
-1.41087e-07
-1.71714e-07
-2.04405e-07
-2.31968e-07
-2.6217e-07
-2.86426e-07
-3.1365e-07
-3.34585e-07
-3.57996e-07
-3.76014e-07
-3.94515e-07
-4.0971e-07
-4.22659e-07
3.02463e-07
2.88757e-07
2.73112e-07
2.5734e-07
2.40743e-07
2.2163e-07
2.00111e-07
1.75939e-07
1.49909e-07
1.21297e-07
9.12274e-08
5.87758e-08
2.58897e-08
-8.76254e-09
-4.24959e-08
-7.73866e-08
-1.10088e-07
-1.43623e-07
-1.74071e-07
-2.05326e-07
-2.33049e-07
-2.61587e-07
-2.86542e-07
-3.1201e-07
-3.34227e-07
-3.56149e-07
-3.7548e-07
-3.93398e-07
-4.09179e-07
-4.22896e-07
3.00705e-07
2.87595e-07
2.72524e-07
2.56375e-07
2.39066e-07
2.19434e-07
1.97384e-07
1.7268e-07
1.45981e-07
1.16904e-07
8.63087e-08
5.3715e-08
2.05501e-08
-1.38226e-08
-4.75618e-08
-8.17181e-08
-1.14241e-07
-1.46664e-07
-1.76913e-07
-2.0684e-07
-2.34508e-07
-2.61708e-07
-2.86838e-07
-3.11218e-07
-3.33783e-07
-3.55134e-07
-3.74804e-07
-3.92825e-07
-4.09055e-07
-4.23551e-07
3.00086e-07
2.86744e-07
2.71889e-07
2.55482e-07
2.37456e-07
2.17167e-07
1.94465e-07
1.69194e-07
1.418e-07
1.12223e-07
8.10656e-08
4.82857e-08
1.48334e-08
-1.93127e-08
-5.3034e-08
-8.65409e-08
-1.18799e-07
-1.50261e-07
-1.80125e-07
-2.08966e-07
-2.36257e-07
-2.62466e-07
-2.87316e-07
-3.11004e-07
-3.33432e-07
-3.5453e-07
-3.74283e-07
-3.92533e-07
-4.09258e-07
-4.24455e-07
3.00024e-07
2.8624e-07
2.71222e-07
2.54463e-07
2.35734e-07
2.14713e-07
1.91278e-07
1.65378e-07
1.37281e-07
1.07158e-07
7.54378e-08
4.24098e-08
8.69938e-09
-2.52959e-08
-5.89305e-08
-9.18976e-08
-1.23773e-07
-1.54421e-07
-1.83725e-07
-2.11659e-07
-2.38349e-07
-2.63745e-07
-2.88082e-07
-3.11207e-07
-3.33327e-07
-3.54218e-07
-3.73984e-07
-3.9244e-07
-4.09602e-07
-4.25487e-07
3.00114e-07
2.85933e-07
2.70478e-07
2.53192e-07
2.33742e-07
2.11955e-07
1.87739e-07
1.61142e-07
1.32326e-07
1.01611e-07
6.93322e-08
3.59985e-08
2.06029e-09
-3.18478e-08
-6.53364e-08
-9.7843e-08
-1.29249e-07
-1.59172e-07
-1.87809e-07
-2.14912e-07
-2.4089e-07
-2.65514e-07
-2.89246e-07
-3.11794e-07
-3.33554e-07
-3.54167e-07
-3.73933e-07
-3.92471e-07
-4.10067e-07
-4.26448e-07
3.0011e-07
2.85613e-07
2.69571e-07
2.51603e-07
2.31387e-07
2.08802e-07
1.83767e-07
1.56401e-07
1.26831e-07
9.54686e-08
6.26253e-08
2.89364e-08
-5.21412e-09
-3.90802e-08
-7.23854e-08
-1.04474e-07
-1.35358e-07
-1.6459e-07
-1.92497e-07
-2.18785e-07
-2.43982e-07
-2.67823e-07
-2.90877e-07
-3.1281e-07
-3.34138e-07
-3.54419e-07
-3.74098e-07
-3.92663e-07
-4.10567e-07
-4.27378e-07
2.99924e-07
2.85086e-07
2.68413e-07
2.49681e-07
2.28636e-07
2.05193e-07
1.79276e-07
1.51054e-07
1.20669e-07
8.85949e-08
5.51601e-08
2.10705e-08
-1.32949e-08
-4.71478e-08
-8.02496e-08
-1.11932e-07
-1.42259e-07
-1.70795e-07
-1.97924e-07
-2.23374e-07
-2.4773e-07
-2.70742e-07
-2.93046e-07
-3.14301e-07
-3.35112e-07
-3.54984e-07
-3.74492e-07
-3.92993e-07
-4.11123e-07
-4.2822e-07
2.99619e-07
2.84317e-07
2.6699e-07
2.47445e-07
2.25488e-07
2.01078e-07
1.74169e-07
1.44977e-07
1.13687e-07
8.08191e-08
4.67445e-08
1.22078e-08
-2.23866e-08
-5.62424e-08
-8.91235e-08
-1.20387e-07
-1.50119e-07
-1.77926e-07
-2.04223e-07
-2.28786e-07
-2.52227e-07
-2.74348e-07
-2.95806e-07
-3.1631e-07
-3.36486e-07
-3.55876e-07
-3.75082e-07
-3.93452e-07
-4.11677e-07
-4.28988e-07
2.99375e-07
2.8339e-07
2.65348e-07
2.44919e-07
2.21921e-07
1.96377e-07
1.68313e-07
1.38001e-07
1.05685e-07
7.19275e-08
3.71493e-08
2.11977e-09
-3.27181e-08
-6.65766e-08
-9.92103e-08
-1.30019e-07
-1.59101e-07
-1.86121e-07
-2.11517e-07
-2.3512e-07
-2.57564e-07
-2.78703e-07
-2.99213e-07
-3.18862e-07
-3.38278e-07
-3.5708e-07
-3.75841e-07
-3.94e-07
-4.12168e-07
-4.29651e-07
2.99443e-07
2.82473e-07
2.63534e-07
2.42055e-07
2.17819e-07
1.90921e-07
1.61494e-07
1.29885e-07
9.64064e-08
6.16534e-08
2.61051e-08
-9.45345e-09
-4.45368e-08
-7.83765e-08
-1.10716e-07
-1.41009e-07
-1.69369e-07
-1.95519e-07
-2.1993e-07
-2.42477e-07
-2.63833e-07
-2.83878e-07
-3.03335e-07
-3.21994e-07
-3.40528e-07
-3.58589e-07
-3.76769e-07
-3.94565e-07
-4.12557e-07
-4.30094e-07
2.9994e-07
2.81673e-07
2.61497e-07
2.38654e-07
2.12903e-07
1.84402e-07
1.53394e-07
1.20304e-07
8.55184e-08
4.96689e-08
1.32939e-08
-2.28114e-08
-5.81214e-08
-9.18971e-08
-1.23874e-07
-1.53568e-07
-1.81111e-07
-2.06294e-07
-2.29617e-07
-2.51e-07
-2.71161e-07
-2.89987e-07
-3.08273e-07
-3.25787e-07
-3.43303e-07
-3.60437e-07
-3.77878e-07
-3.95113e-07
-4.12747e-07
-4.30176e-07
3.00633e-07
2.80805e-07
2.58909e-07
2.3428e-07
2.06701e-07
1.76353e-07
1.43558e-07
1.08809e-07
7.25824e-08
3.55483e-08
-1.69166e-09
-3.83387e-08
-7.38327e-08
-1.07476e-07
-1.38999e-07
-1.67996e-07
-1.94608e-07
-2.1871e-07
-2.40818e-07
-2.60915e-07
-2.79745e-07
-2.97213e-07
-3.14182e-07
-3.30373e-07
-3.46713e-07
-3.62684e-07
-3.79215e-07
-3.9558e-07
-4.12663e-07
-4.29614e-07
3.00743e-07
2.79077e-07
2.55119e-07
2.28351e-07
1.98631e-07
1.66177e-07
1.3138e-07
9.47985e-08
5.70026e-08
1.87091e-08
-1.94149e-08
-5.65749e-08
-9.21819e-08
-1.25595e-07
-1.56547e-07
-1.84722e-07
-2.10269e-07
-2.33158e-07
-2.53893e-07
-2.72553e-07
-2.89866e-07
-3.05811e-07
-3.21257e-07
-3.35936e-07
-3.5087e-07
-3.6543e-07
-3.80808e-07
-3.95942e-07
-4.12202e-07
-4.28104e-07
2.99851e-07
2.76047e-07
2.49673e-07
2.2037e-07
1.88119e-07
1.53215e-07
1.16136e-07
7.75105e-08
3.8003e-08
-1.62129e-09
-4.06303e-08
-7.82409e-08
-1.13846e-07
-1.46879e-07
-1.7709e-07
-2.04276e-07
-2.28592e-07
-2.50116e-07
-2.69304e-07
-2.86345e-07
-3.01906e-07
-3.16114e-07
-3.29766e-07
-3.42716e-07
-3.55927e-07
-3.68812e-07
-3.82668e-07
-3.96201e-07
-4.11245e-07
-4.25404e-07
2.97661e-07
2.71194e-07
2.41918e-07
2.09569e-07
1.74281e-07
1.36485e-07
9.67769e-08
5.58658e-08
1.45082e-08
-2.64847e-08
-6.63263e-08
-1.04252e-07
-1.39656e-07
-1.72063e-07
-2.01274e-07
-2.27221e-07
-2.50095e-07
-2.70081e-07
-2.87569e-07
-3.02817e-07
-3.16386e-07
-3.28586e-07
-3.40119e-07
-3.5106e-07
-3.62154e-07
-3.73024e-07
-3.84819e-07
-3.96339e-07
-4.09607e-07
-4.21336e-07
2.93732e-07
2.63841e-07
2.30818e-07
1.94652e-07
1.55687e-07
1.14498e-07
7.17977e-08
2.83832e-08
-1.49098e-08
-5.72285e-08
-9.77548e-08
-1.35746e-07
-1.70629e-07
-2.02032e-07
-2.2985e-07
-2.54175e-07
-2.75294e-07
-2.9351e-07
-3.09167e-07
-3.22505e-07
-3.33912e-07
-3.43798e-07
-3.5284e-07
-3.61384e-07
-3.69921e-07
-3.78308e-07
-3.87339e-07
-3.96299e-07
-4.06918e-07
-4.15783e-07
2.86206e-07
2.52085e-07
2.14332e-07
1.73462e-07
1.30118e-07
8.50101e-08
3.8976e-08
-7.09284e-09
-5.23038e-08
-9.57786e-08
-1.36694e-07
-1.7434e-07
-2.0821e-07
-2.38045e-07
-2.63874e-07
-2.85974e-07
-3.04793e-07
-3.20791e-07
-3.34351e-07
-3.45663e-07
-3.54847e-07
-3.62172e-07
-3.68329e-07
-3.73947e-07
-3.79461e-07
-3.84817e-07
-3.90425e-07
-3.96052e-07
-4.03022e-07
-4.08649e-07
2.71009e-07
2.3107e-07
1.87752e-07
1.41413e-07
9.29741e-08
4.3554e-08
-5.86273e-09
-5.43858e-08
-1.01136e-07
-1.45237e-07
-1.85885e-07
-2.22443e-07
-2.54516e-07
-2.81988e-07
-3.05023e-07
-3.24043e-07
-3.39663e-07
-3.52546e-07
-3.63239e-07
-3.72025e-07
-3.78909e-07
-3.83694e-07
-3.86748e-07
-3.88788e-07
-3.90608e-07
-3.92536e-07
-3.94468e-07
-3.95961e-07
-3.98456e-07
-4.00566e-07
2.53687e-07
2.0703e-07
1.54313e-07
9.91262e-08
4.36381e-08
-1.111e-08
-6.44581e-08
-1.15691e-07
-1.63954e-07
-2.08359e-07
-2.48154e-07
-2.82851e-07
-3.12293e-07
-3.36635e-07
-3.56241e-07
-3.71548e-07
-3.8308e-07
-3.91457e-07
-3.97385e-07
-4.01654e-07
-4.05037e-07
-4.07536e-07
-4.08126e-07
-4.06165e-07
-4.02833e-07
-4.00748e-07
-3.99818e-07
-3.97301e-07
-3.9464e-07
-3.94511e-07
1.9115e-07
1.3453e-07
7.65399e-08
1.70225e-08
-4.295e-08
-1.01778e-07
-1.57976e-07
-2.10337e-07
-2.57868e-07
-2.99769e-07
-3.35522e-07
-3.65028e-07
-3.88692e-07
-4.07384e-07
-4.22076e-07
-4.33158e-07
-4.40466e-07
-4.43569e-07
-4.421e-07
-4.36832e-07
-4.31018e-07
-4.2928e-07
-4.29818e-07
-4.25732e-07
-4.15642e-07
-4.06719e-07
-4.0387e-07
-4.04432e-07
-4.04155e-07
-4.01198e-07
1.60643e-07
9.12264e-08
1.62145e-08
-5.75212e-08
-1.2682e-07
-1.91053e-07
-2.50061e-07
-3.03247e-07
-3.49645e-07
-3.88344e-07
-4.18819e-07
-4.41212e-07
-4.56434e-07
-4.66293e-07
-4.73348e-07
-4.80705e-07
-4.89906e-07
-4.96792e-07
-4.93837e-07
-4.77708e-07
-4.53612e-07
-4.33784e-07
-4.26031e-07
-4.2684e-07
-4.26973e-07
-4.23594e-07
-4.18587e-07
-4.13671e-07
-4.10559e-07
-4.0925e-07
-8.15911e-08
-1.58494e-07
-2.35889e-07
-3.11851e-07
-3.8188e-07
-4.42633e-07
-4.92421e-07
-5.30469e-07
-5.56376e-07
-5.70114e-07
-5.72277e-07
-5.64354e-07
-5.48787e-07
-5.29168e-07
-5.09923e-07
-4.95788e-07
-4.89372e-07
-4.90449e-07
-4.94162e-07
-4.93955e-07
-4.87295e-07
-4.76536e-07
-4.6321e-07
-4.49155e-07
-4.37075e-07
-4.28911e-07
-4.23844e-07
-4.20435e-07
-4.18262e-07
-4.17214e-07
3.1332e-07
3.13985e-07
3.15348e-07
3.17287e-07
3.19315e-07
3.20819e-07
3.21675e-07
3.2188e-07
3.20851e-07
3.16716e-07
3.07404e-07
2.91606e-07
2.46898e-07
2.15663e-07
-3.72806e-10
-1.50408e-07
-2.2783e-07
-3.03866e-07
-3.74069e-07
-4.3513e-07
-4.85373e-07
-5.2402e-07
-5.50659e-07
-5.65245e-07
-5.68344e-07
-5.61405e-07
-5.46813e-07
-5.2808e-07
-5.09539e-07
-4.95831e-07
-4.89545e-07
-4.90532e-07
-4.94161e-07
-4.94069e-07
-4.87622e-07
-4.7718e-07
-4.64194e-07
-4.50441e-07
-4.38571e-07
-4.30483e-07
-4.25409e-07
-4.21914e-07
-4.19558e-07
-4.18232e-07
9.66044e-08
2.16866e-08
-5.19735e-08
-1.21259e-07
-1.85572e-07
-2.44764e-07
-2.98235e-07
-3.45017e-07
-3.84189e-07
-4.15214e-07
-4.38206e-07
-4.5404e-07
-4.64467e-07
-4.71982e-07
-4.79639e-07
-4.8899e-07
-4.9606e-07
-4.93544e-07
-4.78096e-07
-4.5465e-07
-4.35099e-07
-4.27318e-07
-4.28116e-07
-4.28479e-07
-4.25433e-07
-4.20704e-07
-4.15915e-07
-4.12779e-07
-4.11331e-07
1.39034e-07
8.1196e-08
2.18093e-08
-3.80934e-08
-9.69272e-08
-1.53208e-07
-2.05728e-07
-2.53492e-07
-2.95698e-07
-3.31818e-07
-3.61737e-07
-3.85835e-07
-4.04951e-07
-4.20023e-07
-4.31428e-07
-4.39054e-07
-4.42519e-07
-4.41474e-07
-4.36647e-07
-4.31182e-07
-4.29673e-07
-4.30564e-07
-4.2711e-07
-4.17723e-07
-4.09299e-07
-4.06705e-07
-4.07503e-07
-4.07525e-07
-4.04451e-07
2.10702e-07
1.58169e-07
1.03122e-07
4.77245e-08
-6.9821e-09
-6.03409e-08
-1.1164e-07
-1.60024e-07
-2.04608e-07
-2.44632e-07
-2.796e-07
-3.09342e-07
-3.33997e-07
-3.53915e-07
-3.69527e-07
-3.81365e-07
-3.90053e-07
-3.96297e-07
-4.00885e-07
-4.04599e-07
-4.07487e-07
-4.08574e-07
-4.07203e-07
-4.0447e-07
-4.02926e-07
-4.02576e-07
-4.00583e-07
-3.98103e-07
-3.97749e-07
2.3413e-07
1.90978e-07
1.44821e-07
9.65293e-08
4.72034e-08
-2.17052e-09
-5.06982e-08
-9.74984e-08
-1.41693e-07
-1.82478e-07
-2.1921e-07
-2.51489e-07
-2.79188e-07
-3.02463e-07
-3.21724e-07
-3.37583e-07
-3.50699e-07
-3.61628e-07
-3.70667e-07
-3.77845e-07
-3.82977e-07
-3.86426e-07
-3.88895e-07
-3.91153e-07
-3.93499e-07
-3.95827e-07
-3.97581e-07
-4.00172e-07
-4.021e-07
2.54814e-07
2.1721e-07
1.76495e-07
1.333e-07
8.83139e-08
4.23631e-08
-3.66215e-09
-4.88668e-08
-9.23712e-08
-1.33351e-07
-1.71096e-07
-2.05092e-07
-2.35075e-07
-2.61067e-07
-2.8333e-07
-3.0231e-07
-3.18463e-07
-3.3218e-07
-3.43662e-07
-3.53037e-07
-3.60566e-07
-3.66938e-07
-3.72752e-07
-3.78446e-07
-3.83909e-07
-3.89555e-07
-3.9503e-07
-4.01746e-07
-4.06836e-07
2.66258e-07
2.33389e-07
1.97392e-07
1.58588e-07
1.17538e-07
7.49478e-08
3.16132e-08
-1.16291e-08
-5.39253e-08
-9.44577e-08
-1.32482e-07
-1.67423e-07
-1.989e-07
-2.26803e-07
-2.51213e-07
-2.72413e-07
-2.907e-07
-3.06426e-07
-3.19821e-07
-3.31281e-07
-3.41193e-07
-3.50236e-07
-3.58708e-07
-3.67113e-07
-3.75225e-07
-3.83866e-07
-3.92204e-07
-4.0207e-07
-4.09978e-07
2.73414e-07
2.44286e-07
2.12104e-07
1.76981e-07
1.39333e-07
9.97537e-08
5.89492e-08
1.7677e-08
-2.32513e-08
-6.30502e-08
-1.00953e-07
-1.36353e-07
-1.68768e-07
-1.97993e-07
-2.23949e-07
-2.46825e-07
-2.66793e-07
-2.84248e-07
-2.99429e-07
-3.12901e-07
-3.2494e-07
-3.3625e-07
-3.4685e-07
-3.57491e-07
-3.67718e-07
-3.78693e-07
-3.89145e-07
-4.01141e-07
-4.11482e-07
2.78111e-07
2.51885e-07
2.22747e-07
1.90663e-07
1.55915e-07
1.18979e-07
8.04808e-08
4.10878e-08
1.56357e-09
-3.73599e-08
-7.48991e-08
-1.10445e-07
-1.43424e-07
-1.73581e-07
-2.00703e-07
-2.2494e-07
-2.46356e-07
-2.65402e-07
-2.8225e-07
-2.97559e-07
-3.11427e-07
-3.24633e-07
-3.36996e-07
-3.4945e-07
-3.61373e-07
-3.74022e-07
-3.86108e-07
-3.99426e-07
-4.11772e-07
2.81013e-07
2.57209e-07
2.30609e-07
2.01058e-07
1.68765e-07
1.34121e-07
9.76843e-08
6.00269e-08
2.18633e-08
-1.61375e-08
-5.31834e-08
-8.86798e-08
-1.21983e-07
-1.52817e-07
-1.8086e-07
-2.06244e-07
-2.28937e-07
-2.4942e-07
-2.67766e-07
-2.84673e-07
-3.0011e-07
-3.14903e-07
-3.28775e-07
-3.42685e-07
-3.56013e-07
-3.69868e-07
-3.83242e-07
-3.97431e-07
-4.11161e-07
2.82624e-07
2.60889e-07
2.36435e-07
2.0903e-07
1.7885e-07
1.4622e-07
1.11631e-07
7.55631e-08
3.8685e-08
1.60212e-09
-3.48926e-08
-7.02288e-08
-1.03712e-07
-1.35055e-07
-1.63853e-07
-1.90224e-07
-2.14042e-07
-2.35792e-07
-2.55459e-07
-2.73741e-07
-2.90547e-07
-3.06678e-07
-3.21867e-07
-3.3696e-07
-3.5147e-07
-3.66238e-07
-3.80601e-07
-3.95381e-07
-4.09904e-07
2.83438e-07
2.63395e-07
2.40715e-07
2.15143e-07
1.86821e-07
1.5599e-07
1.23073e-07
8.84662e-08
5.27962e-08
1.66094e-08
-1.93085e-08
-5.4417e-08
-8.79855e-08
-1.19724e-07
-1.49158e-07
-1.76382e-07
-2.012e-07
-2.24065e-07
-2.4491e-07
-2.64392e-07
-2.82417e-07
-2.99704e-07
-3.16047e-07
-3.32135e-07
-3.47627e-07
-3.63129e-07
-3.78195e-07
-3.93384e-07
-4.08245e-07
2.84166e-07
2.65361e-07
2.44045e-07
2.19991e-07
1.93277e-07
1.64036e-07
1.32612e-07
9.93287e-08
6.47767e-08
2.94444e-08
-5.89442e-09
-4.07363e-08
-7.43242e-08
-1.06372e-07
-1.36344e-07
-1.64314e-07
-1.90022e-07
-2.13882e-07
-2.35791e-07
-2.56351e-07
-2.75471e-07
-2.93791e-07
-3.11139e-07
-3.28102e-07
-3.44387e-07
-3.60508e-07
-3.76039e-07
-3.91515e-07
-4.06435e-07
2.85019e-07
2.67115e-07
2.46854e-07
2.24039e-07
1.98682e-07
1.70808e-07
1.40692e-07
1.08586e-07
7.50495e-08
4.05117e-08
5.73214e-09
-2.88282e-08
-6.23925e-08
-9.46838e-08
-1.25116e-07
-1.53743e-07
-1.80247e-07
-2.05007e-07
-2.2788e-07
-2.49425e-07
-2.69531e-07
-2.88789e-07
-3.07015e-07
-3.24751e-07
-3.41687e-07
-3.58314e-07
-3.74172e-07
-3.89812e-07
-4.04696e-07
2.85886e-07
2.68702e-07
2.49329e-07
2.27556e-07
2.03336e-07
1.76622e-07
1.47635e-07
1.16568e-07
8.39405e-08
5.01277e-08
1.58697e-08
-1.84152e-08
-5.19361e-08
-8.44297e-08
-1.15263e-07
-1.44479e-07
-1.71702e-07
-1.97287e-07
-2.21037e-07
-2.4349e-07
-2.64484e-07
-2.84597e-07
-3.0359e-07
-3.22011e-07
-3.39479e-07
-3.56525e-07
-3.72603e-07
-3.88341e-07
-4.0312e-07
2.86601e-07
2.70072e-07
2.51515e-07
2.30656e-07
2.07407e-07
1.81688e-07
1.53682e-07
1.23531e-07
9.17154e-08
5.85606e-08
2.47778e-08
-9.25045e-09
-4.27287e-08
-7.54034e-08
-1.06602e-07
-1.36362e-07
-1.64247e-07
-1.906e-07
-2.15158e-07
-2.38452e-07
-2.60255e-07
-2.81145e-07
-3.00821e-07
-3.19835e-07
-3.37758e-07
-3.55123e-07
-3.71373e-07
-3.8711e-07
-4.01783e-07
2.87078e-07
2.71181e-07
2.5339e-07
2.3336e-07
2.10972e-07
1.86139e-07
1.58999e-07
1.29673e-07
9.85865e-08
6.6039e-08
3.2684e-08
-1.10534e-09
-3.45577e-08
-6.74017e-08
-9.89554e-08
-1.29227e-07
-1.57745e-07
-1.8482e-07
-2.10144e-07
-2.34222e-07
-2.56781e-07
-2.78374e-07
-2.98676e-07
-3.18194e-07
-3.36523e-07
-3.54112e-07
-3.70501e-07
-3.86149e-07
-4.00685e-07
2.87354e-07
2.72042e-07
2.54932e-07
2.35669e-07
2.14082e-07
1.90071e-07
1.6371e-07
1.35146e-07
1.04723e-07
7.27542e-08
3.97804e-08
6.22441e-09
-2.72319e-08
-6.02299e-08
-9.21514e-08
-1.22907e-07
-1.52055e-07
-1.79816e-07
-2.05887e-07
-2.30702e-07
-2.53983e-07
-2.76224e-07
-2.97105e-07
-3.17068e-07
-3.35748e-07
-3.53507e-07
-3.6997e-07
-3.85485e-07
-3.99778e-07
2.87618e-07
2.72742e-07
2.56159e-07
2.37617e-07
2.16797e-07
1.93569e-07
1.67912e-07
1.40075e-07
1.1026e-07
7.88627e-08
4.62185e-08
1.29099e-08
-2.05978e-08
-5.37158e-08
-8.60497e-08
-1.17242e-07
-1.47057e-07
-1.75451e-07
-2.02291e-07
-2.27785e-07
-2.51789e-07
-2.7462e-07
-2.96061e-07
-3.16411e-07
-3.35414e-07
-3.53273e-07
-3.69788e-07
-3.85068e-07
-3.99091e-07
2.88082e-07
2.73367e-07
2.57135e-07
2.39295e-07
2.19205e-07
1.96715e-07
1.71693e-07
1.44568e-07
1.1531e-07
8.44885e-08
5.21127e-08
1.9082e-08
-1.45447e-08
-4.77246e-08
-8.05545e-08
-1.12103e-07
-1.42676e-07
-1.71603e-07
-1.99294e-07
-2.2537e-07
-2.50143e-07
-2.7349e-07
-2.95489e-07
-3.16192e-07
-3.35465e-07
-3.53429e-07
-3.69895e-07
-3.84956e-07
-3.98544e-07
2.88892e-07
2.73963e-07
2.57988e-07
2.40862e-07
2.21426e-07
1.99591e-07
1.7514e-07
1.4872e-07
1.1997e-07
8.97246e-08
5.75509e-08
2.48291e-08
-8.99842e-09
-4.21698e-08
-7.56121e-08
-1.07398e-07
-1.38885e-07
-1.68177e-07
-1.969e-07
-2.23349e-07
-2.49071e-07
-2.72725e-07
-2.9541e-07
-3.16323e-07
-3.35915e-07
-3.53933e-07
-3.7034e-07
-3.85133e-07
-3.98283e-07
2.90017e-07
2.74522e-07
2.58915e-07
2.42495e-07
2.23572e-07
2.02274e-07
1.78358e-07
1.52617e-07
1.24334e-07
9.46317e-08
6.26106e-08
3.01925e-08
-3.89671e-09
-3.70307e-08
-7.11816e-08
-1.03113e-07
-1.35677e-07
-1.65143e-07
-1.95156e-07
-2.2166e-07
-2.48682e-07
-2.72206e-07
-2.95967e-07
-3.16647e-07
-3.36856e-07
-3.5471e-07
-3.71172e-07
-3.85745e-07
-3.98383e-07
2.91306e-07
2.75157e-07
2.60202e-07
2.44329e-07
2.2573e-07
2.04848e-07
1.81465e-07
1.56332e-07
1.285e-07
9.92422e-08
6.73751e-08
3.51671e-08
8.31169e-10
-3.23569e-08
-6.72036e-08
-9.93372e-08
-1.33004e-07
-1.62607e-07
-1.94044e-07
-2.20372e-07
-2.49049e-07
-2.71912e-07
-2.97422e-07
-3.16953e-07
-3.38668e-07
-3.55456e-07
-3.72594e-07
-3.86857e-07
-3.98965e-07
2.92692e-07
2.76041e-07
2.62045e-07
2.46413e-07
2.27967e-07
2.07406e-07
1.84581e-07
1.59926e-07
1.32554e-07
1.03578e-07
7.19252e-08
3.97267e-08
5.25555e-09
-2.82346e-08
-6.36033e-08
-9.62353e-08
-1.30765e-07
-1.60809e-07
-1.93431e-07
-2.19783e-07
-2.50037e-07
-2.72076e-07
-2.99808e-07
-3.17234e-07
-3.42012e-07
-3.55579e-07
-3.75756e-07
-3.87902e-07
-4.00798e-07
2.94182e-07
2.77627e-07
2.64485e-07
2.48737e-07
2.30361e-07
2.10051e-07
1.87796e-07
1.63451e-07
1.36555e-07
1.07661e-07
7.63082e-08
4.3853e-08
9.41111e-09
-2.47302e-08
-6.03333e-08
-9.39406e-08
-1.2886e-07
-1.5998e-07
-1.93112e-07
-2.2032e-07
-2.51285e-07
-2.73423e-07
-3.02575e-07
-3.1836e-07
-3.46579e-07
-3.55442e-07
-3.81977e-07
-3.87429e-07
-4.04592e-07
2.9589e-07
2.80155e-07
2.67467e-07
2.51449e-07
2.3317e-07
2.13045e-07
1.91279e-07
1.6706e-07
1.40598e-07
1.11591e-07
8.05541e-08
4.75904e-08
1.32781e-08
-2.18433e-08
-5.74362e-08
-9.24792e-08
-1.27322e-07
-1.60176e-07
-1.92981e-07
-2.221e-07
-2.52509e-07
-2.7637e-07
-3.04929e-07
-3.21544e-07
-3.50933e-07
-3.56517e-07
-3.91579e-07
-3.83214e-07
-4.17408e-07
2.98455e-07
2.83601e-07
2.6978e-07
2.532e-07
2.35692e-07
2.16076e-07
1.94873e-07
1.70695e-07
1.44643e-07
1.15393e-07
8.46276e-08
5.098e-08
1.67617e-08
-1.95345e-08
-5.50964e-08
-9.1769e-08
-1.26466e-07
-1.61303e-07
-1.93387e-07
-2.24669e-07
-2.53684e-07
-2.80528e-07
-3.0636e-07
-3.27018e-07
-3.53146e-07
-3.61888e-07
-4.00077e-07
-3.77581e-07
-4.44668e-07
3.02505e-07
2.89705e-07
2.75352e-07
2.58083e-07
2.40004e-07
2.20198e-07
1.99149e-07
1.74914e-07
1.49017e-07
1.19442e-07
8.86605e-08
5.42626e-08
1.98444e-08
-1.76612e-08
-5.34304e-08
-9.1645e-08
-1.26418e-07
-1.63423e-07
-1.94964e-07
-2.29074e-07
-2.55911e-07
-2.85888e-07
-3.08293e-07
-3.33407e-07
-3.53428e-07
-3.71972e-07
-4.00786e-07
-3.82795e-07
-4.83583e-07
3.0496e-07
2.91137e-07
2.76302e-07
2.5952e-07
2.42383e-07
2.23091e-07
2.02387e-07
1.782e-07
1.5243e-07
1.22619e-07
9.17447e-08
5.67876e-08
2.20245e-08
-1.63767e-08
-5.2725e-08
-9.19475e-08
-1.27066e-07
-1.64708e-07
-1.96603e-07
-2.31246e-07
-2.58148e-07
-2.89428e-07
-3.10072e-07
-3.38204e-07
-3.52013e-07
-3.76979e-07
-3.91424e-07
-3.97878e-07
-5.46364e-07
3.23281e-07
3.02489e-07
2.85086e-07
2.6763e-07
2.50093e-07
2.30489e-07
2.09626e-07
1.8524e-07
1.59109e-07
1.28668e-07
9.69435e-08
6.08259e-08
2.47604e-08
-1.51422e-08
-5.29234e-08
-9.38952e-08
-1.30448e-07
-1.69874e-07
-2.02695e-07
-2.38633e-07
-2.6615e-07
-2.97683e-07
-3.18903e-07
-3.46653e-07
-3.59625e-07
-3.88378e-07
-3.88941e-07
-4.24919e-07
-5.28977e-07
-4.16988e-07
-4.0979e-07
-4.03016e-07
-4.05101e-07
-4.11021e-07
-4.20652e-07
-4.28838e-07
-4.35581e-07
-4.40909e-07
-4.44717e-07
-4.46961e-07
-4.47906e-07
-4.47942e-07
-4.47365e-07
-4.4645e-07
-4.45246e-07
-4.43799e-07
-4.42167e-07
-4.40275e-07
-4.38353e-07
-4.36356e-07
-4.34604e-07
-4.33518e-07
-4.3361e-07
-4.36448e-07
-4.41874e-07
-4.48546e-07
-4.42439e-07
-4.07759e-07
-3.37549e-07
-4.17318e-07
-4.11125e-07
-4.04807e-07
-4.04306e-07
-4.11989e-07
-4.24052e-07
-4.35952e-07
-4.46016e-07
-4.54134e-07
-4.60193e-07
-4.6413e-07
-4.66069e-07
-4.6662e-07
-4.66225e-07
-4.65186e-07
-4.63846e-07
-4.62031e-07
-4.5995e-07
-4.57493e-07
-4.54674e-07
-4.51823e-07
-4.48574e-07
-4.45803e-07
-4.42671e-07
-4.3954e-07
-4.34764e-07
-4.26997e-07
-4.16777e-07
-4.03871e-07
-3.9381e-07
-4.17725e-07
-4.12774e-07
-4.08319e-07
-4.0912e-07
-4.15563e-07
-4.2644e-07
-4.39927e-07
-4.52907e-07
-4.64214e-07
-4.73319e-07
-4.8006e-07
-4.84389e-07
-4.86413e-07
-4.86878e-07
-4.86028e-07
-4.84475e-07
-4.82441e-07
-4.79854e-07
-4.77183e-07
-4.73777e-07
-4.70282e-07
-4.66031e-07
-4.61333e-07
-4.55812e-07
-4.48788e-07
-4.41187e-07
-4.32188e-07
-4.24778e-07
-4.14615e-07
-4.02006e-07
-4.1808e-07
-4.14414e-07
-4.12092e-07
-4.14272e-07
-4.20922e-07
-4.30919e-07
-4.43966e-07
-4.5819e-07
-4.71691e-07
-4.83629e-07
-4.9336e-07
-5.00874e-07
-5.05874e-07
-5.08579e-07
-5.09381e-07
-5.08338e-07
-5.0646e-07
-5.03424e-07
-5.00047e-07
-4.96031e-07
-4.91502e-07
-4.86738e-07
-4.80839e-07
-4.74798e-07
-4.67301e-07
-4.60216e-07
-4.52108e-07
-4.44242e-07
-4.34652e-07
-4.24004e-07
-4.18168e-07
-4.15827e-07
-4.15708e-07
-4.19611e-07
-4.27043e-07
-4.37159e-07
-4.49224e-07
-4.63137e-07
-4.77558e-07
-4.91249e-07
-5.03575e-07
-5.1385e-07
-5.22251e-07
-5.2805e-07
-5.32013e-07
-5.33468e-07
-5.33317e-07
-5.3135e-07
-5.27999e-07
-5.23776e-07
-5.18337e-07
-5.12716e-07
-5.05916e-07
-4.99266e-07
-4.9176e-07
-4.84362e-07
-4.76322e-07
-4.67969e-07
-4.59255e-07
-4.50653e-07
-4.17726e-07
-4.16699e-07
-4.18673e-07
-4.244e-07
-4.32967e-07
-4.43577e-07
-4.55646e-07
-4.68746e-07
-4.82896e-07
-4.97016e-07
-5.10835e-07
-5.23178e-07
-5.34259e-07
-5.43084e-07
-5.50281e-07
-5.5519e-07
-5.58161e-07
-5.59125e-07
-5.58058e-07
-5.55458e-07
-5.51065e-07
-5.45647e-07
-5.38942e-07
-5.31641e-07
-5.23538e-07
-5.14943e-07
-5.05678e-07
-4.96004e-07
-4.86044e-07
-4.76513e-07
-4.16468e-07
-4.16674e-07
-4.20497e-07
-4.2795e-07
-4.3779e-07
-4.49253e-07
-4.61762e-07
-4.74985e-07
-4.88488e-07
-5.02486e-07
-5.16182e-07
-5.29767e-07
-5.42169e-07
-5.53407e-07
-5.63156e-07
-5.71169e-07
-5.77371e-07
-5.81707e-07
-5.84075e-07
-5.84617e-07
-5.83234e-07
-5.8022e-07
-5.75543e-07
-5.69526e-07
-5.62136e-07
-5.53709e-07
-5.44179e-07
-5.33993e-07
-5.23147e-07
-5.12533e-07
-4.14122e-07
-4.15427e-07
-4.20776e-07
-4.29722e-07
-4.40791e-07
-4.53242e-07
-4.66471e-07
-4.80186e-07
-4.93861e-07
-5.07928e-07
-5.21094e-07
-5.35033e-07
-5.47587e-07
-5.60086e-07
-5.71267e-07
-5.81506e-07
-5.90223e-07
-5.97509e-07
-6.03043e-07
-6.06941e-07
-6.08979e-07
-6.09344e-07
-6.07855e-07
-6.04772e-07
-6.00009e-07
-5.93906e-07
-5.86512e-07
-5.78199e-07
-5.69289e-07
-5.60279e-07
-4.10495e-07
-4.12764e-07
-4.19316e-07
-4.29393e-07
-4.41527e-07
-4.54927e-07
-4.68979e-07
-4.83341e-07
-4.97551e-07
-5.11912e-07
-5.25441e-07
-5.3924e-07
-5.51889e-07
-5.64675e-07
-5.7645e-07
-5.87723e-07
-5.97857e-07
-6.07061e-07
-6.14934e-07
-6.2148e-07
-6.26478e-07
-6.29891e-07
-6.31683e-07
-6.31804e-07
-6.30413e-07
-6.27428e-07
-6.23253e-07
-6.17799e-07
-6.11827e-07
-6.05232e-07
-4.05582e-07
-4.08671e-07
-4.16089e-07
-4.26956e-07
-4.39899e-07
-4.54072e-07
-4.68858e-07
-4.8385e-07
-4.98686e-07
-5.13425e-07
-5.27515e-07
-5.41446e-07
-5.54628e-07
-5.67519e-07
-5.79599e-07
-5.91191e-07
-6.02048e-07
-6.12103e-07
-6.21307e-07
-6.29313e-07
-6.36394e-07
-6.41893e-07
-6.46382e-07
-6.49021e-07
-6.50628e-07
-6.50314e-07
-6.49077e-07
-6.46062e-07
-6.42396e-07
-6.3729e-07
-3.99659e-07
-4.03366e-07
-4.11355e-07
-4.2269e-07
-4.36131e-07
-4.50816e-07
-4.66125e-07
-4.81615e-07
-4.96976e-07
-5.12062e-07
-5.2666e-07
-5.4082e-07
-5.54384e-07
-5.67462e-07
-5.7991e-07
-5.91794e-07
-6.03037e-07
-6.13533e-07
-6.23358e-07
-6.32141e-07
-6.40298e-07
-6.46966e-07
-6.53064e-07
-6.57265e-07
-6.6094e-07
-6.62438e-07
-6.63426e-07
-6.62116e-07
-6.60355e-07
-6.56253e-07
-3.93263e-07
-3.97378e-07
-4.05685e-07
-4.17205e-07
-4.30833e-07
-4.45725e-07
-4.61267e-07
-4.7701e-07
-4.92646e-07
-5.07972e-07
-5.22847e-07
-5.37211e-07
-5.51008e-07
-5.64235e-07
-5.76864e-07
-5.88894e-07
-6.00302e-07
-6.11042e-07
-6.21117e-07
-6.30279e-07
-6.38814e-07
-6.46214e-07
-6.52896e-07
-6.58155e-07
-6.62731e-07
-6.6552e-07
-6.67765e-07
-6.67801e-07
-6.67809e-07
-6.64512e-07
-3.8716e-07
-3.91498e-07
-3.99926e-07
-4.11411e-07
-4.24966e-07
-4.39781e-07
-4.55264e-07
-4.70971e-07
-4.8659e-07
-5.01906e-07
-5.1678e-07
-5.31129e-07
-5.44905e-07
-5.58084e-07
-5.70652e-07
-5.82599e-07
-5.93912e-07
-6.04567e-07
-6.14535e-07
-6.23758e-07
-6.32215e-07
-6.39817e-07
-6.46543e-07
-6.52264e-07
-6.57019e-07
-6.60612e-07
-6.6322e-07
-6.64335e-07
-6.65791e-07
-6.6211e-07
-3.82203e-07
-3.86651e-07
-3.95072e-07
-4.06398e-07
-4.19721e-07
-4.3427e-07
-4.49476e-07
-4.64909e-07
-4.80258e-07
-4.95305e-07
-5.09903e-07
-5.23961e-07
-5.37423e-07
-5.50259e-07
-5.62453e-07
-5.73993e-07
-5.84868e-07
-5.95063e-07
-6.04555e-07
-6.13316e-07
-6.21316e-07
-6.28516e-07
-6.34879e-07
-6.40367e-07
-6.44946e-07
-6.48538e-07
-6.51093e-07
-6.52524e-07
-6.52864e-07
-6.5214e-07
-3.79169e-07
-3.83672e-07
-3.9205e-07
-4.03208e-07
-4.16283e-07
-4.30522e-07
-4.45374e-07
-4.60416e-07
-4.7534e-07
-4.89926e-07
-5.04026e-07
-5.1754e-07
-5.30408e-07
-5.42596e-07
-5.54084e-07
-5.64862e-07
-5.74921e-07
-5.84255e-07
-5.92853e-07
-6.00701e-07
-6.07786e-07
-6.14098e-07
-6.1963e-07
-6.24375e-07
-6.28339e-07
-6.31312e-07
-6.33308e-07
-6.34377e-07
-6.34624e-07
-6.3416e-07
-3.78546e-07
-3.83091e-07
-3.91461e-07
-4.02551e-07
-4.155e-07
-4.29557e-07
-4.44167e-07
-4.58906e-07
-4.73463e-07
-4.87613e-07
-5.01206e-07
-5.14139e-07
-5.2635e-07
-5.37803e-07
-5.48479e-07
-5.58373e-07
-5.67481e-07
-5.75806e-07
-5.83348e-07
-5.90108e-07
-5.96085e-07
-6.01282e-07
-6.05698e-07
-6.09334e-07
-6.12149e-07
-6.14284e-07
-6.15662e-07
-6.16274e-07
-6.16231e-07
-6.1574e-07
-3.80409e-07
-3.84983e-07
-3.93388e-07
-4.0452e-07
-4.17488e-07
-4.31519e-07
-4.46042e-07
-4.6062e-07
-4.74933e-07
-4.88756e-07
-5.01934e-07
-5.14368e-07
-5.26e-07
-5.368e-07
-5.46757e-07
-5.55875e-07
-5.64165e-07
-5.71641e-07
-5.78319e-07
-5.84217e-07
-5.8935e-07
-5.93736e-07
-5.97396e-07
-6.00343e-07
-6.02609e-07
-6.04218e-07
-6.05153e-07
-6.0533e-07
-6.04802e-07
-6.03921e-07
-3.8438e-07
-3.88928e-07
-3.97339e-07
-4.08525e-07
-4.21531e-07
-4.35547e-07
-4.49977e-07
-4.6437e-07
-4.78404e-07
-4.91854e-07
-5.04571e-07
-5.1647e-07