/*--------------------------------*- C++ -*----------------------------------*\
| =========                 |                                                 |
| \\      /  F ield         | OpenFOAM: The Open Source CFD Toolbox           |
|  \\    /   O peration     | Version:  2312                                  |
|   \\  /    A nd           | Website:  www.openfoam.com                      |
|    \\/     M anipulation  |                                                 |
\*---------------------------------------------------------------------------*/
FoamFile
{
    version     2.0;
    format      ascii;
    arch        "LSB;label=32;scalar=64";
    class       volScalarField;
    location    "74000";
    object      p;
}
// * * * * * * * * * * * * * * * * * * * * * * * * * * * * * * * * * * * * * //

dimensions      [0 2 -2 0 0 0 0];

internalField   nonuniform List<scalar> 
2685
(
-2.80014e-07
-2.9927e-07
-2.97147e-07
-2.95093e-07
-2.94914e-07
-2.95403e-07
-2.9541e-07
-2.94805e-07
-2.93979e-07
-2.93437e-07
-2.93504e-07
-2.94338e-07
-2.96026e-07
-2.98624e-07
-3.02154e-07
-3.06578e-07
-3.11765e-07
-3.17448e-07
-3.23151e-07
-3.28212e-07
-3.31957e-07
-3.33896e-07
-3.33811e-07
-3.31642e-07
-3.27581e-07
-3.22178e-07
-3.15984e-07
-3.094e-07
-3.02813e-07
-2.96608e-07
-2.91041e-07
-2.8624e-07
-2.82231e-07
-2.78973e-07
-2.76375e-07
-2.7432e-07
-2.72649e-07
-2.7132e-07
-2.7023e-07
-2.6929e-07
-2.68434e-07
-2.67634e-07
-2.66882e-07
-2.66188e-07
-2.65564e-07
-2.65025e-07
-2.64581e-07
-2.64241e-07
-2.64008e-07
-2.63881e-07
-2.63853e-07
-2.6391e-07
-2.64021e-07
-2.6416e-07
-2.64287e-07
-2.64353e-07
-2.64304e-07
-2.64082e-07
-2.63628e-07
-2.62881e-07
-2.61785e-07
-2.60274e-07
-2.58284e-07
-2.55765e-07
-2.52678e-07
-2.48992e-07
-2.44683e-07
-2.3973e-07
-2.34167e-07
-2.28e-07
-2.21251e-07
-2.13956e-07
-2.06161e-07
-1.97922e-07
-1.89304e-07
-1.80378e-07
-1.71216e-07
-1.61895e-07
-1.52491e-07
-1.43076e-07
-1.33721e-07
-1.2449e-07
-1.15441e-07
-1.06625e-07
-9.80916e-08
-8.98705e-08
-8.20221e-08
-7.45565e-08
-6.74918e-08
-6.08401e-08
-3.42874e-07
-3.29637e-07
-3.24566e-07
-3.21694e-07
-3.18903e-07
-3.15892e-07
-3.12882e-07
-3.10191e-07
-3.08054e-07
-3.06614e-07
-3.05958e-07
-3.06142e-07
-3.07211e-07
-3.09198e-07
-3.12108e-07
-3.15882e-07
-3.20362e-07
-3.25242e-07
-3.30002e-07
-3.33858e-07
-3.35944e-07
-3.35643e-07
-3.32733e-07
-3.27492e-07
-3.2054e-07
-3.12601e-07
-3.04412e-07
-2.96675e-07
-2.89805e-07
-2.83997e-07
-2.79381e-07
-2.75993e-07
-2.73726e-07
-2.72364e-07
-2.71661e-07
-2.71377e-07
-2.71321e-07
-2.71321e-07
-2.71252e-07
-2.71044e-07
-2.7067e-07
-2.70116e-07
-2.69407e-07
-2.68593e-07
-2.67732e-07
-2.66874e-07
-2.66065e-07
-2.65344e-07
-2.64741e-07
-2.6428e-07
-2.63982e-07
-2.63882e-07
-2.63928e-07
-2.6407e-07
-2.64265e-07
-2.64461e-07
-2.64596e-07
-2.64602e-07
-2.64403e-07
-2.63922e-07
-2.63079e-07
-2.61804e-07
-2.60026e-07
-2.57682e-07
-2.54716e-07
-2.51187e-07
-2.47033e-07
-2.42238e-07
-2.36769e-07
-2.30644e-07
-2.2389e-07
-2.16548e-07
-2.08671e-07
-2.00322e-07
-1.91571e-07
-1.82493e-07
-1.73167e-07
-1.63675e-07
-1.54095e-07
-1.44506e-07
-1.34981e-07
-1.2559e-07
-1.16395e-07
-1.07451e-07
-9.8803e-08
-9.04883e-08
-8.25412e-08
-7.49859e-08
-6.78407e-08
-6.1119e-08
-3.69632e-07
-3.57489e-07
-3.52197e-07
-3.49224e-07
-3.46222e-07
-3.42625e-07
-3.38619e-07
-3.34662e-07
-3.31138e-07
-3.28246e-07
-3.26044e-07
-3.2452e-07
-3.23623e-07
-3.23291e-07
-3.23441e-07
-3.23964e-07
-3.24707e-07
-3.2547e-07
-3.26008e-07
-3.26054e-07
-3.25356e-07
-3.23743e-07
-3.21142e-07
-3.17624e-07
-3.13371e-07
-3.0868e-07
-3.0407e-07
-2.99726e-07
-2.95653e-07
-2.91744e-07
-2.87968e-07
-2.84397e-07
-2.81139e-07
-2.78267e-07
-2.75784e-07
-2.73643e-07
-2.71779e-07
-2.70147e-07
-2.68716e-07
-2.6735e-07
-2.66042e-07
-2.64873e-07
-2.63898e-07
-2.63121e-07
-2.62536e-07
-2.62141e-07
-2.61932e-07
-2.61902e-07
-2.62036e-07
-2.62313e-07
-2.62726e-07
-2.63266e-07
-2.63929e-07
-2.64639e-07
-2.65333e-07
-2.6596e-07
-2.66461e-07
-2.66771e-07
-2.66823e-07
-2.66546e-07
-2.65873e-07
-2.64736e-07
-2.63072e-07
-2.60808e-07
-2.57941e-07
-2.54379e-07
-2.50157e-07
-2.4526e-07
-2.39684e-07
-2.33443e-07
-2.26567e-07
-2.191e-07
-2.11096e-07
-2.0262e-07
-1.93745e-07
-1.84548e-07
-1.7511e-07
-1.65514e-07
-1.5584e-07
-1.46167e-07
-1.36569e-07
-1.27114e-07
-1.17864e-07
-1.08875e-07
-1.00192e-07
-9.18546e-08
-8.38954e-08
-7.63364e-08
-6.91922e-08
-6.24721e-08
-4.18326e-07
-4.0721e-07
-3.99049e-07
-3.92627e-07
-3.8689e-07
-3.81269e-07
-3.75607e-07
-3.69982e-07
-3.64565e-07
-3.59511e-07
-3.54915e-07
-3.50806e-07
-3.47161e-07
-3.43927e-07
-3.41038e-07
-3.38421e-07
-3.35993e-07
-3.33664e-07
-3.31329e-07
-3.2887e-07
-3.26155e-07
-3.23061e-07
-3.19503e-07
-3.15475e-07
-3.11043e-07
-3.06314e-07
-3.01416e-07
-2.96428e-07
-2.91354e-07
-2.86349e-07
-2.81645e-07
-2.77434e-07
-2.73809e-07
-2.70806e-07
-2.68406e-07
-2.66534e-07
-2.65091e-07
-2.63972e-07
-2.63108e-07
-2.62547e-07
-2.62255e-07
-2.62154e-07
-2.62124e-07
-2.62069e-07
-2.61952e-07
-2.61788e-07
-2.61618e-07
-2.61481e-07
-2.61406e-07
-2.61411e-07
-2.61515e-07
-2.61731e-07
-2.62053e-07
-2.62448e-07
-2.6287e-07
-2.63269e-07
-2.63586e-07
-2.63753e-07
-2.63693e-07
-2.63324e-07
-2.62569e-07
-2.61362e-07
-2.59617e-07
-2.5731e-07
-2.54419e-07
-2.50921e-07
-2.46791e-07
-2.42e-07
-2.36543e-07
-2.30436e-07
-2.23716e-07
-2.16432e-07
-2.08639e-07
-2.004e-07
-1.91784e-07
-1.82867e-07
-1.73729e-07
-1.64447e-07
-1.551e-07
-1.45762e-07
-1.36503e-07
-1.27389e-07
-1.18475e-07
-1.09811e-07
-1.01435e-07
-9.33799e-08
-8.56757e-08
-7.83464e-08
-7.14093e-08
-6.48746e-08
-4.58625e-07
-4.48313e-07
-4.39441e-07
-4.31619e-07
-4.24367e-07
-4.17295e-07
-4.10204e-07
-4.03071e-07
-3.95985e-07
-3.8907e-07
-3.82422e-07
-3.76084e-07
-3.7006e-07
-3.64322e-07
-3.58828e-07
-3.53537e-07
-3.48402e-07
-3.43372e-07
-3.38394e-07
-3.33414e-07
-3.28378e-07
-3.23234e-07
-3.17934e-07
-3.12439e-07
-3.06748e-07
-3.00924e-07
-2.95069e-07
-2.89307e-07
-2.83758e-07
-2.78543e-07
-2.7377e-07
-2.69521e-07
-2.65864e-07
-2.6279e-07
-2.60248e-07
-2.58168e-07
-2.56475e-07
-2.55102e-07
-2.54e-07
-2.53134e-07
-2.52438e-07
-2.51798e-07
-2.51165e-07
-2.50561e-07
-2.50044e-07
-2.4967e-07
-2.4947e-07
-2.49447e-07
-2.49584e-07
-2.49856e-07
-2.5024e-07
-2.50711e-07
-2.51243e-07
-2.51799e-07
-2.52328e-07
-2.52778e-07
-2.5309e-07
-2.53206e-07
-2.53069e-07
-2.52619e-07
-2.51799e-07
-2.50547e-07
-2.488e-07
-2.46511e-07
-2.43633e-07
-2.401e-07
-2.35999e-07
-2.31374e-07
-2.262e-07
-2.20459e-07
-2.14171e-07
-2.07387e-07
-2.00163e-07
-1.92559e-07
-1.84633e-07
-1.76449e-07
-1.68073e-07
-1.59572e-07
-1.51014e-07
-1.42463e-07
-1.33977e-07
-1.25613e-07
-1.1742e-07
-1.09447e-07
-1.01736e-07
-9.43138e-08
-8.71956e-08
-8.03961e-08
-7.39322e-08
-6.7816e-08
-4.90306e-07
-4.81206e-07
-4.73576e-07
-4.66345e-07
-4.58872e-07
-4.50931e-07
-4.42549e-07
-4.3388e-07
-4.25102e-07
-4.16364e-07
-4.0776e-07
-3.99333e-07
-3.91092e-07
-3.83029e-07
-3.75128e-07
-3.67374e-07
-3.59756e-07
-3.52267e-07
-3.449e-07
-3.37634e-07
-3.30448e-07
-3.2332e-07
-3.16235e-07
-3.09192e-07
-3.02207e-07
-2.95327e-07
-2.88628e-07
-2.82204e-07
-2.76143e-07
-2.70507e-07
-2.65336e-07
-2.60652e-07
-2.56463e-07
-2.52752e-07
-2.49478e-07
-2.46584e-07
-2.44036e-07
-2.41813e-07
-2.39899e-07
-2.3827e-07
-2.36898e-07
-2.35755e-07
-2.34819e-07
-2.34086e-07
-2.33561e-07
-2.33243e-07
-2.33119e-07
-2.33162e-07
-2.33336e-07
-2.33605e-07
-2.33934e-07
-2.34294e-07
-2.34655e-07
-2.34986e-07
-2.35254e-07
-2.35414e-07
-2.35427e-07
-2.35249e-07
-2.34834e-07
-2.34145e-07
-2.33132e-07
-2.31765e-07
-2.30015e-07
-2.27846e-07
-2.25275e-07
-2.22309e-07
-2.18745e-07
-2.14594e-07
-2.09956e-07
-2.04892e-07
-1.99411e-07
-1.93521e-07
-1.8725e-07
-1.80651e-07
-1.7378e-07
-1.66688e-07
-1.59428e-07
-1.52048e-07
-1.44602e-07
-1.37142e-07
-1.29718e-07
-1.22374e-07
-1.15154e-07
-1.08095e-07
-1.0123e-07
-9.45861e-08
-8.81842e-08
-8.20422e-08
-7.61712e-08
-7.05791e-08
-5.33006e-07
-5.2334e-07
-5.15171e-07
-5.0711e-07
-4.98386e-07
-4.88781e-07
-4.78397e-07
-4.67487e-07
-4.56314e-07
-4.45082e-07
-4.33915e-07
-4.22878e-07
-4.11994e-07
-4.01275e-07
-3.90725e-07
-3.80353e-07
-3.70173e-07
-3.60196e-07
-3.50435e-07
-3.40895e-07
-3.31582e-07
-3.22498e-07
-3.13653e-07
-3.05062e-07
-2.96756e-07
-2.88778e-07
-2.8117e-07
-2.73969e-07
-2.67204e-07
-2.60894e-07
-2.55051e-07
-2.49677e-07
-2.44769e-07
-2.40315e-07
-2.36297e-07
-2.3269e-07
-2.29477e-07
-2.26647e-07
-2.24189e-07
-2.22093e-07
-2.20342e-07
-2.18914e-07
-2.17784e-07
-2.16919e-07
-2.16281e-07
-2.15836e-07
-2.15551e-07
-2.15399e-07
-2.15355e-07
-2.15397e-07
-2.15503e-07
-2.15648e-07
-2.15808e-07
-2.15953e-07
-2.16051e-07
-2.16068e-07
-2.15965e-07
-2.15707e-07
-2.15255e-07
-2.14574e-07
-2.13629e-07
-2.12389e-07
-2.10829e-07
-2.08924e-07
-2.0666e-07
-2.04033e-07
-2.0105e-07
-1.97641e-07
-1.93758e-07
-1.89446e-07
-1.84769e-07
-1.79762e-07
-1.74449e-07
-1.68856e-07
-1.63023e-07
-1.56992e-07
-1.50805e-07
-1.44501e-07
-1.3812e-07
-1.31703e-07
-1.25289e-07
-1.18916e-07
-1.12618e-07
-1.06428e-07
-1.00372e-07
-9.44777e-08
-8.87639e-08
-8.32456e-08
-7.79332e-08
-7.28356e-08
-5.91325e-07
-5.79655e-07
-5.6899e-07
-5.58424e-07
-5.47274e-07
-5.35243e-07
-5.22334e-07
-5.08732e-07
-4.94691e-07
-4.80436e-07
-4.66133e-07
-4.51882e-07
-4.37743e-07
-4.23756e-07
-4.09955e-07
-3.96378e-07
-3.83066e-07
-3.70061e-07
-3.57401e-07
-3.45122e-07
-3.33251e-07
-3.21817e-07
-3.10845e-07
-3.0036e-07
-2.90385e-07
-2.8094e-07
-2.72038e-07
-2.63685e-07
-2.55883e-07
-2.48633e-07
-2.41934e-07
-2.35784e-07
-2.30176e-07
-2.25101e-07
-2.20544e-07
-2.16488e-07
-2.12911e-07
-2.09791e-07
-2.07102e-07
-2.04819e-07
-2.02912e-07
-2.01349e-07
-2.00093e-07
-1.99108e-07
-1.98358e-07
-1.97811e-07
-1.9744e-07
-1.9722e-07
-1.97131e-07
-1.9715e-07
-1.97251e-07
-1.97406e-07
-1.97587e-07
-1.9776e-07
-1.97894e-07
-1.97955e-07
-1.9791e-07
-1.97726e-07
-1.97371e-07
-1.96814e-07
-1.96027e-07
-1.94982e-07
-1.93656e-07
-1.9203e-07
-1.90083e-07
-1.8781e-07
-1.85196e-07
-1.82227e-07
-1.78954e-07
-1.75367e-07
-1.71469e-07
-1.67283e-07
-1.62834e-07
-1.58142e-07
-1.53235e-07
-1.48143e-07
-1.42902e-07
-1.37543e-07
-1.32097e-07
-1.26597e-07
-1.21073e-07
-1.15556e-07
-1.10074e-07
-1.04656e-07
-9.9323e-08
-9.40966e-08
-8.89942e-08
-8.40314e-08
-7.92217e-08
-7.45764e-08
-6.47793e-07
-6.35301e-07
-6.23071e-07
-6.10554e-07
-5.97271e-07
-5.82991e-07
-5.67712e-07
-5.51587e-07
-5.34841e-07
-5.17691e-07
-5.00313e-07
-4.82837e-07
-4.65359e-07
-4.47961e-07
-4.30719e-07
-4.13711e-07
-3.97015e-07
-3.80706e-07
-3.64856e-07
-3.49528e-07
-3.34777e-07
-3.20648e-07
-3.07179e-07
-2.94401e-07
-2.82343e-07
-2.71016e-07
-2.60423e-07
-2.50556e-07
-2.41408e-07
-2.32969e-07
-2.25229e-07
-2.18179e-07
-2.11806e-07
-2.06093e-07
-2.01018e-07
-1.96552e-07
-1.92664e-07
-1.89313e-07
-1.86461e-07
-1.84068e-07
-1.82094e-07
-1.805e-07
-1.79249e-07
-1.78303e-07
-1.77628e-07
-1.77192e-07
-1.76965e-07
-1.76916e-07
-1.77016e-07
-1.77234e-07
-1.77538e-07
-1.77897e-07
-1.78277e-07
-1.78648e-07
-1.78979e-07
-1.7924e-07
-1.79401e-07
-1.79436e-07
-1.79317e-07
-1.79019e-07
-1.78518e-07
-1.77794e-07
-1.76829e-07
-1.75604e-07
-1.74106e-07
-1.72321e-07
-1.7024e-07
-1.67849e-07
-1.65129e-07
-1.62122e-07
-1.58886e-07
-1.55443e-07
-1.51787e-07
-1.4792e-07
-1.43856e-07
-1.39618e-07
-1.35236e-07
-1.30737e-07
-1.26145e-07
-1.21484e-07
-1.16781e-07
-1.1206e-07
-1.07343e-07
-1.02651e-07
-9.80026e-08
-9.34165e-08
-8.89105e-08
-8.45005e-08
-8.02006e-08
-7.60223e-08
-6.89206e-07
-6.76884e-07
-6.6426e-07
-6.50814e-07
-6.36199e-07
-6.20327e-07
-6.03288e-07
-5.85277e-07
-5.66507e-07
-5.4717e-07
-5.27421e-07
-5.07397e-07
-4.87216e-07
-4.66996e-07
-4.46852e-07
-4.26899e-07
-4.07247e-07
-3.88005e-07
-3.6927e-07
-3.51135e-07
-3.33679e-07
-3.16968e-07
-3.01056e-07
-2.85978e-07
-2.71757e-07
-2.58408e-07
-2.45941e-07
-2.34366e-07
-2.23683e-07
-2.13886e-07
-2.04965e-07
-1.96902e-07
-1.89673e-07
-1.83248e-07
-1.77591e-07
-1.72661e-07
-1.68412e-07
-1.64797e-07
-1.61768e-07
-1.59277e-07
-1.57279e-07
-1.55728e-07
-1.5458e-07
-1.53793e-07
-1.53326e-07
-1.53138e-07
-1.53188e-07
-1.53439e-07
-1.53853e-07
-1.54392e-07
-1.55023e-07
-1.55711e-07
-1.56424e-07
-1.57131e-07
-1.57803e-07
-1.58411e-07
-1.5893e-07
-1.59333e-07
-1.59596e-07
-1.59697e-07
-1.59616e-07
-1.59333e-07
-1.58834e-07
-1.58105e-07
-1.57135e-07
-1.55918e-07
-1.54452e-07
-1.52736e-07
-1.50775e-07
-1.48584e-07
-1.46126e-07
-1.43435e-07
-1.4054e-07
-1.37464e-07
-1.34224e-07
-1.30833e-07
-1.27304e-07
-1.23654e-07
-1.19904e-07
-1.16074e-07
-1.12183e-07
-1.08251e-07
-1.04298e-07
-1.00341e-07
-9.63973e-08
-9.24812e-08
-8.86063e-08
-8.47848e-08
-8.10289e-08
-7.73496e-08
-7.15766e-07
-7.03861e-07
-6.91002e-07
-6.76786e-07
-6.61097e-07
-6.44011e-07
-6.25699e-07
-6.06358e-07
-5.86165e-07
-5.65278e-07
-5.43838e-07
-5.21985e-07
-4.99857e-07
-4.77591e-07
-4.55328e-07
-4.33203e-07
-4.11349e-07
-3.8989e-07
-3.68942e-07
-3.48607e-07
-3.28979e-07
-3.10137e-07
-2.92146e-07
-2.75061e-07
-2.58927e-07
-2.43777e-07
-2.29639e-07
-2.16528e-07
-2.04451e-07
-1.93405e-07
-1.83375e-07
-1.74337e-07
-1.66263e-07
-1.59114e-07
-1.52848e-07
-1.47419e-07
-1.42778e-07
-1.38871e-07
-1.35647e-07
-1.33052e-07
-1.31033e-07
-1.29536e-07
-1.2851e-07
-1.27903e-07
-1.27664e-07
-1.27746e-07
-1.28101e-07
-1.28685e-07
-1.29455e-07
-1.3037e-07
-1.31392e-07
-1.32486e-07
-1.33618e-07
-1.34755e-07
-1.35867e-07
-1.36925e-07
-1.37904e-07
-1.38778e-07
-1.39525e-07
-1.40124e-07
-1.40558e-07
-1.40811e-07
-1.40869e-07
-1.40723e-07
-1.40363e-07
-1.39785e-07
-1.38985e-07
-1.37963e-07
-1.36721e-07
-1.35268e-07
-1.3363e-07
-1.31776e-07
-1.29695e-07
-1.27413e-07
-1.24967e-07
-1.2238e-07
-1.19667e-07
-1.16835e-07
-1.13896e-07
-1.10863e-07
-1.07752e-07
-1.04579e-07
-1.0136e-07
-9.81104e-08
-9.48419e-08
-9.15659e-08
-8.82945e-08
-8.50415e-08
-8.1818e-08
-7.86323e-08
-7.2914e-07
-7.17208e-07
-7.03761e-07
-6.88722e-07
-6.72172e-07
-6.54269e-07
-6.35167e-07
-6.15006e-07
-5.93922e-07
-5.7205e-07
-5.49532e-07
-5.26517e-07
-5.03152e-07
-4.79589e-07
-4.55976e-07
-4.32459e-07
-4.09178e-07
-3.86265e-07
-3.63845e-07
-3.42034e-07
-3.20936e-07
-3.00645e-07
-2.81242e-07
-2.62798e-07
-2.45368e-07
-2.28996e-07
-2.13716e-07
-1.99547e-07
-1.86496e-07
-1.74561e-07
-1.63727e-07
-1.53974e-07
-1.4527e-07
-1.37578e-07
-1.30855e-07
-1.25052e-07
-1.20118e-07
-1.15998e-07
-1.12636e-07
-1.09976e-07
-1.07957e-07
-1.06521e-07
-1.05609e-07
-1.05166e-07
-1.05134e-07
-1.0546e-07
-1.06093e-07
-1.06984e-07
-1.08086e-07
-1.09356e-07
-1.10751e-07
-1.12234e-07
-1.13767e-07
-1.15316e-07
-1.16851e-07
-1.18341e-07
-1.19761e-07
-1.21085e-07
-1.22294e-07
-1.23367e-07
-1.24287e-07
-1.2504e-07
-1.25614e-07
-1.26e-07
-1.26189e-07
-1.26178e-07
-1.25962e-07
-1.25543e-07
-1.24923e-07
-1.24108e-07
-1.23103e-07
-1.21912e-07
-1.20544e-07
-1.18992e-07
-1.17261e-07
-1.1537e-07
-1.1334e-07
-1.11186e-07
-1.08918e-07
-1.06546e-07
-1.04081e-07
-1.01536e-07
-9.89232e-08
-9.62553e-08
-9.35434e-08
-9.08003e-08
-8.80385e-08
-8.52662e-08
-8.24885e-08
-7.97105e-08
-7.29838e-07
-7.1852e-07
-7.04381e-07
-6.8888e-07
-6.71981e-07
-6.53718e-07
-6.34231e-07
-6.13639e-07
-5.92083e-07
-5.69701e-07
-5.4664e-07
-5.23052e-07
-4.99088e-07
-4.749e-07
-4.50639e-07
-4.26452e-07
-4.02483e-07
-3.78869e-07
-3.55739e-07
-3.33213e-07
-3.114e-07
-2.90407e-07
-2.70319e-07
-2.51209e-07
-2.3314e-07
-2.16157e-07
-2.00297e-07
-1.85581e-07
-1.72019e-07
-1.5961e-07
-1.48348e-07
-1.38214e-07
-1.29181e-07
-1.2121e-07
-1.14259e-07
-1.08278e-07
-1.03214e-07
-9.90127e-08
-9.56152e-08
-9.29621e-08
-9.09918e-08
-8.96425e-08
-8.8853e-08
-8.85631e-08
-8.87142e-08
-8.92498e-08
-9.01156e-08
-9.12596e-08
-9.26325e-08
-9.41876e-08
-9.58811e-08
-9.76721e-08
-9.95225e-08
-1.01397e-07
-1.03263e-07
-1.05092e-07
-1.06856e-07
-1.08531e-07
-1.10097e-07
-1.11533e-07
-1.12825e-07
-1.13957e-07
-1.14919e-07
-1.15702e-07
-1.16297e-07
-1.16701e-07
-1.16911e-07
-1.16926e-07
-1.16747e-07
-1.16376e-07
-1.15817e-07
-1.15076e-07
-1.14159e-07
-1.13074e-07
-1.11828e-07
-1.10431e-07
-1.08895e-07
-1.07221e-07
-1.05419e-07
-1.03503e-07
-1.01482e-07
-9.93675e-08
-9.71714e-08
-9.49042e-08
-9.25768e-08
-9.01988e-08
-8.77791e-08
-8.53252e-08
-8.28424e-08
-8.03364e-08
-7.23356e-07
-7.11154e-07
-6.97145e-07
-6.81679e-07
-6.64695e-07
-6.46388e-07
-6.2682e-07
-6.06151e-07
-5.84504e-07
-5.62031e-07
-5.38877e-07
-5.15195e-07
-4.91134e-07
-4.66847e-07
-4.42484e-07
-4.18192e-07
-3.94114e-07
-3.70389e-07
-3.47147e-07
-3.24511e-07
-3.02544e-07
-2.81435e-07
-2.61226e-07
-2.41994e-07
-2.23802e-07
-2.06702e-07
-1.90728e-07
-1.75903e-07
-1.62233e-07
-1.49723e-07
-1.38369e-07
-1.28156e-07
-1.19058e-07
-1.1104e-07
-1.0406e-07
-9.8072e-08
-9.30229e-08
-8.88563e-08
-8.55137e-08
-8.29336e-08
-8.10537e-08
-7.98114e-08
-7.91444e-08
-7.89916e-08
-7.92931e-08
-7.99911e-08
-8.10296e-08
-8.23555e-08
-8.39179e-08
-8.56692e-08
-8.75642e-08
-8.95612e-08
-9.16212e-08
-9.37084e-08
-9.57898e-08
-9.78356e-08
-9.98187e-08
-1.01715e-07
-1.03503e-07
-1.05163e-07
-1.06681e-07
-1.08041e-07
-1.09233e-07
-1.10247e-07
-1.11077e-07
-1.11718e-07
-1.12167e-07
-1.12423e-07
-1.12486e-07
-1.12359e-07
-1.12046e-07
-1.1155e-07
-1.10876e-07
-1.10031e-07
-1.09019e-07
-1.07846e-07
-1.06521e-07
-1.05062e-07
-1.03481e-07
-1.01787e-07
-9.99886e-08
-9.80942e-08
-9.61123e-08
-9.40507e-08
-9.19182e-08
-8.97243e-08
-8.74741e-08
-8.51731e-08
-8.28304e-08
-8.04548e-08
-7.14936e-07
-7.02461e-07
-6.88395e-07
-6.72893e-07
-6.55951e-07
-6.37722e-07
-6.18272e-07
-5.97754e-07
-5.76275e-07
-5.53993e-07
-5.31037e-07
-5.07567e-07
-4.83722e-07
-4.59659e-07
-4.35522e-07
-4.1146e-07
-3.87611e-07
-3.64113e-07
-3.41092e-07
-3.18668e-07
-2.96947e-07
-2.7603e-07
-2.56004e-07
-2.36943e-07
-2.18911e-07
-2.01954e-07
-1.86107e-07
-1.71391e-07
-1.57824e-07
-1.45419e-07
-1.34171e-07
-1.24063e-07
-1.15067e-07
-1.07149e-07
-1.00267e-07
-9.43726e-08
-8.94128e-08
-8.53276e-08
-8.20696e-08
-7.95735e-08
-7.77764e-08
-7.66155e-08
-7.60289e-08
-7.59554e-08
-7.63353e-08
-7.71108e-08
-7.82261e-08
-7.96277e-08
-8.12651e-08
-8.30901e-08
-8.50579e-08
-8.71264e-08
-8.92567e-08
-9.14129e-08
-9.3562e-08
-9.56742e-08
-9.77224e-08
-9.96823e-08
-1.01532e-07
-1.03254e-07
-1.04832e-07
-1.06251e-07
-1.07501e-07
-1.08572e-07
-1.09459e-07
-1.10156e-07
-1.10661e-07
-1.10972e-07
-1.11091e-07
-1.11019e-07
-1.1076e-07
-1.10318e-07
-1.097e-07
-1.08912e-07
-1.07961e-07
-1.06856e-07
-1.05606e-07
-1.04219e-07
-1.02705e-07
-1.01074e-07
-9.93332e-08
-9.74921e-08
-9.55595e-08
-9.35442e-08
-9.14566e-08
-8.93092e-08
-8.71033e-08
-8.48497e-08
-8.25556e-08
-8.02273e-08
-7.13201e-07
-7.0072e-07
-6.86672e-07
-6.71214e-07
-6.54333e-07
-6.36179e-07
-6.16817e-07
-5.96399e-07
-5.75031e-07
-5.52868e-07
-5.30038e-07
-5.06698e-07
-4.82988e-07
-4.59061e-07
-4.3506e-07
-4.1113e-07
-3.87411e-07
-3.64035e-07
-3.41131e-07
-3.18816e-07
-2.97199e-07
-2.76376e-07
-2.56436e-07
-2.37454e-07
-2.19492e-07
-2.02598e-07
-1.86806e-07
-1.72138e-07
-1.58606e-07
-1.46224e-07
-1.34991e-07
-1.24888e-07
-1.15892e-07
-1.07966e-07
-1.0107e-07
-9.51569e-08
-9.01751e-08
-8.60737e-08
-8.27834e-08
-8.02488e-08
-7.84101e-08
-7.72061e-08
-7.65758e-08
-7.64586e-08
-7.67953e-08
-7.75283e-08
-7.86021e-08
-7.99635e-08
-8.1562e-08
-8.33497e-08
-8.52817e-08
-8.7316e-08
-8.94135e-08
-9.15382e-08
-9.3657e-08
-9.574e-08
-9.77601e-08
-9.96932e-08
-1.01518e-07
-1.03215e-07
-1.04769e-07
-1.06166e-07
-1.07395e-07
-1.08447e-07
-1.09316e-07
-1.09996e-07
-1.10484e-07
-1.10781e-07
-1.10886e-07
-1.10801e-07
-1.10531e-07
-1.1008e-07
-1.09453e-07
-1.08657e-07
-1.07699e-07
-1.06589e-07
-1.05333e-07
-1.03942e-07
-1.02425e-07
-1.00791e-07
-9.90508e-08
-9.72118e-08
-9.52838e-08
-9.32753e-08
-9.11959e-08
-8.90501e-08
-8.68539e-08
-8.46121e-08
-8.23304e-08
-7.18905e-07
-7.06734e-07
-6.92803e-07
-6.7746e-07
-6.60639e-07
-6.4253e-07
-6.23194e-07
-6.02788e-07
-5.81429e-07
-5.59267e-07
-5.36439e-07
-5.13095e-07
-4.89381e-07
-4.65444e-07
-4.41429e-07
-4.1748e-07
-3.93735e-07
-3.70329e-07
-3.47389e-07
-3.25034e-07
-3.03361e-07
-2.82488e-07
-2.62491e-07
-2.43448e-07
-2.25422e-07
-2.08462e-07
-1.92606e-07
-1.77876e-07
-1.64282e-07
-1.51822e-07
-1.40495e-07
-1.30287e-07
-1.21176e-07
-1.13128e-07
-1.06105e-07
-1.00062e-07
-9.49475e-08
-9.07074e-08
-8.72832e-08
-8.46152e-08
-8.26427e-08
-8.13043e-08
-8.05389e-08
-8.02865e-08
-8.0488e-08
-8.10861e-08
-8.20256e-08
-8.32537e-08
-8.472e-08
-8.63769e-08
-8.81798e-08
-9.0087e-08
-9.20596e-08
-9.40619e-08
-9.60611e-08
-9.80275e-08
-9.99339e-08
-1.01756e-07
-1.03473e-07
-1.05066e-07
-1.06519e-07
-1.07817e-07
-1.08951e-07
-1.0991e-07
-1.10688e-07
-1.11281e-07
-1.11685e-07
-1.119e-07
-1.11927e-07
-1.11767e-07
-1.11424e-07
-1.10902e-07
-1.10208e-07
-1.09346e-07
-1.08324e-07
-1.07148e-07
-1.05827e-07
-1.0437e-07
-1.02793e-07
-1.01108e-07
-9.93222e-08
-9.74438e-08
-9.54805e-08
-9.34411e-08
-9.13341e-08
-8.91676e-08
-8.69464e-08
-8.46783e-08
-8.23725e-08
-7.23943e-07
-7.12856e-07
-6.98718e-07
-6.83433e-07
-6.6679e-07
-6.48818e-07
-6.29668e-07
-6.09451e-07
-5.88301e-07
-5.66351e-07
-5.43741e-07
-5.20616e-07
-4.9712e-07
-4.73401e-07
-4.49603e-07
-4.25869e-07
-4.02337e-07
-3.7914e-07
-3.56403e-07
-3.34243e-07
-3.1277e-07
-2.92081e-07
-2.72263e-07
-2.53389e-07
-2.3552e-07
-2.18705e-07
-2.0298e-07
-1.88367e-07
-1.74879e-07
-1.62515e-07
-1.51269e-07
-1.41127e-07
-1.32061e-07
-1.24037e-07
-1.17013e-07
-1.10944e-07
-1.05781e-07
-1.01472e-07
-9.79601e-08
-9.51868e-08
-9.30921e-08
-9.16157e-08
-9.06977e-08
-9.02789e-08
-9.03019e-08
-9.07106e-08
-9.14512e-08
-9.24721e-08
-9.37243e-08
-9.51614e-08
-9.67395e-08
-9.8418e-08
-1.00159e-07
-1.01926e-07
-1.03689e-07
-1.05416e-07
-1.07082e-07
-1.08663e-07
-1.10137e-07
-1.11485e-07
-1.12692e-07
-1.13743e-07
-1.14628e-07
-1.15337e-07
-1.15864e-07
-1.16204e-07
-1.16354e-07
-1.16314e-07
-1.16086e-07
-1.15673e-07
-1.15077e-07
-1.14303e-07
-1.13359e-07
-1.1225e-07
-1.10986e-07
-1.09573e-07
-1.08024e-07
-1.06353e-07
-1.04565e-07
-1.02664e-07
-1.00662e-07
-9.85721e-08
-9.64053e-08
-9.41717e-08
-9.18821e-08
-8.95473e-08
-8.71749e-08
-8.47696e-08
-8.2337e-08
-7.22823e-07
-7.11009e-07
-6.9774e-07
-6.82943e-07
-6.66697e-07
-6.4915e-07
-6.3045e-07
-6.1073e-07
-5.90118e-07
-5.68741e-07
-5.46736e-07
-5.24242e-07
-5.01402e-07
-4.78358e-07
-4.55254e-07
-4.32228e-07
-4.09416e-07
-3.86947e-07
-3.64941e-07
-3.43511e-07
-3.22759e-07
-3.02775e-07
-2.83642e-07
-2.65428e-07
-2.48189e-07
-2.31972e-07
-2.1681e-07
-2.02724e-07
-1.89725e-07
-1.77812e-07
-1.66975e-07
-1.57193e-07
-1.48439e-07
-1.40678e-07
-1.3387e-07
-1.2797e-07
-1.22929e-07
-1.18695e-07
-1.15215e-07
-1.12431e-07
-1.10286e-07
-1.08722e-07
-1.07683e-07
-1.07111e-07
-1.06952e-07
-1.07152e-07
-1.07661e-07
-1.08429e-07
-1.0941e-07
-1.1056e-07
-1.11838e-07
-1.13204e-07
-1.14623e-07
-1.16059e-07
-1.17483e-07
-1.18864e-07
-1.20176e-07
-1.21396e-07
-1.22502e-07
-1.23475e-07
-1.24298e-07
-1.24957e-07
-1.25441e-07
-1.25741e-07
-1.25849e-07
-1.25761e-07
-1.25475e-07
-1.2499e-07
-1.2431e-07
-1.23441e-07
-1.22394e-07
-1.2117e-07
-1.19772e-07
-1.18186e-07
-1.16423e-07
-1.14515e-07
-1.12482e-07
-1.10336e-07
-1.08081e-07
-1.05726e-07
-1.03283e-07
-1.00766e-07
-9.81878e-08
-9.55599e-08
-9.28942e-08
-9.02028e-08
-8.74969e-08
-8.47833e-08
-8.20663e-08
-7.09611e-07
-6.9787e-07
-6.85226e-07
-6.71283e-07
-6.55923e-07
-6.39217e-07
-6.21331e-07
-6.02452e-07
-5.82746e-07
-5.62364e-07
-5.41439e-07
-5.20105e-07
-4.9849e-07
-4.76729e-07
-4.54953e-07
-4.33294e-07
-4.11878e-07
-3.90828e-07
-3.70255e-07
-3.50261e-07
-3.30939e-07
-3.12365e-07
-2.94608e-07
-2.77723e-07
-2.61753e-07
-2.46732e-07
-2.32689e-07
-2.19642e-07
-2.07601e-07
-1.96564e-07
-1.86522e-07
-1.77453e-07
-1.69331e-07
-1.62121e-07
-1.55784e-07
-1.50274e-07
-1.45544e-07
-1.41545e-07
-1.38224e-07
-1.35529e-07
-1.33408e-07
-1.31809e-07
-1.30679e-07
-1.29968e-07
-1.29625e-07
-1.29603e-07
-1.29853e-07
-1.30332e-07
-1.30995e-07
-1.31804e-07
-1.3272e-07
-1.33706e-07
-1.3473e-07
-1.35758e-07
-1.3676e-07
-1.37709e-07
-1.38578e-07
-1.39343e-07
-1.39982e-07
-1.40475e-07
-1.40804e-07
-1.40954e-07
-1.40914e-07
-1.40672e-07
-1.40222e-07
-1.3956e-07
-1.38684e-07
-1.37593e-07
-1.3629e-07
-1.34778e-07
-1.33078e-07
-1.31164e-07
-1.29027e-07
-1.2671e-07
-1.24246e-07
-1.21652e-07
-1.18936e-07
-1.16107e-07
-1.13174e-07
-1.10155e-07
-1.07064e-07
-1.03919e-07
-1.00733e-07
-9.75224e-08
-9.42982e-08
-9.10712e-08
-8.78521e-08
-8.46537e-08
-8.14859e-08
-6.83718e-07
-6.71576e-07
-6.59164e-07
-6.4598e-07
-6.31684e-07
-6.16181e-07
-5.99551e-07
-5.81978e-07
-5.63663e-07
-5.44789e-07
-5.25508e-07
-5.05948e-07
-4.86222e-07
-4.66442e-07
-4.46719e-07
-4.27162e-07
-4.0788e-07
-3.88977e-07
-3.70548e-07
-3.52684e-07
-3.35464e-07
-3.18956e-07
-3.03216e-07
-2.88285e-07
-2.74188e-07
-2.60939e-07
-2.48551e-07
-2.3703e-07
-2.26382e-07
-2.16602e-07
-2.07682e-07
-1.99608e-07
-1.92357e-07
-1.85902e-07
-1.80207e-07
-1.75233e-07
-1.70936e-07
-1.67269e-07
-1.64185e-07
-1.61636e-07
-1.59577e-07
-1.57963e-07
-1.5675e-07
-1.55895e-07
-1.55356e-07
-1.55093e-07
-1.55066e-07
-1.55235e-07
-1.55563e-07
-1.56014e-07
-1.56551e-07
-1.57141e-07
-1.57753e-07
-1.58356e-07
-1.5892e-07
-1.59419e-07
-1.59825e-07
-1.60115e-07
-1.60264e-07
-1.60251e-07
-1.60057e-07
-1.59664e-07
-1.59056e-07
-1.58222e-07
-1.57151e-07
-1.55837e-07
-1.54279e-07
-1.52478e-07
-1.50442e-07
-1.48182e-07
-1.45662e-07
-1.42916e-07
-1.39983e-07
-1.36884e-07
-1.33627e-07
-1.30223e-07
-1.26687e-07
-1.23037e-07
-1.19292e-07
-1.15475e-07
-1.11603e-07
-1.07696e-07
-1.03773e-07
-9.9851e-08
-9.59447e-08
-9.20685e-08
-8.82345e-08
-8.44546e-08
-8.07415e-08
-6.43262e-07
-6.30959e-07
-6.1893e-07
-6.06644e-07
-5.93632e-07
-5.79663e-07
-5.64727e-07
-5.48967e-07
-5.32595e-07
-5.15821e-07
-4.98815e-07
-4.81703e-07
-4.64578e-07
-4.47521e-07
-4.30602e-07
-4.13899e-07
-3.97485e-07
-3.81435e-07
-3.65819e-07
-3.50699e-07
-3.36132e-07
-3.22164e-07
-3.08832e-07
-2.9617e-07
-2.84205e-07
-2.72957e-07
-2.62432e-07
-2.52625e-07
-2.43526e-07
-2.35128e-07
-2.2742e-07
-2.20393e-07
-2.14036e-07
-2.08334e-07
-2.03264e-07
-1.98799e-07
-1.94906e-07
-1.91547e-07
-1.88682e-07
-1.86271e-07
-1.84275e-07
-1.82653e-07
-1.81369e-07
-1.80384e-07
-1.79666e-07
-1.7918e-07
-1.78896e-07
-1.78784e-07
-1.78814e-07
-1.78955e-07
-1.79175e-07
-1.79443e-07
-1.79726e-07
-1.79994e-07
-1.80216e-07
-1.80364e-07
-1.80409e-07
-1.80324e-07
-1.80084e-07
-1.79665e-07
-1.79043e-07
-1.782e-07
-1.77117e-07
-1.7578e-07
-1.74173e-07
-1.72284e-07
-1.701e-07
-1.6761e-07
-1.64805e-07
-1.61737e-07
-1.58457e-07
-1.54975e-07
-1.51286e-07
-1.4739e-07
-1.43304e-07
-1.39054e-07
-1.34667e-07
-1.3017e-07
-1.25587e-07
-1.20942e-07
-1.1626e-07
-1.11564e-07
-1.06876e-07
-1.02215e-07
-9.75997e-08
-9.30481e-08
-8.85776e-08
-8.42039e-08
-7.99409e-08
-5.8789e-07
-5.76355e-07
-5.65814e-07
-5.55393e-07
-5.44426e-07
-5.32616e-07
-5.19955e-07
-5.06618e-07
-4.92846e-07
-4.7886e-07
-4.64821e-07
-4.50829e-07
-4.36943e-07
-4.232e-07
-4.09635e-07
-3.96284e-07
-3.83185e-07
-3.7038e-07
-3.57906e-07
-3.45797e-07
-3.34084e-07
-3.22794e-07
-3.1195e-07
-3.01578e-07
-2.91704e-07
-2.82351e-07
-2.73535e-07
-2.65262e-07
-2.57536e-07
-2.50357e-07
-2.43722e-07
-2.37628e-07
-2.32071e-07
-2.2704e-07
-2.22523e-07
-2.18501e-07
-2.14954e-07
-2.11857e-07
-2.09187e-07
-2.06916e-07
-2.05015e-07
-2.0345e-07
-2.02184e-07
-2.01181e-07
-2.00405e-07
-1.99823e-07
-1.99409e-07
-1.99139e-07
-1.9899e-07
-1.98939e-07
-1.98961e-07
-1.99029e-07
-1.99112e-07
-1.99181e-07
-1.99203e-07
-1.99145e-07
-1.98976e-07
-1.98664e-07
-1.98179e-07
-1.9749e-07
-1.96572e-07
-1.95398e-07
-1.93948e-07
-1.922e-07
-1.90139e-07
-1.87753e-07
-1.85037e-07
-1.8198e-07
-1.7863e-07
-1.74973e-07
-1.71014e-07
-1.66781e-07
-1.62296e-07
-1.57578e-07
-1.52655e-07
-1.47556e-07
-1.42315e-07
-1.36965e-07
-1.31536e-07
-1.26057e-07
-1.20559e-07
-1.15072e-07
-1.09623e-07
-1.04238e-07
-9.89413e-08
-9.37508e-08
-8.86843e-08
-8.3757e-08
-7.89819e-08
-5.30254e-07
-5.20668e-07
-5.12577e-07
-5.04613e-07
-4.96013e-07
-4.86557e-07
-4.76341e-07
-4.65609e-07
-4.5462e-07
-4.43573e-07
-4.32593e-07
-4.21742e-07
-4.11045e-07
-4.00511e-07
-3.90144e-07
-3.79952e-07
-3.69945e-07
-3.60136e-07
-3.50535e-07
-3.41151e-07
-3.31988e-07
-3.23047e-07
-3.14338e-07
-3.05875e-07
-2.97688e-07
-2.8982e-07
-2.82317e-07
-2.75216e-07
-2.68548e-07
-2.62331e-07
-2.56575e-07
-2.51284e-07
-2.46452e-07
-2.42068e-07
-2.38114e-07
-2.34566e-07
-2.31406e-07
-2.28624e-07
-2.26209e-07
-2.24149e-07
-2.22428e-07
-2.21022e-07
-2.19905e-07
-2.19041e-07
-2.18395e-07
-2.17932e-07
-2.17619e-07
-2.17428e-07
-2.17335e-07
-2.17316e-07
-2.17349e-07
-2.1741e-07
-2.17474e-07
-2.17511e-07
-2.17492e-07
-2.17381e-07
-2.17143e-07
-2.16743e-07
-2.16144e-07
-2.15314e-07
-2.14221e-07
-2.12834e-07
-2.11131e-07
-2.09091e-07
-2.06703e-07
-2.03966e-07
-2.00873e-07
-1.97348e-07
-1.93361e-07
-1.88967e-07
-1.84225e-07
-1.79168e-07
-1.73819e-07
-1.68203e-07
-1.62359e-07
-1.56328e-07
-1.50149e-07
-1.43863e-07
-1.37506e-07
-1.31119e-07
-1.24739e-07
-1.18404e-07
-1.12147e-07
-1.05998e-07
-9.99846e-08
-9.4132e-08
-8.84589e-08
-8.29795e-08
-7.77039e-08
-4.87914e-07
-4.78859e-07
-4.71282e-07
-4.64118e-07
-4.56729e-07
-4.48888e-07
-4.40619e-07
-4.32073e-07
-4.23426e-07
-4.14827e-07
-4.06366e-07
-3.98089e-07
-3.90004e-07
-3.82099e-07
-3.74358e-07
-3.66763e-07
-3.59301e-07
-3.51964e-07
-3.44743e-07
-3.3762e-07
-3.30574e-07
-3.23582e-07
-3.16629e-07
-3.09713e-07
-3.02854e-07
-2.96095e-07
-2.89512e-07
-2.83199e-07
-2.77242e-07
-2.71708e-07
-2.66637e-07
-2.6205e-07
-2.57955e-07
-2.54334e-07
-2.51145e-07
-2.48333e-07
-2.45864e-07
-2.43716e-07
-2.41872e-07
-2.40307e-07
-2.38994e-07
-2.37902e-07
-2.3701e-07
-2.36313e-07
-2.35812e-07
-2.35504e-07
-2.35375e-07
-2.35397e-07
-2.35533e-07
-2.35748e-07
-2.36009e-07
-2.36283e-07
-2.36545e-07
-2.36761e-07
-2.36899e-07
-2.36917e-07
-2.36777e-07
-2.36436e-07
-2.35851e-07
-2.34989e-07
-2.33801e-07
-2.32265e-07
-2.30348e-07
-2.28032e-07
-2.2532e-07
-2.22187e-07
-2.18461e-07
-2.14182e-07
-2.09447e-07
-2.04301e-07
-1.98749e-07
-1.92803e-07
-1.86494e-07
-1.79874e-07
-1.72996e-07
-1.65909e-07
-1.58664e-07
-1.5131e-07
-1.43898e-07
-1.36479e-07
-1.291e-07
-1.21805e-07
-1.14635e-07
-1.07627e-07
-1.00813e-07
-9.42184e-08
-8.78643e-08
-8.17671e-08
-7.59377e-08
-4.5658e-07
-4.46303e-07
-4.37458e-07
-4.29668e-07
-4.22463e-07
-4.15456e-07
-4.08445e-07
-4.01402e-07
-3.94412e-07
-3.87598e-07
-3.81054e-07
-3.74828e-07
-3.68921e-07
-3.63304e-07
-3.57937e-07
-3.52774e-07
-3.4777e-07