/*--------------------------------*- C++ -*----------------------------------*\
| =========                 |                                                 |
| \\      /  F ield         | OpenFOAM: The Open Source CFD Toolbox           |
|  \\    /   O peration     | Version:  2312                                  |
|   \\  /    A nd           | Website:  www.openfoam.com                      |
|    \\/     M anipulation  |                                                 |
\*---------------------------------------------------------------------------*/
FoamFile
{
    version     2.0;
    format      ascii;
    arch        "LSB;label=32;scalar=64";
    class       volScalarField;
    location    "49000";
    object      p;
}
// * * * * * * * * * * * * * * * * * * * * * * * * * * * * * * * * * * * * * //

dimensions      [0 2 -2 0 0 0 0];

internalField   nonuniform List<scalar> 
2715
(
4.88e-07
4.73877e-07
4.6011e-07
4.49532e-07
4.4211e-07
4.36719e-07
4.32268e-07
4.28188e-07
4.24313e-07
4.20648e-07
4.17232e-07
4.14068e-07
4.11122e-07
4.08345e-07
4.0569e-07
4.03124e-07
4.00626e-07
3.98181e-07
3.9578e-07
3.93414e-07
3.91074e-07
3.88753e-07
3.86444e-07
3.84141e-07
3.8184e-07
3.79537e-07
3.77229e-07
3.74914e-07
3.72589e-07
3.70253e-07
3.67905e-07
3.65544e-07
3.63169e-07
3.60779e-07
3.58375e-07
3.55957e-07
3.53525e-07
3.51079e-07
3.4862e-07
3.46148e-07
3.43663e-07
3.41166e-07
3.38657e-07
3.36135e-07
3.33603e-07
3.31057e-07
3.28499e-07
3.25923e-07
3.23336e-07
3.20721e-07
3.181e-07
3.15422e-07
3.12766e-07
3.09963e-07
3.07313e-07
3.04177e-07
3.01817e-07
2.97407e-07
2.97097e-07
2.86495e-07
4.39956e-07
4.38229e-07
4.35584e-07
4.32458e-07
4.29242e-07
4.26148e-07
4.23224e-07
4.20438e-07
4.17736e-07
4.15089e-07
4.12491e-07
4.09948e-07
4.07466e-07
4.05045e-07
4.02678e-07
4.00357e-07
3.98072e-07
3.95816e-07
3.93582e-07
3.91365e-07
3.89161e-07
3.86967e-07
3.84778e-07
3.82592e-07
3.80404e-07
3.78214e-07
3.76017e-07
3.73813e-07
3.71599e-07
3.69375e-07
3.6714e-07
3.64892e-07
3.62632e-07
3.60358e-07
3.58071e-07
3.5577e-07
3.53456e-07
3.51127e-07
3.48788e-07
3.46431e-07
3.44067e-07
3.41683e-07
3.39296e-07
3.36884e-07
3.34477e-07
3.32034e-07
3.2961e-07
3.27133e-07
3.247e-07
3.22185e-07
3.19764e-07
3.17212e-07
3.14856e-07
3.12287e-07
3.1013e-07
3.07611e-07
3.05988e-07
3.03598e-07
3.03119e-07
3.00441e-07
4.31215e-07
4.30465e-07
4.29051e-07
4.27099e-07
4.24815e-07
4.22394e-07
4.19964e-07
4.17574e-07
4.15228e-07
4.12913e-07
4.10619e-07
4.08347e-07
4.06101e-07
4.03887e-07
4.01707e-07
3.99558e-07
3.97436e-07
3.95336e-07
3.93255e-07
3.91187e-07
3.8913e-07
3.8708e-07
3.85036e-07
3.82995e-07
3.80954e-07
3.78911e-07
3.76865e-07
3.74814e-07
3.72757e-07
3.70691e-07
3.68618e-07
3.66535e-07
3.64443e-07
3.62339e-07
3.60226e-07
3.58101e-07
3.55966e-07
3.53818e-07
3.51662e-07
3.49491e-07
3.47314e-07
3.45119e-07
3.42922e-07
3.40703e-07
3.38487e-07
3.36243e-07
3.34011e-07
3.31744e-07
3.29502e-07
3.27213e-07
3.24974e-07
3.22669e-07
3.20454e-07
3.18143e-07
3.15988e-07
3.13684e-07
3.1164e-07
3.09349e-07
3.07456e-07
3.05086e-07
4.1948e-07
4.19047e-07
4.1826e-07
4.1717e-07
4.15845e-07
4.14357e-07
4.12762e-07
4.11101e-07
4.09393e-07
4.07651e-07
4.0588e-07
4.04085e-07
4.02274e-07
4.00451e-07
3.98623e-07
3.96792e-07
3.94959e-07
3.93126e-07
3.9129e-07
3.89453e-07
3.87614e-07
3.85771e-07
3.83925e-07
3.82074e-07
3.80219e-07
3.78358e-07
3.76491e-07
3.74617e-07
3.72737e-07
3.70848e-07
3.68952e-07
3.67048e-07
3.65137e-07
3.63216e-07
3.61288e-07
3.59351e-07
3.57406e-07
3.55452e-07
3.53491e-07
3.5152e-07
3.49542e-07
3.47553e-07
3.45558e-07
3.43549e-07
3.41534e-07
3.39503e-07
3.37465e-07
3.35406e-07
3.3334e-07
3.31246e-07
3.29145e-07
3.27006e-07
3.24863e-07
3.22672e-07
3.20482e-07
3.18231e-07
3.15989e-07
3.13668e-07
3.11373e-07
3.08997e-07
4.12779e-07
4.12565e-07
4.12134e-07
4.11488e-07
4.10644e-07
4.0963e-07
4.0848e-07
4.07223e-07
4.05883e-07
4.04479e-07
4.03023e-07
4.01523e-07
3.99986e-07
3.9842e-07
3.96829e-07
3.9522e-07
3.93595e-07
3.91958e-07
3.90309e-07
3.88651e-07
3.86985e-07
3.85311e-07
3.83629e-07
3.81941e-07
3.80247e-07
3.78547e-07
3.7684e-07
3.75128e-07
3.73411e-07
3.71688e-07
3.6996e-07
3.68227e-07
3.66489e-07
3.64746e-07
3.62999e-07
3.61248e-07
3.59493e-07
3.57734e-07
3.55972e-07
3.54205e-07
3.52434e-07
3.50659e-07
3.4888e-07
3.47095e-07
3.45305e-07
3.43509e-07
3.41705e-07
3.39892e-07
3.38068e-07
3.3623e-07
3.34373e-07
3.32491e-07
3.30572e-07
3.28605e-07
3.26573e-07
3.24464e-07
3.22265e-07
3.19989e-07
3.17637e-07
3.15306e-07
4.07258e-07
4.07096e-07
4.06771e-07
4.06287e-07
4.05654e-07
4.04888e-07
4.04007e-07
4.03029e-07
4.0197e-07
4.00842e-07
3.99656e-07
3.98419e-07
3.97137e-07
3.95817e-07
3.94463e-07
3.93081e-07
3.91674e-07
3.90246e-07
3.88799e-07
3.87337e-07
3.85859e-07
3.84369e-07
3.82868e-07
3.81357e-07
3.79837e-07
3.78309e-07
3.76774e-07
3.75232e-07
3.73685e-07
3.72134e-07
3.70578e-07
3.69019e-07
3.67457e-07
3.65893e-07
3.64327e-07
3.6276e-07
3.61193e-07
3.59625e-07
3.58056e-07
3.56488e-07
3.54919e-07
3.5335e-07
3.5178e-07
3.50208e-07
3.48633e-07
3.47054e-07
3.45466e-07
3.43869e-07
3.42257e-07
3.40631e-07
3.38983e-07
3.37318e-07
3.35626e-07
3.33915e-07
3.32158e-07
3.3036e-07
3.28485e-07
3.26555e-07
3.24568e-07
3.22648e-07
4.02911e-07
4.02792e-07
4.02555e-07
4.02199e-07
4.01729e-07
4.01151e-07
4.00475e-07
3.9971e-07
3.98868e-07
3.97956e-07
3.96984e-07
3.95957e-07
3.94882e-07
3.93763e-07
3.92605e-07
3.91414e-07
3.90192e-07
3.88944e-07
3.87672e-07
3.86379e-07
3.85069e-07
3.83742e-07
3.82402e-07
3.8105e-07
3.79687e-07
3.78315e-07
3.76937e-07
3.75552e-07
3.74162e-07
3.72769e-07
3.71374e-07
3.69978e-07
3.68582e-07
3.67186e-07
3.65792e-07
3.64402e-07
3.63014e-07
3.61631e-07
3.60253e-07
3.58881e-07
3.57514e-07
3.56154e-07
3.54799e-07
3.53451e-07
3.52109e-07
3.50774e-07
3.49442e-07
3.48115e-07
3.46788e-07
3.45459e-07
3.44118e-07
3.42762e-07
3.41377e-07
3.39968e-07
3.38525e-07
3.37058e-07
3.35548e-07
3.34017e-07
3.32465e-07
3.31004e-07
3.99459e-07
3.99367e-07
3.99181e-07
3.98902e-07
3.98531e-07
3.98072e-07
3.97529e-07
3.96909e-07
3.96219e-07
3.95464e-07
3.94649e-07
3.93781e-07
3.92864e-07
3.91903e-07
3.90903e-07
3.89867e-07
3.88799e-07
3.87704e-07
3.86583e-07
3.8544e-07
3.84278e-07
3.83099e-07
3.81904e-07
3.80698e-07
3.7948e-07
3.78254e-07
3.77022e-07
3.75784e-07
3.74543e-07
3.733e-07
3.72057e-07
3.70816e-07
3.69577e-07
3.68342e-07
3.67113e-07
3.65891e-07
3.64678e-07
3.63474e-07
3.6228e-07
3.61098e-07
3.59928e-07
3.58772e-07
3.57629e-07
3.56501e-07
3.55387e-07
3.54287e-07
3.53199e-07
3.52126e-07
3.51064e-07
3.50016e-07
3.48979e-07
3.47951e-07
3.4692e-07
3.45889e-07
3.44844e-07
3.43798e-07
3.42738e-07
3.41691e-07
3.40664e-07
3.39762e-07
3.96694e-07
3.96619e-07
3.96467e-07
3.96239e-07
3.95935e-07
3.95556e-07
3.95106e-07
3.94589e-07
3.9401e-07
3.93372e-07
3.9268e-07
3.91937e-07
3.91149e-07
3.90318e-07
3.89449e-07
3.88545e-07
3.87609e-07
3.86645e-07
3.85656e-07
3.84645e-07
3.83613e-07
3.82565e-07
3.81501e-07
3.80426e-07
3.7934e-07
3.78246e-07
3.77147e-07
3.76044e-07
3.74939e-07
3.73834e-07
3.72732e-07
3.71634e-07
3.70541e-07
3.69457e-07
3.68382e-07
3.67319e-07
3.66269e-07
3.65235e-07
3.64217e-07
3.63218e-07
3.62238e-07
3.61281e-07
3.60346e-07
3.59437e-07
3.58553e-07
3.57697e-07
3.56868e-07
3.56069e-07
3.55296e-07
3.54551e-07
3.5383e-07
3.53138e-07
3.52471e-07
3.51832e-07
3.51216e-07
3.50629e-07
3.50066e-07
3.49547e-07
3.49085e-07
3.48767e-07
3.94492e-07
3.94428e-07
3.943e-07
3.94107e-07
3.9385e-07
3.93529e-07
3.93146e-07
3.92705e-07
3.92209e-07
3.9166e-07
3.91062e-07
3.90418e-07
3.89731e-07
3.89004e-07
3.88241e-07
3.87445e-07
3.86618e-07
3.85764e-07
3.84885e-07
3.83984e-07
3.83064e-07
3.82127e-07
3.81176e-07
3.80214e-07
3.79243e-07
3.78265e-07
3.77282e-07
3.76297e-07
3.75313e-07
3.74331e-07
3.73354e-07
3.72384e-07
3.71423e-07
3.70474e-07
3.69539e-07
3.6862e-07
3.6772e-07
3.66841e-07
3.65985e-07
3.65154e-07
3.64352e-07
3.6358e-07
3.6284e-07
3.62136e-07
3.61469e-07
3.60842e-07
3.60257e-07
3.59717e-07
3.59221e-07
3.58772e-07
3.58372e-07
3.58024e-07
3.57729e-07
3.57491e-07
3.57309e-07
3.57191e-07
3.57134e-07
3.5716e-07
3.57281e-07
3.57573e-07
3.92762e-07
3.92707e-07
3.92596e-07
3.92429e-07
3.92205e-07
3.91926e-07
3.91593e-07
3.91208e-07
3.90774e-07
3.90292e-07
3.89765e-07
3.89197e-07
3.88589e-07
3.87944e-07
3.87264e-07
3.86553e-07
3.85814e-07
3.85048e-07
3.84259e-07
3.83449e-07
3.82621e-07
3.81778e-07
3.80921e-07
3.80054e-07
3.79179e-07
3.78299e-07
3.77416e-07
3.76533e-07
3.75652e-07
3.74776e-07
3.73908e-07
3.73049e-07
3.72203e-07
3.71373e-07
3.70561e-07
3.69769e-07
3.69002e-07
3.68261e-07
3.67549e-07
3.66871e-07
3.66228e-07
3.65624e-07
3.65063e-07
3.64547e-07
3.64081e-07
3.63667e-07
3.63309e-07
3.6301e-07
3.62773e-07
3.62604e-07
3.62507e-07
3.62487e-07
3.62547e-07
3.62693e-07
3.62928e-07
3.63262e-07
3.63697e-07
3.64252e-07
3.64943e-07
3.65828e-07
3.91444e-07
3.91395e-07
3.91296e-07
3.91147e-07
3.90948e-07
3.90699e-07
3.90402e-07
3.90057e-07
3.89668e-07
3.89236e-07
3.88763e-07
3.88251e-07
3.87702e-07
3.87119e-07
3.86504e-07
3.85859e-07
3.85187e-07
3.84491e-07
3.83773e-07
3.83035e-07
3.8228e-07
3.81511e-07
3.8073e-07
3.7994e-07
3.79144e-07
3.78344e-07
3.77542e-07
3.76742e-07
3.75946e-07
3.75158e-07
3.74379e-07
3.73613e-07
3.72862e-07
3.72131e-07
3.71421e-07
3.70737e-07
3.70081e-07
3.69456e-07
3.68868e-07
3.68318e-07
3.67811e-07
3.67351e-07
3.66942e-07
3.66588e-07
3.66293e-07
3.66064e-07
3.65902e-07
3.65815e-07
3.65807e-07
3.65886e-07
3.66058e-07
3.66329e-07
3.66705e-07
3.67195e-07
3.67805e-07
3.68547e-07
3.69428e-07
3.70466e-07
3.71679e-07
3.73109e-07
3.90491e-07
3.90446e-07
3.90355e-07
3.90219e-07
3.90037e-07
3.89809e-07
3.89537e-07
3.89221e-07
3.88864e-07
3.88467e-07
3.88031e-07
3.8756e-07
3.87054e-07
3.86515e-07
3.85947e-07
3.85351e-07
3.84729e-07
3.84084e-07
3.83418e-07
3.82733e-07
3.82033e-07
3.8132e-07
3.80596e-07
3.79864e-07
3.79127e-07
3.78387e-07
3.77648e-07
3.76911e-07
3.76181e-07
3.75459e-07
3.74749e-07
3.74054e-07
3.73378e-07
3.72723e-07
3.72093e-07
3.71492e-07
3.70923e-07
3.7039e-07
3.69897e-07
3.69448e-07
3.69048e-07
3.68701e-07
3.68412e-07
3.68187e-07
3.6803e-07
3.67947e-07
3.67945e-07
3.68029e-07
3.68207e-07
3.68487e-07
3.68877e-07
3.69385e-07
3.7002e-07
3.70792e-07
3.71711e-07
3.7279e-07
3.74041e-07
3.75481e-07
3.77129e-07
3.79014e-07
3.89871e-07
3.89829e-07
3.89744e-07
3.89616e-07
3.89444e-07
3.8923e-07
3.88973e-07
3.88676e-07
3.88339e-07
3.87964e-07
3.87554e-07
3.87108e-07
3.8663e-07
3.8612e-07
3.85582e-07
3.85018e-07
3.84428e-07
3.83817e-07
3.83186e-07
3.82537e-07
3.81873e-07
3.81197e-07
3.80511e-07
3.79818e-07
3.79121e-07
3.78422e-07
3.77724e-07
3.7703e-07
3.76344e-07
3.75667e-07
3.75004e-07
3.74358e-07
3.73732e-07
3.73129e-07
3.72554e-07
3.72009e-07
3.715e-07
3.7103e-07
3.70603e-07
3.70224e-07
3.69898e-07
3.6963e-07
3.69425e-07
3.69289e-07
3.69228e-07
3.69248e-07
3.69356e-07
3.6956e-07
3.69869e-07
3.70291e-07
3.70834e-07
3.7151e-07
3.72328e-07
3.73301e-07
3.74441e-07
3.7576e-07
3.77277e-07
3.79005e-07
3.80966e-07
3.8318e-07
3.89566e-07
3.89525e-07
3.89443e-07
3.89318e-07
3.89152e-07
3.88944e-07
3.88695e-07
3.88407e-07
3.8808e-07
3.87716e-07
3.87317e-07
3.86884e-07
3.8642e-07
3.85925e-07
3.85402e-07
3.84853e-07
3.84279e-07
3.83685e-07
3.83071e-07
3.8244e-07
3.81794e-07
3.81137e-07
3.8047e-07
3.79796e-07
3.79119e-07
3.7844e-07
3.77763e-07
3.77091e-07
3.76427e-07
3.75773e-07
3.75134e-07
3.74512e-07
3.73911e-07
3.73335e-07
3.72787e-07
3.72272e-07
3.71793e-07
3.71355e-07
3.70961e-07
3.70618e-07
3.7033e-07
3.70102e-07
3.6994e-07
3.69849e-07
3.69837e-07
3.6991e-07
3.70075e-07
3.70342e-07
3.70718e-07
3.71213e-07
3.71836e-07
3.72599e-07
3.73512e-07
3.74589e-07
3.75843e-07
3.77289e-07
3.78944e-07
3.80823e-07
3.82949e-07
3.85334e-07
3.89565e-07
3.89524e-07
3.89442e-07
3.89318e-07
3.89151e-07
3.88943e-07
3.88694e-07
3.88406e-07
3.88079e-07
3.87715e-07
3.87316e-07
3.86883e-07
3.86419e-07
3.85924e-07
3.85401e-07
3.84852e-07
3.84278e-07
3.83684e-07
3.8307e-07
3.82438e-07
3.81793e-07
3.81135e-07
3.80468e-07
3.79795e-07
3.79117e-07
3.78439e-07
3.77762e-07
3.7709e-07
3.76425e-07
3.75772e-07
3.75132e-07
3.74511e-07
3.7391e-07
3.73334e-07
3.72786e-07
3.7227e-07
3.71791e-07
3.71353e-07
3.70959e-07
3.70616e-07
3.70328e-07
3.701e-07
3.69937e-07
3.69847e-07
3.69835e-07
3.69907e-07
3.70073e-07
3.70339e-07
3.70715e-07
3.7121e-07
3.71833e-07
3.72595e-07
3.73509e-07
3.74585e-07
3.7584e-07
3.77285e-07
3.7894e-07
3.80819e-07
3.82944e-07
3.8533e-07
3.89869e-07
3.89827e-07
3.89742e-07
3.89613e-07
3.89442e-07
3.89227e-07
3.88971e-07
3.88673e-07
3.88337e-07
3.87962e-07
3.87551e-07
3.87105e-07
3.86627e-07
3.86118e-07
3.85579e-07
3.85015e-07
3.84425e-07
3.83814e-07
3.83182e-07
3.82534e-07
3.8187e-07
3.81194e-07
3.80508e-07
3.79815e-07
3.79117e-07
3.78418e-07
3.7772e-07
3.77026e-07
3.76339e-07
3.75663e-07
3.75e-07
3.74353e-07
3.73727e-07
3.73124e-07
3.72548e-07
3.72004e-07
3.71494e-07
3.71024e-07
3.70597e-07
3.70218e-07
3.69892e-07
3.69623e-07
3.69418e-07
3.69282e-07
3.6922e-07
3.6924e-07
3.69347e-07
3.69551e-07
3.6986e-07
3.70281e-07
3.70825e-07
3.715e-07
3.72318e-07
3.7329e-07
3.74429e-07
3.75748e-07
3.77265e-07
3.78992e-07
3.80953e-07
3.83166e-07
3.90487e-07
3.90442e-07
3.90351e-07
3.90215e-07
3.90033e-07
3.89805e-07
3.89532e-07
3.89217e-07
3.8886e-07
3.88462e-07
3.88027e-07
3.87555e-07
3.87049e-07
3.86511e-07
3.85942e-07
3.85346e-07
3.84724e-07
3.84078e-07
3.83412e-07
3.82728e-07
3.82028e-07
3.81314e-07
3.8059e-07
3.79858e-07
3.79121e-07
3.78381e-07
3.77641e-07
3.76904e-07
3.76174e-07
3.75452e-07
3.74742e-07
3.74047e-07
3.7337e-07
3.72715e-07
3.72084e-07
3.71483e-07
3.70913e-07
3.7038e-07
3.69887e-07
3.69438e-07
3.69037e-07
3.6869e-07
3.68401e-07
3.68175e-07
3.68017e-07
3.67934e-07
3.67931e-07
3.68015e-07
3.68193e-07
3.68472e-07
3.68861e-07
3.69368e-07
3.70003e-07
3.70774e-07
3.71692e-07
3.7277e-07
3.74021e-07
3.75459e-07
3.77106e-07
3.7899e-07
3.91438e-07
3.91389e-07
3.9129e-07
3.91141e-07
3.90942e-07
3.90693e-07
3.90396e-07
3.90052e-07
3.89662e-07
3.8923e-07
3.88757e-07
3.88245e-07
3.87696e-07
3.87112e-07
3.86497e-07
3.85852e-07
3.8518e-07
3.84484e-07
3.83765e-07
3.83027e-07
3.82273e-07
3.81503e-07
3.80722e-07
3.79932e-07
3.79135e-07
3.78335e-07
3.77533e-07
3.76733e-07
3.75936e-07
3.75147e-07
3.74368e-07
3.73602e-07
3.72851e-07
3.72119e-07
3.71409e-07
3.70724e-07
3.70068e-07
3.69443e-07
3.68854e-07
3.68303e-07
3.67796e-07
3.67335e-07
3.66925e-07
3.66571e-07
3.66276e-07
3.66045e-07
3.65883e-07
3.65795e-07
3.65787e-07
3.65865e-07
3.66036e-07
3.66305e-07
3.66681e-07
3.6717e-07
3.67779e-07
3.68519e-07
3.69399e-07
3.70436e-07
3.71648e-07
3.73077e-07
3.92755e-07
3.927e-07
3.92589e-07
3.92422e-07
3.92198e-07
3.91919e-07
3.91586e-07
3.91201e-07
3.90766e-07
3.90284e-07
3.89758e-07
3.89189e-07
3.88581e-07
3.87935e-07
3.87256e-07
3.86545e-07
3.85805e-07
3.85039e-07
3.8425e-07
3.8344e-07
3.82611e-07
3.81768e-07
3.80911e-07
3.80044e-07
3.79169e-07
3.78288e-07
3.77405e-07
3.76521e-07
3.7564e-07
3.74764e-07
3.73895e-07
3.73036e-07
3.72189e-07
3.71358e-07
3.70545e-07
3.69754e-07
3.68985e-07
3.68244e-07
3.67532e-07
3.66852e-07
3.66209e-07
3.65604e-07
3.65042e-07
3.64526e-07
3.64059e-07
3.63644e-07
3.63285e-07
3.62985e-07
3.62747e-07
3.62577e-07
3.62479e-07
3.62458e-07
3.62516e-07
3.62662e-07
3.62895e-07
3.63227e-07
3.63661e-07
3.64214e-07
3.64905e-07
3.65788e-07
3.94483e-07
3.94419e-07
3.94291e-07
3.94099e-07
3.93841e-07
3.9352e-07
3.93137e-07
3.92696e-07
3.922e-07
3.91651e-07
3.91053e-07
3.90408e-07
3.89721e-07
3.88994e-07
3.88231e-07
3.87434e-07
3.86607e-07
3.85753e-07
3.84874e-07
3.83972e-07
3.83052e-07
3.82115e-07
3.81164e-07
3.80201e-07
3.7923e-07
3.78251e-07
3.77268e-07
3.76283e-07
3.75298e-07
3.74315e-07
3.73338e-07
3.72367e-07
3.71406e-07
3.70456e-07
3.69521e-07
3.68601e-07
3.677e-07
3.6682e-07
3.65963e-07
3.65132e-07
3.64329e-07
3.63556e-07
3.62816e-07
3.6211e-07
3.61442e-07
3.60814e-07
3.60228e-07
3.59687e-07
3.5919e-07
3.5874e-07
3.58338e-07
3.57989e-07
3.57692e-07
3.57453e-07
3.5727e-07
3.5715e-07
3.57091e-07
3.57115e-07
3.57235e-07
3.57525e-07
3.96684e-07
3.96609e-07
3.96457e-07
3.96229e-07
3.95924e-07
3.95546e-07
3.95096e-07
3.94579e-07
3.94e-07
3.93361e-07
3.92669e-07
3.91926e-07
3.91138e-07
3.90307e-07
3.89437e-07
3.88533e-07
3.87597e-07
3.86633e-07
3.85643e-07
3.84632e-07
3.836e-07
3.82551e-07
3.81487e-07
3.80411e-07
3.79325e-07
3.78231e-07
3.77131e-07
3.76027e-07
3.74922e-07
3.73817e-07
3.72714e-07
3.71615e-07
3.70522e-07
3.69437e-07
3.68361e-07
3.67297e-07
3.66247e-07
3.65211e-07
3.64193e-07
3.63192e-07
3.62212e-07
3.61254e-07
3.60318e-07
3.59407e-07
3.58522e-07
3.57665e-07
3.56835e-07
3.56034e-07
3.55261e-07
3.54514e-07
3.53792e-07
3.53098e-07
3.52429e-07
3.51789e-07
3.51171e-07
3.50582e-07
3.50017e-07
3.49496e-07
3.49032e-07
3.48712e-07
3.99448e-07
3.99356e-07
3.9917e-07
3.98891e-07
3.9852e-07
3.98061e-07
3.97518e-07
3.96898e-07
3.96207e-07
3.95452e-07
3.94637e-07
3.93768e-07
3.92851e-07
3.9189e-07
3.9089e-07
3.89854e-07
3.88786e-07
3.8769e-07
3.86569e-07
3.85426e-07
3.84263e-07
3.83083e-07
3.81888e-07
3.80681e-07
3.79463e-07
3.78237e-07
3.77004e-07
3.75765e-07
3.74524e-07
3.7328e-07
3.72037e-07
3.70794e-07
3.69555e-07
3.68319e-07
3.6709e-07
3.65867e-07
3.64652e-07
3.63447e-07
3.62252e-07
3.61069e-07
3.59899e-07
3.58741e-07
3.57598e-07
3.56468e-07
3.55352e-07
3.54251e-07
3.53162e-07
3.52087e-07
3.51024e-07
3.49975e-07
3.48935e-07
3.47906e-07
3.46874e-07
3.4584e-07
3.44794e-07
3.43746e-07
3.42683e-07
3.41634e-07
3.40606e-07
3.39701e-07
4.02899e-07
4.0278e-07
4.02543e-07
4.02187e-07
4.01716e-07
4.01138e-07
4.00462e-07
3.99698e-07
3.98855e-07
3.97943e-07
3.96971e-07
3.95944e-07
3.94868e-07
3.93749e-07
3.92591e-07
3.91399e-07
3.90177e-07
3.88928e-07
3.87656e-07
3.86363e-07
3.85052e-07
3.83725e-07
3.82384e-07
3.81032e-07
3.79668e-07
3.78296e-07
3.76917e-07
3.75531e-07
3.74141e-07
3.72748e-07
3.71352e-07
3.69955e-07
3.68557e-07
3.67161e-07
3.65766e-07
3.64375e-07
3.62986e-07
3.61602e-07
3.60223e-07
3.5885e-07
3.57482e-07
3.5612e-07
3.54764e-07
3.53415e-07
3.52072e-07
3.50735e-07
3.49401e-07
3.48073e-07
3.46744e-07
3.45414e-07
3.44071e-07
3.42712e-07
3.41326e-07
3.39915e-07
3.3847e-07
3.37001e-07
3.35488e-07
3.33955e-07
3.324e-07
3.30937e-07
4.07245e-07
4.07083e-07
4.06758e-07
4.06273e-07
4.0564e-07
4.04874e-07
4.03993e-07
4.03015e-07
4.01956e-07
4.00828e-07
3.99642e-07
3.98404e-07
3.97122e-07
3.95802e-07
3.94448e-07
3.93065e-07
3.91658e-07
3.9023e-07
3.88783e-07
3.87319e-07
3.85842e-07
3.84351e-07
3.8285e-07
3.81338e-07
3.79817e-07
3.78288e-07
3.76752e-07
3.7521e-07
3.73663e-07
3.7211e-07
3.70554e-07
3.68994e-07
3.67431e-07
3.65866e-07
3.64299e-07
3.62731e-07
3.61163e-07
3.59593e-07
3.58024e-07
3.56454e-07
3.54884e-07
3.53314e-07
3.51742e-07
3.5017e-07
3.48593e-07
3.47012e-07
3.45422e-07
3.43824e-07
3.4221e-07
3.40582e-07
3.38933e-07
3.37266e-07
3.35572e-07
3.33858e-07
3.32099e-07
3.30298e-07
3.28421e-07
3.26489e-07
3.24499e-07
3.22577e-07
4.12765e-07
4.12551e-07
4.1212e-07
4.11474e-07
4.1063e-07
4.09616e-07
4.08465e-07
4.07208e-07
4.05869e-07
4.04464e-07
4.03008e-07
4.01507e-07
3.9997e-07
3.98404e-07
3.96813e-07
3.95203e-07
3.93578e-07
3.9194e-07
3.90291e-07
3.88633e-07
3.86966e-07
3.85291e-07
3.8361e-07
3.81921e-07
3.80226e-07
3.78525e-07
3.76818e-07
3.75105e-07
3.73387e-07
3.71663e-07
3.69934e-07
3.682e-07
3.66461e-07
3.64718e-07
3.6297e-07
3.61218e-07
3.59462e-07
3.57701e-07
3.55937e-07
3.54169e-07
3.52397e-07
3.50621e-07
3.4884e-07
3.47054e-07
3.45263e-07
3.43464e-07
3.41659e-07
3.39844e-07
3.38018e-07
3.36178e-07
3.34319e-07
3.32435e-07
3.30513e-07
3.28545e-07
3.2651e-07
3.24399e-07
3.22198e-07
3.19919e-07
3.17564e-07
3.15231e-07
4.19465e-07
4.19032e-07
4.18246e-07
4.17155e-07
4.1583e-07
4.14342e-07
4.12747e-07
4.11086e-07
4.09378e-07
4.07635e-07
4.05864e-07
4.04069e-07
4.02257e-07
4.00435e-07
3.98606e-07
3.96774e-07
3.94942e-07
3.93107e-07
3.91272e-07
3.89434e-07
3.87594e-07
3.85751e-07
3.83904e-07
3.82053e-07
3.80197e-07
3.78335e-07
3.76468e-07
3.74593e-07
3.72712e-07
3.70822e-07
3.68926e-07
3.67021e-07
3.65108e-07
3.63187e-07
3.61257e-07
3.59319e-07
3.57373e-07
3.55418e-07
3.53456e-07
3.51483e-07
3.49504e-07
3.47513e-07
3.45516e-07
3.43506e-07
3.41489e-07
3.39456e-07
3.37417e-07
3.35356e-07
3.33288e-07
3.31192e-07
3.29089e-07
3.26948e-07
3.24803e-07
3.22609e-07
3.20417e-07
3.18163e-07
3.15919e-07
3.13595e-07
3.11297e-07
3.08919e-07
4.312e-07
4.30449e-07
4.29036e-07
4.27084e-07
4.24799e-07
4.22379e-07
4.19949e-07
4.17559e-07
4.15212e-07
4.12897e-07
4.10603e-07
4.08331e-07
4.06085e-07
4.0387e-07
4.01689e-07
3.9954e-07
3.97418e-07
3.95318e-07
3.93236e-07
3.91167e-07
3.8911e-07
3.8706e-07
3.85015e-07
3.82973e-07
3.80931e-07
3.78888e-07
3.76841e-07
3.74789e-07
3.72731e-07
3.70665e-07
3.68591e-07
3.66506e-07
3.64413e-07
3.62309e-07
3.60195e-07
3.58068e-07
3.55932e-07
3.53783e-07
3.51626e-07
3.49453e-07
3.47274e-07
3.45078e-07
3.42879e-07
3.40658e-07
3.3844e-07
3.36195e-07
3.33961e-07
3.31692e-07
3.29448e-07
3.27157e-07
3.24916e-07
3.22609e-07
3.20392e-07
3.18078e-07
3.1592e-07
3.13614e-07
3.11567e-07
3.09274e-07
3.07378e-07
3.05005e-07
4.39941e-07
4.38213e-07
4.35568e-07
4.32443e-07
4.29226e-07
4.26132e-07
4.23208e-07
4.20421e-07
4.1772e-07
4.15073e-07
4.12475e-07
4.09931e-07
4.07449e-07
4.05027e-07
4.0266e-07
4.00339e-07
3.98054e-07
3.95797e-07
3.93562e-07
3.91345e-07
3.89141e-07
3.86946e-07
3.84757e-07
3.8257e-07
3.80382e-07
3.7819e-07
3.75993e-07
3.73788e-07
3.71573e-07
3.69349e-07
3.67113e-07
3.64864e-07
3.62602e-07
3.60327e-07
3.58039e-07
3.55736e-07
3.53422e-07
3.51091e-07
3.4875e-07
3.46392e-07
3.44027e-07
3.41641e-07
3.39253e-07
3.36838e-07
3.34429e-07
3.31985e-07
3.29559e-07
3.2708e-07
3.24645e-07
3.22127e-07
3.19704e-07
3.1715e-07
3.14792e-07
3.1222e-07
3.10061e-07
3.07539e-07
3.05914e-07
3.03521e-07
3.03039e-07
3.00358e-07
4.87984e-07
4.73861e-07
4.60094e-07
4.49517e-07
4.42094e-07
4.36703e-07
4.32251e-07
4.28172e-07
4.24296e-07
4.20632e-07
4.17215e-07
4.1405e-07
4.11104e-07
4.08327e-07
4.05672e-07
4.03106e-07
4.00607e-07
3.98162e-07
3.95761e-07
3.93394e-07
3.91054e-07
3.88732e-07
3.86422e-07
3.84118e-07
3.81817e-07
3.79513e-07
3.77204e-07
3.74888e-07
3.72563e-07
3.70226e-07
3.67877e-07
3.65515e-07
3.63139e-07
3.60748e-07
3.58343e-07
3.55924e-07
3.5349e-07
3.51043e-07
3.48582e-07
3.46108e-07
3.43622e-07
3.41123e-07
3.38613e-07
3.3609e-07
3.33555e-07
3.31007e-07
3.28447e-07
3.2587e-07
3.23281e-07
3.20664e-07
3.1804e-07
3.15359e-07
3.12702e-07
3.09895e-07
3.07243e-07
3.04105e-07
3.01742e-07
2.97329e-07
2.97016e-07
2.86411e-07
2.92812e-07
2.9139e-07
2.86522e-07
2.80423e-07
2.7448e-07
2.69585e-07
2.66224e-07
2.64503e-07
2.64202e-07
2.64836e-07
2.65805e-07
2.66628e-07
2.67041e-07
2.67095e-07
2.6709e-07
3.0194e-07
2.98179e-07
2.91804e-07
2.85776e-07
2.81315e-07
2.78594e-07
2.77391e-07
2.77326e-07
2.77968e-07
2.78764e-07
2.79277e-07
2.7941e-07
2.79408e-07
2.79669e-07
2.80519e-07
2.82157e-07
2.84518e-07
2.87463e-07
2.90665e-07
2.93753e-07
2.96725e-07
2.99805e-07
3.02792e-07
3.04789e-07
3.04359e-07
3.00187e-07
2.88127e-07
2.5949e-07
2.25557e-07
4.82058e-08
3.03158e-07
2.9984e-07
2.95986e-07
2.92675e-07
2.90445e-07
2.89212e-07
2.88544e-07
2.8801e-07
2.87414e-07
2.86927e-07
2.87007e-07
2.88029e-07
2.90027e-07
2.92744e-07
2.95868e-07
2.99234e-07
3.02786e-07
3.06446e-07
3.10262e-07
3.14411e-07
3.1927e-07
3.24771e-07
3.30237e-07
3.34862e-07
3.37871e-07
3.38035e-07
3.31349e-07
3.13713e-07
2.80618e-07
1.401e-07
3.06735e-07
3.04576e-07
3.02727e-07
3.01289e-07
3.0031e-07
2.99734e-07
2.99427e-07
2.99321e-07
2.99512e-07
3.00268e-07
3.01791e-07
3.04118e-07
3.07114e-07
3.10495e-07
3.13985e-07
3.17487e-07
3.21178e-07
3.2541e-07
3.30547e-07
3.36822e-07
3.44083e-07
3.51804e-07
3.59385e-07
3.66675e-07
3.73296e-07
3.77917e-07
3.77243e-07
3.67971e-07
3.39538e-07
2.31944e-07
3.13123e-07
3.11638e-07
3.10813e-07
3.10414e-07
3.10285e-07
3.10391e-07
3.10776e-07
3.11519e-07
3.12715e-07
3.14415e-07
3.16586e-07
3.19111e-07
3.21884e-07
3.2494e-07
3.28514e-07
3.32974e-07
3.38578e-07
3.45326e-07
3.53044e-07
3.61541e-07
3.70495e-07
3.79741e-07
3.89488e-07
3.99887e-07
4.10351e-07
4.19434e-07
4.24653e-07
4.22707e-07
4.0202e-07
3.23203e-07
3.20932e-07
3.20037e-07
3.19911e-07
3.20276e-07
3.20923e-07
3.2179e-07
3.22922e-07
3.24401e-07
3.26288e-07
3.28599e-07
3.3133e-07
3.34493e-07
3.38166e-07
3.42534e-07
3.4779e-07
3.54021e-07
3.61217e-07
3.69227e-07
3.77848e-07
3.87026e-07
3.96992e-07
4.08195e-07
4.20914e-07
4.34798e-07
4.48929e-07
4.62242e-07
4.73003e-07
4.77966e-07
4.66243e-07
4.11386e-07
3.29782e-07
3.29444e-07
3.29915e-07
3.30917e-07
3.32229e-07
3.33768e-07
3.35563e-07
3.3769e-07
3.40225e-07
3.43226e-07
3.46744e-07
3.50841e-07
3.55588e-07
3.61058e-07
3.67293e-07
3.74288e-07
3.82005e-07
3.90503e-07
4.00018e-07
4.10935e-07
4.23571e-07
4.37949e-07
4.53784e-07
4.70543e-07
4.87815e-07
5.0523e-07
5.21382e-07
5.32982e-07
5.30632e-07
4.95736e-07
3.3913e-07
3.3936e-07
3.4038e-07
3.41939e-07
3.43833e-07
3.4598e-07
3.48402e-07
3.51176e-07
3.54391e-07
3.58119e-07
3.62423e-07
3.67356e-07
3.7297e-07
3.79312e-07
3.86439e-07
3.94432e-07
4.03421e-07
4.13624e-07
4.25262e-07
4.38447e-07
4.53185e-07
4.6934e-07
4.86792e-07
5.05672e-07
5.26188e-07
5.47908e-07
5.69194e-07
5.86928e-07
5.933e-07
5.74403e-07
3.48733e-07
3.49517e-07
3.51053e-07
3.53122e-07
3.55546e-07
3.58257e-07
3.6128e-07
3.64691e-07
3.68578e-07
3.73016e-07
3.78072e-07
3.83801e-07
3.90266e-07
3.97539e-07
4.05711e-07
4.14893e-07
4.25213e-07
4.36804e-07
4.49782e-07
4.6423e-07
4.80197e-07
4.97833e-07
5.17486e-07
5.39472e-07
5.63709e-07
5.89429e-07
6.15124e-07
6.38266e-07
6.52552e-07
6.46472e-07
3.58155e-07
3.59475e-07
3.61483e-07
3.64006e-07
3.66904e-07
3.70129e-07
3.73709e-07
3.77716e-07
3.82234e-07
3.87339e-07
3.93099e-07
3.99578e-07
4.06849e-07
4.14993e-07
4.24109e-07
4.34308e-07
4.45712e-07
4.58452e-07
4.72677e-07
4.88564e-07
5.06346e-07
5.26288e-07
5.48581e-07
5.73216e-07
5.99985e-07
6.28426e-07
6.57731e-07
6.85733e-07
7.06843e-07
7.10495e-07
3.67005e-07
3.68824e-07
3.71255e-07
3.74179e-07
3.77499e-07
3.81186e-07
3.85272e-07
3.89825e-07
3.94922e-07
4.00638e-07
4.07044e-07
4.14212e-07
4.2222e-07
4.31159e-07
4.41134e-07
4.52265e-07
4.6469e-07
4.78564e-07
4.94065e-07
5.11388e-07
5.30741e-07
5.52316e-07
5.76275e-07
6.0269e-07
6.31578e-07
6.62788e-07
6.95687e-07
7.28014e-07
7.5476e-07
7.65534e-07
3.74828e-07
3.77087e-07
3.79879e-07
3.8314e-07
3.86814e-07
3.90892e-07
3.95411e-07
4.00432e-07
4.06026e-07
4.12266e-07
4.19227e-07
4.26983e-07
4.35621e-07
4.45238e-07
4.55944e-07
4.67869e-07
4.81157e-07
4.95972e-07
5.12498e-07
5.30932e-07
5.5149e-07
5.74391e-07
5.99868e-07
6.2811e-07
6.59231e-07
6.92998e-07
7.28667e-07
7.6405e-07
7.94956e-07
8.10542e-07
3.81184e-07
3.83801e-07
3.86881e-07
3.90404e-07
3.94355e-07
3.98744e-07
4.03607e-07
4.09001e-07
4.14992e-07
4.21652e-07
4.29055e-07
4.37282e-07
4.46423e-07
4.56581e-07
4.67872e-07
4.80428e-07
4.94402e-07
5.09964e-07
5.27305e-07
5.46636e-07
5.68192e-07
5.92214e-07
6.18948e-07
6.4858e-07
6.81208e-07
7.16613e-07
7.54169e-07
7.91848e-07
8.25972e-07
8.4498e-07
3.85676e-07
3.88546e-07
3.91824e-07
3.95528e-07
3.9967e-07
4.04273e-07
4.09376e-07
4.1503e-07
4.21299e-07
4.2825e-07
4.35961e-07
4.44515e-07
4.54005e-07
4.64538e-07
4.76232e-07
4.89225e-07
5.03672e-07
5.19747e-07
5.37648e-07
5.57594e-07
5.79824e-07
6.04586e-07
6.32133e-07
6.62661e-07
6.96297e-07
7.32862e-07
7.71788e-07
8.11075e-07
8.47284e-07
8.68422e-07
3.88e-07
3.91002e-07
3.94383e-07
3.98179e-07
4.02418e-07
4.07131e-07
4.12356e-07
4.18145e-07
4.24555e-07
4.31656e-07
4.39525e-07
4.48247e-07
4.57916e-07
4.68641e-07
4.80543e-07
4.9376e-07
5.08449e-07
5.24788e-07
5.42977e-07
5.63236e-07
5.8581e-07
6.1095e-07
6.38916e-07
6.69912e-07
7.04074e-07
7.41225e-07
7.80811e-07
8.20856e-07
8.5806e-07
8.80235e-07
3.87995e-07
3.90997e-07
3.94378e-07
3.98174e-07
4.02413e-07
4.07125e-07
4.12351e-07
4.18139e-07
4.24549e-07
4.31651e-07
4.39519e-07
4.48241e-07
4.57911e-07
4.68635e-07
4.80537e-07
4.93754e-07
5.08443e-07
5.24782e-07
5.4297e-07
5.63229e-07
5.85803e-07
6.10943e-07
6.38909e-07
6.69906e-07
7.04067e-07
7.41219e-07
7.80805e-07
8.2085e-07
8.58055e-07
8.80229e-07
3.85661e-07
3.8853e-07
3.91809e-07
3.95513e-07
3.99655e-07
4.04257e-07
4.0936e-07
4.15014e-07
4.21282e-07
4.28233e-07
4.35943e-07
4.44497e-07
4.53987e-07
4.64519e-07
4.76214e-07
4.89206e-07
5.03653e-07
5.19728e-07
5.37629e-07
5.57574e-07
5.79804e-07
6.04566e-07
6.32113e-07
6.62642e-07
6.96278e-07
7.32843e-07
7.7177e-07
8.11056e-07
8.47266e-07
8.68405e-07
3.8116e-07
3.83776e-07
3.86855e-07
3.90378e-07
3.94329e-07
3.98717e-07
4.0358e-07
4.08974e-07
4.14965e-07
4.21624e-07
4.29026e-07
4.37253e-07
4.46394e-07
4.56551e-07
4.67841e-07
4.80397e-07
4.94371e-07
5.09932e-07
5.27273e-07
5.46605e-07
5.6816e-07
5.92182e-07
6.18915e-07
6.48548e-07
6.81176e-07
7.16581e-07
7.54138e-07
7.91817e-07
8.25943e-07
8.44952e-07
3.74794e-07
3.77053e-07
3.79845e-07
3.83105e-07
3.86778e-07
3.90856e-07
3.95374e-07
4.00394e-07
4.05988e-07
4.12227e-07
4.19187e-07
4.26943e-07
4.35581e-07
4.45196e-07
4.55902e-07
4.67826e-07
4.81114e-07
4.95928e-07
5.12454e-07
5.30887e-07
5.51445e-07
5.74346e-07
5.99823e-07
6.28065e-07
6.59186e-07
6.92954e-07
7.28623e-07
7.64007e-07
7.94914e-07
8.10502e-07
3.66963e-07
3.68781e-07
3.71211e-07
3.74135e-07
3.77454e-07
3.8114e-07
3.85225e-07
3.89777e-07
3.94873e-07
4.00589e-07
4.06994e-07
4.14161e-07
4.22168e-07
4.31106e-07
4.4108e-07
4.52211e-07
4.64635e-07
4.78509e-07
4.94009e-07
5.11331e-07
5.30684e-07
5.52259e-07
5.76217e-07
6.02632e-07
6.3152e-07
6.62731e-07
6.95631e-07
7.27959e-07
7.54706e-07
7.65482e-07
3.58105e-07
3.59424e-07
3.61431e-07
3.63953e-07
3.6685e-07
3.70074e-07
3.73653e-07
3.77659e-07
3.82176e-07
3.8728e-07
3.93039e-07
3.99517e-07
4.06787e-07
4.1493e-07
4.24045e-07
4.34243e-07
4.45646e-07
4.58385e-07
4.7261e-07
4.88496e-07
5.06277e-07
5.26218e-07
5.48511e-07
5.73145e-07
5.99915e-07
6.28356e-07
6.57662e-07
6.85665e-07
7.06776e-07
7.10431e-07
3.48676e-07
3.49459e-07
3.50994e-07
3.53062e-07
3.55485e-07
3.58194e-07
3.61216e-07
3.64626e-07
3.68511e-07
3.72948e-07
3.78002e-07
3.83731e-07
3.90195e-07
3.97466e-07
4.05637e-07
4.14818e-07
4.25137e-07
4.36726e-07
4.49704e-07
4.6415e-07
4.80116e-07
4.97751e-07
5.17404e-07
5.3939e-07
5.63626e-07
5.89346e-07
6.15042e-07
6.38185e-07
6.52473e-07
6.46395e-07
3.39067e-07
3.39295e-07