/*--------------------------------*- C++ -*----------------------------------*\
| =========                 |                                                 |
| \\      /  F ield         | OpenFOAM: The Open Source CFD Toolbox           |
|  \\    /   O peration     | Version:  2312                                  |
|   \\  /    A nd           | Website:  www.openfoam.com                      |
|    \\/     M anipulation  |                                                 |
\*---------------------------------------------------------------------------*/
FoamFile
{
    version     2.0;
    format      ascii;
    arch        "LSB;label=32;scalar=64";
    class       volScalarField;
    location    "167000";
    object      p;
}
// * * * * * * * * * * * * * * * * * * * * * * * * * * * * * * * * * * * * * //

dimensions      [0 2 -2 0 0 0 0];

internalField   nonuniform List<scalar> 
2685
(
-1.08352e-08
-2.8595e-08
-3.31356e-08
-3.90482e-08
-4.65127e-08
-5.36021e-08
-5.95049e-08
-6.41965e-08
-6.78235e-08
-7.04161e-08
-7.18959e-08
-7.22103e-08
-7.13563e-08
-6.93477e-08
-6.6225e-08
-6.20551e-08
-5.69249e-08
-5.09361e-08
-4.41952e-08
-3.67907e-08
-2.87995e-08
-2.03014e-08
-1.13756e-08
-2.10146e-09
7.44275e-09
1.71807e-08
2.70422e-08
3.69431e-08
4.67792e-08
5.64578e-08
6.59027e-08
7.5067e-08
8.40007e-08
9.28399e-08
1.01792e-07
1.11083e-07
1.20924e-07
1.31455e-07
1.4268e-07
1.54602e-07
1.67158e-07
1.80219e-07
1.9362e-07
2.07172e-07
2.2066e-07
2.33892e-07
2.46676e-07
2.5857e-07
2.69256e-07
2.78393e-07
2.85694e-07
2.91118e-07
2.95e-07
2.97883e-07
3.00235e-07
3.02362e-07
3.04381e-07
3.06177e-07
3.07343e-07
3.07037e-07
3.0494e-07
3.00571e-07
2.93748e-07
2.83606e-07
2.70745e-07
2.55318e-07
2.37426e-07
2.17625e-07
1.95696e-07
1.71823e-07
1.463e-07
1.19471e-07
9.17195e-08
6.34399e-08
3.49946e-08
6.63791e-09
-2.10667e-08
-4.74656e-08
-7.20298e-08
-9.4651e-08
-1.14226e-07
-1.30788e-07
-1.44097e-07
-1.54023e-07
-1.6055e-07
-1.63753e-07
-1.63684e-07
-1.6102e-07
-1.5606e-07
-1.49168e-07
-6.05707e-08
-5.54686e-08
-5.87581e-08
-6.33014e-08
-6.70948e-08
-6.99167e-08
-7.2066e-08
-7.37521e-08
-7.4947e-08
-7.54841e-08
-7.5182e-08
-7.39261e-08
-7.17315e-08
-6.86757e-08
-6.48144e-08
-6.01845e-08
-5.48226e-08
-4.87711e-08
-4.20744e-08
-3.4782e-08
-2.69454e-08
-1.86125e-08
-9.83928e-09
-6.85636e-10
8.77637e-09
1.8469e-08
2.83118e-08
3.82124e-08
4.80574e-08
5.77202e-08
6.70493e-08
7.58757e-08
8.41544e-08
9.20876e-08
1.0002e-07
1.08308e-07
1.17271e-07
1.27161e-07
1.38049e-07
1.49812e-07
1.62366e-07
1.7563e-07
1.89462e-07
2.03714e-07
2.18262e-07
2.32976e-07
2.47571e-07
2.61695e-07
2.75049e-07
2.8719e-07
2.97847e-07
3.06209e-07
3.12341e-07
3.16455e-07
3.18781e-07
3.19563e-07
3.19039e-07
3.17309e-07
3.14702e-07
3.11079e-07
3.05625e-07
2.97893e-07
2.87854e-07
2.77012e-07
2.65542e-07
2.53335e-07
2.39793e-07
2.23804e-07
2.04477e-07
1.82228e-07
1.56984e-07
1.28921e-07
9.85288e-08
6.65242e-08
3.37944e-08
1.42408e-09
-2.96414e-08
-5.88349e-08
-8.56637e-08
-1.09639e-07
-1.30306e-07
-1.47386e-07
-1.60722e-07
-1.7028e-07
-1.76174e-07
-1.78689e-07
-1.77314e-07
-1.7312e-07
-1.66514e-07
-1.57926e-07
-8.38693e-08
-7.95381e-08
-8.16702e-08
-8.48384e-08
-8.68646e-08
-8.74499e-08
-8.69875e-08
-8.59356e-08
-8.45201e-08
-8.27553e-08
-8.05247e-08
-7.76746e-08
-7.41054e-08
-6.97977e-08
-6.47848e-08
-5.91184e-08
-5.28525e-08
-4.60403e-08
-3.87318e-08
-3.09714e-08
-2.28039e-08
-1.42873e-08
-5.49258e-09
3.5186e-09
1.27039e-08
2.20159e-08
3.14116e-08
4.08592e-08
5.03291e-08
5.97997e-08
6.92652e-08
7.8724e-08
8.81435e-08
9.76265e-08
1.07288e-07
1.17213e-07
1.27476e-07
1.38172e-07
1.49351e-07
1.60983e-07
1.73012e-07
1.85389e-07
1.98033e-07
2.10822e-07
2.23625e-07
2.3629e-07
2.48498e-07
2.59948e-07
2.7036e-07
2.79475e-07
2.86617e-07
2.91827e-07
2.95101e-07
2.98024e-07
3.00601e-07
3.03437e-07
3.07078e-07
3.12085e-07
3.18255e-07
3.24682e-07
3.29652e-07
3.30918e-07
3.27127e-07
3.18129e-07
3.04353e-07
2.8605e-07
2.63334e-07
2.3738e-07
2.09239e-07
1.78704e-07
1.46546e-07
1.13519e-07
8.03621e-08
4.7656e-08
1.56826e-08
-1.56948e-08
-4.64912e-08
-7.5765e-08
-1.02975e-07
-1.27643e-07
-1.4922e-07
-1.6719e-07
-1.81129e-07
-1.90756e-07
-1.95968e-07
-1.96798e-07
-1.94354e-07
-1.88614e-07
-1.80034e-07
-1.69208e-07
-1.3063e-07
-1.25354e-07
-1.23711e-07
-1.23059e-07
-1.21771e-07
-1.19261e-07
-1.15566e-07
-1.11031e-07
-1.0599e-07
-1.00623e-07
-9.49452e-08
-8.88791e-08
-8.23475e-08
-7.53287e-08
-6.78575e-08
-5.99957e-08
-5.18079e-08
-4.33533e-08
-3.46837e-08
-2.58387e-08
-1.68489e-08
-7.74475e-09
1.44471e-09
1.07002e-08
2.00185e-08
2.9402e-08
3.88375e-08
4.82958e-08
5.77457e-08
6.71598e-08
7.65053e-08
8.57716e-08
9.5032e-08
1.04302e-07
1.13532e-07
1.22836e-07
1.32364e-07
1.42215e-07
1.52432e-07
1.63016e-07
1.73938e-07
1.85155e-07
1.96604e-07
2.08201e-07
2.1986e-07
2.31436e-07
2.42742e-07
2.53708e-07
2.64274e-07
2.74395e-07
2.83757e-07
2.9211e-07
2.99544e-07
3.05277e-07
3.10066e-07
3.13907e-07
3.17138e-07
3.19017e-07
3.19582e-07
3.17974e-07
3.13696e-07
3.06145e-07
2.95461e-07
2.82857e-07
2.69809e-07
2.56554e-07
2.42906e-07
2.2803e-07
2.11215e-07
1.90264e-07
1.63598e-07
1.3144e-07
9.49448e-08
5.56556e-08
1.50939e-08
-2.52239e-08
-6.37413e-08
-9.95236e-08
-1.31795e-07
-1.59833e-07
-1.83107e-07
-2.01315e-07
-2.14286e-07
-2.21934e-07
-2.2448e-07
-2.22364e-07
-2.16274e-07
-2.07172e-07
-1.95483e-07
-1.81738e-07
-1.85496e-07
-1.78593e-07
-1.73339e-07
-1.69047e-07
-1.64706e-07
-1.5948e-07
-1.52865e-07
-1.4488e-07
-1.35951e-07
-1.2651e-07
-1.16757e-07
-1.06691e-07
-9.62682e-08
-8.55169e-08
-7.45495e-08
-6.35059e-08
-5.24969e-08
-4.15878e-08
-3.08139e-08
-2.01927e-08
-9.72615e-09
5.88139e-10
1.07484e-08
2.0749e-08
3.05872e-08
4.02646e-08
4.97809e-08
5.91344e-08
6.83269e-08
7.73671e-08
8.62706e-08
9.50688e-08
1.03849e-07
1.12637e-07
1.21395e-07
1.30329e-07
1.39431e-07
1.4881e-07
1.58513e-07
1.68444e-07
1.78535e-07
1.88745e-07
1.99025e-07
2.09328e-07
2.19595e-07
2.29742e-07
2.39695e-07
2.49354e-07
2.58541e-07
2.67032e-07
2.74644e-07
2.81298e-07
2.86939e-07
2.91573e-07
2.95264e-07
2.98091e-07
2.9989e-07
3.01143e-07
3.00902e-07
2.99037e-07
2.96581e-07
2.92104e-07
2.85476e-07
2.76803e-07
2.65858e-07
2.52467e-07
2.36309e-07
2.16459e-07
1.91542e-07
1.6156e-07
1.2787e-07
9.18353e-08
5.47201e-08
1.7733e-08
-1.84051e-08
-5.33167e-08
-8.65703e-08
-1.17828e-07
-1.46817e-07
-1.73234e-07
-1.96349e-07
-2.15331e-07
-2.29459e-07
-2.38285e-07
-2.41627e-07
-2.39723e-07
-2.33411e-07
-2.22846e-07
-2.09255e-07
-1.93122e-07
-2.27433e-07
-2.23019e-07
-2.19081e-07
-2.15046e-07
-2.10087e-07
-2.0343e-07
-1.94738e-07
-1.84198e-07
-1.72252e-07
-1.59307e-07
-1.45664e-07
-1.3157e-07
-1.17221e-07
-1.02733e-07
-8.81658e-08
-7.3593e-08
-5.91433e-08
-4.49705e-08
-3.11984e-08
-1.78996e-08
-5.10916e-09
7.16406e-09
1.89306e-08
3.02157e-08
4.1054e-08
5.1476e-08
6.14972e-08
7.11217e-08
8.03514e-08
8.91925e-08
9.7668e-08
1.05831e-07
1.13723e-07
1.21421e-07
1.29139e-07
1.36777e-07
1.44499e-07
1.52391e-07
1.60541e-07
1.6902e-07
1.77803e-07
1.86808e-07
1.96051e-07
2.0544e-07
2.14787e-07
2.23963e-07
2.32853e-07
2.41307e-07
2.49239e-07
2.56634e-07
2.63478e-07
2.69722e-07
2.75269e-07
2.79962e-07
2.83687e-07
2.86377e-07
2.8795e-07
2.88309e-07
2.87244e-07
2.84826e-07
2.79702e-07
2.72723e-07
2.63083e-07
2.50975e-07
2.36475e-07
2.19842e-07
2.00372e-07
1.77484e-07
1.51776e-07
1.24604e-07
9.61875e-08
6.61338e-08
3.46529e-08
2.35887e-09
-3.02366e-08
-6.2656e-08
-9.43376e-08
-1.24732e-07
-1.53189e-07
-1.78819e-07
-2.00593e-07
-2.17574e-07
-2.29139e-07
-2.35127e-07
-2.35823e-07
-2.31827e-07
-2.2391e-07
-2.12771e-07
-1.98838e-07
-1.82914e-07
-2.75556e-07
-2.72012e-07
-2.69823e-07
-2.66377e-07
-2.60381e-07
-2.51388e-07
-2.39673e-07
-2.25968e-07
-2.10909e-07
-1.94844e-07
-1.77951e-07
-1.6039e-07
-1.42347e-07
-1.24027e-07
-1.05666e-07
-8.75224e-08
-6.98321e-08
-5.27487e-08
-3.6343e-08
-2.0638e-08
-5.62832e-09
8.70328e-09
2.23353e-08
3.51855e-08
4.71663e-08
5.82482e-08
6.84665e-08
7.78869e-08
8.65742e-08
9.45953e-08
1.02052e-07
1.09098e-07
1.15939e-07
1.2277e-07
1.29763e-07
1.37137e-07
1.4486e-07
1.53107e-07
1.61706e-07
1.70093e-07
1.78002e-07
1.85174e-07
1.92127e-07
1.99427e-07
2.07259e-07
2.15445e-07
2.23688e-07
2.31755e-07
2.39443e-07
2.46573e-07
2.53013e-07
2.58669e-07
2.63459e-07
2.67289e-07
2.70031e-07
2.71541e-07
2.71683e-07
2.70305e-07
2.67193e-07
2.62107e-07
2.54811e-07
2.45261e-07
2.33266e-07
2.18398e-07
2.01062e-07
1.81166e-07
1.58977e-07
1.35015e-07
1.09776e-07
8.33483e-08
5.56414e-08
2.67922e-08
-2.70361e-09
-3.22106e-08
-6.11999e-08
-8.91676e-08
-1.15502e-07
-1.39512e-07
-1.60574e-07
-1.7819e-07
-1.92001e-07
-2.01817e-07
-2.0762e-07
-2.0954e-07
-2.07797e-07
-2.02693e-07
-1.946e-07
-1.83959e-07
-1.71295e-07
-1.57298e-07
-3.71662e-07
-3.67276e-07
-3.64064e-07
-3.58825e-07
-3.49328e-07
-3.34907e-07
-3.1618e-07
-2.94289e-07
-2.70392e-07
-2.45635e-07
-2.20973e-07
-1.96881e-07
-1.73348e-07
-1.50309e-07
-1.27836e-07
-1.06051e-07
-8.50735e-08
-6.50804e-08
-4.6256e-08
-2.87026e-08
-1.23783e-08
2.79933e-09
1.68676e-08
2.98603e-08
4.18556e-08
5.29306e-08
6.3105e-08
7.24075e-08
8.09458e-08
8.88715e-08
9.63534e-08
1.03567e-07
1.1067e-07
1.17871e-07
1.25187e-07
1.318e-07
1.37285e-07
1.42333e-07
1.48821e-07
1.57706e-07
1.6784e-07
1.78016e-07
1.87175e-07
1.94982e-07
2.01746e-07
2.07786e-07
2.13386e-07
2.18814e-07
2.24207e-07
2.29551e-07
2.34725e-07
2.39552e-07
2.43832e-07
2.47356e-07
2.49915e-07
2.51295e-07
2.51271e-07
2.49604e-07
2.46023e-07
2.40226e-07
2.31895e-07
2.20773e-07
2.06659e-07
1.89392e-07
1.69066e-07
1.45934e-07
1.20407e-07
9.28613e-08
6.36557e-08
3.35262e-08
2.97633e-09
-2.7298e-08
-5.6838e-08
-8.4946e-08
-1.10919e-07
-1.34118e-07
-1.54074e-07
-1.70552e-07
-1.8346e-07
-1.92816e-07
-1.98704e-07
-2.01214e-07
-2.00437e-07
-1.96503e-07
-1.89663e-07
-1.80331e-07
-1.69039e-07
-1.56332e-07
-1.42742e-07
-1.28784e-07
-4.8949e-07
-4.88272e-07
-4.8575e-07
-4.80099e-07
-4.69501e-07
-4.5293e-07
-4.30275e-07
-4.02433e-07
-3.70919e-07
-3.37204e-07
-3.02251e-07
-2.66672e-07
-2.31292e-07
-1.97099e-07
-1.64975e-07
-1.35587e-07
-1.09236e-07
-8.57882e-08
-6.47622e-08
-4.55219e-08
-2.77355e-08
-1.14662e-08
3.22509e-09
1.64655e-08
2.84531e-08
3.94141e-08
4.9573e-08
5.90837e-08
6.81011e-08
7.67955e-08
8.53131e-08
9.36894e-08
1.01588e-07
1.08715e-07
1.15772e-07
1.23957e-07
1.33096e-07
1.41822e-07
1.48775e-07
1.52848e-07
1.54065e-07
1.53603e-07
1.53203e-07
1.54576e-07
1.56977e-07
1.60851e-07
1.65849e-07
1.71576e-07
1.7771e-07
1.8397e-07
1.90092e-07
1.95811e-07
2.00875e-07
2.05067e-07
2.08206e-07
2.10142e-07
2.10731e-07
2.09799e-07
2.07107e-07
2.02321e-07
1.95019e-07
1.84742e-07
1.71059e-07
1.53663e-07
1.32444e-07
1.07534e-07
7.93228e-08
4.84672e-08
1.57901e-08
-1.79558e-08
-5.16466e-08
-8.42748e-08
-1.15713e-07
-1.44206e-07
-1.69214e-07
-1.90231e-07
-2.06924e-07
-2.19117e-07
-2.26765e-07
-2.2993e-07
-2.28758e-07
-2.23499e-07
-2.14579e-07
-2.02618e-07
-1.88359e-07
-1.72586e-07
-1.56025e-07
-1.39292e-07
-1.22941e-07
-1.07431e-07
-5.85727e-07
-5.94686e-07
-6.00315e-07
-6.01027e-07
-5.95238e-07
-5.81761e-07
-5.60108e-07
-5.30835e-07
-4.95227e-07
-4.5474e-07
-4.10818e-07
-3.65027e-07
-3.1901e-07
-2.74197e-07
-2.31636e-07
-1.91957e-07
-1.5552e-07
-1.22654e-07
-9.36792e-08
-6.87245e-08
-4.76455e-08
-3.00594e-08
-1.51933e-08
-1.95143e-09
1.04011e-08
2.19359e-08
3.26319e-08
4.2704e-08
5.25218e-08
6.24569e-08
7.22046e-08
8.10237e-08
8.94005e-08
9.7843e-08
1.04897e-07
1.07024e-07
1.03244e-07
9.64205e-08
8.96297e-08
8.43892e-08
8.06138e-08
7.80213e-08
7.67822e-08
7.73428e-08
8.01794e-08
8.49667e-08
9.14821e-08
9.93378e-08
1.0803e-07
1.17012e-07
1.25756e-07
1.33782e-07
1.40699e-07
1.46222e-07
1.50182e-07
1.52523e-07
1.53277e-07
1.5251e-07
1.50235e-07
1.46314e-07
1.40402e-07
1.31946e-07
1.2027e-07
1.04727e-07
8.48742e-08
6.05966e-08
3.21772e-08
2.78192e-10
-3.41587e-08
-7.00424e-08
-1.06195e-07
-1.41682e-07
-1.74528e-07
-2.04323e-07
-2.30714e-07
-2.52114e-07
-2.68153e-07
-2.78548e-07
-2.83138e-07
-2.81973e-07
-2.75328e-07
-2.63744e-07
-2.48021e-07
-2.29085e-07
-2.07886e-07
-1.85406e-07
-1.62587e-07
-1.40272e-07
-1.19189e-07
-9.98673e-08
-6.57032e-07
-6.76736e-07
-6.91561e-07
-7.00017e-07
-7.00704e-07
-6.92528e-07
-6.7503e-07
-6.4859e-07
-6.14141e-07
-5.72852e-07
-5.26023e-07
-4.75081e-07
-4.21495e-07
-3.66776e-07
-3.12626e-07
-2.6098e-07
-2.13694e-07
-1.72046e-07
-1.36466e-07
-1.06657e-07
-8.16914e-08
-6.02509e-08
-4.12607e-08
-2.4308e-08
-9.30862e-09
3.78509e-09
1.53511e-08
2.63443e-08
3.73213e-08
4.80842e-08
5.8291e-08
6.6422e-08
6.90587e-08
6.49711e-08
5.60439e-08
4.4487e-08
3.12467e-08
1.72982e-08
4.19582e-09
-6.62254e-09
-1.42411e-08
-1.81741e-08
-1.82764e-08
-1.50656e-08
-8.03432e-09
1.92773e-09
1.40739e-08
2.76039e-08
4.1696e-08
5.55568e-08
6.84651e-08
7.98113e-08
8.91252e-08
9.60897e-08
1.00537e-07
1.02429e-07
1.01872e-07
9.91511e-08
9.47155e-08
8.90031e-08
8.21567e-08
7.38519e-08
6.33416e-08
4.96598e-08
3.19046e-08
9.51488e-09
-1.75525e-08
-4.87952e-08
-8.32671e-08
-1.19758e-07
-1.56938e-07
-1.93455e-07
-2.28032e-07
-2.59869e-07
-2.87125e-07
-3.09295e-07
-3.25737e-07
-3.35851e-07
-3.39468e-07
-3.36574e-07
-3.27432e-07
-3.12593e-07
-2.92819e-07
-2.69035e-07
-2.4236e-07
-2.14041e-07
-1.85261e-07
-1.57092e-07
-1.30507e-07
-1.06248e-07
-7.12015e-07
-7.38088e-07
-7.59005e-07
-7.73527e-07
-7.79667e-07
-7.76424e-07
-7.63469e-07
-7.40955e-07
-7.09367e-07
-6.69407e-07
-6.22043e-07
-5.68598e-07
-5.1077e-07
-4.50623e-07
-3.90463e-07
-3.32482e-07
-2.78361e-07
-2.29141e-07
-1.85279e-07
-1.46779e-07
-1.13393e-07
-8.46658e-08
-6.02558e-08
-4.03634e-08
-2.49008e-08
-1.2277e-08
-5.7276e-10
1.07305e-08
2.1088e-08
2.85595e-08
3.00883e-08
2.4081e-08
1.1264e-08
-6.63391e-09
-2.77086e-08
-4.98607e-08
-7.1071e-08
-8.96201e-08
-1.04219e-07
-1.14072e-07
-1.18885e-07
-1.1875e-07
-1.13704e-07
-1.04253e-07
-9.08971e-08
-7.44415e-08
-5.58445e-08
-3.61047e-08
-1.62166e-08
2.87389e-09
2.03232e-08
3.5437e-08
4.77011e-08
5.68094e-08
6.26734e-08
6.53905e-08
6.51738e-08
6.22721e-08
5.69461e-08
4.95485e-08
4.05299e-08
3.0186e-08
1.8352e-08
4.32239e-09
-1.29203e-08
-3.4289e-08
-6.02258e-08
-9.05296e-08
-1.24408e-07
-1.6066e-07
-1.97899e-07
-2.34707e-07
-2.69729e-07
-3.01733e-07
-3.29666e-07
-3.52881e-07
-3.7005e-07
-3.8093e-07
-3.84936e-07
-3.82057e-07
-3.72457e-07
-3.56543e-07
-3.35015e-07
-3.0883e-07
-2.79151e-07
-2.47245e-07
-2.14387e-07
-1.8187e-07
-1.50903e-07
-1.22412e-07
-7.38752e-07
-7.7071e-07
-7.96793e-07
-8.14861e-07
-8.25659e-07
-8.26937e-07
-8.18452e-07
-8.00257e-07
-7.72546e-07
-7.35757e-07
-6.90652e-07
-6.38386e-07
-5.80508e-07
-5.18906e-07
-4.55633e-07
-3.92709e-07
-3.32011e-07
-2.75209e-07
-2.23667e-07
-1.78416e-07
-1.40257e-07
-1.0961e-07
-8.58095e-08
-6.69459e-08
-5.11456e-08
-3.75003e-08
-2.57961e-08
-1.72077e-08
-1.47188e-08
-2.04761e-08
-3.41737e-08
-5.43719e-08
-7.9306e-08
-1.06809e-07
-1.34552e-07
-1.6044e-07
-1.82811e-07
-2.0048e-07
-2.1271e-07
-2.19182e-07
-2.19945e-07
-2.15245e-07
-2.05486e-07
-1.91072e-07
-1.72686e-07
-1.51138e-07
-1.27355e-07
-1.02347e-07
-7.71809e-08
-5.29213e-08
-3.05521e-08
-1.08883e-08
5.46093e-09
1.81218e-08
2.69876e-08
3.21602e-08
3.38349e-08
3.23704e-08
2.84075e-08
2.25923e-08
1.51477e-08
5.85144e-09
-5.6964e-09
-1.99683e-08
-3.75534e-08
-5.90916e-08
-8.49845e-08
-1.15117e-07
-1.48795e-07
-1.84882e-07
-2.22012e-07
-2.58787e-07
-2.93876e-07
-3.26061e-07
-3.54286e-07
-3.77695e-07
-3.95657e-07
-4.07127e-07
-4.11963e-07
-4.09875e-07
-4.00936e-07
-3.85478e-07
-3.64083e-07
-3.37592e-07
-3.071e-07
-2.73852e-07
-2.39172e-07
-2.04425e-07
-1.70878e-07
-1.39556e-07
-7.2296e-07
-7.56109e-07
-7.83964e-07
-8.05288e-07
-8.17527e-07
-8.21342e-07
-8.16184e-07
-8.01813e-07
-7.78224e-07
-7.45694e-07
-7.04809e-07
-6.56514e-07
-6.02122e-07
-5.43296e-07
-4.81996e-07
-4.20397e-07
-3.60736e-07
-3.05103e-07
-2.55158e-07
-2.11852e-07
-1.75303e-07
-1.44993e-07
-1.20254e-07
-1.00358e-07
-8.44493e-08
-7.27347e-08
-6.72984e-08
-7.00657e-08
-8.10564e-08
-9.92635e-08
-1.23451e-07
-1.52e-07
-1.82876e-07
-2.13903e-07
-2.43085e-07
-2.68801e-07
-2.8985e-07
-3.05405e-07
-3.14881e-07
-3.17697e-07
-3.16577e-07
-3.09297e-07
-2.96458e-07
-2.78554e-07
-2.56164e-07
-2.3005e-07
-2.01165e-07
-1.70613e-07
-1.39601e-07
-1.09407e-07
-8.12734e-08
-5.62306e-08
-3.50166e-08
-1.81478e-08
-5.87472e-09
2.05122e-09
6.29385e-09
7.46534e-09
6.01485e-09
2.54953e-09
-2.28713e-09
-8.44845e-09
-1.67263e-08
-2.82441e-08
-4.39093e-08
-6.4254e-08
-8.94263e-08
-1.19113e-07
-1.5249e-07
-1.88329e-07
-2.2521e-07
-2.61717e-07
-2.96548e-07
-3.28561e-07
-3.56751e-07
-3.80235e-07
-3.98291e-07
-4.10355e-07
-4.15989e-07
-4.14994e-07
-4.07341e-07
-3.93218e-07
-3.73125e-07
-3.47832e-07
-3.18305e-07
-2.85651e-07
-2.51123e-07
-2.16058e-07
-1.81685e-07
-1.49065e-07
-6.55163e-07
-6.84488e-07
-7.10312e-07
-7.30537e-07
-7.44119e-07
-7.50102e-07
-7.47766e-07
-7.36942e-07
-7.17546e-07
-6.89886e-07
-6.54592e-07
-6.12637e-07
-5.65309e-07
-5.14193e-07
-4.61106e-07
-4.07995e-07
-3.5676e-07
-3.09045e-07
-2.6609e-07
-2.28667e-07
-1.96993e-07
-1.7078e-07
-1.49684e-07
-1.34097e-07
-1.25231e-07
-1.23884e-07
-1.29744e-07
-1.42264e-07
-1.6115e-07
-1.85846e-07
-2.15132e-07
-2.47219e-07
-2.80085e-07
-3.11794e-07
-3.40699e-07
-3.65526e-07
-3.85361e-07
-3.99606e-07
-4.07911e-07
-4.10387e-07
-4.04587e-07
-3.92733e-07
-3.74981e-07
-3.51713e-07
-3.23618e-07
-2.91644e-07
-2.56966e-07
-2.20905e-07
-1.84792e-07
-1.49928e-07
-1.1757e-07
-8.87335e-08
-6.40078e-08
-4.36993e-08
-2.79916e-08
-1.68648e-08
-1.00397e-08
-7.00336e-09
-7.02035e-09
-9.12943e-09
-1.2315e-08
-1.60642e-08
-2.08999e-08
-2.82205e-08
-3.95767e-08
-5.60674e-08
-7.81116e-08
-1.05418e-07
-1.37054e-07
-1.71631e-07
-2.07557e-07
-2.4328e-07
-2.77423e-07
-3.08844e-07
-3.36593e-07
-3.5988e-07
-3.78043e-07
-3.90505e-07
-3.96824e-07
-3.96939e-07
-3.90679e-07
-3.78227e-07
-3.59964e-07
-3.36549e-07
-3.08851e-07
-2.77934e-07
-2.45e-07
-2.11266e-07
-1.77877e-07
-1.45944e-07
-5.35925e-07
-5.56515e-07
-5.77209e-07
-5.9497e-07
-6.09036e-07
-6.17806e-07
-6.20194e-07
-6.15544e-07
-6.03605e-07
-5.84379e-07
-5.58414e-07
-5.26696e-07
-4.90479e-07
-4.51214e-07
-4.10461e-07
-3.6978e-07
-3.30613e-07
-2.94144e-07
-2.61255e-07
-2.32552e-07
-2.08568e-07
-1.89941e-07
-1.77247e-07
-1.70617e-07
-1.69836e-07
-1.74927e-07
-1.86279e-07
-2.04176e-07
-2.28307e-07
-2.57603e-07
-2.90393e-07
-3.24704e-07
-3.58562e-07
-3.90206e-07
-4.18186e-07
-4.41371e-07
-4.58913e-07
-4.70185e-07
-4.74826e-07
-4.72704e-07
-4.63507e-07
-4.47458e-07
-4.24921e-07
-3.96563e-07
-3.63355e-07
-3.26487e-07
-2.87302e-07
-2.47277e-07
-2.07896e-07
-1.70462e-07
-1.36124e-07
-1.05889e-07
-8.03248e-08
-5.94672e-08
-4.31415e-08
-3.09363e-08
-2.20866e-08
-1.61257e-08
-1.32613e-08
-1.34442e-08
-1.55862e-08
-1.82414e-08
-2.09314e-08
-2.46278e-08
-3.11105e-08
-4.20579e-08
-5.85302e-08
-8.07684e-08
-1.08158e-07
-1.39386e-07
-1.72759e-07
-2.06538e-07
-2.39171e-07
-2.6939e-07
-2.96206e-07
-3.18852e-07
-3.36733e-07
-3.49368e-07
-3.5632e-07
-3.57332e-07
-3.52703e-07
-3.42195e-07
-3.26237e-07
-3.05364e-07
-2.80372e-07
-2.52226e-07
-2.21994e-07
-1.90789e-07
-1.59738e-07
-3.70205e-07
-3.78417e-07
-3.90175e-07
-4.02981e-07
-4.1551e-07
-4.25851e-07
-4.32887e-07
-4.35639e-07
-4.3425e-07
-4.26705e-07
-4.13798e-07
-3.96184e-07
-3.74619e-07
-3.50139e-07
-3.23885e-07
-2.97007e-07
-2.70805e-07
-2.46326e-07
-2.24495e-07
-2.06084e-07
-1.917e-07
-1.81751e-07
-1.76543e-07
-1.7649e-07
-1.8224e-07
-1.94464e-07
-2.13474e-07
-2.38932e-07
-2.69781e-07
-3.04393e-07
-3.40848e-07
-3.77193e-07
-4.1164e-07
-4.42679e-07
-4.69102e-07
-4.89972e-07
-5.04629e-07
-5.1254e-07
-5.13356e-07
-5.06978e-07
-4.93466e-07
-4.73138e-07
-4.46523e-07
-4.14362e-07
-3.7764e-07
-3.37599e-07
-2.95581e-07
-2.52971e-07
-2.11289e-07
-1.72003e-07
-1.36225e-07
-1.04846e-07
-7.86257e-08
-5.79044e-08
-4.24031e-08
-3.12764e-08
-2.33973e-08
-1.7899e-08
-1.45716e-08
-1.35733e-08
-1.4581e-08
-1.64847e-08
-1.82157e-08
-1.98174e-08
-2.25577e-08
-2.81647e-08
-3.80975e-08
-5.32535e-08
-7.3787e-08
-9.8998e-08
-1.27482e-07
-1.57487e-07
-1.87271e-07
-2.15342e-07
-2.40539e-07
-2.62006e-07
-2.79125e-07
-2.91479e-07
-2.98797e-07
-3.00905e-07
-2.979e-07
-2.89157e-07
-2.75656e-07
-2.5782e-07
-2.36219e-07
-2.11628e-07
-1.84954e-07
-1.57182e-07
-1.29311e-07
-1.79127e-07
-1.72343e-07
-1.71408e-07
-1.74693e-07
-1.80772e-07
-1.88158e-07
-1.95359e-07
-2.01124e-07
-2.04273e-07
-2.07223e-07
-2.06161e-07
-2.01611e-07
-1.94085e-07
-1.84205e-07
-1.72713e-07
-1.59503e-07
-1.47427e-07
-1.36276e-07
-1.26967e-07
-1.20399e-07
-1.17414e-07
-1.18834e-07
-1.25438e-07
-1.3788e-07
-1.56562e-07
-1.81477e-07
-2.12105e-07
-2.47392e-07
-2.85863e-07
-3.2579e-07
-3.65401e-07
-4.03042e-07
-4.37265e-07
-4.66884e-07
-4.91012e-07
-5.09043e-07
-5.20129e-07
-5.24174e-07
-5.20944e-07
-5.10527e-07
-4.93185e-07
-4.69333e-07
-4.39623e-07
-4.04902e-07
-3.66139e-07
-3.24545e-07
-2.81524e-07
-2.38421e-07
-1.96565e-07
-1.57345e-07
-1.21892e-07
-9.09827e-08
-6.51207e-08
-4.43356e-08
-2.84326e-08
-1.7427e-08
-1.08593e-08
-7.34672e-09
-5.65909e-09
-5.48957e-09
-6.80694e-09
-9.04997e-09
-1.12702e-08
-1.28991e-08
-1.42638e-08
-1.65157e-08
-2.11207e-08
-2.92798e-08
-4.17403e-08
-5.8729e-08
-7.9759e-08
-1.03634e-07
-1.28744e-07
-1.53435e-07
-1.76271e-07
-1.96122e-07
-2.12177e-07
-2.23899e-07
-2.30981e-07
-2.33221e-07
-2.30408e-07
-2.23897e-07
-2.13016e-07
-1.98306e-07
-1.80305e-07
-1.59662e-07
-1.37123e-07
-1.13497e-07
-8.9613e-08
-9.25604e-09
1.10397e-08
2.49765e-08
3.44164e-08
3.93401e-08
4.06921e-08
3.95734e-08
3.70555e-08
3.40647e-08
3.19972e-08
2.96018e-08
2.74409e-08
2.57765e-08
2.45641e-08
2.35135e-08
2.21488e-08
1.97581e-08
1.5649e-08
9.13444e-09
-5.60619e-10
-1.41601e-08
-3.22843e-08
-5.53845e-08
-8.36434e-08
-1.16887e-07
-1.54528e-07
-1.95588e-07
-2.38779e-07
-2.82626e-07
-3.25621e-07
-3.6634e-07
-4.03503e-07
-4.36007e-07
-4.6299e-07
-4.83983e-07
-4.9816e-07
-5.05532e-07
-5.05679e-07
-4.98674e-07
-4.8471e-07
-4.64143e-07
-4.37504e-07
-4.05529e-07
-3.69203e-07
-3.29668e-07
-2.88179e-07
-2.46172e-07
-2.0508e-07
-1.66194e-07
-1.30685e-07
-9.9368e-08
-7.26605e-08
-5.07877e-08
-3.34474e-08
-1.97769e-08
-9.19005e-09
-1.75169e-09
2.57198e-09
4.47089e-09
4.73899e-09
3.70614e-09
1.56483e-09
-1.13209e-09
-3.64944e-09
-5.62389e-09
-7.20749e-09
-8.95222e-09
-1.19166e-08
-1.74134e-08
-2.62104e-08
-3.84244e-08
-5.3824e-08
-7.17113e-08
-9.0875e-08
-1.09885e-07
-1.2738e-07
-1.42235e-07
-1.53647e-07
-1.61131e-07
-1.64463e-07
-1.63613e-07
-1.58715e-07
-1.50077e-07
-1.38184e-07
-1.2338e-07
-1.06284e-07
-8.75499e-08
-6.78673e-08
-4.79346e-08
1.01832e-07
1.29646e-07
1.52605e-07
1.71072e-07
1.85109e-07
1.95261e-07
2.0205e-07
2.06055e-07
2.08031e-07
2.07559e-07
2.04614e-07
1.99904e-07
1.937e-07
1.86046e-07
1.76799e-07
1.65661e-07
1.52214e-07
1.36004e-07
1.16547e-07
9.33862e-08
6.61716e-08
3.47262e-08
-8.86344e-10
-4.03219e-08
-8.29463e-08
-1.2786e-07
-1.73963e-07
-2.20039e-07
-2.64845e-07
-3.07187e-07
-3.45977e-07
-3.80335e-07
-4.09713e-07
-4.32751e-07
-4.49462e-07
-4.59584e-07
-4.62879e-07
-4.59395e-07
-4.49262e-07
-4.32757e-07
-4.10337e-07
-3.8264e-07
-3.50487e-07
-3.14916e-07
-2.77129e-07
-2.38411e-07
-2.00121e-07
-1.63504e-07
-1.29574e-07
-9.92293e-08
-7.30319e-08
-5.10774e-08
-3.34464e-08
-2.0055e-08
-1.00063e-08
-2.16759e-09
3.85632e-09
8.02511e-09
1.05124e-08
1.16773e-08
1.17829e-08
1.09103e-08
9.11758e-09
6.68857e-09
4.19646e-09
2.08349e-09
2.64165e-10
-1.41995e-09
-2.89438e-09
-4.97097e-09
-9.38212e-09
-1.69913e-08
-2.70924e-08
-3.85255e-08
-5.07287e-08
-6.31328e-08
-7.47931e-08
-8.46962e-08
-9.20723e-08
-9.64429e-08
-9.75685e-08
-9.54205e-08
-9.02019e-08
-8.20417e-08
-7.08878e-08
-5.77899e-08
-4.31767e-08
-2.75766e-08
-1.15738e-08
1.45748e-07
1.78876e-07
2.07826e-07
2.32391e-07
2.52424e-07
2.68243e-07
2.79226e-07
2.86286e-07
2.89708e-07
2.91034e-07
2.89763e-07
2.85878e-07
2.79289e-07
2.69845e-07
2.5737e-07
2.41669e-07
2.22537e-07
1.9979e-07
1.73292e-07
1.42992e-07
1.08964e-07
7.1442e-08
3.08461e-08
-1.22089e-08
-5.69227e-08
-1.02348e-07
-1.47467e-07
-1.91242e-07
-2.32671e-07
-2.70831e-07
-3.04973e-07
-3.34523e-07
-3.58612e-07
-3.77421e-07
-3.89902e-07
-3.96089e-07
-3.96069e-07
-3.89985e-07
-3.78113e-07
-3.60883e-07
-3.38918e-07
-3.13002e-07
-2.83988e-07
-2.52822e-07
-2.20528e-07
-1.881e-07
-1.56542e-07
-1.26808e-07
-9.95775e-08
-7.53532e-08
-5.44626e-08
-3.68002e-08
-2.2103e-08
-1.03352e-08
-1.41149e-09
5.13257e-09
9.96739e-09
1.35767e-08
1.61588e-08
1.77983e-08
1.85729e-08
1.85645e-08
1.78322e-08
1.64357e-08
1.44822e-08
1.21638e-08
9.83086e-09
7.8082e-09
6.01743e-09
4.29757e-09
2.96739e-09
2.42813e-09
1.85216e-09
-8.87162e-10
-6.80969e-09
-1.43554e-08
-2.17866e-08
-2.78391e-08
-3.2142e-08
-3.47391e-08
-3.56003e-08
-3.4562e-08
-3.14365e-08
-2.60367e-08
-1.91052e-08
-1.06898e-08
-5.64364e-10
1.06061e-08
2.23319e-08
1.3018e-07
1.62327e-07
1.93056e-07
2.20735e-07
2.44839e-07
2.64726e-07
2.81251e-07
2.93959e-07
3.02715e-07
3.07435e-07
3.08155e-07
3.05055e-07
2.98336e-07
2.88146e-07
2.7456e-07
2.57582e-07
2.37175e-07
2.13311e-07
1.86023e-07
1.55442e-07
1.21814e-07
8.55165e-08
4.70644e-08
7.10482e-09
-3.35946e-08
-7.41776e-08
-1.13768e-07
-1.51548e-07
-1.86726e-07
-2.18829e-07
-2.47045e-07
-2.70759e-07
-2.89561e-07
-3.03277e-07
-3.11786e-07
-3.1505e-07
-3.13156e-07
-3.06376e-07
-2.95174e-07
-2.80096e-07
-2.61716e-07
-2.40704e-07
-2.17837e-07
-1.93939e-07
-1.69821e-07
-1.46149e-07
-1.23451e-07
-1.02197e-07
-8.26717e-08
-6.50225e-08
-4.9401e-08
-3.58033e-08
-2.40179e-08
-1.38461e-08
-5.14966e-09
2.22748e-09
8.36708e-09
1.32857e-08
1.71064e-08
2.00237e-08
2.21215e-08
2.33602e-08
2.37247e-08
2.33174e-08
2.23259e-08
2.09041e-08
1.90962e-08
1.70212e-08
1.50623e-08
1.35269e-08
1.21758e-08
1.0598e-08
8.99763e-09
8.11246e-09
8.4119e-09
9.60871e-09
1.13215e-08
1.2724e-08
1.3347e-08
1.34027e-08
1.35559e-08
1.45376e-08
1.68547e-08
2.06769e-08
2.58619e-08
3.25809e-08
3.99259e-08
4.78302e-08
5.60499e-08
1.07371e-07
1.36261e-07
1.64281e-07
1.90606e-07
2.13754e-07
2.33216e-07
2.49075e-07
2.61613e-07
2.71086e-07
2.77587e-07
2.81026e-07
2.81212e-07
2.77956e-07
2.71138e-07
2.60724e-07
2.46748e-07
2.29294e-07
2.08509e-07
1.84616e-07
1.5791e-07
1.28758e-07
9.76047e-08
6.49681e-08
3.14408e-08
-2.28205e-09
-3.5342e-08
-6.6936e-08
-9.7353e-08
-1.25306e-07
-1.50306e-07
-1.71905e-07
-1.89818e-07
-2.04001e-07
-2.14411e-07
-2.21091e-07
-2.2417e-07
-2.23793e-07
-2.20105e-07
-2.13369e-07
-2.04028e-07
-1.92648e-07
-1.79746e-07
-1.65735e-07
-1.5098e-07
-1.35894e-07
-1.20844e-07
-1.06096e-07
-9.18896e-08
-7.84073e-08
-6.57154e-08
-5.389e-08
-4.30221e-08
-3.31216e-08
-2.41599e-08
-1.60995e-08
-8.8269e-09
-2.18479e-09
3.90151e-09
9.37304e-09
1.4116e-08
1.80643e-08
2.12146e-08
2.35725e-08
2.5123e-08
2.58564e-08
2.58132e-08
2.51154e-08
2.3999e-08
2.27615e-08
2.16323e-08
2.07382e-08
2.02145e-08
2.01888e-08
2.04476e-08
2.06439e-08
2.06134e-08
2.09981e-08
2.24585e-08
2.50882e-08
2.86088e-08
3.26741e-08
3.71952e-08
4.21076e-08
4.76208e-08
5.31218e-08
5.88622e-08
6.48458e-08
7.10251e-08
7.73155e-08
9.62777e-08
1.20653e-07
1.44475e-07
1.67344e-07
1.88121e-07
2.06325e-07
2.21774e-07
2.3453e-07
2.4472e-07
2.5236e-07
2.57335e-07
2.59459e-07
2.58565e-07
2.54567e-07
2.47482e-07
2.3741e-07
2.24494e-07
2.08903e-07
1.90839e-07
1.70554e-07
1.48359e-07
1.24614e-07
9.9746e-08
7.43781e-08
4.9001e-08
2.33337e-08
-2.1223e-09
-2.60733e-08
-4.84706e-08
-6.87273e-08
-8.68131e-08
-1.02528e-07
-1.15751e-07
-1.26477e-07
-1.3478e-07
-1.40812e-07
-1.44789e-07
-1.46924e-07
-1.47368e-07
-1.46211e-07
-1.43519e-07
-1.39445e-07
-1.34178e-07
-1.27845e-07
-1.20545e-07
-1.12425e-07
-1.03666e-07
-9.44829e-08
-8.51226e-08
-7.57837e-08
-6.65895e-08
-5.76276e-08
-4.89481e-08
-4.05619e-08
-3.24874e-08
-2.47767e-08
-1.74803e-08
-1.06134e-08
-4.16924e-09
1.85078e-09
7.39917e-09
1.23921e-08
1.67204e-08
2.02871e-08
2.30351e-08
2.49623e-08
2.6123e-08
2.66708e-08
2.68023e-08
2.67456e-08
2.66992e-08
2.68063e-08
2.72037e-08
2.80006e-08
2.91941e-08
3.08287e-08
3.29271e-08
3.54126e-08
3.82297e-08
4.14853e-08
4.43356e-08
4.76477e-08
5.1555e-08
5.58036e-08
6.08893e-08
6.64601e-08
7.23312e-08
7.83355e-08
8.43236e-08
9.30837e-08
1.14097e-07
1.34533e-07
1.54089e-07
1.72422e-07
1.88869e-07
2.03117e-07
2.15223e-07
2.25355e-07
2.33575e-07
2.39795e-07
2.43845e-07
2.45574e-07
2.44885e-07
2.41755e-07
2.36224e-07
2.28357e-07
2.18243e-07
2.05995e-07
1.91764e-07
1.75737e-07
1.58045e-07
1.38889e-07
1.18857e-07
9.79961e-08
7.7294e-08
5.68097e-08
3.71319e-08
1.82995e-08
4.02378e-10
-1.64972e-08
-3.23563e-08
-4.70685e-08
-6.05092e-08
-7.2618e-08
-8.33689e-08
-9.27199e-08
-1.00641e-07
-1.07143e-07
-1.12237e-07
-1.15866e-07
-1.17962e-07
-1.18546e-07
-1.17759e-07
-1.15789e-07
-1.12825e-07
-1.09035e-07
-1.04524e-07
-9.93364e-08
-9.34927e-08
-8.70283e-08
-8.00013e-08
-7.24829e-08
-6.45429e-08
-5.62683e-08
-4.7781e-08
-3.9216e-08
-3.07535e-08
-2.25834e-08
-1.47933e-08
-7.56192e-09
-7.63633e-10
5.49101e-09
1.1093e-08
1.59649e-08
2.00548e-08
2.33649e-08
2.59467e-08
2.79541e-08
2.95656e-08
3.09453e-08
3.22423e-08
3.35699e-08
3.49798e-08
3.66004e-08
3.8431e-08
4.04911e-08
4.27952e-08
4.53152e-08
4.78992e-08
5.14592e-08
5.52291e-08
5.91943e-08
6.33507e-08
6.77387e-08
7.23373e-08
7.71187e-08
8.20346e-08
8.70017e-08
8.5562e-08
1.06253e-07
1.26243e-07
1.45112e-07
1.62459e-07
1.78003e-07
1.91681e-07
2.03604e-07
2.13902e-07
2.22618e-07
2.29709e-07
2.35069e-07
2.38564e-07
2.40062e-07
2.39481e-07
2.36788e-07
2.31998e-07
2.25162e-07
2.16297e-07
2.05509e-07
1.93041e-07
1.79141e-07
1.64105e-07
1.47819e-07
1.30913e-07
1.13619e-07
9.62628e-08
7.90359e-08
6.20995e-08
4.55965e-08
2.96125e-08
1.42339e-08
-5.57223e-10
-1.48679e-08
-2.87372e-08
-4.20461e-08
-5.4576e-08
-6.61354e-08
-7.66121e-08
-8.60516e-08
-9.45515e-08
-1.02145e-07
-1.08785e-07
-1.14343e-07
-1.18616e-07
-1.214e-07
-1.22553e-07
-1.22002e-07
-1.19742e-07
-1.15847e-07
-1.10456e-07
-1.03775e-07
-9.6046e-08
-8.74954e-08
-7.83643e-08
-6.88318e-08
-5.89383e-08
-4.8903e-08
-3.89438e-08
-2.93483e-08
-2.01606e-08
-1.16391e-08
-3.81556e-09
3.26891e-09
9.54913e-09
1.49887e-08
1.96019e-08
2.34607e-08
2.66934e-08
2.94674e-08
3.19594e-08
3.43394e-08
3.6738e-08
3.92672e-08
4.1924e-08
4.4726e-08
4.76689e-08
5.07278e-08
5.38808e-08
5.71016e-08
6.04402e-08
6.38746e-08
6.74124e-08
7.10768e-08
7.48871e-08
7.88158e-08
8.27917e-08
8.6755e-08
9.06538e-08
7.71357e-08
9.78909e-08
1.17832e-07