/*--------------------------------*- C++ -*----------------------------------*\
| =========                 |                                                 |
| \\      /  F ield         | OpenFOAM: The Open Source CFD Toolbox           |
|  \\    /   O peration     | Version:  2312                                  |
|   \\  /    A nd           | Website:  www.openfoam.com                      |
|    \\/     M anipulation  |                                                 |
\*---------------------------------------------------------------------------*/
FoamFile
{
    version     2.0;
    format      ascii;
    arch        "LSB;label=32;scalar=64";
    class       volVectorField;
    location    "12000";
    object      U;
}
// * * * * * * * * * * * * * * * * * * * * * * * * * * * * * * * * * * * * * //

dimensions      [0 1 -1 0 0 0 0];

internalField   nonuniform List<vector> 
2685
(
(0.000567767 -4.07071e-05 0)
(0.000584932 -3.00034e-05 0)
(0.000584672 -2.2066e-05 0)
(0.000584061 -1.52167e-05 0)
(0.000584338 -9.68471e-06 0)
(0.000584359 -5.81093e-06 0)
(0.000583435 -3.39563e-06 0)
(0.000581578 -1.71542e-06 0)
(0.00057906 -1.72123e-07 0)
(0.000576109 1.15668e-06 0)
(0.000572929 1.79595e-06 0)
(0.000569718 1.70509e-06 0)
(0.000566581 1.58486e-06 0)
(0.000563463 2.13708e-06 0)
(0.000560215 3.13716e-06 0)
(0.000556846 3.50225e-06 0)
(0.000553726 2.31295e-06 0)
(0.000551418 -2.98235e-07 0)
(0.000550214 -3.14308e-06 0)
(0.000549839 -4.70804e-06 0)
(0.000549595 -4.05637e-06 0)
(0.000548784 -1.33326e-06 0)
(0.000547065 2.38073e-06 0)
(0.000544548 5.71631e-06 0)
(0.000541652 7.69346e-06 0)
(0.000538868 8.02759e-06 0)
(0.000536586 7.03632e-06 0)
(0.000535042 5.29956e-06 0)
(0.000534313 3.37691e-06 0)
(0.000534334 1.6779e-06 0)
(0.000534991 4.26249e-07 0)
(0.000536163 -3.23929e-07 0)
(0.000537722 -6.41015e-07 0)
(0.000539518 -6.46902e-07 0)
(0.000541387 -4.7243e-07 0)
(0.000543169 -2.31043e-07 0)
(0.000544737 -4.45654e-09 0)
(0.000546011 1.6083e-07 0)
(0.000546961 2.48883e-07 0)
(0.000547602 2.65308e-07 0)
(0.000547981 2.27599e-07 0)
(0.000548161 1.56956e-07 0)
(0.000548205 7.15372e-08 0)
(0.000548166 -1.35145e-08 0)
(0.000548085 -8.50988e-08 0)
(0.000547996 -1.39395e-07 0)
(0.00054792 -1.7631e-07 0)
(0.000547863 -1.9753e-07 0)
(0.00054783 -2.06044e-07 0)
(0.000547817 -2.0526e-07 0)
(0.000547822 -1.98014e-07 0)
(0.000547839 -1.8667e-07 0)
(0.000547866 -1.73008e-07 0)
(0.000547898 -1.58293e-07 0)
(0.000547933 -1.43396e-07 0)
(0.000547969 -1.28806e-07 0)
(0.000548005 -1.14801e-07 0)
(0.00054804 -1.01736e-07 0)
(0.000548073 -8.97998e-08 0)
(0.000548104 -7.90348e-08 0)
(0.000548132 -6.94044e-08 0)
(0.000548159 -6.08414e-08 0)
(0.000548183 -5.32662e-08 0)
(0.000548205 -4.65932e-08 0)
(0.000548226 -4.07353e-08 0)
(0.000548244 -3.56071e-08 0)
(0.000548261 -3.11279e-08 0)
(0.000548277 -2.72228e-08 0)
(0.000548291 -2.38228e-08 0)
(0.000548304 -2.08662e-08 0)
(0.000548315 -1.82962e-08 0)
(0.000548326 -1.60639e-08 0)
(0.000548335 -1.41253e-08 0)
(0.000548344 -1.24415e-08 0)
(0.000548352 -1.09794e-08 0)
(0.000548359 -9.70808e-09 0)
(0.000548366 -8.60224e-09 0)
(0.000548372 -7.63935e-09 0)
(0.000548377 -6.79799e-09 0)
(0.000548382 -6.06309e-09 0)
(0.000548386 -5.41884e-09 0)
(0.00054839 -4.85108e-09 0)
(0.000548394 -4.3519e-09 0)
(0.000548397 -3.91008e-09 0)
(0.0005484 -3.51639e-09 0)
(0.000548403 -3.16816e-09 0)
(0.000548405 -2.85675e-09 0)
(0.000548408 -2.57658e-09 0)
(0.00054841 -2.32735e-09 0)
(0.000548412 -2.10247e-09 0)
(0.000980965 -5.26035e-06 0)
(0.000972899 -1.27293e-06 0)
(0.000968831 1.96014e-06 0)
(0.000965473 4.89203e-06 0)
(0.000962234 7.35183e-06 0)
(0.000959121 9.24117e-06 0)
(0.000956271 1.05273e-05 0)
(0.000953745 1.12326e-05 0)
(0.000951623 1.15281e-05 0)
(0.000949994 1.16553e-05 0)
(0.000948766 1.17072e-05 0)
(0.000947639 1.16212e-05 0)
(0.000946377 1.14249e-05 0)
(0.000945042 1.12888e-05 0)
(0.000943933 1.1187e-05 0)
(0.000943265 1.06962e-05 0)
(0.000942911 9.41776e-06 0)
(0.000942462 7.59071e-06 0)
(0.000941547 6.07582e-06 0)
(0.000940088 5.6273e-06 0)
(0.000938331 6.23323e-06 0)
(0.000936687 7.1562e-06 0)
(0.000935495 7.51436e-06 0)
(0.000934933 6.86034e-06 0)
(0.000935039 5.3085e-06 0)
(0.000935766 3.29728e-06 0)
(0.000936966 1.27606e-06 0)
(0.000938398 -4.86629e-07 0)
(0.00093988 -1.96476e-06 0)
(0.000941333 -3.2975e-06 0)
(0.000942752 -4.60171e-06 0)
(0.000944115 -5.85816e-06 0)
(0.000945406 -6.921e-06 0)
(0.000946625 -7.59524e-06 0)
(0.000947766 -7.73422e-06 0)
(0.000948803 -7.30391e-06 0)
(0.000949702 -6.39141e-06 0)
(0.000950432 -5.16844e-06 0)
(0.000950971 -3.83493e-06 0)
(0.000951318 -2.56746e-06 0)
(0.000951485 -1.48802e-06 0)
(0.000951499 -6.55711e-07 0)
(0.0009514 -7.75057e-08 0)
(0.000951239 2.70587e-07 0)
(0.000951048 4.39232e-07 0)
(0.000950843 4.83776e-07 0)
(0.000950642 4.52811e-07 0)
(0.000950456 3.83669e-07 0)
(0.00095029 3.01591e-07 0)
(0.000950148 2.2159e-07 0)
(0.000950029 1.51578e-07 0)
(0.000949933 9.45761e-08 0)
(0.000949855 5.061e-08 0)
(0.000949793 1.81385e-08 0)
(0.000949745 -4.9362e-09 0)
(0.000949707 -2.07877e-08 0)
(0.000949678 -3.1418e-08 0)
(0.000949655 -3.82435e-08 0)
(0.000949637 -4.23623e-08 0)
(0.000949624 -4.44891e-08 0)
(0.000949613 -4.51818e-08 0)
(0.000949605 -4.48693e-08 0)
(0.000949599 -4.38656e-08 0)
(0.000949595 -4.23967e-08 0)
(0.000949592 -4.06239e-08 0)
(0.00094959 -3.86635e-08 0)
(0.000949588 -3.65968e-08 0)
(0.000949588 -3.44837e-08 0)
(0.000949588 -3.23664e-08 0)
(0.000949588 -3.02751e-08 0)
(0.000949589 -2.82337e-08 0)
(0.000949589 -2.62609e-08 0)
(0.00094959 -2.43697e-08 0)
(0.000949591 -2.25686e-08 0)
(0.000949592 -2.0861e-08 0)
(0.000949594 -1.92496e-08 0)
(0.000949595 -1.77348e-08 0)
(0.000949596 -1.63153e-08 0)
(0.000949597 -1.49898e-08 0)
(0.000949598 -1.37554e-08 0)
(0.0009496 -1.26085e-08 0)
(0.000949601 -1.15461e-08 0)
(0.000949602 -1.05635e-08 0)
(0.000949603 -9.65651e-09 0)
(0.000949604 -8.82163e-09 0)
(0.000949604 -8.05351e-09 0)
(0.000949605 -7.34816e-09 0)
(0.000949606 -6.70191e-09 0)
(0.000949607 -6.11094e-09 0)
(0.000949608 -5.56866e-09 0)
(0.00110802 2.72823e-06 0)
(0.00109753 4.36285e-06 0)
(0.00109001 5.81554e-06 0)
(0.00108373 6.87267e-06 0)
(0.00107797 7.54894e-06 0)
(0.00107263 7.99624e-06 0)
(0.00106776 8.41881e-06 0)
(0.0010634 8.81932e-06 0)
(0.00105951 8.98712e-06 0)
(0.00105613 8.78937e-06 0)
(0.00105325 8.37159e-06 0)
(0.00105078 8.01606e-06 0)
(0.00104858 7.87948e-06 0)
(0.00104653 7.87968e-06 0)
(0.00104468 7.73161e-06 0)
(0.00104308 7.07139e-06 0)
(0.00104173 5.70594e-06 0)
(0.0010405 3.88795e-06 0)
(0.00103921 2.30586e-06 0)
(0.00103789 1.68372e-06 0)
(0.00103683 2.29917e-06 0)
(0.00103617 3.765e-06 0)
(0.00103579 5.25278e-06 0)
(0.00103556 5.95614e-06 0)
(0.00103537 5.47504e-06 0)
(0.0010352 3.91015e-06 0)
(0.00103509 1.68612e-06 0)
(0.00103509 -6.67288e-07 0)
(0.00103518 -2.71303e-06 0)
(0.00103525 -4.22786e-06 0)
(0.00103522 -5.18171e-06 0)
(0.00103497 -5.64655e-06 0)
(0.00103443 -5.7095e-06 0)
(0.00103363 -5.44257e-06 0)
(0.00103263 -4.90474e-06 0)
(0.00103157 -4.15656e-06 0)
(0.00103055 -3.27147e-06 0)
(0.00102967 -2.33548e-06 0)
(0.00102899 -1.43615e-06 0)
(0.00102851 -6.47606e-07 0)
(0.00102822 -1.9284e-08 0)
(0.00102808 4.29401e-07 0)
(0.00102804 7.08228e-07 0)
(0.00102805 8.42645e-07 0)
(0.00102808 8.64039e-07 0)
(0.00102812 8.08056e-07 0)
(0.00102816 7.07082e-07 0)
(0.00102819 5.86645e-07 0)
(0.00102821 4.6478e-07 0)
(0.00102822 3.52722e-07 0)
(0.00102823 2.56094e-07 0)
(0.00102822 1.76714e-07 0)
(0.00102821 1.13992e-07 0)
(0.0010282 6.59958e-08 0)
(0.00102819 3.0328e-08 0)
(0.00102817 4.54522e-09 0)
(0.00102816 -1.36373e-08 0)
(0.00102815 -2.5963e-08 0)
(0.00102813 -3.37845e-08 0)
(0.00102812 -3.83401e-08 0)
(0.00102812 -4.05874e-08 0)
(0.00102811 -4.12288e-08 0)
(0.0010281 -4.07759e-08 0)
(0.0010281 -3.95965e-08 0)
(0.00102809 -3.79542e-08 0)
(0.00102809 -3.60373e-08 0)
(0.00102808 -3.39776e-08 0)
(0.00102808 -3.18663e-08 0)
(0.00102807 -2.97628e-08 0)
(0.00102807 -2.77007e-08 0)
(0.00102807 -2.56781e-08 0)
(0.00102807 -2.37409e-08 0)
(0.00102806 -2.19089e-08 0)
(0.00102806 -2.01922e-08 0)
(0.00102806 -1.85928e-08 0)
(0.00102806 -1.71092e-08 0)
(0.00102806 -1.57379e-08 0)
(0.00102806 -1.44726e-08 0)
(0.00102805 -1.33077e-08 0)
(0.00102805 -1.22355e-08 0)
(0.00102805 -1.12484e-08 0)
(0.00102805 -1.03402e-08 0)
(0.00102805 -9.5043e-09 0)
(0.00102805 -8.73474e-09 0)
(0.00102805 -8.02689e-09 0)
(0.00102805 -7.37502e-09 0)
(0.00102805 -6.77485e-09 0)
(0.00102805 -6.22284e-09 0)
(0.00102805 -5.71662e-09 0)
(0.00102805 -5.24793e-09 0)
(0.00114906 3.48682e-05 0)
(0.00113771 3.43374e-05 0)
(0.0011274 3.36406e-05 0)
(0.00111827 3.25936e-05 0)
(0.00111025 3.12409e-05 0)
(0.00110317 2.97554e-05 0)
(0.00109688 2.83286e-05 0)
(0.00109127 2.69734e-05 0)
(0.00108628 2.5516e-05 0)
(0.00108186 2.38558e-05 0)
(0.00107792 2.21597e-05 0)
(0.00107436 2.0718e-05 0)
(0.00107111 1.96342e-05 0)
(0.00106823 1.86971e-05 0)
(0.00106577 1.75438e-05 0)
(0.00106371 1.59487e-05 0)
(0.0010619 1.40121e-05 0)
(0.00106011 1.21287e-05 0)
(0.00105816 1.07626e-05 0)
(0.00105605 1.01609e-05 0)
(0.00105398 1.01635e-05 0)
(0.0010522 1.02691e-05 0)
(0.00105089 9.92376e-06 0)
(0.0010501 8.77186e-06 0)
(0.00104973 6.7832e-06 0)
(0.00104959 4.22668e-06 0)
(0.00104947 1.53516e-06 0)
(0.00104922 -8.79373e-07 0)
(0.00104877 -2.74138e-06 0)
(0.00104811 -3.94584e-06 0)
(0.00104726 -4.54445e-06 0)
(0.00104627 -4.67276e-06 0)
(0.00104519 -4.48223e-06 0)
(0.00104408 -4.10108e-06 0)
(0.00104301 -3.61854e-06 0)
(0.00104202 -3.08858e-06 0)
(0.00104118 -2.54328e-06 0)
(0.0010405 -2.00542e-06 0)
(0.00104 -1.49553e-06 0)
(0.00103965 -1.0332e-06 0)
(0.00103943 -6.34509e-07 0)
(0.00103932 -3.11579e-07 0)
(0.00103928 -7.03321e-08 0)
(0.00103929 9.69929e-08 0)
(0.00103931 2.01434e-07 0)
(0.00103932 2.5596e-07 0)
(0.00103933 2.73975e-07 0)
(0.00103931 2.67075e-07 0)
(0.00103928 2.44613e-07 0)
(0.00103924 2.13954e-07 0)
(0.00103918 1.80442e-07 0)
(0.00103913 1.47571e-07 0)
(0.00103907 1.1736e-07 0)
(0.00103901 9.08283e-08 0)
(0.00103895 6.82849e-08 0)
(0.0010389 4.9658e-08 0)
(0.00103885 3.47403e-08 0)
(0.00103881 2.30039e-08 0)
(0.00103877 1.39322e-08 0)
(0.00103873 6.95031e-09 0)
(0.0010387 1.60608e-09 0)
(0.00103867 -2.44496e-09 0)
(0.00103864 -5.47561e-09 0)
(0.00103862 -7.70187e-09 0)
(0.0010386 -9.29474e-09 0)
(0.00103858 -1.039e-08 0)
(0.00103857 -1.10958e-08 0)
(0.00103855 -1.14996e-08 0)
(0.00103854 -1.16744e-08 0)
(0.00103853 -1.16835e-08 0)
(0.00103852 -1.15999e-08 0)
(0.00103851 -1.14239e-08 0)
(0.00103851 -1.11684e-08 0)
(0.0010385 -1.08481e-08 0)
(0.00103849 -1.0477e-08 0)
(0.00103849 -1.00684e-08 0)
(0.00103849 -9.63437e-09 0)
(0.00103848 -9.18628e-09 0)
(0.00103848 -8.73694e-09 0)
(0.00103848 -8.29067e-09 0)
(0.00103847 -7.84755e-09 0)
(0.00103847 -7.41005e-09 0)
(0.00103847 -6.9811e-09 0)
(0.00103847 -6.563e-09 0)
(0.00103847 -6.15831e-09 0)
(0.00103847 -5.76875e-09 0)
(0.00103847 -5.39522e-09 0)
(0.00103846 -5.03901e-09 0)
(0.00103846 -4.70127e-09 0)
(0.00103846 -4.38011e-09 0)
(0.00115002 5.96384e-05 0)
(0.0011388 5.52295e-05 0)
(0.00112845 5.11232e-05 0)
(0.00111927 4.72907e-05 0)
(0.00111128 4.37558e-05 0)
(0.00110429 4.05248e-05 0)
(0.0010981 3.7521e-05 0)
(0.0010926 3.46242e-05 0)
(0.00108771 3.17809e-05 0)
(0.00108333 2.90677e-05 0)
(0.00107933 2.66342e-05 0)
(0.00107564 2.45597e-05 0)
(0.00107233 2.27461e-05 0)
(0.00106952 2.09607e-05 0)
(0.00106718 1.90124e-05 0)
(0.00106514 1.69144e-05 0)
(0.0010632 1.48924e-05 0)
(0.00106122 1.32384e-05 0)
(0.00105918 1.21203e-05 0)
(0.00105722 1.14704e-05 0)
(0.00105557 1.10192e-05 0)
(0.00105439 1.04356e-05 0)
(0.00105372 9.46314e-06 0)
(0.00105342 8.01804e-06 0)
(0.00105328 6.20228e-06 0)
(0.00105307 4.24738e-06 0)
(0.00105265 2.42008e-06 0)
(0.00105193 9.34795e-07 0)
(0.00105095 -1.00359e-07 0)
(0.00104976 -6.86405e-07 0)
(0.00104848 -9.02466e-07 0)
(0.00104717 -8.63282e-07 0)
(0.00104592 -6.80956e-07 0)
(0.00104476 -4.40572e-07 0)
(0.00104372 -1.94504e-07 0)
(0.00104281 3.20938e-08 0)
(0.00104204 2.31417e-07 0)
(0.00104141 4.03329e-07 0)
(0.00104091 5.48997e-07 0)
(0.00104054 6.68337e-07 0)
(0.00104026 7.60579e-07 0)
(0.00104008 8.24776e-07 0)
(0.00103995 8.59302e-07 0)
(0.00103987 8.6363e-07 0)
(0.00103983 8.41001e-07 0)
(0.0010398 7.96905e-07 0)
(0.00103979 7.37738e-07 0)
(0.00103978 6.69687e-07 0)
(0.00103978 5.98015e-07 0)
(0.00103977 5.26715e-07 0)
(0.00103977 4.58632e-07 0)
(0.00103976 3.95605e-07 0)
(0.00103974 3.38631e-07 0)
(0.00103973 2.88067e-07 0)
(0.00103972 2.43822e-07 0)
(0.0010397 2.05516e-07 0)
(0.00103969 1.72585e-07 0)
(0.00103967 1.444e-07 0)
(0.00103966 1.20303e-07 0)
(0.00103964 9.98237e-08 0)
(0.00103963 8.25082e-08 0)
(0.00103962 6.79189e-08 0)
(0.00103961 5.56589e-08 0)
(0.0010396 4.5377e-08 0)
(0.00103959 3.67688e-08 0)
(0.00103958 2.95733e-08 0)
(0.00103957 2.35681e-08 0)
(0.00103957 1.85637e-08 0)
(0.00103956 1.43972e-08 0)
(0.00103956 1.09268e-08 0)
(0.00103955 8.01156e-09 0)
(0.00103955 5.58917e-09 0)
(0.00103954 3.59261e-09 0)
(0.00103954 1.96071e-09 0)
(0.00103953 6.39008e-10 0)
(0.00103953 -4.19813e-10 0)
(0.00103953 -1.25627e-09 0)
(0.00103953 -1.90393e-09 0)
(0.00103952 -2.38837e-09 0)
(0.00103952 -2.73896e-09 0)
(0.00103952 -2.98373e-09 0)
(0.00103952 -3.14407e-09 0)
(0.00103952 -3.23697e-09 0)
(0.00103951 -3.27592e-09 0)
(0.00103951 -3.27198e-09 0)
(0.00103951 -3.23436e-09 0)
(0.00103951 -3.1694e-09 0)
(0.00103951 -3.08421e-09 0)
(0.00103951 -2.9842e-09 0)
(0.00103951 -2.87305e-09 0)
(0.00113948 8.36091e-05 0)
(0.00112929 7.71653e-05 0)
(0.00111985 7.11867e-05 0)
(0.00111145 6.57184e-05 0)
(0.0011041 6.07899e-05 0)
(0.00109766 5.62655e-05 0)
(0.00109198 5.19372e-05 0)
(0.00108694 4.77373e-05 0)
(0.00108242 4.37837e-05 0)
(0.00107832 4.0218e-05 0)
(0.00107457 3.70453e-05 0)
(0.00107121 3.41318e-05 0)
(0.0010683 3.13189e-05 0)
(0.00106582 2.85384e-05 0)
(0.00106366 2.58584e-05 0)
(0.00106165 2.34329e-05 0)
(0.00105969 2.13909e-05 0)
(0.00105777 1.97418e-05 0)
(0.00105595 1.83592e-05 0)
(0.00105437 1.70383e-05 0)
(0.00105315 1.55822e-05 0)
(0.00105233 1.38738e-05 0)
(0.00105179 1.19067e-05 0)
(0.00105138 9.77824e-06 0)
(0.00105096 7.65358e-06 0)
(0.00105044 5.70768e-06 0)
(0.00104975 4.07399e-06 0)
(0.0010489 2.81517e-06 0)
(0.00104791 1.92446e-06 0)
(0.00104687 1.34545e-06 0)
(0.00104583 9.96758e-07 0)
(0.00104486 7.95602e-07 0)
(0.00104398 6.74705e-07 0)
(0.00104322 5.90565e-07 0)
(0.00104257 5.21247e-07 0)
(0.00104203 4.60009e-07 0)
(0.00104159 4.08321e-07 0)
(0.00104124 3.69806e-07 0)
(0.00104096 3.46467e-07 0)
(0.00104075 3.37279e-07 0)
(0.00104058 3.38162e-07 0)
(0.00104046 3.44389e-07 0)
(0.00104037 3.52262e-07 0)
(0.00104031 3.58342e-07 0)
(0.00104026 3.60201e-07 0)
(0.00104022 3.56376e-07 0)
(0.00104019 3.46453e-07 0)
(0.00104016 3.31062e-07 0)
(0.00104012 3.11359e-07 0)
(0.00104009 2.88667e-07 0)
(0.00104006 2.64271e-07 0)
(0.00104003 2.39294e-07 0)
(0.00103999 2.1463e-07 0)
(0.00103996 1.90945e-07 0)
(0.00103993 1.6869e-07 0)
(0.0010399 1.4814e-07 0)
(0.00103987 1.29431e-07 0)
(0.00103984 1.12595e-07 0)
(0.00103982 9.75821e-08 0)
(0.00103979 8.42918e-08 0)
(0.00103977 7.2591e-08 0)
(0.00103975 6.23328e-08 0)
(0.00103973 5.33688e-08 0)
(0.00103972 4.55557e-08 0)
(0.0010397 3.87595e-08 0)
(0.00103969 3.28578e-08 0)
(0.00103968 2.77405e-08 0)
(0.00103967 2.33105e-08 0)
(0.00103966 1.94845e-08 0)
(0.00103965 1.61941e-08 0)
(0.00103964 1.34014e-08 0)
(0.00103964 1.10167e-08 0)
(0.00103963 8.97618e-09 0)
(0.00103963 7.22837e-09 0)
(0.00103962 5.73151e-09 0)
(0.00103962 4.45116e-09 0)
(0.00103961 3.35907e-09 0)
(0.00103961 2.43251e-09 0)
(0.00103961 1.65517e-09 0)
(0.00103961 1.00549e-09 0)
(0.0010396 4.61894e-10 0)
(0.0010396 8.40718e-12 0)
(0.0010396 -3.67598e-10 0)
(0.0010396 -6.76482e-10 0)
(0.0010396 -9.26927e-10 0)
(0.0010396 -1.12665e-09 0)
(0.0010396 -1.28331e-09 0)
(0.00103959 -1.40176e-09 0)
(0.00103959 -1.48724e-09 0)
(0.00103959 -1.54427e-09 0)
(0.00112334 0.000105567 0)
(0.00111426 9.70658e-05 0)
(0.00110587 8.91328e-05 0)
(0.00109841 8.18252e-05 0)
(0.0010919 7.51221e-05 0)
(0.00108626 6.88763e-05 0)
(0.00108136 6.29697e-05 0)
(0.00107703 5.74328e-05 0)
(0.00107314 5.23658e-05 0)
(0.00106964 4.77821e-05 0)
(0.00106656 4.35713e-05 0)
(0.00106389 3.96042e-05 0)
(0.00106159 3.58487e-05 0)
(0.00105956 3.23863e-05 0)
(0.00105769 2.93313e-05 0)
(0.00105592 2.67247e-05 0)
(0.00105429 2.44862e-05 0)
(0.00105285 2.24499e-05 0)
(0.00105166 2.04472e-05 0)
(0.00105076 1.83746e-05 0)
(0.00105015 1.62158e-05 0)
(0.00104976 1.4029e-05 0)
(0.00104948 1.19135e-05 0)
(0.00104917 9.9744e-06 0)
(0.00104877 8.29175e-06 0)
(0.00104823 6.90291e-06 0)
(0.00104756 5.80439e-06 0)
(0.00104679 4.96435e-06 0)
(0.00104596 4.33449e-06 0)
(0.00104513 3.85994e-06 0)
(0.00104434 3.48889e-06 0)
(0.00104363 3.18017e-06 0)
(0.00104299 2.90648e-06 0)
(0.00104243 2.65255e-06 0)
(0.00104195 2.41301e-06 0)
(0.00104154 2.18881e-06 0)
(0.00104119 1.98321e-06 0)
(0.0010409 1.79894e-06 0)
(0.00104066 1.63684e-06 0)
(0.00104045 1.49559e-06 0)
(0.00104029 1.37229e-06 0)
(0.00104015 1.26337e-06 0)
(0.00104005 1.16523e-06 0)
(0.00103997 1.07472e-06 0)
(0.00103991 9.89471e-07 0)
(0.00103986 9.08062e-07 0)
(0.00103983 8.29839e-07 0)
(0.0010398 7.54711e-07 0)
(0.00103978 6.82921e-07 0)
(0.00103976 6.14845e-07 0)
(0.00103975 5.50867e-07 0)
(0.00103974 4.91295e-07 0)
(0.00103973 4.36323e-07 0)
(0.00103972 3.86019e-07 0)
(0.00103972 3.40331e-07 0)
(0.00103971 2.99112e-07 0)
(0.0010397 2.62139e-07 0)
(0.0010397 2.29138e-07 0)
(0.00103969 1.99806e-07 0)
(0.00103968 1.73832e-07 0)
(0.00103968 1.50906e-07 0)
(0.00103967 1.30731e-07 0)
(0.00103966 1.13024e-07 0)
(0.00103966 9.75176e-08 0)
(0.00103965 8.39684e-08 0)
(0.00103965 7.21521e-08 0)
(0.00103964 6.18662e-08 0)
(0.00103964 5.29283e-08 0)
(0.00103964 4.51751e-08 0)
(0.00103963 3.84608e-08 0)
(0.00103963 3.2655e-08 0)
(0.00103963 2.76408e-08 0)
(0.00103962 2.33167e-08 0)
(0.00103962 1.95945e-08 0)
(0.00103962 1.63969e-08 0)
(0.00103962 1.36558e-08 0)
(0.00103961 1.13109e-08 0)
(0.00103961 9.30773e-09 0)
(0.00103961 7.59499e-09 0)
(0.00103961 6.13422e-09 0)
(0.00103961 4.89449e-09 0)
(0.00103961 3.84651e-09 0)
(0.0010396 2.96374e-09 0)
(0.0010396 2.2226e-09 0)
(0.0010396 1.60262e-09 0)
(0.0010396 1.08594e-09 0)
(0.0010396 6.56252e-10 0)
(0.0010396 3.01516e-10 0)
(0.0010396 1.06358e-11 0)
(0.0010396 -2.25854e-10 0)
(0.00110202 0.000125247 0)
(0.00109441 0.000114524 0)
(0.00108742 0.000104566 0)
(0.00108126 9.53939e-05 0)
(0.001076 8.69659e-05 0)
(0.00107157 7.92091e-05 0)
(0.00106779 7.20753e-05 0)
(0.0010645 6.55412e-05 0)
(0.00106159 5.95655e-05 0)
(0.00105907 5.40737e-05 0)
(0.00105694 4.89982e-05 0)
(0.00105511 4.43282e-05 0)
(0.00105349 4.01086e-05 0)
(0.00105202 3.63816e-05 0)
(0.00105069 3.31222e-05 0)
(0.00104951 3.02205e-05 0)
(0.00104855 2.75233e-05 0)
(0.00104783 2.49022e-05 0)
(0.00104733 2.23019e-05 0)
(0.00104699 1.97427e-05 0)
(0.00104675 1.72901e-05 0)
(0.00104653 1.50182e-05 0)
(0.00104626 1.29832e-05 0)
(0.00104589 1.12114e-05 0)
(0.00104541 9.69875e-06 0)
(0.00104487 8.41987e-06 0)
(0.00104428 7.34073e-06 0)
(0.0010437 6.42656e-06 0)
(0.00104313 5.64477e-06 0)
(0.00104261 4.96638e-06 0)
(0.00104215 4.36767e-06 0)
(0.00104175 3.83143e-06 0)
(0.00104141 3.34698e-06 0)
(0.00104112 2.90893e-06 0)
(0.00104088 2.51552e-06 0)
(0.00104068 2.16671e-06 0)
(0.00104051 1.86258e-06 0)
(0.00104037 1.60209e-06 0)
(0.00104026 1.38264e-06 0)
(0.00104016 1.20016e-06 0)
(0.00104008 1.04961e-06 0)
(0.00104002 9.25635e-07 0)
(0.00103997 8.23053e-07 0)
(0.00103993 7.37237e-07 0)
(0.0010399 6.64295e-07 0)
(0.00103987 6.01131e-07 0)
(0.00103985 5.45403e-07 0)
(0.00103984 4.95423e-07 0)
(0.00103982 4.50024e-07 0)
(0.00103981 4.08423e-07 0)
(0.00103979 3.70107e-07 0)
(0.00103978 3.34744e-07 0)
(0.00103977 3.02108e-07 0)
(0.00103976 2.72039e-07 0)
(0.00103975 2.44404e-07 0)
(0.00103973 2.19084e-07 0)
(0.00103972 1.95962e-07 0)
(0.00103971 1.74918e-07 0)
(0.0010397 1.55826e-07 0)
(0.00103969 1.38559e-07 0)
(0.00103968 1.22986e-07 0)
(0.00103968 1.08976e-07 0)
(0.00103967 9.64014e-08 0)
(0.00103966 8.51386e-08 0)
(0.00103965 7.50689e-08 0)
(0.00103965 6.60807e-08 0)
(0.00103964 5.80697e-08 0)
(0.00103964 5.09396e-08 0)
(0.00103963 4.46021e-08 0)
(0.00103963 3.89764e-08 0)
(0.00103963 3.39893e-08 0)
(0.00103962 2.95738e-08 0)
(0.00103962 2.56692e-08 0)
(0.00103962 2.22202e-08 0)
(0.00103961 1.91772e-08 0)
(0.00103961 1.64955e-08 0)
(0.00103961 1.41353e-08 0)
(0.00103961 1.2061e-08 0)
(0.00103961 1.02411e-08 0)
(0.00103961 8.64819e-09 0)
(0.0010396 7.25792e-09 0)
(0.0010396 6.04807e-09 0)
(0.0010396 4.99838e-09 0)
(0.0010396 4.09044e-09 0)
(0.0010396 3.3077e-09 0)
(0.0010396 2.63522e-09 0)
(0.0010396 2.06047e-09 0)
(0.0010396 1.57062e-09 0)
(0.0010396 1.15481e-09 0)
(0.0010396 8.035e-10 0)
(0.00107538 0.000141238 0)
(0.0010697 0.000128308 0)
(0.00106457 0.000116471 0)
(0.00106024 0.000105659 0)
(0.00105676 9.57991e-05 0)
(0.00105398 8.68237e-05 0)
(0.00105172 7.8653e-05 0)
(0.00104984 7.11916e-05 0)
(0.00104828 6.43566e-05 0)
(0.00104701 5.81054e-05 0)
(0.00104595 5.24341e-05 0)
(0.00104503 4.73506e-05 0)
(0.00104423 4.28356e-05 0)
(0.00104354 3.88165e-05 0)
(0.001043 3.51761e-05 0)
(0.00104263 3.17919e-05 0)
(0.00104243 2.85791e-05 0)
(0.00104237 2.55101e-05 0)
(0.0010424 2.26075e-05 0)
(0.00104244 1.99191e-05 0)
(0.00104245 1.74892e-05 0)
(0.00104241 1.53413e-05 0)
(0.0010423 1.34745e-05 0)
(0.00104213 1.1868e-05 0)
(0.00104191 1.0489e-05 0)
(0.00104168 9.30069e-06 0)
(0.00104144 8.26909e-06 0)
(0.00104121 7.36625e-06 0)
(0.00104099 6.56984e-06 0)
(0.0010408 5.86174e-06 0)
(0.00104063 5.22728e-06 0)
(0.00104048 4.65528e-06 0)
(0.00104035 4.13797e-06 0)
(0.00104024 3.67046e-06 0)
(0.00104014 3.24985e-06 0)
(0.00104005 2.87426e-06 0)
(0.00103997 2.5419e-06 0)
(0.00103989 2.25043e-06 0)
(0.00103983 1.99665e-06 0)
(0.00103978 1.77665e-06 0)
(0.00103973 1.58608e-06 0)
(0.00103969 1.42052e-06 0)
(0.00103966 1.27586e-06 0)
(0.00103964 1.14843e-06 0)
(0.00103962 1.0352e-06 0)
(0.0010396 9.33729e-07 0)
(0.0010396 8.4213e-07 0)
(0.00103959 7.58986e-07 0)
(0.00103959 6.83237e-07 0)
(0.00103959 6.14092e-07 0)
(0.00103959 5.50945e-07 0)
(0.00103959 4.93317e-07 0)
(0.0010396 4.40804e-07 0)
(0.0010396 3.93056e-07 0)
(0.0010396 3.49747e-07 0)
(0.0010396 3.1057e-07 0)
(0.00103961 2.75229e-07 0)
(0.00103961 2.43437e-07 0)
(0.00103961 2.14913e-07 0)
(0.00103961 1.89389e-07 0)
(0.00103961 1.66605e-07 0)
(0.00103961 1.46316e-07 0)
(0.00103961 1.28289e-07 0)
(0.00103961 1.12307e-07 0)
(0.00103961 9.81684e-08 0)
(0.00103961 8.56844e-08 0)
(0.00103961 7.4683e-08 0)
(0.00103961 6.50059e-08 0)
(0.00103961 5.65088e-08 0)
(0.00103961 4.906e-08 0)
(0.00103961 4.25399e-08 0)
(0.00103961 3.68402e-08 0)
(0.00103961 3.18627e-08 0)
(0.00103961 2.75194e-08 0)
(0.00103961 2.37318e-08 0)
(0.0010396 2.04302e-08 0)
(0.0010396 1.75532e-08 0)
(0.0010396 1.50472e-08 0)
(0.0010396 1.28651e-08 0)
(0.0010396 1.09663e-08 0)
(0.0010396 9.31541e-09 0)
(0.0010396 7.88163e-09 0)
(0.0010396 6.63805e-09 0)
(0.0010396 5.56104e-09 0)
(0.0010396 4.62991e-09 0)
(0.0010396 3.82645e-09 0)
(0.0010396 3.13469e-09 0)
(0.0010396 2.54048e-09 0)
(0.0010396 2.0314e-09 0)
(0.0010396 1.5966e-09 0)
(0.00104378 0.000152208 0)
(0.00104074 0.000137269 0)
(0.00103818 0.000123746 0)
(0.00103632 0.000111523 0)
(0.00103509 0.000100498 0)
(0.00103436 9.0556e-05 0)
(0.00103397 8.157e-05 0)
(0.0010338 7.34244e-05 0)
(0.00103378 6.60462e-05 0)
(0.00103384 5.9401e-05 0)
(0.00103396 5.34594e-05 0)
(0.00103412 4.81648e-05 0)
(0.00103435 4.34243e-05 0)
(0.00103465 3.91255e-05 0)
(0.00103505 3.51692e-05 0)
(0.00103552 3.14952e-05 0)
(0.00103604 2.80845e-05 0)
(0.00103658 2.49442e-05 0)
(0.00103707 2.20916e-05 0)
(0.00103749 1.95395e-05 0)
(0.00103783 1.72856e-05 0)
(0.0010381 1.53103e-05 0)
(0.00103831 1.35824e-05 0)
(0.00103846 1.20668e-05 0)
(0.00103857 1.07295e-05 0)
(0.00103866 9.54119e-06 0)
(0.00103874 8.47885e-06 0)
(0.00103881 7.52588e-06 0)
(0.00103887 6.66974e-06 0)
(0.00103893 5.89977e-06 0)
(0.00103898 5.20641e-06 0)
(0.00103904 4.58159e-06 0)
(0.00103909 4.01906e-06 0)
(0.00103913 3.51428e-06 0)
(0.00103918 3.06392e-06 0)
(0.00103921 2.66525e-06 0)
(0.00103925 2.31553e-06 0)
(0.00103928 2.01158e-06 0)
(0.0010393 1.74959e-06 0)
(0.00103933 1.52521e-06 0)
(0.00103935 1.33378e-06 0)
(0.00103938 1.17069e-06 0)
(0.0010394 1.03155e-06 0)
(0.00103942 9.12439e-07 0)
(0.00103944 8.09944e-07 0)
(0.00103945 7.21201e-07 0)
(0.00103947 6.43857e-07 0)
(0.00103949 5.76004e-07 0)
(0.0010395 5.16115e-07 0)
(0.00103952 4.62969e-07 0)
(0.00103953 4.15588e-07 0)
(0.00103954 3.73185e-07 0)
(0.00103955 3.35124e-07 0)
(0.00103956 3.00883e-07 0)
(0.00103956 2.70027e-07 0)
(0.00103957 2.42192e-07 0)
(0.00103958 2.17066e-07 0)
(0.00103958 1.94379e-07 0)
(0.00103958 1.73896e-07 0)
(0.00103959 1.55409e-07 0)
(0.00103959 1.3873e-07 0)
(0.00103959 1.23693e-07 0)
(0.00103959 1.10146e-07 0)
(0.00103959 9.79516e-08 0)
(0.0010396 8.69845e-08 0)
(0.0010396 7.71307e-08 0)
(0.0010396 6.8286e-08 0)
(0.0010396 6.03557e-08 0)
(0.0010396 5.32534e-08 0)
(0.0010396 4.69008e-08 0)
(0.0010396 4.12267e-08 0)
(0.0010396 3.61665e-08 0)
(0.0010396 3.16614e-08 0)
(0.0010396 2.76581e-08 0)
(0.0010396 2.41077e-08 0)
(0.0010396 2.09653e-08 0)
(0.0010396 1.81896e-08 0)
(0.0010396 1.57425e-08 0)
(0.0010396 1.35893e-08 0)
(0.0010396 1.16982e-08 0)
(0.0010396 1.004e-08 0)
(0.0010396 8.58849e-09 0)
(0.0010396 7.32011e-09 0)
(0.0010396 6.21367e-09 0)
(0.0010396 5.25022e-09 0)
(0.0010396 4.41288e-09 0)
(0.0010396 3.68663e-09 0)
(0.0010396 3.05804e-09 0)
(0.0010396 2.51524e-09 0)
(0.0010396 2.04769e-09 0)
(0.00100865 0.000156375 0)
(0.00100932 0.000139695 0)
(0.00101011 0.000124882 0)
(0.0010112 0.000111745 0)
(0.0010126 0.000100071 0)
(0.00101418 8.96512e-05 0)
(0.00101583 8.03136e-05 0)
(0.00101744 7.19389e-05 0)
(0.00101898 6.44477e-05 0)
(0.00102043 5.77708e-05 0)
(0.00102181 5.18222e-05 0)
(0.00102316 4.64969e-05 0)
(0.00102448 4.16877e-05 0)
(0.00102579 3.73068e-05 0)
(0.00102708 3.32989e-05 0)
(0.00102832 2.96388e-05 0)
(0.0010295 2.63167e-05 0)
(0.00103059 2.33253e-05 0)
(0.00103158 2.06548e-05 0)
(0.00103244 1.82894e-05 0)
(0.00103321 1.62048e-05 0)
(0.0010339 1.43695e-05 0)
(0.00103451 1.27509e-05 0)
(0.00103506 1.13197e-05 0)
(0.00103555 1.00509e-05 0)
(0.00103599 8.92326e-06 0)
(0.00103639 7.91945e-06 0)
(0.00103676 7.02542e-06 0)
(0.00103709 6.22921e-06 0)
(0.00103738 5.51973e-06 0)
(0.00103764 4.88657e-06 0)
(0.00103788 4.3207e-06 0)
(0.00103808 3.8148e-06 0)
(0.00103827 3.36322e-06 0)
(0.00103842 2.96156e-06 0)
(0.00103856 2.60613e-06 0)
(0.00103868 2.29348e-06 0)
(0.00103878 2.02005e-06 0)
(0.00103887 1.78204e-06 0)
(0.00103894 1.57547e-06 0)
(0.00103901 1.39631e-06 0)
(0.00103907 1.2407e-06 0)
(0.00103912 1.10509e-06 0)
(0.00103917 9.86361e-07 0)
(0.00103921 8.81859e-07 0)
(0.00103925 7.89383e-07 0)
(0.00103928 7.07139e-07 0)
(0.00103931 6.33679e-07 0)
(0.00103934 5.67836e-07 0)
(0.00103937 5.08665e-07 0)
(0.00103939 4.55394e-07 0)
(0.00103942 4.07384e-07 0)
(0.00103944 3.64095e-07 0)
(0.00103946 3.25065e-07 0)
(0.00103947 2.89892e-07 0)
(0.00103949 2.5822e-07 0)
(0.0010395 2.29732e-07 0)
(0.00103951 2.0414e-07 0)
(0.00103952 1.81183e-07 0)
(0.00103953 1.60619e-07 0)
(0.00103954 1.42229e-07 0)
(0.00103955 1.25808e-07 0)
(0.00103956 1.11168e-07 0)
(0.00103956 9.81351e-08 0)
(0.00103957 8.6548e-08 0)
(0.00103957 7.62589e-08 0)
(0.00103958 6.71317e-08 0)
(0.00103958 5.90424e-08 0)
(0.00103958 5.1878e-08 0)
(0.00103958 4.55368e-08 0)
(0.00103959 3.99273e-08 0)
(0.00103959 3.49677e-08 0)
(0.00103959 3.05852e-08 0)
(0.00103959 2.67152e-08 0)
(0.00103959 2.33002e-08 0)
(0.00103959 2.02893e-08 0)
(0.00103959 1.76368e-08 0)
(0.00103959 1.53023e-08 0)
(0.00103959 1.32497e-08 0)
(0.00103959 1.14469e-08 0)
(0.00103959 9.86523e-09 0)
(0.00103959 8.47922e-09 0)
(0.0010396 7.26624e-09 0)
(0.0010396 6.20615e-09 0)
(0.0010396 5.28094e-09 0)
(0.0010396 4.47477e-09 0)
(0.0010396 3.7735e-09 0)
(0.0010396 3.16447e-09 0)
(0.0010396 2.63667e-09 0)
(0.0010396 2.18023e-09 0)
(0.000970051 0.000150414 0)
(0.00097557 0.00013342 0)
(0.000980461 0.000118586 0)
(0.000985036 0.000105584 0)
(0.000989381 9.41117e-05 0)
(0.000993463 8.39322e-05 0)
(0.000997239 7.48782e-05 0)
(0.0010007 6.68251e-05 0)
(0.00100386 5.96627e-05 0)
(0.0010068 5.32786e-05 0)
(0.00100955 4.75589e-05 0)
(0.00101215 4.24025e-05 0)
(0.00101463 3.77326e-05 0)
(0.00101697 3.34989e-05 0)
(0.00101918 2.96717e-05 0)
(0.00102124 2.62322e-05 0)
(0.00102314 2.31621e-05 0)
(0.00102488 2.04388e-05 0)
(0.00102645 1.80366e-05 0)
(0.00102787 1.59272e-05 0)
(0.00102914 1.40786e-05 0)
(0.00103029 1.24571e-05 0)
(0.00103132 1.10315e-05 0)
(0.00103225 9.77552e-06 0)
(0.00103308 8.66656e-06 0)
(0.00103382 7.68497e-06 0)
(0.00103449 6.81396e-06 0)
(0.00103508 6.0396e-06 0)
(0.00103561 5.35002e-06 0)
(0.00103607 4.73465e-06 0)
(0.00103649 4.1842e-06 0)
(0.00103685 3.691e-06 0)
(0.00103718 3.24906e-06 0)
(0.00103746 2.85384e-06 0)
(0.00103771 2.5018e-06 0)
(0.00103793 2.18997e-06 0)
(0.00103812 1.91557e-06 0)
(0.00103829 1.67567e-06 0)
(0.00103843 1.46709e-06 0)
(0.00103856 1.28647e-06 0)
(0.00103868 1.1304e-06 0)
(0.00103878 9.95603e-07 0)
(0.00103886 8.79025e-07 0)
(0.00103894 7.77955e-07 0)
(0.00103901 6.90043e-07 0)
(0.00103908 6.1329e-07 0)
(0.00103913 5.46026e-07 0)
(0.00103918 4.86862e-07 0)
(0.00103923 4.34643e-07 0)
(0.00103927 3.88409e-07 0)
(0.00103931 3.47359e-07 0)
(0.00103934 3.10819e-07 0)
(0.00103937 2.78222e-07 0)
(0.0010394 2.49084e-07 0)
(0.00103942 2.22995e-07 0)
(0.00103944 1.996e-07 0)
(0.00103946 1.78598e-07 0)
(0.00103947 1.59726e-07 0)
(0.00103949 1.42755e-07 0)
(0.0010395 1.27487e-07 0)
(0.00103951 1.13748e-07 0)
(0.00103952 1.01386e-07 0)
(0.00103953 9.02654e-08 0)
(0.00103954 8.02663e-08 0)
(0.00103955 7.12822e-08 0)
(0.00103955 6.32181e-08 0)
(0.00103956 5.5988e-08 0)
(0.00103956 4.95143e-08 0)
(0.00103957 4.37261e-08 0)
(0.00103957 3.85586e-08 0)
(0.00103958 3.39519e-08 0)
(0.00103958 2.98514e-08 0)
(0.00103958 2.62063e-08 0)
(0.00103958 2.29702e-08 0)
(0.00103958 2.0101e-08 0)
(0.00103959 1.756e-08 0)
(0.00103959 1.53126e-08 0)
(0.00103959 1.33274e-08 0)
(0.00103959 1.15758e-08 0)
(0.00103959 1.00325e-08 0)
(0.00103959 8.67448e-09 0)