/*--------------------------------*- C++ -*----------------------------------*\
| =========                 |                                                 |
| \\      /  F ield         | OpenFOAM: The Open Source CFD Toolbox           |
|  \\    /   O peration     | Version:  2312                                  |
|   \\  /    A nd           | Website:  www.openfoam.com                      |
|    \\/     M anipulation  |                                                 |
\*---------------------------------------------------------------------------*/
FoamFile
{
    version     2.0;
    format      ascii;
    arch        "LSB;label=32;scalar=64";
    class       volScalarField;
    location    "127000";
    object      p;
}
// * * * * * * * * * * * * * * * * * * * * * * * * * * * * * * * * * * * * * //

dimensions      [0 2 -2 0 0 0 0];

internalField   nonuniform List<scalar> 
2715
(
5.36716e-07
5.22594e-07
5.08829e-07
4.98254e-07
4.90836e-07
4.85449e-07
4.81004e-07
4.76932e-07
4.73064e-07
4.69408e-07
4.66001e-07
4.62847e-07
4.59912e-07
4.57147e-07
4.54505e-07
4.51952e-07
4.49468e-07
4.47039e-07
4.44655e-07
4.42306e-07
4.39984e-07
4.37681e-07
4.35392e-07
4.33109e-07
4.3083e-07
4.2855e-07
4.26266e-07
4.23975e-07
4.21677e-07
4.19369e-07
4.17049e-07
4.14718e-07
4.12374e-07
4.10018e-07
4.07649e-07
4.05267e-07
4.02872e-07
4.00466e-07
3.98048e-07
3.9562e-07
3.9318e-07
3.90731e-07
3.88272e-07
3.85803e-07
3.83324e-07
3.80835e-07
3.78336e-07
3.75822e-07
3.73299e-07
3.7075e-07
3.68198e-07
3.65591e-07
3.6301e-07
3.60284e-07
3.57712e-07
3.54662e-07
3.52384e-07
3.48067e-07
3.47848e-07
3.37332e-07
4.88666e-07
4.8694e-07
4.84296e-07
4.81173e-07
4.7796e-07
4.7487e-07
4.71952e-07
4.69172e-07
4.66477e-07
4.63838e-07
4.61249e-07
4.58716e-07
4.56244e-07
4.53834e-07
4.5148e-07
4.49172e-07
4.46901e-07
4.44659e-07
4.42441e-07
4.40241e-07
4.38055e-07
4.35879e-07
4.33709e-07
4.31543e-07
4.29377e-07
4.27209e-07
4.25036e-07
4.22856e-07
4.20669e-07
4.18472e-07
4.16265e-07
4.14047e-07
4.11818e-07
4.09577e-07
4.07325e-07
4.05059e-07
4.02783e-07
4.00493e-07
3.98195e-07
3.95882e-07
3.93564e-07
3.91227e-07
3.8889e-07
3.86529e-07
3.84176e-07
3.8179e-07
3.79424e-07
3.77009e-07
3.7464e-07
3.72192e-07
3.6984e-07
3.67362e-07
3.6508e-07
3.62591e-07
3.60516e-07
3.58084e-07
3.56552e-07
3.54257e-07
3.53876e-07
3.51302e-07
4.79909e-07
4.79159e-07
4.77747e-07
4.75798e-07
4.73517e-07
4.71101e-07
4.68675e-07
4.66291e-07
4.63952e-07
4.61644e-07
4.59358e-07
4.57095e-07
4.54859e-07
4.52656e-07
4.50487e-07
4.4835e-07
4.46241e-07
4.44156e-07
4.42089e-07
4.40037e-07
4.37997e-07
4.35965e-07
4.3394e-07
4.31918e-07
4.29898e-07
4.27877e-07
4.25854e-07
4.23826e-07
4.21794e-07
4.19755e-07
4.17709e-07
4.15655e-07
4.13593e-07
4.11521e-07
4.09442e-07
4.07351e-07
4.05253e-07
4.03143e-07
4.01027e-07
3.98898e-07
3.96765e-07
3.94616e-07
3.92466e-07
3.90297e-07
3.88133e-07
3.85944e-07
3.83768e-07
3.8156e-07
3.7938e-07
3.77155e-07
3.74983e-07
3.72748e-07
3.70607e-07
3.68372e-07
3.66299e-07
3.6408e-07
3.62128e-07
3.59932e-07
3.5814e-07
3.55871e-07
4.68157e-07
4.67725e-07
4.66939e-07
4.65851e-07
4.64529e-07
4.63045e-07
4.61455e-07
4.59798e-07
4.58097e-07
4.56361e-07
4.54597e-07
4.52811e-07
4.51008e-07
4.49196e-07
4.47378e-07
4.45559e-07
4.43738e-07
4.41918e-07
4.40097e-07
4.38275e-07
4.36451e-07
4.34625e-07
4.32796e-07
4.30965e-07
4.29129e-07
4.27289e-07
4.25443e-07
4.23593e-07
4.21736e-07
4.19873e-07
4.18004e-07
4.16127e-07
4.14245e-07
4.12355e-07
4.10459e-07
4.08555e-07
4.06645e-07
4.04728e-07
4.02805e-07
4.00874e-07
3.98939e-07
3.96993e-07
3.95044e-07
3.93084e-07
3.91119e-07
3.89141e-07
3.87159e-07
3.85158e-07
3.83154e-07
3.81123e-07
3.7909e-07
3.77022e-07
3.74953e-07
3.72838e-07
3.70728e-07
3.68557e-07
3.66399e-07
3.64162e-07
3.61952e-07
3.59666e-07
4.6143e-07
4.61217e-07
4.60787e-07
4.60143e-07
4.59301e-07
4.58291e-07
4.57144e-07
4.55892e-07
4.54558e-07
4.5316e-07
4.51711e-07
4.50218e-07
4.4869e-07
4.47133e-07
4.45553e-07
4.43954e-07
4.42341e-07
4.40715e-07
4.3908e-07
4.37436e-07
4.35785e-07
4.34126e-07
4.32461e-07
4.30791e-07
4.29115e-07
4.27434e-07
4.25748e-07
4.24058e-07
4.22363e-07
4.20664e-07
4.1896e-07
4.17253e-07
4.15543e-07
4.13829e-07
4.12112e-07
4.10393e-07
4.08671e-07
4.06946e-07
4.0522e-07
4.03491e-07
4.0176e-07
4.00026e-07
3.9829e-07
3.9655e-07
3.94807e-07
3.9306e-07
3.91307e-07
3.89547e-07
3.87778e-07
3.85997e-07
3.842e-07
3.82381e-07
3.80529e-07
3.78635e-07
3.76681e-07
3.74655e-07
3.72541e-07
3.7035e-07
3.68087e-07
3.65842e-07
4.5588e-07
4.55719e-07
4.55395e-07
4.54913e-07
4.54282e-07
4.53519e-07
4.52642e-07
4.51669e-07
4.50615e-07
4.49493e-07
4.48313e-07
4.47083e-07
4.45809e-07
4.44497e-07
4.43152e-07
4.4178e-07
4.40383e-07
4.38967e-07
4.37532e-07
4.36082e-07
4.34618e-07
4.33143e-07
4.31657e-07
4.30162e-07
4.28659e-07
4.27149e-07
4.25633e-07
4.24111e-07
4.22586e-07
4.21056e-07
4.19524e-07
4.17989e-07
4.16452e-07
4.14915e-07
4.13377e-07
4.1184e-07
4.10303e-07
4.08767e-07
4.07232e-07
4.05699e-07
4.04167e-07
4.02637e-07
4.01107e-07
3.99578e-07
3.98048e-07
3.96515e-07
3.94976e-07
3.93432e-07
3.91874e-07
3.90305e-07
3.88716e-07
3.87111e-07
3.85479e-07
3.83828e-07
3.82136e-07
3.80407e-07
3.7861e-07
3.76763e-07
3.74859e-07
3.73022e-07
4.515e-07
4.51381e-07
4.51145e-07
4.50791e-07
4.50322e-07
4.49747e-07
4.49074e-07
4.48314e-07
4.47476e-07
4.4657e-07
4.45603e-07
4.44582e-07
4.43514e-07
4.42403e-07
4.41254e-07
4.40071e-07
4.38859e-07
4.3762e-07
4.3636e-07
4.35079e-07
4.33781e-07
4.32467e-07
4.31141e-07
4.29803e-07
4.28456e-07
4.27101e-07
4.2574e-07
4.24373e-07
4.23003e-07
4.2163e-07
4.20256e-07
4.18882e-07
4.17509e-07
4.16138e-07
4.14769e-07
4.13405e-07
4.12046e-07
4.10693e-07
4.09345e-07
4.08005e-07
4.06672e-07
4.05346e-07
4.04029e-07
4.02719e-07
4.01417e-07
4.00122e-07
3.98834e-07
3.97552e-07
3.96271e-07
3.94993e-07
3.93705e-07
3.92408e-07
3.91085e-07
3.8974e-07
3.88359e-07
3.86957e-07
3.85515e-07
3.84056e-07
3.82577e-07
3.81191e-07
4.4801e-07
4.47918e-07
4.47734e-07
4.47456e-07
4.47087e-07
4.4663e-07
4.4609e-07
4.45474e-07
4.44787e-07
4.44037e-07
4.43227e-07
4.42364e-07
4.41454e-07
4.405e-07
4.39507e-07
4.38479e-07
4.3742e-07
4.36334e-07
4.35223e-07
4.3409e-07
4.32939e-07
4.31771e-07
4.3059e-07
4.29396e-07
4.28193e-07
4.26981e-07
4.25764e-07
4.24543e-07
4.23319e-07
4.22094e-07
4.2087e-07
4.19648e-07
4.1843e-07
4.17218e-07
4.16012e-07
4.14814e-07
4.13625e-07
4.12447e-07
4.11281e-07
4.10128e-07
4.08988e-07
4.07863e-07
4.06754e-07
4.0566e-07
4.04582e-07
4.0352e-07
4.02472e-07
4.0144e-07
4.0042e-07
3.99417e-07
3.98425e-07
3.97446e-07
3.96469e-07
3.95494e-07
3.94508e-07
3.93521e-07
3.92522e-07
3.91539e-07
3.90578e-07
3.89742e-07
4.45204e-07
4.45129e-07
4.44978e-07
4.44751e-07
4.44448e-07
4.44072e-07
4.43625e-07
4.43111e-07
4.42535e-07
4.41901e-07
4.41213e-07
4.40476e-07
4.39692e-07
4.38868e-07
4.38005e-07
4.37108e-07
4.36179e-07
4.35224e-07
4.34243e-07
4.3324e-07
4.32219e-07
4.3118e-07
4.30128e-07
4.29064e-07
4.2799e-07
4.26909e-07
4.25823e-07
4.24734e-07
4.23644e-07
4.22556e-07
4.2147e-07
4.20389e-07
4.19314e-07
4.18249e-07
4.17194e-07
4.16152e-07
4.15124e-07
4.14112e-07
4.13118e-07
4.12144e-07
4.11191e-07
4.10261e-07
4.09354e-07
4.08475e-07
4.07622e-07
4.06798e-07
4.06003e-07
4.05239e-07
4.04504e-07
4.03801e-07
4.03123e-07
4.02474e-07
4.01851e-07
4.01259e-07
4.00692e-07
4.00158e-07
3.99648e-07
3.99186e-07
3.98781e-07
3.9852e-07
4.42957e-07
4.42894e-07
4.42767e-07
4.42575e-07
4.42319e-07
4.41999e-07
4.41619e-07
4.41181e-07
4.40687e-07
4.40142e-07
4.39547e-07
4.38907e-07
4.38225e-07
4.37503e-07
4.36746e-07
4.35955e-07
4.35134e-07
4.34287e-07
4.33415e-07
4.32522e-07
4.3161e-07
4.30682e-07
4.2974e-07
4.28788e-07
4.27827e-07
4.26859e-07
4.25888e-07
4.24915e-07
4.23943e-07
4.22975e-07
4.22011e-07
4.21056e-07
4.20111e-07
4.19178e-07
4.18259e-07
4.17358e-07
4.16476e-07
4.15616e-07
4.1478e-07
4.13971e-07
4.1319e-07
4.12441e-07
4.11725e-07
4.11046e-07
4.10405e-07
4.09805e-07
4.09249e-07
4.08739e-07
4.08276e-07
4.07861e-07
4.07495e-07
4.07183e-07
4.06925e-07
4.06726e-07
4.06586e-07
4.06511e-07
4.065e-07
4.06573e-07
4.06743e-07
4.07083e-07
4.41181e-07
4.41126e-07
4.41016e-07
4.40849e-07
4.40627e-07
4.40349e-07
4.40018e-07
4.39635e-07
4.39203e-07
4.38724e-07
4.382e-07
4.37635e-07
4.37031e-07
4.36389e-07
4.35714e-07
4.35008e-07
4.34274e-07
4.33514e-07
4.3273e-07
4.31927e-07
4.31105e-07
4.30269e-07
4.29419e-07
4.2856e-07
4.27694e-07
4.26822e-07
4.25949e-07
4.25075e-07
4.24204e-07
4.23339e-07
4.22481e-07
4.21635e-07
4.20801e-07
4.19983e-07
4.19184e-07
4.18407e-07
4.17654e-07
4.16928e-07
4.16233e-07
4.15571e-07
4.14946e-07
4.1436e-07
4.13818e-07
4.13322e-07
4.12876e-07
4.12485e-07
4.1215e-07
4.11875e-07
4.11663e-07
4.11521e-07
4.11451e-07
4.11459e-07
4.11549e-07
4.11727e-07
4.11995e-07
4.12363e-07
4.12834e-07
4.13427e-07
4.14157e-07
4.1508e-07
4.39814e-07
4.39765e-07
4.39666e-07
4.39518e-07
4.3932e-07
4.39072e-07
4.38776e-07
4.38433e-07
4.38046e-07
4.37616e-07
4.37145e-07
4.36635e-07
4.36089e-07
4.35509e-07
4.34897e-07
4.34256e-07
4.33588e-07
4.32896e-07
4.32182e-07
4.31449e-07
4.30699e-07
4.29935e-07
4.2916e-07
4.28376e-07
4.27586e-07
4.26792e-07
4.25997e-07
4.25204e-07
4.24416e-07
4.23635e-07
4.22865e-07
4.22108e-07
4.21366e-07
4.20644e-07
4.19945e-07
4.1927e-07
4.18625e-07
4.18012e-07
4.17435e-07
4.16898e-07
4.16403e-07
4.15957e-07
4.15561e-07
4.15222e-07
4.14942e-07
4.14728e-07
4.14584e-07
4.14515e-07
4.14526e-07
4.14624e-07
4.14815e-07
4.15107e-07
4.15505e-07
4.16017e-07
4.16652e-07
4.17418e-07
4.18326e-07
4.19391e-07
4.20632e-07
4.22089e-07
4.3881e-07
4.38765e-07
4.38675e-07
4.38539e-07
4.38357e-07
4.3813e-07
4.37859e-07
4.37544e-07
4.37188e-07
4.36793e-07
4.36359e-07
4.35889e-07
4.35385e-07
4.34849e-07
4.34282e-07
4.33688e-07
4.33069e-07
4.32426e-07
4.31763e-07
4.31082e-07
4.30385e-07
4.29676e-07
4.28956e-07
4.28228e-07
4.27494e-07
4.26759e-07
4.26024e-07
4.25292e-07
4.24566e-07
4.2385e-07
4.23145e-07
4.22456e-07
4.21786e-07
4.21137e-07
4.20513e-07
4.19918e-07
4.19356e-07
4.1883e-07
4.18345e-07
4.17904e-07
4.17512e-07
4.17174e-07
4.16894e-07
4.16678e-07
4.1653e-07
4.16458e-07
4.16465e-07
4.1656e-07
4.16749e-07
4.17041e-07
4.17444e-07
4.17964e-07
4.18612e-07
4.19398e-07
4.20332e-07
4.21426e-07
4.22693e-07
4.24148e-07
4.25813e-07
4.27714e-07
4.38139e-07
4.38097e-07
4.38012e-07
4.37884e-07
4.37713e-07
4.37498e-07
4.37242e-07
4.36946e-07
4.36609e-07
4.36235e-07
4.35825e-07
4.35381e-07
4.34903e-07
4.34395e-07
4.33858e-07
4.33294e-07
4.32706e-07
4.32096e-07
4.31467e-07
4.30819e-07
4.30157e-07
4.29483e-07
4.28799e-07
4.28108e-07
4.27412e-07
4.26715e-07
4.26019e-07
4.25328e-07
4.24644e-07
4.2397e-07
4.23309e-07
4.22665e-07
4.22042e-07
4.21442e-07
4.20869e-07
4.20328e-07
4.19821e-07
4.19354e-07
4.1893e-07
4.18554e-07
4.18232e-07
4.17967e-07
4.17766e-07
4.17634e-07
4.17576e-07
4.176e-07
4.17713e-07
4.1792e-07
4.18232e-07
4.18658e-07
4.19206e-07
4.19886e-07
4.2071e-07
4.21686e-07
4.22831e-07
4.24156e-07
4.25678e-07
4.27411e-07
4.29377e-07
4.31595e-07
4.37781e-07
4.3774e-07
4.37658e-07
4.37534e-07
4.37367e-07
4.37159e-07
4.3691e-07
4.36622e-07
4.36295e-07
4.35932e-07
4.35533e-07
4.351e-07
4.34635e-07
4.3414e-07
4.33617e-07
4.33068e-07
4.32495e-07
4.319e-07
4.31286e-07
4.30655e-07
4.30009e-07
4.29352e-07
4.28685e-07
4.28011e-07
4.27334e-07
4.26655e-07
4.25978e-07
4.25305e-07
4.24641e-07
4.23987e-07
4.23347e-07
4.22725e-07
4.22123e-07
4.21546e-07
4.20998e-07
4.20481e-07
4.20001e-07
4.19561e-07
4.19167e-07
4.18822e-07
4.18532e-07
4.18302e-07
4.18138e-07
4.18046e-07
4.18033e-07
4.18104e-07
4.18268e-07
4.18532e-07
4.18905e-07
4.19396e-07
4.20015e-07
4.20773e-07
4.21683e-07
4.22755e-07
4.24005e-07
4.25445e-07
4.27094e-07
4.28967e-07
4.31086e-07
4.33464e-07
4.37728e-07
4.37687e-07
4.37605e-07
4.3748e-07
4.37314e-07
4.37105e-07
4.36856e-07
4.36567e-07
4.3624e-07
4.35875e-07
4.35476e-07
4.35042e-07
4.34576e-07
4.3408e-07
4.33556e-07
4.33006e-07
4.32432e-07
4.31835e-07
4.3122e-07
4.30587e-07
4.2994e-07
4.29281e-07
4.28612e-07
4.27936e-07
4.27256e-07
4.26575e-07
4.25896e-07
4.25221e-07
4.24554e-07
4.23897e-07
4.23254e-07
4.22629e-07
4.22024e-07
4.21444e-07
4.20892e-07
4.20372e-07
4.19888e-07
4.19445e-07
4.19046e-07
4.18696e-07
4.18401e-07
4.18166e-07
4.17996e-07
4.17898e-07
4.17878e-07
4.17943e-07
4.18101e-07
4.18358e-07
4.18724e-07
4.19208e-07
4.19819e-07
4.20569e-07
4.2147e-07
4.22533e-07
4.23773e-07
4.25203e-07
4.26842e-07
4.28704e-07
4.30811e-07
4.33178e-07
4.3798e-07
4.37938e-07
4.37853e-07
4.37724e-07
4.37552e-07
4.37337e-07
4.37079e-07
4.36781e-07
4.36443e-07
4.36067e-07
4.35654e-07
4.35207e-07
4.34727e-07
4.34216e-07
4.33676e-07
4.33109e-07
4.32517e-07
4.31902e-07
4.31268e-07
4.30616e-07
4.29949e-07
4.2927e-07
4.2858e-07
4.27883e-07
4.27181e-07
4.26477e-07
4.25774e-07
4.25075e-07
4.24383e-07
4.23701e-07
4.23032e-07
4.22379e-07
4.21745e-07
4.21135e-07
4.20552e-07
4.19999e-07
4.19481e-07
4.19002e-07
4.18565e-07
4.18177e-07
4.1784e-07
4.1756e-07
4.17343e-07
4.17193e-07
4.17117e-07
4.17122e-07
4.17216e-07
4.17404e-07
4.17696e-07
4.181e-07
4.18625e-07
4.1928e-07
4.20077e-07
4.21027e-07
4.22143e-07
4.23437e-07
4.24927e-07
4.26627e-07
4.28558e-07
4.30742e-07
4.38547e-07
4.38502e-07
4.38411e-07
4.38275e-07
4.38091e-07
4.37862e-07
4.37589e-07
4.37272e-07
4.36913e-07
4.36514e-07
4.36076e-07
4.35602e-07
4.35093e-07
4.34552e-07
4.3398e-07
4.3338e-07
4.32755e-07
4.32105e-07
4.31435e-07
4.30746e-07
4.30041e-07
4.29323e-07
4.28593e-07
4.27855e-07
4.27111e-07
4.26365e-07
4.25618e-07
4.24874e-07
4.24135e-07
4.23405e-07
4.22686e-07
4.21982e-07
4.21295e-07
4.20629e-07
4.19988e-07
4.19375e-07
4.18794e-07
4.18248e-07
4.17741e-07
4.17278e-07
4.16863e-07
4.165e-07
4.16195e-07
4.15952e-07
4.15774e-07
4.1567e-07
4.15646e-07
4.15708e-07
4.15863e-07
4.16118e-07
4.16482e-07
4.16962e-07
4.17568e-07
4.18308e-07
4.19195e-07
4.20239e-07
4.21454e-07
4.22855e-07
4.24462e-07
4.26306e-07
4.3945e-07
4.394e-07
4.39301e-07
4.39151e-07
4.38951e-07
4.38701e-07
4.38401e-07
4.38055e-07
4.37664e-07
4.37229e-07
4.36753e-07
4.36238e-07
4.35685e-07
4.35098e-07
4.34479e-07
4.3383e-07
4.33153e-07
4.32451e-07
4.31727e-07
4.30983e-07
4.30222e-07
4.29446e-07
4.28658e-07
4.2786e-07
4.27055e-07
4.26246e-07
4.25435e-07
4.24625e-07
4.23819e-07
4.23019e-07
4.22228e-07
4.2145e-07
4.20687e-07
4.19942e-07
4.19217e-07
4.18518e-07
4.17846e-07
4.17205e-07
4.16598e-07
4.1603e-07
4.15503e-07
4.15023e-07
4.14592e-07
4.14216e-07
4.13898e-07
4.13641e-07
4.13452e-07
4.13337e-07
4.133e-07
4.13348e-07
4.13487e-07
4.13723e-07
4.14063e-07
4.14514e-07
4.15083e-07
4.15782e-07
4.16618e-07
4.17608e-07
4.18771e-07
4.2015e-07
4.40719e-07
4.40664e-07
4.40552e-07
4.40384e-07
4.40159e-07
4.39878e-07
4.39543e-07
4.39156e-07
4.38718e-07
4.38233e-07
4.37703e-07
4.37131e-07
4.36518e-07
4.35868e-07
4.35183e-07
4.34467e-07
4.33721e-07
4.32949e-07
4.32153e-07
4.31336e-07
4.305e-07
4.29648e-07
4.28782e-07
4.27906e-07
4.27021e-07
4.2613e-07
4.25235e-07
4.2434e-07
4.23446e-07
4.22557e-07
4.21674e-07
4.20801e-07
4.19939e-07
4.19092e-07
4.18263e-07
4.17453e-07
4.16666e-07
4.15905e-07
4.15173e-07
4.14472e-07
4.13806e-07
4.13177e-07
4.1259e-07
4.12048e-07
4.11553e-07
4.1111e-07
4.10719e-07
4.10385e-07
4.10113e-07
4.09908e-07
4.09772e-07
4.09711e-07
4.09728e-07
4.09829e-07
4.10016e-07
4.10299e-07
4.10681e-07
4.1118e-07
4.11814e-07
4.1264e-07
4.42402e-07
4.42338e-07
4.4221e-07
4.42016e-07
4.41756e-07
4.41433e-07
4.41048e-07
4.40605e-07
4.40105e-07
4.39552e-07
4.3895e-07
4.38301e-07
4.37609e-07
4.36877e-07
4.36108e-07
4.35304e-07
4.3447e-07
4.33609e-07
4.32721e-07
4.31812e-07
4.30882e-07
4.29936e-07
4.28974e-07
4.28001e-07
4.27018e-07
4.26027e-07
4.25031e-07
4.24032e-07
4.23033e-07
4.22036e-07
4.21042e-07
4.20055e-07
4.19076e-07
4.18108e-07
4.17152e-07
4.16213e-07
4.1529e-07
4.14388e-07
4.13507e-07
4.12651e-07
4.11822e-07
4.11022e-07
4.10253e-07
4.09518e-07
4.08818e-07
4.08158e-07
4.07537e-07
4.06958e-07
4.06421e-07
4.0593e-07
4.05485e-07
4.05091e-07
4.04748e-07
4.0446e-07
4.04224e-07
4.04049e-07
4.03932e-07
4.03896e-07
4.03953e-07
4.04178e-07
4.44562e-07
4.44486e-07
4.44333e-07
4.44104e-07
4.43797e-07
4.43416e-07
4.42964e-07
4.42444e-07
4.41861e-07
4.41218e-07
4.40521e-07
4.39773e-07
4.38979e-07
4.38142e-07
4.37266e-07
4.36354e-07
4.3541e-07
4.34438e-07
4.33439e-07
4.32418e-07
4.31376e-07
4.30316e-07
4.29241e-07
4.28153e-07
4.27053e-07
4.25946e-07
4.24831e-07
4.23712e-07
4.22591e-07
4.21468e-07
4.20348e-07
4.1923e-07
4.18117e-07
4.17011e-07
4.15914e-07
4.14828e-07
4.13753e-07
4.12692e-07
4.11647e-07
4.10619e-07
4.0961e-07
4.08621e-07
4.07654e-07
4.0671e-07
4.05791e-07
4.04897e-07
4.04029e-07
4.03188e-07
4.0237e-07
4.01577e-07
4.00807e-07
4.00064e-07
3.99344e-07
3.9865e-07
3.97975e-07
3.97327e-07
3.96698e-07
3.96113e-07
3.9558e-07
3.95191e-07
4.47286e-07
4.47193e-07
4.47007e-07
4.46727e-07
4.46354e-07
4.45891e-07
4.45346e-07
4.44722e-07
4.44027e-07
4.43267e-07
4.42447e-07
4.41573e-07
4.4065e-07
4.39682e-07
4.38674e-07
4.3763e-07
4.36553e-07
4.35448e-07
4.34317e-07
4.33163e-07
4.31989e-07
4.30797e-07
4.29589e-07
4.28369e-07
4.27137e-07
4.25895e-07
4.24646e-07
4.23391e-07
4.22131e-07
4.20869e-07
4.19606e-07
4.18343e-07
4.17082e-07
4.15824e-07
4.1457e-07
4.13323e-07
4.12082e-07
4.10849e-07
4.09626e-07
4.08412e-07
4.0721e-07
4.0602e-07
4.04841e-07
4.03675e-07
4.02521e-07
4.0138e-07
4.00249e-07
3.9913e-07
3.98022e-07
3.96928e-07
3.95839e-07
3.94756e-07
3.93667e-07
3.92575e-07
3.91468e-07
3.90357e-07
3.89228e-07
3.8811e-07
3.87009e-07
3.86031e-07
4.50702e-07
4.50583e-07
4.50344e-07
4.49986e-07
4.49514e-07
4.48933e-07
4.48254e-07
4.47485e-07
4.46638e-07
4.45722e-07
4.44743e-07
4.4371e-07
4.42628e-07
4.41501e-07
4.40335e-07
4.39134e-07
4.37903e-07
4.36644e-07
4.35361e-07
4.34056e-07
4.32733e-07
4.31393e-07
4.30038e-07
4.28671e-07
4.27292e-07
4.25903e-07
4.24507e-07
4.23103e-07
4.21694e-07
4.2028e-07
4.18863e-07
4.17444e-07
4.16023e-07
4.14603e-07
4.13182e-07
4.11764e-07
4.10347e-07
4.08934e-07
4.07524e-07
4.06118e-07
4.04717e-07
4.0332e-07
4.01927e-07
4.0054e-07
3.99156e-07
3.97778e-07
3.96401e-07
3.95027e-07
3.93649e-07
3.92267e-07
3.90868e-07
3.89452e-07
3.88007e-07
3.86537e-07
3.8503e-07
3.83497e-07
3.81915e-07
3.8031e-07
3.78681e-07
3.77142e-07
4.55016e-07
4.54853e-07
4.54527e-07
4.54041e-07
4.53406e-07
4.52636e-07
4.51752e-07
4.5077e-07
4.49706e-07
4.48572e-07
4.4738e-07
4.46136e-07
4.44846e-07
4.43518e-07
4.42155e-07
4.40763e-07
4.39345e-07
4.37906e-07
4.36447e-07
4.34972e-07
4.33481e-07
4.31976e-07
4.3046e-07
4.28932e-07
4.27395e-07
4.25849e-07
4.24295e-07
4.22733e-07
4.21165e-07
4.19592e-07
4.18013e-07
4.16429e-07
4.14842e-07
4.13251e-07
4.11657e-07
4.10061e-07
4.08462e-07
4.06862e-07
4.0526e-07
4.03656e-07
4.02051e-07
4.00444e-07
3.98833e-07
3.97219e-07
3.956e-07
3.93974e-07
3.92338e-07
3.90691e-07
3.89027e-07
3.87347e-07
3.85645e-07
3.83924e-07
3.82173e-07
3.80398e-07
3.78573e-07
3.76702e-07
3.74751e-07
3.72744e-07
3.70677e-07
3.68678e-07
4.6051e-07
4.60296e-07
4.59863e-07
4.59215e-07
4.58369e-07
4.57352e-07
4.56197e-07
4.54935e-07
4.53591e-07
4.52181e-07
4.50717e-07
4.49209e-07
4.47665e-07
4.46089e-07
4.44489e-07
4.42869e-07
4.41233e-07
4.39584e-07
4.37922e-07
4.36251e-07
4.3457e-07
4.3288e-07
4.31183e-07
4.29478e-07
4.27765e-07
4.26046e-07
4.2432e-07
4.22587e-07
4.20847e-07
4.19101e-07
4.17349e-07
4.1559e-07
4.13825e-07
4.12055e-07
4.10279e-07
4.08497e-07
4.0671e-07
4.04918e-07
4.0312e-07
4.01317e-07
3.99508e-07
3.97693e-07
3.95873e-07
3.94045e-07
3.9221e-07
3.90366e-07
3.88514e-07
3.8665e-07
3.84774e-07
3.82881e-07
3.80965e-07
3.79022e-07
3.77038e-07
3.75003e-07
3.729e-07
3.70719e-07
3.68447e-07
3.66093e-07
3.63663e-07
3.61252e-07
4.67186e-07
4.66752e-07
4.65964e-07
4.64872e-07
4.63544e-07
4.62053e-07
4.60454e-07
4.58787e-07
4.57074e-07
4.55325e-07
4.53547e-07
4.51744e-07
4.49924e-07
4.48092e-07
4.46254e-07
4.44411e-07
4.42567e-07
4.40721e-07
4.38872e-07
4.37021e-07
4.35166e-07
4.33307e-07
4.31444e-07
4.29575e-07
4.27701e-07
4.2582e-07
4.23933e-07
4.22037e-07
4.20134e-07
4.18221e-07
4.163e-07
4.1437e-07
4.12431e-07
4.10482e-07
4.08523e-07
4.06554e-07
4.04577e-07
4.02588e-07
4.00591e-07
3.98582e-07
3.96565e-07
3.94535e-07
3.92496e-07
3.90443e-07
3.88382e-07
3.86302e-07
3.84213e-07
3.82101e-07
3.7998e-07
3.77828e-07
3.75667e-07
3.73466e-07
3.71259e-07
3.69001e-07
3.66743e-07
3.64421e-07
3.62107e-07
3.59712e-07
3.57339e-07
3.54883e-07
4.78905e-07
4.78154e-07
4.76739e-07
4.74784e-07
4.72497e-07
4.70073e-07
4.67638e-07
4.65243e-07
4.6289e-07
4.60568e-07
4.58267e-07
4.55986e-07
4.53731e-07
4.51507e-07
4.49315e-07
4.47154e-07
4.4502e-07
4.42907e-07
4.40811e-07
4.38729e-07
4.36656e-07
4.3459e-07
4.32528e-07
4.30468e-07
4.28408e-07
4.26345e-07
4.24278e-07
4.22204e-07
4.20123e-07
4.18034e-07
4.15935e-07
4.13824e-07
4.11704e-07
4.09571e-07
4.07428e-07
4.0527e-07
4.03102e-07
4.00919e-07
3.98726e-07
3.96517e-07
3.943e-07
3.92063e-07
3.89822e-07
3.87558e-07
3.85295e-07
3.83003e-07
3.8072e-07
3.784e-07
3.76104e-07
3.73758e-07
3.7146e-07
3.69094e-07
3.66816e-07
3.64438e-07
3.62214e-07
3.59839e-07
3.5772e-07
3.55352e-07
3.53379e-07
3.50927e-07
4.87631e-07
4.85903e-07
4.83257e-07
4.80129e-07
4.76909e-07
4.73811e-07
4.70882e-07
4.6809e-07
4.65382e-07
4.62727e-07
4.60121e-07
4.57569e-07
4.55077e-07
4.52645e-07
4.50267e-07
4.47934e-07
4.45636e-07
4.43365e-07
4.41117e-07
4.38885e-07
4.36665e-07
4.34454e-07
4.32247e-07
4.30042e-07
4.27835e-07
4.25623e-07
4.23405e-07
4.21178e-07
4.18941e-07
4.16693e-07
4.14432e-07
4.12156e-07
4.09868e-07
4.07564e-07
4.05246e-07
4.02912e-07
4.00565e-07
3.982e-07
3.95823e-07
3.93428e-07
3.91023e-07
3.88597e-07
3.86166e-07
3.83708e-07
3.81253e-07
3.7876e-07
3.76285e-07
3.73754e-07
3.71266e-07
3.68693e-07
3.66213e-07
3.63599e-07
3.6118e-07
3.58545e-07
3.56321e-07
3.5373e-07
3.52036e-07
3.49571e-07
3.49015e-07
3.46257e-07
5.35669e-07
5.21545e-07
5.07776e-07
4.97196e-07
4.8977e-07
4.84374e-07
4.79918e-07
4.75832e-07
4.71949e-07
4.68277e-07
4.64852e-07
4.61678e-07
4.58722e-07
4.55934e-07
4.53267e-07
4.50688e-07
4.48177e-07
4.45718e-07
4.43302e-07
4.4092e-07
4.38564e-07
4.36226e-07
4.33898e-07
4.31576e-07
4.29255e-07
4.26932e-07
4.24602e-07
4.22264e-07
4.19916e-07
4.17556e-07
4.15182e-07
4.12793e-07
4.1039e-07
4.07971e-07
4.05536e-07
4.03085e-07
4.00619e-07
3.98138e-07
3.95642e-07
3.93131e-07
3.90605e-07
3.88066e-07
3.85513e-07
3.82946e-07
3.80366e-07
3.7777e-07
3.75161e-07
3.72533e-07
3.6989e-07
3.67218e-07
3.64539e-07
3.61799e-07
3.59081e-07
3.56212e-07
3.53497e-07
3.50292e-07
3.47864e-07
3.43379e-07
3.42997e-07
3.3232e-07
3.43789e-07
3.42515e-07
3.37789e-07
3.31817e-07
3.25986e-07
3.21196e-07
3.17939e-07
3.16325e-07
3.16131e-07
3.16865e-07
3.17924e-07
3.18824e-07
3.19303e-07
3.19421e-07
3.19482e-07
3.52928e-07
3.4927e-07
3.42986e-07
3.37045e-07
3.3267e-07
3.30036e-07
3.28921e-07
3.28941e-07
3.29666e-07
3.30539e-07
3.31127e-07
3.31335e-07
3.31408e-07
3.31741e-07
3.3266e-07
3.34361e-07
3.3678e-07
3.3978e-07
3.43035e-07
3.46182e-07
3.49222e-07
3.52384e-07
3.55474e-07
3.5761e-07
3.57372e-07
3.53472e-07
3.41817e-07
3.13783e-07
2.80737e-07
1.05251e-07
3.54047e-07
3.50816e-07
3.47037e-07
3.438e-07
3.41646e-07
3.40494e-07
3.39909e-07
3.39461e-07
3.38954e-07
3.38552e-07
3.3871e-07
3.39797e-07
3.41845e-07
3.44601e-07
3.4776e-07
3.51166e-07
3.54763e-07
3.58475e-07
3.62351e-07
3.66563e-07
3.71492e-07
3.77079e-07
3.82659e-07
3.87437e-07
3.90654e-07
3.91112e-07
3.84853e-07
3.67839e-07
3.3564e-07
1.96952e-07
3.57495e-07
3.55419e-07
3.53641e-07
3.52269e-07
3.51356e-07
3.50848e-07
3.50611e-07
3.50576e-07
3.50834e-07
3.5165e-07
3.53225e-07
3.55594e-07
3.58625e-07
3.62041e-07
3.65572e-07
3.69125e-07
3.72875e-07
3.77168e-07
3.82365e-07
3.88699e-07
3.96029e-07
4.03841e-07
4.11547e-07
4.19001e-07
4.25841e-07
4.30771e-07
4.3054e-07
4.21892e-07
3.94357e-07
2.88494e-07
3.63742e-07
3.6233e-07
3.61567e-07
3.61223e-07
3.61146e-07
3.61307e-07
3.61747e-07
3.62544e-07
3.63791e-07
3.6554e-07
3.67756e-07
3.70328e-07
3.73151e-07
3.76259e-07
3.79885e-07
3.84391e-07
3.90033e-07
3.96814e-07
4.04571e-07
4.1312e-07
4.22152e-07
4.31503e-07
4.41382e-07
4.51948e-07
4.62641e-07
4.72043e-07
4.77707e-07
4.76376e-07
4.56574e-07
3.79346e-07
3.71384e-07
3.70554e-07
3.70478e-07
3.70887e-07
3.71576e-07
3.72485e-07
3.73662e-07
3.75186e-07
3.77117e-07
3.79472e-07
3.82244e-07
3.85447e-07
3.8916e-07
3.93565e-07
3.98852e-07
4.05111e-07
4.12336e-07
4.20383e-07
4.29059e-07
4.38312e-07
4.48371e-07
4.59678e-07
4.72522e-07
4.86575e-07
5.00944e-07
5.14579e-07
5.25775e-07
5.31334e-07
5.20466e-07
4.67038e-07
3.8004e-07
3.79758e-07
3.80271e-07
3.81308e-07
3.82652e-07
3.84226e-07
3.86056e-07
3.8822e-07
3.90791e-07
3.93827e-07
3.97377e-07
4.01504e-07
4.06282e-07
4.11781e-07
4.18049e-07
4.2508e-07
4.32843e-07
4.41395e-07
4.50971e-07
4.61951e-07
4.74655e-07
4.89119e-07
5.05079e-07
5.22019e-07
5.39532e-07
5.57258e-07
5.73827e-07
5.85995e-07
5.8445e-07
5.50813e-07
3.89174e-07
3.89451e-07
3.90505e-07
3.92091e-07
3.94009e-07
3.96181e-07
3.98631e-07
4.01435e-07
4.04678e-07
4.08434e-07
4.12765e-07
4.17724e-07
4.23364e-07
4.29735e-07
4.36892e-07
4.44919e-07
4.53947e-07
4.64189e-07
4.7587e-07
4.89108e-07
5.03918e-07
5.20177e-07
5.37773e-07
5.56835e-07
5.77573e-07
5.99584e-07
6.21266e-07
6.39533e-07
6.46645e-07
6.28835e-07
3.9854e-07
3.99365e-07
4.00927e-07
4.03015e-07
4.05456e-07
4.08186e-07
4.1123e-07
4.14664e-07
4.18572e-07
4.23033e-07
4.28109e-07
4.33859e-07
4.40345e-07
4.4764e-07
4.55837e-07
4.65046e-07
4.75398e-07
4.87026e-07
5.00053e-07
5.14563e-07
5.30615e-07
5.48358e-07
5.68138e-07
5.90276e-07
6.14712e-07
6.40709e-07
6.66779e-07
6.90408e-07
7.05356e-07
7.00192e-07
4.07709e-07
4.09062e-07
4.11088e-07
4.13623e-07
4.16533e-07
4.1977e-07
4.23365e-07
4.27389e-07
4.31923e-07
4.37044e-07
4.42819e-07
4.49313e-07
4.566e-07
4.64762e-07
4.73898e-07
4.84121e-07
4.95554e-07
5.08331e-07
5.22601e-07
5.38546e-07
5.56397e-07
5.76423e-07
5.98825e-07
6.23608e-07
6.50579e-07
6.79285e-07
7.08925e-07
7.37353e-07
7.59043e-07
7.63445e-07
4.16291e-07
4.18133e-07
4.20577e-07
4.23508e-07
4.26833e-07
4.30526e-07
4.34622e-07
4.39185e-07
4.44292e-07
4.50018e-07
4.56433e-07
4.63611e-07
4.7163e-07
4.80581e-07
4.90571e-07
5.0172e-07
5.14168e-07
5.28071e-07
5.43609e-07
5.60979e-07
5.80394e-07
6.02049e-07
6.26115e-07
6.52672e-07
6.81742e-07
7.13176e-07
7.46358e-07
7.79053e-07
8.06302e-07
8.17661e-07
4.23832e-07
4.26107e-07
4.28906e-07
4.32167e-07
4.35841e-07
4.39922e-07
4.44444e-07
4.49468e-07
4.55066e-07
4.6131e-07
4.68274e-07
4.76035e-07
4.84677e-07
4.943e-07
5.05016e-07
5.16952e-07
5.30256e-07
5.45093e-07
5.61649e-07
5.80122e-07
6.00734e-07
6.23705e-07
6.49271e-07
6.77629e-07
7.08894e-07
7.42848e-07
7.78763e-07
8.14464e-07
8.45788e-07
8.61809e-07
4.29899e-07
4.32522e-07
4.35602e-07
4.39121e-07
4.43068e-07
4.47452e-07
4.52313e-07
4.57705e-07
4.63693e-07
4.7035e-07
4.7775e-07
4.85975e-07
4.95114e-07
5.05272e-07
5.16564e-07
5.29125e-07
5.43107e-07
5.58681e-07
5.76042e-07
5.95402e-07
6.16996e-07
6.4107e-07
6.67874e-07
6.97598e-07
7.30346e-07
7.65907e-07
8.03664e-07
8.41593e-07
8.76033e-07
8.95358e-07
4.34094e-07
4.36962e-07
4.40235e-07
4.4393e-07
4.48063e-07
4.52656e-07
4.5775e-07
4.63395e-07
4.69654e-07
4.76596e-07
4.84297e-07
4.92841e-07
5.02322e-07
5.12847e-07
5.24535e-07
5.37523e-07
5.51968e-07
5.68046e-07
5.85955e-07
6.05915e-07
6.28169e-07
6.52966e-07
6.80562e-07
7.11158e-07
7.44883e-07
7.81563e-07
8.20635e-07
8.601e-07
8.96527e-07
9.17877e-07
4.36122e-07
4.39113e-07
4.42482e-07
4.46264e-07
4.50489e-07
4.55186e-07
4.60397e-07
4.66169e-07
4.72563e-07
4.79647e-07
4.87499e-07
4.96203e-07
5.05855e-07
5.16563e-07
5.28449e-07
5.41651e-07
5.56328e-07
5.72657e-07
5.90841e-07
6.11099e-07
6.3368e-07
6.58834e-07
6.86826e-07
7.17861e-07
7.52076e-07
7.89299e-07
8.28977e-07
8.69131e-07
9.06459e-07
9.28737e-07
4.35825e-07
4.38807e-07
4.4217e-07
4.45947e-07
4.50166e-07
4.54857e-07
4.60061e-07
4.65826e-07
4.72212e-07
4.79288e-07
4.87132e-07
4.95827e-07
5.0547e-07
5.16168e-07
5.28044e-07
5.41235e-07
5.559e-07
5.72215e-07
5.90384e-07
6.10625e-07
6.33187e-07
6.58319e-07
6.86285e-07
7.17289e-07
7.51467e-07
7.88645e-07
8.28266e-07
8.68349e-07
9.05581e-07
9.27747e-07
4.33207e-07
4.36049e-07
4.39302e-07
4.42982e-07
4.47098e-07
4.51674e-07
4.56747e-07
4.6237e-07
4.68606e-07
4.75524e-07
4.83201e-07
4.91719e-07
5.01173e-07
5.11669e-07
5.23326e-07
5.3628e-07
5.50689e-07
5.66726e-07
5.84591e-07
6.04501e-07
6.26697e-07
6.51428e-07
6.78947e-07
7.0945e-07
7.43063e-07
7.79606e-07
8.18508e-07
8.57758e-07
8.93897e-07
9.14914e-07
4.28436e-07
4.31017e-07
4.34064e-07
4.37557e-07
4.41477e-07
4.45832e-07
4.50658e-07
4.56013e-07
4.61964e-07
4.68581e-07
4.7594e-07
4.84122e-07
4.93217e-07
5.03327e-07
5.14567e-07
5.27073e-07
5.40994e-07
5.56502e-07
5.73789e-07
5.93065e-07
6.14566e-07
6.38531e-07
6.65208e-07
6.94783e-07
7.27349e-07
7.62682e-07
8.00148e-07
8.37708e-07
8.71654e-07
8.90424e-07
4.21819e-07
4.24034e-07
4.26788e-07
4.30012e-07
4.33648e-07
4.37687e-07
4.42161e-07
4.47135e-07
4.52679e-07
4.58868e-07
4.65775e-07
4.73477e-07
4.82058e-07
4.91615e-07
5.02259e-07
5.14118e-07
5.27339e-07
5.42084e-07
5.58536e-07
5.76894e-07
5.97373e-07
6.20189e-07
6.45576e-07
6.73724e-07
7.04742e-07
7.38393e-07
7.73912e-07
8.09093e-07
8.39698e-07
8.5491e-07
4.13758e-07
4.15525e-07
4.17911e-07
4.20793e-07
4.24069e-07
4.27709e-07
4.31743e-07
4.36241e-07
4.4128e-07
4.46935e-07
4.53279e-07
4.60381e-07
4.68321e-07
4.77188e-07
4.87088e-07
4.9814e-07
5.10482e-07
5.24269e-07
5.39679e-07
5.56905e-07
5.76156e-07
5.97621e-07
6.21458e-07
6.47737e-07
6.76471e-07
7.07508e-07
7.40197e-07
7.72245e-07
7.98576e-07
8.0879e-07
4.04695e-07
4.05957e-07
4.07913e-07
4.10387e-07
4.13236e-07
4.16406e-07
4.19928e-07
4.23872e-07
4.28323e-07
4.33359e-07
4.39046e-07
4.45451e-07
4.52642e-07
4.60703e-07
4.6973e-07
4.79835e-07
4.9114e-07
5.03774e-07
5.17886e-07
5.33653e-07
5.51307e-07
5.71113e-07
5.93258e-07
6.17724e-07
6.44292e-07
6.72496e-07
7.01516e-07
7.29153e-07
7.49733e-07
7.52613e-07
3.95086e-07
3.95806e-07
3.97285e-07
3.99299e-07
4.01667e-07
4.04317e-07
4.07274e-07
4.10615e-07
4.14426e-07
4.18787e-07
4.23761e-07
4.29406e-07
4.35781e-07
4.42958e-07
4.51029e-07
4.60105e-07
4.70312e-07
4.8178e-07
4.94627e-07
5.08932e-07
5.24743e-07
5.42209e-07
5.61677e-07
5.83459e-07
6.07457e-07
6.32886e-07
6.58216e-07
6.80894e-07
6.9452e-07
6.87434e-07
3.85324e-07
3.85484e-07