/*--------------------------------*- C++ -*----------------------------------*\
| =========                 |                                                 |
| \\      /  F ield         | OpenFOAM: The Open Source CFD Toolbox           |
|  \\    /   O peration     | Version:  2312                                  |
|   \\  /    A nd           | Website:  www.openfoam.com                      |
|    \\/     M anipulation  |                                                 |
\*---------------------------------------------------------------------------*/
FoamFile
{
    version     2.0;
    format      ascii;
    arch        "LSB;label=32;scalar=64";
    class       volVectorField;
    location    "174000";
    object      U;
}
// * * * * * * * * * * * * * * * * * * * * * * * * * * * * * * * * * * * * * //

dimensions      [0 1 -1 0 0 0 0];

internalField   nonuniform List<vector> 
2715
(
(0.000261817 2.82734e-05 1.21048e-24)
(0.000273768 -4.10304e-06 0)
(0.000238889 -3.1412e-06 0)
(0.000223459 -3.81103e-06 0)
(0.000215523 -3.68069e-06 -2.87934e-23)
(0.000218874 -4.12093e-06 2.81742e-23)
(0.000219966 -4.21987e-06 0)
(0.000231015 -5.01522e-06 7.35608e-25)
(0.000235849 -4.49264e-06 0)
(0.000251361 -4.85491e-06 0)
(0.000256654 -3.77597e-06 -2.41283e-25)
(0.000273123 -3.76053e-06 0)
(0.000275578 -2.13116e-06 -7.07096e-26)
(0.000289558 -1.81458e-06 0)
(0.000286167 1.77535e-07 -6.1829e-25)
(0.000295043 5.4235e-07 6.17939e-25)
(0.000284217 2.37078e-06 0)
(0.000287039 2.09169e-06 -4.07897e-26)
(0.000269267 3.68286e-06 0)
(0.000267452 2.45905e-06 0)
(0.000245251 3.42975e-06 0)
(0.000241563 1.06022e-06 0)
(0.000218832 1.21277e-06 2.64813e-25)
(0.000215839 -1.37128e-06 0)
(0.00019754 -2.2718e-06 -4.53595e-24)
(0.000196767 -1.78867e-06 4.31333e-24)
(0.000188558 -1.02201e-05 0)
(0.000173755 2.23399e-06 0)
(0.000220967 2.85969e-05 0)
(-6.63035e-05 -6.70883e-05 1.17745e-25)
(0.000521694 4.82996e-05 7.13578e-23)
(0.00057314 1.326e-05 -7.55258e-23)
(0.000545198 1.6454e-05 2.03843e-24)
(0.000537279 9.17418e-06 0)
(0.000527998 4.04099e-06 0)
(0.000538903 -2.1182e-07 2.77504e-23)
(0.000538314 -1.37093e-06 -2.26328e-24)
(0.000561694 -4.27605e-06 -2.57519e-23)
(0.000566635 -3.88979e-06 -6.60218e-25)
(0.00059904 -6.21937e-06 0)
(0.000605489 -4.44619e-06 -6.27682e-24)
(0.000642164 -6.321e-06 7.03355e-24)
(0.000645789 -3.17305e-06 -1.80428e-24)
(0.000681542 -4.70718e-06 1.35055e-24)
(0.000678038 -2.85113e-07 -1.26299e-24)
(0.00070821 -1.80681e-06 1.58589e-24)
(0.000694533 3.71387e-06 -8.41578e-25)
(0.000716303 1.62334e-06 1.09937e-24)
(0.00069219 7.8842e-06 -3.90977e-24)
(0.000704938 4.80193e-06 4.1569e-24)
(0.00067372 1.15255e-05 0)
(0.00067794 6.5927e-06 -2.85924e-25)
(0.000648304 1.40235e-05 7.97007e-24)
(0.000641427 6.12682e-06 -1.12986e-24)
(0.000631103 1.61765e-05 -6.8059e-24)
(0.000593485 5.24542e-07 0)
(0.000649101 2.80423e-05 0)
(0.000489252 -3.18356e-05 6.23944e-26)
(0.000776624 8.94124e-05 2.81882e-24)
(0.000275963 -4.57921e-05 -2.71448e-24)
(0.000696789 4.84821e-05 4.78379e-24)
(0.000746682 2.35622e-06 -6.53165e-23)
(0.000737009 3.89697e-06 6.613e-23)
(0.00074395 -1.48094e-06 3.95966e-24)
(0.00074127 -5.8244e-06 0)
(0.00075985 -1.21722e-05 0)
(0.000761444 -1.36314e-05 -1.63136e-24)
(0.000789538 -1.84527e-05 0)
(0.00079568 -1.74369e-05 -1.06989e-23)
(0.000832073 -2.15463e-05 1.51426e-24)
(0.000840941 -1.78164e-05 1.56533e-23)
(0.000881742 -2.09692e-05 -7.06064e-24)
(0.000889855 -1.41952e-05 0)
(0.000930125 -1.65758e-05 0)
(0.000933755 -6.90095e-06 -2.64656e-24)
(0.000968584 -9.40572e-06 2.63316e-24)
(0.000965211 2.66959e-06 -5.4076e-26)
(0.000990565 -1.28932e-06 0)
(0.000980382 1.2601e-05 4.05798e-24)
(0.000993078 4.84641e-06 -8.60488e-24)
(0.000980632 2.12739e-05 -2.34475e-25)
(0.000976898 6.40862e-06 4.44083e-24)
(0.000973475 2.85846e-05 0)
(0.000944928 -4.00691e-08 -5.2766e-25)
(0.000973017 3.66461e-05 0)
(0.000897622 -1.83906e-05 0)
(0.00100204 5.71276e-05 3.96443e-25)
(0.000829636 -5.22005e-05 1.5247e-24)
(0.00108291 8.44138e-05 -1.77275e-24)
(0.000785521 -5.00185e-05 1.07485e-25)
(0.000829143 3.60472e-05 6.82953e-23)
(0.000870172 -2.0254e-06 -1.42141e-22)
(0.000870638 -7.85637e-07 4.02946e-23)
(0.000882889 -4.70918e-06 2.89887e-23)
(0.000885682 -8.71258e-06 0)
(0.000905898 -1.6764e-05 3.56209e-24)
(0.000913296 -1.85054e-05 -1.61853e-24)
(0.000939914 -2.58171e-05 0)
(0.0009523 -2.44773e-05 1.36779e-24)
(0.000984003 -3.10608e-05 -8.57977e-24)
(0.0010004 -2.58921e-05 8.12673e-24)
(0.00103408 -3.14667e-05 0)
(0.00105203 -2.19698e-05 -1.8125e-24)
(0.00108361 -2.69268e-05 1.32928e-24)
(0.00110028 -1.30244e-05 -2.11903e-24)
(0.00112545 -1.85518e-05 2.323e-24)
(0.00113903 -4.1093e-07 -8.69527e-25)
(0.00115376 -8.67594e-06 1.20328e-24)
(0.00116468 1.37833e-05 0)
(0.00116539 -4.21545e-07 -5.10151e-24)
(0.00117752 2.74454e-05 4.7946e-24)
(0.00116041 2.98059e-06 6.23727e-25)
(0.00118211 3.94248e-05 0)
(0.00114167 -1.74035e-06 -6.26347e-25)
(0.00118786 5.01081e-05 0)
(0.00111475 -1.63781e-05 -8.27751e-25)
(0.00120737 6.00251e-05 -3.62912e-24)
(0.00109056 -3.61073e-05 3.31501e-24)
(0.00125199 5.3181e-05 -2.56409e-24)
(0.00108161 -1.6533e-05 2.68658e-24)
(0.000933427 2.29196e-05 0)
(0.000963646 -7.04632e-06 6.02763e-23)
(0.0009694 -1.04805e-05 -1.07417e-22)
(0.000981049 -1.57472e-05 2.95109e-23)
(0.000988747 -1.96842e-05 0)
(0.00100738 -2.91616e-05 -3.66466e-24)
(0.00102073 -3.03843e-05 3.39188e-24)
(0.0010429 -3.86835e-05 0)
(0.0010614 -3.62132e-05 2.69061e-24)
(0.0010864 -4.39787e-05 0)
(0.00110957 -3.72171e-05 9.56521e-25)
(0.001135 -4.40714e-05 0)
(0.00116068 -3.21914e-05 0)
(0.00118326 -3.84706e-05 0)
(0.00120893 -2.12388e-05 -1.30114e-24)
(0.00122526 -2.82377e-05 1.29758e-24)
(0.00124901 -5.86722e-06 0)
(0.00125611 -1.58571e-05 0)
(0.00127759 1.14651e-05 0)
(0.00127325 -4.5412e-06 6.38697e-25)
(0.00129418 2.80282e-05 0)
(0.00127694 2.32311e-06 1.42043e-24)
(0.00130133 4.13161e-05 0)
(0.00127015 2.1102e-06 1.20291e-24)
(0.00130458 4.94737e-05 0)
(0.00125898 -5.97905e-06 8.51318e-25)
(0.00131193 4.87154e-05 -4.30199e-24)
(0.00125119 -1.48157e-05 5.55047e-24)
(0.00133431 2.70937e-05 -2.13385e-24)
(0.00124676 -4.69346e-06 0)
(0.00101538 8.96641e-06 6.49239e-23)
(0.00103645 -1.28182e-05 -1.45783e-22)
(0.00104564 -1.97285e-05 1.05016e-22)
(0.00105613 -2.57984e-05 -2.99543e-23)
(0.0010666 -2.83063e-05 -3.04523e-23)
(0.00108249 -3.80756e-05 2.70808e-23)
(0.00109873 -3.97917e-05 2.59138e-23)
(0.00111774 -4.90316e-05 -4.93784e-23)
(0.0011387 -4.68463e-05 2.06487e-23)
(0.00116009 -5.50069e-05 0)
(0.00118505 -4.82274e-05 -9.86117e-25)
(0.00120699 -5.49504e-05 7.26425e-25)
(0.00123379 -4.27843e-05 -1.64356e-24)
(0.00125364 -4.82978e-05 1.26563e-24)
(0.00127974 -3.06562e-05 2.19738e-24)
(0.00129486 -3.61683e-05 -2.24285e-24)
(0.00131807 -1.35967e-05 -1.10189e-24)
(0.00132646 -2.11264e-05 1.52096e-24)
(0.00134557 5.51409e-06 6.00278e-25)
(0.00134628 -6.42725e-06 -6.58457e-25)
(0.00136131 2.34221e-05 0)
(0.00135452 4.71126e-06 -1.32576e-23)
(0.00136678 3.68192e-05 2.29853e-23)
(0.00135359 9.89728e-06 -1.1185e-23)
(0.0013656 4.25263e-05 -9.85931e-24)
(0.00134791 8.71398e-06 8.56876e-24)
(0.00136395 3.62567e-05 5.00593e-24)
(0.00134262 4.81958e-06 -9.46083e-24)
(0.00137108 1.43814e-05 2.64569e-24)
(0.00134035 2.20843e-09 1.5924e-24)
(0.00107787 -4.56844e-06 -6.56498e-23)
(0.00109258 -1.94599e-05 1.3858e-23)
(0.00110333 -2.84056e-05 7.27952e-23)
(0.00111338 -3.58403e-05 -8.43092e-24)
(0.00112477 -3.89273e-05 3.09914e-23)
(0.00113923 -4.83366e-05 -2.00469e-23)
(0.00115585 -5.09611e-05 0)
(0.0011738 -5.97378e-05 0)
(0.0011942 -5.86388e-05 0)
(0.00121483 -6.56295e-05 2.30877e-24)
(0.00123807 -6.00788e-05 9.37165e-25)
(0.00125993 -6.48877e-05 -7.49744e-25)
(0.00128389 -5.41964e-05 0)
(0.00130475 -5.69041e-05 1.17775e-25)
(0.0013269 -4.11756e-05 7.26138e-24)
(0.00134454 -4.27837e-05 -7.26688e-24)
(0.0013626 -2.29334e-05 1.90269e-25)
(0.0013755 -2.50899e-05 0)
(0.00138795 -2.59507e-06 -6.19545e-25)
(0.0013956 -7.02042e-06 7.73583e-25)
(0.00140188 1.63181e-05 1.64082e-24)
(0.00140472 8.33997e-06 0)
(0.00140536 3.0212e-05 0)
(0.00140453 1.83951e-05 0)
(0.00140126 3.55341e-05 1.37836e-23)
(0.00139806 2.17394e-05 -9.68275e-24)
(0.00139484 2.95792e-05 0)
(0.00138933 1.80622e-05 -4.97055e-24)
(0.00139375 1.31308e-05 5.26883e-24)
(0.00138353 5.36153e-06 3.19255e-25)
(0.00112267 -1.70301e-05 0)
(0.00113363 -2.73337e-05 -9.43091e-24)
(0.00114469 -3.69342e-05 3.51764e-23)
(0.00115502 -4.54417e-05 -2.69134e-23)
(0.00116663 -4.9809e-05 0)
(0.00118051 -5.82641e-05 -7.71242e-24)
(0.0011966 -6.22072e-05 0)
(0.00121424 -6.97684e-05 0)
(0.00123343 -7.04385e-05 0)
(0.00125391 -7.54487e-05 6.06045e-24)
(0.00127509 -7.1959e-05 -1.60434e-23)
(0.00129719 -7.39315e-05 8.26497e-24)
(0.00131832 -6.57423e-05 -2.33765e-24)
(0.00134007 -6.46275e-05 -1.21709e-25)
(0.00135864 -5.20097e-05 1.56422e-23)
(0.00137812 -4.86172e-05 -1.5732e-23)
(0.00139184 -3.27927e-05 -1.96623e-25)
(0.00140779 -2.84659e-05 2.63288e-24)
(0.00141503 -1.13147e-05 -9.57878e-24)
(0.00142713 -7.39022e-06 1.22136e-23)
(0.00142706 8.85994e-06 -8.4949e-24)
(0.00143587 1.14294e-05 0)
(0.00142839 2.42311e-05 0)
(0.00143519 2.49481e-05 0)
(0.00142111 3.16094e-05 -2.84598e-24)
(0.00142786 3.06557e-05 0)
(0.00140915 2.91975e-05 6.80128e-24)
(0.00141824 2.64595e-05 -6.71966e-24)
(0.00139803 1.77335e-05 -8.68785e-25)
(0.00141253 1.16605e-05 0)
(0.00115135 -2.83669e-05 9.97934e-24)
(0.00116059 -3.632e-05 7.54427e-23)
(0.00117158 -4.5824e-05 -4.03423e-23)
(0.00118227 -5.47071e-05 -2.22983e-24)
(0.00119412 -6.0769e-05 -3.46583e-23)
(0.00120771 -6.81829e-05 0)
(0.00122342 -7.35377e-05 2.69687e-23)
(0.00124071 -7.95992e-05 -3.38297e-24)
(0.00125921 -8.21343e-05 -2.12909e-23)
(0.0012792 -8.49841e-05 -8.34266e-24)
(0.00129928 -8.36383e-05 8.39328e-24)
(0.00132086 -8.26705e-05 6.99828e-25)
(0.00134059 -7.70242e-05 3.87198e-25)
(0.00136195 -7.21174e-05 -6.50369e-26)
(0.00137889 -6.25527e-05 2.7591e-23)
(0.00139829 -5.44183e-05 -2.75695e-23)
(0.00141019 -4.23018e-05 -2.6987e-25)
(0.00142649 -3.21972e-05 7.16791e-25)
(0.00143175 -1.94703e-05 7.79329e-25)
(0.00144468 -8.76081e-06 -7.64263e-24)
(0.00144239 2.50746e-06 7.59646e-24)
(0.00145244 1.252e-05 1.82535e-23)
(0.00144228 2.03941e-05 -3.68543e-25)
(0.00145063 2.83693e-05 -1.54989e-23)
(0.00143294 3.14209e-05 0)
(0.00144153 3.57414e-05 1.08935e-23)
(0.00141747 3.33646e-05 -2.33394e-24)
(0.00142889 3.20764e-05 3.07571e-24)
(0.00140101 2.56343e-05 -1.16262e-23)
(0.00141852 1.77347e-05 5.52504e-25)
(0.00116558 -3.87231e-05 -9.04524e-23)
(0.00117451 -4.59645e-05 9.12651e-23)
(0.00118544 -5.5348e-05 -2.7459e-23)
(0.00119649 -6.4029e-05 6.34583e-23)
(0.00120875 -7.1632e-05 -3.54883e-23)
(0.00122232 -7.82476e-05 -2.23883e-23)
(0.00123796 -8.47724e-05 2.34213e-23)
(0.00125498 -8.95107e-05 0)
(0.00127328 -9.35094e-05 -5.57681e-24)
(0.00129275 -9.45839e-05 2.25337e-24)
(0.00131248 -9.48593e-05 0)
(0.00133329 -9.15389e-05 -2.00082e-24)
(0.00135263 -8.77208e-05 1.93801e-24)
(0.00137307 -7.9879e-05 3.63588e-26)
(0.00138969 -7.24023e-05 4.38414e-23)
(0.00140807 -6.0768e-05 -4.37905e-23)
(0.00141982 -5.09765e-05 -4.07342e-26)
(0.00143508 -3.69033e-05 -3.33509e-24)
(0.00144041 -2.65669e-05 3.40265e-24)
(0.00145231 -1.16377e-05 0)
(0.00145021 -2.46072e-06 2.30293e-24)
(0.00145932 1.16799e-05 -4.55235e-24)
(0.00144914 1.82732e-05 0)
(0.00145672 2.98606e-05 -2.11814e-23)
(0.0014382 3.26897e-05 2.0681e-23)
(0.00144633 3.97779e-05 1.29305e-23)
(0.00141976 3.79443e-05 -2.63461e-23)
(0.0014316 3.907e-05 1.02722e-23)
(0.00139826 3.25384e-05 -7.89509e-24)
(0.00141855 2.80933e-05 7.48751e-24)
(0.00116749 -4.84063e-05 -8.22898e-23)
(0.00117698 -5.59803e-05 1.52714e-22)
(0.00118804 -6.54607e-05 -1.00076e-22)
(0.00119962 -7.37567e-05 5.45285e-23)
(0.00121234 -8.23981e-05 -3.63729e-23)
(0.00122635 -8.86001e-05 -8.17715e-24)
(0.00124208 -9.58734e-05 3.50841e-23)
(0.00125929 -9.97643e-05 -2.79177e-23)
(0.00127757 -0.000104569 2.83949e-24)
(0.00129705 -0.000104557 -2.33519e-24)
(0.00131669 -0.000105625 0)
(0.00133725 -0.000100882 1.78237e-24)
(0.00135655 -9.7828e-05 -1.47294e-24)
(0.00137645 -8.82719e-05 -6.1973e-25)
(0.00139324 -8.154e-05 6.54276e-23)
(0.00141078 -6.79824e-05 -6.5366e-23)
(0.00142304 -5.88324e-05 3.16999e-24)
(0.00143715 -4.27579e-05 -1.55745e-25)
(0.00144341 -3.27711e-05 -3.88948e-24)
(0.00145389 -1.591e-05 0)
(0.00145312 -6.54006e-06 -2.38653e-24)
(0.00146051 9.3613e-06 2.45386e-24)
(0.00145193 1.68759e-05 2.0105e-23)
(0.0014574 3.00162e-05 -1.52175e-23)
(0.00144044 3.44463e-05 -4.34888e-24)
(0.00144594 4.3001e-05 1.53649e-23)
(0.00142049 4.32068e-05 -8.08748e-24)
(0.00142917 4.56808e-05 1.66114e-23)
(0.001396 4.12158e-05 -3.30268e-23)
(0.00141302 3.77872e-05 1.28222e-23)
(0.00116018 -5.80766e-05 -6.30282e-23)
(0.00117058 -6.63302e-05 1.48573e-23)
(0.00118198 -7.60913e-05 9.29014e-23)
(0.00119435 -8.41732e-05 -1.9106e-23)
(0.0012076 -9.33084e-05 0)
(0.00122248 -9.94461e-05 8.19601e-24)
(0.0012385 -0.000107029 7.37669e-24)
(0.00125643 -0.000110596 3.05721e-23)
(0.00127489 -0.00011558 -1.43654e-23)
(0.00129504 -0.000115141 -7.90223e-24)
(0.00131479 -0.000116239 -5.42344e-24)
(0.00133587 -0.000110907 4.90744e-24)
(0.00135527 -0.000107693 1.52647e-24)
(0.00137547 -9.74407e-05 -9.5586e-27)
(0.00139246 -9.03605e-05 9.3098e-23)
(0.00141001 -7.60732e-05 -9.32492e-23)
(0.00142274 -6.63538e-05 3.92863e-25)
(0.00143651 -4.95668e-05 -4.46931e-24)
(0.00144365 -3.87269e-05 -5.63856e-24)
(0.00145337 -2.11447e-05 1.0033e-23)
(0.00145404 -1.05812e-05 1.43554e-23)
(0.00146011 6.18755e-06 1.1867e-23)
(0.00145357 1.52259e-05 -1.69376e-23)
(0.00145692 2.96025e-05 5.90301e-24)
(0.00144259 3.57916e-05 5.60256e-24)
(0.00144476 4.61539e-05 0)
(0.00142254 4.80592e-05 -8.51686e-24)
(0.00142606 5.29739e-05 -2.20782e-23)
(0.00139694 4.96447e-05 5.99941e-24)
(0.00140637 4.94743e-05 2.03134e-23)
(0.00114747 -6.84536e-05 4.25444e-23)
(0.0011588 -7.7268e-05 -9.93891e-23)
(0.00117077 -8.73252e-05 -1.03106e-23)
(0.00118415 -9.54799e-05 9.85603e-24)
(0.0011981 -0.000104737 0)
(0.00121414 -0.000111056 -8.5023e-24)
(0.00123077 -0.000118631 -7.65606e-24)
(0.00124984 -0.00012226 -6.6975e-24)
(0.00126884 -0.000127015 9.80701e-24)
(0.00129019 -0.00012657 -1.21352e-23)
(0.00131039 -0.000127213 0)
(0.00133262 -0.000121782 1.01502e-24)
(0.00135235 -0.000117858 -1.21075e-24)
(0.00137358 -0.000107454 -1.1248e-25)
(0.00139082 -9.94355e-05 1.28365e-22)
(0.00140921 -8.49862e-05 -1.28379e-22)
(0.00142222 -7.41306e-05 5.2199e-25)
(0.00143659 -5.71577e-05 5.11883e-24)
(0.00144423 -4.50134e-05 -2.23922e-24)
(0.00145424 -2.71084e-05 0)
(0.00145576 -1.50804e-05 9.8874e-24)
(0.00146175 2.3499e-06 -1.28212e-23)
(0.00145647 1.30178e-05 -6.28152e-24)
(0.00145919 2.86341e-05 -6.12649e-24)
(0.00144643 3.65966e-05 -5.81186e-24)
(0.00144723 4.89493e-05 0)
(0.00142655 5.25965e-05 4.73932e-24)
(0.00142779 6.03302e-05 -4.78197e-24)
(0.00139977 5.83229e-05 2.15171e-23)
(0.00140609 6.19495e-05 -3.14871e-23)
(0.00113421 -8.01922e-05 -4.38441e-23)
(0.00114621 -8.92875e-05 1.89098e-22)
(0.00115886 -9.95144e-05 -7.71706e-23)
(0.00117327 -0.00010795 3.86113e-23)
(0.00118813 -0.000117166 -3.91655e-23)
(0.00120537 -0.000123809 8.46126e-24)
(0.00122297 -0.000131216 -7.50755e-24)
(0.00124336 -0.000135094 2.38969e-23)
(0.00126335 -0.000139432 -2.93913e-23)
(0.0012861 -0.000139133 -7.00648e-24)
(0.00130723 -0.000139103 2.70785e-24)
(0.00133084 -0.000133711 4.3487e-24)
(0.0013513 -0.000128856 -1.33922e-24)
(0.00137381 -0.000118414 6.27372e-25)
(0.00139155 -0.000109261 1.72897e-22)
(0.00141106 -9.47286e-05 -1.72913e-22)
(0.00142443 -8.26053e-05 4.51204e-24)
(0.00143974 -6.54781e-05 8.28639e-25)
(0.00144778 -5.19863e-05 -2.18619e-23)
(0.00145848 -3.3743e-05 -1.0557e-24)
(0.00146069 -2.0289e-05 1.01634e-23)
(0.00146697 -2.14788e-06 2.2169e-23)
(0.0014629 1.0083e-05 -2.9617e-23)
(0.00146524 2.70001e-05 -7.74273e-24)
(0.0014543 3.67369e-05 7.49337e-24)
(0.00145356 5.1141e-05 1.85718e-23)
(0.00143538 5.6767e-05 -2.52972e-23)
(0.00143321 6.73498e-05 4.5038e-23)
(0.00140856 6.73428e-05 -6.87956e-23)
(0.00140875 7.4632e-05 4.80345e-23)
(0.00112444 -9.35702e-05 -4.76126e-23)
(0.00113685 -0.000102785 -6.61971e-23)
(0.00115015 -0.000113029 1.32808e-22)
(0.00116552 -0.00012188 -4.29159e-23)
(0.00118136 -0.000131063 0)
(0.00119979 -0.000138104 -1.73752e-23)
(0.00121857 -0.000145304 3.61249e-23)
(0.00124029 -0.000149456 -2.86469e-23)
(0.0012616 -0.00015332 5.47173e-24)
(0.00128573 -0.000153116 6.46609e-24)
(0.00130812 -0.00015235 -6.51723e-24)
(0.00133302 -0.000146881 0)
(0.00135448 -0.000141057 0)
(0.00137811 -0.000130407 0)
(0.00139654 -0.000120132 2.29168e-22)
(0.00141699 -0.000105307 -2.29263e-22)
(0.00143077 -9.20006e-05 0)
(0.00144689 -7.44915e-05 -1.66755e-24)
(0.00145524 -5.98128e-05 0)
(0.00146664 -4.1001e-05 1.59365e-23)
(0.00146928 -2.63552e-05 -1.18991e-23)
(0.00147611 -7.26317e-06 8.07537e-24)
(0.00147274 6.22086e-06 3.41387e-23)
(0.00147535 2.47489e-05 -2.56769e-23)
(0.00146539 3.58632e-05 -1.6464e-23)
(0.00146438 5.28562e-05 7.37053e-24)
(0.00144725 5.99352e-05 2.78413e-23)
(0.00144388 7.43871e-05 -7.70868e-23)
(0.00141997 7.55769e-05 6.15515e-23)
(0.00141777 8.83994e-05 -1.98646e-23)
(0.00112085 -0.000108751 -7.11215e-23)
(0.0011335 -0.000118132 1.89073e-22)
(0.00114728 -0.00012834 -1.04561e-22)
(0.00116341 -0.000137634 4.03941e-23)
(0.00118014 -0.000146854 -7.7906e-23)
(0.00119965 -0.000154297 2.22043e-23)
(0.00121958 -0.000161292 5.07047e-24)
(0.00124255 -0.000165621 5.15919e-23)
(0.00126512 -0.000168981 -2.33072e-23)
(0.00129047 -0.000168695 1.69524e-24)
(0.00131404 -0.000167157 -2.70804e-24)
(0.00133993 -0.000161365 2.53434e-24)
(0.00136236 -0.000154569 -1.5197e-24)
(0.00138666 -0.000143417 2.42322e-24)
(0.00140575 -0.000132077 2.99531e-22)
(0.00142661 -0.000116656 -2.99552e-22)
(0.00144081 -0.000102293 5.15792e-24)
(0.00145717 -8.41269e-05 2.68438e-24)
(0.00146587 -6.84448e-05 -2.47147e-23)
(0.00147746 -4.88516e-05 1.68876e-23)
(0.0014806 -3.32323e-05 0)
(0.00148755 -1.30555e-05 3.88542e-23)
(0.00148505 1.46163e-06 -7.75261e-23)
(0.00148758 2.16674e-05 1.01371e-23)
(0.00147896 3.40024e-05 1.96359e-23)
(0.00147736 5.36233e-05 7.28409e-23)
(0.00146189 6.21905e-05 -2.60417e-23)
(0.00145706 8.05543e-05 5.24795e-23)
(0.00143469 8.33899e-05 -1.12132e-22)
(0.00142994 0.000101706 6.51533e-23)
(0.00112335 -0.000125599 0)
(0.00113614 -0.000135345 -2.45751e-23)
(0.00115014 -0.000145625 1.1681e-23)
(0.00116684 -0.000155347 4.12642e-23)
(0.00118421 -0.000164657 -4.19403e-23)
(0.00120467 -0.000172438 -4.19773e-23)
(0.00122547 -0.000179222 3.34073e-23)
(0.00124952 -0.000183569 0)
(0.001273 -0.000186368 -3.52069e-24)
(0.00129933 -0.000185775 6.39861e-24)
(0.00132369 -0.000183396 -6.3573e-25)
(0.00135025 -0.000177012 1.09637e-24)
(0.00137325 -0.000169206 -8.85383e-25)
(0.00139784 -0.000157268 -7.38304e-25)
(0.00141727 -0.000144893 3.883e-22)
(0.0014381 -0.000128603 -3.88321e-22)
(0.00145251 -0.000113298 -2.09586e-25)
(0.00146869 -9.42397e-05 -8.93893e-24)
(0.00147762 -7.77569e-05 3.98624e-24)
(0.00148903 -5.72019e-05 -5.26008e-24)
(0.00149266 -4.08939e-05 -2.16295e-23)
(0.00149947 -1.95008e-05 3.28403e-23)
(0.00149799 -4.30869e-06 0)
(0.00150027 1.77023e-05 -5.5248e-23)
(0.00149342 3.08336e-05 3.35093e-23)
(0.00149107 5.33109e-05 4.21739e-23)
(0.00147824 6.29006e-05 -5.11053e-23)
(0.00147147 8.56984e-05 8.95706e-24)
(0.00145261 8.97031e-05 -1.63517e-23)
(0.00144387 0.000114586 0)
(0.00112715 -0.000143702 -1.02355e-22)
(0.00114043 -0.000154146 1.76664e-22)
(0.0011548 -0.000164722 -1.23053e-22)
(0.00117215 -0.000174868 0)
(0.00119017 -0.000184314 -3.78121e-23)
(0.00121159 -0.000192321 2.96934e-23)
(0.00123312 -0.000198867 7.35095e-24)
(0.00125818 -0.000203053 2.11056e-23)
(0.00128225 -0.000205202 -2.20077e-23)
(0.00130943 -0.000204088 0)
(0.00133416 -0.000200754 6.6696e-25)
(0.00136128 -0.000193567 -1.95825e-24)
(0.00138441 -0.000184657 -2.52093e-24)
(0.0014092 -0.00017175 2.28701e-24)
(0.00142861 -0.000158311 4.99998e-22)
(0.00144934 -0.000141006 -5.0002e-22)
(0.00146373 -0.000124819 1.36696e-23)
(0.00147968 -0.00010476 3.66039e-24)
(0.00148877 -8.76382e-05 -5.1247e-24)
(0.00150002 -6.60595e-05 5.51838e-24)
(0.00150414 -4.93269e-05 0)
(0.00151102 -2.67028e-05 5.18194e-23)
(0.00151053 -1.11871e-05 -5.01275e-23)
(0.00151308 1.2612e-05 0)
(0.00150792 2.61274e-05 -6.41719e-23)
(0.00150581 5.14685e-05 4.99895e-23)
(0.00149545 6.16669e-05 0)
(0.00148841 8.90631e-05 6.56727e-23)
(0.00147262 9.39426e-05 -1.96972e-22)
(0.00146246 0.000125874 8.31599e-23)
(0.00112852 -0.000163363 -1.06084e-22)
(0.00114252 -0.000174672 1.34512e-22)
(0.00115753 -0.000185703 2.4806e-23)
(0.00117565 -0.000196189 4.28454e-23)
(0.00119447 -0.000205719 -4.36192e-23)
(0.00121687 -0.000213755 9.15135e-24)
(0.00123917 -0.000219986 -7.71068e-24)
(0.00126523 -0.000223807 0)
(0.00128984 -0.000225209 -4.35663e-24)
(0.00131795 -0.000223386 -8.15227e-25)
(0.00134293 -0.000218986 1.67784e-24)
(0.00137084 -0.000210859 -3.29129e-24)
(0.00139393 -0.00020075 2.53879e-24)
(0.0014193 -0.000186809 1.27539e-24)
(0.00143852 -0.000172245 6.41062e-22)
(0.00145963 -0.000153922 -6.4118e-22)
(0.00147389 -0.000136849 -2.43095e-24)
(0.00149009 -0.000115826 1.22554e-23)
(0.00149929 -9.81416e-05 -4.41603e-23)
(0.0015108 -7.56022e-05 2.55441e-23)
(0.00151549 -5.86255e-05 -7.22652e-24)
(0.00152279 -3.48748e-05 -1.37079e-23)
(0.00152353 -1.93317e-05 0)
(0.0015267 6.09467e-06 0)
(0.00152367 1.962e-05 1.40146e-23)
(0.00152218 4.76061e-05 5.79915e-23)
(0.0015151 5.80528e-05 -5.69621e-23)
(0.0015081 8.9812e-05 2.58293e-23)
(0.00149696 9.54217e-05 -7.9483e-23)
(0.00148521 0.000134228 1.01981e-22)
(0.00112152 -0.000184165 -1.3854e-22)
(0.00113693 -0.000196342 8.55275e-23)
(0.00115344 -0.000207981 0)
(0.00117297 -0.000218811 0)
(0.00119334 -0.00022847 -3.79733e-23)
(0.00121723 -0.000236447 3.86564e-23)
(0.00124101 -0.000242389 2.47858e-23)
(0.00126854 -0.000245749 -3.00162e-23)
(0.00129439 -0.000246415 0)
(0.00132394 -0.000243781 1.18354e-24)
(0.00134978 -0.000238295 3.96891e-24)
(0.00137906 -0.000229157 -5.25534e-24)
(0.00140254 -0.000217792 2.60861e-24)
(0.00142918 -0.000202812 0)
(0.00144835 -0.000187035 8.18505e-22)
(0.00147065 -0.000167764 -8.18626e-22)
(0.00148458 -0.000149699 0)
(0.00150193 -0.000127839 -6.69238e-24)
(0.0015108 -0.000109497 -2.28449e-23)
(0.00152351 -8.61629e-05 3.74284e-23)
(0.00152815 -6.89309e-05 1.59034e-23)
(0.00153682 -4.42729e-05 0)
(0.00153805 -2.88617e-05 5.0251e-23)
(0.00154295 -2.09196e-06 -6.66459e-23)
(0.00154115 1.1083e-05 -6.82129e-23)
(0.00154181 4.1381e-05 6.70067e-23)
(0.00153687 5.15524e-05 0)
(0.00153221 8.73259e-05 0)
(0.00152424 9.3119e-05 -1.60471e-22)
(0.00151426 0.000138494 9.06147e-23)
(0.0011089 -0.00020849 5.93293e-23)
(0.00112626 -0.000221262 2.82229e-23)
(0.00114511 -0.000233437 1.27826e-23)
(0.00116682 -0.000244543 -1.14659e-23)
(0.00118972 -0.000254305 9.92319e-24)
(0.00121581 -0.000262102 -2.22031e-23)
(0.00124211 -0.000267696 3.09019e-23)
(0.00127174 -0.000270419 1.08171e-24)
(0.00129984 -0.000270261 7.42715e-25)
(0.00133126 -0.000266595 -9.93682e-25)
(0.0013588 -0.000259893 -2.21043e-24)
(0.00138969 -0.000249519 -5.7581e-24)
(0.0014141 -0.000236732 -1.78224e-24)
(0.00144217 -0.000220545 8.00782e-24)
(0.00146141 -0.000203349 1.04274e-21)
(0.00148513 -0.000183081 -1.04275e-21)
(0.0014984 -0.000163763 1.50067e-23)
(0.00151736 -0.00014117 8.81788e-25)
(0.00152507 -0.000121845 -1.61059e-23)
(0.00153971 -9.79809e-05 -4.44345e-23)
(0.00154302 -8.01517e-05 7.36552e-23)
(0.00155406 -5.50495e-05 -5.6355e-23)
(0.00155422 -3.95436e-05 -1.57571e-24)
(0.00156208 -1.21181e-05 -7.84631e-23)
(0.00155984 7.00718e-07 9.74696e-23)
(0.00156419 3.24438e-05 2.0434e-23)
(0.00155961 4.20594e-05 0)
(0.00155948 8.08416e-05 2.03069e-23)
(0.00155249 8.63171e-05 3.56468e-23)
(0.00154778 0.000137064 7.4855e-23)
(0.0011044 -0.000238487 -3.10195e-23)
(0.00112311 -0.000251596 0)
(0.00114393 -0.000264121 3.6091e-23)
(0.00116753 -0.000275366 -3.85601e-23)
(0.00119285 -0.000285056 -2.0085e-23)
(0.00122095 -0.00029243 -3.67033e-23)
(0.0012498 -0.000297382 5.3099e-23)
(0.00128123 -0.000299106 -1.81011e-23)
(0.00131169 -0.000297774 1.84183e-24)
(0.00134446 -0.000292649 -5.13072e-24)
(0.00137385 -0.000284383 1.36736e-23)
(0.00140558 -0.000272337 -2.90454e-24)
(0.00143105 -0.000257817 -2.27957e-23)
(0.00145962 -0.000240061 1.03148e-23)
(0.00147903 -0.000221182 1.33004e-21)
(0.00150331 -0.000199718 -1.33003e-21)
(0.0015158 -0.000178896 1.77458e-23)
(0.00153587 -0.000155602 -2.74399e-23)
(0.00154185 -0.000134959 -3.14315e-23)
(0.00155855 -0.000110878 9.2022e-23)
(0.00155922 -9.19507e-05 -5.1302e-23)
(0.00157354 -6.7093e-05 2.07364e-23)
(0.00157044 -5.08938e-05 8.74123e-23)
(0.00158297 -2.40079e-05 -1.54667e-22)
(0.0015774 -1.10067e-05 6.6968e-23)
(0.00158772 2.04864e-05 -4.5035e-23)
(0.00158024 2.9865e-05 9.10451e-23)
(0.00158695 6.95612e-05 -1.10444e-22)
(0.00157778 7.45762e-05 0)
(0.00158014 0.000128205 -4.20048e-23)
(0.00110353 -0.00027374 -3.16361e-23)
(0.00112393 -0.000287226 1.45381e-23)
(0.00114687 -0.000299969 -1.29801e-23)
(0.00117251 -0.000311203 0)
(0.00120029 -0.000320561 -2.36972e-23)
(0.0012304 -0.000327233 3.45997e-23)
(0.00126174 -0.00033114 -5.64339e-24)
(0.00129478 -0.000331468 3.05373e-24)
(0.00132751 -0.000328492 0)
(0.0013612 -0.000321465 0)
(0.00139246 -0.000311194 2.69413e-24)
(0.00142429 -0.000297052 1.05747e-23)
(0.00145111 -0.000280466 -7.94034e-24)
(0.0014791 -0.000260788 0)
(0.00149931 -0.000240042 1.70154e-21)
(0.00152278 -0.000217162 -1.70163e-21)
(0.00153545 -0.000194774 0)
(0.00155516 -0.00017075 -2.75644e-23)
(0.00156042 -0.00014872 2.11025e-23)
(0.00157795 -0.000124642 -1.13643e-23)
(0.00157639 -0.000104309 0)
(0.00159345 -8.03001e-05 0)
(0.00158592 -6.27176e-05 2.43146e-23)
(0.00160393 -3.77303e-05 -2.45604e-23)
(0.00159137 -2.35176e-05 -1.04271e-22)
(0.0016103 5.33453e-06 1.26919e-22)
(0.00159311 1.57115e-05 0)
(0.00161083 5.2858e-05 -2.71354e-23)
(0.0015894 5.82234e-05 2.73485e-23)
(0.00160328 0.000110419 -5.51223e-23)
(0.00109692 -0.000313304 1.71641e-23)
(0.0011202 -0.000327691 -1.53673e-23)
(0.00114629 -0.000340902 1.37402e-23)
(0.00117507 -0.000352113 -3.98376e-23)
(0.00120617 -0.000360896 4.07965e-23)
(0.00123921 -0.000366573 1.89582e-23)
(0.00127363 -0.000368993 -1.93662e-23)
(0.00130898 -0.000367519 1.15484e-24)
(0.00134435 -0.000362373 0)
(0.00137941 -0.000353033 0)
(0.00141277 -0.000340262 0)
(0.00144483 -0.00032367 1.41114e-23)
(0.00147332 -0.000304632 -1.42304e-23)
(0.00150038 -0.000282757 0)
(0.00152204 -0.000259929 2.18089e-21)
(0.00154365 -0.000235425 -2.18068e-21)
(0.00155778 -0.000211452 0)
(0.00157516 -0.000186555 -2.65603e-23)
(0.00158182 -0.000163278 3.92147e-23)
(0.00159712 -0.000139129 0)
(0.00159599 -0.000117481 0)
(0.00161152 -9.43472e-05 0)
(0.00160155 -7.50785e-05 -3.03833e-23)
(0.00161994 -5.25898e-05 1.18869e-22)
(0.00159966 -3.624e-05 -1.16361e-22)
(0.00162281 -1.20635e-05 -1.20049e-22)
(0.00158942 1.1387e-06 1.17227e-22)
(0.00161637 3.13466e-05 2.87221e-23)
(0.00156724 3.95774e-05 -2.89063e-23)
(0.00159467 8.31943e-05 2.68925e-23)
(0.00108829 -0.000362644 1.43492e-22)
(0.0011155 -0.000376478 -1.29823e-22)
(0.00114603 -0.000389247 0)
(0.00117917 -0.000399872 0)
(0.00121441 -0.00040756 -2.34565e-23)
(0.0012512 -0.000411692 2.13012e-23)
(0.00128914 -0.00041203 0)
(0.00132744 -0.000408208 -1.23638e-24)
(0.00136552 -0.000400315 0)
(0.00140244 -0.000388175 0)
(0.00143768 -0.000372344 8.01959e-24)
(0.00147032 -0.000352877 0)
(0.00149999 -0.000330872 -1.61709e-23)
(0.00152627 -0.000306439 2.19904e-23)
(0.0015488 -0.000281083 2.81782e-21)
(0.00156821 -0.000254614 -2.81778e-21)
(0.00158342 -0.00022873 3.0463e-23)
(0.00159707 -0.000202584 -3.84997e-23)
(0.00160531 -0.000177986 0)
(0.00161494 -0.000153289 -1.72555e-23)
(0.00161544 -0.000130602 0)
(0.00162243 -0.000107604 -1.75779e-23)
(0.001612 -8.70611e-05 3.25253e-23)
(0.00161829 -6.59765e-05 0)
(0.00159178 -4.77894e-05 -1.36516e-22)
(0.00160117 -2.77704e-05 1.3324e-22)
(0.00154945 -1.16148e-05 0)
(0.0015662 9.40845e-06 0)
(0.00147544 2.2612e-05 2.75852e-22)
(0.00150592 4.97816e-05 -2.35335e-22)
(0.0010814 -0.000425253 0)
(0.00111283 -0.00044103 0)
(0.00114745 -0.000454101 0)
(0.00118511 -0.000463708 0)
(0.00122517 -0.000469369 0)
(0.00126671 -0.00047071 2.92869e-24)
(0.00130891 -0.000467545 0)
(0.00135093 -0.00045979 -2.66189e-23)
(0.00139208 -0.000447531 1.04385e-23)
(0.00143144 -0.000430937 6.21359e-23)
(0.00146837 -0.000410479 -8.7121e-23)
(0.00150195 -0.000386674 4.34756e-23)
(0.00153193 -0.000360394 -6.15447e-24)
(0.00155753 -0.00033229 0)
(0.00157916 -0.000303382 3.66543e-21)
(0.00159613 -0.000274066 -3.66278e-21)
(0.0016094 -0.000245322 0)
(0.00161813 -0.00021706 8.90383e-24)
(0.00162333 -0.000190268 7.79785e-23)
(0.00162396 -0.000164145 -1.37317e-22)
(0.00161986 -0.00014 1.5726e-22)
(0.00161102 -0.000116245 7.95014e-23)
(0.00159324 -9.48959e-05 -1.96698e-22)
(0.00157245 -7.33517e-05 0)
(0.00153343 -5.44114e-05 0)
(0.00150155 -3.52219e-05 0)
(0.00142945 -1.95472e-05 0)
(0.00139592 -4.60775e-06 0)
(0.00126371 9.90083e-06 0)
(0.0012603 1.95319e-05 0)
(0.00107415 -0.000493307 1.42875e-23)
(0.00111396 -0.000504986 0)
(0.00115835 -0.000515821 0)
(0.00120476 -0.000523284 1.17284e-23)
(0.00125172 -0.000526108 -1.85703e-23)
(0.00129858 -0.00052396 2.70821e-23)
(0.00134486 -0.000516836 -2.3617e-23)
(0.00139001 -0.00050487 -1.05101e-23)
(0.00143323 -0.000488245 0)
(0.0014737 -0.000467334 -1.39541e-23)
(0.00151049 -0.000442654 0)
(0.00154293 -0.000414958 0)
(0.00157037 -0.000385067 0)
(0.0015925 -0.000353839 0)
(0.00160907 -0.000321989 4.82923e-21)
(0.00161985 -0.000290001 -4.83135e-21)
(0.00162467 -0.000258297 0)
(0.00162288 -0.000227207 0)
(0.00161421 -0.000196885 0)
(0.00159721 -0.000167611 0)
(0.00157173 -0.000140121 2.44318e-23)
(0.00153553 -0.000114812 2.22615e-23)
(0.00148921 -9.24392e-05 4.41736e-23)
(0.00142829 -7.04338e-05 -1.81094e-22)
(0.00135328 -5.02899e-05 3.53582e-22)
(0.00126072 -3.0633e-05 6.82329e-25)
(0.00114987 -1.9101e-05 -2.10596e-22)
(0.00103173 -6.17675e-06 0)
(0.000876095 1.37059e-06 0)
(0.000782236 6.85181e-06 3.94333e-23)
(0.00105801 -0.000615686 6.99834e-23)
(0.00110453 -0.000630544 -8.11102e-23)