/*--------------------------------*- C++ -*----------------------------------*\
| =========                 |                                                 |
| \\      /  F ield         | OpenFOAM: The Open Source CFD Toolbox           |
|  \\    /   O peration     | Version:  2312                                  |
|   \\  /    A nd           | Website:  www.openfoam.com                      |
|    \\/     M anipulation  |                                                 |
\*---------------------------------------------------------------------------*/
FoamFile
{
    version     2.0;
    format      ascii;
    arch        "LSB;label=32;scalar=64";
    class       volScalarField;
    location    "73000";
    object      p;
}
// * * * * * * * * * * * * * * * * * * * * * * * * * * * * * * * * * * * * * //

dimensions      [0 2 -2 0 0 0 0];

internalField   nonuniform List<scalar> 
2715
(
4.93027e-07
4.78904e-07
4.65137e-07
4.5456e-07
4.47137e-07
4.41746e-07
4.37295e-07
4.33216e-07
4.2934e-07
4.25676e-07
4.2226e-07
4.19096e-07
4.1615e-07
4.13373e-07
4.10718e-07
4.08153e-07
4.05655e-07
4.0321e-07
4.0081e-07
3.98444e-07
3.96105e-07
3.93784e-07
3.91475e-07
3.89173e-07
3.86872e-07
3.8457e-07
3.82263e-07
3.79948e-07
3.77624e-07
3.75289e-07
3.72942e-07
3.70582e-07
3.68208e-07
3.6582e-07
3.63417e-07
3.61e-07
3.58569e-07
3.56125e-07
3.53667e-07
3.51197e-07
3.48714e-07
3.46218e-07
3.43711e-07
3.41192e-07
3.38662e-07
3.36118e-07
3.33563e-07
3.3099e-07
3.28406e-07
3.25794e-07
3.23176e-07
3.205e-07
3.17848e-07
3.15048e-07
3.12402e-07
3.09271e-07
3.06915e-07
3.02509e-07
3.02203e-07
2.91606e-07
4.44983e-07
4.43256e-07
4.40611e-07
4.37485e-07
4.34269e-07
4.31175e-07
4.28252e-07
4.25465e-07
4.22764e-07
4.20117e-07
4.17519e-07
4.14976e-07
4.12494e-07
4.10073e-07
4.07707e-07
4.05386e-07
4.03101e-07
4.00845e-07
3.98611e-07
3.96395e-07
3.94192e-07
3.91998e-07
3.8981e-07
3.87624e-07
3.85437e-07
3.83247e-07
3.81051e-07
3.78847e-07
3.76635e-07
3.74412e-07
3.72177e-07
3.6993e-07
3.67671e-07
3.65398e-07
3.63113e-07
3.60812e-07
3.585e-07
3.56172e-07
3.53835e-07
3.51479e-07
3.49117e-07
3.46735e-07
3.4435e-07
3.4194e-07
3.39535e-07
3.37094e-07
3.34672e-07
3.32198e-07
3.29768e-07
3.27255e-07
3.24837e-07
3.22289e-07
3.19936e-07
3.1737e-07
3.15217e-07
3.12702e-07
3.11083e-07
3.08697e-07
3.08223e-07
3.05549e-07
4.36242e-07
4.35491e-07
4.34078e-07
4.32126e-07
4.29842e-07
4.27421e-07
4.24991e-07
4.22602e-07
4.20256e-07
4.1794e-07
4.15647e-07
4.13375e-07
4.11129e-07
4.08916e-07
4.06735e-07
4.04586e-07
4.02465e-07
4.00366e-07
3.98284e-07
3.96217e-07
3.9416e-07
3.92111e-07
3.90068e-07
3.88027e-07
3.85986e-07
3.83944e-07
3.81899e-07
3.79848e-07
3.77792e-07
3.75727e-07
3.73655e-07
3.71572e-07
3.69481e-07
3.67379e-07
3.65267e-07
3.63143e-07
3.6101e-07
3.58863e-07
3.56708e-07
3.54538e-07
3.52363e-07
3.5017e-07
3.47974e-07
3.45757e-07
3.43543e-07
3.41301e-07
3.39071e-07
3.36806e-07
3.34567e-07
3.32281e-07
3.30044e-07
3.27742e-07
3.2553e-07
3.23221e-07
3.21069e-07
3.18769e-07
3.16728e-07
3.14442e-07
3.12553e-07
3.10185e-07
4.24506e-07
4.24074e-07
4.23287e-07
4.22197e-07
4.20872e-07
4.19384e-07
4.17789e-07
4.16128e-07
4.14421e-07
4.12678e-07
4.10907e-07
4.09113e-07
4.07301e-07
4.05479e-07
4.03651e-07
4.0182e-07
3.99988e-07
3.98155e-07
3.9632e-07
3.94483e-07
3.92644e-07
3.90802e-07
3.88956e-07
3.87106e-07
3.85251e-07
3.8339e-07
3.81524e-07
3.79651e-07
3.77771e-07
3.75883e-07
3.73988e-07
3.72085e-07
3.70174e-07
3.68255e-07
3.66328e-07
3.64392e-07
3.62448e-07
3.60495e-07
3.58535e-07
3.56565e-07
3.54589e-07
3.52601e-07
3.50607e-07
3.486e-07
3.46587e-07
3.44557e-07
3.42522e-07
3.40465e-07
3.38401e-07
3.36309e-07
3.3421e-07
3.32074e-07
3.29933e-07
3.27745e-07
3.25558e-07
3.23309e-07
3.2107e-07
3.18752e-07
3.1646e-07
3.14088e-07
4.17805e-07
4.17591e-07
4.1716e-07
4.16514e-07
4.15671e-07
4.14657e-07
4.13506e-07
4.12249e-07
4.1091e-07
4.09506e-07
4.0805e-07
4.0655e-07
4.05013e-07
4.03447e-07
4.01857e-07
4.00248e-07
3.98623e-07
3.96986e-07
3.95338e-07
3.9368e-07
3.92014e-07
3.90341e-07
3.8866e-07
3.86972e-07
3.85278e-07
3.83578e-07
3.81873e-07
3.80161e-07
3.78444e-07
3.76722e-07
3.74994e-07
3.73262e-07
3.71525e-07
3.69783e-07
3.68037e-07
3.66287e-07
3.64533e-07
3.62775e-07
3.61013e-07
3.59248e-07
3.57478e-07
3.55705e-07
3.53927e-07
3.52143e-07
3.50355e-07
3.4856e-07
3.46758e-07
3.44946e-07
3.43124e-07
3.41288e-07
3.39433e-07
3.37552e-07
3.35635e-07
3.33671e-07
3.31641e-07
3.29534e-07
3.27338e-07
3.25064e-07
3.22715e-07
3.20386e-07
4.12284e-07
4.12122e-07
4.11797e-07
4.11313e-07
4.1068e-07
4.09914e-07
4.09033e-07
4.08055e-07
4.06996e-07
4.05869e-07
4.04683e-07
4.03445e-07
4.02164e-07
4.00844e-07
3.99491e-07
3.98109e-07
3.96702e-07
3.95274e-07
3.93828e-07
3.92365e-07
3.90888e-07
3.89399e-07
3.87898e-07
3.86387e-07
3.84867e-07
3.83339e-07
3.81805e-07
3.80264e-07
3.78717e-07
3.77166e-07
3.75611e-07
3.74053e-07
3.72492e-07
3.70928e-07
3.69363e-07
3.67797e-07
3.6623e-07
3.64663e-07
3.63095e-07
3.61528e-07
3.5996e-07
3.58392e-07
3.56823e-07
3.55253e-07
3.53678e-07
3.521e-07
3.50513e-07
3.48918e-07
3.47307e-07
3.45682e-07
3.44036e-07
3.42373e-07
3.40683e-07
3.38973e-07
3.37218e-07
3.35422e-07
3.33549e-07
3.31621e-07
3.29636e-07
3.27718e-07
4.07936e-07
4.07818e-07
4.0758e-07
4.07224e-07
4.06754e-07
4.06176e-07
4.055e-07
4.04736e-07
4.03894e-07
4.02982e-07
4.0201e-07
4.00983e-07
3.99908e-07
3.98789e-07
3.97632e-07
3.96441e-07
3.95219e-07
3.93971e-07
3.92699e-07
3.91407e-07
3.90097e-07
3.8877e-07
3.8743e-07
3.86078e-07
3.84716e-07
3.83345e-07
3.81966e-07
3.80582e-07
3.79193e-07
3.778e-07
3.76406e-07
3.7501e-07
3.73614e-07
3.72219e-07
3.70826e-07
3.69436e-07
3.68049e-07
3.66667e-07
3.65289e-07
3.63918e-07
3.62551e-07
3.61192e-07
3.59838e-07
3.58491e-07
3.5715e-07
3.55815e-07
3.54485e-07
3.53159e-07
3.51833e-07
3.50505e-07
3.49165e-07
3.47809e-07
3.46426e-07
3.45018e-07
3.43576e-07
3.4211e-07
3.40601e-07
3.39072e-07
3.37521e-07
3.36062e-07
4.04484e-07
4.04391e-07
4.04206e-07
4.03927e-07
4.03556e-07
4.03097e-07
4.02554e-07
4.01934e-07
4.01244e-07
4.00489e-07
3.99674e-07
3.98806e-07
3.97889e-07
3.96928e-07
3.95928e-07
3.94893e-07
3.93825e-07
3.9273e-07
3.91609e-07
3.90467e-07
3.89305e-07
3.88125e-07
3.86932e-07
3.85725e-07
3.84508e-07
3.83282e-07
3.8205e-07
3.80813e-07
3.79572e-07
3.78329e-07
3.77087e-07
3.75845e-07
3.74607e-07
3.73373e-07
3.72144e-07
3.70923e-07
3.6971e-07
3.68506e-07
3.67313e-07
3.66131e-07
3.64962e-07
3.63806e-07
3.62664e-07
3.61537e-07
3.60423e-07
3.59323e-07
3.58236e-07
3.57163e-07
3.56102e-07
3.55055e-07
3.54018e-07
3.52991e-07
3.51961e-07
3.5093e-07
3.49886e-07
3.48841e-07
3.47781e-07
3.46735e-07
3.45709e-07
3.44808e-07
4.01718e-07
4.01643e-07
4.01491e-07
4.01263e-07
4.00959e-07
4.0058e-07
4.0013e-07
3.99614e-07
3.99034e-07
3.98396e-07
3.97704e-07
3.96962e-07
3.96173e-07
3.95343e-07
3.94473e-07
3.9357e-07
3.92634e-07
3.9167e-07
3.90681e-07
3.8967e-07
3.88639e-07
3.8759e-07
3.86527e-07
3.85452e-07
3.84366e-07
3.83273e-07
3.82174e-07
3.81071e-07
3.79966e-07
3.78862e-07
3.77759e-07
3.76661e-07
3.75569e-07
3.74485e-07
3.73411e-07
3.72348e-07
3.71298e-07
3.70264e-07
3.69246e-07
3.68247e-07
3.67268e-07
3.66311e-07
3.65377e-07
3.64468e-07
3.63584e-07
3.62728e-07
3.619e-07
3.611e-07
3.60328e-07
3.59583e-07
3.58863e-07
3.5817e-07
3.57503e-07
3.56865e-07
3.56249e-07
3.55662e-07
3.55099e-07
3.5458e-07
3.54118e-07
3.538e-07
3.99515e-07
3.99451e-07
3.99323e-07
3.99131e-07
3.98873e-07
3.98552e-07
3.9817e-07
3.97729e-07
3.97232e-07
3.96684e-07
3.96085e-07
3.95441e-07
3.94754e-07
3.94028e-07
3.93265e-07
3.92469e-07
3.91642e-07
3.90788e-07
3.89909e-07
3.89008e-07
3.88088e-07
3.87151e-07
3.86201e-07
3.85239e-07
3.84267e-07
3.83289e-07
3.82307e-07
3.81322e-07
3.80338e-07
3.79356e-07
3.78379e-07
3.77409e-07
3.76448e-07
3.755e-07
3.74565e-07
3.73646e-07
3.72746e-07
3.71867e-07
3.71011e-07
3.7018e-07
3.69378e-07
3.68606e-07
3.67866e-07
3.67162e-07
3.66495e-07
3.65868e-07
3.65283e-07
3.64743e-07
3.64247e-07
3.63798e-07
3.63397e-07
3.63049e-07
3.62753e-07
3.62515e-07
3.62333e-07
3.62214e-07
3.62157e-07
3.62182e-07
3.62303e-07
3.62593e-07
3.97785e-07
3.9773e-07
3.97619e-07
3.97452e-07
3.97228e-07
3.96949e-07
3.96616e-07
3.96231e-07
3.95796e-07
3.95315e-07
3.94788e-07
3.9422e-07
3.93611e-07
3.92966e-07
3.92287e-07
3.91576e-07
3.90837e-07
3.90071e-07
3.89282e-07
3.88472e-07
3.87644e-07
3.86801e-07
3.85944e-07
3.85077e-07
3.84203e-07
3.83323e-07
3.8244e-07
3.81557e-07
3.80676e-07
3.798e-07
3.78931e-07
3.78073e-07
3.77227e-07
3.76396e-07
3.75584e-07
3.74792e-07
3.74025e-07
3.73284e-07
3.72572e-07
3.71893e-07
3.7125e-07
3.70646e-07
3.70085e-07
3.69569e-07
3.69102e-07
3.68688e-07
3.6833e-07
3.6803e-07
3.67793e-07
3.67623e-07
3.67525e-07
3.67505e-07
3.67564e-07
3.67709e-07
3.67943e-07
3.68276e-07
3.6871e-07
3.69263e-07
3.69954e-07
3.70837e-07
3.96466e-07
3.96417e-07
3.96318e-07
3.96169e-07
3.9597e-07
3.95721e-07
3.95423e-07
3.95079e-07
3.9469e-07
3.94258e-07
3.93785e-07
3.93273e-07
3.92724e-07
3.92141e-07
3.91526e-07
3.90881e-07
3.90209e-07
3.89513e-07
3.88795e-07
3.88057e-07
3.87302e-07
3.86533e-07
3.85752e-07
3.84962e-07
3.84166e-07
3.83365e-07
3.82564e-07
3.81764e-07
3.80968e-07
3.80179e-07
3.794e-07
3.78634e-07
3.77883e-07
3.77152e-07
3.76442e-07
3.75757e-07
3.75101e-07
3.74476e-07
3.73887e-07
3.73337e-07
3.7283e-07
3.72369e-07
3.71959e-07
3.71605e-07
3.7131e-07
3.7108e-07
3.70917e-07
3.70829e-07
3.70821e-07
3.70899e-07
3.7107e-07
3.7134e-07
3.71715e-07
3.72203e-07
3.72812e-07
3.73552e-07
3.74432e-07
3.75468e-07
3.76679e-07
3.78107e-07
3.95512e-07
3.95467e-07
3.95377e-07
3.9524e-07
3.95058e-07
3.9483e-07
3.94558e-07
3.94242e-07
3.93885e-07
3.93488e-07
3.93052e-07
3.92581e-07
3.92075e-07
3.91536e-07
3.90968e-07
3.90371e-07
3.89749e-07
3.89104e-07
3.88438e-07
3.87754e-07
3.87054e-07
3.86341e-07
3.85617e-07
3.84885e-07
3.84147e-07
3.83407e-07
3.82668e-07
3.81931e-07
3.812e-07
3.80478e-07
3.79768e-07
3.79073e-07
3.78397e-07
3.77741e-07
3.77111e-07
3.7651e-07
3.7594e-07
3.75407e-07
3.74913e-07
3.74464e-07
3.74064e-07
3.73716e-07
3.73427e-07
3.73201e-07
3.73043e-07
3.72959e-07
3.72956e-07
3.73039e-07
3.73216e-07
3.73495e-07
3.73883e-07
3.7439e-07
3.75023e-07
3.75794e-07
3.76711e-07
3.77788e-07
3.79037e-07
3.80474e-07
3.8212e-07
3.84002e-07
3.94892e-07
3.94849e-07
3.94764e-07
3.94636e-07
3.94465e-07
3.9425e-07
3.93994e-07
3.93696e-07
3.93359e-07
3.92985e-07
3.92574e-07
3.92128e-07
3.9165e-07
3.9114e-07
3.90602e-07
3.90037e-07
3.89448e-07
3.88837e-07
3.88205e-07
3.87556e-07
3.86893e-07
3.86216e-07
3.8553e-07
3.84837e-07
3.8414e-07
3.8344e-07
3.82742e-07
3.82048e-07
3.81362e-07
3.80685e-07
3.80022e-07
3.79375e-07
3.78749e-07
3.78146e-07
3.7757e-07
3.77025e-07
3.76515e-07
3.76044e-07
3.75617e-07
3.75237e-07
3.74911e-07
3.74642e-07
3.74436e-07
3.74299e-07
3.74237e-07
3.74256e-07
3.74363e-07
3.74566e-07
3.74873e-07
3.75294e-07
3.75836e-07
3.7651e-07
3.77326e-07
3.78297e-07
3.79435e-07
3.80752e-07
3.82266e-07
3.83992e-07
3.8595e-07
3.88161e-07
3.94586e-07
3.94545e-07
3.94462e-07
3.94338e-07
3.94172e-07
3.93964e-07
3.93715e-07
3.93426e-07
3.93099e-07
3.92736e-07
3.92337e-07
3.91904e-07
3.91439e-07
3.90944e-07
3.90421e-07
3.89872e-07
3.89298e-07
3.88703e-07
3.88089e-07
3.87458e-07
3.86812e-07
3.86155e-07
3.85488e-07
3.84814e-07
3.84136e-07
3.83457e-07
3.8278e-07
3.82108e-07
3.81443e-07
3.80789e-07
3.8015e-07
3.79528e-07
3.78926e-07
3.7835e-07
3.77801e-07
3.77285e-07
3.76806e-07
3.76367e-07
3.75973e-07
3.75629e-07
3.7534e-07
3.75111e-07
3.74948e-07
3.74856e-07
3.74843e-07
3.74915e-07
3.75079e-07
3.75344e-07
3.75719e-07
3.76212e-07
3.76834e-07
3.77594e-07
3.78506e-07
3.7958e-07
3.80833e-07
3.82276e-07
3.83928e-07
3.85804e-07
3.87927e-07
3.90309e-07
3.94584e-07
3.94543e-07
3.94461e-07
3.94337e-07
3.9417e-07
3.93962e-07
3.93713e-07
3.93425e-07
3.93098e-07
3.92734e-07
3.92335e-07
3.91902e-07
3.91437e-07
3.90942e-07
3.90419e-07
3.8987e-07
3.89296e-07
3.88702e-07
3.88087e-07
3.87456e-07
3.8681e-07
3.86153e-07
3.85485e-07
3.84812e-07
3.84134e-07
3.83455e-07
3.82778e-07
3.82105e-07
3.8144e-07
3.80787e-07
3.80147e-07
3.79524e-07
3.78923e-07
3.78346e-07
3.77798e-07
3.77282e-07
3.76802e-07
3.76363e-07
3.75969e-07
3.75625e-07
3.75336e-07
3.75107e-07
3.74943e-07
3.74852e-07
3.74838e-07
3.7491e-07
3.75074e-07
3.75339e-07
3.75713e-07
3.76206e-07
3.76827e-07
3.77588e-07
3.78499e-07
3.79573e-07
3.80825e-07
3.82268e-07
3.8392e-07
3.85796e-07
3.87918e-07
3.903e-07
3.94887e-07
3.94845e-07
3.9476e-07
3.94632e-07
3.9446e-07
3.94246e-07
3.93989e-07
3.93692e-07
3.93355e-07
3.9298e-07
3.92569e-07
3.92123e-07
3.91645e-07
3.91135e-07
3.90597e-07
3.90032e-07
3.89443e-07
3.88831e-07
3.88199e-07
3.8755e-07
3.86886e-07
3.8621e-07
3.85524e-07
3.8483e-07
3.84133e-07
3.83433e-07
3.82735e-07
3.82041e-07
3.81353e-07
3.80677e-07
3.80013e-07
3.79366e-07
3.78739e-07
3.78136e-07
3.77559e-07
3.77014e-07
3.76504e-07
3.76033e-07
3.75605e-07
3.75225e-07
3.74898e-07
3.74628e-07
3.74422e-07
3.74285e-07
3.74222e-07
3.7424e-07
3.74347e-07
3.74549e-07
3.74856e-07
3.75276e-07
3.75817e-07
3.7649e-07
3.77306e-07
3.78276e-07
3.79412e-07
3.80729e-07
3.82242e-07
3.83967e-07
3.85924e-07
3.88134e-07
3.95504e-07
3.9546e-07
3.95369e-07
3.95233e-07
3.95051e-07
3.94823e-07
3.9455e-07
3.94234e-07
3.93877e-07
3.9348e-07
3.93044e-07
3.92573e-07
3.92066e-07
3.91528e-07
3.90959e-07
3.90363e-07
3.8974e-07
3.89095e-07
3.88429e-07
3.87744e-07
3.87044e-07
3.8633e-07
3.85606e-07
3.84873e-07
3.84136e-07
3.83395e-07
3.82655e-07
3.81918e-07
3.81187e-07
3.80464e-07
3.79754e-07
3.79058e-07
3.78381e-07
3.77725e-07
3.77094e-07
3.76492e-07
3.75922e-07
3.75388e-07
3.74894e-07
3.74444e-07
3.74042e-07
3.73694e-07
3.73404e-07
3.73177e-07
3.73018e-07
3.72934e-07
3.72929e-07
3.73011e-07
3.73187e-07
3.73465e-07
3.73852e-07
3.74357e-07
3.7499e-07
3.75758e-07
3.76675e-07
3.7775e-07
3.78998e-07
3.80433e-07
3.82077e-07
3.83958e-07
3.96456e-07
3.96407e-07
3.96308e-07
3.96159e-07
3.95959e-07
3.9571e-07
3.95413e-07
3.95069e-07
3.94679e-07
3.94247e-07
3.93774e-07
3.93261e-07
3.92712e-07
3.92129e-07
3.91514e-07
3.90869e-07
3.90197e-07
3.895e-07
3.88781e-07
3.88043e-07
3.87288e-07
3.86518e-07
3.85737e-07
3.84946e-07
3.84149e-07
3.83348e-07
3.82546e-07
3.81746e-07
3.80949e-07
3.8016e-07
3.7938e-07
3.78613e-07
3.77862e-07
3.77129e-07
3.76419e-07
3.75733e-07
3.75076e-07
3.7445e-07
3.7386e-07
3.73309e-07
3.728e-07
3.72339e-07
3.71928e-07
3.71572e-07
3.71276e-07
3.71044e-07
3.70881e-07
3.70791e-07
3.70781e-07
3.70858e-07
3.71027e-07
3.71295e-07
3.71668e-07
3.72155e-07
3.72762e-07
3.735e-07
3.74377e-07
3.75411e-07
3.7662e-07
3.78045e-07
3.97772e-07
3.97717e-07
3.97606e-07
3.97439e-07
3.97215e-07
3.96936e-07
3.96603e-07
3.96218e-07
3.95783e-07
3.95301e-07
3.94774e-07
3.94205e-07
3.93597e-07
3.92951e-07
3.92272e-07
3.91561e-07
3.90821e-07
3.90055e-07
3.89265e-07
3.88455e-07
3.87626e-07
3.86782e-07
3.85925e-07
3.85058e-07
3.84182e-07
3.83301e-07
3.82418e-07
3.81534e-07
3.80652e-07
3.79775e-07
3.78906e-07
3.78046e-07
3.77199e-07
3.76368e-07
3.75554e-07
3.74762e-07
3.73993e-07
3.73251e-07
3.72538e-07
3.71858e-07
3.71213e-07
3.70608e-07
3.70045e-07
3.69527e-07
3.69059e-07
3.68643e-07
3.68283e-07
3.67982e-07
3.67743e-07
3.67571e-07
3.67471e-07
3.67448e-07
3.67505e-07
3.67648e-07
3.6788e-07
3.68209e-07
3.68641e-07
3.69192e-07
3.69879e-07
3.7076e-07
3.995e-07
3.99436e-07
3.99308e-07
3.99115e-07
3.98858e-07
3.98536e-07
3.98154e-07
3.97713e-07
3.97216e-07
3.96667e-07
3.96069e-07
3.95424e-07
3.94737e-07
3.9401e-07
3.93247e-07
3.9245e-07
3.91623e-07
3.90768e-07
3.89888e-07
3.88987e-07
3.88067e-07
3.87129e-07
3.86178e-07
3.85215e-07
3.84243e-07
3.83264e-07
3.82281e-07
3.81295e-07
3.8031e-07
3.79327e-07
3.78349e-07
3.77378e-07
3.76416e-07
3.75466e-07
3.7453e-07
3.73609e-07
3.72708e-07
3.71827e-07
3.7097e-07
3.70138e-07
3.69334e-07
3.6856e-07
3.67819e-07
3.67113e-07
3.66443e-07
3.65814e-07
3.65227e-07
3.64685e-07
3.64186e-07
3.63735e-07
3.63332e-07
3.62981e-07
3.62683e-07
3.62442e-07
3.62257e-07
3.62135e-07
3.62075e-07
3.62097e-07
3.62214e-07
3.62501e-07
4.01701e-07
4.01625e-07
4.01474e-07
4.01246e-07
4.00941e-07
4.00562e-07
4.00112e-07
3.99595e-07
3.99016e-07
3.98378e-07
3.97685e-07
3.96942e-07
3.96153e-07
3.95322e-07
3.94453e-07
3.93548e-07
3.92612e-07
3.91648e-07
3.90658e-07
3.89646e-07
3.88614e-07
3.87565e-07
3.86501e-07
3.85425e-07
3.84338e-07
3.83244e-07
3.82144e-07
3.8104e-07
3.79934e-07
3.78828e-07
3.77725e-07
3.76625e-07
3.75532e-07
3.74446e-07
3.7337e-07
3.72306e-07
3.71255e-07
3.70219e-07
3.69199e-07
3.68199e-07
3.67218e-07
3.66258e-07
3.65322e-07
3.64411e-07
3.63525e-07
3.62666e-07
3.61836e-07
3.61034e-07
3.60259e-07
3.59512e-07
3.58788e-07
3.58093e-07
3.57423e-07
3.56781e-07
3.56162e-07
3.55572e-07
3.55005e-07
3.54482e-07
3.54016e-07
3.53694e-07
4.04464e-07
4.04372e-07
4.04186e-07
4.03908e-07
4.03536e-07
4.03077e-07
4.02534e-07
4.01914e-07
4.01223e-07
4.00468e-07
3.99653e-07
3.98784e-07
3.97867e-07
3.96906e-07
3.95905e-07
3.94869e-07
3.93801e-07
3.92705e-07
3.91584e-07
3.9044e-07
3.89277e-07
3.88097e-07
3.86902e-07
3.85695e-07
3.84477e-07
3.8325e-07
3.82017e-07
3.80778e-07
3.79536e-07
3.78292e-07
3.77048e-07
3.75805e-07
3.74565e-07
3.7333e-07
3.72099e-07
3.70876e-07
3.69661e-07
3.68456e-07
3.6726e-07
3.66077e-07
3.64905e-07
3.63747e-07
3.62603e-07
3.61473e-07
3.60356e-07
3.59254e-07
3.58165e-07
3.57089e-07
3.56025e-07
3.54975e-07
3.53935e-07
3.52904e-07
3.51871e-07
3.50837e-07
3.4979e-07
3.4874e-07
3.47677e-07
3.46626e-07
3.45597e-07
3.44691e-07
4.07915e-07
4.07796e-07
4.07559e-07
4.07203e-07
4.06732e-07
4.06154e-07
4.05478e-07
4.04714e-07
4.03871e-07
4.02959e-07
4.01986e-07
4.00959e-07
3.99883e-07
3.98764e-07
3.97607e-07
3.96415e-07
3.95192e-07
3.93943e-07
3.92671e-07
3.91378e-07
3.90067e-07
3.8874e-07
3.87399e-07
3.86045e-07
3.84682e-07
3.8331e-07
3.8193e-07
3.80544e-07
3.79154e-07
3.7776e-07
3.76364e-07
3.74966e-07
3.73569e-07
3.72172e-07
3.70777e-07
3.69385e-07
3.67996e-07
3.66612e-07
3.65232e-07
3.63858e-07
3.6249e-07
3.61127e-07
3.59771e-07
3.58422e-07
3.57077e-07
3.5574e-07
3.54406e-07
3.53077e-07
3.51747e-07
3.50416e-07
3.49073e-07
3.47714e-07
3.46328e-07
3.44916e-07
3.4347e-07
3.42001e-07
3.40487e-07
3.38954e-07
3.37398e-07
3.35934e-07
4.12261e-07
4.12099e-07
4.11774e-07
4.11289e-07
4.10656e-07
4.0989e-07
4.09009e-07
4.08031e-07
4.06972e-07
4.05844e-07
4.04658e-07
4.0342e-07
4.02138e-07
4.00817e-07
3.99463e-07
3.98081e-07
3.96673e-07
3.95245e-07
3.93798e-07
3.92334e-07
3.90856e-07
3.89366e-07
3.87864e-07
3.86352e-07
3.84831e-07
3.83302e-07
3.81766e-07
3.80224e-07
3.78676e-07
3.77123e-07
3.75566e-07
3.74006e-07
3.72443e-07
3.70878e-07
3.69311e-07
3.67743e-07
3.66173e-07
3.64604e-07
3.63034e-07
3.61464e-07
3.59894e-07
3.58323e-07
3.56751e-07
3.55178e-07
3.53601e-07
3.5202e-07
3.5043e-07
3.48831e-07
3.47217e-07
3.45589e-07
3.4394e-07
3.42273e-07
3.40578e-07
3.38864e-07
3.37104e-07
3.35303e-07
3.33425e-07
3.31494e-07
3.29504e-07
3.27582e-07
4.17781e-07
4.17567e-07
4.17136e-07
4.1649e-07
4.15646e-07
4.14632e-07
4.13481e-07
4.12224e-07
4.10884e-07
4.0948e-07
4.08023e-07
4.06523e-07
4.04986e-07
4.03419e-07
4.01829e-07
4.00219e-07
3.98594e-07
3.96955e-07
3.95307e-07
3.93648e-07
3.91981e-07
3.90306e-07
3.88624e-07
3.86936e-07
3.8524e-07
3.83539e-07
3.81832e-07
3.80119e-07
3.78401e-07
3.76677e-07
3.74947e-07
3.73213e-07
3.71474e-07
3.6973e-07
3.67982e-07
3.6623e-07
3.64474e-07
3.62713e-07
3.60949e-07
3.59181e-07
3.57408e-07
3.55632e-07
3.53851e-07
3.52064e-07
3.50273e-07
3.48474e-07
3.46668e-07
3.44854e-07
3.43028e-07
3.41188e-07
3.39328e-07
3.37443e-07
3.35522e-07
3.33554e-07
3.3152e-07
3.29409e-07
3.27209e-07
3.2493e-07
3.22576e-07
3.20243e-07
4.24481e-07
4.24048e-07
4.23262e-07
4.22171e-07
4.20846e-07
4.19358e-07
4.17763e-07
4.16102e-07
4.14394e-07
4.12651e-07
4.1088e-07
4.09085e-07
4.07273e-07
4.0545e-07
4.03622e-07
4.0179e-07
3.99957e-07
3.98123e-07
3.96287e-07
3.9445e-07
3.9261e-07
3.90766e-07
3.88919e-07
3.87068e-07
3.85212e-07
3.8335e-07
3.81482e-07
3.79608e-07
3.77726e-07
3.75837e-07
3.7394e-07
3.72035e-07
3.70122e-07
3.682e-07
3.66271e-07
3.64333e-07
3.62387e-07
3.60431e-07
3.58469e-07
3.56496e-07
3.54517e-07
3.52526e-07
3.50529e-07
3.48518e-07
3.46502e-07
3.44469e-07
3.4243e-07
3.40369e-07
3.38302e-07
3.36205e-07
3.34103e-07
3.31962e-07
3.29818e-07
3.27625e-07
3.25434e-07
3.2318e-07
3.20936e-07
3.18613e-07
3.16316e-07
3.13938e-07
4.36216e-07
4.35466e-07
4.34052e-07
4.321e-07
4.29815e-07
4.27395e-07
4.24965e-07
4.22575e-07
4.20228e-07
4.17913e-07
4.15619e-07
4.13347e-07
4.11101e-07
4.08886e-07
4.06705e-07
4.04556e-07
4.02434e-07
4.00334e-07
3.98252e-07
3.96183e-07
3.94125e-07
3.92075e-07
3.90031e-07
3.87989e-07
3.85947e-07
3.83904e-07
3.81857e-07
3.79805e-07
3.77746e-07
3.7568e-07
3.73606e-07
3.71522e-07
3.69428e-07
3.67323e-07
3.65209e-07
3.63083e-07
3.60947e-07
3.58797e-07
3.5664e-07
3.54467e-07
3.52289e-07
3.50092e-07
3.47893e-07
3.45673e-07
3.43455e-07
3.4121e-07
3.38976e-07
3.36707e-07
3.34464e-07
3.32173e-07
3.29932e-07
3.27625e-07
3.25409e-07
3.23096e-07
3.20939e-07
3.18634e-07
3.16588e-07
3.14297e-07
3.12403e-07
3.10031e-07
4.44957e-07
4.4323e-07
4.40585e-07
4.37459e-07
4.34243e-07
4.31148e-07
4.28225e-07
4.25438e-07
4.22736e-07
4.20089e-07
4.17491e-07
4.14947e-07
4.12465e-07
4.10044e-07
4.07677e-07
4.05355e-07
4.0307e-07
4.00813e-07
3.98578e-07
3.96361e-07
3.94157e-07
3.91962e-07
3.89773e-07
3.87586e-07
3.85398e-07
3.83206e-07
3.81009e-07
3.78804e-07
3.7659e-07
3.74365e-07
3.72129e-07
3.6988e-07
3.67619e-07
3.65343e-07
3.63055e-07
3.60752e-07
3.58438e-07
3.56107e-07
3.53766e-07
3.51408e-07
3.49043e-07
3.46657e-07
3.44269e-07
3.41855e-07
3.39446e-07
3.37002e-07
3.34576e-07
3.32097e-07
3.29663e-07
3.27146e-07
3.24723e-07
3.2217e-07
3.19813e-07
3.17242e-07
3.15084e-07
3.12564e-07
3.1094e-07
3.08549e-07
3.08069e-07
3.05391e-07
4.93e-07
4.78878e-07
4.6511e-07
4.54533e-07
4.4711e-07
4.41719e-07
4.37268e-07
4.33188e-07
4.29313e-07
4.25648e-07
4.22232e-07
4.19067e-07
4.16121e-07
4.13344e-07
4.10688e-07
4.08122e-07
4.05624e-07
4.03179e-07
4.00778e-07
3.98411e-07
3.96071e-07
3.93749e-07
3.91439e-07
3.89135e-07
3.86834e-07
3.8453e-07
3.82221e-07
3.79905e-07
3.7758e-07
3.75243e-07
3.72894e-07
3.70532e-07
3.68155e-07
3.65765e-07
3.6336e-07
3.60941e-07
3.58507e-07
3.5606e-07
3.53599e-07
3.51125e-07
3.48639e-07
3.4614e-07
3.4363e-07
3.41107e-07
3.38573e-07
3.36025e-07
3.33465e-07
3.30888e-07
3.283e-07
3.25683e-07
3.2306e-07
3.2038e-07
3.17723e-07
3.14918e-07
3.12266e-07
3.0913e-07
3.06768e-07
3.02357e-07
3.02045e-07
2.9144e-07
2.97929e-07
2.96518e-07
2.91656e-07
2.85556e-07
2.79606e-07
2.74705e-07
2.71345e-07
2.69633e-07
2.69347e-07
2.69996e-07
2.70973e-07
2.71792e-07
2.72189e-07
2.72225e-07
2.72201e-07
3.07053e-07
3.03294e-07
2.96919e-07
2.9089e-07
2.86427e-07
2.83707e-07
2.82509e-07
2.82451e-07
2.83098e-07
2.83892e-07
2.84398e-07
2.84522e-07
2.84511e-07
2.84763e-07
2.85604e-07
2.87232e-07
2.89581e-07
2.92511e-07
2.95691e-07
2.9875e-07
3.01691e-07
3.04738e-07
3.07688e-07
3.09642e-07
3.09163e-07
3.04941e-07
2.92777e-07
2.63766e-07
2.29788e-07
5.20977e-08
3.08261e-07
3.04944e-07
3.0109e-07
2.97779e-07
2.9555e-07
2.94319e-07
2.93653e-07
2.93122e-07
2.92529e-07
2.92044e-07
2.92126e-07
2.93146e-07
2.95136e-07
2.97838e-07
3.00944e-07
3.04291e-07
3.07823e-07
3.11461e-07
3.15254e-07
3.19379e-07
3.24213e-07
3.29684e-07
3.35114e-07
3.39696e-07
3.42658e-07
3.42763e-07
3.35957e-07
3.18094e-07
2.84913e-07
1.44134e-07
3.11828e-07
3.0967e-07
3.07822e-07
3.06383e-07
3.05405e-07
3.04828e-07
3.04521e-07
3.04416e-07
3.04606e-07
3.05361e-07
3.06881e-07
3.092e-07
3.12184e-07
3.15549e-07
3.1902e-07
3.22505e-07
3.2618e-07
3.30397e-07
3.35518e-07
3.41773e-07
3.49009e-07
3.56698e-07
3.64242e-07
3.71493e-07
3.78069e-07
3.82628e-07
3.81848e-07
3.72427e-07
3.43897e-07
2.36105e-07
3.18205e-07
3.16721e-07
3.15896e-07
3.15496e-07
3.15366e-07
3.15472e-07
3.15855e-07
3.16596e-07
3.17789e-07
3.19485e-07
3.21649e-07
3.24166e-07
3.2693e-07
3.29977e-07
3.3354e-07
3.37988e-07
3.43578e-07
3.50306e-07
3.58001e-07
3.66471e-07
3.75396e-07
3.84612e-07
3.94328e-07
4.04694e-07
4.15115e-07
4.2414e-07
4.29272e-07
4.2722e-07
4.06444e-07
3.27478e-07
3.26003e-07
3.25109e-07
3.24981e-07
3.25345e-07
3.2599e-07
3.26854e-07
3.27984e-07
3.29459e-07
3.31341e-07
3.33647e-07
3.36371e-07
3.39525e-07
3.43189e-07
3.47547e-07
3.52791e-07
3.59006e-07
3.66185e-07
3.74174e-07
3.82773e-07
3.91929e-07
4.01874e-07
4.13055e-07
4.25748e-07
4.39599e-07
4.53689e-07
4.66951e-07
4.77644e-07
4.82529e-07
4.70731e-07
4.15761e-07
3.34841e-07
3.34502e-07
3.34971e-07
3.35971e-07
3.3728e-07
3.38816e-07
3.40607e-07
3.4273e-07
3.45259e-07
3.48254e-07
3.51764e-07
3.55852e-07
3.6059e-07
3.66049e-07
3.72272e-07
3.79252e-07
3.86955e-07
3.95438e-07
4.04937e-07
4.15836e-07
4.28451e-07
4.42804e-07
4.5861e-07
4.75337e-07
4.92575e-07
5.09948e-07
5.26049e-07
5.3759e-07
5.3518e-07
5.00201e-07
3.44176e-07
3.44404e-07
3.45421e-07
3.46978e-07
3.48868e-07
3.51011e-07
3.53428e-07
3.56198e-07
3.59406e-07
3.63127e-07
3.67424e-07
3.72349e-07
3.77952e-07
3.84284e-07
3.91399e-07
3.99379e-07
4.08355e-07
4.18542e-07
4.30164e-07
4.4333e-07
4.58048e-07
4.7418e-07
4.91609e-07
5.10466e-07
5.30955e-07
5.52643e-07
5.73889e-07
5.91579e-07
5.97905e-07
5.78946e-07
3.53765e-07
3.54547e-07
3.5608e-07
3.58146e-07
3.60565e-07
3.63272e-07
3.6629e-07
3.69696e-07
3.73576e-07
3.78007e-07
3.83055e-07
3.88776e-07
3.95232e-07
4.02494e-07
4.10655e-07
4.19825e-07
4.30133e-07
4.41709e-07
4.54672e-07
4.69104e-07
4.85054e-07
5.02673e-07
5.22308e-07
5.44274e-07
5.68487e-07
5.9418e-07
6.19844e-07
6.42955e-07
6.57209e-07
6.51084e-07
3.63174e-07
3.64492e-07
3.66495e-07
3.69014e-07
3.71908e-07
3.75128e-07
3.78703e-07
3.82705e-07
3.87217e-07
3.92315e-07
3.98067e-07
4.04538e-07
4.11799e-07
4.19934e-07
4.2904e-07
4.39227e-07
4.50619e-07
4.63347e-07
4.77558e-07
4.93432e-07
5.11199e-07
5.31125e-07
5.53402e-07
5.7802e-07
6.0477e-07
6.33192e-07
6.62477e-07
6.90458e-07
7.11546e-07
7.15167e-07
3.72011e-07
3.73827e-07
3.76255e-07
3.79174e-07
3.8249e-07
3.86172e-07
3.90253e-07
3.948e-07
3.99891e-07
4.056e-07
4.11998e-07
4.19158e-07
4.27158e-07
4.36087e-07
4.46053e-07
4.57173e-07
4.69588e-07
4.8345e-07
4.9894e-07
5.1625e-07
5.35591e-07
5.57153e-07
5.81099e-07
6.07501e-07
6.36375e-07
6.67573e-07
7.00459e-07
7.32773e-07
7.59504e-07
7.70258e-07
3.79823e-07
3.82079e-07
3.84867e-07
3.88124e-07
3.91793e-07
3.95867e-07
4.0038e-07
4.05395e-07
4.10983e-07
4.17217e-07
4.2417e-07
4.31919e-07
4.40549e-07
4.50156e-07
4.60854e-07
4.72769e-07
4.86047e-07
5.00852e-07
5.17367e-07
5.35791e-07
5.56338e-07
5.79229e-07
6.04695e-07
6.32928e-07
6.64039e-07
6.97799e-07
7.3346e-07
7.68836e-07
7.99735e-07
8.15311e-07
3.8617e-07
3.88783e-07
3.91859e-07
3.95378e-07
3.99324e-07
4.03708e-07
4.08566e-07
4.13954e-07
4.19939e-07
4.26592e-07
4.33988e-07
4.42208e-07
4.51342e-07
4.61491e-07
4.72773e-07
4.85321e-07
4.99286e-07
5.14838e-07
5.3217e-07
5.51493e-07
5.7304e-07
5.97053e-07
6.23779e-07
6.53404e-07
6.86027e-07
7.21427e-07
7.58981e-07
7.96658e-07
8.30783e-07
8.49787e-07
3.90653e-07
3.93519e-07
3.96794e-07
4.00494e-07
4.04631e-07
4.09229e-07
4.14326e-07
4.19975e-07
4.26237e-07
4.33182e-07
4.40886e-07
4.49433e-07
4.58916e-07
4.69441e-07
4.81127e-07
4.94112e-07
5.0855e-07
5.24617e-07
5.4251e-07
5.62448e-07
5.8467e-07
6.09425e-07
6.36966e-07
6.6749e-07
7.01123e-07
7.37687e-07
7.76615e-07
8.15906e-07
8.5212e-07
8.7326e-07
3.92972e-07
3.95969e-07
3.99346e-07
4.03138e-07
4.07372e-07
4.1208e-07
4.173e-07
4.23083e-07
4.29487e-07
4.36582e-07
4.44444e-07
4.53159e-07
4.62821e-07
4.73539e-07
4.85433e-07
4.98642e-07
5.13323e-07
5.29654e-07
5.47835e-07
5.68087e-07
5.90655e-07
6.15789e-07
6.4375e-07
6.74744e-07
7.08905e-07
7.46059e-07
7.8565e-07
8.25702e-07
8.62916e-07
8.85096e-07
3.92962e-07
3.95959e-07
3.99336e-07
4.03128e-07
4.07362e-07
4.1207e-07
4.1729e-07
4.23072e-07
4.29477e-07
4.36572e-07
4.44434e-07
4.53148e-07
4.62811e-07
4.73528e-07
4.85422e-07
4.98631e-07
5.13313e-07
5.29644e-07
5.47826e-07
5.68078e-07
5.90646e-07
6.15781e-07
6.43743e-07
6.74739e-07
7.08901e-07
7.46057e-07
7.8565e-07
8.25706e-07
8.62924e-07
8.85108e-07
3.90625e-07
3.93491e-07
3.96765e-07
4.00465e-07
4.04601e-07
4.09199e-07
4.14296e-07
4.19944e-07
4.26206e-07
4.33151e-07
4.40855e-07
4.49401e-07
4.58884e-07
4.69409e-07
4.81096e-07
4.94081e-07
5.08519e-07
5.24587e-07
5.42481e-07
5.62419e-07
5.84644e-07
6.09401e-07
6.36945e-07
6.67473e-07
7.01111e-07
7.37681e-07
7.76617e-07
8.15917e-07
8.52143e-07
8.73295e-07
3.86124e-07
3.88736e-07
3.91811e-07
3.9533e-07
3.99275e-07
4.03658e-07
4.08516e-07
4.13903e-07
4.19888e-07
4.26541e-07
4.33936e-07
4.42156e-07
4.51289e-07
4.61438e-07
4.72721e-07
4.85269e-07
4.99234e-07
5.14788e-07
5.32121e-07
5.51445e-07
5.72995e-07
5.97011e-07
6.23742e-07
6.53374e-07
6.86005e-07
7.21416e-07
7.58983e-07
7.96677e-07
8.30821e-07
8.49846e-07
3.7976e-07
3.82014e-07
3.84802e-07
3.88057e-07
3.91726e-07
3.95798e-07
4.00311e-07
4.05325e-07
4.10912e-07
4.17145e-07
4.24097e-07
4.31846e-07
4.40475e-07
4.50083e-07
4.60781e-07
4.72696e-07
4.85975e-07
5.00781e-07
5.17298e-07
5.35724e-07
5.56275e-07
5.79171e-07
6.04643e-07
6.32885e-07
6.64007e-07
6.97781e-07
7.3346e-07
7.6886e-07
7.99787e-07
8.15393e-07
3.71932e-07
3.73746e-07
3.76172e-07
3.79091e-07
3.82405e-07
3.86086e-07
3.90165e-07
3.94711e-07
3.99801e-07
4.05509e-07
4.11907e-07
4.19066e-07
4.27065e-07
4.35994e-07
4.45959e-07
4.5708e-07
4.69495e-07
4.83359e-07
4.9885e-07
5.16163e-07
5.35508e-07
5.57076e-07
5.81029e-07
6.07442e-07
6.36332e-07
6.67548e-07
7.00457e-07
7.328e-07
7.59567e-07
7.70363e-07
3.63079e-07
3.64395e-07
3.66397e-07
3.68915e-07
3.71807e-07
3.75025e-07
3.78599e-07
3.82599e-07
3.87109e-07
3.92206e-07
3.97957e-07
4.04427e-07
4.11687e-07
4.19821e-07
4.28926e-07
4.39114e-07
4.50506e-07
4.63235e-07
4.77449e-07
4.93325e-07
5.11097e-07
5.31028e-07
5.53314e-07
5.77943e-07
6.0471e-07
6.33156e-07
6.62471e-07
6.90487e-07
7.11618e-07
7.15294e-07
3.53656e-07
3.54436e-07
3.55968e-07
3.58031e-07
3.60449e-07
3.63153e-07
3.66169e-07
3.69573e-07
3.73451e-07
3.77881e-07
3.82927e-07
3.88647e-07
3.95101e-07
4.02363e-07
4.10523e-07
4.19692e-07
4.3e-07
4.41577e-07
4.54542e-07
4.68976e-07
4.84931e-07
5.02557e-07
5.22202e-07
5.44179e-07
5.6841e-07
5.94128e-07
6.19829e-07
6.42983e-07
6.57288e-07
6.51231e-07
3.44055e-07
3.4428e-07
3.45296e-07
3.4685e-07
3.48738e-07