/*--------------------------------*- C++ -*----------------------------------*\
| =========                 |                                                 |
| \\      /  F ield         | OpenFOAM: The Open Source CFD Toolbox           |
|  \\    /   O peration     | Version:  2312                                  |
|   \\  /    A nd           | Website:  www.openfoam.com                      |
|    \\/     M anipulation  |                                                 |
\*---------------------------------------------------------------------------*/
FoamFile
{
    version     2.0;
    format      ascii;
    arch        "LSB;label=32;scalar=64";
    class       volScalarField;
    location    "100000";
    object      p;
}
// * * * * * * * * * * * * * * * * * * * * * * * * * * * * * * * * * * * * * //

dimensions      [0 2 -2 0 0 0 0];

internalField   nonuniform List<scalar> 
2715
(
3.66399e-07
3.16047e-07
2.95246e-07
2.77845e-07
2.60403e-07
2.42865e-07
2.23252e-07
2.02349e-07
1.77895e-07
1.51643e-07
1.21029e-07
8.90521e-08
5.26e-08
1.60938e-08
-2.43641e-08
-6.28268e-08
-1.04615e-07
-1.42113e-07
-1.82612e-07
-2.1658e-07
-2.53713e-07
-2.82447e-07
-3.15051e-07
-3.37321e-07
-3.65651e-07
-3.79305e-07
-4.07813e-07
-4.08171e-07
-4.43604e-07
-5.45402e-07
3.52569e-07
2.97699e-07
2.83876e-07
2.69051e-07
2.52286e-07
2.35157e-07
2.15849e-07
1.95095e-07
1.70831e-07
1.44933e-07
1.14944e-07
8.38159e-08
4.8528e-08
1.3334e-08
-2.56054e-08
-6.26106e-08
-1.02613e-07
-1.38623e-07
-1.77268e-07
-2.10263e-07
-2.46036e-07
-2.74101e-07
-3.06497e-07
-3.28097e-07
-3.57099e-07
-3.71248e-07
-3.96713e-07
-4.10391e-07
-4.17116e-07
-5.66798e-07
3.40424e-07
2.95265e-07
2.82473e-07
2.68136e-07
2.5088e-07
2.32771e-07
2.12944e-07
1.91847e-07
1.67534e-07
1.41506e-07
1.11752e-07
8.07175e-08
4.59928e-08
1.11499e-08
-2.68827e-08
-6.32922e-08
-1.02271e-07
-1.3792e-07
-1.75938e-07
-2.08554e-07
-2.4385e-07
-2.7179e-07
-3.02957e-07
-3.26284e-07
-3.52392e-07
-3.7282e-07
-3.92004e-07
-4.20467e-07
-4.02266e-07
-5.04779e-07
3.30293e-07
2.91218e-07
2.76358e-07
2.62543e-07
2.45976e-07
2.28472e-07
2.08834e-07
1.8757e-07
1.63309e-07
1.37122e-07
1.07695e-07
7.66757e-08
4.27089e-08
8.07127e-09
-2.87376e-08
-6.49284e-08
-1.0235e-07
-1.37908e-07
-1.7374e-07
-2.06877e-07
-2.39343e-07
-2.69505e-07
-2.97589e-07
-3.24422e-07
-3.46208e-07
-3.72945e-07
-3.82409e-07
-4.20828e-07
-3.97492e-07
-4.66472e-07
3.20517e-07
2.88667e-07
2.72934e-07
2.60256e-07
2.44252e-07
2.25961e-07
2.05805e-07
1.83974e-07
1.59672e-07
1.33074e-07
1.03894e-07
7.2603e-08
3.93306e-08
4.60179e-09
-3.10124e-08
-6.72315e-08
-1.02996e-07
-1.38705e-07
-1.72524e-07
-2.06425e-07
-2.36718e-07
-2.68362e-07
-2.93446e-07
-3.23248e-07
-3.40898e-07
-3.71361e-07
-3.77373e-07
-4.13322e-07
-4.03495e-07
-4.3923e-07
3.11963e-07
2.86975e-07
2.70423e-07
2.57286e-07
2.41548e-07
2.23156e-07
2.02815e-07
1.80495e-07
1.56067e-07
1.29035e-07
9.99728e-08
6.83674e-08
3.56175e-08
7.60121e-10
-3.38491e-08
-7.00823e-08
-1.04375e-07
-1.40182e-07
-1.72224e-07
-2.06513e-07
-2.34836e-07
-2.67176e-07
-2.90478e-07
-3.21115e-07
-3.37836e-07
-3.67504e-07
-3.76637e-07
-4.04614e-07
-4.09682e-07
-4.27266e-07
3.04971e-07
2.85501e-07
2.68854e-07
2.5486e-07
2.39235e-07
2.20773e-07
2.00181e-07
1.77291e-07
1.52555e-07
1.25046e-07
9.59087e-08
6.40059e-08
3.15281e-08
-3.35558e-09
-3.72885e-08
-7.32891e-08
-1.06572e-07
-1.42006e-07
-1.72933e-07
-2.0676e-07
-2.34195e-07
-2.65921e-07
-2.89127e-07
-3.18504e-07
-3.36951e-07
-3.63326e-07
-3.77553e-07
-3.98983e-07
-4.11364e-07
-4.24729e-07
2.99773e-07
2.84131e-07
2.67992e-07
2.53036e-07
2.37166e-07
2.18549e-07
1.97637e-07
1.7419e-07
1.48977e-07
1.21012e-07
9.16007e-08
5.94906e-08
2.70162e-08
-7.72215e-09
-4.1334e-08
-7.68021e-08
-1.09564e-07
-1.44131e-07
-1.74602e-07
-2.07254e-07
-2.3468e-07
-2.64864e-07
-2.88982e-07
-3.16175e-07
-3.36959e-07
-3.6028e-07
-3.78138e-07
-3.96475e-07
-4.11543e-07
-4.24405e-07
2.96447e-07
2.82859e-07
2.67376e-07
2.5177e-07
2.35348e-07
2.16407e-07
1.95081e-07
1.71104e-07
1.45286e-07
1.16878e-07
8.70265e-08
5.4775e-08
2.20998e-08
-1.23726e-08
-4.59191e-08
-8.06659e-08
-1.13218e-07
-1.46654e-07
-1.76998e-07
-2.08197e-07
-2.35855e-07
-2.64361e-07
-2.89271e-07
-3.147e-07
-3.36873e-07
-3.58718e-07
-3.77985e-07
-3.95799e-07
-4.11527e-07
-4.25232e-07
2.94744e-07
2.81754e-07
2.66844e-07
2.50867e-07
2.33734e-07
2.14281e-07
1.92419e-07
1.67915e-07
1.41421e-07
1.12553e-07
8.2165e-08
4.97782e-08
1.68065e-08
-1.73778e-08
-5.09549e-08
-8.4957e-08
-1.17364e-07
-1.49678e-07
-1.79866e-07
-2.09729e-07
-2.37388e-07
-2.64559e-07
-2.89711e-07
-3.14071e-07
-3.36659e-07
-3.57977e-07
-3.77646e-07
-3.95624e-07
-4.11862e-07
-4.26402e-07
2.94185e-07
2.80964e-07
2.66267e-07
2.50039e-07
2.32191e-07
2.12086e-07
1.89571e-07
1.64502e-07
1.37307e-07
1.07944e-07
7.6985e-08
4.44161e-08
1.11436e-08
-2.28103e-08
-5.63876e-08
-8.97373e-08
-1.21902e-07
-1.53255e-07
-1.83086e-07
-2.11871e-07
-2.39188e-07
-2.65389e-07
-2.90304e-07
-3.14008e-07
-3.3651e-07
-3.57624e-07
-3.77434e-07
-3.9569e-07
-4.12479e-07
-4.27752e-07
2.94184e-07
2.80523e-07
2.65665e-07
2.49089e-07
2.30542e-07
2.09709e-07
1.86458e-07
1.60762e-07
1.32861e-07
1.02954e-07
7.14267e-08
3.86101e-08
5.07118e-09
-2.87335e-08
-6.22348e-08
-9.50492e-08
-1.26844e-07
-1.57392e-07
-1.8668e-07
-2.14574e-07
-2.41314e-07
-2.66728e-07
-2.91165e-07
-3.14345e-07
-3.36586e-07
-3.5754e-07
-3.77418e-07
-3.95926e-07
-4.13199e-07
-4.29186e-07
2.9434e-07
2.80284e-07
2.64991e-07
2.47891e-07
2.28625e-07
2.0703e-07
1.82999e-07
1.56606e-07
1.27986e-07
9.74851e-08
6.53972e-08
3.22724e-08
-1.49849e-09
-3.52215e-08
-6.85824e-08
-1.00945e-07
-1.32278e-07
-1.62114e-07
-1.90745e-07
-2.17827e-07
-2.43872e-07
-2.68541e-07
-2.92403e-07
-3.15045e-07
-3.36972e-07
-3.57695e-07
-3.77628e-07
-3.96262e-07
-4.14016e-07
-4.3052e-07
2.94408e-07
2.80036e-07
2.64159e-07
2.46381e-07
2.2635e-07
2.0396e-07
1.79111e-07
1.51949e-07
1.22575e-07
9.14262e-08
5.87734e-08
2.5289e-08
-8.69558e-09
-4.23842e-08
-7.55641e-08
-1.0752e-07
-1.38335e-07
-1.67492e-07
-1.954e-07
-2.21686e-07
-2.46962e-07
-2.70877e-07
-2.94084e-07
-3.16154e-07
-3.37685e-07
-3.5813e-07
-3.78025e-07
-3.96742e-07
-4.14848e-07
-4.31813e-07
2.94299e-07
2.79587e-07
2.63081e-07
2.44541e-07
2.23686e-07
2.00439e-07
1.74711e-07
1.46693e-07
1.16506e-07
8.46427e-08
5.13993e-08
1.75095e-08
-1.66901e-08
-5.03734e-08
-8.33509e-08
-1.1491e-07
-1.4517e-07
-1.73644e-07
-2.00778e-07
-2.26243e-07
-2.50687e-07
-2.73799e-07
-2.96276e-07
-3.17707e-07
-3.38756e-07
-3.58848e-07
-3.78619e-07
-3.97335e-07
-4.15717e-07
-4.33019e-07
2.94075e-07
2.78903e-07
2.61745e-07
2.42394e-07
2.20631e-07
1.96419e-07
1.69704e-07
1.40716e-07
1.09625e-07
7.69665e-08
4.3085e-08
8.7435e-09
-2.56845e-08
-5.93776e-08
-9.21351e-08
-1.23284e-07
-1.5295e-07
-1.80705e-07
-2.07009e-07
-2.31601e-07
-2.55136e-07
-2.77378e-07
-2.99024e-07
-3.1974e-07
-3.40185e-07
-3.5985e-07
-3.79368e-07
-3.98026e-07
-4.1656e-07
-4.34146e-07
2.93919e-07
2.78068e-07
2.60198e-07
2.39964e-07
2.17166e-07
1.91823e-07
1.63957e-07
1.3385e-07
1.01737e-07
6.81868e-08
3.36036e-08
-1.23439e-09
-3.59052e-08
-6.96066e-08
-1.02117e-07
-1.32817e-07
-1.61835e-07
-1.8881e-07
-2.14214e-07
-2.37852e-07
-2.60396e-07
-2.81668e-07
-3.0238e-07
-3.22268e-07
-3.41982e-07
-3.6111e-07
-3.80232e-07
-3.98754e-07
-4.17299e-07
-4.35148e-07
2.94083e-07
2.77251e-07
2.58487e-07
2.37206e-07
2.13175e-07
1.86483e-07
1.57261e-07
1.25859e-07
9.25862e-08
5.80397e-08
2.26886e-08
-1.26814e-08
-4.75967e-08
-8.12839e-08
-1.13501e-07
-1.43689e-07
-1.71984e-07
-1.98093e-07
-2.22512e-07
-2.45096e-07
-2.66554e-07
-2.86736e-07
-3.06405e-07
-3.25317e-07
-3.44179e-07
-3.62602e-07
-3.812e-07
-3.99429e-07
-4.17876e-07
-4.35874e-07
2.94687e-07
2.76566e-07
2.56568e-07
2.33928e-07
2.08388e-07
1.80098e-07
1.493e-07
1.16419e-07
8.18433e-08
4.62005e-08
1.00247e-08
-2.58943e-08
-6.10354e-08
-9.46623e-08
-1.26515e-07
-1.5611e-07
-1.83585e-07
-2.08728e-07
-2.32055e-07
-2.53474e-07
-2.73732e-07
-2.92693e-07
-3.11194e-07
-3.28965e-07
-3.4683e-07
-3.6435e-07
-3.8226e-07
-3.99985e-07
-4.18161e-07
-4.36138e-07
2.95488e-07
2.75806e-07
2.5411e-07
2.29697e-07
2.02335e-07
1.72202e-07
1.39622e-07
1.05086e-07
6.90729e-08
3.22466e-08
-4.79241e-09
-4.12547e-08
-7.65791e-08
-1.10076e-07
-1.41475e-07
-1.70374e-07
-1.96915e-07
-2.20977e-07
-2.4308e-07
-2.63209e-07
-2.82122e-07
-2.99717e-07
-3.16889e-07
-3.33333e-07
-3.50026e-07
-3.66395e-07
-3.83434e-07
-4.0033e-07
-4.18037e-07
-4.35603e-07
2.95739e-07
2.74233e-07
2.50476e-07
2.23927e-07
1.94432e-07
1.622e-07
1.27624e-07
9.12613e-08
5.36835e-08
1.55999e-08
-2.23214e-08
-5.92972e-08
-9.47348e-08
-1.28004e-07
-1.58831e-07
-1.86911e-07
-2.12381e-07
-2.35228e-07
-2.55944e-07
-2.74627e-07
-2.91999e-07
-3.08057e-07
-3.23676e-07
-3.38595e-07
-3.5386e-07
-3.68819e-07
-3.84714e-07
-4.00405e-07
-4.1735e-07
-4.3391e-07
2.95007e-07
2.71368e-07
2.45203e-07
2.1613e-07
1.84114e-07
1.49442e-07
1.12593e-07
7.41921e-08
3.49072e-08
-4.50411e-09
-4.33094e-08
-8.07359e-08
-1.16173e-07
-1.49065e-07
-1.79152e-07
-2.06243e-07
-2.30479e-07
-2.51954e-07
-2.71108e-07
-2.88155e-07
-3.03745e-07
-3.18039e-07
-3.31819e-07
-3.44977e-07
-3.58469e-07
-3.71732e-07
-3.86073e-07
-4.00174e-07
-4.15923e-07
-4.30767e-07
2.93006e-07
2.66714e-07
2.37657e-07
2.05551e-07
1.70511e-07
1.32958e-07
9.34881e-08
5.28091e-08
1.16784e-08
-2.90981e-08
-6.87358e-08
-1.06477e-07
-1.41717e-07
-1.73986e-07
-2.03078e-07
-2.28931e-07
-2.51726e-07
-2.71655e-07
-2.89094e-07
-3.04322e-07
-3.17886e-07
-3.30128e-07
-3.41733e-07
-3.52821e-07
-3.64118e-07
-3.75308e-07
-3.8751e-07
-3.99574e-07
-4.13505e-07
-4.2595e-07
2.89301e-07
2.59598e-07
2.26811e-07
1.90904e-07
1.522e-07
1.11267e-07
6.88153e-08
2.5641e-08
-1.74203e-08
-5.95196e-08
-9.98422e-08
-1.37651e-07
-1.72375e-07
-2.03644e-07
-2.31352e-07
-2.55589e-07
-2.76634e-07
-2.94788e-07
-3.10386e-07
-3.23676e-07
-3.35041e-07
-3.44913e-07
-3.53961e-07
-3.62565e-07
-3.71201e-07
-3.79795e-07
-3.89115e-07
-3.98534e-07
-4.09707e-07
-4.19318e-07
2.82068e-07
2.48157e-07
2.10655e-07
1.70056e-07
1.26989e-07
8.21504e-08
3.6375e-08
-9.44626e-09
-5.44217e-08
-9.7676e-08
-1.3839e-07
-1.75858e-07
-2.09576e-07
-2.39286e-07
-2.65017e-07
-2.8704e-07
-3.05797e-07
-3.2174e-07
-3.35241e-07
-3.46486e-07
-3.55594e-07
-3.6285e-07
-3.6895e-07
-3.7453e-07
-3.80024e-07
-3.85427e-07
-3.91172e-07
-3.97106e-07
-4.04485e-07
-4.10808e-07
2.6723e-07
2.27507e-07
1.84469e-07
1.38437e-07
9.02998e-08
4.11662e-08
-7.98084e-09
-5.62502e-08
-1.02764e-07
-1.46647e-07
-1.87101e-07
-2.23492e-07
-2.55427e-07
-2.82787e-07
-3.05737e-07
-3.24694e-07
-3.40269e-07
-3.53117e-07
-3.63773e-07
-3.72503e-07
-3.79299e-07
-3.8398e-07
-3.86929e-07
-3.88866e-07
-3.90572e-07
-3.92396e-07
-3.94276e-07
-3.95889e-07
-3.98675e-07
-4.013e-07
2.50387e-07
2.0398e-07
1.51564e-07
9.66982e-08
4.15291e-08
-1.29165e-08
-6.5983e-08
-1.16955e-07
-1.6498e-07
-2.09174e-07
-2.48789e-07
-2.83338e-07
-3.12667e-07
-3.36922e-07
-3.56459e-07
-3.71706e-07
-3.83197e-07
-3.91555e-07
-3.97482e-07
-4.01758e-07
-4.05125e-07
-4.0755e-07
-4.08017e-07
-4.05924e-07
-4.02496e-07
-4.00307e-07
-3.99131e-07
-3.9646e-07
-3.94125e-07
-3.94635e-07
1.88569e-07
1.32309e-07
7.46977e-08
1.55343e-08
-4.41156e-08
-1.02644e-07
-1.5856e-07
-2.10663e-07
-2.57966e-07
-2.9968e-07
-3.35292e-07
-3.64708e-07
-3.88331e-07
-4.07018e-07
-4.21709e-07
-4.32741e-07
-4.39985e-07
-4.43031e-07
-4.41542e-07
-4.36344e-07
-4.3075e-07
-4.29222e-07
-4.29703e-07
-4.25403e-07
-4.15298e-07
-4.06605e-07
-4.0384e-07
-4.04091e-07
-4.03484e-07
-4.00658e-07
1.58779e-07
8.96546e-08
1.50015e-08
-5.83452e-08
-1.27266e-07
-1.91156e-07
-2.4986e-07
-3.02782e-07
-3.48959e-07
-3.87487e-07
-4.17852e-07
-4.402e-07
-4.5545e-07
-4.65403e-07
-4.72602e-07
-4.80122e-07
-4.89335e-07
-4.95979e-07
-4.92659e-07
-4.7635e-07
-4.52579e-07
-4.33546e-07
-4.26425e-07
-4.27326e-07
-4.27206e-07
-4.23637e-07
-4.1847e-07
-4.13577e-07
-4.10581e-07
-4.09417e-07
-8.10946e-08
-1.57645e-07
-2.34664e-07
-3.10232e-07
-3.79887e-07
-4.40317e-07
-4.89847e-07
-5.27707e-07
-5.53506e-07
-5.67222e-07
-5.69462e-07
-5.61724e-07
-5.46453e-07
-5.27239e-07
-5.08483e-07
-4.94852e-07
-4.88842e-07
-4.90107e-07
-4.93718e-07
-4.9326e-07
-4.86497e-07
-4.75747e-07
-4.6249e-07
-4.48607e-07
-4.3677e-07
-4.28764e-07
-4.23751e-07
-4.20405e-07
-4.18363e-07
-4.1749e-07
3.07699e-07
3.08447e-07
3.09898e-07
3.11935e-07
3.14074e-07
3.15712e-07
3.16722e-07
3.17106e-07
3.16294e-07
3.12435e-07
3.03468e-07
2.88133e-07
2.44064e-07
2.13564e-07
-2.59307e-10
-1.6424e-07
-2.417e-07
-3.17737e-07
-3.87877e-07
-4.48794e-07
-4.98806e-07
-5.37136e-07
-5.63383e-07
-5.77513e-07
-5.80109e-07
-5.72649e-07
-5.57553e-07
-5.38383e-07
-5.19522e-07
-5.05655e-07
-4.99358e-07
-5.00415e-07
-5.0405e-07
-5.03821e-07
-4.97211e-07
-4.86559e-07
-4.73345e-07
-4.59387e-07
-4.47359e-07
-4.39164e-07
-4.34043e-07
-4.30618e-07
-4.28474e-07
-4.27469e-07
8.43013e-08
9.2414e-09
-6.45277e-08
-1.33872e-07
-1.98187e-07
-2.57319e-07
-3.1067e-07
-3.57273e-07
-3.96214e-07
-4.26964e-07
-4.49653e-07
-4.65178e-07
-4.75325e-07
-4.8262e-07
-4.90141e-07
-4.99405e-07
-5.06312e-07
-5.03458e-07
-4.87573e-07
-4.6382e-07
-4.44262e-07
-4.36576e-07
-4.37296e-07
-4.37356e-07
-4.33785e-07
-4.28742e-07
-4.23787e-07
-4.20683e-07
-4.19416e-07
1.27231e-07
6.92781e-08
9.75571e-09
-5.02653e-08
-1.09174e-07
-1.65477e-07
-2.17969e-07
-2.65657e-07
-3.07743e-07
-3.43705e-07
-3.73438e-07
-3.97335e-07
-4.1625e-07
-4.31136e-07
-4.42368e-07
-4.49807e-07
-4.53048e-07
-4.51736e-07
-4.46634e-07
-4.40955e-07
-4.39263e-07
-4.39812e-07
-4.35798e-07
-4.25819e-07
-4.16918e-07
-4.13958e-07
-4.1435e-07
-4.1403e-07
-4.11262e-07
1.99395e-07
1.46652e-07
9.14422e-08
3.59237e-08
-1.88739e-08
-7.22958e-08
-1.23627e-07
-1.72011e-07
-2.16559e-07
-2.56515e-07
-2.91386e-07
-3.2101e-07
-3.45535e-07
-3.65314e-07
-3.80781e-07
-3.92462e-07
-4.00979e-07
-4.07032e-07
-4.11407e-07
-4.14865e-07
-4.17419e-07
-4.18062e-07
-4.16154e-07
-4.12842e-07
-4.10732e-07
-4.09806e-07
-4.07451e-07
-4.05195e-07
-4.05705e-07
2.23165e-07
1.79835e-07
1.33493e-07
8.50363e-08
3.55774e-08
-1.39006e-08
-6.2506e-08
-1.09358e-07
-1.53577e-07
-1.94359e-07
-2.31063e-07
-2.63294e-07
-2.90927e-07
-3.14123e-07
-3.33299e-07
-3.49064e-07
-3.62078e-07
-3.72886e-07
-3.81771e-07
-3.88743e-07
-3.93614e-07
-3.96752e-07
-3.98878e-07
-4.00796e-07
-4.02881e-07
-4.05085e-07
-4.07026e-07
-4.1012e-07
-4.13029e-07
2.44058e-07
2.06281e-07
1.65389e-07
1.22021e-07
7.68767e-08
3.07896e-08
-1.53499e-08
-6.06478e-08
-1.04224e-07
-1.45255e-07
-1.83029e-07
-2.17037e-07
-2.47018e-07
-2.72996e-07
-2.95241e-07
-3.14199e-07
-3.30327e-07
-3.44007e-07
-3.55435e-07
-3.64737e-07
-3.72189e-07
-3.78488e-07
-3.84286e-07
-3.90043e-07
-3.95748e-07
-4.01836e-07
-4.08119e-07
-4.15885e-07
-4.22518e-07
2.55689e-07
2.22642e-07
1.86457e-07
1.47469e-07
1.06246e-07
6.3498e-08
2.00206e-08
-2.3349e-08
-6.57575e-08
-1.06386e-07
-1.44491e-07
-1.79498e-07
-2.11033e-07
-2.38987e-07
-2.6345e-07
-2.84704e-07
-3.03053e-07
-3.18841e-07
-3.32318e-07
-3.43873e-07
-3.53934e-07
-3.63186e-07
-3.72007e-07
-3.80903e-07
-3.89769e-07
-3.99405e-07
-4.09127e-07
-4.20647e-07
-4.30556e-07
2.62971e-07
2.33666e-07
2.01294e-07
1.65981e-07
1.28151e-07
8.83973e-08
4.74278e-08
6.00048e-09
-3.50738e-08
-7.50072e-08
-1.13036e-07
-1.48553e-07
-1.81082e-07
-2.10419e-07
-2.36497e-07
-2.59502e-07
-2.79626e-07
-2.97256e-07
-3.12661e-07
-3.26406e-07
-3.38822e-07
-3.50619e-07
-3.61897e-07
-3.73415e-07
-3.84816e-07
-3.97258e-07
-4.09537e-07
-4.23703e-07
-4.36392e-07
2.6777e-07
2.41366e-07
2.12036e-07
1.79759e-07
1.4482e-07
1.07697e-07
6.90157e-08
2.94442e-08
-1.02549e-08
-4.9347e-08
-8.7052e-08
-1.2276e-07
-1.55905e-07
-1.86233e-07
-2.13545e-07
-2.37989e-07
-2.59652e-07
-2.78987e-07
-2.96198e-07
-3.11954e-07
-3.26399e-07
-3.40341e-07
-3.53648e-07
-3.67298e-07
-3.80697e-07
-3.95171e-07
-4.0938e-07
-4.25217e-07
-4.40187e-07
2.70763e-07
2.46774e-07
2.19978e-07
1.9023e-07
1.57739e-07
1.22899e-07
8.62639e-08
4.84079e-08
1.0045e-08
-2.8155e-08
-6.54016e-08
-1.01102e-07
-1.34618e-07
-1.65679e-07
-1.93973e-07
-2.19644e-07
-2.42669e-07
-2.63553e-07
-2.82383e-07
-2.99897e-07
-3.16079e-07
-3.31816e-07
-3.46834e-07
-3.62181e-07
-3.77195e-07
-3.93105e-07
-4.08783e-07
-4.25661e-07
-4.42184e-07
2.72452e-07
2.50531e-07
2.25877e-07
1.98269e-07
1.67885e-07
1.35048e-07
1.00248e-07
6.39636e-08
2.68651e-08
-1.04449e-08
-4.71709e-08
-8.27504e-08
-1.16488e-07
-1.48113e-07
-1.77218e-07
-2.03948e-07
-2.28177e-07
-2.50429e-07
-2.70687e-07
-2.89712e-07
-3.07398e-07
-3.24637e-07
-3.41124e-07
-3.57819e-07
-3.74153e-07
-3.91093e-07
-4.07844e-07
-4.25338e-07
-4.42691e-07
2.73319e-07
2.53101e-07
2.30225e-07
2.04445e-07
1.75911e-07
1.44863e-07
1.11723e-07
7.68837e-08
4.09748e-08
4.5354e-09
-3.1641e-08
-6.70291e-08
-1.0089e-07
-1.32959e-07
-1.62751e-07
-1.90402e-07
-2.15699e-07
-2.39155e-07
-2.60682e-07
-2.81017e-07
-3.00032e-07
-3.18547e-07
-3.363e-07
-3.54087e-07
-3.71479e-07
-3.89182e-07
-4.06631e-07
-4.24459e-07
-4.42064e-07
2.74106e-07
2.55125e-07
2.33611e-07
2.09345e-07
1.82415e-07
1.52948e-07
1.21293e-07
8.77623e-08
5.2955e-08
1.73472e-08
-1.82744e-08
-5.34287e-08
-8.73427e-08
-1.19766e-07
-1.50143e-07
-1.78599e-07
-2.04847e-07
-2.29373e-07
-2.5204e-07
-2.7354e-07
-2.93735e-07
-3.13366e-07
-3.32194e-07
-3.50902e-07
-3.69104e-07
-3.87394e-07
-4.05228e-07
-4.23204e-07
-4.40696e-07
2.75018e-07
2.56933e-07
2.3647e-07
2.13442e-07
1.87864e-07
1.59759e-07
1.29403e-07
9.70369e-08
6.323e-08
2.83964e-08
-6.68799e-09
-4.15898e-08
-7.55114e-08
-1.08218e-07
-1.39097e-07
-1.6826e-07
-1.95358e-07
-2.20846e-07
-2.4454e-07
-2.67091e-07
-2.88333e-07
-3.08951e-07
-3.28692e-07
-3.48177e-07
-3.66998e-07
-3.85714e-07
-4.03739e-07
-4.21697e-07
-4.3893e-07
2.7594e-07
2.58571e-07
2.38994e-07
2.17005e-07
1.92561e-07
1.6561e-07
1.36377e-07
1.05037e-07
7.21262e-08
3.79999e-08
3.41677e-09
-3.1235e-08
-6.51419e-08
-9.80848e-08
-1.29402e-07
-1.59198e-07
-1.87061e-07
-2.13423e-07
-2.38044e-07
-2.61549e-07
-2.83718e-07
-3.05216e-07
-3.25724e-07
-3.45865e-07
-3.65146e-07
-3.84164e-07
-4.02236e-07
-4.20076e-07
-4.36951e-07
2.76708e-07
2.59993e-07
2.4123e-07
2.20152e-07
1.96676e-07
1.70715e-07
1.42454e-07
1.12022e-07
7.99095e-08
4.64259e-08
1.2299e-08
-2.2118e-08
-5.60086e-08
-8.91616e-08
-1.20879e-07
-1.51253e-07
-1.79818e-07
-2.06985e-07
-2.32453e-07
-2.56827e-07
-2.79826e-07
-3.021e-07
-3.23267e-07
-3.43939e-07
-3.63577e-07
-3.82762e-07
-4.00813e-07
-4.18405e-07
-4.34909e-07
2.77236e-07
2.61152e-07
2.43153e-07
2.22902e-07
2.00286e-07
1.75207e-07
1.47804e-07
1.18187e-07
8.67926e-08
5.3903e-08
2.01861e-08
-1.40107e-08
-4.79001e-08
-8.12465e-08
-1.1335e-07
-1.44264e-07
-1.73495e-07
-2.01412e-07
-2.27673e-07
-2.52843e-07
-2.76604e-07
-2.99556e-07
-3.21307e-07
-3.42395e-07
-3.6232e-07
-3.81553e-07
-3.99531e-07
-4.16766e-07
-4.32851e-07
2.77561e-07
2.62062e-07
2.44744e-07
2.25259e-07
2.03441e-07
1.7918e-07
1.52549e-07
1.23687e-07
9.29448e-08
6.06223e-08
2.72698e-08
-6.70944e-09
-4.06259e-08
-7.41461e-08
-1.06645e-07
-1.38064e-07
-1.67954e-07
-1.96572e-07
-2.23601e-07
-2.49505e-07
-2.73981e-07
-2.97539e-07
-3.1981e-07
-3.41235e-07
-3.61375e-07
-3.8058e-07
-3.98408e-07
-4.15223e-07
-4.30773e-07
2.77875e-07
2.62811e-07
2.4602e-07
2.27255e-07
2.06202e-07
1.82721e-07
1.56789e-07
1.28647e-07
9.85017e-08
6.67407e-08
3.37018e-08
-4.34497e-11
-3.40332e-08
-6.76887e-08
-1.00626e-07
-1.32496e-07
-1.63079e-07
-1.92334e-07
-2.20145e-07
-2.46713e-07
-2.71893e-07
-2.95984e-07
-3.18741e-07
-3.40428e-07
-3.6074e-07
-3.79835e-07
-3.97476e-07
-4.1376e-07
-4.28731e-07
2.78388e-07
2.63486e-07
2.47045e-07
2.28982e-07
2.08658e-07
1.85912e-07
1.60609e-07
1.33173e-07
1.03575e-07
7.23819e-08
3.95963e-08
6.11779e-09
-2.80119e-08
-6.17405e-08
-9.51985e-08
-1.27431e-07
-1.58795e-07
-1.88578e-07
-2.17248e-07
-2.44367e-07
-2.70292e-07
-2.94824e-07
-3.18056e-07
-3.39958e-07
-3.60376e-07
-3.79358e-07
-3.96695e-07
-4.12459e-07
-4.26671e-07
2.79249e-07
2.64133e-07
2.47947e-07
2.306e-07
2.10929e-07
1.88835e-07
1.64098e-07
1.37362e-07
1.08263e-07
7.7639e-08
4.50409e-08
1.18621e-08
-2.24881e-08
-5.62161e-08
-9.03097e-08
-1.2278e-07
-1.5508e-07
-1.8521e-07
-2.14922e-07
-2.42363e-07
-2.69214e-07
-2.93952e-07
-3.17792e-07
-3.39741e-07
-3.60316e-07
-3.7912e-07
-3.96139e-07
-4.11328e-07
-4.24782e-07
2.8042e-07
2.64733e-07
2.48923e-07
2.32289e-07
2.13129e-07
1.91569e-07
1.6736e-07
1.41299e-07
1.1266e-07
8.25722e-08
5.01134e-08
1.72298e-08
-1.73995e-08
-5.10971e-08
-8.5919e-08
-1.18533e-07
-1.51927e-07
-1.82207e-07
-2.13215e-07
-2.40644e-07
-2.6878e-07
-2.9326e-07
-3.18112e-07
-3.39624e-07
-3.60679e-07
-3.79054e-07
-3.95882e-07
-4.10544e-07
-4.23154e-07
2.81756e-07
2.65417e-07
2.50261e-07
2.34179e-07
2.15342e-07
1.94196e-07
1.70515e-07
1.45059e-07
1.16863e-07
8.72131e-08
5.48971e-08
2.22141e-08
-1.26754e-08
-4.64368e-08
-8.19665e-08
-1.14786e-07
-1.49288e-07
-1.79687e-07
-2.12111e-07
-2.39301e-07
-2.69061e-07
-2.92745e-07
-3.19297e-07
-3.39418e-07
-3.6189e-07
-3.78854e-07
-3.96179e-07
-4.10171e-07
-4.21943e-07
2.8319e-07
2.66346e-07
2.52156e-07
2.36319e-07
2.17634e-07
1.96808e-07
1.73682e-07
1.48701e-07
1.20958e-07
9.15831e-08
5.94726e-08
2.67878e-08
-8.24585e-09
-4.23235e-08
-7.83785e-08
-1.11709e-07
-1.47062e-07
-1.77905e-07
-2.11473e-07
-2.38658e-07
-2.69914e-07
-2.92683e-07
-3.21354e-07
-3.39155e-07
-3.64605e-07
-3.77973e-07
-3.98334e-07
-4.09662e-07
-4.21947e-07
2.84727e-07
2.67987e-07
2.54652e-07
2.387e-07
2.20083e-07
1.99507e-07
1.76948e-07
1.52276e-07
1.25004e-07
9.5704e-08
6.38862e-08
3.09324e-08
-4.07844e-09
-3.88239e-08
-7.51115e-08
-1.09436e-07
-1.45155e-07
-1.77089e-07
-2.11105e-07
-2.39151e-07
-2.70994e-07
-2.93833e-07
-3.23719e-07
-3.39795e-07
-3.68474e-07
-3.76803e-07
-4.03624e-07
-4.07707e-07
-4.2418e-07
2.86481e-07
2.70567e-07
2.57693e-07
2.41475e-07
2.22956e-07
2.02563e-07
1.80488e-07
1.55938e-07
1.29096e-07
9.96764e-08
6.81667e-08
3.46931e-08
-1.95546e-10
-3.59364e-08
-7.22149e-08
-1.07992e-07
-1.43614e-07
-1.77292e-07
-2.10917e-07
-2.40891e-07
-2.72039e-07
-2.96609e-07
-3.25648e-07
-3.42611e-07
-3.72065e-07
-3.77278e-07
-4.12004e-07
-4.01334e-07
-4.35759e-07
2.89097e-07
2.74055e-07
2.60037e-07
2.43256e-07
2.25524e-07
2.05651e-07
1.8414e-07
1.59629e-07
1.33191e-07
1.03523e-07
7.2277e-08
3.81102e-08
3.30542e-09
-3.36219e-08
-6.98786e-08
-1.07294e-07
-1.42769e-07
-1.78423e-07
-2.11282e-07
-2.4337e-07
-2.73064e-07
-3.00566e-07
-3.26665e-07
-3.47668e-07
-3.73444e-07
-3.82015e-07
-4.19217e-07
-3.95045e-07
-4.62502e-07
2.93217e-07
2.80252e-07
2.65718e-07
2.48246e-07
2.29902e-07
2.09831e-07
1.8848e-07
1.63912e-07
1.37624e-07
1.07625e-07
7.63543e-08
4.14275e-08
6.40874e-09
-3.1738e-08
-6.82188e-08
-1.07178e-07
-1.4275e-07
-1.80563e-07
-2.12903e-07
-2.47777e-07
-2.75232e-07
-3.05726e-07
-3.28365e-07
-3.53591e-07
-3.73111e-07
-3.91251e-07
-4.18618e-07
-3.99424e-07
-5.00109e-07
2.95694e-07
2.81693e-07
2.66668e-07
2.49685e-07
2.32324e-07
2.12774e-07
1.91763e-07
1.67242e-07
1.4108e-07
1.10841e-07
7.94721e-08
4.39792e-08
8.60523e-09
-3.04468e-08
-6.75231e-08
-1.07492e-07
-1.43424e-07
-1.81847e-07
-2.14563e-07
-2.49904e-07
-2.77452e-07
-3.09178e-07
-3.3006e-07
-3.58149e-07
-3.71425e-07
-3.95771e-07
-4.08439e-07
-4.13937e-07
-5.61434e-07
3.14151e-07
2.93171e-07
2.75572e-07
2.57914e-07
2.40136e-07
2.20273e-07
1.99104e-07
1.74382e-07
1.47853e-07
1.16977e-07
8.47443e-08
4.80749e-08
1.1377e-08
-2.92009e-08
-6.7739e-08
-1.09493e-07
-1.46894e-07
-1.87141e-07
-2.20807e-07
-2.57437e-07
-2.85622e-07
-3.17465e-07
-3.38951e-07
-3.66294e-07
-3.78965e-07
-4.06308e-07
-4.05642e-07
-4.39677e-07
-5.39788e-07
-4.17445e-07
-4.10144e-07
-4.02873e-07
-4.05181e-07
-4.12292e-07
-4.23578e-07
-4.33233e-07
-4.41063e-07
-4.47098e-07
-4.51279e-07
-4.53625e-07
-4.54463e-07
-4.54241e-07
-4.53309e-07
-4.52e-07
-4.50395e-07
-4.4856e-07
-4.46547e-07
-4.4426e-07
-4.41915e-07
-4.3944e-07
-4.37141e-07
-4.35425e-07
-4.34799e-07
-4.36863e-07
-4.41502e-07
-4.47368e-07
-4.40228e-07
-4.04287e-07
-3.33129e-07
-4.17944e-07
-4.11753e-07
-4.05261e-07
-4.05027e-07
-4.13782e-07
-4.27299e-07
-4.4077e-07
-4.52074e-07
-4.61005e-07
-4.67514e-07
-4.71612e-07
-4.73461e-07
-4.73743e-07
-4.72962e-07
-4.7148e-07
-4.69694e-07
-4.67454e-07
-4.64976e-07
-4.62129e-07
-4.58915e-07
-4.55643e-07
-4.51917e-07
-4.48618e-07
-4.44877e-07
-4.41088e-07
-4.35552e-07
-4.26955e-07
-4.15901e-07
-4.02281e-07
-3.91485e-07
-4.18512e-07
-4.13688e-07
-4.09417e-07
-4.10769e-07
-4.18196e-07
-4.30373e-07
-4.45234e-07
-4.59456e-07
-4.71673e-07
-4.81318e-07
-4.88297e-07
-4.92638e-07
-4.94482e-07
-4.94623e-07
-4.93344e-07
-4.91323e-07
-4.88813e-07
-4.85762e-07
-4.8267e-07
-4.7887e-07
-4.75007e-07
-4.70372e-07
-4.65276e-07
-4.59331e-07
-4.51843e-07
-4.43723e-07
-4.34175e-07
-4.26162e-07
-4.15252e-07
-4.01735e-07
-4.18998e-07
-4.15626e-07
-4.13881e-07
-4.1695e-07
-4.24722e-07
-4.35937e-07
-4.50181e-07
-4.65481e-07
-4.79855e-07
-4.9236e-07
-5.02347e-07
-5.09881e-07
-5.14739e-07
-5.17191e-07
-5.17671e-07
-5.16236e-07
-5.13938e-07
-5.10452e-07
-5.06648e-07
-5.02205e-07
-4.97267e-07
-4.92113e-07
-4.85848e-07
-4.79481e-07
-4.71618e-07
-4.64159e-07
-4.55643e-07
-4.47324e-07
-4.37262e-07
-4.26095e-07
-4.19165e-07
-4.17306e-07
-4.18153e-07
-4.23315e-07
-4.32104e-07
-4.43542e-07
-4.5675e-07
-4.71602e-07
-4.86744e-07
-5.00919e-07
-5.13473e-07
-5.23724e-07
-5.31914e-07
-5.37391e-07
-5.41001e-07
-5.42091e-07
-5.41611e-07
-5.39326e-07
-5.35675e-07
-5.31135e-07
-5.2538e-07
-5.1945e-07
-5.12323e-07
-5.05319e-07
-4.97431e-07
-4.89622e-07
-4.81161e-07
-4.72394e-07
-4.63275e-07
-4.54342e-07
-4.18718e-07
-4.18353e-07
-4.21634e-07
-4.28971e-07
-4.39173e-07
-4.51304e-07
-4.64643e-07
-4.78696e-07
-4.93535e-07
-5.08019e-07
-5.21941e-07
-5.34172e-07
-5.4494e-07
-5.53332e-07
-5.60022e-07
-5.64421e-07
-5.66953e-07
-5.67558e-07
-5.66242e-07
-5.63474e-07
-5.58983e-07
-5.53484e-07
-5.46678e-07
-5.39229e-07
-5.30913e-07
-5.22062e-07
-5.12448e-07
-5.02352e-07
-4.91863e-07
-4.81797e-07
-4.17324e-07
-4.18344e-07
-4.23742e-07
-4.33114e-07
-4.44867e-07
-4.58103e-07
-4.72111e-07
-4.86524e-07
-5.00779e-07
-5.15161e-07
-5.28953e-07
-5.42308e-07
-5.54248e-07
-5.64908e-07
-5.73962e-07
-5.81274e-07
-5.86794e-07
-5.90548e-07
-5.92467e-07
-5.92738e-07
-5.91236e-07
-5.88248e-07
-5.8368e-07
-5.77839e-07
-5.70617e-07
-5.62334e-07
-5.52865e-07
-5.42659e-07
-5.31717e-07
-5.20976e-07
-4.14663e-07
-4.1689e-07
-4.24026e-07
-4.35153e-07
-4.48381e-07
-4.62859e-07
-4.77835e-07
-4.92966e-07
-5.07637e-07
-5.22305e-07
-5.35671e-07
-5.49433e-07
-5.61552e-07
-5.7336e-07
-5.83646e-07
-5.92947e-07
-6.0071e-07
-6.07132e-07
-6.11912e-07
-6.15236e-07
-6.16886e-07
-6.17091e-07
-6.15653e-07
-6.12816e-07
-6.08444e-07
-6.02826e-07
-5.95987e-07
-5.88251e-07
-5.79953e-07
-5.71534e-07
-4.10518e-07
-4.13817e-07
-4.22312e-07
-4.34727e-07
-4.49255e-07
-4.64918e-07
-4.80975e-07
-4.97002e-07
-5.12464e-07
-5.27689e-07
-5.41653e-07
-5.55503e-07
-5.67835e-07
-5.79988e-07
-5.90885e-07
-6.01111e-07
-6.10093e-07
-6.18118e-07
-6.24899e-07
-6.30498e-07
-6.34763e-07
-6.37662e-07
-6.39205e-07
-6.39315e-07
-6.38185e-07
-6.35682e-07
-6.32205e-07
-6.27578e-07
-6.2252e-07
-6.16834e-07
-4.04924e-07
-4.0912e-07
-4.18592e-07
-4.31925e-07
-4.47448e-07
-4.64103e-07
-4.81131e-07
-4.9803e-07
-5.14385e-07
-5.30242e-07
-5.45001e-07
-5.59233e-07
-5.72312e-07
-5.84764e-07
-5.96123e-07
-6.06736e-07
-6.1644e-07
-6.25225e-07
-6.33161e-07
-6.3992e-07
-6.45909e-07
-6.50474e-07
-6.54301e-07
-6.56536e-07
-6.58063e-07
-6.57951e-07
-6.57201e-07
-6.54897e-07
-6.52121e-07
-6.48002e-07
-3.9825e-07
-4.03116e-07
-4.13237e-07
-4.27141e-07
-4.43312e-07
-4.60664e-07
-4.78429e-07
-4.96063e-07
-5.13202e-07
-5.29664e-07
-5.4522e-07
-5.59931e-07
-5.73657e-07
-5.86528e-07
-5.98423e-07
-6.09495e-07
-6.19705e-07
-6.28993e-07
-6.37541e-07
-6.44991e-07
-6.51879e-07
-6.57344e-07
-6.6243e-07
-6.65819e-07
-6.68968e-07
-6.70225e-07
-6.71285e-07
-6.70347e-07
-6.69257e-07
-6.6608e-07
-3.91196e-07
-3.96493e-07
-4.06992e-07
-4.21169e-07
-4.3765e-07
-4.5537e-07
-4.73564e-07
-4.91679e-07
-5.09343e-07
-5.26315e-07
-5.42434e-07
-5.5764e-07
-5.71886e-07
-5.85186e-07
-5.97537e-07
-6.08983e-07
-6.19546e-07
-6.29231e-07
-6.38082e-07
-6.45974e-07
-6.53204e-07
-6.59232e-07
-6.64744e-07
-6.68926e-07
-6.72657e-07
-6.7481e-07
-6.76745e-07
-6.76682e-07
-6.76978e-07
-6.74301e-07
-3.84722e-07
-3.90253e-07
-4.00918e-07
-4.1514e-07
-4.31663e-07
-4.49462e-07
-4.67792e-07
-4.86104e-07
-5.04018e-07
-5.21274e-07
-5.37708e-07
-5.5323e-07
-5.67793e-07
-5.81386e-07
-5.94015e-07
-6.05702e-07
-6.16468e-07
-6.26331e-07
-6.35309e-07
-6.43405e-07
-6.50637e-07
-6.56968e-07
-6.62435e-07
-6.66973e-07
-6.70647e-07
-6.73317e-07
-6.75103e-07
-6.75812e-07
-6.76671e-07
-6.72973e-07
-3.79882e-07
-3.85521e-07
-3.96221e-07
-4.1037e-07
-4.26791e-07
-4.44496e-07
-4.62769e-07
-4.81071e-07
-4.9902e-07
-5.16348e-07
-5.32883e-07
-5.48519e-07
-5.63196e-07
-5.76892e-07
-5.89602e-07
-6.01335e-07
-6.12108e-07
-6.21934e-07
-6.30829e-07
-6.38802e-07
-6.45859e-07
-6.51999e-07
-6.5723e-07
-6.61545e-07
-6.64947e-07
-6.67409e-07
-6.68905e-07
-6.69373e-07
-6.68836e-07
-6.67423e-07
-3.77591e-07
-3.83277e-07
-3.93983e-07
-4.08073e-07
-4.24405e-07
-4.4201e-07
-4.60196e-07
-4.78426e-07
-4.96317e-07
-5.13601e-07
-5.301e-07
-5.45699e-07
-5.60331e-07
-5.73963e-07
-5.86582e-07
-5.98191e-07
-6.08797e-07
-6.1841e-07
-6.27041e-07
-6.34698e-07
-6.4139e-07
-6.47125e-07
-6.5191e-07
-6.55749e-07
-6.58638e-07
-6.60567e-07
-6.61533e-07
-6.61561e-07
-6.60736e-07
-6.59176e-07
-3.78365e-07
-3.84087e-07
-3.94853e-07
-4.09017e-07
-4.25429e-07
-4.43121e-07
-4.61373e-07
-4.79659e-07
-4.97595e-07
-5.14909e-07
-5.31418e-07
-5.47007e-07
-5.61606e-07
-5.75178e-07
-5.8771e-07
-5.99198e-07
-6.09648e-07
-6.19067e-07
-6.27461e-07
-6.34837e-07
-6.41202e-07
-6.46562e-07
-6.50927e-07
-6.54306e-07
-6.56701e-07
-6.58101e-07
-6.58491e-07
-6.57897e-07
-6.56434e-07
-6.54281e-07
-3.8216e-07
-3.879e-07
-3.9877e-07
-4.13124e-07
-4.29762e-07
-4.47683e-07
-4.66152e-07
-4.84622e-07
-5.02702e-07
-5.20119e-07
-5.3669e-07
-5.52302e-07
-5.66887e-07
-5.80414e-07
-5.9287e-07
-6.04259e-07
-6.14586e-07
-6.2386e-07
-6.32088e-07
-6.39276e-07
-6.45426e-07
-6.5054e-07
-6.54624e-07
-6.57682e-07
-6.59726e-07
-6.6074e-07
-6.60698e-07
-6.5953e-07
-6.57301e-07
-6.543e-07
-3.8838e-07
-3.94063e-07
-4.04982e-07
-4.19508e-07
-4.36346e-07
-4.54447e-07
-4.73049e-07
-4.91588e-07
-5.0967e-07