/*--------------------------------*- C++ -*----------------------------------*\
| =========                 |                                                 |
| \\      /  F ield         | OpenFOAM: The Open Source CFD Toolbox           |
|  \\    /   O peration     | Version:  2312                                  |
|   \\  /    A nd           | Website:  www.openfoam.com                      |
|    \\/     M anipulation  |                                                 |
\*---------------------------------------------------------------------------*/
FoamFile
{
    version     2.0;
    format      ascii;
    arch        "LSB;label=32;scalar=64";
    class       volVectorField;
    location    "104000";
    object      U;
}
// * * * * * * * * * * * * * * * * * * * * * * * * * * * * * * * * * * * * * //

dimensions      [0 1 -1 0 0 0 0];

internalField   nonuniform List<vector> 
10800
(
(0.000992484 4.94202e-06 0)
(0.000990038 1.24581e-05 0)
(0.000986872 1.74798e-05 0)
(0.000980499 2.06638e-05 0)
(0.000971085 2.27472e-05 0)
(0.000959794 2.42411e-05 0)
(0.000947692 2.53805e-05 0)
(0.000935314 2.62401e-05 0)
(0.000922803 2.68442e-05 0)
(0.000910137 2.72179e-05 0)
(0.00089727 2.73989e-05 0)
(0.0008842 2.743e-05 0)
(0.000870962 2.73493e-05 0)
(0.000857612 2.71848e-05 0)
(0.000844202 2.69547e-05 0)
(0.000830769 2.66707e-05 0)
(0.000817339 2.63407e-05 0)
(0.000803931 2.59713e-05 0)
(0.00079056 2.5568e-05 0)
(0.000777241 2.51356e-05 0)
(0.00076399 2.4678e-05 0)
(0.000750821 2.41982e-05 0)
(0.000737749 2.36982e-05 0)
(0.000724787 2.31801e-05 0)
(0.00071195 2.26446e-05 0)
(0.000699249 2.20932e-05 0)
(0.000686697 2.15262e-05 0)
(0.000674307 2.09449e-05 0)
(0.000662092 2.03487e-05 0)
(0.000650063 1.97395e-05 0)
(0.000638234 1.91159e-05 0)
(0.000626617 1.84804e-05 0)
(0.000615224 1.78305e-05 0)
(0.000604068 1.71702e-05 0)
(0.000593162 1.64951e-05 0)
(0.000582516 1.58118e-05 0)
(0.000572149 1.51128e-05 0)
(0.000562063 1.44089e-05 0)
(0.000552284 1.36873e-05 0)
(0.000542806 1.29661e-05 0)
(0.000533668 1.22235e-05 0)
(0.000524842 1.14895e-05 0)
(0.000516398 1.07267e-05 0)
(0.000508263 9.98561e-06 0)
(0.000500574 9.20186e-06 0)
(0.000493151 8.46085e-06 0)
(0.000486303 7.6522e-06 0)
(0.000479573 6.91814e-06 0)
(0.000473724 6.07568e-06 0)
(0.000467545 5.34708e-06 0)
(0.000463075 4.46199e-06 0)
(0.00045694 3.6919e-06 0)
(0.000454903 2.80183e-06 0)
(0.00044718 1.74232e-06 0)
(0.000450702 1.17178e-06 0)
(0.000436324 -1.23945e-06 0)
(0.000454693 1.28557e-07 0)
(0.000418752 -7.70286e-06 0)
(0.000477029 2.04516e-06 0)
(0.000382349 -2.44786e-05 0)
(0.00100003 5.80272e-06 0)
(0.00100172 1.49942e-05 0)
(0.00100423 2.15257e-05 0)
(0.00100706 2.60896e-05 0)
(0.00100979 2.94485e-05 0)
(0.00101219 3.21308e-05 0)
(0.00101421 3.43839e-05 0)
(0.00101588 3.62943e-05 0)
(0.00101725 3.78948e-05 0)
(0.00101836 3.92159e-05 0)
(0.00101921 4.02989e-05 0)
(0.00101979 4.11896e-05 0)
(0.00102011 4.19287e-05 0)
(0.00102017 4.25461e-05 0)
(0.00101997 4.30618e-05 0)
(0.00101954 4.34886e-05 0)
(0.00101888 4.3835e-05 0)
(0.001018 4.41078e-05 0)
(0.00101693 4.43126e-05 0)
(0.00101566 4.4454e-05 0)
(0.00101422 4.45357e-05 0)
(0.0010126 4.45603e-05 0)
(0.00101082 4.45299e-05 0)
(0.00100888 4.44455e-05 0)
(0.00100681 4.43083e-05 0)
(0.00100459 4.41181e-05 0)
(0.00100227 4.38761e-05 0)
(0.000999806 4.35808e-05 0)
(0.000997268 4.32342e-05 0)
(0.000994594 4.28332e-05 0)
(0.000991884 4.23814e-05 0)
(0.000989029 4.1873e-05 0)
(0.000986194 4.13151e-05 0)
(0.000983188 4.0697e-05 0)
(0.00098028 4.00325e-05 0)
(0.000977145 3.9302e-05 0)
(0.000974229 3.85314e-05 0)
(0.000970975 3.7685e-05 0)
(0.000968132 3.6811e-05 0)
(0.00096475 3.58437e-05 0)
(0.000962094 3.48722e-05 0)
(0.000958537 3.3776e-05 0)
(0.000956233 3.27182e-05 0)
(0.000952391 3.14791e-05 0)
(0.000950691 3.03548e-05 0)
(0.000946341 2.89469e-05 0)
(0.000945649 2.77905e-05 0)
(0.000940368 2.61662e-05 0)
(0.00094135 2.50366e-05 0)
(0.000934366 2.31089e-05 0)
(0.000938135 2.21058e-05 0)
(0.000928067 1.97199e-05 0)
(0.000936504 1.90093e-05 0)
(0.000920905 1.59009e-05 0)
(0.000937197 1.57438e-05 0)
(0.00091177 1.15008e-05 0)
(0.000941336 1.22326e-05 0)
(0.00089862 6.38145e-06 0)
(0.000950822 8.02756e-06 0)
(0.000878305 9.58508e-07 0)
(0.000999989 1.96362e-06 0)
(0.00100078 5.76724e-06 0)
(0.00100224 9.29447e-06 0)
(0.00100423 1.24614e-05 0)
(0.00100654 1.52654e-05 0)
(0.00100897 1.77515e-05 0)
(0.00101139 1.99744e-05 0)
(0.00101375 2.19772e-05 0)
(0.00101606 2.37871e-05 0)
(0.00101832 2.54208e-05 0)
(0.00102053 2.68914e-05 0)
(0.0010227 2.82123e-05 0)
(0.00102481 2.9398e-05 0)
(0.00102686 3.04622e-05 0)
(0.00102884 3.14175e-05 0)
(0.00103075 3.22734e-05 0)
(0.0010326 3.30382e-05 0)
(0.00103438 3.37176e-05 0)
(0.0010361 3.43171e-05 0)
(0.00103776 3.48399e-05 0)
(0.00103936 3.52907e-05 0)
(0.0010409 3.56707e-05 0)
(0.00104239 3.5984e-05 0)
(0.00104382 3.62296e-05 0)
(0.00104521 3.64122e-05 0)
(0.00104652 3.65281e-05 0)
(0.00104781 3.65832e-05 0)
(0.00104901 3.65709e-05 0)
(0.00105021 3.64997e-05 0)
(0.00105131 3.63586e-05 0)
(0.00105243 3.61609e-05 0)
(0.00105342 3.58888e-05 0)
(0.00105447 3.55634e-05 0)
(0.00105535 3.5157e-05 0)
(0.00105636 3.4703e-05 0)
(0.00105712 3.41578e-05 0)
(0.0010581 3.35746e-05 0)
(0.00105873 3.28854e-05 0)
(0.00105974 3.21736e-05 0)
(0.0010602 3.13341e-05 0)
(0.00106129 3.04964e-05 0)
(0.00106154 2.94985e-05 0)
(0.0010628 2.85404e-05 0)
(0.00106276 2.73741e-05 0)
(0.00106432 2.63048e-05 0)
(0.00106387 2.49574e-05 0)
(0.00106591 2.37913e-05 0)
(0.00106484 2.22468e-05 0)
(0.00106767 2.1005e-05 0)
(0.00106565 1.92451e-05 0)
(0.0010697 1.79569e-05 0)
(0.00106622 1.59654e-05 0)
(0.00107214 1.46703e-05 0)
(0.0010664 1.24464e-05 0)
(0.00107518 1.11952e-05 0)
(0.00106594 8.79047e-06 0)
(0.00107908 7.64611e-06 0)
(0.00106448 5.25992e-06 0)
(0.00108428 4.25524e-06 0)
(0.00106154 2.39056e-06 0)
(0.00100001 1.74301e-06 0)
(0.00100047 5.16359e-06 0)
(0.00100128 8.42743e-06 0)
(0.00100239 1.14582e-05 0)
(0.00100374 1.4215e-05 0)
(0.00100526 1.6695e-05 0)
(0.00100688 1.89197e-05 0)
(0.00100858 2.09189e-05 0)
(0.00101032 2.27198e-05 0)
(0.00101211 2.43431e-05 0)
(0.00101392 2.58043e-05 0)
(0.00101576 2.71163e-05 0)
(0.00101762 2.82915e-05 0)
(0.00101949 2.93418e-05 0)
(0.00102136 3.02788e-05 0)
(0.00102324 3.11127e-05 0)
(0.00102511 3.18526e-05 0)
(0.00102698 3.25054e-05 0)
(0.00102885 3.30776e-05 0)
(0.00103072 3.35732e-05 0)
(0.00103258 3.39972e-05 0)
(0.00103443 3.43516e-05 0)
(0.00103629 3.46405e-05 0)
(0.00103813 3.48643e-05 0)
(0.00103998 3.50264e-05 0)
(0.00104181 3.51256e-05 0)
(0.00104365 3.51654e-05 0)
(0.00104547 3.51427e-05 0)
(0.00104729 3.50616e-05 0)
(0.00104909 3.49171e-05 0)
(0.00105092 3.47144e-05 0)
(0.0010527 3.44462e-05 0)
(0.00105451 3.41197e-05 0)
(0.00105627 3.37248e-05 0)
(0.00105807 3.32711e-05 0)
(0.0010598 3.27454e-05 0)
(0.00106161 3.21605e-05 0)
(0.0010633 3.14997e-05 0)
(0.00106511 3.07789e-05 0)
(0.00106676 2.99786e-05 0)
(0.00106859 2.9117e-05 0)
(0.00107017 2.81735e-05 0)
(0.00107204 2.71657e-05 0)
(0.00107355 2.60768e-05 0)
(0.00107548 2.49165e-05 0)
(0.00107689 2.36831e-05 0)
(0.00107891 2.23627e-05 0)
(0.0010802 2.09909e-05 0)
(0.00108237 1.95004e-05 0)
(0.00108348 1.8006e-05 0)
(0.00108588 1.63321e-05 0)
(0.00108675 1.47497e-05 0)
(0.00108947 1.28748e-05 0)
(0.00109001 1.12722e-05 0)
(0.00109319 9.17409e-06 0)
(0.00109324 7.67577e-06 0)
(0.00109709 5.3199e-06 0)
(0.00109644 4.13143e-06 0)
(0.00110122 1.43373e-06 0)
(0.00109953 8.41709e-07 0)
(0.001 1.15491e-06 0)
(0.00100023 3.43741e-06 0)
(0.00100067 5.65449e-06 0)
(0.00100133 7.77442e-06 0)
(0.0010022 9.77584e-06 0)
(0.00100323 1.16485e-05 0)
(0.0010044 1.33909e-05 0)
(0.00100568 1.50073e-05 0)
(0.00100704 1.65036e-05 0)
(0.00100847 1.78859e-05 0)
(0.00100995 1.91597e-05 0)
(0.00101147 2.03298e-05 0)
(0.00101303 2.1401e-05 0)
(0.00101462 2.23781e-05 0)
(0.00101624 2.32662e-05 0)
(0.00101788 2.40699e-05 0)
(0.00101953 2.47938e-05 0)
(0.00102119 2.54418e-05 0)
(0.00102286 2.60172e-05 0)
(0.00102454 2.65229e-05 0)
(0.00102623 2.69612e-05 0)
(0.00102793 2.7334e-05 0)
(0.00102963 2.7643e-05 0)
(0.00103134 2.78896e-05 0)
(0.00103306 2.80744e-05 0)
(0.00103477 2.81985e-05 0)
(0.00103649 2.82616e-05 0)
(0.00103822 2.82648e-05 0)
(0.00103995 2.82068e-05 0)
(0.00104167 2.80889e-05 0)
(0.00104341 2.79082e-05 0)
(0.00104514 2.76676e-05 0)
(0.00104687 2.73615e-05 0)
(0.0010486 2.69954e-05 0)
(0.00105034 2.65597e-05 0)
(0.00105207 2.60649e-05 0)
(0.00105381 2.54943e-05 0)
(0.00105553 2.48671e-05 0)
(0.00105727 2.41551e-05 0)
(0.00105899 2.33923e-05 0)
(0.00106072 2.25312e-05 0)
(0.00106244 2.16305e-05 0)
(0.00106416 2.06109e-05 0)
(0.00106588 1.95722e-05 0)
(0.00106759 1.83826e-05 0)
(0.00106931 1.72095e-05 0)
(0.00107101 1.58353e-05 0)
(0.00107274 1.45378e-05 0)
(0.00107442 1.29598e-05 0)
(0.00107619 1.15574e-05 0)
(0.00107785 9.74844e-06 0)
(0.00107968 8.27476e-06 0)
(0.00108132 6.19286e-06 0)
(0.00108328 4.70182e-06 0)
(0.00108492 2.28204e-06 0)
(0.0010871 8.63203e-07 0)
(0.00108871 -1.98601e-06 0)
(0.0010912 -3.1816e-06 0)
(0.00109268 -6.59925e-06 0)
(0.00109549 -7.3548e-06 0)
(0.001 9.29084e-07 0)
(0.00100017 2.77863e-06 0)
(0.00100051 4.6011e-06 0)
(0.001001 6.37758e-06 0)
(0.00100164 8.09061e-06 0)
(0.00100242 9.72631e-06 0)
(0.00100331 1.12754e-05 0)
(0.00100429 1.2733e-05 0)
(0.00100536 1.40976e-05 0)
(0.0010065 1.53696e-05 0)
(0.00100769 1.65504e-05 0)
(0.00100894 1.7642e-05 0)
(0.00101023 1.86467e-05 0)
(0.00101156 1.9567e-05 0)
(0.00101292 2.04056e-05 0)
(0.00101431 2.11656e-05 0)
(0.00101573 2.18498e-05 0)
(0.00101717 2.24611e-05 0)
(0.00101862 2.30019e-05 0)
(0.0010201 2.34748e-05 0)
(0.00102158 2.38815e-05 0)
(0.00102308 2.42241e-05 0)
(0.00102459 2.45036e-05 0)
(0.00102611 2.47219e-05 0)
(0.00102764 2.48789e-05 0)
(0.00102917 2.49768e-05 0)
(0.00103071 2.50142e-05 0)
(0.00103226 2.49935e-05 0)
(0.00103381 2.49121e-05 0)
(0.00103537 2.47733e-05 0)
(0.00103692 2.45723e-05 0)
(0.00103848 2.43142e-05 0)
(0.00104004 2.39911e-05 0)
(0.0010416 2.36115e-05 0)
(0.00104315 2.31625e-05 0)
(0.00104472 2.26581e-05 0)
(0.00104627 2.20781e-05 0)
(0.00104783 2.14452e-05 0)
(0.00104937 2.07274e-05 0)
(0.00105093 1.9962e-05 0)
(0.00105246 1.90985e-05 0)
(0.00105402 1.81968e-05 0)
(0.00105553 1.71774e-05 0)
(0.00105709 1.61365e-05 0)
(0.00105859 1.49489e-05 0)
(0.00106017 1.37676e-05 0)
(0.00106164 1.23958e-05 0)
(0.00106325 1.1076e-05 0)
(0.0010647 9.4993e-06 0)
(0.00106637 8.04856e-06 0)
(0.00106778 6.24009e-06 0)
(0.00106953 4.67609e-06 0)
(0.00107088 2.5998e-06 0)
(0.00107277 9.53289e-07 0)
(0.00107403 -1.44852e-06 0)
(0.00107613 -3.13769e-06 0)
(0.00107728 -5.96544e-06 0)
(0.00107973 -7.64041e-06 0)
(0.00108063 -1.10412e-05 0)
(0.00108341 -1.26012e-05 0)
(0.001 7.34945e-07 0)
(0.00100013 2.19844e-06 0)
(0.00100037 3.64256e-06 0)
(0.00100073 5.05461e-06 0)
(0.00100121 6.42315e-06 0)
(0.0010018 7.73884e-06 0)
(0.00100248 8.99476e-06 0)
(0.00100325 1.01864e-05 0)
(0.0010041 1.13112e-05 0)
(0.00100502 1.2368e-05 0)
(0.001006 1.33566e-05 0)
(0.00100703 1.42774e-05 0)
(0.00100812 1.51311e-05 0)
(0.00100924 1.59186e-05 0)
(0.0010104 1.66408e-05 0)
(0.0010116 1.7299e-05 0)
(0.00101283 1.78945e-05 0)
(0.00101409 1.84286e-05 0)
(0.00101536 1.89023e-05 0)
(0.00101666 1.93172e-05 0)
(0.00101797 1.96739e-05 0)
(0.00101931 1.99738e-05 0)
(0.00102065 2.02169e-05 0)
(0.001022 2.04047e-05 0)
(0.00102337 2.05365e-05 0)
(0.00102474 2.06138e-05 0)
(0.00102612 2.06351e-05 0)
(0.0010275 2.06022e-05 0)
(0.00102889 2.05126e-05 0)
(0.00103028 2.03687e-05 0)
(0.00103167 2.01663e-05 0)
(0.00103306 1.99093e-05 0)
(0.00103445 1.95908e-05 0)
(0.00103584 1.92175e-05 0)
(0.00103722 1.87785e-05 0)
(0.0010386 1.82846e-05 0)
(0.00103997 1.77192e-05 0)
(0.00104134 1.70997e-05 0)
(0.00104269 1.64005e-05 0)
(0.00104406 1.56495e-05 0)
(0.00104539 1.48072e-05 0)
(0.00104674 1.39184e-05 0)
(0.00104805 1.29217e-05 0)
(0.00104939 1.18884e-05 0)
(0.00105066 1.07232e-05 0)
(0.001052 9.53881e-06 0)
(0.00105324 8.18691e-06 0)
(0.00105458 6.84543e-06 0)
(0.00105578 5.2829e-06 0)
(0.00105715 3.77916e-06 0)
(0.00105831 1.97296e-06 0)
(0.00105973 3.04528e-07 0)
(0.00106086 -1.7876e-06 0)
(0.00106239 -3.60996e-06 0)
(0.00106345 -6.03846e-06 0)
(0.00106515 -7.98896e-06 0)
(0.0010661 -1.0834e-05 0)
(0.00106801 -1.2879e-05 0)
(0.00106873 -1.62719e-05 0)
(0.00107082 -1.83545e-05 0)
(0.001 5.86206e-07 0)
(0.0010001 1.75477e-06 0)
(0.00100029 2.91157e-06 0)
(0.00100057 4.0487e-06 0)
(0.00100095 5.15865e-06 0)
(0.00100141 6.23469e-06 0)
(0.00100196 7.27119e-06 0)
(0.00100259 8.26367e-06 0)
(0.00100328 9.20878e-06 0)
(0.00100404 1.01042e-05 0)
(0.00100486 1.09483e-05 0)
(0.00100573 1.17403e-05 0)
(0.00100665 1.24794e-05 0)
(0.00100762 1.31654e-05 0)
(0.00100862 1.37981e-05 0)
(0.00100966 1.43777e-05 0)
(0.00101073 1.49042e-05 0)
(0.00101183 1.53781e-05 0)
(0.00101295 1.57995e-05 0)
(0.00101409 1.61691e-05 0)
(0.00101525 1.64869e-05 0)
(0.00101643 1.67536e-05 0)
(0.00101762 1.69689e-05 0)
(0.00101883 1.71336e-05 0)
(0.00102004 1.72471e-05 0)
(0.00102127 1.731e-05 0)
(0.00102249 1.73213e-05 0)
(0.00102373 1.72818e-05 0)
(0.00102496 1.71897e-05 0)
(0.0010262 1.70462e-05 0)
(0.00102743 1.68484e-05 0)
(0.00102866 1.65982e-05 0)
(0.00102989 1.62911e-05 0)
(0.00103112 1.59305e-05 0)
(0.00103233 1.55096e-05 0)
(0.00103354 1.50337e-05 0)
(0.00103474 1.44927e-05 0)
(0.00103593 1.38956e-05 0)
(0.0010371 1.3227e-05 0)
(0.00103827 1.25015e-05 0)
(0.00103941 1.16958e-05 0)
(0.00104056 1.08335e-05 0)
(0.00104166 9.87914e-06 0)
(0.00104278 8.87033e-06 0)
(0.00104384 7.75307e-06 0)
(0.00104494 6.58698e-06 0)
(0.00104596 5.28933e-06 0)
(0.00104703 3.95435e-06 0)
(0.001048 2.45477e-06 0)
(0.00104907 9.38812e-07 0)
(0.00104997 -7.90206e-07 0)
(0.00105104 -2.50023e-06 0)
(0.00105188 -4.49826e-06 0)
(0.001053 -6.42076e-06 0)
(0.00105376 -8.7438e-06 0)
(0.00105496 -1.08938e-05 0)
(0.00105561 -1.36102e-05 0)
(0.00105692 -1.59923e-05 0)
(0.00105734 -1.9195e-05 0)
(0.00105867 -2.18002e-05 0)
(0.001 4.68896e-07 0)
(0.00100008 1.40426e-06 0)
(0.00100024 2.33188e-06 0)
(0.00100047 3.24634e-06 0)
(0.00100078 4.14238e-06 0)
(0.00100116 5.01509e-06 0)
(0.00100161 5.86007e-06 0)
(0.00100213 6.6736e-06 0)
(0.00100272 7.45253e-06 0)
(0.00100336 8.19436e-06 0)
(0.00100405 8.89701e-06 0)
(0.0010048 9.55888e-06 0)
(0.00100559 1.01787e-05 0)
(0.00100642 1.07556e-05 0)
(0.00100729 1.12889e-05 0)
(0.0010082 1.17782e-05 0)
(0.00100913 1.22232e-05 0)
(0.0010101 1.26238e-05 0)
(0.00101109 1.29798e-05 0)
(0.0010121 1.32912e-05 0)
(0.00101312 1.35579e-05 0)
(0.00101417 1.378e-05 0)
(0.00101523 1.39573e-05 0)
(0.0010163 1.40898e-05 0)
(0.00101738 1.4177e-05 0)
(0.00101847 1.42191e-05 0)
(0.00101957 1.42152e-05 0)
(0.00102066 1.41654e-05 0)
(0.00102176 1.40685e-05 0)
(0.00102286 1.39247e-05 0)
(0.00102395 1.3732e-05 0)
(0.00102504 1.34909e-05 0)
(0.00102612 1.31986e-05 0)
(0.00102719 1.2856e-05 0)
(0.00102825 1.24592e-05 0)
(0.00102931 1.20096e-05 0)
(0.00103034 1.15019e-05 0)
(0.00103136 1.09386e-05 0)
(0.00103236 1.03121e-05 0)
(0.00103335 9.62693e-06 0)
(0.00103431 8.87198e-06 0)
(0.00103525 8.05491e-06 0)
(0.00103616 7.15954e-06 0)
(0.00103706 6.19857e-06 0)
(0.00103791 5.14806e-06 0)
(0.00103876 4.0286e-06 0)
(0.00103954 2.80448e-06 0)
(0.00104034 1.5088e-06 0)
(0.00104105 8.81362e-08 0)
(0.0010418 -1.40384e-06 0)
(0.00104243 -3.04698e-06 0)
(0.00104315 -4.75621e-06 0)
(0.00104369 -6.65502e-06 0)
(0.00104438 -8.61038e-06 0)
(0.00104481 -1.08126e-05 0)
(0.00104549 -1.30496e-05 0)
(0.00104577 -1.56144e-05 0)
(0.00104646 -1.81682e-05 0)
(0.0010465 -2.11654e-05 0)
(0.0010471 -2.40621e-05 0)
(0.001 3.71777e-07 0)
(0.00100007 1.11368e-06 0)
(0.0010002 1.85017e-06 0)
(0.0010004 2.57741e-06 0)
(0.00100066 3.29162e-06 0)
(0.00100098 3.98917e-06 0)
(0.00100137 4.66673e-06 0)
(0.00100181 5.3213e-06 0)
(0.00100231 5.95025e-06 0)
(0.00100286 6.55132e-06 0)
(0.00100346 7.12255e-06 0)
(0.00100411 7.66232e-06 0)
(0.0010048 8.16928e-06 0)
(0.00100552 8.64236e-06 0)
(0.00100629 9.08069e-06 0)
(0.00100708 9.48358e-06 0)
(0.00100791 9.85047e-06 0)
(0.00100876 1.01809e-05 0)
(0.00100964 1.04745e-05 0)
(0.00101054 1.0731e-05 0)
(0.00101146 1.09501e-05 0)
(0.00101239 1.11314e-05 0)
(0.00101334 1.12747e-05 0)
(0.00101429 1.13796e-05 0)
(0.00101526 1.14459e-05 0)
(0.00101623 1.14729e-05 0)
(0.00101721 1.14603e-05 0)
(0.00101819 1.14075e-05 0)
(0.00101916 1.13138e-05 0)
(0.00102014 1.11784e-05 0)
(0.0010211 1.10006e-05 0)
(0.00102207 1.07791e-05 0)
(0.00102302 1.05131e-05 0)
(0.00102395 1.02012e-05 0)
(0.00102488 9.842e-06 0)
(0.00102579 9.43384e-06 0)
(0.00102667 8.97521e-06 0)
(0.00102754 8.4638e-06 0)
(0.00102838 7.89798e-06 0)
(0.0010292 7.2746e-06 0)
(0.00102999 6.5921e-06 0)
(0.00103075 5.84605e-06 0)
(0.00103147 5.03532e-06 0)
(0.00103217 4.15348e-06 0)
(0.00103281 3.20049e-06 0)
(0.00103343 2.16684e-06 0)
(0.00103398 1.05476e-06 0)
(0.00103452 -1.50184e-07 0)
(0.00103498 -1.44136e-06 0)
(0.00103543 -2.84142e-06 0)
(0.00103578 -4.33717e-06 0)
(0.00103614 -5.96504e-06 0)
(0.00103635 -7.69781e-06 0)
(0.00103663 -9.59247e-06 0)
(0.00103669 -1.1599e-05 0)
(0.00103687 -1.38082e-05 0)
(0.00103674 -1.6132e-05 0)
(0.00103682 -1.87138e-05 0)
(0.00103642 -2.14021e-05 0)
(0.00103631 -2.44198e-05 0)
(0.001 2.88872e-07 0)
(0.00100006 8.65508e-07 0)
(0.00100017 1.43832e-06 0)
(0.00100034 2.00455e-06 0)
(0.00100057 2.56144e-06 0)
(0.00100085 3.10635e-06 0)
(0.00100119 3.63676e-06 0)
(0.00100158 4.15036e-06 0)
(0.00100201 4.64508e-06 0)
(0.0010025 5.11905e-06 0)
(0.00100302 5.57064e-06 0)
(0.00100359 5.9984e-06 0)
(0.0010042 6.40111e-06 0)
(0.00100485 6.77771e-06 0)
(0.00100553 7.12729e-06 0)
(0.00100624 7.44908e-06 0)
(0.00100698 7.74242e-06 0)
(0.00100774 8.00673e-06 0)
(0.00100853 8.24153e-06 0)
(0.00100934 8.44631e-06 0)
(0.00101016 8.62069e-06 0)
(0.001011 8.76421e-06 0)
(0.00101185 8.87652e-06 0)
(0.00101272 8.9571e-06 0)
(0.00101359 9.00561e-06 0)
(0.00101446 9.02139e-06 0)
(0.00101534 9.0041e-06 0)
(0.00101621 8.95286e-06 0)
(0.00101709 8.86734e-06 0)
(0.00101795 8.74631e-06 0)
(0.00101881 8.5895e-06 0)
(0.00101966 8.39521e-06 0)
(0.0010205 8.1633e-06 0)
(0.00102132 7.89136e-06 0)
(0.00102212 7.5796e-06 0)
(0.00102291 7.22454e-06 0)
(0.00102366 6.82707e-06 0)
(0.00102439 6.38207e-06 0)
(0.00102509 5.89169e-06 0)
(0.00102576 5.34831e-06 0)
(0.00102639 4.75625e-06 0)
(0.00102699 4.104e-06 0)
(0.00102754 3.39966e-06 0)
(0.00102805 2.62555e-06 0)
(0.0010285 1.79614e-06 0)
(0.00102891 8.83996e-07 0)
(0.00102925 -8.58786e-08 0)
(0.00102955 -1.15647e-06 0)
(0.00102976 -2.28471e-06 0)
(0.00102994 -3.53922e-06 0)
(0.00103001 -4.8485e-06 0)
(0.00103004 -6.3213e-06 0)
(0.00102993 -7.83823e-06 0)
(0.00102981 -9.57225e-06 0)
(0.00102951 -1.13262e-05 0)
(0.00102922 -1.33765e-05 0)
(0.00102868 -1.53995e-05 0)
(0.00102819 -1.78374e-05 0)
(0.00102733 -2.01591e-05 0)
(0.00102655 -2.30697e-05 0)
(0.001 2.1614e-07 0)
(0.00100005 6.47714e-07 0)
(0.00100015 1.07665e-06 0)
(0.00100031 1.50099e-06 0)
(0.00100051 1.91876e-06 0)
(0.00100076 2.32806e-06 0)
(0.00100106 2.72706e-06 0)
(0.00100141 3.11407e-06 0)
(0.0010018 3.4875e-06 0)
(0.00100223 3.84594e-06 0)
(0.00100271 4.18808e-06 0)
(0.00100322 4.51276e-06 0)
(0.00100377 4.81897e-06 0)
(0.00100435 5.10577e-06 0)
(0.00100497 5.37236e-06 0)
(0.00100561 5.61803e-06 0)
(0.00100628 5.84215e-06 0)
(0.00100698 6.04412e-06 0)
(0.00100769 6.22349e-06 0)
(0.00100843 6.37971e-06 0)
(0.00100918 6.51242e-06 0)
(0.00100995 6.62109e-06 0)
(0.00101072 6.70541e-06 0)
(0.00101151 6.76481e-06 0)
(0.0010123 6.79901e-06 0)
(0.0010131 6.8073e-06 0)
(0.00101389 6.78946e-06 0)
(0.00101468 6.74454e-06 0)
(0.00101547 6.67242e-06 0)
(0.00101625 6.57176e-06 0)
(0.00101702 6.44263e-06 0)
(0.00101778 6.28312e-06 0)
(0.00101852 6.09364e-06 0)
(0.00101925 5.87142e-06 0)
(0.00101995 5.61748e-06 0)
(0.00102063 5.32773e-06 0)
(0.00102127 5.00429e-06 0)
(0.00102189 4.64101e-06 0)
(0.00102247 4.24192e-06 0)
(0.00102301 3.79767e-06 0)
(0.00102351 3.31546e-06 0)
(0.00102397 2.78093e-06 0)
(0.00102437 2.20661e-06 0)
(0.00102472 1.57019e-06 0)
(0.00102501 8.93018e-07 0)
(0.00102524 1.40142e-07 0)
(0.00102539 -6.52527e-07 0)
(0.00102548 -1.54017e-06 0)
(0.00102548 -2.46392e-06 0)
(0.00102541 -3.51162e-06 0)
(0.00102522 -4.5855e-06 0)
(0.00102497 -5.8252e-06 0)
(0.00102457 -7.06978e-06 0)
(0.0010241 -8.54278e-06 0)
(0.00102346 -9.9804e-06 0)
(0.00102275 -1.17418e-05 0)
(0.00102182 -1.33949e-05 0)
(0.00102083 -1.55179e-05 0)
(0.00101952 -1.74026e-05 0)
(0.00101816 -1.99795e-05 0)
(0.001 1.50579e-07 0)
(0.00100005 4.51352e-07 0)
(0.00100014 7.50438e-07 0)
(0.00100028 1.04651e-06 0)
(0.00100046 1.33826e-06 0)
(0.0010007 1.62436e-06 0)
(0.00100097 1.90359e-06 0)
(0.00100129 2.17477e-06 0)
(0.00100165 2.4368e-06 0)
(0.00100205 2.68865e-06 0)
(0.00100248 2.92942e-06 0)
(0.00100296 3.15823e-06 0)
(0.00100346 3.37432e-06 0)
(0.001004 3.577e-06 0)
(0.00100457 3.76563e-06 0)
(0.00100517 3.93965e-06 0)
(0.00100579 4.09856e-06 0)
(0.00100643 4.24186e-06 0)
(0.0010071 4.36918e-06 0)
(0.00100778 4.48006e-06 0)
(0.00100848 4.57419e-06 0)
(0.00100919 4.65113e-06 0)
(0.00100991 4.71062e-06 0)
(0.00101063 4.75217e-06 0)
(0.00101137 4.77558e-06 0)
(0.0010121 4.78022e-06 0)
(0.00101283 4.76598e-06 0)
(0.00101356 4.73201e-06 0)
(0.00101429 4.67832e-06 0)
(0.001015 4.60373e-06 0)
(0.00101571 4.50846e-06 0)
(0.00101639 4.3908e-06 0)
(0.00101706 4.25134e-06 0)
(0.00101771 4.0876e-06 0)
(0.00101833 3.90078e-06 0)
(0.00101893 3.6872e-06 0)
(0.00101949 3.44916e-06 0)
(0.00102002 3.18108e-06 0)
(0.0010205 2.88711e-06 0)
(0.00102095 2.55868e-06 0)
(0.00102134 2.20307e-06 0)
(0.00102169 1.807e-06 0)
(0.00102197 1.38288e-06 0)
(0.0010222 9.0997e-07 0)
(0.00102235 4.0914e-07 0)
(0.00102244 -1.52233e-07 0)
(0.00102244 -7.39319e-07 0)
(0.00102236 -1.40399e-06 0)
(0.00102218 -2.08949e-06 0)
(0.00102191 -2.87801e-06 0)
(0.00102153 -3.67579e-06 0)
(0.00102104 -4.61413e-06 0)
(0.0010204 -5.53908e-06 0)
(0.00101965 -6.66162e-06 0)
(0.00101873 -7.72952e-06 0)
(0.00101768 -9.08296e-06 0)
(0.00101641 -1.03084e-05 0)
(0.00101501 -1.19561e-05 0)
(0.00101332 -1.33463e-05 0)
(0.00101148 -1.53701e-05 0)
(0.001 8.97963e-08 0)
(0.00100005 2.69276e-07 0)
(0.00100013 4.47884e-07 0)
(0.00100026 6.24844e-07 0)
(0.00100044 7.99382e-07 0)
(0.00100065 9.70734e-07 0)
(0.00100091 1.13817e-06 0)
(0.00100121 1.30098e-06 0)
(0.00100155 1.45853e-06 0)
(0.00100193 1.61018e-06 0)
(0.00100234 1.75539e-06 0)
(0.00100279 1.89362e-06 0)
(0.00100327 2.02439e-06 0)
(0.00100378 2.14727e-06 0)
(0.00100432 2.26187e-06 0)
(0.00100488 2.3678e-06 0)
(0.00100547 2.46475e-06 0)
(0.00100608 2.55241e-06 0)
(0.00100671 2.63051e-06 0)
(0.00100736 2.69876e-06 0)
(0.00100802 2.75695e-06 0)
(0.00100869 2.8048e-06 0)
(0.00100937 2.84212e-06 0)
(0.00101006 2.8686e-06 0)
(0.00101076 2.88411e-06 0)
(0.00101145 2.88822e-06 0)
(0.00101214 2.88089e-06 0)
(0.00101283 2.86156e-06 0)
(0.00101351 2.83024e-06 0)
(0.00101418 2.78616e-06 0)
(0.00101484 2.72951e-06 0)
(0.00101548 2.65914e-06 0)
(0.0010161 2.57551e-06 0)
(0.0010167 2.47694e-06 0)
(0.00101727 2.36435e-06 0)
(0.0010178 2.23522e-06 0)
(0.00101831 2.09126e-06 0)
(0.00101877 1.92864e-06 0)
(0.0010192 1.75038e-06 0)
(0.00101957 1.55059e-06 0)
(0.0010199 1.3345e-06 0)
(0.00102016 1.09296e-06 0)
(0.00102037 8.34809e-07 0)
(0.0010205 5.45695e-07 0)
(0.00102057 2.40368e-07 0)
(0.00102055 -1.03842e-07 0)
(0.00102045 -4.62645e-07 0)
(0.00102025 -8.72009e-07 0)
(0.00101995 -1.29155e-06 0)
(0.00101955 -1.77881e-06 0)
(0.00101901 -2.26741e-06 0)
(0.00101836 -2.84955e-06 0)
(0.00101755 -3.41632e-06 0)
(0.0010166 -4.11615e-06 0)
(0.00101548 -4.77044e-06 0)
(0.00101418 -5.61915e-06 0)
(0.00101268 -6.36904e-06 0)
(0.00101098 -7.40946e-06 0)
(0.00100902 -8.25734e-06 0)
(0.00100683 -9.54585e-06 0)
(0.001 3.17391e-08 0)
(0.00100004 9.53513e-08 0)
(0.00100013 1.58832e-07 0)
(0.00100026 2.21911e-07 0)
(0.00100042 2.84315e-07 0)
(0.00100064 3.45778e-07 0)
(0.00100089 4.06042e-07 0)
(0.00100118 4.64858e-07 0)
(0.00100151 5.21997e-07 0)
(0.00100187 5.77237e-07 0)
(0.00100227 6.30378e-07 0)
(0.00100271 6.81229e-07 0)
(0.00100317 7.29618e-07 0)
(0.00100367 7.75385e-07 0)
(0.00100419 8.18386e-07 0)
(0.00100474 8.58484e-07 0)
(0.00100532 8.95564e-07 0)
(0.00100591 9.29505e-07 0)
(0.00100652 9.60217e-07 0)
(0.00100715 9.87589e-07 0)
(0.0010078 1.01155e-06 0)
(0.00100845 1.03199e-06 0)
(0.00100912 1.04886e-06 0)
(0.00100979 1.06203e-06 0)
(0.00101046 1.07147e-06 0)
(0.00101113 1.07703e-06 0)
(0.00101181 1.07871e-06 0)
(0.00101247 1.0763e-06 0)
(0.00101313 1.06983e-06 0)
(0.00101378 1.05903e-06 0)
(0.00101442 1.04398e-06 0)
(0.00101503 1.02428e-06 0)
(0.00101563 1.00013e-06 0)
(0.0010162 9.70925e-07 0)
(0.00101674 9.37031e-07 0)
(0.00101725 8.97559e-07 0)
(0.00101773 8.53151e-07 0)
(0.00101816 8.02456e-07 0)
(0.00101855 7.46593e-07 0)
(0.00101889 6.83482e-07 0)
(0.00101918 6.15031e-07 0)
(0.00101941 5.38009e-07 0)
(0.00101957 4.55646e-07 0)
(0.00101967 3.62868e-07 0)
(0.00101968 2.65052e-07 0)
(0.00101962 1.5402e-07 0)
(0.00101946 3.85221e-08 0)
(0.00101921 -9.42695e-08 0)
(0.00101884 -2.29785e-07 0)
(0.00101836 -3.8864e-07 0)
(0.00101776 -5.46896e-07 0)
(0.00101701 -7.37614e-07 0)
(0.00101612 -9.21541e-07 0)
(0.00101507 -1.15198e-06 0)
(0.00101384 -1.36455e-06 0)
(0.00101242 -1.64553e-06 0)
(0.00101079 -1.88918e-06 0)
(0.00100894 -2.23572e-06 -3.90127e-38)
(0.00100684 -2.51081e-06 0)
(0.00100447 -2.94288e-06 0)
(0.001 -2.54403e-08 0)
(0.00100004 -7.59497e-08 0)
(0.00100013 -1.25874e-07 0)
(0.00100026 -1.74996e-07 0)
(0.00100042 -2.23099e-07 0)
(0.00100064 -2.69966e-07 0)
(0.00100089 -3.15391e-07 0)
(0.00100118 -3.59177e-07 0)
(0.00100151 -4.0114e-07 0)
(0.00100187 -4.41105e-07 0)
(0.00100227 -4.78915e-07 0)
(0.00100271 -5.14418e-07 0)
(0.00100318 -5.4748e-07 0)
(0.00100367 -5.77974e-07 0)
(0.0010042 -6.05788e-07 0)
(0.00100475 -6.30811e-07 0)
(0.00100532 -6.52954e-07 0)
(0.00100591 -6.72116e-07 0)
(0.00100653 -6.88225e-07 0)
(0.00100716 -7.01183e-07 0)
(0.0010078 -7.10929e-07 0)
(0.00100846 -7.1736e-07 0)
(0.00100912 -7.20425e-07 0)
(0.00100979 -7.20001e-07 0)
(0.00101047 -7.16049e-07 0)
(0.00101114 -7.08412e-07 0)
(0.00101182 -6.97068e-07 0)
(0.00101249 -6.81804e-07 0)
(0.00101315 -6.62626e-07 0)
(0.00101379 -6.39239e-07 0)
(0.00101443 -6.11701e-07 0)
(0.00101505 -5.79587e-07 0)
(0.00101564 -5.43051e-07 0)
(0.00101621 -5.01469e-07 0)
(0.00101676 -4.5516e-07 0)
(0.00101727 -4.03197e-07 0)
(0.00101775 -3.46179e-07 0)
(0.00101818 -2.8271e-07 0)
(0.00101857 -2.13856e-07 0)
(0.00101892 -1.37495e-07 0)
(0.0010192 -5.54693e-08 0)
(0.00101943 3.55006e-08 0)
(0.0010196 1.32288e-07 0)
(0.0010197 2.40045e-07 0)
(0.00101971 3.5359e-07 0)
(0.00101965 4.81176e-07 0)
(0.00101949 6.14011e-07 0)
(0.00101924 7.64817e-07 0)
(0.00101888 9.19212e-07 0)
(0.0010184 1.0978e-06 0)
(0.0010178 1.27695e-06 0)
(0.00101705 1.48958e-06 0)
(0.00101616 1.69684e-06 0)
(0.00101511 1.95174e-06 0)
(0.00101389 2.1905e-06 0)
(0.00101247 2.49889e-06 0)
(0.00101084 2.77203e-06 0)
(0.00100899 3.14934e-06 3.90127e-38)
(0.00100689 3.45761e-06 0)
(0.00100453 3.92414e-06 0)
(0.001 -8.35482e-08 0)
(0.00100005 -2.50032e-07 0)
(0.00100013 -4.15195e-07 0)
(0.00100026 -5.7832e-07 0)
(0.00100044 -7.38684e-07 0)
(0.00100066 -8.95577e-07 0)
(0.00100092 -1.04832e-06 0)
(0.00100122 -1.19625e-06 0)
(0.00100155 -1.33877e-06 0)
(0.00100193 -1.47531e-06 0)
(0.00100235 -1.60535e-06 0)
(0.00100279 -1.72839e-06 0)
(0.00100327 -1.84401e-06 0)
(0.00100379 -1.95179e-06 0)
(0.00100432 -2.05136e-06 0)
(0.00100489 -2.14239e-06 0)
(0.00100548 -2.22458e-06 0)
(0.00100609 -2.29762e-06 0)
(0.00100672 -2.36129e-06 0)
(0.00100737 -2.4153e-06 0)
(0.00100804 -2.45944e-06 0)
(0.00100871 -2.49344e-06 0)
(0.0010094 -2.51713e-06 0)
(0.00101009 -2.53017e-06 0)
(0.00101078 -2.53244e-06 0)
(0.00101148 -2.52351e-06 0)
(0.00101217 -2.50332e-06 0)
(0.00101286 -2.47128e-06 0)
(0.00101355 -2.4274e-06 0)
(0.00101422 -2.37088e-06 0)
(0.00101488 -2.30188e-06 0)
(0.00101552 -2.21923e-06 0)
(0.00101615 -2.12336e-06 0)
(0.00101674 -2.01254e-06 0)
(0.00101732 -1.88767e-06 0)
(0.00101786 -1.74618e-06 0)
(0.00101837 -1.58973e-06 0)
(0.00101883 -1.41444e-06 0)
(0.00101926 -1.22329e-06 0)
(0.00101964 -1.01033e-06 0)
(0.00101997 -7.80747e-07 0)
(0.00102024 -5.25308e-07 0)
(0.00102045 -2.52862e-07 0)
(0.00102059 5.10127e-08 0)
(0.00102066 3.71505e-07 0)
(0.00102065 7.31581e-07 0)
(0.00102055 1.10702e-06 0)
(0.00102036 1.53384e-06 0)
(0.00102006 1.97185e-06 0)
(0.00101966 2.47842e-06 0)
(0.00101913 2.98752e-06 0)
(0.00101848 3.59106e-06 0)
(0.00101768 4.18073e-06 0)
(0.00101673 4.90442e-06 0)
(0.00101562 5.58448e-06 0)
(0.00101433 6.45984e-06 0)
(0.00101283 7.23881e-06 0)
(0.00101113 8.309e-06 0)
(0.00100919 9.18976e-06 0)
(0.00100701 1.05114e-05 0)
(0.001 -1.44459e-07 0)
(0.00100005 -4.32504e-07 0)
(0.00100014 -7.18427e-07 0)
(0.00100028 -1.00096e-06 0)
(0.00100047 -1.27883e-06 0)
(0.0010007 -1.55078e-06 0)
(0.00100097 -1.81563e-06 0)
(0.00100129 -2.07224e-06 0)
(0.00100165 -2.31957e-06 0)
(0.00100205 -2.55663e-06 0)
(0.00100249 -2.78255e-06 0)
(0.00100296 -2.99651e-06 0)
(0.00100347 -3.19778e-06 0)
(0.00100401 -3.38567e-06 0)
(0.00100458 -3.55962e-06 0)
(0.00100518 -3.71906e-06 0)
(0.00100581 -3.86353e-06 0)
(0.00100645 -3.99254e-06 0)
(0.00100712 -4.10575e-06 0)
(0.0010078 -4.2027e-06 0)
(0.00100851 -4.2831e-06 0)
(0.00100922 -4.34651e-06 0)
(0.00100994 -4.39268e-06 0)
(0.00101067 -4.4211e-06 0)
(0.00101141 -4.43158e-06 0)
(0.00101215 -4.42348e-06 0)
(0.00101288 -4.39668e-06 0)
(0.00101362 -4.35031e-06 0)
(0.00101435 -4.28437e-06 0)
(0.00101507 -4.19765e-06 0)
(0.00101577 -4.09034e-06 0)
(0.00101646 -3.96072e-06 0)
(0.00101714 -3.80933e-06 0)
(0.00101779 -3.63367e-06 0)
(0.00101842 -3.4349e-06 0)
(0.00101902 -3.2093e-06 0)
(0.00101959 -2.95912e-06 0)
(0.00102012 -2.67875e-06 0)
(0.00102061 -2.37227e-06 0)
(0.00102106 -2.03112e-06 0)
(0.00102146 -1.66245e-06 0)
(0.00102181 -1.25302e-06 0)
(0.0010221 -8.15082e-07 0)
(0.00102233 -3.27995e-07 0)
(0.00102249 1.87596e-07 0)
(0.00102259 7.64e-07 0)
(0.0010226 1.36714e-06 0)
(0.00102253 2.04877e-06 0)
(0.00102236 2.75236e-06 0)
(0.0010221 3.55972e-06 0)
(0.00102172 4.3775e-06 0)
(0.00102123 5.33644e-06 0)
(0.00102061 6.28359e-06 0)
(0.00101987 7.4289e-06 0)
(0.00101896 8.5218e-06 0)