/*--------------------------------*- C++ -*----------------------------------*\
| =========                 |                                                 |
| \\      /  F ield         | OpenFOAM: The Open Source CFD Toolbox           |
|  \\    /   O peration     | Version:  2312                                  |
|   \\  /    A nd           | Website:  www.openfoam.com                      |
|    \\/     M anipulation  |                                                 |
\*---------------------------------------------------------------------------*/
FoamFile
{
    version     2.0;
    format      ascii;
    arch        "LSB;label=32;scalar=64";
    class       volScalarField;
    location    "40000";
    object      p;
}
// * * * * * * * * * * * * * * * * * * * * * * * * * * * * * * * * * * * * * //

dimensions      [0 2 -2 0 0 0 0];

internalField   nonuniform List<scalar> 
10800
(
4.90687e-07
4.76564e-07
4.62797e-07
4.52219e-07
4.44797e-07
4.39405e-07
4.34954e-07
4.30875e-07
4.26999e-07
4.23335e-07
4.19918e-07
4.16754e-07
4.13808e-07
4.1103e-07
4.08375e-07
4.05809e-07
4.0331e-07
4.00866e-07
3.98465e-07
3.96098e-07
3.93758e-07
3.91436e-07
3.89127e-07
3.86823e-07
3.84522e-07
3.82218e-07
3.7991e-07
3.77594e-07
3.75269e-07
3.72933e-07
3.70584e-07
3.68223e-07
3.65847e-07
3.63457e-07
3.61053e-07
3.58634e-07
3.56202e-07
3.53755e-07
3.51295e-07
3.48823e-07
3.46338e-07
3.4384e-07
3.41331e-07
3.3881e-07
3.36278e-07
3.33732e-07
3.31174e-07
3.286e-07
3.26013e-07
3.23399e-07
3.2078e-07
3.18102e-07
3.15449e-07
3.12647e-07
3.09999e-07
3.06866e-07
3.04509e-07
3.00102e-07
2.99794e-07
2.89197e-07
4.42643e-07
4.40916e-07
4.38271e-07
4.35145e-07
4.31929e-07
4.28835e-07
4.25911e-07
4.23124e-07
4.20423e-07
4.17776e-07
4.15178e-07
4.12634e-07
4.10152e-07
4.07731e-07
4.05364e-07
4.03042e-07
4.00757e-07
3.985e-07
3.96266e-07
3.94049e-07
3.91845e-07
3.8965e-07
3.87461e-07
3.85274e-07
3.83087e-07
3.80895e-07
3.78698e-07
3.76494e-07
3.7428e-07
3.72055e-07
3.6982e-07
3.67571e-07
3.65311e-07
3.63036e-07
3.60749e-07
3.58447e-07
3.56133e-07
3.53803e-07
3.51463e-07
3.49106e-07
3.46742e-07
3.44358e-07
3.41971e-07
3.39558e-07
3.37151e-07
3.34709e-07
3.32285e-07
3.29808e-07
3.27376e-07
3.24862e-07
3.22442e-07
3.19891e-07
3.17537e-07
3.14969e-07
3.12815e-07
3.10297e-07
3.08677e-07
3.06289e-07
3.05811e-07
3.03136e-07
4.33902e-07
4.33152e-07
4.31738e-07
4.29786e-07
4.27502e-07
4.25082e-07
4.22651e-07
4.20261e-07
4.17915e-07
4.156e-07
4.13306e-07
4.11034e-07
4.08788e-07
4.06573e-07
4.04392e-07
4.02243e-07
4.00121e-07
3.98021e-07
3.95939e-07
3.93871e-07
3.91814e-07
3.89764e-07
3.8772e-07
3.85678e-07
3.83636e-07
3.81593e-07
3.79547e-07
3.77495e-07
3.75437e-07
3.73372e-07
3.71298e-07
3.69214e-07
3.67121e-07
3.65017e-07
3.62904e-07
3.60778e-07
3.58643e-07
3.56495e-07
3.54338e-07
3.52167e-07
3.49989e-07
3.47794e-07
3.45597e-07
3.43378e-07
3.41161e-07
3.38918e-07
3.36686e-07
3.34419e-07
3.32177e-07
3.29889e-07
3.2765e-07
3.25346e-07
3.23132e-07
3.20821e-07
3.18666e-07
3.16363e-07
3.1432e-07
3.12031e-07
3.10139e-07
3.0777e-07
4.22167e-07
4.21735e-07
4.20948e-07
4.19858e-07
4.18533e-07
4.17044e-07
4.1545e-07
4.13788e-07
4.12081e-07
4.10338e-07
4.08566e-07
4.06772e-07
4.0496e-07
4.03138e-07
4.01309e-07
3.99478e-07
3.97645e-07
3.95811e-07
3.93975e-07
3.92138e-07
3.90298e-07
3.88455e-07
3.86608e-07
3.84757e-07
3.82902e-07
3.8104e-07
3.79173e-07
3.77299e-07
3.75417e-07
3.73529e-07
3.71632e-07
3.69728e-07
3.67816e-07
3.65895e-07
3.63966e-07
3.62029e-07
3.60083e-07
3.58129e-07
3.56167e-07
3.54196e-07
3.52217e-07
3.50228e-07
3.48232e-07
3.46223e-07
3.44208e-07
3.42176e-07
3.40138e-07
3.38079e-07
3.36013e-07
3.33919e-07
3.31818e-07
3.29679e-07
3.27537e-07
3.25345e-07
3.23156e-07
3.20904e-07
3.18663e-07
3.16342e-07
3.14047e-07
3.11671e-07
4.15467e-07
4.15253e-07
4.14822e-07
4.14176e-07
4.13332e-07
4.12319e-07
4.11168e-07
4.0991e-07
4.08571e-07
4.07167e-07
4.0571e-07
4.0421e-07
4.02673e-07
4.01107e-07
3.99516e-07
3.97906e-07
3.96281e-07
3.94643e-07
3.92995e-07
3.91336e-07
3.8967e-07
3.87995e-07
3.86314e-07
3.84625e-07
3.8293e-07
3.81229e-07
3.79523e-07
3.7781e-07
3.76092e-07
3.74369e-07
3.7264e-07
3.70906e-07
3.69168e-07
3.67425e-07
3.65678e-07
3.63926e-07
3.6217e-07
3.60411e-07
3.58648e-07
3.5688e-07
3.55109e-07
3.53333e-07
3.51554e-07
3.49768e-07
3.47978e-07
3.46181e-07
3.44376e-07
3.42563e-07
3.40739e-07
3.389e-07
3.37042e-07
3.35159e-07
3.33239e-07
3.31273e-07
3.2924e-07
3.2713e-07
3.24931e-07
3.22654e-07
3.20301e-07
3.1797e-07
4.09947e-07
4.09785e-07
4.0946e-07
4.08976e-07
4.08342e-07
4.07576e-07
4.06695e-07
4.05717e-07
4.04658e-07
4.03531e-07
4.02344e-07
4.01107e-07
3.99825e-07
3.98504e-07
3.97151e-07
3.95768e-07
3.94361e-07
3.92932e-07
3.91486e-07
3.90022e-07
3.88545e-07
3.87055e-07
3.85553e-07
3.84041e-07
3.82521e-07
3.80992e-07
3.79457e-07
3.77915e-07
3.76367e-07
3.74815e-07
3.73259e-07
3.71699e-07
3.70137e-07
3.68572e-07
3.67006e-07
3.65438e-07
3.6387e-07
3.62301e-07
3.60732e-07
3.59163e-07
3.57593e-07
3.56024e-07
3.54453e-07
3.52881e-07
3.51305e-07
3.49724e-07
3.48135e-07
3.46538e-07
3.44925e-07
3.43298e-07
3.4165e-07
3.39984e-07
3.38291e-07
3.36578e-07
3.3482e-07
3.3302e-07
3.31144e-07
3.29213e-07
3.27224e-07
3.25302e-07
4.05601e-07
4.05482e-07
4.05244e-07
4.04889e-07
4.04418e-07
4.0384e-07
4.03164e-07
4.024e-07
4.01557e-07
4.00645e-07
3.99673e-07
3.98646e-07
3.9757e-07
3.96451e-07
3.95293e-07
3.94102e-07
3.9288e-07
3.91631e-07
3.90359e-07
3.89066e-07
3.87755e-07
3.86428e-07
3.85087e-07
3.83735e-07
3.82371e-07
3.80999e-07
3.7962e-07
3.78235e-07
3.76845e-07
3.75451e-07
3.74056e-07
3.72659e-07
3.71262e-07
3.69866e-07
3.68471e-07
3.6708e-07
3.65692e-07
3.64308e-07
3.62929e-07
3.61556e-07
3.60188e-07
3.58827e-07
3.57472e-07
3.56123e-07
3.5478e-07
3.53443e-07
3.5211e-07
3.50783e-07
3.49454e-07
3.48124e-07
3.46781e-07
3.45424e-07
3.44038e-07
3.42628e-07
3.41182e-07
3.39714e-07
3.38201e-07
3.36669e-07
3.35114e-07
3.3365e-07
4.02149e-07
4.02057e-07
4.01872e-07
4.01593e-07
4.01222e-07
4.00762e-07
4.00219e-07
3.996e-07
3.98909e-07
3.98153e-07
3.97339e-07
3.9647e-07
3.95553e-07
3.94592e-07
3.93591e-07
3.92555e-07
3.91488e-07
3.90392e-07
3.89271e-07
3.88128e-07
3.86965e-07
3.85785e-07
3.84591e-07
3.83384e-07
3.82166e-07
3.80939e-07
3.79706e-07
3.78468e-07
3.77226e-07
3.75983e-07
3.74739e-07
3.73497e-07
3.72258e-07
3.71023e-07
3.69793e-07
3.6857e-07
3.67356e-07
3.66151e-07
3.64956e-07
3.63773e-07
3.62603e-07
3.61446e-07
3.60302e-07
3.59173e-07
3.58057e-07
3.56956e-07
3.55867e-07
3.54792e-07
3.53729e-07
3.5268e-07
3.5164e-07
3.50611e-07
3.49578e-07
3.48545e-07
3.47499e-07
3.4645e-07
3.45387e-07
3.44338e-07
3.43308e-07
3.42403e-07
3.99386e-07
3.9931e-07
3.99159e-07
3.9893e-07
3.98626e-07
3.98247e-07
3.97797e-07
3.97281e-07
3.96701e-07
3.96063e-07
3.9537e-07
3.94628e-07
3.93839e-07
3.93008e-07
3.92139e-07
3.91234e-07
3.90299e-07
3.89334e-07
3.88345e-07
3.87333e-07
3.86301e-07
3.85252e-07
3.84189e-07
3.83113e-07
3.82027e-07
3.80933e-07
3.79833e-07
3.78729e-07
3.77623e-07
3.76518e-07
3.75415e-07
3.74316e-07
3.73223e-07
3.72138e-07
3.71063e-07
3.69999e-07
3.68948e-07
3.67913e-07
3.66894e-07
3.65894e-07
3.64914e-07
3.63955e-07
3.63019e-07
3.62109e-07
3.61224e-07
3.60366e-07
3.59536e-07
3.58735e-07
3.57961e-07
3.57214e-07
3.56491e-07
3.55797e-07
3.55127e-07
3.54487e-07
3.53868e-07
3.53279e-07
3.52712e-07
3.52191e-07
3.51725e-07
3.51404e-07
3.97184e-07
3.9712e-07
3.96993e-07
3.968e-07
3.96542e-07
3.96221e-07
3.95838e-07
3.95397e-07
3.94901e-07
3.94352e-07
3.93754e-07
3.93109e-07
3.92422e-07
3.91695e-07
3.90932e-07
3.90135e-07
3.89308e-07
3.88454e-07
3.87575e-07
3.86673e-07
3.85753e-07
3.84816e-07
3.83865e-07
3.82902e-07
3.8193e-07
3.80952e-07
3.79969e-07
3.78984e-07
3.77999e-07
3.77016e-07
3.76038e-07
3.75068e-07
3.74106e-07
3.73157e-07
3.72221e-07
3.71301e-07
3.704e-07
3.6952e-07
3.68663e-07
3.67831e-07
3.67028e-07
3.66255e-07
3.65514e-07
3.64809e-07
3.6414e-07
3.63512e-07
3.62925e-07
3.62384e-07
3.61886e-07
3.61435e-07
3.61033e-07
3.60683e-07
3.60385e-07
3.60145e-07
3.59961e-07
3.5984e-07
3.5978e-07
3.59803e-07
3.59921e-07
3.60209e-07
3.95456e-07
3.95401e-07
3.9529e-07
3.95123e-07
3.94899e-07
3.9462e-07
3.94287e-07
3.93902e-07
3.93467e-07
3.92985e-07
3.92458e-07
3.9189e-07
3.91281e-07
3.90636e-07
3.89956e-07
3.89245e-07
3.88506e-07
3.8774e-07
3.8695e-07
3.8614e-07
3.85312e-07
3.84468e-07
3.83611e-07
3.82744e-07
3.81869e-07
3.80988e-07
3.80105e-07
3.79221e-07
3.7834e-07
3.77463e-07
3.76594e-07
3.75735e-07
3.74888e-07
3.74057e-07
3.73244e-07
3.72452e-07
3.71683e-07
3.70942e-07
3.70229e-07
3.6955e-07
3.68906e-07
3.68301e-07
3.67738e-07
3.67221e-07
3.66753e-07
3.66338e-07
3.65979e-07
3.65678e-07
3.6544e-07
3.65269e-07
3.65169e-07
3.65147e-07
3.65205e-07
3.65349e-07
3.65581e-07
3.65911e-07
3.66344e-07
3.66896e-07
3.67584e-07
3.68465e-07
3.94139e-07
3.9409e-07
3.93991e-07
3.93842e-07
3.93643e-07
3.93394e-07
3.93096e-07
3.92752e-07
3.92363e-07
3.91931e-07
3.91457e-07
3.90945e-07
3.90396e-07
3.89813e-07
3.89198e-07
3.88553e-07
3.87881e-07
3.87184e-07
3.86466e-07
3.85727e-07
3.84972e-07
3.84203e-07
3.83422e-07
3.82632e-07
3.81835e-07
3.81034e-07
3.80232e-07
3.79432e-07
3.78635e-07
3.77846e-07
3.77067e-07
3.763e-07
3.75549e-07
3.74817e-07
3.74107e-07
3.73421e-07
3.72764e-07
3.72139e-07
3.7155e-07
3.70999e-07
3.70491e-07
3.70029e-07
3.69619e-07
3.69264e-07
3.68968e-07
3.68737e-07
3.68574e-07
3.68485e-07
3.68476e-07
3.68553e-07
3.68722e-07
3.68991e-07
3.69365e-07
3.69853e-07
3.7046e-07
3.71199e-07
3.72077e-07
3.73112e-07
3.74322e-07
3.75748e-07
3.93187e-07
3.93142e-07
3.93052e-07
3.92915e-07
3.92733e-07
3.92505e-07
3.92233e-07
3.91917e-07
3.9156e-07
3.91163e-07
3.90727e-07
3.90255e-07
3.89749e-07
3.89211e-07
3.88642e-07
3.88046e-07
3.87424e-07
3.86778e-07
3.86112e-07
3.85428e-07
3.84727e-07
3.84014e-07
3.8329e-07
3.82557e-07
3.8182e-07
3.8108e-07
3.8034e-07
3.79603e-07
3.78872e-07
3.7815e-07
3.77439e-07
3.76744e-07
3.76067e-07
3.75411e-07
3.74781e-07
3.74179e-07
3.73609e-07
3.73075e-07
3.72581e-07
3.72131e-07
3.7173e-07
3.71383e-07
3.71093e-07
3.70866e-07
3.70708e-07
3.70624e-07
3.7062e-07
3.70702e-07
3.70879e-07
3.71157e-07
3.71545e-07
3.72051e-07
3.72684e-07
3.73453e-07
3.7437e-07
3.75446e-07
3.76695e-07
3.78131e-07
3.79776e-07
3.81658e-07
3.92569e-07
3.92527e-07
3.92442e-07
3.92314e-07
3.92142e-07
3.91927e-07
3.91671e-07
3.91373e-07
3.91037e-07
3.90662e-07
3.90251e-07
3.89805e-07
3.89327e-07
3.88817e-07
3.88279e-07
3.87714e-07
3.87125e-07
3.86513e-07
3.85882e-07
3.85233e-07
3.84569e-07
3.83893e-07
3.83206e-07
3.82513e-07
3.81816e-07
3.81116e-07
3.80418e-07
3.79724e-07
3.79037e-07
3.7836e-07
3.77697e-07
3.7705e-07
3.76423e-07
3.7582e-07
3.75244e-07
3.74699e-07
3.74189e-07
3.73718e-07
3.7329e-07
3.72911e-07
3.72584e-07
3.72315e-07
3.72109e-07
3.71972e-07
3.71909e-07
3.71928e-07
3.72034e-07
3.72237e-07
3.72544e-07
3.72964e-07
3.73507e-07
3.7418e-07
3.74997e-07
3.75967e-07
3.77104e-07
3.78422e-07
3.79936e-07
3.81661e-07
3.8362e-07
3.8583e-07
3.92265e-07
3.92224e-07
3.92142e-07
3.92018e-07
3.91851e-07
3.91643e-07
3.91394e-07
3.91106e-07
3.90779e-07
3.90415e-07
3.90016e-07
3.89583e-07
3.89118e-07
3.88623e-07
3.881e-07
3.87551e-07
3.86978e-07
3.86383e-07
3.85769e-07
3.85137e-07
3.84492e-07
3.83834e-07
3.83167e-07
3.82493e-07
3.81816e-07
3.81137e-07
3.8046e-07
3.79787e-07
3.79122e-07
3.78469e-07
3.77829e-07
3.77207e-07
3.76605e-07
3.76029e-07
3.75481e-07
3.74964e-07
3.74485e-07
3.74046e-07
3.73652e-07
3.73308e-07
3.73019e-07
3.7279e-07
3.72627e-07
3.72536e-07
3.72522e-07
3.72594e-07
3.72758e-07
3.73023e-07
3.73398e-07
3.73892e-07
3.74513e-07
3.75274e-07
3.76186e-07
3.77261e-07
3.78513e-07
3.79957e-07
3.81609e-07
3.83486e-07
3.85609e-07
3.87992e-07
3.92266e-07
3.92225e-07
3.92143e-07
3.92018e-07
3.91852e-07
3.91644e-07
3.91395e-07
3.91106e-07
3.9078e-07
3.90416e-07
3.90017e-07
3.89584e-07
3.89119e-07
3.88624e-07
3.88101e-07
3.87552e-07
3.86979e-07
3.86384e-07
3.85769e-07
3.85138e-07
3.84493e-07
3.83835e-07
3.83168e-07
3.82494e-07
3.81817e-07
3.81138e-07
3.80461e-07
3.79788e-07
3.79124e-07
3.7847e-07
3.7783e-07
3.77208e-07
3.76607e-07
3.7603e-07
3.75482e-07
3.74966e-07
3.74486e-07
3.74047e-07
3.73654e-07
3.7331e-07
3.73021e-07
3.72792e-07
3.72629e-07
3.72538e-07
3.72524e-07
3.72596e-07
3.72761e-07
3.73026e-07
3.73401e-07
3.73894e-07
3.74516e-07
3.75277e-07
3.76189e-07
3.77264e-07
3.78516e-07
3.7996e-07
3.81613e-07
3.8349e-07
3.85613e-07
3.87996e-07
3.92571e-07
3.92529e-07
3.92444e-07
3.92316e-07
3.92144e-07
3.91929e-07
3.91673e-07
3.91376e-07
3.91039e-07
3.90664e-07
3.90253e-07
3.89807e-07
3.89329e-07
3.8882e-07
3.88282e-07
3.87717e-07
3.87127e-07
3.86516e-07
3.85884e-07
3.85235e-07
3.84572e-07
3.83895e-07
3.83209e-07
3.82516e-07
3.81819e-07
3.81119e-07
3.80421e-07
3.79727e-07
3.7904e-07
3.78364e-07
3.777e-07
3.77054e-07
3.76427e-07
3.75824e-07
3.75248e-07
3.74703e-07
3.74193e-07
3.73722e-07
3.73295e-07
3.72916e-07
3.72589e-07
3.7232e-07
3.72114e-07
3.71977e-07
3.71915e-07
3.71934e-07
3.72041e-07
3.72244e-07
3.72552e-07
3.72972e-07
3.73514e-07
3.74188e-07
3.75005e-07
3.75975e-07
3.77113e-07
3.78431e-07
3.79946e-07
3.81672e-07
3.8363e-07
3.85842e-07
3.9319e-07
3.93146e-07
3.93055e-07
3.92919e-07
3.92737e-07
3.92509e-07
3.92236e-07
3.91921e-07
3.91563e-07
3.91166e-07
3.90731e-07
3.90259e-07
3.89753e-07
3.89215e-07
3.88646e-07
3.8805e-07
3.87428e-07
3.86782e-07
3.86116e-07
3.85432e-07
3.84732e-07
3.84018e-07
3.83294e-07
3.82562e-07
3.81825e-07
3.81085e-07
3.80345e-07
3.79608e-07
3.78877e-07
3.78155e-07
3.77445e-07
3.7675e-07
3.76073e-07
3.75418e-07
3.74788e-07
3.74186e-07
3.73616e-07
3.73083e-07
3.72589e-07
3.7214e-07
3.71739e-07
3.71392e-07
3.71102e-07
3.70876e-07
3.70718e-07
3.70634e-07
3.70631e-07
3.70714e-07
3.70891e-07
3.71169e-07
3.71558e-07
3.72064e-07
3.72697e-07
3.73467e-07
3.74385e-07
3.75462e-07
3.76711e-07
3.78148e-07
3.79794e-07
3.81677e-07
3.94144e-07
3.94095e-07
3.93996e-07
3.93847e-07
3.93648e-07
3.93399e-07
3.93101e-07
3.92757e-07
3.92368e-07
3.91936e-07
3.91462e-07
3.9095e-07
3.90401e-07
3.89818e-07
3.89203e-07
3.88558e-07
3.87886e-07
3.8719e-07
3.86472e-07
3.85734e-07
3.84979e-07
3.8421e-07
3.83429e-07
3.82638e-07
3.81842e-07
3.81041e-07
3.8024e-07
3.79439e-07
3.78643e-07
3.77854e-07
3.77075e-07
3.76309e-07
3.75558e-07
3.74826e-07
3.74116e-07
3.73431e-07
3.72775e-07
3.7215e-07
3.71561e-07
3.7101e-07
3.70503e-07
3.70042e-07
3.69632e-07
3.69277e-07
3.68982e-07
3.68751e-07
3.68589e-07
3.685e-07
3.68492e-07
3.6857e-07
3.6874e-07
3.69009e-07
3.69384e-07
3.69872e-07
3.70481e-07
3.7122e-07
3.721e-07
3.73135e-07
3.74346e-07
3.75774e-07
3.95462e-07
3.95407e-07
3.95296e-07
3.95129e-07
3.94905e-07
3.94626e-07
3.94293e-07
3.93908e-07
3.93473e-07
3.92992e-07
3.92465e-07
3.91896e-07
3.91288e-07
3.90643e-07
3.89963e-07
3.89253e-07
3.88513e-07
3.87747e-07
3.86958e-07
3.86148e-07
3.8532e-07
3.84476e-07
3.8362e-07
3.82753e-07
3.81878e-07
3.80997e-07
3.80114e-07
3.79231e-07
3.7835e-07
3.77473e-07
3.76605e-07
3.75746e-07
3.749e-07
3.74069e-07
3.73256e-07
3.72465e-07
3.71697e-07
3.70955e-07
3.70243e-07
3.69564e-07
3.68921e-07
3.68316e-07
3.67754e-07
3.67238e-07
3.66771e-07
3.66357e-07
3.65998e-07
3.65698e-07
3.6546e-07
3.6529e-07
3.65191e-07
3.6517e-07
3.65229e-07
3.65373e-07
3.65607e-07
3.65938e-07
3.66372e-07
3.66925e-07
3.67614e-07
3.68497e-07
3.97191e-07
3.97128e-07
3.97e-07
3.96807e-07
3.96549e-07
3.96228e-07
3.95846e-07
3.95405e-07
3.94909e-07
3.9436e-07
3.93762e-07
3.93117e-07
3.9243e-07
3.91704e-07
3.90941e-07
3.90144e-07
3.89317e-07
3.88463e-07
3.87584e-07
3.86683e-07
3.85763e-07
3.84826e-07
3.83875e-07
3.82913e-07
3.81941e-07
3.80963e-07
3.7998e-07
3.78995e-07
3.78011e-07
3.77028e-07
3.76051e-07
3.75081e-07
3.7412e-07
3.73171e-07
3.72235e-07
3.71316e-07
3.70416e-07
3.69536e-07
3.6868e-07
3.67849e-07
3.67046e-07
3.66273e-07
3.65533e-07
3.64829e-07
3.64161e-07
3.63534e-07
3.62948e-07
3.62407e-07
3.6191e-07
3.61461e-07
3.61059e-07
3.6071e-07
3.60414e-07
3.60175e-07
3.59992e-07
3.59872e-07
3.59814e-07
3.59837e-07
3.59957e-07
3.60246e-07
3.99394e-07
3.99319e-07
3.99167e-07
3.98939e-07
3.98634e-07
3.98256e-07
3.97806e-07
3.97289e-07
3.9671e-07
3.96072e-07
3.9538e-07
3.94637e-07
3.93848e-07
3.93018e-07
3.92148e-07
3.91244e-07
3.90309e-07
3.89345e-07
3.88356e-07
3.87344e-07
3.86312e-07
3.85264e-07
3.84201e-07
3.83125e-07
3.82039e-07
3.80945e-07
3.79846e-07
3.78742e-07
3.77637e-07
3.76533e-07
3.7543e-07
3.74332e-07
3.73239e-07
3.72155e-07
3.7108e-07
3.70017e-07
3.68967e-07
3.67932e-07
3.66913e-07
3.65914e-07
3.64934e-07
3.63977e-07
3.63042e-07
3.62132e-07
3.61248e-07
3.60391e-07
3.59562e-07
3.58762e-07
3.57989e-07
3.57243e-07
3.56521e-07
3.55828e-07
3.5516e-07
3.54521e-07
3.53904e-07
3.53316e-07
3.52751e-07
3.52231e-07
3.51767e-07
3.51447e-07
4.02159e-07
4.02067e-07
4.01881e-07
4.01602e-07
4.01231e-07
4.00772e-07
4.00229e-07
3.99609e-07
3.98919e-07
3.98163e-07
3.97349e-07
3.96481e-07
3.95564e-07
3.94603e-07
3.93602e-07
3.92567e-07
3.91499e-07
3.90404e-07
3.89283e-07
3.8814e-07
3.86977e-07
3.85798e-07
3.84604e-07
3.83397e-07
3.8218e-07
3.80954e-07
3.79721e-07
3.78483e-07
3.77242e-07
3.75999e-07
3.74756e-07
3.73514e-07
3.72276e-07
3.71041e-07
3.69812e-07
3.6859e-07
3.67376e-07
3.66172e-07
3.64978e-07
3.63796e-07
3.62626e-07
3.6147e-07
3.60327e-07
3.59199e-07
3.58084e-07
3.56984e-07
3.55896e-07
3.54822e-07
3.5376e-07
3.52712e-07
3.51674e-07
3.50646e-07
3.49615e-07
3.48583e-07
3.47538e-07
3.46491e-07
3.4543e-07
3.44382e-07
3.43354e-07
3.42451e-07
4.05611e-07
4.05493e-07
4.05255e-07
4.04899e-07
4.04429e-07
4.03851e-07
4.03175e-07
4.02411e-07
4.01568e-07
4.00657e-07
3.99684e-07
3.98657e-07
3.97582e-07
3.96463e-07
3.95306e-07
3.94114e-07
3.92892e-07
3.91644e-07
3.90372e-07
3.89079e-07
3.87769e-07
3.86442e-07
3.85102e-07
3.83749e-07
3.82387e-07
3.81015e-07
3.79636e-07
3.78252e-07
3.76862e-07
3.75469e-07
3.74074e-07
3.72678e-07
3.71281e-07
3.69886e-07
3.68492e-07
3.67101e-07
3.65714e-07
3.64331e-07
3.62953e-07
3.61581e-07
3.60214e-07
3.58854e-07
3.57499e-07
3.56152e-07
3.54809e-07
3.53474e-07
3.52142e-07
3.50816e-07
3.49488e-07
3.48159e-07
3.46818e-07
3.45462e-07
3.44078e-07
3.42669e-07
3.41225e-07
3.39758e-07
3.38248e-07
3.36717e-07
3.35164e-07
3.33702e-07
4.09958e-07
4.09796e-07
4.09471e-07
4.08987e-07
4.08354e-07
4.07588e-07
4.06707e-07
4.05729e-07
4.0467e-07
4.03543e-07
4.02356e-07
4.01119e-07
3.99837e-07
3.98517e-07
3.97164e-07
3.95781e-07
3.94375e-07
3.92946e-07
3.915e-07
3.90037e-07
3.8856e-07
3.8707e-07
3.85569e-07
3.84057e-07
3.82537e-07
3.81009e-07
3.79474e-07
3.77933e-07
3.76386e-07
3.74834e-07
3.73279e-07
3.7172e-07
3.70158e-07
3.68594e-07
3.67028e-07
3.65462e-07
3.63894e-07
3.62326e-07
3.60758e-07
3.5919e-07
3.57621e-07
3.56053e-07
3.54483e-07
3.52911e-07
3.51336e-07
3.49757e-07
3.4817e-07
3.46573e-07
3.44962e-07
3.43337e-07
3.4169e-07
3.40025e-07
3.38334e-07
3.36623e-07
3.34866e-07
3.33068e-07
3.31193e-07
3.29265e-07
3.27277e-07
3.25358e-07
4.15479e-07
4.15266e-07
4.14834e-07
4.14189e-07
4.13345e-07
4.12331e-07
4.1118e-07
4.09923e-07
4.08584e-07
4.0718e-07
4.05723e-07
4.04223e-07
4.02686e-07
4.0112e-07
3.9953e-07
3.97921e-07
3.96296e-07
3.94658e-07
3.9301e-07
3.91352e-07
3.89686e-07
3.88011e-07
3.8633e-07
3.84642e-07
3.82948e-07
3.81248e-07
3.79541e-07
3.77829e-07
3.76112e-07
3.74389e-07
3.72661e-07
3.70928e-07
3.6919e-07
3.67448e-07
3.65702e-07
3.63951e-07
3.62196e-07
3.60437e-07
3.58675e-07
3.56908e-07
3.55138e-07
3.53364e-07
3.51585e-07
3.49801e-07
3.48012e-07
3.46216e-07
3.44413e-07
3.426e-07
3.40777e-07
3.3894e-07
3.37084e-07
3.35202e-07
3.33284e-07
3.31319e-07
3.29288e-07
3.2718e-07
3.24984e-07
3.22709e-07
3.20358e-07
3.18028e-07
4.2218e-07
4.21747e-07
4.20961e-07
4.1987e-07
4.18546e-07
4.17057e-07
4.15463e-07
4.13801e-07
4.12094e-07
4.10352e-07
4.0858e-07
4.06786e-07
4.04974e-07
4.03152e-07
4.01324e-07
3.99493e-07
3.9766e-07
3.95826e-07
3.93991e-07
3.92154e-07
3.90315e-07
3.88472e-07
3.86626e-07
3.84775e-07
3.8292e-07
3.81059e-07
3.79192e-07
3.77319e-07
3.75438e-07
3.7355e-07
3.71655e-07
3.69751e-07
3.67839e-07
3.65919e-07
3.63991e-07
3.62055e-07
3.6011e-07
3.58157e-07
3.56196e-07
3.54225e-07
3.52248e-07
3.5026e-07
3.48265e-07
3.46257e-07
3.44243e-07
3.42213e-07
3.40176e-07
3.38118e-07
3.36054e-07
3.33961e-07
3.31862e-07
3.29725e-07
3.27584e-07
3.25395e-07
3.23207e-07
3.20957e-07
3.18718e-07
3.16398e-07
3.14105e-07
3.11732e-07
4.33916e-07
4.33165e-07
4.31751e-07
4.298e-07
4.27515e-07
4.25095e-07
4.22665e-07
4.20275e-07
4.17929e-07
4.15614e-07
4.1332e-07
4.11048e-07
4.08802e-07
4.06588e-07
4.04408e-07
4.02259e-07
4.00137e-07
3.98038e-07
3.95956e-07
3.93888e-07
3.91831e-07
3.89782e-07
3.87738e-07
3.85696e-07
3.83656e-07
3.81613e-07
3.79567e-07
3.77516e-07
3.75459e-07
3.73394e-07
3.71321e-07
3.69238e-07
3.67146e-07
3.65043e-07
3.6293e-07
3.60805e-07
3.58671e-07
3.56524e-07
3.54368e-07
3.52198e-07
3.50021e-07
3.47827e-07
3.45631e-07
3.43413e-07
3.41198e-07
3.38956e-07
3.36725e-07
3.34459e-07
3.3222e-07
3.29932e-07
3.27696e-07
3.25392e-07
3.2318e-07
3.20871e-07
3.18719e-07
3.16417e-07
3.14377e-07
3.12089e-07
3.102e-07
3.07832e-07
4.42657e-07
4.4093e-07
4.38285e-07
4.35159e-07
4.31943e-07
4.28848e-07
4.25925e-07
4.23138e-07
4.20437e-07
4.1779e-07
4.15192e-07
4.12649e-07
4.10167e-07
4.07746e-07
4.05379e-07
4.03058e-07
4.00773e-07
3.98517e-07
3.96283e-07
3.94066e-07
3.91863e-07
3.89669e-07
3.8748e-07
3.85294e-07
3.83106e-07
3.80916e-07
3.78719e-07
3.76515e-07
3.74302e-07
3.72078e-07
3.69843e-07
3.67596e-07
3.65336e-07
3.63062e-07
3.60776e-07
3.58474e-07
3.56161e-07
3.53833e-07
3.51494e-07
3.49138e-07
3.46775e-07
3.44392e-07
3.42006e-07
3.39595e-07
3.37189e-07
3.34748e-07
3.32325e-07
3.2985e-07
3.27419e-07
3.24907e-07
3.22488e-07
3.1994e-07
3.17587e-07
3.15021e-07
3.12868e-07
3.10353e-07
3.08734e-07
3.06348e-07
3.05873e-07
3.03199e-07
4.907e-07
4.76578e-07
4.6281e-07
4.52233e-07
4.4481e-07
4.39419e-07
4.34968e-07
4.30889e-07
4.27014e-07
4.23349e-07
4.19933e-07
4.16769e-07
4.13823e-07
4.11046e-07
4.08391e-07
4.05825e-07
4.03327e-07
4.00883e-07
3.98482e-07
3.96116e-07
3.93776e-07
3.91455e-07
3.89146e-07
3.86843e-07
3.84542e-07
3.82239e-07
3.79931e-07
3.77616e-07
3.75292e-07
3.72956e-07
3.70608e-07
3.68247e-07
3.65872e-07
3.63483e-07
3.6108e-07
3.58662e-07
3.56231e-07
3.53785e-07
3.51326e-07
3.48855e-07
3.46371e-07
3.43875e-07
3.41367e-07
3.38847e-07
3.36316e-07
3.33771e-07
3.31215e-07
3.28642e-07
3.26057e-07
3.23445e-07
3.20827e-07
3.18151e-07
3.15499e-07
3.12699e-07
3.10053e-07
3.06922e-07
3.04567e-07
3.00162e-07
2.99856e-07
2.8926e-07
3.29078e-07
2.7855e-07
2.57663e-07
2.4011e-07
2.22534e-07
2.04797e-07
1.85016e-07
1.63868e-07
1.39218e-07
1.12677e-07
8.18425e-08
4.95591e-08
1.29205e-08
-2.38263e-08
-6.42667e-08
-1.02698e-07
-1.439e-07
-1.80651e-07
-2.19254e-07
-2.51228e-07
-2.84025e-07
-3.08412e-07
-3.33518e-07
-3.48466e-07
-3.65314e-07
-3.69876e-07
-3.81848e-07
-3.75582e-07
-3.90396e-07
-4.59424e-07
3.15197e-07
2.60116e-07
2.46222e-07
2.31237e-07
2.14339e-07
1.9701e-07
1.77541e-07
1.56541e-07
1.3209e-07
1.05907e-07
7.57082e-08
4.42833e-08
8.8195e-09
-2.66036e-08
-6.55231e-08
-1.02495e-07
-1.41921e-07
-1.77304e-07
-2.14192e-07
-2.45391e-07
-2.77772e-07
-3.01713e-07
-3.27697e-07
-3.42567e-07
-3.61462e-07
-3.65706e-07
-3.78126e-07
-3.76863e-07
-3.72073e-07
-5.03911e-07
3.03016e-07
2.57657e-07
2.4481e-07
2.30304e-07
2.12914e-07
1.94592e-07
1.74607e-07
1.5326e-07
1.28765e-07
1.02449e-07
7.24836e-08
4.11582e-08
6.23575e-09
-2.88226e-08
-6.69128e-08
-1.03285e-07
-1.41929e-07
-1.76951e-07
-2.1374e-07
-2.44201e-07
-2.76469e-07
-3.00494e-07
-3.26123e-07
-3.42099e-07
-3.60275e-07
-3.68804e-07
-3.78357e-07
-3.9032e-07
-3.64254e-07
-4.64113e-07
2.9285e-07
2.53564e-07
2.38647e-07
2.24636e-07
2.07952e-07
1.90236e-07
1.70447e-07
1.48928e-07
1.24487e-07
9.80118e-08
6.83628e-08
3.70564e-08
2.85078e-09
-3.19914e-08
-6.89766e-08
-1.05119e-07
-1.42461e-07
-1.77355e-07
-2.12435e-07
-2.43584e-07
-2.74301e-07
-3.00138e-07
-3.24409e-07
-3.4381e-07
-3.59744e-07
-3.74709e-07
-3.77732e-07
-4.01992e-07
-3.66285e-07
-4.37762e-07
2.83042e-07
2.50981e-07
2.35195e-07
2.22312e-07
2.06191e-07
1.87678e-07
1.67375e-07
1.45279e-07
1.20799e-07
9.38987e-08
6.44949e-08
3.289e-08
-6.39915e-10
-3.56263e-08
-7.14869e-08
-1.07765e-07
-1.43623e-07
-1.78894e-07
-2.12381e-07
-2.4478e-07
-2.73813e-07
-3.01889e-07
-3.24064e-07
-3.47751e-07
-3.60065e-07
-3.81581e-07
-3.7838e-07
-4.05956e-07
-3.7741e-07
-4.12606e-07
2.74464e-07
2.49259e-07
2.32639e-07
2.19286e-07
2.03434e-07
1.84819e-07
1.64339e-07
1.4174e-07
1.17146e-07
8.97773e-08
6.05109e-08
2.85234e-08
-4.46451e-09
-3.97109e-08
-7.45611e-08
-1.11099e-07
-1.45536e-07
-1.81363e-07
-2.13199e-07
-2.46785e-07
-2.73931e-07
-3.04264e-07
-3.245e-07
-3.51349e-07
-3.6193e-07
-3.85984e-07
-3.83608e-07
-4.06105e-07
-3.94495e-07
-4.07863e-07
2.67448e-07
2.4775e-07
2.31003e-07
2.16806e-07
2.01089e-07
1.82386e-07
1.61661e-07
1.38468e-07
1.13588e-07
8.56936e-08
5.63852e-08
2.40067e-08
-8.66526e-09
-4.41169e-08
-7.82396e-08
-1.14876e-07
-1.48262e-07
-1.84298e-07
-2.14985e-07
-2.49095e-07
-2.75347e-07
-3.06609e-07
-3.26696e-07
-3.543e-07
-3.66423e-07
-3.8929e-07
-3.92996e-07
-4.09059e-07
-4.09477e-07
-4.14971e-07
2.62207e-07
2.46333e-07
2.30092e-07
2.14933e-07
1.98979e-07
1.80111e-07
1.59066e-07
1.35297e-07
1.09953e-07
8.15674e-08
5.20006e-08
1.93357e-08
-1.33128e-08
-4.87727e-08
-8.25643e-08
-1.18951e-07
-1.51835e-07
-1.87492e-07
-2.17816e-07
-2.51543e-07
-2.78062e-07
-3.08875e-07
-3.30499e-07
-3.57095e-07
-3.72957e-07
-3.93339e-07
-4.03505e-07
-4.15399e-07
-4.21599e-07
-4.2668e-07
2.58814e-07
2.45019e-07
2.29427e-07
2.13621e-07
1.97109e-07
1.77919e-07
1.56452e-07
1.32147e-07
1.0619e-07
7.73494e-08
4.73244e-08
1.44813e-08
-1.8406e-08
-5.36808e-08
-8.74888e-08
-1.23314e-07
-1.56161e-07
-1.90969e-07
-2.21532e-07
-2.54243e-07
-2.81717e-07
-3.11387e-07
-3.35098e-07
-3.60401e-07
-3.79619e-07
-3.98842e-07
-4.12933e-07
-4.24883e-07
-4.33406e-07
-4.39969e-07
2.57029e-07
2.43874e-07
2.2884e-07
2.12675e-07
1.95436e-07
1.75746e-07
1.53727e-07
1.28906e-07
1.02237e-07
7.29544e-08
4.23366e-08
9.36854e-09
-2.3912e-08
-5.89053e-08
-9.2914e-08
-1.28037e-07
-1.61047e-07
-1.94837e-07
-2.25792e-07
-2.57366e-07
-2.85754e-07
-3.1441e-07
-3.3974e-07
-3.64481e-07
-3.85892e-07
-4.05432e-07
-4.217e-07
-4.35082e-07
-4.45548e-07
-4.54142e-07
2.56386e-07
2.43036e-07
2.28214e-07
2.11807e-07
1.93832e-07
1.73509e-07
1.50813e-07
1.2545e-07
9.80316e-08
6.82832e-08
3.70203e-08
3.90698e-09
-2.97984e-08
-6.45278e-08
-9.87415e-08
-1.33199e-07
-1.66307e-07
-1.99179e-07
-2.30324e-07
-2.60989e-07
-2.89872e-07
-3.1796e-07
-3.4422e-07
-3.6907e-07
-3.91821e-07
-4.12336e-07
-4.30294e-07
-4.45472e-07
-4.58041e-07
-4.68762e-07
2.56319e-07
2.42545e-07
2.27564e-07
2.10824e-07
1.92126e-07
1.71093e-07
1.47635e-07
1.21671e-07
9.34985e-08
6.32359e-08
3.13334e-08
-1.99099e-09
-3.60762e-08
-7.06244e-08
-1.04944e-07
-1.38859e-07
-1.71883e-07
-2.04016e-07
-2.35063e-07
-2.65063e-07
-2.94039e-07
-3.21853e-07
-3.48591e-07
-3.73822e-07
-3.97579e-07
-4.19253e-07
-4.3882e-07
-4.55868e-07
-4.70622e-07
-4.83675e-07
2.56427e-07
2.42265e-07
2.26847e-07
2.09598e-07
1.90162e-07
1.68379e-07
1.44119e-07
1.17478e-07
8.85475e-08
5.77137e-08
2.51933e-08
-8.41309e-09
-4.28195e-08
-7.72692e-08
-1.11585e-07
-1.45063e-07
-1.77837e-07
-2.0935e-07
-2.40077e-07
-2.69524e-07
-2.98346e-07
-3.25956e-07
-3.5296e-07
-3.78586e-07
-4.0325e-07
-4.26048e-07
-4.47263e-07
-4.66113e-07
-4.83168e-07
-4.98528e-07
2.56468e-07
2.4199e-07
2.25981e-07
2.08063e-07
1.87851e-07
1.65278e-07
1.40184e-07
1.12784e-07
8.30754e-08
5.16069e-08
1.84814e-08
-1.54702e-08
-5.01524e-08
-8.4564e-08
-1.18794e-07
-1.51887e-07
-1.84295e-07
-2.15225e-07
-2.45486e-07
-2.7438e-07
-3.02888e-07
-3.30248e-07
-3.57376e-07
-3.83322e-07
-4.08802e-07
-4.32662e-07
-4.55498e-07
-4.76145e-07
-4.95521e-07
-5.13249e-07
2.56347e-07
2.41525e-07
2.24879e-07
2.06201e-07
1.85156e-07
1.61729e-07
1.35746e-07
1.07495e-07
7.69598e-08
4.47832e-08
1.10445e-08
-2.3308e-08
-5.82413e-08
-9.26507e-08
-1.26736e-07
-1.59455e-07
-1.91408e-07
-2.2173e-07
-2.51408e-07
-2.79684e-07
-3.07731e-07
-3.34741e-07
-3.61832e-07
-3.87987e-07
-4.1414e-07
-4.38989e-07
-4.63368e-07
-4.85825e-07
-5.07537e-07
-5.27701e-07
2.56117e-07
2.4083e-07
2.23525e-07
2.04032e-07
1.82077e-07
1.57683e-07
1.30711e-07
1.01491e-07
7.00501e-08
3.70783e-08
2.69528e-09
-3.21101e-08
-6.72839e-08
-1.01707e-07
-1.35596e-07
-1.67918e-07
-1.99328e-07
-2.28978e-07
-2.57947e-07
-2.85495e-07
-3.12917e-07
-3.39427e-07
-3.66283e-07
-3.92489e-07
-4.19113e-07
-4.44849e-07
-4.70629e-07
-4.94915e-07
-5.18954e-07
-5.41677e-07
2.55955e-07
2.39986e-07
2.21964e-07
2.01582e-07
1.78592e-07
1.53067e-07
1.24949e-07
9.46091e-08
6.2153e-08
2.82856e-08
-6.78973e-09
-4.2095e-08
-7.75001e-08
-1.11933e-07
-1.45564e-07
-1.77436e-07
-2.08197e-07
-2.37077e-07
-2.65192e-07
-2.91862e-07
-3.1847e-07
-3.44274e-07
-3.7066e-07
-3.96687e-07
-4.23532e-07
-4.49974e-07
-4.76954e-07
-5.03044e-07
-5.29337e-07
-5.54831e-07
2.56108e-07
2.39157e-07
2.20241e-07
1.98809e-07
1.74591e-07
1.47716e-07
1.18252e-07
8.66148e-08
5.30142e-08
1.81469e-08
-1.76735e-08
-5.3512e-08
-8.91282e-08
-1.23541e-07
-1.56832e-07
-1.88173e-07
-2.18156e-07
-2.46138e-07
-2.73228e-07
-2.98836e-07
-3.24414e-07
-3.49254e-07
-3.74908e-07
-4.00426e-07
-4.27218e-07
-4.54031e-07
-4.81995e-07
-5.0968e-07
-5.38155e-07
-5.66437e-07
2.56698e-07
2.38456e-07
2.18315e-07
1.95524e-07
1.69805e-07
1.41332e-07
1.10307e-07
7.71898e-08
4.23079e-08
6.34382e-09
-3.02672e-08
-6.665e-08
-1.02439e-07
-1.36773e-07
-1.6962e-07
-2.00325e-07
-2.29373e-07
-2.56312e-07
-2.82172e-07
-3.06521e-07
-3.30803e-07
-3.54399e-07
-3.78995e-07
-4.03618e-07
-4.29995e-07
-4.56715e-07
-4.85349e-07
-5.14201e-07
-5.44679e-07
-5.75445e-07
2.57499e-07
2.377e-07
2.15861e-07
1.91297e-07
1.63768e-07
1.33454e-07
1.00663e-07
6.5895e-08
2.96007e-08
-7.5395e-09
-4.49721e-08
-8.18819e-08
-1.17786e-07
-1.51953e-07
-1.84237e-07
-2.14176e-07
-2.42116e-07
-2.67846e-07
-2.92233e-07
-3.15106e-07
-3.37765e-07
-3.59819e-07
-3.82923e-07
-4.06234e-07
-4.31683e-07
-4.57754e-07
-4.8655e-07
-5.15893e-07
-5.47978e-07
-5.80476e-07
2.57753e-07
2.36126e-07
2.12238e-07
1.85547e-07
1.55896e-07
1.2349e-07
8.87197e-08
5.21354e-08
1.43041e-08
-2.40744e-08
-6.23433e-08
-9.97336e-08
-1.35674e-07
-1.69553e-07
-2.01136e-07
-2.30144e-07