/*--------------------------------*- C++ -*----------------------------------*\
| =========                 |                                                 |
| \\      /  F ield         | OpenFOAM: The Open Source CFD Toolbox           |
|  \\    /   O peration     | Version:  2312                                  |
|   \\  /    A nd           | Website:  www.openfoam.com                      |
|    \\/     M anipulation  |                                                 |
\*---------------------------------------------------------------------------*/
FoamFile
{
    version     2.0;
    format      ascii;
    arch        "LSB;label=32;scalar=64";
    class       surfaceScalarField;
    location    "40000";
    object      phi;
}
// * * * * * * * * * * * * * * * * * * * * * * * * * * * * * * * * * * * * * //

dimensions      [0 3 -1 0 0 0 0];

oriented        oriented;

internalField   nonuniform List<scalar> 
21240
(
0.000664974
1.69226e-06
0.000661072
3.90241e-06
0.000655751
5.32086e-06
0.000649515
6.23638e-06
0.00064264
6.87507e-06
0.000635268
7.37162e-06
0.000627492
7.77648e-06
0.000619389
8.10274e-06
0.000611032
8.35638e-06
0.000602486
8.5464e-06
0.000593801
8.6851e-06
0.000585016
8.78477e-06
0.000576161
8.85504e-06
0.000567259
8.90223e-06
0.000558329
8.93017e-06
0.000549387
8.9413e-06
0.00054045
8.93745e-06
0.00053153
8.92021e-06
0.000522639
8.89087e-06
0.000513788
8.85054e-06
0.000504988
8.8e-06
0.000496248
8.73988e-06
0.000487578
8.67056e-06
0.000478986
8.59236e-06
0.00047048
8.50549e-06
0.00046207
8.41008e-06
0.000453764
8.30626e-06
0.00044557
8.19403e-06
0.000437496
8.07352e-06
0.000429552
7.94458e-06
0.000421744
7.80744e-06
0.000414082
7.66174e-06
0.000406574
7.50798e-06
0.000399229
7.3454e-06
0.000392054
7.17509e-06
0.000385058
6.99552e-06
0.00037825
6.80886e-06
0.000371637
6.61218e-06
0.000365228
6.40968e-06
0.000359032
6.19571e-06
0.000353054
5.97825e-06
0.000347307
5.74659e-06
0.000341792
5.51562e-06
0.000336526
5.26527e-06
0.000331503
5.02309e-06
0.000326751
4.75174e-06
0.00032225
4.50193e-06
0.000318045
4.20445e-06
0.000314092
3.95277e-06
0.000310475
3.61777e-06
0.0003071
3.37456e-06
0.000304124
2.97571e-06
0.00030136
2.76394e-06
0.000299127
2.23352e-06
0.000297013
2.11361e-06
0.000295775
1.23861e-06
0.000294303
1.47135e-06
0.000294521
-2.17854e-07
0.000293367
1.15419e-06
-3.20702e-06
0.000296574
0.000667556
8.02974e-07
0.00066912
2.33791e-06
0.000670854
3.58747e-06
0.000672525
4.56546e-06
0.000674054
5.34628e-06
0.000675426
5.9987e-06
0.000676639
6.56437e-06
0.00067768
7.06169e-06
0.000678538
7.49771e-06
0.000679208
7.87687e-06
0.000679688
8.20479e-06
0.000679985
8.48839e-06
0.000680105
8.7347e-06
0.000680058
8.94956e-06
0.00067985
9.1373e-06
0.000679491
9.30084e-06
0.000678986
9.44234e-06
0.000678343
9.56336e-06
0.000677568
9.66535e-06
0.00067667
9.74937e-06
0.000675653
9.81655e-06
0.000674525
9.86742e-06
0.000673293
9.90283e-06
0.000671963
9.92282e-06
0.00067054
9.92813e-06
0.000669032
9.91837e-06
0.000667444
9.89441e-06
0.000665782
9.85532e-06
0.000664053
9.80238e-06
0.000662264
9.73389e-06
0.00066042
9.65195e-06
0.000658528
9.55367e-06
0.000656593
9.44257e-06
0.000654625
9.31387e-06
0.000652626
9.17347e-06
0.000650608
9.01352e-06
0.000648573
8.84389e-06
0.000646534
8.65165e-06
0.00064449
8.45323e-06
0.000642459
8.22733e-06
0.000640436
8.00124e-06
0.000638443
7.73971e-06
0.00063647
7.48806e-06
0.000634547
7.18792e-06
0.000632656
6.91436e-06
0.000630837
6.5708e-06
0.000629058
6.28141e-06
0.000627376
5.88653e-06
0.000625737
5.59135e-06
0.000624222
5.13224e-06
0.000622749
4.84767e-06
0.000621421
4.30386e-06
0.000620129
4.05637e-06
0.000618965
3.39712e-06
0.000617851
3.2277e-06
0.000616676
2.41344e-06
0.00061577
2.37725e-06
0.000614163
1.38974e-06
0.000613781
1.53632e-06
4.43586e-07
0.00061013
0.000666951
5.18694e-07
0.000667819
1.47028e-06
0.000669059
2.34751e-06
0.000670484
3.14047e-06
0.000671985
3.84501e-06
0.000673515
4.46877e-06
0.000675055
5.02398e-06
0.000676595
5.52175e-06
0.000678123
5.96988e-06
0.000679626
6.37329e-06
0.000681096
6.7355e-06
0.000682524
7.0598e-06
0.000683909
7.34969e-06
0.00068525
7.60866e-06
0.000686548
7.83999e-06
0.000687802
8.04628e-06
0.000689015
8.22978e-06
0.000690186
8.39203e-06
0.000691317
8.53452e-06
0.000692408
8.65814e-06
0.000693461
8.76408e-06
0.000694475
8.85272e-06
0.000695453
8.92509e-06
0.000696395
8.9811e-06
0.000697301
9.02172e-06
0.000698173
9.04633e-06
0.000699012
9.05606e-06
0.000699817
9.04969e-06
0.000700591
9.02877e-06
0.000701333
8.99125e-06
0.000702046
8.93946e-06
0.000702729
8.87021e-06
0.000703385
8.78706e-06
0.000704014
8.68517e-06
0.000704617
8.57004e-06
0.000705196
8.4344e-06
0.000705753
8.28664e-06
0.000706289
8.11597e-06
0.000706807
7.93505e-06
0.000707307
7.72795e-06
0.000707794
7.51356e-06
0.000708265
7.26856e-06
0.000708733
7.02071e-06
0.000709184
6.73633e-06
0.000709643
6.45551e-06
0.000710084
6.1304e-06
0.000710547
5.81766e-06
0.000710983
5.45089e-06
0.000711466
5.10789e-06
0.000711899
4.69944e-06
0.000712419
4.32812e-06
0.000712843
3.88009e-06
0.000713417
3.48227e-06
0.000713812
3.00204e-06
0.00071446
2.579e-06
0.000714787
2.08702e-06
0.000715525
1.63872e-06
0.00071573
1.18517e-06
0.000716566
6.99976e-07
3.86588e-07
0.000716623
0.000666854
3.31547e-07
0.000667309
1.01552e-06
0.000667972
1.68419e-06
0.000668796
2.31685e-06
0.000669736
2.90431e-06
0.000670761
3.44364e-06
0.000671849
3.93641e-06
0.000672984
4.38629e-06
0.000674157
4.79717e-06
0.000675358
5.1723e-06
0.000676579
5.51417e-06
0.000677814
5.82484e-06
0.000679058
6.1063e-06
0.000680306
6.36051e-06
0.000681556
6.5895e-06
0.000682808
6.79509e-06
0.000684058
6.97896e-06
0.000685308
7.14244e-06
0.000686556
7.28674e-06
0.000687801
7.4127e-06
0.000689044
7.5212e-06
0.000690284
7.61276e-06
0.000691521
7.68807e-06
0.000692755
7.74734e-06
0.000693985
7.79111e-06
0.000695212
7.81934e-06
0.000696436
7.83245e-06
0.000697656
7.83018e-06
0.000698871
7.81286e-06
0.000700083
7.78007e-06
0.00070129
7.73208e-06
0.000702492
7.66834e-06
0.00070369
7.58906e-06
0.000704881
7.49365e-06
0.000706069
7.38215e-06
0.00070725
7.25417e-06
0.000708427
7.10928e-06
0.000709595
6.94776e-06
0.000710762
6.76812e-06
0.000711918
6.5721e-06
0.000713075
6.35613e-06
0.000714219
6.12491e-06
0.000715369
5.87074e-06
0.000716501
5.60401e-06
0.000717647
5.30938e-06
0.00071877
5.00761e-06
0.000719918
4.66961e-06
0.000721034
4.3347e-06
0.000722193
3.94965e-06
0.000723306
3.58628e-06
0.000724484
3.14968e-06
0.000725597
2.76736e-06
0.000726806
2.2734e-06
0.000727919
1.88904e-06
0.000729169
1.32901e-06
0.000730285
9.70667e-07
0.000731591
3.33142e-07
0.000732726
4.97969e-08
0.000734168
-7.41975e-07
-9.09082e-07
0.000735464
0.000666738
2.59809e-07
0.00066697
7.84251e-07
0.000667356
1.29786e-06
0.000667879
1.79364e-06
0.000668518
2.26569e-06
0.000669251
2.71041e-06
0.000670061
3.12635e-06
0.000670934
3.5136e-06
0.000671858
3.87303e-06
0.000672824
4.20577e-06
0.000673826
4.51291e-06
0.000674855
4.79542e-06
0.000675907
5.05424e-06
0.000676977
5.29035e-06
0.000678062
5.50478e-06
0.000679159
5.69855e-06
0.000680265
5.87266e-06
0.000681379
6.02802e-06
0.000682501
6.16539e-06
0.000683628
6.2855e-06
0.00068476
6.38886e-06
0.000685897
6.47602e-06
0.000687038
6.54731e-06
0.000688182
6.60315e-06
0.000689329
6.64366e-06
0.00069048
6.66921e-06
0.000691632
6.67964e-06
0.000692787
6.67538e-06
0.000693944
6.65591e-06
0.000695102
6.62186e-06
0.000696262
6.57223e-06
0.000697422
6.50805e-06
0.000698584
6.4276e-06
0.000699745
6.33265e-06
0.000700907
6.22039e-06
0.000702067
6.09386e-06
0.000703228
5.94845e-06
0.000704386
5.7894e-06
0.000705545
5.60919e-06
0.0007067
5.41672e-06
0.000707857
5.1997e-06
0.000709009
4.97305e-06
0.000710163
4.71683e-06
0.000711311
4.45572e-06
0.000712463
4.1574e-06
0.000713608
3.86231e-06
0.00071476
3.51823e-06
0.000715904
3.1907e-06
0.000717058
2.79546e-06
0.000718206
2.43812e-06
0.000719372
1.98326e-06
0.000720539
1.60057e-06
0.000721739
1.07327e-06
0.000722955
6.73144e-07
0.000724236
4.78322e-08
0.000725539
-3.3169e-07
0.000726907
-1.03561e-06
0.000728354
-1.39684e-06
0.000729871
-2.25895e-06
-2.57112e-06
0.000731533
0.000666724
2.02484e-07
0.000666899
6.09219e-07
0.000667184
1.01321e-06
0.000667569
1.40793e-06
0.000668045
1.78968e-06
0.0006686
2.15552e-06
0.000669223
2.50339e-06
0.000669905
2.83207e-06
0.000670637
3.141e-06
0.000671413
3.43004e-06
0.000672226
3.69928e-06
0.000673073
3.94898e-06
0.000673947
4.1795e-06
0.000674846
4.39129e-06
0.000675766
4.58479e-06
0.000676704
4.76055e-06
0.000677658
4.91907e-06
0.000678625
5.06089e-06
0.000679604
5.18645e-06
0.000680593
5.29624e-06
0.000681592
5.39054e-06
0.000682598
5.4698e-06
0.000683611
5.53413e-06
0.00068463
5.58393e-06
0.000685655
5.61913e-06
0.000686684
5.64014e-06
0.000687717
5.64663e-06
0.000688753
5.63912e-06
0.000689792
5.61693e-06
0.000690833
5.58079e-06
0.000691876
5.52955e-06
0.00069292
5.46436e-06
0.000693964
5.38335e-06
0.000695008
5.28839e-06
0.000696052
5.17654e-06
0.000697095
5.05086e-06
0.000698137
4.90676e-06
0.000699177
4.74923e-06
0.000700215
4.57109e-06
0.000701251
4.38046e-06
0.000702285
4.16609e-06
0.000703317
3.94103e-06
0.000704346
3.68767e-06
0.000705375
3.42685e-06
0.000706401
3.13096e-06
0.00070743
2.83315e-06
0.000708458
2.49031e-06
0.000709494
2.15513e-06
0.000710529
1.76054e-06
0.000711577
1.38978e-06
0.000712622
9.38403e-07
0.000713685
5.37059e-07
0.00071473
2.83744e-08
0.000715823
-4.19565e-07
0.000716905
-1.03407e-06
0.000718067
-1.49378e-06
0.000719242
-2.21017e-06
0.000720523
-2.67839e-06
0.000721799
-3.53513e-06
-3.99087e-06
0.000723219
0.000666708
1.60762e-07
0.000666834
4.84013e-07
0.00066704
8.06372e-07
0.000667325
1.12328e-06
0.000667683
1.43219e-06
0.000668107
1.73097e-06
0.000668593
2.01791e-06
0.000669133
2.29176e-06
0.000669722
2.55178e-06
0.000670355
2.7976e-06
0.000671026
3.02787e-06
0.000671732
3.2427e-06
0.00067247
3.44222e-06
0.000673234
3.62653e-06
0.000674023
3.79575e-06
0.000674834
3.95008e-06
0.000675663
4.08972e-06
0.000676509
4.21492e-06
0.00067737
4.32589e-06
0.000678243
4.42289e-06
0.000679128
4.50605e-06
0.000680022
4.57563e-06
0.000680924
4.63164e-06
0.000681834
4.67433e-06
0.000682749
4.70358e-06
0.00068367
4.71967e-06
0.000684594
4.72228e-06
0.000685522
4.71174e-06
0.000686451
4.68751e-06
0.000687382
4.65006e-06
0.000688313
4.59849e-06
0.000689244
4.53353e-06
0.000690173
4.45378e-06
0.000691101
4.36044e-06
0.000692026
4.25136e-06
0.000692949
4.12852e-06
0.000693867
3.9886e-06
0.000694781
3.83486e-06
0.00069569
3.66221e-06
0.000696595
3.47594e-06
0.000697492
3.26823e-06
0.000698386
3.04762e-06
0.000699271
2.80209e-06
0.000700153
2.5453e-06
0.000701025
2.25869e-06
0.000701895
1.96389e-06
0.000702753
1.63183e-06
0.000703612
1.29629e-06
0.000704461
9.11559e-07
0.00070532
5.30711e-07
0.000706177
8.11102e-08
0.000707054
-3.39504e-07
0.000707933
-8.50401e-07
0.000708834
-1.32085e-06
0.000709719
-1.91937e-06
0.000710662
-2.43712e-06
0.000711592
-3.13993e-06
0.000712615
-3.70107e-06
0.000713615
-4.53554e-06
-5.12962e-06
0.000714754
0.000666699
1.28732e-07
0.000666796
3.87202e-07
0.000666957
6.45328e-07
0.00066718
8.99912e-07
0.000667463
1.14922e-06
0.000667802
1.39171e-06
0.000668194
1.62606e-06
0.000668635
1.85119e-06
0.00066912
2.0662e-06
0.000669647
2.27039e-06
0.000670212
2.46312e-06
0.000670811
2.644e-06
0.00067144
2.8128e-06
0.000672097
2.96942e-06
0.000672779
3.11379e-06
0.000673483
3.24589e-06
0.000674207
3.36572e-06
0.000674949
3.47333e-06
0.000675706
3.56875e-06
0.000676477
3.65208e-06
0.00067726
3.72332e-06
0.000678053
3.78258e-06
0.000678855
3.82982e-06
0.000679664
3.86513e-06
0.000680479
3.88839e-06
0.000681299
3.89971e-06
0.000682122
3.89885e-06
0.000682948
3.88592e-06
0.000683775
3.86054e-06
0.000684602
3.82288e-06
0.000685429
3.77235e-06
0.000686253
3.70921e-06
0.000687074
3.63259e-06
0.000687891
3.54297e-06
0.000688704
3.43904e-06
0.000689511
3.32162e-06
0.000690311
3.1888e-06
0.000691103
3.04199e-06
0.000691887
2.87833e-06
0.000692663
2.70018e-06
0.000693428
2.50327e-06
0.000694184
2.29146e-06
0.000694928
2.05833e-06
0.000695663
1.81012e-06
0.000696385
1.53712e-06
0.000697099
1.24941e-06
0.000697799
9.32414e-07
0.000698492
6.02476e-07
0.000699166
2.38101e-07
0.000699835
-1.38658e-07
0.000700484
-5.67853e-07
0.000701145
-1.00052e-06
0.000701788
-1.49283e-06
0.000702449
-1.98235e-06
0.000703084
-2.55397e-06
0.000703755
-3.10796e-06
0.00070439
-3.77516e-06
0.000705086
-4.39767e-06
0.000705731
-5.17974e-06
-5.87098e-06
0.000706472
0.000666693
1.02564e-07
0.000666772
3.08352e-07
0.000666903
5.14015e-07
0.000667086
7.17223e-07
0.000667318
9.16745e-07
0.000667598
1.11147e-06
0.000667924
1.30037e-06
0.000668293
1.48259e-06
0.000668702
1.65733e-06
0.000669148
1.82398e-06
0.000669629
1.982e-06
0.000670142
2.13097e-06
0.000670684
2.27055e-06
0.000671253
2.4005e-06
0.000671846
2.52063e-06
0.000672462
2.63079e-06
0.000673096
2.73089e-06
0.000673749
2.82085e-06
0.000674417
2.9006e-06
0.000675099
2.97012e-06
0.000675793
3.02934e-06
0.000676497
3.07826e-06
0.00067721
3.1168e-06
0.00067793
3.14493e-06
0.000678656
3.16256e-06
0.000679386
3.16964e-06
0.000680119
3.16601e-06
0.000680854
3.15161e-06
0.000681588
3.1262e-06
0.000682321
3.08969e-06
0.000683052
3.04176e-06
0.000683779
2.98231e-06
0.0006845
2.91088e-06
0.000685216
2.82738e-06
0.000685924
2.73119e-06
0.000686623
2.62224e-06
0.000687312
2.4997e-06
0.000687991
2.36357e-06
0.000688656
2.21271e-06
0.000689309
2.04729e-06
0.000689947
1.86574e-06
0.00069057
1.66847e-06
0.000691175
1.45335e-06
0.000691764
1.22121e-06
0.000692332
9.69089e-07
0.000692883
6.98419e-07
0.00069341
4.05074e-07
0.00069392
9.1979e-08
0.000694409
-2.50458e-07
0.000694886
-6.16053e-07
0.000695331
-1.01292e-06
0.000695766
-1.43482e-06
0.000696167
-1.89392e-06
0.000696565
-2.38017e-06
0.000696922
-2.91183e-06
0.000697287
-3.47292e-06
0.000697603
-4.09034e-06
0.000697943
-4.73814e-06
0.00069822
-5.45643e-06
-6.20211e-06
0.000698551
0.000666689
8.04998e-08
0.000666755
2.41951e-07
0.000666866
4.03373e-07
0.00066702
5.63038e-07
0.000667217
7.20057e-07
0.000667455
8.73613e-07
0.000667732
1.02295e-06
0.000668047
1.16739e-06
0.000668398
1.30633e-06
0.000668783
1.43922e-06
0.000669199
1.56562e-06
0.000669645
1.68514e-06
0.000670118
1.79743e-06
0.000670616
1.90222e-06
0.000671138
1.99928e-06
0.00067168
2.08842e-06
0.000672242
2.16949e-06
0.00067282
2.24234e-06
0.000673414
2.30688e-06
0.000674021
2.36299e-06
0.00067464
2.41059e-06
0.000675268
2.4496e-06
0.000675905
2.47993e-06
0.000676549
2.50147e-06
0.000677197
2.51415e-06
0.000677849
2.51782e-06
0.000678503
2.51238e-06
0.000679157
2.49765e-06
0.000679809
2.47351e-06
0.000680459
2.43971e-06
0.000681105
2.39611e-06
0.000681745
2.34236e-06
0.000682377
2.27831e-06
0.000683001
2.20349e-06
0.000683615
2.11776e-06
0.000684216
2.02048e-06
0.000684805
1.91155e-06
0.000685378
1.79006e-06
0.000685935
1.65607e-06
0.000686474
1.50823e-06
0.000686993
1.3469e-06
0.000687491
1.1701e-06
0.000687966
9.78728e-07
0.000688417
7.69824e-07
0.000688841
5.45309e-07
0.000689238
3.00865e-07
0.000689602
4.11639e-08
0.000689943
-2.48336e-07
0.000690248
-5.55452e-07
0.000690523
-8.91778e-07
0.000690757
-1.24705e-06
0.000690962
-1.6394e-06
0.000691119
-2.05071e-06
0.000691248
-2.5095e-06
0.000691322
-2.98528e-06
0.000691372
-3.52348e-06
0.000691355
-4.07341e-06
0.000691324
-4.7073e-06
0.000691209
-5.3411e-06
-6.08884e-06
0.000691096
0.000666686
6.13755e-08
0.000666743
1.84437e-07
0.000666839
3.07509e-07
0.000666973
4.29322e-07
0.000667144
5.49238e-07
0.000667351
6.66665e-07
0.000667593
7.81049e-07
0.000667868
8.91881e-07
0.000668176
9.98696e-07
0.000668514
1.10108e-06
0.000668881
1.19865e-06
0.000669275
1.29108e-06
0.000669694
1.37808e-06
0.000670137
1.4594e-06
0.000670602
1.53481e-06
0.000671086
1.60412e-06
0.000671588
1.66717e-06
0.000672107
1.7238e-06
0.00067264
1.77391e-06
0.000673185
1.81736e-06
0.000673742
1.85406e-06
0.000674308
1.88388e-06
0.000674881
1.90674e-06
0.00067546
1.92251e-06
0.000676043
1.93111e-06
0.000676628
1.93237e-06
0.000677214
1.92623e-06
0.0006778
1.91246e-06
0.000678382
1.89099e-06
0.00067896
1.8615e-06
0.000679532
1.82398e-06
0.000680097
1.77796e-06
0.000680652
1.72349e-06
0.000681195
1.6599e-06
0.000681726
1.58736e-06
0.000682241
1.5049e-06
0.00068274
1.41292e-06
0.00068322
1.31e-06
0.000683679
1.19692e-06
0.000684116
1.07156e-06
0.000684527
9.35385e-07
0.000684912
7.85168e-07
0.000685267
6.2354e-07
0.000685592
4.45568e-07
0.000685881
2.55902e-07
0.000686134
4.7496e-08
0.000686352
-1.76628e-07
0.000686529
-4.25579e-07
0.00068666
-6.86151e-07
0.000686746
-9.7812e-07
0.00068678
-1.28036e-06
0.000686764
-1.62397e-06
0.000686688
-1.97401e-06
0.000686558
-2.38001e-06
0.000686357
-2.78454e-06
0.000686101
-3.26688e-06
0.00068576
-3.73291e-06
0.000685363
-4.30978e-06
0.000684865
-4.84318e-06
-5.53668e-06
0.000684313
0.000666684
4.43556e-08
0.000666735
1.33276e-07
0.00066682
2.22218e-07
0.000666939
3.10289e-07
0.000667091
3.97044e-07
0.000667276
4.82068e-07
0.000667492
5.64973e-07
0.000667739
6.45396e-07
0.000668014
7.23001e-07
0.000668318
7.97479e-07
0.000668648
8.68549e-07
0.000669003
9.35956e-07
0.000669382
9.99474e-07
0.000669782
1.05889e-06
0.000670203
1.11404e-06
0.000670642
1.16474e-06
0.000671099
1.21086e-06
0.00067157
1.25227e-06
0.000672055
1.28885e-06
0.000672552
1.32048e-06
0.000673059
1.34707e-06
0.000673574
1.36852e-06
0.000674096
1.38474e-06
0.000674623
1.39561e-06
0.000675153
1.40106e-06
0.000675685
1.40092e-06
0.000676216
1.39517e-06
0.000676745
1.38356e-06
0.00067727
1.36609e-06
0.000677789
1.34243e-06
0.0006783
1.31263e-06
0.000678802
1.27622e-06
0.000679292
1.23334e-06
0.000679769
1.18331e-06
0.00068023
1.12642e-06
0.000680673
1.0617e-06
0.000681096
9.89684e-07
0.000681497
9.08921e-07
0.000681874
8.20433e-07
0.000682223
7.21991e-07
0.000682543
6.15413e-07
0.000682831
4.97277e-07
0.000683084
3.70725e-07
0.000683299
2.30494e-07
0.000683473
8.21276e-08
0.000683605
-8.44258e-08
0.000683689
-2.60796e-07
0.000683722
-4.58591e-07
0.000683699
-6.63537e-07
0.000683618
-8.97015e-07
0.000683473
-1.13509e-06
0.000683261
-1.41173e-06
0.000682974
-1.68758e-06
0.000682611
-2.01702e-06
0.000682162
-2.33558e-06
0.000681626
-2.73071e-06
0.00068099
-3.09677e-06
0.000680255
-3.57477e-06
0.000679403
-3.99134e-06
-4.57397e-06
0.00067844
0.000666682
2.87942e-08
0.000666729
8.65125e-08
0.000666807
1.44251e-07
0.000666916
2.01439e-07
0.000667055
2.57794e-07
0.000667224
3.13054e-07
0.000667422
3.66969e-07
0.000667648
4.19305e-07
0.000667901
4.69846e-07
0.00066818
5.18387e-07
0.000668484
5.64743e-07
0.000668811
6.08741e-07
0.000669161
6.50228e-07
0.000669531
6.89058e-07
0.000669919
7.25107e-07
0.000670326
7.58255e-07
0.000670748
7.88402e-07
0.000671185
8.15445e-07
0.000671635
8.39306e-07
0.000672095
8.59891e-07
0.000672565
8.77137e-07
0.000673043
8.9095e-07
0.000673526
9.01279e-07
0.000674014
9.08019e-07
0.000674504
9.11131e-07
0.000674994
9.10482e-07
0.000675483
9.0605e-07
0.000675969
8.97659e-07
0.00067645
8.85309e-07
0.000676924
8.68754e-07
0.000677388
8.48041e-07
0.000677842
8.22813e-07
0.000678282
7.93195e-07
0.000678707
7.58667e-07
0.000679113
7.19489e-07
0.0006795
6.74884e-07
0.000679865
6.25349e-07
0.000680204
5.69707e-07
0.000680515
5.08851e-07
0.000680796
4.40983e-07
0.000681044
3.6766e-07
0.000681255
2.86119e-07
0.000681427
1.99037e-07
0.000681555
1.02204e-07
0.000681636
9.58268e-10
0.000681668
-1.16296e-07
0.000681645
-2.37678e-07
0.000681562
-3.75148e-07
0.000681415
-5.16623e-07
0.000681197
-6.79644e-07
0.000680907
-8.44174e-07
0.000680533
-1.03822e-06
0.000680074
-1.22892e-06
0.000679519
-1.46127e-06
0.000678864
-1.68141e-06
0.000678096
-1.96194e-06
0.000677213
-2.21449e-06
0.000676195
-2.55662e-06
0.000675047
-2.84288e-06
-3.26397e-06
0.000673737
0.000666681
1.4155e-08
0.000666725
4.25284e-08
0.000666799
7.09139e-08
0.000666901
9.90327e-08
0.000667032
1.26748e-07
0.000667191
1.53932e-07
0.000667378
1.80463e-07
0.000667591
2.06227e-07
0.00066783
2.31116e-07
0.000668093
2.55031e-07
0.00066838
2.77878e-07
0.000668689
2.9957e-07
0.000669019
3.20031e-07
0.000669369
3.39185e-07
0.000669737
3.5697e-07
0.000670122
3.73322e-07
0.000670522
3.8819e-07
0.000670936
4.01519e-07
0.000671362
4.13268e-07
0.000671799
4.23385e-07
0.000672244
4.31839e-07
0.000672696
4.38577e-07
0.000673154
4.43573e-07
0.000673615
4.4677e-07
0.000674078
4.48147e-07
0.000674541
4.47633e-07
0.000675002
4.45217e-07
0.000675459
4.40803e-07
0.00067591
4.34396e-07
0.000676353
4.25861e-07
0.000676785
4.15228e-07
0.000677206
4.02303e-07
0.000677612
3.87161e-07
0.000678001
3.69517e-07
0.000678371
3.49526e-07
0.000678719
3.26758e-07
0.000679043
3.01504e-07
0.00067934
2.73113e-07
0.000679606
2.42101e-07
0.00067984
2.07474e-07
0.000680038
1.70123e-07
0.000680195
1.2851e-07
0.00068031
8.41547e-08
0.000680378
3.47071e-08
0.000680396
-1.76011e-08
0.000680357
-7.72937e-08
0.000680259
-1.39285e-07
0.000680093
-2.09845e-07
0.000679859
-2.82135e-07
0.000679545
-3.65972e-07
0.000679151
-4.50077e-07
0.000678663
-5.50144e-07
0.000678082
-6.47656e-07
0.000677388
-7.67874e-07
0.000676587
-8.80421e-07
0.000675652
-1.02614e-06
0.000674592
-1.15514e-06
0.000673369
-1.3337e-06
0.000672006
-1.47955e-06
-1.70057e-06
0.000670443
0.000666681
-3.65345e-11
0.000666723
-1.07668e-10
0.000666795
-1.77493e-10
0.000666894
-2.46126e-10
0.000667021
-3.13343e-10
0.000667175
-3.79004e-10
0.000667356
-4.42996e-10
0.000667563
-5.0521e-10
0.000667795
-5.65578e-10
0.00066805
-6.24095e-10
0.000668329
-6.80797e-10
0.000668629
-7.35709e-10
0.00066895
-7.88832e-10
0.00066929
-8.40154e-10
0.000669648
-8.89677e-10
0.000670022
-9.37442e-10
0.000670411
-9.83518e-10
0.000670814
-1.02798e-09
0.000671228
-1.07089e-09
0.000671653
-1.1123e-09
0.000672086
-1.15229e-09
0.000672525
-1.19094e-09
0.00067297
-1.22837e-09
0.000673418
-1.26474e-09
0.000673868
-1.30017e-09
0.000674317
-1.33482e-09
0.000674763
-1.36877e-09
0.000675205
-1.40217e-09
0.000675641
-1.43513e-09
0.000676069
-1.46782e-09
0.000676485
-1.5004e-09
0.000676889
-1.53309e-09
0.000677278
-1.56607e-09
0.000677649
-1.59953e-09
0.000678
-1.63356e-09
0.000678329
-1.66842e-09
0.000678632
-1.70403e-09
0.000678907
-1.74068e-09
0.00067915
-1.77821e-09
0.00067936
-1.81741e-09
0.000679532
-1.85844e-09
0.000679662
-1.90401e-09
0.000679748
-1.95426e-09
0.000679785
-2.00936e-09
0.000679769
-2.06476e-09
0.000679694
-2.11772e-09
0.000679557
-2.17516e-09
0.00067935
-2.238e-09
0.00067907
-2.3058e-09
0.000678706
-2.37752e-09
0.000678259
-2.45377e-09
0.000677711
-2.53453e-09
0.000677066
-2.62099e-09
0.000676301
-2.71243e-09
0.000675423
-2.81059e-09
0.0006744
-2.91395e-09
0.000673248
-3.02545e-09
0.000671917
-3.14217e-09
0.000670441
-3.26843e-09
-3.39903e-09
0.000668744
0.000666681
-1.42278e-08
0.000666723
-4.27423e-08
0.000666795
-7.12669e-08
0.000666894
-9.95222e-08
0.000667021
-1.27371e-07
0.000667175
-1.54686e-07
0.000667356
-1.81344e-07
0.000667563
-2.07232e-07
0.000667795
-2.32241e-07
0.00066805
-2.56272e-07
0.000668329
-2.79232e-07
0.000668629
-3.01034e-07
0.00066895
-3.216e-07
0.00066929
-3.40856e-07
0.000669648
-3.5874e-07
0.000670022
-3.75187e-07
0.000670411
-3.90146e-07
0.000670814
-4.03564e-07
0.000671228
-4.15398e-07
0.000671652
-4.25598e-07
0.000672085
-4.34131e-07
0.000672525
-4.40946e-07
0.00067297
-4.46017e-07
0.000673418
-4.49285e-07
0.000673867
-4.50733e-07
0.000674316
-4.50288e-07
0.000674763
-4.4794e-07
0.000675205
-4.43592e-07
0.000675641
-4.3725e-07
0.000676068
-4.2878e-07
0.000676485
-4.18212e-07
0.000676889
-4.05351e-07
0.000677278
-3.90276e-07
0.000677649
-3.72698e-07
0.000678
-3.52775e-07
0.000678328
-3.30076e-07
0.000678631
-3.04893e-07
0.000678906
-2.76576e-07
0.00067915
-2.4564e-07
0.000679359
-2.11091e-07
0.000679531
-1.7382e-07
0.000679662
-1.32288e-07
0.000679748
-8.80134e-08
0.000679784
-3.86442e-08
0.000679769
1.34633e-08
0.000679694
7.30824e-08
0.000679557
1.34954e-07
0.000679349
2.05388e-07
0.000679069
2.77546e-07
0.000678705
3.61245e-07
0.000678258
4.45201e-07
0.00067771
5.4511e-07
0.000677065
6.42451e-07
0.0006763
7.62488e-07
0.000675422
8.74842e-07
0.000674399
1.02036e-06
0.000673247
1.14913e-06
0.000671916
1.32746e-06
0.00067044
1.47306e-06
1.69382e-06
0.000668743
0.000666681
-2.88658e-08
0.000666725
-8.67229e-08
0.000666799
-1.44599e-07
0.000666901
-2.01921e-07
0.000667032
-2.58408e-07
0.000667191
-3.13795e-07
0.000667378
-3.67836e-07
0.000667591
-4.20294e-07
0.000667829
-4.70953e-07
0.000668093
-5.19609e-07
0.00066838
-5.66076e-07
0.000668689
-6.10181e-07
0.000669019
-6.51772e-07
0.000669369
-6.90702e-07
0.000669737
-7.26848e-07
0.000670122
-7.60089e-07
0.000670522
-7.90326e-07
0.000670936
-8.17456e-07
0.000671362
-8.41401e-07
0.000671798
-8.62067e-07
0.000672244
-8.79391e-07
0.000672696
-8.93279e-07
0.000673154
-9.03682e-07
0.000673615
-9.10492e-07
0.000674078
-9.13673e-07
0.000674541
-9.13092e-07
0.000675001
-9.08727e-07
0.000675458
-9.004e-07
0.000675909
-8.88114e-07
0.000676352
-8.71623e-07
0.000676785
-8.50973e-07
0.000677205
-8.25809e-07
0.000677611
-7.96256e-07
0.000678
-7.61792e-07
0.00067837
-7.22681e-07
0.000678718
-6.78144e-07
0.000679042
-6.28679e-07
0.000679338
-5.7311e-07
0.000679605
-5.1233e-07
0.000679839
-4.44542e-07
0.000680036
-3.71305e-07
0.000680194
-2.89854e-07
0.000680308
-2.02868e-07
0.000680376
-1.06123e-07
0.000680394
-4.74661e-09
0.000680355
1.12117e-07
0.000680257
2.33412e-07
0.000680091
3.70776e-07
0.000679857
5.12125e-07
0.000679543
6.7501e-07
0.000679149
8.39394e-07
0.000678661
1.03329e-06
0.000678079
1.22382e-06
0.000677386
1.456e-06
0.000676585
1.67595e-06
0.000675649
1.95629e-06
0.000674589
2.20863e-06
0.000673366
2.55054e-06
0.000672003
2.83655e-06
3.2574e-06
0.000670439
0.000666682
-4.44253e-08
0.000666729
-1.3348e-07
0.000666807
-2.22556e-07
0.000666916
-3.10758e-07
0.000667055
-3.9764e-07
0.000667224
-4.8279e-07
0.000667422
-5.65817e-07
0.000667648
-6.46358e-07
0.000667901
-7.24078e-07
0.00066818
-7.98667e-07
0.000668484
-8.69846e-07
0.000668811
-9.37357e-07
0.00066916
-1.00098e-06
0.00066953
-1.06049e-06
0.000669919
-1.11573e-06
0.000670325
-1.16653e-06
0.000670748
-1.21274e-06
0.000671185
-1.25422e-06
0.000671634
-1.29088e-06
0.000672095
-1.32259e-06
0.000672565
-1.34927e-06
0.000673042
-1.37078e-06
0.000673525
-1.38708e-06
0.000674013
-1.39801e-06
0.000674503
-1.40353e-06
0.000674993
-1.40346e-06
0.000675482
-1.39777e-06
0.000675968
-1.38622e-06
0.000676449
-1.36881e-06
0.000676922
-1.34522e-06
0.000677387
-1.31548e-06
0.00067784
-1.27913e-06
0.00067828
-1.23631e-06
0.000678705
-1.18635e-06
0.000679112
-1.12952e-06
0.000679498
-1.06486e-06
0.000679863
-9.92914e-07
0.000680202
-9.12221e-07
0.000680513
-8.23804e-07
0.000680794
-7.25436e-07
0.000681042
-6.18933e-07
0.000681253
-5.00874e-07
0.000681424
-3.744e-07
0.000681552
-2.34249e-07
0.000681634
-8.5962e-08
0.000681665
8.04017e-08
0.000681642
2.56681e-07
0.000681558
4.54363e-07
0.000681411
6.59189e-07
0.000681194
8.9254e-07
0.000680903
1.13048e-06
0.000680529
1.40697e-06
0.00068007
1.68267e-06
0.000679514
2.01195e-06
0.00067886
2.33033e-06
0.000678091
2.72527e-06
0.000677208
3.09113e-06
0.00067619
3.56893e-06
0.000675041
3.98526e-06
4.56768e-06
0.000673731
0.000666684
-6.14425e-08
0.000666735
-1.84634e-07
0.00066682
-3.07834e-07
0.000666939
-4.29773e-07
0.000667091
-5.49812e-07
0.000667276
-6.67359e-07
0.000667492
-7.8186e-07
0.000667738
-8.92806e-07
0.000668014
-9.99732e-07
0.000668318
-1.10222e-06
0.000668648
-1.1999e-06
0.000669003
-1.29243e-06
0.000669381
-1.37953e-06
0.000669782
-1.46093e-06
0.000670202
-1.53643e-06
0.000670642
-1.60583e-06
0.000671098
-1.66896e-06
0.000671569
-1.72568e-06
0.000672054
-1.77587e-06
0.000672551
-1.81939e-06
0.000673058
-1.85616e-06
0.000673573
-1.88605e-06
0.000674095
-1.90898e-06
0.000674622
-1.92481e-06
0.000675152
-1.93348e-06
0.000675683
-1.93481e-06
0.000676214
-1.92873e-06
0.000676743
-1.91501e-06
0.000677268
-1.8936e-06
0.000677787
-1.86418e-06
0.000678298
-1.82671e-06
0.0006788
-1.78075e-06
0.00067929
-1.72634e-06
0.000679766
-1.66281e-06
0.000680227
-1.59032e-06
0.00068067
-1.50793e-06
0.000681093
-1.41601e-06
0.000681494
-1.31316e-06
0.00068187
-1.20015e-06
0.00068222
-1.07486e-06
0.00068254
-9.38754e-07
0.000682827
-7.88614e-07
0.00068308
-6.27066e-07
0.000683295
-4.49179e-07
0.000683469
-2.59593e-07
0.0006836
-5.12361e-08
0.000683684
1.72694e-07
0.000683717
4.21549e-07
0.000683694
6.8201e-07
0.000683613
9.73859e-07
0.000683467
1.27597e-06
0.000683255
1.61945e-06
0.000682968
1.96934e-06
0.000682605
2.37519e-06
0.000682156
2.77955e-06
0.000681619
3.26173e-06
0.000680983
3.72757e-06
0.000680248
4.30426e-06
0.000679395
4.83743e-06
5.53076e-06
0.000678432
0.000666686
-8.05635e-08
0.000666743
-2.42138e-07
0.000666839
-4.03682e-07
0.000666973
-5.63466e-07
0.000667144
-7.20602e-07
0.000667351
-8.74273e-07
0.000667592
-1.02372e-06
0.000667868
-1.16827e-06
0.000668175
-1.30731e-06
0.000668514
-1.44031e-06
0.00066888
-1.56681e-06
0.000669274
-1.68642e-06
0.000669694
-1.7988e-06
0.000670136
-1.90368e-06
0.000670601
-2.00083e-06
0.000671085
-2.09005e-06
0.000671587
-2.17119e-06
0.000672106
-2.24412e-06
0.000672639
-2.30873e-06
0.000673184
-2.36491e-06
0.000673741
-2.41259e-06
0.000674306
-2.45166e-06
0.000674879
-2.48205e-06
0.000675458
-2.50366e-06
0.000676041
-2.51639e-06
0.000676626
-2.52012e-06
0.000677212
-2.51474e-06
0.000677797
-2.50007e-06
0.00067838
-2.47599e-06
0.000678958
-2.44224e-06
0.00067953
-2.39869e-06
0.000680094
-2.34499e-06
0.000680649
-2.281e-06
0.000681192
-2.20623e-06
0.000681722
-2.12057e-06
0.000682238
-2.02334e-06
0.000682736
-1.91447e-06
0.000683216
-1.79304e-06
0.000683675
-1.65911e-06
0.000684112
-1.51134e-06
0.000684523
-1.35008e-06
0.000684908
-1.17335e-06
0.000685263
-9.8205e-07
0.000685587
-7.73223e-07
0.000685876
-5.48789e-07
0.000686129
-3.04425e-07
0.000686347
-4.47598e-08
0.000686524
2.44533e-07
0.000686654
5.5156e-07
0.00068674
8.87782e-07
0.000686773
1.24293e-06
0.000686757
1.63517e-06
0.00068668
2.04634e-06
0.000686551
2.505e-06
0.000686349
2.98062e-06
0.000686093
3.51869e-06
0.000685752
4.06843e-06
0.000685354
4.70217e-06
0.000684855
5.33576e-06
6.08336e-06
0.000684303
0.000666689
-1.02624e-07
0.000666755
-3.08527e-07
0.000666866
-5.14305e-07
0.00066702
-7.17624e-07
0.000667217
-9.17256e-07