/*--------------------------------*- C++ -*----------------------------------*\
| =========                 |                                                 |
| \\      /  F ield         | OpenFOAM: The Open Source CFD Toolbox           |
|  \\    /   O peration     | Version:  2312                                  |
|   \\  /    A nd           | Website:  www.openfoam.com                      |
|    \\/     M anipulation  |                                                 |
\*---------------------------------------------------------------------------*/
FoamFile
{
    version     2.0;
    format      ascii;
    arch        "LSB;label=32;scalar=64";
    class       volVectorField;
    location    "120000";
    object      U;
}
// * * * * * * * * * * * * * * * * * * * * * * * * * * * * * * * * * * * * * //

dimensions      [0 1 -1 0 0 0 0];

internalField   nonuniform List<vector> 
10800
(
(0.000992484 4.94196e-06 0)
(0.000990038 1.24579e-05 0)
(0.000986872 1.74792e-05 0)
(0.0009805 2.06629e-05 0)
(0.000971087 2.27458e-05 0)
(0.000959797 2.42392e-05 0)
(0.000947697 2.53779e-05 0)
(0.000935322 2.62368e-05 0)
(0.000922814 2.68401e-05 0)
(0.000910151 2.72129e-05 0)
(0.000897289 2.73928e-05 0)
(0.000884224 2.74229e-05 0)
(0.000870992 2.7341e-05 0)
(0.000857649 2.71752e-05 0)
(0.000844247 2.69438e-05 0)
(0.000830823 2.66584e-05 0)
(0.000817403 2.6327e-05 0)
(0.000804006 2.59562e-05 0)
(0.000790648 2.55515e-05 0)
(0.000777343 2.51177e-05 0)
(0.000764106 2.46586e-05 0)
(0.000750953 2.41774e-05 0)
(0.000737898 2.36761e-05 0)
(0.000724954 2.31567e-05 0)
(0.000712136 2.262e-05 0)
(0.000699455 2.20676e-05 0)
(0.000686925 2.14996e-05 0)
(0.000674558 2.09174e-05 0)
(0.000662366 2.03206e-05 0)
(0.000650361 1.97109e-05 0)
(0.000638557 1.90869e-05 0)
(0.000626965 1.84512e-05 0)
(0.000615599 1.78012e-05 0)
(0.000604469 1.7141e-05 0)
(0.000593591 1.64661e-05 0)
(0.000582973 1.57832e-05 0)
(0.000572633 1.50846e-05 0)
(0.000562575 1.43814e-05 0)
(0.000552825 1.36606e-05 0)
(0.000543375 1.29402e-05 0)
(0.000534264 1.21984e-05 0)
(0.000525467 1.14653e-05 0)
(0.00051705 1.07033e-05 0)
(0.000508943 9.96327e-06 0)
(0.000501281 9.1803e-06 0)
(0.000493885 8.44028e-06 0)
(0.000487065 7.63231e-06 0)
(0.000480359 6.89922e-06 0)
(0.000474541 6.0574e-06 0)
(0.000468382 5.32964e-06 0)
(0.000463946 4.44558e-06 0)
(0.000457824 3.67572e-06 0)
(0.000455832 2.78847e-06 0)
(0.000448102 1.7269e-06 0)
(0.000451695 1.16462e-06 0)
(0.00043727 -1.25449e-06 0)
(0.000455757 1.33373e-07 0)
(0.00041971 -7.71104e-06 0)
(0.000478164 2.0597e-06 0)
(0.000383324 -2.44427e-05 0)
(0.00100003 5.80253e-06 0)
(0.00100172 1.49933e-05 0)
(0.00100423 2.15239e-05 0)
(0.00100706 2.60866e-05 0)
(0.00100979 2.9444e-05 0)
(0.00101219 3.21245e-05 0)
(0.00101421 3.43756e-05 0)
(0.00101588 3.62837e-05 0)
(0.00101726 3.78816e-05 0)
(0.00101837 3.91998e-05 0)
(0.00101922 4.02797e-05 0)
(0.00101981 4.11671e-05 0)
(0.00102014 4.19026e-05 0)
(0.0010202 4.25162e-05 0)
(0.00102001 4.3028e-05 0)
(0.00101958 4.34506e-05 0)
(0.00101893 4.37927e-05 0)
(0.00101806 4.4061e-05 0)
(0.001017 4.42612e-05 0)
(0.00101574 4.4398e-05 0)
(0.00101431 4.4475e-05 0)
(0.0010127 4.44948e-05 0)
(0.00101094 4.44598e-05 0)
(0.00100901 4.43707e-05 0)
(0.00100696 4.42288e-05 0)
(0.00100476 4.40341e-05 0)
(0.00100245 4.37877e-05 0)
(0.00100001 4.34883e-05 0)
(0.000997487 4.31377e-05 0)
(0.000994833 4.27329e-05 0)
(0.000992145 4.22775e-05 0)
(0.000989313 4.17659e-05 0)
(0.000986502 4.1205e-05 0)
(0.00098352 4.05842e-05 0)
(0.000980638 3.99173e-05 0)
(0.000977529 3.91847e-05 0)
(0.000974641 3.84124e-05 0)
(0.000971414 3.75644e-05 0)
(0.000968603 3.66894e-05 0)
(0.000965248 3.57211e-05 0)
(0.000962626 3.47492e-05 0)
(0.000959097 3.36524e-05 0)
(0.000956829 3.25946e-05 0)
(0.000953015 3.13553e-05 0)
(0.000951354 3.02315e-05 0)
(0.00094703 2.88236e-05 0)
(0.000946383 2.7668e-05 0)
(0.000941124 2.60439e-05 0)
(0.000942157 2.49151e-05 0)
(0.00093519 2.29879e-05 0)
(0.000939018 2.19853e-05 0)
(0.000928958 1.96007e-05 0)
(0.000937467 1.88894e-05 0)
(0.000921865 1.57847e-05 0)
(0.00093824 1.56244e-05 0)
(0.000912801 1.13908e-05 0)
(0.000942459 1.21137e-05 0)
(0.00089973 6.28408e-06 0)
(0.000952018 7.91003e-06 0)
(0.000879516 8.8158e-07 0)
(0.000999989 1.9634e-06 0)
(0.00100078 5.76617e-06 0)
(0.00100224 9.29213e-06 0)
(0.00100423 1.24574e-05 0)
(0.00100654 1.52593e-05 0)
(0.00100897 1.77429e-05 0)
(0.00101139 1.99629e-05 0)
(0.00101376 2.19625e-05 0)
(0.00101607 2.37687e-05 0)
(0.00101833 2.53984e-05 0)
(0.00102054 2.68647e-05 0)
(0.00102271 2.81809e-05 0)
(0.00102483 2.93616e-05 0)
(0.00102688 3.04205e-05 0)
(0.00102887 3.13702e-05 0)
(0.00103078 3.22202e-05 0)
(0.00103264 3.2979e-05 0)
(0.00103442 3.36521e-05 0)
(0.00103615 3.42452e-05 0)
(0.00103781 3.47614e-05 0)
(0.00103943 3.52056e-05 0)
(0.00104098 3.55788e-05 0)
(0.00104248 3.58853e-05 0)
(0.00104391 3.61242e-05 0)
(0.00104531 3.62999e-05 0)
(0.00104664 3.64091e-05 0)
(0.00104794 3.64577e-05 0)
(0.00104916 3.64389e-05 0)
(0.00105037 3.63614e-05 0)
(0.00105148 3.62142e-05 0)
(0.00105262 3.60106e-05 0)
(0.00105363 3.57328e-05 0)
(0.0010547 3.54021e-05 0)
(0.00105559 3.49906e-05 0)
(0.00105662 3.45318e-05 0)
(0.0010574 3.39821e-05 0)
(0.0010584 3.33947e-05 0)
(0.00105905 3.27016e-05 0)
(0.00106008 3.19863e-05 0)
(0.00106057 3.11434e-05 0)
(0.00106168 3.03027e-05 0)
(0.00106196 2.93021e-05 0)
(0.00106324 2.83413e-05 0)
(0.00106323 2.71731e-05 0)
(0.00106482 2.61012e-05 0)
(0.00106439 2.47527e-05 0)
(0.00106647 2.35839e-05 0)
(0.00106543 2.20394e-05 0)
(0.00106829 2.07943e-05 0)
(0.0010663 1.90362e-05 0)
(0.00107039 1.77436e-05 0)
(0.00106693 1.57566e-05 0)
(0.00107289 1.4455e-05 0)
(0.00106718 1.22397e-05 0)
(0.001076 1.09779e-05 0)
(0.0010668 8.58761e-06 0)
(0.00107998 7.42569e-06 0)
(0.00106543 5.06155e-06 0)
(0.00108526 4.02824e-06 0)
(0.00106259 2.1953e-06 0)
(0.00100001 1.74279e-06 0)
(0.00100047 5.16237e-06 0)
(0.00100128 8.42464e-06 0)
(0.00100239 1.14533e-05 0)
(0.00100374 1.42075e-05 0)
(0.00100526 1.66842e-05 0)
(0.00100688 1.89053e-05 0)
(0.00100858 2.09004e-05 0)
(0.00101033 2.26966e-05 0)
(0.00101211 2.43148e-05 0)
(0.00101393 2.57706e-05 0)
(0.00101577 2.70768e-05 0)
(0.00101764 2.82457e-05 0)
(0.00101951 2.92894e-05 0)
(0.00102139 3.02195e-05 0)
(0.00102327 3.10462e-05 0)
(0.00102515 3.17787e-05 0)
(0.00102702 3.24238e-05 0)
(0.0010289 3.29881e-05 0)
(0.00103077 3.34757e-05 0)
(0.00103264 3.38915e-05 0)
(0.0010345 3.42377e-05 0)
(0.00103636 3.45182e-05 0)
(0.00103821 3.47336e-05 0)
(0.00104007 3.48873e-05 0)
(0.00104191 3.49782e-05 0)
(0.00104376 3.50096e-05 0)
(0.00104559 3.49787e-05 0)
(0.00104743 3.48895e-05 0)
(0.00104924 3.47371e-05 0)
(0.00105108 3.45266e-05 0)
(0.00105287 3.42509e-05 0)
(0.0010547 3.3917e-05 0)
(0.00105647 3.35149e-05 0)
(0.00105829 3.30543e-05 0)
(0.00106004 3.2522e-05 0)
(0.00106186 3.19306e-05 0)
(0.00106357 3.12637e-05 0)
(0.0010654 3.05369e-05 0)
(0.00106707 2.97311e-05 0)
(0.00106892 2.88638e-05 0)
(0.00107053 2.79155e-05 0)
(0.00107242 2.69022e-05 0)
(0.00107395 2.58093e-05 0)
(0.0010759 2.46435e-05 0)
(0.00107734 2.34069e-05 0)
(0.00107939 2.20805e-05 0)
(0.0010807 2.07066e-05 0)
(0.0010829 1.9209e-05 0)
(0.00108405 1.7714e-05 0)
(0.00108647 1.6031e-05 0)
(0.00108738 1.44501e-05 0)
(0.00109013 1.25634e-05 0)
(0.0010907 1.09656e-05 0)
(0.00109392 8.85183e-06 0)
(0.001094 7.36402e-06 0)
(0.00109788 4.9882e-06 0)
(0.00109727 3.81718e-06 0)
(0.00110207 1.09065e-06 0)
(0.00110044 5.23957e-07 0)
(0.001 1.15469e-06 0)
(0.00100023 3.43603e-06 0)
(0.00100067 5.65124e-06 0)
(0.00100133 7.76863e-06 0)
(0.0010022 9.76686e-06 0)
(0.00100323 1.16356e-05 0)
(0.0010044 1.33737e-05 0)
(0.00100568 1.4985e-05 0)
(0.00100705 1.64757e-05 0)
(0.00100847 1.7852e-05 0)
(0.00100996 1.91192e-05 0)
(0.00101148 2.02823e-05 0)
(0.00101305 2.13461e-05 0)
(0.00101464 2.23153e-05 0)
(0.00101626 2.31952e-05 0)
(0.0010179 2.39904e-05 0)
(0.00101955 2.47054e-05 0)
(0.00102122 2.53443e-05 0)
(0.0010229 2.59104e-05 0)
(0.00102459 2.64066e-05 0)
(0.00102629 2.68352e-05 0)
(0.00102799 2.71983e-05 0)
(0.0010297 2.74974e-05 0)
(0.00103142 2.77341e-05 0)
(0.00103314 2.79089e-05 0)
(0.00103487 2.80231e-05 0)
(0.0010366 2.80763e-05 0)
(0.00103833 2.80697e-05 0)
(0.00104007 2.80019e-05 0)
(0.00104181 2.78745e-05 0)
(0.00104356 2.76843e-05 0)
(0.0010453 2.74344e-05 0)
(0.00104705 2.71191e-05 0)
(0.0010488 2.67441e-05 0)
(0.00105055 2.62996e-05 0)
(0.00105229 2.57963e-05 0)
(0.00105405 2.52172e-05 0)
(0.00105579 2.45821e-05 0)
(0.00105754 2.3862e-05 0)
(0.00105928 2.30917e-05 0)
(0.00106103 2.22228e-05 0)
(0.00106277 2.13152e-05 0)
(0.00106451 2.02879e-05 0)
(0.00106625 1.9243e-05 0)
(0.00106798 1.80457e-05 0)
(0.00106973 1.68671e-05 0)
(0.00107145 1.54849e-05 0)
(0.00107321 1.4183e-05 0)
(0.00107491 1.25964e-05 0)
(0.0010767 1.11909e-05 0)
(0.00107839 9.37192e-06 0)
(0.00108025 7.89657e-06 0)
(0.00108192 5.80205e-06 0)
(0.00108391 4.3106e-06 0)
(0.00108558 1.87349e-06 0)
(0.0010878 4.56514e-07 0)
(0.00108945 -2.41569e-06 0)
(0.00109198 -3.60396e-06 0)
(0.00109349 -7.0492e-06 0)
(0.00109635 -7.78901e-06 0)
(0.001 9.28922e-07 0)
(0.00100017 2.7773e-06 0)
(0.00100051 4.59779e-06 0)
(0.001001 6.3715e-06 0)
(0.00100165 8.081e-06 0)
(0.00100242 9.71244e-06 0)
(0.00100331 1.12566e-05 0)
(0.0010043 1.27085e-05 0)
(0.00100536 1.40668e-05 0)
(0.0010065 1.53319e-05 0)
(0.0010077 1.65053e-05 0)
(0.00100895 1.75889e-05 0)
(0.00101024 1.85851e-05 0)
(0.00101157 1.94965e-05 0)
(0.00101294 2.03258e-05 0)
(0.00101433 2.10761e-05 0)
(0.00101576 2.17502e-05 0)
(0.0010172 2.23511e-05 0)
(0.00101866 2.28813e-05 0)
(0.00102014 2.33434e-05 0)
(0.00102163 2.37391e-05 0)
(0.00102314 2.40705e-05 0)
(0.00102466 2.43387e-05 0)
(0.00102618 2.45457e-05 0)
(0.00102772 2.46913e-05 0)
(0.00102926 2.47778e-05 0)
(0.00103081 2.48038e-05 0)
(0.00103237 2.47718e-05 0)
(0.00103393 2.46791e-05 0)
(0.0010355 2.45292e-05 0)
(0.00103706 2.4317e-05 0)
(0.00103864 2.40481e-05 0)
(0.00104021 2.37142e-05 0)
(0.00104178 2.33239e-05 0)
(0.00104335 2.28645e-05 0)
(0.00104493 2.23499e-05 0)
(0.00104649 2.17597e-05 0)
(0.00104807 2.1117e-05 0)
(0.00104963 2.03894e-05 0)
(0.00105121 1.96146e-05 0)
(0.00105275 1.87414e-05 0)
(0.00105433 1.78308e-05 0)
(0.00105587 1.68019e-05 0)
(0.00105745 1.57525e-05 0)
(0.00105897 1.45552e-05 0)
(0.00106057 1.3366e-05 0)
(0.00106207 1.1984e-05 0)
(0.0010637 1.06569e-05 0)
(0.00106517 9.06922e-06 0)
(0.00106687 7.61226e-06 0)
(0.0010683 5.79198e-06 0)
(0.00107009 4.22386e-06 0)
(0.00107146 2.13518e-06 0)
(0.00107338 4.87665e-07 0)
(0.00107466 -1.92885e-06 0)
(0.0010768 -3.61769e-06 0)
(0.00107797 -6.46701e-06 0)
(0.00108046 -8.13915e-06 0)
(0.00108139 -1.15677e-05 0)
(0.00108423 -1.31194e-05 0)
(0.001 7.34818e-07 0)
(0.00100013 2.19708e-06 0)
(0.00100037 3.63901e-06 0)
(0.00100073 5.04794e-06 0)
(0.00100121 6.41248e-06 0)
(0.0010018 7.72331e-06 0)
(0.00100248 8.97356e-06 0)
(0.00100325 1.01588e-05 0)
(0.0010041 1.12764e-05 0)
(0.00100502 1.23253e-05 0)
(0.001006 1.33054e-05 0)
(0.00100704 1.42172e-05 0)
(0.00100813 1.50612e-05 0)
(0.00100925 1.58385e-05 0)
(0.00101042 1.65502e-05 0)
(0.00101162 1.71974e-05 0)
(0.00101285 1.77814e-05 0)
(0.00101411 1.83038e-05 0)
(0.0010154 1.87656e-05 0)
(0.0010167 1.91682e-05 0)
(0.00101802 1.95125e-05 0)
(0.00101936 1.97997e-05 0)
(0.00102071 2.00301e-05 0)
(0.00102207 2.0205e-05 0)
(0.00102344 2.03239e-05 0)
(0.00102482 2.03882e-05 0)
(0.00102621 2.03967e-05 0)
(0.0010276 2.03509e-05 0)
(0.001029 2.02485e-05 0)
(0.0010304 2.00919e-05 0)
(0.0010318 1.98767e-05 0)
(0.00103321 1.96072e-05 0)
(0.00103461 1.92763e-05 0)
(0.00103601 1.88908e-05 0)
(0.0010374 1.84396e-05 0)
(0.0010388 1.79338e-05 0)
(0.00104018 1.73565e-05 0)
(0.00104157 1.67254e-05 0)
(0.00104294 1.60145e-05 0)
(0.00104432 1.52523e-05 0)
(0.00104567 1.43985e-05 0)
(0.00104704 1.34988e-05 0)
(0.00104836 1.24907e-05 0)
(0.00104972 1.14468e-05 0)
(0.00105102 1.027e-05 0)
(0.00105238 9.07539e-06 0)
(0.00105364 7.71143e-06 0)
(0.001055 6.36001e-06 0)
(0.00105622 4.78432e-06 0)
(0.00105761 3.27075e-06 0)
(0.0010588 1.44947e-06 0)
(0.00106025 -2.27892e-07 0)
(0.00106141 -2.33711e-06 0)
(0.00106297 -4.1661e-06 0)
(0.00106406 -6.61313e-06 0)
(0.00106578 -8.56664e-06 0)
(0.00106676 -1.14331e-05 0)
(0.00106871 -1.34781e-05 0)
(0.00106946 -1.68992e-05 0)
(0.00107159 -1.89778e-05 0)
(0.001 5.86128e-07 0)
(0.0010001 1.75345e-06 0)
(0.00100029 2.90794e-06 0)
(0.00100057 4.04175e-06 0)
(0.00100095 5.14739e-06 0)
(0.00100142 6.21819e-06 0)
(0.00100196 7.24855e-06 0)
(0.00100259 8.23404e-06 0)
(0.00100329 9.17136e-06 0)
(0.00100405 1.00582e-05 0)
(0.00100487 1.08931e-05 0)
(0.00100574 1.16751e-05 0)
(0.00100666 1.24037e-05 0)
(0.00100763 1.30786e-05 0)
(0.00100864 1.36998e-05 0)
(0.00100968 1.42673e-05 0)
(0.00101075 1.47813e-05 0)
(0.00101185 1.52423e-05 0)
(0.00101298 1.56506e-05 0)
(0.00101413 1.60067e-05 0)
(0.00101529 1.63108e-05 0)
(0.00101648 1.65636e-05 0)
(0.00101768 1.67649e-05 0)
(0.00101889 1.69154e-05 0)
(0.00102011 1.70146e-05 0)
(0.00102134 1.70632e-05 0)
(0.00102258 1.70602e-05 0)
(0.00102382 1.70064e-05 0)
(0.00102506 1.69e-05 0)
(0.00102631 1.67423e-05 0)
(0.00102755 1.65303e-05 0)
(0.0010288 1.62661e-05 0)
(0.00103004 1.59451e-05 0)
(0.00103127 1.55707e-05 0)
(0.0010325 1.5136e-05 0)
(0.00103373 1.46466e-05 0)
(0.00103494 1.40922e-05 0)
(0.00103614 1.34818e-05 0)
(0.00103733 1.27999e-05 0)
(0.00103851 1.20615e-05 0)
(0.00103967 1.12426e-05 0)
(0.00104083 1.03676e-05 0)
(0.00104196 9.40011e-06 0)
(0.00104309 8.37888e-06 0)
(0.00104418 7.2484e-06 0)
(0.00104529 6.07029e-06 0)
(0.00104633 4.75928e-06 0)
(0.00104743 3.41287e-06 0)
(0.00104842 1.89966e-06 0)
(0.0010495 3.72923e-07 0)
(0.00105043 -1.37064e-06 0)
(0.00105153 -3.09128e-06 0)
(0.00105239 -5.1067e-06 0)
(0.00105353 -7.04019e-06 0)
(0.00105433 -9.38396e-06 0)
(0.00105555 -1.15431e-05 0)
(0.00105623 -1.4283e-05 0)
(0.00105757 -1.66713e-05 0)
(0.00105801 -1.99024e-05 0)
(0.00105939 -2.25102e-05 0)
(0.001 4.68868e-07 0)
(0.00100008 1.40298e-06 0)
(0.00100024 2.32819e-06 0)
(0.00100047 3.23913e-06 0)
(0.00100078 4.13057e-06 0)
(0.00100116 4.99765e-06 0)
(0.00100162 5.83602e-06 0)
(0.00100214 6.642e-06 0)
(0.00100272 7.4125e-06 0)
(0.00100336 8.14507e-06 0)
(0.00100406 8.83769e-06 0)
(0.0010048 9.48879e-06 0)
(0.0010056 1.00972e-05 0)
(0.00100643 1.0662e-05 0)
(0.00100731 1.11827e-05 0)
(0.00100821 1.16589e-05 0)
(0.00100915 1.20903e-05 0)
(0.00101012 1.24768e-05 0)
(0.00101111 1.28184e-05 0)
(0.00101213 1.31151e-05 0)
(0.00101316 1.33669e-05 0)
(0.00101421 1.35738e-05 0)
(0.00101528 1.37357e-05 0)
(0.00101636 1.38527e-05 0)
(0.00101744 1.39244e-05 0)
(0.00101854 1.39508e-05 0)
(0.00101964 1.39312e-05 0)
(0.00102075 1.38657e-05 0)
(0.00102185 1.37532e-05 0)
(0.00102296 1.35937e-05 0)
(0.00102406 1.33855e-05 0)
(0.00102516 1.31289e-05 0)
(0.00102625 1.28212e-05 0)
(0.00102734 1.24633e-05 0)
(0.00102841 1.20513e-05 0)
(0.00102947 1.15867e-05 0)
(0.00103052 1.1064e-05 0)
(0.00103156 1.04859e-05 0)
(0.00103257 9.84462e-06 0)
(0.00103357 9.14485e-06 0)
(0.00103454 8.37515e-06 0)
(0.0010355 7.54365e-06 0)
(0.00103643 6.63349e-06 0)
(0.00103734 5.65817e-06 0)
(0.00103821 4.59259e-06 0)
(0.00103908 3.45871e-06 0)
(0.00103988 2.21891e-06 0)
(0.00104069 9.08672e-07 0)
(0.00104142 -5.28509e-07 0)
(0.0010422 -2.03424e-06 0)
(0.00104285 -3.69421e-06 0)
(0.00104359 -5.41678e-06 0)
(0.00104415 -7.33391e-06 0)
(0.00104487 -9.30227e-06 0)
(0.00104532 -1.15255e-05 0)
(0.00104603 -1.3775e-05 0)
(0.00104634 -1.63641e-05 0)
(0.00104705 -1.89285e-05 0)
(0.00104711 -2.19544e-05 0)
(0.00104775 -2.48591e-05 0)
(0.001 3.71794e-07 0)
(0.00100007 1.11245e-06 0)
(0.0010002 1.84643e-06 0)
(0.0010004 2.56997e-06 0)
(0.00100066 3.27931e-06 0)
(0.00100098 3.97089e-06 0)
(0.00100137 4.64142e-06 0)
(0.00100181 5.28796e-06 0)
(0.00100231 5.90792e-06 0)
(0.00100286 6.4991e-06 0)
(0.00100347 7.0596e-06 0)
(0.00100411 7.58786e-06 0)
(0.0010048 8.08259e-06 0)
(0.00100553 8.54276e-06 0)
(0.0010063 8.96757e-06 0)
(0.0010071 9.35639e-06 0)
(0.00100793 9.70871e-06 0)
(0.00100878 1.00242e-05 0)
(0.00100966 1.03024e-05 0)
(0.00101057 1.05431e-05 0)
(0.00101149 1.07461e-05 0)
(0.00101243 1.09112e-05 0)
(0.00101338 1.1038e-05 0)
(0.00101434 1.11264e-05 0)
(0.00101531 1.11758e-05 0)
(0.00101629 1.11861e-05 0)
(0.00101727 1.11566e-05 0)
(0.00101826 1.10869e-05 0)
(0.00101924 1.09763e-05 0)
(0.00102023 1.08241e-05 0)
(0.0010212 1.06294e-05 0)
(0.00102217 1.03913e-05 0)
(0.00102313 1.01086e-05 0)
(0.00102408 9.78011e-06 0)
(0.00102501 9.40445e-06 0)
(0.00102593 8.97993e-06 0)
(0.00102683 8.505e-06 0)
(0.00102771 7.97741e-06 0)
(0.00102856 7.39541e-06 0)
(0.0010294 6.756e-06 0)
(0.00103019 6.05737e-06 0)
(0.00103097 5.29536e-06 0)
(0.0010317 4.46841e-06 0)
(0.00103242 3.57061e-06 0)
(0.00103307 2.60114e-06 0)
(0.00103371 1.55146e-06 0)
(0.00103428 4.22416e-07 0)
(0.00103484 -7.98548e-07 0)
(0.00103531 -2.10694e-06 0)
(0.00103578 -3.52293e-06 0)
(0.00103615 -5.03715e-06 0)
(0.00103653 -6.68124e-06 0)
(0.00103676 -8.43406e-06 0)
(0.00103706 -1.03449e-05 0)
(0.00103714 -1.23737e-05 0)
(0.00103735 -1.45989e-05 0)
(0.00103724 -1.6948e-05 0)
(0.00103735 -1.95451e-05 0)
(0.00103697 -2.22626e-05 0)
(0.00103689 -2.52943e-05 0)
(0.001 2.88928e-07 0)
(0.00100006 8.64307e-07 0)
(0.00100017 1.43454e-06 0)
(0.00100034 1.99691e-06 0)
(0.00100057 2.54873e-06 0)
(0.00100085 3.08737e-06 0)
(0.00100119 3.61039e-06 0)
(0.00100158 4.11554e-06 0)
(0.00100201 4.6008e-06 0)
(0.0010025 5.06435e-06 0)
(0.00100303 5.50463e-06 0)
(0.0010036 5.92025e-06 0)
(0.00100421 6.31005e-06 0)
(0.00100486 6.67303e-06 0)
(0.00100554 7.00834e-06 0)
(0.00100625 7.31527e-06 0)
(0.00100699 7.59322e-06 0)
(0.00100776 7.84166e-06 0)
(0.00100855 8.06017e-06 0)
(0.00100936 8.24829e-06 0)
(0.00101019 8.40571e-06 0)
(0.00101103 8.53199e-06 0)
(0.00101189 8.62685e-06 0)
(0.00101276 8.68979e-06 0)
(0.00101363 8.72054e-06 0)
(0.00101451 8.71845e-06 0)
(0.00101539 8.68323e-06 0)
(0.00101627 8.61404e-06 0)
(0.00101715 8.51054e-06 0)
(0.00101803 8.37157e-06 0)
(0.0010189 8.19685e-06 0)
(0.00101975 7.9847e-06 0)
(0.0010206 7.735e-06 0)
(0.00102143 7.44535e-06 0)
(0.00102224 7.11594e-06 0)
(0.00102303 6.74332e-06 0)
(0.0010238 6.32834e-06 0)
(0.00102454 5.86593e-06 0)
(0.00102525 5.35814e-06 0)
(0.00102593 4.79743e-06 0)
(0.00102657 4.18799e-06 0)
(0.00102718 3.51842e-06 0)
(0.00102774 2.79657e-06 0)
(0.00102826 2.00502e-06 0)
(0.00102873 1.15783e-06 0)
(0.00102915 2.27992e-07 0)
(0.0010295 -7.60039e-07 0)
(0.00102982 -1.84779e-06 0)
(0.00103005 -2.99437e-06 0)
(0.00103024 -4.26677e-06 0)
(0.00103032 -5.59604e-06 0)
(0.00103037 -7.08749e-06 0)
(0.00103028 -8.62592e-06 0)
(0.00103018 -1.03789e-05 0)
(0.0010299 -1.21563e-05 0)
(0.00102963 -1.42259e-05 0)
(0.0010291 -1.6275e-05 0)
(0.00102864 -1.87323e-05 0)
(0.00102779 -2.10837e-05 0)
(0.00102705 -2.40135e-05 0)
(0.001 2.16227e-07 0)
(0.00100005 6.46541e-07 0)
(0.00100015 1.07284e-06 0)
(0.00100031 1.49319e-06 0)
(0.00100051 1.9057e-06 0)
(0.00100076 2.3085e-06 0)
(0.00100106 2.69983e-06 0)
(0.00100141 3.07804e-06 0)
(0.0010018 3.44162e-06 0)
(0.00100223 3.7892e-06 0)
(0.00100271 4.11955e-06 0)
(0.00100322 4.43157e-06 0)
(0.00100377 4.72431e-06 0)
(0.00100436 4.9969e-06 0)
(0.00100498 5.24859e-06 0)
(0.00100562 5.47874e-06 0)
(0.00100629 5.68677e-06 0)
(0.00100699 5.87216e-06 0)
(0.00100771 6.03449e-06 0)
(0.00100845 6.17329e-06 0)
(0.0010092 6.28824e-06 0)
(0.00100997 6.37887e-06 0)
(0.00101075 6.44491e-06 0)
(0.00101154 6.48583e-06 0)
(0.00101234 6.50141e-06 0)
(0.00101314 6.49096e-06 0)
(0.00101394 6.45431e-06 0)
(0.00101473 6.39053e-06 0)
(0.00101553 6.29954e-06 0)
(0.00101631 6.18001e-06 0)
(0.00101709 6.03204e-06 0)
(0.00101786 5.85374e-06 0)
(0.0010186 5.64551e-06 0)
(0.00101933 5.40461e-06 0)
(0.00102004 5.13206e-06 0)
(0.00102072 4.82376e-06 0)
(0.00102138 4.48182e-06 0)
(0.001022 4.10013e-06 0)
(0.00102259 3.68261e-06 0)
(0.00102315 3.22002e-06 0)
(0.00102365 2.71938e-06 0)
(0.00102412 2.16654e-06 0)
(0.00102453 1.57368e-06 0)
(0.00102489 9.18888e-07 0)
(0.00102519 2.22961e-07 0)
(0.00102543 -5.48476e-07 0)
(0.00102559 -1.36008e-06 0)
(0.0010257 -2.26674e-06 0)
(0.00102571 -3.21068e-06 0)
(0.00102565 -4.27832e-06 0)
(0.00102548 -5.37355e-06 0)
(0.00102524 -6.6338e-06 0)
(0.00102486 -7.90101e-06 0)
(0.0010244 -9.39527e-06 0)
(0.00102378 -1.08574e-05 0)
(0.00102309 -1.26409e-05 0)
(0.00102217 -1.4321e-05 0)
(0.0010212 -1.64671e-05 0)
(0.0010199 -1.8382e-05 0)
(0.00101857 -2.09827e-05 0)
(0.001 1.50688e-07 0)
(0.00100005 4.50195e-07 0)
(0.00100014 7.46586e-07 0)
(0.00100028 1.03858e-06 0)
(0.00100046 1.32492e-06 0)
(0.0010007 1.60434e-06 0)
(0.00100097 1.87567e-06 0)
(0.00100129 2.13778e-06 0)
(0.00100165 2.38965e-06 0)
(0.00100205 2.63032e-06 0)
(0.00100248 2.85893e-06 0)
(0.00100296 3.07467e-06 0)
(0.00100347 3.27687e-06 0)
(0.00100401 3.46487e-06 0)
(0.00100458 3.63812e-06 0)
(0.00100517 3.7961e-06 0)
(0.0010058 3.93839e-06 0)
(0.00100644 4.06455e-06 0)
(0.00100711 4.17426e-06 0)
(0.00100779 4.26712e-06 0)
(0.00100849 4.34289e-06 0)
(0.0010092 4.40115e-06 0)
(0.00100993 4.44173e-06 0)
(0.00101066 4.46415e-06 0)
(0.00101139 4.46826e-06 0)
(0.00101213 4.45349e-06 0)
(0.00101287 4.41975e-06 0)
(0.0010136 4.36623e-06 0)
(0.00101433 4.29295e-06 0)
(0.00101505 4.19878e-06 0)
(0.00101576 4.08393e-06 0)
(0.00101645 3.94674e-06 0)
(0.00101712 3.78779e-06 0)
(0.00101777 3.60461e-06 0)
(0.0010184 3.39841e-06 0)
(0.001019 3.1655e-06 0)
(0.00101957 2.90817e-06 0)
(0.0010201 2.62086e-06 0)
(0.0010206 2.30765e-06 0)
(0.00102105 1.96003e-06 0)
(0.00102145 1.58515e-06 0)
(0.0010218 1.16982e-06 0)
(0.00102209 7.26296e-07 0)
(0.00102232 2.3401e-07 0)
(0.00102249 -2.86539e-07 0)
(0.00102258 -8.67176e-07 0)
(0.00102259 -1.47428e-06 0)
(0.00102252 -2.15929e-06 0)
(0.00102236 -2.86602e-06 0)
(0.0010221 -3.67578e-06 0)
(0.00102172 -4.49582e-06 0)
(0.00102124 -5.45618e-06 0)
(0.00102062 -6.40472e-06 0)
(0.00101988 -7.55039e-06 0)
(0.00101897 -8.64372e-06 0)
(0.00101793 -1.00217e-05 0)
(0.00101667 -1.12749e-05 0)
(0.00101528 -1.29486e-05 0)
(0.00101361 -1.43695e-05 0)
(0.00101179 -1.6421e-05 0)
(0.001 8.99166e-08 0)
(0.00100005 2.68122e-07 0)
(0.00100013 4.43991e-07 0)
(0.00100026 6.16798e-07 0)
(0.00100044 7.85821e-07 0)
(0.00100065 9.50354e-07 0)
(0.00100091 1.10972e-06 0)
(0.00100121 1.26328e-06 0)
(0.00100155 1.41045e-06 0)
(0.00100193 1.55068e-06 0)
(0.00100234 1.68346e-06 0)
(0.00100279 1.80834e-06 0)
(0.00100327 1.92491e-06 0)
(0.00100378 2.03279e-06 0)
(0.00100432 2.13166e-06 0)
(0.00100489 2.2212e-06 0)
(0.00100548 2.30116e-06 0)
(0.00100609 2.37128e-06 0)
(0.00100672 2.43138e-06 0)
(0.00100737 2.48119e-06 0)
(0.00100803 2.5206e-06 0)
(0.0010087 2.54933e-06 0)
(0.00100939 2.56729e-06 0)
(0.00101008 2.57418e-06 0)
(0.00101077 2.56993e-06 0)
(0.00101147 2.55416e-06 0)
(0.00101217 2.52685e-06 0)
(0.00101286 2.48746e-06 0)
(0.00101354 2.43607e-06 0)
(0.00101421 2.3719e-06 0)
(0.00101487 2.29515e-06 0)
(0.00101551 2.20472e-06 0)
(0.00101614 2.10106e-06 0)
(0.00101674 1.98251e-06 0)
(0.00101731 1.84998e-06 0)
(0.00101785 1.70095e-06 0)
(0.00101836 1.53712e-06 0)
(0.00101883 1.35465e-06 0)
(0.00101926 1.15654e-06 0)
(0.00101964 9.36883e-07 0)
(0.00101996 7.00875e-07 0)
(0.00102024 4.3935e-07 0)
(0.00102044 1.61137e-07 0)
(0.00102059 -1.48113e-07 0)
(0.00102066 -4.73595e-07 0)
(0.00102065 -8.38136e-07 0)
(0.00102055 -1.21775e-06 0)
(0.00102036 -1.64826e-06 0)
(0.00102007 -2.08965e-06 0)
(0.00101966 -2.59897e-06 0)
(0.00101914 -3.11048e-06 0)
(0.00101849 -3.71571e-06 0)
(0.00101769 -4.30678e-06 0)
(0.00101675 -5.03107e-06 0)
(0.00101563 -5.7115e-06 0)
(0.00101435 -6.58638e-06 0)
(0.00101285 -7.36466e-06 0)
(0.00101116 -8.43328e-06 0)
(0.00100921 -9.31219e-06 0)
(0.00100704 -1.06313e-05 0)
(0.001 3.18615e-08 0)
(0.00100004 9.41895e-08 0)
(0.00100013 1.54911e-07 0)
(0.00100026 2.13803e-07 0)
(0.00100042 2.70646e-07 0)
(0.00100064 3.25227e-07 0)
(0.00100089 3.77346e-07 0)
(0.00100118 4.26819e-07 0)
(0.00100151 4.73478e-07 0)
(0.00100187 5.17167e-07 0)
(0.00100227 5.57752e-07 0)
(0.00100271 5.95107e-07 0)
(0.00100317 6.2913e-07 0)
(0.00100367 6.59725e-07 0)
(0.00100419 6.86815e-07 0)
(0.00100474 7.10328e-07 0)
(0.00100532 7.30212e-07 0)
(0.00100591 7.46411e-07 0)
(0.00100653 7.58893e-07 0)
(0.00100716 7.67607e-07 0)
(0.0010078 7.72537e-07 0)
(0.00100846 7.73628e-07 0)
(0.00100912 7.70876e-07 0)
(0.00100979 7.64208e-07 0)
(0.00101047 7.53633e-07 0)
(0.00101114 7.39043e-07 0)
(0.00101182 7.20464e-07 0)
(0.00101248 6.97734e-07 0)
(0.00101315 6.70905e-07 0)
(0.00101379 6.3973e-07 0)
(0.00101443 6.04309e-07 0)
(0.00101505 5.64266e-07 0)
(0.00101564 5.19793e-07 0)
(0.00101622 4.70316e-07 0)
(0.00101676 4.16185e-07 0)
(0.00101727 3.56524e-07 0)
(0.00101775 2.91957e-07 0)
(0.00101819 2.21145e-07 0)
(0.00101858 1.45162e-07 0)
(0.00101892 6.19677e-08 0)
(0.00101921 -2.66355e-08 0)
(0.00101944 -1.23781e-07 0)
(0.00101961 -2.26496e-07 0)
(0.0010197 -3.3969e-07 0)
(0.00101972 -4.58386e-07 0)
(0.00101966 -5.90762e-07 0)
(0.00101951 -7.28094e-07 0)
(0.00101925 -8.83023e-07 0)
(0.00101889 -1.04116e-06 0)
(0.00101842 -1.22285e-06 0)
(0.00101781 -1.40467e-06 0)
(0.00101707 -1.61932e-06 0)
(0.00101619 -1.8282e-06 0)
(0.00101514 -2.08406e-06 0)
(0.00101391 -2.32338e-06 0)
(0.00101249 -2.63167e-06 0)
(0.00101087 -2.90424e-06 0)
(0.00100902 -3.28037e-06 -3.92824e-38)
(0.00100693 -3.58687e-06 0)
(0.00100457 -4.05127e-06 0)
(0.001 -2.53267e-08 0)
(0.00100004 -7.71385e-08 0)
(0.00100013 -1.29841e-07 0)
(0.00100026 -1.83169e-07 0)
(0.00100042 -2.36852e-07 0)
(0.00100064 -2.90621e-07 0)
(0.00100089 -3.4421e-07 0)
(0.00100118 -3.9736e-07 0)
(0.00100151 -4.49824e-07 0)
(0.00100187 -5.01362e-07 0)
(0.00100227 -5.51749e-07 0)
(0.00100271 -6.00771e-07 0)
(0.00100318 -6.48224e-07 0)
(0.00100367 -6.93915e-07 0)
(0.0010042 -7.37666e-07 0)
(0.00100475 -7.79303e-07 0)
(0.00100532 -8.1867e-07 0)
(0.00100591 -8.55607e-07 0)
(0.00100653 -8.89979e-07 0)
(0.00100716 -9.2163e-07 0)
(0.0010078 -9.50444e-07 0)
(0.00100846 -9.76264e-07 0)
(0.00100912 -9.98989e-07 0)
(0.00100979 -1.01845e-06 0)
(0.00101047 -1.03456e-06 0)
(0.00101114 -1.04713e-06 0)
(0.00101181 -1.0561e-06 0)
(0.00101248 -1.06121e-06 0)
(0.00101314 -1.06246e-06 0)
(0.00101379 -1.05951e-06 0)
(0.00101442 -1.05241e-06 0)
(0.00101504 -1.04072e-06 0)
(0.00101564 -1.02459e-06 0)
(0.00101621 -1.00336e-06 0)
(0.00101675 -9.7738e-07 0)
(0.00101726 -9.45699e-07 0)
(0.00101774 -9.0894e-07 0)
(0.00101817 -8.657e-07 0)
(0.00101857 -8.17082e-07 0)
(0.00101891 -7.60967e-07 0)
(0.0010192 -6.99246e-07 0)
(0.00101943 -6.2868e-07 0)
(0.00101959 -5.52454e-07 0)
(0.00101968 -4.65545e-07 0)
(0.0010197 -3.73251e-07 0)
(0.00101964 -2.67439e-07 0)
(0.00101948 -1.56654e-07 0)
(0.00101923 -2.78946e-08 0)
(0.00101886 1.0397e-07 0)
(0.00101839 2.59648e-07 0)
(0.00101778 4.15106e-07 0)
(0.00101704 6.03567e-07 0)
(0.00101615 7.85626e-07 0)
(0.0010151 1.01476e-06 0)
(0.00101387 1.22648e-06 0)
(0.00101245 1.50718e-06 0)
(0.00101083 1.75113e-06 0)
(0.00100897 2.09838e-06 3.92824e-38)
(0.00100688 2.37495e-06 0)
(0.00100451 2.80856e-06 0)
(0.001 -8.34538e-08 0)
(0.00100005 -2.51265e-07 0)
(0.00100013 -4.19221e-07 0)
(0.00100026 -5.86552e-07 0)
(0.00100044 -7.52486e-07 0)
(0.00100066 -9.16255e-07 0)
(0.00100092 -1.07712e-06 0)
(0.00100122 -1.23436e-06 0)
(0.00100155 -1.38732e-06 0)
(0.00100193 -1.53536e-06 0)
(0.00100234 -1.67788e-06 0)
(0.00100279 -1.81434e-06 0)
(0.00100327 -1.94424e-06 0)
(0.00100378 -2.06709e-06 0)
(0.00100432 -2.18248e-06 0)
(0.00100489 -2.28998e-06 0)
(0.00100548 -2.38925e-06 0)
(0.00100609 -2.47992e-06 0)
(0.00100672 -2.5617e-06 0)
(0.00100737 -2.63424e-06 0)
(0.00100803 -2.6973e-06 0)
(0.0010087 -2.75052e-06 0)
(0.00100939 -2.79371e-06 0)
(0.00101008 -2.82647e-06 0)
(0.00101077 -2.84864e-06 0)
(0.00101147 -2.85976e-06 0)
(0.00101216 -2.85971e-06 0)
(0.00101285 -2.84789e-06 0)
(0.00101353 -2.82429e-06 0)
(0.0010142 -2.78806e-06 0)
(0.00101486 -2.73936e-06 0)
(0.0010155 -2.677e-06 0)
(0.00101612 -2.6014e-06 0)
(0.00101672 -2.51082e-06 0)
(0.00101729 -2.40617e-06 0)
(0.00101782 -2.28487e-06 0)
(0.00101833 -2.14861e-06 0)
(0.00101879 -1.9935e-06 0)
(0.00101922 -1.82257e-06 0)
(0.00101959 -1.62986e-06 0)
(0.00101992 -1.42061e-06 0)
(0.00102019 -1.18559e-06 0)
(0.00102039 -9.33661e-07 0)
(0.00102053 -6.50357e-07 0)
(0.00102059 -3.50487e-07 0)
(0.00102058 -1.11945e-08 0)
(0.00102048 3.42834e-07 0)
(0.00102028 7.47901e-07 0)
(0.00101998 1.16348e-06 0)
(0.00101958 1.64727e-06 0)
(0.00101905 2.13274e-06 0)
(0.00101839 2.71229e-06 0)
(0.00101759 3.27681e-06 0)
(0.00101664 3.97495e-06 0)
(0.00101551 4.62796e-06 0)
(0.00101422 5.47592e-06 0)
(0.00101272 6.22561e-06 0)
(0.00101102 7.26615e-06 0)
(0.00100907 8.11496e-06 0)
(0.00100688 9.40421e-06 0)
(0.001 -1.44393e-07 0)
(0.00100005 -4.33787e-07 0)
(0.00100014 -7.22492e-07 0)
(0.00100028 -1.00919e-06 0)
(0.00100047 -1.29255e-06 0)
(0.0010007 -1.57128e-06 0)
(0.00100097 -1.84413e-06 0)
(0.00100129 -2.1099e-06 0)
(0.00100165 -2.36748e-06 0)
(0.00100205 -2.61584e-06 0)
(0.00100249 -2.85403e-06 0)
(0.00100296 -3.08116e-06 0)
(0.00100347 -3.29644e-06 0)
(0.00100401 -3.49914e-06 0)
(0.00100458 -3.68861e-06 0)
(0.00100518 -3.86422e-06 0)
(0.0010058 -4.02545e-06 0)
(0.00100645 -4.17177e-06 0)
(0.00100711 -4.30274e-06 0)
(0.00100779 -4.41789e-06 0)
(0.00100849 -4.51684e-06 0)
(0.0010092 -4.59912e-06 0)
(0.00100992 -4.66442e-06 0)
(0.00101065 -4.71219e-06 0)
(0.00101139 -4.7422e-06 0)
(0.00101212 -4.75378e-06 0)
(0.00101286 -4.74675e-06 0)
(0.00101359 -4.72023e-06 0)
(0.00101431 -4.67417e-06 0)
(0.00101503 -4.60737e-06 0)
(0.00101573 -4.51998e-06 0)
(0.00101642 -4.41027e-06 0)
(0.00101709 -4.27877e-06 0)
(0.00101774 -4.12297e-06 0)
(0.00101836 -3.94405e-06 0)
(0.00101896 -3.73826e-06 0)
(0.00101952 -3.50789e-06 0)
(0.00102005 -3.2473e-06 0)
(0.00102053 -2.96066e-06 0)
(0.00102098 -2.63932e-06 0)
(0.00102137 -2.29057e-06 0)
(0.00102172 -1.90104e-06 0)
(0.001022 -1.48322e-06 0)
(0.00102223 -1.0162e-06 0)
(0.00102238 -5.21041e-07 0)
(0.00102247 3.5137e-08 0)
(0.00102247 6.17246e-07 0)
(0.00102239 1.27732e-06 0)
(0.00102222 1.95849e-06 0)
(0.00102195 2.74329e-06 0)
(0.00102156 3.53754e-06 0)
(0.00102107 4.47295e-06 0)
(0.00102044 5.39518e-06 0)
(0.00101969 6.51566e-06 0)