/*--------------------------------*- C++ -*----------------------------------*\
| =========                 |                                                 |
| \\      /  F ield         | OpenFOAM: The Open Source CFD Toolbox           |
|  \\    /   O peration     | Version:  2312                                  |
|   \\  /    A nd           | Website:  www.openfoam.com                      |
|    \\/     M anipulation  |                                                 |
\*---------------------------------------------------------------------------*/
FoamFile
{
    version     2.0;
    format      ascii;
    arch        "LSB;label=32;scalar=64";
    class       surfaceScalarField;
    location    "95000";
    object      phi;
}
// * * * * * * * * * * * * * * * * * * * * * * * * * * * * * * * * * * * * * //

dimensions      [0 3 -1 0 0 0 0];

oriented        oriented;

internalField   nonuniform List<scalar> 
21240
(
0.000664974
1.69224e-06
0.000661072
3.90236e-06
0.000655751
5.32077e-06
0.000649515
6.23623e-06
0.00064264
6.87485e-06
0.000635269
7.37132e-06
0.000627493
7.77611e-06
0.000619391
8.10227e-06
0.000611035
8.35581e-06
0.000602489
8.54572e-06
0.000593805
8.68429e-06
0.000585021
8.78383e-06
0.000576167
8.85397e-06
0.000567266
8.90102e-06
0.000558337
8.92881e-06
0.000549397
8.93979e-06
0.000540461
8.9358e-06
0.000531543
8.9184e-06
0.000522654
8.88892e-06
0.000513806
8.84843e-06
0.000505008
8.79775e-06
0.00049627
8.73748e-06
0.000487602
8.66803e-06
0.000479013
8.58971e-06
0.00047051
8.50273e-06
0.000462103
8.40722e-06
0.000453799
8.30331e-06
0.000445608
8.19102e-06
0.000437538
8.07046e-06
0.000429597
7.94149e-06
0.000421792
7.80434e-06
0.000414134
7.65865e-06
0.000406629
7.50493e-06
0.000399286
7.34242e-06
0.000392114
7.17219e-06
0.000385121
6.99273e-06
0.000378315
6.80622e-06
0.000371705
6.6097e-06
0.000365298
6.40739e-06
0.000359104
6.19363e-06
0.000353128
5.97642e-06
0.000347383
5.74501e-06
0.000341869
5.51433e-06
0.000336604
5.26427e-06
0.000331582
5.02242e-06
0.00032683
4.75139e-06
0.000322329
4.50195e-06
0.000318124
4.20479e-06
0.00031417
3.95351e-06
0.000310551
3.61883e-06
0.000307175
3.37604e-06
0.000304198
2.97746e-06
0.000301432
2.76612e-06
0.000299196
2.23589e-06
0.000297079
2.11644e-06
0.000295838
1.24138e-06
0.000294364
1.4745e-06
0.000294578
-2.14557e-07
0.000293421
1.1572e-06
-3.20354e-06
0.000296624
0.000667556
8.02952e-07
0.00066912
2.33783e-06
0.000670854
3.58731e-06
0.000672525
4.56519e-06
0.000674054
5.34589e-06
0.000675427
5.99818e-06
0.00067664
6.56369e-06
0.000677681
7.06084e-06
0.00067854
7.49667e-06
0.00067921
7.87563e-06
0.000679691
8.20333e-06
0.000679988
8.48671e-06
0.000680109
8.73277e-06
0.000680063
8.94738e-06
0.000679857
9.13486e-06
0.000679499
9.29813e-06
0.000678995
9.43936e-06
0.000678353
9.5601e-06
0.000677581
9.66181e-06
0.000676683
9.74556e-06
0.000675669
9.81246e-06
0.000674543
9.86306e-06
0.000673313
9.8982e-06
0.000671985
9.91794e-06
0.000670564
9.92302e-06
0.000669059
9.91303e-06
0.000667473
9.88887e-06
0.000665815
9.84959e-06
0.000664088
9.79649e-06
0.000662302
9.72786e-06
0.000660461
9.64582e-06
0.000658572
9.54747e-06
0.00065664
9.43632e-06
0.000654675
9.30761e-06
0.00065268
9.16724e-06
0.000650666
9.00735e-06
0.000648634
8.83782e-06
0.000646598
8.64571e-06
0.000644558
8.44748e-06
0.00064253
8.22178e-06
0.00064051
7.99595e-06
0.00063852
7.73469e-06
0.000636551
7.48338e-06
0.000634632
7.18357e-06
0.000632744
6.91041e-06
0.000630928
6.56723e-06
0.000629152
6.2783e-06
0.000627473
5.88384e-06
0.000625837
5.58915e-06
0.000624326
5.1305e-06
0.000622855
4.84642e-06
0.00062153
4.30311e-06
0.00062024
4.05607e-06
0.000619078
3.39735e-06
0.000617966
3.22828e-06
0.000616793
2.41465e-06
0.000615889
2.37857e-06
0.000614283
1.39187e-06
0.000613902
1.53822e-06
4.4682e-07
0.000610251
0.000666951
5.18666e-07
0.000667819
1.47016e-06
0.000669059
2.34728e-06
0.000670484
3.1401e-06
0.000671985
3.84448e-06
0.000673515
4.46805e-06
0.000675056
5.02305e-06
0.000676596
5.52058e-06
0.000678124
5.96847e-06
0.000679628
6.3716e-06
0.000681098
6.73353e-06
0.000682527
7.05751e-06
0.000683913
7.34709e-06
0.000685255
7.60572e-06
0.000686553
7.8367e-06
0.000687808
8.04264e-06
0.000689022
8.22578e-06
0.000690194
8.38766e-06
0.000691326
8.52978e-06
0.000692419
8.65302e-06
0.000693473
8.75858e-06
0.000694489
8.84686e-06
0.000695468
8.91887e-06
0.000696412
8.97452e-06
0.00069732
9.01479e-06
0.000698194
9.03907e-06
0.000699034
9.0485e-06
0.000699842
9.04183e-06
0.000700618
9.02063e-06
0.000701363
8.98287e-06
0.000702078
8.93085e-06
0.000702764
8.8614e-06
0.000703422
8.77809e-06
0.000704054
8.67607e-06
0.00070466
8.56084e-06
0.000705242
8.42514e-06
0.000705803
8.27735e-06
0.000706342
8.10668e-06
0.000706864
7.9258e-06
0.000707367
7.71879e-06
0.000707858
7.5045e-06
0.000708333
7.25967e-06
0.000708804
7.01198e-06
0.00070926
6.72785e-06
0.000709723
6.44723e-06
0.000710168
6.12246e-06
0.000710636
5.80995e-06
0.000711077
5.4436e-06
0.000711565
5.10081e-06
0.000712003
4.6929e-06
0.000712527
4.32173e-06
0.000712956
3.87437e-06
0.000713536
3.47652e-06
0.000713936
2.99714e-06
0.00071459
2.57382e-06
0.000714922
2.08294e-06
0.000715667
1.63399e-06
0.000715877
1.18195e-06
0.000716719
6.95553e-07
3.84197e-07
0.000716782
0.000666854
3.31512e-07
0.000667309
1.01538e-06
0.000667972
1.68391e-06
0.000668796
2.3164e-06
0.000669736
2.90365e-06
0.000670762
3.44275e-06
0.00067185
3.93526e-06
0.000672985
4.38485e-06
0.000674158
4.79542e-06
0.00067536
5.17021e-06
0.000676582
5.51173e-06
0.000677817
5.82202e-06
0.000679061
6.10308e-06
0.00068031
6.35688e-06
0.000681561
6.58544e-06
0.000682813
6.7906e-06
0.000684065
6.97403e-06
0.000685316
7.13706e-06
0.000686564
7.2809e-06
0.000687811
7.40639e-06
0.000689055
7.51443e-06
0.000690297
7.60554e-06
0.000691535
7.68039e-06
0.00069277
7.73922e-06
0.000694003
7.78255e-06
0.000695231
7.81035e-06
0.000696457
7.82305e-06
0.000697678
7.82038e-06
0.000698896
7.80269e-06
0.000700109
7.76953e-06
0.000701319
7.72121e-06
0.000702523
7.65716e-06
0.000703724
7.57758e-06
0.000704918
7.48192e-06
0.000706109
7.37018e-06
0.000707292
7.24201e-06
0.000708472
7.09693e-06
0.000709644
6.93527e-06
0.000710814
6.7555e-06
0.000711973
6.55943e-06
0.000713134
6.34337e-06
0.000714282
6.11216e-06
0.000715436
5.85795e-06
0.000716572
5.59131e-06
0.000717723
5.29664e-06
0.00071885
4.99505e-06
0.000720003
4.65699e-06
0.000721125
4.32235e-06
0.000722288
3.9372e-06
0.000723407
3.57422e-06
0.000724591
3.13743e-06
0.00072571
2.75567e-06
0.000726925
2.26139e-06
0.000728044
1.8778e-06
0.000729301
1.31721e-06
0.000730424
9.5993e-07
0.000731736
3.21601e-07
0.000732878
4.0184e-08
0.000734328
-7.54237e-07
-9.19254e-07
0.000735631
0.000666738
2.59776e-07
0.00066697
7.84096e-07
0.000667356
1.29754e-06
0.000667879
1.79312e-06
0.000668518
2.26492e-06
0.000669251
2.70936e-06
0.000670062
3.125e-06
0.000670935
3.5119e-06
0.000671859
3.87096e-06
0.000672826
4.20331e-06
0.000673828
4.51002e-06
0.000674858
4.79208e-06
0.00067591
5.05043e-06
0.000676981
5.28606e-06
0.000678067
5.49998e-06
0.000679164
5.69324e-06
0.000680271
5.86682e-06
0.000681387
6.02164e-06
0.000682509
6.15848e-06
0.000683637
6.27803e-06
0.000684771
6.38084e-06
0.000685909
6.46746e-06
0.000687051
6.5382e-06
0.000688197
6.59351e-06
0.000689346
6.63348e-06
0.000690498
6.65851e-06
0.000691652
6.66843e-06
0.000692809
6.66367e-06
0.000693968
6.64372e-06
0.000695128
6.6092e-06
0.000696291
6.55912e-06
0.000697453
6.49451e-06
0.000698617
6.41365e-06
0.000699781
6.31833e-06
0.000700945
6.20569e-06
0.000702108
6.07883e-06
0.000703272
5.93309e-06
0.000704434
5.77378e-06
0.000705596
5.59327e-06
0.000706755
5.40058e-06
0.000707915
5.18331e-06
0.000709071
4.95651e-06
0.000710228
4.70006e-06
0.000711381
4.43886e-06
0.000712537
4.14033e-06
0.000713687
3.84524e-06
0.000714843
3.50093e-06
0.000715992
3.1735e-06
0.000717151
2.77799e-06
0.000718304
2.42083e-06
0.000719476
1.96557e-06
0.000720649
1.58315e-06
0.000721855
1.05521e-06
0.000723077
6.55435e-07
0.000724367
2.78912e-08
0.000725675
-3.48767e-07
0.000727051
-1.05413e-06
0.000728506
-1.41444e-06
0.00073003
-2.27829e-06
-2.58908e-06
0.0007317
0.000666724
2.02441e-07
0.000666899
6.09038e-07
0.000667184
1.01284e-06
0.00066757
1.40733e-06
0.000668046
1.7888e-06
0.000668601
2.15432e-06
0.000669224
2.50184e-06
0.000669906
2.83013e-06
0.000670638
3.13863e-06
0.000671414
3.42722e-06
0.000672228
3.69597e-06
0.000673075
3.94516e-06
0.00067395
4.17514e-06
0.00067485
4.38636e-06
0.000675771
4.57929e-06
0.00067671
4.75445e-06
0.000677664
4.91236e-06
0.000678632
5.05357e-06
0.000679612
5.17849e-06
0.000680602
5.28765e-06
0.000681602
5.38131e-06
0.000682609
5.45993e-06
0.000683624
5.52362e-06
0.000684645
5.57279e-06
0.000685671
5.60736e-06
0.000686702
5.62775e-06
0.000687736
5.63363e-06
0.000688775
5.62552e-06
0.000689816
5.60274e-06
0.000690859
5.56602e-06
0.000691904
5.51423e-06
0.00069295
5.44849e-06
0.000693996
5.36695e-06
0.000695043
5.27149e-06
0.00069609
5.15915e-06
0.000697136
5.03301e-06
0.00069818
4.88844e-06
0.000699223
4.7305e-06
0.000700265
4.55193e-06
0.000701304
4.36093e-06
0.000702342
4.14615e-06
0.000703377
3.92077e-06
0.00070441
3.66701e-06
0.000705443
3.40591e-06
0.000706474
3.10961e-06
0.000707508
2.81155e-06
0.00070854
2.46828e-06
0.000709581
2.1329e-06
0.000710621
1.73784e-06
0.000711675
1.36699e-06
0.000712725
9.15138e-07
0.000713795
5.13956e-07
0.000714843
6.74365e-09
0.000715943
-4.43963e-07
0.000717029
-1.05902e-06
0.000718199
-1.51816e-06
0.00071938
-2.23559e-06
0.000720669
-2.70316e-06
0.000721952
-3.56151e-06
-4.01624e-06
0.000723379
0.000666708
1.60714e-07
0.000666834
4.83814e-07
0.00066704
8.05966e-07
0.000667325
1.12261e-06
0.000667683
1.43121e-06
0.000668107
1.72964e-06
0.000668593
2.01618e-06
0.000669134
2.2896e-06
0.000669723
2.54913e-06
0.000670356
2.79444e-06
0.000671028
3.02416e-06
0.000671735
3.23841e-06
0.000672472
3.43732e-06
0.000673238
3.621e-06
0.000674027
3.78957e-06
0.000674839
3.94323e-06
0.000675669
4.08218e-06
0.000676516
4.20668e-06
0.000677377
4.31694e-06
0.000678252
4.41322e-06
0.000679137
4.49565e-06
0.000680033
4.5645e-06
0.000680937
4.61978e-06
0.000681848
4.66175e-06
0.000682765
4.69028e-06
0.000683687
4.70564e-06
0.000684613
4.70754e-06
0.000685542
4.6963e-06
0.000686474
4.67138e-06
0.000687406
4.63325e-06
0.00068834
4.581e-06
0.000689273
4.51539e-06
0.000690205
4.43499e-06
0.000691135
4.34104e-06
0.000692063
4.23134e-06
0.000692988
4.10791e-06
0.000693909
3.96741e-06
0.000694826
3.81312e-06
0.000695738
3.6399e-06
0.000696646
3.45312e-06
0.000697547
3.24488e-06
0.000698444
3.02379e-06
0.000699334
2.77773e-06
0.000700219
2.52051e-06
0.000701095
2.23339e-06
0.000701969
1.93821e-06
0.000702831
1.60562e-06
0.000703695
1.2697e-06
0.000704548
8.84314e-07
0.000705412
5.03002e-07
0.000706275
5.20464e-08
0.000707157
-3.67665e-07
0.000708043
-8.79497e-07
0.000708949
-1.35027e-06
0.00070984
-1.94989e-06
0.00071079
-2.46772e-06
0.000711726
-3.17173e-06
0.000712755
-3.7325e-06
0.000713762
-4.56848e-06
-5.16195e-06
0.000714908
0.000666699
1.28681e-07
0.000666796
3.86986e-07
0.000666957
6.44884e-07
0.00066718
8.99185e-07
0.000667463
1.14815e-06
0.000667802
1.39025e-06
0.000668195
1.62416e-06
0.000668635
1.8488e-06
0.000669121
2.06329e-06
0.000669649
2.26691e-06
0.000670214
2.45903e-06
0.000670813
2.63927e-06
0.000671443
2.8074e-06
0.000672101
2.96333e-06
0.000672783
3.10697e-06
0.000673488
3.23833e-06
0.000674213
3.3574e-06
0.000674955
3.46423e-06
0.000675713
3.55886e-06
0.000676485
3.64138e-06
0.000677269
3.71181e-06
0.000678063
3.77026e-06
0.000678866
3.81668e-06
0.000679677
3.85117e-06
0.000680494
3.87363e-06
0.000681315
3.88413e-06
0.00068214
3.88246e-06
0.000682968
3.86873e-06
0.000683797
3.84256e-06
0.000684626
3.80412e-06
0.000685454
3.75281e-06
0.00068628
3.68891e-06
0.000687104
3.61154e-06
0.000687924
3.52119e-06
0.000688738
3.41653e-06
0.000689548
3.29841e-06
0.000690351
3.16488e-06
0.000691146
3.01739e-06
0.000691933
2.85305e-06
0.000692712
2.67424e-06
0.00069348
2.47667e-06
0.00069424
2.26424e-06
0.000694987
2.03045e-06
0.000695726
1.78163e-06
0.000696451
1.50797e-06
0.00069717
1.21969e-06
0.000697873
9.02055e-07
0.000698571
5.71649e-07
0.000699249
2.06806e-07
0.000699923
-1.71515e-07
0.000700577
-6.01146e-07
0.000701243
-1.03418e-06
0.000701891
-1.52732e-06
0.000702558
-2.01723e-06
0.000703198
-2.58992e-06
0.000703875
-3.14424e-06
0.000704516
-3.81272e-06
0.000705218
-4.43533e-06
0.000705869
-5.21896e-06
-5.90999e-06
0.000706617
0.000666693
1.02509e-07
0.000666772
3.08117e-07
0.000666903
5.13535e-07
0.000667086
7.16435e-07
0.000667318
9.1559e-07
0.000667599
1.10989e-06
0.000667925
1.29832e-06
0.000668293
1.48e-06
0.000668702
1.65418e-06
0.000669149
1.8202e-06
0.000669631
1.97757e-06
0.000670144
2.12584e-06
0.000670687
2.26469e-06
0.000671256
2.39388e-06
0.00067185
2.51322e-06
0.000672466
2.62257e-06
0.000673101
2.72184e-06
0.000673755
2.81095e-06
0.000674424
2.88984e-06
0.000675107
2.95847e-06
0.000675802
3.01681e-06
0.000676507
3.06483e-06
0.000677221
3.10247e-06
0.000677943
3.12971e-06
0.00067867
3.14644e-06
0.000679401
3.15262e-06
0.000680136
3.14809e-06
0.000680872
3.1328e-06
0.000681608
3.1065e-06
0.000682343
3.06911e-06
0.000683075
3.02031e-06
0.000683804
2.96e-06
0.000684528
2.88772e-06
0.000685246
2.80338e-06
0.000685956
2.70636e-06
0.000686658
2.59659e-06
0.000687349
2.47323e-06
0.00068803
2.33631e-06
0.000688699
2.18466e-06
0.000689355
2.01845e-06
0.000689995
1.83612e-06
0.000690621
1.63809e-06
0.00069123
1.42221e-06
0.000691822
1.18934e-06
0.000692393
9.36457e-07
0.000692948
6.65073e-07
0.000693479
3.70933e-07
0.000693993
5.72929e-08
0.000694487
-2.86602e-07
0.000694968
-6.52872e-07
0.000695418
-1.05062e-06
0.000695857
-1.47319e-06
0.000696263
-1.93326e-06
0.000696666
-2.42015e-06
0.000697029
-2.95294e-06
0.000697399
-3.51463e-06
0.00069772
-4.13339e-06
0.000698066
-4.78165e-06
0.000698349
-5.50155e-06
-6.24744e-06
0.000698686
0.000666689
8.04399e-08
0.000666755
2.41698e-07
0.000666866
4.02857e-07
0.00066702
5.62192e-07
0.000667217
7.18818e-07
0.000667455
8.7192e-07
0.000667732
1.02075e-06
0.000668048
1.16462e-06
0.000668399
1.30294e-06
0.000668784
1.43517e-06
0.000669201
1.56087e-06
0.000669647
1.67964e-06
0.00067012
1.79115e-06
0.000670619
1.89512e-06
0.000671141
1.99134e-06
0.000671684
2.07961e-06
0.000672246
2.15978e-06
0.000672825
2.23172e-06
0.00067342
2.29532e-06
0.000674028
2.35048e-06
0.000674648
2.39713e-06
0.000675277
2.43517e-06
0.000675915
2.46453e-06
0.00067656
2.48509e-06
0.000677209
2.49679e-06
0.000677863
2.49948e-06
0.000678518
2.49307e-06
0.000679173
2.47737e-06
0.000679827
2.45226e-06
0.000680479
2.41749e-06
0.000681126
2.37293e-06
0.000681768
2.31823e-06
0.000682403
2.25324e-06
0.000683028
2.17748e-06
0.000683644
2.09083e-06
0.000684248
1.99262e-06
0.000684838
1.88279e-06
0.000685414
1.76039e-06
0.000685973
1.62549e-06
0.000686515
1.47676e-06
0.000687037
1.31454e-06
0.000687538
1.13685e-06
0.000688016
9.44571e-07
0.00068847
7.34785e-07
0.000688897
5.09375e-07
0.000689298
2.64133e-07
0.000689664
4.60854e-09
0.000690009
-2.87484e-07
0.000690318
-5.95393e-07
0.000690598
-9.32516e-07
0.000690836
-1.28878e-06
0.000691045
-1.68203e-06
0.000691206
-2.09446e-06
0.00069134
-2.55414e-06
0.000691418
-3.03115e-06
0.000691474
-3.57021e-06
0.000691462
-4.12157e-06
0.000691436
-4.75624e-06
0.000691327
-5.39172e-06
-6.14008e-06
0.000691219
0.000666686
6.1311e-08
0.000666743
1.84167e-07
0.000666839
3.06959e-07
0.000666973
4.28422e-07
0.000667144
5.47921e-07
0.000667351
6.64867e-07
0.000667593
7.7871e-07
0.000667869
8.88943e-07
0.000668176
9.95108e-07
0.000668515
1.09679e-06
0.000668882
1.19361e-06
0.000669277
1.28525e-06
0.000669696
1.37143e-06
0.00067014
1.45187e-06
0.000670604
1.52639e-06
0.000671089
1.59477e-06
0.000671592
1.65687e-06
0.000672111
1.71254e-06
0.000672645
1.76166e-06
0.000673191
1.8041e-06
0.000673749
1.83978e-06
0.000674315
1.86856e-06
0.00067489
1.89039e-06
0.000675469
1.90511e-06
0.000676054
1.91267e-06
0.00067664
1.91289e-06
0.000677228
1.9057e-06
0.000677814
1.89087e-06
0.000678398
1.86836e-06
0.000678978
1.83784e-06
0.000679551
1.79928e-06
0.000680117
1.75223e-06
0.000680674
1.69673e-06
0.000681219
1.63213e-06
0.000681751
1.55857e-06
0.000682269
1.47511e-06
0.00068277
1.38213e-06
0.000683252
1.27821e-06
0.000683713
1.16413e-06
0.000684152
1.03778e-06
0.000684566
9.00614e-07
0.000684953
7.49415e-07
0.000685311
5.86802e-07
0.000685638
4.07865e-07
0.00068593
2.17254e-07
0.000686186
8.56682e-09
0.000686408
-2.17896e-07
0.000686589
-4.67724e-07
0.000686723
-7.29341e-07
0.000686812
-1.02234e-06
0.000686849
-1.32573e-06
0.000686838
-1.67041e-06
0.000686765
-2.02168e-06
0.00068664
-2.42879e-06
0.000686443
-2.83468e-06
0.000686191
-3.31813e-06
0.000685855
-3.78569e-06
0.000685463
-4.36366e-06
0.00068497
-4.89882e-06
-5.59335e-06
0.000684423
0.000666684
4.42865e-08
0.000666735
1.32989e-07
0.00066682
2.21636e-07
0.000666939
3.09339e-07
0.000667092
3.95656e-07
0.000667276
4.80176e-07
0.000667492
5.62514e-07
0.000667739
6.42311e-07
0.000668015
7.19234e-07
0.000668319
7.92977e-07
0.000668649
8.63265e-07
0.000669004
9.29846e-07
0.000669383
9.92495e-07
0.000669784
1.05101e-06
0.000670205
1.10522e-06
0.000670645
1.15495e-06
0.000671102
1.20008e-06
0.000671574
1.24046e-06
0.00067206
1.276e-06
0.000672557
1.30657e-06
0.000673065
1.3321e-06
0.000673581
1.35246e-06
0.000674104
1.36759e-06
0.000674632
1.37735e-06
0.000675163
1.3817e-06
0.000675695
1.38046e-06
0.000676227
1.37359e-06
0.000676757
1.36088e-06
0.000677283
1.3423e-06
0.000677804
1.31754e-06
0.000678316
1.28663e-06
0.000678819
1.24913e-06
0.000679311
1.20515e-06
0.000679789
1.15404e-06
0.000680251
1.09606e-06
0.000680696
1.03026e-06
0.000681121
9.57171e-07
0.000681524
8.75337e-07
0.000681903
7.85777e-07
0.000682254
6.86265e-07
0.000682576
5.78612e-07
0.000682866
4.59405e-07
0.000683121
3.31787e-07
0.000683338
1.90543e-07
0.000683514
4.14028e-08
0.00068365
-1.27218e-07
0.000683737
-3.04536e-07
0.000683772
-5.03419e-07
0.000683753
-7.09551e-07
0.000683674
-9.44223e-07
0.000683532
-1.18358e-06
0.000683323
-1.46145e-06
0.00068304
-1.73866e-06
0.000682681
-2.0694e-06
0.000682236
-2.38944e-06
0.000681703
-2.78592e-06
0.000681071
-3.15362e-06
0.000680341
-3.63302e-06
0.000679493
-4.05144e-06
-4.63548e-06
0.000678536
0.000666682
2.87204e-08
0.000666729
8.62094e-08
0.000666807
1.4364e-07
0.000666916
2.00444e-07
0.000667055
2.56344e-07
0.000667224
3.1108e-07
0.000667422
3.64407e-07
0.000667649
4.16094e-07
0.000667902
4.65928e-07
0.000668181
5.13709e-07
0.000668485
5.59255e-07
0.000668813
6.02397e-07
0.000669162
6.42984e-07
0.000669532
6.80877e-07
0.000669922
7.15953e-07
0.000670328
7.48097e-07
0.000670751
7.77212e-07
0.000671189
8.03198e-07
0.000671639
8.2598e-07
0.0006721
8.45467e-07
0.00067257
8.616e-07
0.000673048
8.74287e-07
0.000673532
8.8348e-07
0.000674021
8.89074e-07
0.000674511
8.91035e-07
0.000675003
8.89231e-07
0.000675493
8.83642e-07
0.000675979
8.74092e-07
0.000676461
8.60584e-07
0.000676936
8.42871e-07
0.000677401
8.21003e-07
0.000677856
7.94622e-07
0.000678297
7.63855e-07
0.000678723
7.2818e-07
0.000679131
6.87859e-07
0.000679519
6.42114e-07
0.000679885
5.91443e-07
0.000680226
5.34669e-07
0.000680539
4.72688e-07
0.000680821
4.03703e-07
0.000681071
3.29275e-07
0.000681284
2.4664e-07
0.000681457
1.58485e-07
0.000681587
6.06582e-08
0.000681671
-4.32567e-08
0.000681705
-1.60933e-07
0.000681684
-2.83507e-07
0.000681603
-4.22234e-07
0.000681458
-5.65014e-07
0.000681243
-7.29347e-07
0.000680955
-8.9525e-07
0.000680584
-1.09068e-06
0.000680129
-1.28284e-06
0.000679576
-1.51666e-06
0.000678925
-1.73839e-06
0.000678159
-2.02048e-06
0.00067728
-2.27479e-06
0.000676266
-2.61856e-06
0.000675121
-2.90677e-06
-3.32959e-06
0.000673815
0.000666681
1.40764e-08
0.000666725
4.221e-08
0.000666799
7.02752e-08
0.000666901
9.79975e-08
0.000667032
1.25244e-07
0.000667191
1.51889e-07
0.000667378
1.77816e-07
0.000667591
2.02914e-07
0.00066783
2.27079e-07
0.000668094
2.50214e-07
0.000668381
2.7223e-07
0.00066869
2.93045e-07
0.00066902
3.12585e-07
0.00066937
3.30778e-07
0.000669739
3.47566e-07
0.000670124
3.62889e-07
0.000670525
3.76698e-07
0.000670939
3.88943e-07
0.000671365
3.99585e-07
0.000671802
4.08576e-07
0.000672248
4.15887e-07
0.000672701
4.21468e-07
0.000673159
4.25295e-07
0.000673621
4.27314e-07
0.000674084
4.27506e-07
0.000674547
4.25802e-07
0.000675009
4.22192e-07
0.000675466
4.16582e-07
0.000675918
4.08979e-07
0.000676362
3.99246e-07
0.000676795
3.87417e-07
0.000677217
3.73297e-07
0.000677623
3.56963e-07
0.000678014
3.38127e-07
0.000678384
3.16946e-07
0.000678734
2.9299e-07
0.000679058
2.66548e-07
0.000679356
2.36968e-07
0.000679624
2.04766e-07
0.000679859
1.68945e-07
0.000680058
1.30404e-07
0.000680217
8.76135e-08
0.000680333
4.21346e-08
0.000680402
-8.45557e-09
0.000680422
-6.2808e-08
0.000680384
-1.23581e-07
0.000680288
-1.86824e-07
0.000680124
-2.58702e-07
0.000679892
-3.32374e-07
0.00067958
-4.17621e-07
0.000679188
-5.03194e-07
0.000678702
-6.04752e-07
0.000678123
-7.03831e-07
0.000677432
-8.25638e-07
0.000676633
-9.39882e-07
0.0006757
-1.08731e-06
0.000674644
-1.21816e-06
0.000673424
-1.39857e-06
0.000672063
-1.54647e-06
-1.76949e-06
0.000670503
0.000666681
-1.19201e-10
0.000666724
-4.39662e-10
0.000666795
-8.39007e-10
0.000666894
-1.31378e-09
0.000667021
-1.8602e-09
0.000667175
-2.47462e-09
0.000667356
-3.15343e-09
0.000667563
-3.89299e-09
0.000667795
-4.68958e-09
0.000668051
-5.53946e-09
0.000668329
-6.43889e-09
0.00066863
-7.38417e-09
0.000668951
-8.37159e-09
0.000669291
-9.39747e-09
0.000669649
-1.04582e-08
0.000670023
-1.15502e-08
0.000670413
-1.26701e-08
0.000670816
-1.38148e-08
0.00067123
-1.49812e-08
0.000671655
-1.61664e-08
0.000672088
-1.73676e-08
0.000672528
-1.85823e-08
0.000672973
-1.98081e-08
0.000673422
-2.10427e-08
0.000673871
-2.22844e-08
0.000674321
-2.35313e-08
0.000674768
-2.47821e-08
0.00067521
-2.60355e-08
0.000675647
-2.72905e-08
0.000676074
-2.85462e-08
0.000676492
-2.98022e-08
0.000676896
-3.10581e-08
0.000677285
-3.2314e-08
0.000677657
-3.35698e-08
0.000678009
-3.48262e-08
0.000678338
-3.6083e-08
0.000678642
-3.7341e-08
0.000678917
-3.85993e-08
0.000679162
-3.98593e-08
0.000679372
-4.11215e-08
0.000679545
-4.23941e-08
0.000679676
-4.36873e-08
0.000679763
-4.50281e-08
0.000679801
-4.64675e-08
0.000679786
-4.79814e-08
0.000679712
-4.94529e-08
0.000679576
-5.09027e-08
0.00067937
-5.23527e-08
0.000679091
-5.38457e-08
0.000678729
-5.53811e-08
0.000678283
-5.69875e-08
0.000677737
-5.86404e-08
0.000677093
-6.0374e-08
0.00067633
-6.21549e-08
0.000675454
-6.40332e-08
0.000674433
-6.59652e-08
0.000673283
-6.80137e-08
0.000671954
-7.0122e-08
0.00067048
-7.23566e-08
-7.46581e-08
0.000668785
0.000666681
-1.43148e-08
0.000666724
-4.30855e-08
0.000666795
-7.19464e-08
0.000666894
-1.00614e-07
0.000667021
-1.28948e-07
0.000667175
-1.56816e-07
0.000667356
-1.84094e-07
0.000667563
-2.10664e-07
0.000667795
-2.36414e-07
0.00066805
-2.61241e-07
0.000668329
-2.85047e-07
0.000668629
-3.07744e-07
0.00066895
-3.29248e-07
0.00066929
-3.49484e-07
0.000669648
-3.68382e-07
0.000670023
-3.85878e-07
0.000670412
-4.01916e-07
0.000670815
-4.16439e-07
0.000671229
-4.29402e-07
0.000671654
-4.40751e-07
0.000672087
-4.50452e-07
0.000672526
-4.58449e-07
0.000672971
-4.64716e-07
0.00067342
-4.69191e-07
0.000673869
-4.71853e-07
0.000674318
-4.72629e-07
0.000674765
-4.71508e-07
0.000675207
-4.68391e-07
0.000675643
-4.63284e-07
0.000676071
-4.56049e-07
0.000676488
-4.46718e-07
0.000676892
-4.35096e-07
0.000677281
-4.2126e-07
0.000677652
-4.04922e-07
0.000678003
-3.8624e-07
0.000678332
-3.64785e-07
0.000678636
-3.40848e-07
0.000678911
-3.1378e-07
0.000679155
-2.84099e-07
0.000679365
-2.50807e-07
0.000679537
-2.14798e-07
0.000679668
-1.74523e-07
0.000679754
-1.31496e-07
0.000679791
-8.33176e-08
0.000679776
-3.26115e-08
0.000679702
2.49133e-08
0.000679565
8.55446e-08
0.000679358
1.54596e-07
0.000679079
2.25288e-07
0.000678716
3.07481e-07
0.000678269
3.89859e-07
0.000677723
4.88153e-07
0.000677078
5.83793e-07
0.000676314
7.02087e-07
0.000675438
8.12596e-07
0.000674415
9.56216e-07
0.000673264
1.08298e-06
0.000671935
1.25923e-06
0.00067046
1.40263e-06
1.62108e-06
0.000668764
0.000666681
-2.89562e-08
0.000666725
-8.70746e-08
0.000666799
-1.4529e-07
0.000666901
-2.03027e-07
0.000667032
-2.6e-07
0.000667191
-3.15942e-07
0.000667378
-3.70601e-07
0.000667591
-4.2374e-07
0.00066783
-4.75137e-07
0.000668093
-5.24585e-07
0.00066838
-5.71894e-07
0.000668689
-6.1689e-07
0.000669019
-6.59413e-07
0.000669369
-6.99317e-07
0.000669737
-7.36472e-07
0.000670122
-7.70756e-07
0.000670522
-8.02065e-07
0.000670936
-8.30294e-07
0.000671362
-8.55361e-07
0.000671798
-8.7717e-07
0.000672243
-8.95656e-07
0.000672696
-9.1072e-07
0.000673153
-9.22313e-07
0.000673614
-9.30324e-07
0.000674077
-9.34716e-07
0.00067454
-9.35352e-07
0.000675001
-9.3221e-07
0.000675457
-9.25111e-07
0.000675908
-9.14058e-07
0.000676351
-8.98802e-07
0.000676784
-8.79389e-07
0.000677204
-8.55463e-07
0.00067761
-8.27152e-07
0.000677999
-7.9393e-07
0.000678369
-7.56065e-07
0.000678717
-7.12776e-07
0.00067904
-6.64564e-07
0.000679337
-6.10251e-07
0.000679604
-5.50738e-07
0.000679837
-4.84223e-07
0.000680034
-4.12275e-07
0.000680192
-3.32115e-07
0.000680307
-2.46428e-07
0.000680375
-1.5092e-07
0.000680392
-5.02584e-08
0.000680353
6.38205e-08
0.000680255
1.83895e-07
0.00068009
3.19905e-07
0.000679855
4.59787e-07
0.000679541
6.21147e-07
0.000679147
7.83916e-07
0.000678659
9.76166e-07
0.000678078
1.16496e-06
0.000677385
1.39537e-06
0.000676584
1.61344e-06
0.000675648
1.89186e-06
0.000674589
2.14213e-06
0.000673367
2.48194e-06
0.000672004
2.76568e-06
3.18421e-06
0.00067044
0.000666682
-4.45184e-08
0.000666729
-1.33838e-07
0.000666807
-2.23255e-07
0.000666916
-3.1187e-07
0.000667055
-3.99235e-07
0.000667224
-4.84933e-07
0.000667422
-5.68573e-07
0.000667648
-6.49786e-07
0.000667901
-7.28234e-07
0.00066818
-8.03603e-07
0.000668484
-8.75612e-07
0.000668811
-9.44e-07
0.00066916
-1.00854e-06
0.00066953
-1.06901e-06
0.000669919
-1.12524e-06
0.000670325
-1.17706e-06
0.000670747
-1.22433e-06
0.000671184
-1.2669e-06
0.000671633
-1.30466e-06
0.000672093
-1.33749e-06
0.000672563
-1.36531e-06
0.00067304
-1.38799e-06
0.000673523
-1.40545e-06
0.000674011
-1.41757e-06
0.0006745
-1.42428e-06
0.00067499
-1.42541e-06
0.000675479
-1.42092e-06
0.000675964
-1.41059e-06
0.000676445
-1.3944e-06
0.000676918
-1.37203e-06
0.000677382
-1.34351e-06
0.000677835
-1.30839e-06
0.000678275
-1.26679e-06
0.000678699
-1.21806e-06
0.000679105
-1.16247e-06
0.000679492
-1.09905e-06
0.000679855
-1.02835e-06
0.000680194
-9.48901e-07
0.000680505
-8.61738e-07
0.000680785
-7.64623e-07
0.000681032
-6.59378e-07
0.000681243
-5.42569e-07
0.000681414
-4.17351e-07
0.000681541
-2.78437e-07
0.000681622
-1.31312e-07
0.000681654
3.24952e-08
0.00068163
2.07743e-07
0.000681546
4.04026e-07
0.000681398
6.07344e-07
0.00068118
8.39172e-07
0.000680889
1.0755e-06
0.000680514
1.35037e-06
0.000680055
1.62432e-06
0.000679499
1.95184e-06
0.000678844
2.26832e-06
0.000678074
2.66136e-06
0.000677191
3.02512e-06
0.000676172
3.50086e-06
0.000675023
3.91487e-06
4.49504e-06
0.000673712
0.000666684
-6.15376e-08
0.000666735
-1.84994e-07
0.00066682
-3.08532e-07
0.000666939
-4.3088e-07
0.000667091
-5.51394e-07
0.000667276
-6.69479e-07
0.000667492
-7.84579e-07
0.000667738
-8.96181e-07
0.000668014
-1.00382e-06
0.000668317
-1.10707e-06
0.000668647
-1.20555e-06
0.000669002
-1.29894e-06
0.000669381
-1.38693e-06
0.000669781
-1.46927e-06
0.000670201
-1.54574e-06
0.00067064
-1.61613e-06
0.000671096
-1.68029e-06
0.000671567
-1.73806e-06
0.000672052
-1.78932e-06
0.000672549
-1.83394e-06
0.000673055
-1.87182e-06
0.00067357
-1.90284e-06
0.000674091
-1.92691e-06
0.000674618
-1.9439e-06
0.000675147
-1.95373e-06
0.000675678
-1.95622e-06
0.000676208
-1.95132e-06
0.000676737
-1.93879e-06
0.000677261
-1.91856e-06
0.000677779
-1.89033e-06
0.00067829
-1.85407e-06
0.000678791
-1.80931e-06
0.00067928
-1.75609e-06
0.000679756
-1.69377e-06
0.000680216
-1.6225e-06
0.000680658
-1.54132e-06
0.00068108
-1.45062e-06
0.00068148
-1.349e-06
0.000681856
-1.23722e-06
0.000682204
-1.11317e-06
0.000682523
-9.78328e-07
0.00068281
-8.29459e-07
0.000683062
-6.69197e-07
0.000683276
-4.92592e-07
0.000683449
-3.04262e-07
0.000683578
-9.68663e-08
0.000683662
1.24578e-07
0.000683693
3.72211e-07
0.00068367
6.31226e-07
0.000683587
9.21595e-07
0.000683441
1.22211e-06
0.000683227
1.564e-06
0.000682939
1.91215e-06
0.000682575
2.31631e-06
0.000682124
2.71877e-06
0.000681586
3.19913e-06
0.000680949
3.66285e-06
0.000680212
4.23758e-06
0.000679358
4.7684e-06
5.45961e-06
0.000678394
0.000666686
-8.06595e-08
0.000666743
-2.42497e-07
0.000666839
-4.04373e-07
0.000666973
-5.64556e-07
0.000667144
-7.22154e-07
0.00066735
-8.76346e-07
0.000667592
-1.02638e-06
0.000667868
-1.17156e-06
0.000668175
-1.31128e-06
0.000668513
-1.44502e-06
0.00066888
-1.5723e-06
0.000669274
-1.69273e-06
0.000669693
-1.80597e-06
0.000670135
-1.91175e-06
0.000670599
-2.00983e-06
0.000671083
-2.10001e-06
0.000671585
-2.18214e-06
0.000672103
-2.25608e-06
0.000672635
-2.32172e-06
0.00067318
-2.37896e-06
0.000673736
-2.4277e-06
0.000674301
-2.46786e-06
0.000674874
-2.49935e-06
0.000675452
-2.52207e-06
0.000676034
-2.53592e-06
0.000676619
-2.54078e-06
0.000677204
-2.53654e-06
0.000677788
-2.52301e-06
0.00067837
-2.50008e-06
0.000678947
-2.46748e-06
0.000679518
-2.42509e-06
0.000680081
-2.37255e-06
0.000680635
-2.30972e-06
0.000681177
-2.23613e-06
0.000681706
-2.15163e-06
0.00068222
-2.05558e-06
0.000682718
-1.9479e-06
0.000683196
-1.82767e-06
0.000683654
-1.69494e-06
0.000684089
-1.54838e-06
0.000684499
-1.38835e-06
0.000684883
-1.21286e-06
0.000685236
-1.02282e-06
0.000685559
-8.15247e-07
0.000685847
-5.92089e-07
0.000686099
-3.4895e-07
0.000686314
-9.01216e-08
0.000686489
1.96525e-07
0.000686618
5.02308e-07
0.000686703
8.37169e-07
0.000686734
1.19077e-06
0.000686716
1.58149e-06
0.000686638
1.99096e-06
0.000686506
2.44802e-06
0.000686303
2.92176e-06
0.000686044
3.45812e-06
0.000685701
4.00576e-06
0.000685301
4.6377e-06
0.0006848
5.26891e-06
6.01461e-06
0.000684245
0.000666689
-1.0272e-07
0.000666755
-3.08881e-07
0.000666866
-5.14981e-07
0.00066702
-7.18685e-07