/*--------------------------------*- C++ -*----------------------------------*\
| =========                 |                                                 |
| \\      /  F ield         | OpenFOAM: The Open Source CFD Toolbox           |
|  \\    /   O peration     | Version:  2312                                  |
|   \\  /    A nd           | Website:  www.openfoam.com                      |
|    \\/     M anipulation  |                                                 |
\*---------------------------------------------------------------------------*/
FoamFile
{
    version     2.0;
    format      ascii;
    arch        "LSB;label=32;scalar=64";
    class       volScalarField;
    location    "190000";
    object      p;
}
// * * * * * * * * * * * * * * * * * * * * * * * * * * * * * * * * * * * * * //

dimensions      [0 2 -2 0 0 0 0];

internalField   nonuniform List<scalar> 
2685
(
3.69334e-07
3.56247e-07
3.46809e-07
3.35791e-07
3.23795e-07
3.1193e-07
3.0054e-07
2.89827e-07
2.79589e-07
2.69914e-07
2.61009e-07
2.53086e-07
2.46248e-07
2.40452e-07
2.35579e-07
2.31513e-07
2.28115e-07
2.25419e-07
2.23588e-07
2.22699e-07
2.22794e-07
2.23874e-07
2.25905e-07
2.28867e-07
2.3244e-07
2.36511e-07
2.40948e-07
2.45603e-07
2.50341e-07
2.55051e-07
2.59625e-07
2.63985e-07
2.68105e-07
2.71996e-07
2.75706e-07
2.79301e-07
2.82862e-07
2.86471e-07
2.90206e-07
2.94132e-07
2.98297e-07
3.02731e-07
3.07448e-07
3.12442e-07
3.17696e-07
3.2318e-07
3.28851e-07
3.34652e-07
3.40511e-07
3.46351e-07
3.52085e-07
3.57619e-07
3.62844e-07
3.67641e-07
3.71835e-07
3.75202e-07
3.7756e-07
3.78784e-07
3.78825e-07
3.77986e-07
3.76489e-07
3.74692e-07
3.72988e-07
3.71688e-07
3.70938e-07
3.71096e-07
3.71725e-07
3.72493e-07
3.73043e-07
3.72969e-07
3.71932e-07
3.69991e-07
3.66776e-07
3.62588e-07
3.57887e-07
3.53093e-07
3.48351e-07
3.43448e-07
3.38202e-07
3.32099e-07
3.25062e-07
3.17334e-07
3.09186e-07
3.00691e-07
2.91632e-07
2.81781e-07
2.71295e-07
2.60351e-07
2.49215e-07
2.38186e-07
3.44774e-07
3.39494e-07
3.28059e-07
3.17516e-07
3.09372e-07
3.02635e-07
2.96275e-07
2.89948e-07
2.83498e-07
2.76844e-07
2.6991e-07
2.62751e-07
2.55445e-07
2.48096e-07
2.40884e-07
2.34072e-07
2.28092e-07
2.23251e-07
2.19693e-07
2.17656e-07
2.17238e-07
2.18389e-07
2.20936e-07
2.24519e-07
2.28988e-07
2.34054e-07
2.39417e-07
2.44864e-07
2.50218e-07
2.55338e-07
2.60142e-07
2.64579e-07
2.6864e-07
2.72373e-07
2.75853e-07
2.79163e-07
2.82414e-07
2.85706e-07
2.89131e-07
2.92757e-07
2.96633e-07
3.00794e-07
3.05252e-07
3.10006e-07
3.15043e-07
3.20336e-07
3.25849e-07
3.31534e-07
3.3733e-07
3.4317e-07
3.48981e-07
3.54684e-07
3.60192e-07
3.65396e-07
3.70172e-07
3.74388e-07
3.77915e-07
3.80663e-07
3.82687e-07
3.83673e-07
3.83879e-07
3.83485e-07
3.82745e-07
3.81925e-07
3.81178e-07
3.80189e-07
3.7917e-07
3.78026e-07
3.768e-07
3.7507e-07
3.72076e-07
3.66957e-07
3.60136e-07
3.52715e-07
3.4639e-07
3.42502e-07
3.41233e-07
3.41551e-07
3.41778e-07
3.39931e-07
3.35094e-07
3.27419e-07
3.17649e-07
3.06518e-07
2.94976e-07
2.83153e-07
2.71179e-07
2.59341e-07
2.47731e-07
2.36403e-07
3.38029e-07
3.35192e-07
3.26794e-07
3.17812e-07
3.09718e-07
3.02428e-07
2.95357e-07
2.87784e-07
2.79233e-07
2.69641e-07
2.59995e-07
2.51172e-07
2.43538e-07
2.37141e-07
2.31899e-07
2.27732e-07
2.24552e-07
2.22312e-07
2.21021e-07
2.20675e-07
2.21249e-07
2.22719e-07
2.25055e-07
2.2817e-07
2.31963e-07
2.36315e-07
2.41122e-07
2.46209e-07
2.5141e-07
2.56545e-07
2.6153e-07
2.66178e-07
2.70426e-07
2.74286e-07
2.77817e-07
2.81109e-07
2.84253e-07
2.87368e-07
2.90555e-07
2.93877e-07
2.97393e-07
3.01143e-07
3.05153e-07
3.09445e-07
3.14028e-07
3.18902e-07
3.2405e-07
3.29437e-07
3.35008e-07
3.40692e-07
3.46402e-07
3.52036e-07
3.57478e-07
3.62592e-07
3.67215e-07
3.71168e-07
3.74266e-07
3.76351e-07
3.77238e-07
3.77101e-07
3.7599e-07
3.7424e-07
3.72326e-07
3.70624e-07
3.70051e-07
3.70244e-07
3.71155e-07
3.72836e-07
3.74951e-07
3.77133e-07
3.78594e-07
3.78328e-07
3.75942e-07
3.71756e-07
3.66634e-07
3.61516e-07
3.56881e-07
3.52799e-07
3.47034e-07
3.38428e-07
3.27482e-07
3.16642e-07
3.0822e-07
3.02244e-07
2.9563e-07
2.87042e-07
2.75988e-07
2.6303e-07
2.49272e-07
2.35704e-07
3.10436e-07
3.09959e-07
3.05266e-07
2.98079e-07
2.90165e-07
2.82579e-07
2.75612e-07
2.68968e-07
2.62374e-07
2.5603e-07
2.50128e-07
2.44751e-07
2.39927e-07
2.35624e-07
2.31809e-07
2.28507e-07
2.25812e-07
2.23841e-07
2.22721e-07
2.22612e-07
2.23695e-07
2.25958e-07
2.2922e-07
2.33275e-07
2.37922e-07
2.4294e-07
2.48128e-07
2.53315e-07
2.5835e-07
2.6316e-07
2.67643e-07
2.71788e-07
2.75515e-07
2.78812e-07
2.81747e-07
2.84408e-07
2.8689e-07
2.89249e-07
2.91804e-07
2.94419e-07
2.97175e-07
3.00142e-07
3.03351e-07
3.06837e-07
3.10619e-07
3.14724e-07
3.19172e-07
3.23959e-07
3.29037e-07
3.34321e-07
3.39694e-07
3.45028e-07
3.50187e-07
3.55034e-07
3.59447e-07
3.63324e-07
3.66586e-07
3.69211e-07
3.7124e-07
3.72701e-07
3.73658e-07
3.74219e-07
3.74498e-07
3.74708e-07
3.74402e-07
3.74148e-07
3.73954e-07
3.73656e-07
3.73201e-07
3.7233e-07
3.70533e-07
3.67245e-07
3.62176e-07
3.55943e-07
3.5012e-07
3.46766e-07
3.4767e-07
3.51698e-07
3.56606e-07
3.58389e-07
3.54564e-07
3.45651e-07
3.33162e-07
3.1848e-07
3.01715e-07
2.83969e-07
2.6796e-07
2.54689e-07
2.42667e-07
2.30016e-07
2.86728e-07
2.85714e-07
2.83081e-07
2.77378e-07
2.69224e-07
2.60291e-07
2.52092e-07
2.45363e-07
2.39892e-07
2.35043e-07
2.30498e-07
2.26317e-07
2.22749e-07
2.20108e-07
2.18628e-07
2.18324e-07
2.19025e-07
2.20497e-07
2.22628e-07
2.25405e-07
2.28747e-07
2.32549e-07
2.36807e-07
2.41477e-07
2.46401e-07
2.51442e-07
2.56492e-07
2.61405e-07
2.66076e-07
2.70485e-07
2.74577e-07
2.78223e-07
2.81338e-07
2.83979e-07
2.8627e-07
2.88301e-07
2.9013e-07
2.91878e-07
2.93448e-07
2.9514e-07
2.96969e-07
2.98898e-07
3.00855e-07
3.03228e-07
3.06024e-07
3.09304e-07
3.13062e-07
3.17254e-07
3.21832e-07
3.26726e-07
3.31827e-07
3.36993e-07
3.42065e-07
3.46878e-07
3.51273e-07
3.55115e-07
3.583e-07
3.60762e-07
3.62475e-07
3.63495e-07
3.63929e-07
3.63925e-07
3.63654e-07
3.63272e-07
3.6291e-07
3.62693e-07
3.62664e-07
3.62799e-07
3.63025e-07
3.63236e-07
3.63299e-07
3.63077e-07
3.62385e-07
3.61066e-07
3.5919e-07
3.57335e-07
3.54881e-07
3.51776e-07
3.46765e-07
3.38212e-07
3.26277e-07
3.14108e-07
3.06821e-07
3.04655e-07
3.0417e-07
2.99358e-07
2.87028e-07
2.67822e-07
2.45251e-07
2.23531e-07
2.90589e-07
2.81264e-07
2.71857e-07
2.61703e-07
2.50678e-07
2.39392e-07
2.28805e-07
2.1956e-07
2.11817e-07
2.05599e-07
2.00944e-07
1.97838e-07
1.96179e-07
1.95905e-07
1.96917e-07
1.99007e-07
2.02036e-07
2.05981e-07
2.10835e-07
2.16483e-07
2.22691e-07
2.29247e-07
2.35918e-07
2.42432e-07
2.48681e-07
2.54646e-07
2.60186e-07
2.65248e-07
2.69944e-07
2.74236e-07
2.77919e-07
2.80932e-07
2.83413e-07
2.85505e-07
2.87235e-07
2.88598e-07
2.89645e-07
2.90487e-07
2.91223e-07
2.91875e-07
2.92445e-07
2.93054e-07
2.93877e-07
2.94634e-07
2.95546e-07
2.96888e-07
2.98968e-07
3.01966e-07
3.05887e-07
3.10587e-07
3.15834e-07
3.21363e-07
3.26919e-07
3.3227e-07
3.37218e-07
3.41609e-07
3.45333e-07
3.48337e-07
3.50627e-07
3.52267e-07
3.53356e-07
3.53997e-07
3.54288e-07
3.54329e-07
3.5421e-07
3.54018e-07
3.53816e-07
3.53626e-07
3.53413e-07
3.53054e-07
3.5241e-07
3.51239e-07
3.49371e-07
3.46807e-07
3.436e-07
3.3947e-07
3.35005e-07
3.3008e-07
3.24004e-07
3.18512e-07
3.11997e-07
3.05577e-07
2.99007e-07
2.90712e-07
2.77809e-07
2.60875e-07
2.44445e-07
2.31901e-07
2.21895e-07
2.11164e-07
2.81887e-07
2.6927e-07
2.5365e-07
2.36e-07
2.20179e-07
2.06785e-07
1.95642e-07
1.8643e-07
1.7887e-07
1.72946e-07
1.68793e-07
1.66262e-07
1.65214e-07
1.65749e-07
1.68026e-07
1.72041e-07
1.77496e-07
1.83946e-07
1.91039e-07
1.98601e-07
2.06616e-07
2.15066e-07
2.23791e-07
2.3251e-07
2.40944e-07
2.48786e-07
2.55787e-07
2.6196e-07
2.67324e-07
2.71712e-07
2.75114e-07
2.77816e-07
2.80012e-07
2.81596e-07
2.82452e-07
2.82732e-07
2.82757e-07
2.82713e-07
2.82498e-07
2.81788e-07
2.80217e-07
2.77681e-07
2.74574e-07
2.71728e-07
2.69965e-07
2.69712e-07
2.71332e-07
2.74596e-07
2.79198e-07
2.84747e-07
2.90861e-07
2.97212e-07
3.03517e-07
3.09558e-07
3.15168e-07
3.20225e-07
3.24641e-07
3.28374e-07
3.31424e-07
3.33829e-07
3.35652e-07
3.36975e-07
3.37878e-07
3.38408e-07
3.38581e-07
3.38408e-07
3.37938e-07
3.3721e-07
3.3625e-07
3.3506e-07
3.33604e-07
3.31818e-07
3.29564e-07
3.26684e-07
3.23061e-07
3.18568e-07
3.13081e-07
3.06506e-07
2.99051e-07
2.89028e-07
2.77926e-07
2.65797e-07
2.52957e-07
2.40113e-07
2.27975e-07
2.17356e-07
2.08239e-07
1.99308e-07
1.88794e-07
1.77074e-07
2.47049e-07
2.27066e-07
2.04847e-07
1.81778e-07
1.59132e-07
1.39348e-07
1.23861e-07
1.13052e-07
1.06712e-07
1.04567e-07
1.05912e-07
1.09886e-07
1.15788e-07
1.23092e-07
1.31175e-07
1.39518e-07
1.47938e-07
1.56534e-07
1.65438e-07
1.74654e-07
1.84059e-07
1.93603e-07
2.03265e-07
2.12987e-07
2.22672e-07
2.32026e-07
2.40639e-07
2.48275e-07
2.54711e-07
2.59667e-07
2.63269e-07
2.65945e-07
2.67807e-07
2.68694e-07
2.68722e-07
2.68309e-07
2.67617e-07
2.66209e-07
2.63213e-07
2.58047e-07
2.51081e-07
2.43491e-07
2.36648e-07
2.31598e-07
2.28941e-07
2.28785e-07
2.31175e-07
2.35601e-07
2.41538e-07
2.48455e-07
2.55866e-07
2.63364e-07
2.70669e-07
2.77599e-07
2.84046e-07
2.89947e-07
2.95257e-07
2.99946e-07
3.04019e-07
3.07517e-07
3.10498e-07
3.13009e-07
3.15075e-07
3.16696e-07
3.17859e-07
3.18518e-07
3.18583e-07
3.17962e-07
3.16581e-07
3.14375e-07
3.11273e-07
3.07185e-07
3.02008e-07
2.95652e-07
2.88054e-07
2.79238e-07
2.69291e-07
2.58234e-07
2.46069e-07
2.3284e-07
2.19093e-07
2.05097e-07
1.91565e-07
1.78895e-07
1.67066e-07
1.56115e-07
1.46211e-07
1.37697e-07
1.31159e-07
1.27074e-07
2.2963e-07
1.94344e-07
1.58521e-07
1.23063e-07
8.96154e-08
6.18701e-08
3.45741e-08
1.65487e-08
6.72061e-09
3.65511e-09
6.30249e-09
1.39851e-08
2.61736e-08
4.20826e-08
6.04425e-08
7.9759e-08
9.87768e-08
1.16454e-07
1.32102e-07
1.45624e-07
1.57458e-07
1.68252e-07
1.7848e-07
1.88366e-07
1.98054e-07
2.07438e-07
2.16203e-07
2.24074e-07
2.30796e-07
2.3625e-07
2.40585e-07
2.43782e-07
2.45499e-07
2.45702e-07
2.44822e-07
2.4305e-07
2.39797e-07
2.34088e-07
2.2547e-07
2.14453e-07
2.02348e-07
1.90783e-07
1.81177e-07
1.74437e-07
1.71019e-07
1.71217e-07
1.74043e-07
1.79514e-07
1.87164e-07
1.96416e-07
2.06627e-07
2.17164e-07
2.27507e-07
2.373e-07
2.46343e-07
2.54564e-07
2.61974e-07
2.68618e-07
2.74523e-07
2.79689e-07
2.84106e-07
2.87763e-07
2.90647e-07
2.92734e-07
2.93984e-07
2.94333e-07
2.93696e-07
2.91973e-07
2.89039e-07
2.84737e-07
2.78886e-07
2.71308e-07
2.61856e-07
2.50449e-07
2.37131e-07
2.22073e-07
2.05558e-07
1.87994e-07
1.69874e-07
1.51704e-07
1.33838e-07
1.16493e-07
1.00733e-07
8.64804e-08
7.44948e-08
6.48482e-08
5.78119e-08
5.3776e-08
5.29904e-08
5.55736e-08
2.25927e-07
1.74796e-07
1.22416e-07
7.0323e-08
2.03518e-08
-2.59592e-08
-5.92664e-08
-8.50277e-08
-1.02086e-07
-1.09985e-07
-1.09306e-07
-1.00831e-07
-8.53078e-08
-6.36953e-08
-3.74097e-08
-8.16582e-09
2.22128e-08
5.18536e-08
7.90174e-08
1.0244e-07
1.21682e-07
1.371e-07
1.49469e-07
1.59798e-07
1.69058e-07
1.77744e-07
1.85915e-07
1.93443e-07
2.00079e-07
2.0562e-07
2.09852e-07
2.12309e-07
2.12675e-07
2.1127e-07
2.08512e-07
2.04001e-07
1.96554e-07
1.85215e-07
1.70165e-07
1.52775e-07
1.34981e-07
1.18611e-07
1.05037e-07
9.51517e-08
8.95402e-08
8.85794e-08
9.17393e-08
9.90147e-08
1.09897e-07
1.23584e-07
1.39079e-07
1.55327e-07
1.7136e-07
1.86447e-07
2.00159e-07
2.12359e-07
2.23101e-07
2.3252e-07
2.40744e-07
2.47838e-07
2.53776e-07
2.58459e-07
2.61755e-07
2.63556e-07
2.63818e-07
2.62556e-07
2.59791e-07
2.55501e-07
2.49565e-07
2.41754e-07
2.31771e-07
2.19331e-07
2.04244e-07
1.86474e-07
1.66177e-07
1.43725e-07
1.19669e-07
9.46739e-08
6.94687e-08
4.48154e-08
2.15681e-08
3.73583e-10
-1.8562e-08
-3.33249e-08
-4.42571e-08
-5.08061e-08
-5.30461e-08
-5.10674e-08
-4.4991e-08
-3.49273e-08
2.08983e-07
1.50542e-07
8.97801e-08
2.85159e-08
-3.08891e-08
-8.54889e-08
-1.32126e-07
-1.69433e-07
-1.95577e-07
-2.12022e-07
-2.17251e-07
-2.12044e-07
-1.97443e-07
-1.74638e-07
-1.44877e-07
-1.09634e-07
-7.09875e-08
-3.13877e-08
6.88702e-09
4.18376e-08
7.1823e-08
9.59532e-08
1.14428e-07
1.284e-07
1.39232e-07
1.47955e-07
1.55238e-07
1.61374e-07
1.66343e-07
1.70031e-07
1.72187e-07
1.72411e-07
1.70559e-07
1.66799e-07
1.60925e-07
1.51925e-07
1.38525e-07
1.20258e-07
9.80319e-08
7.37817e-08
4.97339e-08
2.78547e-08
9.66492e-09
-3.72756e-09
-1.15892e-08
-1.35797e-08
-9.59424e-09
1.16755e-10
1.49538e-08
3.39624e-08
5.58921e-08
7.93102e-08
1.0277e-07
1.25011e-07
1.45132e-07
1.62676e-07
1.77598e-07
1.90128e-07
2.00589e-07
2.09239e-07
2.16191e-07
2.21406e-07
2.24757e-07
2.26127e-07
2.25472e-07
2.22803e-07
2.18117e-07
2.11305e-07
2.021e-07
1.90104e-07
1.74884e-07
1.56111e-07
1.33681e-07
1.07764e-07
7.88209e-08
4.75841e-08
1.49878e-08
-1.79341e-08
-5.01297e-08
-8.05773e-08
-1.08276e-07
-1.32342e-07
-1.52202e-07
-1.67211e-07
-1.76817e-07
-1.80367e-07
-1.77957e-07
-1.69877e-07
-1.56494e-07
-1.38319e-07
1.46594e-07
9.78707e-08
4.36866e-08
-1.47798e-08
-7.49931e-08
-1.33612e-07
-1.87138e-07
-2.32663e-07
-2.684e-07
-2.91418e-07
-3.02669e-07
-3.02359e-07
-2.91196e-07
-2.70215e-07
-2.4056e-07
-2.03772e-07
-1.61795e-07
-1.16642e-07
-7.04564e-08
-2.58851e-08
1.42653e-08
4.79031e-08
7.42506e-08
9.3743e-08
1.07464e-07
1.16796e-07
1.2321e-07
1.27723e-07
1.30657e-07
1.31968e-07
1.3145e-07
1.28837e-07
1.23983e-07
1.16707e-07
1.06322e-07
9.16025e-08
7.15388e-08
4.62465e-08
1.71793e-08
-1.33899e-08
-4.30706e-08
-6.97975e-08
-9.19641e-08
-1.08385e-07
-1.18269e-07
-1.21195e-07
-1.16931e-07
-1.05557e-07
-8.75782e-08
-6.39366e-08
-3.59854e-08
-5.41148e-09
2.59226e-08
5.6209e-08
8.3947e-08
1.0814e-07
1.28389e-07
1.44832e-07
1.57929e-07
1.68212e-07
1.7606e-07
1.81609e-07
1.84807e-07
1.85542e-07
1.83758e-07
1.79457e-07
1.72585e-07
1.62922e-07
1.50038e-07
1.33372e-07
1.12413e-07
8.68802e-08
5.68559e-08
2.2818e-08
-1.44191e-08
-5.37885e-08
-9.40568e-08
-1.33934e-07
-1.72164e-07
-2.07554e-07
-2.39003e-07
-2.65494e-07
-2.86296e-07
-3.00904e-07
-3.08638e-07
-3.09104e-07
-3.02323e-07
-2.88549e-07
-2.68319e-07
-2.42471e-07
3.87459e-08
1.25728e-08
-2.20539e-08
-6.48928e-08
-1.14097e-07
-1.66594e-07
-2.1852e-07
-2.65869e-07
-3.05245e-07
-3.3436e-07
-3.52075e-07
-3.57627e-07
-3.51509e-07
-3.34687e-07
-3.08219e-07
-2.73228e-07
-2.31361e-07
-1.84734e-07
-1.35695e-07
-8.68277e-08
-4.09638e-08
-8.98737e-10
3.13943e-08
5.54725e-08
7.23064e-08
8.36348e-08
9.11511e-08
9.58404e-08
9.79912e-08
9.76105e-08
9.46455e-08
8.9055e-08
8.07761e-08
6.94297e-08
5.40505e-08
3.3396e-08
6.80318e-09
-2.51237e-08
-6.05393e-08
-9.69456e-08
-1.31821e-07
-1.63013e-07
-1.88861e-07
-2.08176e-07
-2.20089e-07
-2.23989e-07
-2.1959e-07
-2.06854e-07
-1.86226e-07
-1.58626e-07
-1.25458e-07
-8.85789e-08
-5.01706e-08
-1.24824e-08
2.24844e-08
5.32346e-08
7.89509e-08
9.9541e-08
1.15491e-07
1.27546e-07
1.36352e-07
1.42239e-07
1.45233e-07
1.45239e-07
1.42208e-07
1.36155e-07
1.2701e-07
1.14461e-07
9.79319e-08
7.67443e-08
5.03878e-08
1.87456e-08
-1.78354e-08
-5.85678e-08
-1.02317e-07
-1.47753e-07
-1.93474e-07
-2.38084e-07
-2.80241e-07
-3.18705e-07
-3.52327e-07
-3.80124e-07
-4.01251e-07
-4.15124e-07
-4.21045e-07
-4.18734e-07
-4.08139e-07
-3.89505e-07
-3.63559e-07
-3.31347e-07
-5.87476e-08
-6.65951e-08
-8.21475e-08
-1.06342e-07
-1.39256e-07
-1.7926e-07
-2.23219e-07
-2.67036e-07
-3.06568e-07
-3.38387e-07
-3.60231e-07
-3.71075e-07
-3.70638e-07
-3.59331e-07
-3.37842e-07
-3.07316e-07
-2.69319e-07
-2.25562e-07
-1.7788e-07
-1.2856e-07
-8.05778e-08
-3.72301e-08
-1.08273e-09
2.69179e-08
4.72266e-08
6.10265e-08
6.96527e-08
7.41365e-08
7.50631e-08
7.27021e-08
6.7173e-08
5.85404e-08
4.67282e-08
3.12231e-08
1.09472e-08
-1.52578e-08
-4.77718e-08
-8.56619e-08
-1.26819e-07
-1.68547e-07
-2.08186e-07
-2.4352e-07
-2.72889e-07
-2.95029e-07
-3.08939e-07
-3.13934e-07
-3.09696e-07
-2.96172e-07
-2.73737e-07
-2.43192e-07
-2.05815e-07
-1.63478e-07
-1.18655e-07
-7.41329e-08
-3.24966e-08
4.29232e-09
3.50732e-08
5.9535e-08
7.81422e-08
9.18369e-08
1.01562e-07
1.07878e-07
1.10915e-07
1.10602e-07
1.06912e-07
9.98626e-08
8.93166e-08
7.47992e-08
5.55488e-08
3.08106e-08
1.64534e-10
-3.62548e-08
-7.77607e-08
-1.23268e-07
-1.71416e-07
-2.20717e-07
-2.69708e-07
-3.17014e-07
-3.61333e-07
-4.01393e-07
-4.35996e-07
-4.64067e-07
-4.84765e-07
-4.97461e-07
-5.01322e-07
-4.96355e-07
-4.82578e-07
-4.60314e-07
-4.30267e-07
-3.93291e-07
-1.0127e-07
-9.50455e-08
-9.85839e-08
-1.10677e-07
-1.31477e-07
-1.60467e-07
-1.95752e-07
-2.34062e-07
-2.71383e-07
-3.03915e-07
-3.2867e-07
-3.43745e-07
-3.48393e-07
-3.42328e-07
-3.26295e-07
-3.01215e-07
-2.68331e-07
-2.29098e-07
-1.85173e-07
-1.38624e-07
-9.21567e-08
-4.88954e-08
-1.15736e-08
1.81374e-08
3.97577e-08
5.3865e-08
6.17426e-08
6.47691e-08
6.39258e-08
5.96643e-08
5.2064e-08
4.10577e-08
2.64186e-08
7.49251e-09
-1.68349e-08
-4.75953e-08
-8.49468e-08
-1.27735e-07
-1.73672e-07
-2.19947e-07
-2.63844e-07
-3.03107e-07
-3.35962e-07
-3.60988e-07
-3.77045e-07
-3.83438e-07
-3.79624e-07
-3.65635e-07
-3.41801e-07
-3.08863e-07
-2.68032e-07
-2.21164e-07
-1.7093e-07
-1.20615e-07
-7.34189e-08
-3.17228e-08
3.14543e-09
3.08084e-08
5.17148e-08
6.69111e-08
7.75573e-08
8.44279e-08
8.77619e-08
8.75124e-08
8.36622e-08
7.62337e-08
6.50291e-08
4.94505e-08
2.86235e-08
1.78976e-09
-3.13221e-08
-7.03561e-08
-1.14396e-07
-1.62166e-07
-2.12207e-07
-2.62998e-07
-3.13068e-07
-3.61054e-07
-4.05711e-07
-4.45817e-07
-4.80132e-07
-5.07484e-07
-5.27005e-07
-5.38271e-07
-5.40413e-07
-5.33471e-07
-5.17376e-07
-4.92408e-07
-4.59147e-07
-4.18262e-07
-1.03227e-07
-8.46031e-08
-7.67167e-08
-7.78888e-08
-8.83854e-08
-1.0798e-07
-1.35247e-07
-1.67639e-07
-2.016e-07
-2.33322e-07
-2.59516e-07
-2.77738e-07
-2.8655e-07
-2.85769e-07
-2.75147e-07
-2.55491e-07
-2.27931e-07
-1.93887e-07
-1.55004e-07
-1.13355e-07
-7.15608e-08
-3.24779e-08
1.33806e-09
2.81265e-08
4.73246e-08
5.95818e-08
6.61949e-08
6.83394e-08
6.66841e-08
6.14615e-08
5.26891e-08
4.02785e-08
2.38967e-08
2.75159e-09
-2.4292e-08
-5.81414e-08
-9.87928e-08
-1.44984e-07
-1.94393e-07
-2.44208e-07
-2.91674e-07
-3.34403e-07
-3.70453e-07
-3.98223e-07
-4.16452e-07
-4.24395e-07
-4.21138e-07
-4.06834e-07
-3.81768e-07
-3.46744e-07
-3.03149e-07
-2.53014e-07
-1.99161e-07
-1.4515e-07
-9.46018e-08
-5.01811e-08
-1.31493e-08
1.63258e-08
3.8803e-08
5.53442e-08
6.71196e-08
7.4926e-08
7.90305e-08
7.94344e-08
7.61729e-08
6.92731e-08
5.84555e-08
4.30018e-08
2.20019e-08
-5.20475e-09
-3.86932e-08
-7.79104e-08
-1.21834e-07
-1.69159e-07
-2.18466e-07
-2.68331e-07
-3.1738e-07
-3.64296e-07
-4.07812e-07
-4.46665e-07
-4.79576e-07
-5.0534e-07
-5.23078e-07
-5.32408e-07
-5.32647e-07
-5.2364e-07
-5.05391e-07
-4.78135e-07
-4.42263e-07
-6.96187e-08
-4.66199e-08
-3.27695e-08
-2.5633e-08
-2.55479e-08
-3.42103e-08
-5.16381e-08
-7.60788e-08
-1.04533e-07
-1.33327e-07
-1.58983e-07
-1.78762e-07
-1.90733e-07
-1.93984e-07
-1.88809e-07
-1.74882e-07
-1.53303e-07
-1.25369e-07
-9.28075e-08
-5.7739e-08
-2.25685e-08
1.02037e-08
3.82861e-08
6.01186e-08
7.53905e-08
8.48846e-08
8.96908e-08
9.05392e-08
8.77112e-08
8.12654e-08
7.12228e-08
5.75461e-08
3.99223e-08
1.75692e-08
-1.0618e-08
-4.55276e-08
-8.72064e-08
-1.34522e-07
-1.85302e-07
-2.36806e-07
-2.86264e-07
-3.31238e-07
-3.6965e-07
-3.99676e-07
-4.1988e-07
-4.2934e-07
-4.2709e-07
-4.13018e-07
-3.87406e-07
-3.51187e-07
-3.0594e-07
-2.5396e-07
-1.98255e-07
-1.42494e-07
-9.05134e-08
-4.52304e-08
-7.86373e-09
2.17231e-08
4.43528e-08
6.11896e-08
7.34221e-08
8.18345e-08
8.66817e-08
8.80134e-08
8.59373e-08
8.04387e-08
7.10516e-08
5.68711e-08
3.69779e-08
1.09073e-08
-2.1163e-08
-5.8502e-08
-1.00027e-07
-1.44504e-07
-1.90658e-07
-2.3722e-07
-2.82951e-07
-3.2663e-07
-3.67005e-07
-4.0281e-07
-4.32796e-07
-4.55775e-07
-4.70879e-07
-4.77725e-07
-4.75455e-07
-4.63952e-07
-4.43234e-07
-4.13557e-07
-3.75403e-07
-1.69884e-08
7.27196e-09
2.2927e-08
3.36287e-08
4.06006e-08
4.221e-08
3.66005e-08
2.36218e-08
4.78857e-09
-1.70702e-08
-3.86096e-08
-5.6876e-08
-6.96815e-08
-7.5657e-08
-7.46439e-08
-6.57851e-08
-5.0346e-08
-2.93495e-08
-4.20531e-09
2.32485e-08
5.08362e-08
7.6206e-08
9.72681e-08
1.12878e-07
1.23124e-07
1.28816e-07
1.30739e-07
1.29315e-07
1.2471e-07
1.17006e-07
1.06243e-07
9.23061e-08
7.47355e-08
5.26381e-08
2.49028e-08
-9.31569e-09
-5.00633e-08
-9.63183e-08
-1.46132e-07
-1.97021e-07
-2.46387e-07
-2.9179e-07
-3.31058e-07
-3.62311e-07
-3.84005e-07
-3.94952e-07
-3.9395e-07
-3.80782e-07
-3.55758e-07
-3.19796e-07
-2.74518e-07
-2.22496e-07
-1.67101e-07
-1.12105e-07
-6.12325e-08
-1.72903e-08
1.8669e-08
4.70518e-08
6.88556e-08
8.52389e-08
9.73605e-08
1.06023e-07
1.11454e-07
1.13612e-07
1.12556e-07
1.08264e-07
1.00268e-07
8.76914e-08
6.97244e-08
4.60735e-08
1.70732e-08
-1.64842e-08
-5.35729e-08
-9.30844e-08
-1.33912e-07
-1.74967e-07
-2.15154e-07
-2.53342e-07
-2.88352e-07
-3.18975e-07
-3.44029e-07
-3.62546e-07
-3.7405e-07
-3.76561e-07
-3.71036e-07
-3.57059e-07
-3.34721e-07
-3.04371e-07
-2.66682e-07
3.64402e-08
6.01094e-08
7.73021e-08
9.01711e-08
1.00808e-07
1.09322e-07
1.14046e-07
1.13307e-07
1.06773e-07
9.57083e-08
8.24978e-08
6.98462e-08
6.00944e-08
5.51022e-08
5.62388e-08
6.16893e-08
7.21922e-08
8.67649e-08
1.04191e-07
1.22939e-07
1.41232e-07
1.57292e-07
1.69783e-07
1.782e-07
1.82791e-07
1.84092e-07
1.82538e-07
1.78434e-07
1.72078e-07
1.6371e-07
1.53299e-07
1.40378e-07
1.24089e-07
1.034e-07
7.74011e-08
4.55794e-08
8.03233e-09
-3.44001e-08
-8.02135e-08
-1.27478e-07
-1.74053e-07
-2.17727e-07
-2.56382e-07
-2.87958e-07
-3.10713e-07
-3.23029e-07
-3.23534e-07
-3.11752e-07
-2.88098e-07
-2.53742e-07
-2.10422e-07
-1.60847e-07
-1.08664e-07
-5.7726e-08
-1.141e-08
2.80187e-08
5.99898e-08
8.53066e-08
1.0518e-07
1.20671e-07
1.32643e-07
1.41638e-07
1.47729e-07
1.50794e-07
1.50847e-07
1.47872e-07
1.41434e-07
1.30754e-07
1.15201e-07
9.46805e-08
6.96411e-08
4.08624e-08
9.27331e-09
-2.41536e-08
-5.84584e-08
-9.27063e-08
-1.25954e-07
-1.57214e-07
-1.85457e-07
-2.09634e-07
-2.28741e-07
-2.41939e-07
-2.48272e-07
-2.47694e-07
-2.39928e-07
-2.25022e-07
-2.03277e-07
-1.7523e-07
-1.41695e-07
8.82772e-08
1.09906e-07
1.27299e-07
1.41386e-07
1.53341e-07
1.64407e-07
1.7466e-07
1.83038e-07
1.87652e-07
1.87424e-07
1.83864e-07
1.79006e-07
1.74196e-07
1.71042e-07
1.71189e-07
1.75528e-07
1.83003e-07
1.93432e-07
2.05587e-07
2.1808e-07
2.29519e-07
2.38747e-07
2.45081e-07
2.48383e-07
2.48798e-07
2.46505e-07
2.41695e-07
2.34713e-07
2.26059e-07
2.16127e-07
2.04909e-07
1.91942e-07
1.76506e-07
1.5788e-07
1.35477e-07
1.08886e-07
7.79464e-08
4.28466e-08
4.24298e-09
-3.66619e-08
-7.81978e-08
-1.1836e-07
-1.54875e-07
-1.85677e-07
-2.09116e-07
-2.21732e-07
-2.23409e-07
-2.13318e-07
-1.91925e-07
-1.60538e-07
-1.21176e-07
-7.67577e-08
-3.09868e-08
1.25797e-08
5.13424e-08
8.39433e-08
1.10335e-07
1.31461e-07
1.48516e-07
1.62417e-07
1.73712e-07
1.82574e-07
1.88869e-07
1.92485e-07
1.93487e-07
1.91784e-07
1.86823e-07
1.77868e-07
1.64547e-07
1.47088e-07
1.26128e-07
1.02434e-07
7.67695e-08
4.98888e-08
2.25452e-08
-4.50558e-09
-3.0497e-08
-5.46333e-08
-7.60857e-08
-9.40265e-08
-1.07718e-07
-1.16607e-07
-1.19517e-07
-1.17326e-07
-1.09657e-07
-9.65819e-08
-7.83971e-08
-5.563e-08
-2.90375e-08
1.26802e-07
1.48495e-07
1.66824e-07
1.83037e-07
1.9752e-07
2.09869e-07
2.20364e-07
2.30136e-07
2.40073e-07
2.50295e-07
2.58563e-07
2.62118e-07
2.61747e-07
2.60563e-07
2.61137e-07
2.63996e-07
2.68865e-07
2.75401e-07
2.82891e-07
2.90656e-07
2.97733e-07
3.03289e-07
3.06805e-07
3.08007e-07
3.06737e-07
3.02911e-07
2.9661e-07
2.88178e-07
2.78138e-07
2.66983e-07
2.54985e-07
2.42167e-07
2.28358e-07
2.13233e-07
1.96257e-07
1.76708e-07
1.53802e-07
1.26986e-07
9.62525e-08
6.22786e-08
2.64711e-08
-9.13751e-09
-4.22628e-08
-7.07475e-08
-9.22225e-08
-1.05122e-07
-1.07436e-07
-9.89705e-08
-8.04411e-08
-5.33989e-08
-2.00954e-08
1.66015e-08
5.34082e-08
8.74599e-08
1.17091e-07
1.419e-07
1.62343e-07
1.79257e-07
1.93447e-07
2.05457e-07
2.155e-07
2.23446e-07
2.29009e-07
2.32168e-07
2.33157e-07
2.31889e-07
2.277e-07
2.19822e-07
2.08037e-07
1.92818e-07
1.75019e-07
1.55485e-07
1.34898e-07
1.13821e-07
9.27826e-08
7.23051e-08
5.29299e-08
3.52191e-08
1.97554e-08
7.14253e-09
-1.90861e-09
-7.63191e-09
-9.62269e-09
-7.56544e-09
-1.43917e-09
8.61446e-09
2.22855e-08
3.91131e-08
5.85199e-08
1.57912e-07
1.77885e-07
1.9561e-07
2.11615e-07
2.26774e-07
2.41308e-07
2.54182e-07
2.64846e-07
2.74292e-07
2.83666e-07
2.93762e-07
3.04674e-07
3.15083e-07
3.23155e-07
3.28013e-07
3.31191e-07
3.33423e-07
3.36066e-07
3.39601e-07
3.43591e-07
3.47381e-07
3.50367e-07
3.52119e-07
3.5234e-07
3.50806e-07
3.47353e-07
3.41948e-07
3.3476e-07
3.26164e-07
3.16662e-07
3.06747e-07
2.96755e-07
2.86725e-07
2.76296e-07
2.64699e-07
2.50854e-07
2.33682e-07
2.12466e-07
1.87077e-07
1.58113e-07
1.26978e-07
9.5678e-08
6.63188e-08
4.08108e-08
2.21379e-08
1.1599e-08
1.01133e-08
1.74641e-08
3.27455e-08
5.41441e-08
7.92598e-08
1.05653e-07
1.3124e-07
1.54555e-07
1.74897e-07
1.92342e-07
2.07404e-07
2.20553e-07
2.32014e-07
2.41882e-07
2.50131e-07
2.56474e-07
2.60576e-07
2.62595e-07
2.63016e-07
2.61832e-07
2.58276e-07
2.51473e-07
2.41172e-07
2.27905e-07
2.12637e-07
1.96302e-07
1.7957e-07
1.62884e-07
1.46592e-07
1.3103e-07
1.16539e-07
1.03466e-07
9.21619e-08
8.29562e-08
7.6054e-08
7.23283e-08
7.13185e-08
7.30941e-08
7.76547e-08
8.48969e-08
9.46268e-08
1.06566e-07
1.20362e-07
1.80051e-07
1.98226e-07
2.14663e-07
2.30252e-07
2.45124e-07
2.58969e-07
2.71612e-07
2.83312e-07
2.94321e-07
3.04657e-07
3.14411e-07
3.23407e-07
3.3156e-07
3.39841e-07
3.49489e-07
3.58619e-07
3.67166e-07
3.7386e-07
3.7867e-07
3.81845e-07
3.83846e-07
3.84997e-07
3.85377e-07
3.84911e-07
3.83482e-07
3.81015e-07
3.77528e-07
3.73158e-07
3.68147e-07
3.62774e-07
3.57248e-07
3.51597e-07
3.45574e-07
3.38624e-07
3.29935e-07
3.18587e-07
3.0379e-07
2.85162e-07
2.62904e-07
2.37875e-07
2.11328e-07
1.84681e-07
1.61254e-07
1.4171e-07
1.27514e-07
1.19568e-07
1.18017e-07
1.22539e-07
1.32327e-07
1.46062e-07
1.61927e-07
1.78041e-07
1.93201e-07
2.07039e-07
2.1958e-07
2.31036e-07
2.41705e-07
2.51564e-07
2.60234e-07
2.6752e-07
2.73463e-07
2.7778e-07
2.8005e-07
2.80542e-07
2.8003e-07
2.78692e-07
2.75763e-07
2.70266e-07
2.61778e-07
2.5064e-07
2.37712e-07
2.23971e-07
2.10203e-07
1.96895e-07
1.84312e-07
1.72618e-07
1.61959e-07
1.525e-07
1.44461e-07
1.38151e-07
1.33324e-07
1.30486e-07
1.29644e-07
1.30823e-07
1.33991e-07
1.39061e-07
1.45892e-07
1.54299e-07
1.64049e-07
1.92662e-07
2.09133e-07
2.24389e-07
2.38882e-07
2.5282e-07
2.66243e-07
2.79015e-07
2.90922e-07
3.01946e-07
3.12381e-07
3.22514e-07
3.32323e-07
3.41814e-07
3.51445e-07
3.60196e-07
3.67945e-07
3.74846e-07
3.81266e-07
3.87301e-07
3.92772e-07
3.9741e-07
4.01013e-07
4.03506e-07
4.04934e-07
4.05415e-07
4.05109e-07
4.04185e-07
4.02806e-07
4.01099e-07
3.99123e-07
3.96816e-07
3.93951e-07
3.90133e-07
3.84849e-07
3.7754e-07
3.67713e-07
3.5507e-07
3.3963e-07
3.21947e-07
3.0274e-07
2.82641e-07
2.63397e-07
2.44884e-07
2.2983e-07
2.18791e-07
2.11866e-07
2.0872e-07
2.08642e-07
2.10835e-07
2.14724e-07
2.20028e-07
2.26463e-07
2.33708e-07
2.41454e-07
2.49187e-07
2.56439e-07
2.63221e-07
2.69605e-07
2.75183e-07
2.79614e-07
2.83031e-07
2.8539e-07
2.86307e-07
2.85872e-07
2.84767e-07
2.83357e-07
2.81177e-07
2.77357e-07
2.71301e-07
2.63011e-07
2.52968e-07
2.41913e-07
2.30604e-07
2.19649e-07
2.09453e-07
2.00249e-07
1.92167e-07
1.85284e-07
1.7965e-07
1.75307e-07
1.72305e-07
1.70672e-07
1.70422e-07
1.71553e-07
1.74027e-07
1.77783e-07
1.82727e-07
1.88735e-07
1.95659e-07
2.00503e-07
2.15621e-07
2.29831e-07
2.434e-07
2.56368e-07
2.68661e-07
2.80274e-07
2.91318e-07
3.01912e-07
3.1215e-07
3.22113e-07
3.31879e-07
3.4143e-07
3.50478e-07
3.593e-07
3.67783e-07
3.75919e-07
3.83675e-07
3.90933e-07
3.97518e-07
4.03315e-07
4.08296e-07
4.12482e-07
4.15914e-07
4.18649e-07
4.20761e-07
4.22334e-07
4.23431e-07
4.24071e-07
4.24215e-07
4.23757e-07
4.22513e-07
4.20233e-07
4.16629e-07
4.11401e-07
4.04272e-07
3.95049e-07
3.83749e-07
3.7084e-07
3.56588e-07
3.41982e-07
3.27244e-07
3.12842e-07
2.99198e-07
2.86841e-07
2.7635e-07
2.68115e-07
2.62249e-07
2.58593e-07
2.56755e-07
2.56156e-07
2.56195e-07
2.5677e-07
2.58443e-07
2.61539e-07
2.65654e-07
2.70065e-07
2.74101e-07
2.77227e-07
2.79408e-07
2.8107e-07
2.82344e-07
2.82894e-07
2.82566e-07
2.81669e-07
2.80441e-07
2.7879e-07
2.7633e-07
2.72411e-07
2.67015e-07
2.60223e-07
2.52369e-07
2.43963e-07
2.35519e-07
2.27474e-07
2.20135e-07
2.137e-07
2.0829e-07
2.0395e-07
2.00578e-07
1.9844e-07
1.9747e-07
1.97624e-07
1.98825e-07
2.00995e-07
2.0405e-07
2.07904e-07
2.12467e-07
2.17642e-07
2.03559e-07
2.17236e-07
2.30572e-07
2.43521e-07
2.5593e-07
2.67684e-07
2.78787e-07
2.89357e-07
2.99545e-07
3.09461e-07
3.19186e-07
3.28854e-07
3.38371e-07
3.47751e-07
3.5694e-07
3.65849e-07
3.7442e-07
3.8263e-07
3.90458e-07
3.97866e-07
4.04816e-07
4.11278e-07
4.17223e-07
4.22627e-07
4.27482e-07
4.31792e-07
4.35571e-07
4.3881e-07
4.4149e-07
4.43564e-07
4.44879e-07
4.45137e-07
4.44141e-07
4.41816e-07
4.38135e-07
4.32736e-07
4.25948e-07
4.17375e-07
4.06787e-07
3.94644e-07
3.81487e-07
3.67936e-07
3.54355e-07
3.41047e-07
3.28122e-07
3.15482e-07
3.03041e-07
2.9127e-07
2.81224e-07
2.73998e-07
2.70011e-07
2.68417e-07
2.67835e-07
2.67412e-07
2.67026e-07
2.66839e-07
2.67283e-07
2.68597e-07
2.70496e-07
2.72472e-07
2.74309e-07
2.75881e-07
2.76938e-07
2.77286e-07
2.76966e-07
2.76178e-07
2.7488e-07
2.72852e-07
2.70132e-07
2.66478e-07
2.62042e-07
2.56897e-07
2.51315e-07
2.45527e-07
2.3979e-07
2.34363e-07
2.29473e-07
2.25287e-07
2.21918e-07
2.19436e-07
2.17749e-07
2.16946e-07
2.16993e-07
2.17839e-07
2.19437e-07
2.21724e-07
2.24632e-07
2.28089e-07
2.3202e-07
2.0334e-07
2.14758e-07
2.26374e-07
2.3826e-07
2.5015e-07
2.6172e-07
2.7279e-07
2.83416e-07
2.93729e-07
3.03878e-07
3.13869e-07
3.23701e-07
3.33468e-07
3.4306e-07
3.52461e-07
3.61638e-07
3.70546e-07
3.79151e-07
3.87473e-07
3.95528e-07
4.03309e-07
4.10786e-07
4.17927e-07
4.24701e-07
4.31072e-07
4.37018e-07
4.42484e-07
4.47376e-07
4.51658e-07
4.5534e-07
4.58354e-07
4.60414e-07
4.61468e-07
4.60932e-07
4.58915e-07
4.55497e-07
4.50128e-07
4.43145e-07
4.34312e-07
4.23225e-07
4.09391e-07
3.93419e-07
3.76678e-07
3.60522e-07
3.45839e-07
3.32898e-07
3.21144e-07
3.09688e-07
2.98235e-07
2.87349e-07
2.77746e-07
2.7001e-07
2.64269e-07
2.60766e-07
2.59619e-07
2.60144e-07
2.61942e-07
2.64243e-07
2.66575e-07
2.68713e-07
2.70563e-07
2.72081e-07
2.73179e-07
2.73772e-07
2.73831e-07
2.73366e-07
2.72377e-07
2.70826e-07
2.68671e-07
2.65872e-07
2.62415e-07
2.58551e-07