/*--------------------------------*- C++ -*----------------------------------*\
| =========                 |                                                 |
| \\      /  F ield         | OpenFOAM: The Open Source CFD Toolbox           |
|  \\    /   O peration     | Version:  2312                                  |
|   \\  /    A nd           | Website:  www.openfoam.com                      |
|    \\/     M anipulation  |                                                 |
\*---------------------------------------------------------------------------*/
FoamFile
{
    version     2.0;
    format      ascii;
    arch        "LSB;label=32;scalar=64";
    class       surfaceScalarField;
    location    "190000";
    object      phi;
}
// * * * * * * * * * * * * * * * * * * * * * * * * * * * * * * * * * * * * * //

dimensions      [0 3 -1 0 0 0 0];

oriented        oriented;

internalField   nonuniform List<scalar> 
5250
(
0.000268483
1.19727e-05
0.000254207
1.42764e-05
0.000238593
1.56139e-05
0.000222361
1.62322e-05
0.00020622
1.6141e-05
0.000190724
1.54955e-05
0.000176399
1.43254e-05
0.000163287
1.3112e-05
0.000151277
1.201e-05
0.000140338
1.09387e-05
0.000130508
9.82978e-06
0.000121829
8.67917e-06
0.000114263
7.5659e-06
0.000107689
6.57432e-06
0.000101955
5.73423e-06
9.69189e-05
5.03595e-06
9.24227e-05
4.49625e-06
8.85524e-05
3.87025e-06
8.53729e-05
3.17951e-06
8.29282e-05
2.44465e-06
8.1245e-05
1.68326e-06
8.03294e-05
9.15635e-07
8.01786e-05
1.50779e-07
8.06203e-05
-4.41688e-07
8.15688e-05
-9.48541e-07
8.29192e-05
-1.35042e-06
8.45427e-05
-1.62348e-06
8.63154e-05
-1.77265e-06
8.81412e-05
-1.82587e-06
8.99478e-05
-1.80661e-06
9.16817e-05
-1.73384e-06
9.33525e-05
-1.67083e-06
9.50033e-05
-1.65077e-06
9.67046e-05
-1.70131e-06
9.85406e-05
-1.83596e-06
0.000100597
-2.05677e-06
0.000102956
-2.3588e-06
0.000105687
-2.73048e-06
0.000108841
-3.1549e-06
0.000112454
-3.61276e-06
0.000116538
-4.08372e-06
0.000121085
-4.54697e-06
0.000126068
-4.98325e-06
0.000131445
-5.37708e-06
0.000137162
-5.71648e-06
0.000143152
-5.99036e-06
0.000149339
-6.18677e-06
0.000155633
-6.29443e-06
0.00016194
-6.30634e-06
0.00016816
-6.22057e-06
0.000174195
-6.03512e-06
0.000179937
-5.74188e-06
0.000185265
-5.32827e-06
0.000190036
-4.77009e-06
0.000194044
-4.00823e-06
0.000197094
-3.05041e-06
0.000199045
-1.95042e-06
0.00019983
-7.85827e-07
0.000199542
2.88786e-07
0.000198483
1.05844e-06
0.000196978
1.50497e-06
0.000195425
1.55287e-06
0.000194199
1.22616e-06
0.000193559
6.40712e-07
0.000193568
-9.58472e-09
0.000194393
-8.24388e-07
0.000195731
-1.33873e-06
0.000197264
-1.53241e-06
0.000198628
-1.36441e-06
0.000199424
-7.95667e-07
0.000199481
-5.70101e-08
0.000198541
9.39829e-07
0.000196728
1.81329e-06
0.000194377
2.35111e-06
0.000191922
2.45498e-06
0.000189683
2.23849e-06
0.000187706
1.97713e-06
0.000185793
1.91303e-06
0.000183729
2.06362e-06
0.000181197
2.5327e-06
0.000178216
2.98044e-06
0.000174967
3.24863e-06
0.000171592
3.3757e-06
0.000168058
3.53377e-06
0.000164146
3.91199e-06
0.000159825
4.32108e-06
0.000155152
4.67305e-06
0.000150252
4.89983e-06
0.000145309
4.94279e-06
4.78303e-06
0.000708068
1.98621e-05
0.000699196
2.31483e-05
0.000688903
2.59065e-05
0.000676767
2.83689e-05
0.000662349
3.05586e-05
0.000645424
3.24202e-05
0.000625838
3.39121e-05
0.000603808
3.51418e-05
0.000579932
3.58862e-05
0.000555
3.58705e-05
0.00052968
3.51498e-05
0.000504538
3.38206e-05
0.000480058
3.20464e-05
0.000456661
2.99709e-05
0.000434734
2.76613e-05
0.000414677
2.50935e-05
0.000396921
2.22522e-05
0.000381473
1.93175e-05
0.000368361
1.62922e-05
0.000357615
1.31899e-05
0.000349191
1.01076e-05
0.000342941
7.16543e-06
0.000338626
4.46621e-06
0.000336102
2.08251e-06
0.000335087
6.60482e-08
0.000335368
-1.63122e-06
0.000336716
-2.97148e-06
0.000338957
-4.01415e-06
0.00034192
-4.78863e-06
0.000345433
-5.31949e-06
0.000349343
-5.64346e-06
0.000353481
-5.80889e-06
0.000357724
-5.89433e-06
0.000362016
-5.9933e-06
0.000366311
-6.13026e-06
0.000370622
-6.36864e-06
0.000375014
-6.75032e-06
0.000379569
-7.28517e-06
0.000384375
-7.96087e-06
0.000389513
-8.75092e-06
0.00039505
-9.62137e-06
0.000401036
-1.05323e-05
0.000407495
-1.14429e-05
0.000414436
-1.23177e-05
0.000421845
-1.31259e-05
0.000429692
-1.38369e-05
0.000437922
-1.44168e-05
0.000446459
-1.48311e-05
0.000455201
-1.5049e-05
0.000464021
-1.50397e-05
0.000472747
-1.47612e-05
0.000481158
-1.4153e-05
0.000488973
-1.31437e-05
0.000495874
-1.16712e-05
0.000501571
-9.705e-06
0.000505814
-7.29339e-06
0.000508464
-4.60089e-06
0.00050949
-1.81096e-06
0.000508828
9.49888e-07
0.000506409
3.47825e-06
0.000502485
5.42868e-06
0.000497391
6.64634e-06
0.000491493
7.12413e-06
0.000485073
7.06082e-06
0.000478304
6.75975e-06
0.000471016
6.46401e-06
0.00046343
6.24656e-06
0.000455807
6.09119e-06
0.000448329
6.11371e-06
0.000440534
6.99864e-06
0.000431695
8.7827e-06
0.000421732
1.09023e-05
0.000411317
1.22282e-05
0.00040194
1.17279e-05
0.000395198
9.19716e-06
0.000391972
5.465e-06
0.000391985
1.9641e-06
0.000393885
1.24509e-08
0.000395868
8.08827e-08
0.000396116
2.28511e-06
0.000393727
5.36927e-06
0.000388825
8.15074e-06
0.000382151
1.00493e-05
0.000374657
1.10273e-05
0.000367229
1.13402e-05
0.000359993
1.15569e-05
0.000353152
1.15142e-05
0.000346802
1.12498e-05
0.000340904
1.08414e-05
1.03029e-05
0.00090723
2.05213e-05
0.000905111
2.52668e-05
0.000901488
2.95294e-05
0.000896444
3.3413e-05
0.000889966
3.70366e-05
0.00088193
4.04569e-05
0.000872267
4.3575e-05
0.000861241
4.61674e-05
0.000848992
4.81353e-05
0.000835248
4.96149e-05
0.00081985
5.05474e-05
0.000802766
5.09044e-05
0.000784127
5.06858e-05
0.000764197
4.9901e-05
0.000743304
4.85541e-05
0.000721733
4.66647e-05
0.000699717
4.42682e-05
0.000677653
4.13811e-05
0.000655986
3.79593e-05
0.000635105
3.40709e-05
0.000615317
2.98957e-05
0.000596883
2.55991e-05
0.00058002
2.13294e-05
0.000564887
1.72161e-05
0.000551616
1.33367e-05
0.000540239
9.74546e-06
0.00053076
6.50806e-06
0.000523072
3.67357e-06
0.000517007
1.27644e-06
0.000512404
-7.16364e-07
0.000509037
-2.27642e-06
0.000506596
-3.36834e-06
0.000504802
-4.09979e-06
0.000503428
-4.61995e-06
0.00050238
-5.08212e-06
0.00050161
-5.59803e-06
0.000501122
-6.26227e-06
0.000500966
-7.12999e-06
0.000501219
-8.21311e-06
0.000501956
-9.48805e-06
0.000503248
-1.09134e-05
0.000505148
-1.24324e-05
0.000507699
-1.39943e-05
0.000510949
-1.55673e-05
0.000514958
-1.7135e-05
0.000519805
-1.86838e-05
0.000525579
-2.01908e-05
0.000532368
-2.16207e-05
0.000540243
-2.2924e-05
0.000549237
-2.40327e-05
0.000559331
-2.48555e-05
0.000570463
-2.52848e-05
0.000582539
-2.52203e-05
0.000595464
-2.45957e-05
0.000609156
-2.33972e-05
0.000623529
-2.16666e-05
0.000638394
-1.94661e-05
0.000653407
-1.68233e-05
0.000668222
-1.38651e-05
0.000682467
-1.07671e-05
0.000695605
-7.70906e-06
0.000707095
-4.84343e-06
0.000716457
-2.23799e-06
0.00072333
1.87529e-07
0.000727862
2.22774e-06
0.000729926
4.4004e-06
0.000729582
6.58989e-06
0.000726877
8.79637e-06
0.000721569
1.14218e-05
0.000713935
1.46324e-05
0.000704024
1.86938e-05
0.000691935
2.29916e-05
0.000677913
2.62504e-05
0.000662241
2.74001e-05
0.00064525
2.61882e-05
0.000627459
2.3256e-05
0.000609537
1.98856e-05
0.000591635
1.79142e-05
0.000572756
1.896e-05
0.00055347
2.15709e-05
0.000535922
2.29178e-05
0.000522901
2.11721e-05
0.000515703
1.72473e-05
0.000512745
1.39846e-05
0.000510507
1.35781e-05
0.000506895
1.51697e-05
0.000500893
1.75164e-05
0.000492962
1.91801e-05
0.000484356
1.94473e-05
1.85122e-05
0.00101652
1.61554e-05
0.00102032
2.14671e-05
0.00102308
2.67688e-05
0.0010245
3.19954e-05
0.00102431
3.72256e-05
0.0010223
4.24605e-05
0.00101832
4.75556e-05
0.00101212
5.23685e-05
0.00100343
5.68241e-05
0.000992263
6.07856e-05
0.000978752
6.40587e-05
0.000963172
6.64844e-05
0.000945896
6.79613e-05
0.000927364
6.84334e-05
0.000907997
6.79207e-05
0.000888173
6.64892e-05
0.000868211
6.42297e-05
0.000848294
6.1298e-05
0.000828421
5.78324e-05
0.000808595
5.38972e-05
0.000788863
4.96277e-05
0.000769215
4.52474e-05
0.000749669
4.08747e-05
0.000730376
3.65092e-05
0.000711519
3.21939e-05
0.000693229
2.80351e-05
0.00067564
2.40973e-05
0.000658935
2.03783e-05
0.000643314
1.68975e-05
0.000628842
1.37563e-05
0.000615484
1.10809e-05
0.000603185
8.93093e-06
0.000591849
7.23622e-06
0.000581401
5.82784e-06
0.000571808
4.51113e-06
0.000563077
3.13252e-06
0.000555204
1.61139e-06
0.000548145
-7.1442e-08
0.000541962
-2.03e-06
0.000536576
-4.1022e-06
0.000531958
-6.29528e-06
0.000528092
-8.56638e-06
0.000524978
-1.08798e-05
0.000522661
-1.32512e-05
0.000521267
-1.57401e-05
0.000521016
-1.84329e-05
0.000522206
-2.13814e-05
0.000525148
-2.45619e-05
0.000530087
-2.78637e-05
0.000537165
-3.11101e-05
0.0005464
-3.40908e-05
0.000557708
-3.65925e-05
0.000570912
-3.84246e-05
0.000585754
-3.94375e-05
0.000601892
-3.95352e-05
0.000618915
-3.86899e-05
0.000636411
-3.69621e-05
0.000654094
-3.45064e-05
0.000671731
-3.15021e-05
0.000689112
-2.81483e-05
0.000706055
-2.46518e-05
0.000722405
-2.11935e-05
0.000738071
-1.79036e-05
0.000753086
-1.48275e-05
0.00076726
-1.19466e-05
0.000780837
-9.17707e-06
0.000793917
-6.49006e-06
0.000806582
-3.86854e-06
0.000819184
-1.17972e-06
0.000831958
1.85789e-06
0.000845346
5.30655e-06
0.000859307
9.03023e-06
0.000872789
1.27679e-05
0.000883764
1.64256e-05
0.000889938
2.00136e-05
0.000889562
2.36328e-05
0.000881347
2.81001e-05
0.000864578
3.46832e-05
0.000840683
4.28556e-05
0.00081136
5.08936e-05
0.00077864
5.56379e-05
0.000744175
5.56366e-05
0.00070904
5.23826e-05
0.000674348
4.86769e-05
0.000641731
4.61942e-05
0.000613744
4.31568e-05
0.000592435
3.88262e-05
0.000577196
3.44183e-05
0.000565208
3.14354e-05
2.92696e-05
0.00102967
7.58654e-06
0.00103856
1.25765e-05
0.00104702
1.83111e-05
0.0010545
2.45177e-05
0.00106075
3.0972e-05
0.00106561
3.75975e-05
0.00106883
4.43411e-05
0.00107022
5.09771e-05
0.00106974
5.73025e-05
0.00106732
6.32016e-05
0.00106278
6.86034e-05
0.00105586
7.34049e-05
0.00104628
7.75392e-05
0.00103373
8.09892e-05
0.00101806
8.35878e-05
0.000999447
8.51003e-05
0.0009782
8.5477e-05
0.000954861
8.46368e-05
0.000930284
8.2409e-05
0.000905171
7.90106e-05
0.000879937
7.48613e-05
0.000855181
7.00037e-05
0.000831554
6.45018e-05
0.000809188
5.88754e-05
0.000787856
5.3526e-05
0.0007674
4.84905e-05
0.000747612
4.3886e-05
0.000728157
3.98334e-05
0.000708918
3.61356e-05
0.000690051
3.26235e-05
0.000671604
2.95285e-05
0.00065347
2.70643e-05
0.00063578
2.49263e-05
0.000618991
2.26169e-05
0.000603441
2.00613e-05
0.000589002
1.75713e-05
0.000575327
1.52861e-05
0.000562319
1.29369e-05
0.000550081
1.0208e-05
0.000538823
7.15563e-06
0.000528363
4.16515e-06
0.000518205
1.59187e-06
0.000508081
-7.56112e-07
0.000498287
-3.45684e-06
0.000489595
-7.04873e-06
0.00048302
-1.18576e-05
0.000479426
-1.77872e-05
0.000479346
-2.4482e-05
0.000482963
-3.14805e-05
0.000490166
-3.83134e-05
0.000500638
-4.45629e-05
0.000513941
-4.98959e-05
0.000529585
-5.40678e-05
0.000547064
-5.69165e-05
0.000565884
-5.83552e-05
0.00058557
-5.8376e-05
0.000605661
-5.70533e-05
0.000625703
-5.45485e-05
0.000645301
-5.10995e-05
0.000664154
-4.70015e-05
0.00068207
-4.2568e-05
0.000698966
-3.80891e-05
0.000714867
-3.38054e-05
0.000729933
-2.98925e-05
0.000744429
-2.64431e-05
0.000758726
-2.34744e-05
0.000773201
-2.09649e-05
0.000788184
-1.88518e-05
0.000803996
-1.69908e-05
0.000820994
-1.51407e-05
0.000839407
-1.31064e-05
0.000859318
-1.08806e-05
0.000880451
-8.36541e-06
0.000902316
-5.43958e-06
0.0009243
-1.96959e-06
0.00094527
2.66207e-06
0.000964575
8.79573e-06
0.000982642
1.66161e-05
0.000999031
2.64663e-05
0.00101237
3.75566e-05
0.00101961
4.83975e-05
0.00101631
5.89356e-05
0.000997996
7.06958e-05
0.000963455
8.32181e-05
0.000917219
9.243e-05
0.000864643
9.5733e-05
0.000809965
9.35041e-05
0.000756993
8.739e-05
0.000709745
7.86841e-05
6.82307e-05
0.00104825
-2.96323e-06
0.0010574
3.4243e-06
0.00106507
1.06432e-05
0.00107092
1.86715e-05
0.0010748
2.70925e-05
0.00107681
3.55819e-05
0.00107726
4.38892e-05
0.00107643
5.18085e-05
0.00107449
5.92425e-05
0.00107159
6.61067e-05
0.00106789
7.22984e-05
0.00106347
7.78303e-05
0.0010583
8.27117e-05
0.00105243
8.68586e-05
0.0010456
9.04138e-05
0.00103704
9.3661e-05
0.00102598
9.65339e-05
0.00101191
9.87123e-05
0.000994204
0.000100112
0.000972675
0.000100539
0.000948153
9.93835e-05
0.00092158
9.65765e-05
0.000893339
9.27425e-05
0.000864274
8.79403e-05
0.000835759
8.20417e-05
0.000808368
7.58817e-05
0.000782147
7.01062e-05
0.0007577
6.42802e-05
0.000735277
5.85585e-05
0.000713712
5.41891e-05
0.000691887
5.13531e-05
0.00067042
4.85315e-05
0.000650535
4.48113e-05
0.000631943
4.12094e-05
0.000613135
3.88687e-05
0.000593608
3.70986e-05
0.000574659
3.42348e-05
0.000557692
2.99047e-05
0.000542261
2.56381e-05
0.000526267
2.315e-05
0.000507968
2.24644e-05
0.000487595
2.19648e-05
0.000467093
1.97462e-05
0.000449012
1.46241e-05
0.000435556
6.4069e-06
0.000427987
-4.28803e-06
0.000426626
-1.64268e-05
0.000431091
-2.89467e-05
0.000440587
-4.09772e-05
0.000454163
-5.18893e-05
0.000470881
-6.12806e-05
0.000489911
-6.89255e-05
0.000510561
-7.47187e-05
0.000532269
-7.8624e-05
0.000554553
-8.06397e-05
0.000576971
-8.07933e-05
0.000599079
-7.91619e-05
0.000620434
-7.59033e-05
0.000640616
-7.12814e-05
0.000659299
-6.56845e-05
0.000676329
-5.95979e-05
0.000691746
-5.35061e-05
0.000705771
-4.78303e-05
0.000718766
-4.28882e-05
0.000731197
-3.88741e-05
0.000743596
-3.58725e-05
0.000756498
-3.38677e-05
0.000770402
-3.27553e-05
0.00078577
-3.23587e-05
0.000803067
-3.2438e-05
0.000822625
-3.26645e-05
0.000844402
-3.26574e-05
0.000868118
-3.20813e-05
0.000893279
-3.06006e-05
0.000919222
-2.79126e-05
0.000945628
-2.37438e-05
0.000972194
-1.77708e-05
0.000998431
-9.62068e-06
0.00102422
6.81484e-07
0.00104909
1.26826e-05
0.00107143
2.60607e-05
0.00108992
4.04456e-05
0.00110447
5.61442e-05
0.00111516
7.25311e-05
0.00111906
8.85241e-05
0.00111149
0.000103306
0.00108816
0.000116833
0.00104783
0.000127716
0.000993869
0.000132649
0.000129638
0.00113503
-1.8114e-05
0.00114777
-9.31271e-06
0.00115765
7.61604e-07
0.00116394
1.23759e-05
0.00116648
2.45591e-05
0.0011649
3.71599e-05
0.00115919
4.96024e-05
0.00114968
6.13107e-05
0.00113679
7.21317e-05
0.00112112
8.17806e-05
0.00110356
8.98631e-05
0.00108514
9.6249e-05
0.00106692
0.000100929
0.00104979
0.000103985
0.0010344
0.000105808
0.00102119
0.000106865
0.00101021
0.000107519
0.00100055
0.000108372
0.000990747
0.000109915
0.000979531
0.000111755
0.000965604
0.000113311
0.000947633
0.000114547
0.000925497
0.000114879
0.000900261
0.000113176
0.000872696
0.000109607
0.000843517
0.000105061
0.000814271
9.93517e-05
0.000785936
9.26152e-05
0.000758004
8.64906e-05
0.000730479
8.1714e-05
0.000704782
7.70501e-05
0.0006814
7.19136e-05
0.000658637
6.75747e-05
0.000635035
6.4811e-05
0.000611602
6.2302e-05
0.000590284
5.84165e-05
0.000570877
5.36421e-05
0.000550432
5.03493e-05
0.000525782
5.02882e-05
0.000496379
5.25535e-05
0.00046496
5.38827e-05
0.000435927
5.09981e-05
0.000413207
4.24656e-05
0.000398915
2.89163e-05
0.000393213
1.21096e-05
0.00039536
-6.43532e-06
0.000403916
-2.49827e-05
0.000417415
-4.24461e-05
0.000434554
-5.81163e-05
0.000454236
-7.15706e-05
0.000475578
-8.26233e-05
0.0004979
-9.12471e-05
0.000520714
-9.75331e-05
0.000543728
-0.000101638
0.000566801
-0.000103713
0.000589869
-0.000103861
0.000612854
-0.000102147
0.000635598
-9.86466e-05
0.000657842
-9.35252e-05
0.000679248
-8.70911e-05
0.000699454
-7.98041e-05
0.000718184
-7.22357e-05
0.000735349
-6.4995e-05
0.000751064
-5.86031e-05
0.000765625
-5.34355e-05
0.000779516
-4.9763e-05
0.000793344
-4.76963e-05
0.000807732
-4.71434e-05
0.000823206
-4.78325e-05
0.000840159
-4.93905e-05
0.000858843
-5.13489e-05
0.00087935
-5.31639e-05
0.000901539
-5.42707e-05
0.000925128
-5.41895e-05
0.000949732
-5.25168e-05
0.0009749
-4.89116e-05
0.00100026
-4.31282e-05
0.00102568
-3.50439e-05
0.00105106
-2.46957e-05
0.00107591
-1.21704e-05
0.00110002
1.95156e-06
0.00112304
1.74223e-05
0.0011447
3.44919e-05
0.00116419
5.3037e-05
0.00118034
7.23735e-05
0.00119179
9.18549e-05
0.00119752
0.000111107
0.00119594
0.000129295
0.00118353
0.000145057
0.000157
0.00114596
-4.21683e-05
0.00116875
-3.20934e-05
0.00118947
-1.99632e-05
0.00120802
-6.17292e-06
0.0012228
9.77906e-06
0.0012332
2.67566e-05
0.0012385
4.43085e-05
0.00123792
6.18889e-05
0.00123104
7.90078e-05
0.00121782
9.49992e-05
0.00119844
0.000109248
0.00117346
0.000121223
0.00114392
0.000130469
0.00111112
0.000136787
0.00107694
0.000139987
0.00104376
0.000140052
0.0010136
0.00013768
0.0009881
0.000133868
0.000968415
0.0001296
0.000953779
0.000126391
0.000941565
0.000125524
0.000929774
0.000126338
0.00091741
0.000127243
0.000902368
0.000128218
0.000882526
0.000129449
0.000858664
0.000128922
0.000832637
0.000125379
0.00080425
0.000121002
0.000773592
0.000117149
0.00074366
0.000111646
0.000716821
0.000103889
0.000691232
9.75023e-05
0.000664106
9.47009e-05
0.000636413
9.25038e-05
0.000611181
8.75343e-05
0.000588126
8.14716e-05
0.000562678
7.90898e-05
0.000530721
8.2306e-05
0.000493109
8.79004e-05
0.000455298
9.03646e-05
0.000423283
8.58977e-05
0.000400391
7.38904e-05
0.00038692
5.59366e-05
0.000381518
3.43177e-05
0.000382498
1.11303e-05
0.000388707
-1.26448e-05
0.000399046
-3.53219e-05
0.000412793
-5.61924e-05
0.000429392
-7.4716e-05
0.000448276
-9.04543e-05
0.000468768
-0.000103116
0.000490142
-0.000112621
0.000511743
-0.000119134
0.000533119
-0.000123014
0.000554096
-0.00012469
0.000574769
-0.000124535
0.000595396
-0.000122774
0.000616231
-0.000119481
0.000637429
-0.000114723
0.000658981
-0.000108643
0.000680722
-0.000101545
0.000702396
-9.39096e-05
0.000723743
-8.63419e-05
0.000744621
-7.94816e-05
0.0007651
-7.3914e-05
0.000785436
-7.00999e-05
0.00080603
-6.829e-05
0.000827349
-6.8462e-05
0.000849841
-7.03244e-05
0.000873833
-7.3383e-05
0.000899477
-7.69933e-05
0.000926689
-8.03752e-05
0.00095511
-8.2692e-05
0.00098419
-8.32697e-05
0.00101332
-8.16488e-05
0.0010419
-7.74889e-05
0.00106932
-7.05507e-05
0.00109512
-6.08393e-05
0.00111903
-4.86049e-05
0.00114089
-3.40368e-05
0.00116024
-1.73999e-05
0.00117688
7.88559e-07
0.00119122
2.01535e-05
0.00120395
4.03037e-05
0.00121558
6.07407e-05
0.00122631
8.1123e-05
0.00123584
0.000101581
0.00124307
0.000122067
0.00124619
0.000141932
0.000160442
0.00101117
-7.97581e-05
0.00104921
-7.01358e-05
0.00108599
-5.67488e-05
0.0011201
-4.02784e-05
0.00115135
-2.14723e-05
0.001179
-8.96614e-07
0.00120147
2.18411e-05
0.00121832
4.50374e-05
0.00122915
6.81844e-05
0.00123355
9.05943e-05
0.00123094
0.000111856
0.00122086
0.000131309
0.00120316
0.000148169
0.00117803
0.000161913
0.00114599
0.000172028
0.00110803
0.000178008
0.00106621
0.000179506
0.00102376
0.00017632
0.000984134
0.000169221
0.00095015
0.000160375
0.000923692
0.000151982
0.000904505
0.000145525
0.00088938
0.000142369
0.000874673
0.000142925
0.000859153
0.000144969
0.000842472
0.000145603
0.000822982
0.000144869
0.000799945
0.000144039
0.000775361
0.000141732
0.000750662
0.000136346
0.000724273
0.000130277
0.000695065
0.00012671
0.000665473
0.000124293
0.000638307
0.000119669
0.000612065
0.000113777
0.000581985
0.000111551
0.000545415
0.00011566
0.000504777
0.000122945
0.000465584
0.000127093
0.000432464
0.000123484
0.000407247
0.000111115
0.000389457
9.16798e-05
0.00037777
6.76239e-05
0.000371032
4.1056e-05
0.000368815
1.33467e-05
0.000370244
-1.40741e-05
0.000375788
-4.08652e-05
0.00038575
-6.6155e-05
0.000400099
-8.90649e-05
0.000418389
-0.000108744
0.000439758
-0.000124484
0.000463033
-0.000135896
0.000486934
-0.000143035
0.000510325
-0.000146405
0.000532447
-0.000146812
0.000553044
-0.000145132
0.000572342
-0.000142072
0.0005909
-0.000138039
0.000609357
-0.00013318
0.000628245
-0.000127531
0.000647882
-0.000121182
0.000668382
-0.000114409
0.000689748
-0.000107708
0.000711996
-0.00010173
0.000735215
-9.71322e-05
0.000759571
-9.44564e-05
0.000785307
-9.40255e-05
0.000812696
-9.58518e-05
0.00084197
-9.95984e-05
0.0008732
-0.000104613
0.000906219
-0.000110013
0.000940624
-0.00011478
0.000975832
-0.000117901
0.00101113
-0.000118569
0.00104579
-0.000116307
0.00107914
-0.000110837
0.00111057
-0.000101985
0.00113957
-8.98332e-05
0.00116575
-7.47837e-05
0.00118896
-5.72491e-05
0.00120911
-3.75555e-05
0.00122612
-1.62134e-05
0.00123954
6.7306e-06
0.00124937
3.0471e-05
0.00125595
5.41633e-05
0.00125991
7.71583e-05
0.00126224
9.92544e-05
0.0012637
0.000120608
0.0012644
0.000141232
0.000161258
0.000794713
-0.000131085
0.000847155
-0.000122578
0.000899355
-0.000108949
0.000949804
-9.07269e-05
0.000996992
-6.86602e-05
0.00103979
-4.36933e-05
0.00107832
-1.66925e-05
0.00111123
1.21341e-05
0.00113806
4.13538e-05
0.00115838
7.02727e-05
0.00117209
9.81427e-05
0.00117912
0.000124281
0.00117896
0.000148333
0.00117099
0.000169879
0.00115501
0.000188009
0.00113115
0.000201869
0.00109961
0.000211044
0.00106087
0.000215057
0.00101702
0.000213078
0.00097256
0.000204832
0.00093223
0.000192312
0.000898173
0.000179581
0.000870807
0.000169735
0.000850591
0.000163141
0.000836349
0.000159211
0.000823771
0.000158181
0.000808865
0.000159775
0.000791449
0.000161455
0.000772529
0.000160651
0.000750654
0.000158221
0.000724257
0.000156675
0.000695426
0.000155542
0.00066761
0.000152109
0.000640493
0.000146787
0.000610021
0.000144248
0.000573424
0.000148148
0.000532519
0.000156565
0.000492129
0.000163334
0.000456447
0.000162776
0.000427193
0.000152738
0.000404042
0.000134266
0.000386032
0.000109689
0.000372476
8.11796e-05
0.000363257
5.02755e-05
0.000358529
1.80749e-05
0.000358347
-1.38929e-05
0.000362979
-4.54972e-05
0.000372681
-7.58563e-05
0.000387431
-0.000103815
0.000406902
-0.000128216
0.000430414
-0.000147997
0.000456905
-0.000162386
0.000484976
-0.000171107
0.000513089
-0.000174518
0.000539877
-0.0001736
0.000564484
-0.000169738
0.000586748
-0.000164336
0.000607151
-0.000158442
0.00062654
-0.00015257
0.000645796
-0.000146787
0.000665592
-0.000140978
0.000686303
-0.00013512
0.000708058
-0.000129464
0.00073087
-0.000124542
0.00075479
-0.000121052
0.000779998
-0.000119664
0.000806789
-0.000120817
0.00083548
-0.000124543
0.000866269
-0.000130387
0.000899091
-0.000137435
0.000933552
-0.000144473
0.000968985
-0.000150213
0.00100459
-0.00015351
0.00103957
-0.000153549
0.00107317
-0.0001499
0.00110473
-0.000142403
0.00113383
-0.000131084
0.00116023
-0.000116228
0.00118381
-9.83655e-05
0.00120456
-7.79983e-05
0.00122248
-5.54821e-05
0.00123752
-3.12534e-05
0.00125019
-5.94035e-06
0.00125949
2.11771e-05
0.00126541
4.82408e-05
0.00126788
7.46847e-05
0.00126729
9.98458e-05
0.0012644
0.000123502
0.00126012
0.000145514
0.000166139
0.000550566
-0.000193969
0.000615335
-0.000187347
0.000680618
-0.000174233
0.000744759
-0.000154867
0.000806018
-0.000129919
0.000862876
-0.000100551
0.000914259
-6.8076e-05
0.000960106
-3.37133e-05
0.000999762
1.6981e-06
0.00103274
3.72984e-05
0.00105925
7.16287e-05
0.00107932
0.000104208
0.00109297
0.000134681
0.00110017
0.000162681
0.00110038
0.000187802
0.00109285
0.000209403
0.00107731
0.000226581
0.00105383
0.000238541
0.00102266
0.00024424
0.000985004
0.000242492
0.000943654
0.000233662
0.000903327
0.000219908
0.000869206
0.000203856
0.000843385
0.000188962
0.000823247
0.000179348
0.00080493
0.000176499
0.000787308
0.000177397
0.000770737
0.000178026
0.000753574
0.000177815
0.000733169
0.000178626
0.000709673
0.000180171
0.000685693
0.000179521
0.00066194
0.000175862
0.000635627
0.0001731
0.000603887
0.000175989
0.000567305
0.00018473
0.000529573
0.000194296
0.000494613
0.000198294
0.000464502
0.000192887
0.00043949
0.00017775
0.000419074
0.000154682
0.000402803
0.000125961
0.000390453
9.35294e-05
0.000381926
5.88024e-05
0.00037719
2.28111e-05
0.000376384
-1.30873e-05
0.000379613
-4.87265e-05
0.000387033
-8.32758e-05
0.000398798
-0.00011558
0.00041498
-0.000144398
0.000435458
-0.000168475
0.000459782
-0.000186711
0.000487069
-0.000198394
0.000516001
-0.000203449
0.000545017
-0.000202616
0.000572705
-0.000197426
0.00059824
-0.000189871
0.000621615
-0.000181817
0.000643519
-0.000174474
0.000664935
-0.000168203
0.000686686
-0.000162729
0.000709183
-0.000157617
0.000732443
-0.000152724
0.000756317
-0.000148416
0.00078076
-0.000145495
0.000805986
-0.000144891
0.000832443
-0.000147273
0.000860615
-0.000152715
0.000890763
-0.000160535
0.000922743
-0.000169414
0.000955982
-0.000177712
0.000989628
-0.000183859
0.00102275
-0.000186633
0.0010545
-0.000185294
0.00108415
-0.000179555
0.00111122
-0.000169469
0.00113544
-0.000155309
0.00115677
-0.000137559
0.00117524
-0.000116828
0.00119089
-9.36576e-05
0.00120395
-6.85408e-05
0.0012147
-4.19986e-05
0.00122326
-1.45021e-05
0.00122988
1.45611e-05
0.00123421
4.39068e-05
0.00123608
7.28176e-05
0.00123525
0.000100673
0.00123177
0.000126979
0.00122613
0.000151158
0.000173177
0.000327625
-0.000256651
0.000394357
-0.000254079
0.000463913
-0.000243789
0.000534527
-0.000225482
0.000604206
-0.000199598
0.000670937
-0.000167281
0.000732899
-0.000130039
0.000788901
-8.97152e-05
0.000838598
-4.79994e-05
0.00088218
-6.28315e-06
0.00091885
3.49585e-05
0.000949011
7.40476e-05
0.00097314
0.000110552
0.000991458
0.000144363
0.00100369
0.000175566
0.00100956
0.000203537
0.00100872
0.000227415
0.00100044
0.000246828
0.000983848
0.000260831
0.000958798
0.000267541
0.00092681
0.000265649
0.000891397
0.000255322
0.000856257
0.000238996
0.0008233
0.000221919
0.000793566
0.000209082
0.000768933
0.000201132
0.000750669
0.000195661
0.000736796
0.000191898
0.000723205
0.000191407
0.000707689
0.000194141
0.000691154
0.000196706
0.000674462
0.000196213
0.000655855
0.000194469
0.000632541
0.000196414
0.000603892
0.000204638
0.000572253
0.000216369
0.000541092
0.000225457
0.000512925
0.000226461
0.000488724
0.000217089
0.00046853
0.000197943
0.000452094
0.000171119
0.000439089
0.000138966
0.000429195
0.000103423
0.000422156
6.58418e-05
0.00041792
2.70469e-05
0.000416675
-1.18422e-05
0.000418628
-5.06798e-05
0.000424017
-8.86647e-05
0.000433044
-0.000124606
0.000445854
-0.000157208
0.00046248
-0.000185101
0.000482766
-0.000206996
0.000506281
-0.00022191
0.000532235
-0.000229403
0.000559412
-0.000229792
0.00058631
-0.000224325
0.000611592
-0.000215153
0.00063462
-0.000204845
0.000655703
-0.000195557
0.000675827
-0.000188327
0.000696074
-0.000182976
0.000717111
-0.000178654
0.00073905
-0.000174663
0.00076169
-0.000171057
0.000784901
-0.000168706
0.000808867
-0.000168857
0.000834046
-0.000172452
0.000860878
-0.000179548
0.000889452
-0.000189109
0.000919328
-0.00019929
0.000949647
-0.000208032
0.00097939
-0.000213602
0.00100763
-0.000214875
0.00103368
-0.000211337
0.00105711
-0.000202987
0.00107782
-0.000190184
0.00109596
-0.000173443
0.0011117
-0.000153299
0.00112517
-0.000130305
0.00113649
-0.000104977
0.00114586
-7.791e-05
0.00115338
-4.95131e-05
0.00115908
-2.02014e-05
0.00116317
1.047e-05
0.00116572
4.13541e-05
0.00116678
7.17576e-05
0.00116614
0.000101315
0.00116359
0.000129529
0.00115913
0.000155618
0.000179388
0.00020405
-0.000299414
0.000252102
-0.000302131
0.000306521
-0.000298208
0.000366722
-0.000285683
0.000430718
-0.000263594
0.000495865
-0.000232428
0.000559681
-0.000193854
0.000620059
-0.000150094
0.000675463
-0.000103403
0.000725011
-5.58309e-05
0.00076894
-8.97043e-06
0.000806758
3.62291e-05
0.000838726
7.85842e-05
0.000864956
0.000118133
0.000885813
0.000154708
0.000901394
0.000187956
0.000911162
0.000217647
0.000914629
0.000243361
0.000911563
0.000263897
0.000901391
0.000277714
0.000883699
0.000283341
0.000859332
0.000279689
0.00083039
0.000267938
0.000800162
0.000252147
0.000773052
0.000236193
0.000752461
0.000221723
0.000737988
0.000210134
0.00072601
0.000203875
0.000713549
0.000203869
0.000700552
0.000207138
0.000688032
0.000209226
0.00067517
0.000209075
0.000659413
0.000210226
0.00063905
0.000216777
0.000614872
0.000228815
0.000589436
0.000241806
0.000565281
0.000249612
0.00054386
0.000247882
0.000525623
0.000235326
0.000510493
0.000213073
0.000498176
0.000183436
0.000488367
0.000148776
0.000480764
0.000111026
0.000475343
7.12622e-05
0.000472303
3.00876e-05
0.00047175
-1.12894e-05
0.00047385
-5.27799e-05
0.000478667
-9.34821e-05
0.000486327
-0.000132266
0.000497039
-0.00016792
0.000510964
-0.000199026
0.000528025
-0.000224056
0.000547863
-0.000241748
0.000569959
-0.0002515
0.000593646
-0.000253479
0.000617945
-0.000248624
0.000641582
-0.000238789
0.00066346
-0.000226723
0.000683272
-0.000215369
0.00070165
-0.000206704
0.000719677
-0.000201003
0.00073819
-0.000197166
0.00075741
-0.000193882
0.000777128
-0.000190776
0.00079718
-0.000188757
0.000817748
-0.000189425
0.000839291
-0.000193994
0.000862154
-0.000202412
0.00088621
-0.000213165
0.000910759
-0.000223839
0.000934763
-0.000232035
0.000957209
-0.000236049
0.000977387
-0.000235052
0.000994952
-0.000228902
0.00100986
-0.000217895
0.00102227
-0.000202593
0.00103252
-0.000183694
0.00104104
-0.000161823
0.00104816
-0.000137421
0.00105411
-0.00011093
0.00105892
-8.2718e-05
0.00106269
-5.32856e-05
0.00106534
-2.28538e-05
0.00106723
8.58028e-06
0.00106836
4.02328e-05
0.00106854
7.15727e-05
0.00106761
0.000102243
0.0010656
0.000131547
0.00106244
0.00015877
0.000184012
0.000226887
-0.000305783
0.000236219
-0.000311463
0.000254035
-0.000316024
0.000283075
-0.000314723
0.000322884
-0.000303403
0.000370858
-0.000280402
0.000423484
-0.00024648
0.000477581
-0.000204191
0.000530576
-0.000156398
0.000580658
-0.000105913
0.000626597
-5.49095e-05
0.000668031
-5.20463e-06
0.000704561
4.20538e-05
0.000736284
8.64104e-05
0.000763366
0.000127626
0.000785856
0.000165467
0.000803906
0.000199597
0.000817625
0.000229642
0.000826357
0.000255165
0.000829017
0.000275055
0.000825384
0.000286973
0.000816161
0.000288913
0.000802399
0.000281699
0.00078605
0.000268497
0.000769826
0.000252416
0.00075515
0.0002364
0.00074117
0.000224114
0.000726778
0.000218267
0.000712712
0.000217934
0.000700668
0.000219182
0.000690747
0.000219147
0.00068076
0.000219062
0.000668181
0.000222805
0.000652278
0.00023268
0.000634338
0.000246756
0.000616389
0.000259754
0.000599927
0.000266074
0.000585589
0.00026222
0.000573434
0.000247481
0.000563264
0.000223243
0.000554827
0.000191873
0.000547914
0.000155689
0.000542627
0.000116313
0.000539089
7.47997e-05
0.000537447
3.17301e-05
0.000537755
-1.15974e-05
0.00053986
-5.4885e-05