/*--------------------------------*- C++ -*----------------------------------*\
| =========                 |                                                 |
| \\      /  F ield         | OpenFOAM: The Open Source CFD Toolbox           |
|  \\    /   O peration     | Version:  2312                                  |
|   \\  /    A nd           | Website:  www.openfoam.com                      |
|    \\/     M anipulation  |                                                 |
\*---------------------------------------------------------------------------*/
FoamFile
{
    version     2.0;
    format      ascii;
    arch        "LSB;label=32;scalar=64";
    class       volScalarField;
    location    "13000";
    object      p;
}
// * * * * * * * * * * * * * * * * * * * * * * * * * * * * * * * * * * * * * //

dimensions      [0 2 -2 0 0 0 0];

internalField   nonuniform List<scalar> 
10800
(
5.52976e-07
5.3885e-07
5.25076e-07
5.14489e-07
5.07052e-07
5.01644e-07
4.97172e-07
4.93069e-07
4.89165e-07
4.85469e-07
4.82016e-07
4.78812e-07
4.75822e-07
4.72996e-07
4.70287e-07
4.67663e-07
4.65103e-07
4.62592e-07
4.60121e-07
4.57681e-07
4.55264e-07
4.52862e-07
4.50468e-07
4.48077e-07
4.4569e-07
4.43305e-07
4.40916e-07
4.38521e-07
4.36122e-07
4.33721e-07
4.31323e-07
4.28932e-07
4.26549e-07
4.24172e-07
4.21801e-07
4.19442e-07
4.17113e-07
4.14841e-07
4.12654e-07
4.10578e-07
4.08626e-07
4.06798e-07
4.05091e-07
4.0349e-07
4.01995e-07
4.00597e-07
3.99309e-07
3.98118e-07
3.97049e-07
3.96051e-07
3.95162e-07
3.94251e-07
3.93443e-07
3.92422e-07
3.91628e-07
3.90193e-07
3.89604e-07
3.86986e-07
3.87729e-07
3.80558e-07
5.04955e-07
5.03225e-07
5.00575e-07
4.97441e-07
4.94214e-07
4.91106e-07
4.88166e-07
4.85359e-07
4.82635e-07
4.79962e-07
4.77335e-07
4.7476e-07
4.72242e-07
4.69782e-07
4.67372e-07
4.65004e-07
4.62669e-07
4.60359e-07
4.58069e-07
4.55795e-07
4.53532e-07
4.51276e-07
4.49024e-07
4.46771e-07
4.44515e-07
4.42261e-07
4.40011e-07
4.37757e-07
4.35492e-07
4.33218e-07
4.3095e-07
4.28697e-07
4.26455e-07
4.2421e-07
4.21954e-07
4.19689e-07
4.17437e-07
4.15223e-07
4.13095e-07
4.1108e-07
4.09212e-07
4.07488e-07
4.05917e-07
4.04465e-07
4.03141e-07
4.01893e-07
4.00754e-07
3.99648e-07
3.98651e-07
3.97631e-07
3.96713e-07
3.95693e-07
3.94794e-07
3.93634e-07
3.92711e-07
3.9133e-07
3.90474e-07
3.88718e-07
3.88113e-07
3.85357e-07
4.96266e-07
4.95514e-07
4.94096e-07
4.92138e-07
4.89845e-07
4.87415e-07
4.84972e-07
4.82568e-07
4.80206e-07
4.77873e-07
4.75559e-07
4.73265e-07
4.70996e-07
4.68757e-07
4.66548e-07
4.6437e-07
4.62217e-07
4.60086e-07
4.57972e-07
4.55874e-07
4.53787e-07
4.51709e-07
4.49638e-07
4.47571e-07
4.45505e-07
4.43443e-07
4.41391e-07
4.39347e-07
4.37303e-07
4.35257e-07
4.33219e-07
4.31198e-07
4.29195e-07
4.27204e-07
4.25229e-07
4.23281e-07
4.21372e-07
4.19506e-07
4.17692e-07
4.15933e-07
4.14236e-07
4.12596e-07
4.11014e-07
4.09477e-07
4.07991e-07
4.06537e-07
4.05135e-07
4.03754e-07
4.02424e-07
4.01088e-07
3.99795e-07
3.9845e-07
3.97145e-07
3.95746e-07
3.94364e-07
3.92767e-07
3.91184e-07
3.89275e-07
3.87408e-07
3.85001e-07
4.84582e-07
4.84148e-07
4.83359e-07
4.82265e-07
4.80935e-07
4.7944e-07
4.77838e-07
4.76168e-07
4.74451e-07
4.72697e-07
4.70914e-07
4.69107e-07
4.67282e-07
4.65446e-07
4.63602e-07
4.61756e-07
4.59908e-07
4.58059e-07
4.56209e-07
4.54361e-07
4.52513e-07
4.50664e-07
4.48814e-07
4.46964e-07
4.45111e-07
4.43257e-07
4.41411e-07
4.39573e-07
4.37735e-07
4.35892e-07
4.34055e-07
4.32234e-07
4.30429e-07
4.28633e-07
4.26846e-07
4.25076e-07
4.2333e-07
4.21612e-07
4.19927e-07
4.18278e-07
4.16675e-07
4.1512e-07
4.13613e-07
4.12151e-07
4.10731e-07
4.09345e-07
4.07989e-07
4.06649e-07
4.05323e-07
4.03989e-07
4.02648e-07
4.01272e-07
3.99861e-07
3.98343e-07
3.96719e-07
3.94945e-07
3.93042e-07
3.90937e-07
3.88671e-07
3.86181e-07
4.77955e-07
4.77741e-07
4.77309e-07
4.76661e-07
4.75815e-07
4.74798e-07
4.73643e-07
4.72382e-07
4.71038e-07
4.69629e-07
4.68168e-07
4.66663e-07
4.65122e-07
4.63551e-07
4.61957e-07
4.60344e-07
4.58717e-07
4.57078e-07
4.55431e-07
4.53778e-07
4.5212e-07
4.50458e-07
4.48793e-07
4.47126e-07
4.45455e-07
4.43784e-07
4.42121e-07
4.40468e-07
4.38817e-07
4.37164e-07
4.35519e-07
4.33891e-07
4.32282e-07
4.30685e-07
4.291e-07
4.27536e-07
4.25999e-07
4.24489e-07
4.23006e-07
4.2155e-07
4.20121e-07
4.18719e-07
4.17341e-07
4.15983e-07
4.14642e-07
4.13312e-07
4.11987e-07
4.10661e-07
4.0932e-07
4.07954e-07
4.0655e-07
4.05081e-07
4.03535e-07
4.01925e-07
4.00244e-07
3.98456e-07
3.96531e-07
3.94456e-07
3.92235e-07
3.89919e-07
4.72505e-07
4.72342e-07
4.72017e-07
4.71532e-07
4.70898e-07
4.70131e-07
4.6925e-07
4.68272e-07
4.67213e-07
4.66085e-07
4.649e-07
4.63664e-07
4.62385e-07
4.61068e-07
4.59718e-07
4.58342e-07
4.56942e-07
4.55522e-07
4.54087e-07
4.5264e-07
4.51183e-07
4.49716e-07
4.48244e-07
4.46765e-07
4.4528e-07
4.43793e-07
4.42312e-07
4.40839e-07
4.39366e-07
4.3789e-07
4.36421e-07
4.34968e-07
4.33529e-07
4.321e-07
4.30679e-07
4.29274e-07
4.27887e-07
4.26518e-07
4.25167e-07
4.23832e-07
4.22516e-07
4.21218e-07
4.19937e-07
4.18671e-07
4.17418e-07
4.16173e-07
4.14933e-07
4.13694e-07
4.1245e-07
4.11194e-07
4.09923e-07
4.08635e-07
4.07298e-07
4.05872e-07
4.04343e-07
4.02721e-07
4.00992e-07
3.99165e-07
3.97241e-07
3.95303e-07
4.68232e-07
4.68114e-07
4.67877e-07
4.67522e-07
4.67053e-07
4.66477e-07
4.65803e-07
4.65042e-07
4.64203e-07
4.63296e-07
4.62329e-07
4.61309e-07
4.60241e-07
4.59132e-07
4.57985e-07
4.56806e-07
4.55598e-07
4.54366e-07
4.53113e-07
4.51845e-07
4.50562e-07
4.49267e-07
4.47963e-07
4.46651e-07
4.4533e-07
4.44006e-07
4.42687e-07
4.41375e-07
4.40062e-07
4.38746e-07
4.37437e-07
4.36143e-07
4.34863e-07
4.33593e-07
4.32331e-07
4.31086e-07
4.2986e-07
4.28654e-07
4.27465e-07
4.26295e-07
4.25144e-07
4.24013e-07
4.22899e-07
4.21802e-07
4.20719e-07
4.19646e-07
4.18579e-07
4.1751e-07
4.1643e-07
4.15329e-07
4.14194e-07
4.13022e-07
4.11823e-07
4.10593e-07
4.09306e-07
4.07956e-07
4.06532e-07
4.05047e-07
4.03508e-07
4.01999e-07
4.64852e-07
4.6476e-07
4.64576e-07
4.64299e-07
4.63931e-07
4.63475e-07
4.62937e-07
4.62322e-07
4.61638e-07
4.6089e-07
4.60084e-07
4.59226e-07
4.58321e-07
4.57373e-07
4.56387e-07
4.55368e-07
4.5432e-07
4.53245e-07
4.52148e-07
4.51034e-07
4.49904e-07
4.4876e-07
4.47606e-07
4.46443e-07
4.4527e-07
4.44094e-07
4.42922e-07
4.41756e-07
4.40589e-07
4.39419e-07
4.38256e-07
4.37109e-07
4.35976e-07
4.34852e-07
4.33738e-07
4.32639e-07
4.3156e-07
4.30499e-07
4.29455e-07
4.28428e-07
4.27419e-07
4.26429e-07
4.25456e-07
4.24499e-07
4.23557e-07
4.22631e-07
4.21719e-07
4.20822e-07
4.19938e-07
4.19067e-07
4.18195e-07
4.17309e-07
4.16397e-07
4.15467e-07
4.14511e-07
4.13528e-07
4.12507e-07
4.11464e-07
4.10409e-07
4.09427e-07
4.62154e-07
4.62079e-07
4.6193e-07
4.61704e-07
4.61403e-07
4.61029e-07
4.60586e-07
4.60076e-07
4.59505e-07
4.58877e-07
4.58196e-07
4.57466e-07
4.56692e-07
4.55878e-07
4.55026e-07
4.54142e-07
4.53228e-07
4.52288e-07
4.51326e-07
4.50346e-07
4.4935e-07
4.48339e-07
4.47317e-07
4.46286e-07
4.45245e-07
4.442e-07
4.4316e-07
4.42126e-07
4.4109e-07
4.40053e-07
4.39023e-07
4.38009e-07
4.3701e-07
4.36022e-07
4.35044e-07
4.34084e-07
4.33145e-07
4.32227e-07
4.31329e-07
4.30453e-07
4.29601e-07
4.28774e-07
4.27972e-07
4.27196e-07
4.26447e-07
4.25724e-07
4.25024e-07
4.24345e-07
4.23683e-07
4.23037e-07
4.22405e-07
4.2179e-07
4.21188e-07
4.20597e-07
4.2001e-07
4.19429e-07
4.18851e-07
4.1829e-07
4.17759e-07
4.17334e-07
4.60011e-07
4.59949e-07
4.59823e-07
4.59633e-07
4.5938e-07
4.59065e-07
4.5869e-07
4.58257e-07
4.57771e-07
4.57233e-07
4.56648e-07
4.56019e-07
4.55348e-07
4.5464e-07
4.53896e-07
4.53122e-07
4.52319e-07
4.5149e-07
4.50639e-07
4.49771e-07
4.48887e-07
4.47988e-07
4.47079e-07
4.46161e-07
4.45233e-07
4.44301e-07
4.43375e-07
4.42454e-07
4.41534e-07
4.40612e-07
4.39699e-07
4.38803e-07
4.37924e-07
4.37057e-07
4.36203e-07
4.35369e-07
4.34559e-07
4.33774e-07
4.33013e-07
4.32278e-07
4.31572e-07
4.30898e-07
4.30254e-07
4.29644e-07
4.29067e-07
4.28526e-07
4.28022e-07
4.27555e-07
4.27125e-07
4.26733e-07
4.26379e-07
4.26067e-07
4.25795e-07
4.25563e-07
4.25368e-07
4.25218e-07
4.25111e-07
4.25062e-07
4.25088e-07
4.2525e-07
4.58334e-07
4.5828e-07
4.58171e-07
4.58008e-07
4.57789e-07
4.57517e-07
4.57191e-07
4.56816e-07
4.56392e-07
4.55923e-07
4.5541e-07
4.54858e-07
4.54267e-07
4.53642e-07
4.52983e-07
4.52295e-07
4.5158e-07
4.50841e-07
4.50081e-07
4.49304e-07
4.48511e-07
4.47705e-07
4.46889e-07
4.46064e-07
4.45231e-07
4.44394e-07
4.43564e-07
4.4274e-07
4.41917e-07
4.41095e-07
4.40282e-07
4.39489e-07
4.38714e-07
4.37953e-07
4.37209e-07
4.36487e-07
4.35793e-07
4.35128e-07
4.34492e-07
4.33886e-07
4.33316e-07
4.32784e-07
4.32291e-07
4.31841e-07
4.31436e-07
4.31079e-07
4.30769e-07
4.30511e-07
4.30308e-07
4.30163e-07
4.30079e-07
4.3006e-07
4.30107e-07
4.30225e-07
4.30416e-07
4.30687e-07
4.31043e-07
4.31498e-07
4.32069e-07
4.32807e-07
4.57058e-07
4.5701e-07
4.56914e-07
4.56769e-07
4.56575e-07
4.56333e-07
4.56044e-07
4.5571e-07
4.55332e-07
4.54913e-07
4.54455e-07
4.53959e-07
4.53429e-07
4.52866e-07
4.52272e-07
4.51651e-07
4.51004e-07
4.50334e-07
4.49645e-07
4.48939e-07
4.4822e-07
4.47487e-07
4.46745e-07
4.45996e-07
4.45238e-07
4.44478e-07
4.43726e-07
4.42981e-07
4.42238e-07
4.41497e-07
4.40768e-07
4.40059e-07
4.39371e-07
4.387e-07
4.38047e-07
4.3742e-07
4.36825e-07
4.36261e-07
4.35731e-07
4.35237e-07
4.34785e-07
4.34376e-07
4.34015e-07
4.33705e-07
4.33449e-07
4.33251e-07
4.33114e-07
4.33044e-07
4.33045e-07
4.33122e-07
4.33281e-07
4.33528e-07
4.33866e-07
4.34304e-07
4.34847e-07
4.35505e-07
4.36286e-07
4.37205e-07
4.38281e-07
4.39551e-07
4.56137e-07
4.56094e-07
4.56006e-07
4.55874e-07
4.55697e-07
4.55477e-07
4.55213e-07
4.54908e-07
4.54562e-07
4.54179e-07
4.53759e-07
4.53304e-07
4.52817e-07
4.52299e-07
4.51752e-07
4.51179e-07
4.50582e-07
4.49963e-07
4.49326e-07
4.48674e-07
4.48008e-07
4.4733e-07
4.46644e-07
4.45951e-07
4.4525e-07
4.44549e-07
4.43855e-07
4.43171e-07
4.42489e-07
4.4181e-07
4.41144e-07
4.40502e-07
4.39881e-07
4.39278e-07
4.38697e-07
4.38144e-07
4.37625e-07
4.37142e-07
4.36696e-07
4.36291e-07
4.35932e-07
4.35623e-07
4.35368e-07
4.35171e-07
4.35035e-07
4.34968e-07
4.34973e-07
4.35057e-07
4.35227e-07
4.35487e-07
4.35847e-07
4.36313e-07
4.36892e-07
4.37595e-07
4.38431e-07
4.39411e-07
4.40548e-07
4.41855e-07
4.43354e-07
4.45071e-07
4.5554e-07
4.55499e-07
4.55417e-07
4.55293e-07
4.55127e-07
4.5492e-07
4.54673e-07
4.54386e-07
4.54061e-07
4.537e-07
4.53305e-07
4.52876e-07
4.52417e-07
4.51928e-07
4.51412e-07
4.5087e-07
4.50306e-07
4.49721e-07
4.49118e-07
4.48501e-07
4.4787e-07
4.47229e-07
4.4658e-07
4.45924e-07
4.45262e-07
4.446e-07
4.43946e-07
4.43302e-07
4.42661e-07
4.42024e-07
4.41402e-07
4.40804e-07
4.40228e-07
4.39673e-07
4.3914e-07
4.38639e-07
4.38173e-07
4.37746e-07
4.37359e-07
4.37015e-07
4.36721e-07
4.36482e-07
4.363e-07
4.36182e-07
4.36133e-07
4.36158e-07
4.36263e-07
4.36457e-07
4.36745e-07
4.37136e-07
4.37638e-07
4.3826e-07
4.39012e-07
4.39905e-07
4.40951e-07
4.42163e-07
4.43555e-07
4.45144e-07
4.46948e-07
4.48988e-07
4.55246e-07
4.55207e-07
4.55128e-07
4.55008e-07
4.54847e-07
4.54646e-07
4.54407e-07
4.54129e-07
4.53814e-07
4.53464e-07
4.53081e-07
4.52665e-07
4.5222e-07
4.51745e-07
4.51244e-07
4.50718e-07
4.5017e-07
4.49601e-07
4.49015e-07
4.48415e-07
4.47803e-07
4.4718e-07
4.46549e-07
4.45913e-07
4.4527e-07
4.44626e-07
4.43992e-07
4.43369e-07
4.42749e-07
4.42134e-07
4.41533e-07
4.40957e-07
4.40405e-07
4.39874e-07
4.39366e-07
4.3889e-07
4.38452e-07
4.38053e-07
4.37696e-07
4.37384e-07
4.37124e-07
4.36921e-07
4.36778e-07
4.36701e-07
4.36695e-07
4.36767e-07
4.36925e-07
4.37175e-07
4.37525e-07
4.37983e-07
4.3856e-07
4.39263e-07
4.40105e-07
4.41097e-07
4.42253e-07
4.43586e-07
4.45113e-07
4.46848e-07
4.48814e-07
4.51024e-07
4.55247e-07
4.55207e-07
4.55128e-07
4.55008e-07
4.54847e-07
4.54647e-07
4.54407e-07
4.54129e-07
4.53814e-07
4.53465e-07
4.53081e-07
4.52665e-07
4.5222e-07
4.51745e-07
4.51244e-07
4.50718e-07
4.5017e-07
4.49601e-07
4.49015e-07
4.48416e-07
4.47803e-07
4.4718e-07
4.46549e-07
4.45913e-07
4.4527e-07
4.44627e-07
4.43993e-07
4.43369e-07
4.42749e-07
4.42134e-07
4.41533e-07
4.40957e-07
4.40405e-07
4.39874e-07
4.39366e-07
4.38891e-07
4.38452e-07
4.38054e-07
4.37696e-07
4.37385e-07
4.37125e-07
4.36921e-07
4.36778e-07
4.36701e-07
4.36695e-07
4.36768e-07
4.36925e-07
4.37175e-07
4.37525e-07
4.37984e-07
4.3856e-07
4.39264e-07
4.40106e-07
4.41098e-07
4.42254e-07
4.43587e-07
4.45114e-07
4.46849e-07
4.48815e-07
4.51025e-07
4.55541e-07
4.555e-07
4.55418e-07
4.55294e-07
4.55128e-07
4.54921e-07
4.54673e-07
4.54386e-07
4.54062e-07
4.53701e-07
4.53305e-07
4.52877e-07
4.52418e-07
4.51929e-07
4.51412e-07
4.50871e-07
4.50307e-07
4.49721e-07
4.49118e-07
4.48501e-07
4.47871e-07
4.4723e-07
4.46581e-07
4.45925e-07
4.45263e-07
4.446e-07
4.43947e-07
4.43302e-07
4.42662e-07
4.42025e-07
4.41403e-07
4.40804e-07
4.40229e-07
4.39674e-07
4.39141e-07
4.3864e-07
4.38174e-07
4.37747e-07
4.3736e-07
4.37017e-07
4.36723e-07
4.36483e-07
4.36302e-07
4.36184e-07
4.36135e-07
4.36159e-07
4.36265e-07
4.36458e-07
4.36747e-07
4.37138e-07
4.3764e-07
4.38262e-07
4.39014e-07
4.39907e-07
4.40954e-07
4.42165e-07
4.43558e-07
4.45146e-07
4.46951e-07
4.48991e-07
4.56138e-07
4.56094e-07
4.56007e-07
4.55875e-07
4.55698e-07
4.55478e-07
4.55214e-07
4.54909e-07
4.54563e-07
4.5418e-07
4.5376e-07
4.53305e-07
4.52818e-07
4.523e-07
4.51753e-07
4.5118e-07
4.50583e-07
4.49964e-07
4.49327e-07
4.48675e-07
4.48009e-07
4.47331e-07
4.46645e-07
4.45952e-07
4.45252e-07
4.4455e-07
4.43856e-07
4.43172e-07
4.4249e-07
4.41811e-07
4.41146e-07
4.40503e-07
4.39882e-07
4.3928e-07
4.38698e-07
4.38145e-07
4.37627e-07
4.37144e-07
4.36698e-07
4.36293e-07
4.35934e-07
4.35625e-07
4.3537e-07
4.35173e-07
4.35038e-07
4.3497e-07
4.34976e-07
4.3506e-07
4.35229e-07
4.3549e-07
4.3585e-07
4.36316e-07
4.36896e-07
4.37599e-07
4.38435e-07
4.39415e-07
4.40552e-07
4.4186e-07
4.43358e-07
4.45075e-07
4.57059e-07
4.57011e-07
4.56915e-07
4.5677e-07
4.56576e-07
4.56334e-07
4.56045e-07
4.55711e-07
4.55333e-07
4.54915e-07
4.54456e-07
4.53961e-07
4.5343e-07
4.52867e-07
4.52274e-07
4.51652e-07
4.51006e-07
4.50335e-07
4.49646e-07
4.48941e-07
4.48221e-07
4.47488e-07
4.46747e-07
4.45997e-07
4.45239e-07
4.4448e-07
4.43727e-07
4.42983e-07
4.4224e-07
4.41499e-07
4.4077e-07
4.40061e-07
4.39374e-07
4.38702e-07
4.38049e-07
4.37422e-07
4.36827e-07
4.36264e-07
4.35734e-07
4.3524e-07
4.34787e-07
4.34379e-07
4.34018e-07
4.33708e-07
4.33453e-07
4.33254e-07
4.33118e-07
4.33048e-07
4.33049e-07
4.33126e-07
4.33286e-07
4.33532e-07
4.33871e-07
4.34309e-07
4.34852e-07
4.3551e-07
4.36291e-07
4.37211e-07
4.38287e-07
4.39557e-07
4.58335e-07
4.58281e-07
4.58173e-07
4.58009e-07
4.57791e-07
4.57518e-07
4.57193e-07
4.56817e-07
4.56393e-07
4.55924e-07
4.55412e-07
4.54859e-07
4.54269e-07
4.53643e-07
4.52985e-07
4.52297e-07
4.51582e-07
4.50842e-07
4.50082e-07
4.49305e-07
4.48513e-07
4.47707e-07
4.46891e-07
4.46066e-07
4.45233e-07
4.44396e-07
4.43566e-07
4.42742e-07
4.4192e-07
4.41097e-07
4.40284e-07
4.39491e-07
4.38717e-07
4.37956e-07
4.37212e-07
4.3649e-07
4.35796e-07
4.35131e-07
4.34495e-07
4.3389e-07
4.33319e-07
4.32787e-07
4.32295e-07
4.31845e-07
4.3144e-07
4.31083e-07
4.30773e-07
4.30516e-07
4.30313e-07
4.30168e-07
4.30084e-07
4.30065e-07
4.30113e-07
4.30231e-07
4.30422e-07
4.30694e-07
4.3105e-07
4.31505e-07
4.32077e-07
4.32815e-07
4.60013e-07
4.5995e-07
4.59825e-07
4.59635e-07
4.59382e-07
4.59067e-07
4.58691e-07
4.58259e-07
4.57772e-07
4.57235e-07
4.5665e-07
4.5602e-07
4.5535e-07
4.54642e-07
4.53898e-07
4.53124e-07
4.52321e-07
4.51492e-07
4.50642e-07
4.49773e-07
4.48889e-07
4.47991e-07
4.47082e-07
4.46163e-07
4.45235e-07
4.44304e-07
4.43377e-07
4.42457e-07
4.41536e-07
4.40615e-07
4.39701e-07
4.38806e-07
4.37927e-07
4.3706e-07
4.36206e-07
4.35372e-07
4.34563e-07
4.33778e-07
4.33017e-07
4.32282e-07
4.31576e-07
4.30902e-07
4.30259e-07
4.29648e-07
4.29072e-07
4.28531e-07
4.28027e-07
4.27561e-07
4.27131e-07
4.26739e-07
4.26385e-07
4.26074e-07
4.25801e-07
4.2557e-07
4.25376e-07
4.25226e-07
4.25119e-07
4.25071e-07
4.25096e-07
4.25259e-07
4.62156e-07
4.62081e-07
4.61932e-07
4.61706e-07
4.61405e-07
4.61031e-07
4.60588e-07
4.60078e-07
4.59507e-07
4.58879e-07
4.58198e-07
4.57468e-07
4.56694e-07
4.5588e-07
4.55028e-07
4.54144e-07
4.53231e-07
4.52291e-07
4.51329e-07
4.50349e-07
4.49352e-07
4.48341e-07
4.4732e-07
4.46289e-07
4.45248e-07
4.44203e-07
4.43163e-07
4.42129e-07
4.41093e-07
4.40056e-07
4.39026e-07
4.38012e-07
4.37014e-07
4.36025e-07
4.35048e-07
4.34088e-07
4.33149e-07
4.32231e-07
4.31334e-07
4.30458e-07
4.29605e-07
4.28778e-07
4.27977e-07
4.27201e-07
4.26452e-07
4.25729e-07
4.2503e-07
4.24351e-07
4.2369e-07
4.23044e-07
4.22412e-07
4.21798e-07
4.21196e-07
4.20605e-07
4.20018e-07
4.19438e-07
4.1886e-07
4.183e-07
4.17769e-07
4.17344e-07
4.64854e-07
4.64762e-07
4.64578e-07
4.64302e-07
4.63933e-07
4.63477e-07
4.62939e-07
4.62324e-07
4.6164e-07
4.60892e-07
4.60087e-07
4.59228e-07
4.58323e-07
4.57376e-07
4.5639e-07
4.55371e-07
4.54323e-07
4.53248e-07
4.52151e-07
4.51037e-07
4.49907e-07
4.48763e-07
4.47609e-07
4.46446e-07
4.45274e-07
4.44097e-07
4.42925e-07
4.41759e-07
4.40592e-07
4.39423e-07
4.3826e-07
4.37113e-07
4.3598e-07
4.34856e-07
4.33742e-07
4.32644e-07
4.31564e-07
4.30504e-07
4.2946e-07
4.28433e-07
4.27424e-07
4.26434e-07
4.25461e-07
4.24505e-07
4.23564e-07
4.22637e-07
4.21725e-07
4.20829e-07
4.19945e-07
4.19074e-07
4.18203e-07
4.17317e-07
4.16406e-07
4.15476e-07
4.1452e-07
4.13538e-07
4.12518e-07
4.11474e-07
4.1042e-07
4.09438e-07
4.68235e-07
4.68116e-07
4.67879e-07
4.67525e-07
4.67056e-07
4.6648e-07
4.65806e-07
4.65044e-07
4.64206e-07
4.63299e-07
4.62332e-07
4.61311e-07
4.60244e-07
4.59135e-07
4.57988e-07
4.56808e-07
4.55601e-07
4.54368e-07
4.53116e-07
4.51848e-07
4.50565e-07
4.4927e-07
4.47966e-07
4.46654e-07
4.45334e-07
4.4401e-07
4.42691e-07
4.41378e-07
4.40066e-07
4.3875e-07
4.37441e-07
4.36147e-07
4.34867e-07
4.33597e-07
4.32336e-07
4.31091e-07
4.29865e-07
4.28659e-07
4.2747e-07
4.263e-07
4.25149e-07
4.24018e-07
4.22905e-07
4.21808e-07
4.20725e-07
4.19652e-07
4.18585e-07
4.17517e-07
4.16437e-07
4.15337e-07
4.14203e-07
4.13031e-07
4.11833e-07
4.10602e-07
4.09316e-07
4.07967e-07
4.06543e-07
4.05058e-07
4.0352e-07
4.02011e-07
4.72508e-07
4.72345e-07
4.72019e-07
4.71535e-07
4.70901e-07
4.70134e-07
4.69253e-07
4.68274e-07
4.67215e-07
4.66088e-07
4.64903e-07
4.63667e-07
4.62388e-07
4.61071e-07
4.59721e-07
4.58345e-07
4.56945e-07
4.55525e-07
4.5409e-07
4.52644e-07
4.51186e-07
4.4972e-07
4.48247e-07
4.46769e-07
4.45284e-07
4.43797e-07
4.42316e-07
4.40843e-07
4.3937e-07
4.37895e-07
4.36426e-07
4.34972e-07
4.33534e-07
4.32105e-07
4.30684e-07
4.29279e-07
4.27892e-07
4.26524e-07
4.25172e-07
4.23838e-07
4.22522e-07
4.21224e-07
4.19944e-07
4.18678e-07
4.17424e-07
4.16181e-07
4.14941e-07
4.13702e-07
4.12458e-07
4.11202e-07
4.09931e-07
4.08643e-07
4.07307e-07
4.05882e-07
4.04354e-07
4.02732e-07
4.01003e-07
3.99177e-07
3.97254e-07
3.95316e-07
4.77958e-07
4.77744e-07
4.77312e-07
4.76664e-07
4.75818e-07
4.74801e-07
4.73646e-07
4.72385e-07
4.71041e-07
4.69632e-07
4.68171e-07
4.66666e-07
4.65125e-07
4.63555e-07
4.6196e-07
4.60348e-07
4.5872e-07
4.57081e-07
4.55434e-07
4.53781e-07
4.52124e-07
4.50462e-07
4.48797e-07
4.4713e-07
4.45459e-07
4.43788e-07
4.42126e-07
4.40472e-07
4.38821e-07
4.37168e-07
4.35523e-07
4.33896e-07
4.32287e-07
4.3069e-07
4.29105e-07
4.27542e-07
4.26005e-07
4.24495e-07
4.23012e-07
4.21556e-07
4.20127e-07
4.18725e-07
4.17348e-07
4.1599e-07
4.14649e-07
4.13319e-07
4.11995e-07
4.10669e-07
4.09329e-07
4.07963e-07
4.06559e-07
4.05091e-07
4.03545e-07
4.01935e-07
4.00255e-07
3.98468e-07
3.96543e-07
3.94469e-07
3.92248e-07
3.89933e-07
4.84585e-07
4.84151e-07
4.83362e-07
4.82268e-07
4.80938e-07
4.79443e-07
4.77841e-07
4.76171e-07
4.74454e-07
4.727e-07
4.70917e-07
4.6911e-07
4.67285e-07
4.65449e-07
4.63606e-07
4.61759e-07
4.59912e-07
4.58062e-07
4.56213e-07
4.54365e-07
4.52517e-07
4.50668e-07
4.48819e-07
4.46968e-07
4.45115e-07
4.43261e-07
4.41415e-07
4.39578e-07
4.37739e-07
4.35897e-07
4.3406e-07
4.32239e-07
4.30434e-07
4.28639e-07
4.26852e-07
4.25082e-07
4.23336e-07
4.21618e-07
4.19933e-07
4.18285e-07
4.16682e-07
4.15127e-07
4.1362e-07
4.12158e-07
4.10739e-07
4.09353e-07
4.07997e-07
4.06658e-07
4.05332e-07
4.03998e-07
4.02657e-07
4.01282e-07
3.99871e-07
3.98353e-07
3.9673e-07
3.94956e-07
3.93054e-07
3.9095e-07
3.88684e-07
3.86195e-07
4.96269e-07
4.95517e-07
4.94099e-07
4.92141e-07
4.89848e-07
4.87418e-07
4.84975e-07
4.82571e-07
4.80209e-07
4.77876e-07
4.75563e-07
4.73269e-07
4.71e-07
4.6876e-07
4.66552e-07
4.64374e-07
4.62221e-07
4.6009e-07
4.57976e-07
4.55878e-07
4.53791e-07
4.51713e-07
4.49642e-07
4.47575e-07
4.4551e-07
4.43448e-07
4.41396e-07
4.39352e-07
4.37308e-07
4.35262e-07
4.33224e-07
4.31204e-07
4.292e-07
4.27209e-07
4.25235e-07
4.23287e-07
4.21378e-07
4.19512e-07
4.17698e-07
4.15939e-07
4.14243e-07
4.12603e-07
4.11022e-07
4.09484e-07
4.07998e-07
4.06545e-07
4.05143e-07
4.03763e-07
4.02433e-07
4.01098e-07
3.99805e-07
3.9846e-07
3.97155e-07
3.95757e-07
3.94375e-07
3.92779e-07
3.91196e-07
3.89288e-07
3.87422e-07
3.85015e-07
5.04958e-07
5.03228e-07
5.00578e-07
4.97444e-07
4.94217e-07
4.91109e-07
4.88169e-07
4.85362e-07
4.82638e-07
4.79966e-07
4.77339e-07
4.74763e-07
4.72246e-07
4.69785e-07
4.67376e-07
4.65008e-07
4.62673e-07
4.60363e-07
4.58073e-07
4.55799e-07
4.53536e-07
4.51281e-07
4.49029e-07
4.46776e-07
4.4452e-07
4.42266e-07
4.40016e-07
4.37762e-07
4.35497e-07
4.33223e-07
4.30956e-07
4.28703e-07
4.26461e-07
4.24216e-07
4.2196e-07
4.19695e-07
4.17443e-07
4.1523e-07
4.13101e-07
4.11086e-07
4.09219e-07
4.07495e-07
4.05925e-07
4.04472e-07
4.03149e-07
4.01901e-07
4.00762e-07
3.99657e-07
3.98659e-07
3.9764e-07
3.96723e-07
3.95703e-07
3.94804e-07
3.93645e-07
3.92723e-07
3.91342e-07
3.90487e-07
3.88731e-07
3.88127e-07
3.85371e-07
5.52979e-07
5.38853e-07
5.25079e-07
5.14492e-07
5.07055e-07
5.01647e-07
4.97176e-07
4.93072e-07
4.89169e-07
4.85472e-07
4.8202e-07
4.78816e-07
4.75825e-07
4.72999e-07
4.70291e-07
4.67667e-07
4.65107e-07
4.62596e-07
4.60125e-07
4.57685e-07
4.55269e-07
4.52867e-07
4.50472e-07
4.48082e-07
4.45695e-07
4.4331e-07
4.40921e-07
4.38526e-07
4.36127e-07
4.33727e-07
4.31329e-07
4.28937e-07
4.26555e-07
4.24178e-07
4.21807e-07
4.19449e-07
4.1712e-07
4.14847e-07
4.12661e-07
4.10585e-07
4.08633e-07
4.06806e-07
4.05098e-07
4.03498e-07
4.02003e-07
4.00605e-07
3.99317e-07
3.98127e-07
3.97058e-07
3.9606e-07
3.95172e-07
3.94261e-07
3.93453e-07
3.92433e-07
3.91639e-07
3.90205e-07
3.89616e-07
3.86999e-07
3.87742e-07
3.80572e-07
4.11932e-07
3.58646e-07
3.33732e-07
3.14807e-07
2.97199e-07
2.79962e-07
2.61073e-07
2.40895e-07
2.17987e-07
1.93097e-07
1.65295e-07
1.3616e-07
1.05244e-07
7.47034e-08
4.37673e-08
1.53544e-08
-1.2122e-08
-3.51052e-08
-5.60617e-08
-7.11809e-08
-8.40016e-08
-9.02437e-08
-9.50111e-08
-9.26408e-08
-9.08359e-08
-7.98919e-08
-7.47552e-08
-5.58638e-08
-4.8933e-08
-8.5266e-08
3.94849e-07
3.38855e-07
3.20799e-07
3.05807e-07
2.8948e-07
2.72438e-07
2.53947e-07
2.34064e-07
2.11386e-07
1.86874e-07
1.59733e-07
1.31476e-07
1.01674e-07
7.23787e-08
4.26858e-08
1.54971e-08
-1.09874e-08
-3.31336e-08
-5.36884e-08
-6.86419e-08
-8.18386e-08
-8.8505e-08
-9.44305e-08
-9.29051e-08
-9.28278e-08
-8.37566e-08
-7.84168e-08
-6.66473e-08
-4.4488e-08
-1.12421e-07
3.80727e-07
3.36515e-07
3.2013e-07
3.0567e-07
2.88884e-07
2.71195e-07
2.51766e-07
2.3124e-07
2.08382e-07
1.83788e-07
1.56765e-07
1.28676e-07
9.91781e-08
7.02525e-08
4.09621e-08
1.4277e-08
-1.18587e-08
-3.35842e-08
-5.39644e-08
-6.86139e-08
-8.19141e-08
-8.85476e-08
-9.46647e-08
-9.36411e-08
-9.3193e-08
-8.63543e-08
-7.93098e-08
-7.5267e-08
-4.13348e-08
-8.8707e-08
3.69465e-07
3.32503e-07
3.14437e-07
3.00379e-07
2.8419e-07
2.66733e-07
2.47599e-07
2.27113e-07
2.042e-07
1.79515e-07
1.52578e-07
1.24653e-07
9.5458e-08
6.68573e-08
3.79816e-08
1.16776e-08
-1.39931e-08
-3.54338e-08
-5.54441e-08
-7.01781e-08
-8.31643e-08
-9.03203e-08
-9.58169e-08
-9.60922e-08
-9.43196e-08
-9.05446e-08
-7.95248e-08
-8.10174e-08
-4.49401e-08
-7.39316e-08
3.58894e-07
3.29252e-07
3.11193e-07
2.98078e-07
2.82479e-07
2.64579e-07
2.4485e-07
2.23684e-07
2.00437e-07
1.75453e-07
1.48465e-07
1.20471e-07
9.14373e-08
6.28749e-08
3.43443e-08
8.0582e-09
-1.71709e-08
-3.87629e-08
-5.8202e-08
-7.34388e-08
-8.57276e-08
-9.38437e-08
-9.82868e-08
-9.99221e-08
-9.6266e-08
-9.41677e-08
-8.06077e-08
-8.15204e-08
-5.21215e-08
-5.92367e-08
3.49775e-07
3.26632e-07
3.08863e-07
2.95044e-07
2.7947e-07
2.61506e-07
2.41565e-07
2.1997e-07
1.96425e-07
1.71133e-07
1.44026e-07
1.1587e-07
8.69181e-08
5.82361e-08
2.99794e-08
3.5282e-09
-2.12377e-08
-4.31615e-08
-6.20482e-08
-7.79086e-08
-8.95343e-08
-9.85254e-08
-1.02116e-07
-1.04665e-07
-9.98035e-08
-9.78702e-08
-8.41685e-08
-8.0894e-08
-5.9855e-08
-5.38145e-08
3.42456e-07
3.24222e-07
3.07056e-07
2.92328e-07
2.76663e-07
2.5859e-07
2.38395e-07
2.16304e-07
1.92326e-07
1.6664e-07
1.39306e-07
1.10889e-07
8.19323e-08
5.30494e-08
2.49926e-08
-1.66592e-09
-2.60764e-08
-4.83164e-08
-6.6868e-08
-8.31369e-08
-9.44593e-08
-1.0399e-07
-1.07342e-07
-1.10149e-07
-1.05246e-07
-1.02309e-07
-9.00353e-08
-8.28942e-08
-6.65992e-08
-5.49629e-08
3.36993e-07
3.21879e-07
3.05422e-07
2.8994e-07
2.73928e-07
2.55618e-07
2.35089e-07
2.12505e-07
1.88018e-07
1.61884e-07
1.34241e-07
1.05503e-07
7.6455e-08
4.73444e-08
1.93797e-08
-7.45508e-09
-3.16922e-08
-5.41157e-08
-7.25694e-08
-8.9061e-08
-1.00483e-07
-1.10183e-07
-1.13922e-07
-1.16549e-07
-1.12432e-07
-1.08259e-07
-9.75107e-08
-8.7644e-08
-7.31513e-08
-5.93475e-08
3.33159e-07
3.19575e-07
3.03821e-07
2.87834e-07
2.7126e-07
2.52558e-07
2.31597e-07
2.0852e-07
1.83478e-07
1.5684e-07
1.28812e-07
9.97007e-08
7.04702e-08
4.11244e-08
1.313e-08
-1.38263e-08
-3.80734e-08
-6.05576e-08
-7.91523e-08
-9.5731e-08
-1.07556e-07
-1.17352e-07
-1.21705e-07
-1.24122e-07
-1.20969e-07
-1.16086e-07
-1.06251e-07
-9.51666e-08
-8.08785e-08
-6.65055e-08
3.30532e-07
3.17408e-07
3.02168e-07
2.85856e-07
2.68605e-07
2.49372e-07
2.27878e-07
2.04284e-07
1.7866e-07
1.51457e-07
1.22982e-07
9.34428e-08
6.39453e-08
3.43606e-08
6.21994e-09
-2.08097e-08
-4.52064e-08
-6.77069e-08
-8.65688e-08
-1.03227e-07
-1.15554e-07
-1.25445e-07
-1.30598e-07
-1.33069e-07
-1.30764e-07
-1.25782e-07
-1.16453e-07
-1.04971e-07
-9.05771e-08
-7.58495e-08
3.28656e-07
3.15479e-07
3.00429e-07
2.83827e-07
2.65871e-07
2.4601e-07
2.23896e-07
1.99727e-07
1.73502e-07
1.45668e-07
1.16691e-07
8.66743e-08
5.68271e-08
2.70018e-08
-1.38333e-09
-2.84722e-08
-5.30795e-08
-7.5641e-08
-9.47925e-08
-1.11614e-07
-1.24492e-07
-1.34654e-07
-1.40608e-07
-1.4349e-07
-1.41933e-07
-1.37287e-07
-1.28438e-07
-1.16971e-07
-1.0253e-07
-8.75589e-08
3.27151e-07
3.13777e-07
2.9859e-07
2.81619e-07
2.62955e-07
2.42402e-07
2.19604e-07
1.94775e-07
1.67921e-07
1.39392e-07
1.09852e-07
7.93199e-08
4.90371e-08
1.89653e-08
-9.72409e-09
-3.69142e-08
-6.17114e-08
-8.44223e-08
-1.0386e-07
-1.20923e-07
-1.34384e-07
-1.45021e-07
-1.51766e-07
-1.55398e-07
-1.54669e-07
-1.50673e-07
-1.42465e-07
-1.31318e-07
-1.16984e-07
-1.01999e-07
3.25774e-07
3.12179e-07
2.96625e-07
2.79151e-07
2.59771e-07
2.38474e-07
2.14945e-07
1.89349e-07
1.61812e-07
1.32531e-07
1.02344e-07
7.12718e-08
4.04754e-08
1.01259e-08
-1.88706e-08
-4.6248e-08
-7.11897e-08
-9.40971e-08
-1.13845e-07
-1.312e-07
-1.45247e-07
-1.56559e-07
-1.6414e-07
-1.68746e-07
-1.69116e-07
-1.66063e-07
-1.5877e-07
-1.48267e-07
-1.34319e-07
-1.19521e-07
3.24405e-07
3.1053e-07
2.94475e-07
2.76391e-07
2.56268e-07
2.34158e-07
2.09834e-07
1.83361e-07
1.55042e-07
1.24958e-07
9.40273e-08
6.23789e-08
3.10213e-08
3.22354e-10
-2.89418e-08
-5.65792e-08
-8.16601e-08
-1.04741e-07
-1.24814e-07
-1.42524e-07
-1.57123e-07
-1.69242e-07
-1.77789e-07
-1.83531e-07
-1.85262e-07
-1.8355e-07
-1.77504e-07
-1.68097e-07
-1.54933e-07
-1.40703e-07
3.23013e-07
3.08738e-07
2.9212e-07
2.73345e-07
2.52423e-07
2.29389e-07
2.04161e-07
1.76699e-07
1.47458e-07
1.1651e-07
8.47412e-08
5.24491e-08
2.05203e-08
-1.06173e-08
-4.01216e-08
-6.80204e-08
-9.3273e-08
-1.16487e-07
-1.36837e-07
-1.54955e-07
-1.70089e-07
-1.83046e-07
-1.9271e-07
-1.99768e-07
-2.0308e-07
-2.03119e-07
-1.9877e-07
-1.90938e-07
-1.79148e-07
-1.6597e-07
3.21674e-07
3.06819e-07
2.89576e-07
2.70015e-07
2.48183e-07
2.24079e-07
1.97778e-07
1.69208e-07
1.38886e-07
1.06979e-07
7.4301e-08
4.12672e-08
8.76541e-09
-2.28634e-08
-5.26257e-08
-8.07278e-08
-1.06155e-07
-1.29484e-07
-1.50026e-07
-1.68532e-07
-1.84209e-07
-1.97985e-07
-2.08835e-07
-2.17415e-07
-2.22536e-07
-2.24708e-07
-2.22613e-07
-2.16961e-07
-2.07213e-07
-1.9573e-07
3.20521e-07
3.04852e-07
2.8685e-07
2.66361e-07
2.43444e-07
2.1809e-07
1.90505e-07
1.60675e-07
1.29121e-07
9.61216e-08
6.24705e-08
2.86051e-08
-4.49656e-09
-3.66095e-08
-6.66597e-08
-9.48991e-08
-1.20439e-07
-1.43851e-07
-1.64505e-07
-1.83308e-07
-1.995e-07
-2.14076e-07
-2.26107e-07
-2.36339e-07
-2.43522e-07
-2.48195e-07
-2.48949e-07
-2.4627e-07
-2.39452e-07
-2.30602e-07
3.19648e-07
3.02899e-07
2.83902e-07
2.62262e-07
2.38017e-07
2.11198e-07
1.82102e-07
1.50826e-07
1.17895e-07
8.36582e-08
4.89535e-08
1.42039e-08
-1.95437e-08
-5.20993e-08
-8.24322e-08
-1.10748e-07
-1.36308e-07
-1.59706e-07
-1.80392e-07
-1.99347e-07
-2.1597e-07
-2.31268e-07
-2.44469e-07
-2.56357e-07
-2.65823e-07
-2.73309e-07
-2.77516e-07
-2.7868e-07
-2.76069e-07
-2.71334e-07
3.1899e-07
3.00895e-07
2.80551e-07
2.57448e-07
2.31591e-07
2.03068e-07
1.72237e-07
1.39311e-07
1.04846e-07
6.92464e-08
3.33891e-08
-2.26609e-09
-3.66963e-08
-6.964e-08
-1.00215e-07
-1.28516e-07
-1.54009e-07
-1.77218e-07
-1.9784e-07
-2.16719e-07
-2.33649e-07
-2.49442e-07
-2.63781e-07
-2.77191e-07
-2.89091e-07
-2.99563e-07
-3.07799e-07
-3.13582e-07
-3.16563e-07
-3.1772e-07
3.18201e-07
2.98523e-07
2.76454e-07
2.51526e-07
2.23745e-07
1.93258e-07
1.60459e-07
1.25676e-07
8.94992e-08
5.24276e-08
1.53146e-08
-2.1251e-08
-5.63809e-08
-8.96344e-08
-1.20396e-07
-1.48533e-07
-1.73879e-07
-1.9665e-07
-2.17083e-07
-2.35554e-07
-2.52603e-07
-2.68479e-07
-2.83793e-07
-2.98403e-07
-3.12737e-07
-3.26164e-07
-3.3884e-07
-3.49849e-07
-3.5967e-07
-3.68447e-07
3.16815e-07
2.95279e-07
2.71121e-07
2.43997e-07
2.13944e-07
1.81189e-07
1.46151e-07
1.0929e-07
7.12047e-08
3.25549e-08
-5.90309e-09
-4.33671e-08
-7.91814e-08
-1.12631e-07
-1.43488e-07
-1.71265e-07
-1.96337e-07
-2.18402e-07
-2.38437e-07
-2.56127e-07