/*--------------------------------*- C++ -*----------------------------------*\
| =========                 |                                                 |
| \\      /  F ield         | OpenFOAM: The Open Source CFD Toolbox           |
|  \\    /   O peration     | Version:  2312                                  |
|   \\  /    A nd           | Website:  www.openfoam.com                      |
|    \\/     M anipulation  |                                                 |
\*---------------------------------------------------------------------------*/
FoamFile
{
    version     2.0;
    format      ascii;
    arch        "LSB;label=32;scalar=64";
    class       volVectorField;
    location    "19000";
    object      U;
}
// * * * * * * * * * * * * * * * * * * * * * * * * * * * * * * * * * * * * * //

dimensions      [0 1 -1 0 0 0 0];

internalField   nonuniform List<vector> 
2685
(
(0.00043574 -5.70934e-09 0)
(0.000435745 -4.92232e-09 0)
(0.000435749 -4.22502e-09 0)
(0.000435753 -3.61229e-09 0)
(0.000435757 -3.07434e-09 0)
(0.00043576 -2.60404e-09 0)
(0.000435763 -2.19448e-09 0)
(0.000435765 -1.83924e-09 0)
(0.000435767 -1.53237e-09 0)
(0.000435769 -1.2684e-09 0)
(0.000435771 -1.04246e-09 0)
(0.000435773 -8.50028e-10 0)
(0.000435774 -6.86945e-10 0)
(0.000435775 -5.49531e-10 0)
(0.000435776 -4.34581e-10 0)
(0.000435777 -3.3901e-10 0)
(0.000435778 -2.5985e-10 0)
(0.000435779 -1.94679e-10 0)
(0.00043578 -1.41591e-10 0)
(0.00043578 -9.87414e-11 0)
(0.000435781 -6.43655e-11 0)
(0.000435781 -3.71071e-11 0)
(0.000435782 -1.59298e-11 0)
(0.000435782 3.15908e-13 0)
(0.000435782 1.28748e-11 0)
(0.000435783 2.26486e-11 0)
(0.000435783 2.99775e-11 0)
(0.000435783 3.50367e-11 0)
(0.000435783 3.82239e-11 0)
(0.000435783 4.01689e-11 0)
(0.000435784 4.1408e-11 0)
(0.000435784 4.22129e-11 0)
(0.000435784 4.26581e-11 0)
(0.000435784 4.27839e-11 0)
(0.000435784 4.26862e-11 0)
(0.000435784 4.24224e-11 0)
(0.000435784 4.19975e-11 0)
(0.000435784 4.13215e-11 0)
(0.000435784 4.03566e-11 0)
(0.000435784 3.91038e-11 0)
(0.000435784 3.76265e-11 0)
(0.000435784 3.59703e-11 0)
(0.000435784 3.41511e-11 0)
(0.000435785 3.21982e-11 0)
(0.000435785 3.01128e-11 0)
(0.000435785 2.79509e-11 0)
(0.000435785 2.5711e-11 0)
(0.000435785 2.34698e-11 0)
(0.000435785 2.12435e-11 0)
(0.000435785 1.91231e-11 0)
(0.000435785 1.71437e-11 0)
(0.000435785 1.53589e-11 0)
(0.000435785 1.3797e-11 0)
(0.000435785 1.24473e-11 0)
(0.000435785 1.13219e-11 0)
(0.000435785 1.03721e-11 0)
(0.000435785 9.60493e-12 0)
(0.000435785 8.94246e-12 0)
(0.000435785 8.42387e-12 0)
(0.000435785 7.92659e-12 0)
(0.000435785 7.54967e-12 0)
(0.000435785 7.16806e-12 0)
(0.000435785 6.82696e-12 0)
(0.000435785 6.58351e-12 0)
(0.000435785 6.23883e-12 0)
(0.000435785 6.07698e-12 0)
(0.000435785 5.8322e-12 0)
(0.000435785 5.58786e-12 0)
(0.000435785 5.54019e-12 0)
(0.000435785 5.25268e-12 0)
(0.000435785 5.19066e-12 0)
(0.000435785 5.13413e-12 0)
(0.000435785 4.88726e-12 0)
(0.000435785 4.95377e-12 0)
(0.000435785 4.84326e-12 0)
(0.000435785 4.62016e-12 0)
(0.000435785 4.67826e-12 0)
(0.000435785 4.44814e-12 0)
(0.000435785 4.24072e-12 0)
(0.000435785 4.18422e-12 0)
(0.000435785 3.92877e-12 0)
(0.000435785 3.66363e-12 0)
(0.000435785 3.54606e-12 0)
(0.000435785 3.24435e-12 0)
(0.000435785 3.01869e-12 0)
(0.000435785 2.77228e-12 0)
(0.000435785 2.58967e-12 0)
(0.000435785 2.33907e-12 0)
(0.000435785 2.13591e-12 0)
(0.000888136 -1.65095e-08 0)
(0.000888143 -1.48148e-08 0)
(0.000888148 -1.33185e-08 0)
(0.000888154 -1.19912e-08 0)
(0.000888158 -1.08095e-08 0)
(0.000888162 -9.75382e-09 0)
(0.000888166 -8.80769e-09 0)
(0.00088817 -7.9575e-09 0)
(0.000888173 -7.19177e-09 0)
(0.000888175 -6.50076e-09 0)
(0.000888178 -5.8762e-09 0)
(0.00088818 -5.311e-09 0)
(0.000888182 -4.79899e-09 0)
(0.000888184 -4.33487e-09 0)
(0.000888186 -3.91399e-09 0)
(0.000888187 -3.53216e-09 0)
(0.000888189 -3.18568e-09 0)
(0.00088819 -2.87127e-09 0)
(0.000888191 -2.58596e-09 0)
(0.000888192 -2.32709e-09 0)
(0.000888193 -2.09239e-09 0)
(0.000888194 -1.87981e-09 0)
(0.000888195 -1.68747e-09 0)
(0.000888195 -1.51359e-09 0)
(0.000888196 -1.35648e-09 0)
(0.000888196 -1.21443e-09 0)
(0.000888197 -1.08605e-09 0)
(0.000888197 -9.70281e-10 0)
(0.000888198 -8.66226e-10 0)
(0.000888198 -7.72796e-10 0)
(0.000888198 -6.88671e-10 0)
(0.000888199 -6.12828e-10 0)
(0.000888199 -5.44413e-10 0)
(0.000888199 -4.83021e-10 0)
(0.000888199 -4.27946e-10 0)
(0.0008882 -3.78642e-10 0)
(0.0008882 -3.34285e-10 0)
(0.0008882 -2.94247e-10 0)
(0.0008882 -2.58162e-10 0)
(0.0008882 -2.25568e-10 0)
(0.0008882 -1.96619e-10 0)
(0.0008882 -1.70837e-10 0)
(0.0008882 -1.48315e-10 0)
(0.000888201 -1.28546e-10 0)
(0.000888201 -1.11061e-10 0)
(0.000888201 -9.56706e-11 0)
(0.000888201 -8.15892e-11 0)
(0.000888201 -6.91094e-11 0)
(0.000888201 -5.7833e-11 0)
(0.000888201 -4.79254e-11 0)
(0.000888201 -3.96547e-11 0)
(0.000888201 -3.2587e-11 0)
(0.000888201 -2.71506e-11 0)
(0.000888201 -2.2829e-11 0)
(0.000888201 -1.94596e-11 0)
(0.000888201 -1.7073e-11 0)
(0.000888201 -1.49549e-11 0)
(0.000888201 -1.33873e-11 0)
(0.000888201 -1.1933e-11 0)
(0.000888201 -1.04692e-11 0)
(0.000888201 -9.23342e-12 0)
(0.000888201 -7.76485e-12 0)
(0.000888201 -6.42178e-12 0)
(0.000888201 -5.11052e-12 0)
(0.000888201 -3.61121e-12 0)
(0.000888201 -2.42695e-12 0)
(0.000888201 -1.09312e-12 0)
(0.000888201 1.69849e-13 0)
(0.000888201 1.19285e-12 0)
(0.000888201 2.34575e-12 0)
(0.000888201 3.3492e-12 0)
(0.000888201 4.1704e-12 0)
(0.000888201 5.13358e-12 0)
(0.000888201 5.86012e-12 0)
(0.000888201 6.575e-12 0)
(0.000888201 7.26554e-12 0)
(0.000888201 7.84733e-12 0)
(0.000888201 8.39194e-12 0)
(0.000888201 8.95244e-12 0)
(0.000888201 9.31375e-12 0)
(0.000888201 9.77599e-12 0)
(0.000888201 1.01371e-11 0)
(0.000888201 1.04115e-11 0)
(0.000888201 1.06683e-11 0)
(0.000888201 1.09319e-11 0)
(0.000888201 1.10484e-11 0)
(0.000888201 1.11706e-11 0)
(0.000888201 1.12548e-11 0)
(0.000888201 1.13089e-11 0)
(0.00102236 -3.75281e-08 0)
(0.00102236 -3.36175e-08 0)
(0.00102237 -3.01032e-08 0)
(0.00102238 -2.69448e-08 0)
(0.00102238 -2.41116e-08 0)
(0.00102238 -2.1572e-08 0)
(0.00102239 -1.92968e-08 0)
(0.00102239 -1.72595e-08 0)
(0.0010224 -1.54361e-08 0)
(0.0010224 -1.38047e-08 0)
(0.0010224 -1.23456e-08 0)
(0.0010224 -1.10409e-08 0)
(0.00102241 -9.87459e-09 0)
(0.00102241 -8.83217e-09 0)
(0.00102241 -7.90069e-09 0)
(0.00102241 -7.06843e-09 0)
(0.00102241 -6.32483e-09 0)
(0.00102241 -5.66042e-09 0)
(0.00102242 -5.06665e-09 0)
(0.00102242 -4.53586e-09 0)
(0.00102242 -4.06131e-09 0)
(0.00102242 -3.63697e-09 0)
(0.00102242 -3.25738e-09 0)
(0.00102242 -2.91769e-09 0)
(0.00102242 -2.61365e-09 0)
(0.00102242 -2.34133e-09 0)
(0.00102242 -2.09714e-09 0)
(0.00102242 -1.87809e-09 0)
(0.00102242 -1.68166e-09 0)
(0.00102242 -1.50562e-09 0)
(0.00102242 -1.34761e-09 0)
(0.00102242 -1.20564e-09 0)
(0.00102242 -1.07789e-09 0)
(0.00102242 -9.63038e-10 0)
(0.00102242 -8.59784e-10 0)
(0.00102242 -7.66941e-10 0)
(0.00102242 -6.83532e-10 0)
(0.00102242 -6.08445e-10 0)
(0.00102243 -5.41093e-10 0)
(0.00102243 -4.80467e-10 0)
(0.00102243 -4.2611e-10 0)
(0.00102243 -3.77347e-10 0)
(0.00102243 -3.33632e-10 0)
(0.00102243 -2.94815e-10 0)
(0.00102243 -2.60099e-10 0)
(0.00102243 -2.29466e-10 0)
(0.00102243 -2.02123e-10 0)
(0.00102243 -1.77703e-10 0)
(0.00102243 -1.56007e-10 0)
(0.00102243 -1.36325e-10 0)
(0.00102243 -1.1896e-10 0)
(0.00102243 -1.03432e-10 0)
(0.00102243 -8.97711e-11 0)
(0.00102243 -7.81448e-11 0)
(0.00102243 -6.79811e-11 0)
(0.00102243 -5.96504e-11 0)
(0.00102243 -5.26034e-11 0)
(0.00102243 -4.66543e-11 0)
(0.00102243 -4.18221e-11 0)
(0.00102243 -3.74425e-11 0)
(0.00102243 -3.37083e-11 0)
(0.00102243 -3.0314e-11 0)
(0.00102243 -2.69524e-11 0)
(0.00102243 -2.40275e-11 0)
(0.00102243 -2.09522e-11 0)
(0.00102243 -1.80773e-11 0)
(0.00102243 -1.53854e-11 0)
(0.00102243 -1.26021e-11 0)
(0.00102243 -1.00971e-11 0)
(0.00102243 -7.73925e-12 0)
(0.00102243 -5.322e-12 0)
(0.00102243 -3.34667e-12 0)
(0.00102243 -1.27747e-12 0)
(0.00102243 5.44403e-13 0)
(0.00102243 2.20148e-12 0)
(0.00102243 3.78442e-12 0)
(0.00102243 5.26533e-12 0)
(0.00102243 6.45854e-12 0)
(0.00102243 7.81817e-12 0)
(0.00102243 8.799e-12 0)
(0.00102243 9.88415e-12 0)
(0.00102243 1.07498e-11 0)
(0.00102243 1.1657e-11 0)
(0.00102243 1.22581e-11 0)
(0.00102243 1.30828e-11 0)
(0.00102243 1.34632e-11 0)
(0.00102243 1.41528e-11 0)
(0.00102243 1.43386e-11 0)
(0.00102243 1.49915e-11 0)
(0.00104998 -4.36929e-08 0)
(0.00104998 -3.95291e-08 0)
(0.00104998 -3.57523e-08 0)
(0.00104998 -3.2329e-08 0)
(0.00104998 -2.92303e-08 0)
(0.00104999 -2.64269e-08 0)
(0.00104999 -2.38915e-08 0)
(0.00104999 -2.15986e-08 0)
(0.00104999 -1.95252e-08 0)
(0.00104999 -1.76501e-08 0)
(0.00104999 -1.5954e-08 0)
(0.00104999 -1.44198e-08 0)
(0.00104999 -1.30318e-08 0)
(0.00104999 -1.17759e-08 0)
(0.00104999 -1.06394e-08 0)
(0.00105 -9.61101e-09 0)
(0.00105 -8.68038e-09 0)
(0.00105 -7.83828e-09 0)
(0.00105 -7.07639e-09 0)
(0.00105 -6.38709e-09 0)
(0.00105 -5.76357e-09 0)
(0.00105 -5.19973e-09 0)
(0.00105 -4.68998e-09 0)
(0.00105 -4.22923e-09 0)
(0.00105 -3.81292e-09 0)
(0.00105 -3.43692e-09 0)
(0.00105 -3.09729e-09 0)
(0.00105 -2.7905e-09 0)
(0.00105 -2.51345e-09 0)
(0.00105 -2.26342e-09 0)
(0.00105 -2.03775e-09 0)
(0.00105 -1.83401e-09 0)
(0.00105 -1.64999e-09 0)
(0.00105 -1.48387e-09 0)
(0.00105 -1.33395e-09 0)
(0.00105 -1.1986e-09 0)
(0.00105 -1.07648e-09 0)
(0.00105 -9.66202e-10 0)
(0.00105 -8.66769e-10 0)
(0.00105 -7.77059e-10 0)
(0.00105 -6.9618e-10 0)
(0.00105 -6.23306e-10 0)
(0.00105 -5.57562e-10 0)
(0.00105 -4.98468e-10 0)
(0.00105 -4.45212e-10 0)
(0.00105 -3.97422e-10 0)
(0.00105 -3.54504e-10 0)
(0.00105 -3.15894e-10 0)
(0.00105 -2.81336e-10 0)
(0.00105 -2.50153e-10 0)
(0.00105 -2.22231e-10 0)
(0.00105 -1.97202e-10 0)
(0.00105 -1.74733e-10 0)
(0.00105 -1.54925e-10 0)
(0.00105 -1.3726e-10 0)
(0.00105 -1.21841e-10 0)
(0.00105 -1.08382e-10 0)
(0.00105 -9.65438e-11 0)
(0.00105 -8.63512e-11 0)
(0.00105 -7.73172e-11 0)
(0.00105 -6.93129e-11 0)
(0.00105 -6.22699e-11 0)
(0.00105 -5.5691e-11 0)
(0.00105 -4.98452e-11 0)
(0.00105 -4.43259e-11 0)
(0.00105 -3.91716e-11 0)
(0.00105 -3.44388e-11 0)
(0.00105 -2.99239e-11 0)
(0.00105 -2.56751e-11 0)
(0.00105 -2.18684e-11 0)
(0.00105 -1.80607e-11 0)
(0.00105 -1.47668e-11 0)
(0.00105 -1.15501e-11 0)
(0.00105 -8.62e-12 0)
(0.00105 -5.87244e-12 0)
(0.00105 -3.42712e-12 0)
(0.00105 -9.54088e-13 0)
(0.00105 1.00375e-12 0)
(0.00105 3.17006e-12 0)
(0.00105 4.82131e-12 0)
(0.00105 6.65181e-12 0)
(0.00105 8.00879e-12 0)
(0.00105 9.67989e-12 0)
(0.00105 1.0662e-11 0)
(0.00105 1.22289e-11 0)
(0.00105 1.29189e-11 0)
(0.00105 1.43793e-11 0)
(0.00105 1.47418e-11 0)
(0.00105 1.62313e-11 0)
(0.00105429 -4.53673e-08 0)
(0.00105429 -4.16021e-08 0)
(0.0010543 -3.80754e-08 0)
(0.0010543 -3.47901e-08 0)
(0.0010543 -3.17438e-08 0)
(0.0010543 -2.89299e-08 0)
(0.0010543 -2.63386e-08 0)
(0.00105431 -2.39584e-08 0)
(0.00105431 -2.1777e-08 0)
(0.00105431 -1.97814e-08 0)
(0.00105431 -1.79586e-08 0)
(0.00105431 -1.62959e-08 0)
(0.00105431 -1.47811e-08 0)
(0.00105431 -1.34023e-08 0)
(0.00105431 -1.21484e-08 0)
(0.00105432 -1.10088e-08 0)
(0.00105432 -9.9739e-09 0)
(0.00105432 -9.0344e-09 0)
(0.00105432 -8.18192e-09 0)
(0.00105432 -7.40862e-09 0)
(0.00105432 -6.70728e-09 0)
(0.00105432 -6.07133e-09 0)
(0.00105432 -5.49474e-09 0)
(0.00105432 -4.972e-09 0)
(0.00105432 -4.49812e-09 0)
(0.00105432 -4.06861e-09 0)
(0.00105432 -3.67934e-09 0)
(0.00105432 -3.32648e-09 0)
(0.00105432 -3.00665e-09 0)
(0.00105432 -2.71685e-09 0)
(0.00105432 -2.45434e-09 0)
(0.00105432 -2.21653e-09 0)
(0.00105432 -2.00109e-09 0)
(0.00105432 -1.80596e-09 0)
(0.00105432 -1.62927e-09 0)
(0.00105432 -1.46926e-09 0)
(0.00105432 -1.32439e-09 0)
(0.00105432 -1.19324e-09 0)
(0.00105432 -1.07458e-09 0)
(0.00105432 -9.67248e-10 0)
(0.00105432 -8.7016e-10 0)
(0.00105432 -7.82399e-10 0)
(0.00105432 -7.03032e-10 0)
(0.00105432 -6.31367e-10 0)
(0.00105432 -5.66654e-10 0)
(0.00105432 -5.08316e-10 0)
(0.00105432 -4.55799e-10 0)
(0.00105432 -4.08501e-10 0)
(0.00105432 -3.65994e-10 0)
(0.00105432 -3.27711e-10 0)
(0.00105432 -2.93242e-10 0)
(0.00105432 -2.62255e-10 0)
(0.00105432 -2.3431e-10 0)
(0.00105432 -2.09313e-10 0)
(0.00105432 -1.86896e-10 0)
(0.00105432 -1.66934e-10 0)
(0.00105432 -1.49244e-10 0)
(0.00105432 -1.33532e-10 0)
(0.00105432 -1.19662e-10 0)
(0.00105432 -1.07388e-10 0)
(0.00105432 -9.63907e-11 0)
(0.00105432 -8.66538e-11 0)
(0.00105432 -7.77484e-11 0)
(0.00105432 -6.9735e-11 0)
(0.00105432 -6.23443e-11 0)
(0.00105432 -5.55371e-11 0)
(0.00105432 -4.92203e-11 0)
(0.00105432 -4.34031e-11 0)
(0.00105432 -3.78639e-11 0)
(0.00105432 -3.28995e-11 0)
(0.00105432 -2.80612e-11 0)
(0.00105432 -2.37546e-11 0)
(0.00105432 -1.96059e-11 0)
(0.00105432 -1.58858e-11 0)
(0.00105432 -1.22685e-11 0)
(0.00105432 -9.1751e-12 0)
(0.00105432 -5.96777e-12 0)
(0.00105432 -3.39939e-12 0)
(0.00105432 -5.94366e-13 0)
(0.00105432 1.55371e-12 0)
(0.00105432 4.02358e-12 0)
(0.00105432 5.76322e-12 0)
(0.00105432 8.05387e-12 0)
(0.00105432 9.34908e-12 0)
(0.00105432 1.15151e-11 0)
(0.00105432 1.24275e-11 0)
(0.00105432 1.45189e-11 0)
(0.00105432 1.50013e-11 0)
(0.00105432 1.71667e-11 0)
(0.00105487 -5.05477e-08 0)
(0.00105487 -4.62372e-08 0)
(0.00105487 -4.22473e-08 0)
(0.00105487 -3.85651e-08 0)
(0.00105487 -3.51754e-08 0)
(0.00105487 -3.20613e-08 0)
(0.00105487 -2.92052e-08 0)
(0.00105487 -2.65894e-08 0)
(0.00105487 -2.41965e-08 0)
(0.00105487 -2.20097e-08 0)
(0.00105487 -2.00129e-08 0)
(0.00105487 -1.81908e-08 0)
(0.00105487 -1.65293e-08 0)
(0.00105487 -1.50148e-08 0)
(0.00105487 -1.36351e-08 0)
(0.00105487 -1.23787e-08 0)
(0.00105487 -1.12351e-08 0)
(0.00105487 -1.01945e-08 0)
(0.00105487 -9.24797e-09 0)
(0.00105487 -8.38737e-09 0)
(0.00105487 -7.60514e-09 0)
(0.00105487 -6.89441e-09 0)
(0.00105487 -6.24885e-09 0)
(0.00105487 -5.66266e-09 0)
(0.00105487 -5.13053e-09 0)
(0.00105487 -4.64763e-09 0)
(0.00105487 -4.20952e-09 0)
(0.00105487 -3.81208e-09 0)
(0.00105487 -3.45154e-09 0)
(0.00105487 -3.12453e-09 0)
(0.00105487 -2.82799e-09 0)
(0.00105487 -2.55908e-09 0)
(0.00105487 -2.31523e-09 0)
(0.00105487 -2.09411e-09 0)
(0.00105487 -1.89363e-09 0)
(0.00105487 -1.71186e-09 0)
(0.00105487 -1.54705e-09 0)
(0.00105487 -1.39766e-09 0)
(0.00105487 -1.26228e-09 0)
(0.00105487 -1.13964e-09 0)
(0.00105487 -1.02853e-09 0)
(0.00105487 -9.27906e-10 0)
(0.00105487 -8.36774e-10 0)
(0.00105487 -7.54283e-10 0)
(0.00105487 -6.79631e-10 0)
(0.00105487 -6.12113e-10 0)
(0.00105487 -5.51102e-10 0)
(0.00105487 -4.95988e-10 0)
(0.00105487 -4.46226e-10 0)
(0.00105487 -4.01298e-10 0)
(0.00105487 -3.60698e-10 0)
(0.00105487 -3.24062e-10 0)
(0.00105487 -2.90944e-10 0)
(0.00105487 -2.61114e-10 0)
(0.00105487 -2.34239e-10 0)
(0.00105487 -2.10106e-10 0)
(0.00105487 -1.88488e-10 0)
(0.00105487 -1.69154e-10 0)
(0.00105487 -1.51849e-10 0)
(0.00105487 -1.36428e-10 0)
(0.00105487 -1.22529e-10 0)
(0.00105487 -1.1011e-10 0)
(0.00105487 -9.8817e-11 0)
(0.00105487 -8.86207e-11 0)
(0.00105487 -7.92666e-11 0)
(0.00105487 -7.07525e-11 0)
(0.00105487 -6.28411e-11 0)
(0.00105487 -5.56643e-11 0)
(0.00105487 -4.88791e-11 0)
(0.00105487 -4.27913e-11 0)
(0.00105487 -3.69646e-11 0)
(0.00105487 -3.17623e-11 0)
(0.00105487 -2.67598e-11 0)
(0.00105487 -2.23478e-11 0)
(0.00105487 -1.7985e-11 0)
(0.00105487 -1.42947e-11 0)
(0.00105487 -1.0461e-11 0)
(0.00105487 -7.36385e-12 0)
(0.00105487 -3.97757e-12 0)
(0.00105487 -1.39466e-12 0)
(0.00105487 1.66353e-12 0)
(0.00105487 3.74188e-12 0)
(0.00105487 6.58803e-12 0)
(0.00105487 8.1749e-12 0)
(0.00105487 1.09005e-11 0)
(0.00105487 1.20151e-11 0)
(0.00105487 1.4728e-11 0)
(0.00105487 1.53158e-11 0)
(0.00105487 1.81688e-11 0)
(0.00105492 -4.46166e-08 0)
(0.00105492 -4.13653e-08 0)
(0.00105492 -3.82742e-08 0)
(0.00105492 -3.53505e-08 0)
(0.00105492 -3.25977e-08 0)
(0.00105492 -3.00159e-08 0)
(0.00105492 -2.76026e-08 0)
(0.00105492 -2.53535e-08 0)
(0.00105492 -2.3263e-08 0)
(0.00105492 -2.13243e-08 0)
(0.00105492 -1.95302e-08 0)
(0.00105492 -1.78728e-08 0)
(0.00105492 -1.63443e-08 0)
(0.00105492 -1.49366e-08 0)
(0.00105492 -1.36419e-08 0)
(0.00105492 -1.24524e-08 0)
(0.00105492 -1.13607e-08 0)
(0.00105492 -1.03597e-08 0)
(0.00105492 -9.44255e-09 0)
(0.00105493 -8.60286e-09 0)
(0.00105493 -7.83456e-09 0)
(0.00105493 -7.13197e-09 0)
(0.00105493 -6.48982e-09 0)
(0.00105493 -5.9032e-09 0)
(0.00105493 -5.36755e-09 0)
(0.00105493 -4.87871e-09 0)
(0.00105493 -4.43281e-09 0)
(0.00105493 -4.02627e-09 0)
(0.00105493 -3.65575e-09 0)
(0.00105493 -3.31821e-09 0)
(0.00105493 -3.01086e-09 0)
(0.00105493 -2.73111e-09 0)
(0.00105493 -2.47657e-09 0)
(0.00105493 -2.24506e-09 0)
(0.00105493 -2.03457e-09 0)
(0.00105493 -1.84322e-09 0)
(0.00105493 -1.66931e-09 0)
(0.00105493 -1.51131e-09 0)
(0.00105493 -1.36781e-09 0)
(0.00105493 -1.23753e-09 0)
(0.00105493 -1.11925e-09 0)
(0.00105493 -1.01191e-09 0)
(0.00105493 -9.14506e-10 0)
(0.00105493 -8.26157e-10 0)
(0.00105493 -7.46049e-10 0)
(0.00105493 -6.73453e-10 0)
(0.00105493 -6.07706e-10 0)
(0.00105493 -5.48207e-10 0)
(0.00105493 -4.94369e-10 0)
(0.00105493 -4.45686e-10 0)
(0.00105493 -4.01632e-10 0)
(0.00105493 -3.61808e-10 0)
(0.00105493 -3.25773e-10 0)
(0.00105493 -2.93234e-10 0)
(0.00105493 -2.63843e-10 0)
(0.00105493 -2.37364e-10 0)
(0.00105493 -2.13514e-10 0)
(0.00105493 -1.92093e-10 0)
(0.00105493 -1.72795e-10 0)
(0.00105493 -1.55497e-10 0)
(0.00105493 -1.39847e-10 0)
(0.00105493 -1.25783e-10 0)
(0.00105493 -1.12977e-10 0)
(0.00105493 -1.01401e-10 0)
(0.00105493 -9.07649e-11 0)
(0.00105493 -8.11249e-11 0)
(0.00105493 -7.216e-11 0)
(0.00105493 -6.40544e-11 0)
(0.00105493 -5.64203e-11 0)
(0.00105493 -4.95637e-11 0)
(0.00105493 -4.30254e-11 0)
(0.00105493 -3.71991e-11 0)
(0.00105493 -3.15671e-11 0)
(0.00105493 -2.66343e-11 0)
(0.00105493 -2.17145e-11 0)
(0.00105493 -1.7561e-11 0)
(0.00105493 -1.32355e-11 0)
(0.00105493 -9.73252e-12 0)
(0.00105493 -5.88257e-12 0)
(0.00105493 -2.97798e-12 0)
(0.00105493 5.2601e-13 0)
(0.00105493 2.8691e-12 0)
(0.00105493 6.14969e-12 0)
(0.00105493 7.95801e-12 0)
(0.00105493 1.11319e-11 0)
(0.00105493 1.2408e-11 0)
(0.00105493 1.56159e-11 0)
(0.00105493 1.62921e-11 0)
(0.00105493 1.9705e-11 0)
(0.00105495 -5.04873e-08 0)
(0.00105495 -4.62741e-08 0)
(0.00105494 -4.23801e-08 0)
(0.00105494 -3.87866e-08 0)
(0.00105494 -3.54749e-08 0)
(0.00105494 -3.24267e-08 0)
(0.00105494 -2.96244e-08 0)
(0.00105494 -2.70507e-08 0)
(0.00105494 -2.46894e-08 0)
(0.00105494 -2.25247e-08 0)
(0.00105494 -2.05418e-08 0)
(0.00105494 -1.87268e-08 0)
(0.00105493 -1.70665e-08 0)
(0.00105493 -1.55486e-08 0)
(0.00105493 -1.41617e-08 0)
(0.00105493 -1.2895e-08 0)
(0.00105493 -1.17388e-08 0)
(0.00105493 -1.06838e-08 0)
(0.00105493 -9.72148e-09 0)
(0.00105493 -8.84416e-09 0)
(0.00105493 -8.04456e-09 0)
(0.00105493 -7.31602e-09 0)
(0.00105493 -6.65243e-09 0)
(0.00105493 -6.04812e-09 0)
(0.00105493 -5.49788e-09 0)
(0.00105493 -4.99697e-09 0)
(0.00105493 -4.54101e-09 0)
(0.00105493 -4.12602e-09 0)
(0.00105493 -3.74833e-09 0)
(0.00105493 -3.40459e-09 0)
(0.00105493 -3.09179e-09 0)
(0.00105493 -2.80716e-09 0)
(0.00105493 -2.54818e-09 0)
(0.00105493 -2.31259e-09 0)
(0.00105493 -2.09828e-09 0)
(0.00105493 -1.90335e-09 0)
(0.00105493 -1.72606e-09 0)
(0.00105493 -1.56485e-09 0)
(0.00105493 -1.4183e-09 0)
(0.00105493 -1.28512e-09 0)
(0.00105493 -1.16409e-09 0)
(0.00105493 -1.05412e-09 0)
(0.00105493 -9.54241e-10 0)
(0.00105493 -8.63543e-10 0)
(0.00105493 -7.8121e-10 0)
(0.00105493 -7.06508e-10 0)
(0.00105493 -6.38751e-10 0)
(0.00105493 -5.77344e-10 0)
(0.00105493 -5.21687e-10 0)
(0.00105493 -4.71279e-10 0)
(0.00105493 -4.25596e-10 0)
(0.00105493 -3.84232e-10 0)
(0.00105493 -3.46749e-10 0)
(0.00105493 -3.12839e-10 0)
(0.00105493 -2.82136e-10 0)
(0.00105493 -2.54404e-10 0)
(0.00105493 -2.29325e-10 0)
(0.00105493 -2.06715e-10 0)
(0.00105493 -1.86249e-10 0)
(0.00105493 -1.67816e-10 0)
(0.00105493 -1.51069e-10 0)
(0.00105493 -1.35954e-10 0)
(0.00105493 -1.22148e-10 0)
(0.00105493 -1.09647e-10 0)
(0.00105493 -9.81327e-11 0)
(0.00105493 -8.77063e-11 0)
(0.00105493 -7.80045e-11 0)
(0.00105493 -6.92396e-11 0)
(0.00105493 -6.09992e-11 0)
(0.00105493 -5.36035e-11 0)
(0.00105493 -4.65548e-11 0)
(0.00105493 -4.02976e-11 0)
(0.00105493 -3.423e-11 0)
(0.00105493 -2.89451e-11 0)
(0.00105493 -2.36574e-11 0)
(0.00105493 -1.92078e-11 0)
(0.00105493 -1.45584e-11 0)
(0.00105493 -1.08125e-11 0)
(0.00105493 -6.65029e-12 0)
(0.00105493 -3.54311e-12 0)
(0.00105493 2.8031e-13 0)
(0.00105493 2.81268e-12 0)
(0.00105493 6.42296e-12 0)
(0.00105493 8.38904e-12 0)
(0.00105493 1.19244e-11 0)
(0.00105493 1.33165e-11 0)
(0.00105493 1.69285e-11 0)
(0.00105493 1.7673e-11 0)
(0.00105493 2.15531e-11 0)
(0.00105494 -4.04583e-08 0)
(0.00105494 -3.75333e-08 0)
(0.00105494 -3.47844e-08 0)
(0.00105494 -3.22042e-08 0)
(0.00105494 -2.97855e-08 0)
(0.00105494 -2.75213e-08 0)
(0.00105494 -2.5405e-08 0)
(0.00105494 -2.34297e-08 0)
(0.00105494 -2.15888e-08 0)
(0.00105494 -1.98753e-08 0)
(0.00105494 -1.82828e-08 0)
(0.00105494 -1.68046e-08 0)
(0.00105494 -1.54342e-08 0)
(0.00105494 -1.41652e-08 0)
(0.00105494 -1.29915e-08 0)
(0.00105494 -1.1907e-08 0)
(0.00105493 -1.0906e-08 0)
(0.00105493 -9.9829e-09 0)
(0.00105493 -9.13245e-09 0)
(0.00105493 -8.34958e-09 0)
(0.00105493 -7.62953e-09 0)
(0.00105493 -6.96779e-09 0)
(0.00105493 -6.36013e-09 0)
(0.00105493 -5.80258e-09 0)
(0.00105493 -5.29139e-09 0)
(0.00105493 -4.82307e-09 0)
(0.00105493 -4.39435e-09 0)
(0.00105493 -4.00214e-09 0)
(0.00105493 -3.64358e-09 0)
(0.00105493 -3.31597e-09 0)
(0.00105493 -3.01679e-09 0)
(0.00105493 -2.74371e-09 0)
(0.00105493 -2.49457e-09 0)
(0.00105493 -2.26737e-09 0)
(0.00105493 -2.06026e-09 0)
(0.00105493 -1.87151e-09 0)
(0.00105493 -1.69954e-09 0)
(0.00105493 -1.54293e-09 0)
(0.00105493 -1.40033e-09 0)
(0.00105493 -1.27055e-09 0)
(0.00105493 -1.15245e-09 0)
(0.00105493 -1.045e-09 0)
(0.00105493 -9.47285e-10 0)
(0.00105493 -8.58434e-10 0)
(0.00105493 -7.77672e-10 0)
(0.00105493 -7.043e-10 0)
(0.00105493 -6.37658e-10 0)
(0.00105493 -5.77179e-10 0)
(0.00105493 -5.2229e-10 0)
(0.00105493 -4.72517e-10 0)
(0.00105493 -4.27366e-10 0)
(0.00105493 -3.8645e-10 0)
(0.00105493 -3.49342e-10 0)
(0.00105493 -3.15745e-10 0)
(0.00105493 -2.85286e-10 0)
(0.00105493 -2.57735e-10 0)
(0.00105493 -2.3276e-10 0)
(0.00105493 -2.10183e-10 0)
(0.00105493 -1.89675e-10 0)
(0.00105493 -1.71134e-10 0)
(0.00105493 -1.5422e-10 0)
(0.00105493 -1.38896e-10 0)
(0.00105493 -1.24844e-10 0)
(0.00105493 -1.12087e-10 0)
(0.00105493 -1.00298e-10 0)
(0.00105493 -8.96123e-11 0)
(0.00105493 -7.96492e-11 0)
(0.00105493 -7.06474e-11 0)
(0.00105493 -6.21753e-11 0)
(0.00105493 -5.45813e-11 0)
(0.00105493 -4.7329e-11 0)
(0.00105493 -4.0911e-11 0)
(0.00105493 -3.46642e-11 0)
(0.00105493 -2.92428e-11 0)
(0.00105493 -2.37906e-11 0)
(0.00105493 -1.92177e-11 0)
(0.00105493 -1.44017e-11 0)
(0.00105493 -1.05414e-11 0)
(0.00105493 -6.19716e-12 0)
(0.00105493 -2.98209e-12 0)
(0.00105493 1.03633e-12 0)
(0.00105493 3.66858e-12 0)
(0.00105493 7.4936e-12 0)
(0.00105493 9.54926e-12 0)
(0.00105493 1.33358e-11 0)
(0.00105493 1.47991e-11 0)
(0.00105493 1.87086e-11 0)
(0.00105493 1.94982e-11 0)
(0.00105493 2.37356e-11 0)
(0.00105496 -4.45945e-08 0)
(0.00105496 -4.0795e-08 0)
(0.00105496 -3.73106e-08 0)
(0.00105495 -3.41155e-08 0)
(0.00105495 -3.11858e-08 0)
(0.00105495 -2.85003e-08 0)
(0.00105495 -2.60392e-08 0)
(0.00105495 -2.37846e-08 0)
(0.00105495 -2.17199e-08 0)
(0.00105494 -1.98297e-08 0)
(0.00105494 -1.81001e-08 0)
(0.00105494 -1.65179e-08 0)
(0.00105494 -1.50711e-08 0)
(0.00105494 -1.37486e-08 0)
(0.00105494 -1.25402e-08 0)
(0.00105494 -1.14363e-08 0)
(0.00105494 -1.04282e-08 0)
(0.00105494 -9.50782e-09 0)
(0.00105494 -8.66774e-09 0)
(0.00105494 -7.90108e-09 0)
(0.00105494 -7.20155e-09 0)
(0.00105494 -6.56334e-09 0)
(0.00105494 -5.98111e-09 0)
(0.00105494 -5.44997e-09 0)
(0.00105493 -4.96544e-09 0)
(0.00105493 -4.52342e-09 0)
(0.00105493 -4.12016e-09 0)
(0.00105493 -3.75226e-09 0)
(0.00105493 -3.41665e-09 0)
(0.00105493 -3.11049e-09 0)
(0.00105493 -2.83121e-09 0)
(0.00105493 -2.57648e-09 0)
(0.00105493 -2.34417e-09 0)
(0.00105493 -2.13232e-09 0)
(0.00105493 -1.93917e-09 0)
(0.00105493 -1.7631e-09 0)
(0.00105493 -1.60261e-09 0)
(0.00105493 -1.45636e-09 0)
(0.00105493 -1.32311e-09 0)
(0.00105493 -1.20173e-09 0)
(0.00105493 -1.09118e-09 0)
(0.00105493 -9.90537e-10 0)
(0.00105493 -8.98917e-10 0)
(0.00105493 -8.1554e-10 0)
(0.00105493 -7.39682e-10 0)
(0.00105493 -6.707e-10 0)
(0.00105493 -6.07981e-10 0)
(0.00105493 -5.51003e-10 0)
(0.00105493 -4.99239e-10 0)
(0.00105493 -4.52264e-10 0)
(0.00105493 -4.09628e-10 0)
(0.00105493 -3.70981e-10 0)
(0.00105493 -3.35923e-10 0)
(0.00105493 -3.04177e-10 0)
(0.00105493 -2.75375e-10 0)
(0.00105493 -2.49294e-10 0)
(0.00105493 -2.25597e-10 0)
(0.00105493 -2.04113e-10 0)
(0.00105493 -1.84517e-10 0)
(0.00105493 -1.66721e-10 0)
(0.00105493 -1.50397e-10 0)
(0.00105493 -1.35537e-10 0)
(0.00105493 -1.21833e-10 0)
(0.00105493 -1.09347e-10 0)
(0.00105493 -9.7754e-11 0)
(0.00105493 -8.72255e-11 0)
(0.00105493 -7.73789e-11 0)
(0.00105493 -6.8481e-11 0)
(0.00105493 -6.00879e-11 0)
(0.00105493 -5.25785e-11 0)
(0.00105493 -4.53863e-11 0)
(0.00105493 -3.90432e-11 0)
(0.00105493 -3.28437e-11 0)
(0.00105493 -2.74861e-11 0)
(0.00105493 -2.20637e-11 0)
(0.00105493 -1.75419e-11 0)
(0.00105493 -1.27318e-11 0)
(0.00105493 -8.90747e-12 0)
(0.00105493 -4.53952e-12 0)
(0.00105493 -1.34278e-12 0)
(0.00105493 2.73014e-12 0)
(0.00105493 5.36527e-12 0)
(0.00105493 9.28742e-12 0)
(0.00105493 1.13599e-11 0)
(0.00105493 1.52867e-11 0)
(0.00105493 1.67741e-11 0)
(0.00105493 2.08701e-11 0)
(0.00105493 2.16789e-11 0)
(0.00105493 2.6158e-11 0)
(0.00105496 -3.21246e-08 0)
(0.00105496 -2.97245e-08 0)
(0.00105495 -2.75036e-08 0)
(0.00105495 -2.54447e-08 0)
(0.00105495 -2.35337e-08 0)
(0.00105495 -2.17582e-08 0)
(0.00105495 -2.01076e-08 0)
(0.00105495 -1.85727e-08 0)
(0.00105495 -1.71453e-08 0)
(0.00105494 -1.58179e-08 0)
(0.00105494 -1.4584e-08 0)
(0.00105494 -1.34374e-08 0)
(0.00105494 -1.23725e-08 0)
(0.00105494 -1.13842e-08 0)
(0.00105494 -1.04675e-08 0)
(0.00105494 -9.61796e-09 0)
(0.00105494 -8.83123e-09 0)
(0.00105494 -8.10329e-09 0)
(0.00105494 -7.43036e-09 0)
(0.00105494 -6.80885e-09 0)
(0.00105494 -6.23538e-09 0)
(0.00105494 -5.70677e-09 0)
(0.00105494 -5.21998e-09 0)
(0.00105494 -4.77216e-09 0)
(0.00105494 -4.36058e-09 0)
(0.00105494 -3.98263e-09 0)
(0.00105494 -3.63585e-09 0)
(0.00105494 -3.31792e-09 0)
(0.00105493 -3.02668e-09 0)
(0.00105493 -2.76004e-09 0)
(0.00105493 -2.51606e-09 0)
(0.00105493 -2.29292e-09 0)
(0.00105493 -2.08896e-09 0)
(0.00105493 -1.90257e-09 0)
(0.00105493 -1.73232e-09 0)
(0.00105493 -1.57687e-09 0)
(0.00105493 -1.43498e-09 0)
(0.00105493 -1.30551e-09 0)
(0.00105493 -1.18737e-09 0)
(0.00105493 -1.07962e-09 0)
(0.00105493 -9.81371e-10 0)
(0.00105493 -8.91823e-10 0)
(0.00105493 -8.10222e-10 0)
(0.00105493 -7.35884e-10 0)
(0.00105493 -6.68176e-10 0)
(0.00105493 -6.06535e-10 0)
(0.00105493 -5.50413e-10 0)
(0.00105493 -4.99364e-10 0)
(0.00105493 -4.52933e-10 0)
(0.00105493 -4.10776e-10 0)
(0.00105493 -3.72512e-10 0)
(0.00105493 -3.37854e-10 0)
(0.00105493 -3.06446e-10 0)
(0.00105493 -2.78038e-10 0)
(0.00105493 -2.52274e-10 0)
(0.00105493 -2.28935e-10 0)
(0.00105493 -2.07682e-10 0)
(0.00105493 -1.88348e-10 0)
(0.00105493 -1.70614e-10 0)
(0.00105493 -1.54413e-10 0)
(0.00105493 -1.39437e-10 0)
(0.00105493 -1.25713e-10 0)
(0.00105493 -1.1296e-10 0)
(0.00105493 -1.01281e-10 0)
(0.00105493 -9.03718e-11 0)
(0.00105493 -8.04403e-11 0)
(0.00105493 -7.11133e-11 0)
(0.00105493 -6.26875e-11 0)
(0.00105493 -5.47152e-11 0)
(0.00105493 -4.76023e-11 0)
(0.00105493 -4.07642e-11 0)
(0.00105493 -3.47617e-11 0)
(0.00105493 -2.88619e-11 0)
(0.00105493 -2.37937e-11 0)
(0.00105493 -1.86155e-11 0)
(0.00105493 -1.43324e-11 0)
(0.00105493 -9.70922e-12 0)
(0.00105493 -6.06981e-12 0)
(0.00105493 -1.82864e-12 0)
(0.00105493 1.23064e-12 0)
(0.00105493 5.23329e-12 0)
(0.00105493 7.78053e-12 0)
(0.00105493 1.16859e-11 0)
(0.00105493 1.37063e-11 0)
(0.00105493 1.76668e-11 0)
(0.00105493 1.91303e-11 0)
(0.00105493 2.33074e-11 0)
(0.00105493 2.41094e-11 0)
(0.00105493 2.87202e-11 0)
(0.00105497 -3.29547e-08 0)
(0.00105497 -3.00657e-08 0)
(0.00105497 -2.74315e-08 0)
(0.00105496 -2.50289e-08 0)
(0.00105496 -2.28367e-08 0)
(0.00105496 -2.08361e-08 0)
(0.00105496 -1.90103e-08 0)
(0.00105495 -1.73439e-08 0)
(0.00105495 -1.58232e-08 0)
(0.00105495 -1.44355e-08 0)
(0.00105495 -1.31693e-08 0)
(0.00105495 -1.20143e-08 0)
(0.00105495 -1.09608e-08 0)
(0.00105494 -9.99995e-09 0)
(0.00105494 -9.12381e-09 0)
(0.00105494 -8.32492e-09 0)
(0.00105494 -7.59652e-09 0)
(0.00105494 -6.93236e-09 0)
(0.00105494 -6.32671e-09 0)
(0.00105494 -5.77434e-09 0)
(0.00105494 -5.27048e-09 0)
(0.00105494 -4.81074e-09 0)
(0.00105494 -4.39115e-09 0)
(0.00105494 -4.00811e-09 0)
(0.00105494 -3.65833e-09 0)
(0.00105494 -3.33881e-09 0)
(0.00105494 -3.04688e-09 0)
(0.00105494 -2.78014e-09 0)
(0.00105494 -2.53642e-09 0)
(0.00105494 -2.31369e-09 0)
(0.00105493 -2.11015e-09 0)
(0.00105493 -1.92416e-09 0)
(0.00105493 -1.75423e-09 0)
(0.00105493 -1.59895e-09 0)
(0.00105493 -1.45709e-09 0)
(0.00105493 -1.32755e-09 0)
(0.00105493 -1.20927e-09 0)
(0.00105493 -1.10126e-09 0)
(0.00105493 -1.00262e-09 0)
(0.00105493 -9.12565e-10 0)
(0.00105493 -8.30386e-10 0)
(0.00105493 -7.55431e-10 0)
(0.00105493 -6.87078e-10 0)
(0.00105493 -6.24756e-10 0)
(0.00105493 -5.67933e-10 0)
(0.00105493 -5.16128e-10 0)
(0.00105493 -4.6888e-10 0)
(0.00105493 -4.25836e-10 0)
(0.00105493 -3.86643e-10 0)
(0.00105493 -3.51061e-10 0)
(0.00105493 -3.18805e-10 0)
(0.00105493 -2.89664e-10 0)
(0.00105493 -2.63333e-10 0)
(0.00105493 -2.39594e-10 0)
(0.00105493 -2.18095e-10 0)
(0.00105493 -1.98617e-10 0)
(0.00105493 -1.80816e-10 0)
(0.00105493 -1.64529e-10 0)
(0.00105493 -1.49447e-10 0)
(0.00105493 -1.35535e-10 0)
(0.00105493 -1.22517e-10 0)
(0.00105493 -1.10468e-10 0)
(0.00105493 -9.91481e-11 0)
(0.00105493 -8.87072e-11 0)
(0.00105493 -7.8877e-11 0)
(0.00105493 -6.99045e-11 0)
(0.00105493 -6.14353e-11 0)
(0.00105493 -5.37941e-11 0)
(0.00105493 -4.65371e-11 0)
(0.00105493 -4.00909e-11 0)
(0.00105493 -3.38624e-11 0)
(0.00105493 -2.84312e-11 0)
(0.00105493 -2.30494e-11 0)