/*--------------------------------*- C++ -*----------------------------------*\
| =========                 |                                                 |
| \\      /  F ield         | OpenFOAM: The Open Source CFD Toolbox           |
|  \\    /   O peration     | Version:  2312                                  |
|   \\  /    A nd           | Website:  www.openfoam.com                      |
|    \\/     M anipulation  |                                                 |
\*---------------------------------------------------------------------------*/
FoamFile
{
    version     2.0;
    format      ascii;
    arch        "LSB;label=32;scalar=64";
    class       volScalarField;
    location    "158000";
    object      p;
}
// * * * * * * * * * * * * * * * * * * * * * * * * * * * * * * * * * * * * * //

dimensions      [0 2 -2 0 0 0 0];

internalField   nonuniform List<scalar> 
10800
(
6.06174e-07
5.92046e-07
5.78268e-07
5.67674e-07
5.60229e-07
5.5481e-07
5.50326e-07
5.46209e-07
5.42291e-07
5.38578e-07
5.35108e-07
5.31886e-07
5.28877e-07
5.26031e-07
5.23303e-07
5.20658e-07
5.18076e-07
5.15543e-07
5.13047e-07
5.10581e-07
5.08135e-07
5.05702e-07
5.03274e-07
5.00846e-07
4.98413e-07
4.95972e-07
4.93518e-07
4.91048e-07
4.88561e-07
4.86055e-07
4.83527e-07
4.80977e-07
4.78404e-07
4.75807e-07
4.73185e-07
4.70538e-07
4.67866e-07
4.65169e-07
4.62448e-07
4.59702e-07
4.56932e-07
4.54138e-07
4.5132e-07
4.48477e-07
4.4561e-07
4.42717e-07
4.398e-07
4.36853e-07
4.33881e-07
4.30867e-07
4.27835e-07
4.24731e-07
4.21638e-07
4.18381e-07
4.15268e-07
4.11649e-07
4.08805e-07
4.03876e-07
4.03055e-07
3.91911e-07
5.58166e-07
5.56434e-07
5.53779e-07
5.50639e-07
5.47403e-07
5.44283e-07
5.41329e-07
5.38506e-07
5.35764e-07
5.33071e-07
5.30422e-07
5.27822e-07
5.25278e-07
5.2279e-07
5.20352e-07
5.17954e-07
5.15586e-07
5.13241e-07
5.10913e-07
5.08597e-07
5.06288e-07
5.03983e-07
5.01676e-07
4.99365e-07
4.97046e-07
4.94717e-07
4.92374e-07
4.90016e-07
4.87641e-07
4.85247e-07
4.82833e-07
4.80397e-07
4.77939e-07
4.75457e-07
4.72953e-07
4.70424e-07
4.67872e-07
4.65294e-07
4.62694e-07
4.60066e-07
4.57418e-07
4.54739e-07
4.52045e-07
4.49312e-07
4.46573e-07
4.43785e-07
4.41004e-07
4.38156e-07
4.3534e-07
4.32427e-07
4.29596e-07
4.26618e-07
4.23824e-07
4.208e-07
4.18178e-07
4.1517e-07
4.13051e-07
4.10142e-07
4.0914e-07
4.05914e-07
5.49515e-07
5.4876e-07
5.47336e-07
5.4537e-07
5.43066e-07
5.40621e-07
5.38161e-07
5.35737e-07
5.33352e-07
5.30992e-07
5.28649e-07
5.26322e-07
5.24017e-07
5.21738e-07
5.19487e-07
5.17262e-07
5.1506e-07
5.12874e-07
5.107e-07
5.08534e-07
5.06373e-07
5.04214e-07
5.02053e-07
4.99889e-07
4.97718e-07
4.95539e-07
4.93349e-07
4.91146e-07
4.88929e-07
4.86696e-07
4.84446e-07
4.82178e-07
4.79892e-07
4.77586e-07
4.7526e-07
4.72912e-07
4.70545e-07
4.68153e-07
4.65743e-07
4.63307e-07
4.60853e-07
4.5837e-07
4.55873e-07
4.53342e-07
4.50801e-07
4.4822e-07
4.45638e-07
4.43007e-07
4.40389e-07
4.37709e-07
4.35067e-07
4.32342e-07
4.29693e-07
4.26931e-07
4.2431e-07
4.21522e-07
4.18977e-07
4.16168e-07
4.13741e-07
4.10826e-07
5.37878e-07
5.37442e-07
5.36646e-07
5.35543e-07
5.34201e-07
5.3269e-07
5.31068e-07
5.29375e-07
5.2763e-07
5.25846e-07
5.24028e-07
5.22182e-07
5.20314e-07
5.18429e-07
5.16534e-07
5.1463e-07
5.1272e-07
5.10803e-07
5.08879e-07
5.06947e-07
5.05007e-07
5.03057e-07
5.01098e-07
4.99128e-07
4.97146e-07
4.95152e-07
4.93145e-07
4.91123e-07
4.89087e-07
4.87036e-07
4.84969e-07
4.82885e-07
4.80785e-07
4.78667e-07
4.76532e-07
4.74378e-07
4.72207e-07
4.70017e-07
4.67808e-07
4.65579e-07
4.63332e-07
4.61063e-07
4.58775e-07
4.56461e-07
4.5413e-07
4.51768e-07
4.49387e-07
4.4697e-07
4.44533e-07
4.42051e-07
4.39549e-07
4.36993e-07
4.34418e-07
4.31779e-07
4.29128e-07
4.264e-07
4.2367e-07
4.20848e-07
4.18029e-07
4.15118e-07
5.31332e-07
5.31115e-07
5.30676e-07
5.30018e-07
5.29157e-07
5.28122e-07
5.26945e-07
5.25657e-07
5.24282e-07
5.22838e-07
5.21337e-07
5.19788e-07
5.18197e-07
5.16571e-07
5.14917e-07
5.13238e-07
5.11539e-07
5.09821e-07
5.08087e-07
5.06339e-07
5.04576e-07
5.02799e-07
5.01009e-07
4.99206e-07
4.9739e-07
4.95562e-07
4.93721e-07
4.91867e-07
4.9e-07
4.8812e-07
4.86227e-07
4.84322e-07
4.82403e-07
4.8047e-07
4.78525e-07
4.76566e-07
4.74594e-07
4.72608e-07
4.70608e-07
4.68594e-07
4.66565e-07
4.6452e-07
4.6246e-07
4.60383e-07
4.58289e-07
4.56176e-07
4.54043e-07
4.51887e-07
4.49707e-07
4.47499e-07
4.45255e-07
4.42968e-07
4.40625e-07
4.38214e-07
4.35719e-07
4.33137e-07
4.3045e-07
4.27662e-07
4.24793e-07
4.2194e-07
5.25983e-07
5.25816e-07
5.25483e-07
5.24986e-07
5.24337e-07
5.2355e-07
5.22645e-07
5.21639e-07
5.20547e-07
5.19382e-07
5.18154e-07
5.16871e-07
5.15538e-07
5.14163e-07
5.12749e-07
5.11301e-07
5.09824e-07
5.08321e-07
5.06794e-07
5.05245e-07
5.03677e-07
5.0209e-07
5.00486e-07
4.98866e-07
4.97231e-07
4.95582e-07
4.93919e-07
4.92243e-07
4.90554e-07
4.88854e-07
4.87142e-07
4.85419e-07
4.83686e-07
4.81942e-07
4.80187e-07
4.78423e-07
4.76649e-07
4.74865e-07
4.73071e-07
4.71266e-07
4.69451e-07
4.67626e-07
4.65787e-07
4.63935e-07
4.62068e-07
4.60183e-07
4.58276e-07
4.56347e-07
4.54389e-07
4.52404e-07
4.50386e-07
4.48339e-07
4.46254e-07
4.44124e-07
4.41927e-07
4.39662e-07
4.37301e-07
4.34872e-07
4.32373e-07
4.29937e-07
5.21841e-07
5.21718e-07
5.21474e-07
5.21107e-07
5.20622e-07
5.20025e-07
5.19327e-07
5.18536e-07
5.17663e-07
5.16717e-07
5.15706e-07
5.14636e-07
5.13514e-07
5.12343e-07
5.1113e-07
5.09878e-07
5.08591e-07
5.07272e-07
5.05925e-07
5.04553e-07
5.03157e-07
5.0174e-07
5.00304e-07
4.9885e-07
4.9738e-07
4.95895e-07
4.94397e-07
4.92886e-07
4.91365e-07
4.89833e-07
4.88291e-07
4.86742e-07
4.85185e-07
4.83621e-07
4.82051e-07
4.80475e-07
4.78894e-07
4.77309e-07
4.75719e-07
4.74126e-07
4.72528e-07
4.70927e-07
4.69321e-07
4.67711e-07
4.66095e-07
4.64475e-07
4.62846e-07
4.61209e-07
4.59557e-07
4.57884e-07
4.56178e-07
4.54443e-07
4.52665e-07
4.50854e-07
4.48994e-07
4.47089e-07
4.45118e-07
4.43109e-07
4.41063e-07
4.39102e-07
5.18619e-07
5.18524e-07
5.18332e-07
5.18043e-07
5.17658e-07
5.17182e-07
5.16618e-07
5.15974e-07
5.15256e-07
5.14469e-07
5.13619e-07
5.12711e-07
5.11751e-07
5.10743e-07
5.09691e-07
5.086e-07
5.07473e-07
5.06313e-07
5.05124e-07
5.03908e-07
5.02667e-07
5.01405e-07
5.00123e-07
4.98823e-07
4.97507e-07
4.96177e-07
4.94835e-07
4.93482e-07
4.92119e-07
4.90749e-07
4.89371e-07
4.87989e-07
4.86602e-07
4.85213e-07
4.83821e-07
4.82429e-07
4.81037e-07
4.79646e-07
4.78257e-07
4.76871e-07
4.75488e-07
4.74108e-07
4.72732e-07
4.71359e-07
4.69988e-07
4.6862e-07
4.67254e-07
4.6589e-07
4.64529e-07
4.63166e-07
4.61799e-07
4.6042e-07
4.5902e-07
4.57605e-07
4.56163e-07
4.547e-07
4.53205e-07
4.51704e-07
4.50208e-07
4.48829e-07
5.1611e-07
5.16031e-07
5.15874e-07
5.15636e-07
5.1532e-07
5.14926e-07
5.14457e-07
5.13919e-07
5.13315e-07
5.12648e-07
5.11924e-07
5.11147e-07
5.10319e-07
5.09446e-07
5.08531e-07
5.07578e-07
5.06589e-07
5.05567e-07
5.04517e-07
5.03439e-07
5.02338e-07
5.01215e-07
5.00073e-07
4.98913e-07
4.97739e-07
4.96552e-07
4.95354e-07
4.94147e-07
4.92933e-07
4.91713e-07
4.9049e-07
4.89264e-07
4.88039e-07
4.86815e-07
4.85593e-07
4.84377e-07
4.83166e-07
4.81963e-07
4.80768e-07
4.79584e-07
4.78412e-07
4.77253e-07
4.76107e-07
4.74977e-07
4.73862e-07
4.72765e-07
4.71683e-07
4.70616e-07
4.69558e-07
4.68518e-07
4.67491e-07
4.66479e-07
4.65477e-07
4.64487e-07
4.63502e-07
4.62529e-07
4.6156e-07
4.6062e-07
4.59721e-07
4.5896e-07
5.14184e-07
5.14117e-07
5.13984e-07
5.13784e-07
5.13516e-07
5.13181e-07
5.12783e-07
5.12323e-07
5.11804e-07
5.11231e-07
5.10605e-07
5.0993e-07
5.0921e-07
5.08446e-07
5.07643e-07
5.06803e-07
5.0593e-07
5.05025e-07
5.04092e-07
5.03134e-07
5.02153e-07
5.01151e-07
5.00131e-07
4.99095e-07
4.98046e-07
4.96986e-07
4.95917e-07
4.94842e-07
4.93761e-07
4.92678e-07
4.91595e-07
4.90513e-07
4.89435e-07
4.88363e-07
4.87299e-07
4.86245e-07
4.85203e-07
4.84175e-07
4.83164e-07
4.82171e-07
4.81198e-07
4.80247e-07
4.79321e-07
4.78422e-07
4.77552e-07
4.7671e-07
4.75897e-07
4.75116e-07
4.74368e-07
4.73658e-07
4.72984e-07
4.7235e-07
4.71754e-07
4.71201e-07
4.70687e-07
4.70219e-07
4.69797e-07
4.6944e-07
4.69165e-07
4.69054e-07
5.12751e-07
5.12693e-07
5.12578e-07
5.12404e-07
5.12172e-07
5.11881e-07
5.11534e-07
5.11133e-07
5.10681e-07
5.10178e-07
5.09628e-07
5.09034e-07
5.08397e-07
5.07721e-07
5.07008e-07
5.0626e-07
5.05481e-07
5.04673e-07
5.03838e-07
5.0298e-07
5.021e-07
5.01202e-07
5.00287e-07
4.99358e-07
4.98417e-07
4.97468e-07
4.96512e-07
4.95552e-07
4.94589e-07
4.93628e-07
4.92669e-07
4.91716e-07
4.9077e-07
4.89835e-07
4.88913e-07
4.88007e-07
4.87119e-07
4.86251e-07
4.85408e-07
4.8459e-07
4.83802e-07
4.83047e-07
4.82328e-07
4.81644e-07
4.80999e-07
4.80397e-07
4.79841e-07
4.79336e-07
4.78886e-07
4.78492e-07
4.78159e-07
4.77891e-07
4.7769e-07
4.77561e-07
4.77508e-07
4.77537e-07
4.77652e-07
4.77873e-07
4.78218e-07
4.78751e-07
5.11744e-07
5.11693e-07
5.11591e-07
5.11437e-07
5.11231e-07
5.10973e-07
5.10664e-07
5.10307e-07
5.09903e-07
5.09455e-07
5.08963e-07
5.0843e-07
5.07858e-07
5.0725e-07
5.06608e-07
5.05934e-07
5.0523e-07
5.045e-07
5.03745e-07
5.02968e-07
5.02172e-07
5.01359e-07
5.00531e-07
4.99691e-07
4.98842e-07
4.97985e-07
4.97125e-07
4.96262e-07
4.95401e-07
4.94543e-07
4.93691e-07
4.92849e-07
4.92018e-07
4.91201e-07
4.90403e-07
4.89625e-07
4.88872e-07
4.88145e-07
4.87449e-07
4.86786e-07
4.86163e-07
4.85578e-07
4.85036e-07
4.84542e-07
4.84101e-07
4.83717e-07
4.83396e-07
4.83141e-07
4.82959e-07
4.82853e-07
4.8283e-07
4.82896e-07
4.83056e-07
4.83319e-07
4.83689e-07
4.84178e-07
4.84794e-07
4.85554e-07
4.86477e-07
4.87613e-07
5.11116e-07
5.1107e-07
5.10977e-07
5.10837e-07
5.10649e-07
5.10415e-07
5.10134e-07
5.09809e-07
5.09441e-07
5.09032e-07
5.08583e-07
5.08096e-07
5.07573e-07
5.07016e-07
5.06427e-07
5.05809e-07
5.05164e-07
5.04493e-07
5.038e-07
5.03087e-07
5.02356e-07
5.0161e-07
5.00851e-07
5.00082e-07
4.99305e-07
4.98524e-07
4.9774e-07
4.96957e-07
4.96177e-07
4.95404e-07
4.94639e-07
4.93887e-07
4.9315e-07
4.92431e-07
4.91734e-07
4.91062e-07
4.90421e-07
4.89813e-07
4.89239e-07
4.88705e-07
4.88213e-07
4.87769e-07
4.87379e-07
4.87047e-07
4.8678e-07
4.86581e-07
4.86457e-07
4.86414e-07
4.86458e-07
4.86597e-07
4.86837e-07
4.87188e-07
4.87657e-07
4.88253e-07
4.88988e-07
4.89872e-07
4.90918e-07
4.92142e-07
4.93566e-07
4.95222e-07
5.10831e-07
5.10788e-07
5.10702e-07
5.10571e-07
5.10396e-07
5.10177e-07
5.09916e-07
5.09612e-07
5.09269e-07
5.08886e-07
5.08467e-07
5.08011e-07
5.07522e-07
5.07001e-07
5.0645e-07
5.05871e-07
5.05267e-07
5.04639e-07
5.03991e-07
5.03323e-07
5.0264e-07
5.01943e-07
5.01234e-07
5.00517e-07
4.99795e-07
4.99069e-07
4.98343e-07
4.97619e-07
4.96901e-07
4.96191e-07
4.95493e-07
4.94809e-07
4.94144e-07
4.93501e-07
4.92882e-07
4.92292e-07
4.91732e-07
4.91209e-07
4.90727e-07
4.9029e-07
4.89903e-07
4.89571e-07
4.89299e-07
4.89093e-07
4.88958e-07
4.88902e-07
4.88929e-07
4.89049e-07
4.89268e-07
4.89594e-07
4.90037e-07
4.90606e-07
4.91312e-07
4.92166e-07
4.9318e-07
4.94367e-07
4.95744e-07
4.97325e-07
4.99133e-07
5.0119e-07
5.10868e-07
5.10827e-07
5.10744e-07
5.10618e-07
5.1045e-07
5.1024e-07
5.09989e-07
5.09698e-07
5.09368e-07
5.09001e-07
5.08599e-07
5.08162e-07
5.07692e-07
5.07192e-07
5.06664e-07
5.06109e-07
5.05529e-07
5.04928e-07
5.04306e-07
5.03667e-07
5.03013e-07
5.02346e-07
5.0167e-07
5.00986e-07
5.00298e-07
4.99607e-07
4.98918e-07
4.98233e-07
4.97554e-07
4.96886e-07
4.96231e-07
4.95592e-07
4.94973e-07
4.94378e-07
4.9381e-07
4.93273e-07
4.9277e-07
4.92307e-07
4.91888e-07
4.91517e-07
4.912e-07
4.90942e-07
4.90748e-07
4.90624e-07
4.90577e-07
4.90614e-07
4.90741e-07
4.90967e-07
4.91299e-07
4.91747e-07
4.9232e-07
4.9303e-07
4.93887e-07
4.94904e-07
4.96095e-07
4.97473e-07
4.99057e-07
5.00861e-07
5.02908e-07
5.05213e-07
5.1121e-07
5.11169e-07
5.11087e-07
5.10963e-07
5.10797e-07
5.10589e-07
5.10341e-07
5.10054e-07
5.09728e-07
5.09366e-07
5.08969e-07
5.08538e-07
5.08075e-07
5.07582e-07
5.07061e-07
5.06514e-07
5.05943e-07
5.05351e-07
5.0474e-07
5.04111e-07
5.03469e-07
5.02814e-07
5.02151e-07
5.0148e-07
5.00806e-07
5.00131e-07
4.99458e-07
4.9879e-07
4.98129e-07
4.97479e-07
4.96844e-07
4.96226e-07
4.95629e-07
4.95057e-07
4.94513e-07
4.94001e-07
4.93525e-07
4.9309e-07
4.92701e-07
4.92361e-07
4.92076e-07
4.91852e-07
4.91694e-07
4.91608e-07
4.916e-07
4.91677e-07
4.91847e-07
4.92118e-07
4.92497e-07
4.92994e-07
4.9362e-07
4.94384e-07
4.95299e-07
4.96376e-07
4.97632e-07
4.99078e-07
5.00732e-07
5.02611e-07
5.04735e-07
5.07116e-07
5.11855e-07
5.11813e-07
5.1173e-07
5.11603e-07
5.11434e-07
5.11223e-07
5.10971e-07
5.10678e-07
5.10347e-07
5.09978e-07
5.09574e-07
5.09136e-07
5.08665e-07
5.08165e-07
5.07637e-07
5.07082e-07
5.06504e-07
5.05905e-07
5.05286e-07
5.04651e-07
5.04002e-07
5.03341e-07
5.02671e-07
5.01995e-07
5.01316e-07
5.00636e-07
4.99958e-07
4.99285e-07
4.9862e-07
4.97966e-07
4.97327e-07
4.96705e-07
4.96105e-07
4.95529e-07
4.94982e-07
4.94467e-07
4.93988e-07
4.93549e-07
4.93155e-07
4.92811e-07
4.92521e-07
4.92291e-07
4.92125e-07
4.92031e-07
4.92013e-07
4.92079e-07
4.92235e-07
4.92489e-07
4.9285e-07
4.93324e-07
4.93921e-07
4.94652e-07
4.95527e-07
4.9656e-07
4.97764e-07
4.99151e-07
5.00738e-07
5.02538e-07
5.04574e-07
5.06861e-07
5.1281e-07
5.12766e-07
5.12678e-07
5.12545e-07
5.12368e-07
5.12146e-07
5.1188e-07
5.11573e-07
5.11225e-07
5.10839e-07
5.10415e-07
5.09957e-07
5.09465e-07
5.08943e-07
5.08391e-07
5.07813e-07
5.07211e-07
5.06587e-07
5.05944e-07
5.05284e-07
5.0461e-07
5.03924e-07
5.0323e-07
5.02528e-07
5.01823e-07
5.01118e-07
5.00414e-07
4.99715e-07
4.99024e-07
4.98344e-07
4.97678e-07
4.97028e-07
4.964e-07
4.95794e-07
4.95217e-07
4.9467e-07
4.94158e-07
4.93684e-07
4.93254e-07
4.9287e-07
4.92538e-07
4.92262e-07
4.92048e-07
4.91901e-07
4.91825e-07
4.91828e-07
4.91916e-07
4.92095e-07
4.92373e-07
4.92758e-07
4.93245e-07
4.93859e-07
4.9461e-07
4.95502e-07
4.96548e-07
4.9776e-07
4.99152e-07
5.00737e-07
5.02534e-07
5.04567e-07
5.14091e-07
5.14043e-07
5.13948e-07
5.13804e-07
5.13611e-07
5.1337e-07
5.13083e-07
5.1275e-07
5.12375e-07
5.11958e-07
5.11501e-07
5.11008e-07
5.1048e-07
5.09919e-07
5.09329e-07
5.0871e-07
5.08067e-07
5.07401e-07
5.06715e-07
5.06012e-07
5.05295e-07
5.04565e-07
5.03826e-07
5.0308e-07
5.0233e-07
5.01578e-07
5.00828e-07
5.00083e-07
4.99344e-07
4.98615e-07
4.97899e-07
4.97199e-07
4.96518e-07
4.95859e-07
4.95225e-07
4.94619e-07
4.94046e-07
4.93508e-07
4.9301e-07
4.92555e-07
4.92147e-07
4.9179e-07
4.91488e-07
4.91247e-07
4.9107e-07
4.90963e-07
4.90931e-07
4.90977e-07
4.91109e-07
4.9133e-07
4.91662e-07
4.92098e-07
4.92646e-07
4.93316e-07
4.94114e-07
4.95052e-07
4.96139e-07
4.97391e-07
4.98825e-07
5.00475e-07
5.15725e-07
5.15672e-07
5.15565e-07
5.15404e-07
5.15189e-07
5.1492e-07
5.146e-07
5.1423e-07
5.13813e-07
5.1335e-07
5.12846e-07
5.12301e-07
5.1172e-07
5.11104e-07
5.10456e-07
5.09779e-07
5.09076e-07
5.0835e-07
5.07603e-07
5.06838e-07
5.06058e-07
5.05265e-07
5.04462e-07
5.03652e-07
5.02838e-07
5.02021e-07
5.01205e-07
5.00392e-07
4.99585e-07
4.98787e-07
4.98e-07
4.97227e-07
4.9647e-07
4.95734e-07
4.9502e-07
4.94332e-07
4.93672e-07
4.93043e-07
4.9245e-07
4.91894e-07
4.9138e-07
4.90911e-07
4.90489e-07
4.9012e-07
4.89807e-07
4.89553e-07
4.89362e-07
4.89239e-07
4.89189e-07
4.89215e-07
4.8932e-07
4.8951e-07
4.89791e-07
4.90171e-07
4.90651e-07
4.9124e-07
4.91942e-07
4.92776e-07
4.93754e-07
4.94925e-07
5.17755e-07
5.17694e-07
5.17571e-07
5.17385e-07
5.17138e-07
5.1683e-07
5.16463e-07
5.1604e-07
5.15565e-07
5.1504e-07
5.14468e-07
5.13853e-07
5.13198e-07
5.12507e-07
5.11782e-07
5.11027e-07
5.10245e-07
5.09438e-07
5.08611e-07
5.07764e-07
5.06902e-07
5.06028e-07
5.05142e-07
5.04249e-07
5.03351e-07
5.0245e-07
5.01549e-07
5.0065e-07
4.99755e-07
4.98868e-07
4.9799e-07
4.97124e-07
4.96273e-07
4.95438e-07
4.94623e-07
4.9383e-07
4.93061e-07
4.92319e-07
4.91607e-07
4.90927e-07
4.90281e-07
4.89673e-07
4.89105e-07
4.8858e-07
4.881e-07
4.87668e-07
4.87287e-07
4.86959e-07
4.86686e-07
4.86473e-07
4.86322e-07
4.86233e-07
4.86206e-07
4.8625e-07
4.86365e-07
4.86557e-07
4.86825e-07
4.87188e-07
4.87656e-07
4.88294e-07
5.2024e-07
5.20167e-07
5.20022e-07
5.19802e-07
5.19509e-07
5.19146e-07
5.18714e-07
5.18219e-07
5.17663e-07
5.17053e-07
5.16392e-07
5.15683e-07
5.14932e-07
5.14143e-07
5.13318e-07
5.12462e-07
5.11579e-07
5.10671e-07
5.09741e-07
5.08794e-07
5.0783e-07
5.06853e-07
5.05867e-07
5.04872e-07
5.03871e-07
5.02868e-07
5.01863e-07
5.0086e-07
4.9986e-07
4.98866e-07
4.9788e-07
4.96903e-07
4.95939e-07
4.94988e-07
4.94053e-07
4.93137e-07
4.92241e-07
4.91367e-07
4.90517e-07
4.89693e-07
4.88897e-07
4.88131e-07
4.87397e-07
4.86696e-07
4.8603e-07
4.85401e-07
4.8481e-07
4.84259e-07
4.83748e-07
4.83279e-07
4.82849e-07
4.8246e-07
4.82104e-07
4.81791e-07
4.81518e-07
4.81291e-07
4.81102e-07
4.80972e-07
4.80909e-07
4.80993e-07
5.23265e-07
5.23176e-07
5.22997e-07
5.22728e-07
5.22371e-07
5.21928e-07
5.21406e-07
5.2081e-07
5.20147e-07
5.19423e-07
5.18644e-07
5.17814e-07
5.1694e-07
5.16026e-07
5.15076e-07
5.14095e-07
5.13087e-07
5.12054e-07
5.11001e-07
5.09931e-07
5.08845e-07
5.07747e-07
5.06639e-07
5.05524e-07
5.04404e-07
5.0328e-07
5.02155e-07
5.0103e-07
4.99908e-07
4.98791e-07
4.97679e-07
4.96575e-07
4.95481e-07
4.94398e-07
4.93328e-07
4.92273e-07
4.91233e-07
4.90211e-07
4.89207e-07
4.88224e-07
4.87262e-07
4.86324e-07
4.85408e-07
4.84517e-07
4.83651e-07
4.8281e-07
4.81994e-07
4.81203e-07
4.80435e-07
4.79692e-07
4.78971e-07
4.78275e-07
4.77598e-07
4.76942e-07
4.76287e-07
4.75643e-07
4.75e-07
4.74387e-07
4.73808e-07
4.73357e-07
5.26954e-07
5.26839e-07
5.26609e-07
5.26264e-07
5.25808e-07
5.25249e-07
5.24595e-07
5.23857e-07
5.23045e-07
5.22168e-07
5.21234e-07
5.2025e-07
5.19222e-07
5.18155e-07
5.17054e-07
5.15923e-07
5.14766e-07
5.13588e-07
5.12391e-07
5.11178e-07
5.09953e-07
5.08717e-07
5.07472e-07
5.06221e-07
5.04965e-07
5.03707e-07
5.02447e-07
5.01187e-07
4.9993e-07
4.98675e-07
4.97426e-07
4.96182e-07
4.94945e-07
4.93718e-07
4.925e-07
4.91293e-07
4.90098e-07
4.88916e-07
4.87748e-07
4.86596e-07
4.85459e-07
4.84339e-07
4.83234e-07
4.82148e-07
4.81078e-07
4.80026e-07
4.7899e-07
4.77971e-07
4.76965e-07
4.75974e-07
4.74988e-07
4.74009e-07
4.73022e-07
4.72024e-07
4.71003e-07
4.69969e-07
4.68911e-07
4.67855e-07
4.66793e-07
4.65823e-07
5.31512e-07
5.31354e-07
5.31038e-07
5.30566e-07
5.29949e-07
5.29204e-07
5.28348e-07
5.27399e-07
5.26373e-07
5.25283e-07
5.24139e-07
5.22948e-07
5.21718e-07
5.20454e-07
5.19161e-07
5.17845e-07
5.16509e-07
5.15157e-07
5.13791e-07
5.12415e-07
5.1103e-07
5.09638e-07
5.08241e-07
5.06839e-07
5.05435e-07
5.0403e-07
5.02624e-07
5.01218e-07
4.99814e-07
4.98413e-07
4.97015e-07
4.95622e-07
4.94233e-07
4.92852e-07
4.91476e-07
4.90109e-07
4.8875e-07
4.87401e-07
4.86061e-07
4.84732e-07
4.83412e-07
4.82104e-07
4.80806e-07
4.7952e-07
4.78242e-07
4.76973e-07
4.7571e-07
4.74453e-07
4.73196e-07
4.71941e-07
4.70678e-07
4.69411e-07
4.68128e-07
4.66837e-07
4.6552e-07
4.64188e-07
4.62806e-07
4.61395e-07
4.59938e-07
4.58546e-07
5.3721e-07
5.37e-07
5.36577e-07
5.35943e-07
5.35117e-07
5.34125e-07
5.33001e-07
5.31775e-07
5.30472e-07
5.29108e-07
5.27697e-07
5.26248e-07
5.24766e-07
5.23261e-07
5.21736e-07
5.20197e-07
5.18648e-07
5.17092e-07
5.15531e-07
5.13966e-07
5.12398e-07
5.10829e-07
5.09258e-07
5.07688e-07
5.06117e-07
5.04548e-07
5.02979e-07
5.01412e-07
4.99847e-07
4.98285e-07
4.96725e-07
4.95169e-07
4.93617e-07
4.92069e-07
4.90525e-07
4.88987e-07
4.87456e-07
4.8593e-07
4.84411e-07
4.82899e-07
4.81394e-07
4.79897e-07
4.78407e-07
4.76925e-07
4.7545e-07
4.73981e-07
4.72519e-07
4.71061e-07
4.69606e-07
4.68152e-07
4.66695e-07
4.65231e-07
4.6375e-07
4.62244e-07
4.60698e-07
4.59102e-07
4.57435e-07
4.55701e-07
4.53903e-07
4.52122e-07
5.4407e-07
5.43642e-07
5.42864e-07
5.41787e-07
5.40481e-07
5.39015e-07
5.37449e-07
5.3582e-07
5.34151e-07
5.32451e-07
5.30728e-07
5.28986e-07
5.27233e-07
5.25474e-07
5.23715e-07
5.21959e-07
5.20206e-07
5.18458e-07
5.16715e-07
5.14975e-07
5.1324e-07
5.11507e-07
5.09777e-07
5.0805e-07
5.06325e-07
5.04602e-07
5.0288e-07
5.01158e-07
4.99438e-07
4.97719e-07
4.96001e-07
4.94283e-07
4.92566e-07
4.90851e-07
4.89138e-07
4.87425e-07
4.85716e-07
4.84008e-07
4.82305e-07
4.80603e-07
4.78906e-07
4.7721e-07
4.75521e-07
4.73832e-07
4.7215e-07
4.70467e-07
4.68792e-07
4.67111e-07
4.6544e-07
4.63758e-07
4.62087e-07
4.60396e-07
4.58719e-07
4.57011e-07
4.55323e-07
4.53588e-07
4.51878e-07
4.50101e-07
4.48361e-07
4.46559e-07
5.55908e-07
5.55163e-07
5.53759e-07
5.51823e-07
5.49558e-07
5.47164e-07
5.44764e-07
5.4241e-07
5.40104e-07
5.37835e-07
5.35593e-07
5.33377e-07
5.31193e-07
5.29046e-07
5.26938e-07
5.24867e-07
5.2283e-07
5.2082e-07
5.18834e-07
5.16867e-07
5.14918e-07
5.12983e-07
5.1106e-07
5.09147e-07
5.07241e-07
5.05341e-07
5.03445e-07
5.01552e-07
4.99661e-07
4.97771e-07
4.95881e-07
4.93992e-07
4.92102e-07
4.90211e-07
4.88322e-07
4.8643e-07
4.8454e-07
4.82648e-07
4.8076e-07
4.78868e-07
4.76983e-07
4.75093e-07
4.73214e-07
4.71326e-07
4.69455e-07
4.67571e-07
4.65713e-07
4.63834e-07
4.61997e-07
4.60128e-07
4.58326e-07
4.56475e-07
4.54732e-07
4.52914e-07
4.51272e-07
4.49505e-07
4.48021e-07
4.46313e-07
4.45025e-07
4.43265e-07
5.64744e-07
5.63021e-07
5.60386e-07
5.57275e-07
5.5408e-07
5.51012e-07
5.48121e-07
5.45371e-07
5.42712e-07
5.40114e-07
5.37569e-07
5.35084e-07
5.32667e-07
5.30315e-07
5.28023e-07
5.25783e-07
5.23584e-07
5.2142e-07
5.19283e-07
5.17171e-07
5.15078e-07
5.13e-07
5.10935e-07
5.08879e-07
5.0683e-07
5.04784e-07
5.02741e-07
5.00699e-07
4.98656e-07
4.96611e-07
4.94565e-07
4.92515e-07
4.90464e-07
4.88408e-07
4.86352e-07
4.84291e-07
4.8223e-07
4.80165e-07
4.78103e-07
4.76035e-07
4.73974e-07
4.71905e-07
4.69847e-07
4.67777e-07
4.65727e-07
4.63655e-07
4.61616e-07
4.59541e-07
4.57524e-07
4.55443e-07
4.5347e-07
4.51385e-07
4.49511e-07
4.47446e-07
4.45809e-07
4.43839e-07
4.42778e-07
4.40977e-07
4.41095e-07
4.39049e-07
6.12824e-07
5.98706e-07
5.84951e-07
5.74391e-07
5.66991e-07
5.61629e-07
5.57212e-07
5.53172e-07
5.49342e-07
5.45727e-07
5.42367e-07
5.39263e-07
5.36384e-07
5.33678e-07
5.311e-07
5.28616e-07
5.26206e-07
5.23855e-07
5.21553e-07
5.19292e-07
5.17064e-07
5.1486e-07
5.12676e-07
5.10504e-07
5.08342e-07
5.06185e-07
5.04032e-07
5.01879e-07
4.99726e-07
4.97571e-07
4.95413e-07
4.93251e-07
4.91086e-07
4.88918e-07
4.86746e-07
4.84571e-07
4.82394e-07
4.80215e-07
4.78035e-07
4.75854e-07
4.73674e-07
4.71496e-07
4.69318e-07
4.67143e-07
4.6497e-07
4.62798e-07
4.60629e-07
4.58457e-07
4.56289e-07
4.54109e-07
4.51938e-07
4.49726e-07
4.47552e-07
4.45251e-07
4.43114e-07
4.4052e-07
4.387e-07
4.34875e-07
4.35148e-07
4.25146e-07
4.30814e-07
3.78536e-07
3.55785e-07
3.36361e-07
3.16728e-07
2.96815e-07
2.74735e-07
2.51243e-07
2.2424e-07
1.95412e-07
1.62536e-07
1.28435e-07
9.05894e-08
5.30257e-08
1.27924e-08
-2.49495e-08
-6.40855e-08
-9.84054e-08
-1.32934e-07
-1.60758e-07
-1.88165e-07
-2.07316e-07
-2.2638e-07
-2.35574e-07
-2.46409e-07
-2.44201e-07
-2.50253e-07
-2.3423e-07
-2.40279e-07
-2.99774e-07
4.16144e-07
3.58974e-07
3.43242e-07
3.26409e-07
3.07475e-07
2.88058e-07
2.66372e-07
2.4314e-07
2.16442e-07
1.88116e-07
1.56005e-07
1.2291e-07
8.63526e-08
5.02113e-08
1.1547e-08
-2.47322e-08
-6.21691e-08
-9.52849e-08
-1.28653e-07
-1.55779e-07
-1.83139e-07
-2.02134e-07
-2.22307e-07
-2.32022e-07
-2.447e-07
-2.44587e-07
-2.49772e-07
-2.44726e-07
-2.2995e-07
-3.33498e-07
4.03365e-07
3.56128e-07
3.41481e-07
3.25187e-07
3.05775e-07
2.85335e-07
2.63113e-07
2.39555e-07
2.12835e-07
1.84438e-07
1.5259e-07
1.1966e-07
8.3657e-08
4.79201e-08
1.00607e-08
-2.56385e-08
-6.23826e-08
-9.50956e-08
-1.28074e-07
-1.54981e-07
-1.81781e-07
-2.01438e-07
-2.20691e-07
-2.32169e-07
-2.43319e-07
-2.47628e-07
-2.49288e-07
-2.56544e-07
-2.22283e-07
-2.91217e-07
3.9257e-07
3.51307e-07
3.34468e-07
3.18651e-07
2.99944e-07
2.80207e-07
2.58232e-07
2.34598e-07
2.07969e-07
1.79522e-07
1.48012e-07
1.15225e-07
7.99284e-08
4.45283e-08
7.70858e-09
-2.76642e-08
-6.3189e-08
-9.56853e-08
-1.27162e-07
-1.54639e-07
-1.80171e-07
-2.01124e-07
-2.19144e-07
-2.33271e-07
-2.42393e-07
-2.52075e-07
-2.47343e-07
-2.62967e-07
-2.2532e-07
-2.69612e-07
3.82065e-07
3.48076e-07
3.30395e-07
3.15796e-07
2.97656e-07
2.77095e-07
2.5457e-07
2.30404e-07
2.03733e-07
1.74948e-07
1.43661e-07
1.10695e-07
7.60005e-08
4.06019e-08
4.75413e-09
-3.05619e-08
-6.48437e-08
-9.749e-08
-1.27701e-07
-1.55831e-07
-1.79986e-07
-2.02449e-07
-2.18797e-07
-2.35619e-07
-2.42186e-07
-2.55369e-07
-2.48146e-07
-2.63014e-07
-2.3597e-07
-2.51207e-07
3.72767e-07
3.45719e-07
3.27152e-07
3.12047e-07
2.94152e-07
2.73527e-07
2.50834e-07
2.26228e-07
1.99433e-07
1.70269e-07
1.39071e-07
1.05854e-07
7.15878e-08
3.6111e-08
1.05743e-09
-3.42608e-08
-6.74638e-08
-1.00279e-07
-1.29289e-07
-1.57905e-07
-1.80876e-07
-2.04381e-07
-2.19726e-07
-2.37901e-07
-2.43962e-07
-2.57497e-07
-2.52463e-07
-2.62076e-07
-2.47835e-07
-2.47458e-07
3.65004e-07
3.43555e-07
3.24836e-07
3.08842e-07
2.91061e-07
2.70385e-07
2.47435e-07
2.2227e-07
1.95155e-07
1.65541e-07
1.34244e-07
1.00743e-07
6.66747e-08
3.11435e-08
-3.38767e-09
-3.8591e-08
-7.10483e-08
-1.03741e-07
-1.31986e-07
-1.60613e-07
-1.83099e-07
-2.06768e-07
-2.22281e-07
-2.40373e-07
-2.47863e-07
-2.59867e-07
-2.59143e-07
-2.63834e-07
-2.57111e-07
-2.52555e-07
3.59e-07
3.41478e-07
3.23225e-07
3.06209e-07
2.88166e-07
2.67337e-07
2.44065e-07
2.18337e-07
1.90742e-07
1.60662e-07
1.29081e-07
9.53282e-08
6.12269e-08
2.57242e-08
-8.56974e-09
-4.34809e-08
-7.55575e-08
-1.078e-07
-1.35772e-07
-1.63912e-07
-1.86569e-07
-2.09695e-07
-2.26206e-07
-2.43456e-07
-2.53204e-07
-2.63548e-07
-2.66443e-07
-2.68804e-07
-2.65546e-07
-2.60493e-07
3.5484e-07
3.39469e-07
3.21831e-07
3.04096e-07
2.85476e-07
2.64313e-07
2.40628e-07
2.14346e-07
1.86147e-07
1.55577e-07
1.23558e-07
8.9571e-08
5.5259e-08
1.9842e-08
-1.44266e-08
-4.89287e-08
-8.08719e-08
-1.12481e-07
-1.40453e-07
-1.67879e-07
-1.90941e-07
-2.1336e-07
-2.30924e-07
-2.4753e-07
-2.59053e-07
-2.68939e-07
-2.73931e-07
-2.76377e-07
-2.74665e-07
-2.70763e-07
3.52279e-07
3.37585e-07
3.20505e-07
3.02312e-07
2.82946e-07
2.61246e-07
2.37029e-07
2.10179e-07
1.81302e-07
1.50203e-07
1.17648e-07
8.34062e-08
4.87886e-08
1.34567e-08
-2.08812e-08
-5.49625e-08
-8.68509e-08
-1.17822e-07
-1.45817e-07
-1.7257e-07
-1.95948e-07
-2.17851e-07
-2.36173e-07
-2.52619e-07
-2.65337e-07
-2.75557e-07
-2.81944e-07
-2.85273e-07
-2.85009e-07
-2.82509e-07
3.50835e-07
3.35951e-07
3.19087e-07
3.00571e-07
2.80442e-07
2.58051e-07
2.33179e-07
2.05717e-07
1.7613e-07
1.44452e-07
1.11314e-07
7.67662e-08
4.18167e-08
6.52261e-09
-2.78865e-08
-6.1608e-08
-9.34023e-08
-1.23829e-07
-1.51741e-07
-1.77972e-07
-2.01464e-07
-2.23093e-07
-2.41872e-07
-2.58492e-07
-2.72063e-07
-2.83009e-07
-2.90621e-07
-2.9522e-07
-2.96549e-07
-2.957e-07
3.49956e-07
3.34617e-07
3.17577e-07
2.98661e-07
2.77786e-07
2.54619e-07
2.28996e-07
2.00858e-07
1.70539e-07
1.38236e-07
1.04493e-07
6.95818e-08
3.43048e-08
-1.01063e-09
-3.54568e-08
-6.88915e-08
-1.0052e-07
-1.30498e-07
-1.58209e-07
-1.84038e-07
-2.07481e-07
-2.28978e-07
-2.4803e-07
-2.64979e-07
-2.79268e-07
-2.9112e-07
-2.99956e-07
-3.06037e-07
-3.09076e-07
-3.10212e-07
3.492e-07
3.3344e-07
3.1594e-07
2.96452e-07
2.74812e-07
2.50828e-07
2.24394e-07
1.95508e-07
1.64429e-07
1.31455e-07
9.70915e-08
6.1766e-08
2.61687e-08
-9.2161e-09
-4.36672e-08
-7.68675e-08
-1.08274e-07
-1.37855e-07
-1.65284e-07
-1.90758e-07
-2.14058e-07
-2.35457e-07
-2.54698e-07
-2.71998e-07
-2.86976e-07
-2.99761e-07
-3.09892e-07
-3.17525e-07
-3.22481e-07
-3.25735e-07
3.48313e-07
3.32205e-07
3.1409e-07
2.93872e-07
2.71415e-07
2.46579e-07
2.19283e-07
1.89574e-07
1.57687e-07
1.23988e-07
8.89813e-08
5.31968e-08
1.72754e-08
-1.82117e-08
-5.26498e-08
-8.564e-08
-1.16787e-07
-1.45985e-07
-1.73078e-07
-1.98192e-07
-2.21284e-07
-2.42562e-07
-2.61929e-07
-2.79548e-07
-2.95175e-07
-3.08888e-07
-3.20325e-07
-3.29591e-07
-3.36558e-07
-3.42148e-07
3.472e-07
3.30712e-07
3.11924e-07
2.9089e-07
2.6755e-07
2.41798e-07
2.13566e-07
1.82943e-07
1.50173e-07
1.15684e-07
7.99921e-08
4.37058e-08
7.44196e-09
-2.81685e-08
-6.25871e-08
-9.53665e-08
-1.26228e-07
-1.5502e-07
-1.81734e-07
-2.06442e-07
-2.29269e-07
-2.50354e-07
-2.69786e-07
-2.87639e-07
-3.03869e-07
-3.18435e-07
-3.31181e-07
-3.42066e-07
-3.5115e-07
-3.59133e-07
3.45905e-07
3.28902e-07
3.09413e-07
2.87513e-07
2.63199e-07
2.36418e-07
2.07129e-07
1.7547e-07
1.41714e-07
1.0635e-07
6.99112e-08
3.30756e-08
-3.55729e-09
-3.93039e-08
-7.36949e-08
-1.06244e-07
-1.36783e-07
-1.65123e-07
-1.91399e-07
-2.15629e-07
-2.38112e-07
-2.58908e-07
-2.7831e-07
-2.96283e-07
-3.13019e-07
-3.28331e-07
-3.42327e-07
-3.54764e-07
-3.65987e-07
-3.76365e-07
3.4459e-07
3.2685e-07
3.06588e-07
2.83747e-07
2.58323e-07
2.30338e-07
1.99813e-07
1.6696e-07
1.32086e-07
9.57439e-08
5.84831e-08
2.10482e-08
-1.59778e-08
-5.18613e-08
-8.62015e-08
-1.18479e-07
-1.48638e-07
-1.76454e-07
-2.02208e-07
-2.25865e-07
-2.47897e-07
-2.68282e-07
-2.8752e-07
-3.0547e-07
-3.22562e-07
-3.38472e-07
-3.53578e-07
-3.67452e-07
-3.80717e-07
-3.93444e-07
3.43477e-07
3.24689e-07
3.03478e-07
2.79526e-07
2.52783e-07
2.23362e-07
1.91382e-07
1.57146e-07
1.21003e-07
8.35694e-08
4.54111e-08
7.33346e-09
-3.00931e-08
-6.60949e-08
-1.00336e-07
-1.32277e-07
-1.61969e-07
-1.89165e-07
-2.14287e-07
-2.37253e-07
-2.58698e-07
-2.78528e-07
-2.97436e-07
-3.15184e-07
-3.32435e-07
-3.48744e-07
-3.64754e-07
-3.79863e-07
-3.94987e-07
-4.09877e-07
3.42675e-07
3.22504e-07
3.00027e-07
2.7464e-07
2.46286e-07
2.15163e-07
1.81493e-07
1.45675e-07
1.08109e-07
6.94714e-08
3.0352e-08
-8.39456e-09
-4.62043e-08
-8.22821e-08
-1.16347e-07
-1.47864e-07
-1.76976e-07
-2.03437e-07
-2.27789e-07
-2.49926e-07
-2.70623e-07
-2.89734e-07
-3.08112e-07
-3.25457e-07
-3.42617e-07
-3.5908e-07
-3.75694e-07
-3.91773e-07
-4.08425e-07
-4.25223e-07
3.42011e-07
3.2027e-07
2.95902e-07
2.68623e-07
2.38333e-07
2.0525e-07
1.69668e-07
1.32075e-07
9.29406e-08
5.29977e-08
1.28729e-08
-2.65459e-08
-6.46942e-08
-1.0078e-07
-1.34567e-07
-1.6555e-07
-1.93947e-07
-2.19539e-07
-2.4296e-07
-2.64106e-07
-2.83866e-07
-3.02061e-07
-3.19683e-07
-3.36374e-07
-3.53162e-07
-3.6946e-07
-3.86319e-07
-4.02975e-07
-4.20701e-07
-4.38938e-07
3.40595e-07
3.16878e-07
2.90374e-07
2.60846e-07
2.28291e-07
1.92976e-07
1.55259e-07
1.15702e-07
7.48597e-08
3.35225e-08
-7.6325e-09
-4.77027e-08
-8.61147e-08
-1.2211e-07
-1.55484e-07
-1.85798e-07
-2.13319e-07
-2.37889e-07
-2.60188e-07
-2.80153e-07
-2.98735e-07