/*--------------------------------*- C++ -*----------------------------------*\
| =========                 |                                                 |
| \\      /  F ield         | OpenFOAM: The Open Source CFD Toolbox           |
|  \\    /   O peration     | Version:  2312                                  |
|   \\  /    A nd           | Website:  www.openfoam.com                      |
|    \\/     M anipulation  |                                                 |
\*---------------------------------------------------------------------------*/
FoamFile
{
    version     2.0;
    format      ascii;
    arch        "LSB;label=32;scalar=64";
    class       volVectorField;
    location    "92000";
    object      U;
}
// * * * * * * * * * * * * * * * * * * * * * * * * * * * * * * * * * * * * * //

dimensions      [0 1 -1 0 0 0 0];

internalField   nonuniform List<vector> 
2685
(
(-0.000117202 2.04002e-06 0)
(-0.000114909 1.19772e-06 0)
(-0.000111761 3.42624e-07 0)
(-0.000107762 -5.09604e-07 0)
(-0.000102932 -1.34476e-06 0)
(-9.72994e-05 -2.15006e-06 0)
(-9.09045e-05 -2.91417e-06 0)
(-8.37953e-05 -3.62726e-06 0)
(-7.60274e-05 -4.281e-06 0)
(-6.76631e-05 -4.86851e-06 0)
(-5.87693e-05 -5.38451e-06 0)
(-4.94172e-05 -5.82542e-06 0)
(-3.96802e-05 -6.18884e-06 0)
(-2.96305e-05 -6.47421e-06 0)
(-1.93389e-05 -6.68375e-06 0)
(-8.87253e-06 -6.8215e-06 0)
(1.71887e-06 -6.8953e-06 0)
(1.2349e-05 -6.91653e-06 0)
(2.29313e-05 -6.88016e-06 0)
(3.3417e-05 -6.78844e-06 0)
(4.37489e-05 -6.64573e-06 0)
(5.38736e-05 -6.45722e-06 0)
(6.37432e-05 -6.22855e-06 0)
(7.33148e-05 -5.96553e-06 0)
(8.25512e-05 -5.67402e-06 0)
(9.14208e-05 -5.35978e-06 0)
(9.98972e-05 -5.02839e-06 0)
(0.000107959 -4.68514e-06 0)
(0.000115591 -4.33501e-06 0)
(0.000122782 -3.98258e-06 0)
(0.000129524 -3.63203e-06 0)
(0.000135815 -3.28708e-06 0)
(0.000141656 -2.95098e-06 0)
(0.000147052 -2.62654e-06 0)
(0.000152011 -2.31608e-06 0)
(0.000156542 -2.02147e-06 0)
(0.000160659 -1.74417e-06 0)
(0.000164377 -1.48518e-06 0)
(0.000167712 -1.24515e-06 0)
(0.000170682 -1.02436e-06 0)
(0.000173306 -8.22778e-07 0)
(0.000175604 -6.40108e-07 0)
(0.000177597 -4.75816e-07 0)
(0.000179305 -3.29177e-07 0)
(0.000180748 -1.99311e-07 0)
(0.000181948 -8.51958e-08 0)
(0.000182923 1.42754e-08 0)
(0.000183695 1.003e-07 0)
(0.000184283 1.74136e-07 0)
(0.000184703 2.36901e-07 0)
(0.000184975 2.90294e-07 0)
(0.000185113 3.36927e-07 0)
(0.000185135 3.78663e-07 0)
(0.000185057 4.14645e-07 0)
(0.000184897 4.42026e-07 0)
(0.000184666 4.6132e-07 0)
(0.000184375 4.72539e-07 0)
(0.000184036 4.78174e-07 0)
(0.000183659 4.79692e-07 0)
(0.000183253 4.77666e-07 0)
(0.000182828 4.72436e-07 0)
(0.000182392 4.64369e-07 0)
(0.00018195 4.53772e-07 0)
(0.000181511 4.40887e-07 0)
(0.000181079 4.25924e-07 0)
(0.000180659 4.09194e-07 0)
(0.000180256 3.91215e-07 0)
(0.000179873 3.72416e-07 0)
(0.000179515 3.52959e-07 0)
(0.000179184 3.33067e-07 0)
(0.000178883 3.12822e-07 0)
(0.000178611 2.92465e-07 0)
(0.000178373 2.71992e-07 0)
(0.000178166 2.51715e-07 0)
(0.000177993 2.31478e-07 0)
(0.000177853 2.1174e-07 0)
(0.000177746 1.92106e-07 0)
(0.00017767 1.73572e-07 0)
(0.000177627 1.54659e-07 0)
(0.000177612 1.36491e-07 0)
(0.00017763 1.16561e-07 0)
(0.00017767 9.82924e-08 0)
(0.000177744 7.74404e-08 0)
(0.000177831 5.96539e-08 0)
(0.000177961 3.53754e-08 0)
(0.000178087 1.69838e-08 0)
(0.000178287 -1.80536e-08 0)
(0.000178427 -3.70364e-08 0)
(0.000178778 -1.04624e-07 0)
(5.48171e-05 -1.05446e-05 0)
(6.17964e-05 -1.35152e-05 0)
(6.95711e-05 -1.64565e-05 0)
(7.81188e-05 -1.93309e-05 0)
(8.7409e-05 -2.21034e-05 0)
(9.74039e-05 -2.47417e-05 0)
(0.000108059 -2.72167e-05 0)
(0.000119322 -2.9503e-05 0)
(0.000131138 -3.15787e-05 0)
(0.000143447 -3.34258e-05 0)
(0.000156182 -3.50303e-05 0)
(0.000169279 -3.6382e-05 0)
(0.000182667 -3.74753e-05 0)
(0.000196276 -3.83081e-05 0)
(0.000210035 -3.88832e-05 0)
(0.000223873 -3.9207e-05 0)
(0.000237733 -3.92953e-05 0)
(0.000251563 -3.91742e-05 0)
(0.000265307 -3.88502e-05 0)
(0.000278908 -3.83337e-05 0)
(0.00029231 -3.76375e-05 0)
(0.000305462 -3.67763e-05 0)
(0.00031832 -3.57666e-05 0)
(0.000330841 -3.46252e-05 0)
(0.000342992 -3.33693e-05 0)
(0.00035474 -3.20162e-05 0)
(0.00036606 -3.05827e-05 0)
(0.00037693 -2.9085e-05 0)
(0.000387331 -2.7539e-05 0)
(0.00039725 -2.59595e-05 0)
(0.000406677 -2.43607e-05 0)
(0.000415605 -2.27555e-05 0)
(0.00042403 -2.11563e-05 0)
(0.000431953 -1.95739e-05 0)
(0.000439375 -1.80184e-05 0)
(0.000446302 -1.64987e-05 0)
(0.000452742 -1.50227e-05 0)
(0.000458704 -1.35973e-05 0)
(0.000464199 -1.22283e-05 0)
(0.000469241 -1.09206e-05 0)
(0.000473845 -9.67808e-06 0)
(0.000478027 -8.50381e-06 0)
(0.000481805 -7.39986e-06 0)
(0.000485196 -6.3676e-06 0)
(0.00048822 -5.40769e-06 0)
(0.000490896 -4.52027e-06 0)
(0.000493246 -3.70478e-06 0)
(0.00049529 -2.95991e-06 0)
(0.000497048 -2.28425e-06 0)
(0.000498543 -1.67558e-06 0)
(0.000499793 -1.13116e-06 0)
(0.000500821 -6.49712e-07 0)
(0.000501652 -2.28177e-07 0)
(0.000502298 1.39324e-07 0)
(0.000502775 4.56319e-07 0)
(0.000503101 7.25326e-07 0)
(0.000503301 9.5057e-07 0)
(0.000503395 1.13328e-06 0)
(0.000503398 1.27529e-06 0)
(0.000503324 1.3795e-06 0)
(0.000503186 1.44919e-06 0)
(0.000502999 1.48781e-06 0)
(0.000502775 1.49856e-06 0)
(0.000502525 1.48435e-06 0)
(0.00050226 1.44783e-06 0)
(0.00050199 1.39207e-06 0)
(0.000501723 1.31999e-06 0)
(0.000501468 1.23441e-06 0)
(0.000501232 1.13748e-06 0)
(0.000501018 1.03173e-06 0)
(0.000500835 9.18901e-07 0)
(0.000500683 8.01358e-07 0)
(0.000500571 6.80205e-07 0)
(0.000500493 5.5778e-07 0)
(0.000500463 4.34449e-07 0)
(0.000500466 3.12807e-07 0)
(0.000500526 1.92127e-07 0)
(0.000500611 7.54098e-08 0)
(0.000500761 -3.93376e-08 0)
(0.00050092 -1.47769e-07 0)
(0.000501165 -2.55465e-07 0)
(0.000501389 -3.54134e-07 0)
(0.00050174 -4.5394e-07 0)
(0.000502003 -5.4004e-07 0)
(0.000502475 -6.34874e-07 0)
(0.000502733 -7.06233e-07 0)
(0.000503366 -8.07599e-07 0)
(0.000503545 -8.57447e-07 0)
(0.000504415 -9.97686e-07 0)
(0.000380025 -2.70227e-05 0)
(0.00038833 -3.13563e-05 0)
(0.000397049 -3.56287e-05 0)
(0.000406166 -3.97872e-05 0)
(0.00041566 -4.37824e-05 0)
(0.000425504 -4.75689e-05 0)
(0.00043567 -5.11058e-05 0)
(0.000446123 -5.43573e-05 0)
(0.000456827 -5.72932e-05 0)
(0.000467741 -5.98892e-05 0)
(0.000478824 -6.21261e-05 0)
(0.000490032 -6.39895e-05 0)
(0.000501322 -6.54709e-05 0)
(0.000512653 -6.6572e-05 0)
(0.000523984 -6.73048e-05 0)
(0.000535273 -6.76855e-05 0)
(0.000546478 -6.7726e-05 0)
(0.000557554 -6.74378e-05 0)
(0.000568459 -6.68349e-05 0)
(0.000579163 -6.59371e-05 0)
(0.000589643 -6.47672e-05 0)
(0.000599872 -6.33498e-05 0)
(0.000609828 -6.17104e-05 0)
(0.000619489 -5.98747e-05 0)
(0.000628838 -5.78684e-05 0)
(0.000637857 -5.57169e-05 0)
(0.000646534 -5.34449e-05 0)
(0.000654859 -5.10761e-05 0)
(0.000662823 -4.8633e-05 0)
(0.000670421 -4.61369e-05 0)
(0.000677648 -4.36079e-05 0)
(0.000684502 -4.10645e-05 0)
(0.000690985 -3.85238e-05 0)
(0.000697096 -3.60014e-05 0)
(0.000702841 -3.35114e-05 0)
(0.000708222 -3.10665e-05 0)
(0.000713246 -2.86779e-05 0)
(0.00071792 -2.63555e-05 0)
(0.000722251 -2.4108e-05 0)
(0.000726249 -2.19426e-05 0)
(0.000729923 -1.98654e-05 0)
(0.000733283 -1.78815e-05 0)
(0.000736339 -1.59949e-05 0)
(0.000739105 -1.42089e-05 0)
(0.000741591 -1.25256e-05 0)
(0.00074381 -1.09464e-05 0)
(0.000745775 -9.47171e-06 0)
(0.000747499 -8.10143e-06 0)
(0.000748995 -6.83523e-06 0)
(0.000750277 -5.67149e-06 0)
(0.000751357 -4.60814e-06 0)
(0.000752252 -3.64288e-06 0)
(0.000752974 -2.77253e-06 0)
(0.000753538 -1.99635e-06 0)
(0.000753956 -1.31074e-06 0)
(0.00075424 -7.0915e-07 0)
(0.000754407 -1.86009e-07 0)
(0.000754462 2.61208e-07 0)
(0.000754422 6.35332e-07 0)
(0.000754298 9.40193e-07 0)
(0.000754106 1.18039e-06 0)
(0.000753854 1.36054e-06 0)
(0.000753555 1.48545e-06 0)
(0.000753217 1.55966e-06 0)
(0.000752853 1.58788e-06 0)
(0.000752468 1.57464e-06 0)
(0.000752076 1.52475e-06 0)
(0.000751677 1.44233e-06 0)
(0.000751285 1.33192e-06 0)
(0.000750897 1.19726e-06 0)
(0.000750532 1.04262e-06 0)
(0.000750176 8.71222e-07 0)
(0.00074986 6.87048e-07 0)
(0.000749554 4.92794e-07 0)
(0.000749303 2.91852e-07 0)
(0.000749058 8.6299e-08 0)
(0.000748886 -1.21721e-07 0)
(0.000748706 -3.30303e-07 0)
(0.000748629 -5.38181e-07 0)
(0.000748516 -7.40013e-07 0)
(0.000748541 -9.39068e-07 0)
(0.000748485 -1.12486e-06 0)
(0.000748622 -1.31244e-06 0)
(0.000748609 -1.47512e-06 0)
(0.000748868 -1.6539e-06 0)
(0.000748875 -1.78419e-06 0)
(0.000749264 -1.96493e-06 0)
(0.000749268 -2.0456e-06 0)
(0.000749788 -2.2536e-06 0)
(0.000749392 -4.57866e-05 0)
(0.000755984 -5.05513e-05 0)
(0.000762753 -5.52269e-05 0)
(0.000769666 -5.97568e-05 0)
(0.000776697 -6.40879e-05 0)
(0.000783817 -6.81711e-05 0)
(0.000790999 -7.19614e-05 0)
(0.000798218 -7.54189e-05 0)
(0.000805449 -7.851e-05 0)
(0.000812667 -8.1208e-05 0)
(0.000819851 -8.34935e-05 0)
(0.000826977 -8.53524e-05 0)
(0.000834023 -8.67786e-05 0)
(0.000840966 -8.7772e-05 0)
(0.000847779 -8.83349e-05 0)
(0.000854444 -8.8473e-05 0)
(0.000860946 -8.82015e-05 0)
(0.000867276 -8.75422e-05 0)
(0.000873426 -8.65181e-05 0)
(0.000879385 -8.51524e-05 0)
(0.000885146 -8.34715e-05 0)
(0.000890701 -8.15039e-05 0)
(0.000896043 -7.92797e-05 0)
(0.000901168 -7.68291e-05 0)
(0.00090607 -7.41821e-05 0)
(0.000910747 -7.13686e-05 0)
(0.000915196 -6.84175e-05 0)
(0.000919414 -6.53567e-05 0)
(0.000923403 -6.22128e-05 0)
(0.00092716 -5.90108e-05 0)
(0.000930688 -5.57742e-05 0)
(0.000933987 -5.25246e-05 0)
(0.00093706 -4.92823e-05 0)
(0.000939909 -4.60654e-05 0)
(0.000942536 -4.28904e-05 0)
(0.000944946 -3.97724e-05 0)
(0.000947142 -3.67244e-05 0)
(0.000949129 -3.37583e-05 0)
(0.000950911 -3.08841e-05 0)
(0.000952492 -2.81106e-05 0)
(0.00095388 -2.54453e-05 0)
(0.000955078 -2.28943e-05 0)
(0.000956094 -2.04626e-05 0)
(0.000956932 -1.81539e-05 0)
(0.0009576 -1.59708e-05 0)
(0.000958104 -1.39157e-05 0)
(0.000958452 -1.19902e-05 0)
(0.00095865 -1.01935e-05 0)
(0.000958705 -8.5257e-06 0)
(0.000958627 -6.98549e-06 0)
(0.000958421 -5.57077e-06 0)
(0.000958099 -4.28072e-06 0)
(0.000957664 -3.10805e-06 0)
(0.000957123 -2.04808e-06 0)
(0.000956487 -1.10111e-06 0)
(0.000955767 -2.6769e-07 0)
(0.000954966 4.56857e-07 0)
(0.00095409 1.08068e-06 0)
(0.000953148 1.61067e-06 0)
(0.000952149 2.05147e-06 0)
(0.000951102 2.40826e-06 0)
(0.000950014 2.68592e-06 0)
(0.000948894 2.89045e-06 0)
(0.000947746 3.02687e-06 0)
(0.000946579 3.10123e-06 0)
(0.000945398 3.11789e-06 0)
(0.000944212 3.08251e-06 0)
(0.000943022 2.99955e-06 0)
(0.000941837 2.87514e-06 0)
(0.000940658 2.71379e-06 0)
(0.000939495 2.52117e-06 0)
(0.000938346 2.30163e-06 0)
(0.00093722 2.05973e-06 0)
(0.000936119 1.80034e-06 0)
(0.000935044 1.52585e-06 0)
(0.000934004 1.24323e-06 0)
(0.000932991 9.50769e-07 0)
(0.000932023 6.60685e-07 0)
(0.000931074 3.61952e-07 0)
(0.000930191 7.69732e-08 0)
(0.000929308 -2.20568e-07 0)
(0.000928523 -4.86837e-07 0)
(0.000927692 -7.78753e-07 0)
(0.000927025 -1.01204e-06 0)
(0.000926221 -1.30006e-06 0)
(0.000925704 -1.48322e-06 0)
(0.000924883 -1.77745e-06 0)
(0.000924573 -1.88746e-06 0)
(0.000923645 -2.20945e-06 0)
(0.00108505 -5.37612e-05 0)
(0.00108706 -5.88675e-05 0)
(0.00108909 -6.38062e-05 0)
(0.00109111 -6.8527e-05 0)
(0.00109309 -7.29832e-05 0)
(0.00109501 -7.71323e-05 0)
(0.00109686 -8.0936e-05 0)
(0.00109863 -8.43604e-05 0)
(0.00110031 -8.73775e-05 0)
(0.00110189 -8.99662e-05 0)
(0.00110337 -9.21114e-05 0)
(0.00110474 -9.3805e-05 0)
(0.001106 -9.50446e-05 0)
(0.00110716 -9.5833e-05 0)
(0.00110823 -9.61774e-05 0)
(0.00110921 -9.60887e-05 0)
(0.00111009 -9.55805e-05 0)
(0.00111088 -9.46707e-05 0)
(0.00111159 -9.3382e-05 0)
(0.00111221 -9.1741e-05 0)
(0.00111277 -8.97768e-05 0)
(0.00111327 -8.75195e-05 0)
(0.0011137 -8.50004e-05 0)
(0.00111408 -8.22512e-05 0)
(0.00111441 -7.93034e-05 0)
(0.0011147 -7.61876e-05 0)
(0.00111494 -7.29336e-05 0)
(0.00111513 -6.95697e-05 0)
(0.00111528 -6.61231e-05 0)
(0.00111538 -6.26192e-05 0)
(0.00111545 -5.90818e-05 0)
(0.00111546 -5.55328e-05 0)
(0.00111543 -5.19925e-05 0)
(0.00111535 -4.84793e-05 0)
(0.00111522 -4.50101e-05 0)
(0.00111504 -4.15997e-05 0)
(0.0011148 -3.82619e-05 0)
(0.0011145 -3.50086e-05 0)
(0.00111414 -3.18499e-05 0)
(0.00111372 -2.87955e-05 0)
(0.00111324 -2.5853e-05 0)
(0.00111268 -2.30289e-05 0)
(0.00111206 -2.03296e-05 0)
(0.00111137 -1.77591e-05 0)
(0.00111061 -1.53207e-05 0)
(0.00110978 -1.30169e-05 0)
(0.00110888 -1.08486e-05 0)
(0.0011079 -8.8194e-06 0)
(0.00110686 -6.92872e-06 0)
(0.00110575 -5.17278e-06 0)
(0.00110457 -3.55387e-06 0)
(0.00110333 -2.06781e-06 0)
(0.00110203 -7.157e-07 0)
(0.00110068 5.03399e-07 0)
(0.00109925 1.59709e-06 0)
(0.00109775 2.56929e-06 0)
(0.00109621 3.42421e-06 0)
(0.00109463 4.16695e-06 0)
(0.00109301 4.80315e-06 0)
(0.00109134 5.33835e-06 0)
(0.00108963 5.77762e-06 0)
(0.0010879 6.12649e-06 0)
(0.00108613 6.39005e-06 0)
(0.00108435 6.5745e-06 0)
(0.00108254 6.68469e-06 0)
(0.00108072 6.72731e-06 0)
(0.00107887 6.70625e-06 0)
(0.00107704 6.62937e-06 0)
(0.00107518 6.49922e-06 0)
(0.00107334 6.32547e-06 0)
(0.00107148 6.10782e-06 0)
(0.00106966 5.85907e-06 0)
(0.00106781 5.57416e-06 0)
(0.00106603 5.27133e-06 0)
(0.00106418 4.9375e-06 0)
(0.00106246 4.60028e-06 0)
(0.00106063 4.23336e-06 0)
(0.00105898 3.88038e-06 0)
(0.00105715 3.49357e-06 0)
(0.00105562 3.14323e-06 0)
(0.00105378 2.74566e-06 0)
(0.00105238 2.41547e-06 0)
(0.0010505 2.0109e-06 0)
(0.0010493 1.71973e-06 0)
(0.00104732 1.30695e-06 0)
(0.00104639 1.07928e-06 0)
(0.00104422 6.49652e-07 0)
(0.00104367 5.14835e-07 0)
(0.00104118 4.75502e-08 0)
(0.00128806 -5.35818e-05 0)
(0.00128649 -5.85124e-05 0)
(0.00128476 -6.32348e-05 0)
(0.00128288 -6.77075e-05 0)
(0.00128083 -7.18917e-05 0)
(0.00127863 -7.57529e-05 0)
(0.00127626 -7.92601e-05 0)
(0.00127375 -8.23871e-05 0)
(0.00127111 -8.51123e-05 0)
(0.00126835 -8.74196e-05 0)
(0.00126549 -8.92987e-05 0)
(0.00126254 -9.07445e-05 0)
(0.00125953 -9.17575e-05 0)
(0.00125649 -9.23425e-05 0)
(0.00125342 -9.251e-05 0)
(0.00125035 -9.22752e-05 0)
(0.00124731 -9.16541e-05 0)
(0.00124431 -9.06638e-05 0)
(0.00124135 -8.9326e-05 0)
(0.00123846 -8.76663e-05 0)
(0.00123565 -8.57114e-05 0)
(0.00123292 -8.34884e-05 0)
(0.00123029 -8.10252e-05 0)
(0.00122775 -7.83499e-05 0)
(0.00122533 -7.54903e-05 0)
(0.00122301 -7.24737e-05 0)
(0.0012208 -6.93261e-05 0)
(0.00121869 -6.60728e-05 0)
(0.00121669 -6.27377e-05 0)
(0.00121479 -5.93435e-05 0)
(0.00121298 -5.59112e-05 0)
(0.00121127 -5.24608e-05 0)
(0.00120963 -4.90106e-05 0)
(0.00120807 -4.55776e-05 0)
(0.00120657 -4.21773e-05 0)
(0.00120513 -3.88241e-05 0)
(0.00120373 -3.55307e-05 0)
(0.00120238 -3.23091e-05 0)
(0.00120106 -2.91698e-05 0)
(0.00119976 -2.61214e-05 0)
(0.00119847 -2.31727e-05 0)
(0.00119719 -2.03305e-05 0)
(0.00119591 -1.76003e-05 0)
(0.00119463 -1.49874e-05 0)
(0.00119333 -1.24964e-05 0)
(0.00119202 -1.01327e-05 0)
(0.00119069 -7.89768e-06 0)
(0.00118932 -5.79013e-06 0)
(0.00118793 -3.8171e-06 0)
(0.00118651 -1.98302e-06 0)
(0.00118505 -2.82451e-07 0)
(0.00118356 1.28911e-06 0)
(0.00118201 2.72673e-06 0)
(0.00118043 4.0304e-06 0)
(0.00117882 5.20681e-06 0)
(0.00117717 6.26522e-06 0)
(0.00117549 7.20746e-06 0)
(0.00117377 8.03546e-06 0)
(0.00117201 8.75116e-06 0)
(0.00117022 9.3611e-06 0)
(0.00116839 9.86872e-06 0)
(0.00116654 1.02814e-05 0)
(0.00116464 1.06013e-05 0)
(0.00116274 1.08373e-05 0)
(0.00116079 1.09903e-05 0)
(0.00115884 1.10716e-05 0)
(0.00115684 1.10799e-05 0)
(0.00115487 1.10297e-05 0)
(0.00115283 1.09156e-05 0)
(0.00115084 1.07568e-05 0)
(0.00114876 1.05414e-05 0)
(0.00114678 1.02962e-05 0)
(0.00114467 9.99986e-06 0)
(0.00114271 9.69061e-06 0)
(0.00114057 9.33197e-06 0)
(0.00113865 8.98008e-06 0)
(0.00113648 8.57543e-06 0)
(0.00113463 8.20177e-06 0)
(0.0011324 7.7643e-06 0)
(0.00113066 7.38934e-06 0)
(0.00112836 6.92811e-06 0)
(0.00112676 6.57262e-06 0)
(0.00112435 6.09177e-06 0)
(0.00112297 5.77823e-06 0)
(0.00112036 5.27551e-06 0)
(0.00111929 5.02945e-06 0)
(0.0011164 4.4948e-06 0)
(0.00111577 4.34988e-06 0)
(0.00111244 3.76312e-06 0)
(0.001364 -4.78214e-05 0)
(0.0013612 -5.23108e-05 0)
(0.00135819 -5.65903e-05 0)
(0.00135499 -6.06278e-05 0)
(0.00135161 -6.43935e-05 0)
(0.00134806 -6.786e-05 0)
(0.00134436 -7.10035e-05 0)
(0.00134053 -7.3804e-05 0)
(0.0013366 -7.62457e-05 0)
(0.0013326 -7.83165e-05 0)
(0.00132854 -8.00089e-05 0)
(0.00132445 -8.13194e-05 0)
(0.00132037 -8.22487e-05 0)
(0.00131631 -8.28018e-05 0)
(0.00131231 -8.29875e-05 0)
(0.00130839 -8.28174e-05 0)
(0.00130456 -8.23065e-05 0)
(0.00130084 -8.14732e-05 0)
(0.00129724 -8.03371e-05 0)
(0.00129377 -7.89185e-05 0)
(0.00129043 -7.7238e-05 0)
(0.00128725 -7.53171e-05 0)
(0.00128421 -7.31775e-05 0)
(0.00128132 -7.08407e-05 0)
(0.00127858 -6.83286e-05 0)
(0.001276 -6.56627e-05 0)
(0.00127355 -6.28641e-05 0)
(0.00127124 -5.99533e-05 0)
(0.00126906 -5.69501e-05 0)
(0.00126701 -5.38737e-05 0)
(0.00126506 -5.07425e-05 0)
(0.00126322 -4.75742e-05 0)
(0.00126146 -4.4385e-05 0)
(0.00125979 -4.11914e-05 0)
(0.00125819 -3.80076e-05 0)
(0.00125665 -3.48478e-05 0)
(0.00125516 -3.17256e-05 0)
(0.00125371 -2.86522e-05 0)
(0.00125229 -2.5639e-05 0)
(0.00125089 -2.26974e-05 0)
(0.00124951 -1.98349e-05 0)
(0.00124813 -1.70601e-05 0)
(0.00124676 -1.43819e-05 0)
(0.00124537 -1.18044e-05 0)
(0.00124397 -9.33124e-06 0)
(0.00124256 -6.96985e-06 0)
(0.00124112 -4.72733e-06 0)
(0.00123966 -2.60513e-06 0)
(0.00123815 -6.0246e-07 0)
(0.00123661 1.27695e-06 0)
(0.00123506 3.03094e-06 0)
(0.00123347 4.65645e-06 0)
(0.00123183 6.1558e-06 0)
(0.00123017 7.5337e-06 0)
(0.00122848 8.78846e-06 0)
(0.00122675 9.92234e-06 0)
(0.00122499 1.09357e-05 0)
(0.0012232 1.18337e-05 0)
(0.00122136 1.26173e-05 0)
(0.00121951 1.32936e-05 0)
(0.00121761 1.38632e-05 0)
(0.0012157 1.43357e-05 0)
(0.00121374 1.47103e-05 0)
(0.00121178 1.49989e-05 0)
(0.00120977 1.51986e-05 0)
(0.00120778 1.53251e-05 0)
(0.00120572 1.53713e-05 0)
(0.00120371 1.53582e-05 0)
(0.0012016 1.52724e-05 0)
(0.00119958 1.51426e-05 0)
(0.00119743 1.49462e-05 0)
(0.00119541 1.47227e-05 0)
(0.00119322 1.44359e-05 0)
(0.00119122 1.41412e-05 0)
(0.00118899 1.37825e-05 0)
(0.00118704 1.34389e-05 0)
(0.00118474 1.30243e-05 0)
(0.00118287 1.26536e-05 0)
(0.0011805 1.21964e-05 0)
(0.00117873 1.18204e-05 0)
(0.00117625 1.13301e-05 0)
(0.00117464 1.09715e-05 0)
(0.00117201 1.04526e-05 0)
(0.00117062 1.01359e-05 0)
(0.00116776 9.5869e-06 0)
(0.00116669 9.33995e-06 0)
(0.0011635 8.75066e-06 0)
(0.00116288 8.60658e-06 0)
(0.0011592 7.95442e-06 0)
(0.00139802 -4.28964e-05 0)
(0.0013958 -4.69538e-05 0)
(0.00139343 -5.08184e-05 0)
(0.00139092 -5.44667e-05 0)
(0.00138827 -5.7876e-05 0)
(0.0013855 -6.10249e-05 0)
(0.00138263 -6.38944e-05 0)
(0.00137968 -6.64685e-05 0)
(0.00137666 -6.87343e-05 0)
(0.00137361 -7.06815e-05 0)
(0.00137053 -7.23027e-05 0)
(0.00136745 -7.35937e-05 0)
(0.00136439 -7.45533e-05 0)
(0.00136136 -7.51837e-05 0)
(0.00135838 -7.54904e-05 0)
(0.00135546 -7.54824e-05 0)
(0.00135262 -7.51719e-05 0)
(0.00134985 -7.45723e-05 0)
(0.00134717 -7.3696e-05 0)
(0.00134458 -7.25556e-05 0)
(0.00134209 -7.11654e-05 0)
(0.0013397 -6.95413e-05 0)
(0.0013374 -6.77e-05 0)
(0.0013352 -6.56582e-05 0)
(0.0013331 -6.34329e-05 0)
(0.00133109 -6.10419e-05 0)
(0.00132915 -5.85031e-05 0)
(0.0013273 -5.58343e-05 0)
(0.00132552 -5.30534e-05 0)
(0.00132379 -5.01781e-05 0)
(0.00132213 -4.72255e-05 0)
(0.0013205 -4.4213e-05 0)
(0.00131892 -4.1157e-05 0)
(0.00131737 -3.80731e-05 0)
(0.00131584 -3.49775e-05 0)
(0.00131432 -3.18846e-05 0)
(0.00131281 -2.88077e-05 0)
(0.0013113 -2.57615e-05 0)
(0.00130979 -2.2758e-05 0)
(0.00130827 -1.98069e-05 0)
(0.00130673 -1.69225e-05 0)
(0.00130517 -1.41142e-05 0)
(0.00130358 -1.13856e-05 0)
(0.00130198 -8.75173e-06 0)
(0.00130034 -6.22312e-06 0)
(0.00129866 -3.78732e-06 0)
(0.00129694 -1.45764e-06 0)
(0.00129518 7.4878e-07 0)
(0.0012934 2.83528e-06 0)
(0.00129157 4.80676e-06 0)
(0.00128969 6.65242e-06 0)
(0.00128778 8.36911e-06 0)
(0.00128583 9.95806e-06 0)
(0.00128384 1.1423e-05 0)
(0.00128182 1.27604e-05 0)
(0.00127977 1.39727e-05 0)
(0.00127768 1.50591e-05 0)
(0.00127557 1.60271e-05 0)
(0.00127342 1.68758e-05 0)
(0.00127126 1.76141e-05 0)
(0.00126905 1.82399e-05 0)
(0.00126686 1.8765e-05 0)
(0.00126461 1.91858e-05 0)
(0.00126239 1.95177e-05 0)
(0.0012601 1.97537e-05 0)
(0.00125786 1.99143e-05 0)
(0.00125554 1.99871e-05 0)
(0.0012533 1.99993e-05 0)
(0.00125095 1.9931e-05 0)
(0.00124872 1.98186e-05 0)
(0.00124634 1.96312e-05 0)
(0.00124414 1.94181e-05 0)
(0.00124172 1.91322e-05 0)
(0.00123957 1.8842e-05 0)
(0.00123712 1.84768e-05 0)
(0.00123503 1.81327e-05 0)
(0.00123252 1.7705e-05 0)
(0.00123053 1.73303e-05 0)
(0.00122794 1.68543e-05 0)
(0.00122609 1.64722e-05 0)
(0.00122338 1.59582e-05 0)
(0.00122171 1.55929e-05 0)
(0.00121883 1.50466e-05 0)
(0.0012174 1.47239e-05 0)
(0.00121428 1.41444e-05 0)
(0.00121318 1.38932e-05 0)
(0.00120971 1.32711e-05 0)
(0.00120908 1.31251e-05 0)
(0.00120508 1.24392e-05 0)
(0.00145403 -3.8793e-05 0)
(0.00145225 -4.25596e-05 0)
(0.00145036 -4.61529e-05 0)
(0.00144837 -4.95536e-05 0)
(0.00144628 -5.27428e-05 0)
(0.00144409 -5.57026e-05 0)
(0.00144183 -5.84174e-05 0)
(0.00143949 -6.0873e-05 0)
(0.00143709 -6.30577e-05 0)
(0.00143464 -6.49611e-05 0)
(0.00143216 -6.65754e-05 0)
(0.00142965 -6.78948e-05 0)
(0.00142712 -6.89162e-05 0)
(0.00142458 -6.96386e-05 0)
(0.00142204 -7.00638e-05 0)
(0.00141951 -7.01958e-05 0)
(0.00141699 -7.00408e-05 0)
(0.0014145 -6.96066e-05 0)
(0.00141203 -6.89017e-05 0)
(0.0014096 -6.7935e-05 0)
(0.0014072 -6.67168e-05 0)
(0.00140485 -6.52598e-05 0)
(0.00140254 -6.35777e-05 0)
(0.00140027 -6.1685e-05 0)
(0.00139804 -5.95973e-05 0)
(0.00139586 -5.73306e-05 0)
(0.00139371 -5.49015e-05 0)
(0.0013916 -5.23275e-05 0)
(0.00138953 -4.96255e-05 0)
(0.0013875 -4.68132e-05 0)
(0.00138549 -4.39081e-05 0)
(0.00138351 -4.09269e-05 0)
(0.00138155 -3.78871e-05 0)
(0.00137962 -3.48054e-05 0)
(0.00137769 -3.16971e-05 0)
(0.00137578 -2.85785e-05 0)
(0.00137388 -2.54651e-05 0)
(0.00137198 -2.23689e-05 0)
(0.00137009 -1.93057e-05 0)
(0.00136819 -1.62889e-05 0)
(0.00136628 -1.33257e-05 0)
(0.00136437 -1.04309e-05 0)
(0.00136245 -7.61954e-06 0)
(0.00136049 -4.88322e-06 0)
(0.00135855 -2.23578e-06 0)
(0.0013566 2.95118e-07 0)
(0.0013546 2.70967e-06 0)
(0.00135256 5.01202e-06 0)
(0.0013505 7.1929e-06 0)
(0.00134842 9.24706e-06 0)
(0.0013463 1.11728e-05 0)
(0.00134417 1.29722e-05 0)
(0.00134199 1.46414e-05 0)
(0.00133981 1.6182e-05 0)
(0.00133758 1.75909e-05 0)
(0.00133534 1.88727e-05 0)
(0.00133306 2.00249e-05 0)
(0.00133079 2.10553e-05 0)
(0.00132846 2.19607e-05 0)
(0.00132615 2.2752e-05 0)
(0.00132378 2.34242e-05 0)
(0.00132144 2.39919e-05 0)
(0.00131903 2.44479e-05 0)
(0.00131668 2.48114e-05 0)
(0.00131423 2.50711e-05 0)
(0.00131188 2.52522e-05 0)
(0.00130941 2.53371e-05 0)
(0.00130706 2.53593e-05 0)
(0.00130456 2.52922e-05 0)
(0.00130223 2.51803e-05 0)
(0.00129971 2.49841e-05 0)
(0.00129742 2.47634e-05 0)
(0.00129486 2.44602e-05 0)
(0.00129263 2.41561e-05 0)
(0.00129003 2.37664e-05 0)
(0.00128789 2.34038e-05 0)
(0.00128523 2.2946e-05 0)
(0.00128319 2.25498e-05 0)
(0.00128044 2.20392e-05 0)
(0.00127855 2.16345e-05 0)
(0.00127568 2.10831e-05 0)
(0.00127399 2.06957e-05 0)
(0.00127094 2.01106e-05 0)
(0.0012695 1.97684e-05 0)
(0.0012662 1.91509e-05 0)
(0.00126511 1.88847e-05 0)
(0.00126144 1.82282e-05 0)
(0.00126082 1.80737e-05 0)
(0.00125663 1.73609e-05 0)
(0.00151151 -3.44447e-05 0)
(0.00150908 -3.80013e-05 0)
(0.00150652 -4.13932e-05 0)
(0.00150384 -4.46023e-05 0)
(0.00150104 -4.76116e-05 0)
(0.00149812 -5.04056e-05 0)
(0.00149509 -5.29709e-05 0)
(0.00149197 -5.52953e-05 0)
(0.00148875 -5.7368e-05 0)
(0.00148544 -5.91797e-05 0)
(0.00148207 -6.07231e-05 0)
(0.00147862 -6.19926e-05 0)
(0.00147513 -6.29851e-05 0)
(0.00147159 -6.36988e-05 0)
(0.00146802 -6.41337e-05 0)
(0.00146443 -6.42912e-05 0)
(0.00146082 -6.41736e-05 0)
(0.00145721 -6.37844e-05 0)
(0.00145361 -6.31303e-05 0)
(0.00145002 -6.222e-05 0)
(0.00144647 -6.10639e-05 0)
(0.00144295 -5.96732e-05 0)
(0.00143948 -5.80607e-05 0)
(0.00143606 -5.62402e-05 0)
(0.00143269 -5.42266e-05 0)
(0.00142939 -5.20352e-05 0)
(0.00142616 -4.96819e-05 0)
(0.00142301 -4.71831e-05 0)
(0.00141992 -4.45552e-05 0)
(0.00141692 -4.18149e-05 0)
(0.001414 -3.8979e-05 0)
(0.00141116 -3.60639e-05 0)
(0.00140841 -3.30859e-05 0)
(0.00140574 -3.00611e-05 0)
(0.00140315 -2.70052e-05 0)
(0.00140065 -2.39329e-05 0)
(0.00139822 -2.08595e-05 0)
(0.00139587 -1.77989e-05 0)
(0.00139359 -1.47639e-05 0)
(0.00139138 -1.17672e-05 0)
(0.00138925 -8.82332e-06 0)
(0.00138716 -5.9379e-06 0)
(0.00138514 -3.11857e-06 0)
(0.00138322 -3.85925e-07 0)
(0.00138128 2.25047e-06 0)
(0.00137935 4.77662e-06 0)
(0.00137748 7.19457e-06 0)
(0.00137567 9.50798e-06 0)
(0.00137386 1.17058e-05 0)
(0.00137208 1.37838e-05 0)
(0.00137031 1.57387e-05 0)
(0.00136855 1.75719e-05 0)
(0.0013668 1.92773e-05 0)
(0.00136506 2.08568e-05 0)
(0.0013633 2.2306e-05 0)
(0.00136156 2.36308e-05 0)
(0.00135978 2.48262e-05 0)
(0.00135803 2.59007e-05 0)
(0.00135624 2.68484e-05 0)
(0.00135447 2.76818e-05 0)
(0.00135264 2.8393e-05 0)
(0.00135086 2.89991e-05 0)
(0.00134899 2.94891e-05 0)
(0.00134719 2.98856e-05 0)
(0.00134528 3.01728e-05 0)
(0.00134346 3.03806e-05 0)
(0.00134152 3.04858e-05 0)
(0.00133969 3.05278e-05 0)
(0.00133769 3.04731e-05 0)
(0.00133587 3.03737e-05 0)
(0.00133383 3.01816e-05 0)
(0.00133202 2.99664e-05 0)
(0.00132992 2.96591e-05 0)
(0.00132814 2.93536e-05 0)
(0.00132597 2.89523e-05 0)
(0.00132424 2.85827e-05 0)
(0.00132199 2.81066e-05 0)
(0.00132035 2.76991e-05 0)
(0.00131799 2.7165e-05 0)
(0.00131645 2.67462e-05 0)
(0.00131396 2.61673e-05 0)
(0.00131258 2.5765e-05 0)
(0.00130991 2.51505e-05 0)
(0.00130875 2.4794e-05 0)
(0.00130583 2.41477e-05 0)
(0.00130495 2.38698e-05 0)
(0.00130171 2.31885e-05 0)
(0.00130121 2.30271e-05 0)
(0.00129752 2.22988e-05 0)
(0.00150747 -2.81123e-05 0)
(0.00150385 -3.13289e-05 0)
(0.00150003 -3.43875e-05 0)
(0.00149602 -3.72728e-05 0)
(0.00149183 -3.997e-05 0)
(0.00148746 -4.24668e-05 0)
(0.00148292 -4.47524e-05 0)
(0.00147823 -4.68167e-05 0)
(0.0014734 -4.86504e-05 0)
(0.00146844 -5.02459e-05 0)
(0.00146336 -5.15976e-05 0)
(0.00145819 -5.27016e-05 0)
(0.00145294 -5.35554e-05 0)
(0.00144763 -5.41583e-05 0)
(0.00144228 -5.45103e-05 0)
(0.0014369 -5.46128e-05 0)
(0.00143151 -5.44679e-05 0)
(0.00142614 -5.40791e-05 0)
(0.0014208 -5.34528e-05 0)
(0.0014155 -5.25978e-05 0)
(0.00141027 -5.15244e-05 0)
(0.00140512 -5.0243e-05 0)
(0.00140007 -4.87656e-05 0)
(0.00139512 -4.71047e-05 0)
(0.00139031 -4.52735e-05 0)
(0.00138563 -4.3286e-05 0)
(0.0013811 -4.11559e-05 0)
(0.00137673 -3.88972e-05 0)
(0.00137254 -3.65247e-05 0)
(0.00136852 -3.40521e-05 0)
(0.00136469 -3.14938e-05 0)
(0.00136105 -2.88642e-05 0)
(0.00135761 -2.61764e-05 0)
(0.00135436 -2.34438e-05 0)
(0.00135131 -2.06809e-05 0)
(0.00134846 -1.78982e-05 0)
(0.0013458 -1.51086e-05 0)
(0.00134334 -1.23261e-05 0)
(0.00134106 -9.55975e-06 0)
(0.00133896 -6.81945e-06 0)
(0.00133704 -4.12309e-06 0)
(0.00133532 -1.48091e-06 0)
(0.00133373 1.10147e-06 0)
(0.00133225 3.60287e-06 0)
(0.00133092 6.02033e-06 0)
(0.00132976 8.37302e-06 0)
(0.00132871 1.06451e-05 0)
(0.00132778 1.28237e-05 0)
(0.00132694 1.49022e-05 0)
(0.0013262 1.68808e-05 0)
(0.00132553 1.87525e-05 0)
(0.00132494 2.05168e-05 0)
(0.00132439 2.21667e-05 0)
(0.00132391 2.37049e-05 0)
(0.00132344 2.51251e-05 0)
(0.00132303 2.64327e-05 0)
(0.00132262 2.76206e-05 0)
(0.00132225 2.86977e-05 0)
(0.00132185 2.96556e-05 0)
(0.00132149 3.05074e-05 0)
(0.00132109 3.12427e-05 0)
(0.00132072 3.18794e-05 0)
(0.00132029 3.24036e-05 0)
(0.00131989 3.28393e-05 0)
(0.00131941 3.31675e-05 0)
(0.00131898 3.34197e-05 0)
(0.00131843 3.35696e-05 0)
(0.00131796 3.36585e-05 0)
(0.00131734 3.36495e-05 0)
(0.00131683 3.35971e-05 0)
(0.00131612 3.34492e-05 0)
(0.00131556 3.32782e-05 0)
(0.00131477 3.30115e-05 0)
(0.00131418 3.27462e-05 0)
(0.00131328 3.23807e-05 0)
(0.00131267 3.20463e-05 0)
(0.00131167 3.16008e-05 0)
(0.00131105 3.1223e-05 0)
(0.00130993 3.07144e-05 0)
(0.00130932 3.03197e-05 0)
(0.00130808 2.97618e-05 0)
(0.00130751 2.9378e-05 0)
(0.00130612 2.87812e-05 0)
(0.00130563 2.8438e-05 0)
(0.00130406 2.78081e-05 0)
(0.00130369 2.75385e-05 0)
(0.00130191 2.68762e-05 0)
(0.0013017 2.67186e-05 0)
(0.00129967 2.60179e-05 0)
(0.00140404 -1.92706e-05 0)
(0.00139939 -2.19464e-05 0)
(0.00139446 -2.44794e-05 0)
(0.00138927 -2.68581e-05 0)
(0.00138381 -2.90726e-05 0)
(0.00137811 -3.11137e-05 0)
(0.00137217 -3.29734e-05 0)
(0.00136604 -3.46442e-05 0)
(0.00135971 -3.612e-05 0)
(0.00135323 -3.73964e-05 0)
(0.0013466 -3.847e-05 0)
(0.00133986 -3.93386e-05 0)
(0.00133303 -4.00014e-05 0)
(0.00132614 -4.04589e-05 0)
(0.00131921 -4.07134e-05 0)
(0.00131229 -4.07666e-05 0)
(0.00130538 -4.06218e-05 0)
(0.00129853 -4.02848e-05 0)
(0.00129175 -3.9763e-05 0)
(0.00128507 -3.9064e-05 0)
(0.00127851 -3.81964e-05 0)
(0.0012721 -3.71688e-05 0)
(0.00126587 -3.59906e-05 0)
(0.00125983 -3.4672e-05 0)
(0.001254 -3.3223e-05 0)
(0.00124841 -3.16543e-05 0)
(0.00124307 -2.99769e-05 0)
(0.00123801 -2.82009e-05 0)
(0.00123322 -2.6337e-05 0)
(0.00122872 -2.43963e-05 0)
(0.00122453 -2.23881e-05 0)
(0.00122065 -2.03226e-05 0)
(0.00121708 -1.82105e-05 0)
(0.00121383 -1.60598e-05 0)
(0.0012109 -1.38798e-05 0)
(0.00120828 -1.16805e-05 0)
(0.00120598 -9.46918e-06 0)
(0.00120398 -7.25311e-06 0)
(0.00120228 -5.04396e-06 0)
(0.00120088 -2.84766e-06 0)
(0.00119973 -6.66783e-07 0)
(0.00119884 1.48284e-06 0)
(0.00119822 3.58159e-06 0)
(0.00119787 5.64916e-06 0)
(0.00119777 7.68174e-06 0)
(0.00119788 9.66304e-06 0)
(0.00119819 1.15822e-05 0)
(0.00119869 1.34373e-05 0)
(0.00119936 1.52236e-05 0)
(0.00120018 1.69383e-05 0)
(0.00120115 1.8574e-05 0)
(0.00120223 2.013e-05 0)
(0.00120342 2.16002e-05 0)
(0.00120471 2.29857e-05 0)
(0.00120608 2.42797e-05 0)
(0.00120751 2.54855e-05 0)
(0.00120899 2.65959e-05 0)
(0.00121051 2.76173e-05 0)
(0.00121206 2.85412e-05 0)
(0.00121363 2.93775e-05 0)
(0.00121519 3.01161e-05 0)
(0.00121677 3.07711e-05 0)
(0.00121832 3.13294e-05 0)
(0.00121986 3.18105e-05 0)
(0.00122136 3.2197e-05 0)
(0.00122285 3.25154e-05 0)
(0.00122428 3.27418e-05 0)
(0.00122569 3.29116e-05 0)
(0.00122702 3.29918e-05 0)
(0.00122834 3.30297e-05 0)