/*--------------------------------*- C++ -*----------------------------------*\
| =========                 |                                                 |
| \\      /  F ield         | OpenFOAM: The Open Source CFD Toolbox           |
|  \\    /   O peration     | Version:  2312                                  |
|   \\  /    A nd           | Website:  www.openfoam.com                      |
|    \\/     M anipulation  |                                                 |
\*---------------------------------------------------------------------------*/
FoamFile
{
    version     2.0;
    format      ascii;
    arch        "LSB;label=32;scalar=64";
    class       volScalarField;
    location    "178000";
    object      p;
}
// * * * * * * * * * * * * * * * * * * * * * * * * * * * * * * * * * * * * * //

dimensions      [0 2 -2 0 0 0 0];

internalField   nonuniform List<scalar> 
10800
(
6.72274e-07
6.58143e-07
6.44359e-07
6.33757e-07
6.26302e-07
6.2087e-07
6.16371e-07
6.12235e-07
6.08297e-07
6.04561e-07
6.01067e-07
5.97818e-07
5.94781e-07
5.91906e-07
5.89146e-07
5.86469e-07
5.83852e-07
5.81282e-07
5.78749e-07
5.76244e-07
5.73757e-07
5.71281e-07
5.68809e-07
5.66335e-07
5.63854e-07
5.61361e-07
5.58853e-07
5.56327e-07
5.53781e-07
5.51211e-07
5.48617e-07
5.45996e-07
5.43348e-07
5.40672e-07
5.37966e-07
5.35231e-07
5.32467e-07
5.29672e-07
5.26849e-07
5.23996e-07
5.21115e-07
5.18205e-07
5.15267e-07
5.12301e-07
5.09307e-07
5.06284e-07
5.03233e-07
5.00149e-07
4.97039e-07
4.93885e-07
4.90711e-07
4.87463e-07
4.84227e-07
4.80822e-07
4.77566e-07
4.73797e-07
4.70813e-07
4.6573e-07
4.64768e-07
4.5349e-07
6.24283e-07
6.22549e-07
6.1989e-07
6.16743e-07
6.13498e-07
6.10366e-07
6.07398e-07
6.04559e-07
6.01798e-07
5.99085e-07
5.96413e-07
5.93789e-07
5.91219e-07
5.88703e-07
5.86234e-07
5.83804e-07
5.81402e-07
5.79022e-07
5.76657e-07
5.74302e-07
5.71952e-07
5.69603e-07
5.67252e-07
5.64894e-07
5.62525e-07
5.60144e-07
5.57746e-07
5.5533e-07
5.52894e-07
5.50435e-07
5.47953e-07
5.45445e-07
5.42911e-07
5.40349e-07
5.3776e-07
5.35141e-07
5.32496e-07
5.29818e-07
5.27116e-07
5.24379e-07
5.2162e-07
5.18824e-07
5.1601e-07
5.13154e-07
5.10287e-07
5.07367e-07
5.04452e-07
5.01466e-07
4.98511e-07
4.95455e-07
4.9248e-07
4.89354e-07
4.86413e-07
4.83236e-07
4.80462e-07
4.77296e-07
4.75021e-07
4.71949e-07
4.70784e-07
4.67387e-07
6.15676e-07
6.14918e-07
6.13491e-07
6.11518e-07
6.09205e-07
6.0675e-07
6.04278e-07
6.01839e-07
5.99436e-07
5.97058e-07
5.94694e-07
5.92344e-07
5.90014e-07
5.87708e-07
5.85428e-07
5.83173e-07
5.80937e-07
5.78717e-07
5.76506e-07
5.74301e-07
5.72099e-07
5.69896e-07
5.6769e-07
5.65478e-07
5.63256e-07
5.61024e-07
5.58778e-07
5.56516e-07
5.54236e-07
5.51938e-07
5.4962e-07
5.47279e-07
5.44917e-07
5.4253e-07
5.4012e-07
5.37684e-07
5.35224e-07
5.32736e-07
5.30225e-07
5.27683e-07
5.2512e-07
5.22523e-07
5.19907e-07
5.17254e-07
5.14587e-07
5.11876e-07
5.09161e-07
5.06392e-07
5.03634e-07
5.00809e-07
4.98018e-07
4.95141e-07
4.92337e-07
4.89415e-07
4.8663e-07
4.83673e-07
4.80956e-07
4.7797e-07
4.75362e-07
4.72262e-07
6.04083e-07
6.03644e-07
6.02845e-07
6.01737e-07
6.00387e-07
5.98867e-07
5.97234e-07
5.95527e-07
5.93768e-07
5.91966e-07
5.90129e-07
5.88261e-07
5.8637e-07
5.8446e-07
5.82537e-07
5.80604e-07
5.78662e-07
5.76711e-07
5.74751e-07
5.72781e-07
5.70801e-07
5.68808e-07
5.66804e-07
5.64786e-07
5.62753e-07
5.60706e-07
5.58643e-07
5.56562e-07
5.54464e-07
5.52347e-07
5.50211e-07
5.48054e-07
5.45878e-07
5.4368e-07
5.41461e-07
5.3922e-07
5.36957e-07
5.3467e-07
5.32361e-07
5.30028e-07
5.27672e-07
5.25288e-07
5.22883e-07
5.20447e-07
5.17988e-07
5.15495e-07
5.12978e-07
5.1042e-07
5.07837e-07
5.05204e-07
5.02547e-07
4.99831e-07
4.97094e-07
4.94289e-07
4.91469e-07
4.88571e-07
4.85664e-07
4.82653e-07
4.79638e-07
4.76528e-07
5.97607e-07
5.97389e-07
5.96946e-07
5.96283e-07
5.95416e-07
5.94372e-07
5.93184e-07
5.91884e-07
5.90495e-07
5.89035e-07
5.87515e-07
5.85945e-07
5.84332e-07
5.82683e-07
5.81002e-07
5.79295e-07
5.77565e-07
5.75815e-07
5.74046e-07
5.7226e-07
5.70458e-07
5.68639e-07
5.66805e-07
5.64955e-07
5.6309e-07
5.61209e-07
5.59312e-07
5.574e-07
5.55471e-07
5.53527e-07
5.51566e-07
5.49589e-07
5.47595e-07
5.45584e-07
5.43556e-07
5.41511e-07
5.39448e-07
5.37368e-07
5.35269e-07
5.33152e-07
5.31016e-07
5.2886e-07
5.26684e-07
5.24486e-07
5.22267e-07
5.20024e-07
5.17757e-07
5.15463e-07
5.1314e-07
5.10782e-07
5.08382e-07
5.05931e-07
5.03415e-07
5.00822e-07
4.9813e-07
4.9535e-07
4.92466e-07
4.89484e-07
4.86411e-07
4.83348e-07
5.92333e-07
5.92164e-07
5.91827e-07
5.91325e-07
5.90669e-07
5.89874e-07
5.88959e-07
5.87941e-07
5.86836e-07
5.85656e-07
5.84411e-07
5.83108e-07
5.81755e-07
5.80356e-07
5.78918e-07
5.77443e-07
5.75937e-07
5.74403e-07
5.72842e-07
5.71258e-07
5.69652e-07
5.68024e-07
5.66377e-07
5.64712e-07
5.63029e-07
5.61328e-07
5.59612e-07
5.57879e-07
5.56131e-07
5.54367e-07
5.52589e-07
5.50796e-07
5.48989e-07
5.47168e-07
5.45333e-07
5.43484e-07
5.41622e-07
5.39745e-07
5.37854e-07
5.35949e-07
5.34028e-07
5.32092e-07
5.30138e-07
5.28166e-07
5.26172e-07
5.24155e-07
5.22111e-07
5.20038e-07
5.17931e-07
5.15794e-07
5.1362e-07
5.11414e-07
5.09155e-07
5.06846e-07
5.04465e-07
5.02002e-07
4.99431e-07
4.96787e-07
4.94067e-07
4.91405e-07
5.8828e-07
5.88156e-07
5.87908e-07
5.87537e-07
5.87046e-07
5.86443e-07
5.85735e-07
5.84933e-07
5.84048e-07
5.83088e-07
5.82061e-07
5.80973e-07
5.79831e-07
5.78639e-07
5.77402e-07
5.76125e-07
5.7481e-07
5.73462e-07
5.72083e-07
5.70677e-07
5.69245e-07
5.67789e-07
5.66312e-07
5.64815e-07
5.63298e-07
5.61765e-07
5.60215e-07
5.58649e-07
5.5707e-07
5.55478e-07
5.53872e-07
5.52256e-07
5.50628e-07
5.4899e-07
5.47342e-07
5.45684e-07
5.44018e-07
5.42343e-07
5.4066e-07
5.38969e-07
5.37268e-07
5.3556e-07
5.33843e-07
5.32117e-07
5.30381e-07
5.28635e-07
5.26876e-07
5.251e-07
5.23299e-07
5.2146e-07
5.19587e-07
5.17677e-07
5.15725e-07
5.13733e-07
5.11682e-07
5.09578e-07
5.07398e-07
5.05169e-07
5.02894e-07
5.00698e-07
5.85159e-07
5.85062e-07
5.84867e-07
5.84574e-07
5.84184e-07
5.837e-07
5.83128e-07
5.82474e-07
5.81744e-07
5.80943e-07
5.80079e-07
5.79154e-07
5.78176e-07
5.77147e-07
5.76074e-07
5.74959e-07
5.73806e-07
5.72618e-07
5.71399e-07
5.70151e-07
5.68877e-07
5.67578e-07
5.66257e-07
5.64916e-07
5.63557e-07
5.62181e-07
5.6079e-07
5.59385e-07
5.57968e-07
5.5654e-07
5.55102e-07
5.53655e-07
5.52201e-07
5.50741e-07
5.49276e-07
5.47806e-07
5.46332e-07
5.44855e-07
5.43376e-07
5.41896e-07
5.40413e-07
5.3893e-07
5.37444e-07
5.35957e-07
5.34466e-07
5.32974e-07
5.3148e-07
5.2998e-07
5.28471e-07
5.26963e-07
5.25434e-07
5.23886e-07
5.22311e-07
5.20712e-07
5.19077e-07
5.17413e-07
5.15705e-07
5.13982e-07
5.12252e-07
5.10633e-07
5.82759e-07
5.8268e-07
5.82519e-07
5.82278e-07
5.81956e-07
5.81556e-07
5.8108e-07
5.80532e-07
5.79917e-07
5.79238e-07
5.78501e-07
5.77708e-07
5.76864e-07
5.75972e-07
5.75037e-07
5.74062e-07
5.73049e-07
5.72002e-07
5.70924e-07
5.69817e-07
5.68684e-07
5.67528e-07
5.6635e-07
5.65153e-07
5.63938e-07
5.62708e-07
5.61464e-07
5.60209e-07
5.58944e-07
5.57671e-07
5.56391e-07
5.55106e-07
5.53818e-07
5.52528e-07
5.51237e-07
5.49947e-07
5.48659e-07
5.47376e-07
5.46097e-07
5.44824e-07
5.43559e-07
5.42302e-07
5.41054e-07
5.39815e-07
5.38588e-07
5.37368e-07
5.36154e-07
5.3495e-07
5.33755e-07
5.3257e-07
5.31391e-07
5.30219e-07
5.29046e-07
5.27877e-07
5.26702e-07
5.2553e-07
5.24351e-07
5.2319e-07
5.22059e-07
5.2106e-07
5.80953e-07
5.80885e-07
5.8075e-07
5.80546e-07
5.80273e-07
5.79933e-07
5.79527e-07
5.79059e-07
5.78531e-07
5.77947e-07
5.77308e-07
5.7662e-07
5.75884e-07
5.75104e-07
5.74283e-07
5.73423e-07
5.72528e-07
5.71601e-07
5.70643e-07
5.69658e-07
5.68648e-07
5.67616e-07
5.66564e-07
5.65494e-07
5.64408e-07
5.63309e-07
5.62198e-07
5.61079e-07
5.59952e-07
5.5882e-07
5.57685e-07
5.56549e-07
5.55414e-07
5.54281e-07
5.53153e-07
5.52032e-07
5.50919e-07
5.49817e-07
5.48727e-07
5.47652e-07
5.46593e-07
5.45554e-07
5.44533e-07
5.43532e-07
5.42551e-07
5.41592e-07
5.40659e-07
5.39753e-07
5.38876e-07
5.38028e-07
5.3721e-07
5.36423e-07
5.35665e-07
5.3494e-07
5.34244e-07
5.33585e-07
5.3296e-07
5.3239e-07
5.31892e-07
5.3155e-07
5.79648e-07
5.79589e-07
5.79472e-07
5.79295e-07
5.79059e-07
5.78763e-07
5.7841e-07
5.78002e-07
5.7754e-07
5.77028e-07
5.76468e-07
5.75861e-07
5.75211e-07
5.7452e-07
5.73791e-07
5.73027e-07
5.72229e-07
5.714e-07
5.70544e-07
5.69662e-07
5.68757e-07
5.67832e-07
5.66888e-07
5.65928e-07
5.64955e-07
5.63971e-07
5.62978e-07
5.61979e-07
5.60976e-07
5.59971e-07
5.58966e-07
5.57965e-07
5.56969e-07
5.5598e-07
5.55001e-07
5.54034e-07
5.53081e-07
5.52147e-07
5.51236e-07
5.50346e-07
5.4948e-07
5.48638e-07
5.47826e-07
5.47047e-07
5.46304e-07
5.456e-07
5.44937e-07
5.44319e-07
5.43749e-07
5.43229e-07
5.42762e-07
5.42352e-07
5.42001e-07
5.41713e-07
5.4149e-07
5.41341e-07
5.41267e-07
5.41289e-07
5.41424e-07
5.41741e-07
5.78777e-07
5.78725e-07
5.78621e-07
5.78464e-07
5.78255e-07
5.77992e-07
5.77679e-07
5.77316e-07
5.76905e-07
5.76448e-07
5.75947e-07
5.75404e-07
5.74821e-07
5.74201e-07
5.73545e-07
5.72856e-07
5.72137e-07
5.71389e-07
5.70616e-07
5.69819e-07
5.69001e-07
5.68165e-07
5.67313e-07
5.66447e-07
5.65569e-07
5.64683e-07
5.63791e-07
5.62895e-07
5.61998e-07
5.61103e-07
5.60211e-07
5.59329e-07
5.58455e-07
5.57593e-07
5.56747e-07
5.55918e-07
5.55109e-07
5.54324e-07
5.53563e-07
5.52832e-07
5.52135e-07
5.51475e-07
5.50855e-07
5.50281e-07
5.49755e-07
5.49282e-07
5.48866e-07
5.48511e-07
5.48222e-07
5.48004e-07
5.47861e-07
5.478e-07
5.47826e-07
5.47946e-07
5.48166e-07
5.48494e-07
5.4894e-07
5.4952e-07
5.50255e-07
5.51196e-07
5.7829e-07
5.78243e-07
5.78149e-07
5.78007e-07
5.77816e-07
5.77578e-07
5.77293e-07
5.76963e-07
5.76589e-07
5.76173e-07
5.75717e-07
5.75222e-07
5.7469e-07
5.74124e-07
5.73524e-07
5.72894e-07
5.72236e-07
5.71552e-07
5.70844e-07
5.70115e-07
5.69367e-07
5.68602e-07
5.67824e-07
5.67034e-07
5.66235e-07
5.6543e-07
5.64621e-07
5.63811e-07
5.63003e-07
5.62199e-07
5.61403e-07
5.60615e-07
5.5984e-07
5.59082e-07
5.58344e-07
5.57628e-07
5.56939e-07
5.56278e-07
5.55651e-07
5.5506e-07
5.54511e-07
5.54008e-07
5.53554e-07
5.53155e-07
5.52816e-07
5.52541e-07
5.52337e-07
5.52208e-07
5.52162e-07
5.52205e-07
5.52344e-07
5.52586e-07
5.5294e-07
5.53415e-07
5.5402e-07
5.54767e-07
5.55667e-07
5.56737e-07
5.57998e-07
5.59486e-07
5.78154e-07
5.7811e-07
5.78023e-07
5.7789e-07
5.77713e-07
5.77491e-07
5.77226e-07
5.76919e-07
5.76571e-07
5.76184e-07
5.75759e-07
5.75297e-07
5.74801e-07
5.74272e-07
5.73713e-07
5.73126e-07
5.72512e-07
5.71874e-07
5.71214e-07
5.70535e-07
5.69839e-07
5.69128e-07
5.68405e-07
5.67672e-07
5.66932e-07
5.66188e-07
5.65443e-07
5.64698e-07
5.63958e-07
5.63225e-07
5.62501e-07
5.6179e-07
5.61095e-07
5.6042e-07
5.59768e-07
5.59143e-07
5.58549e-07
5.57989e-07
5.57467e-07
5.56988e-07
5.56557e-07
5.56177e-07
5.55855e-07
5.55595e-07
5.55404e-07
5.55287e-07
5.55251e-07
5.55302e-07
5.55449e-07
5.55698e-07
5.5606e-07
5.56543e-07
5.57157e-07
5.57912e-07
5.58823e-07
5.59899e-07
5.61159e-07
5.62616e-07
5.64293e-07
5.66214e-07
5.78339e-07
5.78297e-07
5.78213e-07
5.78087e-07
5.77917e-07
5.77706e-07
5.77453e-07
5.77159e-07
5.76827e-07
5.76457e-07
5.76051e-07
5.7561e-07
5.75137e-07
5.74632e-07
5.74099e-07
5.73538e-07
5.72953e-07
5.72345e-07
5.71716e-07
5.7107e-07
5.70408e-07
5.69732e-07
5.69046e-07
5.68352e-07
5.67652e-07
5.6695e-07
5.66248e-07
5.65549e-07
5.64855e-07
5.64171e-07
5.63499e-07
5.62842e-07
5.62204e-07
5.61588e-07
5.60998e-07
5.60437e-07
5.5991e-07
5.59421e-07
5.58975e-07
5.58575e-07
5.58226e-07
5.57934e-07
5.57705e-07
5.57543e-07
5.57456e-07
5.57449e-07
5.57531e-07
5.57707e-07
5.57987e-07
5.5838e-07
5.58895e-07
5.59541e-07
5.60332e-07
5.61278e-07
5.62393e-07
5.63691e-07
5.6519e-07
5.66904e-07
5.68855e-07
5.7106e-07
5.78831e-07
5.78791e-07
5.78708e-07
5.78584e-07
5.78418e-07
5.7821e-07
5.77962e-07
5.77674e-07
5.77347e-07
5.76984e-07
5.76586e-07
5.76153e-07
5.75689e-07
5.75194e-07
5.74671e-07
5.74122e-07
5.7355e-07
5.72955e-07
5.72341e-07
5.71709e-07
5.71063e-07
5.70405e-07
5.69738e-07
5.69063e-07
5.68384e-07
5.67704e-07
5.67025e-07
5.6635e-07
5.65683e-07
5.65025e-07
5.64382e-07
5.63755e-07
5.63149e-07
5.62566e-07
5.62011e-07
5.61487e-07
5.60999e-07
5.6055e-07
5.60146e-07
5.5979e-07
5.59488e-07
5.59246e-07
5.59067e-07
5.5896e-07
5.58929e-07
5.58982e-07
5.59125e-07
5.59367e-07
5.59717e-07
5.60182e-07
5.60773e-07
5.615e-07
5.62375e-07
5.6341e-07
5.6462e-07
5.66017e-07
5.6762e-07
5.69443e-07
5.71508e-07
5.73828e-07
5.7963e-07
5.79588e-07
5.79505e-07
5.79379e-07
5.79211e-07
5.79e-07
5.78748e-07
5.78456e-07
5.78126e-07
5.77758e-07
5.77355e-07
5.76918e-07
5.76449e-07
5.7595e-07
5.75424e-07
5.74871e-07
5.74294e-07
5.73696e-07
5.73079e-07
5.72446e-07
5.71799e-07
5.7114e-07
5.70472e-07
5.69797e-07
5.6912e-07
5.68441e-07
5.67764e-07
5.67093e-07
5.66429e-07
5.65777e-07
5.65139e-07
5.64518e-07
5.63918e-07
5.63343e-07
5.62796e-07
5.6228e-07
5.61801e-07
5.61362e-07
5.60967e-07
5.60621e-07
5.60328e-07
5.60095e-07
5.59926e-07
5.59828e-07
5.59805e-07
5.59865e-07
5.60015e-07
5.60262e-07
5.60615e-07
5.61081e-07
5.6167e-07
5.62392e-07
5.63258e-07
5.6428e-07
5.65472e-07
5.66845e-07
5.68416e-07
5.702e-07
5.72213e-07
5.74471e-07
5.80737e-07
5.80693e-07
5.80606e-07
5.80474e-07
5.80298e-07
5.80078e-07
5.79814e-07
5.79509e-07
5.79164e-07
5.78781e-07
5.78361e-07
5.77906e-07
5.77419e-07
5.769e-07
5.76354e-07
5.75781e-07
5.75184e-07
5.74567e-07
5.7393e-07
5.73276e-07
5.72609e-07
5.7193e-07
5.71243e-07
5.7055e-07
5.69853e-07
5.69156e-07
5.68462e-07
5.67772e-07
5.67091e-07
5.66421e-07
5.65765e-07
5.65126e-07
5.64509e-07
5.63915e-07
5.63349e-07
5.62814e-07
5.62314e-07
5.61853e-07
5.61435e-07
5.61065e-07
5.60746e-07
5.60484e-07
5.60283e-07
5.6015e-07
5.60089e-07
5.60106e-07
5.60208e-07
5.60401e-07
5.60693e-07
5.61091e-07
5.61604e-07
5.62239e-07
5.63005e-07
5.63913e-07
5.64975e-07
5.66203e-07
5.67614e-07
5.69217e-07
5.71034e-07
5.73083e-07
5.82167e-07
5.8212e-07
5.82026e-07
5.81884e-07
5.81693e-07
5.81455e-07
5.81171e-07
5.80842e-07
5.80471e-07
5.80059e-07
5.79609e-07
5.79122e-07
5.786e-07
5.78047e-07
5.77465e-07
5.76855e-07
5.76221e-07
5.75565e-07
5.7489e-07
5.74199e-07
5.73493e-07
5.72776e-07
5.72051e-07
5.71319e-07
5.70584e-07
5.69849e-07
5.69115e-07
5.68387e-07
5.67666e-07
5.66957e-07
5.6626e-07
5.65581e-07
5.64921e-07
5.64284e-07
5.63674e-07
5.63092e-07
5.62544e-07
5.62033e-07
5.61561e-07
5.61134e-07
5.60755e-07
5.60428e-07
5.60158e-07
5.59949e-07
5.59807e-07
5.59735e-07
5.5974e-07
5.59827e-07
5.60001e-07
5.6027e-07
5.60639e-07
5.61115e-07
5.61707e-07
5.62419e-07
5.63265e-07
5.64256e-07
5.65397e-07
5.66704e-07
5.68194e-07
5.69896e-07
5.83947e-07
5.83895e-07
5.8379e-07
5.83631e-07
5.83419e-07
5.83154e-07
5.82838e-07
5.82474e-07
5.82063e-07
5.81608e-07
5.81111e-07
5.80575e-07
5.80003e-07
5.79398e-07
5.78761e-07
5.78097e-07
5.77407e-07
5.76695e-07
5.75964e-07
5.75215e-07
5.74452e-07
5.73678e-07
5.72894e-07
5.72105e-07
5.71312e-07
5.70518e-07
5.69726e-07
5.68939e-07
5.68158e-07
5.67388e-07
5.6663e-07
5.65888e-07
5.65163e-07
5.6446e-07
5.63781e-07
5.63129e-07
5.62506e-07
5.61918e-07
5.61365e-07
5.60852e-07
5.60382e-07
5.59959e-07
5.59586e-07
5.59268e-07
5.59006e-07
5.58807e-07
5.58673e-07
5.5861e-07
5.5862e-07
5.5871e-07
5.58883e-07
5.59143e-07
5.59496e-07
5.59953e-07
5.60514e-07
5.61187e-07
5.61978e-07
5.62901e-07
5.63972e-07
5.65231e-07
5.86117e-07
5.86057e-07
5.85936e-07
5.85754e-07
5.8551e-07
5.85207e-07
5.84846e-07
5.8443e-07
5.83963e-07
5.83447e-07
5.82885e-07
5.82281e-07
5.81639e-07
5.80961e-07
5.80251e-07
5.79512e-07
5.78747e-07
5.77959e-07
5.7715e-07
5.76325e-07
5.75486e-07
5.74635e-07
5.73775e-07
5.72908e-07
5.72038e-07
5.71167e-07
5.70297e-07
5.69431e-07
5.68572e-07
5.67721e-07
5.66881e-07
5.66056e-07
5.65246e-07
5.64456e-07
5.63687e-07
5.62941e-07
5.62223e-07
5.61533e-07
5.60876e-07
5.60253e-07
5.59667e-07
5.59121e-07
5.58618e-07
5.5816e-07
5.57751e-07
5.57393e-07
5.57088e-07
5.56841e-07
5.56652e-07
5.56526e-07
5.56463e-07
5.5647e-07
5.56545e-07
5.56695e-07
5.56918e-07
5.57225e-07
5.57614e-07
5.581e-07
5.58695e-07
5.59456e-07
5.88735e-07
5.88664e-07
5.88521e-07
5.88305e-07
5.88017e-07
5.87659e-07
5.87234e-07
5.86747e-07
5.86202e-07
5.85603e-07
5.84954e-07
5.84259e-07
5.83523e-07
5.8275e-07
5.81943e-07
5.81107e-07
5.80244e-07
5.79358e-07
5.78453e-07
5.7753e-07
5.76594e-07
5.75647e-07
5.74691e-07
5.73728e-07
5.72763e-07
5.71795e-07
5.70829e-07
5.69867e-07
5.6891e-07
5.6796e-07
5.67021e-07
5.66094e-07
5.65181e-07
5.64285e-07
5.63407e-07
5.6255e-07
5.61716e-07
5.60906e-07
5.60124e-07
5.59371e-07
5.58649e-07
5.57961e-07
5.57307e-07
5.56691e-07
5.56112e-07
5.55575e-07
5.55079e-07
5.54627e-07
5.54219e-07
5.53859e-07
5.53543e-07
5.53276e-07
5.53053e-07
5.52876e-07
5.52736e-07
5.52652e-07
5.52614e-07
5.52639e-07
5.52735e-07
5.52972e-07
5.91885e-07
5.91798e-07
5.91622e-07
5.91357e-07
5.91005e-07
5.90569e-07
5.90055e-07
5.89469e-07
5.88817e-07
5.88106e-07
5.87341e-07
5.86528e-07
5.85671e-07
5.84776e-07
5.83847e-07
5.82889e-07
5.81905e-07
5.80899e-07
5.79874e-07
5.78834e-07
5.7778e-07
5.76716e-07
5.75645e-07
5.74568e-07
5.73488e-07
5.72407e-07
5.71327e-07
5.7025e-07
5.69178e-07
5.68113e-07
5.67057e-07
5.66011e-07
5.64978e-07
5.63959e-07
5.62956e-07
5.61971e-07
5.61004e-07
5.60059e-07
5.59136e-07
5.58237e-07
5.57363e-07
5.56516e-07
5.55696e-07
5.54905e-07
5.54144e-07
5.53413e-07
5.52712e-07
5.52042e-07
5.51399e-07
5.50787e-07
5.50201e-07
5.49643e-07
5.49109e-07
5.48606e-07
5.48123e-07
5.47659e-07
5.47195e-07
5.46763e-07
5.46371e-07
5.46105e-07
5.95689e-07
5.95576e-07
5.95348e-07
5.95008e-07
5.94558e-07
5.94007e-07
5.93362e-07
5.92636e-07
5.91837e-07
5.90974e-07
5.90057e-07
5.89091e-07
5.88083e-07
5.87037e-07
5.8596e-07
5.84855e-07
5.83726e-07
5.82577e-07
5.81412e-07
5.80234e-07
5.79045e-07
5.77847e-07
5.76644e-07
5.75436e-07
5.74227e-07
5.73017e-07
5.71809e-07
5.70603e-07
5.69403e-07
5.68208e-07
5.67022e-07
5.65844e-07
5.64678e-07
5.63523e-07
5.62382e-07
5.61255e-07
5.60144e-07
5.5905e-07
5.57974e-07
5.56918e-07
5.55881e-07
5.54866e-07
5.53872e-07
5.529e-07
5.51949e-07
5.51021e-07
5.50114e-07
5.49229e-07
5.48363e-07
5.47518e-07
5.46688e-07
5.45874e-07
5.45064e-07
5.44259e-07
5.43439e-07
5.42609e-07
5.41744e-07
5.40889e-07
5.40041e-07
5.39287e-07
6.00351e-07
6.00195e-07
5.99883e-07
5.99417e-07
5.98807e-07
5.98071e-07
5.97225e-07
5.96289e-07
5.95278e-07
5.94204e-07
5.93078e-07
5.91908e-07
5.907e-07
5.89461e-07
5.88195e-07
5.86907e-07
5.85602e-07
5.84283e-07
5.82953e-07
5.81615e-07
5.8027e-07
5.78922e-07
5.7757e-07
5.76217e-07
5.74864e-07
5.73512e-07
5.72163e-07
5.70818e-07
5.69477e-07
5.68143e-07
5.66815e-07
5.65495e-07
5.64185e-07
5.62884e-07
5.61594e-07
5.60317e-07
5.59052e-07
5.578e-07
5.56563e-07
5.55341e-07
5.54135e-07
5.52945e-07
5.5177e-07
5.50612e-07
5.49469e-07
5.48341e-07
5.47226e-07
5.46125e-07
5.45031e-07
5.43945e-07
5.4286e-07
5.41775e-07
5.40679e-07
5.39578e-07
5.38454e-07
5.37321e-07
5.36169e-07
5.35002e-07
5.33806e-07
5.32667e-07
6.06137e-07
6.05929e-07
6.05509e-07
6.04881e-07
6.04062e-07
6.0308e-07
6.01968e-07
6.00756e-07
5.99469e-07
5.98124e-07
5.96734e-07
5.95306e-07
5.9385e-07
5.92371e-07
5.90876e-07
5.89369e-07
5.87854e-07
5.86335e-07
5.84812e-07
5.83289e-07
5.81765e-07
5.80243e-07
5.78722e-07
5.77204e-07
5.7569e-07
5.74179e-07
5.72672e-07
5.71171e-07
5.69675e-07
5.68185e-07
5.66702e-07
5.65226e-07
5.63758e-07
5.62298e-07
5.60848e-07
5.59408e-07
5.57979e-07
5.5656e-07
5.55153e-07
5.53759e-07
5.52377e-07
5.51008e-07
5.49652e-07
5.4831e-07
5.46981e-07
5.45664e-07
5.44359e-07
5.43066e-07
5.41782e-07
5.40507e-07
5.39236e-07
5.37967e-07
5.36692e-07
5.35405e-07
5.34093e-07
5.32745e-07
5.31342e-07
5.29878e-07
5.28343e-07
5.26823e-07
6.13081e-07
6.12654e-07
6.11881e-07
6.1081e-07
6.09512e-07
6.08057e-07
6.06504e-07
6.0489e-07
6.03239e-07
6.01559e-07
5.99858e-07
5.98141e-07
5.96415e-07
5.94686e-07
5.92959e-07
5.91237e-07
5.89521e-07
5.87812e-07
5.86111e-07
5.84416e-07
5.82728e-07
5.81045e-07
5.79369e-07
5.77698e-07
5.76032e-07
5.74371e-07
5.72715e-07
5.71064e-07
5.69418e-07
5.67776e-07
5.66139e-07
5.64508e-07
5.62882e-07
5.61262e-07
5.59649e-07
5.58042e-07
5.56443e-07
5.54852e-07
5.5327e-07
5.51695e-07
5.50131e-07
5.48575e-07
5.47032e-07
5.45495e-07
5.43973e-07
5.42455e-07
5.40954e-07
5.39456e-07
5.37975e-07
5.36492e-07
5.35029e-07
5.33557e-07
5.32108e-07
5.30638e-07
5.29198e-07
5.27719e-07
5.26274e-07
5.24767e-07
5.23306e-07
5.21774e-07
6.24971e-07
6.24229e-07
6.2283e-07
6.20901e-07
6.18647e-07
6.16264e-07
6.13879e-07
6.11543e-07
6.09257e-07
6.0701e-07
6.04793e-07
6.02604e-07
6.0045e-07
5.98336e-07
5.96262e-07
5.94229e-07
5.9223e-07
5.90263e-07
5.88321e-07
5.86402e-07
5.84503e-07
5.82621e-07
5.80754e-07
5.78899e-07
5.77056e-07
5.75221e-07
5.73395e-07
5.71575e-07
5.69761e-07
5.67952e-07
5.66148e-07
5.64349e-07
5.62555e-07
5.60764e-07
5.5898e-07
5.572e-07
5.55427e-07
5.53657e-07
5.51898e-07
5.50141e-07
5.48396e-07
5.46654e-07
5.44928e-07
5.43201e-07
5.41496e-07
5.39786e-07
5.38108e-07
5.36418e-07
5.34776e-07
5.33111e-07
5.3152e-07
5.29891e-07
5.2838e-07
5.26805e-07
5.2542e-07
5.23925e-07
5.22729e-07
5.21323e-07
5.20353e-07
5.18909e-07
6.33859e-07
6.32138e-07
6.29508e-07
6.26406e-07
6.23221e-07
6.20167e-07
6.17292e-07
6.14562e-07
6.11925e-07
6.09351e-07
6.06834e-07
6.04379e-07
6.01994e-07
5.99677e-07
5.97423e-07
5.95222e-07
5.93065e-07
5.90944e-07
5.88855e-07
5.86791e-07
5.8475e-07
5.82727e-07
5.80719e-07
5.78723e-07
5.76738e-07
5.74759e-07
5.72787e-07
5.70819e-07
5.68856e-07
5.66895e-07
5.64937e-07
5.62982e-07
5.6103e-07
5.59079e-07
5.57134e-07
5.5519e-07
5.53253e-07
5.51318e-07
5.49392e-07
5.47468e-07
5.45555e-07
5.43643e-07
5.41748e-07
5.39849e-07
5.37974e-07
5.36087e-07
5.34238e-07
5.3236e-07
5.30546e-07
5.28677e-07
5.2692e-07
5.25064e-07
5.23421e-07
5.21602e-07
5.20216e-07
5.18519e-07
5.17739e-07
5.16238e-07
5.16676e-07
5.14968e-07
6.81959e-07
6.67845e-07
6.54096e-07
6.43545e-07
6.36159e-07
6.30812e-07
6.26414e-07
6.22396e-07
6.18589e-07
6.15002e-07
6.11671e-07
6.086e-07
6.05755e-07
6.03086e-07
6.00547e-07
5.98105e-07
5.95738e-07
5.93433e-07
5.91179e-07
5.88969e-07
5.86793e-07
5.84645e-07
5.82518e-07
5.80407e-07
5.78309e-07
5.7622e-07
5.74137e-07
5.7206e-07
5.69986e-07
5.67915e-07
5.65845e-07
5.63778e-07
5.61713e-07
5.5965e-07
5.57589e-07
5.55532e-07
5.5348e-07
5.51432e-07
5.49389e-07
5.47354e-07
5.45325e-07
5.43305e-07
5.41292e-07
5.39289e-07
5.37294e-07
5.35307e-07
5.33329e-07
5.31356e-07
5.29392e-07
5.27423e-07
5.25469e-07
5.23484e-07
5.21539e-07
5.1948e-07
5.17583e-07
5.15249e-07
5.13674e-07
5.10137e-07
5.10677e-07
5.00923e-07
4.92259e-07
4.39265e-07
4.16102e-07
3.96266e-07
3.76332e-07
3.56126e-07
3.33963e-07
3.10463e-07
2.83929e-07
2.55804e-07
2.245e-07
1.92449e-07
1.58063e-07
1.24676e-07
9.06257e-08
5.98716e-08
3.03521e-08
6.16316e-09
-1.54082e-08
-3.03087e-08
-4.21622e-08
-4.67679e-08
-4.89019e-08
-4.34169e-08
-3.65943e-08
-2.06908e-08
-7.49199e-09
1.95961e-08
3.62564e-08
2.04248e-08
4.77303e-07
4.19337e-07
4.03296e-07
3.86123e-07
3.66931e-07
3.47205e-07
3.25513e-07
3.0237e-07
2.76232e-07
2.48701e-07
2.18237e-07
1.87246e-07
1.54141e-07
1.22135e-07
8.9522e-08
5.9985e-08
3.15621e-08
8.09134e-09
-1.31245e-08
-2.81023e-08
-4.0472e-08
-4.58475e-08
-4.92946e-08
-4.53163e-08
-4.07979e-08
-2.7426e-08
-1.55878e-08
4.42672e-09
3.3673e-08
-2.33215e-08
4.64325e-07
4.164e-07
4.01462e-07
3.84798e-07
3.65136e-07
3.44532e-07
3.22307e-07
2.98843e-07
2.72695e-07
2.45144e-07
2.1493e-07
1.84141e-07
1.51509e-07
1.19875e-07
8.7821e-08
5.87401e-08
3.07806e-08
7.62884e-09
-1.33749e-08
-2.82902e-08
-4.08363e-08
-4.6591e-08
-5.04405e-08
-4.71776e-08
-4.2802e-08
-3.14939e-08
-1.90969e-08
-6.55836e-09
3.56653e-08
-6.15678e-09
4.53316e-07
4.11361e-07
3.94207e-07
3.78052e-07
3.59101e-07
3.39101e-07
3.17139e-07
2.93682e-07
2.67622e-07
2.40083e-07
2.1014e-07
1.79547e-07
1.47439e-07
1.16166e-07
8.47911e-08
5.60677e-08
2.87459e-08
5.68777e-09
-1.49319e-08
-3.01837e-08
-4.2585e-08
-4.92046e-08
-5.28974e-08
-5.13529e-08
-4.65985e-08
-3.89556e-08
-2.3282e-08
-1.92553e-08
2.74193e-08
-5.44433e-10
4.42556e-07
4.07921e-07
3.89904e-07
3.74978e-07
3.56588e-07
3.35807e-07
3.13267e-07
2.8929e-07
2.63134e-07
2.35285e-07
2.05456e-07
1.74695e-07
1.42968e-07
1.11668e-07
8.08757e-08
5.21276e-08
2.53937e-08
2.07606e-09
-1.7985e-08
-3.39223e-08
-4.58943e-08
-5.37112e-08
-5.6871e-08
-5.71997e-08
-5.10981e-08
-4.61825e-08
-2.7795e-08
-2.44826e-08
1.53687e-08
1.11813e-08
4.32977e-07
4.05328e-07
3.86354e-07
3.70884e-07
3.52721e-07
3.31895e-07
3.09154e-07
2.84747e-07
2.5841e-07
2.30178e-07
2.00321e-07
1.69269e-07
1.37751e-07
1.06264e-07
7.58931e-08
4.69395e-08
2.07205e-08
-2.95243e-09
-2.25201e-08
-3.92114e-08
-5.07207e-08
-5.97652e-08
-6.23887e-08
-6.41873e-08
-5.72993e-08
-5.3533e-08
-3.54305e-08
-2.943e-08
7.85437e-10
1.08177e-08
4.24884e-07
4.02876e-07
3.83679e-07
3.67305e-07
3.49236e-07
3.28346e-07
3.05294e-07
2.80293e-07
2.53564e-07
2.24833e-07
1.9476e-07
1.63318e-07
1.31795e-07
1.00055e-07
6.98906e-08
4.07221e-08
1.48306e-08
-9.17612e-09
-2.84772e-08
-4.57463e-08
-5.70784e-08
-6.69393e-08
-6.96599e-08
-7.21488e-08
-6.57393e-08
-6.16181e-08
-4.58119e-08
-3.6032e-08
-1.27338e-08
4.02609e-09
4.18483e-07
4.00452e-07
3.81666e-07
3.64219e-07
3.45838e-07
3.24765e-07
3.01336e-07
2.75714e-07
2.48429e-07
2.19144e-07
1.88673e-07
1.56815e-07
1.25075e-07
9.30803e-08
6.28855e-08
3.35764e-08
7.73493e-09
-1.64456e-08
-3.58168e-08
-5.33017e-08
-6.49798e-08
-7.51754e-08
-7.86877e-08
-8.12738e-08
-7.6275e-08
-7.13155e-08
-5.80584e-08
-4.56986e-08
-2.59976e-08
-7.36848e-09
4.13853e-07
3.98037e-07
3.79816e-07
3.61569e-07
3.42544e-07
3.21091e-07
2.97191e-07
2.70938e-07
2.42962e-07
2.13065e-07
1.82032e-07
1.49735e-07
1.17599e-07
8.53611e-08
5.49337e-08
2.55523e-08
-4.69389e-10
-2.46776e-08
-4.43642e-08
-6.19355e-08
-7.42525e-08
-8.45647e-08
-8.91438e-08
-9.18011e-08
-8.83434e-08
-8.3108e-08
-7.17344e-08
-5.86904e-08
-4.05564e-08
-2.20661e-08
4.10752e-07
3.95671e-07
3.7795e-07
3.59173e-07
3.39314e-07
3.17255e-07
2.92759e-07
2.65847e-07
2.3709e-07
2.06517e-07
1.74804e-07
1.42028e-07
1.09383e-07
7.6887e-08
4.61103e-08
1.66657e-08
-9.65044e-09
-3.38523e-08
-5.3964e-08
-7.16262e-08
-8.46736e-08
-9.51658e-08
-1.00772e-07
-1.03799e-07
-1.01715e-07
-9.69077e-08
-8.69581e-08
-7.43428e-08
-5.7341e-08
-3.95701e-08
4.08702e-07
3.93468e-07
3.75945e-07
3.5674e-07
3.36011e-07
3.13175e-07
2.87948e-07
2.60321e-07
2.30736e-07
1.99419e-07
1.66958e-07
1.3364e-07
1.00434e-07
6.76351e-08
3.64766e-08
6.92245e-09
-1.96994e-08
-4.39503e-08
-6.44669e-08
-8.22946e-08
-9.59954e-08
-1.06896e-07
-1.13458e-07
-1.17149e-07
-1.16323e-07
-1.12426e-07
-1.03858e-07
-9.22807e-08
-7.65803e-08
-5.99083e-08
4.07177e-07
3.91478e-07
3.73746e-07
3.54044e-07
3.32458e-07
3.08741e-07
2.82677e-07
2.54256e-07
2.2381e-07
1.91686e-07
1.58437e-07
1.24507e-07
9.07258e-08
5.75655e-08
2.60352e-08
-3.68672e-09
-3.05815e-08
-5.49507e-08
-7.58129e-08
-9.38924e-08
-1.08181e-07
-1.1964e-07
-1.27141e-07
-1.3173e-07
-1.32143e-07
-1.29493e-07
-1.2244e-07
-1.1234e-07
-9.82441e-08
-8.31483e-08
4.05722e-07
3.89564e-07
3.71315e-07
3.50947e-07
3.28485e-07
3.03832e-07
2.76854e-07
2.47553e-07
2.16207e-07
1.83215e-07
1.4915e-07
1.14543e-07
8.01795e-08
4.66038e-08
1.4718e-08
-1.52165e-08
-4.23492e-08
-6.68792e-08
-8.80358e-08
-1.06419e-07
-1.21245e-07
-1.33335e-07
-1.41763e-07
-1.47417e-07
-1.49179e-07
-1.47984e-07
-1.42668e-07
-1.34356e-07
-1.2228e-07
-1.09157e-07
4.04074e-07
3.87509e-07
3.68566e-07
3.47364e-07
3.23973e-07
2.98339e-07
2.70381e-07
2.40109e-07
2.07803e-07
1.73878e-07
1.38958e-07
1.03617e-07
6.86549e-08
3.46227e-08
2.38779e-09
-2.77879e-08
-5.51322e-08
-7.98394e-08
-1.01251e-07
-1.19951e-07
-1.35277e-07
-1.48022e-07
-1.57375e-07
-1.64171e-07
-1.67392e-07
-1.67873e-07
-1.64494e-07
-1.58276e-07
-1.4859e-07
-1.37908e-07
4.02115e-07
3.85098e-07
3.65379e-07
3.43245e-07
3.18854e-07
2.92167e-07
2.6314e-07
2.31792e-07
1.98435e-07
1.63499e-07
1.27668e-07
9.15387e-08
5.5944e-08
2.14255e-08
-1.11647e-08
-4.15877e-08
-6.91276e-08
-9.39995e-08
-1.15634e-07
-1.34627e-07
-1.5042e-07
-1.63803e-07
-1.74075e-07
-1.82038e-07
-1.86794e-07
-1.89073e-07
-1.87889e-07
-1.84052e-07
-1.77136e-07
-1.6932e-07
3.99851e-07
3.82238e-07
3.61703e-07
3.38575e-07
3.13083e-07
2.85221e-07
2.54986e-07
2.22425e-07
1.87895e-07
1.51851e-07
1.15028e-07
7.80507e-08
4.17775e-08
6.75132e-09
-2.62045e-08
-5.68592e-08
-8.45772e-08
-1.0957e-07
-1.31393e-07
-1.50617e-07
-1.6684e-07
-1.80795e-07
-1.91969e-07
-2.01065e-07
-2.07403e-07
-2.1155e-07
-2.12772e-07
-2.11603e-07
-2.07858e-07
-2.03333e-07
3.97412e-07
3.78972e-07
3.57546e-07
3.33337e-07
3.06591e-07
2.77366e-07
2.45725e-07
2.11775e-07
1.75915e-07
1.38646e-07
1.00732e-07
6.28452e-08
2.5844e-08
-9.69848e-09
-4.30211e-08
-7.38681e-08
-1.0173e-07
-1.26771e-07
-1.48727e-07
-1.68088e-07
-1.84676e-07
-1.99099e-07
-2.11115e-07
-2.21261e-07
-2.29167e-07
-2.35195e-07
-2.38929e-07
-2.40652e-07
-2.40464e-07
-2.39786e-07
3.94984e-07
3.75406e-07
3.52898e-07
3.27431e-07
2.99205e-07
2.68368e-07
2.35076e-07
1.99529e-07
1.62162e-07
1.2354e-07
8.44313e-08
4.55792e-08
7.81243e-09
-2.82336e-08
-6.19027e-08
-9.2875e-08
-1.2082e-07
-1.45806e-07
-1.67811e-07
-1.87178e-07
-2.04027e-07
-2.18771e-07
-2.31515e-07
-2.42569e-07
-2.51949e-07
-2.59778e-07
-2.66031e-07
-2.70758e-07
-2.74368e-07
-2.77964e-07
3.92678e-07
3.7163e-07
3.47674e-07
3.20615e-07
2.90599e-07
2.57864e-07
2.22657e-07
1.85293e-07
1.46235e-07
1.06129e-07
6.57322e-08
2.58766e-08
-1.2668e-08
-4.91797e-08
-8.31438e-08
-1.1415e-07
-1.42084e-07
-1.66889e-07
-1.8882e-07
-2.08037e-07
-2.24998e-07
-2.39877e-07
-2.53169e-07
-2.64927e-07
-2.75589e-07
-2.85029e-07
-2.93658e-07
-3.01307e-07
-3.08769e-07
-3.16843e-07
3.9022e-07
3.67395e-07
3.41511e-07
3.12412e-07
2.80249e-07
2.45326e-07
2.07951e-07
1.68554e-07
1.27628e-07
8.59165e-08
4.41568e-08
3.27928e-09
-3.60235e-08
-7.29388e-08
-1.07111e-07
-1.3804e-07
-1.65836e-07
-1.90316e-07
-2.12016e-07
-2.30906e-07
-2.47781e-07
-2.62578e-07
-2.76177e-07
-2.88366e-07
-3.00018e-07
-3.10747e-07
-3.21433e-07
-3.31665e-07
-3.42722e-07
-3.55023e-07
3.8686e-07
3.61966e-07
3.33708e-07
3.02139e-07
2.67466e-07
2.30053e-07
1.90256e-07
1.48606e-07
1.05642e-07
6.22069e-08
1.90316e-08
-2.28687e-08
-6.28726e-08
-1.00104e-07
-1.34354e-07
-1.65071e-07
-1.92563e-07
-2.16564e-07
-2.37836e-07
-2.5621e-07
-2.7274e-07
-2.87193e-07