/*--------------------------------*- C++ -*----------------------------------*\
| =========                 |                                                 |
| \\      /  F ield         | OpenFOAM: The Open Source CFD Toolbox           |
|  \\    /   O peration     | Version:  2312                                  |
|   \\  /    A nd           | Website:  www.openfoam.com                      |
|    \\/     M anipulation  |                                                 |
\*---------------------------------------------------------------------------*/
FoamFile
{
    version     2.0;
    format      ascii;
    arch        "LSB;label=32;scalar=64";
    class       surfaceScalarField;
    location    "180000";
    object      phi;
}
// * * * * * * * * * * * * * * * * * * * * * * * * * * * * * * * * * * * * * //

dimensions      [0 3 -1 0 0 0 0];

oriented        oriented;

internalField   nonuniform List<scalar> 
21240
(
0.000664976
1.69114e-06
0.000661077
3.89856e-06
0.000655763
5.31375e-06
0.000649538
6.22545e-06
0.000642678
6.85973e-06
0.000635327
7.35128e-06
0.000627576
7.75061e-06
0.000619505
8.07081e-06
0.000611187
8.31794e-06
0.000602686
8.501e-06
0.000594054
8.63235e-06
0.00058533
8.72435e-06
0.000576543
8.7867e-06
0.000567717
8.82579e-06
0.000558872
8.84552e-06
0.000550023
8.84845e-06
0.000541187
8.83651e-06
0.000532375
8.81134e-06
0.000523601
8.77438e-06
0.000514874
8.7268e-06
0.000506205
8.6695e-06
0.000497602
8.6032e-06
0.000489073
8.52837e-06
0.000480628
8.4454e-06
0.000472273
8.35458e-06
0.000464017
8.25608e-06
0.000455867
8.15008e-06
0.00044783
8.0366e-06
0.000439915
7.91578e-06
0.000432127
7.78743e-06
0.000424475
7.6518e-06
0.000416967
7.5084e-06
0.000409609
7.35775e-06
0.00040241
7.19891e-06
0.000395377
7.03296e-06
0.000388519
6.85813e-06
0.000381843
6.67666e-06
0.000375357
6.48522e-06
0.000369069
6.28821e-06
0.00036299
6.07942e-06
0.000357122
5.86727e-06
0.000351482
5.64018e-06
0.000346068
5.41393e-06
0.000340901
5.16713e-06
0.000335972
4.92879e-06
0.000331313
4.6597e-06
0.0003269
4.4128e-06
0.000322784
4.11622e-06
0.000318917
3.86669e-06
0.000315386
3.53141e-06
0.000312096
3.29011e-06
0.000309205
2.89008e-06
0.000306524
2.68141e-06
0.000304375
2.14911e-06
0.000302335
2.03965e-06
0.000301176
1.15923e-06
0.00029977
1.4058e-06
0.000300063
-2.9307e-07
0.000298962
1.10129e-06
-3.22332e-06
0.000302185
0.000667557
8.01189e-07
0.000669124
2.33133e-06
0.000670863
3.5749e-06
0.000672542
4.5458e-06
0.000674084
5.31849e-06
0.000675473
5.96178e-06
0.000676706
6.51735e-06
0.000677774
7.00362e-06
0.000678664
7.42773e-06
0.000679371
7.79419e-06
0.000679894
8.10872e-06
0.00068024
8.37835e-06
0.000680417
8.61019e-06
0.000680432
8.81022e-06
0.000680295
8.98287e-06
0.000680012
9.13122e-06
0.000679591
9.25754e-06
0.000679039
9.36355e-06
0.000678362
9.45085e-06
0.000677569
9.52062e-06
0.000676664
9.57416e-06
0.000675655
9.61211e-06
0.000674548
9.63548e-06
0.000673349
9.64441e-06
0.000672064
9.63979e-06
0.000670699
9.62125e-06
0.000669259
9.58982e-06
0.000667751
9.54452e-06
0.00066618
9.4868e-06
0.000664553
9.41481e-06
0.000662873
9.33084e-06
0.00066115
9.23172e-06
0.000659387
9.12121e-06
0.000657592
8.99406e-06
0.000655768
8.85659e-06
0.000653926
8.70018e-06
0.000652067
8.53536e-06
0.000650204
8.34808e-06
0.000648337
8.15586e-06
0.00064648
7.93571e-06
0.000644631
7.71661e-06
0.00064281
7.46099e-06
0.000641008
7.21659e-06
0.000639253
6.92197e-06
0.000637526
6.65544e-06
0.000635869
6.31664e-06
0.000634248
6.0337e-06
0.000632722
5.64284e-06
0.000631235
5.35318e-06
0.000629869
4.89797e-06
0.000628541
4.61756e-06
0.000627352
4.07901e-06
0.0006262
3.83331e-06
0.000625166
3.18334e-06
0.000624195
3.01083e-06
0.00062314
2.21425e-06
0.000622381
2.16457e-06
0.000620879
1.20925e-06
0.000620658
1.32229e-06
2.80278e-07
0.000617154
0.000666952
5.16202e-07
0.000667822
1.46107e-06
0.000669067
2.33002e-06
0.000670499
3.11317e-06
0.000672011
3.80646e-06
0.000673556
4.41759e-06
0.000675114
4.95887e-06
0.000676676
5.4415e-06
0.000678231
5.87337e-06
0.000679765
6.25951e-06
0.00068127
6.60357e-06
0.00068274
6.90894e-06
0.000684171
7.17928e-06
0.000685563
7.41819e-06
0.000686917
7.62912e-06
0.000688233
7.8148e-06
0.000689513
7.97765e-06
0.000690757
8.11935e-06
0.000691966
8.24156e-06
0.000693142
8.34532e-06
0.000694284
8.43198e-06
0.000695394
8.50206e-06
0.000696473
8.55676e-06
0.000697521
8.59606e-06
0.00069854
8.62114e-06
0.000699529
8.63138e-06
0.000700491
8.62814e-06
0.000701426
8.61009e-06
0.000702333
8.57906e-06
0.000703215
8.53275e-06
0.000704072
8.47385e-06
0.000704905
8.39873e-06
0.000705715
8.31144e-06
0.000706503
8.20646e-06
0.000707269
8.08996e-06
0.000708016
7.9537e-06
0.000708744
7.80702e-06
0.000709454
7.63777e-06
0.00071015
7.45988e-06
0.00071083
7.25575e-06
0.000711501
7.04581e-06
0.000712157
6.80484e-06
0.000712812
6.56225e-06
0.000713451
6.28262e-06
0.000714099
6.00722e-06
0.000714728
5.68746e-06
0.000715383
5.37958e-06
0.000716006
5.01896e-06
0.00071668
4.67916e-06
0.0007173
4.27827e-06
0.000718011
3.90701e-06
0.00071862
3.46931e-06
0.000719387
3.06658e-06
0.000719968
2.60226e-06
0.000720812
2.16722e-06
0.000721325
1.70092e-06
0.000722261
1.22879e-06
0.000722656
8.14635e-07
0.000723691
2.86337e-07
2.32346e-08
0.000723949
0.000666854
3.28474e-07
0.000667311
1.00426e-06
0.000667979
1.66266e-06
0.000668809
2.28311e-06
0.000669759
2.85648e-06
0.000670796
3.37999e-06
0.0006719
3.85531e-06
0.000673055
4.28624e-06
0.000674252
4.67679e-06
0.000675481
5.03035e-06
0.000676735
5.34956e-06
0.000678007
5.63662e-06
0.000679293
5.89371e-06
0.000680588
6.12294e-06
0.000681891
6.32651e-06
0.000683199
6.50642e-06
0.000684512
6.66453e-06
0.000685829
6.80231e-06
0.000687149
6.92116e-06
0.000688473
7.02208e-06
0.000689799
7.10613e-06
0.000691127
7.17395e-06
0.000692457
7.22642e-06
0.000693789
7.26383e-06
0.000695123
7.28692e-06
0.000696459
7.29566e-06
0.000697797
7.29068e-06
0.000699135
7.27164e-06
0.000700475
7.23914e-06
0.000701815
7.19253e-06
0.000703157
7.13241e-06
0.000704498
7.05787e-06
0.000705839
6.96951e-06
0.00070718
6.86623e-06
0.000708521
6.74855e-06
0.000709859
6.61541e-06
0.000711199
6.46695e-06
0.000712535
6.30265e-06
0.000713873
6.12161e-06
0.000715204
5.92483e-06
0.000716541
5.70908e-06
0.000717867
5.47869e-06
0.000719203
5.22569e-06
0.000720525
4.96106e-06
0.000721864
4.66774e-06
0.000723182
4.36922e-06
0.00072453
4.03188e-06
0.000725847
3.70188e-06
0.00072721
3.31621e-06
0.000728528
2.96063e-06
0.000729914
2.52122e-06
0.000731232
2.15111e-06
0.000732648
1.65049e-06
0.000733965
1.28511e-06
0.000735419
7.13201e-07
0.000736735
3.84904e-07
0.000738255
-2.91107e-07
0.000739623
-5.53054e-07
0.000741286
-1.37724e-06
-1.48111e-06
0.000742791
0.000666738
2.56719e-07
0.000666971
7.71516e-07
0.000667361
1.27287e-06
0.00066789
1.75408e-06
0.000668537
2.20932e-06
0.000669282
2.63513e-06
0.000670107
3.03021e-06
0.000670999
3.39479e-06
0.000671945
3.72991e-06
0.000672939
4.03687e-06
0.000673972
4.31693e-06
0.000675037
4.57125e-06
0.00067613
4.80096e-06
0.000677245
5.00723e-06
0.000678381
5.19129e-06
0.000679533
5.35436e-06
0.0006807
5.49762e-06
0.00068188
5.62218e-06
0.000683072
5.72899e-06
0.000684275
5.81893e-06
0.000685488
5.89274e-06
0.000686711
5.95108e-06
0.000687943
5.99448e-06
0.000689184
6.02346e-06
0.000690432
6.03831e-06
0.000691688
6.03946e-06
0.000692952
6.02692e-06
0.000694223
6.00109e-06
0.0006955
5.96167e-06
0.000696784
5.90912e-06
0.000698073
5.8427e-06
0.000699368
5.76317e-06
0.000700668
5.6691e-06
0.000701973
5.56191e-06
0.000703282
5.43904e-06
0.000704594
5.30318e-06
0.000705912
5.14991e-06
0.00070723
4.98415e-06
0.000708553
4.79842e-06
0.000709877
4.60151e-06
0.000711205
4.38081e-06
0.000712532
4.15173e-06
0.000713864
3.89313e-06
0.000715194
3.6314e-06
0.00071653
3.33127e-06
0.000717863
3.03711e-06
0.000719204
2.69042e-06
0.000720541
2.36477e-06
0.000721893
1.9641e-06
0.000723244
1.60951e-06
0.000724621
1.14432e-06
0.000726007
7.65827e-07
0.000727439
2.18374e-07
0.000728889
-1.65273e-07
0.000730381
-7.78578e-07
0.000731911
-1.14525e-06
0.000733506
-1.88636e-06
0.000735168
-2.21506e-06
0.000736915
-3.1235e-06
-3.37973e-06
0.000738813
0.000666725
1.98508e-07
0.000666902
5.94331e-07
0.00066719
9.84464e-07
0.000667582
1.36256e-06
0.000668066
1.72506e-06
0.000668632
2.0692e-06
0.000669269
2.3931e-06
0.000669968
2.6957e-06
0.000670722
2.97662e-06
0.000671523
3.23591e-06
0.000672366
3.47386e-06
0.000673246
3.69097e-06
0.000674159
3.8878e-06
0.000675101
4.06504e-06
0.000676069
4.22335e-06
0.00067706
4.3635e-06
0.000678072
4.48619e-06
0.000679102
4.59218e-06
0.000680148
4.68211e-06
0.000681211
4.75667e-06
0.000682287
4.81635e-06
0.000683376
4.86173e-06
0.000684478
4.89316e-06
0.00068559
4.91112e-06
0.000686713
4.91575e-06
0.000687845
4.90751e-06
0.000688985
4.88625e-06
0.000690134
4.85247e-06
0.00069129
4.80567e-06
0.000692453
4.74651e-06
0.000693621
4.67398e-06
0.000694795
4.58909e-06
0.000695974
4.49013e-06
0.000697157
4.37874e-06
0.000698344
4.25213e-06
0.000699534
4.1131e-06
0.000700727
3.95713e-06
0.000701922
3.78902e-06
0.000703119
3.60147e-06
0.000704318
3.40261e-06
0.000705518
3.18067e-06
0.000706721
2.94923e-06
0.000707925
2.68932e-06
0.000709133
2.42351e-06
0.000710342
2.1215e-06
0.000711559
1.82048e-06
0.000712777
1.4721e-06
0.000714005
1.13681e-06
0.000715232
7.37698e-07
0.000716469
3.71859e-07
0.000717698
-8.43459e-08
0.00071896
-4.96063e-07
0.000720218
-1.03967e-06
0.000721522
-1.4689e-06
0.000722844
-2.10083e-06
0.000724243
-2.54459e-06
0.000725651
-3.29424e-06
0.000727173
-3.73732e-06
0.000728693
-4.64286e-06
-5.05568e-06
0.000730369
0.000666709
1.56422e-07
0.000666835
4.67623e-07
0.000667045
7.74592e-07
0.000667335
1.07295e-06
0.0006677
1.36032e-06
0.000668134
1.63474e-06
0.000668633
1.89472e-06
0.000669189
2.13923e-06
0.000669798
2.3678e-06
0.000670454
2.58012e-06
0.000671152
2.775e-06
0.00067189
2.95298e-06
0.000672664
3.1144e-06
0.000673469
3.25962e-06
0.000674304
3.38898e-06
0.000675164
3.50293e-06
0.000676048
3.6019e-06
0.000676954
3.68639e-06
0.00067788
3.75682e-06
0.000678823
3.81367e-06
0.000679782
3.85729e-06
0.000680755
3.8881e-06
0.000681742
3.90635e-06
0.000682741
3.9124e-06
0.00068375
3.90633e-06
0.000684769
3.88849e-06
0.000685797
3.85874e-06
0.000686832
3.81744e-06
0.000687873
3.76417e-06
0.00068892
3.69936e-06
0.000689972
3.62224e-06
0.000691028
3.53344e-06
0.000692086
3.43166e-06
0.000693147
3.31794e-06
0.000694209
3.19019e-06
0.000695272
3.05021e-06
0.000696334
2.89467e-06
0.000697397
2.72671e-06
0.000698457
2.54108e-06
0.000699516
2.34317e-06
0.000700572
2.12466e-06
0.000701627
1.89464e-06
0.000702677
1.63985e-06
0.000703725
1.37523e-06
0.000704767
1.07906e-06
0.000705812
7.75917e-07
0.000706853
4.31115e-07
0.000707906
8.40633e-08
0.000708953
-3.09298e-07
0.000710016
-6.91292e-07
0.000711081
-1.14916e-06
0.000712161
-1.57701e-06
0.000713233
-2.11152e-06
0.000714347
-2.58258e-06
0.000715454
-3.2077e-06
0.000716628
-3.71829e-06
0.000717791
-4.45812e-06
0.000719057
-5.00329e-06
0.000720305
-5.89077e-06
-6.45524e-06
0.000721705
0.000666699
1.24041e-07
0.000666797
3.69382e-07
0.000666961
6.10676e-07
0.000667189
8.44929e-07
0.000667479
1.07058e-06
0.000667827
1.28628e-06
0.000668231
1.49093e-06
0.000668687
1.68368e-06
0.000669191
1.86385e-06
0.00066974
2.03097e-06
0.00067033
2.18464e-06
0.000670958
2.32477e-06
0.000671621
2.45141e-06
0.000672316
2.56472e-06
0.00067304
2.6649e-06
0.000673791
2.75219e-06
0.000674566
2.82686e-06
0.000675363
2.88919e-06
0.000676181
2.93947e-06
0.000677016
2.97803e-06
0.000677869
3.0051e-06
0.000678736
3.021e-06
0.000679616
3.02588e-06
0.000680509
3.02002e-06
0.000681411
3.00347e-06
0.000682323
2.97644e-06
0.000683243
2.93886e-06
0.00068417
2.89089e-06
0.000685102
2.83227e-06
0.000686038
2.76314e-06
0.000686977
2.68302e-06
0.000687919
2.59211e-06
0.000688861
2.48958e-06
0.000689803
2.37579e-06
0.000690744
2.24946e-06
0.000691682
2.11126e-06
0.000692618
1.95919e-06
0.00069355
1.79454e-06
0.000694477
1.61425e-06
0.000695399
1.42075e-06
0.000696315
1.20927e-06
0.000697225
9.84054e-07
0.000698127
7.37724e-07
0.000699025
4.78146e-07
0.000699909
1.9447e-07
0.000700788
-1.02789e-07
0.000701656
-4.37349e-07
0.000702521
-7.80532e-07
0.000703376
-1.16423e-06
0.000704238
-1.55351e-06
0.000705087
-1.9979e-06
0.000705949
-2.43912e-06
0.000706793
-2.95596e-06
0.000707665
-3.45411e-06
0.000708515
-4.0581e-06
0.000709413
-4.61644e-06
0.000710282
-5.32629e-06
0.000711225
-5.94648e-06
0.000712121
-6.78671e-06
-7.46489e-06
0.00071313
0.000666693
9.75377e-08
0.000666773
2.89202e-07
0.000666907
4.76715e-07
0.000667094
6.5796e-07
0.000667333
8.31895e-07
0.000667622
9.9761e-07
0.000667958
1.15433e-06
0.000668341
1.30141e-06
0.000668766
1.43833e-06
0.000669232
1.56473e-06
0.000669737
1.68035e-06
0.000670276
1.78504e-06
0.000670849
1.87876e-06
0.000671452
1.96156e-06
0.000672083
2.03354e-06
0.000672741
2.09485e-06
0.000673422
2.14565e-06
0.000674125
2.18613e-06
0.000674848
2.21651e-06
0.000675589
2.23699e-06
0.000676346
2.24778e-06
0.000677118
2.24906e-06
0.000677903
2.24101e-06
0.000678699
2.22376e-06
0.000679506
2.19741e-06
0.00068032
2.16204e-06
0.000681141
2.11764e-06
0.000681968
2.06422e-06
0.000682798
2.00166e-06
0.000683632
1.92987e-06
0.000684466
1.84861e-06
0.000685301
1.75771e-06
0.000686133
1.65675e-06
0.000686964
1.54554e-06
0.00068779
1.42344e-06
0.000688611
1.29028e-06
0.000689425
1.14517e-06
0.000690231
9.87964e-07
0.000691028
8.17232e-07
0.000691816
6.32989e-07
0.000692592
4.33304e-07
0.000693357
2.19467e-07
0.000694105
-1.07307e-08
0.000694843
-2.60362e-07
0.000695568
-5.29879e-07
0.000696282
-8.17177e-07
0.000696975
-1.13013e-06
0.000697656
-1.46177e-06
0.000698316
-1.82424e-06
0.000698968
-2.20549e-06
0.000699596
-2.62558e-06
0.000700221
-3.06377e-06
0.000700817
-3.5521e-06
0.000701418
-4.05542e-06
0.000701985
-4.62482e-06
0.00070257
-5.202e-06
0.000703112
-5.86818e-06
0.000703694
-6.52855e-06
0.000704218
-7.31076e-06
-8.06189e-06
0.000704815
0.000666689
7.51674e-08
0.000666757
2.21597e-07
0.00066687
3.63688e-07
0.000667028
4.99938e-07
0.00066723
6.29654e-07
0.000667475
7.52243e-07
0.000667762
8.67197e-07
0.00066809
9.74091e-07
0.000668455
1.07259e-06
0.000668858
1.16243e-06
0.000669295
1.24344e-06
0.000669764
1.31553e-06
0.000670264
1.37868e-06
0.000670793
1.43291e-06
0.000671348
1.47829e-06
0.000671928
1.51495e-06
0.000672531
1.54301e-06
0.000673154
1.56264e-06
0.000673797
1.574e-06
0.000674456
1.57726e-06
0.000675132
1.5726e-06
0.000675821
1.56016e-06
0.000676521
1.54009e-06
0.000677233
1.51248e-06
0.000677953
1.47744e-06
0.00067868
1.43497e-06
0.000679412
1.38511e-06
0.000680149
1.32777e-06
0.000680887
1.26292e-06
0.000681627
1.19036e-06
0.000682366
1.11e-06
0.000683102
1.02147e-06
0.000683834
9.24633e-07
0.000684561
8.18902e-07
0.00068528
7.04051e-07
0.000685991
5.79203e-07
0.000686692
4.44306e-07
0.000687381
2.98564e-07
0.000688056
1.42203e-07
0.000688715
-2.61493e-08
0.000689359
-2.10213e-07
0.000689986
-4.07948e-07
0.000690596
-6.20186e-07
0.000691185
-8.49611e-07
0.000691751
-1.09575e-06
0.000692296
-1.36177e-06
0.000692812
-1.64702e-06
0.000693306
-1.95566e-06
0.000693769
-2.28654e-06
0.000694208
-2.64492e-06
0.000694611
-3.02891e-06
0.000694993
-3.44552e-06
0.000695333
-3.89176e-06
0.000695654
-4.37697e-06
0.000695926
-4.89628e-06
0.000696186
-5.46255e-06
0.000696386
-6.06745e-06
0.000696587
-6.72949e-06
0.000696709
-7.43347e-06
-8.20677e-06
0.000696854
0.000666686
5.57667e-08
0.000666745
1.63016e-07
0.000666843
2.65729e-07
0.00066698
3.6287e-07
0.000667155
4.54005e-07
0.000667369
5.38775e-07
0.000667619
6.16889e-07
0.000667905
6.88107e-07
0.000668225
7.52241e-07
0.000668579
8.09156e-07
0.000668963
8.58775e-07
0.000669378
9.01077e-07
0.00066982
9.361e-07
0.000670289
9.63914e-07
0.000670783
9.84624e-07
0.0006713
9.9835e-07
0.000671837
1.00524e-06
0.000672395
1.00543e-06
0.00067297
9.99099e-07
0.00067356
9.86395e-07
0.000674166
9.67507e-07
0.000674783
9.42564e-07
0.000675411
9.11729e-07
0.000676049
8.75071e-07
0.000676694
8.32723e-07
0.000677344
7.84663e-07
0.000677998
7.30969e-07
0.000678654
6.71471e-07
0.000679311
6.0617e-07
0.000679967
5.34745e-07
0.000680619
4.5732e-07
0.000681267
3.73451e-07
0.000681909
2.83214e-07
0.000682542
1.85956e-07
0.000683164
8.19793e-08
0.000683773
-3.02737e-08
0.000684369
-1.51716e-07
0.00068495
-2.82173e-07
0.000685514
-4.21518e-07
0.00068606
-5.72246e-07
0.000686583
-7.33402e-07
0.000687083
-9.08025e-07
0.000687557
-1.09411e-06
0.000688004
-1.29639e-06
0.00068842
-1.51163e-06
0.000688805
-1.7467e-06
0.000689154
-1.99609e-06
0.000689468
-2.27001e-06
0.000689741
-2.5594e-06
0.000689976
-2.87952e-06
0.000690162
-3.21562e-06
0.000690308
-3.59093e-06
0.000690397
-3.98154e-06
0.000690444
-4.42326e-06
0.000690425
-4.87729e-06
0.000690362
-5.39952e-06
0.000690221
-5.92668e-06
0.000690039
-6.54705e-06
0.000689762
-7.15659e-06
-7.89563e-06
0.000689451
0.000666684
3.85002e-08
0.000666736
1.10931e-07
0.000666823
1.78653e-07
0.000666945
2.41009e-07
0.000667101
2.97764e-07
0.000667291
3.48747e-07
0.000667514
3.93837e-07
0.000667769
4.32948e-07
0.000668056
4.66032e-07
0.000668372
4.93073e-07
0.000668716
5.14099e-07
0.000669088
5.29176e-07
0.000669486
5.38406e-07
0.000669908
5.41916e-07
0.000670353
5.39864e-07
0.000670819
5.32416e-07
0.000671304
5.19757e-07
0.000671808
5.02065e-07
0.000672327
4.79525e-07
0.000672861
4.52279e-07
0.000673408
4.20566e-07
0.000673966
3.84513e-07
0.000674534
3.44293e-07
0.000675109
2.99988e-07
0.00067569
2.51748e-07
0.000676275
1.99586e-07
0.000676862
1.43645e-07
0.00067745
8.38719e-08
0.000678035
2.05276e-08
0.000678618
-4.80668e-08
0.000679196
-1.204e-07
0.000679767
-1.97204e-07
0.000680328
-2.78443e-07
0.000680879
-3.64882e-07
0.000681417
-4.5638e-07
0.000681941
-5.54148e-07
0.000682447
-6.5784e-07
0.000682934
-7.68956e-07
0.000683399
-8.86697e-07
0.000683841
-1.01345e-06
0.000684255
-1.1478e-06
0.00068464
-1.29332e-06
0.000684994
-1.44749e-06
0.000685313
-1.61555e-06
0.000685594
-1.79321e-06
0.000685836
-1.98838e-06
0.000686034
-2.19387e-06
0.000686186
-2.42171e-06
0.000686286
-2.66003e-06
0.000686334
-2.92734e-06
0.000686323
-3.20419e-06
0.000686251
-3.5194e-06
0.000686111
-3.84122e-06
0.000685902
-4.21499e-06
0.000685614
-4.58885e-06
0.000685249
-5.03483e-06
0.000684791
-5.46802e-06
0.000684247
-6.00375e-06
0.000683593
-6.50219e-06
-7.14904e-06
0.000682846
0.000666682
2.27405e-08
0.00066673
6.3413e-08
0.000666809
9.92174e-08
0.000666921
1.29844e-07
0.000667063
1.55237e-07
0.000667236
1.75384e-07
0.00066744
1.90298e-07
0.000667673
2.00017e-07
0.000667934
2.04633e-07
0.000668223
2.04234e-07
0.000668538
1.98946e-07
0.000668879
1.88928e-07
0.000669243
1.74377e-07
0.000669629
1.55504e-07
0.000670036
1.32534e-07
0.000670463
1.05675e-07
0.000670908
7.51035e-08
0.000671369
4.11751e-08
0.000671844
4.00021e-09
0.000672333
-3.6817e-08
0.000672834
-7.99785e-08
0.000673344
-1.25753e-07
0.000673862
-1.73956e-07
0.000674387
-2.24477e-07
0.000674916
-2.77148e-07
0.000675447
-3.31926e-07
0.000675979
-3.88695e-07
0.000676511
-4.47553e-07
0.00067704
-5.0844e-07
0.000677563
-5.71629e-07
0.00067808
-6.36943e-07
0.000678588
-7.04733e-07
0.000679084
-7.74942e-07
0.000679567
-8.48184e-07
0.000680035
-9.24323e-07
0.000680485
-1.00427e-06
0.000680915
-1.08768e-06
0.000681322
-1.17595e-06
0.000681704
-1.26841e-06
0.000682058
-1.36706e-06
0.00068238
-1.4707e-06
0.000682669
-1.58229e-06
0.000682922
-1.69971e-06
0.000683133
-1.82738e-06
0.000683302
-1.96162e-06
0.000683423
-2.10913e-06
0.000683492
-2.26371e-06
0.000683506
-2.43561e-06
0.000683461
-2.61453e-06
0.00068335
-2.81638e-06
0.00068317
-3.02415e-06
0.000682913
-3.26283e-06
0.000682577
-3.50443e-06
0.00068215
-3.78864e-06
0.000681631
-4.06939e-06
0.000681006
-4.41031e-06
0.000680274
-4.73546e-06
0.000679417
-5.1476e-06
0.000678436
-5.52085e-06
-6.02224e-06
0.000677309
0.000666682
7.90269e-09
0.000666726
1.87641e-08
0.000666801
2.46916e-08
0.000666905
2.56936e-08
0.000667038
2.18418e-08
0.0006672
1.32801e-08
0.000667391
-3.05865e-11
0.000667609
-1.80317e-08
0.000667853
-4.0056e-08
0.000668124
-6.60843e-08
0.000668419
-9.59144e-08
0.000668737
-1.2931e-07
0.000669077
-1.66015e-07
0.000669438
-2.05762e-07
0.000669819
-2.4827e-07
0.000670218
-2.93256e-07
0.000670634
-3.40435e-07
0.000671064
-3.89537e-07
0.000671509
-4.40299e-07
0.000671964
-4.92502e-07
0.00067243
-5.45849e-07
0.000672905
-6.0014e-07
0.000673386
-6.55158e-07
0.000673872
-7.10728e-07
0.000674362
-7.66678e-07
0.000674853
-8.22909e-07
0.000675343
-8.79288e-07
0.000675832
-9.35807e-07
0.000676315
-9.9238e-07
0.000676793
-1.04909e-06
0.000677262
-1.10592e-06
0.00067772
-1.16307e-06
0.000678166
-1.2205e-06
0.000678596
-1.2786e-06
0.000679009
-1.33731e-06
0.000679402
-1.39722e-06
0.000679773
-1.45821e-06
0.000680118
-1.52113e-06
0.000680435
-1.58573e-06
0.000680721
-1.6532e-06
0.000680974
-1.72302e-06
0.000681188
-1.79694e-06
0.000681362
-1.87391e-06
0.000681492
-1.95653e-06
0.000681573
-2.04292e-06
0.000681601
-2.13693e-06
0.000681572
-2.23528e-06
0.000681481
-2.34384e-06
0.000681323
-2.45704e-06
0.000681091
-2.58391e-06
0.000680782
-2.71512e-06
0.000680384
-2.86485e-06
0.000679897
-3.01752e-06
0.000679304
-3.19569e-06
0.000678608
-3.37338e-06
0.000677784
-3.58705e-06
0.000676842
-3.7933e-06
0.000675746
-4.05156e-06
0.000674514
-4.28887e-06
-4.60282e-06
0.000673095
0.000666681
-6.37253e-09
0.000666724
-2.42908e-08
0.000666796
-4.71619e-08
0.000666896
-7.47592e-08
0.000667025
-1.06856e-07
0.000667181
-1.43199e-07
0.000667365
-1.83523e-07
0.000667574
-2.27546e-07
0.000667809
-2.7495e-07
0.000668069
-3.25438e-07
0.000668352
-3.78693e-07
0.000668657
-4.34384e-07
0.000668983
-4.92166e-07
0.000669329
-5.51688e-07
0.000669693
-6.12608e-07
0.000670074
-6.7459e-07
0.000670471
-7.3731e-07
0.000670882
-8.00451e-07
0.000671306
-8.63707e-07
0.00067174
-9.26778e-07
0.000672183
-9.89373e-07
0.000672634
-1.05122e-06
0.000673091
-1.11208e-06
0.000673552
-1.17172e-06
0.000674016
-1.22995e-06
0.000674479
-1.28659e-06
0.000674942
-1.34151e-06
0.0006754
-1.39459e-06
0.000675854
-1.44578e-06
0.0006763
-1.49501e-06
0.000676736
-1.54229e-06
0.000677161
-1.58766e-06
0.000677571
-1.63113e-06
0.000677965
-1.67282e-06
0.000678341
-1.71282e-06
0.000678695
-1.75131e-06
0.000679025
-1.78844e-06
0.000679329
-1.82444e-06
0.000679602
-1.85953e-06
0.000679843
-1.89397e-06
0.000680048
-1.92806e-06
0.000680213
-1.96205e-06
0.000680336
-1.99634e-06
0.00068041
-2.03116e-06
0.000680434
-2.06703e-06
0.000680402
-2.10412e-06
0.00068031
-2.14311e-06
0.00068015
-2.18402e-06
0.00067992
-2.22778e-06
0.000679611
-2.27416e-06
0.00067922
-2.32445e-06
0.000678733
-2.37804e-06
0.000678152
-2.43671e-06
0.000677456
-2.49934e-06
0.000676651
-2.56826e-06
0.000675706
-2.64174e-06
0.000674635
-2.72265e-06
0.000673392
-2.80874e-06
0.000672007
-2.90342e-06
-3.00465e-06
0.000670409
0.000666681
-2.06904e-08
0.000666724
-6.71646e-08
0.000666795
-1.18586e-07
0.000666895
-1.74428e-07
0.000667022
-2.3434e-07
0.000667177
-2.97956e-07
0.000667359
-3.64885e-07
0.000667566
-4.34724e-07
0.000667798
-5.07067e-07
0.000668054
-5.81507e-07
0.000668333
-6.57634e-07
0.000668634
-7.35032e-07
0.000668955
-8.13281e-07
0.000669295
-8.91967e-07
0.000669653
-9.70688e-07
0.000670027
-1.04905e-06
0.000670417
-1.12667e-06
0.00067082
-1.20318e-06
0.000671234
-1.27823e-06
0.000671659
-1.35148e-06
0.000672092
-1.4226e-06
0.000672532
-1.49129e-06
0.000672977
-1.55727e-06
0.000673426
-1.62026e-06
0.000673876
-1.68005e-06
0.000674326
-1.73641e-06
0.000674773
-1.78919e-06
0.000675217
-1.83819e-06
0.000675655
-1.88334e-06
0.000676084
-1.92449e-06
0.000676503
-1.96163e-06
0.00067691
-1.99461e-06
0.000677303
-2.02356e-06
0.000677678
-2.04828e-06
0.000678034
-2.06903e-06
0.000678369
-2.08556e-06
0.000678679
-2.09831e-06
0.000678961
-2.10685e-06
0.000679213
-2.11192e-06
0.000679432
-2.11278e-06
0.000679615
-2.11058e-06
0.000679757
-2.10407e-06
0.000679855
-2.09509e-06
0.000679906
-2.08149e-06
0.000679905
-2.06621e-06
0.000679846
-2.04569e-06
0.000679728
-2.02462e-06
0.000679541
-1.99702e-06
0.000679284
-1.97056e-06
0.000678945
-1.93543e-06
0.000678525
-1.9039e-06
0.000678007
-1.86004e-06
0.000677394
-1.82374e-06
0.000676663
-1.76911e-06
0.000675823
-1.72833e-06
0.000674841
-1.65966e-06
0.000673734
-1.61494e-06
0.000672451
-1.52641e-06
0.000671026
-1.47773e-06
-1.36071e-06
0.000669382
0.000666681
-3.53568e-08
0.000666725
-1.11114e-07
0.000666798
-1.91759e-07
0.000666901
-2.76476e-07
0.000667031
-3.64767e-07
0.000667189
-4.56128e-07
0.000667374
-5.50047e-07
0.000667586
-6.46006e-07
0.000667822
-7.43497e-07
0.000668082
-8.42013e-07
0.000668366
-9.41057e-07
0.000668671
-1.04013e-06
0.000668996
-1.13875e-06
0.000669341
-1.23642e-06
0.000669703
-1.3327e-06
0.000670081
-1.42714e-06
0.000670474
-1.51932e-06
0.000670879
-1.60882e-06
0.000671296
-1.69527e-06
0.000671723
-1.77828e-06
0.000672158
-1.85752e-06
0.000672599
-1.93263e-06
0.000673045
-2.00333e-06
0.000673494
-2.06929e-06
0.000673945
-2.13028e-06
0.000674394
-2.18603e-06
0.000674841
-2.23636e-06
0.000675284
-2.28102e-06
0.000675721
-2.31992e-06
0.000676149
-2.35281e-06
0.000676567
-2.3797e-06
0.000676973
-2.40028e-06
0.000677364
-2.41472e-06
0.000677738
-2.42261e-06
0.000678094
-2.42429e-06
0.000678427
-2.41918e-06
0.000678737
-2.40791e-06
0.00067902
-2.38954e-06
0.000679273
-2.36515e-06
0.000679493
-2.33324e-06
0.000679678
-2.29558e-06
0.000679824
-2.2497e-06
0.000679927
-2.19855e-06
0.000679984
-2.13806e-06
0.000679991
-2.07306e-06
0.000679942
-1.99692e-06
0.000679835
-1.91755e-06
0.000679662
-1.82415e-06
0.000679421
-1.72967e-06
0.000679102
-1.61655e-06
0.000678704
-1.50596e-06
0.000678214
-1.36943e-06
0.000677632
-1.24148e-06
0.000676938
-1.07596e-06
0.000676139
-9.29262e-07
0.000675206
-7.26491e-07
0.000674151
-5.59655e-07
0.000672934
-3.0964e-07
0.000671583
-1.26542e-07
1.88896e-07
0.000670033
0.000666682
-5.08825e-08
0.000666729
-1.57633e-07
0.000666806
-2.69145e-07
0.000666914
-3.8428e-07
0.000667052
-5.02386e-07
0.000667218
-6.22813e-07
0.000667413
-7.44914e-07
0.000667635
-8.6805e-07
0.000667883
-9.91604e-07
0.000668156
-1.11497e-06
0.000668453
-1.23757e-06
0.000668771
-1.35883e-06
0.000669111
-1.47819e-06
0.00066947
-1.59513e-06
0.000669846
-1.70913e-06
0.000670239
-1.81973e-06
0.000670646
-1.92647e-06
0.000671066
-2.02891e-06
0.000671497
-2.12666e-06
0.000671938
-2.2193e-06
0.000672387
-2.3065e-06
0.000672842
-2.38788e-06
0.000673302
-2.46314e-06
0.000673765
-2.53194e-06
0.000674229
-2.59404e-06
0.000674692
-2.64913e-06
0.000675152
-2.69703e-06
0.000675609
-2.73744e-06
0.000676059
-2.77026e-06
0.000676502
-2.79516e-06
0.000676934
-2.81215e-06
0.000677355
-2.82084e-06
0.000677761
-2.82137e-06
0.000678152
-2.81321e-06
0.000678524
-2.7967e-06
0.000678876
-2.77109e-06
0.000679205
-2.73701e-06
0.000679509
-2.6933e-06
0.000679785
-2.64109e-06
0.00068003
-2.57849e-06
0.000680242
-2.50747e-06
0.000680417
-2.42495e-06
0.000680553
-2.33427e-06
0.000680645
-2.23042e-06
0.000680691
-2.119e-06
0.000680686
-1.99183e-06
0.000680627
-1.85828e-06
0.000680508
-1.70499e-06
0.000680326
-1.54752e-06
0.000680073
-1.36414e-06
0.000679748
-1.18056e-06
0.00067934
-9.61552e-07
0.000678848
-7.49433e-07
0.000678259
-4.87284e-07
0.000677575
-2.44827e-07
0.000676778
7.04517e-08
0.000675865
3.53075e-07
0.000674811
7.44398e-07
0.000673625
1.05955e-06
1.54271e-06
0.000672271
0.000666684
-6.78138e-08
0.000666734
-2.08335e-07
0.000666819
-3.5342e-07
0.000666936
-5.01563e-07
0.000667085
-6.51926e-07
0.000667266
-8.03688e-07
0.000667477
-9.56051e-07
0.000667718
-1.10824e-06
0.000667986
-1.25952e-06
0.00066828
-1.40918e-06
0.000668599
-1.55657e-06
0.000668941
-1.70104e-06
0.000669305
-1.842e-06
0.000669688
-1.97887e-06
0.00067009
-2.11112e-06
0.000670509
-2.23827e-06
0.000670942
-2.35984e-06
0.000671389
-2.47541e-06
0.000671847
-2.58456e-06
0.000672314
-2.68692e-06
0.00067279
-2.78211e-06
0.000673272
-2.8698e-06
0.000673758
-2.94967e-06
0.000674248
-3.02141e-06
0.000674739
-3.08474e-06
0.000675229
-3.13938e-06
0.000675717
-3.18513e-06
0.000676201
-3.22167e-06
0.00067668
-3.24888e-06
0.000677151
-3.26645e-06
0.000677613
-3.27428e-06
0.000678064
-3.27203e-06
0.000678503
-3.25972e-06
0.000678926
-3.23687e-06
0.000679333
-3.20364e-06
0.000679722
-3.15935e-06
0.000680089
-3.10442e-06
0.000680434
-3.03776e-06
0.000680753
-2.96021e-06
0.000681044
-2.87004e-06
0.000681306
-2.76882e-06
0.000681534
-2.65368e-06
0.000681727
-2.52743e-06
0.000681882
-2.38539e-06
0.000681996
-2.23245e-06
0.000682065
-2.0609e-06
0.000682086
-1.87918e-06
0.000682055
-1.67459e-06
0.000681969
-1.4615e-06
0.000681824
-1.21911e-06
0.000681615
-9.71591e-07
0.000681339
-6.8501e-07
0.000680989
-3.99799e-07
0.000680564
-6.21156e-08
0.000680049
2.70611e-07
0.000679437
6.82103e-07
0.000678728
1.06221e-06
0.000677914
1.55792e-06
0.000676984
1.98939e-06
2.59106e-06
0.000675936
0.000666686
-8.67897e-08
0.000666742
-2.6516e-07
0.000666837
-4.47818e-07
0.000666968
-6.32811e-07
0.000667135
-8.19059e-07
0.000667337
-1.00553e-06
0.000667572
-1.19124e-06
0.000667839
-1.37525e-06
0.000668136
-1.55669e-06
0.000668462
-1.73477e-06
0.000668814
-1.90874e-06
0.000669191
-2.07792e-06
0.000669591
-2.24169e-06
0.000670011
-2.39946e-06
0.000670451
-2.55072e-06
0.000670908
-2.69499e-06
0.00067138
-2.83183e-06
0.000671865
-2.96084e-06
0.000672362
-3.08163e-06
0.000672869
-3.19387e-06
0.000673384
-3.2972e-06
0.000673906
-3.39134e-06
0.000674432
-3.47598e-06
0.000674962
-3.55085e-06
0.000675492
-3.61568e-06
0.000676023
-3.67023e-06
0.000676552
-3.71425e-06
0.000677078
-3.74753e-06
0.000677599
-3.76983e-06
0.000678114
-3.78094e-06
0.00067862
-3.78066e-06
0.000679117
-3.76875e-06
0.000679602
-3.74503e-06
0.000680075
-3.70923e-06
0.000680532
-3.66119e-06
0.000680973
-3.60054e-06
0.000681396
-3.52722e-06
0.000681799
-3.44064e-06
0.00068218
-3.34091e-06
0.000682537
-3.22707e-06
0.000682867
-3.09957e-06
0.000683171
-2.95678e-06
0.000683443
-2.79983e-06
0.000683683
-2.62591e-06
0.000683888
-2.43742e-06
0.000684057
-2.22951e-06
0.000684185
-2.00685e-06
0.000684271
-1.76118e-06
0.000684311
-1.5011e-06
0.000684304
-1.21272e-06
0.000684244
-9.1145e-07
0.000684133
-5.74181e-07
0.000683962
-2.2844e-07
0.000683732
1.68301e-07
0.000683428
5.74024e-07
0.000683064
1.04639e-06