/*--------------------------------*- C++ -*----------------------------------*\
| =========                 |                                                 |
| \\      /  F ield         | OpenFOAM: The Open Source CFD Toolbox           |
|  \\    /   O peration     | Version:  2312                                  |
|   \\  /    A nd           | Website:  www.openfoam.com                      |
|    \\/     M anipulation  |                                                 |
\*---------------------------------------------------------------------------*/
FoamFile
{
    version     2.0;
    format      ascii;
    arch        "LSB;label=32;scalar=64";
    class       volScalarField;
    location    "185000";
    object      p;
}
// * * * * * * * * * * * * * * * * * * * * * * * * * * * * * * * * * * * * * //

dimensions      [0 2 -2 0 0 0 0];

internalField   nonuniform List<scalar> 
2685
(
3.73617e-08
3.63393e-08
3.64399e-08
3.69716e-08
3.83367e-08
4.06851e-08
4.39501e-08
4.80373e-08
5.28762e-08
5.84064e-08
6.45594e-08
7.12556e-08
7.84119e-08
8.58542e-08
9.35399e-08
1.01393e-07
1.09336e-07
1.17296e-07
1.25215e-07
1.33023e-07
1.40678e-07
1.4816e-07
1.55459e-07
1.62575e-07
1.69526e-07
1.76356e-07
1.8313e-07
1.89934e-07
1.96877e-07
2.04063e-07
2.1158e-07
2.19486e-07
2.27801e-07
2.36504e-07
2.45533e-07
2.54792e-07
2.64157e-07
2.73492e-07
2.82648e-07
2.91453e-07
2.99746e-07
3.07451e-07
3.14342e-07
3.20095e-07
3.24388e-07
3.26965e-07
3.27768e-07
3.2697e-07
3.2536e-07
3.23375e-07
3.21407e-07
3.19621e-07
3.17929e-07
3.16026e-07
3.13456e-07
3.09489e-07
3.03212e-07
2.94258e-07
2.82647e-07
2.68804e-07
2.53359e-07
2.36929e-07
2.20123e-07
2.03127e-07
1.85878e-07
1.68631e-07
1.5176e-07
1.35624e-07
1.20451e-07
1.0628e-07
9.33619e-08
8.18388e-08
7.17992e-08
6.3304e-08
5.63666e-08
5.09389e-08
4.69155e-08
4.42463e-08
4.25478e-08
4.16773e-08
4.14755e-08
4.1756e-08
4.23275e-08
4.30504e-08
4.38253e-08
4.45835e-08
4.52738e-08
4.58507e-08
4.62664e-08
4.64679e-08
3.78027e-08
3.57664e-08
3.42082e-08
3.51137e-08
3.76469e-08
4.08054e-08
4.43183e-08
4.83046e-08
5.29577e-08
5.83615e-08
6.44764e-08
7.11976e-08
7.83919e-08
8.5982e-08
9.38109e-08
1.01791e-07
1.09863e-07
1.17914e-07
1.25887e-07
1.33734e-07
1.41418e-07
1.48921e-07
1.56232e-07
1.63328e-07
1.7019e-07
1.76834e-07
1.83305e-07
1.8971e-07
1.96162e-07
2.02824e-07
2.09843e-07
2.17293e-07
2.25188e-07
2.33503e-07
2.4218e-07
2.51134e-07
2.60266e-07
2.69479e-07
2.78676e-07
2.87762e-07
2.96668e-07
3.05305e-07
3.13583e-07
3.21205e-07
3.27961e-07
3.33669e-07
3.37748e-07
3.40383e-07
3.41517e-07
3.41386e-07
3.40104e-07
3.37669e-07
3.33962e-07
3.28855e-07
3.22609e-07
3.14125e-07
3.02968e-07
2.89196e-07
2.7384e-07
2.58475e-07
2.44356e-07
2.3174e-07
2.19555e-07
2.06096e-07
1.90975e-07
1.7391e-07
1.55504e-07
1.368e-07
1.1883e-07
1.02535e-07
8.79627e-08
7.52441e-08
6.45181e-08
5.58141e-08
4.90597e-08
4.41011e-08
4.06435e-08
3.86363e-08
3.79084e-08
3.81367e-08
3.90298e-08
4.03672e-08
4.19429e-08
4.35631e-08
4.50808e-08
4.63954e-08
4.74455e-08
4.81981e-08
4.86359e-08
4.87439e-08
3.61347e-08
3.53591e-08
3.33982e-08
3.3739e-08
3.6607e-08
4.09866e-08
4.5935e-08
5.10918e-08
5.64836e-08
6.22315e-08
6.84319e-08
7.51127e-08
8.21978e-08
8.95559e-08
9.70669e-08
1.04682e-07
1.12331e-07
1.19956e-07
1.27455e-07
1.3478e-07
1.41921e-07
1.4887e-07
1.55757e-07
1.6255e-07
1.69307e-07
1.7609e-07
1.8296e-07
1.90004e-07
1.9732e-07
2.04916e-07
2.12813e-07
2.20989e-07
2.29404e-07
2.38004e-07
2.46721e-07
2.55479e-07
2.64189e-07
2.72759e-07
2.81099e-07
2.89117e-07
2.96722e-07
3.03791e-07
3.1013e-07
3.15591e-07
3.19933e-07
3.22752e-07
3.24154e-07
3.24191e-07
3.23377e-07
3.21694e-07
3.2043e-07
3.19821e-07
3.20178e-07
3.21841e-07
3.23488e-07
3.2443e-07
3.22551e-07
3.1616e-07
3.04723e-07
2.88747e-07
2.69452e-07
2.48671e-07
2.27871e-07
2.06593e-07
1.84329e-07
1.61968e-07
1.41032e-07
1.22733e-07
1.07084e-07
9.28984e-08
8.00533e-08
6.83031e-08
5.77893e-08
4.88845e-08
4.18624e-08
3.68323e-08
3.39472e-08
3.23468e-08
3.21691e-08
3.31462e-08
3.49573e-08
3.72549e-08
3.9718e-08
4.20896e-08
4.41896e-08
4.59191e-08
4.72461e-08
4.81753e-08
4.87186e-08
4.88766e-08
1.28013e-08
1.65797e-08
1.99501e-08
2.42288e-08
2.98335e-08
3.64897e-08
4.36534e-08
5.09381e-08
5.82223e-08
6.55777e-08
7.3083e-08
8.07459e-08
8.8511e-08
9.62837e-08
1.0397e-07
1.11508e-07
1.18867e-07
1.26029e-07
1.32975e-07
1.39704e-07
1.46242e-07
1.52671e-07
1.58974e-07
1.65295e-07
1.71655e-07
1.78218e-07
1.84925e-07
1.91846e-07
1.98952e-07
2.06218e-07
2.13627e-07
2.21206e-07
2.2894e-07
2.36768e-07
2.44614e-07
2.52392e-07
2.60014e-07
2.67387e-07
2.74424e-07
2.81053e-07
2.87218e-07
2.92872e-07
2.98015e-07
3.02686e-07
3.06909e-07
3.10755e-07
3.14133e-07
3.16869e-07
3.18845e-07
3.2072e-07
3.21849e-07
3.22316e-07
3.21939e-07
3.20681e-07
3.17546e-07
3.11923e-07
3.02854e-07
2.9011e-07
2.74558e-07
2.57991e-07
2.42974e-07
2.31579e-07
2.22461e-07
2.12537e-07
1.97685e-07
1.76767e-07
1.5206e-07
1.26834e-07
1.03499e-07
8.29531e-08
6.46793e-08
4.92539e-08
3.73219e-08
2.89823e-08
2.36842e-08
2.07687e-08
1.96801e-08
2.0554e-08
2.23259e-08
2.50715e-08
2.8608e-08
3.2646e-08
3.68557e-08
4.08655e-08
4.43644e-08
4.71794e-08
4.92583e-08
5.06081e-08
5.12492e-08
5.11975e-08
-6.21002e-09
8.1434e-10
7.65901e-09
1.51472e-08
2.33571e-08
3.20986e-08
4.1148e-08
5.02811e-08
5.93344e-08
6.82456e-08
7.70028e-08
8.55867e-08
9.39646e-08
1.02086e-07
1.09894e-07
1.17357e-07
1.24472e-07
1.31237e-07
1.37654e-07
1.43759e-07
1.49658e-07
1.5548e-07
1.61302e-07
1.67158e-07
1.73117e-07
1.79109e-07
1.85197e-07
1.91646e-07
1.98393e-07
2.05442e-07
2.12733e-07
2.20164e-07
2.27617e-07
2.35003e-07
2.42256e-07
2.49304e-07
2.56052e-07
2.62401e-07
2.68269e-07
2.73614e-07
2.78423e-07
2.82681e-07
2.86372e-07
2.89508e-07
2.92124e-07
2.9425e-07
2.95945e-07
2.97249e-07
2.98185e-07
2.9881e-07
2.99014e-07
2.98681e-07
2.97617e-07
2.95148e-07
2.91598e-07
2.86177e-07
2.79051e-07
2.70148e-07
2.59454e-07
2.47424e-07
2.34767e-07
2.21376e-07
2.06078e-07
1.87155e-07
1.6423e-07
1.39215e-07
1.15128e-07
9.48928e-08
7.92824e-08
6.64059e-08
5.40179e-08
4.1515e-08
2.97804e-08
1.99471e-08
1.2754e-08
8.41713e-09
6.76719e-09
7.41524e-09
1.03848e-08
1.48428e-08
2.04595e-08
2.66634e-08
3.2979e-08
3.8846e-08
4.37809e-08
4.75768e-08
5.02624e-08
5.19384e-08
5.26651e-08
5.24567e-08
-3.46591e-08
-2.3052e-08
-1.25977e-08
-2.14029e-09
8.85212e-09
2.03872e-08
3.21156e-08
4.36005e-08
5.45775e-08
6.49799e-08
7.48636e-08
8.43105e-08
9.33284e-08
1.01867e-07
1.09914e-07
1.17479e-07
1.24544e-07
1.31128e-07
1.37347e-07
1.43357e-07
1.49238e-07
1.54978e-07
1.60581e-07
1.66157e-07
1.71811e-07
1.77559e-07
1.83566e-07
1.89523e-07
1.95603e-07
2.01685e-07
2.07988e-07
2.14649e-07
2.21602e-07
2.2861e-07
2.35425e-07
2.4188e-07
2.47876e-07
2.53342e-07
2.58203e-07
2.62378e-07
2.65794e-07
2.68437e-07
2.70357e-07
2.7167e-07
2.72532e-07
2.73112e-07
2.73568e-07
2.74011e-07
2.74484e-07
2.74913e-07
2.75085e-07
2.74667e-07
2.73231e-07
2.70307e-07
2.65488e-07
2.58373e-07
2.48676e-07
2.36349e-07
2.21622e-07
2.04987e-07
1.86799e-07
1.6742e-07
1.4761e-07
1.28385e-07
1.10817e-07
9.52321e-08
8.18326e-08
7.03055e-08
5.91668e-08
4.67547e-08
3.30922e-08
2.02393e-08
1.04778e-08
4.59756e-09
2.11911e-09
2.04021e-09
3.6062e-09
6.58409e-09
1.09008e-08
1.62293e-08
2.21581e-08
2.88128e-08
3.58059e-08
4.25514e-08
4.80882e-08
5.21927e-08
5.51086e-08
5.70392e-08
5.79221e-08
5.75219e-08
-7.19159e-08
-5.67761e-08
-4.27372e-08
-2.92715e-08
-1.57089e-08
-1.67343e-09
1.25985e-08
2.66975e-08
4.03533e-08
5.32944e-08
6.53078e-08
7.63696e-08
8.65424e-08
9.59205e-08
1.04605e-07
1.12616e-07
1.19957e-07
1.2672e-07
1.33037e-07
1.38945e-07
1.44508e-07
1.49902e-07
1.55074e-07
1.59911e-07
1.64546e-07
1.69058e-07
1.73717e-07
1.79235e-07
1.85576e-07
1.92218e-07
1.98521e-07
2.03875e-07
2.08837e-07
2.13831e-07
2.19135e-07
2.24757e-07
2.30486e-07
2.36021e-07
2.41084e-07
2.4541e-07
2.48756e-07
2.50933e-07
2.51852e-07
2.51566e-07
2.50263e-07
2.48238e-07
2.45835e-07
2.4337e-07
2.41072e-07
2.3902e-07
2.37111e-07
2.35029e-07
2.32254e-07
2.28114e-07
2.21873e-07
2.1284e-07
2.00576e-07
1.85016e-07
1.66376e-07
1.45271e-07
1.22816e-07
1.00356e-07
7.90803e-08
5.96722e-08
4.27352e-08
2.82625e-08
1.608e-08
6.24093e-09
-1.00279e-09
-5.23413e-09
-6.40458e-09
-5.25113e-09
-2.92541e-09
-2.82502e-10
2.48735e-09
5.52805e-09
9.15254e-09
1.38311e-08
1.96439e-08
2.60564e-08
3.2644e-08
3.952e-08
4.6672e-08
5.30523e-08
5.79552e-08
6.1359e-08
6.37888e-08
6.54221e-08
6.60363e-08
6.51242e-08
-1.05396e-07
-9.02518e-08
-7.51832e-08
-6.00048e-08
-4.43123e-08
-2.80022e-08
-1.15804e-08
4.47723e-09
1.98245e-08
3.42702e-08
4.784e-08
6.05023e-08
7.21669e-08
8.28723e-08
9.25895e-08
1.01137e-07
1.08579e-07
1.15351e-07
1.21714e-07
1.27353e-07
1.3179e-07
1.35226e-07
1.38503e-07
1.42271e-07
1.46718e-07
1.51449e-07
1.55724e-07
1.58497e-07
1.59612e-07
1.60125e-07
1.61367e-07
1.64658e-07
1.6981e-07
1.76412e-07
1.83869e-07
1.91589e-07
1.99076e-07
2.05965e-07
2.11963e-07
2.16808e-07
2.20247e-07
2.22065e-07
2.22163e-07
2.20619e-07
2.17697e-07
2.1376e-07
2.09166e-07
2.04216e-07
1.99127e-07
1.94026e-07
1.88906e-07
1.83571e-07
1.77583e-07
1.70295e-07
1.60966e-07
1.48902e-07
1.33622e-07
1.14983e-07
9.32463e-08
6.90635e-08
4.33908e-08
1.73737e-08
-7.23238e-09
-3.22135e-08
-5.32181e-08
-6.97008e-08
-8.07579e-08
-8.5366e-08
-8.32416e-08
-7.54353e-08
-6.38764e-08
-5.05179e-08
-3.68235e-08
-2.35621e-08
-1.10218e-08
5.11266e-10
1.0916e-08
2.05274e-08
2.95586e-08
3.77923e-08
4.52684e-08
5.24751e-08
5.94471e-08
6.53776e-08
6.96421e-08
7.25694e-08
7.48233e-08
7.64091e-08
7.63817e-08
7.38559e-08
-1.61385e-07
-1.36731e-07
-1.15467e-07
-9.51851e-08
-7.4849e-08
-5.51115e-08
-3.65401e-08
-1.89806e-08
-2.53161e-09
1.26511e-08
2.66851e-08
3.95931e-08
5.14363e-08
6.23112e-08
7.20644e-08
8.05254e-08
8.78059e-08
9.40589e-08
9.90384e-08
1.0245e-07
1.0489e-07
1.07347e-07
1.10285e-07
1.13211e-07
1.14294e-07
1.12144e-07
1.07589e-07
1.03058e-07
1.00357e-07
1.00155e-07
1.02608e-07
1.08096e-07
1.1606e-07
1.25703e-07
1.36042e-07
1.46192e-07
1.55466e-07
1.6342e-07
1.69829e-07
1.74591e-07
1.7761e-07
1.78809e-07
1.78246e-07
1.76205e-07
1.73154e-07
1.69542e-07
1.65591e-07
1.61235e-07
1.56175e-07
1.50018e-07
1.42406e-07
1.33045e-07
1.21676e-07
1.08014e-07
9.17246e-08
7.25356e-08
5.03201e-08
2.51686e-08
-2.54015e-09
-3.21439e-08
-6.27197e-08
-9.32725e-08
-1.23103e-07
-1.47275e-07
-1.67991e-07
-1.82795e-07
-1.90396e-07
-1.90226e-07
-1.82304e-07
-1.67301e-07
-1.46468e-07
-1.21413e-07
-9.40373e-08
-6.64958e-08
-4.07832e-08
-1.82448e-08
7.31215e-10
1.65526e-08
2.97801e-08
4.08128e-08
5.01607e-08
5.83896e-08
6.55672e-08
7.12428e-08
7.52165e-08
7.7939e-08
7.98475e-08
8.05744e-08
7.9065e-08
7.43193e-08
-2.67933e-07
-2.31452e-07
-1.96792e-07
-1.62125e-07
-1.28054e-07
-9.66897e-08
-6.93381e-08
-4.62113e-08
-2.72149e-08
-1.15083e-08
2.13464e-09
1.4304e-08
2.51072e-08
3.47556e-08
4.33594e-08
5.06824e-08
5.63114e-08
6.00927e-08
6.25382e-08
6.43454e-08
6.56643e-08
6.59555e-08
6.39757e-08
5.8895e-08
5.11897e-08
4.19656e-08
3.26604e-08
2.50973e-08
2.08591e-08
2.08356e-08
2.52969e-08
3.31929e-08
4.41104e-08
5.70286e-08
7.0772e-08
8.41345e-08
9.61436e-08
1.06218e-07
1.14161e-07
1.20041e-07
1.24007e-07
1.26177e-07
1.2669e-07
1.25827e-07
1.24034e-07
1.2175e-07
1.19145e-07
1.15934e-07
1.11431e-07
1.04787e-07
9.52164e-08
8.21231e-08
6.51188e-08
4.4039e-08
1.89504e-08
-9.84665e-09
-4.17989e-08
-7.61339e-08
-1.11901e-07
-1.48024e-07
-1.83351e-07
-2.16648e-07
-2.46901e-07
-2.73158e-07
-2.92831e-07
-3.0573e-07
-3.1068e-07
-3.07152e-07
-2.94569e-07
-2.72896e-07
-2.43052e-07
-2.06735e-07
-1.66465e-07
-1.25497e-07
-8.68782e-08
-5.26197e-08
-2.36626e-08
-9.26052e-11
1.86001e-08
3.32172e-08
4.46911e-08
5.38765e-08
6.12204e-08
6.67598e-08
7.05754e-08
7.30177e-08
7.42608e-08
7.37867e-08
7.05123e-08
6.34258e-08
-3.97098e-07
-3.51739e-07
-3.05216e-07
-2.57563e-07
-2.09787e-07
-1.64422e-07
-1.24004e-07
-9.03441e-08
-6.39101e-08
-4.32103e-08
-2.66712e-08
-1.36166e-08
-3.3802e-09
4.74107e-09
1.10466e-08
1.53851e-08
1.76125e-08
1.80712e-08
1.73687e-08
1.57444e-08
1.25283e-08
6.35983e-09
-3.73131e-09
-1.74834e-08
-3.34295e-08
-4.94616e-08
-6.34595e-08
-7.36969e-08
-7.89768e-08
-7.85464e-08
-7.41509e-08
-6.47623e-08
-5.11345e-08
-3.42329e-08
-1.53518e-08
3.95076e-09
2.20993e-08
3.78568e-08
5.06104e-08
6.03783e-08
6.75363e-08
7.24947e-08
7.5541e-08
7.68755e-08
7.66842e-08
7.51212e-08
7.22129e-08
6.77573e-08
6.12894e-08
5.21116e-08
3.93779e-08
2.22484e-08
6.59603e-11
-2.74793e-08
-6.02204e-08
-9.75013e-08
-1.38224e-07
-1.80995e-07
-2.24332e-07
-2.66748e-07
-3.06781e-07
-3.4308e-07
-3.74409e-07
-3.99771e-07
-4.18213e-07
-4.28666e-07
-4.30216e-07
-4.22138e-07
-4.03905e-07
-3.75642e-07
-3.3826e-07
-2.93305e-07
-2.43313e-07
-1.91783e-07
-1.42193e-07
-9.73082e-08
-5.90576e-08
-2.8195e-08
-4.22633e-09
1.40054e-08
2.77625e-08
3.8168e-08
4.60047e-08
5.16469e-08
5.531e-08
5.72428e-08
5.74921e-08
5.55494e-08
5.0421e-08
4.11487e-08
-5.15051e-07
-4.69687e-07
-4.19537e-07
-3.65008e-07
-3.07421e-07
-2.49729e-07
-1.9561e-07
-1.48531e-07
-1.10318e-07
-8.04826e-08
-5.82679e-08
-4.31449e-08
-3.35788e-08
-2.78194e-08
-2.50415e-08
-2.48519e-08
-2.67361e-08
-3.01864e-08
-3.50702e-08
-4.20546e-08
-5.2475e-08
-6.74976e-08
-8.71508e-08
-1.09962e-07
-1.33511e-07
-1.55297e-07
-1.73282e-07
-1.86009e-07
-1.92598e-07
-1.92892e-07
-1.85977e-07
-1.73136e-07
-1.55092e-07
-1.32835e-07
-1.07723e-07
-8.14524e-08
-5.59307e-08
-3.29507e-08
-1.37493e-08
1.30353e-09
1.25782e-08
2.07282e-08
2.62724e-08
2.94613e-08
3.0343e-08
2.88666e-08
2.49588e-08
1.85306e-08
9.38395e-09
-2.93218e-09
-1.91814e-08
-4.03126e-08
-6.71638e-08
-1.00126e-07
-1.38926e-07
-1.82624e-07
-2.29748e-07
-2.78519e-07
-3.27125e-07
-3.73805e-07
-4.16893e-07
-4.54948e-07
-4.86754e-07
-5.11273e-07
-5.27783e-07
-5.35205e-07
-5.32867e-07
-5.20191e-07
-4.96927e-07
-4.63318e-07
-4.20088e-07
-3.68663e-07
-3.1165e-07
-2.52601e-07
-1.95168e-07
-1.42644e-07
-9.75287e-08
-6.08115e-08
-3.20622e-08
-1.02465e-08
5.81468e-09
1.73807e-08
2.55521e-08
3.1002e-08
3.40706e-08
3.49961e-08
3.38391e-08
3.01952e-08
2.31885e-08
1.18941e-08
-6.02174e-07
-5.59416e-07
-5.09268e-07
-4.52157e-07
-3.89804e-07
-3.25659e-07
-2.63802e-07
-2.08224e-07
-1.62039e-07
-1.26656e-07
-1.01631e-07
-8.47836e-08
-7.38908e-08
-6.80033e-08
-6.66032e-08
-6.87326e-08
-7.33844e-08
-8.02233e-08
-8.98851e-08
-1.03677e-07
-1.22814e-07
-1.475e-07
-1.76403e-07
-2.07014e-07
-2.36496e-07
-2.62335e-07
-2.8259e-07
-2.9591e-07
-3.0156e-07
-2.99445e-07
-2.89776e-07
-2.73323e-07
-2.5102e-07
-2.2397e-07
-1.9351e-07
-1.61265e-07
-1.29154e-07
-9.92325e-08
-7.33316e-08
-5.2564e-08
-3.70167e-08
-2.59917e-08
-1.86021e-08
-1.42345e-08
-1.26507e-08
-1.38594e-08
-1.7952e-08
-2.50403e-08
-3.53496e-08
-4.93924e-08
-6.8036e-08
-9.23191e-08
-1.23064e-07
-1.60501e-07
-2.04063e-07
-2.52423e-07
-3.0377e-07
-3.56086e-07
-4.07381e-07
-4.55871e-07
-4.99963e-07
-5.38189e-07
-5.69282e-07
-5.92305e-07
-6.06638e-07
-6.11193e-07
-6.05529e-07
-5.89107e-07
-5.61787e-07
-5.23923e-07
-4.76349e-07
-4.20636e-07
-3.59353e-07
-2.9581e-07
-2.33643e-07
-1.76443e-07
-1.26958e-07
-8.63516e-08
-5.45037e-08
-3.06723e-08
-1.36578e-08
-1.90965e-09
5.97567e-09
1.08346e-08
1.30449e-08
1.28346e-08
1.02768e-08
5.03265e-09
-3.69616e-09
-1.68275e-08
-6.43153e-07
-6.03324e-07
-5.54416e-07
-4.97606e-07
-4.35329e-07
-3.70772e-07
-3.07816e-07
-2.50672e-07
-2.02376e-07
-1.64215e-07
-1.36124e-07
-1.16705e-07
-1.04498e-07
-9.90574e-08
-9.97015e-08
-1.0478e-07
-1.12962e-07
-1.24337e-07
-1.40165e-07
-1.61858e-07
-1.89937e-07
-2.23422e-07
-2.59968e-07
-2.96587e-07
-3.30358e-07
-3.58828e-07
-3.80135e-07
-3.9301e-07
-3.96849e-07
-3.9246e-07
-3.79782e-07
-3.597e-07
-3.33141e-07
-3.0118e-07
-2.65134e-07
-2.26745e-07
-1.88167e-07
-1.51721e-07
-1.19584e-07
-9.33906e-08
-7.37291e-08
-6.00689e-08
-5.1274e-08
-4.62829e-08
-4.44818e-08
-4.57067e-08
-5.00413e-08
-5.76238e-08
-6.867e-08
-8.36845e-08
-1.03574e-07
-1.29454e-07
-1.62181e-07
-2.01885e-07
-2.47768e-07
-2.98214e-07
-3.51149e-07
-4.04422e-07
-4.56042e-07
-5.04254e-07
-5.47532e-07
-5.84504e-07
-6.13926e-07
-6.34849e-07
-6.46694e-07
-6.48423e-07
-6.397e-07
-6.20148e-07
-5.89823e-07
-5.49154e-07
-4.99051e-07
-4.412e-07
-3.78156e-07
-3.13175e-07
-2.49943e-07
-1.92007e-07
-1.41889e-07
-1.00675e-07
-6.84096e-08
-4.44311e-08
-2.743e-08
-1.57671e-08
-8.09452e-09
-3.67179e-09
-2.16027e-09
-3.32333e-09
-7.05583e-09
-1.3634e-08
-2.37803e-08
-3.83835e-08
-6.27722e-07
-5.94149e-07
-5.50547e-07
-4.98339e-07
-4.3986e-07
-3.78257e-07
-3.17439e-07
-2.61179e-07
-2.12448e-07
-1.7358e-07
-1.45456e-07
-1.27348e-07
-1.18174e-07
-1.16724e-07
-1.21163e-07
-1.29718e-07
-1.4183e-07
-1.58367e-07
-1.8079e-07
-2.10027e-07
-2.45708e-07
-2.86018e-07
-3.28137e-07
-3.68915e-07
-4.05416e-07
-4.35219e-07
-4.56537e-07
-4.68338e-07
-4.70524e-07
-4.63066e-07
-4.4681e-07
-4.2264e-07
-3.9163e-07
-3.54929e-07
-3.1387e-07
-2.70329e-07
-2.26818e-07
-1.85997e-07
-1.50092e-07
-1.20627e-07
-9.81674e-08
-8.22459e-08
-7.17659e-08
-6.56382e-08
-6.31473e-08
-6.40048e-08
-6.82123e-08
-7.58536e-08
-8.70477e-08
-1.02175e-07
-1.22082e-07
-1.47903e-07
-1.80524e-07
-2.20041e-07
-2.65553e-07
-3.15332e-07
-3.67225e-07
-4.19073e-07
-4.68943e-07
-5.15139e-07
-5.56144e-07
-5.90623e-07
-6.17413e-07
-6.35626e-07
-6.44706e-07
-6.43878e-07
-6.3272e-07
-6.10939e-07
-5.78647e-07
-5.36451e-07
-4.85567e-07
-4.27893e-07
-3.65994e-07
-3.03013e-07
-2.42355e-07
-1.87033e-07
-1.3909e-07
-9.95229e-08
-6.8503e-08
-4.54163e-08
-2.89726e-08
-1.76896e-08
-1.04487e-08
-6.6583e-09
-6.0153e-09
-8.25309e-09
-1.31886e-08
-2.09677e-08
-3.21746e-08
-4.7636e-08
-5.26203e-07
-5.02165e-07
-4.67715e-07
-4.24735e-07
-3.75531e-07
-3.23048e-07
-2.70819e-07
-2.22377e-07
-1.81033e-07
-1.49493e-07
-1.28538e-07
-1.17041e-07
-1.13484e-07
-1.16549e-07
-1.24827e-07
-1.37315e-07
-1.54148e-07
-1.76408e-07
-2.05184e-07
-2.40752e-07
-2.82173e-07
-3.273e-07
-3.73182e-07
-4.16622e-07
-4.54658e-07
-4.84848e-07
-5.05458e-07
-5.15645e-07
-5.15334e-07
-5.04814e-07
-4.84774e-07
-4.56248e-07
-4.20606e-07
-3.79346e-07
-3.34015e-07
-2.86552e-07
-2.39659e-07
-1.96351e-07
-1.59004e-07
-1.28824e-07
-1.05905e-07
-8.94732e-08
-7.83375e-08
-7.1436e-08
-6.81004e-08
-6.80362e-08
-7.1204e-08
-7.76617e-08
-8.75271e-08
-1.01193e-07
-1.1954e-07
-1.43739e-07
-1.74648e-07
-2.1226e-07
-2.55553e-07
-3.02747e-07
-3.51714e-07
-4.00363e-07
-4.46866e-07
-4.89661e-07
-5.27326e-07
-5.58536e-07
-5.82142e-07
-5.97287e-07
-6.03537e-07
-6.00273e-07
-5.87136e-07
-5.63983e-07
-5.31058e-07
-4.89104e-07
-4.39457e-07
-3.84092e-07
-3.25587e-07
-2.66918e-07
-2.11039e-07
-1.60407e-07
-1.1672e-07
-8.08686e-08
-5.29204e-08
-3.21332e-08
-1.72507e-08
-7.02559e-09
-6.07897e-10
2.43987e-09
2.38444e-09
-4.93987e-10
-5.98223e-09
-1.41654e-08
-2.55369e-08
-3.39541e-07
-3.19296e-07
-2.93511e-07
-2.62642e-07
-2.27908e-07
-1.91519e-07
-1.56242e-07
-1.24902e-07
-9.99713e-08
-8.29428e-08
-7.40123e-08
-7.27398e-08
-7.83862e-08
-8.9615e-08
-1.04919e-07
-1.23668e-07
-1.46423e-07
-1.74275e-07
-2.08122e-07
-2.48142e-07
-2.93385e-07
-3.41685e-07
-3.90026e-07
-4.35092e-07
-4.73799e-07
-5.03655e-07
-5.23059e-07
-5.31311e-07
-5.28293e-07
-5.14474e-07
-4.90734e-07
-4.58326e-07
-4.18809e-07
-3.7397e-07
-3.25673e-07
-2.7594e-07
-2.27324e-07
-1.82814e-07
-1.44913e-07
-1.14824e-07
-9.24624e-08
-7.67996e-08
-6.63726e-08
-5.98964e-08
-5.65441e-08
-5.59247e-08
-5.80078e-08
-6.29547e-08
-7.09562e-08
-8.23773e-08
-9.80507e-08
-1.1918e-07
-1.46716e-07
-1.80714e-07
-2.20163e-07
-2.63281e-07
-3.07974e-07
-3.52234e-07
-3.94326e-07
-4.32767e-07
-4.66257e-07
-4.93584e-07
-5.13641e-07
-5.25523e-07
-5.28638e-07
-5.2299e-07
-5.08399e-07
-4.84896e-07
-4.52839e-07
-4.13037e-07
-3.66864e-07
-3.16277e-07
-2.63688e-07
-2.11698e-07
-1.62744e-07
-1.18804e-07
-8.1216e-08
-5.0554e-08
-2.66029e-08
-8.53329e-09
4.70293e-09
1.39726e-08
1.97918e-08
2.24309e-08
2.21284e-08
1.91839e-08
1.38365e-08
6.05649e-09
-4.55805e-09
-1.00551e-07
-9.96114e-08
-9.10473e-08
-7.70224e-08
-5.93984e-08
-4.05431e-08
-2.29237e-08
-8.81049e-09
5.0562e-11
2.71824e-09
-9.72543e-10
-1.06128e-08
-2.52971e-08
-4.38709e-08
-6.54141e-08
-8.9633e-08
-1.17014e-07
-1.48678e-07
-1.85829e-07
-2.28899e-07
-2.76897e-07
-3.27428e-07
-3.77228e-07
-4.22837e-07
-4.61116e-07
-4.89661e-07
-5.0708e-07
-5.12489e-07
-5.06324e-07
-4.89294e-07
-4.62553e-07
-4.27512e-07
-3.85787e-07
-3.39201e-07
-2.89861e-07
-2.40177e-07
-1.92848e-07
-1.50595e-07
-1.15378e-07
-8.77533e-08
-6.71831e-08
-5.26077e-08
-4.27423e-08
-3.63838e-08
-3.26579e-08
-3.10907e-08
-3.16536e-08
-3.46193e-08
-4.0247e-08
-4.88069e-08
-6.10016e-08
-7.80441e-08
-1.0103e-07
-1.30169e-07
-1.64553e-07
-2.02486e-07
-2.41963e-07
-2.8104e-07
-3.18032e-07
-3.51557e-07
-3.8044e-07
-4.03689e-07
-4.20586e-07
-4.30899e-07
-4.299e-07
-4.21918e-07
-4.06409e-07
-3.83473e-07
-3.53593e-07
-3.17663e-07
-2.77029e-07
-2.33445e-07
-1.88948e-07
-1.45619e-07
-1.05325e-07
-6.94845e-08
-3.89047e-08
-1.37417e-08
6.37478e-09
2.20869e-08
3.40259e-08
4.26313e-08
4.81466e-08
5.07441e-08
5.06586e-08
4.81999e-08
4.36256e-08
3.69713e-08
2.79573e-08
1.02089e-07
9.93896e-08
9.50002e-08
9.41381e-08
9.57835e-08
9.83349e-08
1.00135e-07
9.9692e-08
9.58931e-08
8.81177e-08
7.62104e-08
6.03704e-08
4.11196e-08
1.92006e-08
-4.84867e-09
-3.12465e-08
-6.11033e-08
-9.59416e-08
-1.36807e-07
-1.83488e-07
-2.34294e-07
-2.8639e-07
-3.36388e-07
-3.80947e-07
-4.17273e-07
-4.43415e-07
-4.57052e-07
-4.59203e-07
-4.50003e-07
-4.30282e-07
-4.01273e-07
-3.64636e-07
-3.22374e-07
-2.76629e-07
-2.29645e-07
-1.83845e-07
-1.41698e-07
-1.05361e-07
-7.60336e-08
-5.34913e-08
-3.65616e-08
-2.39555e-08
-1.45544e-08
-7.4854e-09
-2.22254e-09
1.43782e-09
3.36277e-09
3.18313e-09
6.18863e-10
-4.51053e-09
-1.27724e-08
-2.53578e-08
-4.348e-08
-6.74829e-08
-9.65259e-08
-1.28954e-07
-1.62847e-07
-1.96369e-07
-2.27919e-07
-2.5616e-07
-2.79965e-07
-2.98327e-07
-3.10353e-07
-3.15228e-07
-3.15752e-07
-3.08642e-07
-2.94476e-07
-2.73914e-07
-2.47779e-07
-2.17151e-07
-1.83379e-07
-1.48011e-07
-1.12662e-07
-7.88205e-08
-4.76706e-08
-1.99729e-08
3.95977e-09
2.41841e-08
4.09771e-08
5.4666e-08
6.55015e-08
7.36245e-08
7.91261e-08
8.21385e-08
8.28902e-08
8.16677e-08
7.87022e-08
7.40467e-08
6.75052e-08
2.56892e-07
2.52159e-07
2.47105e-07
2.41514e-07
2.35178e-07
2.28094e-07
2.19957e-07
2.10315e-07
1.9873e-07
1.8489e-07
1.68643e-07
1.49991e-07
1.29012e-07
1.05655e-07
7.94873e-08
4.96172e-08
1.49528e-08
-2.52864e-08
-7.10387e-08
-1.2111e-07
-1.73271e-07
-2.24635e-07
-2.72129e-07
-3.13132e-07
-3.45859e-07
-3.65958e-07
-3.76008e-07
-3.74813e-07
-3.63047e-07
-3.41822e-07
-3.12639e-07
-2.77357e-07
-2.37989e-07
-1.96628e-07
-1.55522e-07
-1.17017e-07
-8.30438e-08
-5.46831e-08
-3.2162e-08
-1.48095e-08
-1.35019e-09
9.39835e-09
1.82793e-08
2.58458e-08
3.23301e-08
3.7725e-08
4.17958e-08
4.40902e-08
4.43135e-08
4.24282e-08
3.80589e-08
3.00637e-08
1.70529e-08
-1.58474e-09
-2.51674e-08
-5.20565e-08
-8.03372e-08
-1.08266e-07
-1.34387e-07
-1.57501e-07
-1.76633e-07
-1.90984e-07
-1.99998e-07
-2.03362e-07
-2.01668e-07
-1.94453e-07
-1.8199e-07
-1.64863e-07
-1.43874e-07
-1.20015e-07
-9.4403e-08
-6.81807e-08
-4.23942e-08
-1.78831e-08
4.78401e-09
2.53103e-08
4.36135e-08
5.97337e-08
7.37395e-08
8.56623e-08
9.54814e-08
1.03158e-07
1.08695e-07
1.12189e-07
1.13843e-07
1.13918e-07
1.1264e-07
1.10104e-07
1.06206e-07
3.2817e-07
3.36146e-07
3.3804e-07
3.34861e-07
3.29149e-07
3.21537e-07
3.12143e-07
3.0088e-07
2.87605e-07
2.722e-07
2.54571e-07
2.34579e-07
2.11955e-07
1.86238e-07
1.56784e-07
1.22928e-07
8.42569e-08
4.09316e-08
-6.1318e-09
-5.52359e-08
-1.04098e-07
-1.50175e-07
-1.91118e-07
-2.25113e-07
-2.49559e-07
-2.66214e-07
-2.72262e-07
-2.68354e-07
-2.55543e-07
-2.35049e-07
-2.08455e-07
-1.77633e-07
-1.44633e-07
-1.11488e-07
-7.9949e-08
-5.15348e-08
-2.72771e-08
-7.30526e-09
8.86574e-09
2.19999e-08
3.30385e-08
4.27578e-08
5.16147e-08
5.97812e-08
6.71555e-08
7.35781e-08
7.88514e-08
8.25375e-08
8.43293e-08
8.44375e-08
8.29296e-08
7.89247e-08
7.09022e-08
5.78317e-08
3.9975e-08
1.87669e-08
-3.89494e-09
-2.62851e-08
-4.70778e-08
-6.52892e-08
-8.01492e-08
-9.10857e-08
-9.77103e-08
-9.98795e-08
-9.78124e-08
-9.16168e-08
-8.16992e-08
-6.86523e-08
-5.32e-08
-3.61408e-08
-1.82476e-08
-1.91695e-10
1.75032e-08
3.44735e-08
5.0494e-08
6.54356e-08
7.92205e-08
9.17867e-08
1.03069e-07
1.12993e-07
1.21489e-07
1.28507e-07
1.34036e-07
1.38126e-07
1.40892e-07
1.42493e-07
1.43087e-07
1.42753e-07
1.41453e-07
3.11753e-07
3.29982e-07
3.44689e-07
3.54175e-07
3.58113e-07
3.57154e-07
3.52157e-07
3.43791e-07
3.32476e-07
3.18418e-07
3.01634e-07
2.81979e-07
2.59182e-07
2.32909e-07
2.02857e-07
1.6891e-07
1.31302e-07
9.07571e-08
4.84958e-08
6.14787e-09
-3.43641e-08
-7.12973e-08
-1.0341e-07
-1.28528e-07
-1.46502e-07
-1.56408e-07
-1.58345e-07
-1.52966e-07
-1.41201e-07
-1.24314e-07
-1.0388e-07
-8.14326e-08
-5.83541e-08
-3.60039e-08
-1.54671e-08
2.59643e-09
1.79909e-08
3.1141e-08
4.27289e-08
5.32555e-08
6.30722e-08
7.24138e-08
8.13977e-08
8.9911e-08
9.75368e-08
1.04049e-07
1.09525e-07
1.13679e-07
1.15996e-07
1.16655e-07
1.16273e-07
1.14679e-07
1.10605e-07
1.0265e-07
9.03936e-08
7.47117e-08
5.72963e-08
3.99227e-08
2.39735e-08
1.0345e-08
-4.48355e-10
-8.08178e-09
-1.2246e-08
-1.3701e-08
-1.20933e-08
-7.5861e-09
-5.78636e-10
8.44732e-09
1.8956e-08
3.04347e-08
4.24285e-08
5.45618e-08
6.65425e-08
7.81511e-08
8.92278e-08
9.96658e-08
1.09401e-07
1.18398e-07
1.26642e-07
1.34138e-07
1.40904e-07
1.46955e-07
1.52294e-07
1.56919e-07
1.60825e-07
1.64003e-07
1.66444e-07
1.68145e-07
1.69095e-07
2.88461e-07
3.04756e-07
3.18969e-07
3.29981e-07
3.37262e-07
3.40766e-07
3.40785e-07
3.37576e-07
3.3124e-07
3.21767e-07
3.09092e-07
2.93133e-07
2.73846e-07
2.5125e-07
2.25476e-07
1.96839e-07
1.65913e-07
1.33584e-07
1.01012e-07
6.96325e-08
4.0531e-08
1.3751e-08
-8.47978e-09
-2.59529e-08
-3.79705e-08
-4.46631e-08
-4.62331e-08
-4.32054e-08
-3.64357e-08
-2.69183e-08
-1.56557e-08
-3.56863e-09
8.57436e-09
2.02008e-08
3.11524e-08
4.15577e-08
5.14705e-08
6.09759e-08
7.02508e-08
7.9423e-08
8.84879e-08
9.72813e-08
1.05682e-07
1.13549e-07
1.20354e-07
1.25702e-07
1.29967e-07
1.33475e-07
1.3581e-07
1.36706e-07
1.36708e-07
1.36291e-07
1.3488e-07
1.3113e-07
1.24081e-07
1.13834e-07
1.01413e-07
8.82671e-08
7.58192e-08
6.51564e-08
5.69204e-08
5.13529e-08
4.84905e-08
4.82268e-08
5.01113e-08
5.3864e-08
5.91731e-08
6.57187e-08
7.31777e-08
8.1231e-08
8.96017e-08
9.80576e-08
1.06401e-07
1.14473e-07
1.22152e-07
1.29362e-07
1.36068e-07
1.42285e-07
1.48075e-07
1.5351e-07
1.5864e-07
1.63466e-07
1.6796e-07
1.72072e-07
1.75751e-07
1.7897e-07
1.8174e-07
1.841e-07
1.86092e-07
2.66606e-07
2.819e-07
2.96357e-07
3.08715e-07
3.17984e-07
3.23727e-07
3.26118e-07
3.25576e-07
3.22429e-07
3.16763e-07
3.08493e-07
2.97554e-07
2.83998e-07
2.67977e-07
2.49719e-07
2.29546e-07
2.0791e-07
1.85397e-07
1.62676e-07
1.40147e-07
1.18416e-07
9.92822e-08
8.27389e-08
6.91798e-08
5.85156e-08
5.0659e-08
4.53976e-08
4.24239e-08
4.13766e-08
4.19593e-08
4.38749e-08
4.69503e-08
5.11799e-08
5.6476e-08
6.25751e-08
6.92798e-08
7.64773e-08
8.40484e-08
9.18381e-08
9.96654e-08
1.07312e-07
1.14473e-07
1.21018e-07
1.27024e-07
1.3223e-07
1.36227e-07
1.39239e-07
1.41767e-07
1.43736e-07
1.44763e-07
1.44943e-07
1.44762e-07
1.44393e-07
1.43398e-07
1.40983e-07
1.36437e-07
1.29623e-07
1.21283e-07
1.12557e-07
1.04512e-07
9.7914e-08
9.31767e-08
9.03348e-08
9.02505e-08
9.20291e-08
9.53877e-08
1.00003e-07
1.05548e-07
1.11739e-07
1.18345e-07
1.25146e-07
1.31934e-07
1.38523e-07
1.4476e-07
1.50546e-07
1.55839e-07
1.60653e-07
1.65051e-07
1.69125e-07
1.72953e-07
1.76577e-07
1.80002e-07
1.83214e-07
1.86206e-07
1.88998e-07
1.91645e-07
1.94213e-07
1.96787e-07
1.99445e-07
2.48234e-07
2.63464e-07
2.778e-07
2.90332e-07
3.00343e-07
3.07534e-07
3.12087e-07
3.14348e-07
3.14539e-07
3.12704e-07
3.08762e-07
3.02613e-07
2.94238e-07
2.83757e-07
2.71412e-07
2.57474e-07
2.421e-07
2.25607e-07
2.08973e-07
1.92149e-07
1.75666e-07
1.59841e-07
1.44828e-07
1.30856e-07
1.18187e-07
1.07036e-07
9.7598e-08
9.00646e-08
8.45777e-08
8.12034e-08
7.97968e-08
7.99783e-08
8.13274e-08
8.35377e-08
8.64769e-08
9.00927e-08
9.43561e-08
9.92164e-08
1.04545e-07
1.10189e-07
1.15884e-07
1.21129e-07
1.25668e-07
1.29758e-07
1.33461e-07
1.36418e-07
1.3865e-07
1.40659e-07
1.42618e-07
1.44175e-07
1.4506e-07
1.45414e-07
1.45501e-07
1.45345e-07
1.44717e-07
1.43413e-07
1.4133e-07
1.38368e-07
1.34642e-07
1.30549e-07
1.26708e-07
1.23748e-07
1.22059e-07
1.21861e-07
1.23169e-07
1.25791e-07
1.29513e-07
1.34093e-07
1.39279e-07
1.44819e-07
1.50485e-07
1.56076e-07
1.61437e-07
1.66464e-07
1.71088e-07
1.75287e-07
1.79079e-07
1.8251e-07
1.85625e-07
1.88468e-07
1.91079e-07
1.93503e-07
1.95782e-07
1.97961e-07
2.0007e-07
2.02123e-07
2.04202e-07
2.06391e-07
2.08776e-07
2.30114e-07
2.46544e-07
2.61975e-07
2.7549e-07
2.86649e-07
2.95295e-07
3.01519e-07
3.05541e-07
3.07566e-07
3.07716e-07
3.06011e-07
3.02413e-07
2.96954e-07
2.89681e-07
2.80753e-07
2.70521e-07
2.59089e-07
2.47002e-07
2.33956e-07
2.20672e-07
2.07279e-07
1.94041e-07
1.8108e-07
1.68577e-07
1.56821e-07
1.46067e-07
1.36377e-07
1.27699e-07
1.19993e-07
1.13289e-07
1.07735e-07
1.03529e-07
1.00775e-07
9.94342e-08
9.94314e-08
1.00559e-07
1.02471e-07
1.04903e-07
1.07696e-07
1.1074e-07
1.14054e-07
1.1762e-07
1.21239e-07
1.24761e-07
1.28146e-07
1.3125e-07
1.33906e-07
1.36165e-07
1.38243e-07
1.4016e-07
1.41807e-07
1.43068e-07
1.43974e-07
1.44609e-07
1.44996e-07
1.45052e-07
1.44692e-07
1.43997e-07
1.43203e-07
1.42517e-07
1.4205e-07
1.41896e-07
1.42232e-07
1.43191e-07
1.44882e-07
1.47363e-07
1.50579e-07
1.54395e-07
1.58628e-07
1.63089e-07
1.67592e-07
1.71942e-07
1.75979e-07
1.79617e-07
1.82837e-07
1.85683e-07
1.88254e-07
1.90667e-07
1.93031e-07
1.95415e-07
1.97855e-07
2.00346e-07
2.02882e-07
2.05429e-07
2.07855e-07
2.10223e-07
2.12482e-07
2.14634e-07
2.16754e-07
2.18095e-07
2.34825e-07
2.5068e-07
2.64761e-07
2.76556e-07
2.85953e-07
2.93103e-07
2.98242e-07
3.01577e-07
3.032e-07
3.03033e-07
3.00844e-07
2.97295e-07
2.92138e-07
2.85716e-07
2.78241e-07
2.70163e-07
2.61338e-07
2.51749e-07
2.41326e-07
2.30225e-07
2.18931e-07
2.07793e-07
1.96636e-07
1.85366e-07
1.74144e-07
1.63173e-07
1.52645e-07
1.42791e-07
1.33796e-07
1.25694e-07
1.18473e-07
1.12146e-07
1.06786e-07
1.02599e-07
9.98638e-08
9.87027e-08
9.9042e-08
1.00685e-07
1.0335e-07
1.06703e-07
1.10429e-07