/*--------------------------------*- C++ -*----------------------------------*\
| =========                 |                                                 |
| \\      /  F ield         | OpenFOAM: The Open Source CFD Toolbox           |
|  \\    /   O peration     | Version:  2312                                  |
|   \\  /    A nd           | Website:  www.openfoam.com                      |
|    \\/     M anipulation  |                                                 |
\*---------------------------------------------------------------------------*/
FoamFile
{
    version     2.0;
    format      ascii;
    arch        "LSB;label=32;scalar=64";
    class       volVectorField;
    location    "185000";
    object      U;
}
// * * * * * * * * * * * * * * * * * * * * * * * * * * * * * * * * * * * * * //

dimensions      [0 1 -1 0 0 0 0];

internalField   nonuniform List<vector> 
2685
(
(0.000249575 -3.73243e-05 0)
(0.000236335 -3.18387e-05 0)
(0.000225512 -2.3991e-05 0)
(0.000216978 -1.72031e-05 0)
(0.000209164 -1.28006e-05 0)
(0.00020184 -1.02607e-05 0)
(0.000195333 -8.71065e-06 0)
(0.000189881 -7.58443e-06 0)
(0.000185557 -6.66514e-06 0)
(0.000182339 -5.89592e-06 0)
(0.000180161 -5.25086e-06 0)
(0.00017895 -4.69857e-06 0)
(0.000178612 -4.20371e-06 0)
(0.000179018 -3.74435e-06 0)
(0.000180031 -3.27937e-06 0)
(0.00018155 -2.78824e-06 0)
(0.000183462 -2.24492e-06 0)
(0.000185652 -1.62623e-06 0)
(0.000188005 -9.20983e-07 0)
(0.000190396 -1.05486e-07 0)
(0.000192704 8.85041e-07 0)
(0.000194817 2.16044e-06 0)
(0.000196625 3.82643e-06 0)
(0.000198032 5.88285e-06 0)
(0.000198978 8.13551e-06 0)
(0.00019949 1.01998e-05 0)
(0.000199692 1.16187e-05 0)
(0.000199849 1.20129e-05 0)
(0.000200239 1.12099e-05 0)
(0.000201186 9.22393e-06 0)
(0.000202988 6.24452e-06 0)
(0.000205882 2.55267e-06 0)
(0.000210009 -1.56381e-06 0)
(0.000215415 -5.86512e-06 0)
(0.000222054 -1.01864e-05 0)
(0.000229812 -1.44393e-05 0)
(0.00023852 -1.85883e-05 0)
(0.000247975 -2.26106e-05 0)
(0.000257939 -2.64621e-05 0)
(0.000268141 -3.0067e-05 0)
(0.000278326 -3.33134e-05 0)
(0.000288244 -3.6066e-05 0)
(0.00029754 -3.81832e-05 0)
(0.000305698 -3.94626e-05 0)
(0.000312161 -3.9666e-05 0)
(0.000316478 -3.85054e-05 0)
(0.000318464 -3.57744e-05 0)
(0.000318473 -3.14043e-05 0)
(0.000317194 -2.55809e-05 0)
(0.000315416 -1.86654e-05 0)
(0.000313736 -1.11031e-05 0)
(0.000312528 -3.40877e-06 0)
(0.000311871 3.87771e-06 0)
(0.00031155 1.02355e-05 0)
(0.000311079 1.52938e-05 0)
(0.000309589 1.87281e-05 0)
(0.000306158 2.02885e-05 0)
(0.000300242 1.98256e-05 0)
(0.000291773 1.74905e-05 0)
(0.000281184 1.38681e-05 0)
(0.000269217 9.89558e-06 0)
(0.000256663 6.58725e-06 0)
(0.000244207 4.66377e-06 0)
(0.000232099 4.13168e-06 0)
(0.000220289 4.73699e-06 0)
(0.000208883 6.008e-06 0)
(0.000198126 7.37572e-06 0)
(0.000188253 8.38016e-06 0)
(0.000179367 8.76916e-06 0)
(0.000171478 8.54392e-06 0)
(0.000164631 7.84219e-06 0)
(0.000158883 6.74751e-06 0)
(0.000154237 5.35322e-06 0)
(0.000150681 3.76293e-06 0)
(0.000148181 2.07279e-06 0)
(0.000146668 3.58987e-07 0)
(0.000146048 -1.33023e-06 0)
(0.000146144 -2.92267e-06 0)
(0.000146771 -4.33521e-06 0)
(0.000147793 -5.51085e-06 0)
(0.000149097 -6.41176e-06 0)
(0.000150584 -7.01777e-06 0)
(0.000152178 -7.30466e-06 0)
(0.000153859 -7.26855e-06 0)
(0.000155656 -6.93072e-06 0)
(0.000157615 -6.32899e-06 0)
(0.00015977 -5.51461e-06 0)
(0.000162118 -4.54967e-06 0)
(0.000164609 -3.49859e-06 0)
(0.000167144 -2.42032e-06 0)
(0.000887558 7.69093e-05 0)
(0.000859868 6.79419e-05 0)
(0.000832033 6.00753e-05 0)
(0.000802713 5.32391e-05 0)
(0.000773803 4.68773e-05 0)
(0.000747149 4.0604e-05 0)
(0.000723465 3.43675e-05 0)
(0.000702743 2.82883e-05 0)
(0.000684721 2.24985e-05 0)
(0.000669164 1.71086e-05 0)
(0.000655937 1.21916e-05 0)
(0.000644932 7.77039e-06 0)
(0.000635978 3.83376e-06 0)
(0.000628971 3.74837e-07 0)
(0.000623815 -2.58569e-06 0)
(0.000620358 -5.04337e-06 0)
(0.000618404 -6.99807e-06 0)
(0.000617728 -8.44285e-06 0)
(0.000618124 -9.41314e-06 0)
(0.000619454 -1.00109e-05 0)
(0.000621615 -1.03564e-05 0)
(0.000624531 -1.05611e-05 0)
(0.000628222 -1.07192e-05 0)
(0.000632814 -1.09123e-05 0)
(0.000638497 -1.12253e-05 0)
(0.000645433 -1.16846e-05 0)
(0.000653677 -1.22824e-05 0)
(0.000663374 -1.30547e-05 0)
(0.000674457 -1.40715e-05 0)
(0.000686651 -1.5371e-05 0)
(0.000699753 -1.69186e-05 0)
(0.000713635 -1.85947e-05 0)
(0.000728179 -2.02465e-05 0)
(0.000743238 -2.17022e-05 0)
(0.000758625 -2.27521e-05 0)
(0.000774119 -2.31847e-05 0)
(0.000789451 -2.28503e-05 0)
(0.000804279 -2.16382e-05 0)
(0.000818202 -1.94108e-05 0)
(0.000830813 -1.60535e-05 0)
(0.000841637 -1.15757e-05 0)
(0.000850025 -6.06187e-06 0)
(0.000855408 5.26197e-07 0)
(0.000857521 8.37772e-06 0)
(0.000856393 1.72809e-05 0)
(0.000852046 2.60536e-05 0)
(0.000844516 3.28384e-05 0)
(0.000833987 3.59741e-05 0)
(0.000820643 3.4516e-05 0)
(0.000804966 2.85495e-05 0)
(0.000787407 1.93449e-05 0)
(0.000768254 8.75342e-06 0)
(0.000747801 -1.19373e-06 0)
(0.00072657 -8.47176e-06 0)
(0.000704814 -1.1494e-05 0)
(0.000682394 -9.43329e-06 0)
(0.000659083 -2.3567e-06 0)
(0.000635272 8.35072e-06 0)
(0.000612325 2.04147e-05 0)
(0.000592071 3.15336e-05 0)
(0.000575889 4.01566e-05 0)
(0.000563854 4.58134e-05 0)
(0.000554179 4.89154e-05 0)
(0.000544662 4.98685e-05 0)
(0.000533849 4.87057e-05 0)
(0.000520975 4.54372e-05 0)
(0.000506283 4.04532e-05 0)
(0.000490901 3.45726e-05 0)
(0.000476265 2.87198e-05 0)
(0.000463491 2.34562e-05 0)
(0.000452913 1.89231e-05 0)
(0.000444486 1.50574e-05 0)
(0.000438233 1.16904e-05 0)
(0.000434114 8.70117e-06 0)
(0.000431975 6.0697e-06 0)
(0.000431564 3.84925e-06 0)
(0.000432678 2.13664e-06 0)
(0.000435104 9.44638e-07 0)
(0.000438486 2.65905e-07 0)
(0.000442431 5.2774e-08 0)
(0.000446572 1.65857e-07 0)
(0.000450614 3.78595e-07 0)
(0.000454345 4.31635e-07 0)
(0.000457565 9.74115e-08 0)
(0.000460127 -7.44033e-07 0)
(0.000461962 -2.06627e-06 0)
(0.000463081 -3.70704e-06 0)
(0.000463542 -5.41712e-06 0)
(0.000463424 -6.91656e-06 0)
(0.000462808 -7.94437e-06 0)
(0.00125673 0.000126018 0)
(0.00123451 0.000124422 0)
(0.00121197 0.000120498 0)
(0.00118654 0.000114822 0)
(0.00115835 0.000107753 0)
(0.00112878 9.94192e-05 0)
(0.00109917 9.00116e-05 0)
(0.00107028 7.9876e-05 0)
(0.00104248 6.9453e-05 0)
(0.001016 5.91034e-05 0)
(0.000991047 4.90937e-05 0)
(0.000967751 3.96312e-05 0)
(0.000946276 3.08541e-05 0)
(0.000926778 2.28285e-05 0)
(0.000909298 1.55659e-05 0)
(0.000893751 9.09347e-06 0)
(0.000880044 3.43833e-06 0)
(0.000868153 -1.37667e-06 0)
(0.000857983 -5.35784e-06 0)
(0.000849399 -8.59756e-06 0)
(0.000842286 -1.12687e-05 0)
(0.000836607 -1.35892e-05 0)
(0.000832493 -1.58196e-05 0)
(0.000830101 -1.82164e-05 0)
(0.000829491 -2.09672e-05 0)
(0.000830748 -2.42167e-05 0)
(0.00083395 -2.80801e-05 0)
(0.000838997 -3.2626e-05 0)
(0.000845756 -3.78538e-05 0)
(0.000854189 -4.36329e-05 0)
(0.000864278 -4.97647e-05 0)
(0.000875989 -5.6021e-05 0)
(0.000889247 -6.21266e-05 0)
(0.00090395 -6.77815e-05 0)
(0.000919973 -7.26969e-05 0)
(0.000937187 -7.65923e-05 0)
(0.000955456 -7.91764e-05 0)
(0.000974624 -8.01834e-05 0)
(0.000994525 -7.94161e-05 0)
(0.00101501 -7.66996e-05 0)
(0.00103591 -7.18388e-05 0)
(0.00105708 -6.47159e-05 0)
(0.00107852 -5.53851e-05 0)
(0.00110043 -4.39976e-05 0)
(0.00112272 -3.07296e-05 0)
(0.00114516 -1.59442e-05 0)
(0.00116757 -2.35498e-07 0)
(0.00118922 1.56283e-05 0)
(0.00120866 3.10933e-05 0)
(0.00122482 4.62446e-05 0)
(0.00123684 6.11976e-05 0)
(0.00124361 7.56442e-05 0)
(0.00124431 8.90324e-05 0)
(0.00123768 0.00010125 0)
(0.00122202 0.000112702 0)
(0.00119751 0.00012376 0)
(0.00116549 0.000132826 0)
(0.00112708 0.00013551 0)
(0.00108343 0.000127482 0)
(0.00103576 0.000108481 0)
(0.000985824 8.35322e-05 0)
(0.000936313 6.04313e-05 0)
(0.000889613 4.57759e-05 0)
(0.000846408 4.25002e-05 0)
(0.000806469 4.84827e-05 0)
(0.000770671 5.80707e-05 0)
(0.000740506 6.57031e-05 0)
(0.00071676 6.84858e-05 0)
(0.000698495 6.63297e-05 0)
(0.000683628 6.05002e-05 0)
(0.000670563 5.21192e-05 0)
(0.000658564 4.19897e-05 0)
(0.000647512 3.08914e-05 0)
(0.000637906 1.96744e-05 0)
(0.000630428 9.09761e-06 0)
(0.000625633 -3.43508e-07 0)
(0.000623646 -8.36164e-06 0)
(0.000624371 -1.48087e-05 0)
(0.000627829 -1.96345e-05 0)
(0.000633924 -2.28738e-05 0)
(0.000642335 -2.45288e-05 0)
(0.000652548 -2.46305e-05 0)
(0.00066386 -2.33202e-05 0)
(0.000675457 -2.08575e-05 0)
(0.000686557 -1.7594e-05 0)
(0.000696529 -1.39042e-05 0)
(0.000704942 -1.01156e-05 0)
(0.000711561 -6.45704e-06 0)
(0.000716293 -3.02994e-06 0)
(0.00071915 1.81228e-07 0)
(0.00140027 0.000167233 0)
(0.00138168 0.000170121 0)
(0.00136284 0.000170881 0)
(0.00134274 0.000169649 0)
(0.00132097 0.000166719 0)
(0.00129768 0.000162213 0)
(0.0012732 0.000156155 0)
(0.00124787 0.000148612 0)
(0.00122194 0.000139672 0)
(0.00119551 0.000129433 0)
(0.00116865 0.000118166 0)
(0.00114154 0.000106324 0)
(0.00111451 9.43662e-05 0)
(0.00108798 8.25951e-05 0)
(0.00106232 7.11925e-05 0)
(0.00103781 6.03326e-05 0)
(0.00101458 5.02247e-05 0)
(0.000992711 4.10513e-05 0)
(0.000972253 3.28664e-05 0)
(0.000953356 2.55274e-05 0)
(0.000936284 1.86957e-05 0)
(0.000921332 1.19635e-05 0)
(0.000908637 4.95858e-06 0)
(0.000898238 -2.56116e-06 0)
(0.000890216 -1.06169e-05 0)
(0.000884577 -1.9163e-05 0)
(0.000881178 -2.82144e-05 0)
(0.000879979 -3.77259e-05 0)
(0.00088115 -4.75423e-05 0)
(0.00088479 -5.74857e-05 0)
(0.000890779 -6.73609e-05 0)
(0.000898935 -7.69356e-05 0)
(0.000909143 -8.59436e-05 0)
(0.000921325 -9.4119e-05 0)
(0.000935403 -0.000101209 0)
(0.000951288 -0.000106968 0)
(0.000968893 -0.000111169 0)
(0.000988132 -0.000113636 0)
(0.0010089 -0.000114232 0)
(0.00103107 -0.000112853 0)
(0.00105447 -0.000109462 0)
(0.001079 -0.000104151 0)
(0.00110448 -9.71392e-05 0)
(0.00113059 -8.87271e-05 0)
(0.00115713 -7.9209e-05 0)
(0.00118426 -6.88329e-05 0)
(0.00121228 -5.79567e-05 0)
(0.00124135 -4.69533e-05 0)
(0.00127165 -3.58011e-05 0)
(0.0013028 -2.39234e-05 0)
(0.00133413 -1.07054e-05 0)
(0.00136542 4.53965e-06 0)
(0.00139626 2.26575e-05 0)
(0.00142566 4.42941e-05 0)
(0.00145285 7.00369e-05 0)
(0.00147755 9.99723e-05 0)
(0.00149901 0.0001325 0)
(0.00151545 0.0001654 0)
(0.00152394 0.000196466 0)
(0.00152084 0.000222715 0)
(0.00150303 0.000240639 0)
(0.00146751 0.000248785 0)
(0.0014137 0.000249126 0)
(0.00134625 0.000243998 0)
(0.00127142 0.000231669 0)
(0.00119433 0.000208451 0)
(0.00111913 0.000174838 0)
(0.00104907 0.0001374 0)
(0.000986415 0.000104634 0)
(0.000931845 8.16583e-05 0)
(0.000884817 6.80292e-05 0)
(0.000845261 5.9457e-05 0)
(0.000813565 5.15162e-05 0)
(0.000789433 4.18529e-05 0)
(0.000771674 3.01457e-05 0)
(0.000758885 1.7079e-05 0)
(0.000750148 3.47815e-06 0)
(0.000744937 -9.85033e-06 0)
(0.000742792 -2.21428e-05 0)
(0.000743563 -3.27139e-05 0)
(0.000747327 -4.09589e-05 0)
(0.000753877 -4.63962e-05 0)
(0.000762697 -4.8776e-05 0)
(0.000772999 -4.82076e-05 0)
(0.000783871 -4.5205e-05 0)
(0.000794539 -4.05159e-05 0)
(0.000804485 -3.48455e-05 0)
(0.000813379 -2.86747e-05 0)
(0.000820924 -2.22371e-05 0)
(0.000826799 -1.56058e-05 0)
(0.0014811 0.000220259 0)
(0.00145584 0.000221237 0)
(0.00142983 0.000220278 0)
(0.00140299 0.000217547 0)
(0.00137548 0.000213284 0)
(0.00134763 0.000207978 0)
(0.00131997 0.000201851 0)
(0.00129272 0.000194744 0)
(0.00126566 0.000186678 0)
(0.00123865 0.000178 0)
(0.0012118 0.000168882 0)
(0.00118508 0.000159138 0)
(0.00115836 0.00014859 0)
(0.0011316 0.000137323 0)
(0.00110486 0.000125627 0)
(0.00107821 0.000113882 0)
(0.00105182 0.000102474 0)
(0.00102604 9.16086e-05 0)
(0.0010014 8.11101e-05 0)
(0.000978446 7.04729e-05 0)
(0.000957569 5.92144e-05 0)
(0.000938928 4.71883e-05 0)
(0.000922462 3.45331e-05 0)
(0.000908048 2.1467e-05 0)
(0.000895477 8.14992e-06 0)
(0.000884515 -5.41671e-06 0)
(0.000875341 -1.93532e-05 0)
(0.000868451 -3.37146e-05 0)
(0.000864106 -4.83718e-05 0)
(0.00086227 -6.31371e-05 0)
(0.00086277 -7.79036e-05 0)
(0.000865458 -9.25225e-05 0)
(0.000870269 -0.000106767 0)
(0.000877217 -0.000120337 0)
(0.000886402 -0.000132914 0)
(0.000897984 -0.000144183 0)
(0.000912102 -0.00015384 0)
(0.000928796 -0.000161584 0)
(0.000947961 -0.000167113 0)
(0.000969342 -0.000170172 0)
(0.000992596 -0.000170624 0)
(0.00101738 -0.000168506 0)
(0.00104345 -0.000164034 0)
(0.00107073 -0.000157559 0)
(0.00109921 -0.000149464 0)
(0.00112895 -0.000140136 0)
(0.00116015 -0.000129962 0)
(0.00119305 -0.000119236 0)
(0.00122789 -0.000108046 0)
(0.00126486 -9.62688e-05 0)
(0.00130417 -8.33171e-05 0)
(0.00134587 -6.83563e-05 0)
(0.00138964 -5.04104e-05 0)
(0.0014353 -2.85589e-05 0)
(0.00148273 -2.18951e-06 0)
(0.00153065 2.87361e-05 0)
(0.00157733 6.36543e-05 0)
(0.00162134 0.000101802 0)
(0.00166084 0.000142173 0)
(0.00169361 0.000183477 0)
(0.00171677 0.000224376 0)
(0.00172779 0.000263458 0)
(0.00172668 0.000299655 0)
(0.00171423 0.000331699 0)
(0.0016898 0.000356172 0)
(0.00165228 0.00036773 0)
(0.00160072 0.00036315 0)
(0.00153519 0.000345003 0)
(0.00145781 0.000318942 0)
(0.00137367 0.000287968 0)
(0.00128951 0.000251347 0)
(0.00121047 0.000208256 0)
(0.00113901 0.000161385 0)
(0.00107599 0.000116236 0)
(0.00102186 7.74479e-05 0)
(0.000976502 4.63867e-05 0)
(0.000939229 2.15842e-05 0)
(0.000909341 6.76317e-07 0)
(0.000886323 -1.7964e-05 0)
(0.000869555 -3.47949e-05 0)
(0.000858436 -4.94729e-05 0)
(0.000852508 -6.09624e-05 0)
(0.000851092 -6.80163e-05 0)
(0.000853004 -6.99693e-05 0)
(0.000856788 -6.73285e-05 0)
(0.000861274 -6.1452e-05 0)
(0.00086583 -5.36388e-05 0)
(0.000870195 -4.45378e-05 0)
(0.000874172 -3.42232e-05 0)
(0.000877407 -2.26822e-05 0)
(0.00153618 0.00027525 0)
(0.00151476 0.000283174 0)
(0.00149139 0.000287212 0)
(0.00146485 0.000288155 0)
(0.00143532 0.000286638 0)
(0.00140337 0.000281956 0)
(0.00136909 0.000274268 0)
(0.00133346 0.000265207 0)
(0.00129825 0.000255429 0)
(0.00126418 0.000244325 0)
(0.00123084 0.000232032 0)
(0.00119825 0.000219578 0)
(0.00116676 0.000207531 0)
(0.00113621 0.000195834 0)
(0.00110625 0.000184395 0)
(0.00107724 0.000173059 0)
(0.00104961 0.000161378 0)
(0.00102311 0.00014887 0)
(0.000997462 0.000135288 0)
(0.000973164 0.000120547 0)
(0.000950909 0.000104812 0)
(0.000930302 8.86706e-05 0)
(0.000909836 7.26968e-05 0)
(0.000888705 5.69856e-05 0)
(0.000868015 4.13605e-05 0)
(0.00084978 2.53693e-05 0)
(0.000835271 8.04655e-06 0)
(0.000824408 -1.14254e-05 0)
(0.000815951 -3.26354e-05 0)
(0.00080813 -5.41971e-05 0)
(0.000799899 -7.48331e-05 0)
(0.000791735 -9.40078e-05 0)
(0.000785176 -0.000112005 0)
(0.000781954 -0.000129398 0)
(0.000783364 -0.000146556 0)
(0.00079007 -0.000163379 0)
(0.000802175 -0.000179296 0)
(0.000819318 -0.000193482 0)
(0.000840828 -0.00020505 0)
(0.000865777 -0.000213278 0)
(0.000893126 -0.000217714 0)
(0.000921782 -0.000218377 0)
(0.000950769 -0.000215744 0)
(0.000979403 -0.000210727 0)
(0.00100749 -0.000204451 0)
(0.00103531 -0.000198018 0)
(0.00106355 -0.000192314 0)
(0.00109312 -0.00018783 0)
(0.00112503 -0.000184544 0)
(0.00116026 -0.000181937 0)
(0.00119962 -0.000179027 0)
(0.00124363 -0.000174377 0)
(0.0012925 -0.000166178 0)
(0.00134609 -0.000152616 0)
(0.00140386 -0.000132492 0)
(0.00146496 -0.000105088 0)
(0.00152819 -6.96858e-05 0)
(0.0015921 -2.61139e-05 0)
(0.00165488 2.49338e-05 0)
(0.00171446 8.22893e-05 0)
(0.001769 0.000144438 0)
(0.00181671 0.000209172 0)
(0.00185497 0.00027377 0)
(0.00188088 0.000334992 0)
(0.00189254 0.000388941 0)
(0.00188871 0.000431535 0)
(0.00186783 0.000459386 0)
(0.0018294 0.000470232 0)
(0.0017762 0.000464105 0)
(0.00171366 0.000444047 0)
(0.00164626 0.000413881 0)
(0.00157599 0.000376737 0)
(0.00150385 0.000335533 0)
(0.00143126 0.000292007 0)
(0.00136011 0.000246362 0)
(0.00129226 0.00019917 0)
(0.00122955 0.000152276 0)
(0.00117339 0.000107791 0)
(0.0011239 6.71459e-05 0)
(0.0010801 3.07407e-05 0)
(0.00104164 -1.50617e-06 0)
(0.00100938 -2.86429e-05 0)
(0.000983829 -4.83443e-05 0)
(0.000964001 -5.89669e-05 0)
(0.000948169 -6.13242e-05 0)
(0.000935626 -5.81831e-05 0)
(0.000926846 -5.2286e-05 0)
(0.000921956 -4.50092e-05 0)
(0.000919504 -3.63945e-05 0)
(0.000916536 -2.56199e-05 0)
(0.00150481 0.000298855 0)
(0.00148754 0.000312238 0)
(0.00147103 0.000325406 0)
(0.00145485 0.000336196 0)
(0.00143663 0.000342655 0)
(0.00141472 0.000346903 0)
(0.0013899 0.000349332 0)
(0.00136226 0.000346165 0)
(0.00133044 0.00033706 0)
(0.00129509 0.000326196 0)
(0.00125872 0.000314853 0)
(0.00122203 0.000301349 0)
(0.00118469 0.000286454 0)
(0.00114825 0.000271954 0)
(0.00111437 0.000256921 0)
(0.00108172 0.000240231 0)
(0.00104848 0.000223559 0)
(0.00101635 0.000208358 0)
(0.000988341 0.000192608 0)
(0.000963445 0.000173938 0)
(0.000936587 0.000154349 0)
(0.000904452 0.000138532 0)
(0.00087025 0.000126871 0)
(0.000841355 0.000113502 0)
(0.000821939 9.29883e-05 0)
(0.000808599 6.52527e-05 0)
(0.000792939 3.45801e-05 0)
(0.000768888 7.32324e-06 0)
(0.000737245 -1.2196e-05 0)
(0.000703433 -2.54637e-05 0)
(0.000673454 -3.83816e-05 0)
(0.000651704 -5.66389e-05 0)
(0.000640555 -8.237e-05 0)
(0.000640732 -0.000114234 0)
(0.000651684 -0.000149187 0)
(0.000672053 -0.000184031 0)
(0.000700051 -0.000216155 0)
(0.000733766 -0.000243684 0)
(0.00077143 -0.000265297 0)
(0.000811446 -0.000280169 0)
(0.000852286 -0.000287991 0)
(0.000892399 -0.000289237 0)
(0.000930358 -0.000285172 0)
(0.000965074 -0.0002778 0)
(0.000996099 -0.000269383 0)
(0.00102373 -0.000262045 0)
(0.00104897 -0.000257353 0)
(0.00107336 -0.000256194 0)
(0.00109862 -0.000258667 0)
(0.0011265 -0.000264052 0)
(0.00115848 -0.000270785 0)
(0.00119566 -0.00027669 0)
(0.00123869 -0.000279354 0)
(0.00128778 -0.000276411 0)
(0.00134264 -0.000265651 0)
(0.00140241 -0.000245357 0)
(0.00146587 -0.000214525 0)
(0.0015317 -0.000172867 0)
(0.00159862 -0.00012065 0)
(0.00166516 -5.86755e-05 0)
(0.00172952 1.16065e-05 0)
(0.00178987 8.82286e-05 0)
(0.0018444 0.000169156 0)
(0.00189131 0.000251782 0)
(0.00192905 0.000332584 0)
(0.00195578 0.000407937 0)
(0.00196951 0.000473926 0)
(0.0019685 0.000526234 0)
(0.0019508 0.000560941 0)
(0.00191528 0.000574688 0)
(0.00186361 0.000565866 0)
(0.0017998 0.000537056 0)
(0.00172893 0.000493871 0)
(0.00165639 0.000442364 0)
(0.00158602 0.000388522 0)
(0.00151896 0.000335873 0)
(0.00145533 0.000283976 0)
(0.00139549 0.00023331 0)
(0.0013391 0.000187436 0)
(0.00128506 0.000146708 0)
(0.00123319 0.000106561 0)
(0.00118467 6.58818e-05 0)
(0.0011401 3.11082e-05 0)
(0.00109916 8.28752e-06 0)
(0.00106234 -4.52839e-06 0)
(0.00103136 -1.41188e-05 0)
(0.00100736 -2.35427e-05 0)
(0.000988872 -2.87942e-05 0)
(0.000971722 -2.28751e-05 0)
(0.000950879 -1.772e-06 0)
(0.00151161 0.000356432 0)
(0.00147209 0.000361112 0)
(0.00143717 0.000363477 0)
(0.00140634 0.000367781 0)
(0.00137968 0.000376614 0)
(0.00135727 0.000383837 0)
(0.00133658 0.000387106 0)
(0.00131508 0.000392425 0)
(0.00129273 0.000399156 0)
(0.0012691 0.000398641 0)
(0.00124236 0.000390398 0)
(0.0012124 0.000381023 0)
(0.00118094 0.000369109 0)
(0.00114762 0.000350047 0)
(0.00111085 0.0003301 0)
(0.0010732 0.000317134 0)
(0.00103959 0.000304387 0)
(0.00100894 0.000280741 0)
(0.000973873 0.000251577 0)
(0.000931414 0.000234237 0)
(0.000888847 0.000233211 0)
(0.000855617 0.000231677 0)
(0.000832822 0.000208838 0)
(0.000811823 0.000162411 0)
(0.000781557 0.000115102 0)
(0.000737384 9.3569e-05 0)
(0.000683304 0.000100277 0)
(0.000627911 0.000113275 0)
(0.000580355 0.000109637 0)
(0.000547708 8.1133e-05 0)
(0.000533125 3.18659e-05 0)
(0.000536396 -2.9797e-05 0)
(0.00055535 -9.60716e-05 0)
(0.000586687 -0.000161158 0)
(0.0006269 -0.000221069 0)
(0.000672843 -0.000273422 0)
(0.000721983 -0.00031706 0)
(0.000772568 -0.000351568 0)
(0.000823592 -0.000376719 0)
(0.000874536 -0.000392118 0)
(0.000924963 -0.000397315 0)
(0.000974125 -0.000392382 0)
(0.00102076 -0.000378635 0)
(0.0010633 -0.000358982 0)
(0.00110035 -0.000337516 0)
(0.00113126 -0.000318622 0)
(0.0011565 -0.000305907 0)
(0.00117756 -0.000301547 0)
(0.0011967 -0.000306024 0)
(0.00121643 -0.00031818 0)
(0.00123904 -0.000335501 0)
(0.00126625 -0.000354529 0)
(0.00129902 -0.000371376 0)
(0.00133746 -0.000382199 0)
(0.00138106 -0.000383574 0)
(0.00142892 -0.000373091 0)
(0.00148002 -0.000349583 0)
(0.00153321 -0.000312729 0)
(0.00158743 -0.00026263 0)
(0.00164192 -0.000200179 0)
(0.00169616 -0.000127044 0)
(0.00174972 -4.46998e-05 0)
(0.00180169 4.54363e-05 0)
(0.00185043 0.000141285 0)
(0.00189472 0.000240233 0)
(0.00193304 0.000338796 0)
(0.00196266 0.000432112 0)
(0.00198073 0.000515231 0)
(0.0019849 0.000584353 0)
(0.00197374 0.000634775 0)
(0.00194701 0.000661442 0)
(0.00190518 0.000662778 0)
(0.00185017 0.000640213 0)
(0.00178607 0.000597506 0)
(0.00171775 0.00054272 0)
(0.00164913 0.000483703 0)
(0.0015829 0.00042291 0)
(0.00152046 0.000362891 0)
(0.00146191 0.000309477 0)
(0.00140678 0.000263668 0)
(0.00135451 0.000219791 0)
(0.001304 0.000176177 0)
(0.00125389 0.000138793 0)
(0.00120421 0.000111057 0)
(0.00115714 8.76618e-05 0)
(0.00111517 6.28507e-05 0)
(0.0010784 4.05412e-05 0)
(0.00104376 3.23772e-05 0)
(0.00100681 4.70484e-05 0)
(0.000964691 8.30143e-05 0)
(0.00163648 0.000485226 0)
(0.00157447 0.000486986 0)
(0.00151086 0.000484205 0)
(0.001447 0.000476962 0)
(0.00138834 0.000461367 0)
(0.00133636 0.000447836 0)
(0.00129149 0.00044476 0)
(0.00125701 0.000443347 0)
(0.00123185 0.000438174 0)
(0.00120905 0.000436156 0)
(0.00118432 0.000437625 0)
(0.00115855 0.000433768 0)
(0.00113166 0.000425831 0)
(0.0011012 0.000422486 0)
(0.00106806 0.000417156 0)
(0.00103636 0.000394778 0)
(0.00100526 0.000363433 0)
(0.000967925 0.000350275 0)
(0.000922376 0.000358725 0)
(0.00087771 0.000356973 0)
(0.000843949 0.000320388 0)
(0.000819111 0.000264463 0)
(0.000789591 0.000227152 0)
(0.000741812 0.000228847 0)
(0.000675029 0.000254453 0)
(0.000603016 0.000272664 0)
(0.000542638 0.000263222 0)
(0.000503569 0.000222908 0)
(0.000487182 0.000157846 0)
(0.000489945 7.69245e-05 0)
(0.000507428 -1.144e-05 0)
(0.00053597 -0.000100904 0)
(0.000572572 -0.000186633 0)
(0.000615027 -0.000264913 0)
(0.000661535 -0.00033302 0)
(0.000710283 -0.000389408 0)
(0.000759555 -0.000433933 0)
(0.000807982 -0.000467587 0)
(0.000854926 -0.000491571 0)
(0.000900611 -0.000506222 0)
(0.000945787 -0.000510635 0)
(0.000991026 -0.000503387 0)
(0.00103611 -0.000484066 0)
(0.00107995 -0.000454558 0)
(0.00112096 -0.00041939 0)
(0.00115777 -0.000384827 0)
(0.00118989 -0.0003573 0)
(0.00121795 -0.000341792 0)
(0.00124363 -0.000340778 0)
(0.00126917 -0.000353798 0)
(0.00129667 -0.000377674 0)
(0.00132763 -0.000407185 0)
(0.00136269 -0.000436185 0)
(0.00140162 -0.000458808 0)
(0.00144367 -0.000470356 0)
(0.0014877 -0.000467649 0)
(0.00153246 -0.000449009 0)
(0.00157679 -0.000414196 0)
(0.00161989 -0.000364294 0)
(0.0016615 -0.000301277 0)
(0.00170153 -0.000226851 0)
(0.00173973 -0.000141999 0)
(0.00177628 -4.84498e-05 0)
(0.00181174 5.12042e-05 0)
(0.00184541 0.000155651 0)
(0.00187594 0.000263286 0)
(0.0019023 0.000370578 0)
(0.00192302 0.000473164 0)
(0.00193597 0.000566906 0)
(0.00193901 0.000646251 0)
(0.00193034 0.000705727 0)
(0.00190826 0.000741787 0)
(0.00187218 0.000750197 0)
(0.00182376 0.000728981 0)
(0.00176623 0.000684892 0)
(0.00170367 0.00062763 0)
(0.00164044 0.00056222 0)
(0.0015794 0.000494425 0)
(0.00152148 0.000432862 0)
(0.00146703 0.000379681 0)
(0.00141599 0.000330261 0)
(0.00136688 0.000284524 0)
(0.00131765 0.000247746 0)
(0.00126789 0.000219317 0)
(0.00121918 0.000190919 0)
(0.00117281 0.000159013 0)
(0.00112789 0.00013298 0)
(0.00108208 0.000127476 0)
(0.00103358 0.000149016 0)
(0.000982553 0.00019106 0)
(0.00171202 0.000597907 0)
(0.0016677 0.000624374 0)
(0.001612 0.000639678 0)
(0.0015482 0.000634879 0)
(0.00147537 0.000618701 0)
(0.00139657 0.000598397 0)
(0.00132355 0.000564305 0)
(0.00125996 0.000525043 0)
(0.00120211 0.000504526 0)
(0.00115304 0.000501847 0)
(0.00111691 0.000499514 0)
(0.00108868 0.000494548 0)
(0.00106115 0.000491838 0)
(0.00103462 0.000485166 0)
(0.00101069 0.000467662 0)
(0.000982815 0.000450635 0)
(0.0009435 0.000450381 0)
(0.00089817 0.000458799 0)
(0.000861098 0.000447878 0)
(0.00083673 0.000406978 0)
(0.000811878 0.000361542 0)
(0.000768996 0.000346478 0)
(0.000704395 0.000367702 0)
(0.000630703 0.000398833 0)
(0.000564811 0.000408787 0)
(0.000517041 0.00038313 0)
(0.000489298 0.000324264 0)
(0.000478771 0.000241711 0)
(0.000481613 0.000144834 0)
(0.000494664 4.07478e-05 0)
(0.000514971 -6.54598e-05 0)
(0.000540795 -0.00016968 0)
(0.000572021 -0.000268068 0)
(0.000608466 -0.000356729 0)
(0.000649655 -0.00043204 0)
(0.000694383 -0.000491507 0)
(0.000740524 -0.000534792 0)
(0.000785501 -0.000564052 0)
(0.000827246 -0.000582766 0)
(0.000865043 -0.000593592 0)
(0.000899731 -0.000596725 0)
(0.000933036 -0.000590176 0)
(0.000966495 -0.000571817 0)
(0.00100075 -0.000541809 0)
(0.00103554 -0.000503884 0)
(0.00107025 -0.000464811 0)
(0.00110459 -0.000432549 0)
(0.00113897 -0.000413945 0)
(0.00117438 -0.000412829 0)
(0.00121197 -0.000429051 0)
(0.00125257 -0.000458633 0)
(0.00129644 -0.0004949 0)
(0.00134318 -0.000530178 0)
(0.00139183 -0.000557353 0)
(0.00144105 -0.000570899 0)
(0.0014894 -0.000567305 0)
(0.00153559 -0.000545077 0)
(0.00157872 -0.000504789 0)
(0.00161828 -0.000448618 0)
(0.001654 -0.000379161 0)
(0.00168572 -0.000298363 0)
(0.00171375 -0.000207986 0)
(0.00173895 -0.000110352 0)
(0.0017626 -7.32848e-06 0)
(0.00178426 0.000100645 0)
(0.00180332 0.000212605 0)
(0.00182067 0.000325497 0)
(0.0018359 0.000437042 0)
(0.00184711 0.000544812 0)
(0.00185251 0.000642804 0)
(0.0018505 0.00072429 0)
(0.00183901 0.000784621 0)
(0.00181667 0.000818476 0)
(0.00178363 0.000822341 0)
(0.001741 0.00079928 0)
(0.00169135 0.000754198 0)
(0.00163822 0.000691288 0)
(0.0015841 0.000620077 0)
(0.00153047 0.000552378 0)
(0.00147921 0.000491654 0)
(0.00143146 0.000435789 0)
(0.00138594 0.000387547 0)
(0.00134055 0.00035148 0)
(0.00129474 0.000323381 0)
(0.00124933 0.000293297 0)
(0.0012044 0.000259907 0)
(0.00115854 0.000235491 0)
(0.00111022 0.000234672 0)
(0.00105927 0.000260907 0)
(0.00100715 0.000304087 0)
(0.00162806 0.00064255 0)
(0.00161503 0.000700616 0)
(0.00159198 0.000740522 0)
(0.00155512 0.000765167 0)
(0.0015004 0.000779313 0)
(0.00143608 0.000768254 0)
(0.00136626 0.000735726 0)
(0.00128873 0.000705663 0)
(0.0012148 0.000673531 0)
(0.00115748 0.000626587 0)
(0.00111226 0.000582793 0)
(0.00107021 0.000559863 0)
(0.00103235 0.000547471 0)
(0.00100027 0.000534962 0)
(0.000966599 0.000531357 0)
(0.000925097 0.000541838 0)
(0.00088253 0.000548487 0)
(0.000850832 0.000529931 0)
(0.000829741 0.000490466 0)
(0.000803899 0.000459405 0)
(0.000758249 0.000461659 0)
(0.00069322 0.000493173 0)
(0.000623041 0.000526483 0)
(0.000562925 0.000534017 0)
(0.000520414 0.000503444 0)
(0.000495449 0.000437432 0)
(0.000484588 0.000345677 0)
(0.000484438 0.000238019 0)
(0.000492775 0.000121765 0)
(0.000507831 1.78321e-06 0)
(0.000528532 -0.000118542 0)
(0.000554448 -0.000235654 0)
(0.000585147 -0.000346073 0)
(0.000620454 -0.000445779 0)
(0.000660276 -0.000530132 0)
(0.000704178 -0.00059475 0)
(0.000750784 -0.000637254 0)
(0.000797393 -0.000659093 0)
(0.000840532 -0.000665625 0)
(0.000877423 -0.00066354 0)
(0.000907401 -0.00065713 0)
(0.000932101 -0.000646464 0)
(0.000954368 -0.000628923 0)
(0.000976826 -0.000602774 0)
(0.00100105 -0.000570008 0)
(0.00102773 -0.000536653 0)
(0.00105711 -0.000510768 0)
(0.0010895 -0.000499492 0)
(0.00112527 -0.000506574 0)
(0.00116473 -0.00053122 0)
(0.00120786 -0.000568439 0)
(0.00125415 -0.00061052 0)
(0.00130258 -0.00064891 0)
(0.00135184 -0.0006759 0)
(0.00140036 -0.000685814 0)
(0.00144672 -0.000675639 0)
(0.00148984 -0.000644988 0)
(0.00152898 -0.000595394 0)
(0.00156386 -0.000529269 0)
(0.00159436 -0.000449213 0)
(0.00162065 -0.000358205 0)
(0.00164315 -0.000259464 0)
(0.00166224 -0.000155098 0)
(0.00167814 -4.55275e-05 0)
(0.00169153 6.82556e-05 0)
(0.00170328 0.000184069 0)
(0.00171356 0.000300304 0)
(0.00172172 0.000417028 0)
(0.00172737 0.000531743 0)
(0.00173062 0.000638474 0)
(0.00173012 0.00073288 0)
(0.00172352 0.000811072 0)
(0.00170975 0.000864962 0)
(0.00168857 0.000887876 0)
(0.00165961 0.000880545 0)
(0.00162383 0.000846647 0)
(0.00158348 0.000791362 0)
(0.00154046 0.00072497 0)
(0.00149665 0.00065748 0)
(0.00145451 0.000591907 0)
(0.00141506 0.000530181 0)
(0.00137689 0.000479192 0)
(0.00133833 0.000443074 0)
(0.00129933 0.000415021 0)
(0.0012604 0.000384881 0)
(0.00122082 0.000353445 0)
(0.00117901 0.0003339 0)
(0.00113416 0.000338933 0)
(0.00108701 0.000368882 0)
(0.00103934 0.000411798 0)
(0.00144082 0.00061991 0)
(0.00145557 0.000700036 0)
(0.00146172 0.000768937 0)
(0.00145382 0.000828563 0)
(0.0014331 0.000865935 0)
(0.00140028 0.000875749 0)
(0.00135034 0.000872224 0)
(0.00129059 0.00084746 0)
(0.00123334 0.000788035 0)
(0.00117405 0.000724536 0)
(0.00110785 0.000689399 0)
(0.00104619 0.000668591 0)
(0.000998177 0.000643338 0)
(0.000957002 0.00062627 0)
(0.000914492 0.00062854 0)
(0.000875087 0.000631121 0)
(0.000847534 0.000610014 0)
(0.000829033 0.000571542 0)
(0.000804851 0.000547021 0)
(0.000762702 0.000558511 0)
(0.000703953 0.000598109 0)
(0.000641073 0.000637275 0)
(0.000587182 0.000648894 0)
(0.000548928 0.000620731 0)
(0.000526406 0.00055496 0)
(0.000516761 0.000460751 0)
(0.000517161 0.000347718 0)
(0.000525725 0.000223298 0)
(0.000541025 9.29332e-05 0)
(0.000561627 -3.91612e-05 0)
(0.000586743 -0.000169526 0)
(0.000615456 -0.000295282 0)
(0.000646479 -0.00041379 0)
(0.000679129 -0.000521948 0)
(0.000713385 -0.000615501 0)
(0.000749788 -0.000688985 0)
(0.000788871 -0.000737129 0)
(0.000830092 -0.000757792 0)
(0.000871056 -0.000754679 0)
(0.000908195 -0.000736815 0)
(0.000938837 -0.000714021 0)
(0.000962936 -0.000691782 0)
(0.000982942 -0.000669872 0)
(0.00100213 -0.000645529 0)
(0.00102287 -0.00061807 0)
(0.00104606 -0.000591269 0)
(0.00107159 -0.00057223 0)
(0.00109917 -0.000568075 0)
(0.00112886 -0.000582704 0)
(0.00116101 -0.000615049 0)
(0.0011959 -0.000659306 0)
(0.00123332 -0.000706654 0)
(0.00127248 -0.000747552 0)
(0.00131208 -0.000773809 0)
(0.00135061 -0.000779882 0)
(0.00138678 -0.00076332 0)
(0.00141968 -0.000724471 0)
(0.00144888 -0.000665595 0)
(0.00147442 -0.000590035 0)