/*--------------------------------*- C++ -*----------------------------------*\
| =========                 |                                                 |
| \\      /  F ield         | OpenFOAM: The Open Source CFD Toolbox           |
|  \\    /   O peration     | Version:  2312                                  |
|   \\  /    A nd           | Website:  www.openfoam.com                      |
|    \\/     M anipulation  |                                                 |
\*---------------------------------------------------------------------------*/
FoamFile
{
    version     2.0;
    format      ascii;
    arch        "LSB;label=32;scalar=64";
    class       volVectorField;
    location    "168000";
    object      U;
}
// * * * * * * * * * * * * * * * * * * * * * * * * * * * * * * * * * * * * * //

dimensions      [0 1 -1 0 0 0 0];

internalField   nonuniform List<vector> 
10800
(
(0.000992484 4.94663e-06 0)
(0.000990029 1.2472e-05 0)
(0.000986847 1.75031e-05 0)
(0.000980449 2.06968e-05 0)
(0.000971003 2.27901e-05 0)
(0.00095967 2.4294e-05 0)
(0.00094752 2.54433e-05 0)
(0.000935084 2.63127e-05 0)
(0.000922508 2.69265e-05 0)
(0.000909769 2.73094e-05 0)
(0.000896823 2.74993e-05 0)
(0.000883666 2.75388e-05 0)
(0.000870335 2.74657e-05 0)
(0.000856885 2.73081e-05 0)
(0.00084337 2.70841e-05 0)
(0.000829827 2.68051e-05 0)
(0.000816283 2.64791e-05 0)
(0.000802757 2.61126e-05 0)
(0.000789265 2.57111e-05 0)
(0.000775823 2.52795e-05 0)
(0.000762448 2.48214e-05 0)
(0.000749153 2.43401e-05 0)
(0.000735956 2.38376e-05 0)
(0.00072287 2.3316e-05 0)
(0.000709909 2.27763e-05 0)
(0.000697086 2.22202e-05 0)
(0.000684416 2.16478e-05 0)
(0.000671909 2.1061e-05 0)
(0.000659581 2.04593e-05 0)
(0.000647442 1.98448e-05 0)
(0.000635507 1.92163e-05 0)
(0.000623786 1.85767e-05 0)
(0.000612293 1.79235e-05 0)
(0.000601039 1.72612e-05 0)
(0.00059004 1.65854e-05 0)
(0.000579301 1.5903e-05 0)
(0.000568842 1.52067e-05 0)
(0.000558665 1.45074e-05 0)
(0.000548795 1.37924e-05 0)
(0.000539223 1.30799e-05 0)
(0.00052999 1.23478e-05 0)
(0.000521065 1.16264e-05 0)
(0.000512518 1.0878e-05 0)
(0.000504272 1.01531e-05 0)
(0.000496469 9.3871e-06 0)
(0.00048892 8.66483e-06 0)
(0.000481942 7.8765e-06 0)
(0.000475065 7.16249e-06 0)
(0.000469066 6.34196e-06 0)
(0.000462719 5.63311e-06 0)
(0.000458072 4.77031e-06 0)
(0.000451755 4.01859e-06 0)
(0.000449494 3.14765e-06 0)
(0.000441608 2.108e-06 0)
(0.000444805 1.53989e-06 0)
(0.000430387 -8.36239e-07 0)
(0.000448196 4.78848e-07 0)
(0.000412476 -7.29113e-06 0)
(0.000469758 2.39671e-06 0)
(0.00037571 -2.42655e-05 0)
(0.00100003 5.81935e-06 0)
(0.00100171 1.50442e-05 0)
(0.0010042 2.16092e-05 0)
(0.00100701 2.62064e-05 0)
(0.00100972 2.95985e-05 0)
(0.00101208 3.23136e-05 0)
(0.00101405 3.45992e-05 0)
(0.00101567 3.65415e-05 0)
(0.00101699 3.8173e-05 0)
(0.00101803 3.9524e-05 0)
(0.00101881 4.06357e-05 0)
(0.00101932 4.15537e-05 0)
(0.00101955 4.23183e-05 0)
(0.00101952 4.29595e-05 0)
(0.00101922 4.34969e-05 0)
(0.00101869 4.39431e-05 0)
(0.00101792 4.43065e-05 0)
(0.00101694 4.45939e-05 0)
(0.00101575 4.48105e-05 0)
(0.00101436 4.49611e-05 0)
(0.0010128 4.50494e-05 0)
(0.00101105 4.50778e-05 0)
(0.00100915 4.50487e-05 0)
(0.00100708 4.4963e-05 0)
(0.00100488 4.48221e-05 0)
(0.00100252 4.4626e-05 0)
(0.00100007 4.43761e-05 0)
(0.000997467 4.40715e-05 0)
(0.000994794 4.37141e-05 0)
(0.000991983 4.33014e-05 0)
(0.000989138 4.28373e-05 0)
(0.000986147 4.23165e-05 0)
(0.000983178 4.17464e-05 0)
(0.000980036 4.1117e-05 0)
(0.000976996 4.04423e-05 0)
(0.000973725 3.97034e-05 0)
(0.000970679 3.89264e-05 0)
(0.000967289 3.80763e-05 0)
(0.000964318 3.72013e-05 0)
(0.0009608 3.62368e-05 0)
(0.000958016 3.52709e-05 0)
(0.000954322 3.41853e-05 0)
(0.000951887 3.31403e-05 0)
(0.000947908 3.19208e-05 0)
(0.000946071 3.08168e-05 0)
(0.000941584 2.94382e-05 0)
(0.000940742 2.8309e-05 0)
(0.000935329 2.67239e-05 0)
(0.000936135 2.56274e-05 0)
(0.000929034 2.37486e-05 0)
(0.000932583 2.27834e-05 0)
(0.000922428 2.04538e-05 0)
(0.000930575 1.97864e-05 0)
(0.000914942 1.67346e-05 0)
(0.000930839 1.66317e-05 0)
(0.00090545 1.2426e-05 0)
(0.000934488 1.32424e-05 0)
(0.000891894 7.36396e-06 0)
(0.000943463 9.17575e-06 0)
(0.000871089 1.95461e-06 0)
(0.000999989 1.98862e-06 0)
(0.00100077 5.84267e-06 0)
(0.00100222 9.42048e-06 0)
(0.00100419 1.2638e-05 0)
(0.00100647 1.54923e-05 0)
(0.00100886 1.80283e-05 0)
(0.00101124 2.03006e-05 0)
(0.00101356 2.23518e-05 0)
(0.00101581 2.42091e-05 0)
(0.00101801 2.58886e-05 0)
(0.00102016 2.74034e-05 0)
(0.00102226 2.87665e-05 0)
(0.0010243 2.99923e-05 0)
(0.00102626 3.10942e-05 0)
(0.00102816 3.20845e-05 0)
(0.00102998 3.29727e-05 0)
(0.00103173 3.37668e-05 0)
(0.00103341 3.44723e-05 0)
(0.00103503 3.50948e-05 0)
(0.00103658 3.56374e-05 0)
(0.00103807 3.61046e-05 0)
(0.00103949 3.64978e-05 0)
(0.00104087 3.68211e-05 0)
(0.00104217 3.70738e-05 0)
(0.00104343 3.72605e-05 0)
(0.00104462 3.73779e-05 0)
(0.00104578 3.74321e-05 0)
(0.00104685 3.74169e-05 0)
(0.00104791 3.7341e-05 0)
(0.00104887 3.71941e-05 0)
(0.00104985 3.69893e-05 0)
(0.0010507 3.67103e-05 0)
(0.00105161 3.63775e-05 0)
(0.00105234 3.59648e-05 0)
(0.0010532 3.55048e-05 0)
(0.0010538 3.49564e-05 0)
(0.00105464 3.43704e-05 0)
(0.00105511 3.3683e-05 0)
(0.00105596 3.29735e-05 0)
(0.00105627 3.21427e-05 0)
(0.0010572 3.13137e-05 0)
(0.00105729 3.03332e-05 0)
(0.00105838 2.93911e-05 0)
(0.00105819 2.82523e-05 0)
(0.00105957 2.7207e-05 0)
(0.00105897 2.58977e-05 0)
(0.00106083 2.47638e-05 0)
(0.00105962 2.32674e-05 0)
(0.00106224 2.20665e-05 0)
(0.00106009 2.03627e-05 0)
(0.0010639 1.91255e-05 0)
(0.0010603 1.71935e-05 0)
(0.00106594 1.59636e-05 0)
(0.00106011 1.37947e-05 0)
(0.00106856 1.26332e-05 0)
(0.00105926 1.02674e-05 0)
(0.001072 9.26124e-06 0)
(0.00105736 6.87884e-06 0)
(0.00107671 6.09589e-06 0)
(0.00105398 4.16147e-06 0)
(0.00100001 1.77628e-06 0)
(0.00100046 5.26425e-06 0)
(0.00100126 8.59605e-06 0)
(0.00100235 1.1695e-05 0)
(0.00100368 1.45198e-05 0)
(0.00100516 1.70672e-05 0)
(0.00100675 1.93583e-05 0)
(0.0010084 2.14226e-05 0)
(0.0010101 2.32869e-05 0)
(0.00101182 2.49716e-05 0)
(0.00101358 2.6492e-05 0)
(0.00101535 2.78607e-05 0)
(0.00101714 2.90898e-05 0)
(0.00101893 3.01909e-05 0)
(0.00102072 3.11756e-05 0)
(0.00102251 3.20537e-05 0)
(0.00102429 3.28345e-05 0)
(0.00102607 3.35245e-05 0)
(0.00102784 3.41303e-05 0)
(0.0010296 3.46558e-05 0)
(0.00103135 3.51061e-05 0)
(0.0010331 3.54833e-05 0)
(0.00103484 3.57914e-05 0)
(0.00103657 3.60312e-05 0)
(0.00103829 3.62061e-05 0)
(0.00104 3.63154e-05 0)
(0.00104171 3.63625e-05 0)
(0.0010434 3.63451e-05 0)
(0.0010451 3.62671e-05 0)
(0.00104676 3.61246e-05 0)
(0.00104844 3.59222e-05 0)
(0.00105009 3.56544e-05 0)
(0.00105176 3.53271e-05 0)
(0.00105337 3.49328e-05 0)
(0.00105503 3.44791e-05 0)
(0.00105661 3.39564e-05 0)
(0.00105826 3.3374e-05 0)
(0.0010598 3.27205e-05 0)
(0.00106145 3.20067e-05 0)
(0.00106294 3.122e-05 0)
(0.0010646 3.03713e-05 0)
(0.00106603 2.94496e-05 0)
(0.00106772 2.84622e-05 0)
(0.00106907 2.74048e-05 0)
(0.00107082 2.62738e-05 0)
(0.00107207 2.50824e-05 0)
(0.0010739 2.38017e-05 0)
(0.00107502 2.24828e-05 0)
(0.00107699 2.10444e-05 0)
(0.00107794 1.96129e-05 0)
(0.00108011 1.80064e-05 0)
(0.00108083 1.64936e-05 0)
(0.0010833 1.47056e-05 0)
(0.00108369 1.31718e-05 0)
(0.0010866 1.11862e-05 0)
(0.00108653 9.74203e-06 0)
(0.00109007 7.53591e-06 0)
(0.00108933 6.36954e-06 0)
(0.00109378 3.89026e-06 0)
(0.00109204 3.27037e-06 0)
(0.001 1.19772e-06 0)
(0.00100022 3.56661e-06 0)
(0.00100065 5.87026e-06 0)
(0.0010013 8.07647e-06 0)
(0.00100214 1.01635e-05 0)
(0.00100314 1.21207e-05 0)
(0.00100428 1.39463e-05 0)
(0.00100551 1.56439e-05 0)
(0.00100682 1.72194e-05 0)
(0.0010082 1.86784e-05 0)
(0.00100962 2.0026e-05 0)
(0.00101108 2.12667e-05 0)
(0.00101257 2.24051e-05 0)
(0.00101408 2.34458e-05 0)
(0.00101562 2.43936e-05 0)
(0.00101717 2.52532e-05 0)
(0.00101873 2.60288e-05 0)
(0.0010203 2.67243e-05 0)
(0.00102188 2.73431e-05 0)
(0.00102346 2.7888e-05 0)
(0.00102505 2.83614e-05 0)
(0.00102664 2.87654e-05 0)
(0.00102824 2.91017e-05 0)
(0.00102983 2.9372e-05 0)
(0.00103143 2.9577e-05 0)
(0.00103303 2.97184e-05 0)
(0.00103463 2.97959e-05 0)
(0.00103623 2.98112e-05 0)
(0.00103783 2.97629e-05 0)
(0.00103943 2.96535e-05 0)
(0.00104104 2.94796e-05 0)
(0.00104263 2.92457e-05 0)
(0.00104424 2.89452e-05 0)
(0.00104583 2.8586e-05 0)
(0.00104743 2.81566e-05 0)
(0.00104902 2.76708e-05 0)
(0.00105061 2.71092e-05 0)
(0.00105219 2.64955e-05 0)
(0.00105377 2.57971e-05 0)
(0.00105535 2.50541e-05 0)
(0.00105692 2.42129e-05 0)
(0.00105849 2.33403e-05 0)
(0.00106005 2.23488e-05 0)
(0.00106161 2.1348e-05 0)
(0.00106315 2.0196e-05 0)
(0.00106472 1.90717e-05 0)
(0.00106624 1.77462e-05 0)
(0.00106782 1.65085e-05 0)
(0.00106931 1.49922e-05 0)
(0.00107092 1.366e-05 0)
(0.00107238 1.19291e-05 0)
(0.00107405 1.05347e-05 0)
(0.00107547 8.55489e-06 0)
(0.00107727 7.1503e-06 0)
(0.00107864 4.86751e-06 0)
(0.00108066 3.53316e-06 0)
(0.00108196 8.59431e-07 0)
(0.00108434 -2.80787e-07 0)
(0.00108549 -3.47374e-06 0)
(0.00108827 -4.23227e-06 0)
(0.001 9.78309e-07 0)
(0.00100017 2.92746e-06 0)
(0.00100049 4.85008e-06 0)
(0.00100097 6.72676e-06 0)
(0.00100159 8.53957e-06 0)
(0.00100233 1.02742e-05 0)
(0.00100319 1.19208e-05 0)
(0.00100413 1.34742e-05 0)
(0.00100515 1.49322e-05 0)
(0.00100624 1.62949e-05 0)
(0.00100738 1.75633e-05 0)
(0.00100856 1.87391e-05 0)
(0.00100979 1.98241e-05 0)
(0.00101105 2.08207e-05 0)
(0.00101234 2.17313e-05 0)
(0.00101365 2.25589e-05 0)
(0.00101498 2.33061e-05 0)
(0.00101633 2.39757e-05 0)
(0.0010177 2.45703e-05 0)
(0.00101908 2.50922e-05 0)
(0.00102047 2.55434e-05 0)
(0.00102187 2.59262e-05 0)
(0.00102327 2.62415e-05 0)
(0.00102469 2.64916e-05 0)
(0.00102611 2.66768e-05 0)
(0.00102753 2.67993e-05 0)
(0.00102896 2.68582e-05 0)
(0.00103039 2.68566e-05 0)
(0.00103182 2.67917e-05 0)
(0.00103325 2.66679e-05 0)
(0.00103468 2.648e-05 0)
(0.00103612 2.62347e-05 0)
(0.00103755 2.59234e-05 0)
(0.00103899 2.55565e-05 0)
(0.00104041 2.51199e-05 0)
(0.00104184 2.46303e-05 0)
(0.00104326 2.40653e-05 0)
(0.00104468 2.34515e-05 0)
(0.00104609 2.27535e-05 0)
(0.00104751 2.20135e-05 0)
(0.00104889 2.11764e-05 0)
(0.00105031 2.03086e-05 0)
(0.00105168 1.93242e-05 0)
(0.0010531 1.83274e-05 0)
(0.00105444 1.71853e-05 0)
(0.00105587 1.60598e-05 0)
(0.00105717 1.4746e-05 0)
(0.00105863 1.34948e-05 0)
(0.0010599 1.19905e-05 0)
(0.00106142 1.06206e-05 0)
(0.00106263 8.90016e-06 0)
(0.00106425 7.42544e-06 0)
(0.00106539 5.45404e-06 0)
(0.00106715 3.89916e-06 0)
(0.00106818 1.63022e-06 0)
(0.00107016 3.7017e-08 0)
(0.00107101 -2.60793e-06 0)
(0.00107335 -4.19229e-06 0)
(0.00107392 -7.35151e-06 0)
(0.00107667 -8.86122e-06 0)
(0.001 7.91707e-07 0)
(0.00100012 2.37036e-06 0)
(0.00100036 3.93062e-06 0)
(0.0010007 5.45911e-06 0)
(0.00100116 6.94374e-06 0)
(0.00100172 8.37449e-06 0)
(0.00100237 9.74383e-06 0)
(0.00100311 1.10467e-05 0)
(0.00100391 1.22799e-05 0)
(0.00100479 1.34419e-05 0)
(0.00100571 1.4532e-05 0)
(0.00100669 1.55503e-05 0)
(0.00100771 1.64969e-05 0)
(0.00100877 1.73727e-05 0)
(0.00100987 1.81782e-05 0)
(0.00101099 1.89147e-05 0)
(0.00101214 1.95832e-05 0)
(0.00101331 2.0185e-05 0)
(0.00101451 2.07213e-05 0)
(0.00101572 2.11934e-05 0)
(0.00101694 2.16022e-05 0)
(0.00101818 2.19493e-05 0)
(0.00101942 2.22348e-05 0)
(0.00102068 2.24605e-05 0)
(0.00102194 2.2626e-05 0)
(0.00102321 2.27333e-05 0)
(0.00102448 2.27811e-05 0)
(0.00102576 2.27719e-05 0)
(0.00102704 2.27031e-05 0)
(0.00102832 2.25783e-05 0)
(0.00102959 2.23931e-05 0)
(0.00103087 2.21527e-05 0)
(0.00103214 2.18499e-05 0)
(0.00103341 2.14929e-05 0)
(0.00103468 2.10702e-05 0)
(0.00103594 2.05947e-05 0)
(0.00103718 2.00484e-05 0)
(0.00103844 1.94518e-05 0)
(0.00103966 1.87768e-05 0)
(0.0010409 1.80556e-05 0)
(0.0010421 1.72449e-05 0)
(0.00104333 1.6395e-05 0)
(0.0010445 1.54393e-05 0)
(0.00104571 1.44563e-05 0)
(0.00104685 1.33436e-05 0)
(0.00104805 1.22224e-05 0)
(0.00104914 1.0937e-05 0)
(0.00105035 9.67323e-06 0)
(0.00105139 8.19417e-06 0)
(0.00105262 6.78458e-06 0)
(0.0010536 5.0831e-06 0)
(0.00105489 3.52646e-06 0)
(0.00105579 1.56188e-06 0)
(0.0010572 -1.43536e-07 0)
(0.00105803 -2.42681e-06 0)
(0.00105962 -4.26412e-06 0)
(0.0010603 -6.92509e-06 0)
(0.00106214 -8.86064e-06 0)
(0.00106254 -1.20085e-05 0)
(0.00106463 -1.40065e-05 0)
(0.001 6.49355e-07 0)
(0.00100009 1.946e-06 0)
(0.00100028 3.23187e-06 0)
(0.00100055 4.49833e-06 0)
(0.0010009 5.73716e-06 0)
(0.00100134 6.94098e-06 0)
(0.00100186 8.10349e-06 0)
(0.00100245 9.21961e-06 0)
(0.00100311 1.02854e-05 0)
(0.00100383 1.1298e-05 0)
(0.0010046 1.22554e-05 0)
(0.00100542 1.31562e-05 0)
(0.00100629 1.39994e-05 0)
(0.00100719 1.47844e-05 0)
(0.00100813 1.55109e-05 0)
(0.0010091 1.61786e-05 0)
(0.0010101 1.67876e-05 0)
(0.00101112 1.73383e-05 0)
(0.00101217 1.78308e-05 0)
(0.00101323 1.82658e-05 0)
(0.00101431 1.86435e-05 0)
(0.00101541 1.89646e-05 0)
(0.00101651 1.92292e-05 0)
(0.00101763 1.94384e-05 0)
(0.00101875 1.95916e-05 0)
(0.00101988 1.96903e-05 0)
(0.00102101 1.97334e-05 0)
(0.00102214 1.97227e-05 0)
(0.00102328 1.96563e-05 0)
(0.00102442 1.95364e-05 0)
(0.00102555 1.93602e-05 0)
(0.00102668 1.91308e-05 0)
(0.0010278 1.88435e-05 0)
(0.00102892 1.85032e-05 0)
(0.00103003 1.81025e-05 0)
(0.00103113 1.7649e-05 0)
(0.00103222 1.71312e-05 0)
(0.0010333 1.6561e-05 0)
(0.00103436 1.59211e-05 0)
(0.00103542 1.52296e-05 0)
(0.00103645 1.44605e-05 0)
(0.00103748 1.36419e-05 0)
(0.00103846 1.27343e-05 0)
(0.00103946 1.17813e-05 0)
(0.0010404 1.07232e-05 0)
(0.00104138 9.6272e-06 0)
(0.00104226 8.40316e-06 0)
(0.00104322 7.15386e-06 0)
(0.00104404 5.74457e-06 0)
(0.001045 4.32962e-06 0)
(0.00104575 2.71063e-06 0)
(0.00104671 1.11611e-06 0)
(0.00104735 -7.47001e-07 0)
(0.00104835 -2.5323e-06 0)
(0.00104889 -4.68607e-06 0)
(0.00105 -6.68959e-06 0)
(0.00105039 -9.20349e-06 0)
(0.00105163 -1.14423e-05 0)
(0.00105175 -1.43902e-05 0)
(0.00105309 -1.68681e-05 0)
(0.001 5.37768e-07 0)
(0.00100008 1.61293e-06 0)
(0.00100022 2.68154e-06 0)
(0.00100044 3.73741e-06 0)
(0.00100074 4.77451e-06 0)
(0.0010011 5.78719e-06 0)
(0.00100153 6.77034e-06 0)
(0.00100202 7.71954e-06 0)
(0.00100257 8.631e-06 0)
(0.00100317 9.50163e-06 0)
(0.00100382 1.03288e-05 0)
(0.00100452 1.11105e-05 0)
(0.00100526 1.1845e-05 0)
(0.00100604 1.25311e-05 0)
(0.00100686 1.31678e-05 0)
(0.0010077 1.37545e-05 0)
(0.00100858 1.42908e-05 0)
(0.00100947 1.47764e-05 0)
(0.00101039 1.52111e-05 0)
(0.00101133 1.55951e-05 0)
(0.00101229 1.59283e-05 0)
(0.00101326 1.6211e-05 0)
(0.00101424 1.64431e-05 0)
(0.00101524 1.66252e-05 0)
(0.00101623 1.6757e-05 0)
(0.00101724 1.68391e-05 0)
(0.00101825 1.6871e-05 0)
(0.00101926 1.68536e-05 0)
(0.00102027 1.67857e-05 0)
(0.00102128 1.66686e-05 0)
(0.00102228 1.65004e-05 0)
(0.00102328 1.62827e-05 0)
(0.00102427 1.60129e-05 0)
(0.00102525 1.56929e-05 0)
(0.00102622 1.5319e-05 0)
(0.00102718 1.48942e-05 0)
(0.00102812 1.44124e-05 0)
(0.00102905 1.38788e-05 0)
(0.00102995 1.32841e-05 0)
(0.00103084 1.26361e-05 0)
(0.0010317 1.19214e-05 0)
(0.00103254 1.11519e-05 0)
(0.00103335 1.03079e-05 0)
(0.00103415 9.40746e-06 0)
(0.00103489 8.42216e-06 0)
(0.00103564 7.37887e-06 0)
(0.0010363 6.2366e-06 0)
(0.001037 5.03531e-06 0)
(0.00103758 3.71551e-06 0)
(0.00103823 2.33682e-06 0)
(0.0010387 8.14108e-07 0)
(0.00103932 -7.67646e-07 0)
(0.00103969 -2.52378e-06 0)
(0.0010403 -4.32942e-06 0)
(0.00104053 -6.35325e-06 0)
(0.00104114 -8.42244e-06 0)
(0.00104118 -1.07719e-05 0)
(0.00104182 -1.31508e-05 0)
(0.00104158 -1.58832e-05 0)
(0.00104221 -1.86104e-05 0)
(0.001 4.4568e-07 0)
(0.00100006 1.33769e-06 0)
(0.00100019 2.22565e-06 0)
(0.00100037 3.10488e-06 0)
(0.00100062 3.97078e-06 0)
(0.00100093 4.81895e-06 0)
(0.00100129 5.64526e-06 0)
(0.00100171 6.44597e-06 0)
(0.00100218 7.21775e-06 0)
(0.0010027 7.95767e-06 0)
(0.00100326 8.66322e-06 0)
(0.00100387 9.33225e-06 0)
(0.00100452 9.96296e-06 0)
(0.0010052 1.05539e-05 0)
(0.00100591 1.11039e-05 0)
(0.00100666 1.1612e-05 0)
(0.00100743 1.20774e-05 0)
(0.00100823 1.24998e-05 0)
(0.00100905 1.28787e-05 0)
(0.00100988 1.32137e-05 0)
(0.00101074 1.35048e-05 0)
(0.00101161 1.37519e-05 0)
(0.00101249 1.39548e-05 0)
(0.00101338 1.41137e-05 0)
(0.00101427 1.42285e-05 0)
(0.00101518 1.42993e-05 0)
(0.00101608 1.43259e-05 0)
(0.00101698 1.43084e-05 0)
(0.00101789 1.42466e-05 0)
(0.00101878 1.41405e-05 0)
(0.00101968 1.39896e-05 0)
(0.00102056 1.37939e-05 0)
(0.00102143 1.35526e-05 0)
(0.00102229 1.32655e-05 0)
(0.00102314 1.29314e-05 0)
(0.00102397 1.25501e-05 0)
(0.00102477 1.21198e-05 0)
(0.00102556 1.16402e-05 0)
(0.00102632 1.11089e-05 0)
(0.00102706 1.05253e-05 0)
(0.00102776 9.88639e-06 0)
(0.00102844 9.19107e-06 0)
(0.00102907 8.43582e-06 0)
(0.00102969 7.61849e-06 0)
(0.00103024 6.73566e-06 0)
(0.00103078 5.78283e-06 0)
(0.00103123 4.75829e-06 0)
(0.00103169 3.65266e-06 0)
(0.00103204 2.46882e-06 0)
(0.00103241 1.18895e-06 0)
(0.00103262 -1.76759e-07 0)
(0.00103291 -1.65847e-06 0)
(0.00103298 -3.23064e-06 0)
(0.00103318 -4.95834e-06 0)
(0.00103306 -6.7754e-06 0)
(0.00103319 -8.79636e-06 0)
(0.00103284 -1.08918e-05 0)
(0.0010329 -1.32691e-05 0)
(0.00103224 -1.56819e-05 0)
(0.00103217 -1.849e-05 0)
(0.001 3.67005e-07 0)
(0.00100006 1.1024e-06 0)
(0.00100016 1.83549e-06 0)
(0.00100033 2.56261e-06 0)
(0.00100054 3.28014e-06 0)
(0.00100081 3.9846e-06 0)
(0.00100113 4.67264e-06 0)
(0.00100149 5.34116e-06 0)
(0.00100191 5.98733e-06 0)
(0.00100236 6.6086e-06 0)
(0.00100286 7.2027e-06 0)
(0.0010034 7.76765e-06 0)
(0.00100397 8.30175e-06 0)
(0.00100458 8.80351e-06 0)
(0.00100522 9.27172e-06 0)
(0.00100589 9.70534e-06 0)
(0.00100658 1.01036e-05 0)
(0.0010073 1.04657e-05 0)
(0.00100804 1.07912e-05 0)
(0.0010088 1.10797e-05 0)
(0.00100957 1.13309e-05 0)
(0.00101036 1.15445e-05 0)
(0.00101116 1.17204e-05 0)
(0.00101196 1.18586e-05 0)
(0.00101277 1.1959e-05 0)
(0.00101359 1.20215e-05 0)
(0.00101441 1.20461e-05 0)
(0.00101522 1.20326e-05 0)
(0.00101604 1.19812e-05 0)
(0.00101684 1.18914e-05 0)
(0.00101764 1.17634e-05 0)
(0.00101843 1.15965e-05 0)
(0.0010192 1.13908e-05 0)
(0.00101996 1.11451e-05 0)
(0.0010207 1.086e-05 0)
(0.00102142 1.05332e-05 0)
(0.00102211 1.01657e-05 0)
(0.00102278 9.75401e-06 0)
(0.00102341 9.30007e-06 0)
(0.00102402 8.7983e-06 0)
(0.00102458 8.25222e-06 0)
(0.00102511 7.65297e-06 0)
(0.00102559 7.00722e-06 0)
(0.00102604 6.30052e-06 0)
(0.00102642 5.54525e-06 0)
(0.00102676 4.7179e-06 0)
(0.00102702 3.84054e-06 0)
(0.00102726 2.87484e-06 0)
(0.00102738 1.86036e-06 0)
(0.00102749 7.32573e-07 0)
(0.00102745 -4.37455e-07 0)
(0.00102743 -1.7556e-06 0)
(0.00102721 -3.1044e-06 0)
(0.00102704 -4.65901e-06 0)
(0.00102658 -6.21263e-06 0)
(0.00102626 -8.05632e-06 0)
(0.00102553 -9.84005e-06 0)
(0.00102504 -1.20471e-05 0)
(0.00102396 -1.40838e-05 0)
(0.00102323 -1.67467e-05 0)
(0.001 2.9766e-07 0)
(0.00100005 8.9494e-07 0)
(0.00100015 1.49121e-06 0)
(0.00100029 2.08357e-06 0)
(0.00100048 2.66916e-06 0)
(0.00100073 3.24518e-06 0)
(0.00100101 3.80895e-06 0)
(0.00100134 4.35792e-06 0)
(0.00100171 4.88973e-06 0)
(0.00100213 5.40223e-06 0)
(0.00100258 5.89348e-06 0)
(0.00100307 6.36174e-06 0)
(0.00100359 6.80549e-06 0)
(0.00100414 7.22335e-06 0)
(0.00100473 7.61419e-06 0)
(0.00100534 7.977e-06 0)
(0.00100598 8.311e-06 0)
(0.00100664 8.61547e-06 0)
(0.00100732 8.88992e-06 0)
(0.00100801 9.13387e-06 0)
(0.00100872 9.34706e-06 0)
(0.00100945 9.52918e-06 0)
(0.00101018 9.68019e-06 0)
(0.00101093 9.79987e-06 0)
(0.00101167 9.88836e-06 0)
(0.00101242 9.94543e-06 0)
(0.00101317 9.97135e-06 0)
(0.00101392 9.96579e-06 0)
(0.00101466 9.92918e-06 0)
(0.0010154 9.86091e-06 0)
(0.00101612 9.76162e-06 0)
(0.00101683 9.63027e-06 0)
(0.00101753 9.46782e-06 0)
(0.00101821 9.27251e-06 0)
(0.00101886 9.04585e-06 0)
(0.00101949 8.78495e-06 0)
(0.00102009 8.49224e-06 0)
(0.00102066 8.16303e-06 0)
(0.00102119 7.8014e-06 0)
(0.00102168 7.39974e-06 0)
(0.00102213 6.96497e-06 0)
(0.00102254 6.48484e-06 0)
(0.00102289 5.97111e-06 0)
(0.0010232 5.40411e-06 0)
(0.00102343 4.80373e-06 0)
(0.00102361 4.13822e-06 0)
(0.00102371 3.44149e-06 0)
(0.00102375 2.66193e-06 0)
(0.00102368 1.85657e-06 0)
(0.00102357 9.42032e-07 0)
(0.00102332 1.41226e-08 0)
(0.00102302 -1.06393e-06 0)
(0.00102254 -2.13145e-06 0)
(0.00102204 -3.41305e-06 0)
(0.00102129 -4.64067e-06 0)
(0.00102056 -6.18059e-06 0)
(0.00101948 -7.58524e-06 0)
(0.0010185 -9.45608e-06 0)
(0.00101702 -1.10478e-05 0)
(0.00101572 -1.33455e-05 0)
(0.001 2.3461e-07 0)
(0.00100005 7.0624e-07 0)
(0.00100014 1.1779e-06 0)
(0.00100027 1.6473e-06 0)
(0.00100045 2.11218e-06 0)
(0.00100067 2.57033e-06 0)
(0.00100094 3.01963e-06 0)
(0.00100124 3.45802e-06 0)
(0.00100159 3.88358e-06 0)
(0.00100197 4.29455e-06 0)
(0.00100239 4.68932e-06 0)
(0.00100285 5.06642e-06 0)
(0.00100334 5.42459e-06 0)
(0.00100386 5.76265e-06 0)
(0.0010044 6.07962e-06 0)
(0.00100498 6.37465e-06 0)
(0.00100557 6.64704e-06 0)
(0.00100619 6.89618e-06 0)
(0.00100683 7.12167e-06 0)
(0.00100749 7.32309e-06 0)
(0.00100816 7.50026e-06 0)
(0.00100884 7.65293e-06 0)
(0.00100953 7.78114e-06 0)
(0.00101023 7.88475e-06 0)
(0.00101093 7.96397e-06 0)
(0.00101163 8.01869e-06 0)
(0.00101234 8.04928e-06 0)
(0.00101304 8.05555e-06 0)
(0.00101373 8.03806e-06 0)
(0.00101441 7.99638e-06 0)
(0.00101508 7.93133e-06 0)
(0.00101574 7.84207e-06 0)
(0.00101638 7.72981e-06 0)
(0.001017 7.59303e-06 0)
(0.00101759 7.43355e-06 0)
(0.00101815 7.24878e-06 0)
(0.00101868 7.04154e-06 0)
(0.00101918 6.80749e-06 0)
(0.00101964 6.55117e-06 0)
(0.00102005 6.26546e-06 0)
(0.00102041 5.95774e-06 0)
(0.00102073 5.61646e-06 0)
(0.00102098 5.25382e-06 0)
(0.00102118 4.85115e-06 0)
(0.0010213 4.42869e-06 0)
(0.00102136 3.95622e-06 0)
(0.00102132 3.46735e-06 0)
(0.00102122 2.91311e-06 0)
(0.001021 2.34936e-06 0)
(0.00102071 1.69678e-06 0)
(0.00102028 1.04744e-06 0)
(0.00101978 2.72843e-07 0)
(0.00101909 -4.72216e-07 0)
(0.00101832 -1.39774e-06 0)
(0.00101733 -2.24916e-06 0)
(0.00101628 -3.3702e-06 0)
(0.00101492 -4.33969e-06 0)
(0.00101353 -5.71864e-06 0)
(0.00101174 -6.80944e-06 0)
(0.00100995 -8.52953e-06 0)
(0.001 1.75393e-07 0)
(0.00100004 5.28968e-07 0)
(0.00100013 8.83468e-07 0)
(0.00100026 1.23712e-06 0)
(0.00100043 1.58819e-06 0)
(0.00100064 1.93499e-06 0)
(0.00100089 2.27589e-06 0)
(0.00100119 2.60928e-06 0)
(0.00100152 2.93367e-06 0)
(0.00100189 3.24768e-06 0)
(0.00100229 3.55004e-06 0)
(0.00100273 3.8396e-06 0)
(0.0010032 4.11536e-06 0)
(0.0010037 4.37639e-06 0)
(0.00100422 4.62192e-06 0)
(0.00100477 4.85129e-06 0)
(0.00100535 5.06397e-06 0)
(0.00100595 5.25952e-06 0)
(0.00100656 5.43763e-06 0)
(0.00100719 5.59806e-06 0)
(0.00100784 5.74072e-06 0)
(0.0010085 5.86552e-06 0)
(0.00100917 5.97257e-06 0)
(0.00100984 6.06191e-06 0)
(0.00101052 6.13385e-06 0)
(0.00101119 6.18845e-06 0)
(0.00101187 6.2262e-06 0)
(0.00101254 6.24715e-06 0)
(0.00101321 6.25193e-06 0)
(0.00101386 6.24046e-06 0)
(0.0010145 6.21362e-06 0)
(0.00101513 6.17106e-06 0)
(0.00101573 6.11397e-06 0)
(0.00101632 6.04158e-06 0)
(0.00101687 5.95553e-06 0)
(0.0010174 5.85432e-06 0)
(0.00101789 5.74032e-06 0)
(0.00101834 5.61081e-06 0)
(0.00101875 5.4694e-06 0)
(0.00101911 5.31142e-06 0)
(0.00101943 5.14255e-06 0)
(0.00101968 4.95499e-06 0)
(0.00101987 4.75788e-06 0)
(0.00102 4.53838e-06 0)
(0.00102005 4.31142e-06 0)
(0.00102003 4.05596e-06 0)
(0.00101992 3.79643e-06 0)
(0.00101971 3.49864e-06 0)
(0.0010194 3.20269e-06 0)
(0.00101899 2.85293e-06 0)
(0.00101844 2.51569e-06 0)
(0.00101779 2.09939e-06 0)
(0.00101697 1.71372e-06 0)
(0.00101603 1.21229e-06 0)
(0.00101488 7.75759e-07 0)
(0.00101361 1.62432e-07 0)
(0.00101207 -3.30311e-07 0)
(0.0010104 -1.0961e-06 0)
(0.00100839 -1.64378e-06 0)
(0.00100626 -2.61687e-06 0)
(0.001 1.17886e-07 0)
(0.00100004 3.56747e-07 0)
(0.00100013 5.97355e-07 0)
(0.00100025 8.38451e-07 0)
(0.00100042 1.0788e-06 0)
(0.00100063 1.31716e-06 0)
(0.00100088 1.55235e-06 0)
(0.00100117 1.7832e-06 0)
(0.0010015 2.00864e-06 0)
(0.00100186 2.22764e-06 0)
(0.00100226 2.43929e-06 0)
(0.00100269 2.64276e-06 0)
(0.00100316 2.83734e-06 0)
(0.00100365 3.02237e-06 0)
(0.00100417 3.19733e-06 0)
(0.00100472 3.36179e-06 0)
(0.00100529 3.51543e-06 0)
(0.00100588 3.65799e-06 0)
(0.00100649 3.78933e-06 0)
(0.00100712 3.90939e-06 0)
(0.00100776 4.0182e-06 0)
(0.00100841 4.11585e-06 0)
(0.00100908 4.20257e-06 0)
(0.00100974 4.27859e-06 0)
(0.00101042 4.34431e-06 0)
(0.00101109 4.40008e-06 0)
(0.00101176 4.44639e-06 0)
(0.00101243 4.48367e-06 0)
(0.00101309 4.51254e-06 0)
(0.00101373 4.53346e-06 0)
(0.00101437 4.5472e-06 0)
(0.00101499 4.55416e-06 0)
(0.00101558 4.55527e-06 0)
(0.00101616 4.55084e-06 0)
(0.0010167 4.54198e-06 0)
(0.00101722 4.52878e-06 0)
(0.0010177 4.51263e-06 0)
(0.00101814 4.49323e-06 0)
(0.00101853 4.4724e-06 0)
(0.00101888 4.44916e-06 0)
(0.00101917 4.42606e-06 0)
(0.00101941 4.40101e-06 0)
(0.00101958 4.37779e-06 0)
(0.00101969 4.35252e-06 0)
(0.00101971 4.33103e-06 0)
(0.00101966 4.30652e-06 0)
(0.00101951 4.28836e-06 0)
(0.00101927 4.26487e-06 0)
(0.00101892 4.25123e-06 0)
(0.00101846 4.22794e-06 0)
(0.00101787 4.21971e-06 0)
(0.00101715 4.19401e-06 0)
(0.00101628 4.19164e-06 0)
(0.00101525 4.15853e-06 0)
(0.00101404 4.1616e-06 0)
(0.00101266 4.1135e-06 0)
(0.00101105 4.12473e-06 0)
(0.00100924 4.05129e-06 -4.8708e-38)
(0.00100716 4.07405e-06 0)
(0.00100485 3.95761e-06 0)
(0.001 6.04873e-08 0)
(0.00100004 1.84778e-07 0)
(0.00100013 3.11526e-07 0)
(0.00100026 4.39985e-07 0)
(0.00100043 5.6942e-07 0)
(0.00100064 6.99067e-07 0)
(0.0010009 8.2817e-07 0)
(0.00100119 9.56027e-07 0)
(0.00100153 1.082e-06 0)
(0.0010019 1.2055e-06 0)
(0.0010023 1.32598e-06 0)
(0.00100274 1.4429e-06 0)
(0.00100322 1.55582e-06 0)
(0.00100372 1.66435e-06 0)
(0.00100425 1.76818e-06 0)
(0.00100481 1.86712e-06 0)
(0.00100539 1.96105e-06 0)
(0.00100599 2.04994e-06 0)
(0.00100662 2.13384e-06 0)
(0.00100726 2.21288e-06 0)
(0.00100791 2.28723e-06 0)
(0.00100858 2.35721e-06 0)
(0.00100925 2.42314e-06 0)
(0.00100994 2.4855e-06 0)
(0.00101062 2.54474e-06 0)
(0.00101131 2.60151e-06 0)
(0.001012 2.65633e-06 0)
(0.00101268 2.71e-06 0)
(0.00101335 2.76312e-06 0)
(0.00101402 2.81667e-06 0)
(0.00101467 2.87146e-06 0)
(0.0010153 2.9286e-06 0)
(0.00101592 2.98862e-06 0)
(0.00101651 3.053e-06 0)
(0.00101707 3.12217e-06 0)
(0.0010176 3.19799e-06 0)
(0.0010181 3.28063e-06 0)
(0.00101856 3.37252e-06 0)
(0.00101897 3.47337e-06 0)
(0.00101934 3.58635e-06 0)
(0.00101965 3.71033e-06 0)
(0.00101991 3.8497e-06 0)
(0.0010201 4.00197e-06 0)
(0.00102023 4.17338e-06 0)
(0.00102028 4.35935e-06 0)
(0.00102024 4.56906e-06 0)
(0.00102012 4.79456e-06 0)
(0.0010199 5.04959e-06 0)
(0.00101958 5.32081e-06 0)
(0.00101914 5.62913e-06 0)
(0.00101858 5.95257e-06 0)
(0.00101789 6.32352e-06 0)
(0.00101705 6.70619e-06 0)
(0.00101605 7.15141e-06 0)
(0.00101489 7.60074e-06 0)
(0.00101352 8.13504e-06 0)
(0.00101197 8.65816e-06 0)
(0.00101017 9.30007e-06 4.8708e-38)
(0.00100816 9.90102e-06 0)
(0.00100586 1.06717e-05 0)
(0.001 1.59065e-09 0)
(0.00100005 8.29748e-09 0)
(0.00100014 1.81023e-08 0)
(0.00100027 3.07184e-08 0)
(0.00100045 4.59104e-08 0)
(0.00100068 6.34403e-08 0)
(0.00100094 8.30594e-08 0)
(0.00100125 1.04535e-07 0)
(0.0010016 1.27661e-07 0)
(0.00100199 1.5226e-07 0)
(0.00100241 1.78154e-07 0)
(0.00100288 2.05194e-07 0)
(0.00100337 2.33232e-07 0)
(0.0010039 2.62188e-07 0)
(0.00100445 2.92014e-07 0)
(0.00100504 3.22762e-07 0)
(0.00100565 3.54508e-07 0)
(0.00100628 3.87434e-07 0)
(0.00100693 4.21736e-07 0)
(0.0010076 4.57748e-07 0)
(0.00100829 4.95777e-07 0)
(0.00100898 5.36325e-07 0)
(0.00100969 5.79816e-07 0)
(0.00101041 6.26958e-07 0)
(0.00101113 6.78281e-07 0)
(0.00101185 7.34709e-07 0)
(0.00101258 7.96834e-07 0)
(0.00101329 8.65837e-07 0)
(0.00101401 9.42277e-07 0)
(0.00101471 1.0276e-06 0)
(0.0010154 1.12209e-06 0)
(0.00101608 1.22778e-06 0)
(0.00101673 1.34491e-06 0)
(0.00101736 1.47606e-06 0)
(0.00101797 1.62103e-06 0)
(0.00101855 1.78332e-06 0)
(0.00101909 1.96192e-06 0)
(0.0010196 2.16176e-06 0)
(0.00102007 2.38072e-06 0)
(0.00102049 2.62595e-06 0)
(0.00102086 2.8929e-06 0)
(0.00102117 3.19188e-06 0)
(0.00102143 3.51478e-06 0)
(0.00102162 3.87707e-06 0)
(0.00102174 4.2647e-06 0)
(0.00102178 4.70134e-06 0)
(0.00102174 5.16342e-06 0)
(0.0010216 5.68759e-06 0)
(0.00102137 6.23499e-06 0)
(0.00102102 6.86283e-06 0)
(0.00102057 7.5076e-06 0)
(0.00101998 8.25937e-06 0)
(0.00101927 9.01466e-06 0)
(0.00101839 9.91629e-06 0)
(0.00101738 1.07959e-05 0)
(0.00101616 1.18814e-05 0)
(0.00101479 1.28983e-05 0)
(0.00101316 1.42129e-05 0)
(0.00101137 1.53746e-05 0)
(0.00100924 1.69742e-05 0)
(0.001 -6.12802e-08 0)
(0.00100005 -1.80129e-07 0)
(0.00100015 -2.95144e-07 0)
(0.00100029 -4.06063e-07 0)
(0.00100049 -5.12563e-07 0)
(0.00100073 -6.14307e-07 0)
(0.00100101 -7.10997e-07 0)
(0.00100134 -8.02377e-07 0)
(0.00100172 -8.88235e-07 0)
(0.00100214 -9.68362e-07 0)
(0.0010026 -1.04256e-06 0)
(0.00100309 -1.11062e-06 0)
(0.00100362 -1.17234e-06 0)
(0.00100419 -1.2275e-06 0)
(0.00100478 -1.27588e-06 0)
(0.00100541 -1.31722e-06 0)
(0.00100606 -1.35127e-06 0)
(0.00100674 -1.37766e-06 0)
(0.00100744 -1.39609e-06 0)
(0.00100816 -1.40609e-06 0)
(0.00100889 -1.40725e-06 0)
(0.00100964 -1.39893e-06 0)
(0.0010104 -1.38063e-06 0)
(0.00101117 -1.35149e-06 0)
(0.00101194 -1.31092e-06 0)
(0.00101272 -1.2578e-06 0)
(0.0010135 -1.1915e-06 0)
(0.00101428 -1.11058e-06 0)
(0.00101505 -1.01447e-06 0)
(0.00101581 -9.01313e-07 0)
(0.00101657 -7.70899e-07 0)
(0.00101731 -6.20639e-07 0)
(0.00101803 -4.50411e-07 0)
(0.00101873 -2.56818e-07 0)
(0.0010194 -4.03825e-08 0)
(0.00102005 2.03598e-07 0)
(0.00102067 4.73437e-07 0)
(0.00102126 7.75709e-07 0)
(0.00102181 1.10658e-06 0)
(0.00102232 1.47566e-06 0)
(0.00102278 1.87635e-06 0)
(0.00102319 2.32336e-06 0)
(0.00102355 2.80522e-06 0)
(0.00102384 3.34389e-06 0)
(0.00102408 3.91907e-06 0)
(0.00102423 4.56437e-06 0)
(0.00102432 5.24606e-06 0)
(0.00102432 6.01616e-06 0)
(0.00102424 6.81936e-06 0)
(0.00102406 7.73686e-06 0)
(0.00102378 8.67865e-06 0)
(0.00102338 9.77217e-06 0)
(0.00102287 1.08715e-05 0)
(0.00102221 1.21779e-05 0)
(0.00102145 1.34554e-05 0)
(0.00102049 1.5023e-05 0)
(0.00101941 1.64987e-05 0)
(0.00101809 1.83909e-05 0)
(0.00101663 2.00788e-05 0)
(0.00101485 2.23739e-05 0)
(0.001 -1.30087e-07 0)