/*--------------------------------*- C++ -*----------------------------------*\
| =========                 |                                                 |
| \\      /  F ield         | OpenFOAM: The Open Source CFD Toolbox           |
|  \\    /   O peration     | Version:  2312                                  |
|   \\  /    A nd           | Website:  www.openfoam.com                      |
|    \\/     M anipulation  |                                                 |
\*---------------------------------------------------------------------------*/
FoamFile
{
    version     2.0;
    format      ascii;
    arch        "LSB;label=32;scalar=64";
    class       volScalarField;
    location    "42000";
    object      p;
}
// * * * * * * * * * * * * * * * * * * * * * * * * * * * * * * * * * * * * * //

dimensions      [0 2 -2 0 0 0 0];

internalField   nonuniform List<scalar> 
2715
(
3.28196e-07
2.77649e-07
2.56765e-07
2.39199e-07
2.21615e-07
2.0386e-07
1.84063e-07
1.62891e-07
1.38214e-07
1.11637e-07
8.07544e-08
4.84123e-08
1.16884e-08
-2.51564e-08
-6.57462e-08
-1.04341e-07
-1.45797e-07
-1.82818e-07
-2.21834e-07
-2.54198e-07
-2.87646e-07
-3.12629e-07
-3.38566e-07
-3.54247e-07
-3.721e-07
-3.7734e-07
-3.90543e-07
-3.84358e-07
-4.00886e-07
-4.72226e-07
3.14313e-07
2.5921e-07
2.45321e-07
2.30322e-07
2.13412e-07
1.96066e-07
1.76582e-07
1.55557e-07
1.31079e-07
1.04858e-07
7.46111e-08
4.31272e-08
7.57955e-09
-2.79403e-08
-6.70045e-08
-1.04137e-07
-1.43811e-07
-1.79449e-07
-2.16753e-07
-2.48303e-07
-2.81213e-07
-3.05723e-07
-3.32501e-07
-3.47996e-07
-3.67941e-07
-3.72791e-07
-3.864e-07
-3.8582e-07
-3.82115e-07
-5.16107e-07
3.02132e-07
2.56749e-07
2.43909e-07
2.29386e-07
2.11986e-07
1.93645e-07
1.73644e-07
1.52272e-07
1.2775e-07
1.01396e-07
7.13844e-08
3.99984e-08
4.9978e-09
-3.01601e-08
-6.83807e-08
-1.04915e-07
-1.43771e-07
-1.79035e-07
-2.16149e-07
-2.47042e-07
-2.79837e-07
-3.04412e-07
-3.30791e-07
-3.47515e-07
-3.66497e-07
-3.76014e-07
-3.86342e-07
-3.9947e-07
-3.73778e-07
-4.74076e-07
2.91965e-07
2.52654e-07
2.37743e-07
2.23716e-07
2.0702e-07
1.89286e-07
1.69483e-07
1.47939e-07
1.23472e-07
9.69573e-08
6.72668e-08
3.58968e-08
1.62428e-09
-3.3323e-08
-7.04155e-08
-1.06727e-07
-1.44243e-07
-1.79402e-07
-2.14775e-07
-2.46333e-07
-2.77403e-07
-3.03911e-07
-3.2874e-07
-3.4899e-07
-3.65561e-07
-3.81594e-07
-3.85092e-07
-4.10567e-07
-3.75331e-07
-4.46714e-07
2.82155e-07
2.50071e-07
2.34289e-07
2.21388e-07
2.05257e-07
1.86729e-07
1.66411e-07
1.44291e-07
1.19785e-07
9.28474e-08
6.34049e-08
3.17377e-08
-1.85066e-09
-3.69406e-08
-7.28907e-08
-1.09335e-07
-1.45336e-07
-1.80865e-07
-2.14574e-07
-2.47386e-07
-2.76759e-07
-3.05405e-07
-3.2804e-07
-3.52568e-07
-3.65407e-07
-3.87929e-07
-3.85356e-07
-4.1383e-07
-3.86305e-07
-4.21575e-07
2.73575e-07
2.4835e-07
2.31729e-07
2.18362e-07
2.02502e-07
1.83872e-07
1.63376e-07
1.40755e-07
1.16136e-07
8.87336e-08
5.94292e-08
2.73859e-08
-5.6568e-09
-4.0996e-08
-7.59269e-08
-1.12612e-07
-1.47173e-07
-1.83228e-07
-2.15253e-07
-2.49199e-07
-2.76629e-07
-3.07459e-07
-3.28129e-07
-3.557e-07
-3.66874e-07
-3.91761e-07
-3.90235e-07
-4.13416e-07
-4.03088e-07
-4.16724e-07
2.66556e-07
2.46841e-07
2.30089e-07
2.15885e-07
2.00157e-07
1.81443e-07
1.60699e-07
1.3749e-07
1.12582e-07
8.46617e-08
5.53128e-08
2.28906e-08
-9.83834e-09
-4.53617e-08
-7.95676e-08
-1.16315e-07
-1.49826e-07
-1.86032e-07
-2.16911e-07
-2.51283e-07
-2.77831e-07
-3.09466e-07
-3.30022e-07
-3.58173e-07
-3.71014e-07
-3.94503e-07
-3.9923e-07
-4.15862e-07
-4.17427e-07
-4.23547e-07
2.6131e-07
2.45426e-07
2.29178e-07
2.14015e-07
1.98049e-07
1.79173e-07
1.58107e-07
1.34328e-07
1.08954e-07
8.05503e-08
5.09397e-08
1.82455e-08
-1.44645e-08
-4.99712e-08
-8.38519e-08
-1.20309e-07
-1.53324e-07
-1.8909e-07
-2.19609e-07
-2.53507e-07
-2.8033e-07
-3.11399e-07
-3.33497e-07
-3.60489e-07
-3.77047e-07
-3.97977e-07
-4.09036e-07
-4.21711e-07
-4.28778e-07
-4.34689e-07
2.57915e-07
2.44117e-07
2.28517e-07
2.12707e-07
1.96181e-07
1.76988e-07
1.555e-07
1.31189e-07
1.052e-07
7.6349e-08
4.62787e-08
1.34194e-08
-1.95314e-08
-5.48314e-08
-8.87296e-08
-1.24592e-07
-1.57567e-07
-1.92434e-07
-2.2318e-07
-2.55993e-07
-2.83743e-07
-3.13594e-07
-3.37713e-07
-3.63345e-07
-3.83158e-07
-4.02919e-07
-4.17774e-07
-4.30492e-07
-4.399e-07
-4.47336e-07
2.56131e-07
2.42975e-07
2.27932e-07
2.11767e-07
1.94514e-07
1.74823e-07
1.52783e-07
1.2796e-07
1.0126e-07
7.19715e-08
4.13111e-08
8.33535e-09
-2.50044e-08
-6.00087e-08
-9.40988e-08
-1.29238e-07
-1.62357e-07
-1.96177e-07
-2.27278e-07
-2.58916e-07
-2.87515e-07
-3.16311e-07
-3.41953e-07
-3.66982e-07
-3.88865e-07
-4.08905e-07
-4.25835e-07
-4.39951e-07
-4.51259e-07
-4.60699e-07
2.55493e-07
2.42142e-07
2.27313e-07
2.10907e-07
1.92918e-07
1.72594e-07
1.4988e-07
1.24516e-07
9.7071e-08
6.73186e-08
3.60194e-08
2.90226e-09
-3.0852e-08
-6.55858e-08
-9.98627e-08
-1.34327e-07
-1.67512e-07
-2.00397e-07
-2.31641e-07
-2.62343e-07
-2.91365e-07
-3.19554e-07
-3.46034e-07
-3.71114e-07
-3.94232e-07
-4.15173e-07
-4.33702e-07
-4.49538e-07
-4.62886e-07
-4.74398e-07
2.55434e-07
2.41658e-07
2.2667e-07
2.09932e-07
1.91222e-07
1.70188e-07
1.46716e-07
1.2075e-07
9.25566e-08
6.22902e-08
3.03602e-08
-2.96714e-09
-3.70874e-08
-7.16379e-08
-1.05998e-07
-1.39914e-07
-1.72983e-07
-2.05117e-07
-2.36213e-07
-2.66226e-07
-2.95273e-07
-3.23143e-07
-3.50017e-07
-3.75406e-07
-3.99433e-07
-4.21441e-07
-4.41481e-07
-4.59087e-07
-4.74528e-07
-4.883e-07
2.55552e-07
2.41386e-07
2.25962e-07
2.08713e-07
1.8927e-07
1.67485e-07
1.43215e-07
1.1657e-07
8.76255e-08
5.67877e-08
2.42493e-08
-9.36009e-09
-4.37871e-08
-7.82378e-08
-1.12574e-07
-1.46047e-07
-1.78835e-07
-2.10335e-07
-2.41071e-07
-2.705e-07
-2.99336e-07
-3.26948e-07
-3.54012e-07
-3.79715e-07
-4.04552e-07
-4.2758e-07
-4.49158e-07
-4.68453e-07
-4.86087e-07
-5.0206e-07
2.55602e-07
2.41119e-07
2.25105e-07
2.07187e-07
1.8697e-07
1.64395e-07
1.39295e-07
1.11891e-07
8.21742e-08
5.07016e-08
1.75674e-08
-1.63871e-08
-5.10764e-08
-8.54869e-08
-1.19718e-07
-1.52801e-07
-1.85198e-07
-2.16099e-07
-2.46332e-07
-2.75179e-07
-3.03647e-07
-3.30959e-07
-3.58066e-07
-3.84011e-07
-4.09557e-07
-4.3354e-07
-4.56613e-07
-4.77581e-07
-4.97403e-07
-5.15618e-07
2.55489e-07
2.40663e-07
2.24013e-07
2.05333e-07
1.84287e-07
1.60858e-07
1.34872e-07
1.06618e-07
7.60801e-08
4.38999e-08
1.01607e-08
-2.41932e-08
-5.91222e-08
-9.35271e-08
-1.27598e-07
-1.60299e-07
-1.9222e-07
-2.225e-07
-2.52116e-07
-2.80318e-07
-3.08275e-07
-3.35187e-07
-3.62181e-07
-3.88254e-07
-4.14362e-07
-4.39223e-07
-4.63697e-07
-4.86341e-07
-5.08342e-07
-5.28845e-07
2.55266e-07
2.39975e-07
2.22669e-07
2.03174e-07
1.8122e-07
1.56825e-07
1.29854e-07
1.00632e-07
6.91925e-08
3.62187e-08
1.84202e-09
-3.2962e-08
-6.81221e-08
-1.02536e-07
-1.36398e-07
-1.68695e-07
-2.00054e-07
-2.29649e-07
-2.58529e-07
-2.85979e-07
-3.13266e-07
-3.39631e-07
-3.66316e-07
-3.92361e-07
-4.18829e-07
-4.44458e-07
-4.70182e-07
-4.94502e-07
-5.18652e-07
-5.41542e-07
2.55109e-07
2.39138e-07
2.21117e-07
2.00736e-07
1.77749e-07
1.52223e-07
1.24109e-07
9.37683e-08
6.13182e-08
2.74518e-08
-7.61199e-09
-4.29118e-08
-7.8296e-08
-1.12714e-07
-1.46309e-07
-1.78148e-07
-2.08844e-07
-2.37658e-07
-2.65662e-07
-2.92212e-07
-3.18647e-07
-3.44265e-07
-3.70414e-07
-3.96202e-07
-4.22784e-07
-4.48994e-07
-4.75763e-07
-5.01716e-07
-5.27922e-07
-5.53376e-07
2.55269e-07
2.38318e-07
2.19406e-07
1.97976e-07
1.73762e-07
1.46888e-07
1.1743e-07
8.5795e-08
5.22034e-08
1.73407e-08
-1.84641e-08
-5.42925e-08
-8.98824e-08
-1.24274e-07
-1.57522e-07
-1.88823e-07
-2.18732e-07
-2.46638e-07
-2.73603e-07
-2.99074e-07
-3.24451e-07
-3.49069e-07
-3.74432e-07
-3.99641e-07
-4.26069e-07
-4.52526e-07
-4.80121e-07
-5.07482e-07
-5.35655e-07
-5.63649e-07
2.55869e-07
2.37627e-07
2.17492e-07
1.94705e-07
1.68992e-07
1.40522e-07
1.09505e-07
7.63928e-08
4.15222e-08
5.56691e-09
-3.10256e-08
-6.7393e-08
-1.03152e-07
-1.37459e-07
-1.70259e-07
-2.00918e-07
-2.29887e-07
-2.56744e-07
-2.8247e-07
-3.06672e-07
-3.30735e-07
-3.54087e-07
-3.78347e-07
-4.02606e-07
-4.28528e-07
-4.54779e-07
-4.82886e-07
-5.11226e-07
-5.41168e-07
-5.71379e-07
2.56684e-07
2.36888e-07
2.15052e-07
1.90493e-07
1.62971e-07
1.32664e-07
9.98816e-08
6.51222e-08
2.88412e-08
-8.28585e-09
-4.56976e-08
-8.25868e-08
-1.18459e-07
-1.52594e-07
-1.84829e-07
-2.14717e-07
-2.42579e-07
-2.68222e-07
-2.92477e-07
-3.15199e-07
-3.37633e-07
-3.59431e-07
-3.82176e-07
-4.05084e-07
-4.30007e-07
-4.55517e-07
-4.83637e-07
-5.12291e-07
-5.43599e-07
-5.7528e-07
2.56952e-07
2.35327e-07
2.11445e-07
1.84761e-07
1.55118e-07
1.22721e-07
8.7961e-08
5.13882e-08
1.35722e-08
-2.4789e-08
-6.3035e-08
-1.004e-07
-1.36307e-07
-1.7015e-07
-2.01684e-07
-2.30639e-07
-2.57216e-07
-2.8145e-07
-3.03977e-07
-3.24955e-07
-3.45382e-07
-3.6528e-07
-3.85984e-07
-4.07094e-07
-4.30331e-07
-4.54511e-07
-4.8185e-07
-5.10003e-07
-5.41865e-07
-5.73766e-07
2.56252e-07
2.32499e-07
2.06219e-07
1.7702e-07
1.44869e-07
1.10045e-07
7.30317e-08
3.44434e-08
-5.04738e-09
-4.47004e-08
-8.37785e-08
-1.21538e-07
-1.57362e-07
-1.90737e-07
-2.21396e-07
-2.49208e-07
-2.74314e-07
-2.9691e-07
-3.17464e-07
-3.36369e-07
-3.54378e-07
-3.71911e-07
-3.89964e-07
-4.0869e-07
-4.2938e-07
-4.51509e-07
-4.76913e-07
-5.03685e-07
-5.34737e-07
-5.65439e-07
2.54296e-07
2.279e-07
1.98737e-07
1.66517e-07
1.31356e-07
9.36701e-08
5.40587e-08
1.32235e-08
-2.80758e-08
-6.90455e-08
-1.08899e-07
-1.469e-07
-1.82439e-07
-2.1508e-07
-2.44604e-07
-2.70997e-07
-2.94417e-07
-3.15143e-07
-3.33536e-07
-3.50049e-07
-3.65259e-07
-3.79844e-07
-3.94586e-07
-4.10111e-07
-4.27275e-07
-4.46294e-07
-4.68339e-07
-4.92528e-07
-5.20948e-07
-5.49187e-07
2.50659e-07
2.20863e-07
1.8798e-07
1.51972e-07
1.13164e-07
7.21207e-08
2.95552e-08
-1.3737e-08
-5.69215e-08
-9.91555e-08
-1.39627e-07
-1.77612e-07
-2.12539e-07
-2.44056e-07
-2.72051e-07
-2.96636e-07
-3.1807e-07
-3.36683e-07
-3.5279e-07
-3.66721e-07
-3.7888e-07
-3.89943e-07
-4.007e-07
-4.12018e-07
-4.24556e-07
-4.38983e-07
-4.56065e-07
-4.75907e-07
-4.99618e-07
-5.24196e-07
2.43507e-07
2.09508e-07
1.71925e-07
1.31244e-07
8.80923e-08
4.31717e-08
-2.67913e-09
-4.85695e-08
-9.36102e-08
-1.3693e-07
-1.77714e-07
-2.15264e-07
-2.49078e-07
-2.78907e-07
-3.0478e-07
-3.26967e-07
-3.45895e-07
-3.61996e-07
-3.75604e-07
-3.86891e-07
-3.95976e-07
-4.03227e-07
-4.09453e-07
-4.15612e-07
-4.22439e-07
-4.30656e-07
-4.41067e-07
-4.54364e-07
-4.71337e-07
-4.90695e-07
2.28862e-07
1.89065e-07
1.45917e-07
9.97864e-08
5.15796e-08
2.40303e-09
-4.6767e-08
-9.50438e-08
-1.41552e-07
-1.85421e-07
-2.25857e-07
-2.6223e-07
-2.94152e-07
-3.21506e-07
-3.44456e-07
-3.63414e-07
-3.78974e-07
-3.91757e-07
-4.02235e-07
-4.10594e-07
-4.16742e-07
-4.20485e-07
-4.2222e-07
-4.22766e-07
-4.23173e-07
-4.24333e-07
-4.26935e-07
-4.31824e-07
-4.40514e-07
-4.52926e-07
2.12327e-07
1.65558e-07
1.13008e-07
5.81056e-08
2.94175e-09
-5.14734e-08
-1.04487e-07
-1.55385e-07
-2.03314e-07
-2.47396e-07
-2.86886e-07
-3.21308e-07
-3.50511e-07
-3.74645e-07
-3.9406e-07
-4.09174e-07
-4.20505e-07
-4.28652e-07
-4.34273e-07
-4.38067e-07
-4.40626e-07
-4.41771e-07
-4.40402e-07
-4.35937e-07
-4.29729e-07
-4.24553e-07
-4.20596e-07
-4.171e-07
-4.18177e-07
-4.25765e-07
1.49785e-07
9.37031e-08
3.61668e-08
-2.29142e-08
-8.24487e-08
-1.40835e-07
-1.96588e-07
-2.48505e-07
-2.95599e-07
-3.37085e-07
-3.72457e-07
-4.01636e-07
-4.25041e-07
-4.43537e-07
-4.58055e-07
-4.68888e-07
-4.75893e-07
-4.78629e-07
-4.76776e-07
-4.71227e-07
-4.65363e-07
-4.63283e-07
-4.62394e-07
-4.55901e-07
-4.43267e-07
-4.31952e-07
-4.26349e-07
-4.24095e-07
-4.22609e-07
-4.22676e-07
1.20012e-07
5.10511e-08
-2.34097e-08
-9.65708e-08
-1.65302e-07
-2.28975e-07
-2.87419e-07
-3.40032e-07
-3.85861e-07
-4.2401e-07
-4.53984e-07
-4.75955e-07
-4.90874e-07
-5.00584e-07
-5.07663e-07
-5.15187e-07
-5.24346e-07
-5.3063e-07
-5.26663e-07
-5.09842e-07
-4.86298e-07
-4.68238e-07
-4.6172e-07
-4.61988e-07
-4.60164e-07
-4.54467e-07
-4.47309e-07
-4.41741e-07
-4.39209e-07
-4.39646e-07
-1.19342e-07
-1.95734e-07
-2.72544e-07
-3.47846e-07
-4.17176e-07
-4.77222e-07
-5.26312e-07
-5.63683e-07
-5.88954e-07
-6.02126e-07
-6.03835e-07
-5.95623e-07
-5.79986e-07
-5.60579e-07
-5.41861e-07
-5.28501e-07
-5.22888e-07
-5.24475e-07
-5.2808e-07
-5.27337e-07
-5.20412e-07
-5.09469e-07
-4.95885e-07
-4.81512e-07
-4.68959e-07
-4.60277e-07
-4.55071e-07
-4.52538e-07
-4.52208e-07
-4.53373e-07
2.6901e-07
2.69752e-07
2.71196e-07
2.73231e-07
2.75382e-07
2.77041e-07
2.78082e-07
2.78509e-07
2.77754e-07
2.73973e-07
2.65131e-07
2.49898e-07
2.05483e-07
1.74855e-07
-3.86222e-08
-1.94965e-07
-2.71784e-07
-3.47098e-07
-4.16441e-07
-4.765e-07
-5.25602e-07
-5.62985e-07
-5.88267e-07
-6.01452e-07
-6.03175e-07
-5.94978e-07
-5.79359e-07
-5.59973e-07
-5.41278e-07
-5.2794e-07
-5.22345e-07
-5.23942e-07
-5.27547e-07
-5.26798e-07
-5.19873e-07
-5.08933e-07
-4.95356e-07
-4.80992e-07
-4.68453e-07
-4.59783e-07
-4.54583e-07
-4.52053e-07
-4.51725e-07
-4.52891e-07
5.18171e-08
-2.2705e-08
-9.59069e-08
-1.64666e-07
-2.28357e-07
-2.86814e-07
-3.39438e-07
-3.85274e-07
-4.23429e-07
-4.53407e-07
-4.75384e-07
-4.9031e-07
-5.00028e-07
-5.07116e-07
-5.14648e-07
-5.2381e-07
-5.30086e-07
-5.26108e-07
-5.09284e-07
-4.85752e-07
-4.67721e-07
-4.61228e-07
-4.61505e-07
-4.59679e-07
-4.53986e-07
-4.46833e-07
-4.41272e-07
-4.38746e-07
-4.39186e-07
9.45642e-08
3.68552e-08
-2.23065e-08
-8.18822e-08
-1.40289e-07
-1.96052e-07
-2.47974e-07
-2.9507e-07
-3.36556e-07
-3.7193e-07
-4.0111e-07
-4.24516e-07
-4.43014e-07
-4.57534e-07
-4.68367e-07
-4.75371e-07
-4.78107e-07
-4.76254e-07
-4.70709e-07
-4.64856e-07
-4.62786e-07
-4.61899e-07
-4.55405e-07
-4.4278e-07
-4.31486e-07
-4.25895e-07
-4.2364e-07
-4.22149e-07
-4.22216e-07
1.6544e-07
1.13165e-07
5.8394e-08
3.2983e-09
-5.10781e-08
-1.04067e-07
-1.54948e-07
-2.02865e-07
-2.46936e-07
-2.86419e-07
-3.20834e-07
-3.50032e-07
-3.74163e-07
-3.93575e-07
-4.08686e-07
-4.20016e-07
-4.28161e-07
-4.33782e-07
-4.37578e-07
-4.40139e-07
-4.41284e-07
-4.39915e-07
-4.35453e-07
-4.2925e-07
-4.24079e-07
-4.20119e-07
-4.16618e-07
-4.17694e-07
-4.25273e-07
1.88995e-07
1.45957e-07
9.99286e-08
5.18026e-08
2.68571e-09
-4.64406e-08
-9.46849e-08
-1.41168e-07
-1.85018e-07
-2.25439e-07
-2.61799e-07
-2.93711e-07
-3.21058e-07
-3.44002e-07
-3.62955e-07
-3.78512e-07
-3.91291e-07
-4.01767e-07
-4.10123e-07
-4.16268e-07
-4.20009e-07
-4.21742e-07
-4.22286e-07
-4.22689e-07
-4.23842e-07
-4.26432e-07
-4.31306e-07
-4.3998e-07
-4.52375e-07
2.09532e-07
1.7199e-07
1.31364e-07
8.82676e-08
4.33973e-08
-2.41083e-09
-4.82656e-08
-9.32769e-08
-1.36573e-07
-1.77337e-07
-2.1487e-07
-2.48671e-07
-2.78489e-07
-3.04353e-07
-3.26533e-07
-3.45455e-07
-3.6155e-07
-3.75154e-07
-3.86435e-07
-3.95515e-07
-4.02761e-07
-4.08981e-07
-4.15133e-07
-4.21949e-07
-4.30152e-07
-4.40546e-07
-4.53822e-07
-4.70772e-07
-4.90108e-07
2.20929e-07
1.88069e-07
1.52094e-07
1.13324e-07
7.23197e-08
2.97907e-08
-1.34686e-08
-5.66239e-08
-9.88325e-08
-1.39282e-07
-1.77248e-07
-2.12159e-07
-2.43663e-07
-2.71648e-07
-2.96223e-07
-3.17649e-07
-3.36255e-07
-3.52354e-07
-3.66278e-07
-3.78431e-07
-3.89487e-07
-4.00235e-07
-4.11543e-07
-4.24066e-07
-4.38478e-07
-4.55539e-07
-4.7536e-07
-4.99045e-07
-5.23599e-07
2.27986e-07
1.98839e-07
1.66644e-07
1.31511e-07
9.38557e-08
5.42747e-08
1.34688e-08
-2.78032e-08
-6.87481e-08
-1.08579e-07
-1.46561e-07
-1.82083e-07
-2.14709e-07
-2.4422e-07
-2.70602e-07
-2.94012e-07
-3.14729e-07
-3.33114e-07
-3.4962e-07
-3.64821e-07
-3.79398e-07
-3.94129e-07
-4.09643e-07
-4.26792e-07
-4.45795e-07
-4.67822e-07
-4.91991e-07
-5.20387e-07
-5.48602e-07
2.32596e-07
2.06329e-07
1.7715e-07
1.45021e-07
1.10223e-07
7.3235e-08
3.46727e-08
-4.79293e-09
-4.44222e-08
-8.34784e-08
-1.21218e-07
-1.57024e-07
-1.90384e-07
-2.21029e-07
-2.48829e-07
-2.73924e-07
-2.9651e-07
-3.17055e-07
-3.35952e-07
-3.53951e-07
-3.71475e-07
-3.89517e-07
-4.08232e-07
-4.28908e-07
-4.51024e-07
-4.76411e-07
-5.03168e-07
-5.34202e-07
-5.64886e-07
2.35429e-07
2.11559e-07
1.84892e-07
1.55268e-07
1.22892e-07
8.81554e-08
5.16059e-08
1.3813e-08
-2.45259e-08
-6.27506e-08
-1.00096e-07
-1.35985e-07
-1.69812e-07
-2.01332e-07
-2.30273e-07
-2.56839e-07
-2.81063e-07
-3.0358e-07
-3.24549e-07
-3.44966e-07
-3.64855e-07
-3.85548e-07
-4.06648e-07
-4.29874e-07
-4.54043e-07
-4.81371e-07
-5.09513e-07
-5.41367e-07
-5.73256e-07
2.36992e-07
2.15168e-07
1.90624e-07
1.63119e-07
1.32831e-07
1.00069e-07
6.53308e-08
2.90713e-08
-8.03464e-09
-4.54259e-08
-8.2296e-08
-1.1815e-07
-1.52269e-07
-1.84489e-07
-2.14364e-07
-2.42213e-07
-2.67847e-07
-2.92091e-07
-3.14804e-07
-3.37228e-07
-3.59017e-07
-3.81753e-07
-4.04652e-07
-4.29567e-07
-4.55069e-07
-4.83183e-07
-5.11833e-07
-5.4314e-07
-5.7482e-07
2.37733e-07
2.17608e-07
1.94835e-07
1.69138e-07
1.40685e-07
1.09686e-07
7.6594e-08
4.17435e-08
5.80828e-09
-3.07645e-08
-6.71133e-08
-1.02854e-07
-1.37146e-07
-1.6993e-07
-2.00576e-07
-2.29533e-07
-2.56379e-07
-2.82094e-07
-3.06287e-07
-3.30342e-07
-3.53685e-07
-3.77938e-07
-4.02189e-07
-4.28107e-07
-4.54353e-07
-4.8246e-07
-5.10801e-07
-5.4075e-07
-5.70968e-07
2.38423e-07
2.19521e-07
1.98104e-07
1.73905e-07
1.47047e-07
1.17607e-07
8.59898e-08
5.24173e-08
1.75738e-08
-1.82121e-08
-5.40222e-08
-8.95948e-08
-1.23971e-07
-1.57203e-07
-1.88491e-07
-2.18387e-07
-2.46282e-07
-2.73237e-07
-2.987e-07
-3.24068e-07
-3.48679e-07
-3.74036e-07
-3.9924e-07
-4.25666e-07
-4.52122e-07
-4.79722e-07
-5.0709e-07
-5.35274e-07
-5.63282e-07
2.39243e-07
2.21231e-07
2.00862e-07
1.77889e-07
1.52379e-07
1.24281e-07
9.39576e-08
6.15256e-08
2.76777e-08
-7.36779e-09
-4.26498e-08
-7.8017e-08
-1.12419e-07
-1.45999e-07
-1.77824e-07
-2.08509e-07
-2.37311e-07
-2.65306e-07
-2.91848e-07
-3.18275e-07
-3.43887e-07
-3.70032e-07
-3.95818e-07
-4.22401e-07
-4.48614e-07
-4.75391e-07
-5.01355e-07
-5.27576e-07
-5.53049e-07
2.40078e-07
2.22781e-07
2.03299e-07
1.81358e-07
1.56977e-07
1.30022e-07
1.00816e-07
6.93943e-08
3.64384e-08
2.07939e-09
-3.27071e-08
-6.78507e-08
-1.02249e-07
-1.36097e-07
-1.68379e-07
-1.99727e-07
-2.29311e-07
-2.58182e-07
-2.85624e-07
-3.12904e-07
-3.39265e-07
-3.65948e-07
-3.91993e-07
-4.18464e-07
-4.44099e-07
-4.69835e-07
-4.9417e-07
-5.18339e-07
-5.41251e-07
2.40764e-07
2.24124e-07
2.05456e-07
1.84423e-07
1.61007e-07
1.35036e-07
1.06798e-07
7.62769e-08
4.41141e-08
1.03921e-08
-2.39447e-08
-5.88576e-08
-9.32466e-08
-1.27304e-07
-1.59991e-07
-1.919e-07
-2.22169e-07
-2.51777e-07
-2.79972e-07
-3.07924e-07
-3.34832e-07
-3.61826e-07
-3.87901e-07
-4.14015e-07
-4.38885e-07
-4.63374e-07
-4.86035e-07
-5.08059e-07
-5.28585e-07
2.41218e-07
2.25214e-07
2.07307e-07
1.87103e-07
1.64541e-07
1.39455e-07
1.12067e-07
8.23665e-08
5.09107e-08
1.77932e-08
-1.61444e-08
-5.08178e-08
-8.52126e-08
-1.1943e-07
-1.52499e-07
-1.84885e-07
-2.15776e-07
-2.46001e-07
-2.74841e-07
-3.03305e-07
-3.30615e-07
-3.57725e-07
-3.83672e-07
-4.09227e-07
-4.33222e-07
-4.56312e-07
-4.773e-07
-4.97147e-07
-5.15388e-07
2.41484e-07
2.26069e-07
2.08831e-07
1.894e-07
1.67628e-07
1.43372e-07
1.16742e-07
8.78134e-08
5.69922e-08
2.44702e-08
-9.12261e-09
-4.35339e-08
-7.79692e-08
-1.12291e-07
-1.45751e-07
-1.78529e-07
-2.10019e-07
-2.40747e-07
-2.7017e-07
-2.99004e-07
-3.26615e-07
-3.53682e-07
-3.7939e-07
-4.04238e-07
-4.2728e-07
-4.48878e-07
-4.68194e-07
-4.85856e-07
-5.01858e-07
2.41753e-07
2.26775e-07
2.10047e-07
1.91349e-07
1.70328e-07
1.4687e-07
1.20919e-07
9.27405e-08
6.24903e-08
3.05766e-08
-2.73454e-09
-3.68393e-08
-7.13746e-08
-1.05722e-07
-1.39624e-07
-1.72683e-07
-2.04807e-07
-2.35897e-07
-2.65904e-07
-2.9495e-07
-3.2282e-07
-3.49699e-07
-3.75094e-07
-3.99134e-07
-4.21158e-07
-4.41219e-07
-4.58849e-07
-4.7432e-07
-4.88122e-07
2.42235e-07
2.27415e-07
2.1102e-07
1.93043e-07
1.72731e-07
1.50031e-07
1.24681e-07
9.72512e-08
6.75145e-08
3.62315e-08
3.1303e-09
-3.06084e-08
-6.53274e-08
-9.95907e-08
-1.34042e-07
-1.67217e-07
-2.00093e-07
-2.31331e-07
-2.62029e-07
-2.9105e-07
-3.19241e-07
-3.45727e-07
-3.70816e-07
-3.93948e-07
-4.14906e-07
-4.33457e-07
-4.49319e-07
-4.62698e-07
-4.74241e-07
2.43066e-07
2.28033e-07
2.11878e-07
1.94635e-07
1.74957e-07
1.52931e-07
1.28121e-07
1.01437e-07
7.21636e-08
4.15192e-08
8.55913e-09
-2.47651e-08
-5.97548e-08
-9.38313e-08
-1.28958e-07
-1.62067e-07
-1.95878e-07
-2.26974e-07
-2.58608e-07
-2.87208e-07
-3.16006e-07
-3.41656e-07
-3.66696e-07
-3.88594e-07
-4.08653e-07
-4.25606e-07
-4.39749e-07
-4.51088e-07
-4.6056e-07
2.44205e-07
2.28615e-07
2.12815e-07
1.963e-07
1.77119e-07
1.55643e-07
1.31347e-07
1.05373e-07
7.65373e-08
4.64831e-08
1.36392e-08
-1.92959e-08
-5.45817e-08
-8.8466e-08
-1.24317e-07
-1.57282e-07
-1.92141e-07
-2.22881e-07
-2.55693e-07
-2.83442e-07
-3.13299e-07
-3.37425e-07
-3.63069e-07
-3.82898e-07
-4.0268e-07
-4.17559e-07
-4.30304e-07
-4.39743e-07
-4.4721e-07
2.45513e-07
2.29273e-07
2.1412e-07
1.98164e-07
1.79301e-07
1.58248e-07
1.34483e-07
1.09123e-07
8.07351e-08
5.11406e-08
1.84617e-08
-1.42325e-08
-4.97252e-08
-8.3592e-08
-1.20038e-07
-1.53042e-07
-1.88802e-07
-2.19315e-07
-2.53212e-07
-2.80036e-07
-3.11112e-07
-3.33218e-07
-3.60223e-07
-3.76798e-07
-3.97749e-07
-4.08833e-07
-4.21535e-07
-4.28631e-07
-4.34572e-07
2.46925e-07
2.30182e-07
2.15987e-07
2.0027e-07
1.81567e-07
1.60837e-07
1.37641e-07
1.12748e-07
8.48433e-08
5.55105e-08
2.31036e-08
-9.60955e-09
-4.5119e-08
-7.93108e-08
-1.16048e-07
-1.49548e-07
-1.85748e-07
-2.16621e-07
-2.50995e-07
-2.77543e-07
-3.09185e-07
-3.29749e-07
-3.57918e-07
-3.70774e-07
-3.94286e-07
-3.99037e-07
-4.15694e-07
-4.1729e-07
-4.23437e-07
2.48431e-07
2.3182e-07
2.18462e-07
2.02612e-07
1.83993e-07
1.6351e-07
1.40904e-07
1.163e-07
8.89121e-08
5.96238e-08
2.75959e-08
-5.4309e-09
-4.07561e-08
-7.5673e-08
-1.12347e-07
-1.46898e-07
-1.82947e-07
-2.14967e-07
-2.48916e-07
-2.76347e-07
-3.07185e-07
-3.27863e-07
-3.55453e-07
-3.6664e-07
-3.91553e-07
-3.90048e-07
-4.13257e-07
-4.02958e-07
-4.16617e-07
2.5015e-07
2.34377e-07
2.21485e-07
2.05364e-07
1.86848e-07
1.66543e-07
1.44436e-07
1.19946e-07
9.30231e-08
6.35967e-08
3.19452e-08
-1.62732e-09
-3.6703e-08
-7.26393e-08
-1.09072e-07
-1.45063e-07
-1.80587e-07
-2.14292e-07
-2.47105e-07
-2.76483e-07
-3.05135e-07
-3.27781e-07
-3.52328e-07
-3.65181e-07
-3.87729e-07
-3.85175e-07
-4.13678e-07
-3.86181e-07
-4.21472e-07
2.52731e-07
2.37829e-07
2.23811e-07
2.07125e-07
1.89402e-07
1.69612e-07
1.48081e-07
1.2363e-07
9.71304e-08
6.74561e-08
3.61022e-08
1.84547e-09
-3.30871e-08
-7.01659e-08
-1.06466e-07
-1.43972e-07
-1.79126e-07
-2.14496e-07
-2.46054e-07
-2.77126e-07
-3.03645e-07
-3.28487e-07
-3.48755e-07
-3.65343e-07
-3.81399e-07
-3.84918e-07
-4.10423e-07
-3.75212e-07
-4.46615e-07
2.56822e-07
2.4399e-07
2.29476e-07
2.12086e-07
1.93757e-07
1.73769e-07
1.52411e-07
1.27904e-07
1.01567e-07
7.15712e-08
4.02016e-08
5.21704e-09
-2.99256e-08
-6.81326e-08
-1.04655e-07
-1.43502e-07
-1.78759e-07
-2.15871e-07
-2.46765e-07
-2.79566e-07
-3.0415e-07
-3.30543e-07
-3.47283e-07
-3.66286e-07
-3.75826e-07
-3.86177e-07
-3.99334e-07
-3.73667e-07
-4.73996e-07
2.59281e-07
2.45401e-07
2.3041e-07
2.13511e-07
1.96176e-07
1.76705e-07
1.55694e-07
1.31231e-07
1.05027e-07
7.47963e-08
4.33292e-08
7.79775e-09
-2.77065e-08
-6.67572e-08
-1.03878e-07
-1.43543e-07
-1.79174e-07
-2.16478e-07
-2.48027e-07
-2.80942e-07
-3.05463e-07
-3.32256e-07
-3.47765e-07
-3.67734e-07
-3.72603e-07
-3.8624e-07
-3.85685e-07
-3.82009e-07
-5.16049e-07
2.77714e-07
2.56839e-07
2.39282e-07
2.21708e-07
2.03965e-07
1.84182e-07
1.63024e-07
1.38363e-07
1.11802e-07
8.09367e-08
4.86121e-08
1.19051e-08
-2.49235e-08
-6.54992e-08
-1.04082e-07
-1.45529e-07
-1.82543e-07
-2.21557e-07
-2.53922e-07
-2.87379e-07
-3.12373e-07
-3.38327e-07
-3.54025e-07
-3.71902e-07
-3.77165e-07
-3.90398e-07
-3.84237e-07
-4.00799e-07
-4.72185e-07
-4.55323e-07
-4.43377e-07
-4.31021e-07
-4.42732e-07
-4.73986e-07
-5.16091e-07
-5.53574e-07
-5.81649e-07
-5.99725e-07
-6.0842e-07
-6.0915e-07
-6.03743e-07
-5.93902e-07
-5.81233e-07
-5.66933e-07
-5.51628e-07
-5.35727e-07
-5.19458e-07
-5.03009e-07
-4.86727e-07
-4.70773e-07
-4.55628e-07
-4.41696e-07
-4.29479e-07
-4.19955e-07
-4.11712e-07
-4.00594e-07
-3.72004e-07
-3.22894e-07
-2.69611e-07
-4.58042e-07
-4.49174e-07
-4.41627e-07
-4.51359e-07
-4.81767e-07
-5.24188e-07
-5.67778e-07
-6.03432e-07
-6.28259e-07
-6.42368e-07
-6.46621e-07
-6.4262e-07
-6.32751e-07
-6.1909e-07
-6.03281e-07
-5.86348e-07
-5.68737e-07
-5.50879e-07
-5.32774e-07
-5.14683e-07
-4.96913e-07
-4.79504e-07
-4.63182e-07
-4.47197e-07
-4.31732e-07
-4.15604e-07
-3.99431e-07
-3.86272e-07
-3.74331e-07
-3.63224e-07
-4.60966e-07
-4.56e-07
-4.55584e-07
-4.69971e-07
-4.98383e-07
-5.36646e-07
-5.79163e-07
-6.18909e-07
-6.50846e-07
-6.72592e-07
-6.84066e-07
-6.85861e-07
-6.79511e-07
-6.6719e-07
-6.50861e-07
-6.32529e-07
-6.13173e-07
-5.93436e-07
-5.73847e-07
-5.54199e-07
-5.35019e-07
-5.15714e-07
-4.96716e-07
-4.77715e-07
-4.5871e-07
-4.40786e-07
-4.23425e-07
-4.08113e-07
-3.88237e-07
-3.63523e-07
-4.64039e-07
-4.63305e-07
-4.70641e-07
-4.90373e-07
-5.20314e-07
-5.56345e-07
-5.96234e-07
-6.35779e-07
-6.70991e-07
-6.9892e-07
-7.17734e-07
-7.27306e-07
-7.27874e-07
-7.20701e-07
-7.07235e-07
-6.89234e-07
-6.68702e-07
-6.46518e-07
-6.24128e-07
-6.01541e-07
-5.7931e-07
-5.57658e-07
-5.36081e-07
-5.15383e-07
-4.94519e-07
-4.74878e-07
-4.54607e-07
-4.34495e-07
-4.1231e-07
-3.90188e-07
-4.66953e-07
-4.70275e-07
-4.84986e-07
-5.10509e-07
-5.43524e-07
-5.80706e-07
-6.18774e-07
-6.56886e-07
-6.9241e-07
-7.2308e-07
-7.47044e-07
-7.63174e-07
-7.71116e-07
-7.70901e-07
-7.63663e-07
-7.49857e-07
-7.3144e-07
-7.09227e-07
-6.84858e-07
-6.5937e-07
-6.33227e-07
-6.07579e-07
-5.81939e-07
-5.57716e-07
-5.33911e-07
-5.11345e-07
-4.88964e-07
-4.67234e-07
-4.46475e-07
-4.27489e-07
-4.68937e-07
-4.75708e-07
-4.96731e-07
-5.27574e-07
-5.64282e-07
-6.03566e-07
-6.43072e-07
-6.80767e-07
-7.16227e-07
-7.47536e-07
-7.74036e-07
-7.94047e-07
-8.07581e-07
-8.13729e-07
-8.13055e-07
-8.05558e-07
-7.92309e-07
-7.7395e-07
-7.51435e-07
-7.26063e-07
-6.98433e-07
-6.69966e-07
-6.40939e-07
-6.12384e-07
-5.84247e-07
-5.57039e-07
-5.30904e-07
-5.06264e-07
-4.8343e-07
-4.62959e-07
-4.68709e-07
-4.78094e-07
-5.04198e-07
-5.39526e-07
-5.79982e-07
-6.22254e-07
-6.64078e-07
-7.03847e-07
-7.40086e-07
-7.72283e-07
-8.00072e-07
-8.22445e-07
-8.39211e-07
-8.49846e-07
-8.54292e-07
-8.5263e-07
-8.45113e-07
-8.32244e-07
-8.14499e-07
-7.92668e-07
-7.67416e-07
-7.39668e-07
-7.1012e-07
-6.79579e-07
-6.48607e-07
-6.1788e-07
-5.87762e-07
-5.58849e-07
-5.3124e-07
-5.0585e-07
-4.64744e-07
-4.76024e-07
-5.06038e-07
-5.44938e-07
-5.88821e-07
-6.34182e-07
-6.7879e-07
-7.21215e-07
-7.59794e-07
-7.94327e-07
-8.23525e-07
-8.48141e-07
-8.67112e-07
-8.80797e-07
-8.88775e-07
-8.91398e-07
-8.88581e-07
-8.80704e-07
-8.6801e-07
-8.50958e-07
-8.29974e-07
-8.05663e-07
-7.78548e-07
-7.49361e-07
-7.18619e-07
-6.87069e-07
-6.5513e-07
-6.2348e-07
-5.92624e-07
-5.63494e-07
-4.5577e-07
-4.68765e-07
-5.01493e-07
-5.43145e-07
-5.89867e-07
-6.38003e-07
-6.85385e-07
-7.30442e-07
-7.71692e-07
-8.09066e-07
-8.409e-07
-8.68062e-07
-8.89205e-07
-9.05595e-07
-9.1637e-07
-9.22156e-07
-9.22785e-07
-9.18754e-07
-9.10102e-07
-8.97276e-07
-8.80446e-07
-8.60094e-07
-8.36539e-07
-8.10303e-07
-7.81889e-07
-7.51775e-07
-7.20658e-07
-6.88923e-07
-6.57578e-07
-6.27003e-07
-4.41315e-07
-4.56177e-07
-4.90607e-07
-5.34301e-07
-5.83174e-07
-6.33565e-07
-6.8325e-07
-7.30576e-07
-7.74309e-07
-8.13998e-07
-8.48391e-07
-8.78158e-07
-9.02092e-07
-9.21037e-07
-9.34331e-07
-9.42855e-07
-9.46271e-07
-9.45156e-07
-9.39578e-07
-9.29887e-07
-9.16429e-07
-8.99291e-07
-8.79059e-07
-8.55728e-07
-8.3014e-07
-8.02212e-07
-7.73018e-07
-7.42399e-07
-7.11629e-07
-6.80477e-07
-4.22238e-07
-4.38868e-07
-4.74414e-07
-5.19465e-07
-5.69771e-07
-6.2172e-07
-6.73048e-07
-7.2208e-07
-7.67687e-07
-8.09117e-07
-8.45728e-07
-8.77348e-07
-9.03591e-07
-9.24729e-07
-9.40168e-07
-9.5102e-07
-9.56731e-07
-9.57911e-07
-9.54684e-07
-9.47231e-07
-9.36298e-07
-9.21371e-07
-9.03694e-07
-8.82497e-07
-8.59221e-07
-8.33063e-07
-8.05601e-07
-7.76032e-07
-7.45964e-07
-7.1459e-07
-4.00664e-07
-4.18684e-07
-4.54984e-07
-5.0078e-07
-5.51834e-07
-6.04609e-07
-6.56849e-07
-7.06882e-07
-7.53584e-07
-7.96152e-07
-8.34049e-07
-8.66957e-07
-8.9467e-07
-9.17155e-07
-9.34384e-07
-9.46611e-07
-9.53893e-07
-9.56607e-07
-9.55028e-07
-9.49292e-07
-9.39962e-07
-9.26352e-07
-9.10309e-07
-8.90348e-07
-8.68559e-07
-8.43399e-07
-8.17056e-07
-7.87967e-07
-7.58541e-07
-7.26804e-07
-3.79725e-07
-3.98618e-07
-4.35356e-07
-4.81398e-07
-5.3262e-07
-5.85588e-07
-6.38078e-07
-6.88433e-07
-7.35527e-07
-7.78555e-07
-8.16982e-07
-8.50464e-07
-8.78815e-07
-9.01973e-07
-9.19979e-07
-9.32962e-07
-9.41068e-07
-9.44517e-07
-9.43535e-07
-9.38374e-07
-9.29344e-07
-9.16824e-07
-9.01142e-07
-8.82253e-07
-8.60684e-07
-8.36286e-07
-8.1031e-07
-7.80893e-07
-7.52842e-07
-7.19043e-07
-3.62941e-07
-3.82297e-07
-4.19161e-07
-4.65108e-07
-5.16127e-07
-5.68881e-07
-6.21187e-07
-6.71403e-07
-7.18404e-07
-7.61384e-07
-7.99808e-07
-8.33326e-07
-8.61751e-07
-8.85018e-07
-9.03162e-07
-9.1629e-07
-9.24566e-07
-9.28194e-07
-9.27392e-07
-9.22393e-07
-9.13442e-07
-9.00799e-07
-8.84724e-07
-8.65498e-07
-8.43664e-07
-8.19409e-07
-7.92956e-07
-7.64328e-07
-7.34047e-07
-7.02406e-07
-3.53525e-07
-3.73043e-07
-4.0985e-07
-4.5558e-07
-5.06293e-07
-5.58715e-07
-6.10693e-07
-6.60597e-07
-7.07305e-07
-7.50007e-07
-7.88167e-07
-8.21435e-07
-8.49625e-07
-8.72668e-07
-8.90592e-07
-9.03499e-07
-9.11551e-07
-9.14942e-07
-9.13897e-07
-9.08668e-07
-8.99523e-07
-8.86727e-07
-8.70547e-07
-8.51269e-07
-8.29181e-07
-8.04528e-07
-7.77606e-07
-7.48875e-07
-7.18715e-07
-6.87542e-07
-3.53459e-07
-3.72976e-07
-4.09778e-07
-4.55499e-07
-5.06203e-07
-5.58616e-07
-6.10584e-07
-6.6048e-07
-7.0718e-07
-7.49876e-07
-7.8803e-07
-8.21297e-07
-8.49489e-07
-8.72536e-07
-8.90466e-07
-9.0338e-07
-9.11439e-07
-9.1484e-07
-9.13806e-07
-9.08589e-07
-8.99457e-07
-8.86676e-07
-8.70514e-07
-8.51262e-07
-8.29205e-07
-8.0459e-07
-7.77731e-07
-7.48948e-07
-7.18778e-07
-6.87612e-07
-3.62746e-07
-3.821e-07
-4.18949e-07
-4.64874e-07
-5.15867e-07
-5.68595e-07
-6.20876e-07
-6.7107e-07
-7.18053e-07
-7.61019e-07
-7.99433e-07
-8.32948e-07
-8.61376e-07
-8.84652e-07
-9.02809e-07
-9.15955e-07
-9.24253e-07
-9.27907e-07
-9.27135e-07
-9.22168e-07
-9.13253e-07
-9.00645e-07
-8.84592e-07
-8.65361e-07
-8.43558e-07
-8.19326e-07
-7.92865e-07
-7.64361e-07
-7.34169e-07
-7.02595e-07
-3.79417e-07
-3.98308e-07
-4.35023e-07
-4.81032e-07