/*--------------------------------*- C++ -*----------------------------------*\
| =========                 |                                                 |
| \\      /  F ield         | OpenFOAM: The Open Source CFD Toolbox           |
|  \\    /   O peration     | Version:  2312                                  |
|   \\  /    A nd           | Website:  www.openfoam.com                      |
|    \\/     M anipulation  |                                                 |
\*---------------------------------------------------------------------------*/
FoamFile
{
    version     2.0;
    format      ascii;
    arch        "LSB;label=32;scalar=64";
    class       volVectorField;
    location    "86000";
    object      U;
}
// * * * * * * * * * * * * * * * * * * * * * * * * * * * * * * * * * * * * * //

dimensions      [0 1 -1 0 0 0 0];

internalField   nonuniform List<vector> 
10800
(
(0.000992484 4.9418e-06 0)
(0.000990038 1.24575e-05 0)
(0.000986873 1.74787e-05 0)
(0.000980501 2.06622e-05 0)
(0.000971089 2.27451e-05 0)
(0.0009598 2.42386e-05 0)
(0.000947701 2.53775e-05 0)
(0.000935325 2.62366e-05 0)
(0.000922817 2.68403e-05 0)
(0.000910154 2.72135e-05 0)
(0.000897292 2.7394e-05 0)
(0.000884225 2.74247e-05 0)
(0.000870992 2.73435e-05 0)
(0.000857647 2.71786e-05 0)
(0.000844242 2.69482e-05 0)
(0.000830814 2.66638e-05 0)
(0.000817391 2.63334e-05 0)
(0.000803989 2.59637e-05 0)
(0.000790624 2.55602e-05 0)
(0.000777312 2.51276e-05 0)
(0.000764067 2.46698e-05 0)
(0.000750905 2.41898e-05 0)
(0.00073784 2.36898e-05 0)
(0.000724886 2.31715e-05 0)
(0.000712056 2.2636e-05 0)
(0.000699362 2.20847e-05 0)
(0.000686819 2.15176e-05 0)
(0.000674436 2.09364e-05 0)
(0.000662229 2.03403e-05 0)
(0.000650208 1.97312e-05 0)
(0.000638386 1.91077e-05 0)
(0.000626776 1.84723e-05 0)
(0.000615392 1.78224e-05 0)
(0.000604243 1.71622e-05 0)
(0.000593345 1.64871e-05 0)
(0.000582707 1.58038e-05 0)
(0.000572347 1.51047e-05 0)
(0.000562269 1.44007e-05 0)
(0.000552498 1.3679e-05 0)
(0.000543028 1.29576e-05 0)
(0.000533897 1.22147e-05 0)
(0.00052508 1.14803e-05 0)
(0.000516644 1.0717e-05 0)
(0.000508518 9.97537e-06 0)
(0.000500837 9.19099e-06 0)
(0.000493424 8.44931e-06 0)
(0.000486585 7.63989e-06 0)
(0.000479865 6.90508e-06 0)
(0.000474027 6.06174e-06 0)
(0.000467858 5.33234e-06 0)
(0.0004634 4.44638e-06 0)
(0.000457276 3.6754e-06 0)
(0.000455254 2.78483e-06 0)
(0.000447538 1.72394e-06 0)
(0.000451084 1.1544e-06 0)
(0.000436702 -1.25994e-06 0)
(0.000455111 1.13293e-07 0)
(0.000419149 -7.7239e-06 0)
(0.000477491 2.03174e-06 0)
(0.000382766 -2.44872e-05 0)
(0.00100003 5.80193e-06 0)
(0.00100172 1.49918e-05 0)
(0.00100423 2.15218e-05 0)
(0.00100706 2.60841e-05 0)
(0.00100979 2.94415e-05 0)
(0.00101219 3.21221e-05 0)
(0.00101421 3.43737e-05 0)
(0.00101589 3.62826e-05 0)
(0.00101726 3.78816e-05 0)
(0.00101837 3.92012e-05 0)
(0.00101923 4.02827e-05 0)
(0.00101982 4.1172e-05 0)
(0.00102014 4.19097e-05 0)
(0.0010202 4.25257e-05 0)
(0.00102001 4.30402e-05 0)
(0.00101958 4.34657e-05 0)
(0.00101892 4.3811e-05 0)
(0.00101805 4.40826e-05 0)
(0.00101699 4.42864e-05 0)
(0.00101573 4.44268e-05 0)
(0.00101429 4.45076e-05 0)
(0.00101267 4.45315e-05 0)
(0.0010109 4.45004e-05 0)
(0.00100897 4.44153e-05 0)
(0.00100691 4.42776e-05 0)
(0.0010047 4.40869e-05 0)
(0.00100238 4.38445e-05 0)
(0.000999926 4.35489e-05 0)
(0.000997396 4.32021e-05 0)
(0.000994729 4.28009e-05 0)
(0.000992028 4.2349e-05 0)
(0.000989182 4.18404e-05 0)
(0.000986355 4.12824e-05 0)
(0.000983358 4.06643e-05 0)
(0.000980459 3.99997e-05 0)
(0.000977333 3.9269e-05 0)
(0.000974426 3.84984e-05 0)
(0.000971181 3.76517e-05 0)
(0.000968348 3.67775e-05 0)
(0.000964975 3.58098e-05 0)
(0.00096233 3.48379e-05 0)
(0.000958782 3.37411e-05 0)
(0.000956488 3.26826e-05 0)
(0.000952657 3.14426e-05 0)
(0.000950968 3.03173e-05 0)
(0.000946627 2.89082e-05 0)
(0.000945948 2.77506e-05 0)
(0.000940676 2.61246e-05 0)
(0.000941672 2.49935e-05 0)
(0.000934696 2.30638e-05 0)
(0.000938483 2.20589e-05 0)
(0.00092842 1.96706e-05 0)
(0.000936879 1.89577e-05 0)
(0.000921282 1.58473e-05 0)
(0.000937602 1.5687e-05 0)
(0.000912173 1.14435e-05 0)
(0.000941774 1.21698e-05 0)
(0.000899053 6.32255e-06 0)
(0.000951293 7.95803e-06 0)
(0.000878774 9.00873e-07 0)
(0.000999989 1.96243e-06 0)
(0.00100078 5.76367e-06 0)
(0.00100224 9.28853e-06 0)
(0.00100423 1.24531e-05 0)
(0.00100654 1.52547e-05 0)
(0.00100897 1.77385e-05 0)
(0.00101139 1.99591e-05 0)
(0.00101376 2.19596e-05 0)
(0.00101607 2.37672e-05 0)
(0.00101833 2.53986e-05 0)
(0.00102055 2.6867e-05 0)
(0.00102272 2.81858e-05 0)
(0.00102484 2.93694e-05 0)
(0.00102689 3.04315e-05 0)
(0.00102887 3.13847e-05 0)
(0.00103079 3.22387e-05 0)
(0.00103264 3.30017e-05 0)
(0.00103442 3.36793e-05 0)
(0.00103615 3.42771e-05 0)
(0.00103781 3.47983e-05 0)
(0.00103942 3.52476e-05 0)
(0.00104097 3.56261e-05 0)
(0.00104247 3.59381e-05 0)
(0.0010439 3.61826e-05 0)
(0.00104529 3.63639e-05 0)
(0.00104661 3.64788e-05 0)
(0.00104791 3.6533e-05 0)
(0.00104912 3.65198e-05 0)
(0.00105033 3.64478e-05 0)
(0.00105143 3.63059e-05 0)
(0.00105256 3.61074e-05 0)
(0.00105356 3.58347e-05 0)
(0.00105462 3.55087e-05 0)
(0.0010555 3.51016e-05 0)
(0.00105652 3.46469e-05 0)
(0.00105729 3.4101e-05 0)
(0.00105828 3.35171e-05 0)
(0.00105892 3.28271e-05 0)
(0.00105993 3.21145e-05 0)
(0.0010604 3.12739e-05 0)
(0.0010615 3.04352e-05 0)
(0.00106177 2.9436e-05 0)
(0.00106303 2.84766e-05 0)
(0.00106301 2.73087e-05 0)
(0.00106457 2.62378e-05 0)
(0.00106414 2.48885e-05 0)
(0.00106619 2.37204e-05 0)
(0.00106513 2.21737e-05 0)
(0.00106798 2.09293e-05 0)
(0.00106597 1.91671e-05 0)
(0.00107003 1.78759e-05 0)
(0.00106656 1.58823e-05 0)
(0.00107249 1.45831e-05 0)
(0.00106676 1.23579e-05 0)
(0.00107556 1.11009e-05 0)
(0.00106633 8.69634e-06 0)
(0.0010795 7.54322e-06 0)
(0.0010649 5.15959e-06 0)
(0.00108473 4.14074e-06 0)
(0.001062 2.2827e-06 0)
(0.00100001 1.74143e-06 0)
(0.00100047 5.15884e-06 0)
(0.00100128 8.41949e-06 0)
(0.00100239 1.14471e-05 0)
(0.00100374 1.42007e-05 0)
(0.00100526 1.66775e-05 0)
(0.00100689 1.88991e-05 0)
(0.00100858 2.08953e-05 0)
(0.00101033 2.26932e-05 0)
(0.00101212 2.43134e-05 0)
(0.00101394 2.57718e-05 0)
(0.00101578 2.70809e-05 0)
(0.00101764 2.82534e-05 0)
(0.00101952 2.93009e-05 0)
(0.00102139 3.02353e-05 0)
(0.00102327 3.10666e-05 0)
(0.00102515 3.18041e-05 0)
(0.00102703 3.24546e-05 0)
(0.0010289 3.30245e-05 0)
(0.00103077 3.35179e-05 0)
(0.00103264 3.39398e-05 0)
(0.0010345 3.42923e-05 0)
(0.00103636 3.45793e-05 0)
(0.00103821 3.48013e-05 0)
(0.00104006 3.49617e-05 0)
(0.0010419 3.50593e-05 0)
(0.00104374 3.50975e-05 0)
(0.00104556 3.50734e-05 0)
(0.0010474 3.49909e-05 0)
(0.00104921 3.4845e-05 0)
(0.00105103 3.4641e-05 0)
(0.00105282 3.43716e-05 0)
(0.00105464 3.40439e-05 0)
(0.00105641 3.36477e-05 0)
(0.00105822 3.31928e-05 0)
(0.00105996 3.26658e-05 0)
(0.00106178 3.20795e-05 0)
(0.00106347 3.14173e-05 0)
(0.0010653 3.06951e-05 0)
(0.00106695 2.98931e-05 0)
(0.00106879 2.90299e-05 0)
(0.00107039 2.80845e-05 0)
(0.00107226 2.70748e-05 0)
(0.00107378 2.59837e-05 0)
(0.00107572 2.48212e-05 0)
(0.00107714 2.35852e-05 0)
(0.00107918 2.22621e-05 0)
(0.00108047 2.08874e-05 0)
(0.00108266 1.93934e-05 0)
(0.00108378 1.7896e-05 0)
(0.00108619 1.62175e-05 0)
(0.00108708 1.46319e-05 0)
(0.00108981 1.27514e-05 0)
(0.00109036 1.1146e-05 0)
(0.00109356 9.04051e-06 0)
(0.00109362 7.54071e-06 0)
(0.00109748 5.17529e-06 0)
(0.00109684 3.98739e-06 0)
(0.00110164 1.2759e-06 0)
(0.00109995 6.87757e-07 0)
(0.001 1.15288e-06 0)
(0.00100023 3.43132e-06 0)
(0.00100067 5.64436e-06 0)
(0.00100134 7.76029e-06 0)
(0.0010022 9.75774e-06 0)
(0.00100324 1.16264e-05 0)
(0.00100441 1.3365e-05 0)
(0.00100569 1.49775e-05 0)
(0.00100705 1.64701e-05 0)
(0.00100848 1.78488e-05 0)
(0.00100996 1.9119e-05 0)
(0.00101149 2.02856e-05 0)
(0.00101305 2.13533e-05 0)
(0.00101465 2.23271e-05 0)
(0.00101627 2.32119e-05 0)
(0.00101791 2.40125e-05 0)
(0.00101956 2.47334e-05 0)
(0.00102123 2.53785e-05 0)
(0.00102291 2.59511e-05 0)
(0.00102459 2.64541e-05 0)
(0.00102629 2.68898e-05 0)
(0.00102799 2.72602e-05 0)
(0.0010297 2.75668e-05 0)
(0.00103141 2.7811e-05 0)
(0.00103313 2.79936e-05 0)
(0.00103485 2.81156e-05 0)
(0.00103658 2.81767e-05 0)
(0.00103831 2.8178e-05 0)
(0.00104005 2.8118e-05 0)
(0.00104178 2.79983e-05 0)
(0.00104352 2.78158e-05 0)
(0.00104526 2.75734e-05 0)
(0.001047 2.72655e-05 0)
(0.00104874 2.68977e-05 0)
(0.00105048 2.64602e-05 0)
(0.00105222 2.59635e-05 0)
(0.00105397 2.5391e-05 0)
(0.0010557 2.47618e-05 0)
(0.00105744 2.40478e-05 0)
(0.00105917 2.32828e-05 0)
(0.00106091 2.24194e-05 0)
(0.00106264 2.15163e-05 0)
(0.00106437 2.04941e-05 0)
(0.0010661 1.94526e-05 0)
(0.00106782 1.826e-05 0)
(0.00106955 1.70837e-05 0)
(0.00107126 1.57061e-05 0)
(0.001073 1.4405e-05 0)
(0.00107469 1.2823e-05 0)
(0.00107647 1.14168e-05 0)
(0.00107814 9.60298e-06 0)
(0.00107998 8.12527e-06 0)
(0.00108164 6.03715e-06 0)
(0.00108361 4.54167e-06 0)
(0.00108526 2.11335e-06 0)
(0.00108745 6.90218e-07 0)
(0.00108908 -2.17004e-06 0)
(0.00109158 -3.36806e-06 0)
(0.00109308 -6.79931e-06 0)
(0.00109589 -7.55368e-06 0)
(0.001 9.26756e-07 0)
(0.00100017 2.77164e-06 0)
(0.00100051 4.58946e-06 0)
(0.001001 6.3613e-06 0)
(0.00100165 8.06972e-06 0)
(0.00100242 9.70085e-06 0)
(0.00100331 1.12454e-05 0)
(0.0010043 1.26986e-05 0)
(0.00100537 1.40587e-05 0)
(0.00100651 1.53264e-05 0)
(0.0010077 1.6503e-05 0)
(0.00100895 1.75905e-05 0)
(0.00101025 1.85911e-05 0)
(0.00101158 1.95075e-05 0)
(0.00101295 2.03423e-05 0)
(0.00101434 2.10986e-05 0)
(0.00101576 2.17792e-05 0)
(0.00101721 2.2387e-05 0)
(0.00101867 2.29245e-05 0)
(0.00102014 2.33942e-05 0)
(0.00102163 2.37977e-05 0)
(0.00102314 2.41374e-05 0)
(0.00102465 2.44139e-05 0)
(0.00102618 2.46294e-05 0)
(0.00102771 2.47838e-05 0)
(0.00102925 2.48791e-05 0)
(0.0010308 2.49139e-05 0)
(0.00103235 2.48909e-05 0)
(0.00103391 2.48071e-05 0)
(0.00103547 2.4666e-05 0)
(0.00103703 2.44626e-05 0)
(0.00103859 2.42023e-05 0)
(0.00104016 2.38769e-05 0)
(0.00104173 2.3495e-05 0)
(0.00104329 2.30437e-05 0)
(0.00104486 2.2537e-05 0)
(0.00104642 2.19545e-05 0)
(0.00104798 2.13191e-05 0)
(0.00104953 2.05988e-05 0)
(0.0010511 1.98307e-05 0)
(0.00105264 1.89643e-05 0)
(0.0010542 1.80596e-05 0)
(0.00105573 1.7037e-05 0)
(0.0010573 1.59927e-05 0)
(0.0010588 1.48015e-05 0)
(0.00106039 1.36163e-05 0)
(0.00106187 1.22403e-05 0)
(0.0010635 1.09162e-05 0)
(0.00106495 9.33467e-06 0)
(0.00106663 7.87923e-06 0)
(0.00106805 6.06514e-06 0)
(0.00106982 4.49641e-06 0)
(0.00107118 2.41379e-06 0)
(0.00107307 7.62747e-07 0)
(0.00107434 -1.64671e-06 0)
(0.00107646 -3.34058e-06 0)
(0.00107762 -6.17894e-06 0)
(0.00108008 -7.85805e-06 0)
(0.001081 -1.12727e-05 0)
(0.00108379 -1.2835e-05 0)
(0.001 7.32265e-07 0)
(0.00100013 2.19038e-06 0)
(0.00100037 3.62912e-06 0)
(0.00100074 5.03579e-06 0)
(0.00100121 6.39898e-06 0)
(0.0010018 7.70937e-06 0)
(0.00100249 8.96005e-06 0)
(0.00100326 1.01465e-05 0)
(0.00100411 1.12662e-05 0)
(0.00100503 1.2318e-05 0)
(0.00100601 1.33018e-05 0)
(0.00100705 1.42178e-05 0)
(0.00100813 1.50669e-05 0)
(0.00100926 1.58498e-05 0)
(0.00101043 1.65677e-05 0)
(0.00101163 1.72217e-05 0)
(0.00101286 1.7813e-05 0)
(0.00101412 1.83431e-05 0)
(0.0010154 1.8813e-05 0)
(0.0010167 1.92242e-05 0)
(0.00101802 1.95774e-05 0)
(0.00101936 1.98738e-05 0)
(0.00102071 2.01136e-05 0)
(0.00102207 2.02981e-05 0)
(0.00102343 2.04268e-05 0)
(0.00102481 2.05011e-05 0)
(0.0010262 2.05195e-05 0)
(0.00102758 2.04839e-05 0)
(0.00102898 2.03914e-05 0)
(0.00103037 2.02449e-05 0)
(0.00103177 2.00397e-05 0)
(0.00103317 1.97801e-05 0)
(0.00103456 1.94589e-05 0)
(0.00103595 1.90829e-05 0)
(0.00103734 1.86413e-05 0)
(0.00103873 1.81446e-05 0)
(0.00104011 1.75764e-05 0)
(0.00104149 1.69539e-05 0)
(0.00104285 1.62516e-05 0)
(0.00104421 1.54974e-05 0)
(0.00104555 1.46519e-05 0)
(0.00104691 1.37595e-05 0)
(0.00104823 1.27592e-05 0)
(0.00104958 1.17219e-05 0)
(0.00105086 1.05525e-05 0)
(0.0010522 9.36366e-06 0)
(0.00105345 8.00697e-06 0)
(0.0010548 6.66038e-06 0)
(0.00105601 5.09217e-06 0)
(0.00105738 3.58252e-06 0)
(0.00105856 1.7695e-06 0)
(0.00105999 9.46833e-08 0)
(0.00106113 -2.00528e-06 0)
(0.00106267 -3.8338e-06 0)
(0.00106375 -6.27091e-06 0)
(0.00106545 -8.22709e-06 0)
(0.00106641 -1.10826e-05 0)
(0.00106833 -1.3133e-05 0)
(0.00106907 -1.65398e-05 0)
(0.00107117 -1.86264e-05 0)
(0.001 5.8323e-07 0)
(0.0010001 1.74583e-06 0)
(0.00100029 2.89666e-06 0)
(0.00100057 4.02784e-06 0)
(0.00100095 5.13186e-06 0)
(0.00100142 6.20204e-06 0)
(0.00100197 7.23274e-06 0)
(0.00100259 8.2195e-06 0)
(0.00100329 9.15899e-06 0)
(0.00100405 1.00489e-05 0)
(0.00100487 1.08876e-05 0)
(0.00100575 1.16742e-05 0)
(0.00100667 1.24082e-05 0)
(0.00100764 1.30892e-05 0)
(0.00100864 1.37171e-05 0)
(0.00100968 1.42919e-05 0)
(0.00101076 1.48138e-05 0)
(0.00101186 1.52833e-05 0)
(0.00101298 1.57004e-05 0)
(0.00101413 1.60658e-05 0)
(0.0010153 1.63796e-05 0)
(0.00101648 1.66424e-05 0)
(0.00101768 1.6854e-05 0)
(0.00101889 1.70151e-05 0)
(0.0010201 1.71251e-05 0)
(0.00102133 1.71846e-05 0)
(0.00102256 1.71926e-05 0)
(0.0010238 1.71499e-05 0)
(0.00102504 1.70546e-05 0)
(0.00102628 1.6908e-05 0)
(0.00102752 1.67071e-05 0)
(0.00102876 1.64538e-05 0)
(0.00102999 1.61438e-05 0)
(0.00103122 1.57801e-05 0)
(0.00103244 1.5356e-05 0)
(0.00103366 1.4877e-05 0)
(0.00103486 1.43328e-05 0)
(0.00103606 1.37324e-05 0)
(0.00103724 1.30603e-05 0)
(0.00103841 1.23312e-05 0)
(0.00103956 1.15218e-05 0)
(0.00104071 1.06555e-05 0)
(0.00104182 9.69704e-06 0)
(0.00104295 8.68382e-06 0)
(0.00104402 7.56195e-06 0)
(0.00104512 6.39094e-06 0)
(0.00104615 5.08813e-06 0)
(0.00104723 3.74774e-06 0)
(0.00104821 2.24239e-06 0)
(0.00104928 7.20545e-07 0)
(0.0010502 -1.01498e-06 0)
(0.00105127 -2.73176e-06 0)
(0.00105213 -4.73782e-06 0)
(0.00105325 -6.66801e-06 0)
(0.00105403 -9.00088e-06 0)
(0.00105523 -1.11588e-05 0)
(0.0010559 -1.38867e-05 0)
(0.00105721 -1.62764e-05 0)
(0.00105764 -1.94934e-05 0)
(0.00105898 -2.21051e-05 0)
(0.001 4.65655e-07 0)
(0.00100008 1.39452e-06 0)
(0.00100024 2.31562e-06 0)
(0.00100047 3.22359e-06 0)
(0.00100078 4.11317e-06 0)
(0.00100116 4.97948e-06 0)
(0.00100162 5.81812e-06 0)
(0.00100214 6.62539e-06 0)
(0.00100272 7.39817e-06 0)
(0.00100337 8.13396e-06 0)
(0.00100406 8.83069e-06 0)
(0.00100481 9.48676e-06 0)
(0.0010056 1.01009e-05 0)
(0.00100644 1.06723e-05 0)
(0.00100731 1.12003e-05 0)
(0.00100822 1.16844e-05 0)
(0.00100916 1.21244e-05 0)
(0.00101012 1.252e-05 0)
(0.00101112 1.28713e-05 0)
(0.00101213 1.31782e-05 0)
(0.00101316 1.34405e-05 0)
(0.00101421 1.36584e-05 0)
(0.00101528 1.38315e-05 0)
(0.00101635 1.396e-05 0)
(0.00101744 1.40434e-05 0)
(0.00101853 1.40817e-05 0)
(0.00101963 1.40742e-05 0)
(0.00102073 1.40209e-05 0)
(0.00102183 1.39205e-05 0)
(0.00102293 1.37732e-05 0)
(0.00102403 1.35772e-05 0)
(0.00102512 1.33327e-05 0)
(0.00102621 1.30371e-05 0)
(0.00102729 1.26911e-05 0)
(0.00102835 1.22909e-05 0)
(0.00102941 1.18378e-05 0)
(0.00103045 1.13266e-05 0)
(0.00103148 1.07597e-05 0)
(0.00103248 1.01294e-05 0)
(0.00103348 9.44029e-06 0)
(0.00103444 8.68124e-06 0)
(0.00103539 7.85982e-06 0)
(0.0010363 6.95994e-06 0)
(0.00103721 5.99413e-06 0)
(0.00103806 4.93856e-06 0)
(0.00103892 3.81365e-06 0)
(0.00103971 2.58379e-06 0)
(0.00104051 1.28193e-06 0)
(0.00104123 -1.45294e-07 0)
(0.00104199 -1.64393e-06 0)
(0.00104263 -3.29437e-06 0)
(0.00104336 -5.01109e-06 0)
(0.0010439 -6.91845e-06 0)
(0.0010446 -8.88223e-06 0)
(0.00104504 -1.10945e-05 0)
(0.00104573 -1.33407e-05 0)
(0.00104602 -1.59173e-05 0)
(0.00104671 -1.84804e-05 0)
(0.00104677 -2.1492e-05 0)
(0.00104737 -2.43974e-05 0)
(0.001 3.68304e-07 0)
(0.00100007 1.10324e-06 0)
(0.0010002 1.83275e-06 0)
(0.0010004 2.55302e-06 0)
(0.00100066 3.26029e-06 0)
(0.00100098 3.95096e-06 0)
(0.00100137 4.62172e-06 0)
(0.00100182 5.26957e-06 0)
(0.00100232 5.89191e-06 0)
(0.00100287 6.48648e-06 0)
(0.00100347 7.05135e-06 0)
(0.00100412 7.58489e-06 0)
(0.00100481 8.08578e-06 0)
(0.00100554 8.55294e-06 0)
(0.0010063 8.98551e-06 0)
(0.0010071 9.38282e-06 0)
(0.00100793 9.74429e-06 0)
(0.00100879 1.00695e-05 0)
(0.00100967 1.03581e-05 0)
(0.00101057 1.06096e-05 0)
(0.00101149 1.0824e-05 0)
(0.00101243 1.10007e-05 0)
(0.00101338 1.11396e-05 0)
(0.00101434 1.12403e-05 0)
(0.00101531 1.13023e-05 0)
(0.00101628 1.13254e-05 0)
(0.00101726 1.13089e-05 0)
(0.00101824 1.12522e-05 0)
(0.00101922 1.11548e-05 0)
(0.0010202 1.10158e-05 0)
(0.00102117 1.08343e-05 0)
(0.00102214 1.06092e-05 0)
(0.00102309 1.03396e-05 0)
(0.00102403 1.0024e-05 0)
(0.00102496 9.66122e-06 0)
(0.00102587 9.24933e-06 0)
(0.00102677 8.78691e-06 0)
(0.00102764 8.27156e-06 0)
(0.00102848 7.7017e-06 0)
(0.00102931 7.07407e-06 0)
(0.0010301 6.38718e-06 0)
(0.00103087 5.63646e-06 0)
(0.00103159 4.82085e-06 0)
(0.00103229 3.93381e-06 0)
(0.00103294 2.97536e-06 0)
(0.00103357 1.93587e-06 0)
(0.00103413 8.17606e-07 0)
(0.00103467 -3.9389e-07 0)
(0.00103513 -1.69187e-06 0)
(0.00103559 -3.0993e-06 0)
(0.00103594 -4.60301e-06 0)
(0.00103631 -6.23917e-06 0)
(0.00103653 -7.98102e-06 0)
(0.00103681 -9.88487e-06 0)
(0.00103688 -1.1902e-05 0)
(0.00103707 -1.41212e-05 0)
(0.00103695 -1.64574e-05 0)
(0.00103704 -1.90499e-05 0)
(0.00103665 -2.17528e-05 0)
(0.00103654 -2.47815e-05 0)
(0.001 2.85205e-07 0)
(0.00100006 8.54475e-07 0)
(0.00100017 1.41991e-06 0)
(0.00100034 1.97878e-06 0)
(0.00100057 2.52834e-06 0)
(0.00100085 3.06598e-06 0)
(0.00100119 3.58919e-06 0)
(0.00100158 4.09569e-06 0)
(0.00100202 4.58341e-06 0)
(0.0010025 5.05051e-06 0)
(0.00100303 5.49536e-06 0)
(0.0010036 5.91653e-06 0)
(0.00100421 6.31282e-06 0)
(0.00100486 6.68315e-06 0)
(0.00100554 7.02664e-06 0)
(0.00100626 7.34252e-06 0)
(0.001007 7.63013e-06 0)
(0.00100776 7.88889e-06 0)
(0.00100855 8.11832e-06 0)
(0.00100936 8.31792e-06 0)
(0.00101019 8.48729e-06 0)
(0.00101103 8.62597e-06 0)
(0.00101189 8.7336e-06 0)
(0.00101275 8.80965e-06 0)
(0.00101362 8.85377e-06 0)
(0.0010145 8.86529e-06 0)
(0.00101538 8.84387e-06 0)
(0.00101626 8.78859e-06 0)
(0.00101714 8.69912e-06 0)
(0.00101801 8.57421e-06 0)
(0.00101887 8.41357e-06 0)
(0.00101972 8.21546e-06 0)
(0.00102056 7.97976e-06 0)
(0.00102139 7.704e-06 0)
(0.00102219 7.3884e-06 0)
(0.00102298 7.02941e-06 0)
(0.00102374 6.62794e-06 0)
(0.00102447 6.17881e-06 0)
(0.00102518 5.68418e-06 0)
(0.00102585 5.13633e-06 0)
(0.00102648 4.53966e-06 0)
(0.00102708 3.88248e-06 0)
(0.00102764 3.173e-06 0)
(0.00102815 2.39334e-06 0)
(0.00102861 1.55811e-06 0)
(0.00102902 6.39634e-07 0)
(0.00102937 -3.36701e-07 0)
(0.00102967 -1.41394e-06 0)
(0.00102989 -2.54924e-06 0)
(0.00103007 -3.81144e-06 0)
(0.00103014 -5.129e-06 0)
(0.00103018 -6.61061e-06 0)
(0.00103008 -8.13706e-06 0)
(0.00102996 -9.88097e-06 0)
(0.00102966 -1.16459e-05 0)
(0.00102938 -1.37072e-05 0)
(0.00102884 -1.5743e-05 0)
(0.00102836 -1.81929e-05 0)
(0.00102751 -2.05295e-05 0)
(0.00102673 -2.34528e-05 0)
(0.001 2.12318e-07 0)
(0.00100005 6.36211e-07 0)
(0.00100015 1.05746e-06 0)
(0.00100031 1.47411e-06 0)
(0.00100051 1.88424e-06 0)
(0.00100076 2.28596e-06 0)
(0.00100106 2.67745e-06 0)
(0.00100141 3.05704e-06 0)
(0.0010018 3.42317e-06 0)
(0.00100224 3.77443e-06 0)
(0.00100271 4.10954e-06 0)
(0.00100323 4.42735e-06 0)
(0.00100378 4.72684e-06 0)
(0.00100436 5.0071e-06 0)
(0.00100498 5.26734e-06 0)
(0.00100562 5.50683e-06 0)
(0.0010063 5.72497e-06 0)
(0.00100699 5.92115e-06 0)
(0.00100771 6.09492e-06 0)
(0.00100845 6.24573e-06 0)
(0.0010092 6.3732e-06 0)
(0.00100997 6.47682e-06 0)
(0.00101075 6.55627e-06 0)
(0.00101154 6.61094e-06 0)
(0.00101233 6.64058e-06 0)
(0.00101313 6.64443e-06 0)
(0.00101392 6.62229e-06 0)
(0.00101472 6.57317e-06 0)
(0.00101551 6.49695e-06 0)
(0.00101629 6.39226e-06 0)
(0.00101707 6.25915e-06 0)
(0.00101783 6.0957e-06 0)
(0.00101857 5.90228e-06 0)
(0.0010193 5.67611e-06 0)
(0.00102 5.41819e-06 0)
(0.00102068 5.12439e-06 0)
(0.00102133 4.79682e-06 0)
(0.00102195 4.42929e-06 0)
(0.00102253 4.02583e-06 0)
(0.00102308 3.577e-06 0)
(0.00102358 3.09007e-06 0)
(0.00102404 2.55056e-06 0)
(0.00102444 1.97106e-06 0)
(0.0010248 1.32915e-06 0)
(0.00102509 6.46258e-07 0)
(0.00102532 -1.12757e-07 0)
(0.00102548 -9.11933e-07 0)
(0.00102557 -1.80676e-06 0)
(0.00102557 -2.73822e-06 0)
(0.0010255 -3.79416e-06 0)
(0.00102532 -4.87678e-06 0)
(0.00102507 -6.12574e-06 0)
(0.00102468 -7.38023e-06 0)
(0.00102421 -8.86368e-06 0)
(0.00102358 -1.03127e-05 0)
(0.00102287 -1.20858e-05 0)
(0.00102194 -1.3752e-05 0)
(0.00102095 -1.58881e-05 0)
(0.00101965 -1.77879e-05 0)
(0.00101829 -2.03791e-05 0)
(0.001 1.46642e-07 0)
(0.00100005 4.39501e-07 0)
(0.00100014 7.30662e-07 0)
(0.00100028 1.01882e-06 0)
(0.00100047 1.30269e-06 0)
(0.0010007 1.58098e-06 0)
(0.00100097 1.85247e-06 0)
(0.00100129 2.116e-06 0)
(0.00100165 2.3705e-06 0)
(0.00100205 2.61496e-06 0)
(0.00100249 2.84848e-06 0)
(0.00100296 3.0702e-06 0)
(0.00100347 3.27938e-06 0)
(0.00100401 3.47531e-06 0)
(0.00100458 3.6574e-06 0)
(0.00100518 3.82505e-06 0)
(0.0010058 3.9778e-06 0)
(0.00100644 4.11514e-06 0)
(0.00100711 4.23668e-06 0)
(0.00100779 4.34199e-06 0)
(0.00100849 4.43074e-06 0)
(0.0010092 4.50249e-06 0)
(0.00100992 4.55697e-06 0)
(0.00101065 4.59367e-06 0)
(0.00101139 4.61239e-06 0)
(0.00101212 4.61248e-06 0)
(0.00101286 4.59383e-06 0)
(0.00101359 4.55556e-06 0)
(0.00101431 4.49767e-06 0)
(0.00101503 4.41896e-06 0)
(0.00101574 4.31963e-06 0)
(0.00101642 4.19794e-06 0)
(0.00101709 4.05447e-06 0)
(0.00101774 3.88671e-06 0)
(0.00101837 3.69584e-06 0)
(0.00101896 3.47815e-06 0)
(0.00101953 3.23591e-06 0)
(0.00102006 2.96351e-06 0)
(0.00102055 2.66509e-06 0)
(0.00102099 2.33204e-06 0)
(0.00102139 1.97161e-06 0)
(0.00102173 1.57051e-06 0)
(0.00102202 1.1411e-06 0)
(0.00102225 6.62678e-07 0)
(0.0010224 1.56009e-07 0)
(0.00102249 -4.11473e-07 0)
(0.0010225 -1.00533e-06 0)
(0.00102242 -1.67738e-06 0)
(0.00102224 -2.37072e-06 0)
(0.00102198 -3.16761e-06 0)
(0.00102159 -3.97424e-06 0)
(0.0010211 -4.92202e-06 0)
(0.00102047 -5.85705e-06 0)
(0.00101972 -6.99033e-06 0)
(0.0010188 -8.06979e-06 0)
(0.00101775 -9.43543e-06 0)
(0.00101649 -1.06741e-05 0)
(0.00101508 -1.23356e-05 0)
(0.0010134 -1.3741e-05 0)
(0.00101156 -1.57801e-05 0)
(0.001 8.57843e-08 0)
(0.00100005 2.572e-07 0)
(0.00100013 4.27729e-07 0)
(0.00100026 5.96624e-07 0)
(0.00100044 7.63132e-07 0)
(0.00100066 9.26513e-07 0)
(0.00100091 1.08606e-06 0)
(0.00100121 1.24108e-06 0)
(0.00100155 1.39096e-06 0)
(0.00100193 1.53508e-06 0)
(0.00100234 1.6729e-06 0)
(0.00100279 1.8039e-06 0)
(0.00100327 1.92763e-06 0)
(0.00100378 2.04365e-06 0)
(0.00100432 2.15158e-06 0)
(0.00100489 2.25104e-06 0)
(0.00100548 2.34173e-06 0)
(0.00100609 2.42331e-06 0)
(0.00100672 2.49555e-06 0)
(0.00100736 2.55814e-06 0)
(0.00100803 2.61088e-06 0)
(0.0010087 2.65345e-06 0)
(0.00100938 2.68569e-06 0)
(0.00101007 2.70725e-06 0)
(0.00101077 2.71802e-06 0)
(0.00101146 2.71754e-06 0)
(0.00101216 2.70575e-06 0)
(0.00101284 2.68207e-06 0)
(0.00101353 2.64653e-06 0)
(0.0010142 2.5983e-06 0)
(0.00101485 2.53756e-06 0)
(0.0010155 2.46314e-06 0)
(0.00101612 2.37549e-06 0)
(0.00101671 2.27289e-06 0)
(0.00101728 2.15625e-06 0)
(0.00101782 2.02301e-06 0)
(0.00101833 1.87485e-06 0)
(0.00101879 1.70791e-06 0)
(0.00101922 1.52519e-06 0)
(0.00101959 1.32076e-06 0)
(0.00101992 1.09981e-06 0)
(0.00102018 8.53149e-07 0)
(0.00102039 5.8957e-07 0)
(0.00102053 2.94729e-07 0)
(0.00102059 -1.66752e-08 0)
(0.00102058 -3.67227e-07 0)
(0.00102048 -7.32563e-07 0)
(0.00102028 -1.14895e-06 0)
(0.00101998 -1.57608e-06 0)
(0.00101957 -2.07153e-06 0)
(0.00101904 -2.56892e-06 0)
(0.00101838 -3.16047e-06 0)
(0.00101758 -3.73732e-06 0)
(0.00101663 -4.44793e-06 0)
(0.00101551 -5.1138e-06 0)
(0.00101421 -5.97484e-06 0)
(0.00101271 -6.73801e-06 0)
(0.00101101 -7.79249e-06 0)
(0.00100905 -8.65554e-06 0)
(0.00100686 -9.95993e-06 0)
(0.001 2.77039e-08 0)
(0.00100004 8.32046e-08 0)
(0.00100013 1.38559e-07 0)
(0.00100026 1.9352e-07 0)
(0.00100042 2.47842e-07 0)
(0.00100064 3.01279e-07 0)
(0.00100089 3.53595e-07 0)
(0.00100118 4.04566e-07 0)
(0.00100151 4.53977e-07 0)
(0.00100187 5.01626e-07 0)
(0.00100227 5.47327e-07 0)
(0.00100271 5.90903e-07 0)
(0.00100317 6.32196e-07 0)
(0.00100367 6.71053e-07 0)
(0.00100419 7.0734e-07 0)
(0.00100474 7.40925e-07 0)
(0.00100532 7.71697e-07 0)
(0.00100591 7.99539e-07 0)
(0.00100652 8.2436e-07 0)
(0.00100715 8.46047e-07 0)
(0.0010078 8.64526e-07 0)
(0.00100845 8.79681e-07 0)
(0.00100912 8.91452e-07 0)
(0.00100979 8.99709e-07 0)
(0.00101046 9.04406e-07 0)
(0.00101114 9.05383e-07 0)
(0.00101181 9.02614e-07 0)
(0.00101248 8.95888e-07 0)
(0.00101313 8.85213e-07 0)
(0.00101378 8.70296e-07 0)
(0.00101442 8.51202e-07 0)
(0.00101503 8.27514e-07 0)
(0.00101563 7.99393e-07 0)
(0.0010162 7.66229e-07 0)
(0.00101674 7.28353e-07 0)
(0.00101725 6.84851e-07 0)
(0.00101773 6.36342e-07 0)
(0.00101816 5.81441e-07 0)
(0.00101855 5.21245e-07 0)
(0.00101889 4.53631e-07 0)
(0.00101918 3.80489e-07 0)
(0.00101941 2.98532e-07 0)
(0.00101957 2.10954e-07 0)
(0.00101966 1.12624e-07 0)
(0.00101968 8.86641e-09 0)
(0.00101961 -1.0843e-07 0)
(0.00101946 -2.30494e-07 0)
(0.0010192 -3.70321e-07 0)
(0.00101884 -5.13401e-07 0)
(0.00101835 -6.80355e-07 0)
(0.00101775 -8.47297e-07 0)
(0.001017 -1.04729e-06 0)
(0.00101611 -1.24118e-06 0)
(0.00101505 -1.48223e-06 0)
(0.00101382 -1.70623e-06 0)
(0.0010124 -1.99937e-06 0)
(0.00101077 -2.25614e-06 0)
(0.00100892 -2.61657e-06 -3.66896e-38)
(0.00100681 -2.90663e-06 0)
(0.00100445 -3.35446e-06 0)
(0.001 -2.94648e-08 0)
(0.00100004 -8.80641e-08 0)
(0.00100013 -1.46093e-07 0)
(0.00100026 -2.03311e-07 0)
(0.00100042 -2.59473e-07 0)
(0.00100064 -3.14343e-07 0)
(0.00100089 -3.67691e-07 0)
(0.00100118 -4.19299e-07 0)
(0.00100151 -4.68963e-07 0)
(0.00100187 -5.16493e-07 0)
(0.00100227 -5.61713e-07 0)
(0.00100271 -6.0446e-07 0)
(0.00100317 -6.44588e-07 0)
(0.00100367 -6.81958e-07 0)
(0.00100419 -7.16451e-07 0)
(0.00100474 -7.4795e-07 0)
(0.00100532 -7.76361e-07 0)
(0.00100591 -8.01581e-07 0)
(0.00100652 -8.23537e-07 0)
(0.00100715 -8.42133e-07 0)
(0.0010078 -8.57311e-07 0)
(0.00100845 -8.68974e-07 0)
(0.00100912 -8.77077e-07 0)
(0.00100979 -8.81508e-07 0)
(0.00101046 -8.82237e-07 0)
(0.00101114 -8.79119e-07 0)
(0.00101181 -8.72147e-07 0)
(0.00101248 -8.61123e-07 0)
(0.00101313 -8.46071e-07 0)
(0.00101378 -8.26714e-07 0)
(0.00101442 -8.03128e-07 0)
(0.00101503 -7.7491e-07 0)
(0.00101563 -7.42236e-07 0)
(0.0010162 -7.04506e-07 0)
(0.00101674 -6.62062e-07 0)
(0.00101725 -6.14004e-07 0)
(0.00101773 -5.60956e-07 0)
(0.00101816 -5.01548e-07 0)
(0.00101855 -4.36879e-07 0)
(0.00101889 -3.64843e-07 0)
(0.00101918 -2.87325e-07 0)
(0.00101941 -2.01057e-07 0)
(0.00101957 -1.09218e-07 0)
(0.00101967 -6.68639e-09 0)
(0.00101968 1.01247e-07 0)
(0.00101962 2.22694e-07 0)
(0.00101946 3.48915e-07 0)
(0.0010192 4.9281e-07 0)
(0.00101884 6.39918e-07 0)
(0.00101836 8.10782e-07 0)
(0.00101775 9.81614e-07 0)
(0.00101701 1.18539e-06 0)
(0.00101611 1.38307e-06 0)
(0.00101506 1.62783e-06 0)
(0.00101383 1.85555e-06 0)
(0.00101241 2.15233e-06 0)
(0.00101078 2.41278e-06 0)
(0.00100892 2.77683e-06 3.66896e-38)
(0.00100682 3.07053e-06 0)
(0.00100445 3.52206e-06 0)
(0.001 -8.75274e-08 0)
(0.00100005 -2.62009e-07 0)
(0.00100013 -4.35185e-07 0)
(0.00100026 -6.06308e-07 0)
(0.00100044 -7.74633e-07 0)
(0.00100065 -9.39425e-07 0)
(0.00100091 -1.09998e-06 0)
(0.00100121 -1.25563e-06 0)
(0.00100155 -1.40574e-06 0)
(0.00100193 -1.54974e-06 0)
(0.00100234 -1.68708e-06 0)
(0.00100279 -1.81725e-06 0)
(0.00100327 -1.93982e-06 0)
(0.00100378 -2.05436e-06 0)
(0.00100432 -2.1605e-06 0)
(0.00100488 -2.25789e-06 0)
(0.00100547 -2.34623e-06 0)
(0.00100608 -2.42522e-06 0)
(0.00100672 -2.49462e-06 0)
(0.00100736 -2.55414e-06 0)
(0.00100802 -2.60361e-06 0)
(0.0010087 -2.64272e-06 0)
(0.00100938 -2.67132e-06 0)
(0.00101007 -2.6891e-06 0)
(0.00101077 -2.69593e-06 0)
(0.00101146 -2.69139e-06 0)
(0.00101215 -2.67544e-06 0)
(0.00101284 -2.64751e-06 0)
(0.00101353 -2.60763e-06 0)
(0.0010142 -2.555e-06 0)
(0.00101485 -2.48981e-06 0)
(0.0010155 -2.41091e-06 0)
(0.00101612 -2.31874e-06 0)
(0.00101671 -2.21162e-06 0)
(0.00101728 -2.09045e-06 0)
(0.00101782 -1.95269e-06 0)
(0.00101833 -1.80003e-06 0)
(0.00101879 -1.62862e-06 0)
(0.00101922 -1.44146e-06 0)
(0.0010196 -1.23262e-06 0)
(0.00101992 -1.00731e-06 0)
(0.00102019 -7.56335e-07 0)
(0.00102039 -4.88505e-07 0)
(0.00102053 -1.89483e-07 0)
(0.0010206 1.26018e-07 0)
(0.00102058 4.80586e-07 0)
(0.00102048 8.49941e-07 0)
(0.00102029 1.27026e-06 0)
(0.00101999 1.70133e-06 0)
(0.00101958 2.2006e-06 0)
(0.00101905 2.70183e-06 0)
(0.00101839 3.29709e-06 0)
(0.00101759 3.8777e-06 0)
(0.00101664 4.59191e-06 0)
(0.00101552 5.26148e-06 0)
(0.00101422 6.12607e-06 0)
(0.00101272 6.89292e-06 0)
(0.00101102 7.95091e-06 0)
(0.00100906 8.81764e-06 0)
(0.00100688 1.01256e-05 0)
(0.001 -1.48343e-07 0)
(0.00100005 -4.44192e-07 0)
(0.00100014 -7.37931e-07 0)
(0.00100028 -1.02826e-06 0)
(0.00100047 -1.3139e-06 0)
(0.0010007 -1.59355e-06 0)
(0.00100097 -1.86603e-06 0)
(0.00100129 -2.13016e-06 0)
(0.00100165 -2.38488e-06 0)
(0.00100205 -2.62921e-06 0)
(0.00100249 -2.86224e-06 0)
(0.00100296 -3.08314e-06 0)
(0.00100347 -3.29117e-06 0)
(0.00100401 -3.48565e-06 0)
(0.00100458 -3.66598e-06 0)
(0.00100517 -3.83159e-06 0)
(0.0010058 -3.98203e-06 0)
(0.00100644 -4.11682e-06 0)
(0.00100711 -4.23557e-06 0)
(0.00100779 -4.33787e-06 0)
(0.00100849 -4.42341e-06 0)
(0.0010092 -4.49176e-06 0)
(0.00100992 -4.54267e-06 0)
(0.00101065 -4.57565e-06 0)
(0.00101138 -4.59051e-06 0)
(0.00101212 -4.58663e-06 0)
(0.00101285 -4.56389e-06 0)
(0.00101359 -4.52145e-06 0)
(0.00101431 -4.45931e-06 0)
(0.00101503 -4.37628e-06 0)
(0.00101573 -4.27258e-06 0)
(0.00101642 -4.1465e-06 0)
(0.00101709 -3.99861e-06 0)
(0.00101774 -3.82641e-06 0)
(0.00101837 -3.63111e-06 0)
(0.00101897 -3.40899e-06 0)
(0.00101953 -3.16234e-06 0)
(0.00102006 -2.88556e-06 0)
(0.00102055 -2.58277e-06 0)
(0.00102099 -2.24543e-06 0)
(0.00102139 -1.88072e-06 0)
(0.00102174 -1.47542e-06 0)
(0.00102203 -1.04182e-06 0)
(0.00102225 -5.59315e-07 0)
(0.00102241 -4.85439e-08 0)
(0.0010225 5.22853e-07 0)
(0.0010225 1.12058e-06 0)
(0.00102243 1.79641e-06 0)
(0.00102226 2.49363e-06 0)
(0.00102199 3.29427e-06 0)
(0.0010216 4.10474e-06 0)
(0.00102111 5.05614e-06 0)
(0.00102048 5.99493e-06 0)
(0.00101974 7.1317e-06 0)