/*--------------------------------*- C++ -*----------------------------------*\
| =========                 |                                                 |
| \\      /  F ield         | OpenFOAM: The Open Source CFD Toolbox           |
|  \\    /   O peration     | Version:  2312                                  |
|   \\  /    A nd           | Website:  www.openfoam.com                      |
|    \\/     M anipulation  |                                                 |
\*---------------------------------------------------------------------------*/
FoamFile
{
    version     2.0;
    format      ascii;
    arch        "LSB;label=32;scalar=64";
    class       volScalarField;
    location    "138000";
    object      p;
}
// * * * * * * * * * * * * * * * * * * * * * * * * * * * * * * * * * * * * * //

dimensions      [0 2 -2 0 0 0 0];

internalField   nonuniform List<scalar> 
2715
(
3.88886e-07
3.37816e-07
3.16283e-07
2.98174e-07
2.79955e-07
2.61584e-07
2.41061e-07
2.19187e-07
1.93708e-07
1.66379e-07
1.34696e-07
1.01616e-07
6.41718e-08
2.66549e-08
-1.4567e-08
-5.38135e-08
-9.59879e-08
-1.33916e-07
-1.74265e-07
-2.08292e-07
-2.44621e-07
-2.72953e-07
-3.04119e-07
-3.25479e-07
-3.51643e-07
-3.63965e-07
-3.8912e-07
-3.88322e-07
-4.18264e-07
-5.12317e-07
3.74736e-07
3.19016e-07
3.0448e-07
2.8897e-07
2.71447e-07
2.53509e-07
2.33308e-07
2.11609e-07
1.8635e-07
1.59419e-07
1.28405e-07
9.62287e-08
5.99977e-08
2.38483e-08
-1.58117e-08
-5.35556e-08
-9.39073e-08
-1.30364e-07
-1.68886e-07
-2.01937e-07
-2.37147e-07
-2.64756e-07
-2.95948e-07
-3.1672e-07
-3.43815e-07
-3.56893e-07
-3.79516e-07
-3.91337e-07
-3.94503e-07
-5.34861e-07
3.62356e-07
3.16457e-07
3.02968e-07
2.8796e-07
2.69924e-07
2.50989e-07
2.30263e-07
2.08228e-07
1.82927e-07
1.55885e-07
1.25116e-07
9.30628e-08
5.73993e-08
2.16368e-08
-1.71282e-08
-5.42417e-08
-9.36363e-08
-1.29689e-07
-1.67688e-07
-2.00207e-07
-2.34894e-07
-2.62532e-07
-2.92535e-07
-3.14949e-07
-3.39366e-07
-3.58153e-07
-3.75107e-07
-4.0088e-07
-3.80865e-07
-4.77122e-07
3.51985e-07
3.12141e-07
2.96529e-07
2.82045e-07
2.64736e-07
2.46417e-07
2.25887e-07
2.03711e-07
1.7847e-07
1.51308e-07
1.2087e-07
8.88871e-08
5.39752e-08
1.84876e-08
-1.90874e-08
-5.59046e-08
-9.38076e-08
-1.2965e-07
-1.65567e-07
-1.98558e-07
-2.30766e-07
-2.60223e-07
-2.8757e-07
-3.13089e-07
-3.33748e-07
-3.58349e-07
-3.66581e-07
-4.01574e-07
-3.77156e-07
-4.41748e-07
3.41946e-07
3.09361e-07
2.92903e-07
2.79578e-07
2.62798e-07
2.43689e-07
2.22634e-07
1.99902e-07
1.74621e-07
1.47077e-07
1.16886e-07
8.46745e-08
5.04431e-08
1.49224e-08
-2.14983e-08
-5.82681e-08
-9.45917e-08
-1.30494e-07
-1.64564e-07
-1.98209e-07
-2.28404e-07
-2.59178e-07
-2.83835e-07
-3.12099e-07
-3.29034e-07
-3.57084e-07
-3.62139e-07
-3.94868e-07
-3.83276e-07
-4.1574e-07
3.33129e-07
3.0745e-07
2.90159e-07
2.76346e-07
2.59831e-07
2.40629e-07
2.19393e-07
1.96187e-07
1.70784e-07
1.42829e-07
1.12757e-07
8.02668e-08
4.65477e-08
1.09453e-08
-2.4503e-08
-6.12301e-08
-9.61511e-08
-1.32093e-07
-1.64496e-07
-1.98456e-07
-2.26814e-07
-2.58259e-07
-2.8125e-07
-3.10376e-07
-3.26383e-07
-3.53831e-07
-3.61569e-07
-3.86977e-07
-3.89407e-07
-4.04484e-07
3.25874e-07
3.05749e-07
2.88359e-07
2.73662e-07
2.57256e-07
2.37992e-07
2.16507e-07
1.92735e-07
1.67027e-07
1.3861e-07
1.08469e-07
7.57016e-08
4.2258e-08
6.64827e-09
-2.81282e-08
-6.46123e-08
-9.85387e-08
-1.3412e-07
-1.65422e-07
-1.98971e-07
-2.26441e-07
-2.57404e-07
-2.80234e-07
-3.0833e-07
-3.25846e-07
-3.50408e-07
-3.62882e-07
-3.82081e-07
-3.91674e-07
-4.02393e-07
3.20411e-07
3.04148e-07
2.87261e-07
2.71573e-07
2.54917e-07
2.35498e-07
2.13699e-07
1.89369e-07
1.63193e-07
1.34322e-07
1.03924e-07
7.09481e-08
3.75313e-08
2.05471e-09
-3.23724e-08
-6.83595e-08
-1.01729e-07
-1.36515e-07
-1.67305e-07
-1.99809e-07
-2.27188e-07
-2.56818e-07
-2.80416e-07
-3.06612e-07
-3.26271e-07
-3.48102e-07
-3.64052e-07
-3.80303e-07
-3.92692e-07
-4.02797e-07
3.1682e-07
3.02637e-07
2.86405e-07
2.70035e-07
2.5282e-07
2.33071e-07
2.10867e-07
1.86001e-07
1.59235e-07
1.2991e-07
9.90983e-08
6.59637e-08
3.2383e-08
-2.86091e-09
-3.71748e-08
-7.25005e-08
-1.05599e-07
-1.39351e-07
-1.69939e-07
-2.01136e-07
-2.2866e-07
-2.56801e-07
-2.8111e-07
-3.05747e-07
-3.26756e-07
-3.47279e-07
-3.64719e-07
-3.80512e-07
-3.93721e-07
-4.0471e-07
3.14849e-07
3.01277e-07
2.85614e-07
2.68854e-07
2.50919e-07
2.30647e-07
2.07917e-07
1.82514e-07
1.55088e-07
1.25288e-07
9.39659e-08
6.06735e-08
2.68339e-08
-8.15861e-09
-4.24564e-08
-7.70953e-08
-1.09996e-07
-1.4271e-07
-1.73093e-07
-2.03065e-07
-2.30556e-07
-2.57487e-07
-2.82045e-07
-3.05737e-07
-3.27239e-07
-3.47343e-07
-3.65337e-07
-3.81403e-07
-3.95287e-07
-4.07252e-07
3.14013e-07
3.00215e-07
2.84776e-07
2.67741e-07
2.49079e-07
2.28142e-07
2.04766e-07
1.7879e-07
1.50675e-07
1.20365e-07
8.84921e-08
5.49994e-08
2.08864e-08
-1.3902e-08
-4.81697e-08
-8.21948e-08
-1.14828e-07
-1.46634e-07
-1.7665e-07
-2.0561e-07
-2.32778e-07
-2.58815e-07
-2.83199e-07
-3.06326e-07
-3.27851e-07
-3.47872e-07
-3.66159e-07
-3.82686e-07
-3.97306e-07
-4.10246e-07
3.13737e-07
2.99494e-07
2.83888e-07
2.66492e-07
2.4712e-07
2.25442e-07
2.01334e-07
1.74724e-07
1.4591e-07
1.15047e-07
8.26157e-08
4.88652e-08
1.44999e-08
-2.01518e-08
-5.4332e-08
-8.7839e-08
-1.20102e-07
-1.5113e-07
-1.80622e-07
-2.08729e-07
-2.35365e-07
-2.60674e-07
-2.84655e-07
-3.07348e-07
-3.28722e-07
-3.48726e-07
-3.67237e-07
-3.84236e-07
-3.99569e-07
-4.13531e-07
3.13606e-07
2.98961e-07
2.82913e-07
2.64981e-07
2.44881e-07
2.22429e-07
1.97538e-07
1.70227e-07
1.40695e-07
1.09234e-07
7.62436e-08
4.2182e-08
7.58749e-09
-2.69839e-08
-6.10258e-08
-9.40845e-08
-1.259e-07
-1.56226e-07
-1.85094e-07
-2.12416e-07
-2.38412e-07
-2.63028e-07
-2.86513e-07
-3.08758e-07
-3.29929e-07
-3.4985e-07
-3.68582e-07
-3.85943e-07
-4.02013e-07
-4.16843e-07
3.1337e-07
2.98403e-07
2.81765e-07
2.63143e-07
2.42267e-07
2.19009e-07
1.93294e-07
1.65211e-07
1.34922e-07
1.0281e-07
6.92507e-08
3.48317e-08
1.85617e-11
-3.45128e-08
-6.83842e-08
-1.01031e-07
-1.3235e-07
-1.62003e-07
-1.90186e-07
-2.16732e-07
-2.4202e-07
-2.65923e-07
-2.88843e-07
-3.10593e-07
-3.31495e-07
-3.5127e-07
-3.70147e-07
-3.87809e-07
-4.04515e-07
-4.20158e-07
3.12943e-07
2.97628e-07
2.80352e-07
2.60957e-07
2.39243e-07
2.15119e-07
1.88515e-07
1.59572e-07
1.28461e-07
9.56356e-08
6.14771e-08
2.66571e-08
-8.38043e-09
-4.28983e-08
-7.65812e-08
-1.08825e-07
-1.39614e-07
-1.68585e-07
-1.96035e-07
-2.21775e-07
-2.46296e-07
-2.69433e-07
-2.91717e-07
-3.12895e-07
-3.33449e-07
-3.52984e-07
-3.7193e-07
-3.89784e-07
-4.0705e-07
-4.23348e-07
3.12382e-07
2.96594e-07
2.78657e-07
2.5844e-07
2.35804e-07
2.10704e-07
1.83098e-07
1.5318e-07
1.21156e-07
8.75341e-08
5.27263e-08
1.74586e-08
-1.78185e-08
-5.23387e-08
-8.58159e-08
-1.17645e-07
-1.47862e-07
-1.76117e-07
-2.02776e-07
-2.2766e-07
-2.51335e-07
-2.73638e-07
-2.95184e-07
-3.1571e-07
-3.35792e-07
-3.54999e-07
-3.73881e-07
-3.91838e-07
-4.09528e-07
-4.26369e-07
3.11866e-07
2.95384e-07
2.76723e-07
2.55613e-07
2.31923e-07
2.05679e-07
1.76905e-07
1.45861e-07
1.12801e-07
7.82847e-08
4.27629e-08
7.00089e-09
-2.85304e-08
-6.30537e-08
-9.62969e-08
-1.27674e-07
-1.57262e-07
-1.84743e-07
-2.10536e-07
-2.3449e-07
-2.57225e-07
-2.78605e-07
-2.99296e-07
-3.19062e-07
-3.3853e-07
-3.57297e-07
-3.7595e-07
-3.9391e-07
-4.1185e-07
-4.29153e-07
3.11637e-07
2.94152e-07
2.74589e-07
2.52421e-07
2.27478e-07
1.99866e-07
1.69717e-07
1.37366e-07
1.0313e-07
6.76136e-08
3.13111e-08
-4.98295e-09
-4.07696e-08
-7.52756e-08
-1.08236e-07
-1.39101e-07
-1.67982e-07
-1.94605e-07
-2.19439e-07
-2.42366e-07
-2.6406e-07
-2.84401e-07
-3.04116e-07
-3.22985e-07
-3.41691e-07
-3.5986e-07
-3.78117e-07
-3.95921e-07
-4.13946e-07
-4.31566e-07
3.11831e-07
2.93049e-07
2.72207e-07
2.48654e-07
2.22182e-07
1.92955e-07
1.61207e-07
1.27362e-07
9.18073e-08
5.51863e-08
1.80466e-08
-1.87986e-08
-5.48205e-08
-8.92642e-08
-1.21869e-07
-1.52139e-07
-1.80213e-07
-2.05877e-07
-2.29643e-07
-2.5143e-07
-2.71965e-07
-2.91136e-07
-3.09742e-07
-3.27552e-07
-3.45338e-07
-3.62715e-07
-3.80383e-07
-3.9782e-07
-4.15705e-07
-4.33459e-07
3.12166e-07
2.91789e-07
2.69229e-07
2.43881e-07
2.15562e-07
1.84468e-07
1.50915e-07
1.15396e-07
7.83851e-08
4.05699e-08
2.55482e-09
-3.48373e-08
-7.105e-08
-1.05362e-07
-1.37518e-07
-1.67089e-07
-1.94241e-07
-2.18826e-07
-2.41393e-07
-2.61906e-07
-2.81141e-07
-2.9899e-07
-3.16332e-07
-3.32889e-07
-3.49582e-07
-3.65914e-07
-3.82793e-07
-3.99541e-07
-4.17043e-07
-4.34548e-07
3.11889e-07
2.8966e-07
2.65017e-07
2.37506e-07
2.07021e-07
1.73798e-07
1.38221e-07
1.00853e-07
6.2257e-08
2.31705e-08
-1.57387e-08
-5.36495e-08
-8.99796e-08
-1.24061e-07
-1.55646e-07
-1.84393e-07
-2.1048e-07
-2.33852e-07
-2.55055e-07
-2.74137e-07
-2.91877e-07
-3.08222e-07
-3.24088e-07
-3.3918e-07
-3.54544e-07
-3.69551e-07
-3.85382e-07
-4.0104e-07
-4.17845e-07
-4.34496e-07
3.10564e-07
2.86173e-07
2.59088e-07
2.29012e-07
1.95968e-07
1.60268e-07
1.22387e-07
8.29525e-08
4.26283e-08
2.19674e-09
-3.7607e-08
-7.59746e-08
-1.12304e-07
-1.46003e-07
-1.7684e-07
-2.0459e-07
-2.2944e-07
-2.51442e-07
-2.71099e-07
-2.88563e-07
-3.04562e-07
-3.19177e-07
-3.33281e-07
-3.4667e-07
-3.60378e-07
-3.73761e-07
-3.88168e-07
-4.02303e-07
-4.17986e-07
-4.33003e-07
3.07867e-07
2.80784e-07
2.50764e-07
2.17609e-07
1.81496e-07
1.42873e-07
1.02336e-07
6.05921e-08
1.83988e-08
-2.34174e-08
-6.40628e-08
-1.02751e-07
-1.38876e-07
-1.71944e-07
-2.01765e-07
-2.28261e-07
-2.51649e-07
-2.72102e-07
-2.90048e-07
-3.05719e-07
-3.19722e-07
-3.32328e-07
-3.44317e-07
-3.55708e-07
-3.67342e-07
-3.78744e-07
-3.91168e-07
-4.03313e-07
-4.17285e-07
-4.29833e-07
3.03347e-07
2.72803e-07
2.38996e-07
2.01982e-07
1.62152e-07
1.201e-07
7.65373e-08
3.22615e-08
-1.18887e-08
-5.50482e-08
-9.63867e-08
-1.35145e-07
-1.70742e-07
-2.02794e-07
-2.31197e-07
-2.56045e-07
-2.77642e-07
-2.96297e-07
-3.12384e-07
-3.26139e-07
-3.37968e-07
-3.48255e-07
-3.57724e-07
-3.66709e-07
-3.75784e-07
-3.84728e-07
-3.94415e-07
-4.03992e-07
-4.15338e-07
-4.24829e-07
2.95091e-07
2.60259e-07
2.21679e-07
1.79918e-07
1.35666e-07
8.96517e-08
4.27182e-08
-4.24303e-09
-5.03342e-08
-9.4666e-08
-1.364e-07
-1.74813e-07
-2.09385e-07
-2.3985e-07
-2.66234e-07
-2.88816e-07
-3.08059e-07
-3.24441e-07
-3.38373e-07
-3.5007e-07
-3.59659e-07
-3.67377e-07
-3.73909e-07
-3.79912e-07
-3.85902e-07
-3.91801e-07
-3.98017e-07
-4.04214e-07
-4.11824e-07
-4.17876e-07
2.78987e-07
2.38305e-07
1.9409e-07
1.46782e-07
9.73655e-08
4.69839e-08
-3.37592e-09
-5.28239e-08
-1.00476e-07
-1.45443e-07
-1.86908e-07
-2.24217e-07
-2.56969e-07
-2.8504e-07
-3.08595e-07
-3.28051e-07
-3.44033e-07
-3.57217e-07
-3.68185e-07
-3.77258e-07
-3.84481e-07
-3.89632e-07
-3.93012e-07
-3.9534e-07
-3.9747e-07
-3.99796e-07
-4.02251e-07
-4.04231e-07
-4.07075e-07
-4.09432e-07
2.6054e-07
2.13076e-07
1.59397e-07
1.03169e-07
4.66294e-08
-9.14598e-09
-6.34891e-08
-1.15686e-07
-1.64876e-07
-2.10159e-07
-2.50763e-07
-2.86184e-07
-3.16258e-07
-3.41144e-07
-3.61223e-07
-3.76944e-07
-3.88817e-07
-3.97451e-07
-4.03548e-07
-4.0791e-07
-4.1138e-07
-4.14069e-07
-4.14962e-07
-4.13294e-07
-4.10022e-07
-4.07823e-07
-4.07268e-07
-4.05332e-07
-4.02567e-07
-4.01744e-07
1.96257e-07
1.38551e-07
7.94225e-08
1.8794e-08
-4.22577e-08
-1.02145e-07
-1.59382e-07
-2.12745e-07
-2.6122e-07
-3.03982e-07
-3.40486e-07
-3.70613e-07
-3.94756e-07
-4.13795e-07
-4.2877e-07
-4.40205e-07
-4.47881e-07
-4.51346e-07
-4.50159e-07
-4.44914e-07
-4.38621e-07
-4.36214e-07
-4.36761e-07
-4.33358e-07
-4.23431e-07
-4.1351e-07
-4.0978e-07
-4.10678e-07
-4.11182e-07
-4.08315e-07
1.64212e-07
9.37698e-08
1.75596e-08
-5.74368e-08
-1.2797e-07
-1.9338e-07
-2.53508e-07
-3.07754e-07
-3.55141e-07
-3.94728e-07
-4.25953e-07
-4.4892e-07
-4.64506e-07
-4.745e-07
-4.81459e-07
-4.88548e-07
-4.97757e-07
-5.05348e-07
-5.03648e-07
-4.88487e-07
-4.63999e-07
-4.42212e-07
-4.32553e-07
-4.32761e-07
-4.33322e-07
-4.30211e-07
-4.2541e-07
-4.20296e-07
-4.16833e-07
-4.15231e-07
-8.35392e-08
-1.61626e-07
-2.40285e-07
-3.17578e-07
-3.88926e-07
-4.5092e-07
-5.01837e-07
-5.40881e-07
-5.67629e-07
-5.82015e-07
-5.84588e-07
-5.76788e-07
-5.61016e-07
-5.40827e-07
-5.20659e-07
-5.05366e-07
-4.97855e-07
-4.98269e-07
-5.02124e-07
-5.02608e-07
-4.96363e-07
-4.8573e-07
-4.72349e-07
-4.57918e-07
-4.45102e-07
-4.36278e-07
-4.30862e-07
-4.2726e-07
-4.24852e-07
-4.23511e-07
3.2639e-07
3.26797e-07
3.27888e-07
3.29533e-07
3.3123e-07
3.32364e-07
3.32805e-07
3.32533e-07
3.30945e-07
3.26127e-07
3.15968e-07
2.9908e-07
2.52856e-07
2.20043e-07
-1.09023e-09
-1.09678e-07
-1.8632e-07
-2.61583e-07
-3.31084e-07
-3.91566e-07
-4.41373e-07
-4.79734e-07
-5.06243e-07
-5.20861e-07
-5.24161e-07
-5.17592e-07
-5.03528e-07
-4.85457e-07
-4.67657e-07
-4.5468e-07
-4.48978e-07
-4.50286e-07
-4.53913e-07
-4.5367e-07
-4.47229e-07
-4.36966e-07
-4.24265e-07
-4.10943e-07
-3.99633e-07
-3.92001e-07
-3.87177e-07
-3.83753e-07
-3.81347e-07
-3.79898e-07
1.3294e-07
5.89024e-08
-1.39032e-08
-8.24091e-08
-1.46033e-07
-2.04625e-07
-2.57586e-07
-3.03954e-07
-3.4282e-07
-3.73658e-07
-3.96588e-07
-4.1248e-07
-4.23073e-07
-4.30831e-07
-4.38766e-07
-4.48234e-07
-4.55162e-07
-4.52398e-07
-4.36918e-07
-4.13975e-07
-3.95432e-07
-3.88557e-07
-3.89793e-07
-3.90355e-07
-3.87631e-07
-3.83212e-07
-3.7871e-07
-3.7572e-07
-3.74283e-07
1.74176e-07
1.17065e-07
5.84683e-08
-6.52114e-10
-5.87582e-08
-1.14383e-07
-1.66324e-07
-2.13592e-07
-2.55392e-07
-2.91206e-07
-3.20922e-07
-3.44917e-07
-3.6401e-07
-3.79095e-07
-3.90484e-07
-3.98119e-07
-4.01648e-07
-4.00754e-07
-3.96226e-07
-3.91273e-07
-3.90351e-07
-3.9164e-07
-3.88479e-07
-3.79644e-07
-3.72151e-07
-3.70361e-07
-3.71414e-07
-3.71416e-07
-3.67898e-07
2.44287e-07
1.926e-07
1.3835e-07
8.37004e-08
2.96996e-08
-2.29919e-08
-7.36677e-08
-1.21484e-07
-1.65564e-07
-2.0516e-07
-2.39778e-07
-2.69248e-07
-2.93702e-07
-3.13474e-07
-3.28993e-07
-3.40801e-07
-3.49533e-07
-3.55898e-07
-3.60679e-07
-3.64642e-07
-3.6781e-07
-3.69228e-07
-3.68282e-07
-3.66124e-07
-3.6522e-07
-3.65257e-07
-3.63279e-07
-3.6053e-07
-3.59389e-07
2.66811e-07
2.244e-07
1.79027e-07
1.31498e-07
8.28962e-08
3.42103e-08
-1.3664e-08
-5.98504e-08
-1.0348e-07
-1.43757e-07
-1.80047e-07
-2.11951e-07
-2.39341e-07
-2.62371e-07
-2.8145e-07
-2.97183e-07
-3.10226e-07
-3.21126e-07
-3.3017e-07
-3.37381e-07
-3.42589e-07
-3.46182e-07
-3.48839e-07
-3.51261e-07
-3.53625e-07
-3.55734e-07
-3.56925e-07
-3.58666e-07
-3.59236e-07
2.86804e-07
2.49904e-07
2.09928e-07
1.67479e-07
1.23222e-07
7.79759e-08
3.26305e-08
-1.19225e-08
-5.48108e-08
-9.52197e-08
-1.32446e-07
-1.65982e-07
-1.95564e-07
-2.2121e-07
-2.43178e-07
-2.61906e-07
-2.77839e-07
-2.91361e-07
-3.02659e-07
-3.11858e-07
-3.19217e-07
-3.25414e-07
-3.30975e-07
-3.3627e-07
-3.41082e-07
-3.45814e-07
-3.49967e-07
-3.55043e-07
-3.5802e-07
2.97667e-07
2.65488e-07
2.30222e-07
1.92155e-07
1.51832e-07
1.09955e-07
6.73194e-08
2.47585e-08
-1.68813e-08
-5.67913e-08
-9.42349e-08
-1.28641e-07
-1.59631e-07
-1.87091e-07
-2.11094e-07
-2.31917e-07
-2.4984e-07
-2.65206e-07
-2.78226e-07
-2.89291e-07
-2.98749e-07
-3.07251e-07
-3.15004e-07
-3.22469e-07
-3.29323e-07
-3.36374e-07
-3.42674e-07
-3.50129e-07
-3.55274e-07
3.0438e-07
2.75922e-07
2.44454e-07
2.10057e-07
1.73133e-07
1.34271e-07
9.41799e-08
5.36136e-08
1.33755e-08
-2.57567e-08
-6.30241e-08
-9.78239e-08
-1.29673e-07
-1.58365e-07
-1.83809e-07
-2.06188e-07
-2.25657e-07
-2.42595e-07
-2.57218e-07
-2.70068e-07
-2.81373e-07
-2.91793e-07
-3.01276e-07
-3.1052e-07
-3.19003e-07
-3.27837e-07
-3.35719e-07
-3.44707e-07
-3.51772e-07
3.08696e-07
2.83133e-07
2.54698e-07
2.23331e-07
1.89302e-07
1.53088e-07
1.15315e-07
7.66496e-08
3.78449e-08
-3.72308e-10
-3.72278e-08
-7.21127e-08
-1.04456e-07
-1.33996e-07
-1.60513e-07
-1.84141e-07
-2.04932e-07
-2.23311e-07
-2.39429e-07
-2.53898e-07
-2.66788e-07
-2.78807e-07
-2.89743e-07
-3.00444e-07
-3.1028e-07
-3.20411e-07
-3.29599e-07
-3.39556e-07
-3.48311e-07
3.11261e-07
2.88119e-07
2.62221e-07
2.33381e-07
2.01803e-07
1.67885e-07
1.32184e-07
9.5272e-08
5.78538e-08
2.05946e-08
-1.57245e-08
-5.05053e-08
-8.31107e-08
-1.1325e-07
-1.40602e-07
-1.65274e-07
-1.8723e-07
-2.06906e-07
-2.24368e-07
-2.40247e-07
-2.54506e-07
-2.67877e-07
-2.80092e-07
-2.92001e-07
-3.03024e-07
-3.14155e-07
-3.24483e-07
-3.35198e-07
-3.45244e-07
3.12604e-07
2.91507e-07
2.67738e-07
2.41042e-07
2.1158e-07
1.79682e-07
1.45838e-07
1.10533e-07
7.4424e-08
3.8115e-08
2.38597e-09
-3.21851e-08
-6.49135e-08
-9.54926e-08
-1.23524e-07
-1.49088e-07
-1.72068e-07
-1.92888e-07
-2.11539e-07
-2.28639e-07
-2.44107e-07
-2.58646e-07
-2.72017e-07
-2.84962e-07
-2.97055e-07
-3.09038e-07
-3.20356e-07
-3.31743e-07
-3.42691e-07
3.13156e-07
2.9374e-07
2.71742e-07
2.46878e-07
2.19276e-07
1.89182e-07
1.5702e-07
1.23192e-07
8.83123e-08
5.29288e-08
1.7812e-08
-1.64867e-08
-4.92493e-08
-8.0161e-08
-1.08758e-07
-1.35094e-07
-1.58984e-07
-1.80814e-07
-2.00533e-07
-2.18713e-07
-2.35281e-07
-2.50861e-07
-2.6529e-07
-2.79164e-07
-2.92221e-07
-3.04985e-07
-3.17133e-07
-3.29142e-07
-3.40698e-07
3.13641e-07
2.9546e-07
2.74825e-07
2.51476e-07
2.25483e-07
1.96981e-07
1.66322e-07
1.33832e-07
1.00091e-07
6.55887e-08
3.10836e-08
-2.90834e-09
-3.56435e-08
-6.68084e-08
-9.58818e-08
-1.22893e-07
-1.47594e-07
-1.70335e-07
-1.91029e-07
-2.10198e-07
-2.27779e-07
-2.44325e-07
-2.59719e-07
-2.74469e-07
-2.88378e-07
-3.01894e-07
-3.14725e-07
-3.27328e-07
-3.39311e-07
3.14261e-07
2.96984e-07
2.77404e-07
2.55294e-07
2.30657e-07
2.03526e-07
1.74184e-07
1.42886e-07
1.10179e-07
7.64948e-08
4.25795e-08
8.90457e-09
-2.37637e-08
-5.51242e-08
-8.46012e-08
-1.12209e-07
-1.3764e-07
-1.61214e-07
-1.82805e-07
-2.02898e-07
-2.21415e-07
-2.38874e-07
-2.55155e-07
-2.70737e-07
-2.85415e-07
-2.99637e-07
-3.13076e-07
-3.26214e-07
-3.38589e-07
3.14907e-07
2.9835e-07
2.79661e-07
2.58592e-07
2.35093e-07
2.09126e-07
1.80924e-07
1.50676e-07
1.18898e-07
8.59597e-08
5.25952e-08
1.92267e-08
-1.33575e-08
-4.48789e-08
-7.47062e-08
-1.02854e-07
-1.28947e-07
-1.53296e-07
-1.75713e-07
-1.9668e-07
-2.16064e-07
-2.34392e-07
-2.51486e-07
-2.67861e-07
-2.83236e-07
-2.98129e-07
-3.12111e-07
-3.25766e-07
-3.38493e-07
3.1541e-07
2.9951e-07
2.81637e-07
2.61482e-07
2.38955e-07
2.13989e-07
1.86777e-07
1.57458e-07
1.2651e-07
9.42483e-08
6.13868e-08
2.83023e-08
-4.20063e-09
-3.58682e-08
-6.60149e-08
-9.46673e-08
-1.21374e-07
-1.46458e-07
-1.69645e-07
-1.91445e-07
-2.11637e-07
-2.30791e-07
-2.48642e-07
-2.65761e-07
-2.81785e-07
-2.97294e-07
-3.11796e-07
-3.25908e-07
-3.39e-07
3.15683e-07
3.00416e-07
2.83307e-07
2.63981e-07
2.42319e-07
2.18243e-07
1.91907e-07
1.63424e-07
1.33223e-07
1.01586e-07
6.91789e-08
3.63582e-08
3.91703e-09
-2.789e-08
-5.83495e-08
-8.74839e-08
-1.14782e-07
-1.40569e-07
-1.64498e-07
-1.87092e-07
-2.08059e-07
-2.27992e-07
-2.46567e-07
-2.64372e-07
-2.81023e-07
-2.9708e-07
-3.1209e-07
-3.26585e-07
-3.40034e-07
3.15761e-07
3.01078e-07
2.84649e-07
2.6609e-07
2.45229e-07
2.21983e-07
1.96433e-07
1.68726e-07
1.39203e-07
1.08163e-07
7.61606e-08
4.35972e-08
1.11841e-08
-2.07501e-08
-5.15405e-08
-8.11351e-08
-1.0903e-07
-1.35495e-07
-1.60158e-07
-1.83518e-07
-2.05241e-07
-2.25918e-07
-2.45192e-07
-2.63644e-07
-2.80886e-07
-2.97452e-07
-3.1292e-07
-3.27763e-07
-3.41469e-07
3.15829e-07
3.01582e-07
2.85679e-07
2.67841e-07
2.47747e-07
2.2529e-07
2.00454e-07
1.73486e-07
1.44584e-07
1.14134e-07
8.24814e-08
5.019e-08
1.77525e-08
-1.42759e-08
-4.54484e-08
-7.54609e-08
-1.03999e-07
-1.31096e-07
-1.56526e-07
-1.80608e-07
-2.03103e-07
-2.24481e-07
-2.44452e-07
-2.63503e-07
-2.81329e-07
-2.98337e-07
-3.14255e-07
-3.29333e-07
-3.43278e-07
3.16098e-07
3.02012e-07
2.8646e-07
2.69322e-07
2.49958e-07
2.28247e-07
2.04052e-07
1.7781e-07
1.49476e-07
1.19623e-07
8.82547e-08
5.62673e-08
2.37321e-08
-8.33125e-09
-3.99773e-08
-7.03273e-08
-9.9609e-08
-1.27246e-07
-1.53537e-07
-1.78252e-07
-2.0158e-07
-2.23598e-07
-2.44275e-07
-2.63902e-07
-2.82265e-07
-2.99719e-07
-3.15987e-07
-3.31306e-07
-3.45321e-07
3.16716e-07
3.02421e-07
2.87119e-07
2.7069e-07
2.5198e-07
2.30934e-07
2.07318e-07
1.81794e-07
1.53977e-07
1.24721e-07
9.35686e-08
6.19184e-08
2.9198e-08
-2.8273e-09
-3.50729e-08
-6.564e-08
-9.58335e-08
-1.23842e-07
-1.51189e-07
-1.76336e-07
-2.00684e-07
-2.23147e-07
-2.44662e-07
-2.64736e-07
-2.83679e-07
-3.01527e-07
-3.18125e-07
-3.33622e-07
-3.47684e-07
3.17659e-07
3.02802e-07
2.87851e-07
2.7212e-07
2.53927e-07
2.33428e-07
2.10353e-07
1.85522e-07
1.58182e-07
1.29489e-07
9.85024e-08
6.71848e-08
3.42143e-08
2.2585e-09
-3.06914e-08
-6.13783e-08
-9.26621e-08
-1.20844e-07
-1.49525e-07
-1.74779e-07
-2.00515e-07
-2.22987e-07
-2.45732e-07
-2.65827e-07
-2.85627e-07
-3.03668e-07
-3.20673e-07
-3.36384e-07
-3.5039e-07
3.18769e-07
3.03253e-07
2.88941e-07
2.73751e-07
2.55887e-07
2.35811e-07
2.13279e-07
1.89066e-07
1.62188e-07
1.3396e-07
1.03141e-07
7.20607e-08
3.88556e-08
6.877e-09
-2.67682e-08
-5.76294e-08
-9.00397e-08
-1.18349e-07
-1.4852e-07
-1.73634e-07
-2.01144e-07
-2.2307e-07
-2.47735e-07
-2.66923e-07
-2.88449e-07
-3.05816e-07
-3.23781e-07
-3.39645e-07
-3.53516e-07
3.19979e-07
3.03954e-07
2.90586e-07
2.75633e-07
2.57928e-07
2.38177e-07
2.16213e-07
1.92487e-07
1.66083e-07
1.38153e-07
1.07569e-07
7.65195e-08
4.31967e-08
1.09417e-08
-2.3221e-08
-5.45567e-08
-8.78556e-08
-1.16593e-07
-1.48029e-07
-1.73185e-07
-2.0243e-07
-2.23596e-07
-2.50714e-07
-2.67966e-07
-2.92802e-07
-3.07289e-07
-3.28517e-07
-3.42812e-07
-3.57775e-07
3.2129e-07
3.05347e-07
2.92824e-07
2.77757e-07
2.60129e-07
2.40632e-07
2.19246e-07
1.95837e-07
1.69928e-07
1.42093e-07
1.11833e-07
8.05434e-08
4.72761e-08
1.43863e-08
-1.99938e-08
-5.2294e-08
-8.59967e-08
-1.15812e-07
-1.47827e-07
-1.73855e-07
-2.03977e-07
-2.25286e-07
-2.54118e-07
-2.69782e-07
-2.9842e-07
-3.08353e-07
-3.36253e-07
-3.44334e-07
-3.63663e-07
3.22823e-07
3.0768e-07
2.95599e-07
2.80256e-07
2.62729e-07
2.43427e-07
2.22544e-07
1.99271e-07
1.73815e-07
1.45879e-07
1.15963e-07
8.41786e-08
5.10751e-08
1.72141e-08
-1.71237e-08
-5.08649e-08
-8.44794e-08
-1.16063e-07
-1.47786e-07
-1.75771e-07
-2.05453e-07
-2.28562e-07
-2.57077e-07
-2.73599e-07
-3.03918e-07
-3.1054e-07
-3.47455e-07
-3.42165e-07
-3.78337e-07
3.25198e-07
3.10956e-07
2.97766e-07
2.81863e-07
2.65081e-07
2.46273e-07
2.25959e-07
2.02734e-07
1.77708e-07
1.49541e-07
1.19925e-07
8.7471e-08
5.4499e-08
1.94702e-08
-1.47939e-08
-5.01754e-08
-8.36067e-08
-1.1723e-07
-1.48246e-07
-1.78534e-07
-2.06804e-07
-2.33069e-07
-2.59014e-07
-2.79773e-07
-3.07174e-07
-3.16874e-07
-3.57513e-07
-3.37767e-07
-4.07282e-07
3.29022e-07
3.16783e-07
3.03032e-07
2.86441e-07
2.6916e-07
2.50181e-07
2.30028e-07
2.06758e-07
1.81908e-07
1.53435e-07
1.23836e-07
9.0651e-08
5.75218e-08
2.12963e-08
-1.31288e-08
-5.0059e-08
-8.35074e-08
-1.19333e-07
-1.49749e-07
-1.82961e-07
-2.09095e-07
-2.38802e-07
-2.61234e-07
-2.86901e-07
-3.08186e-07
-3.28271e-07
-3.59848e-07
-3.44435e-07
-4.48741e-07
3.31368e-07
3.1813e-07
3.03917e-07
2.87815e-07
2.71411e-07
2.52937e-07
2.33138e-07
2.09921e-07
1.85209e-07
1.56512e-07
1.26838e-07
9.31107e-08
5.96628e-08
2.25585e-08
-1.24126e-08
-5.03588e-08
-8.41217e-08
-1.20634e-07
-1.51349e-07
-1.85182e-07
-2.11376e-07
-2.42452e-07
-2.63129e-07
-2.92035e-07
-3.07037e-07
-3.33966e-07
-3.51424e-07
-3.60859e-07
-5.14249e-07
3.49303e-07
3.2911e-07
3.12332e-07
2.95557e-07
2.78789e-07
2.60015e-07
2.40071e-07
2.16676e-07
1.91632e-07
1.62339e-07
1.31859e-07
9.70181e-08
6.23229e-08
2.37718e-08
-1.25744e-08
-5.22057e-08
-8.73613e-08
-1.25619e-07
-1.57234e-07
-1.92439e-07
-2.19238e-07
-2.50827e-07
-2.72146e-07
-3.01182e-07
-3.15328e-07
-3.47021e-07
-3.50083e-07
-3.90491e-07
-5.01617e-07
-4.23016e-07
-4.155e-07
-4.09974e-07
-4.12973e-07
-4.1999e-07
-4.29997e-07
-4.3827e-07
-4.44761e-07
-4.49379e-07
-4.5203e-07
-4.52754e-07
-4.51891e-07
-4.49881e-07
-4.47036e-07
-4.43639e-07
-4.39772e-07
-4.35549e-07
-4.31118e-07
-4.26509e-07
-4.22017e-07
-4.17667e-07
-4.13798e-07
-4.1084e-07
-4.09264e-07
-4.10529e-07
-4.1439e-07
-4.19316e-07
-4.11437e-07
-3.75655e-07
-3.07473e-07
-4.23034e-07
-4.16498e-07
-4.11055e-07
-4.11986e-07
-4.20523e-07
-4.33509e-07
-4.45825e-07
-4.55984e-07
-4.63782e-07
-4.68939e-07
-4.71447e-07
-4.71583e-07
-4.70036e-07
-4.67284e-07
-4.63651e-07
-4.59465e-07
-4.54652e-07
-4.49489e-07
-4.43974e-07
-4.38216e-07
-4.32609e-07
-4.26894e-07
-4.21887e-07
-4.16817e-07
-4.11972e-07
-4.05825e-07
-3.97073e-07
-3.86405e-07
-3.73782e-07
-3.63869e-07
-4.23115e-07
-4.17787e-07
-4.13907e-07
-4.15729e-07
-4.23232e-07
-4.35276e-07
-4.49769e-07
-4.63432e-07
-4.75025e-07
-4.83879e-07
-4.89703e-07
-4.9246e-07
-4.92435e-07
-4.90485e-07
-4.86978e-07
-4.82553e-07
-4.7746e-07
-4.71701e-07
-4.65729e-07
-4.59068e-07
-4.52383e-07
-4.45125e-07
-4.3762e-07
-4.29569e-07
-4.20372e-07
-4.10987e-07
-4.00627e-07
-3.9211e-07
-3.81073e-07
-3.67604e-07
-4.23145e-07
-4.19033e-07
-4.16974e-07
-4.19852e-07
-4.27493e-07
-4.38669e-07
-4.53083e-07
-4.68596e-07
-4.83119e-07
-4.95644e-07
-5.05381e-07
-5.12149e-07
-5.156e-07
-5.16077e-07
-5.14086e-07
-5.09939e-07
-5.04697e-07
-4.98203e-07
-4.91272e-07
-4.83726e-07
-4.7572e-07
-4.6749e-07
-4.58282e-07
-4.49064e-07
-4.38723e-07
-4.28979e-07
-4.18458e-07
-4.0839e-07
-3.96806e-07
-3.8449e-07
-4.22909e-07
-4.20038e-07
-4.19869e-07
-4.24134e-07
-4.32315e-07
-4.43515e-07
-4.57036e-07
-4.72605e-07
-4.88673e-07
-5.03785e-07
-5.17056e-07
-5.27691e-07
-5.35611e-07
-5.40062e-07
-5.41709e-07
-5.40084e-07
-5.36212e-07
-5.30166e-07
-5.22555e-07
-5.14052e-07
-5.04389e-07
-4.94694e-07
-4.84076e-07
-4.73819e-07
-4.62948e-07
-4.52385e-07
-4.41362e-07
-4.30207e-07
-4.18858e-07
-4.07719e-07
-4.22144e-07
-4.20509e-07
-4.22152e-07
-4.2792e-07
-4.36952e-07
-4.48433e-07
-4.61775e-07
-4.7656e-07
-4.927e-07
-5.08853e-07
-5.24488e-07
-5.38175e-07
-5.49978e-07
-5.58691e-07
-5.64768e-07
-5.67495e-07
-5.6722e-07
-5.64058e-07
-5.58162e-07
-5.50344e-07
-5.4057e-07
-5.29881e-07
-5.18157e-07
-5.06178e-07
-4.93777e-07
-4.81271e-07
-4.68621e-07
-4.55972e-07
-4.435e-07
-4.31596e-07
-4.20567e-07
-4.20104e-07
-4.23374e-07
-4.30576e-07
-4.40588e-07
-4.52654e-07
-4.66228e-07
-4.80959e-07
-4.96357e-07
-5.1256e-07
-5.28589e-07
-5.44305e-07
-5.58555e-07
-5.70868e-07
-5.8088e-07
-5.88098e-07
-5.92373e-07
-5.93562e-07
-5.91633e-07
-5.8691e-07
-5.79579e-07
-5.70187e-07
-5.59038e-07
-5.46634e-07
-5.33233e-07
-5.19232e-07
-5.04763e-07
-4.90216e-07
-4.75606e-07
-4.61694e-07
-4.17897e-07
-4.18479e-07
-4.23114e-07
-4.31564e-07
-4.4253e-07
-4.55291e-07
-4.69297e-07
-4.84235e-07
-4.99571e-07
-5.15669e-07
-5.31255e-07
-5.47712e-07
-5.62763e-07
-5.77338e-07
-5.90086e-07
-6.00938e-07
-6.0927e-07
-6.14912e-07
-6.17574e-07
-6.17273e-07
-6.13947e-07
-6.07903e-07
-5.99301e-07
-5.88642e-07
-5.76179e-07
-5.62473e-07
-5.47773e-07
-5.32597e-07
-5.1726e-07
-5.02388e-07
-4.13907e-07
-4.15375e-07
-4.21091e-07
-4.30501e-07
-4.4228e-07
-4.55706e-07
-4.70225e-07
-4.85512e-07
-5.01101e-07
-5.17249e-07
-5.3294e-07
-5.49187e-07
-5.64485e-07
-5.79867e-07
-5.93927e-07
-6.06967e-07
-6.18115e-07
-6.27278e-07
-6.3386e-07
-6.37801e-07
-6.38807e-07
-6.36956e-07
-6.32234e-07
-6.24849e-07
-6.15123e-07
-6.03342e-07
-5.90117e-07
-5.75695e-07
-5.60984e-07
-5.46156e-07
-4.08468e-07
-4.10726e-07
-4.17202e-07
-4.27247e-07
-4.39597e-07
-4.53519e-07
-4.68465e-07
-4.84078e-07
-4.99977e-07
-5.16184e-07
-5.32163e-07
-5.48291e-07
-5.6391e-07
-5.79331e-07
-5.93955e-07
-6.07856e-07
-6.20498e-07
-6.31651e-07
-6.40948e-07
-6.47978e-07
-6.52655e-07
-6.54487e-07
-6.53805e-07
-6.50089e-07
-6.44074e-07
-6.35235e-07
-6.24661e-07
-6.1189e-07
-5.98295e-07
-5.83476e-07
-4.01736e-07
-4.04603e-07
-4.11546e-07
-4.21904e-07
-4.34533e-07
-4.48695e-07
-4.63854e-07
-4.79618e-07
-4.95683e-07
-5.11896e-07
-5.28014e-07
-5.44064e-07
-5.59785e-07
-5.75196e-07
-5.90044e-07
-6.0422e-07
-6.17467e-07
-6.29526e-07
-6.40209e-07
-6.49021e-07
-6.56083e-07
-6.60554e-07
-6.6307e-07
-6.62463e-07
-6.59947e-07
-6.54151e-07
-6.46739e-07
-6.36248e-07
-6.2465e-07
-6.10403e-07
-3.94082e-07
-3.97349e-07
-4.04499e-07
-4.14868e-07
-4.27454e-07
-4.41537e-07
-4.56594e-07
-4.72235e-07
-4.88172e-07
-5.04205e-07
-5.20175e-07
-5.35987e-07
-5.51525e-07
-5.66711e-07
-5.81419e-07
-5.95521e-07
-6.08842e-07
-6.21175e-07
-6.32347e-07
-6.42036e-07
-6.50193e-07
-6.56324e-07
-6.6065e-07
-6.62457e-07
-6.62408e-07
-6.5942e-07
-6.5484e-07
-6.4706e-07
-6.3841e-07
-6.25674e-07
-3.86101e-07
-3.89568e-07
-3.96704e-07
-4.06827e-07
-4.19064e-07
-4.32734e-07
-4.47338e-07
-4.62495e-07
-4.77929e-07
-4.93435e-07
-5.08864e-07
-5.24108e-07
-5.39076e-07
-5.53684e-07
-5.67839e-07
-5.81433e-07
-5.94334e-07
-6.06384e-07
-6.17424e-07
-6.27264e-07
-6.35741e-07
-6.42629e-07
-6.47807e-07
-6.51275e-07
-6.52834e-07
-6.52187e-07
-6.49646e-07
-6.44162e-07
-6.39781e-07
-6.29228e-07
-3.78532e-07
-3.82045e-07
-3.89004e-07
-3.98693e-07
-4.10346e-07
-4.23322e-07
-4.37147e-07
-4.51462e-07
-4.66003e-07
-4.80569e-07
-4.95013e-07
-5.09232e-07
-5.23141e-07
-5.36672e-07
-5.49758e-07
-5.62324e-07
-5.74272e-07
-5.85442e-07
-5.95715e-07
-6.04983e-07
-6.13152e-07
-6.20168e-07
-6.25757e-07
-6.29637e-07
-6.32031e-07
-6.32831e-07
-6.31995e-07
-6.29444e-07
-6.2543e-07
-6.19804e-07
-3.72116e-07
-3.75592e-07
-3.82286e-07
-3.91457e-07
-4.02409e-07
-4.14524e-07
-4.27349e-07
-4.40533e-07
-4.5385e-07
-4.67083e-07
-4.80094e-07
-4.92784e-07
-5.05082e-07
-5.16938e-07
-5.28312e-07
-5.3918e-07
-5.49557e-07
-5.59e-07
-5.67588e-07
-5.75269e-07
-5.81973e-07
-5.87622e-07
-5.92408e-07
-5.96207e-07
-5.98951e-07
-6.00582e-07
-6.01086e-07
-6.00529e-07
-5.99067e-07
-5.96832e-07
-3.67435e-07
-3.70852e-07
-3.77281e-07
-3.85969e-07
-3.96254e-07
-4.07527e-07
-4.1933e-07
-4.31284e-07
-4.43287e-07
-4.55011e-07
-4.66341e-07
-4.77192e-07
-4.87502e-07
-4.97227e-07
-5.06322e-07
-5.1473e-07
-5.22347e-07
-5.29537e-07
-5.36136e-07
-5.42093e-07
-5.47388e-07
-5.52023e-07
-5.56038e-07
-5.59475e-07
-5.62367e-07
-5.64732e-07
-5.6658e-07
-5.67966e-07
-5.6905e-07
-5.70069e-07
-3.64773e-07
-3.68132e-07
-3.74337e-07
-3.82642e-07
-3.92391e-07
-4.02971e-07
-4.13935e-07
-4.24963e-07
-4.35638e-07
-4.45913e-07
-4.55649e-07
-4.64767e-07
-4.73222e-07
-4.80999e-07
-4.88099e-07
-4.94539e-07
-5.00366e-07
-5.05682e-07
-5.10536e-07
-5.14975e-07
-5.19056e-07
-5.22845e-07
-5.26405e-07
-5.29801e-07
-5.33113e-07
-5.364e-07
-5.39679e-07
-5.42886e-07
-5.46067e-07
-5.49702e-07
-3.64157e-07
-3.67432e-07
-3.73425e-07
-3.81419e-07
-3.90731e-07
-4.00724e-07
-4.10929e-07
-4.20982e-07
-4.30594e-07
-4.39619e-07
-4.47952e-07
-4.55553e-07
-4.62413e-07