/*--------------------------------*- C++ -*----------------------------------*\
| =========                 |                                                 |
| \\      /  F ield         | OpenFOAM: The Open Source CFD Toolbox           |
|  \\    /   O peration     | Version:  2312                                  |
|   \\  /    A nd           | Website:  www.openfoam.com                      |
|    \\/     M anipulation  |                                                 |
\*---------------------------------------------------------------------------*/
FoamFile
{
    version     2.0;
    format      ascii;
    arch        "LSB;label=32;scalar=64";
    class       surfaceScalarField;
    location    "110000";
    object      phi;
}
// * * * * * * * * * * * * * * * * * * * * * * * * * * * * * * * * * * * * * //

dimensions      [0 3 -1 0 0 0 0];

oriented        oriented;

internalField   nonuniform List<scalar> 
21240
(
0.000664975
1.69217e-06
0.000661072
3.90217e-06
0.000655752
5.32049e-06
0.000649516
6.23591e-06
0.000642641
6.87451e-06
0.00063527
7.37099e-06
0.000627495
7.77582e-06
0.000619393
8.10206e-06
0.000611037
8.35571e-06
0.000602491
8.54577e-06
0.000593807
8.68452e-06
0.000585022
8.78428e-06
0.000576168
8.85467e-06
0.000567266
8.90201e-06
0.000558335
8.93011e-06
0.000549394
8.94144e-06
0.000540456
8.93783e-06
0.000531535
8.92084e-06
0.000522644
8.89178e-06
0.000513792
8.85175e-06
0.00050499
8.80155e-06
0.000496249
8.74177e-06
0.000487576
8.67282e-06
0.000478981
8.59501e-06
0.000470472
8.50854e-06
0.000462059
8.41354e-06
0.000453748
8.31015e-06
0.00044555
8.19835e-06
0.000437472
8.07828e-06
0.000429522
7.94978e-06
0.000421709
7.81308e-06
0.000414041
7.66782e-06
0.000406527
7.51449e-06
0.000399174
7.35233e-06
0.000391992
7.18243e-06
0.000384989
7.00326e-06
0.000378172
6.817e-06
0.000371551
6.62069e-06
0.000365132
6.41856e-06
0.000358927
6.20493e-06
0.00035294
5.98782e-06
0.000347183
5.75647e-06
0.000341657
5.52583e-06
0.000336382
5.27576e-06
0.000331348
5.0339e-06
0.000326585
4.7628e-06
0.000322072
4.51331e-06
0.000317856
4.21603e-06
0.000313891
3.96469e-06
0.000310261
3.62982e-06
0.000306874
3.38696e-06
0.000303886
2.98813e-06
0.000301109
2.77664e-06
0.000298863
2.2461e-06
0.000296737
2.1259e-06
0.000295487
1.25071e-06
0.000294003
1.48315e-06
0.000294209
-2.05886e-07
0.000293045
1.16468e-06
-3.20061e-06
0.000296245
0.000667556
8.02815e-07
0.000669121
2.33746e-06
0.000670854
3.58676e-06
0.000672526
4.56452e-06
0.000674055
5.34516e-06
0.000675429
5.99745e-06
0.000676642
6.56302e-06
0.000677683
7.06029e-06
0.000678543
7.4963e-06
0.000679213
7.8755e-06
0.000679694
8.20351e-06
0.000679991
8.48725e-06
0.000680112
8.73373e-06
0.000680065
8.94882e-06
0.000679858
9.13683e-06
0.000679499
9.3007e-06
0.000678994
9.44256e-06
0.000678351
9.56399e-06
0.000677577
9.66645e-06
0.000676677
9.75097e-06
0.00067566
9.81869e-06
0.000674532
9.87014e-06
0.000673299
9.90616e-06
0.000671967
9.92681e-06
0.000670542
9.93281e-06
0.000669032
9.92376e-06
0.000667442
9.90054e-06
0.000665778
9.8622e-06
0.000664046
9.81003e-06
0.000662254
9.74234e-06
0.000660406
9.6612e-06
0.00065851
9.56373e-06
0.000656571
9.45345e-06
0.000654598
9.32556e-06
0.000652594
9.18598e-06
0.00065057
9.02684e-06
0.000648529
8.85802e-06
0.000646483
8.66656e-06
0.000644433
8.46895e-06
0.000642394
8.2438e-06
0.000640364
8.01851e-06
0.000638362
7.7577e-06
0.000636381
7.50685e-06
0.00063445
7.20737e-06
0.000632549
6.93463e-06
0.00063072
6.59165e-06
0.00062893
6.30314e-06
0.000627238
5.90871e-06
0.000625588
5.6145e-06
0.000624062
5.15565e-06
0.000622577
4.8722e-06
0.000621237
4.32831e-06
0.000619931
4.08221e-06
0.000618755
3.4223e-06
0.000617626
3.25476e-06
0.000616438
2.43895e-06
0.000615515
2.4055e-06
0.000613894
1.41529e-06
0.000613492
1.56633e-06
4.70374e-07
0.000609821
0.000666951
5.18444e-07
0.000667819
1.46958e-06
0.000669059
2.34642e-06
0.000670485
3.13905e-06
0.000671987
3.84332e-06
0.000673517
4.46687e-06
0.000675058
5.02193e-06
0.000676599
5.5196e-06
0.000678128
5.9677e-06
0.000679632
6.37113e-06
0.000681102
6.73343e-06
0.000682531
7.05786e-06
0.000683917
7.34796e-06
0.000685259
7.60719e-06
0.000686557
7.83883e-06
0.000687812
8.0455e-06
0.000689025
8.22944e-06
0.000690197
8.39217e-06
0.000691328
8.5352e-06
0.00069242
8.65942e-06
0.000693472
8.76599e-06
0.000694487
8.85533e-06
0.000695465
8.92844e-06
0.000696407
8.98522e-06
0.000697313
9.02666e-06
0.000698184
9.05212e-06
0.000699022
9.06274e-06
0.000699827
9.05728e-06
0.0007006
9.03731e-06
0.000701341
9.00075e-06
0.000702053
8.94995e-06
0.000702735
8.8817e-06
0.000703388
8.79957e-06
0.000704015
8.6987e-06
0.000704617
8.5846e-06
0.000705194
8.44999e-06
0.000705748
8.30328e-06
0.000706281
8.13362e-06
0.000706796
7.95376e-06
0.000707293
7.74764e-06
0.000707777
7.53432e-06
0.000708244
7.29026e-06
0.000708708
7.04351e-06
0.000709155
6.76001e-06
0.000709609
6.48031e-06
0.000710045
6.15598e-06
0.000710504
5.84444e-06
0.000710934
5.47831e-06
0.000711412
5.13661e-06
0.000711839
4.72862e-06
0.000712352
4.35881e-06
0.00071277
3.91101e-06
0.000713337
3.51502e-06
0.000713724
3.03471e-06
0.000714365
2.61397e-06
0.000714683
2.12149e-06
0.000715412
1.67608e-06
0.000715606
1.22156e-06
0.000716432
7.40174e-07
4.25577e-07
0.000716477
0.000666854
3.31221e-07
0.000667309
1.01461e-06
0.000667973
1.68276e-06
0.000668797
2.31498e-06
0.000669738
2.90206e-06
0.000670764
3.44109e-06
0.000671852
3.93364e-06
0.000672988
4.38336e-06
0.000674162
4.79417e-06
0.000675364
5.16929e-06
0.000676586
5.51123e-06
0.000677822
5.82204e-06
0.000679066
6.1037e-06
0.000680315
6.35819e-06
0.000681566
6.58752e-06
0.000682818
6.79352e-06
0.00068407
6.97787e-06
0.00068532
7.14188e-06
0.000686568
7.28678e-06
0.000687814
7.41338e-06
0.000689058
7.52259e-06
0.000690298
7.61492e-06
0.000691536
7.69103e-06
0.00069277
7.75116e-06
0.000694001
7.79582e-06
0.000695228
7.825e-06
0.000696451
7.83908e-06
0.000697671
7.83781e-06
0.000698887
7.82153e-06
0.000700098
7.7898e-06
0.000701305
7.7429e-06
0.000702506
7.68026e-06
0.000703704
7.6021e-06
0.000704894
7.50782e-06
0.000706082
7.39747e-06
0.000707261
7.27063e-06
0.000708437
7.12691e-06
0.000709604
6.96652e-06
0.00071077
6.78807e-06
0.000711924
6.59318e-06
0.00071308
6.37841e-06
0.000714222
6.14829e-06
0.000715371
5.89535e-06
0.000716501
5.62968e-06
0.000717645
5.33632e-06
0.000718765
5.03557e-06
0.000719911
4.69891e-06
0.000721024
4.36496e-06
0.000722179
3.98134e-06
0.000723289
3.61883e-06
0.000724464
3.18376e-06
0.000725573
2.80212e-06
0.000726778
2.30981e-06
0.000727887
1.92592e-06
0.000729133
1.36772e-06
0.000730245
1.00962e-06
0.000731548
3.73796e-07
0.00073268
8.90573e-08
0.000734116
-6.96025e-07
-8.63313e-07
0.000735405
0.000666738
2.59415e-07
0.00066697
7.83121e-07
0.000667357
1.29608e-06
0.00066788
1.79129e-06
0.00066852
2.26286e-06
0.000669253
2.70719e-06
0.000670064
3.12284e-06
0.000670938
3.50988e-06
0.000671863
3.86918e-06
0.00067283
4.20189e-06
0.000673832
4.50907e-06
0.000674863
4.7917e-06
0.000675916
5.05073e-06
0.000676987
5.28713e-06
0.000678072
5.50192e-06
0.00067917
5.69613e-06
0.000680277
5.87074e-06
0.000681392
6.02668e-06
0.000682514
6.1647e-06
0.000683642
6.2855e-06
0.000684775
6.38963e-06
0.000685912
6.47761e-06
0.000687053
6.54977e-06
0.000688198
6.60654e-06
0.000689346
6.64801e-06
0.000690496
6.67457e-06
0.000691649
6.68604e-06
0.000692804
6.68286e-06
0.000693961
6.66451e-06
0.00069512
6.63159e-06
0.000696279
6.58313e-06
0.000697439
6.52012e-06
0.000698601
6.44088e-06
0.000699761
6.34714e-06
0.000700923
6.2361e-06
0.000702083
6.1108e-06
0.000703243
5.96663e-06
0.0007044
5.80882e-06
0.000705559
5.62986e-06
0.000706713
5.43861e-06
0.000707869
5.22286e-06
0.00070902
4.99742e-06
0.000710173
4.74247e-06
0.00071132
4.48252e-06
0.000712471
4.18549e-06
0.000713615
3.89151e-06
0.000714765
3.54873e-06
0.000715907
3.22226e-06
0.00071706
2.8284e-06
0.000718207
2.47212e-06
0.000719372
2.01882e-06
0.000720537
1.63721e-06
0.000721735
1.11176e-06
0.000722948
7.12844e-07
0.000724224
9.15364e-08
0.000725525
-2.9099e-07
0.000726891
-9.92144e-07
0.000728332
-1.3522e-06
0.000729848
-2.21167e-06
-2.5225e-06
0.000731507
0.000666724
2.01999e-07
0.000666899
6.07864e-07
0.000667184
1.01108e-06
0.000667571
1.40513e-06
0.000668047
1.7863e-06
0.000668603
2.15166e-06
0.000669226
2.49916e-06
0.000669909
2.82757e-06
0.000670641
3.13633e-06
0.000671418
3.42529e-06
0.000672233
3.69454e-06
0.00067308
3.94436e-06
0.000673956
4.17508e-06
0.000674856
4.38715e-06
0.000675776
4.58103e-06
0.000676715
4.75725e-06
0.00067767
4.9163e-06
0.000678638
5.05873e-06
0.000679617
5.18497e-06
0.000680607
5.29551e-06
0.000681606
5.39063e-06
0.000682613
5.47076e-06
0.000683627
5.53602e-06
0.000684647
5.5868e-06
0.000685672
5.62303e-06
0.000686701
5.64512e-06
0.000687734
5.65273e-06
0.000688771
5.64637e-06
0.00068981
5.62536e-06
0.000690851
5.59043e-06
0.000691894
5.54043e-06
0.000692938
5.4765e-06
0.000693982
5.39676e-06
0.000695026
5.30309e-06
0.000696069
5.19254e-06
0.000697112
5.06816e-06
0.000698153
4.92538e-06
0.000699193
4.76915e-06
0.00070023
4.59234e-06
0.000701266
4.40301e-06
0.000702299
4.18997e-06
0.00070333
3.96621e-06
0.000704358
3.7142e-06
0.000705386
3.45466e-06
0.000706412
3.16017e-06
0.000707439
2.86364e-06
0.000708466
2.52225e-06
0.0007095
2.18831e-06
0.000710533
1.79516e-06
0.00071158
1.42551e-06
0.000712623
9.75506e-07
0.000713685
5.75019e-07
0.000714731
6.5992e-08
0.000715821
-3.77502e-07
0.000716904
-9.90716e-07
0.000718062
-1.44965e-06
0.000719234
-2.16425e-06
0.000720514
-2.63139e-06
0.000721788
-3.48591e-06
-3.94033e-06
0.000723206
0.000666708
1.60204e-07
0.000666834
4.82452e-07
0.000667041
8.03914e-07
0.000667326
1.12003e-06
0.000667684
1.42827e-06
0.000668109
1.72649e-06
0.000668596
2.01298e-06
0.000669137
2.2865e-06
0.000669727
2.54628e-06
0.00067036
2.79199e-06
0.000671032
3.02225e-06
0.000671739
3.23716e-06
0.000672478
3.43687e-06
0.000673243
3.62147e-06
0.000674033
3.79107e-06
0.000674845
3.94588e-06
0.000675675
4.08607e-06
0.000676522
4.21192e-06
0.000677383
4.3236e-06
0.000678257
4.42139e-06
0.000679142
4.50541e-06
0.000680037
4.57591e-06
0.00068094
4.63291e-06
0.00068185
4.67664e-06
0.000682767
4.70699e-06
0.000683687
4.72421e-06
0.000684612
4.72801e-06
0.00068554
4.71869e-06
0.000686469
4.69571e-06
0.0006874
4.65954e-06
0.000688332
4.60927e-06
0.000689262
4.54564e-06
0.000690192
4.46722e-06
0.00069112
4.37525e-06
0.000692045
4.26753e-06
0.000692967
4.14606e-06
0.000693885
4.00751e-06
0.000694799
3.85515e-06
0.000695707
3.68388e-06
0.000696611
3.49898e-06
0.000697509
3.29266e-06
0.000698401
3.0734e-06
0.000699286
2.82924e-06
0.000700167
2.57375e-06
0.000701039
2.2885e-06
0.000701908
1.99496e-06
0.000702766
1.66431e-06
0.000703624
1.33008e-06
0.000704472
9.46924e-07
0.00070533
5.67519e-07
0.000706185
1.20173e-07
0.000707061
-3.00598e-07
0.000707937
-8.09625e-07
0.000708838
-1.27866e-06
0.000709722
-1.87522e-06
0.000710664
-2.39165e-06
0.000711593
-3.09255e-06
0.000712614
-3.65255e-06
0.000713613
-4.485e-06
-5.07756e-06
0.00071475
0.000666699
1.28105e-07
0.000666796
3.85445e-07
0.000666957
6.42558e-07
0.000667181
8.96253e-07
0.000667464
1.14479e-06
0.000667804
1.38664e-06
0.000668197
1.62047e-06
0.000668638
1.8452e-06
0.000669124
2.05993e-06
0.000669652
2.26396e-06
0.000670218
2.45665e-06
0.000670818
2.6376e-06
0.000671448
2.80657e-06
0.000672106
2.96348e-06
0.000672789
3.10823e-06
0.000673494
3.24081e-06
0.000674219
3.36122e-06
0.000674961
3.46949e-06
0.000675719
3.56566e-06
0.000676491
3.64981e-06
0.000677274
3.72195e-06
0.000678068
3.78218e-06
0.00067887
3.83045e-06
0.00067968
3.86685e-06
0.000680496
3.89127e-06
0.000681316
3.90378e-06
0.00068214
3.90415e-06
0.000682966
3.8925e-06
0.000683794
3.86844e-06
0.000684621
3.83211e-06
0.000685447
3.78294e-06
0.000686272
3.72119e-06
0.000687093
3.64598e-06
0.00068791
3.55777e-06
0.000688723
3.45526e-06
0.000689529
3.33927e-06
0.000690329
3.20789e-06
0.000691122
3.0625e-06
0.000691905
2.90027e-06
0.000692681
2.72354e-06
0.000693445
2.52805e-06
0.000694201
2.31764e-06
0.000694944
2.08594e-06
0.000695679
1.8391e-06
0.0006964
1.56751e-06
0.000697114
1.28112e-06
0.000697813
9.65498e-07
0.000698506
6.36762e-07
0.000699179
2.73559e-07
0.000699848
-1.00603e-07
0.000700497
-5.28811e-07
0.000701156
-9.60368e-07
0.000701798
-1.45118e-06
0.000702459
-1.93943e-06
0.000703093
-2.50935e-06
0.000703763
-3.06198e-06
0.000704398
-3.72739e-06
0.000705094
-4.34851e-06
0.000705738
-5.12873e-06
-5.81836e-06
0.000706478
0.000666693
1.01873e-07
0.000666772
3.06415e-07
0.000666904
5.10959e-07
0.000667087
7.1318e-07
0.00066732
9.11849e-07
0.0006676
1.10585e-06
0.000667927
1.29417e-06
0.000668296
1.47593e-06
0.000668705
1.65035e-06
0.000669153
1.81679e-06
0.000669635
1.97474e-06
0.000670148
2.12375e-06
0.000670691
2.26349e-06
0.000671261
2.39372e-06
0.000671855
2.51422e-06
0.000672471
2.62488e-06
0.000673107
2.72556e-06
0.00067376
2.8162e-06
0.000674429
2.89672e-06
0.000675112
2.96709e-06
0.000675806
3.02725e-06
0.000676512
3.07717e-06
0.000677225
3.11678e-06
0.000677946
3.14605e-06
0.000678672
3.16487e-06
0.000679403
3.17319e-06
0.000680136
3.17085e-06
0.000680871
3.15777e-06
0.000681606
3.13372e-06
0.000682339
3.0986e-06
0.00068307
3.05209e-06
0.000683797
2.99407e-06
0.000684519
2.9241e-06
0.000685235
2.84206e-06
0.000685943
2.74734e-06
0.000686642
2.63986e-06
0.000687331
2.51879e-06
0.00068801
2.38413e-06
0.000688675
2.23474e-06
0.000689328
2.07076e-06
0.000689965
1.89066e-06
0.000690588
1.69481e-06
0.000691193
1.48113e-06
0.000691782
1.25036e-06
0.00069235
9.99654e-07
0.0006929
7.3033e-07
0.000693427
4.38383e-07
0.000693938
1.26446e-07
0.000694425
-2.13958e-07
0.000694903
-5.78332e-07
0.000695348
-9.73778e-07
0.000695782
-1.39443e-06
0.000696183
-1.85209e-06
0.000696581
-2.3371e-06
0.000696938
-2.86721e-06
0.000697303
-3.42699e-06
0.000697619
-4.04277e-06
0.000697959
-4.68914e-06
0.000698236
-5.40577e-06
-6.14979e-06
0.000698568
0.000666689
7.97522e-08
0.000666755
2.39852e-07
0.000666866
4.0006e-07
0.000667021
5.58651e-07
0.000667218
7.14739e-07
0.000667456
8.67505e-07
0.000667734
1.01619e-06
0.00066805
1.16012e-06
0.000668402
1.29868e-06
0.000668787
1.43134e-06
0.000669204
1.55764e-06
0.000669651
1.67717e-06
0.000670125
1.78961e-06
0.000670624
1.89466e-06
0.000671146
1.9921e-06
0.000671689
2.08173e-06
0.000672251
2.16338e-06
0.00067283
2.23693e-06
0.000673425
2.30225e-06
0.000674033
2.35924e-06
0.000674652
2.4078e-06
0.000675282
2.44784e-06
0.000675919
2.47927e-06
0.000676563
2.50198e-06
0.000677212
2.51588e-06
0.000677865
2.52083e-06
0.000678519
2.51671e-06
0.000679173
2.50335e-06
0.000679826
2.48062e-06
0.000680477
2.44825e-06
0.000681123
2.40609e-06
0.000681763
2.35381e-06
0.000682396
2.29125e-06
0.00068302
2.21793e-06
0.000683633
2.13371e-06
0.000684235
2.03792e-06
0.000684824
1.9305e-06
0.000685397
1.8105e-06
0.000685954
1.678e-06
0.000686493
1.53163e-06
0.000687012
1.37177e-06
0.00068751
1.19639e-06
0.000687985
1.00645e-06
0.000688437
7.98928e-07
0.00068886
5.75791e-07
0.000689258
3.32621e-07
0.000689623
7.38569e-08
0.000689962
-2.13268e-07
0.000690268
-5.19173e-07
0.000690544
-8.54302e-07
0.000690778
-1.20824e-06
0.000690983
-1.59935e-06
0.00069114
-2.00929e-06
0.00069127
-2.46684e-06
0.000691344
-2.94123e-06
0.000691395
-3.47817e-06
0.000691379
-4.02669e-06
0.000691349
-4.65922e-06
0.000691235
-5.29163e-06
-6.03779e-06
0.000691123
0.000666686
6.05786e-08
0.000666743
1.82199e-07
0.00066684
3.03973e-07
0.000666974
4.24637e-07
0.000667145
5.43552e-07
0.000667352
6.60126e-07
0.000667595
7.73806e-07
0.000667871
8.84079e-07
0.000668179
9.9048e-07
0.000668518
1.09259e-06
0.000668885
1.19002e-06
0.00066928
1.28245e-06
0.0006697
1.36958e-06
0.000670143
1.45114e-06
0.000670609
1.52692e-06
0.000671094
1.59671e-06
0.000671597
1.66036e-06
0.000672116
1.7177e-06
0.00067265
1.7686e-06
0.000673196
1.81293e-06
0.000673753
1.8506e-06
0.000674319
1.88147e-06
0.000674893
1.90546e-06
0.000675473
1.92242e-06
0.000676056
1.93227e-06
0.000676642
1.93484e-06
0.000677229
1.93005e-06
0.000677815
1.91766e-06
0.000678398
1.89762e-06
0.000678976
1.86959e-06
0.000679549
1.83355e-06
0.000680114
1.78903e-06
0.000680669
1.73606e-06
0.000681213
1.67399e-06
0.000681744
1.60296e-06
0.00068226
1.52202e-06
0.000682758
1.43155e-06
0.000683239
1.33013e-06
0.000683698
1.21854e-06
0.000684135
1.09465e-06
0.000684547
9.59929e-07
0.000684932
8.11139e-07
0.000685288
6.50921e-07
0.000685613
4.74302e-07
0.000685902
2.85937e-07
0.000686156
7.85373e-08
0.000686374
-1.43386e-07
0.000686552
-3.91198e-07
0.000686683
-6.5052e-07
0.00068677
-9.4129e-07
0.000686804
-1.24227e-06
0.000686789
-1.5847e-06
0.000686714
-1.93349e-06
0.000686585
-2.33834e-06
0.000686385
-2.74165e-06
0.00068613
-3.22283e-06
0.000685791
-3.68766e-06
0.000685395
-4.26331e-06
0.000684899
-4.79556e-06
-5.48767e-06
0.000684349
0.000666684
4.35181e-08
0.000666735
1.30922e-07
0.00066682
2.18497e-07
0.00066694
3.05354e-07
0.000667092
3.9105e-07
0.000667277
4.7517e-07
0.000667494
5.57324e-07
0.000667741
6.37146e-07
0.000668017
7.14299e-07
0.000668321
7.8847e-07
0.000668652
8.59376e-07
0.000669007
9.26757e-07
0.000669386
9.90382e-07
0.000669788
1.05004e-06
0.000670209
1.10554e-06
0.000670649
1.15672e-06
0.000671106
1.20344e-06
0.000671578
1.24554e-06
0.000672064
1.28292e-06
0.000672561
1.31544e-06
0.000673069
1.34302e-06
0.000673585
1.36552e-06
0.000674107
1.38288e-06
0.000674635
1.39494e-06
0.000675165
1.40166e-06
0.000675697
1.40284e-06
0.000676229
1.39845e-06
0.000676758
1.38824e-06
0.000677284
1.37221e-06
0.000677803
1.35002e-06
0.000678315
1.32171e-06
0.000678817
1.28681e-06
0.000679308
1.24544e-06
0.000679785
1.19693e-06
0.000680246
1.14157e-06
0.00068069
1.07836e-06
0.000681114
1.00785e-06
0.000681515
9.2858e-07
0.000681892
8.41565e-07
0.000682242
7.44564e-07
0.000682563
6.39399e-07
0.000682852
5.22631e-07
0.000683105
3.97416e-07
0.000683321
2.58469e-07
0.000683495
1.11298e-07
0.000683627
-5.31541e-08
0.000683712
-2.28483e-07
0.000683746
-4.25109e-07
0.000683725
-6.28849e-07
0.000683644
-8.61175e-07
0.0006835
-1.0981e-06
0.000683289
-1.37366e-06
0.000683004
-1.64842e-06
0.000682643
-1.97682e-06
0.000682195
-2.29434e-06
0.000681661
-2.68844e-06
0.000681027
-3.05352e-06
0.000680294
-3.53048e-06
0.000679444
-3.94615e-06
-4.52763e-06
0.000678484
0.000666682
2.79252e-08
0.000666729
8.40685e-08
0.000666807
1.40385e-07
0.000666916
1.9631e-07
0.000667056
2.5156e-07
0.000667225
3.05872e-07
0.000667423
3.58998e-07
0.00066765
4.10699e-07
0.000667903
4.60757e-07
0.000668183
5.08965e-07
0.000668487
5.55132e-07
0.000668815
5.99084e-07
0.000669165
6.4066e-07
0.000669535
6.79711e-07
0.000669924
7.16108e-07
0.000670331
7.49724e-07
0.000670754
7.80454e-07
0.000671192
8.0819e-07
0.000671642
8.32845e-07
0.000672103
8.54319e-07
0.000672573
8.72544e-07
0.000673051
8.87416e-07
0.000673535
8.98881e-07
0.000674023
9.06823e-07
0.000674514
9.11198e-07
0.000675005
9.11866e-07
0.000675495
9.08799e-07
0.000675981
9.01811e-07
0.000676462
8.909e-07
0.000676937
8.7581e-07
0.000677402
8.56582e-07
0.000677856
8.32854e-07
0.000678296
8.04745e-07
0.000678722
7.71727e-07
0.000679129
7.34058e-07
0.000679516
6.90953e-07
0.000679881
6.42907e-07
0.000680221
5.88734e-07
0.000680533
5.29332e-07
0.000680815
4.6289e-07
0.000681064
3.90976e-07
0.000681275
3.10805e-07
0.000681448
2.25055e-07
0.000681577
1.29448e-07
0.000681659
2.87582e-08
0.000681692
-8.60336e-08
0.00068167
-2.06359e-07
0.000681588
-3.42774e-07
0.000681442
-4.83184e-07
0.000681226
-6.45175e-07
0.000680937
-8.08672e-07
0.000680565
-1.00174e-06
0.000680108
-1.19148e-06
0.000679554
-1.42293e-06
0.000678902
-1.6422e-06
0.000678135
-1.92189e-06
0.000677255
-2.17366e-06
0.00067624
-2.51496e-06
0.000675094
-2.80055e-06
-3.22077e-06
0.000673787
0.000666681
1.32632e-08
0.000666725
4.00205e-08
0.000666799
6.69461e-08
0.000666901
9.37662e-08
0.000667033
1.20344e-07
0.000667192
1.4655e-07
0.000667379
1.72264e-07
0.000667592
1.97366e-07
0.000667831
2.21749e-07
0.000668095
2.45308e-07
0.000668382
2.67946e-07
0.000668691
2.89573e-07
0.000669022
3.10106e-07
0.000669372
3.29466e-07
0.000669741
3.47585e-07
0.000670126
3.64392e-07
0.000670527
3.79831e-07
0.000670941
3.93841e-07
0.000671367
4.06373e-07
0.000671804
4.1737e-07
0.00067225
4.26792e-07
0.000672703
4.34581e-07
0.000673161
4.40702e-07
0.000673623
4.45091e-07
0.000674086
4.47722e-07
0.00067455
4.48513e-07
0.000675011
4.47449e-07
0.000675468
4.44425e-07
0.00067592
4.39441e-07
0.000676363
4.32354e-07
0.000676797
4.23189e-07
0.000677218
4.11743e-07
0.000677625
3.98088e-07
0.000678014
3.81929e-07
0.000678385
3.63419e-07
0.000678734
3.4212e-07
0.000679058
3.1832e-07
0.000679356
2.91359e-07
0.000679623
2.61755e-07
0.000679858
2.28496e-07
0.000680056
1.92476e-07
0.000680215
1.52138e-07
0.000680331
1.09002e-07
0.0006804
6.06817e-08
0.000680419
9.9098e-09
0.000680381
-4.84479e-08
0.000680284
-1.09395e-07
0.00068012
-1.78942e-07
0.000679887
-2.50239e-07
0.000679575
-3.33136e-07
0.000679183
-4.16334e-07
0.000678697
-5.1556e-07
0.000678117
-6.12266e-07
0.000677426
-7.31735e-07
0.000676628
-8.43583e-07
0.000675694
-9.88645e-07
0.000674638
-1.11705e-06
0.000673418
-1.29502e-06
0.000672058
-1.44041e-06
-1.66085e-06
0.000670498
0.000666681
-9.39048e-10
0.000666724
-2.65331e-09
0.000666795
-4.2026e-09
0.000666894
-5.58981e-09
0.000667021
-6.81377e-09
0.000667176
-7.87476e-09
0.000667357
-8.77421e-09
0.000667564
-9.51467e-09
0.000667795
-1.00987e-08
0.000668051
-1.05288e-08
0.00066833
-1.08105e-08
0.000668631
-1.09467e-08
0.000668952
-1.09428e-08
0.000669292
-1.08039e-08
0.00066965
-1.05355e-08
0.000670024
-1.0144e-08
0.000670414
-9.63541e-09
0.000670817
-9.01564e-09
0.000671231
-8.28884e-09
0.000671656
-7.4707e-09
0.00067209
-6.55965e-09
0.00067253
-5.56649e-09
0.000672975
-4.49711e-09
0.000673423
-3.36101e-09
0.000673873
-2.16188e-09
0.000674323
-9.1273e-10
0.00067477
3.71702e-10
0.000675213
1.70121e-09
0.000675649
3.06355e-09
0.000676077
4.44964e-09
0.000676494
5.85265e-09
0.000676899
7.2652e-09
0.000677288
8.68139e-09
0.00067766
1.00939e-08
0.000678012
1.14978e-08
0.000678341
1.28851e-08
0.000678645
1.42519e-08
0.000678921
1.55894e-08
0.000679166
1.68957e-08
0.000679376
1.81629e-08
0.000679549
1.93944e-08
0.000679681
2.05868e-08
0.000679768
2.17535e-08
0.000679806
2.29367e-08
0.000679792
2.41229e-08
0.000679718
2.51584e-08
0.000679582
2.61234e-08
0.000679376
2.69976e-08
0.000679098
2.78072e-08
0.000678737
2.85418e-08
0.000678291
2.92402e-08
0.000677746
2.98667e-08
0.000677103
3.04492e-08
0.00067634
3.09482e-08
0.000675465
3.13972e-08
0.000674445
3.17633e-08
0.000673296
3.20681e-08
0.000671968
3.22987e-08
0.000670496
3.24387e-08
3.25418e-08
0.000668802
0.000666681
-1.51326e-08
0.000666723
-4.52884e-08
0.000666795
-7.52976e-08
0.000666894
-1.04876e-07
0.000667021
-1.33888e-07
0.000667175
-1.62204e-07
0.000667356
-1.89706e-07
0.000667563
-2.1628e-07
0.000667795
-2.41823e-07
0.00066805
-2.66236e-07
0.000668329
-2.89432e-07
0.000668629
-3.11328e-07
0.00066895
-3.31852e-07
0.00066929
-3.50933e-07
0.000669648
-3.68515e-07
0.000670023
-3.84541e-07
0.000670412
-3.98965e-07
0.000670815
-4.11739e-07
0.000671229
-4.22828e-07
0.000671654
-4.3219e-07
0.000672087
-4.39798e-07
0.000672527
-4.45609e-07
0.000672973
-4.49603e-07
0.000673421
-4.51731e-07
0.000673871
-4.5198e-07
0.00067432
-4.50287e-07
0.000674767
-4.46649e-07
0.00067521
-4.40975e-07
0.000675646
-4.3328e-07
0.000676074
-4.23433e-07
0.000676491
-4.11475e-07
0.000676896
-3.97217e-07
0.000677285
-3.80743e-07
0.000677657
-3.61772e-07
0.000678009
-3.40467e-07
0.000678338
-3.16404e-07
0.000678642
-2.89878e-07
0.000678918
-2.60245e-07
0.000679163
-2.28026e-07
0.000679374
-1.92229e-07
0.000679547
-1.53755e-07
0.000679678
-1.11077e-07
0.000679766
-6.57323e-08
0.000679804
-1.54664e-08
0.00067979
3.8332e-08
0.000679717
9.87155e-08
0.000679581
1.61438e-07
0.000679376
2.32691e-07
0.000679098
3.05647e-07
0.000678736
3.90055e-07
0.000678291
4.74679e-07
0.000677745
5.75148e-07
0.000677103
6.73023e-07
0.00067634
7.93477e-07
0.000675466
9.06239e-07
0.000674445
1.05203e-06
0.000673296
1.18108e-06
0.000671969
1.35953e-06
0.000670496
1.50529e-06
1.72604e-06
0.000668803
0.000666681
-2.97601e-08
0.000666725
-8.92414e-08
0.000666799
-1.48588e-07
0.000666901
-2.07222e-07
0.000667032
-2.64863e-07
0.000667191
-3.21246e-07
0.000667377
-3.76126e-07
0.00066759
-4.2927e-07
0.000667829
-4.80463e-07
0.000668092
-5.29505e-07
0.000668379
-5.76215e-07
0.000668688
-6.20424e-07
0.000669018
-6.61983e-07
0.000669368
-7.00753e-07
0.000669736
-7.36615e-07
0.000670121
-7.69454e-07
0.000670521
-7.99178e-07
0.000670935
-8.2569e-07
0.000671361
-8.48918e-07
0.000671798
-8.68776e-07
0.000672243
-8.85208e-07
0.000672696
-8.98127e-07
0.000673154
-9.07491e-07
0.000673615
-9.13201e-07
0.000674078
-9.15226e-07
0.000674542
-9.13442e-07
0.000675003
-9.07834e-07
0.00067546
-8.98231e-07
0.000675911
-8.84645e-07
0.000676355
-8.66833e-07
0.000676788
-8.44851e-07
0.000677209
-8.18349e-07
0.000677616
-7.8746e-07
0.000678006
-7.51668e-07
0.000678377
-7.11242e-07
0.000678726
-6.65411e-07
0.00067905
-6.14677e-07
0.000679348
-5.57874e-07
0.000679616
-4.95896e-07
0.000679851
-4.26961e-07
0.00068005
-3.52622e-07
0.000680209
-2.70132e-07
0.000680325
-1.82155e-07
0.000680394
-8.45117e-08
0.000680414
1.85076e-08
0.000680377
1.35948e-07
0.00068028
2.5799e-07
0.000680117
3.96047e-07
0.000679884
5.38077e-07
0.000679573
7.01537e-07
0.000679181
8.66475e-07
0.000678695
1.06078e-06
0.000678117
1.25173e-06
0.000677426
1.48416e-06
0.000676628
1.7044e-06
0.000675695
1.98482e-06
0.000674639
2.23732e-06
0.000673419
2.57912e-06
0.000672059
2.86518e-06
3.28574e-06
0.0006705
0.000666682
-4.52993e-08
0.000666729
-1.35942e-07
0.000666807
-2.26457e-07
0.000666915
-3.15943e-07
0.000667055
-4.03955e-07
0.000667223
-4.9008e-07
0.000667421
-5.73932e-07
0.000667647
-6.55147e-07
0.0006679
-7.33395e-07
0.000668179
-8.08367e-07
0.000668482
-8.7979e-07
0.000668809
-9.4741e-07
0.000669158
-1.01101e-06
0.000669528
-1.07038e-06
0.000669917
-1.12535e-06
0.000670323
-1.17576e-06
0.000670745
-1.22148e-06
0.000671182
-1.26238e-06
0.000671632
-1.29836e-06
0.000672092
-1.32929e-06
0.000672562
-1.35511e-06
0.00067304
-1.37571e-06
0.000673523
-1.39101e-06
0.000674011
-1.40089e-06
0.000674501
-1.4053e-06
0.000674992
-1.40409e-06
0.000675481
-1.39721e-06
0.000675967
-1.38445e-06
0.000676448
-1.3658e-06
0.000676922
-1.34096e-06
0.000677387
-1.30995e-06
0.000677841
-1.27234e-06
0.000678282
-1.22825e-06
0.000678708
-1.17704e-06
0.000679115
-1.11898e-06
0.000679503
-1.05311e-06
0.000679868
-9.79976e-07
0.000680209
-8.98133e-07
0.000680521
-8.08597e-07
0.000680804
-7.09158e-07
0.000681053
-6.01622e-07
0.000681265
-4.82594e-07
0.000681438
-3.55201e-07
0.000681568
-2.14238e-07
0.000681652
-6.52781e-08
0.000681685
1.02405e-07
0.000681664
2.79262e-07
0.000681582
4.7749e-07
0.000681438
6.82871e-07
0.000681222
9.16646e-07
0.000680934
1.15503e-06
0.000680563
1.43179e-06
0.000680107
1.7078e-06
0.000679554
2.03716e-06
0.000678902
2.35574e-06
0.000678137
2.75056e-06
0.000677258
3.1165e-06
0.000676243
3.59397e-06
0.000675098
4.01028e-06
4.59216e-06
0.000673791
0.000666684
-6.22859e-08
0.000666735
-1.8701e-07
0.00066682
-3.11598e-07
0.000666939
-4.34778e-07
0.000667091
-5.55909e-07
0.000667275
-6.74399e-07
0.000667491
-7.89697e-07
0.000667737
-9.01296e-07
0.000668012
-1.00873e-06
0.000668315
-1.1116e-06
0.000668645
-1.20951e-06
0.000669
-1.30215e-06
0.000669378
-1.38924e-06
0.000669778
-1.47051e-06
0.000670199
-1.54576e-06
0.000670638
-1.6148e-06
0.000671094
-1.67747e-06
0.000671565
-1.73363e-06
0.00067205
-1.78317e-06
0.000672546
-1.82596e-06
0.000673053
-1.86192e-06
0.000673568
-1.89093e-06
0.00067409
-1.91292e-06
0.000674617
-1.92776e-06
0.000675147
-1.93539e-06
0.000675679
-1.93563e-06
0.00067621
-1.92843e-06
0.000676739
-1.91357e-06
0.000677264
-1.89099e-06
0.000677784
-1.86039e-06
0.000678296
-1.82175e-06
0.000678798
-1.77461e-06
0.000679289
-1.71901e-06
0.000679766
-1.65432e-06
0.000680228
-1.58069e-06
0.000680672
-1.49718e-06
0.000681096
-1.40416e-06
0.000681498
-1.30025e-06
0.000681876
-1.18622e-06
0.000682226
-1.05996e-06
0.000682548
-9.22924e-07
0.000682837
-7.71925e-07
0.000683091
-6.09553e-07
0.000683308
-4.3094e-07
0.000683484
-2.40672e-07
0.000683618
-3.19466e-08
0.000683704
1.93223e-07
0.000683739
4.42438e-07
0.000683719
7.03335e-07
0.00068364
9.95466e-07
0.000683497
1.29793e-06
0.000683287
1.64151e-06
0.000683003
1.99163e-06
0.000682643
2.39739e-06
0.000682197
2.80187e-06
0.000681664
3.28374e-06
0.000681031
3.7496e-06
0.000680299
4.32574e-06
0.00067945
4.85885e-06
5.55138e-06
0.000678491
0.000666686
-8.1366e-08
0.000666743
-2.44399e-07
0.000666839
-4.07264e-07
0.000666972
-5.68229e-07
0.000667143
-7.26404e-07
0.000667349
-8.80973e-07
0.000667591
-1.03118e-06
0.000667866
-1.17635e-06
0.000668173
-1.31588e-06
0.000668511
-1.44924e-06
0.000668877
-1.57597e-06
0.000669271
-1.69568e-06
0.000669689
-1.80805e-06
0.000670132
-1.91281e-06
0.000670596
-2.00972e-06
0.00067108
-2.09861e-06
0.000671581
-2.17932e-06
0.000672099
-2.25172e-06
0.000672632
-2.31572e-06
0.000673177
-2.37122e-06
0.000673733
-2.41813e-06
0.000674299
-2.45638e-06
0.000674872
-2.48589e-06
0.000675451
-2.50657e-06
0.000676034
-2.51833e-06
0.000676619
-2.52104e-06
0.000677205
-2.51462e-06
0.000677791
-2.49889e-06
0.000678373
-2.47372e-06
0.000678952
-2.43889e-06
0.000679524
-2.39424e-06
0.000680089
-2.33945e-06
0.000680644
-2.27437e-06
0.000681189
-2.19854e-06
0.00068172
-2.11182e-06
0.000682236
-2.01358e-06
0.000682736
-1.90372e-06
0.000683217
-1.78134e-06
0.000683677
-1.64649e-06
0.000684115
-1.49786e-06
0.000684528
-1.33578e-06
0.000684914
-1.1583e-06
0.000685271
-9.66268e-07
0.000685597
-7.56821e-07
0.000685888
-5.31783e-07
0.000686143
-2.86985e-07
0.000686363
-2.71714e-08
0.000686543
2.63179e-07
0.000686676
5.70502e-07
0.000686764
9.0679e-07
0.0006868
1.26217e-06
0.000686787
1.65437e-06
0.000686713
2.06573e-06
0.000686586
2.52412e-06
0.000686388
2.99981e-06
0.000686135
3.53737e-06
0.000685797
4.08711e-06
0.000685403
4.72009e-06
0.000684908
5.3536e-06
6.10019e-06
0.000684359
0.000666689
-1.03376e-07
0.000666755
-3.10646e-07
0.000666865
-5.17662e-07
0.000667019
-7.22087e-07
0.000667215
-9.22692e-07
0.000667453
-1.11836e-06