/*--------------------------------*- C++ -*----------------------------------*\
| =========                 |                                                 |
| \\      /  F ield         | OpenFOAM: The Open Source CFD Toolbox           |
|  \\    /   O peration     | Version:  2312                                  |
|   \\  /    A nd           | Website:  www.openfoam.com                      |
|    \\/     M anipulation  |                                                 |
\*---------------------------------------------------------------------------*/
FoamFile
{
    version     2.0;
    format      ascii;
    arch        "LSB;label=32;scalar=64";
    class       surfaceScalarField;
    location    "151000";
    object      phi;
}
// * * * * * * * * * * * * * * * * * * * * * * * * * * * * * * * * * * * * * //

dimensions      [0 3 -1 0 0 0 0];

oriented        oriented;

internalField   nonuniform List<scalar> 
5309
(
7.32985e-05
2.76092e-05
6.78917e-05
5.40677e-06
6.15392e-05
6.35247e-06
5.8277e-05
3.26227e-06
5.70263e-05
1.25063e-06
5.76421e-05
-6.15795e-07
5.87065e-05
-1.06437e-06
6.1077e-05
-2.3705e-06
6.32966e-05
-2.21963e-06
6.66357e-05
-3.33903e-06
6.92748e-05
-2.63913e-06
7.29266e-05
-3.6518e-06
7.53303e-05
-2.40373e-06
7.87165e-05
-3.38621e-06
8.03429e-05
-1.62631e-06
8.31567e-05
-2.81385e-06
8.37172e-05
-5.60465e-07
8.59022e-05
-2.18503e-06
8.5377e-05
5.25236e-07
8.72266e-05
-1.8496e-06
8.57984e-05
1.42813e-06
8.77706e-05
-1.97215e-06
8.5635e-05
2.13554e-06
8.81664e-05
-2.53141e-06
8.52751e-05
2.89136e-06
8.91175e-05
-3.84239e-06
8.18883e-05
7.22913e-06
9.61318e-05
-1.42434e-05
4.74556e-05
4.86762e-05
-3.91175e-05
8.6573e-05
0.000146628
3.36741e-05
0.000144172
7.86233e-06
0.000141673
8.85154e-06
0.000140193
4.7421e-06
0.000139808
1.63565e-06
0.000141301
-2.10807e-06
0.000143547
-3.31069e-06
0.000147556
-6.3793e-06
0.000151662
-6.32599e-06
0.000157446
-9.12328e-06
0.000162604
-7.79638e-06
0.00016936
-1.04087e-05
0.000174664
-7.70675e-06
0.000181594
-1.03162e-05
0.000186217
-6.24974e-06
0.000192701
-9.29783e-06
0.000196019
-3.87866e-06
0.00020187
-8.03612e-06
0.00020367
-1.2741e-06
0.00020925
-7.4305e-06
0.000209266
1.41226e-06
0.000215492
-8.19782e-06
0.000213087
4.54018e-06
0.000221645
-1.10886e-05
0.000214582
9.95375e-06
0.000229383
-1.86428e-05
0.00021084
2.57713e-05
0.000234257
-3.76605e-05
0.000224623
5.83108e-05
-4.19296e-05
0.000227435
0.000195561
3.17847e-05
0.000196113
7.31088e-06
0.000197349
7.61501e-06
0.000198052
4.03946e-06
0.000199054
6.33364e-07
0.000201287
-4.34081e-06
0.00020402
-6.04391e-06
0.00020826
-1.0619e-05
0.000212614
-1.06804e-05
0.000218626
-1.51345e-05
0.000224132
-1.33027e-05
0.000231388
-1.76643e-05
0.000237347
-1.36659e-05
0.000245264
-1.82331e-05
0.000250969
-1.19557e-05
0.000259093
-1.74216e-05
0.00026399
-8.77545e-06
0.000272256
-1.63016e-05
0.000275804
-4.82259e-06
0.000284466
-1.60922e-05
0.000286206
-3.27879e-07
0.000295841
-1.78333e-05
0.000295486
4.8955e-06
0.000306883
-2.24856e-05
0.000304372
1.2465e-05
0.00031676
-3.10307e-05
0.000318128
2.44034e-05
0.000323906
-4.3439e-05
0.000347364
3.48531e-05
-2.88245e-05
0.000334259
0.000232324
2.73815e-05
0.000232201
7.43448e-06
0.000234143
5.67322e-06
0.000236084
2.09828e-06
0.000237768
-1.05112e-06
0.000240771
-7.34368e-06
0.000243949
-9.22176e-06
0.000248382
-1.5052e-05
0.000252756
-1.50546e-05
0.000258546
-2.09245e-05
0.000263894
-1.86499e-05
0.000270768
-2.4539e-05
0.000276677
-1.95745e-05
0.000284268
-2.58238e-05
0.000290284
-1.79722e-05
0.000298291
-2.54286e-05
0.000304052
-1.45362e-05
0.000312264
-2.45138e-05
0.00031755
-1.01083e-05
0.000325783
-2.43249e-05
0.000330837
-5.3819e-06
0.000338847
-2.58439e-05
0.000344365
-6.22398e-07
0.000351488
-2.96085e-05
0.000359367
4.58602e-06
0.000363685
-3.53483e-05
0.000378516
9.57205e-06
0.000374845
-3.97679e-05
0.00040395
5.74812e-06
-2.4726e-05
0.000399851
0.000260961
2.28288e-05
0.000260431
7.96499e-06
0.000262158
3.9457e-06
0.000264614
-3.57748e-07
0.000266897
-3.33368e-06
0.00026959
-1.00366e-05
0.000272701
-1.23331e-05
0.000276608
-1.89584e-05
0.000280815
-1.92614e-05
0.000285767
-2.58772e-05
0.000290913
-2.37957e-05
0.000296707
-3.03329e-05
0.000302573
-2.54403e-05
0.000308926
-3.2177e-05
0.00031529
-2.43369e-05
0.00032191
-3.20479e-05
0.00032866
-2.12866e-05
0.000335231
-3.10849e-05
0.000342477
-1.73544e-05
0.000348655
-3.05022e-05
0.000356782
-1.35097e-05
0.00036208
-3.11412e-05
0.000371795
-1.03379e-05
0.000375468
-3.32819e-05
0.000388327
-8.27282e-06
0.000388847
-3.58676e-05
0.000407397
-8.9784e-06
0.000403145
-3.55156e-05
0.000426448
-1.75549e-05
-2.72327e-05
0.000428954
0.000283662
1.90102e-05
0.000283096
8.53078e-06
0.000284317
2.7248e-06
0.00028628
-2.32143e-06
0.000288451
-5.50463e-06
0.000290769
-1.2354e-05
0.000293769
-1.5333e-05
0.000296999
-2.21892e-05
0.000301041
-2.33031e-05
0.000305015
-2.98509e-05
0.000309972
-2.87527e-05
0.000314544
-3.49057e-05
0.000320331
-3.12272e-05
0.000325299
-3.71451e-05
0.000331839
-3.08769e-05
0.000336961
-3.71691e-05
0.000344251
-2.8577e-05
0.000349247
-3.60809e-05
0.00035743
-2.55372e-05
0.000361963
-3.50358e-05
0.000371337
-2.28832e-05
0.000374978
-3.47822e-05
0.000386089
-2.14486e-05
0.000388232
-3.54254e-05
0.000401898
-2.19383e-05
0.000402085
-3.60548e-05
0.00041852
-2.54135e-05
0.000417914
-3.49092e-05
0.000433399
-3.30401e-05
-3.42143e-05
0.00044038
0.00030135
1.61918e-05
0.000301192
8.68887e-06
0.000301765
2.15169e-06
0.000303145
-3.70192e-06
0.000305214
-7.57383e-06
0.000307074
-1.42139e-05
0.000309832
-1.80913e-05
0.000312337
-2.46937e-05
0.000316042
-2.70084e-05
0.000319135
-3.29435e-05
0.000323716
-3.33335e-05
0.000327277
-3.84668e-05
0.000332709
-3.66592e-05
0.000336604
-4.10405e-05
0.000342873
-3.71454e-05
0.000346921
-4.12169e-05
0.000354061
-3.57172e-05
0.000358054
-4.00738e-05
0.000366161
-3.36443e-05
0.00036986
-3.8735e-05
0.000379085
-3.21082e-05
0.000382245
-3.79419e-05
0.000392767
-3.19705e-05
0.000395237
-3.78953e-05
0.000407091
-3.37926e-05
0.000409271
-3.82345e-05
0.000421607
-3.77502e-05
0.000425501
-3.88024e-05
0.000435635
-4.3175e-05
-4.20652e-05
0.000443486
0.000314518
1.43573e-05
0.000314736
8.47014e-06
0.000315045
1.84343e-06
0.000315912
-4.56894e-06
0.000317732
-9.39368e-06
0.000319227
-1.57094e-05
0.000321647
-2.05111e-05
0.000323604
-2.6651e-05
0.000326838
-3.02423e-05
0.00032929
-3.53954e-05
0.000333318
-3.73617e-05
0.000336177
-4.13255e-05
0.000341004
-4.14867e-05
0.000344198
-4.42341e-05
0.00034984
-4.27874e-05
0.000353265
-4.46414e-05
0.000359751
-4.22032e-05
0.000363293
-4.36166e-05
0.000370646
-4.09975e-05
0.000374198
-4.2287e-05
0.000382407
-4.03166e-05
0.000385921
-4.14562e-05
0.000394883
-4.09322e-05
0.000398498
-4.15104e-05
0.000407877
-4.31717e-05
0.000412251
-4.26087e-05
0.000421248
-4.67472e-05
0.000427585
-4.51394e-05
0.000435248
-5.08373e-05
-4.9576e-05
0.000442758
0.000323589
1.33583e-05
0.000324036
8.0233e-06
0.000324417
1.46217e-06
0.000324981
-5.13269e-06
0.000326472
-1.08851e-05
0.000327722
-1.69591e-05
0.000329761
-2.25498e-05
0.000331363
-2.82527e-05
0.000334051
-3.29306e-05
0.000336093
-3.74379e-05
0.000339462
-4.07303e-05
0.000341901
-4.37648e-05
0.000345968
-4.5554e-05
0.000348789
-4.70549e-05
0.000353583
-4.75814e-05
0.000356763
-4.78213e-05
0.000362291
-4.77308e-05
0.000365809
-4.71353e-05
0.000372033
-4.7221e-05
0.000375886
-4.61399e-05
0.000382692
-4.71235e-05
0.00038694
-4.57038e-05
0.000394114
-4.81061e-05
0.000398961
-4.63575e-05
0.000406171
-5.03813e-05
0.00041197
-4.84085e-05
0.000418962
-5.37388e-05
0.000425805
-5.19827e-05
0.000432844
-5.7876e-05
-5.67888e-05
0.000440057
0.000329063
1.29352e-05
0.000329666
7.42018e-06
0.000330201
9.26633e-07
0.000330692
-5.62323e-06
0.000331873
-1.20665e-05
0.000332972
-1.80581e-05
0.000334645
-2.42227e-05
0.000336049
-2.96569e-05
0.00033821
-3.50916e-05
0.000340021
-3.9248e-05
0.000342739
-4.34486e-05
0.000344961
-4.59873e-05
0.000348262
-4.8855e-05
0.000350927
-4.97199e-05
0.000354849
-5.15034e-05
0.000357997
-5.09688e-05
0.00036254
-5.22735e-05
0.000366207
-5.08024e-05
0.000371319
-5.2333e-05
0.000375539
-5.03598e-05
0.000381107
-5.26924e-05
0.000385922
-5.0518e-05
0.000391792
-5.39767e-05
0.000397244
-5.1809e-05
0.000403308
-5.6445e-05
0.000409355
-5.44556e-05
0.000415728
-6.01118e-05
0.000422133
-5.83878e-05
0.000429133
-6.4876e-05
-6.33124e-05
0.000435656
0.000331647
1.27732e-05
0.000332244
6.82239e-06
0.000332923
2.48356e-07
0.000333517
-6.2172e-06
0.000334491
-1.30413e-05
0.000335512
-1.90787e-05
0.000336893
-2.56035e-05
0.000338213
-3.09767e-05
0.000339958
-3.68372e-05
0.000341654
-4.09436e-05
0.000343846
-4.56408e-05
0.000345969
-4.81101e-05
0.000348644
-5.15302e-05
0.000351255
-5.23307e-05
0.000354464
-5.47127e-05
0.000357638
-5.41425e-05
0.000361398
-5.60339e-05
0.000365192
-5.45966e-05
0.000369476
-5.66168e-05
0.000373918
-5.48013e-05
0.000378663
-5.74372e-05
0.000383729
-5.55842e-05
0.000388873
-5.91206e-05
0.000394474
-5.741e-05
0.000400005
-6.19767e-05
0.000406003
-6.04533e-05
0.000411994
-6.6103e-05
0.000418273
-6.46668e-05
0.000424828
-7.14302e-05
-6.98515e-05
0.000431367
0.000332103
1.25072e-05
0.000332706
6.21969e-06
0.000333459
-5.0433e-07
0.000334193
-6.95202e-06
0.000335084
-1.39314e-05
0.000336099
-2.00937e-05
0.000337304
-2.68091e-05
0.000338616
-3.22881e-05
0.000340114
-3.83354e-05
0.000341769
-4.25984e-05
0.000343633
-4.75053e-05
0.000345707
-5.01837e-05
0.000347992
-5.38152e-05
0.000350564
-5.49034e-05
0.000353332
-5.74806e-05
0.000356492
-5.73025e-05
0.000359786
-5.93277e-05
0.000363593
-5.84033e-05
0.000367426
-6.04498e-05
0.000371886
-5.92615e-05
0.000376239
-6.17896e-05
0.000381297
-6.06424e-05
0.000386131
-6.39547e-05
0.000391682
-6.2961e-05
0.000396967
-6.72616e-05
0.000402887
-6.63731e-05
0.000408619
-7.18351e-05
0.000414819
-7.08672e-05
0.000421033
-7.76442e-05
-7.62572e-05
0.000427439
0.000331383
1.20024e-05
0.000332068
5.53408e-06
0.000332868
-1.30355e-06
0.000333732
-7.81629e-06
0.00033464
-1.48395e-05
0.000335716
-2.11701e-05
0.000336876
-2.79684e-05
0.000338234
-3.36469e-05
0.000339651
-3.97517e-05
0.00034132
-4.42678e-05
0.00034305
-4.92349e-05
0.000345107
-5.22407e-05
0.000347217
-5.59255e-05
0.000349747
-5.74334e-05
0.000352313
-6.00468e-05
0.000355407
-6.03968e-05
0.000358496
-6.24161e-05
0.000362216
-6.21235e-05
0.000365861
-6.40943e-05
0.000370218
-6.36186e-05
0.000374409
-6.59812e-05
0.000379359
-6.55917e-05
0.000384051
-6.86473e-05
0.000389503
-6.84133e-05
0.00039463
-7.23878e-05
0.000400474
-7.22177e-05
0.000405972
-7.73329e-05
0.000412104
-7.69988e-05
0.00041795
-8.34907e-05
-8.25713e-05
0.000424264
0.000330841
1.13189e-05
0.000331596
4.77899e-06
0.000332413
-2.11997e-06
0.000333361
-8.76451e-06
0.000334334
-1.58122e-05
0.000335501
-2.23372e-05
0.000336701
-2.9169e-05
0.000338135
-3.50808e-05
0.000339572
-4.11889e-05
0.000341284
-4.59797e-05
0.000342994
-5.0945e-05
0.000345046
-5.42927e-05
0.000347099
-5.79778e-05
0.000349572
-5.99065e-05
0.00035205
-6.25252e-05
0.000355036
-6.33825e-05
0.000358022
-6.54023e-05
0.000361591
-6.56928e-05
0.000365132
-6.76346e-05
0.000369312
-6.7799e-05
0.000373401
-7.00702e-05
0.000378168
-7.03592e-05
0.000382748
-7.32267e-05
0.000388034
-7.3699e-05
0.000393005
-7.73592e-05
0.000398709
-7.79217e-05
0.000403962
-8.25858e-05
0.00040997
-8.30071e-05
0.000415423
-8.89433e-05
-8.87504e-05
0.000421602
0.000331589
1.05892e-05
0.000332354
4.0141e-06
0.000333162
-2.92773e-06
0.000334146
-9.74809e-06
0.000335179
-1.6846e-05
0.000336421
-2.35785e-05
0.000337684
-3.04323e-05
0.000339173
-3.65697e-05
0.000340647
-4.26629e-05
0.000342373
-4.7706e-05
0.000344073
-5.26445e-05
0.000346077
-5.62969e-05
0.000348066
-5.99663e-05
0.000350423
-6.22641e-05
0.000352793
-6.48951e-05
0.000355599
-6.61886e-05
0.000358449
-6.82517e-05
0.000361787
-6.90312e-05
0.000365181
-7.10287e-05
0.000369095
-7.17129e-05
0.000373041
-7.40164e-05
0.000377522
-7.48403e-05
0.000381965
-7.76692e-05
0.000386957
-7.86908e-05
0.000391787
-8.21892e-05
0.000397193
-8.33285e-05
0.000402273
-8.76649e-05
0.000407971
-8.87053e-05
0.000413165
-9.41373e-05
-9.4586e-05
0.000419
0.000334443
1.00207e-05
-0.000333875
0.000335115
3.34266e-06
0.000335852
-3.66549e-06
0.000336789
-1.06847e-05
0.000337814
-1.7871e-05
0.000339041
-2.48051e-05
0.000340297
-3.16885e-05
0.000341743
-3.80161e-05
0.00034317
-4.40901e-05
0.000344802
-4.93376e-05
0.000346394
-5.42368e-05
0.000348236
-5.81385e-05
0.000350051
-6.17812e-05
0.00035218
-6.43935e-05
0.000354323
-6.70381e-05
0.000356849
-6.87147e-05
0.000359441
-7.08438e-05
0.000362465
-7.2055e-05
0.000365597
-7.41606e-05
0.000369176
-7.52921e-05
0.000372878
-7.7718e-05
0.000377015
-7.89782e-05
0.000381246
-8.18998e-05
0.000385896
-8.33411e-05
0.000390549
-8.68418e-05
0.000395627
-8.84062e-05
0.000400541
-9.25796e-05
0.00040593
-9.40943e-05
0.000410918
-9.91254e-05
-0.000100139
0.000416472
0.000339248
9.72985e-06
-0.000338957
0.000339735
2.85557e-06
0.000340345
-4.27509e-06
0.000341147
-1.14868e-05
0.000342062
-1.87863e-05
0.000343146
-2.58891e-05
0.00034427
-3.28128e-05
0.000345529
-3.92744e-05
0.000346771
-4.53321e-05
0.000348152
-5.07189e-05
0.000349493
-5.5578e-05
0.000351023
-5.96677e-05
0.000352525
-6.32836e-05
0.000354299
-6.61674e-05
0.000356089
-6.88284e-05
0.000358243
-7.08687e-05
0.000360469
-7.30699e-05
0.000363127
-7.47124e-05
0.000365907
-7.69405e-05
0.000369137
-7.85226e-05
0.000372528
-8.11088e-05
0.000376338
-8.27876e-05
0.000380326
-8.58885e-05
0.000384665
-8.768e-05
0.000389164
-9.13409e-05
0.000393943
-9.31847e-05
0.000398789
-9.74261e-05
0.000403889
-9.91943e-05
0.000408846
-0.000104082
-0.000105403
0.00041411
0.000344693
9.60802e-06
-0.000344571
0.000345045
2.50353e-06
0.000345551
-4.78066e-06
0.00034621
-1.21459e-05
0.000346964
-1.95409e-05
0.000347822
-2.67468e-05
0.000348714
-3.37053e-05
0.00034967
-4.02304e-05
0.000350614
-4.62759e-05
0.000351624
-5.17289e-05
0.000352611
-5.65651e-05
0.000353725
-6.07811e-05
0.00035484
-6.43991e-05
0.00035619
-6.75171e-05
0.000357586
-7.02248e-05
0.000359344
-7.26262e-05
0.000361189
-7.49152e-05
0.000363503
-7.70262e-05
0.000365929
-7.93667e-05
0.00036888
-8.14733e-05
0.000371959
-8.41879e-05
0.000375549
-8.63781e-05
0.000379293
-8.96324e-05
0.000383456
-9.18429e-05
0.000387809
-9.56938e-05
0.000392421
-9.77967e-05
0.000397243
-0.000102248
0.000402148
-0.000104099
0.000407184
-0.000109119
-0.000110416
0.000412197
0.000349809
9.5504e-06
-0.000349751
0.000350062
2.24979e-06
0.000350468
-5.18605e-06
0.000350965
-1.26435e-05
0.000351519
-2.00943e-05
0.000352111
-2.73388e-05
0.000352723
-3.43179e-05
0.000353342
-4.08486e-05
0.000353957
-4.68917e-05
0.000354583
-5.23546e-05
0.000355223
-5.72048e-05
0.000355936
-6.14947e-05
0.000356713
-6.51761e-05
0.00035768
-6.84839e-05
0.000358764
-7.13088e-05
0.000360181
-7.40435e-05
0.000361743
-7.64764e-05
0.00036378
-7.90633e-05
0.000365942
-8.15287e-05
0.000368694
-8.42254e-05
0.000371517
-8.70113e-05
0.000374993
-8.98541e-05
0.000378492
-9.31312e-05
0.000382615
-9.59656e-05
0.000386758
-9.98366e-05
0.000391356
-0.000102395
0.000396046
-0.000106937
0.000400877
-0.00010893
0.000405901
-0.000114143
-0.000115183
0.000410669
0.000352836
9.23672e-06
-0.000352523
0.000353254
1.83199e-06
0.000353746
-5.67781e-06
0.000354266
-1.31639e-05
0.000354793
-2.06211e-05
0.000355303
-2.78485e-05
0.000355796
-3.4811e-05
0.000356249
-4.1301e-05
0.000356687
-4.73301e-05
0.000357093
-5.27603e-05
0.000357529
-5.76407e-05
0.00035799
-6.19557e-05
0.000358561
-6.5747e-05
0.000359258
-6.91818e-05
0.000360148
-7.21985e-05
0.000361294
-7.51895e-05
0.000362674
-7.78561e-05
0.000364454
-8.08433e-05
0.000366436
-8.35109e-05
0.000368971
-8.67602e-05
0.000371591
-8.96312e-05
0.000374921
-9.31842e-05
0.000378163
-9.63737e-05
0.000382244
-0.000100046
0.000386063
-0.000103656
0.000390709
-0.000107041
0.000395016
-0.000111244
0.000399864
-0.000113779
0.000404504
-0.000118783
-0.00011969
0.000409011
0.000355604
8.59708e-06
-0.000354964
0.000356257
1.17824e-06
0.000356938
-6.35872e-06
0.000357621
-1.38466e-05
0.000358266
-2.12661e-05
0.00035885
-2.84323e-05
0.000359357
-3.5318e-05
0.000359777
-4.17213e-05
0.00036013
-4.76829e-05
0.000360409
-5.30394e-05
0.000360681
-5.79131e-05
0.000360937
-6.22113e-05
0.000361295
-6.61052e-05
0.000361727
-6.96134e-05
0.000362386
-7.28583e-05
0.000363221
-7.60238e-05
0.000364377
-7.90125e-05
0.000365812
-8.22784e-05
0.000367588
-8.52865e-05
0.00036977
-8.8942e-05
0.000372188
-9.205e-05
0.000375198
-9.61939e-05
0.000378192
-9.93671e-05
0.00038205
-0.000103905
0.000385476
-0.000107082
0.000390048
-0.000111612
0.000393664
-0.000114861
0.000398485
-0.000118599
0.00040198
-0.000122278
-0.000123826
0.000406116
0.000361918
7.9896e-06
-0.00036131
0.000362522
5.73922e-07
0.00036315
-6.98628e-06
0.000363772
-1.44693e-05
0.000364326
-2.18196e-05
0.000364784
-2.88908e-05
0.000365109
-3.56427e-05
0.000365308
-4.19206e-05
0.000365378
-4.77522e-05
0.000365347
-5.30092e-05
0.000365256
-5.78218e-05
0.000365141
-6.2096e-05
0.000365093
-6.60574e-05
0.000365123
-6.96434e-05
0.00036538
-7.31155e-05
0.000365804
-7.6447e-05
0.000366598
-7.9807e-05
0.000367604
-8.32846e-05
0.000369076
-8.67587e-05
0.000370796
-9.06617e-05
0.000372987
-9.42407e-05
0.000375492
-9.86993e-05
0.000378277
-0.000102152
0.000381574
-0.000107202
0.000384623
-0.000110131
0.000388587
-0.000115576
0.000391237
-0.000117511
0.000395344
-0.000122707
0.000396551
-0.000123485
-0.000126817
0.000399542
0.000370053
7.38653e-06
-0.00036945
0.000370579
4.78632e-08
0.000371119
-7.52627e-06
0.000371582
-1.4932e-05
0.000371911
-2.21481e-05
0.000372088
-2.90682e-05
0.000372074
-3.5629e-05
0.000371888
-4.17341e-05
0.000371519
-4.73838e-05
0.00037103
-5.25203e-05
0.000370441
-5.72329e-05
0.000369841
-6.14956e-05
0.000369279
-6.54957e-05
0.000368843
-6.92072e-05
0.000368614
-7.28863e-05
0.00036862
-7.64527e-05
0.000368983
-8.01707e-05
0.000369597
-8.38983e-05
0.000370676
-8.78374e-05
0.000371938
-9.1924e-05
0.000373768
-9.60711e-05
0.000375648
-0.000100579
0.000378049
-0.000104553
0.000380296
-0.000109449
0.000382658
-0.000112494
0.000384827
-0.000117745
0.000385901
-0.000118585
0.000387234
-0.00012404
0.000384704
-0.000120955
-0.000126201
0.000384088
0.000377817
6.43617e-06
-0.000376867
0.000378597
-7.31829e-07
0.000379226
-8.15542e-06
0.000379664
-1.53699e-05
0.000379873
-2.23569e-05
0.000379832
-2.90273e-05
0.000379518
-3.53149e-05
0.000378955
-4.11716e-05
0.000378161
-4.6589e-05
0.000377204
-5.15635e-05
0.000376121
-5.61496e-05
0.000375017
-6.0392e-05
0.000373939
-6.44181e-05
0.000373017
-6.8285e-05
0.00037229
-7.21594e-05
0.000371866
-7.60287e-05
0.000371757
-8.00609e-05
0.000371973
-8.41148e-05
0.000372512
-8.83761e-05
0.000373214
-9.26268e-05
0.000374246
-9.71023e-05
0.000375161
-0.000101494
0.000376356
-0.000105748
0.000376712
-0.000109806
0.000376976
-0.000112757
0.000375418
-0.000116187
0.000372988
-0.000116155
0.000367941
-0.000118993
0.000359443
-0.000112458
-0.00011699
0.000350233
0.000387585
5.44665e-06
-0.000386596
0.000388611
-1.75719e-06
0.000389205
-8.74984e-06
0.00038953
-1.56946e-05
0.000389582
-2.24093e-05
0.000389266
-2.87114e-05
0.000388578
-3.46262e-05
0.000387559
-4.01528e-05
0.000386256
-4.52867e-05
0.000384739
-5.00465e-05
0.000383074
-5.44844e-05
0.000381361
-5.86789e-05
0.000379674
-6.2731e-05
0.000378132
-6.67425e-05
0.000376784
-7.08122e-05
0.000375734
-7.49779e-05
0.000374946
-7.92734e-05
0.00037445
-8.36188e-05
0.000374066
-8.79918e-05
0.000373618
-9.21789e-05
0.000372878
-9.63621e-05
0.000371664
-0.00010028
0.000369821
-0.000103905
0.000366461
-0.000106446
0.000361624
-0.000107921
0.000353507
-0.000108069
0.000343465
-0.000106112
0.000327859
-0.000103387
0.000309855
-9.44542e-05
-9.27278e-05
0.000285593
0.000401114
3.92773e-06
-0.000399595
0.000401956
-2.59885e-06
0.000402631
-9.42469e-06
0.000402809
-1.58723e-05
0.000402402
-2.20028e-05
0.000401509
-2.78178e-05
0.000400182
-3.32994e-05
0.000398463
-3.84339e-05
0.00039641
-4.32343e-05
0.000394102
-4.77379e-05
0.000391628
-5.20102e-05
0.000389081
-5.61319e-05
0.000386542
-6.0192e-05
0.000384078
-6.42792e-05
0.000381728
-6.8462e-05
0.000379511
-7.27612e-05
0.000377367
-7.71292e-05
0.000375184
-8.14357e-05
0.000372681
-8.5489e-05
0.000369547
-8.90446e-05
0.000365076
-9.1891e-05
0.000359058
-9.42622e-05
0.000350912
-9.57588e-05
0.000340135
-9.56687e-05
0.000325993
-9.37784e-05
0.000307431
-8.95077e-05
0.000284278
-8.29589e-05
0.000255109
-7.42178e-05
0.000223619
-6.29643e-05
-5.17818e-05
0.000182673
0.000416123
1.48137e-06
-0.000413677
0.000417898
-4.37319e-06
0.00041861
-1.01371e-05
0.00041858
-1.58423e-05
0.00041789
-2.13132e-05
0.000416545
-2.64723e-05
0.000414565
-3.13193e-05
0.000412011
-3.58798e-05
0.000408969
-4.01922e-05
0.000405533
-4.43021e-05
0.000401801
-4.8278e-05
0.000397856
-5.21873e-05
0.00039376
-5.60963e-05
0.00038951
-6.00293e-05
0.000385022
-6.3974e-05
0.000380166
-6.79046e-05
0.000374732
-7.1695e-05
0.000368388
-7.50921e-05
0.000360737
-7.78381e-05
0.000351418
-7.9725e-05
0.000339789
-8.02625e-05
0.000324786
-7.92587e-05
0.000305585
-7.65581e-05
0.000281934
-7.20181e-05
0.000254058
-6.59017e-05
0.000221885
-5.73352e-05
0.000184043
-4.5117e-05
0.000141885
-3.20598e-05
0.000100677
-2.17557e-05
-1.39045e-05
6.27993e-05
0.000441568
5.61268e-07
-0.000440648
0.000442216
-5.02179e-06
0.000442231
-1.01519e-05
0.000441289
-1.49005e-05
0.000439328
-1.93522e-05
0.000436404
-2.35485e-05
0.000432589
-2.75035e-05
0.000427945
-3.12366e-05
0.000422539
-3.47862e-05
0.000416443
-3.82054e-05
0.00040973
-4.15658e-05
0.000402462
-4.49187e-05
0.000394674
-4.83086e-05
0.00038631
-5.16652e-05
0.000376967
-5.46308e-05
0.000366288
-5.7226e-05
0.000353823
-5.92294e-05
0.000338844
-6.0114e-05
0.00032071
-5.97035e-05
0.000299123
-5.81384e-05
0.000275093
-5.62325e-05
0.000247316
-5.14813e-05
0.000213953
-4.31953e-05
0.000174766
-3.2831e-05
0.000132102
-2.3238e-05
9.01257e-05
-1.53586e-05
5.37524e-05
-8.74378e-06
2.49911e-05
-3.29851e-06
3.90081e-06
-6.65322e-07
-4.93702e-07
-9.51002e-06
0.000474326
-2.28735e-06
-0.000471477
0.000474509
-5.20473e-06
0.000472685
-8.32797e-06
0.000469218
-1.14337e-05
0.000464232
-1.43661e-05
0.000457762
-1.7078e-05
0.000449833
-1.95752e-05
0.000440479
-2.18825e-05
0.000429714
-2.40213e-05
0.000417527
-2.60184e-05
0.000403862
-2.79008e-05
0.00038863
-2.96868e-05
0.000371702
-3.13805e-05
0.00035296
-3.29227e-05
0.000332584
-3.4255e-05
0.000310822
-3.54643e-05
0.000286211
-3.46184e-05
0.000257486
-3.13883e-05
0.000223826
-2.60434e-05
0.000185664
-1.99773e-05
0.000143708
-1.42765e-05
0.000102171
-9.94441e-06
6.4737e-05
-5.76089e-06
3.35378e-05
-1.63188e-06
8.90026e-06
1.39955e-06
-8.47102e-06
2.01272e-06
-1.88849e-05
1.6701e-06
-2.37705e-05
1.58708e-06
-2.60644e-05
1.62864e-06
1.4007e-06
-2.79589e-05
0.000451663
-0.000453951
0.000446459
0.000438131
0.000426697
0.000412331
0.000395253
0.000375678
0.000353795
0.000329774
0.000303755
0.000275855
0.000246168
0.000214787
0.000181865
0.00014761
0.000112145
7.75269e-05
4.61386e-05
2.00952e-05
1.17958e-07
-1.41585e-05
-2.41029e-05
-2.98638e-05
-3.14957e-05
-3.00962e-05
-2.80834e-05
-2.64133e-05
-2.48263e-05
-2.31976e-05
-2.17969e-05
0.000394997
0.000373327
0.000350876
0.000326303
0.000299837
0.000274012
0.000249255
0.000223493
0.000196575
0.000169067
0.000139443
0.000110935
7.49236e-05
4.03452e-05
0.000461349
6.06423e-06
0.000452123
9.22594e-06
0.000439754
1.23682e-05
0.000424418
1.53367e-05
0.000406332
1.80853e-05
0.000385711
2.06215e-05
0.000362737
2.29739e-05
0.00033757
2.5167e-05
0.000310338
2.72325e-05
0.000281138
2.91999e-05
0.000250045
3.10923e-05
0.000217131
3.29145e-05
0.00018252
3.46112e-05
0.000146391
3.61285e-05
0.000108897
3.74944e-05
7.23251e-05
3.65717e-05
3.92849e-05
3.30402e-05
1.21083e-05
2.71765e-05
-8.50486e-06
2.06132e-05
-2.30087e-05
1.45038e-05
-3.29625e-05
9.9538e-06
-3.84673e-05
5.50485e-06
-3.95012e-05
1.03385e-06
-3.70957e-05
-2.4055e-06
-3.41158e-05
-2.9799e-06
-3.18002e-05
-2.31561e-06
-3.00373e-05
-1.76287e-06
-2.8989e-05
-1.04825e-06
1.87452e-07
-2.91765e-05
0.000490624
6.66097e-06
0.000488076
1.17742e-05
0.0004839
1.65436e-05
0.00047821
2.10269e-05
0.000471034
2.5261e-05
0.000462396
2.92594e-05
0.000452322
3.30486e-05
0.000440819
3.66692e-05
0.000427868
4.01841e-05
0.000413402
4.36653e-05
0.00039732
4.71751e-05
0.000379481
5.07528e-05
0.000359753
5.43399e-05
0.000338223
5.76581e-05
0.000315411
6.03067e-05
0.000289569
6.2413e-05
0.000259292
6.33179e-05
0.000223641
6.28269e-05
0.000183131
6.11231e-05
0.000138559
5.90758e-05
9.46342e-05
5.3879e-05
5.53017e-05
4.48374e-05
2.2802e-05
3.35336e-05
-2.70082e-06
2.30973e-05
-2.0499e-05
1.48183e-05
-3.09175e-05
8.10284e-06
-3.58622e-05
3.18184e-06
-3.92226e-05
2.31211e-06
4.81796e-06
-4.38531e-05
0.000456756
6.3393e-06
0.00045634
1.21908e-05
0.000454925
1.79587e-05
0.000452473
2.34788e-05
0.000449047
2.86863e-05
0.000444721
3.3586e-05
0.000439558
3.82115e-05
0.000433624
4.26031e-05
0.000426991
4.68169e-05
0.000419734
5.09227e-05
0.00041191
5.49986e-05
0.000403555
5.91079e-05
0.000394617
6.32778e-05
0.0003848
6.74757e-05
0.000373454
7.16528e-05
0.000360185
7.56819e-05
0.000344211
7.92911e-05
0.000324841
8.21969e-05
0.000301761
8.42039e-05
0.000276109
8.47277e-05
0.000246471
8.35171e-05
0.000210757
8.05513e-05
0.000168627
7.56632e-05
0.000122665
6.90595e-05
7.75733e-05
5.991e-05
3.89019e-05
4.67742e-05
8.8897e-06
3.31941e-05
-1.24618e-05
2.36636e-05
1.79798e-05
-2.56237e-05
0.000431527
5.13565e-06
0.000431795
1.19226e-05
0.000431359
1.8395e-05
0.00043027
2.45672e-05
0.000428527
3.04295e-05
0.00042615
3.59627e-05
0.000423202
4.11597e-05
0.000419767
4.6038e-05
0.000415942
5.06422e-05
0.000411823
5.50419e-05
0.000407498
5.93233e-05
0.000403029
6.35772e-05
0.000398416
6.78907e-05
0.00039356
7.23314e-05
0.00038829
7.6923e-05
0.000382377
8.15951e-05
0.000375464
8.62041e-05
0.00036712
9.05409e-05
0.000356966
9.43578e-05
0.000344306
9.73877e-05
0.000327921
9.9902e-05
0.00030693
0.000101542
0.000281018
0.000101575
0.000250342
9.97352e-05
0.000214953
9.5299e-05
0.00017313
8.85971e-05
0.000126718
7.96066e-05
8.21937e-05
6.81875e-05
5.68563e-05
4.33172e-05
0.000414582
4.38689e-06
0.000415006
1.14986e-05
0.00041488
1.85208e-05
0.000414172
2.52746e-05
0.00041298
3.16222e-05
0.000411348
3.75944e-05
0.000409321
4.31865e-05
0.000406961
4.83979e-05
0.000404348
5.32552e-05
0.000401575
5.78149e-05
0.000398737
6.21611e-05
0.000395916
6.63984e-05
0.000393176
7.06314e-05
0.000390544
7.49625e-05
0.000388042
7.94256e-05
0.000385592
8.40452e-05
0.000383067
8.87285e-05
0.000380154
9.34545e-05
0.000376508
9.80038e-05
0.000371358
0.000102537
0.000364413
0.000106848
0.000355048
0.000110907
0.000342704
0.000113919
0.000326589
0.000115849
0.000305472
0.000116416
0.000279047
0.000115022
0.000245952
0.000112702
0.000209869
0.000104271
0.000102977
0.000163748
0.0004005
3.69751e-06
0.000400875
1.11235e-05
0.000400993
1.84028e-05
0.000400812
2.54554e-05
0.000400252
3.2182e-05
0.000399321
3.85256e-05
0.000398063
4.44447e-05
0.000396522
4.99389e-05
0.00039477
5.50067e-05
0.000392874
5.9711e-05
0.000390938
6.4098e-05
0.000389033
6.83034e-05
0.000387278
7.2386e-05
0.000385725
7.65159e-05
0.00038447
8.06804e-05
0.000383477
8.5038e-05
0.000382747
8.94589e-05
0.000382099
9.41019e-05
0.000381312
9.87913e-05
0.000380133
0.000103716
0.000378304
0.000108676
0.000375704
0.000113507
0.000371323
0.000118301
0.00036523
0.000121942
0.000355329
0.000126317
0.000343239
0.000127112
0.000324693
0.000131248
0.000303747
0.000125217
0.000132099
0.000274625
0.000389731
3.04986e-06
0.000390212
1.06428e-05
0.000390498
1.81171e-05
0.000390547
2.54063e-05
0.00039034
3.23887e-05
0.000389852
3.90138e-05
0.000389115
4.51817e-05
0.000388144
5.09099e-05
0.000387014
5.61365e-05
0.000385761
6.09641e-05
0.000384492
6.53671e-05
0.000383258
6.95373e-05
0.000382181
7.34624e-05
0.000381317
7.73801e-05
0.000380749
8.1249e-05
0.000380512
8.52745e-05
0.000380568
8.94029e-05
0.000380955
9.37152e-05
0.000381425
9.83215e-05
0.000382205
0.000102936
0.000382738
0.000108143
0.00038353
0.000112715
0.000383276
0.000118554
0.000382883
0.000122336
0.000380307
0.000128893
0.000376888
0.000130531
0.00037024
0.000137896
0.000360206
0.000135251
0.000143702
0.000348603
0.000381202
2.57614e-06
0.000381634
1.02107e-05
0.000381984
1.77672e-05
0.000382191
2.51996e-05
0.000382244
3.23356e-05
0.000382099
3.91588e-05
0.000381782
4.5499e-05
0.000381282
5.14097e-05
0.000380665
5.67536e-05
0.000379954
6.1675e-05
0.000379235
6.60857e-05
0.000378569
7.02035e-05
0.000378031
7.40003e-05
0.00037772
7.76911e-05
0.000377643
8.13268e-05
0.000377941
8.49765e-05
0.000378478
8.88657e-05
0.000379482
9.27106e-05
0.000380647
9.71573e-05
0.000382362
0.00010122
0.000384105
0.000106401
0.000386339
0.000110481
0.000388399
0.000116494
0.000390537
0.000120198
0.000392479
0.000126951
0.000393296
0.000129714
0.000394478
0.000136714
0.000391521
0.000138207
0.000144122
0.000391101
0.000372715
2.03202e-06
0.000373261
9.6655e-06
0.000373799
1.72288e-05
0.000374262
2.47366e-05
0.000374633
3.19647e-05
0.000374865
3.89271e-05
0.000374975
4.53881e-05
0.000374953
5.14321e-05
0.000374841
5.68661e-05
0.000374666
6.18491e-05
0.000374484
6.62677e-05
0.000374369
7.03184e-05
0.000374359
7.40103e-05
0.00037457
7.74804e-05
0.000374988
8.09084e-05
0.000375755
8.42103e-05
0.000376793
8.78268e-05
0.000378246
9.12583e-05
0.000380035
9.53681e-05
0.000382215
9.90404e-05
0.000384846
0.00010377
0.000387656
0.000107671
0.000391189
0.000112961
0.000394368
0.000117019
0.000398825
0.000122494
0.000401832
0.000126708
0.000406984
0.000131561
0.000408915
0.000136276
0.000139095
0.000413943
0.000365745
1.38997e-06
0.000366398
9.01337e-06
0.000367058
1.65681e-05
0.000367671
2.41236e-05
0.00036823
3.14064e-05
0.000368698
3.84588e-05
0.000369094
4.49918e-05
0.000369406
5.11206e-05
0.00036967
5.66016e-05
0.000369903
6.1616e-05
0.000370165
6.6006e-05
0.000370493
6.99907e-05
0.000370965
7.35376e-05
0.000371611
7.68348e-05
0.000372535
7.99839e-05
0.000373701
8.30448e-05
0.000375288
8.62402e-05
0.000377107
8.94394e-05
0.000379522
9.2953e-05
0.000382048
9.65141e-05
0.000385423
0.000100395
0.000388655
0.000104439
0.000393123
0.000108493
0.000397047
0.000113095
0.000402699
0.000116842
0.000407287
0.00012212