/*--------------------------------*- C++ -*----------------------------------*\
| =========                 |                                                 |
| \\      /  F ield         | OpenFOAM: The Open Source CFD Toolbox           |
|  \\    /   O peration     | Version:  2312                                  |
|   \\  /    A nd           | Website:  www.openfoam.com                      |
|    \\/     M anipulation  |                                                 |
\*---------------------------------------------------------------------------*/
FoamFile
{
    version     2.0;
    format      ascii;
    arch        "LSB;label=32;scalar=64";
    class       surfaceScalarField;
    location    "181000";
    object      phi;
}
// * * * * * * * * * * * * * * * * * * * * * * * * * * * * * * * * * * * * * //

dimensions      [0 3 -1 0 0 0 0];

oriented        oriented;

internalField   nonuniform List<scalar> 
21240
(
0.000664974
1.69246e-06
0.000661072
3.90234e-06
0.000655752
5.31985e-06
0.000649518
6.23377e-06
0.000642648
6.87018e-06
0.000635284
7.36377e-06
0.000627519
7.76501e-06
0.000619432
8.08698e-06
0.000611097
8.3357e-06
0.000602576
8.52018e-06
0.000593924
8.65275e-06
0.000585178
8.74576e-06
0.000576369
8.80888e-06
0.000567521
8.8485e-06
0.000558652
8.86851e-06
0.000549781
8.87144e-06
0.000540921
8.85923e-06
0.000532088
8.83352e-06
0.000523292
8.79575e-06
0.000514545
8.74711e-06
0.000505856
8.68851e-06
0.000497236
8.62066e-06
0.000488692
8.5441e-06
0.000480232
8.45922e-06
0.000471866
8.36635e-06
0.0004636
8.2657e-06
0.000455443
8.1575e-06
0.000447401
8.0418e-06
0.000439482
7.91881e-06
0.000431694
7.78837e-06
0.000424043
7.65079e-06
0.000416538
7.50563e-06
0.000409184
7.35345e-06
0.000401991
7.19335e-06
0.000394964
7.02645e-06
0.000388113
6.85102e-06
0.000381444
6.6693e-06
0.000374966
6.478e-06
0.000368684
6.28151e-06
0.000362611
6.07364e-06
0.000356748
5.86276e-06
0.000351111
5.63737e-06
0.000345698
5.41306e-06
0.000340529
5.16864e-06
0.000335596
4.93278e-06
0.00033093
4.66661e-06
0.000326507
4.42252e-06
0.000322378
4.12927e-06
0.000318495
3.88265e-06
0.000314944
3.55096e-06
0.000311632
3.31247e-06
0.000308716
2.91612e-06
0.000306005
2.71008e-06
0.000303824
2.18128e-06
0.00030175
2.07384e-06
0.000300554
1.19648e-06
0.000299109
1.44531e-06
0.000299355
-2.46205e-07
0.000298208
1.14701e-06
-3.17809e-06
0.000301386
0.000667556
8.03461e-07
0.00066912
2.33823e-06
0.000670853
3.58636e-06
0.000672525
4.56165e-06
0.000674057
5.33853e-06
0.000675435
5.98578e-06
0.000676655
6.54506e-06
0.000677707
7.0348e-06
0.000678581
7.46208e-06
0.00067927
7.8314e-06
0.000679774
8.14844e-06
0.000680099
8.42021e-06
0.000680255
8.65381e-06
0.000680248
8.85518e-06
0.000680088
9.02875e-06
0.000679781
9.17758e-06
0.000679337
9.30395e-06
0.000678761
9.40955e-06
0.00067806
9.496e-06
0.000677243
9.56451e-06
0.000676315
9.61636e-06
0.000675284
9.65225e-06
0.000674155
9.67319e-06
0.000672934
9.67936e-06
0.000671629
9.67171e-06
0.000670245
9.64991e-06
0.000668787
9.61505e-06
0.000667263
9.56621e-06
0.000665677
9.50491e-06
0.000664036
9.42936e-06
0.000662345
9.34192e-06
0.000660611
9.23948e-06
0.000658838
9.12588e-06
0.000657036
8.99593e-06
0.000655206
8.85598e-06
0.00065336
8.69753e-06
0.000651498
8.53106e-06
0.000649633
8.34268e-06
0.000647765
8.14975e-06
0.000645909
7.92958e-06
0.000644061
7.71078e-06
0.000642242
7.45632e-06
0.000640442
7.21317e-06
0.00063869
6.92089e-06
0.000636966
6.65643e-06
0.000635312
6.32115e-06
0.000633693
6.04089e-06
0.000632168
5.65468e-06
0.000630682
5.36804e-06
0.000629315
4.91855e-06
0.000627986
4.64117e-06
0.000626793
4.10929e-06
0.000625637
3.86639e-06
0.000624594
3.22379e-06
0.000623614
3.05391e-06
0.000622546
2.26492e-06
0.000621772
2.21873e-06
0.000620256
1.27051e-06
0.000620012
1.3905e-06
3.54943e-07
0.000616479
0.00066695
5.19677e-07
0.000667817
1.47136e-06
0.000669057
2.34688e-06
0.000670482
3.13637e-06
0.000671985
3.83569e-06
0.000673518
4.45254e-06
0.000675064
4.9992e-06
0.000676612
5.48683e-06
0.000678151
5.92331e-06
0.000679669
6.31363e-06
0.000681156
6.66142e-06
0.000682606
6.97004e-06
0.000684016
7.24314e-06
0.000685387
7.48429e-06
0.000686719
7.69693e-06
0.000688013
7.88378e-06
0.00068927
8.04726e-06
0.00069049
8.18905e-06
0.000691675
8.31083e-06
0.000692826
8.41363e-06
0.000693944
8.49883e-06
0.000695029
8.56697e-06
0.000696083
8.61928e-06
0.000697106
8.65579e-06
0.0006981
8.67771e-06
0.000699066
8.68448e-06
0.000700003
8.67752e-06
0.000700914
8.65555e-06
0.000701798
8.62046e-06
0.000702658
8.57006e-06
0.000703493
8.50706e-06
0.000704304
8.42795e-06
0.000705093
8.33678e-06
0.000705861
8.22822e-06
0.000706609
8.10833e-06
0.000707337
7.96917e-06
0.000708048
7.81979e-06
0.000708742
7.64857e-06
0.000709423
7.46886e-06
0.000710089
7.2639e-06
0.000710747
7.0531e-06
0.00071139
6.8126e-06
0.000712033
6.57013e-06
0.000712662
6.29239e-06
0.0007133
6.018e-06
0.00071392
5.70161e-06
0.000714565
5.39544e-06
0.00071518
5.03965e-06
0.000715846
4.70206e-06
0.000716458
4.30736e-06
0.00071716
3.93866e-06
0.000717761
3.50838e-06
0.000718519
3.10853e-06
0.00071909
2.65257e-06
0.000719923
2.22087e-06
0.000720425
1.76344e-06
0.000721347
1.29623e-06
0.000721727
8.901e-07
0.000722747
3.7049e-07
1.18323e-07
0.000722984
0.000666853
3.3293e-07
0.000667307
1.01744e-06
0.00066797
1.68438e-06
0.000668793
2.31305e-06
0.000669735
2.89431e-06
0.000670762
3.4253e-06
0.000671853
3.90768e-06
0.000672995
4.34518e-06
0.000674176
4.74182e-06
0.000675389
5.10092e-06
0.000676625
5.42511e-06
0.000677879
5.71659e-06
0.000679145
5.97747e-06
0.000680419
6.20988e-06
0.0006817
6.41601e-06
0.000682986
6.59783e-06
0.000684276
6.75722e-06
0.000685569
6.89565e-06
0.000686866
7.01455e-06
0.000688164
7.1149e-06
0.000689465
7.19781e-06
0.000690768
7.26395e-06
0.000692073
7.31421e-06
0.00069338
7.34895e-06
0.000694689
7.36893e-06
0.000695999
7.3742e-06
0.000697311
7.36543e-06
0.000698625
7.34236e-06
0.000699939
7.30563e-06
0.000701255
7.25471e-06
0.000702572
7.19019e-06
0.000703888
7.11135e-06
0.000705206
7.0187e-06
0.000706523
6.91143e-06
0.000707842
6.78985e-06
0.000709157
6.65331e-06
0.000710476
6.50156e-06
0.00071179
6.33472e-06
0.000713107
6.1512e-06
0.000714418
5.95297e-06
0.000715736
5.73566e-06
0.000717043
5.50511e-06
0.000718362
5.25154e-06
0.000719666
4.98817e-06
0.000720989
4.69527e-06
0.000722291
4.39957e-06
0.000723622
4.06362e-06
0.000724924
3.73805e-06
0.000726271
3.35465e-06
0.000727574
3.00498e-06
0.000728944
2.56859e-06
0.000730247
2.20563e-06
0.000731647
1.7083e-06
0.000732949
1.3507e-06
0.000734387
7.82669e-07
0.000735689
4.61867e-07
0.000737188
-2.03266e-07
0.000738537
-4.58961e-07
0.000740182
-1.27487e-06
-1.37457e-06
0.000741675
0.000666738
2.6191e-07
0.000666968
7.87475e-07
0.000667353
1.29935e-06
0.000667875
1.79068e-06
0.000668514
2.25561e-06
0.000669248
2.69063e-06
0.000670062
3.0944e-06
0.00067094
3.46709e-06
0.000671872
3.80971e-06
0.000672849
4.12355e-06
0.000673865
4.40982e-06
0.000674911
4.66967e-06
0.000675985
4.9042e-06
0.00067708
5.11458e-06
0.000678194
5.302e-06
0.000679324
5.4677e-06
0.000680469
5.61287e-06
0.000681626
5.73861e-06
0.000682794
5.8459e-06
0.000683974
5.93563e-06
0.000685163
6.00858e-06
0.000686361
6.06543e-06
0.000687569
6.10675e-06
0.000688785
6.13312e-06
0.000690009
6.14486e-06
0.00069124
6.14248e-06
0.00069248
6.12603e-06
0.000693726
6.09601e-06
0.00069498
6.05214e-06
0.000696239
5.99502e-06
0.000697506
5.92391e-06
0.000698777
5.83976e-06
0.000700055
5.74105e-06
0.000701337
5.62947e-06
0.000702624
5.5023e-06
0.000703915
5.3626e-06
0.000705211
5.20561e-06
0.000706509
5.03684e-06
0.000707812
4.8482e-06
0.000709115
4.64937e-06
0.000710424
4.42675e-06
0.000711732
4.19704e-06
0.000713046
3.93761e-06
0.000714358
3.6767e-06
0.000715676
3.37685e-06
0.000716991
3.08503e-06
0.000718315
2.73969e-06
0.000719635
2.41804e-06
0.000720969
2.01994e-06
0.000722303
1.67119e-06
0.000723662
1.20995e-06
0.000725029
8.38873e-07
0.000726439
2.97442e-07
0.000727874
-8.34036e-08
0.000729345
-6.88295e-07
0.000730853
-1.04629e-06
0.000732429
-1.77918e-06
0.00073407
-2.10018e-06
0.000735793
-2.99838e-06
-3.25022e-06
0.000737669
0.000666724
2.04909e-07
0.000666898
6.13231e-07
0.000667182
1.01557e-06
0.000667567
1.40547e-06
0.000668043
1.77928e-06
0.0006686
2.13422e-06
0.000669226
2.46831e-06
0.000669912
2.78047e-06
0.000670652
3.07027e-06
0.000671438
3.33773e-06
0.000672264
3.58309e-06
0.000673127
3.80683e-06
0.000674022
4.0095e-06
0.000674945
4.19175e-06
0.000675892
4.35424e-06
0.000676862
4.49773e-06
0.000677852
4.62293e-06
0.00067886
4.73062e-06
0.000679885
4.82146e-06
0.000680924
4.89615e-06
0.000681978
4.95521e-06
0.000683044
4.99928e-06
0.000684122
5.02872e-06
0.000685211
5.04409e-06
0.00068631
5.04555e-06
0.000687419
5.03366e-06
0.000688537
5.00831e-06
0.000689663
4.97011e-06
0.000690796
4.91859e-06
0.000691937
4.85454e-06
0.000693084
4.77698e-06
0.000694236
4.68708e-06
0.000695394
4.58308e-06
0.000696557
4.46688e-06
0.000697724
4.33555e-06
0.000698894
4.19223e-06
0.000700067
4.03215e-06
0.000701244
3.86058e-06
0.000702422
3.66977e-06
0.000703603
3.46854e-06
0.000704785
3.24436e-06
0.00070597
3.01187e-06
0.000707157
2.75093e-06
0.000708348
2.48564e-06
0.000709541
2.18394e-06
0.000710741
1.88515e-06
0.000711942
1.5384e-06
0.000713154
1.20679e-06
0.000714363
8.10102e-07
0.000715585
4.49142e-07
0.000716791
4.48783e-09
0.000718035
-4.05099e-07
0.000719276
-9.43379e-07
0.000720557
-1.36431e-06
0.000721857
-1.98867e-06
0.000723234
-2.42299e-06
0.000724618
-3.16325e-06
0.000726115
-3.59754e-06
0.000727607
-4.4903e-06
-4.89695e-06
0.000729254
0.000666708
1.63668e-07
0.000666832
4.89039e-07
0.000667038
8.09866e-07
0.000667322
1.12164e-06
0.000667679
1.42191e-06
0.000668105
1.70865e-06
0.000668593
1.98029e-06
0.000669137
2.23575e-06
0.000669733
2.47453e-06
0.000670375
2.69623e-06
0.000671058
2.89966e-06
0.000671779
3.08533e-06
0.000672535
3.25354e-06
0.000673323
3.40463e-06
0.000674138
3.53893e-06
0.000674979
3.65689e-06
0.000675843
3.75894e-06
0.000676728
3.8456e-06
0.000677632
3.91732e-06
0.000678553
3.97459e-06
0.000679491
4.01779e-06
0.000680443
4.04741e-06
0.000681408
4.0637e-06
0.000682385
4.06712e-06
0.000683372
4.05778e-06
0.00068437
4.03612e-06
0.000685376
4.00205e-06
0.00068639
3.95604e-06
0.000687411
3.89773e-06
0.000688438
3.82767e-06
0.00068947
3.74513e-06
0.000690506
3.6509e-06
0.000691546
3.54366e-06
0.000692588
3.42469e-06
0.000693631
3.29179e-06
0.000694677
3.14707e-06
0.000695722
2.98702e-06
0.000696767
2.81518e-06
0.000697811
2.62597e-06
0.000698854
2.42536e-06
0.000699894
2.20443e-06
0.000700933
1.97315e-06
0.000701966
1.71723e-06
0.000702999
1.45293e-06
0.000704026
1.15717e-06
0.000705055
8.56306e-07
0.00070608
5.13516e-07
0.000707115
1.71457e-07
0.000708145
-2.20068e-07
0.00070919
-5.9536e-07
0.000710242
-1.04758e-06
0.000711304
-1.46766e-06
0.000712356
-1.99514e-06
0.000713449
-2.45688e-06
0.000714533
-3.0733e-06
0.000715684
-3.57333e-06
0.000716822
-4.30174e-06
0.000718061
-4.83649e-06
0.00071928
-5.70933e-06
-6.26552e-06
0.000720649
0.000666698
1.3208e-07
0.000666794
3.93144e-07
0.000666954
6.49817e-07
0.000667177
8.98963e-07
0.00066746
1.13895e-06
0.0006678
1.36835e-06
0.000668194
1.58601e-06
0.000668639
1.79097e-06
0.000669131
1.98254e-06
0.000669667
2.16016e-06
0.000670243
2.32344e-06
0.000670857
2.47221e-06
0.000671504
2.60651e-06
0.000672182
2.72647e-06
0.000672888
2.83228e-06
0.000673621
2.92418e-06
0.000674378
3.00244e-06
0.000675156
3.06738e-06
0.000675954
3.11929e-06
0.00067677
3.15852e-06
0.000677602
3.18536e-06
0.00067845
3.20015e-06
0.00067931
3.20311e-06
0.000680183
3.19455e-06
0.000681066
3.17462e-06
0.000681959
3.14358e-06
0.000682859
3.10145e-06
0.000683767
3.04848e-06
0.00068468
2.9845e-06
0.000685598
2.90976e-06
0.000686519
2.82384e-06
0.000687443
2.72707e-06
0.000688368
2.61868e-06
0.000689293
2.4992e-06
0.000690218
2.36733e-06
0.000691141
2.22398e-06
0.000692061
2.06704e-06
0.000692978
1.89813e-06
0.00069389
1.71396e-06
0.000694798
1.5174e-06
0.000695699
1.30329e-06
0.000696596
1.07653e-06
0.000697484
8.29057e-07
0.000698367
5.69616e-07
0.000699238
2.85956e-07
0.0007001
-5.72102e-09
0.000700954
-3.40134e-07
0.000701805
-6.79035e-07
0.000702643
-1.05853e-06
0.000703489
-1.44114e-06
0.00070432
-1.87906e-06
0.000705164
-2.31164e-06
0.000705989
-2.82023e-06
0.00070684
-3.30778e-06
0.000707668
-3.90117e-06
0.000708542
-4.44749e-06
0.000709385
-5.14403e-06
0.0007103
-5.75173e-06
0.000711166
-6.57503e-06
-7.24191e-06
0.000712142
0.000666692
1.06289e-07
0.000666771
3.15065e-07
0.000666901
5.19316e-07
0.000667083
7.16779e-07
0.000667316
9.06333e-07
0.000667597
1.08699e-06
0.000667925
1.25789e-06
0.000668298
1.41832e-06
0.000668713
1.5677e-06
0.000669167
1.70561e-06
0.000669659
1.83175e-06
0.000670185
1.94595e-06
0.000670744
2.04812e-06
0.000671332
2.13829e-06
0.000671948
2.21653e-06
0.000672589
2.28299e-06
0.000673253
2.33785e-06
0.000673939
2.38132e-06
0.000674645
2.41363e-06
0.000675369
2.43502e-06
0.000676108
2.44572e-06
0.000676862
2.44597e-06
0.00067763
2.436e-06
0.000678408
2.416e-06
0.000679197
2.38613e-06
0.000679994
2.34656e-06
0.000680798
2.29738e-06
0.000681607
2.23868e-06
0.000682422
2.17044e-06
0.000683239
2.0927e-06
0.000684057
2.00528e-06
0.000684876
1.90815e-06
0.000685694
1.80094e-06
0.000686509
1.68362e-06
0.000687321
1.5556e-06
0.000688128
1.41692e-06
0.000688929
1.26664e-06
0.000689722
1.10486e-06
0.000690506
9.30001e-07
0.000691281
7.42523e-07
0.000692044
5.40229e-07
0.000692796
3.2465e-07
0.000693532
9.2709e-08
0.000694258
-1.55894e-07
0.000694968
-4.24482e-07
0.000695671
-7.09103e-07
0.00069635
-1.01927e-06
0.000697018
-1.34622e-06
0.000697663
-1.70367e-06
0.000698299
-2.07782e-06
0.000698911
-2.49049e-06
0.000699518
-2.91905e-06
0.000700096
-3.39759e-06
0.000700677
-3.88904e-06
0.000701222
-4.44608e-06
0.000701784
-5.00953e-06
0.0007023
-5.66033e-06
0.000702854
-6.3058e-06
0.000703348
-7.06889e-06
-7.80552e-06
0.000703912
0.000666688
8.45343e-08
0.000666754
2.4928e-07
0.000666864
4.09289e-07
0.000667018
5.62906e-07
0.000667215
7.09358e-07
0.000667454
8.47967e-07
0.000667734
9.78135e-07
0.000668053
1.09936e-06
0.000668409
1.21123e-06
0.000668801
1.31345e-06
0.000669227
1.40581e-06
0.000669685
1.48817e-06
0.000670173
1.56045e-06
0.000670688
1.62266e-06
0.00067123
1.67486e-06
0.000671796
1.71714e-06
0.000672384
1.74967e-06
0.000672993
1.77261e-06
0.00067362
1.78616e-06
0.000674265
1.79051e-06
0.000674925
1.78589e-06
0.000675598
1.77247e-06
0.000676284
1.75046e-06
0.00067698
1.72003e-06
0.000677684
1.68134e-06
0.000678397
1.6345e-06
0.000679114
1.57964e-06
0.000679836
1.51676e-06
0.000680561
1.44594e-06
0.000681286
1.36709e-06
0.000682011
1.28026e-06
0.000682734
1.18516e-06
0.000683454
1.08173e-06
0.000684168
9.69534e-07
0.000684875
8.48437e-07
0.000685574
7.17781e-07
0.000686263
5.77483e-07
0.000686941
4.26812e-07
0.000687605
2.65858e-07
0.000688254
9.38513e-08
0.000688886
-9.21307e-08
0.000689503
-2.91889e-07
0.000690101
-5.05079e-07
0.000690679
-7.34083e-07
0.000691233
-9.79119e-07
0.000691767
-1.24244e-06
0.000692272
-1.52425e-06
0.000692753
-1.82771e-06
0.000693202
-2.15272e-06
0.000693628
-2.50326e-06
0.000694016
-2.87878e-06
0.000694382
-3.28483e-06
0.000694704
-3.71988e-06
0.000695007
-4.19192e-06
0.000695258
-4.69711e-06
0.000695496
-5.24782e-06
0.000695671
-5.83534e-06
0.000695846
-6.48002e-06
0.000695939
-7.16272e-06
-7.91806e-06
0.000696052
0.000666686
6.5647e-08
0.000666743
1.92217e-07
0.000666838
3.13833e-07
0.000666972
4.29304e-07
0.000667143
5.3811e-07
0.000667351
6.39803e-07
0.000667595
7.33995e-07
0.000667874
8.2036e-07
0.000668187
8.98648e-07
0.000668532
9.68676e-07
0.000668907
1.03032e-06
0.000669312
1.08352e-06
0.000669744
1.12826e-06
0.000670202
1.16457e-06
0.000670684
1.19253e-06
0.000671189
1.21226e-06
0.000671715
1.22393e-06
0.00067226
1.2277e-06
0.000672822
1.22377e-06
0.0006734
1.21233e-06
0.000673993
1.19358e-06
0.000674598
1.1677e-06
0.000675213
1.13492e-06
0.000675838
1.09536e-06
0.00067647
1.04924e-06
0.000677108
9.96634e-07
0.00067775
9.37723e-07
0.000678394
8.72464e-07
0.000679039
8.00988e-07
0.000679683
7.23098e-07
0.000680324
6.38908e-07
0.000680961
5.48113e-07
0.000681592
4.50938e-07
0.000682215
3.46833e-07
0.000682827
2.36026e-07
0.000683427
1.17761e-07
0.000684013
-8.3708e-09
0.000684584
-1.44521e-07
0.000685139
-2.88371e-07
0.000685675
-4.42671e-07
0.00068619
-6.06574e-07
0.000686681
-7.82942e-07
0.000687145
-9.69895e-07
0.000687583
-1.1717e-06
0.000687989
-1.38548e-06
0.000688365
-1.6176e-06
0.000688703
-1.86308e-06
0.000689007
-2.13138e-06
0.000689268
-2.41416e-06
0.000689491
-2.7258e-06
0.000689665
-3.05243e-06
0.000689796
-3.41629e-06
0.000689871
-3.7944e-06
0.0006899
-4.22169e-06
0.000689863
-4.65999e-06
0.00068978
-5.16494e-06
0.000689618
-5.67287e-06
0.000689411
-6.27349e-06
0.000689109
-6.85981e-06
-7.57756e-06
0.000688768
0.000666684
4.87891e-08
0.000666734
1.41335e-07
0.00066682
2.28731e-07
0.000666939
3.10166e-07
0.000667091
3.85324e-07
0.000667277
4.53941e-07
0.000667495
5.15793e-07
0.000667745
5.70705e-07
0.000668025
6.18561e-07
0.000668335
6.59294e-07
0.000668672
6.92891e-07
0.000669036
7.19366e-07
0.000669426
7.38775e-07
0.000669839
7.512e-07
0.000670275
7.56772e-07
0.000670731
7.55649e-07
0.000671207
7.48028e-07
0.000671701
7.34105e-07
0.000672211
7.14102e-07
0.000672735
6.88221e-07
0.000673272
6.56707e-07
0.00067382
6.19746e-07
0.000674377
5.77557e-07
0.000674942
5.3029e-07
0.000675513
4.78177e-07
0.000676088
4.21327e-07
0.000676666
3.59957e-07
0.000677245
2.9406e-07
0.000677822
2.23864e-07
0.000678395
1.49247e-07
0.000678964
7.03043e-08
0.000679526
-1.37934e-08
0.000680079
-1.02365e-07
0.000680622
-1.95842e-07
0.000681152
-2.94099e-07
0.000681668
-3.9817e-07
0.000682167
-5.07662e-07
0.000682647
-6.24033e-07
0.000683105
-7.46331e-07
0.000683539
-8.7675e-07
0.000683946
-1.0139e-06
0.000684324
-1.16113e-06
0.000684671
-1.31603e-06
0.000684982
-1.48354e-06
0.000685256
-1.65953e-06
0.00068549
-1.85156e-06
0.00068568
-2.05272e-06
0.000685823
-2.27457e-06
0.000685915
-2.50565e-06
0.000685953
-2.76391e-06
0.000685931
-3.03043e-06
0.000685848
-3.33339e-06
0.000685695
-3.6416e-06
0.000685473
-3.99985e-06
0.00068517
-4.35663e-06
0.000684789
-4.78384e-06
0.000684312
-5.19621e-06
0.000683749
-5.71011e-06
0.000683073
-6.18367e-06
-6.80628e-06
0.000682301
0.000666682
3.33083e-08
0.000666729
9.46728e-08
0.000666807
1.50744e-07
0.000666916
2.01025e-07
0.000667056
2.45356e-07
0.000667226
2.83631e-07
0.000667426
3.15777e-07
0.000667655
3.41757e-07
0.000667912
3.61578e-07
0.000668196
3.75287e-07
0.000668506
3.82968e-07
0.000668841
3.84715e-07
0.000669199
3.80668e-07
0.000669579
3.70965e-07
0.00066998
3.55808e-07
0.0006704
3.35428e-07
0.000670838
3.1004e-07
0.000671292
2.79931e-07
0.000671761
2.45314e-07
0.000672243
2.06374e-07
0.000672736
1.63474e-07
0.000673239
1.16905e-07
0.00067375
6.67625e-08
0.000674267
1.3146e-08
0.000674789
-4.37065e-08
0.000675314
-1.03271e-07
0.000675839
-1.65533e-07
0.000676364
-2.30469e-07
0.000676885
-2.9789e-07
0.000677403
-3.67924e-07
0.000677913
-4.40405e-07
0.000678415
-5.15538e-07
0.000678906
-5.93062e-07
0.000679383
-6.7345e-07
0.000679846
-7.56474e-07
0.00068029
-8.429e-07
0.000680715
-9.32286e-07
0.000681117
-1.02587e-06
0.000681493
-1.12294e-06
0.000681842
-1.22532e-06
0.00068216
-1.33178e-06
0.000682444
-1.44511e-06
0.000682691
-1.5632e-06
0.000682898
-1.69025e-06
0.000683061
-1.82266e-06
0.000683176
-1.96686e-06
0.00068324
-2.11679e-06
0.000683248
-2.28241e-06
0.000683196
-2.45362e-06
0.000683078
-2.646e-06
0.000682891
-2.84279e-06
0.000682626
-3.06862e-06
0.00068228
-3.29577e-06
0.000681844
-3.56363e-06
0.000681313
-3.82626e-06
0.000680677
-4.14727e-06
0.000679931
-4.45041e-06
0.00067906
-4.83915e-06
0.000678063
-5.1863e-06
-5.66116e-06
0.000676918
0.000666681
1.86719e-08
0.000666725
5.06037e-08
0.000666799
7.7142e-08
0.000666902
9.8083e-08
0.000667034
1.13411e-07
0.000667194
1.23162e-07
0.000667383
1.27401e-07
0.000667598
1.26184e-07
0.00066784
1.19708e-07
0.000668107
1.08007e-07
0.000668399
9.14263e-08
0.000668714
6.99144e-08
0.00066905
4.40105e-08
0.000669408
1.35238e-08
0.000669785
-2.12284e-08
0.00067018
-5.95789e-08
0.000670591
-1.0144e-07
0.000671018
-1.46547e-07
0.000671458
-1.94603e-07
0.000671909
-2.45326e-07
0.000672371
-2.98405e-07
0.000672842
-3.53574e-07
0.000673319
-4.10568e-07
0.000673801
-4.69149e-07
0.000674287
-5.29053e-07
0.000674774
-5.90075e-07
0.00067526
-6.51989e-07
0.000675744
-7.14671e-07
0.000676224
-7.77924e-07
0.000676698
-8.41692e-07
0.000677163
-9.05794e-07
0.000677618
-9.70339e-07
0.00067806
-1.03518e-06
0.000678487
-1.10054e-06
0.000678897
-1.16625e-06
0.000679287
-1.23273e-06
0.000679655
-1.29979e-06
0.000679997
-1.36813e-06
0.000680311
-1.4374e-06
0.000680595
-1.50868e-06
0.000680844
-1.58135e-06
0.000681056
-1.65702e-06
0.000681228
-1.73463e-06
0.000681354
-1.8166e-06
0.000681432
-1.90105e-06
0.000681457
-1.99165e-06
0.000681425
-2.08518e-06
0.00068133
-2.18729e-06
0.000681169
-2.29251e-06
0.000680933
-2.40966e-06
0.00068062
-2.52952e-06
0.000680217
-2.66606e-06
0.000679725
-2.80378e-06
0.000679127
-2.96512e-06
0.000678424
-3.12407e-06
0.000677594
-3.31715e-06
0.000676645
-3.50062e-06
0.00067554
-3.73446e-06
0.000674298
-3.94487e-06
-4.23089e-06
0.000672868
0.000666681
4.42747e-09
0.000666724
7.74537e-09
0.000666795
5.60237e-09
0.000666895
-1.85826e-09
0.000667023
-1.45932e-08
0.000667179
-3.24171e-08
0.000667361
-5.51358e-08
0.00066757
-8.25454e-08
0.000667804
-1.14417e-07
0.000668063
-1.50505e-07
0.000668345
-1.90535e-07
0.000668649
-2.34238e-07
0.000668974
-2.81313e-07
0.000669319
-3.31473e-07
0.000669682
-3.84391e-07
0.000670062
-4.39713e-07
0.000670458
-4.97103e-07
0.000670868
-5.56226e-07
0.00067129
-6.16743e-07
0.000671723
-6.7832e-07
0.000672165
-7.40636e-07
0.000672615
-8.03373e-07
0.000673071
-8.66221e-07
0.00067353
-9.28891e-07
0.000673992
-9.91098e-07
0.000674455
-1.05258e-06
0.000674916
-1.11307e-06
0.000675374
-1.17237e-06
0.000675826
-1.23026e-06
0.000676271
-1.28658e-06
0.000676706
-1.34119e-06
0.00067713
-1.394e-06
0.00067754
-1.44493e-06
0.000677933
-1.49392e-06
0.000678308
-1.54097e-06
0.000678661
-1.5861e-06
0.000678991
-1.62936e-06
0.000679293
-1.67083e-06
0.000679567
-1.71065e-06
0.000679807
-1.74893e-06
0.000680012
-1.78591e-06
0.000680176
-1.82169e-06
0.000680298
-1.85663e-06
0.000680372
-1.89081e-06
0.000680396
-1.92474e-06
0.000680363
-1.95842e-06
0.00068027
-1.99256e-06
0.00068011
-2.02701e-06
0.00067988
-2.06274e-06
0.00067957
-2.09936e-06
0.000679179
-2.1382e-06
0.000678691
-2.17854e-06
0.000678109
-2.22216e-06
0.000677412
-2.26788e-06
0.000676606
-2.31795e-06
0.00067566
-2.37072e-06
0.000674588
-2.42872e-06
0.000673343
-2.49019e-06
0.000671956
-2.55769e-06
-2.6303e-06
0.000670356
0.000666681
-9.92072e-09
0.000666724
-3.52996e-08
0.000666796
-6.61118e-08
0.000666896
-1.01991e-07
0.000667024
-1.42666e-07
0.000667179
-1.87853e-07
0.000667362
-2.3726e-07
0.00066757
-2.90577e-07
0.000667803
-3.47475e-07
0.00066806
-4.07603e-07
0.00066834
-4.70601e-07
0.000668642
-5.36103e-07
0.000668964
-6.03737e-07
0.000669306
-6.73127e-07
0.000669665
-7.43892e-07
0.000670041
-8.15636e-07
0.000670432
-8.87972e-07
0.000670836
-9.60507e-07
0.000671252
-1.03286e-06
0.000671679
-1.10467e-06
0.000672114
-1.17555e-06
0.000672555
-1.24517e-06
0.000673002
-1.31317e-06
0.000673453
-1.37922e-06
0.000673905
-1.443e-06
0.000674356
-1.5042e-06
0.000674806
-1.56254e-06
0.000675251
-1.61774e-06
0.00067569
-1.66958e-06
0.000676122
-1.71778e-06
0.000676543
-1.76223e-06
0.000676951
-1.80264e-06
0.000677345
-1.83902e-06
0.000677723
-1.87103e-06
0.00067808
-1.89882e-06
0.000678416
-1.92199e-06
0.000678728
-1.94087e-06
0.000679012
-1.95491e-06
0.000679266
-1.96473e-06
0.000679486
-1.96946e-06
0.000679671
-1.9702e-06
0.000679815
-1.96553e-06
0.000679915
-1.95727e-06
0.000679968
-1.9431e-06
0.000679969
-1.92599e-06
0.000679913
-1.90216e-06
0.000679796
-1.87637e-06
0.000679612
-1.84246e-06
0.000679357
-1.80815e-06
0.000679021
-1.76344e-06
0.000678604
-1.7207e-06
0.000678089
-1.66383e-06
0.00067748
-1.61276e-06
0.000676753
-1.54154e-06
0.000675918
-1.48232e-06
0.00067494
-1.3934e-06
0.000673838
-1.32617e-06
0.000672561
-1.21364e-06
0.000671142
-1.13795e-06
-9.93642e-07
0.000669505
0.000666682
-2.47697e-08
0.000666726
-7.98152e-08
0.0006668
-1.40204e-07
0.000666903
-2.05285e-07
0.000667035
-2.74652e-07
0.000667195
-3.47893e-07
0.000667383
-4.2459e-07
0.000667597
-5.04319e-07
0.000667836
-5.86641e-07
0.000668099
-6.7111e-07
0.000668386
-7.57274e-07
0.000668694
-8.44683e-07
0.000669024
-9.32896e-07
0.000669372
-1.02147e-06
0.000669738
-1.10996e-06
0.00067012
-1.19794e-06
0.000670517
-1.28496e-06
0.000670927
-1.37059e-06
0.000671349
-1.45444e-06
0.00067178
-1.53608e-06
0.00067222
-1.61513e-06
0.000672666
-1.6912e-06
0.000673117
-1.76393e-06
0.00067357
-1.83294e-06
0.000674025
-1.89791e-06
0.00067448
-1.95846e-06
0.000674931
-2.01432e-06
0.000675379
-2.06511e-06
0.00067582
-2.11064e-06
0.000676253
-2.15052e-06
0.000676675
-2.18465e-06
0.000677085
-2.21259e-06
0.00067748
-2.23438e-06
0.000677859
-2.24949e-06
0.000678218
-2.25815e-06
0.000678556
-2.25962e-06
0.000678869
-2.25445e-06
0.000679156
-2.24154e-06
0.000679413
-2.2219e-06
0.000679638
-2.19387e-06
0.000679827
-2.1592e-06
0.000679976
-2.11522e-06
0.000680084
-2.0649e-06
0.000680145
-2.00397e-06
0.000680156
-1.93732e-06
0.000680112
-1.85808e-06
0.00068001
-1.77429e-06
0.000679842
-1.67487e-06
0.000679607
-1.57293e-06
0.000679294
-1.45064e-06
0.000678903
-1.32936e-06
0.000678419
-1.18032e-06
0.000677845
-1.03825e-06
0.00067716
-8.56776e-07
0.00067637
-6.92133e-07
0.000675447
-4.70043e-07
0.000674403
-2.8266e-07
0.000673204
-1.41737e-08
0.000671866
1.99689e-07
5.44191e-07
0.000670328
0.000666682
-4.05974e-08
0.00066673
-1.27225e-07
0.000666809
-2.19052e-07
0.000666919
-3.15108e-07
0.000667059
-4.1483e-07
0.000667229
-5.17658e-07
0.000667427
-6.2304e-07
0.000667653
-7.30423e-07
0.000667906
-8.39261e-07
0.000668184
-9.49007e-07
0.000668485
-1.05912e-06
0.00066881
-1.16909e-06
0.000669155
-1.27839e-06
0.00066952
-1.38653e-06
0.000669903
-1.49302e-06
0.000670303
-1.59739e-06
0.000670717
-1.69918e-06
0.000671144
-1.79792e-06
0.000671583
-1.8932e-06
0.000672032
-1.98458e-06
0.000672488
-2.07166e-06
0.000672951
-2.15405e-06
0.000673419
-2.23136e-06
0.000673889
-2.3032e-06
0.00067436
-2.36923e-06
0.000674831
-2.42906e-06
0.000675299
-2.4824e-06
0.000675763
-2.52884e-06
0.00067622
-2.56817e-06
0.000676669
-2.59994e-06
0.000677109
-2.62404e-06
0.000677536
-2.63995e-06
0.00067795
-2.6477e-06
0.000678347
-2.64663e-06
0.000678725
-2.63698e-06
0.000679084
-2.61784e-06
0.000679419
-2.58977e-06
0.000679729
-2.55144e-06
0.000680011
-2.50395e-06
0.000680262
-2.44521e-06
0.00068048
-2.37722e-06
0.000680662
-2.29667e-06
0.000680804
-2.20698e-06
0.000680903
-2.10286e-06
0.000680956
-1.99007e-06
0.000680958
-1.86009e-06
0.000680906
-1.72253e-06
0.000680795
-1.56364e-06
0.000680621
-1.39932e-06
0.000680378
-1.20738e-06
0.000680062
-1.01396e-06
0.000679665
-7.83334e-07
0.000679185
-5.58315e-07
0.00067861
-2.81888e-07
0.000677944
-2.55259e-08
0.00067716
3.13988e-07
0.000676262
6.15026e-07
0.000675221
1.02706e-06
0.000674054
1.36696e-06
1.87322e-06
0.000672725
0.000666684
-5.7939e-08
0.000666736
-1.79144e-07
0.000666822
-3.05333e-07
0.000666942
-4.35166e-07
0.000667095
-5.67892e-07
0.00066728
-7.02778e-07
0.000667497
-8.39114e-07
0.000667742
-9.76208e-07
0.000668016
-1.11339e-06
0.000668317
-1.25002e-06
0.000668644
-1.38547e-06
0.000668994
-1.51916e-06
0.000669366
-1.65052e-06
0.000669758
-1.77901e-06
0.00067017
-1.90412e-06
0.000670598
-2.02536e-06
0.000671041
-2.14226e-06
0.000671497
-2.25436e-06
0.000671965
-2.36123e-06
0.000672443
-2.46246e-06
0.000672929
-2.55764e-06
0.000673421
-2.64639e-06
0.000673918
-2.72832e-06
0.000674418
-2.80306e-06
0.000674919
-2.87027e-06
0.00067542
-2.92955e-06
0.000675918
-2.98061e-06
0.000676412
-3.02304e-06
0.0006769
-3.05659e-06
0.000677381
-3.08084e-06
0.000677853
-3.09559e-06
0.000678313
-3.10037e-06
0.000678761
-3.09509e-06
0.000679193
-3.07913e-06
0.000679609
-3.05258e-06
0.000680006
-3.01459e-06
0.000680381
-2.96554e-06
0.000680734
-2.90415e-06
0.000681061
-2.83127e-06
0.000681361
-2.74493e-06
0.000681631
-2.64677e-06
0.000681868
-2.53366e-06
0.000682069
-2.40856e-06
0.000682233
-2.26642e-06
0.000682355
-2.11244e-06
0.000682433
-1.9384e-06
0.000682464
-1.7532e-06
0.000682444
-1.54352e-06
0.000682369
-1.32435e-06
0.000682236
-1.07415e-06
0.00068204
-8.17882e-07
0.000681777
-5.20897e-07
0.000681444
-2.24571e-07
0.000681034
1.27974e-07
0.000680532
4.76499e-07
0.000679941
9.04209e-07
0.000679254
1.30271e-06
0.000678464
1.8168e-06
0.00067756
2.2708e-06
2.8926e-06
0.000676541
0.000666686
-7.74317e-08
0.000666745
-2.375e-07
0.000666841
-4.02258e-07
0.000666976
-5.69911e-07
0.000667148
-7.39464e-07
0.000667355
-9.09969e-07
0.000667596
-1.08052e-06
0.00066787
-1.25027e-06
0.000668175
-1.4184e-06
0.00066851
-1.58418e-06
0.000668871
-1.7469e-06
0.000669258
-1.90594e-06
0.000669668
-2.06069e-06
0.0006701
-2.21061e-06
0.000670551
-2.3552e-06
0.000671019
-2.49397e-06
0.000671503
-2.62648e-06
0.000672001
-2.7523e-06
0.000672511
-2.87105e-06
0.000673031
-2.98232e-06
0.000673559
-3.08576e-06
0.000674094
-3.18102e-06
0.000674633
-3.26773e-06
0.000675176
-3.34557e-06
0.00067572
-3.41419e-06
0.000676263
-3.47325e-06
0.000676805
-3.52243e-06
0.000677344
-3.56139e-06
0.000677877
-3.58982e-06
0.000678403
-3.60738e-06
0.000678922
-3.61377e-06
0.00067943
-3.60862e-06
0.000679926
-3.59168e-06
0.00068041
-3.56252e-06
0.000680878
-3.52093e-06
0.00068133
-3.46636e-06
0.000681763
-3.39874e-06
0.000682176
-3.31725e-06
0.000682567
-3.22209e-06
0.000682934
-3.11199e-06
0.000683275
-2.98758e-06
0.000683588
-2.84684e-06
0.000683871
-2.69121e-06
0.000684122
-2.51736e-06
0.000684337
-2.32816e-06
0.000684517
-2.1181e-06
0.000684656
-1.89253e-06
0.000684755
-1.6423e-06
0.000684808
-1.37699e-06
0.000684815
-1.08155e-06
0.00068477
-7.72672e-07
0.000684675
-4.2615e-07
0.000684522
-7.1526e-08
0.000684309
3.41044e-07
0.000684026
7.59223e-07
0.000683685
1.24604e-06
0.000683261
1.72656e-06
0.000682775
2.30256e-06
0.000682192
2.85379e-06
3.53732e-06
0.000681547