/*--------------------------------*- C++ -*----------------------------------*\
| =========                 |                                                 |
| \\      /  F ield         | OpenFOAM: The Open Source CFD Toolbox           |
|  \\    /   O peration     | Version:  2312                                  |
|   \\  /    A nd           | Website:  www.openfoam.com                      |
|    \\/     M anipulation  |                                                 |
\*---------------------------------------------------------------------------*/
FoamFile
{
    version     2.0;
    format      ascii;
    arch        "LSB;label=32;scalar=64";
    class       surfaceScalarField;
    location    "141000";
    object      phi;
}
// * * * * * * * * * * * * * * * * * * * * * * * * * * * * * * * * * * * * * //

dimensions      [0 3 -1 0 0 0 0];

oriented        oriented;

internalField   nonuniform List<scalar> 
5250
(
-1.18421e-05
-2.27794e-06
-9.71818e-06
-2.12394e-06
-7.75559e-06
-1.9626e-06
-5.95895e-06
-1.79663e-06
-4.33018e-06
-1.62877e-06
-2.86851e-06
-1.46167e-06
-1.5709e-06
-1.29761e-06
-4.3249e-07
-1.13841e-06
5.53671e-07
-9.86161e-07
1.39432e-06
-8.40647e-07
2.09839e-06
-7.04076e-07
2.67598e-06
-5.77582e-07
3.13804e-06
-4.62065e-07
3.4963e-06
-3.58262e-07
3.7631e-06
-2.66796e-07
3.95113e-06
-1.88032e-07
4.07321e-06
-1.22082e-07
4.14218e-06
-6.89711e-08
4.17095e-06
-2.87607e-08
4.17156e-06
-6.10064e-10
4.16224e-06
9.3164e-09
4.15369e-06
8.54885e-09
4.15816e-06
-4.47235e-09
4.18999e-06
-3.18283e-08
4.25732e-06
-6.73315e-08
4.3717e-06
-1.1438e-07
4.54277e-06
-1.71064e-07
4.77829e-06
-2.3552e-07
5.08413e-06
-3.05843e-07
5.46417e-06
-3.80041e-07
5.92024e-06
-4.56073e-07
6.45214e-06
-5.31896e-07
7.05764e-06
-6.05496e-07
7.73254e-06
-6.74908e-07
8.47077e-06
-7.3823e-07
9.26444e-06
-7.93668e-07
1.0104e-05
-8.3959e-07
1.09787e-05
-8.74649e-07
1.18767e-05
-8.97985e-07
1.2786e-05
-9.09341e-07
1.36938e-05
-9.07834e-07
1.4585e-05
-8.91132e-07
1.54444e-05
-8.59432e-07
1.62581e-05
-8.13725e-07
1.70131e-05
-7.54992e-07
1.76976e-05
-6.8448e-07
1.83013e-05
-6.03742e-07
1.8816e-05
-5.14639e-07
1.92353e-05
-4.19275e-07
1.95552e-05
-3.19955e-07
1.97743e-05
-2.19075e-07
1.98933e-05
-1.18983e-07
1.99144e-05
-2.10875e-08
1.98504e-05
6.39321e-08
1.97091e-05
1.41294e-07
1.95008e-05
2.08293e-07
1.92375e-05
2.63305e-07
1.89332e-05
3.04327e-07
1.86069e-05
3.2631e-07
1.82783e-05
3.2859e-07
1.79677e-05
3.10568e-07
1.76962e-05
2.71517e-07
1.74853e-05
2.10956e-07
1.7357e-05
1.2824e-07
1.73356e-05
2.13828e-08
1.74315e-05
-9.5879e-08
1.76644e-05
-2.32926e-07
1.80527e-05
-3.88223e-07
1.86121e-05
-5.59457e-07
1.93568e-05
-7.44641e-07
2.02983e-05
-9.41507e-07
2.14461e-05
-1.14787e-06
2.28076e-05
-1.36142e-06
2.43873e-05
-1.57975e-06
2.61882e-05
-1.80085e-06
2.82102e-05
-2.02203e-06
3.04524e-05
-2.2422e-06
3.29104e-05
-2.45804e-06
3.55809e-05
-2.67046e-06
3.84554e-05
-2.87453e-06
4.15307e-05
-3.07531e-06
4.47945e-05
-3.26377e-06
4.82483e-05
-3.45384e-06
5.18743e-05
-3.62596e-06
5.56896e-05
-3.81534e-06
5.9661e-05
-3.97141e-06
6.38544e-05
-4.19339e-06
6.81694e-05
-4.31502e-06
-4.64812e-06
6.41624e-05
-4.53217e-06
6.62827e-05
-4.24422e-06
6.82629e-05
-3.94286e-06
7.00982e-05
-3.63188e-06
7.17881e-05
-3.31865e-06
7.33376e-05
-3.01121e-06
7.4752e-05
-2.71197e-06
7.60368e-05
-2.42327e-06
7.71985e-05
-2.1478e-06
7.82457e-05
-1.8879e-06
7.91879e-05
-1.64623e-06
8.00351e-05
-1.42487e-06
8.07985e-05
-1.22545e-06
8.14895e-05
-1.04923e-06
8.21198e-05
-8.9707e-07
8.27014e-05
-7.69655e-07
8.3247e-05
-6.67718e-07
8.37701e-05
-5.92057e-07
8.42846e-05
-5.43256e-07
8.48055e-05
-5.21486e-07
8.53418e-05
-5.26988e-07
8.59094e-05
-5.59023e-07
8.65213e-05
-6.16391e-07
8.71872e-05
-6.97777e-07
8.79216e-05
-8.01731e-07
8.87333e-05
-9.26049e-07
8.96301e-05
-1.06781e-06
9.06182e-05
-1.22366e-06
9.17022e-05
-1.38987e-06
9.28847e-05
-1.56248e-06
9.4166e-05
-1.73741e-06
9.55447e-05
-1.91056e-06
9.70171e-05
-2.07791e-06
9.85777e-05
-2.23551e-06
0.000100219
-2.37956e-06
0.000101932
-2.50649e-06
0.000103705
-2.61318e-06
0.000105528
-2.69721e-06
0.000107387
-2.75655e-06
0.000109267
-2.7897e-06
0.000111155
-2.79557e-06
0.000113037
-2.77356e-06
0.000114901
-2.72381e-06
0.000116735
-2.64734e-06
0.000118526
-2.54595e-06
0.000120264
-2.42222e-06
0.000121939
-2.27947e-06
0.000123547
-2.12166e-06
0.00012508
-1.95326e-06
0.00012654
-1.77917e-06
0.000127925
-1.60444e-06
0.00012924
-1.43436e-06
0.000130493
-1.27406e-06
0.000131686
-1.12912e-06
0.000132832
-1.00388e-06
0.000133943
-9.02761e-07
0.000135036
-8.30466e-07
0.000136133
-7.91815e-07
0.000137249
-7.89578e-07
0.000138403
-8.26184e-07
0.000139617
-9.02976e-07
0.00014091
-1.0212e-06
0.000142301
-1.18073e-06
0.000143811
-1.38156e-06
0.000145455
-1.62211e-06
0.000147259
-1.90061e-06
0.00014924
-2.21401e-06
0.000151412
-2.56036e-06
0.000153788
-2.93522e-06
0.00015638
-3.33598e-06
0.000159195
-3.75705e-06
0.000162243
-4.19565e-06
0.000165527
-4.64535e-06
0.000169051
-5.10366e-06
0.000172814
-5.56383e-06
0.000176815
-6.02383e-06
0.000181051
-6.47748e-06
0.000185515
-6.92275e-06
0.000190201
-7.356e-06
0.0001951
-7.7732e-06
0.000200202
-8.17768e-06
0.000205496
-8.55749e-06
0.000210975
-8.93331e-06
0.000216619
-9.27008e-06
0.000222435
-9.63099e-06
0.000228384
-9.92053e-06
0.000234497
-1.03067e-05
0.00024072
-1.05373e-05
-1.10828e-05
0.000236627
-5.18524e-06
0.000237241
-4.85801e-06
0.000237806
-4.50853e-06
0.000238324
-4.1491e-06
0.000238794
-3.78871e-06
0.000239217
-3.43476e-06
0.000239599
-3.09325e-06
0.000239944
-2.76909e-06
0.000240263
-2.46651e-06
0.000240564
-2.18916e-06
0.000240858
-1.9399e-06
0.000241154
-1.72058e-06
0.00024146
-1.53212e-06
0.000241786
-1.37485e-06
0.000242138
-1.24889e-06
0.000242522
-1.15388e-06
0.000242943
-1.08902e-06
0.000243406
-1.05489e-06
0.000243916
-1.05257e-06
0.000244475
-1.0814e-06
0.000245089
-1.14006e-06
0.000245756
-1.22655e-06
0.000246475
-1.33566e-06
0.000247254
-1.47608e-06
0.000248099
-1.647e-06
0.000249017
-1.84462e-06
0.000250015
-2.06543e-06
0.000251096
-2.30452e-06
0.000252262
-2.55641e-06
0.000253516
-2.81568e-06
0.000254855
-3.07715e-06
0.000256281
-3.33583e-06
0.00025779
-3.58692e-06
0.00025938
-3.82579e-06
0.000261048
-4.04789e-06
0.000262791
-4.2489e-06
0.000264602
-4.42487e-06
0.000266478
-4.57247e-06
0.00026841
-4.68896e-06
0.000270393
-4.77215e-06
0.000272417
-4.82029e-06
0.000274476
-4.83228e-06
0.00027656
-4.80779e-06
0.00027866
-4.7477e-06
0.000280768
-4.65387e-06
0.000282875
-4.52946e-06
0.000284974
-4.37844e-06
0.000287059
-4.20593e-06
0.000289123
-4.01749e-06
0.000291163
-3.81958e-06
0.000293178
-3.61864e-06
0.000295165
-3.42181e-06
0.000297127
-3.23571e-06
0.000299065
-3.06757e-06
0.000300985
-2.92341e-06
0.000302892
-2.80993e-06
0.000304794
-2.73233e-06
0.000306699
-2.69683e-06
0.000308616
-2.70718e-06
0.000310558
-2.76827e-06
0.000312537
-2.88144e-06
0.000314565
-3.04986e-06
0.000316657
-3.2721e-06
0.000318825
-3.54985e-06
0.000321082
-3.879e-06
0.000323442
-4.26034e-06
0.000325915
-4.68742e-06
0.000328516
-5.16099e-06
0.000331252
-5.67171e-06
0.000334137
-6.22021e-06
0.000337174
-6.79433e-06
0.000340374
-7.39544e-06
0.000343737
-8.00914e-06
0.000347272
-8.63808e-06
0.000350975
-9.26659e-06
0.000354849
-9.89833e-06
0.00035889
-1.05184e-05
0.000363097
-1.11295e-05
0.000367463
-1.17221e-05
0.000371982
-1.22924e-05
0.00037665
-1.28457e-05
0.000381451
-1.33582e-05
0.000386389
-1.3871e-05
0.000391429
-1.43109e-05
0.000396597
-1.47987e-05
0.000401825
-1.51481e-05
0.000407173
-1.56553e-05
0.000412518
-1.58816e-05
-1.65153e-05
0.000485745
-4.80753e-06
0.000485307
-4.42061e-06
0.000484804
-4.00494e-06
0.00048423
-3.57539e-06
0.000483586
-3.14426e-06
0.000482873
-2.72259e-06
0.0004821
-2.32015e-06
0.000481276
-1.94517e-06
0.000480414
-1.60411e-06
0.000479526
-1.30161e-06
0.000478627
-1.04078e-06
0.00047773
-8.2357e-07
0.000476849
-6.5081e-07
0.000475996
-5.22099e-07
0.000475184
-4.36639e-07
0.000474423
-3.92667e-07
0.000473721
-3.87225e-07
0.000473085
-4.18715e-07
0.000472519
-4.86862e-07
0.000472028
-5.89952e-07
0.000471614
-7.26034e-07
0.000471282
-8.94863e-07
0.000471042
-1.09575e-06
0.000470893
-1.32728e-06
0.000470837
-1.59046e-06
0.000470877
-1.88543e-06
0.000471013
-2.20085e-06
0.000471238
-2.52959e-06
0.000471548
-2.86689e-06
0.00047194
-3.20718e-06
0.000472407
-3.54468e-06
0.000472945
-3.87377e-06
0.000473548
-4.18911e-06
0.000474208
-4.48585e-06
0.000474919
-4.7594e-06
0.000475676
-5.00576e-06
0.000476473
-5.22144e-06
0.000477304
-5.40394e-06
0.000478166
-5.55117e-06
0.000479056
-5.66175e-06
0.00047997
-5.7344e-06
0.000480906
-5.76871e-06
0.000481863
-5.76466e-06
0.000482839
-5.7238e-06
0.000483834
-5.64838e-06
0.000484847
-5.54264e-06
0.00048588
-5.41109e-06
0.000486934
-5.25997e-06
0.000488011
-5.09484e-06
0.000489114
-4.92286e-06
0.000490246
-4.74978e-06
0.000491407
-4.58332e-06
0.0004926
-4.42913e-06
0.000493828
-4.2953e-06
0.000495092
-4.18688e-06
0.000496394
-4.11202e-06
0.000497736
-4.07447e-06
0.000499121
-4.08208e-06
0.000500551
-4.13666e-06
0.000502028
-4.24539e-06
0.000503554
-4.40733e-06
0.000505133
-4.62888e-06
0.000506767
-4.90593e-06
0.000508461
-5.2444e-06
0.000510219
-5.63691e-06
0.000512048
-6.08903e-06
0.00051395
-6.58961e-06
0.000515933
-7.14386e-06
0.000517998
-7.73674e-06
0.000520151
-8.37356e-06
0.000522393
-9.03656e-06
0.000524729
-9.73158e-06
0.00052716
-1.04394e-05
0.000529687
-1.11652e-05
0.000532311
-1.18911e-05
0.000535032
-1.26191e-05
0.000537851
-1.33375e-05
0.000540762
-1.404e-05
0.000543769
-1.47296e-05
0.000546858
-1.53811e-05
0.00055004
-1.60281e-05
0.000553288
-1.66061e-05
0.000556624
-1.72073e-05
0.000560004
-1.76907e-05
0.000563462
-1.82566e-05
0.000566935
-1.86213e-05
0.00057046
-1.91803e-05
0.000573969
-1.939e-05
-2.00007e-05
0.00068684
-3.31555e-06
0.000685613
-3.19325e-06
0.000684621
-3.01308e-06
0.000683836
-2.79028e-06
0.000683232
-2.5409e-06
0.000682792
-2.28174e-06
0.000682496
-2.02483e-06
0.000682324
-1.77274e-06
0.000682253
-1.53364e-06
0.000682269
-1.31751e-06
0.00068236
-1.13127e-06
0.000682516
-9.79652e-07
0.000682731
-8.65905e-07
0.000683001
-7.91905e-07
0.000683322
-7.58399e-07
0.000683695
-7.64904e-07
0.000684117
-8.09809e-07
0.00068459
-8.91272e-07
0.00068511
-1.00719e-06
0.000685675
-1.15509e-06
0.000686282
-1.33281e-06
0.000686926
-1.5385e-06
0.0006876
-1.77007e-06
0.000688298
-2.02547e-06
0.000689009
-2.30158e-06
0.000689718
-2.59416e-06
0.000690416
-2.89847e-06
0.000691096
-3.20992e-06
0.000691752
-3.52333e-06
0.000692378
-3.83322e-06
0.000692968
-4.13393e-06
0.000693514
-4.42022e-06
0.000694012
-4.68693e-06
0.000694456
-4.92961e-06
0.00069484
-5.144e-06
0.000695161
-5.32677e-06
0.000695415
-5.47464e-06
0.000695596
-5.58554e-06
0.000695703
-5.6578e-06
0.000695733
-5.6921e-06
0.000695688
-5.6894e-06
0.000695571
-5.65122e-06
0.000695385
-5.57851e-06
0.000695135
-5.47461e-06
0.000694829
-5.34231e-06
0.000694474
-5.18728e-06
0.000694077
-5.01391e-06
0.000693646
-4.82959e-06
0.000693191
-4.63933e-06
0.00069272
-4.4517e-06
0.000692242
-4.27178e-06
0.000691767
-4.10861e-06
0.000691304
-3.96582e-06
0.00069086
-3.85173e-06
0.000690442
-3.76897e-06
0.000690057
-3.727e-06
0.00068971
-3.72689e-06
0.000689405
-3.77787e-06
0.000689147
-3.87858e-06
0.00068894
-4.03778e-06
0.000688784
-4.2513e-06
0.000688682
-4.52744e-06
0.000688635
-4.85905e-06
0.000688645
-5.25374e-06
0.000688709
-5.70142e-06
0.000688829
-6.20878e-06
0.000689003
-6.76334e-06
0.000689229
-7.37033e-06
0.000689508
-8.01592e-06
0.000689838
-8.70292e-06
0.000690219
-9.41838e-06
0.000690649
-1.01609e-05
0.000691131
-1.09218e-05
0.000691658
-1.16921e-05
0.00069224
-1.24729e-05
0.000692863
-1.32422e-05
0.000693544
-1.40188e-05
0.000694262
-1.47583e-05
0.000695043
-1.55103e-05
0.000695855
-1.61932e-05
0.000696734
-1.69068e-05
0.000697636
-1.75085e-05
0.000698608
-1.81785e-05
0.000699592
-1.86756e-05
0.000700643
-1.93073e-05
0.000701696
-1.96738e-05
0.000702799
-2.02831e-05
0.00070389
-2.04812e-05
-2.10871e-05
0.000811477
2.97683e-07
0.000808268
1.50437e-08
0.000805477
-2.21543e-07
0.000803079
-3.92146e-07
0.000801057
-5.18874e-07
0.000799389
-6.14215e-07
0.000798051
-6.86947e-07
0.000797036
-7.57705e-07
0.000796337
-8.33831e-07
0.00079594
-9.20645e-07
0.000795831
-1.02231e-06
0.000795994
-1.14297e-06
0.000796413
-1.28524e-06
0.000797072
-1.45015e-06
0.000797951
-1.63759e-06
0.000799032
-1.84637e-06
0.000800297
-2.07459e-06
0.000801726
-2.32036e-06
0.0008033
-2.58156e-06
0.000805001
-2.856e-06
0.00080681
-3.14148e-06
0.000808708
-3.43605e-06
0.000810676
-3.73798e-06
0.000812696
-4.0461e-06
0.000814753
-4.35794e-06
0.000816827
-4.66902e-06
0.000818904
-4.97543e-06
0.000820968
-5.27356e-06
0.000823004
-5.55944e-06
0.000825
-5.82926e-06
0.000826945
-6.07859e-06
0.000828828
-6.30346e-06
0.000830641
-6.4995e-06
0.000832374
-6.66326e-06
0.000834021
-6.79092e-06
0.000835574
-6.88004e-06
0.000837028
-6.92776e-06
0.000838375
-6.93318e-06
0.000839612
-6.89492e-06
0.000840734
-6.81391e-06
0.000841735
-6.68999e-06
0.000842609
-6.52571e-06
0.000843353
-6.32229e-06
0.000843963
-6.08458e-06
0.000844436
-5.81541e-06
0.000844771
-5.52194e-06
0.000844965
-5.20828e-06
0.000845019
-4.88348e-06
0.000844932
-4.55225e-06
0.000844705
-4.225e-06
0.00084434
-3.90623e-06
0.000843838
-3.60713e-06
0.000843204
-3.33124e-06
0.000842442
-3.09021e-06
0.000841559
-2.88624e-06
0.000840563
-2.73095e-06
0.000839461
-2.62442e-06
0.000838261
-2.5777e-06
0.000836971
-2.58845e-06
0.000835599
-2.6666e-06
0.000834155
-2.80729e-06
0.000832647
-3.01899e-06
0.000831082
-3.29455e-06
0.000829469
-3.63994e-06
0.000827814
-4.04704e-06
0.000826124
-4.51839e-06
0.000824407
-5.04637e-06
0.000822665
-5.62861e-06
0.00082091
-6.26083e-06
0.000819139
-6.93233e-06
0.000817368
-7.6467e-06
0.000815588
-8.38129e-06
0.00081382
-9.15372e-06
0.000812051
-9.92255e-06
0.000810306
-1.07282e-05
0.000808565
-1.1501e-05
0.000806863
-1.23167e-05
0.000805168
-1.30635e-05
0.000803528
-1.38706e-05
0.000801898
-1.45633e-05
0.000800341
-1.53491e-05
0.000798793
-1.59612e-05
0.000797336
-1.67211e-05
0.000795887
-1.72268e-05
0.000794545
-1.79656e-05
0.000793209
-1.83376e-05
0.000791996
-1.90705e-05
0.000790789
-1.92741e-05
-2.00115e-05
0.000861689
4.91593e-06
0.000857529
4.17524e-06
0.000853806
3.50127e-06
0.000850531
2.88289e-06
0.000847704
2.30755e-06
0.000845327
1.76316e-06
0.000843398
1.24168e-06
0.0008419
7.40762e-07
0.000840812
2.54313e-07
0.000840131
-2.39715e-07
0.000839842
-7.3337e-07
0.000839929
-1.22972e-06
0.000840372
-1.72892e-06
0.000841152
-2.23033e-06
0.000842248
-2.73297e-06
0.000843636
-3.23477e-06
0.000845294
-3.73272e-06
0.000847198
-4.22376e-06
0.000849321
-4.70486e-06
0.000851638
-5.17344e-06
0.000854124
-5.62738e-06
0.000856754
-6.06531e-06
0.000859502
-6.48602e-06
0.000862344
-6.88852e-06
0.000865257
-7.27123e-06
0.000868221
-7.63262e-06
0.000871216
-7.97088e-06
0.000874227
-8.28451e-06
0.000877239
-8.57107e-06
0.000880238
-8.82824e-06
0.000883212
-9.05275e-06
0.000886151
-9.24199e-06
0.000889044
-9.39244e-06
0.000891882
-9.50169e-06
0.000894657
-9.56634e-06
0.000897362
-9.5847e-06
0.000899988
-9.5539e-06
0.000902528
-9.47331e-06
0.000904974
-9.34084e-06
0.000907318
-9.15756e-06
0.000909551
-8.92274e-06
0.000911665
-8.63951e-06
0.000913651
-8.30846e-06
0.000915501
-7.93498e-06
0.000917207
-7.52104e-06
0.000918759
-7.07448e-06
0.00092015
-6.5985e-06
0.000921369
-6.10319e-06
0.000922409
-5.59246e-06
0.000923263
-5.07834e-06
0.000923921
-4.56483e-06
0.00092438
-4.06529e-06
0.000924631
-3.58304e-06
0.000924673
-3.13211e-06
0.000924501
-2.71436e-06
0.000924114
-2.344e-06
0.000923511
-2.0212e-06
0.000922693
-1.75946e-06
0.000921661
-1.55684e-06
0.00092042
-1.4253e-06
0.000918974
-1.36117e-06
0.00091733
-1.37488e-06
0.000915497
-1.4613e-06
0.000913482
-1.62537e-06
0.000911298
-1.86309e-06
0.000908953
-2.1732e-06
0.000906462
-2.55559e-06
0.000903833
-2.99911e-06
0.000901083
-3.51162e-06
0.000898219
-4.06753e-06
0.000895263
-4.6908e-06
0.000892215
-5.33385e-06
0.000889107
-6.04546e-06
0.000885931
-6.74619e-06
0.000882726
-7.52378e-06
0.000879477
-8.25194e-06
0.000876236
-9.07518e-06
0.000872971
-9.79916e-06
0.000869752
-1.0651e-05
0.000866528
-1.13395e-05
0.000863388
-1.22088e-05
0.000860257
-1.28305e-05
0.000857249
-1.37137e-05
0.00085426
-1.4237e-05
0.000851434
-1.514e-05
0.000848628
-1.55314e-05
0.00084603
-1.64727e-05
0.000843453
-1.66973e-05
-1.77233e-05
0.000876277
9.43337e-06
0.000872247
8.2057e-06
0.000868711
7.03658e-06
0.000865677
5.91684e-06
0.000863148
4.83736e-06
0.000861121
3.78995e-06
0.000859595
2.76726e-06
0.000858573
1.76278e-06
0.000858055
7.72469e-07
0.000858
-1.84486e-07
0.00085837
-1.10353e-06
0.000859151
-2.01113e-06
0.000860321
-2.89852e-06
0.000861853
-3.76212e-06
0.000863718
-4.59839e-06
0.000865887
-5.40343e-06
0.000868327
-6.17288e-06
0.000871006
-6.90265e-06
0.00087389
-7.58931e-06
0.000876948
-8.23084e-06
0.000880147
-8.82646e-06
0.000883458
-9.37681e-06
0.000886856
-9.88313e-06
0.000890315
-1.03475e-05
0.000893815
-1.07721e-05
0.000897341
-1.11586e-05
0.000900878
-1.15078e-05
0.000904414
-1.18203e-05
0.000907938
-1.20953e-05
0.000911442
-1.23318e-05
0.000914917
-1.25278e-05
0.000918357
-1.26818e-05
0.000921755
-1.2791e-05
0.000925107
-1.28536e-05
0.000928407
-1.28663e-05
0.00093165
-1.28277e-05
0.00093483
-1.27343e-05
0.000937943
-1.25853e-05
0.00094098
-1.23779e-05
0.000943935
-1.21127e-05
0.0009468
-1.17878e-05
0.000949566
-1.14057e-05
0.000952223
-1.09656e-05
0.00095476
-1.04724e-05
0.000957166
-9.92691e-06
0.000959429
-9.33677e-06
0.000961534
-8.70387e-06
0.00096347
-8.03884e-06
0.000965222
-7.34444e-06
0.000966777
-6.63386e-06
0.000968122
-5.9101e-06
0.000969246
-5.18855e-06
0.000970134
-4.47181e-06
0.000970779
-3.77684e-06
0.00097117
-3.10524e-06
0.000971301
-2.47455e-06
0.000971164
-1.88473e-06
0.000970758
-1.35312e-06
0.000970079
-8.77741e-07
0.000969128
-4.74326e-07
0.000967904
-1.37738e-07
0.000966421
1.08024e-07
0.000964681
2.79284e-07
0.00096269
3.6589e-07
0.000960457
3.68923e-07
0.000957995
2.8881e-07
0.000955317
1.22894e-07
0.00095244
-1.22574e-07
0.000949384
-4.54935e-07
0.000946158
-8.4143e-07
0.000942788
-1.32112e-06
0.000939285
-1.83095e-06
0.000935682
-2.4423e-06
0.000931983
-3.04754e-06
0.00092823
-3.77017e-06
0.000924416
-4.43844e-06
0.000920594
-5.25343e-06
0.000916746
-5.95031e-06
0.000912938
-6.84366e-06
0.000909135
-7.53596e-06
0.000905426
-8.50044e-06
0.000901747
-9.15123e-06
0.000898216
-1.01827e-05
0.000894729
-1.07494e-05
0.000891442
-1.1853e-05
0.0008882
-1.22898e-05
0.000885209
-1.34818e-05
0.000882249
-1.37374e-05
-1.50644e-05
0.000901402
1.35692e-05
0.00089785
1.17571e-05
0.000894884
1.00027e-05
0.000892501
8.30042e-06
0.000890687
6.65049e-06
0.000889418
5.05949e-06
0.000888657
3.52847e-06
0.000888363
2.05599e-06
0.000888495
6.41198e-07
0.000889076
-7.65511e-07
0.000890087
-2.11434e-06
0.000891481
-3.40509e-06
0.000893214
-4.6324e-06
0.000895249
-5.79714e-06
0.00089755
-6.89873e-06
0.000900078
-7.93218e-06
0.000902797
-8.89173e-06
0.000905668
-9.77292e-06
0.000908652
-1.05732e-05
0.000911713
-1.12928e-05
0.000914821
-1.19337e-05
0.000917945
-1.25011e-05
0.000921064
-1.30018e-05
0.00092416
-1.3444e-05
0.000927223
-1.38348e-05
0.000930245
-1.41805e-05
0.000933222
-1.44852e-05
0.000936155
-1.47529e-05
0.000939045
-1.49855e-05
0.000941897
-1.51841e-05
0.000944718
-1.53482e-05
0.000947513
-1.54771e-05
0.000950291
-1.55686e-05
0.000953058
-1.56205e-05
0.00095582
-1.56289e-05
0.000958584
-1.55912e-05
0.000961352
-1.55027e-05
0.000964128
-1.53609e-05
0.000966911
-1.5161e-05
0.0009697
-1.49015e-05
0.00097249
-1.45781e-05
0.000975275
-1.41908e-05
0.000978046
-1.37363e-05
0.000980791
-1.32171e-05
0.000983495
-1.26313e-05
0.000986143
-1.19845e-05
0.000988715
-1.12764e-05
0.000991192
-1.05159e-05
0.000993552
-9.7043e-06
0.000995773
-8.85423e-06
0.00099783
-7.96784e-06
0.000999703
-7.06125e-06
0.00100137
-6.13687e-06
0.00100281
-5.21376e-06
0.00100399
-4.2935e-06
0.00100492
-3.39744e-06
0.00100556
-2.52565e-06
0.0010059
-1.70025e-06
0.00100595
-9.20619e-07
0.00100568
-2.09432e-07
0.00100508
4.62424e-07
0.00100415
1.03541e-06
0.0010029
1.52931e-06
0.00100134
1.92568e-06
0.000999482
2.23151e-06
0.000997331
2.43962e-06
0.000994904
2.55017e-06
0.000992214
2.56747e-06
0.00098928
2.47875e-06
0.000986128
2.31121e-06
0.000982778
2.02838e-06
0.000979256
1.69178e-06
0.000975586
1.22729e-06
0.000971792
7.46108e-07
0.000967907
1.15501e-07
0.000963956
-4.87458e-07
0.000959976
-1.27399e-06
0.000955974
-1.94814e-06
0.000952001
-2.87078e-06
0.000948045
-3.57952e-06
0.000944172
-4.62768e-06
0.000940345
-5.32396e-06
0.000936653
-6.49065e-06
0.000933025
-7.12139e-06
0.000929582
-8.41041e-06
0.000926204
-8.91211e-06
0.000923054
-1.03314e-05
0.000919943
-1.06264e-05
-1.218e-05
0.000946698
1.79128e-05
0.00094295
1.55043e-05
0.000939783
1.31698e-05
0.000937178
1.09062e-05
0.000935113
8.71509e-06
0.000933572
6.60042e-06
0.000932534
4.56663e-06
0.000931972
2.61777e-06
0.000931862
7.51507e-07
0.000932046
-9.49631e-07
0.000932512
-2.58012e-06
0.000933227
-4.12057e-06
0.000934129
-5.53459e-06
0.00093516
-6.82804e-06
0.000936269
-8.00747e-06
0.000937411
-9.07442e-06
0.000938549
-1.00293e-05
0.000939649
-1.08729e-05
0.000940682
-1.16069e-05
0.000941626
-1.22363e-05
0.000942461
-1.27691e-05
0.000943177
-1.32172e-05
0.000943771
-1.35958e-05
0.000944248
-1.39208e-05
0.000944621
-1.42076e-05
0.00094491
-1.44694e-05
0.000945141
-1.47162e-05
0.000945342
-1.49544e-05
0.000945543
-1.51859e-05
0.00094577
-1.54112e-05
0.000946051
-1.56296e-05
0.000946415
-1.58404e-05
0.000946887
-1.6041e-05
0.000947495
-1.62281e-05
0.000948262
-1.63965e-05
0.000949212
-1.65408e-05
0.000950363
-1.66536e-05
0.00095173
-1.67284e-05
0.000953326
-1.67566e-05
0.000955156
-1.67314e-05
0.000957222
-1.66443e-05
0.000959521
-1.649e-05
0.000962045
-1.62607e-05
0.000964781
-1.59531e-05
0.000967711
-1.55613e-05
0.000970812
-1.50852e-05
0.000974057
-1.45216e-05
0.000977416
-1.38745e-05
0.000980855
-1.31433e-05
0.000984337
-1.23366e-05
0.000987826
-1.14563e-05
0.00099128
-1.05152e-05
0.00099466
-9.51687e-06
0.000997924
-8.47864e-06
0.00100104
-7.40431e-06
0.00100395
-6.31544e-06
0.00100664
-5.21505e-06
0.00100907
-4.12807e-06
0.00101121
-3.05587e-06
0.00101302
-2.02616e-06
0.00101452
-1.03733e-06
0.00101568
-1.20289e-07
0.00101643
7.78916e-07
0.00101679
1.56545e-06
0.00101675
2.26659e-06
0.00101633
2.85887e-06
0.00101553
3.35417e-06
0.00101436
3.73371e-06
0.00101284
3.99968e-06
0.001011
4.15707e-06
0.00100883
4.19092e-06
0.00100639
4.1355e-06
0.00100368
3.9393e-06
0.00100074
3.68469e-06
0.000997591
3.26512e-06
0.000994264
2.83899e-06
0.00099078
2.21019e-06
0.00098718
1.65191e-06
0.000983478
8.31236e-07
0.000979708
1.90445e-07
0.000975927
-8.46511e-07
0.000972139
-1.53572e-06
0.000968383
-2.73461e-06
0.000964648
-3.38704e-06
0.000960995
-4.75697e-06
0.000957375
-5.29267e-06
0.000953876
-6.83244e-06
0.000950398
-7.14787e-06
-8.8329e-06
0.000987155
2.22856e-05
0.000983209
1.94508e-05
0.000979657
1.67221e-05
0.000976444
1.4119e-05
0.000973502
1.16573e-05
0.000970754
9.34776e-06
0.000968126
7.19484e-06
0.000965547
5.19678e-06
0.000962953
3.34582e-06
0.000960369
1.63388e-06
0.0009577
8.96924e-08
0.000955099
-1.52015e-06
0.000952469
-2.90487e-06
0.000949756
-4.11518e-06
0.000946966
-5.21719e-06
0.000944093
-6.20085e-06
0.000941106
-7.0429e-06
0.000937965
-7.73146e-06
0.000934628
-8.27058e-06
0.000931068
-8.67586e-06
0.000927253
-8.95433e-06
0.000923162
-9.12581e-06
0.000918803
-9.23704e-06
0.000914214
-9.33135e-06
0.000909451
-9.44484e-06
0.000904587
-9.60528e-06
0.000899702
-9.83152e-06
0.000894886
-1.01384e-05
0.000890227
-1.05266e-05
0.000885808
-1.09929e-05
0.000881707
-1.15286e-05
0.000877993
-1.21262e-05
0.000874727
-1.2775e-05
0.000871961
-1.34619e-05
0.000869736
-1.41719e-05
0.000868085
-1.48899e-05
0.000867031
-1.55996e-05
0.000866588
-1.62851e-05
0.000866762
-1.693e-05
0.00086755
-1.75193e-05
0.000868943
-1.80376e-05
0.000870925
-1.84716e-05
0.000873472
-1.88082e-05
0.000876556
-1.9037e-05
0.000880143
-1.91484e-05
0.000884193
-1.91356e-05
0.000888665
-1.89933e-05
0.00089351
-1.87195e-05
0.00089868
-1.83133e-05
0.000904121
-1.77779e-05
0.000909782
-1.71172e-05
0.000915606
-1.63393e-05
0.000921541
-1.54518e-05
0.000927529
-1.44666e-05
0.000933518
-1.33932e-05
0.00093945
-1.22472e-05
0.000945274
-1.10396e-05
0.000950936
-9.78972e-06
0.000956388
-8.50798e-06
0.00096158
-7.2175e-06
0.000966469
-5.92634e-06
0.00097101
-4.66177e-06
0.000975214
-3.42492e-06
0.000979029
-2.24936e-06
0.000982427
-1.13207e-06
0.000985399
-1.12868e-07
0.000987875
8.78324e-07
0.000989878
1.73024e-06
0.000991398
2.47993e-06
0.000992452
3.10274e-06
0.000993034
3.6089e-06
0.000993179
3.99072e-06
0.00099288
4.23904e-06
0.000992188
4.37623e-06
0.000991093
4.35992e-06
0.000989662
4.27026e-06
0.000987875
3.99714e-06
0.000985814
3.71315e-06
0.000983452
3.19271e-06
0.000980885
2.75816e-06
0.000978035
2.00265e-06
0.000975022
1.47792e-06
0.000971788
4.98774e-07
0.000968451
-4.95327e-08
0.000964953
-1.25935e-06
0.000961398
-1.73712e-06
0.000957721
-3.15624e-06
0.000954027
-3.45363e-06
-5.0511e-06
0.000988322
2.76077e-05
0.000982887
2.48851e-05
0.000977395
2.22144e-05
0.000971899
1.96149e-05
0.000966446
1.71102e-05
0.000961065
1.47294e-05
0.000955753
1.25065e-05
0.000950475
1.04748e-05
0.000945159
8.66196e-06
0.000939706
7.08676e-06
0.000934044
5.75159e-06
0.000927884
4.64001e-06
0.00092116
3.81913e-06
0.000913776
3.26883e-06
0.000905626
2.93261e-06
0.000896663
2.76267e-06
0.000886904
2.71534e-06
0.000876422
2.75091e-06
0.000865321
2.83053e-06
0.000853732
2.91255e-06
0.000841825
2.95274e-06
0.000829792
2.90767e-06
0.000817817
2.73793e-06
0.000806074
2.41184e-06
0.000794721
1.90816e-06
0.000783898
1.21718e-06
0.000773724
3.42884e-07
0.000764346
-7.60231e-07
0.000755819
-1.99939e-06
0.000748197
-3.3711e-06
0.000741513
-4.84483e-06
0.00073579
-6.40287e-06
0.000731035
-8.02053e-06
0.000727245
-9.67152e-06
0.000724404
-1.13308e-05
0.000722489
-1.29752e-05
0.000721472
-1.45829e-05
0.000721321
-1.6134e-05
0.000722001
-1.76098e-05
0.000723475
-1.89934e-05
0.000725706
-2.0269e-05
0.000728657
-2.14222e-05
0.000732289
-2.24403e-05
0.000736564
-2.33116e-05
0.000741442
-2.40267e-05
0.000746884
-2.45771e-05
0.000752848
-2.49573e-05
0.000759291
-2.51627e-05
0.000766169
-2.5192e-05
0.000773436
-2.50448e-05
0.000781044
-2.4725e-05
0.000788941
-2.42358e-05
0.000797075
-2.35866e-05
0.000805392
-2.27837e-05
0.00081384
-2.18412e-05
0.000822361
-2.0768e-05
0.000830904
-1.95829e-05
0.00083941
-1.82953e-05
0.000847829
-1.69272e-05
0.000856101
-1.5489e-05
0.00086418
-1.40053e-05
0.000872005
-1.24865e-05
0.000879538
-1.09582e-05
0.000886721
-9.43222e-06
0.000893522
-7.93357e-06
0.000899883
-6.47393e-06
0.000905832
-5.07011e-06
0.000911302
-3.74049e-06
0.00091628
-2.49779e-06
0.000920742
-1.35895e-06
0.000924681
-3.30534e-07
0.000928057
6.15449e-07
0.000930866
1.42929e-06
0.000933141
2.10119e-06
0.000934851
2.65042e-06
0.00093606
3.06155e-06
0.000936708
3.34875e-06
0.000936902
3.51861e-06
0.000936549
3.54627e-06
0.0009358
3.50676e-06
0.00093452
3.28281e-06
0.000932912
3.08566e-06
0.000930794
2.61728e-06
0.00092841
2.33454e-06
0.000925527
1.62316e-06
0.000922454
1.33632e-06
0.000918921
3.76176e-07
0.000915287
1.80989e-07
-1.02336e-06
0.000934104
3.12616e-05
0.000930244
2.87451e-05
0.000926074
2.63851e-05
0.000921435
2.42534e-05
0.000916127
2.24179e-05
0.000909923
2.09336e-05
0.000902594
1.98354e-05
0.000893938
1.91313e-05
0.000883797
1.88022e-05
0.000872073
1.88109e-05
0.000858711
1.9114e-05
0.000843681
1.96694e-05
0.000827111
2.039e-05
0.000809286
2.10933e-05
0.000790544
2.16742e-05
0.00077124
2.20671e-05
0.000751745
2.22103e-05
0.000732436
2.20598e-05
0.000713674
2.15931e-05
0.000695779
2.08073e-05
0.000679015
1.97162e-05
0.000663579
1.83443e-05
0.000649595
1.67221e-05
0.000637124
1.48824e-05
0.000626174
1.28581e-05
0.000616711
1.06809e-05
0.000608674
8.3792e-06
0.000601938
5.97634e-06
0.00059644
3.49874e-06
0.00059211
9.58562e-07
0.000588747
-1.48242e-06
0.000586291
-3.94615e-06
0.000584669
-6.39858e-06
0.000583812
-8.81446e-06
0.000583656
-1.11755e-05
0.000584148
-1.34664e-05
0.000585238
-1.56734e-05
0.000586888
-1.77844e-05
0.000589067
-1.97878e-05
0.000591746
-2.16732e-05
0.000594908
-2.34302e-05
0.000598535
-2.50492e-05
0.000602615
-2.65208e-05
0.00060714
-2.78362e-05
0.0006121
-2.89872e-05
0.000617489
-2.99662e-05
0.000623299
-3.07667e-05
0.000629519
-3.13829e-05
0.000636138
-3.18115e-05
0.000643143
-3.20494e-05
0.000650515
-3.20973e-05
0.000658235
-3.19555e-05
0.000666277
-3.16288e-05
0.000674613
-3.11198e-05
0.00068321
-3.04377e-05
0.000692029
-2.95868e-05
0.000701028
-2.85818e-05
0.00071016
-2.74276e-05
0.000719378
-2.61453e-05
0.000728628
-2.47393e-05
0.000737861
-2.32378e-05
0.000747017
-2.16427e-05
0.000756049
-1.999e-05
0.000764894
-1.82771e-05
0.000773508
-1.65483e-05
0.000781827
-1.4793e-05
0.000789821
-1.30634e-05
0.000797421
-1.13407e-05
0.000804607
-9.6842e-06
0.000811314
-8.06508e-06
0.000817528
-6.5448e-06
0.000823229
-5.08549e-06
0.000828406
-3.74796e-06
0.000833005
-2.49816e-06
0.000837038
-1.38196e-06
0.00084048
-3.8096e-07
0.000843285
5.43886e-07
0.000845465
1.33866e-06
0.000846991
2.02024e-06
0.000847937
2.56067e-06
0.000848194
3.02554e-06
0.000847937
3.34263e-06
0.000846937
3.61826e-06
0.000845516
3.75536e-06
0.000843279
3.85961e-06
0.00084074
3.87554e-06
0.000837305
3.81147e-06
0.000833715
3.77083e-06
3.5434e-06
0.00084778
3.83157e-05
0.00083869
3.78351e-05
0.000827492
3.75828e-05
0.000814178
3.75678e-05
0.000798813
3.77819e-05
0.000781553
3.81945e-05
0.000762638
3.87504e-05
0.000742396
3.93732e-05
0.000721225
3.99732e-05
0.000699577
4.04589e-05
0.000677942
4.07492e-05
0.000656828
4.07832e-05
0.000636697
4.05206e-05
0.000617858
3.99326e-05
0.000600524
3.90081e-05
0.00058484
3.77509e-05
0.000570877
3.61734e-05
0.000558642
3.42949e-05
0.000548094
3.21413e-05
0.000539157
2.97445e-05
0.000531732
2.71403e-05
0.00052571
2.43669e-05
0.00052097
2.14617e-05
0.000517392
1.84605e-05
0.000514855
1.53955e-05
0.000513238
1.2298e-05
0.000512422
9.19428e-06
0.000512293
6.10541e-06
0.000512744
3.04809e-06
0.000513684
1.8213e-08
0.000514915
-2.71256e-06
0.000516418
-5.44925e-06
0.000518122
-8.10315e-06