/*--------------------------------*- C++ -*----------------------------------*\
| =========                 |                                                 |
| \\      /  F ield         | OpenFOAM: The Open Source CFD Toolbox           |
|  \\    /   O peration     | Version:  2312                                  |
|   \\  /    A nd           | Website:  www.openfoam.com                      |
|    \\/     M anipulation  |                                                 |
\*---------------------------------------------------------------------------*/
FoamFile
{
    version     2.0;
    format      ascii;
    arch        "LSB;label=32;scalar=64";
    class       surfaceScalarField;
    location    "111000";
    object      phi;
}
// * * * * * * * * * * * * * * * * * * * * * * * * * * * * * * * * * * * * * //

dimensions      [0 3 -1 0 0 0 0];

oriented        oriented;

internalField   nonuniform List<scalar> 
5250
(
-1.71808e-05
7.67214e-07
-1.80861e-05
9.05294e-07
-1.91315e-05
1.04543e-06
-2.03166e-05
1.18514e-06
-2.16382e-05
1.32153e-06
-2.30895e-05
1.4513e-06
-2.46597e-05
1.57027e-06
-2.63336e-05
1.67389e-06
-2.80927e-05
1.75911e-06
-2.99188e-05
1.82609e-06
-3.17851e-05
1.86631e-06
-3.36569e-05
1.87176e-06
-3.55009e-05
1.84396e-06
-3.72834e-05
1.78252e-06
-3.89703e-05
1.68689e-06
-4.0527e-05
1.55675e-06
-4.19191e-05
1.39213e-06
-4.31125e-05
1.1934e-06
-4.40746e-05
9.62092e-07
-4.47729e-05
6.98276e-07
-4.51752e-05
4.02306e-07
-4.52464e-05
7.11534e-08
-4.49889e-05
-2.5746e-07
-4.43822e-05
-6.06664e-07
-4.34091e-05
-9.73177e-07
-4.20584e-05
-1.35062e-06
-4.03247e-05
-1.7337e-06
-3.82073e-05
-2.11749e-06
-3.57099e-05
-2.49735e-06
-3.2841e-05
-2.86885e-06
-2.96132e-05
-3.22782e-06
-2.60429e-05
-3.57036e-06
-2.21499e-05
-3.89295e-06
-1.79576e-05
-4.19236e-06
-1.34917e-05
-4.46582e-06
-8.78091e-06
-4.71083e-06
-3.85577e-06
-4.92514e-06
1.25081e-06
-5.10658e-06
6.50932e-06
-5.25851e-06
1.18902e-05
-5.38089e-06
1.73646e-05
-5.47436e-06
2.29027e-05
-5.53813e-06
2.84708e-05
-5.56815e-06
3.40361e-05
-5.56521e-06
3.95678e-05
-5.53175e-06
4.50375e-05
-5.46974e-06
5.04187e-05
-5.38116e-06
5.56868e-05
-5.26813e-06
6.08197e-05
-5.13288e-06
6.57974e-05
-4.9777e-06
7.06024e-05
-4.80494e-06
7.52193e-05
-4.61698e-06
7.96355e-05
-4.41619e-06
8.38404e-05
-4.20488e-06
8.78257e-05
-3.98533e-06
9.15854e-05
-3.75971e-06
9.51156e-05
-3.53011e-06
9.8414e-05
-3.29849e-06
0.000101481
-3.06669e-06
0.000104317
-2.83639e-06
0.000106926
-2.60913e-06
0.000109313
-2.38628e-06
0.000111482
-2.16907e-06
0.00011344
-1.95857e-06
0.000115196
-1.75568e-06
0.000116757
-1.56113e-06
0.000118132
-1.37548e-06
0.000119332
-1.19921e-06
0.000120364
-1.03265e-06
0.00012124
-8.75941e-07
0.000121969
-7.28953e-07
0.000122561
-5.91651e-07
0.000123025
-4.64028e-07
0.000123371
-3.46241e-07
0.000123609
-2.37865e-07
0.000123747
-1.38305e-07
0.000123793
-4.57916e-08
0.000123758
3.53718e-08
0.000123651
1.06575e-07
0.00012348
1.70931e-07
0.000123251
2.28926e-07
0.000122971
2.80197e-07
0.000122645
3.2625e-07
0.000122279
3.66162e-07
0.000121875
4.03331e-07
0.000121441
4.33975e-07
0.000120972
4.69103e-07
0.000120481
4.90923e-07
5.44415e-07
5.04192e-05
5.43318e-07
5.05996e-05
7.24867e-07
5.07377e-05
9.07329e-07
5.08359e-05
1.08697e-06
5.08974e-05
1.26002e-06
5.09272e-05
1.42151e-06
5.09338e-05
1.5637e-06
5.09329e-05
1.67471e-06
5.0949e-05
1.74305e-06
5.10134e-05
1.76172e-06
5.11525e-05
1.72718e-06
5.13881e-05
1.63621e-06
5.1746e-05
1.48604e-06
5.22535e-05
1.27502e-06
5.29375e-05
1.00285e-06
5.38247e-05
6.69614e-07
5.4943e-05
2.73783e-07
5.63103e-05
-1.73895e-07
5.79401e-05
-6.67684e-07
5.98592e-05
-1.22082e-06
6.2088e-05
-1.82657e-06
6.46372e-05
-2.47802e-06
6.75461e-05
-3.16631e-06
7.08217e-05
-3.88231e-06
7.44665e-05
-4.61798e-06
7.84811e-05
-5.3652e-06
8.28632e-05
-6.11581e-06
8.76074e-05
-6.86169e-06
9.27049e-05
-7.59485e-06
9.81436e-05
-8.30753e-06
0.000103908
-8.99236e-06
0.00010998
-9.64243e-06
0.000116339
-1.02514e-05
0.00012296
-1.08135e-05
0.000129818
-1.13237e-05
0.000136885
-1.17777e-05
0.000144131
-1.21719e-05
0.000151529
-1.25043e-05
0.000159046
-1.27752e-05
0.00016665
-1.2985e-05
0.00017431
-1.31342e-05
0.000181996
-1.3224e-05
0.000189682
-1.32546e-05
0.000197343
-1.32257e-05
0.000204948
-1.31372e-05
0.00021247
-1.29915e-05
0.000219881
-1.27928e-05
0.000227158
-1.25451e-05
0.000234278
-1.22525e-05
0.00024122
-1.19193e-05
0.000247964
-1.15498e-05
0.000254496
-1.11482e-05
0.000260798
-1.0719e-05
0.00026686
-1.02662e-05
0.000272668
-9.79398e-06
0.000278215
-9.30638e-06
0.000283492
-8.80722e-06
0.000288494
-8.30009e-06
0.000293215
-7.78849e-06
0.000297655
-7.2756e-06
0.00030181
-6.76444e-06
0.000305681
-6.25771e-06
0.00030927
-5.75802e-06
0.000312579
-5.26753e-06
0.000315612
-4.78836e-06
0.000318373
-4.3222e-06
0.000320868
-3.87068e-06
0.000323104
-3.43494e-06
0.000325088
-3.01642e-06
0.000326828
-2.61584e-06
0.000328333
-2.23399e-06
0.000329612
-1.87097e-06
0.000330676
-1.52812e-06
0.000331535
-1.2055e-06
0.000332201
-9.03856e-07
0.000332685
-6.21897e-07
0.000333
-3.60421e-07
0.000333152
-1.16776e-07
0.000333158
1.00549e-07
0.00033303
2.98683e-07
0.00033278
4.79087e-07
0.000332418
6.4251e-07
0.000331955
7.88531e-07
0.000331405
9.16716e-07
0.000330775
1.03272e-06
0.000330083
1.12651e-06
0.000329329
1.22277e-06
0.000328539
1.28085e-06
1.3767e-06
0.000211689
-5.19174e-07
0.000212872
-4.58483e-07
0.000214173
-3.93818e-07
0.00021559
-3.29458e-07
0.000217119
-2.69504e-07
0.000218759
-2.18375e-07
0.000220508
-1.85214e-07
0.000222371
-1.8835e-07
0.00022435
-2.3548e-07
0.000226444
-3.32629e-07
0.000228655
-4.84038e-07
0.000230986
-6.94444e-07
0.000233441
-9.68502e-07
0.000236024
-1.30893e-06
0.000238743
-1.71563e-06
0.0002416
-2.18761e-06
0.000244599
-2.72538e-06
0.000247756
-3.33057e-06
0.00025109
-4.00208e-06
0.000254607
-4.73738e-06
0.000258311
-5.53098e-06
0.000262208
-6.375e-06
0.000266302
-7.25951e-06
0.000270594
-8.17493e-06
0.000275088
-9.11169e-06
0.000279783
-1.00599e-05
0.000284676
-1.10095e-05
0.000289765
-1.19502e-05
0.000295042
-1.28719e-05
0.000300499
-1.37648e-05
0.000306126
-1.46195e-05
0.000311911
-1.54272e-05
0.00031784
-1.61798e-05
0.000323896
-1.687e-05
0.000330064
-1.74916e-05
0.000336326
-1.80395e-05
0.000342664
-1.85099e-05
0.00034906
-1.89008e-05
0.000355496
-1.92108e-05
0.00036195
-1.94394e-05
0.000368403
-1.95867e-05
0.000374832
-1.96535e-05
0.000381218
-1.96406e-05
0.000387542
-1.955e-05
0.000393789
-1.93841e-05
0.000399944
-1.91466e-05
0.000405994
-1.88418e-05
0.000411923
-1.84744e-05
0.00041772
-1.80494e-05
0.000423372
-1.7572e-05
0.00042887
-1.70474e-05
0.000434203
-1.64811e-05
0.000439363
-1.58785e-05
0.000444341
-1.52447e-05
0.000449132
-1.4585e-05
0.00045373
-1.39043e-05
0.00045813
-1.32075e-05
0.000462329
-1.24989e-05
0.000466324
-1.17831e-05
0.000470112
-1.10639e-05
0.000473693
-1.03452e-05
0.000477065
-9.63022e-06
0.00048023
-8.92251e-06
0.000483187
-8.22445e-06
0.000485938
-7.53926e-06
0.000488484
-6.86868e-06
0.000490829
-6.21566e-06
0.000492975
-5.58091e-06
0.000494926
-4.96726e-06
0.000496685
-4.37468e-06
0.000498256
-3.80571e-06
0.000499645
-3.25949e-06
0.000500856
-2.73929e-06
0.000501894
-2.24327e-06
0.000502764
-1.77418e-06
0.000503472
-1.32979e-06
0.000504025
-9.13245e-07
0.00050443
-5.217e-07
0.000504686
-1.55302e-07
0.000504807
1.77848e-07
0.000504798
4.87242e-07
0.000504674
7.66486e-07
0.000504435
1.02815e-06
0.000504101
1.25065e-06
0.000503663
1.47049e-06
0.000503158
1.63177e-06
0.000502559
1.822e-06
0.000501926
1.91372e-06
2.10212e-06
0.000452072
5.96667e-07
0.000451202
4.11581e-07
0.000450589
2.19548e-07
0.000450253
6.88964e-09
0.000450165
-1.81634e-07
0.000450345
-3.98233e-07
0.000450802
-6.43158e-07
0.000451536
-9.22268e-07
0.00045254
-1.23905e-06
0.000453804
-1.59627e-06
0.000455318
-1.99891e-06
0.000457077
-2.45257e-06
0.000459069
-2.96084e-06
0.000461286
-3.52551e-06
0.000463718
-4.14826e-06
0.000466361
-4.83028e-06
0.000469204
-5.56872e-06
0.000472234
-6.3609e-06
0.000475437
-7.20448e-06
0.000478795
-8.09581e-06
0.000482294
-9.02989e-06
0.000485919
-1.00003e-05
0.000489659
-1.09992e-05
0.000493502
-1.20182e-05
0.000497439
-1.30479e-05
0.000501458
-1.40788e-05
0.000505549
-1.51007e-05
0.000509702
-1.61037e-05
0.000513908
-1.70777e-05
0.000518156
-1.80129e-05
0.000522437
-1.89003e-05
0.000526741
-1.9731e-05
0.000531058
-2.04972e-05
0.00053538
-2.11918e-05
0.000539697
-2.18085e-05
0.000543999
-2.23418e-05
0.000548277
-2.27875e-05
0.000552519
-2.31429e-05
0.000556716
-2.34077e-05
0.000560859
-2.3583e-05
0.000564942
-2.36695e-05
0.000568957
-2.36687e-05
0.000572899
-2.35823e-05
0.000576762
-2.34126e-05
0.00058054
-2.31628e-05
0.00058423
-2.28367e-05
0.000587827
-2.2439e-05
0.000591328
-2.19745e-05
0.000594727
-2.14489e-05
0.000598022
-2.08674e-05
0.000601211
-2.02361e-05
0.00060429
-1.95604e-05
0.000607258
-1.88464e-05
0.000610113
-1.80993e-05
0.000612853
-1.73251e-05
0.000615477
-1.65286e-05
0.000617985
-1.57154e-05
0.000620376
-1.48896e-05
0.000622649
-1.40565e-05
0.000624805
-1.32196e-05
0.000626843
-1.23836e-05
0.000628764
-1.15511e-05
0.000630568
-1.07266e-05
0.000632256
-9.9119e-06
0.000633828
-9.1111e-06
0.000635284
-8.32502e-06
0.000636626
-7.55775e-06
0.000637854
-6.80894e-06
0.00063897
-6.08281e-06
0.000639973
-5.37831e-06
0.000640867
-4.69918e-06
0.000641651
-4.04414e-06
0.000642329
-3.41662e-06
0.000642901
-2.81539e-06
0.000643369
-2.24229e-06
0.000643738
-1.69866e-06
0.000644007
-1.18258e-06
0.000644186
-7.00085e-07
0.000644274
-2.43489e-07
0.000644271
1.80695e-07
0.000644168
5.90295e-07
0.000643988
9.46644e-07
0.000643714
1.30209e-06
0.000643379
1.58537e-06
0.000642954
1.89529e-06
0.000642487
2.09846e-06
0.000641935
2.37422e-06
0.000641365
2.48392e-06
2.73778e-06
0.000695825
2.10912e-06
0.000694459
1.77775e-06
0.000693241
1.43773e-06
0.000692162
1.08586e-06
0.000691262
7.18274e-07
0.000690532
3.32112e-07
0.00068997
-8.1038e-08
0.000689602
-5.54244e-07
0.000689415
-1.05277e-06
0.000689409
-1.58961e-06
0.00068958
-2.17037e-06
0.000689925
-2.79736e-06
0.000690436
-3.47184e-06
0.000691105
-4.19488e-06
0.000691924
-4.96681e-06
0.00069288
-5.78658e-06
0.000693963
-6.65187e-06
0.000695162
-7.55979e-06
0.000696465
-8.50692e-06
0.000697857
-9.48875e-06
0.000699327
-1.04996e-05
0.00070086
-1.15329e-05
0.000702442
-1.25809e-05
0.000704059
-1.36357e-05
0.0007057
-1.46884e-05
0.000707351
-1.57302e-05
0.000709002
-1.67517e-05
0.000710642
-1.7744e-05
0.000712262
-1.86979e-05
0.000713854
-1.96049e-05
0.000715411
-2.04568e-05
0.000716926
-2.12461e-05
0.000718395
-2.19658e-05
0.000719813
-2.261e-05
0.000721178
-2.31735e-05
0.000722488
-2.36521e-05
0.000723744
-2.40429e-05
0.000724945
-2.43441e-05
0.000726092
-2.45549e-05
0.000727184
-2.46753e-05
0.000728221
-2.47062e-05
0.000729203
-2.46504e-05
0.000730132
-2.45119e-05
0.000731013
-2.42932e-05
0.000731848
-2.3998e-05
0.000732641
-2.36298e-05
0.000733396
-2.31934e-05
0.000734115
-2.26934e-05
0.000734801
-2.21352e-05
0.000735457
-2.15239e-05
0.000736087
-2.08654e-05
0.000736691
-2.01647e-05
0.000737273
-1.94279e-05
0.000737833
-1.86596e-05
0.000738374
-1.78658e-05
0.000738896
-1.70507e-05
0.0007394
-1.622e-05
0.000739888
-1.53771e-05
0.000740359
-1.45274e-05
0.000740813
-1.36736e-05
0.00074125
-1.28207e-05
0.000741669
-1.19705e-05
0.000742071
-1.11279e-05
0.000742453
-1.02939e-05
0.000742814
-9.47275e-06
0.000743154
-8.66508e-06
0.000743471
-7.87458e-06
0.000743764
-7.10158e-06
0.00074403
-6.34894e-06
0.000744269
-5.61736e-06
0.000744478
-4.90799e-06
0.000744657
-4.22332e-06
0.000744802
-3.56136e-06
0.000744915
-2.92831e-06
0.000744989
-2.3168e-06
0.00074503
-1.73977e-06
0.000745028
-1.18047e-06
0.000744992
-6.64477e-07
0.00074491
-1.60963e-07
0.00074479
3.00771e-07
0.000744616
7.64211e-07
0.000744411
1.15107e-06
0.000744149
1.56473e-06
0.000743861
1.87309e-06
0.000743512
2.24478e-06
0.000743145
2.46557e-06
0.000742714
2.80452e-06
0.000742276
2.92244e-06
3.23576e-06
0.000845092
2.83851e-06
0.000844456
2.41373e-06
0.000843913
1.98099e-06
0.000843463
1.53555e-06
0.000843109
1.07227e-06
0.000842855
5.86963e-07
0.000842691
8.26158e-08
0.000842593
-4.56287e-07
0.000842566
-1.02614e-06
0.000842604
-1.62779e-06
0.000842698
-2.26403e-06
0.000842839
-2.93796e-06
0.000843018
-3.65144e-06
0.000843228
-4.40459e-06
0.000843458
-5.19639e-06
0.000843696
-6.02534e-06
0.000843934
-6.88936e-06
0.00084416
-7.78556e-06
0.000844363
-8.71019e-06
0.000844533
-9.65862e-06
0.000844658
-1.06254e-05
0.00084473
-1.16043e-05
0.000844738
-1.25887e-05
0.000844674
-1.35716e-05
0.00084453
-1.45452e-05
0.000844302
-1.5502e-05
0.000843984
-1.64339e-05
0.000843574
-1.73332e-05
0.000843068
-1.81924e-05
0.000842467
-1.90043e-05
0.000841773
-1.9762e-05
0.000840986
-2.04595e-05
0.000840111
-2.10911e-05
0.000839153
-2.1652e-05
0.000838118
-2.21384e-05
0.000837013
-2.25471e-05
0.000835846
-2.28757e-05
0.000834625
-2.31228e-05
0.000833358
-2.32879e-05
0.000832054
-2.33714e-05
0.000830723
-2.33754e-05
0.000829375
-2.33022e-05
0.000828018
-2.31549e-05
0.00082666
-2.29359e-05
0.000825311
-2.26483e-05
0.000823976
-2.22955e-05
0.000822665
-2.18818e-05
0.000821383
-2.14113e-05
0.000820136
-2.08889e-05
0.000818931
-2.03189e-05
0.000817773
-1.97066e-05
0.000816664
-1.90563e-05
0.00081561
-1.83733e-05
0.000814611
-1.76614e-05
0.000813672
-1.69261e-05
0.000812792
-1.61706e-05
0.000811972
-1.54002e-05
0.000811212
-1.46176e-05
0.000810513
-1.38277e-05
0.000809872
-1.30328e-05
0.000809288
-1.22369e-05
0.00080876
-1.14423e-05
0.000808284
-1.06524e-05
0.000807859
-9.869e-06
0.000807481
-9.09468e-06
0.000807148
-8.3318e-06
0.000806855
-7.58116e-06
0.0008066
-6.84653e-06
0.000806377
-6.12617e-06
0.000806186
-5.4263e-06
0.000806019
-4.74109e-06
0.000805877
-4.08154e-06
0.000805751
-3.43497e-06
0.000805643
-2.82026e-06
0.000805541
-2.21476e-06
0.000805451
-1.65009e-06
0.000805358
-1.0874e-06
0.000805271
-5.779e-07
0.000805168
-5.7753e-08
0.000805073
3.96117e-07
0.00080496
8.77222e-07
0.00080485
1.26076e-06
0.000804713
1.70205e-06
0.000804576
2.00931e-06
0.000804405
2.41648e-06
0.000804234
2.63669e-06
0.00080402
3.01776e-06
0.000803806
3.13695e-06
3.503e-06
0.000904686
2.70847e-06
0.000904876
2.22376e-06
0.00090512
1.7369e-06
0.00090541
1.24486e-06
0.000905737
7.45274e-07
0.000906088
2.3674e-07
0.00090647
-2.99975e-07
0.000906875
-8.60991e-07
0.000907289
-1.43971e-06
0.000907704
-2.04289e-06
0.000908113
-2.67306e-06
0.000908505
-3.33028e-06
0.000908868
-4.01494e-06
0.000909192
-4.72766e-06
0.000909463
-5.46822e-06
0.000909673
-6.23525e-06
0.000909811
-7.0266e-06
0.000909865
-7.83958e-06
0.000909825
-8.67099e-06
0.000909684
-9.51699e-06
0.000909431
-1.03731e-05
0.000909062
-1.12345e-05
0.000908569
-1.20957e-05
0.000907948
-1.2951e-05
0.000907197
-1.37943e-05
0.000906315
-1.46195e-05
0.000905301
-1.54203e-05
0.000904158
-1.61903e-05
0.00090289
-1.69238e-05
0.0009015
-1.76148e-05
0.000899996
-1.82582e-05
0.000898386
-1.88489e-05
0.000896677
-1.93828e-05
0.000894881
-1.98558e-05
0.000893008
-2.0265e-05
0.000891069
-2.06078e-05
0.000889075
-2.08824e-05
0.00088704
-2.10878e-05
0.000884976
-2.1224e-05
0.000882896
-2.12915e-05
0.000880812
-2.12914e-05
0.000878735
-2.1225e-05
0.000876675
-2.10944e-05
0.00087464
-2.09016e-05
0.000872641
-2.06494e-05
0.000870686
-2.03405e-05
0.000868783
-1.99787e-05
0.000866939
-1.95668e-05
0.000865159
-1.91092e-05
0.00086345
-1.86092e-05
0.000861814
-1.80711e-05
0.000860256
-1.74984e-05
0.000858778
-1.68955e-05
0.000857383
-1.62656e-05
0.00085607
-1.5613e-05
0.00085484
-1.49408e-05
0.000853692
-1.42529e-05
0.000852627
-1.35521e-05
0.000851641
-1.28419e-05
0.000850734
-1.21253e-05
0.000849901
-1.14047e-05
0.000849142
-1.06834e-05
0.000848453
-9.96254e-06
0.00084783
-9.24636e-06
0.000847269
-8.53403e-06
0.000846769
-7.83142e-06
0.000846322
-7.13475e-06
0.000845929
-6.45301e-06
0.000845581
-5.77786e-06
0.000845278
-5.12346e-06
0.000845011
-4.47457e-06
0.000844783
-3.8532e-06
0.000844582
-3.23426e-06
0.000844414
-2.65174e-06
0.000844264
-2.06457e-06
0.000844139
-1.52513e-06
0.000844022
-9.70619e-07
0.000843923
-4.79003e-07
0.000843823
4.2197e-08
0.000843742
4.76957e-07
0.000843655
9.64599e-07
0.00084358
1.33574e-06
0.000843489
1.7926e-06
0.000843408
2.09067e-06
0.000843304
2.52047e-06
0.000843206
2.73412e-06
0.00084308
3.14387e-06
0.000842957
3.26018e-06
3.66598e-06
0.000931392
2.0768e-06
0.000932059
1.55652e-06
0.000932758
1.03783e-06
0.000933487
5.15553e-07
0.000934251
-1.81454e-08
0.000935024
-5.36563e-07
0.000935797
-1.07303e-06
0.000936561
-1.62494e-06
0.000937313
-2.19187e-06
0.000938044
-2.77328e-06
0.000938741
-3.37042e-06
0.000939396
-3.98495e-06
0.000939999
-4.61784e-06
0.00094054
-5.26948e-06
0.000941012
-5.93964e-06
0.000941404
-6.62723e-06
0.000941708
-7.33043e-06
0.000941915
-8.04697e-06
0.000942018
-8.77432e-06
0.000942011
-9.5096e-06
0.000941887
-1.02495e-05
0.000941643
-1.09901e-05
0.000941274
-1.17271e-05
0.000940779
-1.24559e-05
0.000940157
-1.31718e-05
0.000939407
-1.38701e-05
0.000938533
-1.45457e-05
0.000937536
-1.51939e-05
0.000936422
-1.58099e-05
0.000935197
-1.63892e-05
0.000933866
-1.69277e-05
0.000932439
-1.74214e-05
0.000930923
-1.78668e-05
0.000929328
-1.82609e-05
0.000927664
-1.86012e-05
0.000925942
-1.88855e-05
0.000924172
-1.91124e-05
0.000922365
-1.92811e-05
0.000920532
-1.93913e-05
0.000918684
-1.94427e-05
0.000916828
-1.94361e-05
0.000914976
-1.93722e-05
0.000913134
-1.92528e-05
0.000911312
-1.90793e-05
0.000909517
-1.88544e-05
0.000907756
-1.85797e-05
0.000906036
-1.82584e-05
0.000904361
-1.78927e-05
0.000902738
-1.74861e-05
0.00090117
-1.70412e-05
0.000899661
-1.65615e-05
0.000898212
-1.60498e-05
0.000896826
-1.55097e-05
0.000895505
-1.4944e-05
0.000894248
-1.43562e-05
0.000893056
-1.37491e-05
0.000891929
-1.31257e-05
0.000890866
-1.2489e-05
0.000889865
-1.18411e-05
0.000888925
-1.11857e-05
0.000888044
-1.05236e-05
0.000887221
-9.85968e-06
0.000886451
-9.19277e-06
0.000885734
-8.52945e-06
0.000885066
-7.86572e-06
0.000884445
-7.21123e-06
0.000883868
-6.55743e-06
0.000883334
-5.91885e-06
0.000882837
-5.28055e-06
0.000882377
-4.66394e-06
0.000881948
-4.04535e-06
0.000881552
-3.45683e-06
0.000881178
-2.86077e-06
0.000880832
-2.30606e-06
0.000880505
-1.73712e-06
0.000880202
-1.22174e-06
0.00087991
-6.787e-07
0.000879641
-2.09967e-07
0.000879372
3.11198e-07
0.000879117
7.31137e-07
0.000878859
1.22275e-06
0.000878613
1.58194e-06
0.000878358
2.04736e-06
0.000878113
2.3359e-06
0.000877854
2.77931e-06
0.000877602
2.98619e-06
0.000877333
3.41251e-06
0.00087707
3.52357e-06
3.93777e-06
0.00097105
1.46832e-06
0.000971685
9.21795e-07
0.000972336
3.86571e-07
0.000972994
-1.42826e-07
0.000973658
-6.81458e-07
0.000974336
-1.21517e-06
0.000975012
-1.74895e-06
0.000975674
-2.28631e-06
0.000976312
-2.83026e-06
0.000976922
-3.38274e-06
0.000977496
-3.94475e-06
0.000978028
-4.51686e-06
0.000978509
-5.09952e-06
0.000978933
-5.69296e-06
0.00097929
-6.29712e-06
0.000979575
-6.91138e-06
0.000979779
-7.53454e-06
0.000979897
-8.16486e-06
0.000979923
-8.80028e-06
0.000979851
-9.43845e-06
0.000979679
-1.00767e-05
0.000979401
-1.07121e-05
0.000979015
-1.13411e-05
0.000978519
-1.19602e-05
0.000977913
-1.25656e-05
0.000977196
-1.31535e-05
0.00097637
-1.37201e-05
0.000975438
-1.42616e-05
0.000974403
-1.47743e-05
0.000973268
-1.52543e-05
0.000972039
-1.56985e-05
0.000970721
-1.61037e-05
0.000969321
-1.6467e-05
0.000967846
-1.6786e-05
0.000966304
-1.70587e-05
0.000964701
-1.72832e-05
0.000963047
-1.74583e-05
0.000961349
-1.7583e-05
0.000959614
-1.76567e-05
0.000957851
-1.76792e-05
0.000956066
-1.76512e-05
0.000954267
-1.75733e-05
0.000952462
-1.74472e-05
0.000950656
-1.72739e-05
0.000948857
-1.70556e-05
0.000947071
-1.67937e-05
0.000945303
-1.64905e-05
0.000943559
-1.61479e-05
0.000941841
-1.57687e-05
0.000940155
-1.5355e-05
0.000938503
-1.49099e-05
0.000936889
-1.44355e-05
0.000935315
-1.39351e-05
0.000933781
-1.3411e-05
0.000932291
-1.2866e-05
0.000930845
-1.2303e-05
0.000929444
-1.17242e-05
0.000928088
-1.11329e-05
0.000926777
-1.05303e-05
0.000925512
-9.92063e-06
0.000924292
-9.30325e-06
0.000923116
-8.68406e-06
0.000921983
-8.06017e-06
0.000920894
-7.43987e-06
0.000919845
-6.81684e-06
0.000918837
-6.20318e-06
0.000917867
-5.58757e-06
0.000916936
-4.98819e-06
0.000916041
-4.38559e-06
0.000915183
-3.80602e-06
0.000914359
-3.22075e-06
0.000913569
-2.66735e-06
0.00091281
-2.10182e-06
0.000912084
-1.57939e-06
0.000911383
-1.03606e-06
0.000910713
-5.51577e-07
0.000910074
-4.04114e-08
0.00090945
4.14573e-07
0.000908846
9.15134e-07
0.000908265
1.31163e-06
0.0009077
1.78764e-06
0.000907157
2.1252e-06
0.000906626
2.57884e-06
0.000906111
2.85042e-06
0.000905605
3.28544e-06
0.000905111
3.47978e-06
0.000904625
3.89936e-06
0.000904147
4.00158e-06
4.40091e-06
0.00101056
1.25972e-06
0.00101078
7.04138e-07
0.00101099
1.68445e-07
0.00101123
-3.75767e-07
0.00101146
-9.13279e-07
0.00101168
-1.44073e-06
0.0010119
-1.96313e-06
0.00101209
-2.4832e-06
0.00101227
-3.00293e-06
0.00101241
-3.52407e-06
0.00101251
-4.04817e-06
0.00101257
-4.5763e-06
0.00101258
-5.10894e-06
0.00101253
-5.64608e-06
0.00101242
-6.18759e-06
0.00101225
-6.73307e-06
0.00101199
-7.28173e-06
0.00101166
-7.83229e-06
0.00101124
-8.38309e-06
0.00101074
-8.93223e-06
0.00101014
-9.47761e-06
0.00100944
-1.00168e-05
0.00100865
-1.05473e-05
0.00100776
-1.1066e-05
0.00100676
-1.15702e-05
0.00100566
-1.20567e-05
0.00100447
-1.25227e-05
0.00100317
-1.2965e-05
0.00100178
-1.33807e-05
0.00100029
-1.37669e-05
0.00099871
-1.41209e-05
0.000997047
-1.44401e-05
0.000995302
-1.47226e-05
0.000993482
-1.4966e-05
0.000991592
-1.51689e-05
0.000989639
-1.53297e-05
0.000987628
-1.54476e-05
0.000985567
-1.55214e-05
0.000983461
-1.5551e-05
0.000981317
-1.55356e-05
0.000979142
-1.54761e-05
0.000976943
-1.53739e-05
0.000974726
-1.52299e-05
0.000972497
-1.50449e-05
0.000970262
-1.48206e-05
0.000968026
-1.45583e-05
0.000965796
-1.426e-05
0.000963575
-1.3927e-05
0.000961368
-1.35618e-05
0.000959179
-1.31662e-05
0.000957012
-1.27427e-05
0.00095487
-1.22935e-05
0.000952756
-1.18211e-05
0.000950673
-1.13279e-05
0.000948623
-1.08161e-05
0.000946608
-1.02883e-05
0.00094463
-9.74627e-06
0.000942691
-9.19335e-06
0.000940791
-8.63036e-06
0.000938932
-8.06164e-06
0.000937115
-7.48655e-06
0.000935342
-6.91097e-06
0.000933613
-6.33135e-06
0.00093193
-5.75645e-06
0.000930292
-5.17934e-06
0.000928701
-4.61184e-06
0.000927156
-4.04313e-06
0.000925659
-3.49091e-06
0.00092421
-2.93608e-06
0.000922808
-2.40445e-06
0.000921455
-1.8673e-06
0.000920149
-1.36151e-06
0.000918894
-8.47088e-07
0.000917692
-3.76983e-07
0.00091654
1.15205e-07
0.000915431
5.58093e-07
0.00091436
1.0302e-06
0.000913344
1.43028e-06
0.000912381
1.87846e-06
0.000911464
2.22834e-06
0.0009106
2.65178e-06
0.000909777
2.94838e-06
0.000909005
3.35097e-06
0.000908268
3.58712e-06
0.000907581
3.97224e-06
0.000906921
4.13975e-06
0.000906309
4.51173e-06
0.000905712
4.59851e-06
4.94996e-06
0.00100494
1.52568e-06
0.00100468
9.70736e-07
0.00100441
4.34468e-07
0.00100412
-8.74845e-08
0.00100383
-6.17365e-07
0.00100352
-1.13188e-06
0.00100319
-1.63733e-06
0.00100285
-2.1354e-06
0.00100247
-2.62843e-06
0.00100206
-3.11821e-06
0.00100162
-3.60595e-06
0.00100114
-4.09244e-06
0.00100061
-4.57818e-06
0.00100003
-5.0633e-06
0.000999385
-5.54768e-06
0.000998683
-6.0309e-06
0.000997914
-6.51221e-06
0.000997072
-6.99056e-06
0.000996153
-7.46463e-06
0.000995154
-7.93292e-06
0.00099407
-8.39381e-06
0.000992899
-8.8455e-06
0.000991638
-9.28605e-06
0.000990285
-9.71326e-06
0.00098884
-1.01248e-05
0.000987301
-1.05183e-05
0.00098567
-1.08914e-05
0.000983947
-1.12418e-05
0.000982133
-1.15671e-05
0.000980231
-1.18652e-05
0.000978244
-1.2134e-05
0.000976176
-1.23715e-05
0.000974029
-1.25761e-05
0.00097181
-1.27462e-05
0.000969521
-1.28803e-05
0.000967168
-1.29772e-05
0.000964757
-1.30366e-05
0.000962294
-1.30579e-05
0.000959784
-1.30409e-05
0.000957234
-1.29856e-05
0.00095465
-1.28925e-05
0.000952038
-1.27621e-05
0.000949404
-1.25955e-05
0.000946753
-1.23934e-05
0.000944089
-1.2157e-05
0.000941418
-1.18873e-05
0.000938744
-1.15861e-05
0.000936072
-1.12545e-05
0.000933405
-1.08948e-05
0.000930747
-1.05087e-05
0.000928103
-1.00983e-05
0.000925475
-9.66572e-06
0.000922867
-9.21328e-06
0.000920282
-8.74317e-06
0.000917724
-8.25751e-06
0.000915194
-7.75893e-06
0.000912697
-7.24889e-06
0.000910234
-6.73049e-06
0.000907808
-6.20423e-06
0.00090542
-5.67385e-06
0.000903073
-5.13925e-06
0.000900768
-4.60582e-06
0.000898508
-4.07122e-06
0.000896294
-3.54254e-06
0.00089413
-3.01519e-06
0.000892017
-2.49973e-06
0.000889962
-1.98791e-06
0.000887964
-1.4925e-06
0.000886028
-9.99894e-07
0.000884154
-5.31254e-07
0.000882355
-6.76792e-08
0.000880612
3.81604e-07
0.000878939
8.25872e-07
0.000877329
1.23322e-06
0.000875792
1.65127e-06
0.000874329
2.02126e-06
0.000872953
2.4062e-06
0.000871653
2.73072e-06
0.000870445
3.08612e-06
0.000869308
3.36522e-06
0.000868269
3.69113e-06
0.000867297
3.91989e-06
0.000866429
4.21917e-06
0.000865621
4.39501e-06
0.000864921
4.67288e-06
0.000864267
4.7932e-06
0.000863722
5.05734e-06
0.000863201
5.11908e-06
5.37657e-06
0.00092775
2.20106e-06
0.000927065
1.65571e-06
0.000926374
1.12553e-06
0.000925677
6.0972e-07
0.00092495
1.09918e-07
0.000924222
-4.04462e-07
0.000923487
-9.02353e-07
0.000922741
-1.38899e-06
0.000921981
-1.86887e-06
0.000921206
-2.34247e-06
0.00092041
-2.80998e-06
0.000919589
-3.27186e-06
0.000918739
-3.72846e-06
0.000917856
-4.17977e-06
0.000916934
-4.62547e-06
0.000915968
-5.06501e-06
0.000914953
-5.49769e-06
0.000913885
-5.92261e-06
0.000912759
-6.33862e-06
0.000911571
-6.74437e-06
0.000910315
-7.13844e-06
0.000908989
-7.51941e-06
0.000907589
-7.88592e-06
0.000906112
-8.23658e-06
0.000904557
-8.56987e-06
0.000902923
-8.88395e-06
0.000901209
-9.17699e-06
0.000899414
-9.44722e-06
0.00089754
-9.69297e-06
0.000895587
-9.91261e-06
0.000893558
-1.01046e-05
0.000891454
-1.02675e-05
0.000889278
-1.03999e-05
0.000887033
-1.05009e-05
0.000884722
-1.05696e-05
0.00088235
-1.06052e-05
0.000879921
-1.06074e-05
0.000877439
-1.05758e-05
0.000874908
-1.05104e-05
0.000872334
-1.04113e-05
0.00086972
-1.02788e-05
0.000867071
-1.01134e-05
0.000864392
-9.91587e-06
0.000861685
-9.68711e-06
0.000858956
-9.42805e-06
0.000856209
-9.13972e-06
0.000853446
-8.82338e-06
0.000850672
-8.48045e-06
0.00084789
-8.11276e-06
0.000845104
-7.72223e-06
0.000842316
-7.31089e-06
0.000839531
-6.88092e-06
0.000836752
-6.43429e-06
0.000833982
-5.9729e-06
0.000831223
-5.49827e-06
0.000828477
-5.0135e-06
0.000825749
-4.52089e-06
0.000823042
-4.02318e-06
0.00082036
-3.52197e-06
0.000817707
-3.02127e-06
0.000815089
-2.5211e-06
0.000812508
-2.02516e-06
0.000809969
-1.53153e-06
0.000807472
-1.04548e-06
0.000805021
-5.64373e-07
0.000802616
-9.50022e-08
0.000800271
3.57315e-07
0.000797985
7.93396e-07
0.000795767
1.21811e-06
0.000793617
1.61887e-06
0.000791539
2.0101e-06
0.000789547
2.37387e-06
0.000787646
2.72726e-06
0.000785834
3.04501e-06
0.00078413
3.35539e-06
0.000782524
3.62663e-06
0.000781035
3.89535e-06
0.000779647
4.11895e-06
0.000778388
4.34491e-06
0.000777234
4.51954e-06
0.000776222
4.70273e-06
0.000775312
4.82957e-06
0.000774559
4.97233e-06
0.000773899
5.05486e-06
0.000773411
5.16109e-06
0.000772998
5.20601e-06
0.000772772
5.28347e-06
0.000772588
5.30305e-06
5.37853e-06
0.000782742
2.98153e-06
0.000781979
2.41783e-06
0.00078124
1.86484e-06
0.000780528
1.32131e-06
0.000779854
7.8409e-07
0.000779197
2.52611e-07
0.000778556
-2.60987e-07
0.000777933
-7.65895e-07
0.000777325
-1.26069e-06
0.000776728
-1.74598e-06
0.00077614
-2.22152e-06
0.000775554
-2.68644e-06
0.000774966
-3.14015e-06
0.000774368
-3.58225e-06
0.000773755
-4.01225e-06
0.00077312
-4.4295e-06
0.000772455
-4.8333e-06
0.000771756
-5.2229e-06
0.000771014
-5.59744e-06
0.000770226
-5.95602e-06
0.000769385
-6.29769e-06
0.000768487
-6.62146e-06
0.000767528
-6.92632e-06
0.000766502
-7.2112e-06
0.000765407
-7.47499e-06
0.00076424
-7.71654e-06
0.000762998
-7.93476e-06
0.000761679
-8.12858e-06
0.000760283
-8.29697e-06
0.000758809
-8.43889e-06
0.000757258
-8.55334e-06
0.00075563
-8.63936e-06
0.000753926
-8.69618e-06
0.000752149
-8.72309e-06
0.000750299
-8.71962e-06
0.000748379
-8.68547e-06
0.000746392
-8.62045e-06
0.000744341
-8.52451e-06
0.000742228
-8.3977e-06
0.000740057
-8.24017e-06
0.00073783
-8.05231e-06
0.000735552
-7.83459e-06
0.000733224
-7.58787e-06
0.00073085
-7.31333e-06
0.000728434
-7.01216e-06
0.00072598
-6.68537e-06
0.00072349
-6.33356e-06
0.000720967
-5.95798e-06
0.000718415
-5.56037e-06
0.000715836
-5.14305e-06
0.000713233
-4.70844e-06
0.000710611
-4.25919e-06
0.000707975
-3.79812e-06
0.00070533
-3.32743e-06
0.000702679
-2.84786e-06
0.000700028
-2.36175e-06
0.000697379
-1.87271e-06
0.000694738
-1.38181e-06
0.000692106
-8.90124e-07
0.000689485
-4.00415e-07
0.000686885
7.96405e-08
0.000684316
5.43702e-07
0.000681784
1.00012e-06
0.000679297
1.44217e-06
0.000676863
1.86915e-06
0.000674494
2.27443e-06
0.00067219
2.66064e-06
0.000669962
3.02212e-06
0.000667816
3.36321e-06
0.000665761
3.67401e-06
0.000663809
3.96265e-06
0.000661964
4.21866e-06
0.000660238
4.45354e-06
0.00065863
4.65232e-06
0.000657155
4.8311e-06
0.000655809
4.97258e-06
0.000654609
5.09502e-06
0.000653548
5.1798e-06
0.000652647
5.24582e-06
0.000651888
5.27837e-06
0.000651302
5.28877e-06
0.000650856
5.27628e-06
0.000650597
5.23054e-06
0.000650468
5.18475e-06
0.000650548
5.08083e-06
0.000650734
5.02033e-06
0.000651163
4.85436e-06
0.000651657
4.80892e-06
4.58756e-06
0.000605269
2.37888e-06
0.000605889
1.79745e-06
0.000606528
1.22638e-06
0.000607183
6.65634e-07
0.000607857
1.10191e-07
0.000608508
-3.98111e-07
0.000609151
-9.04392e-07
0.000609785
-1.39982e-06
0.000610406
-1.88131e-06
0.000611007
-2.34753e-06
0.000611584
-2.79769e-06
0.000612128
-3.23108e-06
0.000612635
-3.64709e-06
0.000613098
-4.04518e-06
0.000613511
-4.42475e-06
0.000613866
-4.78524e-06
0.000614159
-5.12625e-06
0.000614384
-5.44744e-06
0.000614535
-5.74843e-06
0.000614608
-6.02869e-06
0.000614597
-6.28758e-06
0.000614501
-6.52451e-06
0.000614313
-6.73903e-06
0.000614033
-6.93084e-06
0.000613657
-7.09959e-06
0.000613186
-7.24488e-06
0.000612617
-7.36625e-06
0.000611952
-7.46309e-06
0.00061119
-7.53469e-06
0.000610331
-7.58025e-06
0.000609377
-7.5991e-06
0.000608328
-7.5908e-06
0.000607187
-7.55524e-06