/*--------------------------------*- C++ -*----------------------------------*\
| =========                 |                                                 |
| \\      /  F ield         | OpenFOAM: The Open Source CFD Toolbox           |
|  \\    /   O peration     | Version:  2312                                  |
|   \\  /    A nd           | Website:  www.openfoam.com                      |
|    \\/     M anipulation  |                                                 |
\*---------------------------------------------------------------------------*/
FoamFile
{
    version     2.0;
    format      ascii;
    arch        "LSB;label=32;scalar=64";
    class       volVectorField;
    location    "179000";
    object      U;
}
// * * * * * * * * * * * * * * * * * * * * * * * * * * * * * * * * * * * * * //

dimensions      [0 1 -1 0 0 0 0];

internalField   nonuniform List<vector> 
10800
(
(0.000992484 4.93822e-06 0)
(0.000990045 1.24459e-05 0)
(0.000986894 1.74583e-05 0)
(0.000980543 2.06321e-05 0)
(0.000971162 2.27044e-05 0)
(0.000959912 2.41863e-05 0)
(0.000947863 2.53127e-05 0)
(0.000935547 2.61588e-05 0)
(0.000923109 2.67488e-05 0)
(0.000910528 2.71079e-05 0)
(0.000897758 2.7274e-05 0)
(0.000884796 2.72901e-05 0)
(0.000871679 2.71945e-05 0)
(0.000858462 2.70154e-05 0)
(0.000845196 2.67712e-05 0)
(0.000831919 2.64738e-05 0)
(0.000818656 2.61315e-05 0)
(0.000805425 2.5751e-05 0)
(0.000792241 2.5338e-05 0)
(0.000779117 2.48976e-05 0)
(0.000766069 2.44336e-05 0)
(0.00075311 2.39495e-05 0)
(0.000740254 2.34472e-05 0)
(0.000727512 2.29288e-05 0)
(0.000714898 2.23951e-05 0)
(0.000702421 2.18477e-05 0)
(0.000690095 2.12865e-05 0)
(0.000677929 2.07128e-05 0)
(0.000665936 2.0126e-05 0)
(0.000654127 1.95273e-05 0)
(0.000642512 1.89153e-05 0)
(0.000631104 1.82921e-05 0)
(0.000619915 1.76547e-05 0)
(0.000608955 1.70067e-05 0)
(0.00059824 1.63435e-05 0)
(0.000587776 1.5671e-05 0)
(0.000577584 1.49814e-05 0)
(0.000567666 1.42852e-05 0)
(0.000558048 1.35693e-05 0)
(0.000548726 1.28514e-05 0)
(0.000539736 1.21094e-05 0)
(0.000531056 1.13736e-05 0)
(0.000522752 1.06059e-05 0)
(0.000514758 9.85799e-06 0)
(0.000507204 9.06418e-06 0)
(0.000499921 8.3122e-06 0)
(0.000493209 7.48925e-06 0)
(0.000486619 6.74191e-06 0)
(0.000480916 5.88269e-06 0)
(0.000474874 5.14066e-06 0)
(0.000470573 4.23971e-06 0)
(0.000464553 3.45639e-06 0)
(0.000462748 2.56018e-06 0)
(0.00045505 1.47945e-06 0)
(0.000458965 9.38286e-07 0)
(0.000444364 -1.52978e-06 0)
(0.000463473 -4.24837e-08 0)
(0.000426861 -7.98455e-06 0)
(0.000486399 1.93677e-06 0)
(0.000390511 -2.44912e-05 0)
(0.00100003 5.78912e-06 0)
(0.00100173 1.49506e-05 0)
(0.00100424 2.14496e-05 0)
(0.00100709 2.59784e-05 0)
(0.00100985 2.92998e-05 0)
(0.00101229 3.19422e-05 0)
(0.00101435 3.41535e-05 0)
(0.00101607 3.60202e-05 0)
(0.00101751 3.75755e-05 0)
(0.00101869 3.88501e-05 0)
(0.00101962 3.98857e-05 0)
(0.0010203 4.07287e-05 0)
(0.00102073 4.14198e-05 0)
(0.0010209 4.19897e-05 0)
(0.00102082 4.24587e-05 0)
(0.00102052 4.284e-05 0)
(0.00102001 4.31427e-05 0)
(0.00101929 4.3374e-05 0)
(0.00101838 4.35399e-05 0)
(0.00101729 4.36455e-05 0)
(0.00101603 4.3695e-05 0)
(0.0010146 4.36913e-05 0)
(0.00101302 4.36368e-05 0)
(0.00101129 4.35328e-05 0)
(0.00100943 4.33806e-05 0)
(0.00100744 4.31802e-05 0)
(0.00100534 4.29329e-05 0)
(0.00100311 4.26371e-05 0)
(0.00100081 4.22947e-05 0)
(0.000998372 4.19024e-05 0)
(0.000995905 4.14634e-05 0)
(0.000993297 4.09716e-05 0)
(0.000990707 4.04337e-05 0)
(0.000987951 3.98382e-05 0)
(0.00098529 3.91988e-05 0)
(0.000982404 3.84944e-05 0)
(0.000979734 3.77518e-05 0)
(0.000976726 3.69323e-05 0)
(0.000974127 3.60864e-05 0)
(0.000970985 3.51439e-05 0)
(0.00096857 3.41984e-05 0)
(0.000965244 3.31221e-05 0)
(0.00096318 3.20863e-05 0)
(0.000959553 3.08597e-05 0)
(0.000958098 2.97526e-05 0)
(0.000953938 2.83479e-05 0)
(0.000953507 2.72041e-05 0)
(0.000948378 2.55726e-05 0)
(0.000949653 2.44519e-05 0)
(0.000942764 2.25069e-05 0)
(0.000946884 2.15105e-05 0)
(0.000936824 1.91009e-05 0)
(0.000945705 1.8395e-05 0)
(0.000929994 1.52666e-05 0)
(0.000946859 1.51072e-05 0)
(0.000921178 1.08715e-05 0)
(0.000951469 1.15749e-05 0)
(0.000908367 5.80536e-06 0)
(0.000961398 7.35509e-06 0)
(0.000888494 4.97126e-07 0)
(0.000999989 1.94374e-06 0)
(0.00100078 5.70333e-06 0)
(0.00100225 9.18245e-06 0)
(0.00100427 1.22975e-05 0)
(0.0010066 1.5046e-05 0)
(0.00100906 1.74732e-05 0)
(0.00101152 1.96343e-05 0)
(0.00101393 2.15726e-05 0)
(0.0010163 2.33157e-05 0)
(0.00101862 2.48809e-05 0)
(0.0010209 2.62816e-05 0)
(0.00102315 2.75318e-05 0)
(0.00102535 2.86465e-05 0)
(0.0010275 2.96398e-05 0)
(0.00102958 3.0525e-05 0)
(0.00103161 3.13121e-05 0)
(0.00103358 3.201e-05 0)
(0.00103549 3.26249e-05 0)
(0.00103735 3.31629e-05 0)
(0.00103915 3.36277e-05 0)
(0.00104091 3.40244e-05 0)
(0.00104262 3.43547e-05 0)
(0.00104428 3.46232e-05 0)
(0.00104588 3.4829e-05 0)
(0.00104746 3.49772e-05 0)
(0.00104897 3.50641e-05 0)
(0.00105046 3.5096e-05 0)
(0.00105187 3.50658e-05 0)
(0.00105328 3.49826e-05 0)
(0.0010546 3.48343e-05 0)
(0.00105595 3.4635e-05 0)
(0.00105717 3.43652e-05 0)
(0.00105846 3.40475e-05 0)
(0.00105958 3.3651e-05 0)
(0.00106084 3.3212e-05 0)
(0.00106185 3.26821e-05 0)
(0.0010631 3.21189e-05 0)
(0.00106398 3.14476e-05 0)
(0.00106526 3.07586e-05 0)
(0.00106598 2.99365e-05 0)
(0.00106735 2.91221e-05 0)
(0.00106786 2.81389e-05 0)
(0.0010694 2.72026e-05 0)
(0.00106962 2.60463e-05 0)
(0.00107148 2.49958e-05 0)
(0.00107126 2.36531e-05 0)
(0.00107363 2.25016e-05 0)
(0.00107277 2.09576e-05 0)
(0.00107595 1.97252e-05 0)
(0.00107411 1.79655e-05 0)
(0.00107853 1.66792e-05 0)
(0.00107519 1.46943e-05 0)
(0.00108154 1.33878e-05 0)
(0.00107589 1.11874e-05 0)
(0.00108515 9.89922e-06 0)
(0.00107596 7.55023e-06 0)
(0.00108963 6.32185e-06 0)
(0.00107504 4.04527e-06 0)
(0.0010954 2.88539e-06 0)
(0.00107269 1.22133e-06 0)
(0.00100001 1.71703e-06 0)
(0.00100047 5.07958e-06 0)
(0.00100129 8.27964e-06 0)
(0.00100242 1.12413e-05 0)
(0.00100379 1.39241e-05 0)
(0.00100534 1.63258e-05 0)
(0.001007 1.84685e-05 0)
(0.00100874 2.03824e-05 0)
(0.00101053 2.20953e-05 0)
(0.00101238 2.36284e-05 0)
(0.00101426 2.49981e-05 0)
(0.00101618 2.62175e-05 0)
(0.00101812 2.72999e-05 0)
(0.00102008 2.82576e-05 0)
(0.00102205 2.91029e-05 0)
(0.00102404 2.98466e-05 0)
(0.00102603 3.04984e-05 0)
(0.00102802 3.10658e-05 0)
(0.00103002 3.15557e-05 0)
(0.00103202 3.19728e-05 0)
(0.00103403 3.23225e-05 0)
(0.00103604 3.26072e-05 0)
(0.00103806 3.28313e-05 0)
(0.00104007 3.29956e-05 0)
(0.00104209 3.31038e-05 0)
(0.00104411 3.31547e-05 0)
(0.00104613 3.31522e-05 0)
(0.00104815 3.30926e-05 0)
(0.00105018 3.29809e-05 0)
(0.00105219 3.28108e-05 0)
(0.00105423 3.25888e-05 0)
(0.00105623 3.23053e-05 0)
(0.00105827 3.19697e-05 0)
(0.00106026 3.15684e-05 0)
(0.00106231 3.11144e-05 0)
(0.00106428 3.05893e-05 0)
(0.00106635 3.00108e-05 0)
(0.00106829 2.93554e-05 0)
(0.00107037 2.86457e-05 0)
(0.00107228 2.78533e-05 0)
(0.00107439 2.70051e-05 0)
(0.00107624 2.60699e-05 0)
(0.00107839 2.50752e-05 0)
(0.00108018 2.39934e-05 0)
(0.0010824 2.28436e-05 0)
(0.00108409 2.1615e-05 0)
(0.00108643 2.02994e-05 0)
(0.00108798 1.89307e-05 0)
(0.00109049 1.74359e-05 0)
(0.00109186 1.59464e-05 0)
(0.00109461 1.42556e-05 0)
(0.00109573 1.26878e-05 0)
(0.00109882 1.07803e-05 0)
(0.00109959 9.21676e-06 0)
(0.00110316 7.06409e-06 0)
(0.00110342 5.64458e-06 0)
(0.00110767 3.19243e-06 0)
(0.00110723 2.13681e-06 0)
(0.00111244 -7.31358e-07 0)
(0.00111096 -1.11387e-06 0)
(0.001 1.12181e-06 0)
(0.00100023 3.33069e-06 0)
(0.00100068 5.4673e-06 0)
(0.00100136 7.50052e-06 0)
(0.00100225 9.40958e-06 0)
(0.00100331 1.11848e-05 0)
(0.00100451 1.28253e-05 0)
(0.00100583 1.43358e-05 0)
(0.00100724 1.57232e-05 0)
(0.00100873 1.69941e-05 0)
(0.00101027 1.81546e-05 0)
(0.00101187 1.92105e-05 0)
(0.00101351 2.01671e-05 0)
(0.00101519 2.10299e-05 0)
(0.0010169 2.18048e-05 0)
(0.00101864 2.2497e-05 0)
(0.00102041 2.31118e-05 0)
(0.00102219 2.36536e-05 0)
(0.00102399 2.41265e-05 0)
(0.00102581 2.45336e-05 0)
(0.00102764 2.48779e-05 0)
(0.00102949 2.51618e-05 0)
(0.00103135 2.53873e-05 0)
(0.00103322 2.55559e-05 0)
(0.00103511 2.56689e-05 0)
(0.001037 2.57269e-05 0)
(0.00103891 2.57305e-05 0)
(0.00104082 2.568e-05 0)
(0.00104275 2.55747e-05 0)
(0.00104468 2.54151e-05 0)
(0.00104662 2.51991e-05 0)
(0.00104857 2.49277e-05 0)
(0.00105052 2.45971e-05 0)
(0.00105248 2.42101e-05 0)
(0.00105445 2.37591e-05 0)
(0.00105642 2.32512e-05 0)
(0.00105839 2.26727e-05 0)
(0.00106037 2.20382e-05 0)
(0.00106235 2.13234e-05 0)
(0.00106433 2.05571e-05 0)
(0.00106632 1.96959e-05 0)
(0.0010683 1.87935e-05 0)
(0.0010703 1.7774e-05 0)
(0.00107229 1.67341e-05 0)
(0.00107428 1.55424e-05 0)
(0.00107627 1.43685e-05 0)
(0.00107827 1.29875e-05 0)
(0.00108028 1.16903e-05 0)
(0.00108227 1.00966e-05 0)
(0.00108431 8.69654e-06 0)
(0.00108631 6.85508e-06 0)
(0.00108842 5.38632e-06 0)
(0.00109043 3.24268e-06 0)
(0.00109269 1.7694e-06 0)
(0.00109471 -7.42119e-07 0)
(0.00109719 -2.10594e-06 0)
(0.00109919 -5.08323e-06 0)
(0.00110196 -6.15783e-06 0)
(0.00110382 -9.76319e-06 0)
(0.00110691 -1.03114e-05 0)
(0.001 8.91562e-07 0)
(0.00100018 2.65722e-06 0)
(0.00100052 4.3876e-06 0)
(0.00100103 6.06442e-06 0)
(0.0010017 7.67087e-06 0)
(0.0010025 9.19374e-06 0)
(0.00100342 1.06244e-05 0)
(0.00100444 1.19589e-05 0)
(0.00100556 1.31963e-05 0)
(0.00100674 1.43379e-05 0)
(0.001008 1.53861e-05 0)
(0.00100931 1.63435e-05 0)
(0.00101068 1.72133e-05 0)
(0.0010121 1.79989e-05 0)
(0.00101355 1.87037e-05 0)
(0.00101504 1.93315e-05 0)
(0.00101657 1.98859e-05 0)
(0.00101812 2.03704e-05 0)
(0.0010197 2.07883e-05 0)
(0.0010213 2.11425e-05 0)
(0.00102293 2.14355e-05 0)
(0.00102457 2.16696e-05 0)
(0.00102623 2.18464e-05 0)
(0.00102791 2.1968e-05 0)
(0.0010296 2.20347e-05 0)
(0.00103131 2.20485e-05 0)
(0.00103303 2.20087e-05 0)
(0.00103476 2.19171e-05 0)
(0.0010365 2.17716e-05 0)
(0.00103825 2.15746e-05 0)
(0.00104 2.1322e-05 0)
(0.00104177 2.10176e-05 0)
(0.00104354 2.06544e-05 0)
(0.00104532 2.0239e-05 0)
(0.0010471 1.97598e-05 0)
(0.00104889 1.92283e-05 0)
(0.00105067 1.8626e-05 0)
(0.00105247 1.79726e-05 0)
(0.00105426 1.72381e-05 0)
(0.00105606 1.64566e-05 0)
(0.00105784 1.55794e-05 0)
(0.00105966 1.46639e-05 0)
(0.00106144 1.3631e-05 0)
(0.00106326 1.25764e-05 0)
(0.00106504 1.13721e-05 0)
(0.00106689 1.01762e-05 0)
(0.00106865 8.78151e-06 0)
(0.00107054 7.44751e-06 0)
(0.00107229 5.84055e-06 0)
(0.00107423 4.38155e-06 0)
(0.00107596 2.53256e-06 0)
(0.00107797 9.71435e-07 0)
(0.00107965 -1.16348e-06 0)
(0.00108182 -2.79802e-06 0)
(0.00108345 -5.29997e-06 0)
(0.00108587 -6.95897e-06 0)
(0.00108742 -9.93739e-06 0)
(0.00109019 -1.15346e-05 0)
(0.0010915 -1.51455e-05 0)
(0.00109461 -1.65451e-05 0)
(0.001 6.91859e-07 0)
(0.00100013 2.05859e-06 0)
(0.00100038 3.39603e-06 0)
(0.00100076 4.69229e-06 0)
(0.00100125 5.93684e-06 0)
(0.00100186 7.12122e-06 0)
(0.00100258 8.23943e-06 0)
(0.00100338 9.2879e-06 0)
(0.00100428 1.0265e-05 0)
(0.00100525 1.11706e-05 0)
(0.00100628 1.20054e-05 0)
(0.00100738 1.27708e-05 0)
(0.00100853 1.34684e-05 0)
(0.00100974 1.40999e-05 0)
(0.00101099 1.46673e-05 0)
(0.00101228 1.51725e-05 0)
(0.00101361 1.56176e-05 0)
(0.00101498 1.60048e-05 0)
(0.00101637 1.63358e-05 0)
(0.00101779 1.66127e-05 0)
(0.00101924 1.68369e-05 0)
(0.0010207 1.70099e-05 0)
(0.00102219 1.71326e-05 0)
(0.0010237 1.72064e-05 0)
(0.00102522 1.72312e-05 0)
(0.00102676 1.72084e-05 0)
(0.0010283 1.71368e-05 0)
(0.00102986 1.7018e-05 0)
(0.00103143 1.68496e-05 0)
(0.00103301 1.66335e-05 0)
(0.00103459 1.63658e-05 0)
(0.00103618 1.60494e-05 0)
(0.00103777 1.5678e-05 0)
(0.00103936 1.52564e-05 0)
(0.00104095 1.47749e-05 0)
(0.00104255 1.42421e-05 0)
(0.00104414 1.36425e-05 0)
(0.00104574 1.29909e-05 0)
(0.00104733 1.22632e-05 0)
(0.00104892 1.14847e-05 0)
(0.00105049 1.06169e-05 0)
(0.00105208 9.70267e-06 0)
(0.00105364 8.68043e-06 0)
(0.00105523 7.62168e-06 0)
(0.00105677 6.42726e-06 0)
(0.00105835 5.21515e-06 0)
(0.00105988 3.82447e-06 0)
(0.00106148 2.44919e-06 0)
(0.00106299 8.33401e-07 0)
(0.00106463 -7.06685e-07 0)
(0.00106612 -2.58093e-06 0)
(0.00106784 -4.27594e-06 0)
(0.00106931 -6.44814e-06 0)
(0.00107112 -8.27932e-06 0)
(0.00107254 -1.08185e-05 0)
(0.00107452 -1.2757e-05 0)
(0.00107587 -1.57642e-05 0)
(0.0010781 -1.77629e-05 0)
(0.00107924 -2.13906e-05 0)
(0.00108166 -2.33595e-05 0)
(0.001 5.38484e-07 0)
(0.0010001 1.59985e-06 0)
(0.0010003 2.63854e-06 0)
(0.0010006 3.64753e-06 0)
(0.00100099 4.62026e-06 0)
(0.00100148 5.55098e-06 0)
(0.00100205 6.43497e-06 0)
(0.00100271 7.26878e-06 0)
(0.00100345 8.05007e-06 0)
(0.00100425 8.77755e-06 0)
(0.00100512 9.45073e-06 0)
(0.00100606 1.00697e-05 0)
(0.00100704 1.06348e-05 0)
(0.00100808 1.11467e-05 0)
(0.00100916 1.16062e-05 0)
(0.00101029 1.20143e-05 0)
(0.00101145 1.2372e-05 0)
(0.00101265 1.26805e-05 0)
(0.00101388 1.29408e-05 0)
(0.00101514 1.31542e-05 0)
(0.00101642 1.33214e-05 0)
(0.00101773 1.34435e-05 0)
(0.00101905 1.3521e-05 0)
(0.0010204 1.35546e-05 0)
(0.00102176 1.35443e-05 0)
(0.00102313 1.34908e-05 0)
(0.00102452 1.33933e-05 0)
(0.00102592 1.32523e-05 0)
(0.00102732 1.30663e-05 0)
(0.00102873 1.28358e-05 0)
(0.00103014 1.25583e-05 0)
(0.00103156 1.22348e-05 0)
(0.00103297 1.1861e-05 0)
(0.00103439 1.14389e-05 0)
(0.00103581 1.09621e-05 0)
(0.00103722 1.04345e-05 0)
(0.00103862 9.8463e-06 0)
(0.00104002 9.20459e-06 0)
(0.00104141 8.49449e-06 0)
(0.0010428 7.7287e-06 0)
(0.00104417 6.88405e-06 0)
(0.00104554 5.98295e-06 0)
(0.00104689 4.98894e-06 0)
(0.00104824 3.94036e-06 0)
(0.00104956 2.77966e-06 0)
(0.00105089 1.57161e-06 0)
(0.00105217 2.24999e-07 0)
(0.00105349 -1.15302e-06 0)
(0.00105474 -2.71356e-06 0)
(0.00105606 -4.27848e-06 0)
(0.00105728 -6.0896e-06 0)
(0.00105863 -7.85678e-06 0)
(0.00105981 -9.96872e-06 0)
(0.0010612 -1.19458e-05 0)
(0.00106234 -1.44144e-05 0)
(0.00106383 -1.66022e-05 0)
(0.00106488 -1.95111e-05 0)
(0.00106649 -2.19009e-05 0)
(0.00106734 -2.53656e-05 0)
(0.001069 -2.79231e-05 0)
(0.001 4.1693e-07 0)
(0.00100008 1.23539e-06 0)
(0.00100025 2.03402e-06 0)
(0.00100049 2.8084e-06 0)
(0.00100081 3.55428e-06 0)
(0.00100122 4.26776e-06 0)
(0.0010017 4.9455e-06 0)
(0.00100225 5.58485e-06 0)
(0.00100287 6.18381e-06 0)
(0.00100355 6.74099e-06 0)
(0.00100429 7.25544e-06 0)
(0.00100509 7.72664e-06 0)
(0.00100594 8.15444e-06 0)
(0.00100684 8.53903e-06 0)
(0.00100778 8.88078e-06 0)
(0.00100877 9.18029e-06 0)
(0.00100979 9.43822e-06 0)
(0.00101084 9.65534e-06 0)
(0.00101193 9.83235e-06 0)
(0.00101304 9.97005e-06 0)
(0.00101418 1.0069e-05 0)
(0.00101534 1.01298e-05 0)
(0.00101653 1.01528e-05 0)
(0.00101772 1.01384e-05 0)
(0.00101894 1.00865e-05 0)
(0.00102017 9.99721e-06 0)
(0.0010214 9.87003e-06 0)
(0.00102265 9.7048e-06 0)
(0.0010239 9.50046e-06 0)
(0.00102516 9.2566e-06 0)
(0.00102641 8.97154e-06 0)
(0.00102767 8.64472e-06 0)
(0.00102892 8.27363e-06 0)
(0.00103017 7.85775e-06 0)
(0.00103142 7.39346e-06 0)
(0.00103265 6.88064e-06 0)
(0.00103388 6.31408e-06 0)
(0.00103509 5.69468e-06 0)
(0.00103629 5.0149e-06 0)
(0.00103748 4.27748e-06 0)
(0.00103865 3.47083e-06 0)
(0.0010398 2.60145e-06 0)
(0.00104093 1.65183e-06 0)
(0.00104204 6.35495e-07 0)
(0.00104312 -4.75078e-07 0)
(0.0010442 -1.6548e-06 0)
(0.00104524 -2.94672e-06 0)
(0.00104628 -4.30659e-06 0)
(0.00104727 -5.80694e-06 0)
(0.00104826 -7.3695e-06 0)
(0.00104919 -9.11305e-06 0)
(0.00105016 -1.0903e-05 0)
(0.00105102 -1.29338e-05 0)
(0.00105198 -1.49772e-05 0)
(0.00105277 -1.735e-05 0)
(0.00105373 -1.96718e-05 0)
(0.00105441 -2.2457e-05 0)
(0.00105539 -2.50782e-05 0)
(0.00105586 -2.83655e-05 0)
(0.00105678 -3.12918e-05 0)
(0.001 3.15972e-07 0)
(0.00100007 9.32223e-07 0)
(0.00100021 1.52996e-06 0)
(0.00100041 2.1064e-06 0)
(0.00100069 2.65885e-06 0)
(0.00100103 3.18478e-06 0)
(0.00100144 3.68197e-06 0)
(0.00100191 4.14857e-06 0)
(0.00100244 4.58317e-06 0)
(0.00100303 4.98472e-06 0)
(0.00100367 5.35251e-06 0)
(0.00100436 5.68612e-06 0)
(0.0010051 5.98536e-06 0)
(0.00100589 6.25031e-06 0)
(0.00100672 6.48121e-06 0)
(0.00100758 6.67843e-06 0)
(0.00100849 6.84246e-06 0)
(0.00100942 6.97381e-06 0)
(0.00101038 7.073e-06 0)
(0.00101137 7.1405e-06 0)
(0.00101239 7.17676e-06 0)
(0.00101343 7.1821e-06 0)
(0.00101448 7.15674e-06 0)
(0.00101555 7.10075e-06 0)
(0.00101664 7.01409e-06 0)
(0.00101773 6.89647e-06 0)
(0.00101883 6.74757e-06 0)
(0.00101994 6.56664e-06 0)
(0.00102106 6.35306e-06 0)
(0.00102217 6.10561e-06 0)
(0.00102329 5.82337e-06 0)
(0.0010244 5.50465e-06 0)
(0.0010255 5.14822e-06 0)
(0.0010266 4.75179e-06 0)
(0.00102768 4.31385e-06 0)
(0.00102876 3.83134e-06 0)
(0.00102981 3.3023e-06 0)
(0.00103086 2.72301e-06 0)
(0.00103188 2.09155e-06 0)
(0.00103288 1.40355e-06 0)
(0.00103385 6.5716e-07 0)
(0.0010348 -1.53014e-07 0)
(0.00103572 -1.02939e-06 0)
(0.00103661 -1.97802e-06 0)
(0.00103747 -3.00272e-06 0)
(0.0010383 -4.10967e-06 0)
(0.00103909 -5.30629e-06 0)
(0.00103985 -6.59743e-06 0)
(0.00104056 -7.99212e-06 0)
(0.00104123 -9.49324e-06 0)
(0.00104185 -1.11174e-05 0)
(0.00104245 -1.28604e-05 0)
(0.00104297 -1.47523e-05 0)
(0.00104349 -1.67748e-05 0)
(0.00104389 -1.89807e-05 0)
(0.00104434 -2.13257e-05 0)
(0.00104459 -2.39016e-05 0)
(0.00104496 -2.66173e-05 0)
(0.00104496 -2.9628e-05 0)
(0.00104516 -3.27605e-05 0)
(0.001 2.29727e-07 0)
(0.00100006 6.73101e-07 0)
(0.00100018 1.09869e-06 0)
(0.00100036 1.50485e-06 0)
(0.0010006 1.88998e-06 0)
(0.00100089 2.25254e-06 0)
(0.00100125 2.59122e-06 0)
(0.00100166 2.90493e-06 0)
(0.00100212 3.19287e-06 0)
(0.00100264 3.4545e-06 0)
(0.0010032 3.68947e-06 0)
(0.00100381 3.89762e-06 0)
(0.00100447 4.07895e-06 0)
(0.00100516 4.23359e-06 0)
(0.0010059 4.36183e-06 0)
(0.00100667 4.46402e-06 0)
(0.00100747 4.54058e-06 0)
(0.0010083 4.59193e-06 0)
(0.00100916 4.61853e-06 0)
(0.00101005 4.62071e-06 0)
(0.00101096 4.59887e-06 0)
(0.00101189 4.55317e-06 0)
(0.00101283 4.48383e-06 0)
(0.00101379 4.39073e-06 0)
(0.00101476 4.2739e-06 0)
(0.00101574 4.13284e-06 0)
(0.00101673 3.96737e-06 0)
(0.00101772 3.77647e-06 0)
(0.00101871 3.55978e-06 0)
(0.0010197 3.31551e-06 0)
(0.00102068 3.04325e-06 0)
(0.00102166 2.74067e-06 0)
(0.00102263 2.4073e-06 0)
(0.00102359 2.03982e-06 0)
(0.00102453 1.63805e-06 0)
(0.00102545 1.19745e-06 0)
(0.00102636 7.1866e-07 0)
(0.00102724 1.95226e-07 0)
(0.00102809 -3.7132e-07 0)
(0.00102892 -9.89852e-07 0)
(0.00102972 -1.65669e-06 0)
(0.00103048 -2.38439e-06 0)
(0.00103121 -3.16658e-06 0)
(0.0010319 -4.02144e-06 0)
(0.00103254 -4.93784e-06 0)
(0.00103314 -5.94154e-06 0)
(0.00103369 -7.01367e-06 0)
(0.00103418 -8.19105e-06 0)
(0.00103462 -9.44303e-06 0)
(0.00103499 -1.08233e-05 0)
(0.00103531 -1.22834e-05 0)
(0.00103555 -1.39023e-05 0)
(0.00103573 -1.56037e-05 0)
(0.00103583 -1.7505e-05 0)
(0.00103584 -1.94864e-05 0)
(0.00103579 -2.17239e-05 0)
(0.0010356 -2.40292e-05 0)
(0.00103538 -2.66684e-05 0)
(0.00103489 -2.93426e-05 0)
(0.0010344 -3.24565e-05 0)
(0.001 1.54182e-07 0)
(0.00100005 4.46118e-07 0)
(0.00100016 7.20767e-07 0)
(0.00100032 9.77342e-07 0)
(0.00100053 1.21508e-06 0)
(0.00100079 1.43324e-06 0)
(0.00100111 1.63121e-06 0)
(0.00100147 1.80855e-06 0)
(0.00100189 1.96506e-06 0)
(0.00100235 2.10065e-06 0)
(0.00100285 2.21539e-06 0)
(0.0010034 2.30945e-06 0)
(0.00100398 2.38305e-06 0)
(0.00100461 2.43644e-06 0)
(0.00100527 2.46997e-06 0)
(0.00100596 2.48417e-06 0)
(0.00100668 2.47962e-06 0)
(0.00100743 2.45677e-06 0)
(0.00100821 2.41613e-06 0)
(0.00100901 2.35805e-06 0)
(0.00100983 2.28296e-06 0)
(0.00101067 2.19098e-06 0)
(0.00101152 2.08238e-06 0)
(0.00101238 1.95699e-06 0)
(0.00101326 1.81489e-06 0)
(0.00101414 1.65553e-06 0)
(0.00101502 1.47881e-06 0)
(0.00101591 1.28372e-06 0)
(0.0010168 1.07009e-06 0)
(0.00101768 8.36413e-07 0)
(0.00101855 5.82389e-07 0)
(0.00101941 3.05431e-07 0)
(0.00102026 5.47699e-09 0)
(0.0010211 -3.21112e-07 0)
(0.00102192 -6.73867e-07 0)
(0.00102271 -1.05783e-06 0)
(0.00102348 -1.47129e-06 0)
(0.00102423 -1.92164e-06 0)
(0.00102494 -2.40572e-06 0)
(0.00102562 -2.93434e-06 0)
(0.00102626 -3.50177e-06 0)
(0.00102685 -4.12354e-06 0)
(0.00102741 -4.78902e-06 0)
(0.00102791 -5.52085e-06 0)
(0.00102836 -6.30069e-06 0)
(0.00102874 -7.16237e-06 0)
(0.00102907 -8.07534e-06 0)
(0.00102933 -9.09062e-06 0)
(0.00102952 -1.01583e-05 0)
(0.00102962 -1.1356e-05 0)
(0.00102965 -1.26031e-05 0)
(0.00102958 -1.40189e-05 0)
(0.00102943 -1.54735e-05 0)
(0.00102916 -1.7152e-05 0)
(0.00102879 -1.88453e-05 0)
(0.0010283 -2.0843e-05 0)
(0.00102767 -2.28083e-05 0)
(0.00102692 -2.51969e-05 0)
(0.00102594 -2.74633e-05 0)
(0.00102484 -3.03283e-05 0)
(0.001 8.63323e-08 0)
(0.00100005 2.42232e-07 0)
(0.00100015 3.81187e-07 0)
(0.00100029 5.03116e-07 0)
(0.00100048 6.07943e-07 0)
(0.00100072 6.9557e-07 0)
(0.00100101 7.65973e-07 0)
(0.00100134 8.19286e-07 0)
(0.00100172 8.55802e-07 0)
(0.00100213 8.75946e-07 0)
(0.00100259 8.8021e-07 0)
(0.00100309 8.69102e-07 0)
(0.00100363 8.43217e-07 0)
(0.0010042 8.03188e-07 0)
(0.0010048 7.49716e-07 0)
(0.00100543 6.83309e-07 0)
(0.00100609 6.04579e-07 0)
(0.00100678 5.14107e-07 0)
(0.00100749 4.12515e-07 0)
(0.00100822 3.00246e-07 0)
(0.00100897 1.77802e-07 0)
(0.00100973 4.54085e-08 0)
(0.00101051 -9.65981e-08 0)
(0.00101129 -2.48299e-07 0)
(0.00101209 -4.09533e-07 0)
(0.00101289 -5.80759e-07 0)
(0.00101369 -7.61972e-07 0)
(0.00101449 -9.54061e-07 0)
(0.00101529 -1.1571e-06 0)
(0.00101608 -1.3724e-06 0)
(0.00101687 -1.60016e-06 0)
(0.00101764 -1.84268e-06 0)
(0.00101839 -2.09993e-06 0)
(0.00101913 -2.37519e-06 0)
(0.00101984 -2.66796e-06 0)
(0.00102053 -2.98302e-06 0)
(0.00102119 -3.31916e-06 0)
(0.00102181 -3.68314e-06 0)
(0.0010224 -4.07191e-06 0)
(0.00102295 -4.49527e-06 0)
(0.00102346 -4.94738e-06 0)
(0.00102392 -5.4426e-06 0)
(0.00102432 -5.97039e-06 0)
(0.00102466 -6.55208e-06 0)
(0.00102495 -7.16955e-06 0)
(0.00102516 -7.85503e-06 0)
(0.00102531 -8.57818e-06 0)
(0.00102536 -9.3883e-06 0)
(0.00102534 -1.02353e-05 0)
(0.00102522 -1.11954e-05 0)
(0.001025 -1.21867e-05 0)
(0.00102467 -1.3328e-05 0)
(0.00102423 -1.44861e-05 0)
(0.00102365 -1.58481e-05 0)
(0.00102295 -1.71973e-05 0)
(0.00102208 -1.88306e-05 0)
(0.00102107 -2.0395e-05 0)
(0.00101986 -2.23652e-05 0)
(0.00101846 -2.41629e-05 0)
(0.00101683 -2.65506e-05 0)
(0.001 2.37829e-08 0)
(0.00100005 5.46397e-08 0)
(0.00100014 6.91223e-08 0)
(0.00100027 6.76739e-08 0)
(0.00100045 5.07448e-08 0)
(0.00100067 1.87642e-08 0)
(0.00100094 -2.77671e-08 0)
(0.00100125 -8.82119e-08 0)
(0.0010016 -1.61807e-07 0)
(0.00100199 -2.47704e-07 0)
(0.00100242 -3.45027e-07 0)
(0.00100288 -4.52911e-07 0)
(0.00100338 -5.70436e-07 0)
(0.00100391 -6.96668e-07 0)
(0.00100447 -8.30659e-07 0)
(0.00100506 -9.7168e-07 0)
(0.00100567 -1.11894e-06 0)
(0.00100631 -1.2717e-06 0)
(0.00100697 -1.42917e-06 0)
(0.00100765 -1.59074e-06 0)
(0.00100835 -1.75577e-06 0)
(0.00100905 -1.92384e-06 0)
(0.00100977 -2.09449e-06 0)
(0.0010105 -2.2676e-06 0)
(0.00101124 -2.44293e-06 0)
(0.00101198 -2.62069e-06 0)
(0.00101272 -2.80083e-06 0)
(0.00101345 -2.98401e-06 0)
(0.00101418 -3.17035e-06 0)
(0.00101491 -3.36115e-06 0)
(0.00101562 -3.55654e-06 0)
(0.00101631 -3.7582e-06 0)
(0.00101699 -3.96628e-06 0)
(0.00101765 -4.18331e-06 0)
(0.00101828 -4.40916e-06 0)
(0.00101889 -4.64744e-06 0)
(0.00101946 -4.89747e-06 0)
(0.00102 -5.16427e-06 0)
(0.00102049 -5.44599e-06 0)
(0.00102094 -5.7498e-06 0)
(0.00102135 -6.07188e-06 0)
(0.00102169 -6.42264e-06 0)
(0.00102199 -6.79502e-06 0)
(0.00102221 -7.20438e-06 0)
(0.00102237 -7.63832e-06 0)
(0.00102245 -8.1199e-06 0)
(0.00102245 -8.628e-06 0)
(0.00102235 -9.19783e-06 0)
(0.00102217 -9.79407e-06 0)
(0.00102187 -1.04712e-05 0)
(0.00102147 -1.1171e-05 0)
(0.00102093 -1.19788e-05 0)
(0.00102027 -1.27988e-05 0)
(0.00101945 -1.37662e-05 0)
(0.0010185 -1.47237e-05 0)
(0.00101735 -1.5888e-05 0)
(0.00101603 -1.69997e-05 0)
(0.00101449 -1.84089e-05 0)
(0.00101275 -1.96862e-05 0)
(0.00101073 -2.14e-05 0)
(0.001 -3.51012e-08 0)
(0.00100004 -1.21847e-07 0)
(0.00100013 -2.24347e-07 0)
(0.00100026 -3.41702e-07 0)
(0.00100043 -4.72979e-07 0)
(0.00100065 -6.1723e-07 0)
(0.0010009 -7.73444e-07 0)
(0.0010012 -9.40512e-07 0)
(0.00100153 -1.11723e-06 0)
(0.0010019 -1.30239e-06 0)
(0.00100231 -1.49476e-06 0)
(0.00100275 -1.69313e-06 0)
(0.00100323 -1.89633e-06 0)
(0.00100373 -2.10326e-06 0)
(0.00100427 -2.31283e-06 0)
(0.00100483 -2.52387e-06 0)
(0.00100541 -2.73526e-06 0)
(0.00100602 -2.94601e-06 0)
(0.00100665 -3.1552e-06 0)
(0.00100729 -3.36199e-06 0)
(0.00100795 -3.56559e-06 0)
(0.00100862 -3.7654e-06 0)
(0.00100931 -3.96087e-06 0)
(0.00101 -4.15165e-06 0)
(0.00101069 -4.33744e-06 0)
(0.00101139 -4.51821e-06 0)
(0.00101208 -4.6939e-06 0)
(0.00101277 -4.86482e-06 0)
(0.00101346 -5.03111e-06 0)
(0.00101413 -5.19344e-06 0)
(0.0010148 -5.35214e-06 0)
(0.00101544 -5.5082e-06 0)
(0.00101607 -5.66208e-06 0)
(0.00101667 -5.81521e-06 0)
(0.00101725 -5.96811e-06 0)
(0.0010178 -6.12269e-06 0)
(0.00101831 -6.27936e-06 0)
(0.00101878 -6.44068e-06 0)
(0.00101922 -6.60673e-06 0)
(0.0010196 -6.78094e-06 0)
(0.00101994 -6.96281e-06 0)
(0.00102021 -7.15698e-06 0)
(0.00102043 -7.36191e-06 0)
(0.00102057 -7.58401e-06 0)
(0.00102065 -7.81998e-06 0)
(0.00102064 -8.07887e-06 0)
(0.00102055 -8.35454e-06 0)
(0.00102035 -8.66014e-06 0)
(0.00102006 -8.9848e-06 0)
(0.00101966 -9.34823e-06 0)
(0.00101913 -9.73181e-06 0)
(0.00101847 -1.01658e-05 0)
(0.00101767 -1.06188e-05 0)
(0.00101671 -1.11383e-05 0)
(0.00101559 -1.16713e-05 0)
(0.00101427 -1.22943e-05 0)
(0.00101276 -1.29175e-05 0)
(0.00101102 -1.36656e-05 -5.29081e-38)
(0.00100906 -1.43863e-05 0)
(0.00100682 -1.52857e-05 0)
(0.001 -9.25107e-08 0)
(0.00100004 -2.93999e-07 0)
(0.00100013 -5.10656e-07 0)
(0.00100026 -7.41072e-07 0)
(0.00100042 -9.83788e-07 0)
(0.00100064 -1.23734e-06 0)
(0.00100089 -1.50022e-06 0)
(0.00100118 -1.77087e-06 0)
(0.00100151 -2.0477e-06 0)
(0.00100187 -2.32908e-06 0)
(0.00100227 -2.61344e-06 0)
(0.0010027 -2.89925e-06 0)
(0.00100317 -3.18502e-06 0)
(0.00100366 -3.46929e-06 0)
(0.00100419 -3.75067e-06 0)
(0.00100474 -4.02781e-06 0)
(0.00100531 -4.29944e-06 0)
(0.0010059 -4.56435e-06 0)
(0.00100651 -4.82144e-06 0)
(0.00100714 -5.06968e-06 0)
(0.00100778 -5.3082e-06 0)
(0.00100844 -5.5362e-06 0)
(0.0010091 -5.75304e-06 0)
(0.00100977 -5.95817e-06 0)
(0.00101044 -6.15123e-06 0)
(0.00101112 -6.3319e-06 0)
(0.00101179 -6.50009e-06 0)
(0.00101246 -6.6557e-06 0)
(0.00101312 -6.79889e-06 0)
(0.00101377 -6.92975e-06 0)
(0.0010144 -7.04873e-06 0)
(0.00101502 -7.15605e-06 0)
(0.00101562 -7.25251e-06 0)
(0.0010162 -7.33837e-06 0)
(0.00101675 -7.41478e-06 0)
(0.00101726 -7.48193e-06 0)
(0.00101775 -7.54143e-06 0)
(0.00101819 -7.59318e-06 0)
(0.00101859 -7.63942e-06 0)
(0.00101894 -7.67946e-06 0)
(0.00101925 -7.71647e-06 0)
(0.00101949 -7.74872e-06 0)
(0.00101967 -7.78081e-06 0)
(0.00101978 -7.80917e-06 0)
(0.00101982 -7.84075e-06 0)
(0.00101977 -7.86889e-06 0)
(0.00101964 -7.9044e-06 0)
(0.00101941 -7.9355e-06 0)
(0.00101908 -7.97932e-06 0)
(0.00101863 -8.01573e-06 0)
(0.00101806 -8.0721e-06 0)
(0.00101736 -8.11487e-06 0)
(0.0010165 -8.18792e-06 0)
(0.0010155 -8.23619e-06 0)
(0.00101431 -8.33013e-06 0)
(0.00101295 -8.38031e-06 0)
(0.00101138 -8.49986e-06 0)
(0.00100959 -8.54447e-06 5.29081e-38)
(0.00100755 -8.69514e-06 0)
(0.00100527 -8.71878e-06 0)
(0.001 -1.50509e-07 0)
(0.00100004 -4.67556e-07 0)
(0.00100013 -7.9883e-07 0)
(0.00100026 -1.14241e-06 0)
(0.00100043 -1.49632e-06 0)
(0.00100065 -1.85862e-06 0)
(0.0010009 -2.22735e-06 0)
(0.0010012 -2.60053e-06 0)
(0.00100153 -2.97616e-06 0)
(0.0010019 -3.35227e-06 0)
(0.0010023 -3.72695e-06 0)
(0.00100274 -4.09833e-06 0)
(0.00100321 -4.46466e-06 0)
(0.00100371 -4.82424e-06 0)
(0.00100423 -5.17545e-06 0)
(0.00100479 -5.51673e-06 0)
(0.00100536 -5.84663e-06 0)
(0.00100595 -6.16375e-06 0)
(0.00100657 -6.46684e-06 0)
(0.0010072 -6.75472e-06 0)
(0.00100784 -7.02639e-06 0)
(0.00100849 -7.28087e-06 0)
(0.00100916 -7.51743e-06 0)
(0.00100982 -7.73532e-06 0)
(0.0010105 -7.93409e-06 0)
(0.00101117 -8.11318e-06 0)
(0.00101184 -8.27245e-06 0)
(0.0010125 -8.41144e-06 0)
(0.00101316 -8.53034e-06 0)
(0.00101381 -8.6287e-06 0)
(0.00101444 -8.70711e-06 0)
(0.00101506 -8.76507e-06 0)
(0.00101566 -8.8036e-06 0)
(0.00101623 -8.82194e-06 0)
(0.00101678 -8.82175e-06 0)
(0.00101729 -8.80166e-06 0)
(0.00101778 -8.76423e-06 0)
(0.00101822 -8.70702e-06 0)
(0.00101862 -8.63399e-06 0)
(0.00101898 -8.54084e-06 0)
(0.00101928 -8.43379e-06 0)
(0.00101953 -8.30546e-06 0)
(0.00101972 -8.16576e-06 0)
(0.00101984 -8.00219e-06 0)
(0.00101989 -7.83073e-06 0)
(0.00101986 -7.63055e-06 0)
(0.00101974 -7.42758e-06 0)
(0.00101953 -7.18742e-06 0)
(0.00101922 -6.95235e-06 0)
(0.00101881 -6.66596e-06 0)
(0.00101826 -6.39737e-06 0)
(0.0010176 -6.05445e-06 0)
(0.00101678 -5.75024e-06 0)
(0.00101584 -5.33434e-06 0)
(0.0010147 -4.9918e-06 0)
(0.00101342 -4.47801e-06 0)
(0.0010119 -4.09406e-06 0)
(0.00101022 -3.44494e-06 0)
(0.00100825 -3.02543e-06 0)
(0.00100611 -2.19402e-06 0)
(0.001 -2.10518e-07 0)
(0.00100005 -6.46918e-07 0)
(0.00100014 -1.09637e-06 0)
(0.00100027 -1.55643e-06 0)
(0.00100045 -2.02461e-06 0)
(0.00100068 -2.49844e-06 0)
(0.00100094 -2.97548e-06 0)
(0.00100125 -3.45332e-06 0)
(0.0010016 -3.92956e-06 0)
(0.00100199 -4.40185e-06 0)
(0.00100241 -4.86794e-06 0)
(0.00100286 -5.32569e-06 0)
(0.00100335 -5.77306e-06 0)
(0.00100387 -6.20814e-06 0)
(0.00100441 -6.6291e-06 0)
(0.00100498 -7.03421e-06 0)
(0.00100558 -7.42187e-06 0)
(0.00100619 -7.79053e-06 0)
(0.00100682 -8.13887e-06 0)
(0.00100747 -8.46556e-06 0)
(0.00100813 -8.76952e-06 0)
(0.00100881 -9.04967e-06 0)
(0.00100949 -9.30521e-06 0)
(0.00101017 -9.53523e-06 0)
(0.00101086 -9.73923e-06 0)
(0.00101155 -9.91646e-06 0)
(0.00101224 -1.00667e-05 0)
(0.00101293 -1.01893e-05 0)
(0.0010136 -1.02842e-05 0)
(0.00101427 -1.03509e-05 0)
(0.00101493 -1.03898e-05 0)
(0.00101556 -1.04e-05 0)
(0.00101618 -1.03824e-05 0)
(0.00101678 -1.03357e-05 0)
(0.00101735 -1.02616e-05 0)
(0.0010179 -1.01577e-05 0)
(0.00101841 -1.0027e-05 0)
(0.00101888 -9.86544e-06 0)
(0.00101932 -9.67787e-06 0)
(0.00101971 -9.45756e-06 0)
(0.00102005 -9.21243e-06 0)
(0.00102035 -8.93132e-06 0)
(0.00102058 -8.62725e-06 0)
(0.00102076 -8.28178e-06 0)
(0.00102086 -7.91636e-06 0)
(0.00102089 -7.50069e-06 0)
(0.00102084 -7.07023e-06 0)
(0.00102072 -6.57533e-06 0)