/*--------------------------------*- C++ -*----------------------------------*\
| =========                 |                                                 |
| \\      /  F ield         | OpenFOAM: The Open Source CFD Toolbox           |
|  \\    /   O peration     | Version:  2312                                  |
|   \\  /    A nd           | Website:  www.openfoam.com                      |
|    \\/     M anipulation  |                                                 |
\*---------------------------------------------------------------------------*/
FoamFile
{
    version     2.0;
    format      ascii;
    arch        "LSB;label=32;scalar=64";
    class       volVectorField;
    location    "186000";
    object      U;
}
// * * * * * * * * * * * * * * * * * * * * * * * * * * * * * * * * * * * * * //

dimensions      [0 1 -1 0 0 0 0];

internalField   nonuniform List<vector> 
2715
(
(0.000258313 2.94266e-05 1.53403e-24)
(0.00026679 -2.69034e-06 0)
(0.000230047 -1.56659e-06 0)
(0.000213073 -2.33316e-06 0)
(0.000204076 -2.35645e-06 -4.25316e-23)
(0.000206271 -2.71151e-06 4.15768e-23)
(0.000207179 -2.91975e-06 0)
(0.000217482 -3.66115e-06 1.25134e-24)
(0.000222975 -3.42198e-06 0)
(0.000238047 -3.84008e-06 0)
(0.000245119 -3.1826e-06 -5.50302e-25)
(0.000261611 -3.26733e-06 0)
(0.000267313 -2.14079e-06 -2.40862e-25)
(0.000281983 -1.89365e-06 0)
(0.000283516 -3.87883e-07 -1.31671e-23)
(0.000293768 8.7223e-08 1.31668e-23)
(0.000289387 1.47205e-06 0)
(0.000293682 1.43929e-06 1.46398e-25)
(0.000282861 2.9511e-06 0)
(0.000281524 2.5244e-06 0)
(0.000264999 3.81847e-06 0)
(0.000258911 2.97006e-06 0)
(0.000238088 4.11944e-06 -3.24458e-25)
(0.000228368 2.67144e-06 0)
(0.000205302 4.06892e-06 8.05075e-24)
(0.000192971 2.44103e-06 -7.72467e-24)
(0.000171693 2.85228e-06 0)
(0.00015079 2.32561e-06 0)
(0.000170175 1.3839e-05 0)
(-7.17993e-06 -6.71501e-06 5.91812e-26)
(0.000517926 4.87463e-05 9.32589e-23)
(0.000565908 1.38985e-05 -9.87385e-23)
(0.000537084 1.6558e-05 2.81533e-24)
(0.000527797 9.09564e-06 0)
(0.00051777 3.61617e-06 0)
(0.0005275 -8.08556e-07 4.37277e-23)
(0.000527132 -2.351e-06 -1.34127e-24)
(0.000549588 -5.20454e-06 -4.29616e-23)
(0.000555919 -5.23015e-06 -1.23286e-24)
(0.000587549 -7.33201e-06 0)
(0.000596989 -6.08719e-06 -1.57905e-23)
(0.000633126 -7.62475e-06 1.75463e-23)
(0.00064175 -5.20743e-06 -7.34907e-24)
(0.000677443 -6.2847e-06 4.12402e-24)
(0.000681109 -2.82217e-06 -3.70304e-23)
(0.000711799 -3.63071e-06 4.33929e-23)
(0.000706912 6.6061e-07 2.27396e-24)
(0.000729289 -3.92473e-07 -5.2751e-24)
(0.000713874 4.73394e-06 8.16135e-24)
(0.000726078 3.46713e-06 -8.61243e-24)
(0.000699288 8.90752e-06 0)
(0.000699968 6.84493e-06 3.85233e-25)
(0.000662337 1.27882e-05 -1.01207e-23)
(0.000649337 9.65995e-06 9.68181e-25)
(0.000605015 1.5808e-05 9.06816e-24)
(0.000569733 1.0465e-05 0)
(0.000540509 2.09627e-05 0)
(0.000423929 -1.00561e-06 -3.75256e-25)
(0.000548184 4.82245e-05 -2.86843e-24)
(9.68979e-05 -4.88566e-06 3.18732e-24)
(0.000693402 4.9166e-05 6.20208e-24)
(0.000741164 4.48274e-06 -8.93082e-23)
(0.000730703 5.75438e-06 9.03445e-23)
(0.000737126 2.1406e-07 5.68851e-24)
(0.000733267 -4.49372e-06 0)
(0.00075169 -1.07837e-05 0)
(0.000752486 -1.28705e-05 -2.68167e-24)
(0.000781261 -1.76309e-05 0)
(0.000787084 -1.75735e-05 -2.10014e-23)
(0.000825044 -2.14954e-05 1.00496e-24)
(0.000834294 -1.91245e-05 3.67919e-23)
(0.000877801 -2.1933e-05 -1.79194e-23)
(0.000887276 -1.69809e-05 0)
(0.000931846 -1.87037e-05 0)
(0.000937829 -1.12856e-05 -6.94335e-23)
(0.000979022 -1.24308e-05 6.94221e-23)
(0.000978267 -2.92359e-06 3.45481e-25)
(0.00101237 -4.02215e-06 0)
(0.00100297 7.00529e-06 -8.40383e-24)
(0.00102654 4.91819e-06 1.58689e-23)
(0.00100826 1.75812e-05 -7.52436e-25)
(0.00101688 1.36369e-05 -6.27243e-24)
(0.00099311 2.90028e-05 0)
(0.000976602 2.09919e-05 6.4368e-25)
(0.000959814 4.33188e-05 0)
(0.000889997 2.25789e-05 0)
(0.000924592 6.80794e-05 -9.388e-25)
(0.00071299 7.34848e-06 1.36824e-23)
(0.00092804 0.000117569 -1.358e-23)
(0.000405378 -1.11754e-05 1.1432e-25)
(0.000824956 3.69512e-05 9.10867e-23)
(0.000864739 -6.93674e-08 -1.92643e-22)
(0.000863758 4.87661e-07 5.44053e-23)
(0.000876948 -3.71667e-06 4.12103e-23)
(0.000877461 -8.45323e-06 0)
(0.000899701 -1.64677e-05 5.61932e-24)
(0.00090394 -1.92144e-05 -2.72934e-24)
(0.000934119 -2.61514e-05 0)
(0.00094267 -2.6184e-05 2.5901e-24)
(0.000979889 -3.21164e-05 -1.92403e-23)
(0.000991982 -2.89247e-05 1.8158e-23)
(0.00103352 -3.35653e-05 0)
(0.00104704 -2.67818e-05 -7.91492e-24)
(0.00108917 -3.02695e-05 4.29307e-24)
(0.00110159 -1.98946e-05 -9.54326e-23)
(0.00114019 -2.29102e-05 1.02071e-22)
(0.00114973 -9.10753e-06 2.04255e-24)
(0.00118046 -1.28519e-05 -5.38336e-24)
(0.00118717 4.31693e-06 0)
(0.0012049 -1.79895e-06 8.22303e-24)
(0.001212 2.01432e-05 -7.67426e-24)
(0.00120826 9.18087e-06 -8.17377e-25)
(0.00122435 3.95691e-05 0)
(0.00118242 1.82394e-05 6.38407e-25)
(0.00122709 6.52374e-05 0)
(0.00111221 2.16552e-05 1.01923e-24)
(0.00122862 0.000102772 7.65835e-24)
(0.000977804 1.47602e-05 5.90502e-24)
(0.00123712 0.00014668 -2.06779e-23)
(0.000786771 3.82511e-05 7.42682e-24)
(0.000927906 2.36514e-05 0)
(0.000958095 -4.92027e-06 8.40991e-23)
(0.000961574 -8.83461e-06 -1.51097e-22)
(0.000975545 -1.41101e-05 4.22372e-23)
(0.000979511 -1.86866e-05 0)
(0.00100154 -2.79398e-05 -5.78112e-24)
(0.00101004 -3.05179e-05 5.64642e-24)
(0.00103739 -3.84808e-05 0)
(0.00105033 -3.78343e-05 5.26178e-24)
(0.00108228 -4.50521e-05 0)
(0.00109974 -4.06939e-05 2.38553e-24)
(0.00113384 -4.68489e-05 0)
(0.00115466 -3.79955e-05 0)
(0.00118726 -4.33206e-05 0)
(0.00121024 -2.96102e-05 -1.29702e-22)
(0.00123692 -3.51619e-05 1.29698e-22)
(0.00126197 -1.63515e-05 0)
(0.00127758 -2.3976e-05 0)
(0.00130698 6.90276e-07 0)
(0.00130496 -1.14876e-05 -1.02422e-24)
(0.0013444 2.1162e-05 0)
(0.001315 7.16485e-07 -1.62784e-24)
(0.00137516 4.60097e-05 0)
(0.00130247 1.17739e-05 -1.33808e-24)
(0.00140059 7.7213e-05 0)
(0.00126127 2.14388e-05 -1.04825e-24)
(0.00142123 0.000115411 7.72864e-24)
(0.00118865 3.26924e-05 -1.86429e-23)
(0.00143315 0.000143482 1.42505e-23)
(0.00108783 7.48958e-05 0)
(0.00100867 9.70762e-06 8.82497e-23)
(0.00103048 -1.05935e-05 -2.01189e-22)
(0.00103676 -1.79401e-05 1.48927e-22)
(0.00104984 -2.4228e-05 -4.33247e-23)
(0.00105649 -2.76884e-05 -4.76435e-23)
(0.00107566 -3.73329e-05 4.21982e-23)
(0.00108762 -4.01807e-05 4.53754e-23)
(0.0011106 -4.94306e-05 -8.96469e-23)
(0.00112772 -4.86558e-05 3.87968e-23)
(0.00115332 -5.70803e-05 0)
(0.00117608 -5.19395e-05 -2.45935e-24)
(0.0012018 -5.94329e-05 2.28343e-24)
(0.00122974 -4.8912e-05 -8.20518e-24)
(0.00125184 -5.5915e-05 4.45629e-24)
(0.00128463 -3.93956e-05 -1.57225e-22)
(0.00129858 -4.72722e-05 1.64092e-22)
(0.001337 -2.4312e-05 2.47483e-24)
(0.00133773 -3.52435e-05 -5.55999e-24)
(0.00138451 -4.98802e-06 -1.16567e-24)
(0.00136621 -2.17062e-05 1.0559e-24)
(0.00142647 1.76812e-05 0)
(0.00138212 -7.65834e-06 1.43914e-23)
(0.00146318 4.38765e-05 -2.39285e-23)
(0.0013843 7.23858e-06 1.12145e-23)
(0.00149422 7.41187e-05 1.01752e-23)
(0.00137238 2.52698e-05 -8.86855e-24)
(0.00151673 0.000104814 -7.95727e-24)
(0.00134739 5.29487e-05 2.04829e-23)
(0.00152569 0.00012242 -2.42932e-23)
(0.00130865 0.000103454 1.12978e-23)
(0.00107037 -3.62146e-06 -9.01558e-23)
(0.00108592 -1.73638e-05 1.58972e-23)
(0.00109382 -2.63695e-05 1.02938e-22)
(0.00110582 -3.4204e-05 -1.25814e-23)
(0.00111435 -3.78576e-05 4.89731e-23)
(0.00113061 -4.77429e-05 -3.12044e-23)
(0.00114484 -5.08759e-05 0)
(0.00116411 -6.07385e-05 0)
(0.00118387 -6.00666e-05 0)
(0.00120459 -6.89743e-05 5.2589e-24)
(0.00123039 -6.35132e-05 2.48634e-24)
(0.00125022 -7.14948e-05 -2.35673e-24)
(0.00128187 -6.01765e-05 0)
(0.0012973 -6.77144e-05 9.89931e-25)
(0.0013346 -4.99056e-05 -1.92782e-22)
(0.00134168 -5.83547e-05 1.92776e-22)
(0.00138513 -3.38324e-05 -7.35412e-25)
(0.00137991 -4.51417e-05 0)
(0.00143126 -1.36938e-05 1.20308e-24)
(0.00141004 -2.98245e-05 -1.03051e-24)
(0.00147215 9.10204e-06 -1.87159e-24)
(0.00143167 -1.30206e-05 0)
(0.0015078 3.38999e-05 0)
(0.00144531 6.3944e-06 0)
(0.00153755 5.98553e-05 -1.26106e-23)
(0.00145158 3.16923e-05 8.85523e-24)
(0.00155944 8.38541e-05 0)
(0.00145015 6.81827e-05 1.02549e-23)
(0.00157059 0.000102131 -1.52595e-24)
(0.00143874 0.000114781 -1.09246e-23)
(0.00111459 -1.56896e-05 0)
(0.00112618 -2.54531e-05 -1.32603e-23)
(0.00113484 -3.45338e-05 5.18067e-23)
(0.00114607 -4.38034e-05 -3.94674e-23)
(0.00115587 -4.82769e-05 0)
(0.0011701 -5.808e-05 -1.25562e-23)
(0.0011854 -6.16819e-05 0)
(0.00120235 -7.1545e-05 0)
(0.00122298 -7.14654e-05 0)
(0.00124109 -8.01361e-05 1.55365e-23)
(0.00126728 -7.5154e-05 -4.33704e-23)
(0.00128459 -8.25955e-05 2.66201e-23)
(0.00131599 -7.17665e-05 -9.21474e-24)
(0.00132961 -7.8321e-05 -1.02299e-24)
(0.00136563 -6.12553e-05 -2.25584e-22)
(0.00137251 -6.79875e-05 2.25506e-22)
(0.00141296 -4.49846e-05 7.59972e-25)
(0.00141046 -5.32941e-05 -5.06339e-24)
(0.00145584 -2.50529e-05 1.52255e-23)
(0.00144215 -3.58839e-05 -1.59148e-23)
(0.00149355 -3.32277e-06 9.90586e-24)
(0.00146778 -1.61971e-05 0)
(0.00152617 1.90062e-05 0)
(0.00148825 6.98685e-06 0)
(0.00155361 4.11918e-05 2.48448e-24)
(0.00150409 3.65878e-05 0)
(0.00157475 6.27349e-05 -6.7548e-24)
(0.00151503 7.46533e-05 6.67374e-24)
(0.00158696 8.52335e-05 1.2022e-24)
(0.00152142 0.00011639 0)
(0.00114271 -2.65015e-05 1.37603e-23)
(0.00115233 -3.45754e-05 1.08078e-22)
(0.00116131 -4.30876e-05 -5.60322e-23)
(0.00117202 -5.308e-05 -1.32329e-24)
(0.0011827 -5.87701e-05 -5.34483e-23)
(0.00119583 -6.8309e-05 0)
(0.00121141 -7.26567e-05 4.92272e-23)
(0.00122726 -8.19732e-05 -2.28092e-24)
(0.0012476 -8.29488e-05 -4.19912e-23)
(0.00126484 -9.06971e-05 -2.14352e-23)
(0.00128978 -8.69714e-05 2.15653e-23)
(0.00130689 -9.2878e-05 2.4481e-24)
(0.00133578 -8.37336e-05 2.22677e-24)
(0.00135053 -8.79053e-05 -1.0143e-24)
(0.00138232 -7.33325e-05 -2.56929e-22)
(0.00139244 -7.64407e-05 2.56944e-22)
(0.00142632 -5.73301e-05 7.42194e-25)
(0.00143014 -6.01852e-05 -1.30815e-24)
(0.00146585 -3.80707e-05 -1.21836e-24)
(0.00146263 -4.08081e-05 7.98254e-24)
(0.00150038 -1.76657e-05 -7.93434e-24)
(0.00149032 -1.89219e-05 -1.41499e-23)
(0.00153028 2.6419e-06 1.32811e-24)
(0.00151428 6.31022e-06 1.1018e-23)
(0.00155594 2.28583e-05 0)
(0.00153531 3.656e-05 -7.45468e-24)
(0.00157666 4.47692e-05 9.53213e-25)
(0.00155359 7.21056e-05 -4.20832e-24)
(0.00158993 7.19156e-05 1.02613e-23)
(0.00157003 0.000110301 -8.26394e-25)
(0.00115623 -3.61603e-05 -1.26587e-22)
(0.00116535 -4.41997e-05 1.28101e-22)
(0.00117455 -5.23607e-05 -4.1273e-23)
(0.00118499 -6.23015e-05 9.67169e-23)
(0.00119637 -6.92574e-05 -5.52306e-23)
(0.00120911 -7.84262e-05 -3.89888e-23)
(0.00122474 -8.37604e-05 3.99257e-23)
(0.00124023 -9.21537e-05 0)
(0.00125998 -9.44947e-05 -1.19528e-23)
(0.00127721 -0.000100832 5.62912e-24)
(0.00130062 -9.89013e-05 0)
(0.00131844 -0.000102607 -9.49467e-24)
(0.00134455 -9.59182e-05 9.48244e-24)
(0.00136121 -9.68571e-05 2.55998e-26)
(0.00138868 -8.57679e-05 -2.88926e-22)
(0.00140241 -8.4293e-05 2.88967e-22)
(0.00143008 -7.01463e-05 -2.77676e-26)
(0.00143977 -6.66862e-05 5.10078e-24)
(0.00146703 -5.15152e-05 -5.03038e-24)
(0.00147244 -4.58659e-05 0)
(0.00149918 -3.20428e-05 -1.80642e-24)
(0.00150094 -2.28268e-05 3.23074e-24)
(0.00152718 -1.27525e-05 0)
(0.00152651 2.54055e-06 1.19851e-23)
(0.0015518 7.05522e-06 -1.15824e-23)
(0.00155029 3.09902e-05 -7.13824e-24)
(0.00157285 2.99942e-05 1.46175e-23)
(0.00157284 6.31454e-05 -5.93445e-24)
(0.00158877 5.91464e-05 6.24761e-24)
(0.0015934 9.97803e-05 -5.72641e-24)
(0.00115732 -4.51586e-05 -1.162e-22)
(0.00116674 -5.39202e-05 2.18759e-22)
(0.00117636 -6.23073e-05 -1.46035e-22)
(0.0011868 -7.17938e-05 8.5034e-23)
(0.00119889 -7.98197e-05 -5.71377e-23)
(0.00121173 -8.85443e-05 -1.37757e-23)
(0.00122758 -9.49901e-05 6.55362e-23)
(0.00124313 -0.00010232 -5.26736e-23)
(0.00126259 -0.000106129 6.16418e-24)
(0.00128015 -0.000110862 -5.83351e-24)
(0.0013026 -0.000110909 0)
(0.00132121 -0.000112208 9.64311e-24)
(0.00134551 -0.000108176 -3.20844e-24)
(0.0013637 -0.000105733 -8.80937e-24)
(0.00138832 -9.82326e-05 -3.21762e-22)
(0.00140462 -9.22454e-05 3.21286e-22)
(0.00142821 -8.28509e-05 -5.70223e-24)
(0.0014418 -7.36574e-05 1.99914e-24)
(0.0014636 -6.45176e-05 4.98788e-24)
(0.00147451 -5.20492e-05 0)
(0.00149428 -4.53493e-05 1.87199e-24)
(0.00150338 -2.88535e-05 -1.63282e-24)
(0.00152107 -2.62044e-05 -1.05663e-23)
(0.00152983 -4.50606e-06 7.9307e-24)
(0.00154499 -6.24742e-06 2.21652e-24)
(0.00155536 2.15822e-05 -6.78635e-24)
(0.0015664 1.67948e-05 3.63368e-24)
(0.00158045 5.0997e-05 -7.67847e-24)
(0.00158477 4.51325e-05 1.51114e-23)
(0.0016043 8.68357e-05 -6.44315e-24)
(0.00114917 -5.43507e-05 -8.99067e-23)
(0.00115913 -6.37836e-05 1.7723e-23)
(0.00116941 -7.27769e-05 1.36313e-22)
(0.00118017 -8.18117e-05 -2.96349e-23)
(0.00119306 -9.06764e-05 0)
(0.00120636 -9.89319e-05 1.41837e-23)
(0.00122277 -0.000106468 1.37245e-23)
(0.00123873 -0.00011281 6.45601e-23)
(0.00125844 -0.000117996 -2.75089e-23)
(0.00127655 -0.000121217 -1.86768e-23)
(0.0012989 -0.000123085 -2.12689e-23)
(0.00131825 -0.000122188 1.66624e-23)
(0.00134198 -0.000120509 9.82443e-24)
(0.00136119 -0.000115109 1.07408e-24)
(0.00138469 -0.00011061 -3.52452e-22)
(0.00140239 -0.00010092 3.52871e-22)
(0.00142427 -9.51963e-05 -7.65087e-25)
(0.00143972 -8.171e-05 4.93973e-24)
(0.00145923 -7.67558e-05 3.74225e-24)
(0.00147248 -5.98164e-05 -8.61302e-24)
(0.00148949 -5.73855e-05 -8.33493e-24)
(0.00150136 -3.70024e-05 -5.0257e-24)
(0.00151603 -3.80159e-05 8.92407e-24)
(0.00152786 -1.39609e-05 -2.25105e-24)
(0.00154027 -1.81432e-05 -1.9351e-24)
(0.00155348 1.00446e-05 0)
(0.00156334 3.88206e-06 2.87164e-24)
(0.00157879 3.73593e-05 6.73371e-24)
(0.00158561 3.0446e-05 -2.49348e-24)
(0.00160308 7.16213e-05 -5.84453e-24)
(0.00113557 -6.4357e-05 6.17432e-23)
(0.00114613 -7.41554e-05 -1.42529e-22)
(0.00115726 -8.38372e-05 -1.55609e-23)
(0.00116865 -9.25985e-05 1.53578e-23)
(0.00118248 -0.000102141 0)
(0.00119658 -0.000109998 -1.47137e-23)
(0.00121387 -0.000118486 -1.42443e-23)
(0.00123064 -0.000124063 -1.36669e-23)
(0.0012511 -0.000130389 2.49654e-23)
(0.0012701 -0.000132392 -3.12974e-23)
(0.00129303 -0.00013568 0)
(0.00131329 -0.00013306 9.7802e-24)
(0.00133738 -0.0001331 -9.95464e-24)
(0.00135744 -0.000125489 1.04555e-24)
(0.00138105 -0.000123008 -3.82363e-22)
(0.0013995 -0.000110763 3.8235e-22)
(0.00142128 -0.000107255 -7.1767e-25)
(0.00143734 -9.1147e-05 -4.8392e-24)
(0.00145663 -8.83619e-05 2.65285e-24)
(0.00147028 -6.91779e-05 0)
(0.00148713 -6.85188e-05 -4.60738e-24)
(0.00149904 -4.68009e-05 6.31693e-24)
(0.00151395 -4.89381e-05 2.67745e-24)
(0.00152517 -2.47771e-05 2.33627e-24)
(0.00153881 -2.96163e-05 2.00739e-24)
(0.00155033 -2.27969e-06 0)
(0.00156338 -9.28899e-06 -1.40957e-24)
(0.00157559 2.32086e-05 9.61949e-25)
(0.00158845 1.45584e-05 -3.71006e-24)
(0.00160113 5.55291e-05 4.90146e-24)
(0.00112151 -7.57063e-05 -6.40999e-23)
(0.00113249 -8.55394e-05 2.76773e-22)
(0.00114444 -9.5807e-05 -1.14614e-22)
(0.00115663 -0.0001045 6.26211e-23)
(0.00117145 -0.000114616 -6.35199e-23)
(0.00118658 -0.000122242 1.51328e-23)
(0.00120491 -0.000131476 -1.45777e-23)
(0.00122286 -0.000136576 5.42412e-23)
(0.00124437 -0.000143707 -6.79409e-23)
(0.0012646 -0.000144885 -2.38369e-23)
(0.00128852 -0.000149043 2.03573e-24)
(0.00130992 -0.000145273 2.67948e-23)
(0.00133484 -0.00014623 -1.03174e-24)
(0.0013558 -0.000137233 -1.01521e-23)
(0.00138006 -0.000135664 -4.10236e-22)
(0.00139905 -0.000121987 4.1022e-22)
(0.00142137 -0.000119278 -4.68035e-24)
(0.00143753 -0.000101963 7.13538e-25)
(0.0014574 -9.97019e-05 1.50375e-23)
(0.0014706 -7.98195e-05 -1.07306e-24)
(0.00148827 -7.93106e-05 -5.41264e-24)
(0.00149902 -5.75884e-05 -7.77307e-24)
(0.00151531 -5.96461e-05 1.02797e-23)
(0.00152444 -3.61213e-05 1.92146e-24)
(0.00154051 -4.11213e-05 -1.631e-24)
(0.00154879 -1.4747e-05 -4.04129e-24)
(0.00156588 -2.27348e-05 5.33989e-24)
(0.00157376 8.79495e-06 -7.12176e-24)
(0.00159271 -1.83881e-06 8.79397e-24)
(0.00160035 3.813e-05 -4.42058e-24)
(0.00111084 -8.86266e-05 -6.81649e-23)
(0.00112212 -9.83765e-05 -9.98382e-23)
(0.00113474 -0.000109073 2.01995e-22)
(0.00114781 -0.000117895 -6.71127e-23)
(0.00116358 -0.000128508 0)
(0.00117987 -0.000136145 -3.13798e-23)
(0.00119931 -0.000145882 7.38436e-23)
(0.00121863 -0.000150807 -5.93673e-23)
(0.00124128 -0.000158332 1.36998e-23)
(0.00126293 -0.000159084 2.42809e-23)
(0.0012879 -0.000163492 -2.44729e-23)
(0.00131056 -0.00015911 0)
(0.0013363 -0.000160149 0)
(0.00135819 -0.000150476 0)
(0.00138298 -0.000148796 -4.35409e-22)
(0.00140249 -0.000134554 4.3533e-22)
(0.00142513 -0.000131517 0)
(0.00144134 -0.000113918 1.15618e-24)
(0.00146144 -0.000111104 0)
(0.00147422 -9.13212e-05 -6.53438e-24)
(0.00149216 -9.01236e-05 4.89874e-24)
(0.00150198 -6.88778e-05 -2.7211e-24)
(0.00151874 -7.03769e-05 -8.0842e-24)
(0.00152639 -4.76328e-05 5.98885e-24)
(0.00154331 -5.2574e-05 3.10816e-24)
(0.00154967 -2.7295e-05 -1.42998e-24)
(0.00156824 -3.59478e-05 -3.71802e-24)
(0.00157403 -6.03615e-06 8.81048e-24)
(0.00159537 -1.7983e-05 -5.89656e-24)
(0.00160115 1.94865e-05 6.47547e-25)
(0.00110655 -0.000103324 -1.04766e-22)
(0.00111796 -0.000113103 2.81779e-22)
(0.00113094 -0.000124085 -1.58862e-22)
(0.00114477 -0.000133212 6.73069e-23)
(0.00116124 -0.000144204 -1.33866e-22)
(0.00117865 -0.000152094 3.57228e-23)
(0.00119897 -0.000162037 3.66686e-24)
(0.00121965 -0.000167041 1.1827e-22)
(0.00124319 -0.000174496 -5.77589e-23)
(0.00126622 -0.000175143 6.36995e-24)
(0.00129187 -0.000179166 -2.25219e-23)
(0.00131571 -0.000174578 3.28181e-23)
(0.00134177 -0.000174936 -1.17347e-24)
(0.00136452 -0.000165081 -1.11083e-23)
(0.00138921 -0.00016247 -4.54953e-22)
(0.00140924 -0.000148204 4.54931e-22)
(0.00143141 -0.000144054 -3.73375e-24)
(0.00144786 -0.000126683 -4.40715e-25)
(0.00146718 -0.000122655 1.1329e-23)
(0.00148005 -0.000103369 -7.06393e-24)
(0.0014969 -0.000100968 0)
(0.00150678 -8.04851e-05 -8.29989e-24)
(0.00152206 -8.09493e-05 1.51658e-23)
(0.00152995 -5.93346e-05 -2.42194e-24)
(0.00154484 -6.35502e-05 -3.4961e-24)
(0.00155204 -4.00655e-05 -8.72933e-24)
(0.00156779 -4.8348e-05 3.15753e-24)
(0.00157575 -2.13095e-05 -3.51021e-24)
(0.00159327 -3.32586e-05 6.00921e-24)
(0.00160339 -4.56777e-08 -1.9428e-24)
(0.00110801 -0.00011948 0)
(0.00111952 -0.000129638 -3.67004e-23)
(0.00113255 -0.000140869 1.8156e-23)
(0.00114697 -0.000150479 6.98575e-23)
(0.0011638 -0.000161715 -7.10021e-23)
(0.00118223 -0.000170045 -8.21167e-23)
(0.00120302 -0.000179902 6.61841e-23)
(0.00122496 -0.000185154 0)
(0.00124884 -0.000192102 -1.31983e-23)
(0.00127313 -0.000192832 2.08397e-23)
(0.00129875 -0.000195931 -5.8615e-24)
(0.00132369 -0.000191359 -1.53778e-23)
(0.00134925 -0.000190446 1.0185e-23)
(0.00137286 -0.000180674 2.15272e-24)
(0.00139655 -0.000176557 -4.68278e-22)
(0.00141726 -0.000162568 4.68252e-22)
(0.00143798 -0.000156788 -1.48847e-25)
(0.00145507 -0.000139963 3.88957e-24)
(0.00147255 -0.000134246 -2.27533e-24)
(0.00148614 -0.000115803 1.27739e-24)
(0.00150076 -0.000111681 4.19334e-24)
(0.00151157 -9.24028e-05 -5.74251e-24)
(0.00152409 -9.11248e-05 0)
(0.00153328 -7.12975e-05 5.9164e-24)
(0.00154469 -7.37574e-05 -3.23236e-24)
(0.00155381 -5.30451e-05 -2.88504e-24)
(0.00156524 -5.96114e-05 3.59506e-24)
(0.00157612 -3.67998e-05 -5.60326e-25)
(0.00158852 -4.71807e-05 5.94391e-25)
(0.00160299 -2.00329e-05 0)
(0.00111045 -0.000136719 -1.52485e-22)
(0.00112243 -0.000147715 2.67993e-22)
(0.00113557 -0.000159318 -1.91542e-22)
(0.0011507 -0.000169558 0)
(0.00116777 -0.000180907 -7.02507e-23)
(0.00118726 -0.000189737 5.4141e-23)
(0.00120824 -0.000199268 1.63856e-23)
(0.00123137 -0.000204789 5.98121e-23)
(0.00125514 -0.000210907 -6.09962e-23)
(0.0012806 -0.000211729 0)
(0.00130564 -0.00021354 6.14944e-24)
(0.00133167 -0.000209013 1.55477e-23)
(0.00135609 -0.000206474 9.14289e-25)
(0.00138073 -0.000196865 -6.84319e-24)
(0.00140277 -0.000190922 -4.72318e-22)
(0.00142452 -0.000177359 4.72289e-22)
(0.00144317 -0.000169647 -6.63277e-24)
(0.00146144 -0.000153595 -3.13846e-26)
(0.00147651 -0.000145858 1.74211e-24)
(0.00149151 -0.000128571 -1.34012e-24)
(0.00150336 -0.000122293 0)
(0.00151587 -0.000104618 -4.22147e-24)
(0.0015251 -0.000100998 4.78236e-24)
(0.00153632 -8.34012e-05 0)
(0.00154369 -8.33739e-05 2.33666e-24)
(0.00155536 -6.58428e-05 -2.0058e-24)
(0.00156166 -6.99534e-05 0)
(0.00157607 -5.17091e-05 -8.91716e-25)
(0.00158194 -5.99275e-05 3.62976e-25)
(0.00160171 -3.90996e-05 3.79348e-25)
(0.00111018 -0.000155322 -1.59556e-22)
(0.00112286 -0.000167359 2.02831e-22)
(0.00113626 -0.000179403 3.95223e-23)
(0.0011522 -0.000190262 7.54021e-23)
(0.00116958 -0.000201583 -7.67638e-23)
(0.00119011 -0.000210797 1.80776e-23)
(0.00121128 -0.000219844 -1.71874e-23)
(0.00123554 -0.000225508 0)
(0.00125921 -0.000230648 -1.49767e-23)
(0.00128583 -0.000231436 -6.53363e-24)
(0.00131036 -0.000231837 -2.25217e-23)
(0.00133757 -0.000227255 2.74572e-23)
(0.001361 -0.000223004 -1.0106e-23)
(0.00138689 -0.000213513 -2.04115e-24)
(0.00140747 -0.000205681 -4.64072e-22)
(0.0014306 -0.000192561 4.63966e-22)
(0.00144738 -0.000182846 1.14487e-24)
(0.00146722 -0.000167641 -2.63963e-24)
(0.0014801 -0.000157769 8.01905e-24)
(0.00149687 -0.000141739 -4.15954e-24)
(0.00150626 -0.000133131 3.88102e-25)
(0.00152061 -0.000117111 1.10101e-24)
(0.00152707 -0.000110947 0)
(0.00154003 -9.54488e-05 0)
(0.00154416 -9.27823e-05 -3.12673e-25)
(0.00155737 -7.79819e-05 3.5651e-25)
(0.00155972 -7.96564e-05 -3.50181e-25)
(0.0015757 -6.51621e-05 -4.97927e-26)
(0.00157646 -7.15142e-05 -1.89556e-24)
(0.00159871 -5.59925e-05 2.03493e-24)
(0.00110053 -0.000174721 -2.09915e-22)
(0.00111466 -0.00018783 1.28852e-22)
(0.0011293 -0.000200459 0)
(0.00114676 -0.000211989 0)
(0.00116535 -0.00022337 -7.5215e-23)
(0.00118745 -0.000232922 7.6568e-23)
(0.00120974 -0.000241569 6.68908e-23)
(0.00123559 -0.000247284 -8.38248e-23)
(0.00126016 -0.00025154 0)
(0.00128832 -0.000252151 1.33756e-23)
(0.00131336 -0.000251245 -2.21093e-23)
(0.00134204 -0.000246431 2.76673e-23)
(0.00136546 -0.000240583 -4.36668e-24)
(0.00139277 -0.000231015 0)
(0.00141272 -0.000221417 -4.38021e-22)
(0.00143735 -0.000208541 4.37907e-22)
(0.00145288 -0.000196937 0)
(0.0014744 -0.000182367 1.2361e-24)
(0.00148546 -0.00017045 1.57987e-24)
(0.00150411 -0.00015544 -2.83995e-24)
(0.0015112 -0.000144576 -3.59353e-25)
(0.00152749 -0.000129897 0)
(0.00153123 -0.000121251 1.02864e-24)
(0.00154581 -0.000107354 -1.82637e-24)
(0.0015469 -0.000102122 -2.81287e-24)
(0.00156085 -8.92213e-05 2.76313e-24)
(0.00155988 -8.86248e-05 0)
(0.00157522 -7.6588e-05 0)
(0.00157228 -8.15151e-05 -6.31992e-24)
(0.00159249 -6.94631e-05 3.0478e-24)
(0.00108616 -0.000197826 8.94002e-23)
(0.0011022 -0.000211698 4.40442e-23)
(0.00111896 -0.000224848 2.14677e-23)
(0.00113857 -0.000236928 -2.07677e-23)
(0.00115943 -0.000248389 1.98642e-23)
(0.00118368 -0.0002581 -5.43757e-23)
(0.00120823 -0.000266344 7.44325e-23)
(0.00123608 -0.000271839 7.82238e-25)
(0.00126268 -0.000275201 1.35933e-23)
(0.00129252 -0.000275272 -5.35719e-23)
(0.00131911 -0.000273064 2.49837e-23)
(0.00134905 -0.000267573 8.99798e-24)
(0.00137333 -0.000260182 -1.38548e-24)
(0.00140155 -0.000250037 -7.40902e-24)
(0.00142158 -0.000238806 -3.87632e-22)
(0.00144702 -0.000225644 3.87597e-22)
(0.00146178 -0.000212358 -2.06476e-24)
(0.00148435 -0.000197875 6.45157e-25)
(0.00149372 -0.00018416 1.10595e-24)
(0.00151399 -0.000169625 -4.17276e-25)
(0.00151835 -0.000156738 2.87773e-24)
(0.00153694 -0.000142899 -3.27596e-24)
(0.00153683 -0.000131894 -1.05392e-24)
(0.00155414 -0.000119123 -6.35307e-24)
(0.00155022 -0.000111204 8.39896e-24)
(0.00156648 -9.96405e-05 2.10355e-24)
(0.00155947 -9.63881e-05 0)
(0.00157516 -8.58624e-05 1.77088e-24)
(0.00156542 -8.90294e-05 1.78166e-24)
(0.00158221 -7.85437e-05 4.09929e-24)
(0.00107999 -0.000226283 -4.70018e-23)
(0.00109725 -0.00024064 0)
(0.0011158 -0.000254186 6.48986e-23)
(0.00113711 -0.000266624 -6.75479e-23)
(0.00116015 -0.000278048 -4.13551e-23)
(0.00118616 -0.000287596 -9.42823e-23)
(0.00121301 -0.000295224 1.61991e-22)
(0.00124236 -0.000300032 -6.86919e-23)
(0.00127107 -0.000302258 1.52587e-23)
(0.00130186 -0.000301227 1.70599e-23)
(0.00133013 -0.000297523 -3.90372e-23)
(0.00136031 -0.000290734 1.20668e-23)
(0.0013857 -0.000281728 1.83601e-23)
(0.00141356 -0.000270365 -6.48898e-24)
(0.0014341 -0.000257619 -3.04222e-22)
(0.00145891 -0.000243531 3.0419e-22)
(0.00147357 -0.000228887 -8.35998e-25)
(0.00149572 -0.000213833 5.59955e-25)
(0.00150418 -0.000198775 -2.4602e-24)
(0.00152482 -0.000184029 6.19018e-24)
(0.00152696 -0.000169601 -3.85093e-24)
(0.00154732 -0.000155967 1.72223e-24)
(0.00154288 -0.000142934 9.63549e-24)
(0.00156375 -0.000130786 -1.86187e-23)
(0.00155229 -0.000120017 8.86497e-24)
(0.00157348 -0.000109465 -5.63666e-24)
(0.00155469 -0.000102543 9.93461e-24)
(0.00157471 -9.32931e-05 -1.1583e-23)
(0.00154858 -9.26963e-05 0)
(0.00156492 -8.30235e-05 -2.67823e-24)
(0.00107584 -0.0002595 -4.943e-23)
(0.00109457 -0.000274398 2.40546e-23)
(0.0011151 -0.00028828 -2.32007e-23)
(0.00113823 -0.000300885 0)
(0.00116357 -0.000312078 -5.96636e-23)
(0.00119133 -0.000321124 8.29926e-23)
(0.00122047 -0.000327821 -1.86453e-23)
(0.00125117 -0.000331471 1.68827e-23)
(0.00128192 -0.0003322 0)
(0.00131334 -0.000329542 0)
(0.00134325 -0.000324033 -5.46477e-24)
(0.00137315 -0.000315431 -7.05694e-24)
(0.00139983 -0.000304645 5.37583e-24)
(0.00142651 -0.000291597 0)
(0.00144816 -0.000277394 -1.74738e-22)
(0.00147112 -0.000261956 1.74624e-22)
(0.00148692 -0.000246281 0)
(0.00150693 -0.000230199 -1.90958e-24)
(0.00151647 -0.000214357 9.12865e-25)
(0.00153506 -0.000198748 -1.0986e-24)
(0.00153751 -0.000183496 0)
(0.00155656 -0.000169171 0)
(0.00155011 -0.000154907 3.53276e-24)
(0.00157132 -0.000142278 -3.68325e-24)
(0.00155254 -0.000129131 -1.76545e-23)
(0.00157661 -0.00011844 2.08991e-23)
(0.00154055 -0.000107247 0)
(0.0015663 -9.8556e-05 -4.53875e-24)
(0.00150787 -9.14757e-05 4.12279e-24)
(0.00153106 -8.26857e-05 -7.07472e-24)
(0.00106605 -0.000296654 2.62486e-23)
(0.00108738 -0.000312502 -2.54265e-23)
(0.00111088 -0.000326996 2.45593e-23)
(0.00113688 -0.000339753 -8.82878e-23)
(0.0011653 -0.000350527 9.04128e-23)
(0.00119573 -0.000358749 7.45735e-23)
(0.00122767 -0.000364135 -7.61786e-23)
(0.00126044 -0.000366192 -1.46092e-23)
(0.00129348 -0.000364983 0)
(0.00132608 -0.000360272 0)
(0.00135767 -0.000352553 0)
(0.0013877 -0.000341792 -5.38198e-24)
(0.00141557 -0.000328912 5.42735e-24)
(0.00144125 -0.000313938 0)
(0.00146399 -0.000298101 1.87189e-23)
(0.0014849 -0.00028118 -1.86196e-23)
(0.00150218 -0.000264483 0)
(0.00151911 -0.000247271 -3.89361e-24)
(0.00153084 -0.00023086 5.5501e-24)
(0.00154492 -0.000214066 0)
(0.00154976 -0.000198359 0)
(0.00156219 -0.000182492 0)
(0.00155682 -0.000167674 -7.34382e-24)
(0.00156905 -0.000152951 2.61525e-23)
(0.00154622 -0.000138367 -2.56008e-23)
(0.00155954 -0.000124974 -2.51193e-23)
(0.00150636 -0.000110284 2.4529e-23)
(0.00152357 -9.93198e-05 4.80424e-24)
(0.0014216 -8.4703e-05 -4.35772e-24)
(0.00144923 -7.63879e-05 1.93419e-24)
(0.00105416 -0.000343299 2.39151e-22)
(0.00107908 -0.000358716 -2.1759e-22)
(0.00110667 -0.0003729 0)
(0.00113674 -0.000385275 0)
(0.00116901 -0.000395163 -8.0943e-23)
(0.00120293 -0.00040201 6.47947e-23)
(0.00123803 -0.000405512 0)
(0.00127349 -0.000405411 1.56407e-23)
(0.0013088 -0.000401708 0)
(0.00134309 -0.000394431 0)
(0.00137599 -0.000383956 -2.42103e-24)
(0.00140659 -0.000370586 0)
(0.00143488 -0.000355073 7.6781e-25)
(0.00146004 -0.000337821 -7.88588e-25)
(0.00148259 -0.000319804 3.01286e-22)
(0.00150185 -0.000301168 -3.01331e-22)
(0.0015188 -0.000282903 5.56366e-24)
(0.00153265 -0.000264502 -7.40365e-24)
(0.0015441 -0.000246994 0)
(0.00155235 -0.000229073 -4.51869e-24)
(0.00155632 -0.000212306 0)
(0.00155724 -0.000194613 -4.94436e-24)
(0.00154907 -0.000178557 7.86161e-24)
(0.00154073 -0.000160679 0)
(0.00151117 -0.0001445 -3.62855e-23)
(0.00149183 -0.000125994 3.54151e-23)
(0.0014227 -0.000109044 0)
(0.00139777 -9.1257e-05 0)
(0.00125617 -7.21445e-05 5.90678e-23)
(0.00125895 -6.10682e-05 -5.16253e-23)
(0.00104294 -0.000401908 0)
(0.00107186 -0.000419336 0)
(0.00110334 -0.000433859 0)
(0.00113776 -0.000445265 0)
(0.00117463 -0.000453255 0)
(0.00121302 -0.000457469 1.94454e-23)
(0.00125201 -0.00045769 0)
(0.00129084 -0.000453879 3.25889e-23)
(0.00132879 -0.000446125 -2.82231e-23)
(0.00136516 -0.000434697 -2.5254e-23)
(0.00139925 -0.000420015 1.63461e-23)
(0.00143049 -0.00040269 -4.06532e-24)
(0.00145838 -0.000383393 1.72835e-26)
(0.00148266 -0.000362846 0)
(0.0015032 -0.000341695 7.13077e-22)
(0.00151987 -0.00032045 -7.12357e-22)
(0.00153284 -0.000299565 0)
(0.00154156 -0.000279127 2.02905e-24)
(0.00154614 -0.000259346 2.16704e-23)
(0.00154473 -0.000239767 -3.93962e-23)
(0.00153717 -0.000220695 4.62711e-23)
(0.00151995 -0.000201022 2.38922e-23)
(0.00149302 -0.000181674 -6.08092e-23)
(0.00145254 -0.000160352 0)
(0.00139726 -0.000140457 0)
(0.00132713 -0.000117528 0)
(0.00122945 -9.76396e-05 0)
(0.00113009 -7.10976e-05 0)
(0.000961513 -5.33281e-05 0)
(0.000885557 -3.18038e-05 0)
(0.00103098 -0.000466488 2.76314e-23)
(0.0010677 -0.000480193 0)
(0.00110858 -0.000492942 0)
(0.00115128 -0.000502512 6.18987e-23)
(0.00119452 -0.000507913 -1.51394e-23)
(0.00123767 -0.000508881 -1.25821e-22)
(0.00128026 -0.000505443 5.6734e-23)
(0.0013217 -0.00049772 1.097e-23)
(0.00136125 -0.00048596 0)
(0.00139813 -0.000470552 -1.00834e-24)
(0.00143154 -0.000452057 0)
(0.0014609 -0.000431176 0)
(0.00148558 -0.000408615 0)
(0.00150535 -0.000385061 0)
(0.00151961 -0.000360899 1.32428e-21)
(0.00152818 -0.000336489 -1.32475e-21)
(0.00152999 -0.000311979 0)
(0.00152451 -0.000287456 0)
(0.00150992 -0.000263012 0)
(0.00148517 -0.000239047 0)
(0.00144816 -0.000216052 8.40459e-24)
(0.00139693 -0.00019342 7.16423e-24)
(0.0013283 -0.000169295 1.442e-23)
(0.00123939 -0.000143592 -6.24304e-23)
(0.00113002 -0.000118821 1.22052e-22)
(0.000998339 -9.4934e-05 7.09884e-25)
(0.000848256 -7.0016e-05 -7.36386e-23)
(0.000681045 -4.01387e-05 0)
(0.000485376 -2.38632e-05 0)