/*--------------------------------*- C++ -*----------------------------------*\
| =========                 |                                                 |
| \\      /  F ield         | OpenFOAM: The Open Source CFD Toolbox           |
|  \\    /   O peration     | Version:  2312                                  |
|   \\  /    A nd           | Website:  www.openfoam.com                      |
|    \\/     M anipulation  |                                                 |
\*---------------------------------------------------------------------------*/
FoamFile
{
    version     2.0;
    format      ascii;
    arch        "LSB;label=32;scalar=64";
    class       volScalarField;
    location    "90000";
    object      p;
}
// * * * * * * * * * * * * * * * * * * * * * * * * * * * * * * * * * * * * * //

dimensions      [0 2 -2 0 0 0 0];

internalField   nonuniform List<scalar> 
2715
(
3.49951e-07
2.99423e-07
2.78466e-07
2.60882e-07
2.43247e-07
2.25485e-07
2.05641e-07
1.84479e-07
1.59762e-07
1.33219e-07
1.02316e-07
7.00319e-08
3.32852e-08
-3.52e-09
-4.4244e-08
-8.29567e-08
-1.2493e-07
-1.62566e-07
-2.03081e-07
-2.36998e-07
-2.7387e-07
-3.02242e-07
-3.34177e-07
-3.55683e-07
-3.82816e-07
-3.95286e-07
-4.22019e-07
-4.20717e-07
-4.54148e-07
-5.52714e-07
3.36052e-07
2.80971e-07
2.66997e-07
2.51988e-07
2.35027e-07
2.17682e-07
1.98148e-07
1.77141e-07
1.52621e-07
1.26442e-07
9.61745e-08
6.47514e-08
2.91811e-08
-6.29909e-09
-4.54937e-08
-8.27397e-08
-1.2292e-07
-1.59075e-07
-1.97753e-07
-2.30717e-07
-2.663e-07
-2.94033e-07
-3.25904e-07
-3.46782e-07
-3.74839e-07
-3.87743e-07
-4.1188e-07
-4.23574e-07
-4.28864e-07
-5.76601e-07
3.23855e-07
2.78502e-07
2.65565e-07
2.51043e-07
2.33592e-07
2.1526e-07
1.95206e-07
1.73858e-07
1.4929e-07
1.22984e-07
9.2955e-08
6.16295e-08
2.66265e-08
-8.49892e-09
-4.67849e-08
-8.34342e-08
-1.22601e-07
-1.58398e-07
-1.96474e-07
-2.29057e-07
-2.64203e-07
-2.91841e-07
-3.22526e-07
-3.45168e-07
-3.70433e-07
-3.89643e-07
-4.07648e-07
-4.34316e-07
-4.14583e-07
-5.15798e-07
3.1367e-07
2.7439e-07
2.59375e-07
2.45372e-07
2.28615e-07
2.10892e-07
1.91034e-07
1.69522e-07
1.45012e-07
1.18552e-07
8.88559e-08
5.75512e-08
2.33118e-08
-1.16035e-08
-4.86644e-08
-8.50941e-08
-1.22712e-07
-1.58421e-07
-1.94339e-07
-2.27458e-07
-2.59831e-07
-2.89745e-07
-3.17473e-07
-3.43648e-07
-3.64765e-07
-3.90361e-07
-3.98807e-07
-4.35683e-07
-4.10582e-07
-4.7865e-07
3.03836e-07
2.71784e-07
2.55899e-07
2.43034e-07
2.26838e-07
2.0833e-07
1.87953e-07
1.65876e-07
1.41327e-07
1.1446e-07
8.50143e-08
5.34427e-08
1.99009e-08
-1.5103e-08
-5.09699e-08
-8.74301e-08
-1.23401e-07
-1.59274e-07
-1.93208e-07
-2.27132e-07
-2.57391e-07
-2.88833e-07
-3.1363e-07
-3.42898e-07
-3.59934e-07
-3.89477e-07
-3.9439e-07
-4.29187e-07
-4.17373e-07
-4.52043e-07
2.95223e-07
2.70041e-07
2.53326e-07
2.40003e-07
2.24074e-07
2.05467e-07
1.84906e-07
1.62344e-07
1.37673e-07
1.10375e-07
8.10506e-08
4.91678e-08
1.61511e-08
-1.89807e-08
-5.38432e-08
-9.03242e-08
-1.24831e-07
-1.60825e-07
-1.93002e-07
-2.27366e-07
-2.55679e-07
-2.87909e-07
-3.10962e-07
-3.41216e-07
-3.57314e-07
-3.86306e-07
-3.9428e-07
-4.21348e-07
-4.24724e-07
-4.41196e-07
2.88171e-07
2.68515e-07
2.51694e-07
2.37519e-07
2.21704e-07
2.03029e-07
1.82217e-07
1.59088e-07
1.34109e-07
1.06339e-07
7.69415e-08
4.47645e-08
1.2021e-08
-2.31369e-08
-5.73249e-08
-9.35818e-08
-1.27087e-07
-1.62733e-07
-1.93813e-07
-2.27768e-07
-2.55222e-07
-2.86931e-07
-3.09936e-07
-3.39069e-07
-3.56967e-07
-3.82803e-07
-3.96046e-07
-4.16576e-07
-4.27627e-07
-4.39794e-07
2.82908e-07
2.67093e-07
2.50777e-07
2.35636e-07
2.19576e-07
2.00749e-07
1.79617e-07
1.55934e-07
1.30479e-07
1.02257e-07
7.25856e-08
4.02053e-08
7.46424e-09
-2.75473e-08
-6.14186e-08
-9.71498e-08
-1.30145e-07
-1.64947e-07
-1.95593e-07
-2.28418e-07
-2.55909e-07
-2.8615e-07
-3.10142e-07
-3.37187e-07
-3.57549e-07
-3.80413e-07
-3.97485e-07
-4.14968e-07
-4.28949e-07
-4.40715e-07
2.79517e-07
2.65769e-07
2.50106e-07
2.34312e-07
2.17698e-07
1.98551e-07
1.77004e-07
1.52795e-07
1.26734e-07
9.80731e-08
6.79613e-08
3.54439e-08
2.49964e-09
-3.22441e-08
-6.60567e-08
-1.01071e-07
-1.33872e-07
-1.67558e-07
-1.9811e-07
-2.29515e-07
-2.57298e-07
-2.85914e-07
-3.10796e-07
-3.36146e-07
-3.58044e-07
-3.79516e-07
-3.98187e-07
-4.15255e-07
-4.30076e-07
-4.42823e-07
2.77751e-07
2.64611e-07
2.49518e-07
2.33352e-07
2.16025e-07
1.96368e-07
1.74286e-07
1.49552e-07
1.22814e-07
9.36981e-08
6.30482e-08
3.03993e-08
-2.84409e-09
-3.72979e-08
-7.11483e-08
-1.05421e-07
-1.38093e-07
-1.7067e-07
-2.011e-07
-2.31197e-07
-2.59042e-07
-2.86373e-07
-3.11593e-07
-3.35953e-07
-3.58401e-07
-3.79455e-07
-3.98684e-07
-4.1606e-07
-4.31551e-07
-4.4529e-07
2.77131e-07
2.63764e-07
2.48886e-07
2.32467e-07
2.14422e-07
1.94115e-07
1.7138e-07
1.46084e-07
1.18645e-07
8.90359e-08
5.78157e-08
2.49871e-08
-8.55853e-09
-4.27811e-08
-7.66374e-08
-1.10261e-07
-1.42706e-07
-1.74334e-07
-2.04437e-07
-2.33485e-07
-2.61043e-07
-2.87456e-07
-3.12527e-07
-3.36318e-07
-3.58801e-07
-3.79773e-07
-3.99293e-07
-4.17106e-07
-4.33313e-07
-4.47948e-07
2.77072e-07
2.63267e-07
2.48227e-07
2.3146e-07
2.12714e-07
1.9168e-07
1.6821e-07
1.42288e-07
1.14144e-07
8.39919e-08
5.22041e-08
1.91293e-08
-1.4683e-08
-4.87563e-08
-8.25403e-08
-1.15633e-07
-1.47719e-07
-1.78555e-07
-2.0814e-07
-2.36326e-07
-2.63354e-07
-2.89036e-07
-3.13707e-07
-3.37064e-07
-3.59402e-07
-3.80345e-07
-4.00082e-07
-4.18311e-07
-4.35174e-07
-4.50703e-07
2.77172e-07
2.62971e-07
2.47496e-07
2.30204e-07
2.10739e-07
1.88941e-07
1.64692e-07
1.38075e-07
1.09212e-07
7.84674e-08
4.61205e-08
1.27384e-08
-2.1305e-08
-5.52971e-08
-8.89423e-08
-1.21588e-07
-1.53219e-07
-1.83355e-07
-2.12304e-07
-2.39705e-07
-2.66081e-07
-2.91071e-07
-3.1524e-07
-3.38149e-07
-3.60284e-07
-3.81129e-07
-4.01073e-07
-4.19597e-07
-4.37122e-07
-4.53356e-07
2.77184e-07
2.62665e-07
2.46606e-07
2.28635e-07
2.08405e-07
1.85811e-07
1.60745e-07
1.33358e-07
1.03744e-07
7.23516e-08
3.94415e-08
5.70071e-09
-2.85548e-08
-6.25124e-08
-9.59772e-08
-1.28218e-07
-1.59337e-07
-1.88805e-07
-2.17047e-07
-2.43676e-07
-2.6932e-07
-2.93604e-07
-3.17188e-07
-3.3961e-07
-3.61461e-07
-3.82157e-07
-4.0222e-07
-4.20995e-07
-4.39064e-07
-4.55956e-07
2.77019e-07
2.62158e-07
2.45469e-07
2.26735e-07
2.0568e-07
1.82228e-07
1.56284e-07
1.28041e-07
9.76152e-08
6.55094e-08
3.20108e-08
-2.13422e-09
-3.66027e-08
-7.05538e-08
-1.03816e-07
-1.3566e-07
-1.66229e-07
-1.95019e-07
-2.225e-07
-2.48328e-07
-2.73171e-07
-2.96696e-07
-3.19611e-07
-3.41475e-07
-3.62951e-07
-3.8342e-07
-4.03516e-07
-4.22463e-07
-4.41008e-07
-4.5844e-07
2.76736e-07
2.61412e-07
2.44072e-07
2.24525e-07
2.02561e-07
1.78144e-07
1.51213e-07
1.22001e-07
9.06727e-08
5.77725e-08
2.36379e-08
-1.0957e-08
-4.56512e-08
-7.96098e-08
-1.1265e-07
-1.44083e-07
-1.74057e-07
-2.02132e-07
-2.28791e-07
-2.53759e-07
-2.77719e-07
-3.00408e-07
-3.22549e-07
-3.43769e-07
-3.64742e-07
-3.84906e-07
-4.04903e-07
-4.23968e-07
-4.42869e-07
-4.60796e-07
2.76518e-07
2.60514e-07
2.4246e-07
2.2203e-07
1.9903e-07
1.73481e-07
1.454e-07
1.15069e-07
8.27201e-08
4.89292e-08
1.40955e-08
-2.09937e-08
-5.59269e-08
-8.98904e-08
-1.22679e-07
-1.5366e-07
-1.82984e-07
-2.10276e-07
-2.36039e-07
-2.6006e-07
-2.83044e-07
-3.04791e-07
-3.26041e-07
-3.46495e-07
-3.66827e-07
-3.86569e-07
-4.0632e-07
-4.25424e-07
-4.44542e-07
-4.62951e-07
2.76616e-07
2.5963e-07
2.40682e-07
2.19204e-07
1.9497e-07
1.68071e-07
1.38633e-07
1.07007e-07
7.35005e-08
3.8715e-08
3.11648e-09
-3.25019e-08
-6.76748e-08
-1.0162e-07
-1.34108e-07
-1.64571e-07
-1.93166e-07
-2.19586e-07
-2.4436e-07
-2.67325e-07
-2.8923e-07
-3.09901e-07
-3.3014e-07
-3.49667e-07
-3.69221e-07
-3.88361e-07
-4.07725e-07
-4.26706e-07
-4.45932e-07
-4.64713e-07
2.77151e-07
2.58872e-07
2.38691e-07
2.15853e-07
1.90109e-07
1.61611e-07
1.30597e-07
9.74926e-08
6.26846e-08
2.68043e-08
-9.61508e-09
-4.5779e-08
-8.11713e-08
-1.1505e-07
-1.47165e-07
-1.77026e-07
-2.04789e-07
-2.30233e-07
-2.53902e-07
-2.75694e-07
-2.96392e-07
-3.15843e-07
-3.34929e-07
-3.53345e-07
-3.71958e-07
-3.90278e-07
-4.09076e-07
-4.2771e-07
-4.46863e-07
-4.65842e-07
2.77885e-07
2.58045e-07
2.36158e-07
2.11544e-07
1.83977e-07
1.53635e-07
1.20839e-07
8.60796e-08
4.98357e-08
1.2774e-08
-2.45043e-08
-6.1207e-08
-9.6775e-08
-1.30516e-07
-1.62165e-07
-1.91319e-07
-2.18131e-07
-2.42478e-07
-2.64902e-07
-2.85384e-07
-3.04718e-07
-3.22789e-07
-3.40539e-07
-3.57637e-07
-3.75109e-07
-3.92334e-07
-4.10358e-07
-4.28294e-07
-4.47156e-07
-4.65922e-07
2.78059e-07
2.56388e-07
2.32441e-07
2.0569e-07
1.75989e-07
1.43546e-07
1.08754e-07
7.21674e-08
3.43609e-08
-3.95528e-09
-4.21111e-08
-7.93216e-08
-1.14994e-07
-1.48497e-07
-1.7956e-07
-2.0788e-07
-2.336e-07
-2.56709e-07
-2.77717e-07
-2.96723e-07
-3.14479e-07
-3.30981e-07
-3.47146e-07
-3.62701e-07
-3.78742e-07
-3.9458e-07
-4.11518e-07
-4.28339e-07
-4.4658e-07
-4.64491e-07
2.77244e-07
2.53437e-07
2.2708e-07
1.97801e-07
1.65576e-07
1.30691e-07
9.36249e-08
5.50013e-08
1.54898e-08
-2.41507e-08
-6.31849e-08
-1.00839e-07
-1.36501e-07
-1.69615e-07
-1.99923e-07
-2.27234e-07
-2.51695e-07
-2.73404e-07
-2.9281e-07
-3.10139e-07
-3.26058e-07
-3.40743e-07
-3.55006e-07
-3.6875e-07
-3.82969e-07
-3.97094e-07
-4.12474e-07
-4.27745e-07
-4.4486e-07
-4.6114e-07
2.75149e-07
2.48685e-07
2.19432e-07
1.87117e-07
1.51865e-07
1.14097e-07
7.44093e-08
3.35086e-08
-7.84643e-09
-4.88479e-08
-8.87085e-08
-1.26669e-07
-1.62123e-07
-1.946e-07
-2.23894e-07
-2.49945e-07
-2.72935e-07
-2.93064e-07
-3.10712e-07
-3.26169e-07
-3.39992e-07
-3.52547e-07
-3.64537e-07
-3.76118e-07
-3.8804e-07
-4.00013e-07
-4.13177e-07
-4.2638e-07
-4.41648e-07
-4.55534e-07
2.71339e-07
2.41459e-07
2.0847e-07
1.7235e-07
1.3343e-07
9.22802e-08
4.96092e-08
6.2139e-09
-3.70691e-08
-7.93886e-08
-1.19927e-07
-1.57946e-07
-1.92871e-07
-2.24332e-07
-2.52221e-07
-2.76631e-07
-2.97841e-07
-3.16156e-07
-3.31915e-07
-3.45374e-07
-3.56919e-07
-3.67003e-07
-3.7631e-07
-3.85261e-07
-3.94358e-07
-4.03577e-07
-4.13693e-07
-4.24119e-07
-4.36485e-07
-4.47457e-07
2.63978e-07
2.29881e-07
1.92173e-07
1.51358e-07
1.08071e-07
6.30122e-08
1.70171e-08
-2.90238e-08
-7.42175e-08
-1.17686e-07
-1.58608e-07
-1.96275e-07
-2.3018e-07
-2.60064e-07
-2.85955e-07
-3.08125e-07
-3.27014e-07
-3.43077e-07
-3.56688e-07
-3.68039e-07
-3.7725e-07
-3.84611e-07
-3.90827e-07
-3.96569e-07
-4.02303e-07
-4.08083e-07
-4.14363e-07
-4.21052e-07
-4.29364e-07
-4.36864e-07
2.4899e-07
2.0908e-07
1.65825e-07
1.19564e-07
7.12001e-08
2.18436e-08
-2.75236e-08
-7.60109e-08
-1.22738e-07
-1.6683e-07
-2.07482e-07
-2.44059e-07
-2.76165e-07
-3.03681e-07
-3.26769e-07
-3.45846e-07
-3.61522e-07
-3.74451e-07
-3.85169e-07
-3.93944e-07
-4.0077e-07
-4.05465e-07
-4.08405e-07
-4.10321e-07
-4.12024e-07
-4.13922e-07
-4.16007e-07
-4.18028e-07
-4.21404e-07
-4.24889e-07
2.31953e-07
1.85338e-07
1.32696e-07
7.76018e-08
2.22049e-08
-3.24654e-08
-8.57529e-08
-1.36942e-07
-1.85177e-07
-2.29571e-07
-2.69372e-07
-3.04092e-07
-3.33573e-07
-3.57963e-07
-3.77616e-07
-3.92963e-07
-4.04531e-07
-4.12942e-07
-4.18894e-07
-4.23165e-07
-4.26497e-07
-4.28865e-07
-4.29254e-07
-4.27044e-07
-4.23439e-07
-4.21041e-07
-4.19749e-07
-4.17145e-07
-4.151e-07
-4.16193e-07
1.69866e-07
1.1337e-07
5.5511e-08
-3.89363e-09
-6.3775e-08
-1.22528e-07
-1.78665e-07
-2.30982e-07
-2.78488e-07
-3.20391e-07
-3.56172e-07
-3.85735e-07
-4.09481e-07
-4.28267e-07
-4.43039e-07
-4.54146e-07
-4.61455e-07
-4.6455e-07
-4.6309e-07
-4.57881e-07
-4.52199e-07
-4.50529e-07
-4.50908e-07
-4.4654e-07
-4.36284e-07
-4.27293e-07
-4.24226e-07
-4.24327e-07
-4.23726e-07
-4.21124e-07
1.39786e-07
7.04508e-08
-4.43805e-09
-7.80343e-08
-1.47204e-07
-2.11332e-07
-2.70262e-07
-3.23396e-07
-3.69773e-07
-4.08483e-07
-4.39008e-07
-4.61491e-07
-4.76844e-07
-4.86866e-07
-4.94097e-07
-5.01615e-07
-5.10843e-07
-5.17564e-07
-5.14374e-07
-4.98174e-07
-4.74391e-07
-4.55175e-07
-4.4783e-07
-4.48582e-07
-4.48364e-07
-4.44639e-07
-4.39337e-07
-4.34336e-07
-4.31309e-07
-4.30196e-07
-1.00911e-07
-1.77701e-07
-2.54968e-07
-3.30791e-07
-4.00693e-07
-4.61354e-07
-5.11094e-07
-5.49143e-07
-5.75105e-07
-5.88956e-07
-5.91298e-07
-5.83624e-07
-5.68376e-07
-5.4914e-07
-5.30318e-07
-5.16587e-07
-5.10471e-07
-5.11661e-07
-5.15269e-07
-5.14869e-07
-5.08133e-07
-4.97382e-07
-4.84088e-07
-4.70113e-07
-4.58125e-07
-4.49977e-07
-4.44882e-07
-4.41535e-07
-4.39554e-07
-4.38773e-07
2.90466e-07
2.91155e-07
2.92545e-07
2.94519e-07
2.96594e-07
2.98159e-07
2.9909e-07
2.99387e-07
2.98475e-07
2.94497e-07
2.85386e-07
2.69867e-07
2.25555e-07
1.94764e-07
-1.98283e-08
-1.72708e-07
-2.49704e-07
-3.2524e-07
-3.94858e-07
-4.55247e-07
-5.04736e-07
-5.42556e-07
-5.68317e-07
-5.82003e-07
-5.84223e-07
-5.76482e-07
-5.6123e-07
-5.42062e-07
-5.23379e-07
-5.09839e-07
-5.0391e-07
-5.05215e-07
-5.08795e-07
-5.08262e-07
-5.01455e-07
-4.90677e-07
-4.77394e-07
-4.63499e-07
-4.51652e-07
-4.43625e-07
-4.38592e-07
-4.35283e-07
-4.33344e-07
-4.32615e-07
7.43749e-08
-2.63245e-10
-7.35893e-08
-1.42489e-07
-2.06359e-07
-2.6504e-07
-3.17937e-07
-3.64088e-07
-4.02591e-07
-4.32934e-07
-4.55268e-07
-4.70513e-07
-4.80474e-07
-4.87692e-07
-4.95237e-07
-5.04443e-07
-5.11016e-07
-5.07581e-07
-4.91194e-07
-4.67474e-07
-4.48616e-07
-4.41616e-07
-4.42471e-07
-4.42188e-07
-4.38446e-07
-4.33119e-07
-4.2817e-07
-4.25206e-07
-4.24138e-07
1.17007e-07
5.93933e-08
2.28947e-10
-5.94165e-08
-1.17936e-07
-1.73841e-07
-2.25932e-07
-2.73224e-07
-3.14926e-07
-3.50528e-07
-3.79937e-07
-4.03557e-07
-4.22244e-07
-4.36933e-07
-4.47948e-07
-4.55167e-07
-4.58177e-07
-4.56651e-07
-4.51428e-07
-4.45835e-07
-4.44286e-07
-4.44653e-07
-4.40173e-07
-4.29914e-07
-4.21111e-07
-4.18184e-07
-4.18214e-07
-4.17466e-07
-4.14821e-07
1.88587e-07
1.36165e-07
8.12981e-08
2.6129e-08
-2.83169e-08
-8.13836e-08
-1.32356e-07
-1.80379e-07
-2.24571e-07
-2.64184e-07
-2.98732e-07
-3.28059e-07
-3.52314e-07
-3.71848e-07
-3.87089e-07
-3.9857e-07
-4.06912e-07
-4.12817e-07
-4.17058e-07
-4.20364e-07
-4.2269e-07
-4.23019e-07
-4.20755e-07
-4.17139e-07
-4.14745e-07
-4.1335e-07
-4.10599e-07
-4.08524e-07
-4.0958e-07
2.12097e-07
1.69043e-07
1.22997e-07
7.48485e-08
2.57053e-08
-2.34508e-08
-7.1729e-08
-1.18251e-07
-1.62142e-07
-2.02605e-07
-2.39004e-07
-2.70948e-07
-2.98318e-07
-3.21277e-07
-3.40242e-07
-3.55824e-07
-3.68674e-07
-3.7932e-07
-3.88022e-07
-3.94768e-07
-3.99378e-07
-4.02242e-07
-4.04082e-07
-4.05694e-07
-4.07467e-07
-4.09384e-07
-4.1122e-07
-4.14406e-07
-4.17692e-07
2.32711e-07
1.9519e-07
1.54575e-07
1.11491e-07
6.66361e-08
2.0844e-08
-2.4994e-08
-6.99861e-08
-1.13257e-07
-1.53989e-07
-1.91475e-07
-2.25213e-07
-2.54944e-07
-2.80698e-07
-3.02746e-07
-3.21527e-07
-3.37491e-07
-3.51007e-07
-3.6226e-07
-3.7137e-07
-3.7863e-07
-3.84743e-07
-3.90368e-07
-3.95954e-07
-4.01551e-07
-4.07617e-07
-4.14068e-07
-4.2211e-07
-4.29363e-07
2.44133e-07
2.11323e-07
1.75394e-07
1.36669e-07
9.57139e-08
5.3239e-08
1.00408e-08
-3.30449e-08
-7.51697e-08
-1.15519e-07
-1.53357e-07
-1.88111e-07
-2.19415e-07
-2.4716e-07
-2.71439e-07
-2.92528e-07
-3.1073e-07
-3.26379e-07
-3.39728e-07
-3.51161e-07
-3.61131e-07
-3.70311e-07
-3.7912e-07
-3.88042e-07
-3.97062e-07
-4.06942e-07
-4.1712e-07
-4.29197e-07
-4.39896e-07
2.51233e-07
2.2215e-07
1.90018e-07
1.54953e-07
1.17373e-07
7.78755e-08
3.71667e-08
-3.99495e-09
-4.48047e-08
-8.44771e-08
-1.22257e-07
-1.57539e-07
-1.89855e-07
-2.18999e-07
-2.44913e-07
-2.67773e-07
-2.87781e-07
-3.05309e-07
-3.20651e-07
-3.34353e-07
-3.46786e-07
-3.58637e-07
-3.70069e-07
-3.8181e-07
-3.93593e-07
-4.06531e-07
-4.19504e-07
-4.34511e-07
-4.48124e-07
2.55875e-07
2.29682e-07
2.0058e-07
1.68536e-07
1.33833e-07
9.69519e-08
5.85158e-08
1.91943e-08
-2.02572e-08
-5.91047e-08
-9.65789e-08
-1.32068e-07
-1.65019e-07
-1.95173e-07
-2.22342e-07
-2.46667e-07
-2.68251e-07
-2.87532e-07
-3.04743e-07
-3.20537e-07
-3.35098e-07
-3.4922e-07
-3.6282e-07
-3.76872e-07
-3.90826e-07
-4.06017e-07
-4.21094e-07
-4.38005e-07
-4.54052e-07
2.58732e-07
2.34945e-07
2.08365e-07
1.78838e-07
1.46572e-07
1.11961e-07
7.55581e-08
3.79385e-08
-1.91049e-10
-3.81616e-08
-7.51929e-08
-1.10692e-07
-1.44032e-07
-1.74938e-07
-2.03114e-07
-2.28695e-07
-2.51677e-07
-2.72558e-07
-2.91445e-07
-3.09077e-07
-3.25458e-07
-3.41491e-07
-3.56914e-07
-3.72814e-07
-3.8851e-07
-4.05306e-07
-4.21985e-07
-4.40093e-07
-4.57846e-07
2.60301e-07
2.38572e-07
2.14126e-07
1.8673e-07
1.5656e-07
1.2394e-07
8.93616e-08
5.33019e-08
1.64248e-08
-2.06698e-08
-5.7194e-08
-9.25887e-08
-1.26166e-07
-1.57658e-07
-1.86667e-07
-2.13339e-07
-2.37558e-07
-2.59857e-07
-2.80221e-07
-2.99437e-07
-3.17394e-07
-3.35028e-07
-3.52011e-07
-3.69374e-07
-3.86494e-07
-4.0443e-07
-4.22287e-07
-4.41091e-07
-4.59789e-07
2.61056e-07
2.41025e-07
2.1835e-07
1.92773e-07
1.64445e-07
1.33604e-07
1.00678e-07
6.60512e-08
3.03539e-08
-5.88347e-09
-4.18696e-08
-7.70894e-08
-1.10804e-07
-1.42763e-07
-1.72477e-07
-2.00103e-07
-2.25418e-07
-2.48967e-07
-2.70644e-07
-2.91234e-07
-3.10581e-07
-3.2957e-07
-3.47896e-07
-3.66434e-07
-3.84692e-07
-4.03455e-07
-4.22079e-07
-4.41247e-07
-4.60248e-07
2.61741e-07
2.42941e-07
2.21624e-07
1.97555e-07
1.70823e-07
1.41555e-07
1.10105e-07
7.67773e-08
4.21735e-08
6.7553e-09
-2.86858e-08
-6.36875e-08
-9.7468e-08
-1.29801e-07
-1.60119e-07
-1.88578e-07
-2.14872e-07
-2.3953e-07
-2.62388e-07
-2.84195e-07
-3.04777e-07
-3.24941e-07
-3.44405e-07
-3.6392e-07
-3.83045e-07
-4.02427e-07
-4.21463e-07
-4.40775e-07
-4.59657e-07
2.62559e-07
2.44652e-07
2.24381e-07
2.01542e-07
1.76158e-07
1.48244e-07
1.18087e-07
8.59156e-08
5.23054e-08
1.76504e-08
-1.72619e-08
-5.20256e-08
-8.58249e-08
-1.18461e-07
-1.49296e-07
-1.78488e-07
-2.05657e-07
-2.31312e-07
-2.55232e-07
-2.78133e-07
-2.99807e-07
-3.21006e-07
-3.41428e-07
-3.61757e-07
-3.81529e-07
-4.01351e-07
-4.2057e-07
-4.39842e-07
-4.5842e-07
2.63396e-07
2.462e-07
2.26811e-07
2.05006e-07
1.80751e-07
1.53986e-07
1.24946e-07
9.3794e-08
6.10739e-08
2.71164e-08
-7.30189e-09
-4.1828e-08
-7.56226e-08
-1.08512e-07
-1.39801e-07
-1.69648e-07
-1.97603e-07
-2.24162e-07
-2.49039e-07
-2.7293e-07
-2.95565e-07
-3.1768e-07
-3.38897e-07
-3.59907e-07
-3.80144e-07
-4.00266e-07
-4.19499e-07
-4.38621e-07
-4.56778e-07
2.64084e-07
2.47538e-07
2.2896e-07
2.08062e-07
1.84771e-07
1.58991e-07
1.3092e-07
1.00668e-07
6.87421e-08
3.54194e-08
1.4508e-09
-3.2851e-08
-6.66383e-08
-9.97519e-08
-1.31454e-07
-1.619e-07
-1.90574e-07
-2.17965e-07
-2.43712e-07
-2.68503e-07
-2.91991e-07
-3.14908e-07
-3.36798e-07
-3.5835e-07
-3.78932e-07
-3.99207e-07
-4.18372e-07
-4.37199e-07
-4.54919e-07
2.64536e-07
2.4862e-07
2.30802e-07
2.10728e-07
1.88292e-07
1.6339e-07
1.36174e-07
1.06734e-07
7.55204e-08
4.27856e-08
9.22081e-09
-2.48691e-08
-5.86634e-08
-9.19822e-08
-1.24082e-07
-1.55084e-07
-1.84441e-07
-2.12602e-07
-2.39161e-07
-2.6477e-07
-2.89036e-07
-3.12649e-07
-3.35124e-07
-3.57091e-07
-3.77938e-07
-3.98229e-07
-4.17269e-07
-4.35681e-07
-4.52917e-07
2.64789e-07
2.49456e-07
2.32317e-07
2.13005e-07
1.91365e-07
1.67279e-07
1.40831e-07
1.12142e-07
8.15762e-08
4.94044e-08
1.61977e-08
-1.76805e-08
-5.15102e-08
-8.50112e-08
-1.17518e-07
-1.49037e-07
-1.79068e-07
-2.07945e-07
-2.35287e-07
-2.61645e-07
-2.86636e-07
-3.1086e-07
-3.33851e-07
-3.56139e-07
-3.77172e-07
-3.9739e-07
-4.16225e-07
-4.34144e-07
-4.5078e-07
2.65034e-07
2.50136e-07
2.33519e-07
2.14926e-07
1.94047e-07
1.70741e-07
1.44988e-07
1.17018e-07
8.70436e-08
5.54315e-08
2.25311e-08
-1.11154e-08
-4.50282e-08
-7.86686e-08
-1.11626e-07
-1.43603e-07
-1.74342e-07
-2.03864e-07
-2.32002e-07
-2.5903e-07
-2.84731e-07
-3.09482e-07
-3.3295e-07
-3.55473e-07
-3.76644e-07
-3.96692e-07
-4.15279e-07
-4.32579e-07
-4.48563e-07
2.65483e-07
2.50745e-07
2.34474e-07
2.16581e-07
1.96429e-07
1.73857e-07
1.4873e-07
1.21467e-07
9.20333e-08
6.09902e-08
2.83344e-08
-5.04389e-09
-3.91086e-08
-7.28207e-08
-1.06315e-07
-1.38652e-07
-1.70191e-07
-2.0024e-07
-2.29253e-07
-2.56825e-07
-2.83278e-07
-3.08452e-07
-3.32382e-07
-3.55081e-07
-3.76316e-07
-3.96182e-07
-4.14394e-07
-4.31076e-07
-4.46211e-07
2.66281e-07
2.51331e-07
2.3531e-07
2.18132e-07
1.98629e-07
1.76711e-07
1.52146e-07
1.25584e-07
9.66437e-08
6.6173e-08
3.36951e-08
6.21691e-10
-3.36779e-08
-6.7382e-08
-1.01531e-07
-1.34097e-07
-1.66595e-07
-1.96975e-07
-2.27055e-07
-2.54924e-07
-2.82318e-07
-3.07661e-07
-3.32189e-07
-3.54879e-07
-3.76229e-07
-3.95835e-07
-4.13647e-07
-4.29642e-07
-4.43915e-07
2.67394e-07
2.5187e-07
2.36221e-07
2.19755e-07
2.00761e-07
1.7938e-07
1.55339e-07
1.29456e-07
1.0097e-07
7.10396e-08
3.86916e-08
5.92045e-09
-2.86728e-08
-6.23361e-08
-9.72347e-08
-1.29927e-07
-1.63548e-07
-1.9405e-07
-2.25459e-07
-2.53272e-07
-2.81978e-07
-3.06996e-07
-3.32546e-07
-3.54709e-07
-3.76506e-07
-3.95583e-07
-4.13113e-07
-4.28465e-07
-4.41768e-07
2.68674e-07
2.52498e-07
2.37496e-07
2.21583e-07
2.0291e-07
1.81944e-07
1.5843e-07
1.33155e-07
1.05108e-07
7.562e-08
4.34088e-08
1.08436e-08
-2.402e-08
-5.77393e-08
-9.33616e-08
-1.26246e-07
-1.60997e-07
-1.91592e-07
-2.24444e-07
-2.51967e-07
-2.8233e-07
-3.06462e-07
-3.33744e-07
-3.54381e-07
-3.77606e-07
-3.95103e-07
-4.13071e-07
-4.27606e-07
-4.39938e-07
2.70054e-07
2.5337e-07
2.3933e-07
2.23663e-07
2.05143e-07
1.84497e-07
1.61538e-07
1.3674e-07
1.09146e-07
7.99346e-08
4.79284e-08
1.53621e-08
-1.96478e-08
-5.36833e-08
-8.98349e-08
-1.2323e-07
-1.58835e-07
-1.89866e-07
-2.23867e-07
-2.51357e-07
-2.83219e-07
-3.06364e-07
-3.35778e-07
-3.53945e-07
-3.80188e-07
-3.93854e-07
-4.14897e-07
-4.26523e-07
-4.39255e-07
2.71538e-07
2.54956e-07
2.41768e-07
2.25986e-07
2.07536e-07
1.87142e-07
1.64751e-07
1.40261e-07
1.13143e-07
8.40051e-08
5.22965e-08
1.94572e-08
-1.55235e-08
-5.02354e-08
-8.66103e-08
-1.21013e-07
-1.56969e-07
-1.89107e-07
-2.23527e-07
-2.51887e-07
-2.84293e-07
-3.07494e-07
-3.38066e-07
-3.54432e-07
-3.83878e-07
-3.92258e-07
-4.19879e-07
-4.23828e-07
-4.40861e-07
2.7324e-07
2.57483e-07
2.4475e-07
2.28701e-07
2.10352e-07
1.90143e-07
1.68241e-07
1.43874e-07
1.17191e-07
8.79327e-08
5.65406e-08
2.31758e-08
-1.16714e-08
-4.73916e-08
-8.37404e-08
-1.19616e-07
-1.55449e-07
-1.89361e-07
-2.23342e-07
-2.53668e-07
-2.85294e-07
-3.10265e-07
-3.39866e-07
-3.57174e-07
-3.87218e-07
-3.92506e-07
-4.2793e-07
-4.16626e-07
-4.51936e-07
2.75803e-07
2.60919e-07
2.47051e-07
2.30438e-07
2.12874e-07
1.93183e-07
1.71848e-07
1.47522e-07
1.21249e-07
9.17421e-08
6.06227e-08
2.65603e-08
-8.19178e-09
-4.51095e-08
-8.14209e-08
-1.18954e-07
-1.54616e-07
-1.90534e-07
-2.23707e-07
-2.56177e-07
-2.86262e-07
-3.14208e-07
-3.40706e-07
-3.62155e-07
-3.88238e-07
-3.97096e-07
-4.34634e-07
-4.09989e-07
-4.7879e-07
2.79864e-07
2.6705e-07
2.52662e-07
2.35359e-07
2.17189e-07
1.97305e-07
1.76139e-07
1.51758e-07
1.25645e-07
9.5808e-08
6.46751e-08
2.9851e-08
-5.10321e-09
-4.32478e-08
-7.97721e-08
-1.18861e-07
-1.54603e-07
-1.92693e-07
-2.2533e-07
-2.60611e-07
-2.88403e-07
-3.19365e-07
-3.423e-07
-3.67972e-07
-3.87632e-07
-4.06156e-07
-4.33431e-07
-4.14232e-07
-5.16394e-07
2.82307e-07
2.68459e-07
2.53585e-07
2.36772e-07
2.19585e-07
2.00221e-07
1.79396e-07
1.55064e-07
1.29082e-07
9.90087e-08
6.77823e-08
3.23929e-08
-2.9117e-09
-4.1965e-08
-7.9083e-08
-1.19192e-07
-1.55291e-07
-1.93995e-07
-2.27003e-07
-2.62724e-07
-2.90634e-07
-3.22788e-07
-3.43967e-07
-3.72458e-07
-3.85778e-07
-4.10498e-07
-4.22749e-07
-4.28715e-07
-5.77694e-07
3.00678e-07
2.7985e-07
2.62402e-07
2.44915e-07
2.27317e-07
2.07647e-07
1.86672e-07
1.62149e-07
1.35811e-07
1.05111e-07
7.30336e-08
3.64768e-08
-1.43288e-10
-4.07188e-08
-7.92969e-08
-1.21195e-07
-1.58779e-07
-1.99332e-07
-2.333e-07
-2.70351e-07
-2.98908e-07
-3.31178e-07
-3.53012e-07
-3.80639e-07
-3.93566e-07
-4.20959e-07
-4.2017e-07
-4.54459e-07
-5.54167e-07
-4.38851e-07
-4.31058e-07
-4.23738e-07
-4.27222e-07
-4.36668e-07
-4.50718e-07
-4.62721e-07
-4.72164e-07
-4.7903e-07
-4.83349e-07
-4.85291e-07
-4.85337e-07
-4.84053e-07
-4.81878e-07
-4.79205e-07
-4.76153e-07
-4.72826e-07
-4.693e-07
-4.65504e-07
-4.61668e-07
-4.57728e-07
-4.54e-07
-4.50883e-07
-4.4887e-07
-4.49532e-07
-4.52724e-07
-4.57002e-07
-4.4795e-07
-4.10114e-07
-3.38879e-07
-4.39446e-07
-4.32883e-07
-4.26534e-07
-4.27514e-07
-4.38503e-07
-4.548e-07
-4.70924e-07
-4.84229e-07
-4.9433e-07
-5.01222e-07
-5.05028e-07
-5.06082e-07
-5.05234e-07
-5.03105e-07
-5.00143e-07
-4.9678e-07
-4.92916e-07
-4.88794e-07
-4.84304e-07
-4.79475e-07
-4.74616e-07
-4.69365e-07
-4.64593e-07
-4.59423e-07
-4.54248e-07
-4.47374e-07
-4.37564e-07
-4.25553e-07
-4.11422e-07
-4.00068e-07
-4.40112e-07
-4.35063e-07
-4.31218e-07
-4.33929e-07
-4.43484e-07
-4.58294e-07
-4.75828e-07
-4.9235e-07
-5.06177e-07
-5.16641e-07
-5.23702e-07
-5.27488e-07
-5.28302e-07
-5.2709e-07
-5.24258e-07
-5.20583e-07
-5.16352e-07
-5.11561e-07
-5.06712e-07
-5.01184e-07
-4.95633e-07
-4.89358e-07
-4.82687e-07
-4.75235e-07
-4.6634e-07
-4.56925e-07
-4.46241e-07
-4.37155e-07
-4.25106e-07
-4.10274e-07
-4.4068e-07
-4.37265e-07
-4.36269e-07
-4.40903e-07
-4.50851e-07
-4.64557e-07
-4.81368e-07
-4.99047e-07
-5.15346e-07
-5.29121e-07
-5.39663e-07
-5.47076e-07
-5.51209e-07
-5.52482e-07
-5.51437e-07
-5.48277e-07
-5.44126e-07
-5.38747e-07
-5.33046e-07
-5.26728e-07
-5.19965e-07
-5.13027e-07
-5.05051e-07
-4.97031e-07
-4.87613e-07
-4.78656e-07
-4.68685e-07
-4.58923e-07
-4.47413e-07
-4.34856e-07
-4.40886e-07
-4.39186e-07
-4.41104e-07
-4.48076e-07
-4.59124e-07
-4.73024e-07
-4.88728e-07
-5.05927e-07
-5.23095e-07
-5.38848e-07
-5.52382e-07
-5.62983e-07
-5.70883e-07
-5.75532e-07
-5.77835e-07
-5.7727e-07
-5.74891e-07
-5.70558e-07
-5.64802e-07
-5.58147e-07
-5.50322e-07
-5.42375e-07
-5.33314e-07
-5.24459e-07
-5.14801e-07
-5.05288e-07
-4.95175e-07
-4.84807e-07
-4.74164e-07
-4.63805e-07
-4.40387e-07
-4.40381e-07
-4.4502e-07
-4.544e-07
-4.66998e-07
-4.81646e-07
-4.9747e-07
-5.13852e-07
-5.30751e-07
-5.46922e-07
-5.62098e-07
-5.75044e-07
-5.85962e-07
-5.93946e-07
-5.99702e-07
-6.02719e-07
-6.03501e-07
-6.02074e-07
-5.98536e-07
-5.93439e-07
-5.86588e-07
-5.78756e-07
-5.6969e-07
-5.60077e-07
-5.49705e-07
-5.38908e-07
-5.27479e-07
-5.15702e-07
-5.03684e-07
-4.92207e-07
-4.38778e-07
-4.40331e-07
-4.47331e-07
-4.5894e-07
-4.73236e-07
-4.8909e-07
-5.05643e-07
-5.22411e-07
-5.3878e-07
-5.5493e-07
-5.70149e-07
-5.84427e-07
-5.96858e-07
-6.07481e-07
-6.16003e-07
-6.22303e-07
-6.26383e-07
-6.28327e-07
-6.28136e-07
-6.26063e-07
-6.22067e-07
-6.16506e-07
-6.09361e-07
-6.00987e-07
-5.91333e-07
-5.80742e-07
-5.69126e-07
-5.5694e-07
-5.44195e-07
-5.31824e-07
-4.35652e-07
-4.38546e-07
-4.47494e-07
-4.60989e-07
-4.76909e-07
-4.94125e-07
-5.11747e-07
-5.29345e-07
-5.46208e-07
-5.62727e-07
-5.77629e-07
-5.92508e-07
-6.05377e-07
-6.17426e-07
-6.27517e-07
-6.36158e-07
-6.42841e-07
-6.4777e-07
-6.50695e-07
-6.51852e-07
-6.51092e-07
-6.48699e-07
-6.44546e-07
-6.38936e-07
-6.31803e-07
-6.23485e-07
-6.14048e-07
-6.03843e-07
-5.93221e-07
-5.82647e-07
-4.30711e-07
-4.34771e-07
-4.4522e-07
-4.60147e-07
-4.7747e-07
-4.95984e-07
-5.14802e-07
-5.33405e-07
-5.51175e-07
-5.68416e-07
-5.8404e-07
-5.99151e-07
-6.12391e-07
-6.25053e-07
-6.36027e-07
-6.45908e-07
-6.5414e-07
-6.6101e-07
-6.66241e-07
-6.69947e-07
-6.71998e-07
-6.72435e-07
-6.71302e-07
-6.68604e-07
-6.64568e-07
-6.59129e-07
-6.52727e-07
-6.45238e-07
-6.3742e-07
-6.29119e-07
-4.23921e-07
-4.28981e-07
-4.4049e-07
-4.5643e-07
-4.74835e-07
-4.94431e-07
-5.14319e-07
-5.33897e-07
-5.5267e-07
-5.70683e-07
-5.87233e-07
-6.02914e-07
-6.17067e-07
-6.30203e-07
-6.41872e-07
-6.52415e-07
-6.61657e-07
-6.69597e-07
-6.76293e-07
-6.81467e-07
-6.85508e-07
-6.8785e-07
-6.89163e-07
-6.88699e-07
-6.87325e-07
-6.84225e-07
-6.80408e-07
-6.75051e-07
-6.69265e-07
-6.62251e-07
-4.15666e-07
-4.21481e-07
-4.33682e-07
-4.50243e-07
-4.69348e-07
-4.89704e-07
-5.10399e-07
-5.30793e-07
-5.50455e-07
-5.69166e-07
-5.86652e-07
-6.02958e-07
-6.17918e-07
-6.3167e-07
-6.44075e-07
-6.55299e-07
-6.6529e-07
-6.73986e-07
-6.8159e-07
-6.87734e-07
-6.92966e-07
-6.96455e-07
-6.99284e-07
-7.00176e-07
-7.00577e-07
-6.98941e-07
-6.96962e-07
-6.92952e-07
-6.88728e-07
-6.82464e-07
-4.06721e-07
-4.13022e-07
-4.25609e-07
-4.42444e-07
-4.61868e-07
-4.82609e-07
-5.03763e-07
-5.24684e-07
-5.44935e-07
-5.64231e-07
-5.82379e-07
-5.99297e-07
-6.14921e-07
-6.2926e-07
-6.42303e-07
-6.54096e-07
-6.64657e-07
-6.73989e-07
-6.82146e-07
-6.88999e-07
-6.94866e-07
-6.99216e-07
-7.02768e-07
-7.04668e-07
-7.05899e-07
-7.05285e-07
-7.0433e-07
-7.01263e-07
-6.98496e-07
-6.92686e-07
-3.98195e-07
-4.04741e-07
-4.17465e-07
-4.34298e-07
-4.53719e-07
-4.74503e-07
-4.95773e-07
-5.16888e-07
-5.37403e-07
-5.57018e-07
-5.75537e-07
-5.92849e-07
-6.08895e-07
-6.23656e-07
-6.37135e-07
-6.49349e-07
-6.60319e-07
-6.70065e-07
-6.78606e-07
-6.85943e-07
-6.92108e-07
-6.97068e-07
-7.00879e-07
-7.03473e-07
-7.04946e-07
-7.05184e-07
-7.04407e-07
-7.02441e-07
-7.0018e-07
-6.93812e-07
-3.91335e-07
-3.97966e-07
-4.10655e-07
-4.2732e-07
-4.4654e-07
-4.67141e-07
-4.88278e-07
-5.09325e-07
-5.29839e-07
-5.49509e-07
-5.68136e-07
-5.85594e-07
-6.01816e-07
-6.1677e-07
-6.30451e-07
-6.42867e-07
-6.54033e-07
-6.63966e-07
-6.72683e-07
-6.80195e-07
-6.86516e-07
-6.9165e-07
-6.95612e-07
-6.98408e-07
-7.00057e-07
-7.00544e-07
-6.99851e-07
-6.97912e-07
-6.94802e-07
-6.90786e-07
-3.87264e-07
-3.93898e-07
-4.06494e-07
-4.22971e-07
-4.4196e-07
-4.62322e-07
-4.83239e-07
-5.04094e-07
-5.24455e-07
-5.43998e-07
-5.62528e-07
-5.79919e-07
-5.96098e-07
-6.11028e-07
-6.24698e-07
-6.37112e-07
-6.48281e-07
-6.58221e-07
-6.66947e-07
-6.74474e-07
-6.80817e-07
-6.85992e-07
-6.90016e-07
-6.92903e-07
-6.94659e-07
-6.95278e-07
-6.94758e-07
-6.93134e-07
-6.90526e-07
-6.87102e-07
-3.86675e-07
-3.93291e-07
-4.05847e-07
-4.22267e-07
-4.41193e-07
-4.61488e-07
-4.82333e-07
-5.03114e-07
-5.23391e-07
-5.42879e-07
-5.61365e-07
-5.78721e-07
-5.94874e-07
-6.09789e-07
-6.23456e-07
-6.35882e-07
-6.4708e-07
-6.57067e-07
-6.65861e-07
-6.73477e-07
-6.79934e-07
-6.85249e-07
-6.89442e-07
-6.92524e-07
-6.94503e-07
-6.95376e-07
-6.95149e-07
-6.93855e-07
-6.91584e-07
-6.88472e-07
-3.89609e-07
-3.96192e-07
-4.08767e-07
-4.25276e-07
-4.4432e-07
-4.64736e-07
-4.85687e-07
-5.06549e-07
-5.26885e-07
-5.46395e-07
-5.64883e-07
-5.82229e-07
-5.98366e-07
-6.13268e-07
-6.26933e-07
-6.39376e-07
-6.50617e-07
-6.60679e-07
-6.69583e-07
-6.77348e-07
-6.83989e-07
-6.89519e-07
-6.93956e-07
-6.97305e-07
-6.9958e-07
-7.00767e-07
-7.00846e-07
-6.99763e-07
-6.9757e-07
-6.94474e-07
-3.95445e-07
-4.01922e-07
-4.14476e-07
-4.31079e-07
-4.50243e-07
-4.7076e-07
-4.91764e-07
-5.12624e-07