/*--------------------------------*- C++ -*----------------------------------*\
| =========                 |                                                 |
| \\      /  F ield         | OpenFOAM: The Open Source CFD Toolbox           |
|  \\    /   O peration     | Version:  2312                                  |
|   \\  /    A nd           | Website:  www.openfoam.com                      |
|    \\/     M anipulation  |                                                 |
\*---------------------------------------------------------------------------*/
FoamFile
{
    version     2.0;
    format      ascii;
    arch        "LSB;label=32;scalar=64";
    class       surfaceScalarField;
    location    "67000";
    object      phi;
}
// * * * * * * * * * * * * * * * * * * * * * * * * * * * * * * * * * * * * * //

dimensions      [0 3 -1 0 0 0 0];

oriented        oriented;

internalField   nonuniform List<scalar> 
5250
(
9.47665e-05
-4.5636e-06
9.90477e-05
-4.28126e-06
0.000103051
-4.00364e-06
0.000106784
-3.73248e-06
0.000110253
-3.46925e-06
0.000113468
-3.21522e-06
0.00011644
-2.97141e-06
0.000119178
-2.73862e-06
0.000121696
-2.51748e-06
0.000124004
-2.30843e-06
0.000126116
-2.11174e-06
0.000128044
-1.92752e-06
0.000129799
-1.75576e-06
0.000131396
-1.59632e-06
0.000132845
-1.44898e-06
0.000134158
-1.31338e-06
0.000135347
-1.18915e-06
0.000136423
-1.07579e-06
0.000137396
-9.728e-07
0.000138275
-8.79619e-07
0.000139071
-7.95662e-07
0.000139791
-7.20327e-07
0.000140444
-6.53005e-07
0.000141037
-5.93085e-07
0.000141577
-5.39967e-07
0.00014207
-4.93064e-07
0.000142522
-4.5181e-07
0.000142938
-4.15661e-07
0.000143322
-3.84102e-07
0.000143679
-3.56644e-07
0.000144011
-3.32829e-07
0.000144324
-3.12226e-07
0.000144618
-2.94434e-07
0.000144897
-2.79082e-07
0.000145163
-2.65827e-07
0.000145417
-2.54359e-07
0.000145662
-2.44397e-07
0.000145897
-2.3569e-07
0.000146126
-2.28019e-07
0.000146347
-2.21192e-07
0.000146562
-2.15044e-07
0.000146771
-2.09434e-07
0.000146975
-2.04245e-07
0.000147175
-1.9938e-07
0.00014737
-1.94761e-07
0.00014756
-1.9033e-07
0.000147746
-1.86048e-07
0.000147928
-1.81897e-07
0.000148106
-1.77873e-07
0.00014828
-1.73988e-07
0.00014845
-1.70258e-07
0.000148617
-1.66709e-07
0.00014878
-1.63363e-07
0.00014894
-1.60241e-07
0.000149098
-1.57357e-07
0.000149252
-1.54722e-07
0.000149405
-1.52349e-07
0.000149555
-1.50247e-07
0.000149703
-1.4843e-07
0.00014985
-1.46902e-07
0.000149996
-1.45658e-07
0.000150141
-1.44678e-07
0.000150285
-1.43941e-07
0.000150428
-1.43416e-07
0.000150571
-1.4308e-07
0.000150714
-1.42894e-07
0.000150857
-1.4283e-07
0.000151
-1.42846e-07
0.000151143
-1.42905e-07
0.000151285
-1.42961e-07
0.000151428
-1.42968e-07
0.000151571
-1.42878e-07
0.000151714
-1.42641e-07
0.000151856
-1.42199e-07
0.000151998
-1.41512e-07
0.000152138
-1.40505e-07
0.000152277
-1.39154e-07
0.000152415
-1.37384e-07
0.00015255
-1.35159e-07
0.000152682
-1.3248e-07
0.000152812
-1.29175e-07
0.000152937
-1.25512e-07
0.000153058
-1.20857e-07
0.000153174
-1.16237e-07
0.000153284
-1.09647e-07
0.000153388
-1.04304e-07
0.000153482
-9.42761e-08
0.000153571
-8.88686e-08
-7.13296e-08
0.000288908
-1.09658e-05
0.000295022
-1.0395e-05
0.000300849
-9.83122e-06
0.000306394
-9.27763e-06
0.000311662
-8.73706e-06
0.000316659
-8.21191e-06
0.000321392
-7.70417e-06
0.000325868
-7.21549e-06
0.000330098
-6.74715e-06
0.00033409
-6.30014e-06
0.000337853
-5.87516e-06
0.000341398
-5.47263e-06
0.000344735
-5.09274e-06
0.000347874
-4.73549e-06
0.000350826
-4.40068e-06
0.000353601
-4.08793e-06
0.000356208
-3.79673e-06
0.000358659
-3.52646e-06
0.000360963
-3.27636e-06
0.000363129
-3.04561e-06
0.000365166
-2.83331e-06
0.000367084
-2.63849e-06
0.000368891
-2.46015e-06
0.000370596
-2.29728e-06
0.000372205
-2.14884e-06
0.000373725
-2.01378e-06
0.000375165
-1.89111e-06
0.000376529
-1.77981e-06
0.000377824
-1.67893e-06
0.000379054
-1.58754e-06
0.000380226
-1.50474e-06
0.000381344
-1.4297e-06
0.000382411
-1.36161e-06
0.000383432
-1.29971e-06
0.000384409
-1.24329e-06
0.000385346
-1.1917e-06
0.000386246
-1.14436e-06
0.000387111
-1.10073e-06
0.000387944
-1.06033e-06
0.000388745
-1.02277e-06
0.000389518
-9.87676e-07
0.000390263
-9.54742e-07
0.000390983
-9.23704e-07
0.000391678
-8.94343e-07
0.000392349
-8.66486e-07
0.000392999
-8.4001e-07
0.000393628
-8.14835e-07
0.000394237
-7.90925e-07
0.000394827
-7.68277e-07
0.0003954
-7.46911e-07
0.000395957
-7.26858e-07
0.000396498
-7.08148e-07
0.000397026
-6.908e-07
0.00039754
-6.74817e-07
0.000398043
-6.60179e-07
0.000398535
-6.46844e-07
0.000399018
-6.34751e-07
0.000399491
-6.23817e-07
0.000399957
-6.1395e-07
0.000400415
-6.05042e-07
0.000400866
-5.96992e-07
0.000401311
-5.89678e-07
0.00040175
-5.83003e-07
0.000402184
-5.7684e-07
0.000402612
-5.71092e-07
0.000403034
-5.65626e-07
0.000403452
-5.6033e-07
0.000403864
-5.55066e-07
0.000404271
-5.49689e-07
0.000404672
-5.44079e-07
0.000405067
-5.38026e-07
0.000405456
-5.31483e-07
0.000405837
-5.24139e-07
0.000406211
-5.16099e-07
0.000406577
-5.06891e-07
0.000406933
-4.96901e-07
0.000407279
-4.85369e-07
0.000407615
-4.73209e-07
0.000407939
-4.59028e-07
0.000408251
-4.4481e-07
0.00040855
-4.27672e-07
0.000408836
-4.11927e-07
0.000409106
-3.91291e-07
0.000409365
-3.7513e-07
0.000409606
-3.49833e-07
0.000409837
-3.35279e-07
0.000410045
-3.03e-07
0.00041025
-2.93269e-07
-2.49657e-07
0.000464452
-1.54482e-05
0.000468747
-1.46903e-05
0.000472858
-1.39424e-05
0.000476789
-1.32085e-05
0.000480544
-1.24922e-05
0.000484129
-1.17962e-05
0.000487547
-1.1123e-05
0.000490806
-1.04746e-05
0.000493912
-9.85247e-06
0.00049687
-9.25784e-06
0.000499686
-8.6915e-06
0.000502367
-8.15394e-06
0.00050492
-7.64537e-06
0.00050735
-7.16575e-06
0.000509664
-6.71484e-06
0.000511869
-6.29222e-06
0.000513969
-5.8973e-06
0.000515972
-5.52936e-06
0.000517883
-5.18753e-06
0.000519708
-4.87088e-06
0.000521453
-4.57836e-06
0.000523124
-4.30885e-06
0.000524725
-4.06116e-06
0.000526262
-3.83408e-06
0.000527739
-3.62636e-06
0.000529162
-3.43674e-06
0.000530535
-3.26395e-06
0.000531862
-3.10678e-06
0.000533147
-2.964e-06
0.000534394
-2.83445e-06
0.000535606
-2.71697e-06
0.000536787
-2.61045e-06
0.000537939
-2.51381e-06
0.000539065
-2.42599e-06
0.000540168
-2.34598e-06
0.000541249
-2.27279e-06
0.00054231
-2.20551e-06
0.000543353
-2.14327e-06
0.000544378
-2.08526e-06
0.000545386
-2.03077e-06
0.000546377
-1.97915e-06
0.000547352
-1.92983e-06
0.000548311
-1.88233e-06
0.000549253
-1.83624e-06
0.000550178
-1.79127e-06
0.000551085
-1.74724e-06
0.000551974
-1.70405e-06
0.000552845
-1.66172e-06
0.000553697
-1.62035e-06
0.00055453
-1.5801e-06
0.000555345
-1.54121e-06
0.00055614
-1.50394e-06
0.000556918
-1.46858e-06
0.000557679
-1.43541e-06
0.000558423
-1.40467e-06
0.000559153
-1.37658e-06
0.000559869
-1.35127e-06
0.000560574
-1.32878e-06
0.00056127
-1.30909e-06
0.000561957
-1.29208e-06
0.000562637
-1.27758e-06
0.000563313
-1.26537e-06
0.000563985
-1.25522e-06
0.000564655
-1.24688e-06
0.000565324
-1.24011e-06
0.000565993
-1.2347e-06
0.000566663
-1.23032e-06
0.000567335
-1.22687e-06
0.000568009
-1.22373e-06
0.000568686
-1.22103e-06
0.000569366
-1.21763e-06
0.000570048
-1.21406e-06
0.000570732
-1.20842e-06
0.000571418
-1.20201e-06
0.000572103
-1.19185e-06
0.000572787
-1.18068e-06
0.000573466
-1.1638e-06
0.000574139
-1.14658e-06
0.000574801
-1.12113e-06
0.000575454
-1.09775e-06
0.000576089
-1.06225e-06
0.000576711
-1.03415e-06
0.000577307
-9.87333e-07
0.000577889
-9.57694e-07
0.000578438
-8.98201e-07
0.000578974
-8.71949e-07
0.00057947
-7.98179e-07
0.000579958
-7.81726e-07
-6.91047e-07
0.000622693
-1.68136e-05
0.000623982
-1.5979e-05
0.000625196
-1.51564e-05
0.000626338
-1.43503e-05
0.000627409
-1.35641e-05
0.000628414
-1.2801e-05
0.000629355
-1.20636e-05
0.000630234
-1.1354e-05
0.000631056
-1.06737e-05
0.000631822
-1.0024e-05
0.000632536
-9.40576e-06
0.000633202
-8.81939e-06
0.000633821
-8.2651e-06
0.000634398
-7.74279e-06
0.000634936
-7.25217e-06
0.000635436
-6.79275e-06
0.000635903
-6.36389e-06
0.000636338
-5.96479e-06
0.000636745
-5.59458e-06
0.000637127
-5.25224e-06
0.000637485
-4.93669e-06
0.000637823
-4.64675e-06
0.000638143
-4.38119e-06
0.000638447
-4.13871e-06
0.000638739
-3.918e-06
0.00063902
-3.71775e-06
0.000639293
-3.53664e-06
0.000639559
-3.37338e-06
0.000639822
-3.22672e-06
0.000640083
-3.09542e-06
0.000640344
-2.97826e-06
0.000640608
-2.87404e-06
0.000640876
-2.78159e-06
0.000641149
-2.69972e-06
0.000641431
-2.62724e-06
0.000641721
-2.56299e-06
0.000642021
-2.50583e-06
0.000642333
-2.45467e-06
0.000642656
-2.40848e-06
0.000642991
-2.36633e-06
0.00064334
-2.32733e-06
0.0006437
-2.29066e-06
0.000644074
-2.25557e-06
0.000644459
-2.22141e-06
0.000644855
-2.18761e-06
0.000645262
-2.15379e-06
0.000645677
-2.11968e-06
0.000646101
-2.08518e-06
0.000646531
-2.05032e-06
0.000646966
-2.01523e-06
0.000647405
-1.98011e-06
0.000647846
-1.94527e-06
0.000648289
-1.91104e-06
0.000648731
-1.87792e-06
0.000649173
-1.84641e-06
0.000649613
-1.81718e-06
0.000650053
-1.79085e-06
0.000650492
-1.76805e-06
0.000650933
-1.7493e-06
0.000651375
-1.73492e-06
0.000651823
-1.72508e-06
0.000652277
-1.71972e-06
0.000652741
-1.71861e-06
0.000653215
-1.7215e-06
0.000653703
-1.7278e-06
0.000654206
-1.73754e-06
0.000654725
-1.74969e-06
0.000655263
-1.76494e-06
0.000655821
-1.78151e-06
0.000656401
-1.80102e-06
0.000657004
-1.82037e-06
0.000657632
-1.84236e-06
0.000658285
-1.86187e-06
0.000658967
-1.88355e-06
0.000659674
-1.89917e-06
0.000660411
-1.91693e-06
0.00066117
-1.92333e-06
0.000661957
-1.93355e-06
0.000662761
-1.92473e-06
0.000663588
-1.92494e-06
0.000664421
-1.89496e-06
0.000665271
-1.88479e-06
0.000666112
-1.82855e-06
0.000666965
-1.8105e-06
0.000667791
-1.72436e-06
0.000668624
-1.70416e-06
0.000669412
-1.58655e-06
0.000670203
-1.57263e-06
-1.42592e-06
0.000728986
-1.55803e-05
0.000727792
-1.47848e-05
0.000726635
-1.4e-05
0.000725515
-1.32299e-05
0.000724429
-1.24783e-05
0.000723376
-1.17482e-05
0.000722355
-1.10421e-05
0.000721363
-1.03621e-05
0.000720399
-9.70993e-06
0.000719462
-9.08678e-06
0.00071855
-8.4936e-06
0.000717661
-7.93098e-06
0.000716795
-7.39924e-06
0.000715951
-6.89845e-06
0.000715127
-6.42848e-06
0.000714323
-5.98896e-06
0.000713539
-5.57935e-06
0.000712773
-5.19898e-06
0.000712026
-4.84709e-06
0.000711296
-4.52285e-06
0.000710585
-4.22529e-06
0.000709891
-3.95336e-06
0.000709216
-3.70586e-06
0.000708559
-3.48152e-06
0.00070792
-3.279e-06
0.000707299
-3.09704e-06
0.000706697
-2.93437e-06
0.000706113
-2.78985e-06
0.000705549
-2.66239e-06
0.000705005
-2.55097e-06
0.000704481
-2.45457e-06
0.000703979
-2.37214e-06
0.0007035
-2.30254e-06
0.000703045
-2.2445e-06
0.000702614
-2.19664e-06
0.000702209
-2.15745e-06
0.000701828
-2.12538e-06
0.000701472
-2.09892e-06
0.000701141
-2.07667e-06
0.000700832
-2.05739e-06
0.000700544
-2.04003e-06
0.000700277
-2.0237e-06
0.00070003
-2.0077e-06
0.0006998
-1.99149e-06
0.000699587
-1.9747e-06
0.00069939
-1.95716e-06
0.000699209
-1.93883e-06
0.000699044
-1.91992e-06
0.000698894
-1.90062e-06
0.00069876
-1.88124e-06
0.000698642
-1.86194e-06
0.00069854
-1.84297e-06
0.000698453
-1.82441e-06
0.000698382
-1.80653e-06
0.000698325
-1.78963e-06
0.000698282
-1.77429e-06
0.000698253
-1.76128e-06
0.000698236
-1.75147e-06
0.000698233
-1.74593e-06
0.000698243
-1.74546e-06
0.000698269
-1.75085e-06
0.000698312
-1.7625e-06
0.000698374
-1.78043e-06
0.000698457
-1.80479e-06
0.000698564
-1.83459e-06
0.000698696
-1.87038e-06
0.000698857
-1.91008e-06
0.000699047
-1.95544e-06
0.000699269
-2.00304e-06
0.000699524
-2.05644e-06
0.000699814
-2.11017e-06
0.000700142
-2.17019e-06
0.000700508
-2.22763e-06
0.000700916
-2.29221e-06
0.000701366
-2.34904e-06
0.000701864
-2.41502e-06
0.000702405
-2.46437e-06
0.000702999
-2.52758e-06
0.000703635
-2.56008e-06
0.000704326
-2.61598e-06
0.000705051
-2.62061e-06
0.000705832
-2.66515e-06
0.000706634
-2.63067e-06
0.000707485
-2.66156e-06
0.000708339
-2.57881e-06
0.000709232
-2.59671e-06
0.000710107
-2.46167e-06
0.000711004
-2.4699e-06
-2.28842e-06
0.000773737
-1.30563e-05
0.000771323
-1.23701e-05
0.000769013
-1.16901e-05
0.000766803
-1.10199e-05
0.000764688
-1.0363e-05
0.000762662
-9.72237e-06
0.000760721
-9.10093e-06
0.000758859
-8.50084e-06
0.000757073
-7.92385e-06
0.000755358
-7.37137e-06
0.000753709
-6.84457e-06
0.000752122
-6.34423e-06
0.000750593
-5.87069e-06
0.000749119
-5.42428e-06
0.000747696
-5.00525e-06
0.000746321
-4.61359e-06
0.00074499
-4.249e-06
0.000743702
-3.91105e-06
0.000742455
-3.59927e-06
0.000741245
-3.31302e-06
0.000740071
-3.05167e-06
0.000738932
-2.81449e-06
0.000737827
-2.6005e-06
0.000736754
-2.40855e-06
0.000735712
-2.23742e-06
0.000734701
-2.08588e-06
0.00073372
-1.95275e-06
0.000732767
-1.83701e-06
0.000731842
-1.73786e-06
0.000730946
-1.65465e-06
0.000730078
-1.58687e-06
0.00072924
-1.53399e-06
0.000728433
-1.49529e-06
0.000727658
-1.46978e-06
0.000726917
-1.45606e-06
0.000726212
-1.45231e-06
0.000725543
-1.45637e-06
0.00072491
-1.46588e-06
0.000724312
-1.47852e-06
0.000723747
-1.49211e-06
0.000723212
-1.50487e-06
0.000722703
-1.5154e-06
0.000722218
-1.52278e-06
0.000721753
-1.52656e-06
0.000721305
-1.52669e-06
0.000720872
-1.52358e-06
0.000720451
-1.51792e-06
0.000720042
-1.51075e-06
0.000719644
-1.50313e-06
0.000719259
-1.49622e-06
0.000718888
-1.4909e-06
0.000718533
-1.48795e-06
0.000718197
-1.48775e-06
0.000717881
-1.4906e-06
0.000717588
-1.49673e-06
0.00071732
-1.5064e-06
0.000717079
-1.52011e-06
0.000716866
-1.5383e-06
0.000716681
-1.56178e-06
0.000716527
-1.59109e-06
0.000716403
-1.62693e-06
0.00071631
-1.66973e-06
0.000716249
-1.71945e-06
0.000716221
-1.77657e-06
0.000716226
-1.8398e-06
0.000716266
-1.91028e-06
0.000716341
-1.98512e-06
0.000716453
-2.06704e-06
0.000716601
-2.15114e-06
0.000716787
-2.24267e-06
0.000717011
-2.33377e-06
0.000717274
-2.4336e-06
0.000717576
-2.52918e-06
0.00071792
-2.63638e-06
0.000718303
-2.73256e-06
0.000718734
-2.84595e-06
0.000719206
-2.93621e-06
0.000719732
-3.05357e-06
0.0007203
-3.12764e-06
0.000720929
-3.24477e-06
0.000721596
-3.28841e-06
0.00072233
-3.39881e-06
0.000723094
-3.39513e-06
0.000723924
-3.49075e-06
0.000724769
-3.42423e-06
0.000725669
-3.4969e-06
0.000726567
-3.35977e-06
0.000727499
-3.40148e-06
-3.20081e-06
0.000790624
-1.0379e-05
0.00078805
-9.7964e-06
0.000785575
-9.21496e-06
0.000783194
-8.63869e-06
0.000780902
-8.07085e-06
0.000778694
-7.51405e-06
0.000776563
-6.97075e-06
0.000774506
-6.44359e-06
0.000772517
-5.93493e-06
0.000770592
-5.44623e-06
0.000768726
-4.97884e-06
0.000766916
-4.53415e-06
0.000765158
-4.1127e-06
0.000763449
-3.71503e-06
0.000761786
-3.34176e-06
0.000760165
-2.99305e-06
0.000758585
-2.66883e-06
0.000757043
-2.36898e-06
0.000755537
-2.09331e-06
0.000754065
-1.84159e-06
0.000752627
-1.61349e-06
0.000751221
-1.40811e-06
0.000749845
-1.22475e-06
0.000748499
-1.06266e-06
0.000747183
-9.20887e-07
0.000745895
-7.98303e-07
0.000744636
-6.93732e-07
0.000743405
-6.0609e-07
0.000742202
-5.34517e-07
0.000741026
-4.78432e-07
0.000739876
-4.37533e-07
0.000738754
-4.11681e-07
0.000737659
-4.00721e-07
0.000736594
-4.04249e-07
0.000735559
-4.21392e-07
0.000734558
-4.50696e-07
0.000733591
-4.89977e-07
0.000732662
-5.36473e-07
0.00073177
-5.87094e-07
0.000730917
-6.38706e-07
0.0007301
-6.88413e-07
0.000729319
-7.33817e-07
0.000728569
-7.73157e-07
0.000727848
-8.0545e-07
0.000727152
-8.30463e-07
0.000726477
-8.48791e-07
0.000725821
-8.61645e-07
0.000725181
-8.70878e-07
0.000724556
-8.78586e-07
0.000723947
-8.87093e-07
0.000723355
-8.98475e-07
0.000722782
-9.14603e-07
0.000722231
-9.36844e-07
0.000721706
-9.66096e-07
0.000721212
-1.00311e-06
0.000720754
-1.04822e-06
0.000720336
-1.10181e-06
0.000719962
-1.16397e-06
0.000719635
-1.23511e-06
0.000719359
-1.3152e-06
0.000719137
-1.40437e-06
0.000718969
-1.50245e-06
0.000718859
-1.60887e-06
0.000718806
-1.72374e-06
0.000718811
-1.84518e-06
0.000718875
-1.97407e-06
0.000718997
-2.10671e-06
0.000719176
-2.24603e-06
0.00071941
-2.38581e-06
0.0007197
-2.5326e-06
0.000720043
-2.67618e-06
0.000720438
-2.82911e-06
0.000720883
-2.97374e-06
0.00072138
-3.1332e-06
0.000721923
-3.27564e-06
0.00072252
-3.44298e-06
0.000723161
-3.57742e-06
0.00072386
-3.75307e-06
0.000724601
-3.86856e-06
0.000725406
-4.0496e-06
0.000726246
-4.12861e-06
0.000727154
-4.30699e-06
0.000728086
-4.32682e-06
0.000729085
-4.48934e-06
0.000730088
-4.4279e-06
0.000731149
-4.55761e-06
0.000732193
-4.40323e-06
0.000733271
-4.48015e-06
-4.24148e-06
0.000818861
-7.80548e-06
0.000816348
-7.28283e-06
0.00081389
-6.75745e-06
0.000811484
-6.2329e-06
0.000809127
-5.71388e-06
0.000806817
-5.20419e-06
0.000804552
-4.7056e-06
0.000802329
-4.22027e-06
0.000800145
-3.75054e-06
0.000797997
-3.2984e-06
0.000795883
-2.86521e-06
0.000793801
-2.45191e-06
0.000791747
-2.05896e-06
0.000789721
-1.68905e-06
0.000787722
-1.34265e-06
0.000785749
-1.0196e-06
0.0007838
-7.19883e-07
0.000781874
-4.43426e-07
0.00077997
-1.8975e-07
0.000778088
4.05947e-08
0.00077623
2.44783e-07
0.000774393
4.28446e-07
0.000772578
5.90682e-07
0.000770784
7.31772e-07
0.00076901
8.52444e-07
0.000767258
9.5361e-07
0.000765528
1.03629e-06
0.000763821
1.10153e-06
0.000762136
1.15036e-06
0.000760474
1.18362e-06
0.000758834
1.20193e-06
0.000757217
1.20564e-06
0.000755621
1.19493e-06
0.000754047
1.16995e-06
0.000752495
1.13105e-06
0.000750965
1.07898e-06
0.00074946
1.01518e-06
0.000747982
9.41787e-07
0.000746533
8.61607e-07
0.000745116
7.77832e-07
0.000743734
6.93769e-07
0.000742388
6.12484e-07
0.000741078
5.36539e-07
0.000739805
4.67716e-07
0.000738568
4.06923e-07
0.000737365
3.54045e-07
0.000736195
3.08057e-07
0.000735057
2.67005e-07
0.00073395
2.2835e-07
0.000732874
1.89058e-07
0.00073183
1.46065e-07
0.000730819
9.64672e-08
0.000729844
3.76568e-08
0.000728908
-3.00179e-08
0.000728014
-1.09589e-07
0.000727168
-2.02027e-07
0.000726374
-3.07782e-07
0.000725637
-4.26858e-07
0.000724962
-5.59546e-07
0.000724352
-7.05496e-07
0.000723812
-8.64598e-07
0.000723346
-1.03605e-06
0.000722956
-1.21885e-06
0.000722644
-1.41231e-06
0.000722413
-1.61386e-06
0.000722262
-1.82365e-06
0.000722193
-2.03718e-06
0.000722204
-2.25697e-06
0.000722294
-2.47562e-06
0.000722462
-2.70062e-06
0.000722705
-2.91943e-06
0.000723024
-3.14801e-06
0.000723414
-3.36369e-06
0.000723878
-3.59714e-06
0.000724408
-3.80626e-06
0.000725013
-4.04731e-06
0.000725678
-4.24308e-06
0.000726418
-4.49314e-06
0.000727212
-4.66193e-06
0.00072808
-4.91794e-06
0.000728989
-5.03736e-06
0.000729971
-5.28933e-06
0.000730975
-5.3302e-06
0.000732046
-5.56073e-06
0.000733113
-5.49471e-06
0.000734235
-5.68007e-06
0.000735325
-5.49255e-06
0.000736448
-5.60346e-06
-5.30753e-06
0.000866563
-5.09394e-06
0.000863885
-4.60422e-06
0.000861238
-4.1109e-06
0.000858622
-3.61712e-06
0.000856033
-3.12488e-06
0.000853467
-2.63747e-06
0.00085092
-2.15908e-06
0.000848395
-1.6951e-06
0.000845891
-1.24672e-06
0.000843408
-8.1536e-07
0.000840946
-4.03045e-07
0.000838508
-1.41922e-08
0.000836082
3.66942e-07
0.000833673
7.19833e-07
0.00083128
1.05055e-06
0.000828902
1.3586e-06
0.000826539
1.64332e-06
0.000824191
1.90464e-06
0.000821858
2.14269e-06
0.000819541
2.35755e-06
0.000817237
2.54938e-06
0.000814946
2.71909e-06
0.000812669
2.86737e-06
0.000810406
2.99472e-06
0.000808157
3.10172e-06
0.000805922
3.18905e-06
0.0008037
3.25751e-06
0.000801494
3.30801e-06
0.000799303
3.34149e-06
0.000797128
3.35894e-06
0.000794968
3.36132e-06
0.000792824
3.34947e-06
0.000790695
3.32408e-06
0.000788579
3.28571e-06
0.000786476
3.23482e-06
0.000784383
3.17192e-06
0.0007823
3.09776e-06
0.000780228
3.0135e-06
0.000778169
2.92077e-06
0.000776125
2.8217e-06
0.0007741
2.71875e-06
0.000772098
2.61445e-06
0.000770124
2.51119e-06
0.000768181
2.41085e-06
0.000766273
2.31469e-06
0.000764404
2.22308e-06
0.000762576
2.13555e-06
0.000760793
2.05073e-06
0.000759054
1.96656e-06
0.000757363
1.88031e-06
0.00075572
1.78906e-06
0.000754127
1.68985e-06
0.000752584
1.58001e-06
0.000751097
1.45754e-06
0.000749667
1.32076e-06
0.000748296
1.16888e-06
0.000746987
1.00124e-06
0.000745742
8.18056e-07
0.000744563
6.19038e-07
0.000743453
4.04221e-07
0.000742415
1.7403e-07
0.000741446
-6.77233e-08
0.000740551
-3.23196e-07
0.000739731
-5.9249e-07
0.00073899
-8.72602e-07
0.000738329
-1.16305e-06
0.000737751
-1.45949e-06
0.000737258
-1.76362e-06
0.00073685
-2.06733e-06
0.000736528
-2.37858e-06
0.000736291
-2.68283e-06
0.000736141
-2.99788e-06
0.000736074
-3.29645e-06
0.000736091
-3.61453e-06
0.000736186
-3.90125e-06
0.000736362
-4.22361e-06
0.000736608
-4.4887e-06
0.00073693
-4.81541e-06
0.00073731
-5.04191e-06
0.000737761
-5.36878e-06
0.000738254
-5.53065e-06
0.000738812
-5.84651e-06
0.000739392
-5.91091e-06
0.000740028
-6.19649e-06
0.000740666
-6.1322e-06
0.000741346
-6.36037e-06
0.000742005
-6.15195e-06
0.00074269
-6.28805e-06
-5.95389e-06
0.000908694
-2.24958e-06
0.000905883
-1.79349e-06
0.000903107
-1.33411e-06
0.000900365
-8.75263e-07
0.000897661
-4.21085e-07
0.000894999
2.407e-08
0.000892362
4.7849e-07
0.000889753
9.13601e-07
0.000887171
1.33514e-06
0.000884615
1.74077e-06
0.000882083
2.12883e-06
0.00087957
2.4989e-06
0.000877086
2.85089e-06
0.000874624
3.18209e-06
0.000872183
3.49172e-06
0.000869762
3.77973e-06
0.000867359
4.04592e-06
0.000864974
4.29008e-06
0.000862604
4.51217e-06
0.000860249
4.71238e-06
0.000857908
4.89097e-06
0.000855578
5.04831e-06
0.000853261
5.18494e-06
0.000850954
5.30151e-06
0.000848657
5.39866e-06
0.000846369
5.47709e-06
0.000844089
5.53754e-06
0.000841816
5.58079e-06
0.00083955
5.60766e-06
0.00083729
5.61898e-06
0.000835036
5.61562e-06
0.000832787
5.59842e-06
0.000830543
5.56825e-06
0.000828302
5.52595e-06
0.000826065
5.47233e-06
0.000823829
5.4082e-06
0.000821592
5.33437e-06
0.000819354
5.25172e-06
0.000817113
5.16126e-06
0.000814871
5.06413e-06
0.000812628
4.96163e-06
0.000810387
4.85507e-06
0.000808153
4.74573e-06
0.000805929
4.63457e-06
0.000803722
4.52216e-06
0.000801536
4.40855e-06
0.000799379
4.29318e-06
0.000797254
4.17485e-06
0.000795169
4.05188e-06
0.000793127
3.92226e-06
0.000791133
3.78366e-06
0.000789188
3.63398e-06
0.000787297
3.47112e-06
0.000785461
3.29387e-06
0.000783681
3.10104e-06
0.000781957
2.89266e-06
0.00078029
2.66845e-06
0.000778678
2.42949e-06
0.000777121
2.17603e-06
0.000775617
1.90903e-06
0.000774162
1.62866e-06
0.000772758
1.33613e-06
0.000771404
1.03094e-06
0.000770098
7.13671e-07
0.000768839
3.85889e-07
0.000767628
4.79942e-08
0.000766472
-3.02935e-07
0.000765368
-6.60187e-07
0.00076432
-1.01934e-06
0.000763329
-1.38756e-06
0.000762397
-1.75075e-06
0.000761525
-2.1254e-06
0.000760711
-2.48311e-06
0.000759957
-2.86004e-06
0.000759258
-3.20271e-06
0.000758614
-3.57917e-06
0.000758018
-3.89297e-06
0.000757468
-4.26537e-06
0.000756957
-4.53123e-06
0.000756483
-4.894e-06
0.000756038
-5.08638e-06
0.000755621
-5.42894e-06
0.000755227
-5.51754e-06
0.000754853
-5.82215e-06
0.0007545
-5.77905e-06
0.000754159
-6.01981e-06
0.00075384
-5.83223e-06
0.000753526
-5.97429e-06
-5.66147e-06
0.000911865
3.45269e-07
0.000909326
7.4473e-07
0.000906845
1.14705e-06
0.000904421
1.54895e-06
0.000902051
1.94872e-06
0.00089973
2.34493e-06
0.000897473
2.73533e-06
0.000895272
3.11498e-06
0.000893125
3.48232e-06
0.000891029
3.8367e-06
0.000888981
4.1767e-06
0.000886979
4.50069e-06
0.000885022
4.80806e-06
0.000883106
5.09808e-06
0.000881228
5.36981e-06
0.000879385
5.62271e-06
0.000877574
5.85658e-06
0.000875793
6.07128e-06
0.000874039
6.26676e-06
0.000872308
6.44313e-06
0.000870598
6.60061e-06
0.000868907
6.73951e-06
0.000867232
6.86028e-06
0.00086557
6.96342e-06
0.000863919
7.04952e-06
0.000862277
7.11919e-06
0.000860641
7.1731e-06
0.00085901
7.21195e-06
0.000857381
7.23647e-06
0.000855753
7.24741e-06
0.000854123
7.24553e-06
0.00085249
7.23161e-06
0.000850852
7.20641e-06
0.000849207
7.17066e-06
0.000847554
7.12507e-06
0.000845892
7.07033e-06
0.000844219
7.00714e-06
0.000842535
6.93622e-06
0.000840838
6.85832e-06
0.000839128
6.77419e-06
0.000837405
6.6845e-06
0.00083567
6.58986e-06
0.000833925
6.49069e-06
0.000832172
6.38716e-06
0.000830416
6.27909e-06
0.000828658
6.16592e-06
0.000826905
6.04667e-06
0.00082516
5.92002e-06
0.000823427
5.78435e-06
0.000821711
5.63802e-06
0.000820016
5.47934e-06
0.000818343
5.307e-06
0.000816694
5.11982e-06
0.00081507
4.91737e-06
0.000813472
4.69924e-06
0.000811899
4.46609e-06
0.000810349
4.21815e-06
0.000808822
3.95693e-06
0.000807315
3.68284e-06
0.000805826
3.3978e-06
0.000804353
3.10187e-06
0.000802892
2.79688e-06
0.000801441
2.48226e-06
0.000799995
2.15922e-06
0.000798554
1.82748e-06
0.000797114
1.48772e-06
0.00079567
1.14085e-06
0.000794223
7.86455e-07
0.000792775
4.29405e-07
0.000791321
6.59299e-08
0.000789878
-3.07533e-07
0.000788438
-6.85287e-07
0.000787003
-1.0483e-06
0.000785569
-1.42598e-06
0.000784139
-1.77251e-06
0.000782704
-2.14413e-06
0.00078127
-2.4589e-06
0.000779822
-2.81798e-06
0.000778374
-3.08328e-06
0.000776904
-3.42317e-06
0.000775435
-3.61819e-06
0.000773937
-3.93012e-06
0.000772452
-4.03319e-06
0.000770934
-4.30432e-06
0.000769453
-4.29737e-06
0.000767941
-4.50831e-06
0.000766495
-4.38557e-06
0.000765029
-4.50892e-06
-4.28911e-06
0.000857549
2.24211e-06
0.000855742
2.5517e-06
0.000854025
2.86376e-06
0.000852398
3.17636e-06
0.00085086
3.48641e-06
0.000849413
3.79181e-06
0.000848056
4.09202e-06
0.000846786
4.38549e-06
0.000845598
4.67022e-06
0.00084449
4.94489e-06
0.000843458
5.20838e-06
0.000842499
5.4597e-06
0.000841609
5.69828e-06
0.000840783
5.92356e-06
0.000840018
6.13488e-06
0.000839309
6.33173e-06
0.000838652
6.51392e-06
0.000838042
6.6814e-06
0.000837475
6.83415e-06
0.000836945
6.97224e-06
0.00083645
7.09584e-06
0.000835984
7.20521e-06
0.000835544
7.30068e-06
0.000835125
7.38264e-06
0.000834723
7.45155e-06
0.000834334
7.50787e-06
0.000833955
7.55213e-06
0.000833582
7.58488e-06
0.000833212
7.60669e-06
0.000832841
7.61813e-06
0.000832467
7.61978e-06
0.000832086
7.61223e-06
0.000831697
7.59604e-06
0.000831296
7.5718e-06
0.000830881
7.54005e-06
0.00083045
7.50133e-06
0.000830001
7.45615e-06
0.000829532
7.40498e-06
0.000829042
7.34823e-06
0.00082853
7.28624e-06
0.000827995
7.21924e-06
0.000827438
7.14733e-06
0.000826858
7.07038e-06
0.000826257
6.98806e-06
0.000825636
6.89976e-06
0.000824998
6.80466e-06
0.000824343
6.70171e-06
0.000823673
6.58974e-06
0.00082299
6.46753e-06
0.000822294
6.334e-06
0.000821585
6.18816e-06
0.000820862
6.02949e-06
0.000820125
5.85757e-06
0.000819369
5.6727e-06
0.000818594
5.475e-06
0.000817794
5.26555e-06
0.000816968
5.04468e-06
0.000816111
4.81402e-06
0.00081522
4.57363e-06
0.000814292
4.32535e-06
0.000813325
4.06858e-06
0.000812317
3.80519e-06
0.000811266
3.53384e-06
0.000810168
3.25633e-06
0.000809025
2.97093e-06
0.000807834
2.67917e-06
0.000806594
2.37996e-06
0.000805307
2.07428e-06
0.000803972
1.76368e-06
0.000802591
1.44717e-06
0.000801153
1.13053e-06
0.000799659
8.08433e-07
0.000798115
4.95988e-07
0.000796513
1.7625e-07
0.000794866
-1.25231e-07
0.00079316
-4.38341e-07
0.000791409
-7.08009e-07
0.000789592
-1.00109e-06
0.000787735
-1.22635e-06
0.000785806
-1.49405e-06
0.00078385
-1.66261e-06
0.00078182
-1.89978e-06
0.000779789
-2.00229e-06
0.000777687
-2.20265e-06
0.000775624
-2.23385e-06
0.000773503
-2.38689e-06
0.000771467
-2.34989e-06
0.000769397
-2.43911e-06
-2.35027e-06
0.00074895
3.04942e-06
0.000748261
3.24129e-06
0.00074769
3.43468e-06
0.000747238
3.62794e-06
0.000746905
3.81978e-06
0.000746687
4.00934e-06
0.000746584
4.19568e-06
0.000746592
4.37749e-06
0.000746708
4.55363e-06
0.00074693
4.72343e-06
0.000747252
4.88639e-06
0.000747669
5.04194e-06
0.000748178
5.18958e-06
0.000748773
5.32893e-06
0.000749448
5.45969e-06
0.000750198
5.5816e-06
0.000751017
5.69456e-06
0.0007519
5.79854e-06
0.000752841
5.89353e-06
0.000753834
5.97959e-06
0.000754873
6.05685e-06
0.000755952
6.12546e-06
0.000757067
6.18564e-06
0.000758212
6.23764e-06
0.000759382
6.28173e-06
0.000760572
6.31823e-06
0.000761776
6.34747e-06
0.000762992
6.36978e-06
0.000764213
6.38552e-06
0.000765436
6.39505e-06
0.000766657
6.39871e-06
0.000767872
6.39686e-06
0.000769078
6.38982e-06
0.000770272
6.37793e-06
0.000771451
6.36148e-06
0.000772611
6.34074e-06
0.000773752
6.31597e-06
0.000774869
6.28734e-06
0.000775963
6.25501e-06
0.00077703
6.21904e-06
0.00077807
6.17936e-06
0.000779081
6.13582e-06
0.000780063
6.08811e-06
0.000781016
6.03581e-06
0.000781937
5.97834e-06
0.000782827
5.91506e-06
0.000783683
5.84525e-06
0.000784505
5.76821e-06
0.000785289
5.68329e-06
0.000786033
5.58998e-06
0.000786733
5.48786e-06
0.000787386
5.37687e-06
0.000787986
5.25691e-06
0.000788531
5.12837e-06
0.000789014
4.99134e-06
0.000789433
4.84661e-06
0.000789784
4.69418e-06
0.000790063
4.53513e-06
0.000790267
4.36907e-06
0.000790395
4.19728e-06
0.000790445
4.01874e-06
0.000790416
3.83497e-06
0.000790305
3.64427e-06
0.000790113
3.44851e-06
0.000789838
3.24548e-06
0.00078948
3.03747e-06
0.000789038
2.82235e-06
0.000788509
2.60264e-06
0.000787896
2.37731e-06
0.000787195
2.14821e-06
0.000786408
1.9171e-06
0.000785533
1.68371e-06
0.000784574
1.45519e-06
0.000783525
1.22519e-06
0.00078239
1.00912e-06
0.000781162
7.8993e-07
0.000779858
5.96315e-07
0.000778463
3.93749e-07
0.000777007
2.29921e-07
0.000775466
4.67359e-08
0.000773882
-7.89117e-08
0.000772219
-2.36783e-07
0.000770546
-3.29349e-07
0.000768807
-4.63528e-07
0.000767097
-5.24227e-07
0.000765339
-6.28082e-07
0.000763653
-6.63955e-07
0.000761939
-7.25848e-07
-7.47831e-07
0.000610479
2.33314e-06
0.000611317
2.40339e-06
0.000612278
2.47422e-06
0.000613361
2.54507e-06
0.000614565
2.61535e-06
0.00061589
2.68455e-06
0.000617333
2.75228e-06
0.000618892
2.81826e-06
0.000620564
2.88217e-06
0.000622344
2.94376e-06
0.000624227
3.00288e-06
0.00062621
3.05939e-06
0.000628286
3.11307e-06
0.000630451
3.16383e-06
0.000632699
3.21159e-06
0.000635025
3.25629e-06
0.000637421
3.29789e-06
0.000639883
3.33641e-06
0.000642405
3.37187e-06
0.00064498
3.40432e-06
0.000647603
3.43381e-06
0.000650268
3.46043e-06
0.00065297
3.48425e-06
0.000655702
3.50537e-06
0.00065846
3.5239e-06
0.000661238
3.53994e-06
0.000664032
3.5536e-06
0.000666837
3.56499e-06
0.000669648
3.57423e-06
0.000672462
3.58142e-06
0.000675274
3.58668e-06
0.000678081
3.59009e-06
0.000680879
3.59176e-06
0.000683665
3.59175e-06
0.000686436
3.59016e-06
0.00068919
3.58701e-06
0.000691924
3.58235e-06
0.000694635
3.57616e-06
0.000697321