/*--------------------------------*- C++ -*----------------------------------*\
| =========                 |                                                 |
| \\      /  F ield         | OpenFOAM: The Open Source CFD Toolbox           |
|  \\    /   O peration     | Version:  2312                                  |
|   \\  /    A nd           | Website:  www.openfoam.com                      |
|    \\/     M anipulation  |                                                 |
\*---------------------------------------------------------------------------*/
FoamFile
{
    version     2.0;
    format      ascii;
    arch        "LSB;label=32;scalar=64";
    class       surfaceScalarField;
    location    "154000";
    object      phi;
}
// * * * * * * * * * * * * * * * * * * * * * * * * * * * * * * * * * * * * * //

dimensions      [0 3 -1 0 0 0 0];

oriented        oriented;

internalField   nonuniform List<scalar> 
5250
(
4.13586e-05
2.9592e-06
3.81985e-05
3.16013e-06
3.48549e-05
3.34362e-06
3.13476e-05
3.50729e-06
2.76975e-05
3.65009e-06
2.39239e-05
3.7736e-06
2.00777e-05
3.84623e-06
1.62311e-05
3.84658e-06
1.24457e-05
3.78539e-06
8.7794e-06
3.66631e-06
5.28524e-06
3.49416e-06
2.01252e-06
3.27272e-06
-9.95948e-07
3.00847e-06
-3.70387e-06
2.70793e-06
-6.08071e-06
2.37683e-06
-8.10284e-06
2.02213e-06
-9.75383e-06
1.65099e-06
-1.10246e-05
1.27076e-06
-1.19135e-05
8.88868e-07
-1.24262e-05
5.12708e-07
-1.25725e-05
1.4634e-07
-1.23957e-05
-1.76842e-07
-1.1925e-05
-4.70704e-07
-1.11853e-05
-7.39691e-07
-1.0209e-05
-9.76289e-07
-9.03252e-06
-1.17647e-06
-7.69465e-06
-1.33787e-06
-6.23494e-06
-1.45971e-06
-4.69172e-06
-1.54322e-06
-3.10202e-06
-1.5897e-06
-1.50397e-06
-1.59804e-06
6.65214e-08
-1.57049e-06
1.57925e-06
-1.51273e-06
3.0104e-06
-1.43114e-06
4.33974e-06
-1.32935e-06
5.55199e-06
-1.21225e-06
6.63668e-06
-1.08469e-06
7.58799e-06
-9.5131e-07
8.40448e-06
-8.16485e-07
9.08875e-06
-6.84271e-07
9.64708e-06
-5.58329e-07
1.00889e-05
-4.41776e-07
1.0426e-05
-3.37191e-07
1.06727e-05
-2.46658e-07
1.08445e-05
-1.71801e-07
1.09583e-05
-1.13823e-07
1.10319e-05
-7.35717e-08
1.10833e-05
-5.13996e-08
1.11296e-05
-4.62899e-08
1.11891e-05
-5.95334e-08
1.12786e-05
-8.94432e-08
1.14133e-05
-1.34685e-07
1.16071e-05
-1.93852e-07
1.18724e-05
-2.65256e-07
1.22194e-05
-3.46993e-07
1.26563e-05
-4.36956e-07
1.31893e-05
-5.32957e-07
1.3822e-05
-6.32716e-07
1.4556e-05
-7.34009e-07
1.53906e-05
-8.34607e-07
1.63231e-05
-9.32475e-07
1.73487e-05
-1.02562e-06
1.84611e-05
-1.11239e-06
1.96523e-05
-1.19118e-06
2.09132e-05
-1.26092e-06
2.22337e-05
-1.32055e-06
2.36034e-05
-1.36969e-06
2.50112e-05
-1.40772e-06
2.64457e-05
-1.43456e-06
2.7895e-05
-1.44927e-06
2.9347e-05
-1.452e-06
3.07896e-05
-1.44265e-06
3.22128e-05
-1.4232e-06
3.36065e-05
-1.39363e-06
3.49631e-05
-1.35663e-06
3.62747e-05
-1.31161e-06
3.75372e-05
-1.26245e-06
3.87445e-05
-1.20737e-06
3.98967e-05
-1.15219e-06
4.09897e-05
-1.09294e-06
4.20285e-05
-1.03886e-06
4.30099e-05
-9.81383e-07
4.3947e-05
-9.37087e-07
4.48354e-05
-8.88396e-07
4.57081e-05
-8.72751e-07
4.65526e-05
-8.44471e-07
4.74468e-05
-8.94181e-07
4.83383e-05
-8.91509e-07
-1.05714e-06
0.00011499
6.51871e-06
0.000111271
6.87913e-06
0.000107421
7.19309e-06
0.000103478
7.45029e-06
9.94939e-05
7.63439e-06
9.55424e-05
7.72506e-06
9.16898e-05
7.69884e-06
8.79723e-05
7.56408e-06
8.44248e-05
7.33296e-06
8.10947e-05
6.99635e-06
7.80301e-05
6.55873e-06
7.52729e-05
6.02996e-06
7.28582e-05
5.4232e-06
7.08139e-05
4.75218e-06
6.91598e-05
4.03097e-06
6.7908e-05
3.27395e-06
6.70635e-05
2.49545e-06
6.66242e-05
1.71011e-06
6.65792e-05
9.33814e-07
6.69023e-05
1.8964e-07
6.76083e-05
-5.59669e-07
6.86692e-05
-1.23773e-06
7.00319e-05
-1.83341e-06
7.16475e-05
-2.35534e-06
7.34785e-05
-2.80728e-06
7.54853e-05
-3.18323e-06
7.76271e-05
-3.47969e-06
7.98616e-05
-3.69422e-06
8.21451e-05
-3.82666e-06
8.44365e-05
-3.88111e-06
8.67019e-05
-3.86347e-06
8.89124e-05
-3.78101e-06
9.10424e-05
-3.64268e-06
9.30693e-05
-3.45811e-06
9.49771e-05
-3.23713e-06
9.67546e-05
-2.98975e-06
9.83957e-05
-2.72573e-06
9.98987e-05
-2.45439e-06
0.000101267
-2.18458e-06
0.000102508
-1.92499e-06
0.000103633
-1.68348e-06
0.000104656
-1.4655e-06
0.000105595
-1.27546e-06
0.000106465
-1.11691e-06
0.000107286
-9.92508e-07
0.000108076
-9.04039e-07
0.000108855
-8.52471e-07
0.000109641
-8.38116e-07
0.000110456
-8.6065e-07
0.000111315
-9.1882e-07
0.000112236
-1.01056e-06
0.000113235
-1.13308e-06
0.000114324
-1.28307e-06
0.000115515
-1.45668e-06
0.000116818
-1.64978e-06
0.000118239
-1.8578e-06
0.000119782
-2.0762e-06
0.00012145
-2.30015e-06
0.000123241
-2.52518e-06
0.000125153
-2.74658e-06
0.000127181
-2.96047e-06
0.000129318
-3.16263e-06
0.000131555
-3.35012e-06
0.000133884
-3.51951e-06
0.000136292
-3.66924e-06
0.000138768
-3.7967e-06
0.0001413
-3.90172e-06
0.000143874
-3.98186e-06
0.000146478
-4.038e-06
0.000149096
-4.06747e-06
0.000151718
-4.07384e-06
0.00015433
-4.05506e-06
0.000156925
-4.01748e-06
0.000159489
-3.95774e-06
0.000162018
-3.88568e-06
0.000164501
-3.79477e-06
0.000166939
-3.70015e-06
0.00016932
-3.58902e-06
0.000171653
-3.48539e-06
0.000173925
-3.36496e-06
0.000176154
-3.26696e-06
0.000178319
-3.14708e-06
0.000180452
-3.07002e-06
0.000182523
-2.95879e-06
0.000184569
-2.91933e-06
0.000186547
-2.82257e-06
0.000188492
-2.83848e-06
0.000190361
-2.76089e-06
-2.82743e-06
0.000269007
9.74277e-06
0.000265998
9.88812e-06
0.000263119
1.00719e-05
0.000260283
1.02868e-05
0.000257407
1.05098e-05
0.000254417
1.07156e-05
0.000251326
1.07892e-05
0.000248247
1.0644e-05
0.00024527
1.03098e-05
0.000242457
9.80884e-06
0.000239853
9.16339e-06
0.000237486
8.39627e-06
0.000235381
7.52849e-06
0.000233555
6.57814e-06
0.000232024
5.56171e-06
0.000230804
4.49426e-06
0.000229909
3.38987e-06
0.000229357
2.26254e-06
0.000229166
1.12526e-06
0.000229381
-2.59103e-08
0.000229809
-9.87101e-07
0.000230512
-1.94082e-06
0.000231503
-2.82482e-06
0.000232763
-3.61483e-06
0.000234254
-4.29853e-06
0.000235941
-4.87024e-06
0.000237789
-5.32797e-06
0.000239754
-5.65945e-06
0.000241786
-5.85875e-06
0.000243844
-5.93865e-06
0.000245892
-5.91115e-06
0.000247899
-5.78861e-06
0.000249841
-5.58457e-06
0.000251697
-5.31375e-06
0.000253451
-4.99154e-06
0.000255095
-4.63355e-06
0.000256624
-4.25504e-06
0.00025804
-3.8705e-06
0.000259349
-3.49338e-06
0.00026056
-3.13566e-06
0.000261684
-2.8076e-06
0.000262736
-2.51725e-06
0.000263731
-2.2706e-06
0.000264686
-2.07183e-06
0.000265617
-1.92372e-06
0.00026654
-1.82722e-06
0.00026747
-1.78199e-06
0.000268422
-1.79004e-06
0.000269414
-1.85353e-06
0.000270464
-1.96856e-06
0.000271585
-2.13149e-06
0.00027279
-2.33818e-06
0.000274091
-2.58415e-06
0.000275498
-2.86367e-06
0.00027702
-3.171e-06
0.000278661
-3.49918e-06
0.000280427
-3.84197e-06
0.000282318
-4.19192e-06
0.000284336
-4.54314e-06
0.000286478
-4.88821e-06
0.00028874
-5.22235e-06
0.000291116
-5.53847e-06
0.000293599
-5.83361e-06
0.000296181
-6.10114e-06
0.000298852
-6.34076e-06
0.000301602
-6.54615e-06
0.00030442
-6.72014e-06
0.000307294
-6.85536e-06
0.000310214
-6.95802e-06
0.000313165
-7.01854e-06
0.00031614
-7.04849e-06
0.00031912
-7.036e-06
0.000322103
-7.00046e-06
0.00032507
-6.92455e-06
0.000328021
-6.83674e-06
0.000330937
-6.71064e-06
0.000333824
-6.58683e-06
0.000336661
-6.42576e-06
0.000339459
-6.2835e-06
0.000342197
-6.10318e-06
0.000344889
-5.95936e-06
0.000347517
-5.77517e-06
0.000350091
-5.6435e-06
0.000352603
-5.47045e-06
0.00035504
-5.35721e-06
0.000357429
-5.2113e-06
0.000359697
-5.10637e-06
0.000361946
-5.01023e-06
-4.88061e-06
0.000537832
1.75158e-05
0.000530081
1.76397e-05
0.000522429
1.77239e-05
0.000514954
1.77616e-05
0.000507754
1.771e-05
0.000500964
1.7505e-05
0.000494668
1.70858e-05
0.00048885
1.64618e-05
0.000483449
1.57104e-05
0.000478428
1.48304e-05
0.000473766
1.38255e-05
0.000469452
1.27098e-05
0.000465482
1.14987e-05
0.000461852
1.02079e-05
0.000458557
8.85674e-06
0.000455586
7.4654e-06
0.000452928
6.04834e-06
0.000450578
4.61273e-06
0.000448537
3.166e-06
0.000446785
1.72633e-06
0.000445454
3.43033e-07
0.000444571
-1.05747e-06
0.000444022
-2.27599e-06
0.000443785
-3.37737e-06
0.000443838
-4.35151e-06
0.000444151
-5.18302e-06
0.000444689
-5.86608e-06
0.00044543
-6.40042e-06
0.000446354
-6.78314e-06
0.000447433
-7.01747e-06
0.000448631
-7.10964e-06
0.000449912
-7.069e-06
0.000451236
-6.90862e-06
0.000452567
-6.64506e-06
0.000453873
-6.29762e-06
0.000455127
-5.88707e-06
0.000456306
-5.43477e-06
0.000457398
-4.96184e-06
0.000458393
-4.48853e-06
0.000459291
-4.03338e-06
0.000460096
-3.61268e-06
0.000460818
-3.23946e-06
0.000461471
-2.92356e-06
0.000462071
-2.67179e-06
0.000462636
-2.48909e-06
0.000463187
-2.37836e-06
0.000463746
-2.341e-06
0.000464332
-2.37604e-06
0.000464961
-2.48182e-06
0.000465647
-2.65471e-06
0.000466407
-2.89128e-06
0.000467254
-3.18511e-06
0.000468199
-3.52957e-06
0.000469251
-3.91572e-06
0.000470417
-4.33736e-06
0.000471703
-4.78456e-06
0.000473112
-5.25078e-06
0.000474644
-5.72471e-06
0.000476302
-6.20076e-06
0.000478081
-6.66675e-06
0.000479978
-7.11948e-06
0.000481986
-7.54644e-06
0.0004841
-7.94832e-06
0.000486311
-8.31174e-06
0.000488612
-8.64171e-06
0.000490989
-8.9232e-06
0.000493436
-9.16685e-06
0.000495935
-9.3549e-06
0.000498482
-9.50475e-06
0.000501058
-9.59503e-06
0.000503662
-9.65157e-06
0.000506274
-9.64854e-06
0.000508895
-9.6211e-06
0.000511508
-9.53754e-06
0.000514113
-9.44189e-06
0.000516698
-9.29593e-06
0.000519262
-9.15062e-06
0.000521799
-8.96279e-06
0.000524301
-8.78549e-06
0.000526774
-8.57671e-06
0.000529197
-8.38144e-06
0.000531594
-8.17277e-06
0.000533918
-7.96722e-06
0.000536226
-7.77888e-06
0.00053843
-7.56105e-06
0.000540631
-7.41245e-06
0.000542692
-7.16754e-06
0.00054476
-7.07806e-06
-6.75941e-06
0.000796968
1.61321e-05
0.000797709
1.68989e-05
0.000797832
1.76015e-05
0.000797368
1.82255e-05
0.000796331
1.87462e-05
0.000794696
1.91404e-05
0.000792386
1.93962e-05
0.000789337
1.95109e-05
0.000785562
1.94846e-05
0.000781079
1.9314e-05
0.000775902
1.90027e-05
0.000770049
1.85622e-05
0.000763566
1.79823e-05
0.00075654
1.72335e-05
0.000749067
1.63294e-05
0.000741244
1.52882e-05
0.00073317
1.41228e-05
0.000724945
1.28376e-05
0.000716673
1.14377e-05
0.000708452
9.94734e-06
0.000700387
8.40833e-06
0.000692482
6.8481e-06
0.000684904
5.30122e-06
0.000677739
3.78806e-06
0.000671056
2.3312e-06
0.000664915
9.58651e-07
0.000659393
-3.44165e-07
0.000654542
-1.54954e-06
0.000650348
-2.58979e-06
0.000646791
-3.46037e-06
0.000643836
-4.15441e-06
0.000641438
-4.67059e-06
0.000639544
-5.01504e-06
0.0006381
-5.20126e-06
0.000637051
-5.24813e-06
0.00063634
-5.17652e-06
0.000635914
-5.00832e-06
0.000635719
-4.76696e-06
0.000635707
-4.4769e-06
0.000635835
-4.16138e-06
0.000636065
-3.84272e-06
0.000636366
-3.54006e-06
0.000636713
-3.27024e-06
0.000637088
-3.04675e-06
0.00063748
-2.88151e-06
0.000637884
-2.78234e-06
0.000638299
-2.7558e-06
0.000638727
-2.80416e-06
0.000639175
-2.9298e-06
0.000639651
-3.13034e-06
0.000640164
-3.40507e-06
0.000640727
-3.74754e-06
0.000641351
-4.15392e-06
0.000642049
-4.6136e-06
0.000642834
-5.12226e-06
0.000643716
-5.66649e-06
0.000644707
-6.24213e-06
0.000645815
-6.83285e-06
0.00064705
-7.43593e-06
0.000648416
-8.03262e-06
0.00064992
-8.62324e-06
0.000651561
-9.18717e-06
0.000653341
-9.72895e-06
0.000655256
-1.0226e-05
0.000657302
-1.06876e-05
0.000659468
-1.10895e-05
0.000661747
-1.14459e-05
0.000664124
-1.17322e-05
0.000666587
-1.19679e-05
0.000669123
-1.21303e-05
0.000671713
-1.22422e-05
0.00067435
-1.2285e-05
0.000677009
-1.22807e-05
0.000679692
-1.22202e-05
0.000682367
-1.2117e-05
0.000685049
-1.19782e-05
0.000687696
-1.17973e-05
0.000690342
-1.16086e-05
0.000692926
-1.13699e-05
0.000695508
-1.11587e-05
0.000698004
-1.08773e-05
0.0007005
-1.06686e-05
0.000702885
-1.03526e-05
0.000705274
-1.01674e-05
0.000707529
-9.81608e-06
0.000709789
-9.6722e-06
0.000711897
-9.27623e-06
0.000714013
-9.19394e-06
-8.75283e-06
0.000908995
6.77985e-06
0.000918119
7.77513e-06
0.000926939
8.78184e-06
0.00093537
9.79397e-06
0.000943318
1.07982e-05
0.000950685
1.17733e-05
0.00095738
1.27011e-05
0.000963303
1.35878e-05
0.000968345
1.44426e-05
0.000972403
1.5256e-05
0.00097539
1.60157e-05
0.000977244
1.67091e-05
0.000977904
1.73213e-05
0.000977305
1.78331e-05
0.000975406
1.82277e-05
0.000972204
1.84909e-05
0.000967718
1.86083e-05
0.00096199
1.85662e-05
0.000955073
1.83546e-05
0.000947051
1.79691e-05
0.000938049
1.741e-05
0.000928215
1.66828e-05
0.000917715
1.58008e-05
0.000906726
1.4777e-05
0.00089543
1.36272e-05
0.000884011
1.23781e-05
0.000872602
1.10645e-05
0.000861331
9.72168e-06
0.000850356
8.38518e-06
0.000839811
7.08498e-06
0.000829807
5.849e-06
0.000820435
4.70175e-06
0.000811758
3.66173e-06
0.000803815
2.74137e-06
0.000796621
1.94633e-06
0.000790168
1.27693e-06
0.000784431
7.27804e-07
0.000779375
2.89618e-07
0.000774951
-5.33543e-08
0.000771104
-3.13797e-07
0.000767773
-5.12296e-07
0.0007649
-6.6638e-07
0.000762425
-7.95195e-07
0.000760293
-9.14758e-07
0.000758453
-1.04225e-06
0.000756861
-1.19028e-06
0.000755479
-1.37359e-06
0.000754276
-1.601e-06
0.000753229
-1.88329e-06
0.00075232
-2.22108e-06
0.000751536
-2.62076e-06
0.000750869
-3.08047e-06
0.000750318
-3.603e-06
0.000749884
-4.18017e-06
0.000749576
-4.81396e-06
0.000749401
-5.49133e-06
0.000749373
-6.21412e-06
0.000749505
-6.96463e-06
0.000749812
-7.7433e-06
0.000750308
-8.5289e-06
0.000751007
-9.32189e-06
0.00075192
-1.00997e-05
0.000753053
-1.08626e-05
0.000754416
-1.15893e-05
0.000756007
-1.22781e-05
0.000757829
-1.29116e-05
0.000759866
-1.3483e-05
0.000762118
-1.39845e-05
0.000764551
-1.44004e-05
0.000767163
-1.47424e-05
0.000769903
-1.49823e-05
0.000772781
-1.51628e-05
0.000775734
-1.52337e-05
0.000778792
-1.5278e-05
0.000781882
-1.52068e-05
0.000785057
-1.51533e-05
0.000788231
-1.49714e-05
0.00079148
-1.48581e-05
0.000794703
-1.45922e-05
0.000797996
-1.44519e-05
0.00080124
-1.41213e-05
0.000804551
-1.39794e-05
0.000807793
-1.35949e-05
0.000811096
-1.34703e-05
0.000814314
-1.30347e-05
0.000817583
-1.29414e-05
0.000820757
-1.24494e-05
0.00082396
-1.23977e-05
-1.1816e-05
0.000950376
-5.61164e-06
0.000962819
-4.66773e-06
0.000975234
-3.63338e-06
0.000987535
-2.50722e-06
0.000999613
-1.27887e-06
0.00101136
2.73996e-08
0.00102266
1.39657e-06
0.00103337
2.87746e-06
0.00104336
4.4523e-06
0.00105251
6.11192e-06
0.00106068
7.84291e-06
0.00106776
9.62718e-06
0.00107364
1.14461e-05
0.00107821
1.32654e-05
0.00108138
1.50534e-05
0.00108309
1.67796e-05
0.00108329
1.8411e-05
0.00108195
1.99083e-05
0.00107907
2.12322e-05
0.00107469
2.23502e-05
0.00106886
2.32352e-05
0.00106168
2.38674e-05
0.00105324
2.42342e-05
0.00104369
2.43302e-05
0.00103316
2.41581e-05
0.00102181
2.37302e-05
0.00100981
2.30658e-05
0.000997336
2.21921e-05
0.000984578
2.11434e-05
0.000971706
1.9957e-05
0.000958884
1.86715e-05
0.00094626
1.73255e-05
0.000933968
1.59538e-05
0.000922121
1.45883e-05
0.000910812
1.32556e-05
0.00090011
1.19782e-05
0.000890067
1.07716e-05
0.000880709
9.64701e-06
0.000872048
8.60799e-06
0.000864078
7.65587e-06
0.000856781
6.78529e-06
0.000850124
5.99067e-06
0.000844068
5.26052e-06
0.000838568
4.58525e-06
0.000833576
3.94924e-06
0.000829045
3.34136e-06
0.000824927
2.74416e-06
0.000821178
2.14778e-06
0.000817759
1.53542e-06
0.000814637
9.00909e-07
0.000811786
2.31109e-07
0.00080921
-5.0465e-07
0.000806893
-1.28621e-06
0.000804831
-2.11769e-06
0.000803026
-3.009e-06
0.000801488
-3.95348e-06
0.00080023
-4.95612e-06
0.000799269
-6.00352e-06
0.000798618
-7.09243e-06
0.000798294
-8.20535e-06
0.000798302
-9.33014e-06
0.000798655
-1.04521e-05
0.000799343
-1.15504e-05
0.000800375
-1.26217e-05
0.00080173
-1.36326e-05
0.000803416
-1.45977e-05
0.000805394
-1.54616e-05
0.000807673
-1.6263e-05
0.000810189
-1.69166e-05
0.000812949
-1.7502e-05
0.000815868
-1.79017e-05
0.000818962
-1.82566e-05
0.000822137
-1.84084e-05
0.000825428
-1.85691e-05
0.000828741
-1.85199e-05
0.000832135
-1.85476e-05
0.000835517
-1.83538e-05
0.000838967
-1.83073e-05
0.000842391
-1.80168e-05
0.000845881
-1.79419e-05
0.000849349
-1.75888e-05
0.000852885
-1.75155e-05
0.000856408
-1.71178e-05
0.000859998
-1.70611e-05
0.000863586
-1.66227e-05
0.000867232
-1.65874e-05
0.000870884
-1.61011e-05
0.000874576
-1.60899e-05
-1.55519e-05
0.000960229
-1.86057e-05
0.000973657
-1.80956e-05
0.000987454
-1.74303e-05
0.00100154
-1.65882e-05
0.0010158
-1.55483e-05
0.00103013
-1.4293e-05
0.00104433
-1.28084e-05
0.00105829
-1.10792e-05
0.00107184
-9.09775e-06
0.00108481
-6.86531e-06
0.00109705
-4.39327e-06
0.00110838
-1.70033e-06
0.00111852
1.30434e-06
0.00112732
4.46805e-06
0.00113463
7.74111e-06
0.00114033
1.1078e-05
0.00114432
1.44244e-05
0.00114652
1.77049e-05
0.00114689
2.08607e-05
0.0011454
2.38405e-05
0.00114205
2.65848e-05
0.00113689
2.90299e-05
0.00113
3.11219e-05
0.00112151
3.28184e-05
0.00111158
3.40899e-05
0.00110039
3.49224e-05
0.00108814
3.53169e-05
0.00107504
3.52897e-05
0.00106131
3.487e-05
0.00104717
3.40988e-05
0.00103282
3.30249e-05
0.00101844
3.17028e-05
0.00100421
3.01882e-05
0.000990259
2.85365e-05
0.000976717
2.6798e-05
0.000963676
2.50193e-05
0.00095121
2.32377e-05
0.000939371
2.14857e-05
0.000928194
1.97854e-05
0.000917694
1.81553e-05
0.000907875
1.66041e-05
0.000898727
1.51388e-05
0.000890231
1.37562e-05
0.000882363
1.24539e-05
0.000875093
1.12191e-05
0.000868391
1.00433e-05
0.000862228
8.90756e-06
0.000856575
7.8007e-06
0.00085141
6.70009e-06
0.000846716
5.59471e-06
0.000842485
4.46249e-06
0.000838686
3.29377e-06
0.00083533
2.0704e-06
0.000832426
7.86317e-07
0.000829952
-5.34726e-07
0.00082792
-1.92172e-06
0.00082634
-3.37614e-06
0.000825225
-4.8889e-06
0.000824575
-6.44234e-06
0.000824397
-8.02761e-06
0.000824677
-9.60955e-06
0.000825413
-1.11885e-05
0.000826573
-1.27104e-05
0.00082815
-1.41986e-05
0.000830094
-1.55765e-05
0.000832394
-1.68976e-05
0.000834978
-1.80455e-05
0.000837822
-1.9107e-05
0.000840825
-1.99203e-05
0.000843957
-2.06339e-05
0.000847109
-2.10538e-05
0.000850272
-2.14191e-05
0.000853362
-2.14983e-05
0.000856406
-2.1613e-05
0.00085935
-2.14638e-05
0.000862241
-2.14388e-05
0.000865043
-2.11563e-05
0.000867805
-2.10688e-05
0.000870506
-2.07179e-05
0.000873183
-2.06194e-05
0.000875842
-2.02473e-05
0.000878497
-2.01703e-05
0.000881184
-1.98054e-05
0.000883886
-1.97634e-05
0.000886676
-1.94125e-05
0.000889491
-1.94019e-05
0.00089244
-1.905e-05
0.000895412
-1.90618e-05
-1.87073e-05
0.000894121
-3.15304e-05
0.000908213
-3.21877e-05
0.000923373
-3.25902e-05
0.000939482
-3.26976e-05
0.000956406
-3.24715e-05
0.000973989
-3.18765e-05
0.00099206
-3.08796e-05
0.00101044
-2.94542e-05
0.00102892
-2.75807e-05
0.0010473
-2.5244e-05
0.00106534
-2.24396e-05
0.00108282
-1.91765e-05
0.00109959
-1.54709e-05
0.00111543
-1.13657e-05
0.00113009
-6.92352e-06
0.00114336
-2.19357e-06
0.00115486
2.92592e-06
0.00116443
8.14275e-06
0.0011719
1.3388e-05
0.00117716
1.85785e-05
0.00118014
2.36046e-05
0.0011808
2.83709e-05
0.00117913
3.27885e-05
0.00117518
3.67679e-05
0.00116904
4.02326e-05
0.00116084
4.31245e-05
0.00115075
4.54024e-05
0.001139
4.70447e-05
0.00112582
4.8049e-05
0.00111148
4.84333e-05
0.00109628
4.82328e-05
0.00108048
4.75005e-05
0.00106437
4.6301e-05
0.00104819
4.47094e-05
0.00103219
4.28032e-05
0.00101654
4.06627e-05
0.00100142
3.83617e-05
0.000986937
3.59696e-05
0.000973179
3.3543e-05
0.000960203
3.11313e-05
0.000948039
2.87683e-05
0.000936696
2.64818e-05
0.00092617
2.42827e-05
0.000916444
2.2179e-05
0.0009075
2.01635e-05
0.000899312
1.82311e-05
0.000891856
1.63635e-05
0.000885109
1.45484e-05
0.000879047
1.27616e-05
0.000873653
1.09887e-05
0.000868909
9.20646e-06
0.000864802
7.40089e-06
0.000861317
5.55497e-06
0.000858448
3.65592e-06
0.000856212
1.70048e-06
0.000854584
-2.93663e-07
0.000853537
-2.32828e-06
0.000853069
-4.42092e-06
0.000853148
-6.5222e-06
0.000853743
-8.62185e-06
0.000854787
-1.06536e-05
0.000856224
-1.26257e-05
0.000857967
-1.4454e-05
0.000859959
-1.61896e-05
0.000862124
-1.77423e-05
0.000864445
-1.92179e-05
0.000866878
-2.0479e-05
0.000869414
-2.1643e-05
0.000871982
-2.24879e-05
0.000874519
-2.3171e-05
0.000876905
-2.34402e-05
0.000879058
-2.35717e-05
0.000880889
-2.33289e-05
0.000882369
-2.30932e-05
0.00088349
-2.25853e-05
0.00088427
-2.22186e-05
0.000884761
-2.1647e-05
0.000884981
-2.12893e-05
0.000885035
-2.07711e-05
0.000884911
-2.04961e-05
0.000884772
-2.01079e-05
0.000884547
-1.99453e-05
0.000884467
-1.9725e-05
0.000884368
-1.96649e-05
0.000884571
-1.96157e-05
0.000884791
-1.96216e-05
0.000885446
-1.97054e-05
0.000886108
-1.97229e-05
-1.98638e-05
0.000730528
-4.57346e-05
0.000746335
-4.79948e-05
0.000763633
-4.98879e-05
0.000782312
-5.13761e-05
0.000802258
-5.24175e-05
0.000823349
-5.29678e-05
0.00084545
-5.29803e-05
0.000868402
-5.24068e-05
0.000892026
-5.12049e-05
0.000916123
-4.93406e-05
0.000940469
-4.67855e-05
0.000964818
-4.35261e-05
0.000988928
-3.95802e-05
0.00101252
-3.49602e-05
0.00103533
-2.97277e-05
0.00105706
-2.39299e-05
0.00107764
-1.76485e-05
0.00109679
-1.10072e-05
0.00111428
-4.10422e-06
0.00112972
3.13723e-06
0.00114296
1.03682e-05
0.00115385
1.74729e-05
0.0011623
2.43439e-05
0.00116822
3.08444e-05
0.00117159
3.68672e-05
0.0011724
4.23111e-05
0.00117072
4.70876e-05
0.00116663
5.11301e-05
0.00116029
5.43922e-05
0.00115187
5.68505e-05
0.0011416
5.85031e-05
0.00112973
5.93708e-05
0.00111654
5.94932e-05
0.00110232
5.89297e-05
0.00108737
5.77524e-05
0.00107198
5.60468e-05
0.00105644
5.39024e-05
0.001041
5.14132e-05
0.00102588
4.86671e-05
0.00101126
4.57491e-05
0.000997296
4.27303e-05
0.000984104
3.9674e-05
0.000971762
3.66249e-05
0.000960321
3.36192e-05
0.00094981
3.06746e-05
0.000940237
2.7804e-05
0.000931596
2.50048e-05
0.00092387
2.22743e-05
0.000917034
1.95982e-05
0.000911056
1.69661e-05
0.000905901
1.43615e-05
0.00090153
1.17718e-05
0.000897902
9.18278e-06
0.000894976
6.58211e-06
0.000892708
3.96858e-06
0.000891076
1.33853e-06
0.000890015
-1.26687e-06
0.000889472
-3.8781e-06
0.000889387
-6.43793e-06
0.000889717
-8.95097e-06
0.000890406
-1.13433e-05
0.000891395
-1.36143e-05
0.000892592
-1.56514e-05
0.000893887
-1.74839e-05
0.000895152
-1.90082e-05
0.000896277
-2.03425e-05
0.000897166
-2.13678e-05
0.000897723
-2.21997e-05
0.00089784
-2.26051e-05
0.000897392
-2.27237e-05
0.000896294
-2.23419e-05
0.000894496
-2.17735e-05
0.000892027
-2.08599e-05
0.000888926
-1.9992e-05
0.000885293
-1.89529e-05
0.000881172
-1.80975e-05
0.00087666
-1.71344e-05
0.000871753
-1.63823e-05
0.000866593
-1.56111e-05
0.000861159
-1.50622e-05
0.000855704
-1.46533e-05
0.000850157
-1.43985e-05
0.000844932
-1.45e-05
0.000839801
-1.45338e-05
0.000835394
-1.5208e-05
0.000831179
-1.54074e-05
0.000828109
-1.66351e-05
0.000825185
-1.67989e-05
-1.83685e-05
0.000567313
-6.09782e-05
0.000583677
-6.43587e-05
0.000601161
-6.7372e-05
0.000619777
-6.99925e-05
0.000639542
-7.21827e-05
0.000660465
-7.38907e-05
0.000682543
-7.50576e-05
0.000705746
-7.56106e-05
0.000730013
-7.54712e-05
0.000755243
-7.45711e-05
0.000781306
-7.28478e-05
0.000808024
-7.02447e-05
0.000835193
-6.6749e-05
0.000862574
-6.23411e-05
0.000889909
-5.70634e-05
0.000916925
-5.09458e-05
0.000943357
-4.40801e-05
0.000968912
-3.65623e-05
0.000993303
-2.84956e-05
0.00101647
-2.00287e-05
0.00103816
-1.13241e-05
0.00105815
-2.5203e-06
0.00107606
6.4404e-06
0.00109181
1.5092e-05
0.00110529
2.33875e-05
0.00111641
3.11937e-05
0.0011251
3.83942e-05
0.00113134
4.4887e-05
0.00113515
5.05856e-05
0.00113658
5.54259e-05
0.00113571
5.93657e-05
0.0011327
6.23872e-05
0.0011277
6.44944e-05
0.00112091
6.5715e-05
0.00111257
6.60955e-05
0.00110291
6.5701e-05
0.00109221
6.46088e-05
0.00108071
6.29072e-05
0.00106869
6.06869e-05
0.0010564
5.80429e-05
0.00104406
5.50647e-05
0.0010319
5.18387e-05
0.00102009
4.84392e-05
0.00100877
4.49328e-05
0.000998076
4.13705e-05
0.000988086
3.7794e-05
0.000978861
3.42301e-05
0.000970437
3.0698e-05
0.00096283
2.72049e-05
0.000956042
2.37539e-05
0.00095006
2.03437e-05
0.000944861
1.69711e-05
0.00094041
1.36334e-05
0.00093667
1.03226e-05
0.000933593
7.04513e-06
0.000931121
3.81035e-06
0.00092919
6.64955e-07
0.000927716
-2.40446e-06
0.000926545
-5.26683e-06
0.00092552
-7.92648e-06
0.000924474
-1.02967e-05
0.000923217
-1.23572e-05
0.000921559
-1.39941e-05
0.000919307
-1.52316e-05
0.000916356
-1.60573e-05
0.000912719
-1.67058e-05
0.000908554
-1.7202e-05
0.000903966
-1.76118e-05
0.000898962
-1.76014e-05
0.000893328
-1.70898e-05
0.000886752
-1.5766e-05
0.000878895
-1.39157e-05
0.000869594
-1.15595e-05
0.000858847
-9.24506e-06
0.00084685
-6.95627e-06
0.000833895
-5.1416e-06
0.000820363
-3.60269e-06
0.000806622
-2.6416e-06
0.000793045
-2.03408e-06
0.000779907
-1.92456e-06
0.000767526
-2.272e-06
0.000756002
-2.87416e-06
0.000745663
-4.16094e-06
0.000736358
-5.22861e-06
0.000728596
-7.44698e-06
0.000721807
-8.61823e-06
0.000716986
-1.18138e-05
0.000712825
-1.26379e-05
-1.68593e-05
0.000494785
-7.26543e-05
0.000506626
-7.61999e-05
0.000518792
-7.95379e-05
0.000531478
-8.26779e-05
0.000544896
-8.56013e-05
0.000559263
-8.82579e-05
0.000574773
-9.05671e-05
0.000591586
-9.24233e-05
0.000609817
-9.37025e-05
0.000629516
-9.42706e-05
0.000650673
-9.40041e-05
0.000673221
-9.27925e-05
0.000697015
-9.05431e-05
0.000721881
-8.72079e-05
0.000747591
-8.27734e-05
0.000773895
-7.72498e-05
0.000800534
-7.07187e-05
0.000827219
-6.3247e-05
0.000853704
-5.49812e-05
0.000879704
-4.60285e-05
0.000904965
-3.65847e-05
0.000929218
-2.67733e-05
0.000952467
-1.68091e-05
0.000974376
-6.81704e-06
0.000994681
3.08238e-06
0.00101324
1.26333e-05
0.00102994
2.1697e-05
0.00104467
3.01563e-05
0.00105735
3.79014e-05
0.00106794
4.48407e-05
0.0010764
5.09007e-05
0.00108276
5.60301e-05
0.00108706
6.01997e-05
0.00108937
6.34037e-05
0.0010898
6.56577e-05
0.00108851
6.6998e-05
0.00108564
6.74766e-05
0.00108139
6.71594e-05
0.00107595
6.61225e-05
0.00106954
6.44509e-05
0.00106238
6.22318e-05
0.00105466
5.95537e-05
0.0010466
5.65002e-05
0.00103838
5.31508e-05
0.00103018
4.95754e-05
0.00102214
4.58363e-05
0.00101438
4.19839e-05
0.00100702
3.80581e-05
0.00100014
3.40894e-05
0.000993784
3.01079e-05
0.000987975
2.61528e-05
0.000982672
2.22739e-05
0.000977777
1.85287e-05
0.000973136
1.49632e-05
0.000968568
1.16133e-05
0.000963888
8.48996e-06
0.000958952
5.60105e-06
0.000953629
2.91873e-06
0.000947933
4.28857e-07
0.000942077
-2.07003e-06
0.000936209
-4.42905e-06
0.000930545
-6.6928e-06
0.000925143
-8.59203e-06
0.000919755
-9.84429e-06
0.000913804
-1.01056e-05
0.00090638
-9.28185e-06
0.000896643
-7.46507e-06
0.000884036
-5.00458e-06
0.000868452
-2.01782e-06
0.000850307
1.05558e-06
0.000830282
4.25912e-06
0.000808913
7.45252e-06
0.000786798
1.05554e-05
0.000764574
1.29795e-05
0.000742821
1.47966e-05
0.000722023
1.56561e-05
0.000702568
1.58523e-05
0.00068476
1.51665e-05
0.000668769
1.39569e-05
0.000654706
1.21381e-05
0.000642562
9.87241e-06
0.000632296
7.39172e-06
0.000623844
4.29105e-06
0.000617023
1.59238e-06
0.0006118
-2.22348e-06
0.00060779
-4.60844e-06
0.000605437
-9.46127e-06
0.000603848
-1.10482e-05
-1.75159e-05
0.000542706
-7.74537e-05
0.000546046
-7.95401e-05
0.000548233
-8.17256e-05
0.000549672
-8.41167e-05
0.000550837
-8.67664e-05
0.000552244
-8.96651e-05
0.000554412
-9.27342e-05
0.00055782
-9.58313e-05
0.00056288
-9.87626e-05
0.000569912
-0.000101303
0.000579127
-0.000103219
0.000590627
-0.000104292
0.00060441
-0.000104326
0.000620373
-0.000103171
0.000638339
-0.000100739
0.000658085
-9.69958e-05
0.000679328
-9.1962e-05
0.00070179
-8.57095e-05
0.000725153
-7.83438e-05
0.000749123
-6.99984e-05
0.000773391
-6.08529e-05
0.000797694
-5.10765e-05
0.000821756
-4.08711e-05
0.000845342
-3.04025e-05
0.000868276
-1.98516e-05
0.000890336
-9.42649e-06
0.000911286
7.4655e-07
0.000930956
1.04863e-05
0.000949217
1.96401e-05
0.000965951
2.81066e-05
0.000981061
3.57915e-05
0.00099447
4.26208e-05
0.00100613
4.85363e-05
0.00101603
5.35025e-05
0.00102419
5.75059e-05
0.00103063
6.05534e-05
0.00103544
6.26708e-05
0.00103869
6.39017e-05
0.00104051
6.43032e-05
0.00104102
6.39435e-05
0.00104035
6.28987e-05
0.00103866
6.1251e-05
0.00103607
5.90856e-05
0.00103273
5.64895e-05
0.00102876
5.35488e-05
0.00102425
5.03461e-05
0.00101928
4.6957e-05
0.00101389
4.34466e-05
0.00100811
3.98719e-05
0.00100193
3.62847e-05
0.000995346
3.27356e-05
0.000988358
2.92618e-05
0.000981015
2.58715e-05
0.000973455
2.25237e-05
0.00096592
1.91482e-05
0.000958728
1.56818e-05
0.000952176
1.21524e-05
0.000946376
8.71955e-06
0.000941111
5.69382e-06
0.000935604
3.43659e-06
0.000928881
2.29396e-06
0.000919849
2.33938e-06
0.000907697
3.56002e-06
0.000891969
5.88359e-06
0.000872555
9.30852e-06
0.000849575
1.36976e-05
0.000823565
1.85453e-05
0.000795326
2.32343e-05
0.000765906
2.7402e-05
0.000736336
3.06261e-05
0.000707709
3.28857e-05
0.000681099
3.40632e-05
0.000657225
3.44291e-05
0.000636334
3.38708e-05
0.000618415
3.27156e-05
0.000603288
3.07824e-05
0.000590704
2.84373e-05
0.000580376
2.54935e-05
0.000572047
2.22861e-05
0.000565451
1.87339e-05
0.000560383
1.49407e-05
0.000556604
1.1171e-05
0.000553968
6.92659e-06
0.000552263
3.29795e-06
0.000551366
-1.32635e-06
0.000551015
-4.25785e-06
0.000551178
-9.62447e-06
0.000551686
-1.15559e-05
-1.85404e-05
0.000697696
-7.88215e-05
0.000695591
-7.74346e-05
0.000689995
-7.61302e-05
0.000681078
-7.51994e-05
0.000669255
-7.49432e-05
0.000655221
-7.56308e-05
0.000639915
-7.74289e-05
0.000624413
-8.03292e-05
0.000609781
-8.41306e-05
0.000596971
-8.84929e-05
0.00058676
-9.3008e-05
0.000579704
-9.72359e-05
0.000576121
-0.000100743
0.000576113
-0.000103163
0.000579612
-0.000104239
0.000586441
-0.000103824
0.000596337
-0.000101858
0.000608985
-9.8357e-05
0.000624036
-9.33948e-05
0.000641138
-8.71005e-05
0.000659917
-7.96316e-05
0.00068002
-7.11797e-05
0.000701086
-6.19378e-05
0.00072279
-5.2106e-05
0.000744836
-4.18972e-05
0.000766914
-3.15051e-05
0.00078877
-2.11095e-05
0.000810166
-1.09097e-05
0.000830866
-1.05973e-06
0.000850665
8.30813e-06
0.000869407
1.70486e-05
0.000886954
2.50737e-05
0.000903198
3.22925e-05
0.000918049
3.86519e-05
0.000931438
4.41169e-05
0.000943321
4.86702e-05
0.000953676
5.23156e-05
0.000962503
5.50754e-05
0.000969819
5.69868e-05
0.000975664
5.8099e-05
0.000980091
5.84715e-05
0.00098317
5.8172e-05
0.000984982
5.72736e-05
0.000985619
5.5852e-05
0.000985187
5.39816e-05
0.000983801
5.17318e-05
0.000981594
4.91636e-05
0.000978713