/*--------------------------------*- C++ -*----------------------------------*\
| =========                 |                                                 |
| \\      /  F ield         | OpenFOAM: The Open Source CFD Toolbox           |
|  \\    /   O peration     | Version:  2312                                  |
|   \\  /    A nd           | Website:  www.openfoam.com                      |
|    \\/     M anipulation  |                                                 |
\*---------------------------------------------------------------------------*/
FoamFile
{
    version     2.0;
    format      ascii;
    arch        "LSB;label=32;scalar=64";
    class       volVectorField;
    location    "154000";
    object      U;
}
// * * * * * * * * * * * * * * * * * * * * * * * * * * * * * * * * * * * * * //

dimensions      [0 1 -1 0 0 0 0];

internalField   nonuniform List<vector> 
2685
(
(6.42813e-05 2.86339e-06 0)
(5.96809e-05 3.86546e-06 0)
(5.47911e-05 4.77477e-06 0)
(4.96409e-05 5.56037e-06 0)
(4.42572e-05 6.19781e-06 0)
(3.86716e-05 6.67723e-06 0)
(3.29412e-05 7.00589e-06 0)
(2.71561e-05 7.20028e-06 0)
(2.14217e-05 7.26867e-06 0)
(1.58221e-05 7.21277e-06 0)
(1.0443e-05 7.04131e-06 0)
(5.36152e-06 6.75986e-06 0)
(6.39752e-07 6.38256e-06 0)
(-3.65173e-06 5.92263e-06 0)
(-7.46294e-06 5.39267e-06 0)
(-1.07579e-05 4.80795e-06 0)
(-1.35066e-05 4.18361e-06 0)
(-1.56898e-05 3.53414e-06 0)
(-1.72997e-05 2.87297e-06 0)
(-1.83394e-05 2.21167e-06 0)
(-1.88211e-05 1.5565e-06 0)
(-1.87867e-05 9.24369e-07 0)
(-1.82893e-05 3.38307e-07 0)
(-1.73695e-05 -1.8799e-07 0)
(-1.60707e-05 -6.4919e-07 0)
(-1.44448e-05 -1.0414e-06 0)
(-1.25485e-05 -1.36211e-06 0)
(-1.04406e-05 -1.61037e-06 0)
(-8.17974e-06 -1.78707e-06 0)
(-5.82286e-06 -1.89594e-06 0)
(-3.42853e-06 -1.94309e-06 0)
(-1.05025e-06 -1.93378e-06 0)
(1.27006e-06 -1.87477e-06 0)
(3.48446e-06 -1.77393e-06 0)
(5.55462e-06 -1.63536e-06 0)
(7.45951e-06 -1.46607e-06 0)
(9.18002e-06 -1.2733e-06 0)
(1.07039e-05 -1.06425e-06 0)
(1.20259e-05 -8.46038e-07 0)
(1.31469e-05 -6.25589e-07 0)
(1.40739e-05 -4.0927e-07 0)
(1.48186e-05 -2.02547e-07 0)
(1.53972e-05 -1.0086e-08 0)
(1.58295e-05 1.64158e-07 0)
(1.61379e-05 3.16904e-07 0)
(1.63469e-05 4.45525e-07 0)
(1.64827e-05 5.48007e-07 0)
(1.65721e-05 6.22878e-07 0)
(1.66417e-05 6.69221e-07 0)
(1.67181e-05 6.87387e-07 0)
(1.68276e-05 6.77822e-07 0)
(1.69941e-05 6.41654e-07 0)
(1.72395e-05 5.8073e-07 0)
(1.75835e-05 4.97501e-07 0)
(1.80428e-05 3.9487e-07 0)
(1.86314e-05 2.76107e-07 0)
(1.93601e-05 1.44702e-07 0)
(2.02361e-05 4.32555e-09 0)
(2.12633e-05 -1.41343e-07 0)
(2.24423e-05 -2.88608e-07 0)
(2.37705e-05 -4.33963e-07 0)
(2.52421e-05 -5.74005e-07 0)
(2.68489e-05 -7.05694e-07 0)
(2.85797e-05 -8.26139e-07 0)
(3.0422e-05 -9.3296e-07 0)
(3.23611e-05 -1.02389e-06 0)
(3.43818e-05 -1.09733e-06 0)
(3.64673e-05 -1.15179e-06 0)
(3.86015e-05 -1.18689e-06 0)
(4.0766e-05 -1.20233e-06 0)
(4.29437e-05 -1.19921e-06 0)
(4.51154e-05 -1.1777e-06 0)
(4.7266e-05 -1.1395e-06 0)
(4.93781e-05 -1.08477e-06 0)
(5.14416e-05 -1.01632e-06 0)
(5.3441e-05 -9.34129e-07 0)
(5.53722e-05 -8.42451e-07 0)
(5.72209e-05 -7.40439e-07 0)
(5.89917e-05 -6.34876e-07 0)
(6.06688e-05 -5.23278e-07 0)
(6.22706e-05 -4.17321e-07 0)
(6.3773e-05 -3.11274e-07 0)
(6.52196e-05 -2.27135e-07 0)
(6.65625e-05 -1.52675e-07 0)
(6.7905e-05 -1.35097e-07 0)
(6.91324e-05 -1.47114e-07 0)
(7.05105e-05 -3.0242e-07 0)
(7.16765e-05 -4.6706e-07 0)
(7.37634e-05 -9.50544e-07 0)
(0.00017511 1.75458e-05 0)
(0.000169633 1.78156e-05 0)
(0.000163938 1.80233e-05 0)
(0.000158075 1.8176e-05 0)
(0.000152112 1.82582e-05 0)
(0.000146145 1.82388e-05 0)
(0.000140283 1.80666e-05 0)
(0.000134598 1.76945e-05 0)
(0.000129145 1.71038e-05 0)
(0.000123986 1.62935e-05 0)
(0.000119191 1.52787e-05 0)
(0.000114828 1.40761e-05 0)
(0.000110956 1.27116e-05 0)
(0.00010762 1.12108e-05 0)
(0.000104856 9.59805e-06 0)
(0.000102688 7.90121e-06 0)
(0.000101129 6.1495e-06 0)
(0.00010018 4.37416e-06 0)
(9.98306e-05 2.60892e-06 0)
(0.000100055 8.92662e-07 0)
(0.000100842 -7.19439e-07 0)
(0.00010218 -2.23904e-06 0)
(0.000104012 -3.64376e-06 0)
(0.000106259 -4.90303e-06 0)
(0.000108855 -5.99319e-06 0)
(0.000111743 -6.89848e-06 0)
(0.000114863 -7.6086e-06 0)
(0.000118151 -8.11718e-06 0)
(0.000121544 -8.42513e-06 0)
(0.000124978 -8.54287e-06 0)
(0.000128397 -8.48703e-06 0)
(0.000131753 -8.27564e-06 0)
(0.000135007 -7.93072e-06 0)
(0.000138122 -7.47754e-06 0)
(0.00014107 -6.93719e-06 0)
(0.00014383 -6.33353e-06 0)
(0.000146389 -5.69013e-06 0)
(0.000148742 -5.02953e-06 0)
(0.00015089 -4.37261e-06 0)
(0.000152841 -3.73819e-06 0)
(0.000154609 -3.14281e-06 0)
(0.000156215 -2.6006e-06 0)
(0.000157681 -2.12313e-06 0)
(0.000159032 -1.71943e-06 0)
(0.000160295 -1.3962e-06 0)
(0.000161499 -1.15799e-06 0)
(0.000162672 -1.00766e-06 0)
(0.000163843 -9.46919e-07 0)
(0.000165041 -9.75754e-07 0)
(0.000166295 -1.09097e-06 0)
(0.000167629 -1.2878e-06 0)
(0.000169068 -1.55991e-06 0)
(0.000170634 -1.89952e-06 0)
(0.000172346 -2.29744e-06 0)
(0.000174218 -2.74351e-06 0)
(0.000176263 -3.2267e-06 0)
(0.000178488 -3.73572e-06 0)
(0.000180899 -4.25892e-06 0)
(0.000183496 -4.7851e-06 0)
(0.000186277 -5.30306e-06 0)
(0.000189235 -5.80279e-06 0)
(0.000192362 -6.27441e-06 0)
(0.000195647 -6.70992e-06 0)
(0.000199075 -7.10141e-06 0)
(0.000202631 -7.44364e-06 0)
(0.000206297 -7.73099e-06 0)
(0.000210057 -7.96142e-06 0)
(0.000213887 -8.13153e-06 0)
(0.000217774 -8.24301e-06 0)
(0.00022169 -8.29448e-06 0)
(0.000225624 -8.29164e-06 0)
(0.000229546 -8.23393e-06 0)
(0.000233457 -8.13104e-06 0)
(0.000237318 -7.98166e-06 0)
(0.000241147 -7.80033e-06 0)
(0.000244892 -7.58282e-06 0)
(0.000248599 -7.35004e-06 0)
(0.000252187 -7.09141e-06 0)
(0.000255753 -6.83777e-06 0)
(0.000259159 -6.56669e-06 0)
(0.000262594 -6.32657e-06 0)
(0.000265795 -6.07132e-06 0)
(0.000269141 -5.88616e-06 0)
(0.000272103 -5.66795e-06 0)
(0.000275457 -5.60114e-06 0)
(0.000278064 -5.4187e-06 0)
(0.000281628 -5.59939e-06 0)
(0.000283549 -5.4228e-06 0)
(0.000287964 -6.0131e-06 0)
(0.000405777 2.3139e-05 0)
(0.000401114 2.53068e-05 0)
(0.000396708 2.73084e-05 0)
(0.000392429 2.90728e-05 0)
(0.000388149 3.05134e-05 0)
(0.000383748 3.15307e-05 0)
(0.000379185 3.20327e-05 0)
(0.000374548 3.19602e-05 0)
(0.000370001 3.13013e-05 0)
(0.000365662 3.00783e-05 0)
(0.000361607 2.83365e-05 0)
(0.000357888 2.61363e-05 0)
(0.000354546 2.35449e-05 0)
(0.000351609 2.06331e-05 0)
(0.000349104 1.74731e-05 0)
(0.000347052 1.41379e-05 0)
(0.000345478 1.0699e-05 0)
(0.000344405 7.22686e-06 0)
(0.00034386 3.79264e-06 0)
(0.000343892 4.69247e-07 0)
(0.000344389 -2.68641e-06 0)
(0.000345245 -5.60566e-06 0)
(0.00034652 -8.22344e-06 0)
(0.000348215 -1.05103e-05 0)
(0.000350285 -1.24437e-05 0)
(0.000352675 -1.40109e-05 0)
(0.000355331 -1.52128e-05 0)
(0.000358194 -1.60616e-05 0)
(0.000361193 -1.65751e-05 0)
(0.000364261 -1.67737e-05 0)
(0.000367338 -1.66829e-05 0)
(0.000370377 -1.63336e-05 0)
(0.000373336 -1.57616e-05 0)
(0.00037618 -1.50063e-05 0)
(0.000378882 -1.41085e-05 0)
(0.000381426 -1.31094e-05 0)
(0.0003838 -1.20491e-05 0)
(0.000386003 -1.09657e-05 0)
(0.00038804 -9.89422e-06 0)
(0.000389924 -8.86572e-06 0)
(0.00039167 -7.90724e-06 0)
(0.000393297 -7.04204e-06 0)
(0.000394827 -6.28962e-06 0)
(0.000396286 -5.66571e-06 0)
(0.000397697 -5.18252e-06 0)
(0.000399085 -4.84863e-06 0)
(0.000400472 -4.66914e-06 0)
(0.000401882 -4.64505e-06 0)
(0.000403339 -4.77397e-06 0)
(0.000404871 -5.05073e-06 0)
(0.000406499 -5.46676e-06 0)
(0.000408245 -6.00981e-06 0)
(0.000410126 -6.66556e-06 0)
(0.000412159 -7.4172e-06 0)
(0.000414358 -8.24732e-06 0)
(0.000416732 -9.13646e-06 0)
(0.00041929 -1.00657e-05 0)
(0.000422036 -1.10144e-05 0)
(0.000424972 -1.19643e-05 0)
(0.000428094 -1.28953e-05 0)
(0.000431401 -1.37916e-05 0)
(0.00043488 -1.46352e-05 0)
(0.000438531 -1.54144e-05 0)
(0.000442328 -1.6114e-05 0)
(0.000446275 -1.6728e-05 0)
(0.000450337 -1.72446e-05 0)
(0.000454523 -1.76646e-05 0)
(0.000458783 -1.79779e-05 0)
(0.000463143 -1.8193e-05 0)
(0.00046753 -1.82995e-05 0)
(0.000471996 -1.83149e-05 0)
(0.000476435 -1.82261e-05 0)
(0.000480944 -1.80634e-05 0)
(0.000485361 -1.78065e-05 0)
(0.000489856 -1.75035e-05 0)
(0.000494183 -1.71172e-05 0)
(0.000498625 -1.67233e-05 0)
(0.000502802 -1.62506e-05 0)
(0.00050717 -1.5823e-05 0)
(0.000511141 -1.53053e-05 0)
(0.000515436 -1.49042e-05 0)
(0.000519142 -1.43765e-05 0)
(0.000523394 -1.40603e-05 0)
(0.000526753 -1.35536e-05 0)
(0.000531047 -1.33657e-05 0)
(0.00053389 -1.29188e-05 0)
(0.000538446 -1.28488e-05 0)
(0.000540376 -1.25345e-05 0)
(0.000545781 -1.24397e-05 0)
(0.000812446 4.34697e-05 0)
(0.000800757 4.21209e-05 0)
(0.000789158 4.11062e-05 0)
(0.000777766 4.04248e-05 0)
(0.000766711 3.98997e-05 0)
(0.000756189 3.9252e-05 0)
(0.000746395 3.82556e-05 0)
(0.000737354 3.68058e-05 0)
(0.000728986 3.48924e-05 0)
(0.000721209 3.25725e-05 0)
(0.000713979 2.99229e-05 0)
(0.000707276 2.70182e-05 0)
(0.000701088 2.39187e-05 0)
(0.000695411 2.06641e-05 0)
(0.000690239 1.7284e-05 0)
(0.000685561 1.37984e-05 0)
(0.000681358 1.02217e-05 0)
(0.00067762 6.57466e-06 0)
(0.00067434 2.89072e-06 0)
(0.000671484 -7.9207e-07 0)
(0.000669161 -4.43414e-06 0)
(0.00066751 -7.89237e-06 0)
(0.000666444 -1.10755e-05 0)
(0.000665859 -1.39034e-05 0)
(0.00066572 -1.63247e-05 0)
(0.000665995 -1.83074e-05 0)
(0.000666633 -1.98409e-05 0)
(0.000667587 -2.0926e-05 0)
(0.000668831 -2.15708e-05 0)
(0.00067033 -2.18001e-05 0)
(0.000672037 -2.16464e-05 0)
(0.000673897 -2.11495e-05 0)
(0.000675851 -2.03569e-05 0)
(0.000677844 -1.9323e-05 0)
(0.000679822 -1.81059e-05 0)
(0.000681743 -1.67654e-05 0)
(0.000683567 -1.53599e-05 0)
(0.00068527 -1.3945e-05 0)
(0.000686833 -1.25726e-05 0)
(0.00068825 -1.12887e-05 0)
(0.000689524 -1.01319e-05 0)
(0.000690666 -9.13055e-06 0)
(0.000691694 -8.30366e-06 0)
(0.000692629 -7.66301e-06 0)
(0.0006935 -7.21714e-06 0)
(0.000694333 -6.97184e-06 0)
(0.000695162 -6.92919e-06 0)
(0.00069602 -7.08379e-06 0)
(0.000696931 -7.42612e-06 0)
(0.000697916 -7.94542e-06 0)
(0.000699002 -8.63252e-06 0)
(0.000700207 -9.47518e-06 0)
(0.000701555 -1.04596e-05 0)
(0.000703054 -1.15653e-05 0)
(0.000704723 -1.27715e-05 0)
(0.000706562 -1.4052e-05 0)
(0.000708589 -1.53842e-05 0)
(0.000710795 -1.67396e-05 0)
(0.000713196 -1.80978e-05 0)
(0.00071577 -1.94296e-05 0)
(0.000718538 -2.07193e-05 0)
(0.000721459 -2.19379e-05 0)
(0.000724566 -2.30764e-05 0)
(0.000727798 -2.41063e-05 0)
(0.000731202 -2.50301e-05 0)
(0.00073469 -2.5819e-05 0)
(0.000738336 -2.64898e-05 0)
(0.000742015 -2.70085e-05 0)
(0.000745839 -2.74102e-05 0)
(0.000749636 -2.76502e-05 0)
(0.000753573 -2.77889e-05 0)
(0.000757423 -2.7763e-05 0)
(0.000761419 -2.76664e-05 0)
(0.000765259 -2.74057e-05 0)
(0.000769269 -2.71187e-05 0)
(0.000773047 -2.66685e-05 0)
(0.000777038 -2.62466e-05 0)
(0.000780711 -2.56621e-05 0)
(0.000784664 -2.51627e-05 0)
(0.000788187 -2.45049e-05 0)
(0.000792105 -2.39772e-05 0)
(0.000795415 -2.33101e-05 0)
(0.000799332 -2.27834e-05 0)
(0.000802325 -2.2173e-05 0)
(0.000806335 -2.16429e-05 0)
(0.000808813 -2.11569e-05 0)
(0.000813128 -2.05707e-05 0)
(0.000814726 -2.02827e-05 0)
(0.000819771 -1.95217e-05 0)
(0.00119458 6.75454e-05 0)
(0.00119615 6.98079e-05 0)
(0.00119676 7.15778e-05 0)
(0.00119646 7.28074e-05 0)
(0.00119532 7.34099e-05 0)
(0.00119335 7.33173e-05 0)
(0.00119046 7.25075e-05 0)
(0.00118647 7.09785e-05 0)
(0.00118136 6.87281e-05 0)
(0.00117517 6.57722e-05 0)
(0.00116794 6.21579e-05 0)
(0.00115968 5.79488e-05 0)
(0.00115042 5.32121e-05 0)
(0.00114028 4.80282e-05 0)
(0.00112938 4.24996e-05 0)
(0.00111789 3.67432e-05 0)
(0.00110594 3.08506e-05 0)
(0.0010937 2.48599e-05 0)
(0.00108131 1.87962e-05 0)
(0.00106892 1.27489e-05 0)
(0.00105669 6.89191e-06 0)
(0.00104469 1.35149e-06 0)
(0.00103303 -3.80893e-06 0)
(0.00102194 -8.51436e-06 0)
(0.00101152 -1.2702e-05 0)
(0.00100187 -1.63365e-05 0)
(0.000993089 -1.93948e-05 0)
(0.000985286 -2.18672e-05 0)
(0.000978492 -2.37528e-05 0)
(0.000972674 -2.5053e-05 0)
(0.000967787 -2.57831e-05 0)
(0.000963774 -2.59728e-05 0)
(0.00096056 -2.56663e-05 0)
(0.000958065 -2.4922e-05 0)
(0.000956205 -2.38098e-05 0)
(0.000954896 -2.24076e-05 0)
(0.000954057 -2.07983e-05 0)
(0.000953604 -1.90653e-05 0)
(0.000953464 -1.72899e-05 0)
(0.000953564 -1.55475e-05 0)
(0.000953846 -1.39062e-05 0)
(0.000954256 -1.24233e-05 0)
(0.000954751 -1.11444e-05 0)
(0.0009553 -1.01025e-05 0)
(0.000955882 -9.32171e-06 0)
(0.000956484 -8.81504e-06 0)
(0.000957103 -8.58929e-06 0)
(0.000957737 -8.64176e-06 0)
(0.000958398 -8.9667e-06 0)
(0.000959092 -9.5473e-06 0)
(0.000959837 -1.03678e-05 0)
(0.000960645 -1.1403e-05 0)
(0.000961537 -1.2633e-05 0)
(0.000962527 -1.40253e-05 0)
(0.000963642 -1.55575e-05 0)
(0.00096489 -1.71902e-05 0)
(0.000966299 -1.89022e-05 0)
(0.00096787 -2.06484e-05 0)
(0.000969631 -2.2413e-05 0)
(0.000971577 -2.41463e-05 0)
(0.000973735 -2.58426e-05 0)
(0.000976087 -2.74473e-05 0)
(0.00097866 -2.89695e-05 0)
(0.000981425 -3.03478e-05 0)
(0.000984403 -3.16108e-05 0)
(0.000987557 -3.26876e-05 0)
(0.0009909 -3.36304e-05 0)
(0.000994387 -3.43553e-05 0)
(0.000998027 -3.49425e-05 0)
(0.00100177 -3.52946e-05 0)
(0.00100562 -3.55242e-05 0)
(0.00100954 -3.55217e-05 0)
(0.00101352 -3.54293e-05 0)
(0.00101752 -3.51263e-05 0)
(0.00102155 -3.47717e-05 0)
(0.00102555 -3.42426e-05 0)
(0.00102958 -3.3692e-05 0)
(0.00103349 -3.30182e-05 0)
(0.0010375 -3.23318e-05 0)
(0.00104125 -3.15941e-05 0)
(0.00104524 -3.08174e-05 0)
(0.00104872 -3.00922e-05 0)
(0.00105276 -2.92495e-05 0)
(0.00105582 -2.86066e-05 0)
(0.00106002 -2.7694e-05 0)
(0.00106245 -2.71965e-05 0)
(0.00106702 -2.61768e-05 0)
(0.00106848 -2.58884e-05 0)
(0.00107379 -2.46886e-05 0)
(0.00135643 4.08796e-05 0)
(0.00137031 4.37166e-05 0)
(0.00138378 4.65527e-05 0)
(0.00139674 4.93628e-05 0)
(0.00140906 5.20899e-05 0)
(0.00142059 5.46557e-05 0)
(0.00143118 5.69905e-05 0)
(0.00144069 5.90605e-05 0)
(0.00144897 6.08447e-05 0)
(0.00145585 6.23098e-05 0)
(0.00146119 6.342e-05 0)
(0.00146486 6.41437e-05 0)
(0.00146678 6.44494e-05 0)
(0.00146687 6.43063e-05 0)
(0.00146504 6.36817e-05 0)
(0.00146124 6.25447e-05 0)
(0.00145548 6.08669e-05 0)
(0.00144782 5.86206e-05 0)
(0.00143834 5.57885e-05 0)
(0.00142711 5.23734e-05 0)
(0.0014143 4.83993e-05 0)
(0.00140011 4.39135e-05 0)
(0.00138479 3.90273e-05 0)
(0.0013686 3.38272e-05 0)
(0.0013518 2.84014e-05 0)
(0.0013347 2.28806e-05 0)
(0.00131752 1.74405e-05 0)
(0.00130045 1.2238e-05 0)
(0.00128369 7.38537e-06 0)
(0.00126749 2.97794e-06 0)
(0.00125203 -9.08536e-07 0)
(0.00123745 -4.21897e-06 0)
(0.00122388 -6.92438e-06 0)
(0.0012114 -9.02452e-06 0)
(0.00120003 -1.05487e-05 0)
(0.00118979 -1.15483e-05 0)
(0.00118066 -1.20915e-05 0)
(0.00117257 -1.22549e-05 0)
(0.00116548 -1.21216e-05 0)
(0.0011593 -1.17745e-05 0)
(0.00115393 -1.1296e-05 0)
(0.0011493 -1.07601e-05 0)
(0.00114531 -1.02373e-05 0)
(0.00114188 -9.7844e-06 0)
(0.00113892 -9.45406e-06 0)
(0.00113637 -9.28317e-06 0)
(0.00113416 -9.30704e-06 0)
(0.00113223 -9.54335e-06 0)
(0.00113055 -1.0014e-05 0)
(0.0011291 -1.07204e-05 0)
(0.00112784 -1.16732e-05 0)
(0.00112676 -1.28574e-05 0)
(0.00112585 -1.42662e-05 0)
(0.00112512 -1.58638e-05 0)
(0.00112455 -1.76453e-05 0)
(0.0011242 -1.95629e-05 0)
(0.00112403 -2.16111e-05 0)
(0.00112413 -2.37281e-05 0)
(0.00112443 -2.59123e-05 0)
(0.00112506 -2.80905e-05 0)
(0.00112592 -3.02704e-05 0)
(0.00112716 -3.23709e-05 0)
(0.00112866 -3.44137e-05 0)
(0.00113056 -3.63128e-05 0)
(0.00113274 -3.81039e-05 0)
(0.00113534 -3.96988e-05 0)
(0.00113819 -4.11418e-05 0)
(0.00114146 -4.23495e-05 0)
(0.00114492 -4.33677e-05 0)
(0.00114876 -4.41345e-05 0)
(0.00115274 -4.46859e-05 0)
(0.00115699 -4.50071e-05 0)
(0.00116135 -4.51011e-05 0)
(0.00116586 -4.50293e-05 0)
(0.00117051 -4.47211e-05 0)
(0.00117513 -4.43499e-05 0)
(0.00118003 -4.37168e-05 0)
(0.00118464 -4.31557e-05 0)
(0.0011898 -4.22736e-05 0)
(0.00119425 -4.16279e-05 0)
(0.00119975 -4.0554e-05 0)
(0.00120389 -3.99126e-05 0)
(0.00120982 -3.86772e-05 0)
(0.00121344 -3.81096e-05 0)
(0.00121997 -3.67141e-05 0)
(0.00122279 -3.62755e-05 0)
(0.00123016 -3.4696e-05 0)
(0.00123183 -3.44417e-05 0)
(0.00124032 -3.26328e-05 0)
(0.00141614 2.5992e-06 0)
(0.00143478 6.17493e-06 0)
(0.00145345 9.87926e-06 0)
(0.00147201 1.37031e-05 0)
(0.00149033 1.76357e-05 0)
(0.00150824 2.16679e-05 0)
(0.00152559 2.5789e-05 0)
(0.00154216 2.99703e-05 0)
(0.00155774 3.41816e-05 0)
(0.00157215 3.83914e-05 0)
(0.0015852 4.25631e-05 0)
(0.0015967 4.66551e-05 0)
(0.00160648 5.06206e-05 0)
(0.00161437 5.43566e-05 0)
(0.00162023 5.77662e-05 0)
(0.00162394 6.07737e-05 0)
(0.0016254 6.33098e-05 0)
(0.00162457 6.53124e-05 0)
(0.00162141 6.67335e-05 0)
(0.00161596 6.75417e-05 0)
(0.00160829 6.77206e-05 0)
(0.0015985 6.72635e-05 0)
(0.00158675 6.61726e-05 0)
(0.00157321 6.44588e-05 0)
(0.00155808 6.21512e-05 0)
(0.0015416 5.93023e-05 0)
(0.00152401 5.59711e-05 0)
(0.00150558 5.224e-05 0)
(0.00148658 4.82139e-05 0)
(0.00146728 4.39963e-05 0)
(0.00144793 3.96922e-05 0)
(0.00142878 3.54031e-05 0)
(0.00141004 3.1219e-05 0)
(0.00139188 2.722e-05 0)
(0.00137447 2.34728e-05 0)
(0.00135794 2.00315e-05 0)
(0.00134236 1.69291e-05 0)
(0.00132779 1.41807e-05 0)
(0.00131427 1.17769e-05 0)
(0.00130181 9.69557e-06 0)
(0.00129036 7.89648e-06 0)
(0.00127991 6.3373e-06 0)
(0.00127039 4.96179e-06 0)
(0.00126175 3.7209e-06 0)
(0.0012539 2.55386e-06 0)
(0.00124678 1.4155e-06 0)
(0.00124031 2.48207e-07 0)
(0.00123443 -9.81195e-07 0)
(0.00122907 -2.32132e-06 0)
(0.00122419 -3.78844e-06 0)
(0.0012197 -5.41977e-06 0)
(0.00121565 -7.20952e-06 0)
(0.00121197 -9.19404e-06 0)
(0.00120872 -1.13534e-05 0)
(0.00120579 -1.37031e-05 0)
(0.00120331 -1.62099e-05 0)
(0.00120118 -1.88933e-05 0)
(0.00119955 -2.16983e-05 0)
(0.0011983 -2.46299e-05 0)
(0.00119761 -2.76207e-05 0)
(0.00119732 -3.0664e-05 0)
(0.00119764 -3.3689e-05 0)
(0.00119837 -3.66727e-05 0)
(0.00119971 -3.95561e-05 0)
(0.00120145 -4.22908e-05 0)
(0.00120379 -4.48492e-05 0)
(0.0012065 -4.71424e-05 0)
(0.00120973 -4.92052e-05 0)
(0.00121332 -5.08944e-05 0)
(0.00121728 -5.23547e-05 0)
(0.00122159 -5.33689e-05 0)
(0.00122603 -5.42369e-05 0)
(0.00123087 -5.46222e-05 0)
(0.00123553 -5.50101e-05 0)
(0.00124076 -5.48791e-05 0)
(0.00124543 -5.49305e-05 0)
(0.001251 -5.43959e-05 0)
(0.0012555 -5.4237e-05 0)
(0.00126144 -5.33872e-05 0)
(0.00126565 -5.3119e-05 0)
(0.00127207 -5.20197e-05 0)
(0.00127586 -5.17202e-05 0)
(0.00128291 -5.04144e-05 0)
(0.00128614 -5.01386e-05 0)
(0.00129404 -4.86435e-05 0)
(0.00129649 -4.84269e-05 0)
(0.00130547 -4.67333e-05 0)
(0.00130687 -4.66049e-05 0)
(0.00131721 -4.46805e-05 0)
(0.00143035 -3.95115e-05 0)
(0.00145017 -3.67428e-05 0)
(0.0014706 -3.35836e-05 0)
(0.00149153 -2.99876e-05 0)
(0.00151283 -2.59148e-05 0)
(0.00153432 -2.13294e-05 0)
(0.00155577 -1.62071e-05 0)
(0.00157695 -1.05444e-05 0)
(0.00159765 -4.34005e-06 0)
(0.00161762 2.3853e-06 0)
(0.0016366 9.58732e-06 0)
(0.00165437 1.7196e-05 0)
(0.00167058 2.5105e-05 0)
(0.00168487 3.32359e-05 0)
(0.00169702 4.14944e-05 0)
(0.00170685 4.97585e-05 0)
(0.00171418 5.78963e-05 0)
(0.00171886 6.56964e-05 0)
(0.00172083 7.29568e-05 0)
(0.00172001 7.94992e-05 0)
(0.00171639 8.51615e-05 0)
(0.00170999 8.98138e-05 0)
(0.00170091 9.33611e-05 0)
(0.00168933 9.57436e-05 0)
(0.00167544 9.69412e-05 0)
(0.00165952 9.69806e-05 0)
(0.00164185 9.59293e-05 0)
(0.00162274 9.38906e-05 0)
(0.00160253 9.09923e-05 0)
(0.00158154 8.7381e-05 0)
(0.00156008 8.32093e-05 0)
(0.00153845 7.86305e-05 0)
(0.00151692 7.37855e-05 0)
(0.00149572 6.8803e-05 0)
(0.00147505 6.37897e-05 0)
(0.00145508 5.88375e-05 0)
(0.00143592 5.40137e-05 0)
(0.00141767 4.93747e-05 0)
(0.00140039 4.49538e-05 0)
(0.00138413 4.07795e-05 0)
(0.00136889 3.68571e-05 0)
(0.00135468 3.31926e-05 0)
(0.00134145 2.9767e-05 0)
(0.00132919 2.65669e-05 0)
(0.00131784 2.35506e-05 0)
(0.00130739 2.06902e-05 0)
(0.00129774 1.79274e-05 0)
(0.00128891 1.52281e-05 0)
(0.00128079 1.25262e-05 0)
(0.00127342 9.7931e-06 0)
(0.00126672 6.96566e-06 0)
(0.00126072 4.02878e-06 0)
(0.00125533 9.18137e-07 0)
(0.00125067 -2.37281e-06 0)
(0.00124661 -5.88669e-06 0)
(0.00124327 -9.59061e-06 0)
(0.00124052 -1.34927e-05 0)
(0.00123854 -1.75617e-05 0)
(0.00123718 -2.17692e-05 0)
(0.00123659 -2.60684e-05 0)
(0.00123664 -3.03902e-05 0)
(0.00123744 -3.47135e-05 0)
(0.00123885 -3.89287e-05 0)
(0.00124092 -4.30762e-05 0)
(0.00124357 -4.69883e-05 0)
(0.00124675 -5.07861e-05 0)
(0.00125047 -5.4192e-05 0)
(0.00125449 -5.74178e-05 0)
(0.001259 -6.00379e-05 0)
(0.00126348 -6.24217e-05 0)
(0.00126842 -6.40114e-05 0)
(0.0012729 -6.54315e-05 0)
(0.00127794 -6.59895e-05 0)
(0.00128211 -6.6601e-05 0)
(0.00128714 -6.63653e-05 0)
(0.00129086 -6.64702e-05 0)
(0.00129591 -6.5732e-05 0)
(0.00129914 -6.56056e-05 0)
(0.00130434 -6.45903e-05 0)
(0.00130708 -6.44184e-05 0)
(0.00131258 -6.32606e-05 0)
(0.00131482 -6.31353e-05 0)
(0.00132081 -6.18843e-05 0)
(0.00132257 -6.18238e-05 0)
(0.00132927 -6.04646e-05 0)
(0.00133053 -6.04445e-05 0)
(0.00133816 -5.89202e-05 0)
(0.00133887 -5.89081e-05 0)
(0.00134765 -5.71398e-05 0)
(0.00133095 -8.25776e-05 0)
(0.00135123 -8.21072e-05 0)
(0.0013732 -8.1034e-05 0)
(0.00139668 -7.92435e-05 0)
(0.0014215 -7.6629e-05 0)
(0.00144743 -7.30926e-05 0)
(0.00147423 -6.85432e-05 0)
(0.00150164 -6.28917e-05 0)
(0.00152936 -5.60806e-05 0)
(0.0015571 -4.80829e-05 0)
(0.00158452 -3.89055e-05 0)
(0.00161126 -2.85997e-05 0)
(0.00163703 -1.72707e-05 0)
(0.00166159 -5.02435e-06 0)
(0.00168458 7.99243e-06 0)
(0.00170567 2.15628e-05 0)
(0.00172439 3.54177e-05 0)
(0.00174029 4.93389e-05 0)
(0.00175313 6.30999e-05 0)
(0.00176274 7.64656e-05 0)
(0.00176896 8.91193e-05 0)
(0.00177171 0.000100765 0)
(0.00177095 0.000111154 0)
(0.00176671 0.000120072 0)
(0.0017591 0.000127348 0)
(0.00174827 0.000132866 0)
(0.00173447 0.000136564 0)
(0.00171799 0.000138445 0)
(0.00169917 0.000138571 0)
(0.00167842 0.000137067 0)
(0.00165614 0.000134103 0)
(0.00163276 0.000129891 0)
(0.00160871 0.000124663 0)
(0.0015844 0.000118664 0)
(0.00156018 0.000112128 0)
(0.00153637 0.000105276 0)
(0.00151323 9.8295e-05 0)
(0.00149099 9.13445e-05 0)
(0.00146977 8.45386e-05 0)
(0.00144971 7.79683e-05 0)
(0.00143084 7.16794e-05 0)
(0.00141322 6.57078e-05 0)
(0.00139681 6.00466e-05 0)
(0.00138164 5.46912e-05 0)
(0.00136764 4.95978e-05 0)
(0.00135481 4.47395e-05 0)
(0.00134308 4.00515e-05 0)
(0.00133245 3.54955e-05 0)
(0.00132284 3.09933e-05 0)
(0.00131428 2.65034e-05 0)
(0.00130667 2.19457e-05 0)
(0.00130006 1.7282e-05 0)
(0.00129435 1.24532e-05 0)
(0.00128961 7.43825e-06 0)
(0.00128576 2.19284e-06 0)
(0.00128289 -3.28548e-06 0)
(0.00128089 -8.97233e-06 0)
(0.00127976 -1.48582e-05 0)
(0.00127949 -2.0868e-05 0)
(0.00128 -2.69937e-05 0)
(0.00128127 -3.3068e-05 0)
(0.00128312 -3.91023e-05 0)
(0.0012856 -4.48356e-05 0)
(0.00128834 -5.03673e-05 0)
(0.00129159 -5.53595e-05 0)
(0.00129481 -6.00574e-05 0)
(0.00129857 -6.40093e-05 0)
(0.00130206 -6.76106e-05 0)
(0.00130621 -7.02519e-05 0)
(0.0013097 -7.25479e-05 0)
(0.00131387 -7.37807e-05 0)
(0.00131679 -7.48693e-05 0)
(0.00132041 -7.49603e-05 0)
(0.00132219 -7.52203e-05 0)
(0.00132496 -7.45681e-05 0)
(0.00132545 -7.43498e-05 0)
(0.00132744 -7.32438e-05 0)
(0.00132678 -7.27676e-05 0)
(0.00132827 -7.14321e-05 0)
(0.00132676 -7.08971e-05 0)
(0.00132809 -6.95653e-05 0)
(0.00132612 -6.91521e-05 0)
(0.00132765 -6.80075e-05 0)
(0.00132562 -6.78081e-05 0)
(0.00132761 -6.69064e-05 0)
(0.00132593 -6.68929e-05 0)
(0.00132853 -6.61398e-05 0)
(0.00132757 -6.61977e-05 0)
(0.00133082 -6.53625e-05 0)
(0.00108445 -0.00012123 0)
(0.00110699 -0.000126242 0)
(0.00113184 -0.000130222 0)
(0.00115884 -0.000133029 0)
(0.00118784 -0.00013452 0)
(0.00121865 -0.000134559 0)
(0.00125108 -0.00013301 0)
(0.00128493 -0.000129745 0)
(0.00131993 -0.000124655 0)
(0.0013558 -0.000117655 0)
(0.00139222 -0.000108699 0)
(0.00142886 -9.77769e-05 0)
(0.00146532 -8.49242e-05 0)
(0.00150123 -7.02638e-05 0)
(0.00153616 -5.39702e-05 0)
(0.00156968 -3.62572e-05 0)
(0.00160152 -1.74076e-05 0)
(0.00163143 2.30638e-06 0)
(0.00165906 2.25464e-05 0)
(0.00168391 4.28917e-05 0)
(0.0017055 6.29761e-05 0)
(0.00172366 8.2467e-05 0)
(0.00173821 0.000101027 0)
(0.00174901 0.000118252 0)
(0.00175598 0.000133806 0)
(0.0017591 0.000147415 0)
(0.0017584 0.000158854 0)
(0.00175401 0.000167966 0)
(0.0017461 0.000174655 0)
(0.00173494 0.000178904 0)
(0.00172081 0.000180764 0)
(0.00170409 0.000180358 0)
(0.00168516 0.000177872 0)
(0.00166448 0.000173546 0)
(0.00164247 0.000167658 0)
(0.00161961 0.000160515 0)
(0.0015963 0.000152422 0)
(0.00157297 0.000143682 0)
(0.00154996 0.00013456 0)
(0.0015276 0.000125298 0)
(0.00150611 0.000116078 0)
(0.00148571 0.000107052 0)
(0.00146653 9.83e-05 0)
(0.00144869 8.98802e-05 0)
(0.00143222 8.17892e-05 0)
(0.00141717 7.402e-05 0)
(0.00140351 6.65157e-05 0)
(0.00139125 5.92307e-05 0)
(0.00138034 5.20819e-05 0)
(0.00137075 4.50137e-05 0)
(0.00136241 3.79497e-05 0)
(0.00135529 3.08422e-05 0)
(0.00134931 2.36355e-05 0)
(0.00134441 1.6294e-05 0)
(0.00134054 8.81437e-06 0)
(0.00133761 1.18054e-06 0)
(0.00133565 -6.5333e-06 0)
(0.00133443 -1.42904e-05 0)
(0.00133404 -2.19165e-05 0)
(0.00133416 -2.94044e-05 0)
(0.00133505 -3.65206e-05 0)
(0.0013362 -4.33327e-05 0)
(0.00133803 -4.95716e-05 0)
(0.00133974 -5.54839e-05 0)
(0.00134195 -6.0796e-05 0)
(0.00134348 -6.59155e-05 0)
(0.00134537 -7.03467e-05 0)
(0.00134608 -7.44118e-05 0)
(0.00134712 -7.72273e-05 0)
(0.00134635 -7.92067e-05 0)
(0.00134588 -7.94731e-05 0)
(0.00134297 -7.89756e-05 0)
(0.00134059 -7.70719e-05 0)
(0.00133543 -7.51239e-05 0)
(0.0013314 -7.24108e-05 0)
(0.0013244 -7.02911e-05 0)
(0.00131918 -6.78133e-05 0)
(0.00131072 -6.61588e-05 0)
(0.00130461 -6.43207e-05 0)
(0.0012951 -6.32259e-05 0)
(0.00128848 -6.21207e-05 0)
(0.00127858 -6.14981e-05 0)
(0.00127202 -6.11817e-05 0)
(0.00126274 -6.09321e-05 0)
(0.00125679 -6.14652e-05 0)
(0.00124932 -6.14812e-05 0)
(0.00124428 -6.28105e-05 0)
(0.0012399 -6.29285e-05 0)
(0.00123549 -6.46947e-05 0)
(0.000839071 -0.000175797 0)
(0.000862763 -0.000185532 0)
(0.000888128 -0.000193924 0)
(0.000915177 -0.000200875 0)
(0.000943934 -0.000206265 0)
(0.000974431 -0.000209948 0)
(0.00100667 -0.000211761 0)
(0.00104063 -0.000211525 0)
(0.00107624 -0.000209064 0)
(0.0011134 -0.000204208 0)
(0.00115192 -0.000196829 0)
(0.00119159 -0.000186827 0)
(0.0012321 -0.000174179 0)
(0.00127313 -0.00015891 0)
(0.0013143 -0.000141139 0)
(0.00135521 -0.000121039 0)
(0.00139544 -9.88537e-05 0)
(0.00143457 -7.49406e-05 0)
(0.00147216 -4.96865e-05 0)
(0.00150793 -2.35389e-05 0)
(0.00154169 3.07323e-06 0)
(0.0015731 2.96774e-05 0)
(0.00160163 5.57427e-05 0)
(0.00162693 8.08661e-05 0)
(0.00164889 0.000104651 0)
(0.00166737 0.000126683 0)
(0.00168223 0.000146598 0)
(0.00169342 0.000164107 0)
(0.00170092 0.000178981 0)
(0.00170479 0.000191063 0)
(0.00170514 0.000200266 0)
(0.00170215 0.000206585 0)
(0.00169604 0.000210082 0)
(0.0016871 0.000210899 0)
(0.00167564 0.00020923 0)
(0.00166204 0.000205329 0)
(0.00164665 0.000199481 0)
(0.0016299 0.000192001 0)
(0.00161216 0.000183203 0)
(0.00159384 0.000173404 0)
(0.00157528 0.00016289 0)
(0.00155683 0.000151927 0)
(0.00153879 0.000140729 0)
(0.0015214 0.000129478 0)
(0.00150485 0.000118294 0)
(0.00148932 0.000107273 0)
(0.00147489 9.64577e-05 0)
(0.00146165 8.58781e-05 0)
(0.00144963 7.55293e-05 0)
(0.00143884 6.54039e-05 0)
(0.00142928 5.54753e-05 0)
(0.00142091 4.57111e-05 0)
(0.0014137 3.60743e-05 0)
(0.00140756 2.65116e-05 0)
(0.00140249 1.70074e-05 0)
(0.00139832 7.5292e-06 0)
(0.00139509 -1.87323e-06 0)
(0.00139252 -1.12168e-05 0)
(0.00139067 -2.03993e-05 0)
(0.00138898 -2.94397e-05 0)
(0.00138761 -3.80287e-05 0)
(0.00138581 -4.60464e-05 0)
(0.00138388 -5.29841e-05 0)
(0.0013808 -5.88013e-05 0)
(0.00137718 -6.31403e-05 0)
(0.00137188 -6.64093e-05 0)
(0.00136633 -6.84056e-05 0)
(0.00135927 -6.96627e-05 0)
(0.0013526 -6.96247e-05 0)
(0.00134414 -6.88193e-05 0)
(0.0013358 -6.66092e-05 0)
(0.00132434 -6.38553e-05 0)
(0.00131239 -6.005e-05 0)
(0.00129637 -5.63502e-05 0)
(0.0012803 -5.20528e-05 0)
(0.00126026 -4.81818e-05 0)
(0.00124155 -4.3941e-05 0)
(0.00121953 -4.02907e-05 0)
(0.00120043 -3.67685e-05 0)
(0.00117867 -3.40181e-05 0)
(0.00116114 -3.22659e-05 0)
(0.00114141 -3.10976e-05 0)
(0.00112671 -3.20057e-05 0)
(0.00111026 -3.24618e-05 0)
(0.00109899 -3.63504e-05 0)
(0.00108679 -3.77273e-05 0)
(0.0010789 -4.45588e-05 0)
(0.00107199 -4.57945e-05 0)
(0.00106658 -5.52113e-05 0)
(0.000733358 -0.000226626 0)
(0.000750928 -0.000238727 0)
(0.000768849 -0.000249716 0)
(0.000787393 -0.000259553 0)
(0.000806873 -0.000268134 0)
(0.000827612 -0.000275291 0)
(0.000849929 -0.000280795 0)
(0.000874097 -0.000284368 0)
(0.000900323 -0.000285707 0)
(0.000928744 -0.000284504 0)
(0.000959384 -0.000280484 0)
(0.0009922 -0.000273416 0)
(0.00102701 -0.000263154 0)
(0.0010636 -0.000249623 0)
(0.00110164 -0.000232865 0)
(0.00114079 -0.000213002 0)
(0.00118064 -0.000190261 0)
(0.00122079 -0.000164946 0)
(0.00126081 -0.000137436 0)
(0.00130033 -0.000108144 0)
(0.00133891 -7.75934e-05 0)
(0.00137616 -4.63198e-05 0)
(0.00141187 -1.48908e-05 0)
(0.00144586 1.61944e-05 0)
(0.00147763 4.64082e-05 0)
(0.00150684 7.52857e-05 0)
(0.00153331 0.000102411 0)
(0.00155691 0.000127394 0)
(0.00157748 0.000149896 0)
(0.00159492 0.000169653 0)
(0.00160918 0.000186465 0)
(0.00162026 0.000200208 0)
(0.0016282 0.000210826 0)
(0.00163309 0.000218337 0)
(0.00163508 0.000222825 0)
(0.00163436 0.000224444 0)
(0.00163115 0.000223398 0)
(0.00162572 0.000219944 0)
(0.00161837 0.000214366 0)
(0.0016094 0.000206973 0)
(0.00159914 0.000198074 0)
(0.0015879 0.000187974 0)
(0.00157599 0.000176955 0)
(0.00156372 0.000165277 0)
(0.00155135 0.000153157 0)
(0.00153912 0.000140776 0)
(0.00152723 0.00012827 0)
(0.00151587 0.000115732 0)
(0.00150517 0.000103213 0)
(0.00149523 9.07318e-05 0)
(0.00148612 7.82994e-05 0)
(0.00147781 6.59219e-05 0)
(0.00147022 5.36163e-05 0)
(0.00146312 4.13935e-05 0)
(0.00145631 2.93253e-05 0)
(0.00144942 1.75316e-05 0)
(0.0014423 6.278e-06 0)
(0.00143459 -4.17573e-06 0)
(0.00142634 -1.35081e-05 0)
(0.00141754 -2.1567e-05 0)
(0.00140874 -2.81857e-05 0)
(0.00139991 -3.34011e-05 0)
(0.00139173 -3.71106e-05 0)
(0.00138362 -3.96678e-05 0)
(0.00137559 -4.13864e-05 0)
(0.0013657 -4.31074e-05 0)
(0.0013534 -4.4862e-05 0)