/*--------------------------------*- C++ -*----------------------------------*\
| =========                 |                                                 |
| \\      /  F ield         | OpenFOAM: The Open Source CFD Toolbox           |
|  \\    /   O peration     | Version:  2312                                  |
|   \\  /    A nd           | Website:  www.openfoam.com                      |
|    \\/     M anipulation  |                                                 |
\*---------------------------------------------------------------------------*/
FoamFile
{
    version     2.0;
    format      ascii;
    arch        "LSB;label=32;scalar=64";
    class       volScalarField;
    location    "47000";
    object      p;
}
// * * * * * * * * * * * * * * * * * * * * * * * * * * * * * * * * * * * * * //

dimensions      [0 2 -2 0 0 0 0];

internalField   nonuniform List<scalar> 
10800
(
4.88318e-07
4.74196e-07
4.60428e-07
4.49851e-07
4.42428e-07
4.37037e-07
4.32586e-07
4.28507e-07
4.24631e-07
4.20967e-07
4.1755e-07
4.14386e-07
4.1144e-07
4.08663e-07
4.06008e-07
4.03442e-07
4.00943e-07
3.98498e-07
3.96097e-07
3.93731e-07
3.91391e-07
3.8907e-07
3.8676e-07
3.84457e-07
3.82156e-07
3.79852e-07
3.77544e-07
3.75229e-07
3.72904e-07
3.70568e-07
3.6822e-07
3.65858e-07
3.63482e-07
3.61093e-07
3.58688e-07
3.5627e-07
3.53837e-07
3.51391e-07
3.48931e-07
3.46458e-07
3.43973e-07
3.41476e-07
3.38966e-07
3.36445e-07
3.33911e-07
3.31365e-07
3.28806e-07
3.2623e-07
3.23643e-07
3.21027e-07
3.18405e-07
3.15726e-07
3.1307e-07
3.10266e-07
3.07615e-07
3.04479e-07
3.02119e-07
2.97708e-07
2.97397e-07
2.86794e-07
4.40275e-07
4.38548e-07
4.35903e-07
4.32777e-07
4.29561e-07
4.26466e-07
4.23543e-07
4.20756e-07
4.18055e-07
4.15408e-07
4.1281e-07
4.10266e-07
4.07784e-07
4.05363e-07
4.02996e-07
4.00675e-07
3.9839e-07
3.96133e-07
3.93899e-07
3.91682e-07
3.89478e-07
3.87284e-07
3.85095e-07
3.82908e-07
3.80721e-07
3.78529e-07
3.76333e-07
3.74128e-07
3.71915e-07
3.6969e-07
3.67455e-07
3.65207e-07
3.62946e-07
3.60672e-07
3.58385e-07
3.56082e-07
3.53769e-07
3.51439e-07
3.49099e-07
3.46742e-07
3.44378e-07
3.41993e-07
3.39606e-07
3.37193e-07
3.34785e-07
3.32342e-07
3.29917e-07
3.27439e-07
3.25006e-07
3.2249e-07
3.20069e-07
3.17517e-07
3.1516e-07
3.1259e-07
3.10433e-07
3.07913e-07
3.0629e-07
3.03898e-07
3.03419e-07
3.0074e-07
4.31534e-07
4.30784e-07
4.2937e-07
4.27418e-07
4.25133e-07
4.22713e-07
4.20283e-07
4.17893e-07
4.15547e-07
4.13232e-07
4.10938e-07
4.08666e-07
4.0642e-07
4.04206e-07
4.02025e-07
3.99876e-07
3.97754e-07
3.95654e-07
3.93572e-07
3.91504e-07
3.89447e-07
3.87397e-07
3.85353e-07
3.83311e-07
3.8127e-07
3.79227e-07
3.77181e-07
3.7513e-07
3.73072e-07
3.71006e-07
3.68933e-07
3.66849e-07
3.64757e-07
3.62653e-07
3.6054e-07
3.58414e-07
3.56279e-07
3.5413e-07
3.51974e-07
3.49802e-07
3.47625e-07
3.4543e-07
3.43232e-07
3.41012e-07
3.38795e-07
3.36552e-07
3.34319e-07
3.32051e-07
3.29809e-07
3.27519e-07
3.2528e-07
3.22974e-07
3.20758e-07
3.18446e-07
3.1629e-07
3.13985e-07
3.11941e-07
3.09649e-07
3.07756e-07
3.05384e-07
4.19799e-07
4.19366e-07
4.18579e-07
4.17489e-07
4.16164e-07
4.14676e-07
4.13081e-07
4.1142e-07
4.09712e-07
4.0797e-07
4.06198e-07
4.04404e-07
4.02592e-07
4.0077e-07
3.98941e-07
3.9711e-07
3.95277e-07
3.93443e-07
3.91608e-07
3.89771e-07
3.87931e-07
3.86088e-07
3.84242e-07
3.82391e-07
3.80535e-07
3.78674e-07
3.76807e-07
3.74933e-07
3.73052e-07
3.71164e-07
3.69267e-07
3.67363e-07
3.65451e-07
3.6353e-07
3.61602e-07
3.59664e-07
3.57719e-07
3.55765e-07
3.53803e-07
3.51832e-07
3.49853e-07
3.47864e-07
3.45868e-07
3.43859e-07
3.41843e-07
3.39811e-07
3.37773e-07
3.35713e-07
3.33647e-07
3.31552e-07
3.2945e-07
3.27311e-07
3.25168e-07
3.22975e-07
3.20785e-07
3.18532e-07
3.1629e-07
3.13968e-07
3.11672e-07
3.09296e-07
4.13098e-07
4.12885e-07
4.12453e-07
4.11808e-07
4.10964e-07
4.0995e-07
4.08799e-07
4.07542e-07
4.06202e-07
4.04798e-07
4.03342e-07
4.01841e-07
4.00305e-07
3.98738e-07
3.97148e-07
3.95539e-07
3.93914e-07
3.92276e-07
3.90627e-07
3.88969e-07
3.87303e-07
3.85628e-07
3.83947e-07
3.82259e-07
3.80564e-07
3.78863e-07
3.77157e-07
3.75445e-07
3.73727e-07
3.72003e-07
3.70275e-07
3.68542e-07
3.66804e-07
3.65061e-07
3.63314e-07
3.61562e-07
3.59807e-07
3.58047e-07
3.56284e-07
3.54517e-07
3.52746e-07
3.5097e-07
3.49191e-07
3.47405e-07
3.45615e-07
3.43818e-07
3.42013e-07
3.402e-07
3.38375e-07
3.36537e-07
3.34679e-07
3.32796e-07
3.30876e-07
3.28909e-07
3.26876e-07
3.24766e-07
3.22566e-07
3.20289e-07
3.17936e-07
3.15604e-07
4.07578e-07
4.07416e-07
4.07091e-07
4.06606e-07
4.05973e-07
4.05207e-07
4.04326e-07
4.03348e-07
4.02289e-07
4.01162e-07
3.99975e-07
3.98738e-07
3.97456e-07
3.96136e-07
3.94782e-07
3.934e-07
3.91993e-07
3.90565e-07
3.89118e-07
3.87655e-07
3.86178e-07
3.84687e-07
3.83186e-07
3.81675e-07
3.80154e-07
3.78626e-07
3.77091e-07
3.75549e-07
3.74002e-07
3.7245e-07
3.70894e-07
3.69335e-07
3.67772e-07
3.66208e-07
3.64642e-07
3.63075e-07
3.61506e-07
3.59938e-07
3.58369e-07
3.568e-07
3.55231e-07
3.53662e-07
3.52091e-07
3.50519e-07
3.48943e-07
3.47363e-07
3.45775e-07
3.44177e-07
3.42565e-07
3.40938e-07
3.3929e-07
3.37624e-07
3.35931e-07
3.34219e-07
3.32461e-07
3.30662e-07
3.28786e-07
3.26856e-07
3.24867e-07
3.22947e-07
4.03231e-07
4.03112e-07
4.02875e-07
4.02519e-07
4.02049e-07
4.01471e-07
4.00795e-07
4.0003e-07
3.99188e-07
3.98276e-07
3.97304e-07
3.96277e-07
3.95201e-07
3.94082e-07
3.92925e-07
3.91733e-07
3.90511e-07
3.89263e-07
3.87991e-07
3.86698e-07
3.85387e-07
3.84061e-07
3.8272e-07
3.81368e-07
3.80005e-07
3.78633e-07
3.77254e-07
3.75869e-07
3.74479e-07
3.73086e-07
3.71691e-07
3.70294e-07
3.68897e-07
3.67502e-07
3.66108e-07
3.64716e-07
3.63329e-07
3.61945e-07
3.60567e-07
3.59194e-07
3.57827e-07
3.56466e-07
3.55111e-07
3.53763e-07
3.5242e-07
3.51084e-07
3.49752e-07
3.48425e-07
3.47097e-07
3.45767e-07
3.44425e-07
3.43068e-07
3.41683e-07
3.40273e-07
3.38829e-07
3.37361e-07
3.3585e-07
3.34319e-07
3.32765e-07
3.31303e-07
3.99779e-07
3.99687e-07
3.99502e-07
3.99223e-07
3.98852e-07
3.98392e-07
3.9785e-07
3.9723e-07
3.96539e-07
3.95784e-07
3.94969e-07
3.94101e-07
3.93184e-07
3.92223e-07
3.91222e-07
3.90187e-07
3.89119e-07
3.88023e-07
3.86903e-07
3.8576e-07
3.84597e-07
3.83417e-07
3.82223e-07
3.81016e-07
3.79799e-07
3.78573e-07
3.7734e-07
3.76102e-07
3.74861e-07
3.73618e-07
3.72374e-07
3.71132e-07
3.69893e-07
3.68659e-07
3.67429e-07
3.66207e-07
3.64993e-07
3.63789e-07
3.62594e-07
3.61412e-07
3.60242e-07
3.59085e-07
3.57942e-07
3.56814e-07
3.55699e-07
3.54598e-07
3.5351e-07
3.52436e-07
3.51373e-07
3.50326e-07
3.49287e-07
3.48258e-07
3.47227e-07
3.46195e-07
3.4515e-07
3.44102e-07
3.43041e-07
3.41994e-07
3.40966e-07
3.40063e-07
3.97015e-07
3.9694e-07
3.96788e-07
3.9656e-07
3.96255e-07
3.95877e-07
3.95427e-07
3.9491e-07
3.94331e-07
3.93693e-07
3.93e-07
3.92258e-07
3.91469e-07
3.90638e-07
3.89769e-07
3.88865e-07
3.87929e-07
3.86965e-07
3.85976e-07
3.84964e-07
3.83933e-07
3.82884e-07
3.81821e-07
3.80745e-07
3.79659e-07
3.78565e-07
3.77466e-07
3.76362e-07
3.75257e-07
3.74152e-07
3.7305e-07
3.71951e-07
3.70859e-07
3.69774e-07
3.68699e-07
3.67636e-07
3.66586e-07
3.65551e-07
3.64532e-07
3.63533e-07
3.62553e-07
3.61595e-07
3.6066e-07
3.5975e-07
3.58866e-07
3.58009e-07
3.5718e-07
3.5638e-07
3.55607e-07
3.54862e-07
3.5414e-07
3.53447e-07
3.52779e-07
3.5214e-07
3.51523e-07
3.50935e-07
3.50371e-07
3.49851e-07
3.49388e-07
3.49069e-07
3.94813e-07
3.94749e-07
3.94622e-07
3.94429e-07
3.94171e-07
3.9385e-07
3.93468e-07
3.93027e-07
3.9253e-07
3.91981e-07
3.91383e-07
3.90739e-07
3.90052e-07
3.89325e-07
3.88562e-07
3.87766e-07
3.86939e-07
3.86084e-07
3.85205e-07
3.84304e-07
3.83384e-07
3.82447e-07
3.81496e-07
3.80534e-07
3.79563e-07
3.78584e-07
3.77601e-07
3.76617e-07
3.75632e-07
3.7465e-07
3.73672e-07
3.72702e-07
3.71741e-07
3.70792e-07
3.69857e-07
3.68938e-07
3.68037e-07
3.67157e-07
3.66301e-07
3.6547e-07
3.64668e-07
3.63895e-07
3.63155e-07
3.62451e-07
3.61783e-07
3.61156e-07
3.6057e-07
3.6003e-07
3.59533e-07
3.59084e-07
3.58683e-07
3.58334e-07
3.58038e-07
3.578e-07
3.57618e-07
3.57498e-07
3.57441e-07
3.57466e-07
3.57587e-07
3.57877e-07
3.93085e-07
3.93029e-07
3.92918e-07
3.92751e-07
3.92527e-07
3.92248e-07
3.91915e-07
3.9153e-07
3.91096e-07
3.90614e-07
3.90087e-07
3.89519e-07
3.8891e-07
3.88265e-07
3.87586e-07
3.86875e-07
3.86135e-07
3.85369e-07
3.8458e-07
3.8377e-07
3.82942e-07
3.82099e-07
3.81242e-07
3.80375e-07
3.795e-07
3.7862e-07
3.77737e-07
3.76853e-07
3.75972e-07
3.75096e-07
3.74227e-07
3.73369e-07
3.72523e-07
3.71692e-07
3.7088e-07
3.70088e-07
3.6932e-07
3.68579e-07
3.67867e-07
3.67188e-07
3.66545e-07
3.65941e-07
3.65379e-07
3.64863e-07
3.64397e-07
3.63983e-07
3.63624e-07
3.63325e-07
3.63087e-07
3.62918e-07
3.6282e-07
3.62799e-07
3.62859e-07
3.63004e-07
3.63239e-07
3.63571e-07
3.64006e-07
3.6456e-07
3.65251e-07
3.66135e-07
3.91767e-07
3.91717e-07
3.91619e-07
3.9147e-07
3.9127e-07
3.91022e-07
3.90724e-07
3.9038e-07
3.89991e-07
3.89559e-07
3.89085e-07
3.88573e-07
3.88024e-07
3.87441e-07
3.86826e-07
3.86181e-07
3.8551e-07
3.84813e-07
3.84095e-07
3.83357e-07
3.82602e-07
3.81833e-07
3.81052e-07
3.80262e-07
3.79465e-07
3.78665e-07
3.77863e-07
3.77063e-07
3.76267e-07
3.75478e-07
3.74699e-07
3.73933e-07
3.73183e-07
3.72451e-07
3.71741e-07
3.71057e-07
3.704e-07
3.69776e-07
3.69187e-07
3.68637e-07
3.68129e-07
3.67669e-07
3.67259e-07
3.66905e-07
3.66611e-07
3.6638e-07
3.66219e-07
3.66131e-07
3.66123e-07
3.66202e-07
3.66373e-07
3.66643e-07
3.67019e-07
3.67508e-07
3.68118e-07
3.68859e-07
3.6974e-07
3.70777e-07
3.71989e-07
3.73419e-07
3.90814e-07
3.90769e-07
3.90679e-07
3.90542e-07
3.9036e-07
3.90132e-07
3.8986e-07
3.89544e-07
3.89187e-07
3.8879e-07
3.88355e-07
3.87883e-07
3.87377e-07
3.86838e-07
3.8627e-07
3.85674e-07
3.85052e-07
3.84406e-07
3.8374e-07
3.83056e-07
3.82356e-07
3.81643e-07
3.80919e-07
3.80187e-07
3.79449e-07
3.7871e-07
3.7797e-07
3.77233e-07
3.76503e-07
3.75781e-07
3.75071e-07
3.74376e-07
3.73699e-07
3.73044e-07
3.72414e-07
3.71813e-07
3.71243e-07
3.7071e-07
3.70217e-07
3.69768e-07
3.69368e-07
3.69021e-07
3.68732e-07
3.68506e-07
3.68349e-07
3.68266e-07
3.68263e-07
3.68347e-07
3.68525e-07
3.68805e-07
3.69194e-07
3.69702e-07
3.70336e-07
3.71108e-07
3.72027e-07
3.73105e-07
3.74356e-07
3.75795e-07
3.77442e-07
3.79327e-07
3.90195e-07
3.90153e-07
3.90068e-07
3.8994e-07
3.89768e-07
3.89554e-07
3.89297e-07
3.89e-07
3.88663e-07
3.88288e-07
3.87877e-07
3.87432e-07
3.86953e-07
3.86444e-07
3.85906e-07
3.85341e-07
3.84752e-07
3.8414e-07
3.83509e-07
3.8286e-07
3.82197e-07
3.8152e-07
3.80835e-07
3.80142e-07
3.79444e-07
3.78745e-07
3.78047e-07
3.77353e-07
3.76667e-07
3.7599e-07
3.75327e-07
3.74681e-07
3.74054e-07
3.73452e-07
3.72876e-07
3.72332e-07
3.71822e-07
3.71352e-07
3.70925e-07
3.70546e-07
3.7022e-07
3.69952e-07
3.69747e-07
3.6961e-07
3.69549e-07
3.69568e-07
3.69676e-07
3.6988e-07
3.70189e-07
3.7061e-07
3.71154e-07
3.71829e-07
3.72647e-07
3.73619e-07
3.74759e-07
3.76078e-07
3.77595e-07
3.79322e-07
3.81283e-07
3.83496e-07
3.8989e-07
3.8985e-07
3.89767e-07
3.89643e-07
3.89476e-07
3.89268e-07
3.8902e-07
3.88731e-07
3.88404e-07
3.88041e-07
3.87642e-07
3.87209e-07
3.86744e-07
3.86249e-07
3.85726e-07
3.85177e-07
3.84604e-07
3.84009e-07
3.83395e-07
3.82764e-07
3.82118e-07
3.81461e-07
3.80794e-07
3.8012e-07
3.79443e-07
3.78764e-07
3.78087e-07
3.77415e-07
3.76751e-07
3.76097e-07
3.75458e-07
3.74836e-07
3.74235e-07
3.73659e-07
3.73111e-07
3.72596e-07
3.72116e-07
3.71678e-07
3.71285e-07
3.70941e-07
3.70653e-07
3.70425e-07
3.70263e-07
3.70172e-07
3.7016e-07
3.70232e-07
3.70398e-07
3.70664e-07
3.7104e-07
3.71535e-07
3.72158e-07
3.7292e-07
3.73834e-07
3.7491e-07
3.76164e-07
3.7761e-07
3.79265e-07
3.81144e-07
3.83269e-07
3.85654e-07
3.8989e-07
3.89849e-07
3.89767e-07
3.89643e-07
3.89476e-07
3.89268e-07
3.89019e-07
3.88731e-07
3.88404e-07
3.8804e-07
3.87641e-07
3.87209e-07
3.86744e-07
3.86249e-07
3.85726e-07
3.85177e-07
3.84604e-07
3.84009e-07
3.83395e-07
3.82764e-07
3.82118e-07
3.81461e-07
3.80794e-07
3.8012e-07
3.79443e-07
3.78764e-07
3.78087e-07
3.77415e-07
3.7675e-07
3.76097e-07
3.75457e-07
3.74836e-07
3.74235e-07
3.73659e-07
3.73111e-07
3.72595e-07
3.72116e-07
3.71677e-07
3.71284e-07
3.70941e-07
3.70653e-07
3.70424e-07
3.70262e-07
3.70172e-07
3.70159e-07
3.70232e-07
3.70397e-07
3.70663e-07
3.7104e-07
3.71534e-07
3.72157e-07
3.7292e-07
3.73833e-07
3.74909e-07
3.76164e-07
3.77609e-07
3.79264e-07
3.81142e-07
3.83268e-07
3.85653e-07
3.90195e-07
3.90152e-07
3.90067e-07
3.89939e-07
3.89768e-07
3.89553e-07
3.89296e-07
3.88999e-07
3.88662e-07
3.88288e-07
3.87877e-07
3.87431e-07
3.86953e-07
3.86444e-07
3.85905e-07
3.85341e-07
3.84751e-07
3.8414e-07
3.83508e-07
3.8286e-07
3.82196e-07
3.8152e-07
3.80834e-07
3.80141e-07
3.79443e-07
3.78744e-07
3.78046e-07
3.77352e-07
3.76666e-07
3.75989e-07
3.75326e-07
3.7468e-07
3.74053e-07
3.7345e-07
3.72875e-07
3.7233e-07
3.71821e-07
3.7135e-07
3.70923e-07
3.70544e-07
3.70218e-07
3.6995e-07
3.69745e-07
3.69608e-07
3.69547e-07
3.69566e-07
3.69674e-07
3.69878e-07
3.70187e-07
3.70608e-07
3.71151e-07
3.71827e-07
3.72645e-07
3.73617e-07
3.74756e-07
3.76075e-07
3.77592e-07
3.79319e-07
3.8128e-07
3.83493e-07
3.90813e-07
3.90768e-07
3.90678e-07
3.90542e-07
3.90359e-07
3.90131e-07
3.89859e-07
3.89543e-07
3.89186e-07
3.88789e-07
3.88354e-07
3.87882e-07
3.87376e-07
3.86837e-07
3.86269e-07
3.85672e-07
3.8505e-07
3.84405e-07
3.83739e-07
3.83055e-07
3.82355e-07
3.81641e-07
3.80917e-07
3.80185e-07
3.79448e-07
3.78708e-07
3.77968e-07
3.77232e-07
3.76501e-07
3.75779e-07
3.75069e-07
3.74374e-07
3.73697e-07
3.73042e-07
3.72412e-07
3.7181e-07
3.71241e-07
3.70708e-07
3.70215e-07
3.69766e-07
3.69365e-07
3.69018e-07
3.68729e-07
3.68503e-07
3.68346e-07
3.68263e-07
3.6826e-07
3.68344e-07
3.68521e-07
3.68801e-07
3.6919e-07
3.69698e-07
3.70332e-07
3.71103e-07
3.72022e-07
3.731e-07
3.74351e-07
3.7579e-07
3.77437e-07
3.79321e-07
3.91765e-07
3.91716e-07
3.91618e-07
3.91469e-07
3.91269e-07
3.9102e-07
3.90723e-07
3.90379e-07
3.8999e-07
3.89557e-07
3.89084e-07
3.88572e-07
3.88023e-07
3.8744e-07
3.86825e-07
3.8618e-07
3.85508e-07
3.84812e-07
3.84093e-07
3.83355e-07
3.826e-07
3.81831e-07
3.8105e-07
3.8026e-07
3.79463e-07
3.78663e-07
3.77861e-07
3.77061e-07
3.76265e-07
3.75476e-07
3.74697e-07
3.73931e-07
3.7318e-07
3.72448e-07
3.71738e-07
3.71053e-07
3.70397e-07
3.69772e-07
3.69183e-07
3.68633e-07
3.68125e-07
3.67665e-07
3.67255e-07
3.66901e-07
3.66606e-07
3.66376e-07
3.66214e-07
3.66126e-07
3.66118e-07
3.66196e-07
3.66367e-07
3.66637e-07
3.67013e-07
3.67502e-07
3.68112e-07
3.68852e-07
3.69733e-07
3.7077e-07
3.71982e-07
3.73411e-07
3.93083e-07
3.93028e-07
3.92917e-07
3.9275e-07
3.92526e-07
3.92247e-07
3.91914e-07
3.91529e-07
3.91094e-07
3.90612e-07
3.90086e-07
3.89517e-07
3.88909e-07
3.88263e-07
3.87584e-07
3.86873e-07
3.86133e-07
3.85367e-07
3.84578e-07
3.83768e-07
3.8294e-07
3.82096e-07
3.8124e-07
3.80372e-07
3.79497e-07
3.78617e-07
3.77734e-07
3.76851e-07
3.75969e-07
3.75093e-07
3.74224e-07
3.73365e-07
3.72519e-07
3.71688e-07
3.70876e-07
3.70084e-07
3.69316e-07
3.68575e-07
3.67863e-07
3.67184e-07
3.6654e-07
3.65936e-07
3.65374e-07
3.64858e-07
3.64391e-07
3.63977e-07
3.63618e-07
3.63318e-07
3.63081e-07
3.62911e-07
3.62813e-07
3.62792e-07
3.62851e-07
3.62997e-07
3.63231e-07
3.63563e-07
3.63997e-07
3.64551e-07
3.65242e-07
3.66126e-07
3.94811e-07
3.94748e-07
3.9462e-07
3.94427e-07
3.94169e-07
3.93848e-07
3.93466e-07
3.93025e-07
3.92528e-07
3.91979e-07
3.91381e-07
3.90737e-07
3.9005e-07
3.89323e-07
3.8856e-07
3.87763e-07
3.86936e-07
3.86082e-07
3.85203e-07
3.84302e-07
3.83381e-07
3.82445e-07
3.81494e-07
3.80531e-07
3.79559e-07
3.78581e-07
3.77598e-07
3.76613e-07
3.75628e-07
3.74646e-07
3.73669e-07
3.72698e-07
3.71737e-07
3.70788e-07
3.69852e-07
3.68933e-07
3.68032e-07
3.67152e-07
3.66296e-07
3.65465e-07
3.64662e-07
3.63889e-07
3.63149e-07
3.62444e-07
3.61777e-07
3.61149e-07
3.60563e-07
3.60022e-07
3.59526e-07
3.59076e-07
3.58674e-07
3.58326e-07
3.58029e-07
3.57791e-07
3.57608e-07
3.57488e-07
3.57431e-07
3.57455e-07
3.57576e-07
3.57866e-07
3.97013e-07
3.96938e-07
3.96786e-07
3.96558e-07
3.96253e-07
3.95875e-07
3.95425e-07
3.94908e-07
3.94329e-07
3.93691e-07
3.92998e-07
3.92256e-07
3.91467e-07
3.90636e-07
3.89767e-07
3.88862e-07
3.87927e-07
3.86963e-07
3.85973e-07
3.84962e-07
3.8393e-07
3.82881e-07
3.81818e-07
3.80742e-07
3.79656e-07
3.78562e-07
3.77462e-07
3.76358e-07
3.75253e-07
3.74148e-07
3.73045e-07
3.71947e-07
3.70854e-07
3.69769e-07
3.68694e-07
3.6763e-07
3.6658e-07
3.65545e-07
3.64526e-07
3.63527e-07
3.62547e-07
3.61588e-07
3.60653e-07
3.59743e-07
3.58858e-07
3.58001e-07
3.57172e-07
3.56371e-07
3.55598e-07
3.54852e-07
3.5413e-07
3.53437e-07
3.52769e-07
3.52129e-07
3.51512e-07
3.50924e-07
3.50359e-07
3.49839e-07
3.49375e-07
3.49056e-07
3.99777e-07
3.99685e-07
3.995e-07
3.99221e-07
3.9885e-07
3.9839e-07
3.97847e-07
3.97227e-07
3.96537e-07
3.95781e-07
3.94967e-07
3.94098e-07
3.93181e-07
3.9222e-07
3.9122e-07
3.90184e-07
3.89116e-07
3.8802e-07
3.86899e-07
3.85756e-07
3.84594e-07
3.83414e-07
3.8222e-07
3.81013e-07
3.79795e-07
3.78569e-07
3.77336e-07
3.76098e-07
3.74856e-07
3.73613e-07
3.72369e-07
3.71127e-07
3.69888e-07
3.68653e-07
3.67424e-07
3.66201e-07
3.64987e-07
3.63782e-07
3.62588e-07
3.61405e-07
3.60235e-07
3.59078e-07
3.57934e-07
3.56805e-07
3.5569e-07
3.54589e-07
3.53501e-07
3.52426e-07
3.51363e-07
3.50315e-07
3.49276e-07
3.48247e-07
3.47216e-07
3.46183e-07
3.45137e-07
3.4409e-07
3.43028e-07
3.4198e-07
3.40952e-07
3.40048e-07
4.03229e-07
4.0311e-07
4.02872e-07
4.02517e-07
4.02046e-07
4.01468e-07
4.00792e-07
4.00028e-07
3.99185e-07
3.98274e-07
3.97301e-07
3.96274e-07
3.95198e-07
3.94079e-07
3.92922e-07
3.9173e-07
3.90508e-07
3.89259e-07
3.87987e-07
3.86695e-07
3.85384e-07
3.84057e-07
3.82716e-07
3.81364e-07
3.80001e-07
3.78629e-07
3.77249e-07
3.75864e-07
3.74474e-07
3.73081e-07
3.71685e-07
3.70289e-07
3.68892e-07
3.67496e-07
3.66101e-07
3.6471e-07
3.63322e-07
3.61938e-07
3.6056e-07
3.59186e-07
3.57819e-07
3.56458e-07
3.55102e-07
3.53754e-07
3.52411e-07
3.51074e-07
3.49742e-07
3.48414e-07
3.47086e-07
3.45756e-07
3.44413e-07
3.43056e-07
3.41671e-07
3.4026e-07
3.38815e-07
3.37347e-07
3.35835e-07
3.34304e-07
3.32749e-07
3.31287e-07
4.07575e-07
4.07413e-07
4.07088e-07
4.06604e-07
4.05971e-07
4.05204e-07
4.04323e-07
4.03346e-07
4.02287e-07
4.01159e-07
3.99973e-07
3.98735e-07
3.97453e-07
3.96133e-07
3.94779e-07
3.93397e-07
3.9199e-07
3.90561e-07
3.89114e-07
3.87651e-07
3.86174e-07
3.84684e-07
3.83182e-07
3.8167e-07
3.8015e-07
3.78621e-07
3.77086e-07
3.75544e-07
3.73997e-07
3.72445e-07
3.70888e-07
3.69329e-07
3.67766e-07
3.66202e-07
3.64635e-07
3.63068e-07
3.61499e-07
3.59931e-07
3.58361e-07
3.56792e-07
3.55223e-07
3.53653e-07
3.52082e-07
3.5051e-07
3.48933e-07
3.47353e-07
3.45764e-07
3.44166e-07
3.42553e-07
3.40926e-07
3.39277e-07
3.37611e-07
3.35918e-07
3.34205e-07
3.32447e-07
3.30647e-07
3.2877e-07
3.2684e-07
3.24851e-07
3.22929e-07
4.13095e-07
4.12882e-07
4.12451e-07
4.11805e-07
4.10961e-07
4.09947e-07
4.08796e-07
4.07539e-07
4.062e-07
4.04795e-07
4.03339e-07
4.01838e-07
4.00302e-07
3.98735e-07
3.97145e-07
3.95535e-07
3.9391e-07
3.92272e-07
3.90624e-07
3.88965e-07
3.87299e-07
3.85624e-07
3.83943e-07
3.82254e-07
3.8056e-07
3.78859e-07
3.77152e-07
3.75439e-07
3.73721e-07
3.71998e-07
3.70269e-07
3.68536e-07
3.66797e-07
3.65054e-07
3.63307e-07
3.61555e-07
3.59799e-07
3.58039e-07
3.56276e-07
3.54508e-07
3.52737e-07
3.50961e-07
3.49181e-07
3.47395e-07
3.45604e-07
3.43807e-07
3.42002e-07
3.40188e-07
3.38363e-07
3.36524e-07
3.34665e-07
3.32782e-07
3.30861e-07
3.28894e-07
3.2686e-07
3.24749e-07
3.2255e-07
3.20272e-07
3.17918e-07
3.15586e-07
4.19796e-07
4.19363e-07
4.18577e-07
4.17486e-07
4.16161e-07
4.14673e-07
4.13079e-07
4.11417e-07
4.09709e-07
4.07967e-07
4.06195e-07
4.04401e-07
4.02589e-07
4.00766e-07
3.98938e-07
3.97107e-07
3.95274e-07
3.9344e-07
3.91605e-07
3.89767e-07
3.87927e-07
3.86084e-07
3.84238e-07
3.82387e-07
3.80531e-07
3.78669e-07
3.76802e-07
3.74928e-07
3.73047e-07
3.71158e-07
3.69262e-07
3.67357e-07
3.65445e-07
3.63524e-07
3.61595e-07
3.59657e-07
3.57712e-07
3.55757e-07
3.53795e-07
3.51823e-07
3.49844e-07
3.47854e-07
3.45858e-07
3.43848e-07
3.41832e-07
3.398e-07
3.37761e-07
3.35701e-07
3.33634e-07
3.31539e-07
3.29437e-07
3.27297e-07
3.25153e-07
3.2296e-07
3.20769e-07
3.18516e-07
3.16273e-07
3.1395e-07
3.11654e-07
3.09277e-07
4.31531e-07
4.30781e-07
4.29367e-07
4.27415e-07
4.25131e-07
4.2271e-07
4.2028e-07
4.1789e-07
4.15544e-07
4.13228e-07
4.10935e-07
4.08662e-07
4.06417e-07
4.04202e-07
4.02022e-07
3.99872e-07
3.9775e-07
3.95651e-07
3.93569e-07
3.915e-07
3.89443e-07
3.87393e-07
3.85349e-07
3.83307e-07
3.81266e-07
3.79223e-07
3.77176e-07
3.75125e-07
3.73067e-07
3.71001e-07
3.68927e-07
3.66843e-07
3.6475e-07
3.62646e-07
3.60533e-07
3.58406e-07
3.56271e-07
3.54122e-07
3.51966e-07
3.49794e-07
3.47616e-07
3.4542e-07
3.43221e-07
3.41002e-07
3.38784e-07
3.3654e-07
3.34307e-07
3.32038e-07
3.29796e-07
3.27505e-07
3.25265e-07
3.22959e-07
3.20743e-07
3.1843e-07
3.16273e-07
3.13968e-07
3.11923e-07
3.09631e-07
3.07737e-07
3.05365e-07
4.40272e-07
4.38545e-07
4.359e-07
4.32774e-07
4.29558e-07
4.26463e-07
4.2354e-07
4.20753e-07
4.18052e-07
4.15405e-07
4.12807e-07
4.10263e-07
4.07781e-07
4.0536e-07
4.02993e-07
4.00672e-07
3.98386e-07
3.9613e-07
3.93895e-07
3.91678e-07
3.89475e-07
3.8728e-07
3.85091e-07
3.82904e-07
3.80716e-07
3.78525e-07
3.76328e-07
3.74123e-07
3.7191e-07
3.69685e-07
3.67449e-07
3.65201e-07
3.6294e-07
3.60665e-07
3.58378e-07
3.56075e-07
3.53761e-07
3.51431e-07
3.49091e-07
3.46733e-07
3.44368e-07
3.41983e-07
3.39596e-07
3.37182e-07
3.34774e-07
3.3233e-07
3.29905e-07
3.27427e-07
3.24993e-07
3.22476e-07
3.20054e-07
3.17501e-07
3.15144e-07
3.12573e-07
3.10416e-07
3.07895e-07
3.06271e-07
3.03879e-07
3.03399e-07
3.00719e-07
4.88315e-07
4.74193e-07
4.60425e-07
4.49848e-07
4.42425e-07
4.37034e-07
4.32583e-07
4.28504e-07
4.24628e-07
4.20964e-07
4.17547e-07
4.14383e-07
4.11437e-07
4.08659e-07
4.06005e-07
4.03438e-07
4.0094e-07
3.98495e-07
3.96094e-07
3.93728e-07
3.91388e-07
3.89066e-07
3.86756e-07
3.84453e-07
3.82152e-07
3.79848e-07
3.7754e-07
3.75224e-07
3.72899e-07
3.70563e-07
3.68214e-07
3.65852e-07
3.63476e-07
3.61086e-07
3.58682e-07
3.56263e-07
3.5383e-07
3.51383e-07
3.48923e-07
3.4645e-07
3.43964e-07
3.41466e-07
3.38956e-07
3.36434e-07
3.339e-07
3.31353e-07
3.28794e-07
3.26217e-07
3.23629e-07
3.21013e-07
3.18391e-07
3.15711e-07
3.13054e-07
3.10249e-07
3.07598e-07
3.04461e-07
3.02099e-07
2.97688e-07
2.97376e-07
2.86772e-07
3.26701e-07
2.76126e-07
2.55253e-07
2.37675e-07
2.20084e-07
2.02314e-07
1.82507e-07
1.61311e-07
1.36609e-07
1.0999e-07
7.90487e-08
4.66298e-08
9.78348e-09
-2.72053e-08
-6.80334e-08
-1.06892e-07
-1.48782e-07
-1.86272e-07
-2.26052e-07
-2.59144e-07
-2.9386e-07
-3.20022e-07
-3.47658e-07
-3.64885e-07
-3.84944e-07
-3.91699e-07
-4.07726e-07
-4.01793e-07
-4.22277e-07
-4.99045e-07
3.12817e-07
2.57681e-07
2.43807e-07
2.28796e-07
2.11877e-07
1.94517e-07
1.75019e-07
1.5397e-07
1.29464e-07
1.03201e-07
7.28934e-08
4.13318e-08
5.66291e-09
-2.99989e-08
-6.92952e-08
-1.06684e-07
-1.46782e-07
-1.8285e-07
-2.20881e-07
-2.53114e-07
-2.87066e-07
-3.12671e-07
-3.41066e-07
-3.57884e-07
-3.80058e-07
-3.86429e-07
-4.02585e-07
-4.03739e-07
-4.02394e-07
-5.40861e-07
3.00634e-07
2.5522e-07
2.42396e-07
2.27856e-07
2.10444e-07
1.92092e-07
1.72077e-07
1.50683e-07
1.26131e-07
9.97346e-08
6.96641e-08
3.81978e-08
3.08546e-09
-3.22188e-08
-7.06461e-08
-1.07437e-07
-1.46652e-07
-1.82346e-07
-2.20066e-07
-2.51737e-07
-2.85523e-07
-3.11166e-07
-3.3903e-07
-3.57313e-07
-3.77973e-07
-3.89646e-07
-4.01793e-07
-4.17641e-07
-3.9278e-07
-4.93814e-07
2.90467e-07
2.51126e-07
2.3623e-07
2.22191e-07
2.05489e-07
1.87732e-07
1.67916e-07
1.4635e-07
1.21856e-07
9.52959e-08
6.55543e-08
3.40988e-08
-2.65925e-10
-3.53688e-08
-7.26256e-08
-1.09208e-07
-1.47008e-07
-1.82629e-07
-2.1849e-07
-2.50826e-07
-2.82636e-07
-3.10351e-07
-3.36233e-07
-3.58195e-07
-3.76077e-07
-3.94483e-07
-3.98986e-07
-4.27187e-07
-3.93274e-07
-4.6431e-07
2.80655e-07
2.48545e-07
2.32773e-07
2.19857e-07
2.03715e-07
1.85179e-07
1.64846e-07
1.42706e-07
1.18174e-07
9.11933e-08
6.17041e-08
2.99554e-08
-3.71215e-09
-3.89512e-08
-7.50352e-08
-1.11738e-07
-1.47966e-07
-1.83929e-07
-2.18004e-07
-2.5152e-07
-2.81455e-07
-3.11314e-07
-3.34811e-07
-3.6096e-07
-3.74866e-07
-3.99496e-07
-3.98352e-07
-4.28625e-07
-4.03784e-07
-4.39072e-07
2.72072e-07
2.46826e-07
2.30208e-07
2.16837e-07
2.00967e-07
1.82329e-07
1.61815e-07
1.3918e-07
1.14531e-07
8.70948e-08
5.77429e-08
2.56332e-08
-7.48597e-09
-4.29479e-08
-7.80013e-08
-1.14901e-07
-1.49658e-07
-1.86069e-07
-2.18407e-07
-2.52939e-07
-2.809e-07
-3.12653e-07
-3.34158e-07
-3.63052e-07
-3.75479e-07
-4.01918e-07
-4.02385e-07
-4.26968e-07
-4.19351e-07
-4.33659e-07
2.65047e-07
2.45322e-07
2.28565e-07
2.14365e-07
1.98625e-07
1.79908e-07
1.59143e-07
1.35927e-07
1.10985e-07
8.30459e-08
5.36423e-08
2.11796e-08
-1.16341e-08
-4.72349e-08
-8.1572e-08
-1.18458e-07
-1.5217e-07
-1.88609e-07
-2.19809e-07
-2.54573e-07
-2.81663e-07
-3.13912e-07
-3.35386e-07
-3.64481e-07
-3.78818e-07
-4.03403e-07
-4.1035e-07
-4.28123e-07
-4.31952e-07
-4.39475e-07
2.59796e-07
2.43915e-07
2.27658e-07
2.12503e-07
1.96519e-07
1.77648e-07
1.5656e-07
1.32783e-07
1.07368e-07
7.89622e-08
4.92892e-08
1.65834e-08
-1.62211e-08
-5.17566e-08
-8.57789e-08
-1.22295e-07
-1.5552e-07
-1.91395e-07
-2.22244e-07
-2.56343e-07
-2.83708e-07
-3.15142e-07
-3.38145e-07
-3.65775e-07
-3.83707e-07
-4.0562e-07
-4.18485e-07
-4.3267e-07
-4.41625e-07
-4.49094e-07
2.564e-07
2.42613e-07
2.27006e-07
2.11204e-07
1.94659e-07
1.75475e-07
1.53964e-07
1.29664e-07
1.03631e-07
7.4791e-08
4.46563e-08
1.18086e-08
-2.12374e-08
-5.65289e-08
-9.05637e-08
-1.26424e-07
-1.59596e-07
-1.9448e-07
-2.25517e-07
-2.58404e-07
-2.86609e-07
-3.16681e-07
-3.4153e-07
-3.6767e-07
-3.88581e-07
-4.0931e-07
-4.25622e-07
-4.39848e-07
-4.51016e-07
-4.60137e-07
2.54624e-07
2.41478e-07
2.26429e-07
2.10273e-07
1.93003e-07
1.73324e-07
1.51264e-07
1.26455e-07
9.97159e-08
7.04443e-08
3.9727e-08
6.77457e-09
-2.66458e-08
-6.16219e-08
-9.58218e-08
-1.30927e-07
-1.64192e-07
-1.97981e-07
-2.29283e-07
-2.60929e-07
-2.89832e-07
-3.1877e-07
-3.44909e-07
-3.70366e-07
-3.93051e-07
-4.1396e-07
-4.3209e-07
-4.4758e-07
-4.6049e-07
-4.71513e-07
2.54001e-07
2.40655e-07
2.25821e-07
2.09425e-07
1.91423e-07
1.71111e-07
1.4838e-07
1.23031e-07
9.55571e-08
6.58218e-08
3.44822e-08
1.38991e-09
-3.2418e-08
-6.71185e-08
-1.01462e-07
-1.3588e-07
-1.69142e-07
-2.01972e-07
-2.33307e-07
-2.63975e-07
-2.93137e-07
-3.21393e-07
-3.48152e-07
-3.73536e-07
-3.97213e-07
-4.18847e-07
-4.38353e-07
-4.55356e-07
-4.70116e-07
-4.83085e-07
2.53959e-07
2.40183e-07
2.25191e-07
2.08461e-07
1.89745e-07
1.6872e-07
1.45239e-07
1.19286e-07
9.10763e-08
6.08249e-08
2.88744e-08
-4.43041e-09
-3.85741e-08
-7.30911e-08
-1.07472e-07
-1.41336e-07
-1.74411e-07
-2.06469e-07
-2.37555e-07
-2.67484e-07
-2.96531e-07
-3.24369e-07
-3.5134e-07
-3.76873e-07
-4.01242e-07
-4.2373e-07
-4.44513e-07
-4.63049e-07
-4.79673e-07
-4.947e-07
2.54093e-07
2.39924e-07
2.24496e-07
2.07255e-07
1.87811e-07
1.66033e-07
1.41762e-07
1.15127e-07
8.61804e-08
5.53555e-08
2.28161e-08
-1.07727e-08
-4.51947e-08
-7.96106e-08
-1.13926e-07
-1.47338e-07
-1.80074e-07
-2.11473e-07
-2.42114e-07
-2.71402e-07
-3.00118e-07
-3.2759e-07
-3.54585e-07
-3.80259e-07
-4.0522e-07
-4.28497e-07
-4.50564e-07
-4.70525e-07
-4.89076e-07
-5.06043e-07
2.54156e-07
2.39669e-07
2.23654e-07
2.0574e-07
1.85529e-07
1.62961e-07
1.37867e-07
1.10472e-07
8.07649e-08
4.93045e-08
1.61866e-08
-1.77472e-08
-5.24069e-08
-8.67789e-08
-1.20955e-07
-1.53965e-07
-1.86262e-07
-2.17034e-07
-2.47102e-07
-2.7575e-07
-3.0399e-07
-3.31056e-07
-3.57932e-07
-3.83677e-07
-4.0912e-07
-4.33116e-07
-4.56392e-07
-4.7775e-07
-4.98176e-07
-5.17087e-07
2.54051e-07
2.39223e-07
2.22575e-07
2.039e-07
1.82863e-07
1.59442e-07
1.3347e-07
1.05225e-07
7.47068e-08
4.25403e-08
8.83166e-09
-2.54984e-08
-6.0378e-08
-9.4738e-08
-1.28727e-07
-1.61342e-07
-1.93123e-07
-2.23248e-07
-2.52639e-07
-2.80589e-07
-3.08221e-07
-3.34788e-07
-3.61393e-07
-3.871e-07
-4.12873e-07
-4.37503e-07
-4.61875e-07
-4.84603e-07
-5.0686e-07
-5.27718e-07
2.53834e-07
2.38544e-07
2.21243e-07
2.01755e-07
1.79814e-07
1.5543e-07
1.28477e-07
9.92674e-08
6.78556e-08
3.48994e-08
5.64171e-10
-3.42103e-08
-6.93056e-08
-1.03667e-07
-1.37425e-07
-1.69623e-07
-2.00811e-07
-2.30229e-07
-2.58834e-07
-2.85986e-07
-3.12864e-07
-3.38793e-07
-3.64946e-07
-3.90462e-07
-4.16367e-07
-4.41513e-07
-4.66818e-07
-4.90888e-07
-5.14904e-07
-5.37761e-07
2.53684e-07
2.37716e-07
2.19705e-07
1.99333e-07
1.76363e-07
1.50851e-07
1.2276e-07
9.24354e-08
6.00184e-08
2.61754e-08
-8.83879e-09
-4.41015e-08
-7.941e-08
-1.13765e-07
-1.47241e-07
-1.78969e-07
-2.09474e-07
-2.3809e-07
-2.65785e-07
-2.91998e-07
-3.1796e-07
-3.43061e-07
-3.68555e-07
-3.9366e-07
-4.19466e-07
-4.44936e-07
-4.70964e-07
-4.96301e-07
-5.2195e-07
-5.46916e-07
2.53852e-07
2.36906e-07
2.18009e-07
1.96592e-07
1.72398e-07
1.45541e-07
1.16109e-07
8.44959e-08
5.0942e-08
1.61099e-08
-1.96398e-08
-5.54225e-08
-9.09298e-08
-1.25249e-07
-1.58369e-07
-1.89549e-07
-2.19254e-07
-2.46948e-07
-2.73583e-07
-2.98692e-07
-3.23548e-07
-3.47592e-07
-3.72199e-07
-3.96594e-07
-4.22051e-07
-4.47522e-07
-4.74057e-07
-5.00416e-07
-5.27584e-07
-5.54569e-07
2.54464e-07
2.36228e-07
2.1611e-07
1.93341e-07
1.67651e-07
1.39202e-07
1.08214e-07
7.51298e-08
4.03004e-08
4.38349e-09
-3.21503e-08
-6.8463e-08
-1.04136e-07
-1.38361e-07
-1.71032e-07
-2.0156e-07
-2.30325e-07
-2.56963e-07
-2.82353e-07
-3.06182e-07
-3.29702e-07
-3.52443e-07
-3.75877e-07
-3.99226e-07
-4.2401e-07
-4.49064e-07
-4.75797e-07
-5.02762e-07
-5.31224e-07
-5.59893e-07
2.55298e-07
2.35511e-07
2.13689e-07
1.89149e-07
1.61651e-07
1.31371e-07
9.86217e-08
6.38969e-08
2.76604e-08
-9.4205e-09
-4.67711e-08
-8.35973e-08
-1.19383e-07
-1.53429e-07
-1.85538e-07
-2.1529e-07
-2.42957e-07
-2.68382e-07
-2.92315e-07
-3.14666e-07
-3.36566e-07
-3.57743e-07
-3.79633e-07
-4.01573e-07
-4.2524e-07
-4.49389e-07
-4.75857e-07
-5.02805e-07
-5.32153e-07
-5.61786e-07
2.55577e-07
2.33961e-07
2.10097e-07
1.83436e-07
1.53822e-07
1.21457e-07
8.67346e-08
5.02027e-08
1.24347e-08
-2.58737e-08
-6.40564e-08
-1.01352e-07
-1.37174e-07
-1.70923e-07
-2.02339e-07
-2.31159e-07
-2.5756e-07
-2.81585e-07