/*--------------------------------*- C++ -*----------------------------------*\
| =========                 |                                                 |
| \\      /  F ield         | OpenFOAM: The Open Source CFD Toolbox           |
|  \\    /   O peration     | Version:  2312                                  |
|   \\  /    A nd           | Website:  www.openfoam.com                      |
|    \\/     M anipulation  |                                                 |
\*---------------------------------------------------------------------------*/
FoamFile
{
    version     2.0;
    format      ascii;
    arch        "LSB;label=32;scalar=64";
    class       surfaceScalarField;
    location    "47000";
    object      phi;
}
// * * * * * * * * * * * * * * * * * * * * * * * * * * * * * * * * * * * * * //

dimensions      [0 3 -1 0 0 0 0];

oriented        oriented;

internalField   nonuniform List<scalar> 
21240
(
0.000664974
1.69226e-06
0.000661072
3.90242e-06
0.000655751
5.32088e-06
0.000649515
6.2364e-06
0.00064264
6.87509e-06
0.000635268
7.37163e-06
0.000627491
7.7765e-06
0.000619389
8.10276e-06
0.000611032
8.3564e-06
0.000602486
8.54641e-06
0.000593801
8.6851e-06
0.000585016
8.78477e-06
0.000576161
8.85503e-06
0.000567259
8.90222e-06
0.000558329
8.93015e-06
0.000549387
8.94127e-06
0.00054045
8.93742e-06
0.00053153
8.92016e-06
0.000522639
8.89082e-06
0.000513789
8.85047e-06
0.000504989
8.79993e-06
0.000496249
8.73979e-06
0.000487578
8.67047e-06
0.000478986
8.59227e-06
0.000470481
8.50539e-06
0.000462071
8.40998e-06
0.000453765
8.30616e-06
0.000445571
8.19394e-06
0.000437497
8.07344e-06
0.000429553
7.94452e-06
0.000421745
7.8074e-06
0.000414084
7.66172e-06
0.000406576
7.50799e-06
0.00039923
7.34545e-06
0.000392055
7.17518e-06
0.000385059
6.99567e-06
0.00037825
6.80908e-06
0.000371638
6.61246e-06
0.000365228
6.41005e-06
0.000359031
6.19616e-06
0.000353053
5.9788e-06
0.000347305
5.74723e-06
0.000341789
5.51638e-06
0.000336523
5.26614e-06
0.000331499
5.0241e-06
0.000326746
4.75287e-06
0.000322243
4.5032e-06
0.000318037
4.20583e-06
0.000314083
3.95429e-06
0.000310463
3.61939e-06
0.000307087
3.37631e-06
0.000304109
2.9775e-06
0.000301344
2.76583e-06
0.000299108
2.23539e-06
0.000296993
2.11552e-06
0.000295752
1.24029e-06
0.000294279
1.473e-06
0.000294496
-2.16685e-07
0.000293341
1.15539e-06
-3.20759e-06
0.000296548
0.000667556
8.0298e-07
0.00066912
2.33793e-06
0.000670854
3.5875e-06
0.000672525
4.56549e-06
0.000674053
5.34631e-06
0.000675426
5.99874e-06
0.000676638
6.56441e-06
0.00067768
7.06173e-06
0.000678538
7.49774e-06
0.000679208
7.8769e-06
0.000679688
8.20481e-06
0.000679984
8.4884e-06
0.000680105
8.7347e-06
0.000680057
8.94955e-06
0.00067985
9.13727e-06
0.000679491
9.3008e-06
0.000678986
9.44228e-06
0.000678343
9.56328e-06
0.000677568
9.66526e-06
0.000676669
9.74926e-06
0.000675653
9.81642e-06
0.000674526
9.86727e-06
0.000673293
9.90266e-06
0.000671963
9.92264e-06
0.00067054
9.92794e-06
0.000669032
9.91817e-06
0.000667444
9.89421e-06
0.000665783
9.85511e-06
0.000664054
9.80217e-06
0.000662265
9.73369e-06
0.000660421
9.65176e-06
0.000658529
9.55351e-06
0.000656594
9.44243e-06
0.000654626
9.31377e-06
0.000652628
9.17342e-06
0.00065061
9.01352e-06
0.000648575
8.84395e-06
0.000646536
8.65178e-06
0.000644492
8.45345e-06
0.000642461
8.22763e-06
0.000640438
8.00165e-06
0.000638445
7.74023e-06
0.000636473
7.4887e-06
0.00063455
7.18868e-06
0.000632659
6.91524e-06
0.00063084
6.5718e-06
0.000629061
6.28255e-06
0.000627379
5.88777e-06
0.000625741
5.59271e-06
0.000624226
5.13369e-06
0.000622753
4.84919e-06
0.000621425
4.30543e-06
0.000620133
4.05793e-06
0.00061897
3.39867e-06
0.000617856
3.22913e-06
0.000616682
2.41479e-06
0.000615777
2.37826e-06
0.000614169
1.39057e-06
0.000613788
1.53654e-06
4.43674e-07
0.000610137
0.000666951
5.18704e-07
0.000667819
1.4703e-06
0.000669059
2.34754e-06
0.000670484
3.14051e-06
0.000671985
3.84506e-06
0.000673515
4.46883e-06
0.000675055
5.02404e-06
0.000676595
5.52181e-06
0.000678123
5.96994e-06
0.000679626
6.37333e-06
0.000681096
6.73554e-06
0.000682524
7.05982e-06
0.000683909
7.34971e-06
0.00068525
7.60866e-06
0.000686547
7.83997e-06
0.000687802
8.04624e-06
0.000689014
8.22972e-06
0.000690186
8.39194e-06
0.000691317
8.53441e-06
0.000692408
8.658e-06
0.00069346
8.76391e-06
0.000694475
8.85253e-06
0.000695453
8.92487e-06
0.000696395
8.98085e-06
0.000697301
9.02144e-06
0.000698173
9.04603e-06
0.000699012
9.05574e-06
0.000699818
9.04935e-06
0.000700591
9.02841e-06
0.000701334
8.99088e-06
0.000702047
8.93908e-06
0.000702731
8.86982e-06
0.000703386
8.78667e-06
0.000704015
8.68479e-06
0.000704619
8.56967e-06
0.000705199
8.43405e-06
0.000705756
8.2863e-06
0.000706292
8.11566e-06
0.000706811
7.93477e-06
0.000707311
7.72771e-06
0.000707799
7.51335e-06
0.000708271
7.2684e-06
0.000708739
7.02058e-06
0.000709192
6.73627e-06
0.000709651
6.45545e-06
0.000710093
6.13041e-06
0.000710558
5.81766e-06
0.000710994
5.45096e-06
0.000711479
5.10788e-06
0.000711913
4.6995e-06
0.000712435
4.32802e-06
0.00071286
3.88004e-06
0.000713436
3.48192e-06
0.000713833
3.00174e-06
0.000714484
2.57818e-06
0.000714812
2.08625e-06
0.000715554
1.63714e-06
0.000715761
1.18365e-06
0.0007166
6.97237e-07
3.83966e-07
0.00071666
0.000666854
3.31559e-07
0.000667309
1.01555e-06
0.000667972
1.68424e-06
0.000668795
2.31692e-06
0.000669736
2.90438e-06
0.000670761
3.44372e-06
0.000671849
3.9365e-06
0.000672984
4.38637e-06
0.000674157
4.79725e-06
0.000675358
5.17237e-06
0.000676579
5.51423e-06
0.000677814
5.82489e-06
0.000679057
6.10633e-06
0.000680306
6.36052e-06
0.000681556
6.58948e-06
0.000682807
6.79505e-06
0.000684058
6.9789e-06
0.000685308
7.14235e-06
0.000686556
7.28661e-06
0.000687801
7.41253e-06
0.000689044
7.521e-06
0.000690284
7.61253e-06
0.000691521
7.68779e-06
0.000692755
7.74703e-06
0.000693985
7.79076e-06
0.000695213
7.81895e-06
0.000696436
7.83202e-06
0.000697656
7.82971e-06
0.000698872
7.81235e-06
0.000700083
7.77952e-06
0.000701291
7.7315e-06
0.000702493
7.66772e-06
0.000703691
7.5884e-06
0.000704883
7.49297e-06
0.000706071
7.38142e-06
0.000707252
7.25342e-06
0.00070843
7.1085e-06
0.000709599
6.94695e-06
0.000710766
6.76726e-06
0.000711922
6.57124e-06
0.000713081
6.35521e-06
0.000714225
6.12397e-06
0.000715376
5.86973e-06
0.000716509
5.60299e-06
0.000717656
5.30824e-06
0.00071878
5.00645e-06
0.00071993
4.66828e-06
0.000721047
4.33334e-06
0.000722207
3.94804e-06
0.000723322
3.58463e-06
0.000724502
3.14767e-06
0.000725617
2.76529e-06
0.000726828
2.27082e-06
0.000727944
1.88639e-06
0.000729196
1.32566e-06
0.000730315
9.67256e-07
0.000731623
3.28826e-07
0.000732761
4.56486e-08
0.000734207
-7.47951e-07
-9.15033e-07
0.000735506
0.000666738
2.59824e-07
0.00066697
7.84293e-07
0.000667356
1.29793e-06
0.000667879
1.79372e-06
0.000668518
2.26578e-06
0.000669251
2.71051e-06
0.000670061
3.12646e-06
0.000670934
3.51371e-06
0.000671858
3.87314e-06
0.000672824
4.20587e-06
0.000673826
4.513e-06
0.000674855
4.79549e-06
0.000675907
5.05429e-06
0.000676977
5.29038e-06
0.000678062
5.50478e-06
0.000679158
5.69852e-06
0.000680265
5.8726e-06
0.000681379
6.02792e-06
0.0006825
6.16526e-06
0.000683628
6.28532e-06
0.00068476
6.38863e-06
0.000685897
6.47575e-06
0.000687038
6.54699e-06
0.000688182
6.60278e-06
0.000689329
6.64323e-06
0.00069048
6.66873e-06
0.000691632
6.6791e-06
0.000692787
6.67478e-06
0.000693944
6.65526e-06
0.000695103
6.62114e-06
0.000696263
6.57145e-06
0.000697423
6.5072e-06
0.000698585
6.42669e-06
0.000699746
6.33168e-06
0.000700909
6.21934e-06
0.000702069
6.09274e-06
0.00070323
5.94724e-06
0.000704389
5.78813e-06
0.000705549
5.60781e-06
0.000706705
5.41526e-06
0.000707862
5.19812e-06
0.000709014
4.97139e-06
0.000710169
4.71502e-06
0.000711318
4.4538e-06
0.000712471
4.15529e-06
0.000713618
3.86009e-06
0.00071477
3.51575e-06
0.000715915
3.18809e-06
0.000717071
2.79251e-06
0.00071822
2.43501e-06
0.000719388
1.9797e-06
0.000720557
1.5968e-06
0.000721759
1.06888e-06
0.000722977
6.68476e-07
0.00072426
4.20015e-08
0.000725565
-3.37216e-07
0.000726936
-1.04224e-06
0.000728386
-1.40384e-06
0.000729905
-2.2673e-06
-2.57991e-06
0.00073157
0.000666724
2.02503e-07
0.000666899
6.0927e-07
0.000667184
1.01329e-06
0.000667569
1.40804e-06
0.000668045
1.7898e-06
0.0006686
2.15565e-06
0.000669223
2.50353e-06
0.000669905
2.83221e-06
0.000670637
3.14114e-06
0.000671412
3.43017e-06
0.000672226
3.6994e-06
0.000673072
3.94908e-06
0.000673947
4.17958e-06
0.000674846
4.39134e-06
0.000675766
4.58481e-06
0.000676704
4.76054e-06
0.000677658
4.91902e-06
0.000678625
5.0608e-06
0.000679604
5.18631e-06
0.000680593
5.29605e-06
0.000681591
5.3903e-06
0.000682597
5.4695e-06
0.000683611
5.53377e-06
0.00068463
5.58351e-06
0.000685655
5.61864e-06
0.000686684
5.63959e-06
0.000687717
5.64601e-06
0.000688753
5.63842e-06
0.000689792
5.61615e-06
0.000690833
5.57993e-06
0.000691876
5.52861e-06
0.00069292
5.46333e-06
0.000693965
5.38223e-06
0.000695009
5.28717e-06
0.000696053
5.17522e-06
0.000697097
5.04943e-06
0.000698139
4.90521e-06
0.000699179
4.74757e-06
0.000700218
4.56929e-06
0.000701254
4.37852e-06
0.000702289
4.16398e-06
0.000703321
3.93878e-06
0.000704351
3.68521e-06
0.000705381
3.42422e-06
0.000706408
3.12807e-06
0.000707438
2.83006e-06
0.000708467
2.48691e-06
0.000709503
2.15149e-06
0.000710539
1.75651e-06
0.000711589
1.38545e-06
0.000712635
9.33609e-07
0.0007137
5.31959e-07
0.000714746
2.30607e-08
0.00071584
-4.25872e-07
0.000716923
-1.04107e-06
0.000718087
-1.50122e-06
0.000719263
-2.21853e-06
0.000720547
-2.68732e-06
0.000721825
-3.54525e-06
-4.00165e-06
0.000723246
0.000666708
1.60784e-07
0.000666834
4.84073e-07
0.00066704
8.06465e-07
0.000667325
1.1234e-06
0.000667683
1.43233e-06
0.000668107
1.73113e-06
0.000668592
2.01808e-06
0.000669133
2.29194e-06
0.000669722
2.55195e-06
0.000670354
2.79777e-06
0.000671026
3.02803e-06
0.000671732
3.24283e-06
0.000672469
3.44233e-06
0.000673234
3.62661e-06
0.000674023
3.7958e-06
0.000674833
3.9501e-06
0.000675663
4.08969e-06
0.000676509
4.21485e-06
0.000677369
4.32577e-06
0.000678243
4.42271e-06
0.000679127
4.50581e-06
0.000680021
4.57533e-06
0.000680924
4.63127e-06
0.000681833
4.67389e-06
0.000682749
4.70307e-06
0.000683669
4.71907e-06
0.000684594
4.7216e-06
0.000685521
4.71098e-06
0.000686451
4.68665e-06
0.000687382
4.64911e-06
0.000688313
4.59743e-06
0.000689244
4.53236e-06
0.000690174
4.45249e-06
0.000691102
4.35904e-06
0.000692027
4.24983e-06
0.00069295
4.12686e-06
0.000693868
3.98679e-06
0.000694783
3.8329e-06
0.000695692
3.66008e-06
0.000696597
3.47365e-06
0.000697495
3.26574e-06
0.000698389
3.04494e-06
0.000699275
2.79917e-06
0.000700157
2.54216e-06
0.00070103
2.25528e-06
0.0007019
1.96022e-06
0.000702759
1.62783e-06
0.000703618
1.29198e-06
0.000704468
9.0684e-07
0.000705328
5.25605e-07
0.000706186
7.53959e-08
0.000707063
-3.45438e-07
0.000707943
-8.56967e-07
0.000708845
-1.32797e-06
0.000709732
-1.92724e-06
0.000710676
-2.44563e-06
0.000711607
-3.14933e-06
0.000712631
-3.71115e-06
0.000713632
-4.54664e-06
-5.14155e-06
0.000714772
0.000666699
1.28758e-07
0.000666795
3.87272e-07
0.000666957
6.45436e-07
0.00066718
9.00053e-07
0.000667463
1.14938e-06
0.000667802
1.39189e-06
0.000668194
1.62626e-06
0.000668634
1.85139e-06
0.00066912
2.06641e-06
0.000669647
2.27059e-06
0.000670212
2.46331e-06
0.000670811
2.64417e-06
0.00067144
2.81295e-06
0.000672097
2.96955e-06
0.000672779
3.11388e-06
0.000673483
3.24595e-06
0.000674207
3.36573e-06
0.000674949
3.47329e-06
0.000675706
3.56866e-06
0.000676476
3.65192e-06
0.000677259
3.7231e-06
0.000678052
3.78229e-06
0.000678854
3.82946e-06
0.000679663
3.86469e-06
0.000680478
3.88787e-06
0.000681298
3.8991e-06
0.000682122
3.89815e-06
0.000682948
3.88512e-06
0.000683775
3.85964e-06
0.000684602
3.82187e-06
0.000685428
3.77122e-06
0.000686253
3.70797e-06
0.000687074
3.63122e-06
0.000687891
3.54146e-06
0.000688704
3.43739e-06
0.000689511
3.31983e-06
0.000690311
3.18684e-06
0.000691104
3.03986e-06
0.000691888
2.87602e-06
0.000692664
2.69768e-06
0.000693429
2.50055e-06
0.000694185
2.28853e-06
0.000694929
2.05515e-06
0.000695665
1.80669e-06
0.000696387
1.5334e-06
0.000697102
1.2454e-06
0.000697801
9.2807e-07
0.000698496
5.97804e-07
0.000699169
2.3307e-07
0.000699839
-1.44268e-07
0.000700489
-5.73877e-07
0.00070115
-1.007e-06
0.000701793
-1.49986e-06
0.000702455
-1.98994e-06
0.00070309
-2.56223e-06
0.000703761
-3.1169e-06
0.000704397
-3.78489e-06
0.000705094
-4.40818e-06
0.000705738
-5.19114e-06
-5.88331e-06
0.00070648
0.000666693
1.02593e-07
0.000666772
3.08432e-07
0.000666903
5.14139e-07
0.000667086
7.17384e-07
0.000667318
9.16937e-07
0.000667598
1.11168e-06
0.000667924
1.30061e-06
0.000668293
1.48283e-06
0.000668701
1.65758e-06
0.000669148
1.82422e-06
0.000669629
1.98223e-06
0.000670142
2.13119e-06
0.000670684
2.27075e-06
0.000671253
2.40067e-06
0.000671846
2.52076e-06
0.000672461
2.63089e-06
0.000673096
2.73095e-06
0.000673748
2.82085e-06
0.000674416
2.90055e-06
0.000675098
2.97e-06
0.000675792
3.02916e-06
0.000676496
3.07801e-06
0.000677209
3.11647e-06
0.00067793
3.14453e-06
0.000678655
3.16207e-06
0.000679385
3.16906e-06
0.000680118
3.16533e-06
0.000680853
3.15082e-06
0.000681587
3.1253e-06
0.00068232
3.08868e-06
0.000683051
3.04063e-06
0.000683778
2.98106e-06
0.000684499
2.90949e-06
0.000685215
2.82585e-06
0.000685923
2.72951e-06
0.000686622
2.62041e-06
0.000687311
2.49769e-06
0.00068799
2.36139e-06
0.000688656
2.21034e-06
0.000689309
2.04472e-06
0.000689946
1.86295e-06
0.000690569
1.66545e-06
0.000691174
1.4501e-06
0.000691763
1.21769e-06
0.000692331
9.6529e-07
0.000692882
6.94321e-07
0.00069341
4.0065e-07
0.00069392
8.72328e-08
0.000694409
-2.55669e-07
0.000694887
-6.21669e-07
0.000695332
-1.01898e-06
0.000695766
-1.44135e-06
0.000696167
-1.90096e-06
0.000696565
-2.38777e-06
0.000696923
-2.92002e-06
0.000697288
-3.48178e-06
0.000697603
-4.09987e-06
0.000697943
-4.74846e-06
0.000698219
-5.4675e-06
-6.21411e-06
0.00069855
0.000666689
8.05319e-08
0.000666755
2.42039e-07
0.000666866
4.03511e-07
0.00066702
5.63219e-07
0.000667217
7.20273e-07
0.000667454
8.73858e-07
0.000667732
1.02322e-06
0.000668047
1.16767e-06
0.000668398
1.30661e-06
0.000668783
1.43951e-06
0.000669199
1.5659e-06
0.000669645
1.68541e-06
0.000670118
1.79768e-06
0.000670616
1.90244e-06
0.000671137
1.99947e-06
0.00067168
2.08858e-06
0.000672241
2.1696e-06
0.000672819
2.2424e-06
0.000673413
2.30688e-06
0.00067402
2.36293e-06
0.000674639
2.41047e-06
0.000675267
2.44941e-06
0.000675904
2.47966e-06
0.000676548
2.50112e-06
0.000677196
2.51371e-06
0.000677848
2.51729e-06
0.000678501
2.51175e-06
0.000679155
2.49693e-06
0.000679808
2.47268e-06
0.000680458
2.43876e-06
0.000681103
2.39504e-06
0.000681743
2.34116e-06
0.000682376
2.27698e-06
0.000683
2.20202e-06
0.000683613
2.11615e-06
0.000684215
2.0187e-06
0.000684803
1.90961e-06
0.000685376
1.78795e-06
0.000685933
1.65377e-06
0.000686472
1.50573e-06
0.000686991
1.3442e-06
0.000687489
1.16718e-06
0.000687963
9.75568e-07
0.000688415
7.66413e-07
0.000688838
5.41634e-07
0.000689236
2.96912e-07
0.000689599
3.69838e-08
0.00068994
-2.52998e-07
0.000690244
-5.60444e-07
0.00069052
-8.97149e-07
0.000690754
-1.25281e-06
0.000690958
-1.64561e-06
0.000691114
-2.05737e-06
0.000691243
-2.51669e-06
0.000691316
-2.99297e-06
0.000691366
-3.53179e-06
0.000691349
-4.08228e-06
0.000691317
-4.7169e-06
0.000691201
-5.35131e-06
-6.09991e-06
0.000691087
0.000666686
6.14106e-08
0.000666743
1.84534e-07
0.000666839
3.07661e-07
0.000666973
4.29523e-07
0.000667144
5.49479e-07
0.000667351
6.66938e-07
0.000667592
7.81347e-07
0.000667868
8.92197e-07
0.000668175
9.99023e-07
0.000668514
1.10141e-06
0.000668881
1.19898e-06
0.000669275
1.2914e-06
0.000669694
1.37838e-06
0.000670137
1.45967e-06
0.000670601
1.53505e-06
0.000671085
1.60433e-06
0.000671588
1.66734e-06
0.000672106
1.72393e-06
0.000672639
1.77399e-06
0.000673184
1.81738e-06
0.000673741
1.85401e-06
0.000674307
1.88376e-06
0.00067488
1.90655e-06
0.000675459
1.92224e-06
0.000676041
1.93076e-06
0.000676627
1.93193e-06
0.000677213
1.9257e-06
0.000677798
1.91182e-06
0.00067838
1.89025e-06
0.000678959
1.86066e-06
0.000679531
1.82302e-06
0.000680095
1.77688e-06
0.00068065
1.72228e-06
0.000681193
1.65856e-06
0.000681723
1.58588e-06
0.000682239
1.50328e-06
0.000682737
1.41114e-06
0.000683217
1.30806e-06
0.000683676
1.19481e-06
0.000684112
1.06927e-06
0.000684524
9.32902e-07
0.000684908
7.82482e-07
0.000685263
6.20643e-07
0.000685587
4.42446e-07
0.000685876
2.5255e-07
0.000686129
4.39279e-08
0.000686347
-1.80564e-07
0.000686524
-4.29799e-07
0.000686654
-6.90669e-07
0.00068674
-9.82978e-07
0.000686773
-1.28556e-06
0.000686756
-1.62956e-06
0.000686679
-1.97997e-06
0.000686549
-2.38643e-06
0.000686347
-2.79138e-06
0.00068609
-3.27425e-06
0.000685748
-3.74073e-06
0.000685349
-4.31823e-06
0.00068485
-4.8521e-06
-5.54635e-06
0.000684297
0.000666684
4.43936e-08
0.000666735
1.33382e-07
0.00066682
2.22385e-07
0.000666939
3.10508e-07
0.000667091
3.97308e-07
0.000667276
4.82369e-07
0.000667492
5.65304e-07
0.000667738
6.45749e-07
0.000668014
7.23369e-07
0.000668318
7.97854e-07
0.000668648
8.68925e-07
0.000669003
9.36326e-07
0.000669381
9.99831e-07
0.000669782
1.05923e-06
0.000670202
1.11435e-06
0.000670642
1.16502e-06
0.000671098
1.21111e-06
0.000671569
1.25247e-06
0.000672054
1.289e-06
0.000672551
1.32058e-06
0.000673058
1.34712e-06
0.000673573
1.3685e-06
0.000674095
1.38465e-06
0.000674622
1.39544e-06
0.000675152
1.40082e-06
0.000675683
1.4006e-06
0.000676214
1.39476e-06
0.000676743
1.38306e-06
0.000677268
1.36549e-06
0.000677787
1.34174e-06
0.000678298
1.31183e-06
0.000678799
1.27531e-06
0.000679289
1.23231e-06
0.000679766
1.18217e-06
0.000680227
1.12515e-06
0.00068067
1.06029e-06
0.000681093
9.88147e-07
0.000681493
9.07241e-07
0.00068187
8.18605e-07
0.000682219
7.20006e-07
0.000682538
6.13266e-07
0.000682826
4.94957e-07
0.000683078
3.68227e-07
0.000683293
2.27807e-07
0.000683466
7.92607e-08
0.000683598
-8.75811e-08
0.000683681
-2.64154e-07
0.000683714
-4.62191e-07
0.000683691
-6.67382e-07
0.000683609
-9.01141e-07
0.000683463
-1.13949e-06
0.000683249
-1.41645e-06
0.000682962
-1.69259e-06
0.000682598
-2.0224e-06
0.000682148
-2.34129e-06
0.000681611
-2.73683e-06
0.000680973
-3.10324e-06
0.000680237
-3.58174e-06
0.000679383
-3.99865e-06
-4.58188e-06
0.000678419
0.000666682
2.88347e-08
0.000666729
8.66258e-08
0.000666807
1.4443e-07
0.000666916
2.01675e-07
0.000667055
2.5808e-07
0.000667224
3.13381e-07
0.000667422
3.6733e-07
0.000667648
4.19693e-07
0.000667901
4.70252e-07
0.00066818
5.18805e-07
0.000668484
5.65166e-07
0.000668811
6.09163e-07
0.00066916
6.50641e-07
0.00066953
6.89457e-07
0.000669919
7.25486e-07
0.000670325
7.58607e-07
0.000670748
7.88722e-07
0.000671184
8.15728e-07
0.000671634
8.39546e-07
0.000672094
8.60084e-07
0.000672564
8.77277e-07
0.000673042
8.91033e-07
0.000673525
9.01302e-07
0.000674013
9.07976e-07
0.000674502
9.11019e-07
0.000674993
9.10297e-07
0.000675482
9.05789e-07
0.000675967
8.97316e-07
0.000676448
8.84883e-07
0.000676921
8.6824e-07
0.000677386
8.47435e-07
0.000677839
8.22112e-07
0.000678279
7.92396e-07
0.000678703
7.57766e-07
0.00067911
7.18482e-07
0.000679497
6.73768e-07
0.000679861
6.2412e-07
0.000680199
5.68361e-07
0.000680511
5.07384e-07
0.000680791
4.3939e-07
0.000681039
3.65938e-07
0.000681249
2.84261e-07
0.000681421
1.97044e-07
0.000681548
1.0007e-07
0.000681629
-1.39106e-09
0.00068166
-1.18792e-07
0.000681636
-2.40337e-07
0.000681552
-3.7799e-07
0.000681404
-5.19644e-07
0.000681186
-6.82869e-07
0.000680894
-8.47595e-07
0.00068052
-1.04187e-06
0.00068006
-1.23278e-06
0.000679503
-1.4654e-06
0.000678847
-1.68576e-06
0.000678077
-1.9666e-06
0.000677193
-2.21938e-06
0.000676173
-2.56186e-06
0.000675023
-2.84835e-06
-3.26984e-06
0.000673711
0.000666681
1.41978e-08
0.000666725
4.26482e-08
0.000666799
7.11032e-08
0.000666901
9.92835e-08
0.000667032
1.27053e-07
0.000667191
1.54282e-07
0.000667378
1.80852e-07
0.000667591
2.06646e-07
0.000667829
2.31559e-07
0.000668093
2.5549e-07
0.000668379
2.78346e-07
0.000668689
3.00042e-07
0.000669019
3.20499e-07
0.000669369
3.39644e-07
0.000669737
3.57414e-07
0.000670121
3.73745e-07
0.000670522
3.88587e-07
0.000670935
4.01885e-07
0.000671361
4.13597e-07
0.000671798
4.23675e-07
0.000672243
4.32083e-07
0.000672695
4.38773e-07
0.000673153
4.43717e-07
0.000673614
4.46858e-07
0.000674077
4.48176e-07
0.00067454
4.476e-07
0.000675
4.45119e-07
0.000675457
4.40637e-07
0.000675908
4.3416e-07
0.00067635
4.25551e-07
0.000676783
4.14844e-07
0.000677203
4.01841e-07
0.000677609
3.86621e-07
0.000677998
3.68895e-07
0.000678367
3.48821e-07
0.000678715
3.25969e-07
0.000679039
3.00628e-07
0.000679335
2.72149e-07
0.000679601
2.41048e-07
0.000679834
2.06329e-07
0.000680031
1.68886e-07
0.000680188
1.27178e-07
0.000680303
8.27272e-08
0.00068037
3.31852e-08
0.000680388
-1.9268e-08
0.000680348
-7.90531e-08
0.000680249
-1.41147e-07
0.000680082
-2.11822e-07
0.000679847
-2.84225e-07
0.000679532
-3.68187e-07
0.000679137
-4.5241e-07
0.000678648
-5.52612e-07
0.000678065
-6.50247e-07
0.000677371
-7.70612e-07
0.000676568
-8.83287e-07
0.000675631
-1.02917e-06
0.00067457
-1.1583e-06
0.000673345
-1.33704e-06
0.000671979
-1.48302e-06
-1.70425e-06
0.000670414
0.000666681
7.91263e-12
0.000666723
1.74994e-11
0.000666795
2.0562e-11
0.000666894
1.70919e-11
0.000667021
7.30912e-12
0.000667175
-8.60861e-12
0.000667356
-3.05649e-11
0.000667563
-5.82353e-11
0.000667794
-9.12534e-11
0.00066805
-1.29239e-10
0.000668329
-1.71862e-10
0.000668629
-2.1886e-10
0.00066895
-2.70027e-10
0.00066929
-3.25186e-10
0.000669647
-3.84154e-10
0.000670022
-4.46718e-10
0.000670411
-5.12619e-10
0.000670813
-5.81565e-10
0.000671227
-6.53249e-10
0.000671652
-7.27388e-10
0.000672085
-8.03725e-10
0.000672524
-8.82052e-10
0.000672969
-9.62178e-10
0.000673417
-1.04395e-09
0.000673866
-1.12722e-09
0.000674315
-1.21187e-09
0.000674761
-1.29776e-09
0.000675203
-1.38481e-09
0.000675639
-1.47288e-09
0.000676066
-1.56187e-09
0.000676483
-1.65167e-09
0.000676886
-1.74219e-09
0.000677275
-1.83329e-09
0.000677646
-1.92494e-09
0.000677996
-2.01699e-09
0.000678324
-2.10938e-09
0.000678627
-2.20192e-09
0.000678902
-2.29463e-09
0.000679145
-2.38749e-09
0.000679354
-2.48102e-09
0.000679525
-2.57585e-09
0.000679655
-2.67448e-09
0.000679741
-2.7805e-09
0.000679777
-2.88781e-09
0.000679761
-2.99433e-09
0.000679685
-3.09583e-09
0.000679547
-3.19834e-09
0.000679338
-3.30239e-09
0.000679057
-3.40989e-09
0.000678693
-3.51958e-09
0.000678244
-3.63305e-09
0.000677695
-3.74818e-09
0.000677049
-3.86761e-09
0.000676282
-3.98898e-09
0.000675403
-4.11586e-09
0.000674378
-4.24509e-09
0.000673224
-4.38059e-09
0.000671892
-4.51877e-09
0.000670413
-4.6633e-09
-4.81154e-09
0.000668714
0.000666681
-1.41821e-08
0.000666723
-4.26136e-08
0.000666795
-7.10625e-08
0.000666894
-9.92498e-08
0.000667021
-1.27038e-07
0.000667175
-1.543e-07
0.000667356
-1.80913e-07
0.000667563
-2.06763e-07
0.000667794
-2.31741e-07
0.00066805
-2.55747e-07
0.000668329
-2.78689e-07
0.000668629
-3.00478e-07
0.00066895
-3.21037e-07
0.00066929
-3.40292e-07
0.000669647
-3.58179e-07
0.000670022
-3.74635e-07
0.000670411
-3.89608e-07
0.000670813
-4.03043e-07
0.000671227
-4.14898e-07
0.000671652
-4.25123e-07
0.000672085
-4.33684e-07
0.000672524
-4.40529e-07
0.000672969
-4.45633e-07
0.000673417
-4.48936e-07
0.000673866
-4.5042e-07
0.000674315
-4.50012e-07
0.000674761
-4.47703e-07
0.000675203
-4.43394e-07
0.000675639
-4.37092e-07
0.000676066
-4.28661e-07
0.000676483
-4.18132e-07
0.000676886
-4.05309e-07
0.000677275
-3.9027e-07
0.000677645
-3.72727e-07
0.000677996
-3.52837e-07
0.000678324
-3.30168e-07
0.000678627
-3.05013e-07
0.000678901
-2.7672e-07
0.000679145
-2.45806e-07
0.000679354
-2.11274e-07
0.000679525
-1.74016e-07
0.000679655
-1.32492e-07
0.00067974
-8.82222e-08
0.000679776
-3.88497e-08
0.00067976
1.32524e-08
0.000679684
7.28924e-08
0.000679546
1.34783e-07
0.000679338
2.05248e-07
0.000679057
2.77436e-07
0.000678692
3.61182e-07
0.000678243
4.4518e-07
0.000677694
5.45156e-07
0.000677048
6.42554e-07
0.000676281
7.62679e-07
0.000675402
8.75101e-07
0.000674377
1.02073e-06
0.000673223
1.14958e-06
0.00067189
1.32806e-06
0.000670412
1.47374e-06
1.69468e-06
0.000668713
0.000666681
-2.88195e-08
0.000666725
-8.65921e-08
0.000666799
-1.4439e-07
0.000666901
-2.01643e-07
0.000667032
-2.58067e-07
0.000667191
-3.13399e-07
0.000667378
-3.67392e-07
0.000667591
-4.19809e-07
0.000667829
-4.70434e-07
0.000668093
-5.19061e-07
0.000668379
-5.65506e-07
0.000668689
-6.09595e-07
0.000669019
-6.51174e-07
0.000669369
-6.90098e-07
0.000669737
-7.26243e-07
0.000670121
-7.59487e-07
0.000670522
-7.89731e-07
0.000670935
-8.16872e-07
0.000671361
-8.40831e-07
0.000671798
-8.61514e-07
0.000672243
-8.78857e-07
0.000672695
-8.92767e-07
0.000673153
-9.03192e-07
0.000673614
-9.10027e-07
0.000674077
-9.13233e-07
0.000674539
-9.12677e-07
0.000675
-9.08337e-07
0.000675457
-9.00035e-07
0.000675907
-8.87774e-07
0.00067635
-8.71306e-07
0.000676782
-8.50677e-07
0.000677203
-8.25531e-07
0.000677608
-7.95994e-07
0.000677997
-7.61542e-07
0.000678367
-7.2244e-07
0.000678715
-6.77907e-07
0.000679038
-6.28442e-07
0.000679334
-5.72866e-07
0.0006796
-5.12074e-07
0.000679833
-4.44267e-07
0.00068003
-3.71005e-07
0.000680187
-2.89519e-07
0.000680302
-2.02492e-07
0.000680368
-1.05695e-07
0.000680386
-4.28136e-09
0.000680346
1.1268e-07
0.000680247
2.3405e-07
0.000680081
3.71515e-07
0.000679845
5.12965e-07
0.00067953
6.7598e-07
0.000679135
8.40485e-07
0.000678646
1.03454e-06
0.000678063
1.22522e-06
0.000677368
1.4576e-06
0.000676565
1.67771e-06
0.000675628
1.95831e-06
0.000674567
2.21082e-06
0.000673342
2.55304e-06
0.000671976
2.83924e-06
3.26046e-06
0.00067041
0.000666682
-4.43789e-08
0.000666729
-1.33349e-07
0.000666807
-2.22347e-07
0.000666916
-3.10478e-07
0.000667055
-3.97297e-07
0.000667224
-4.82389e-07
0.000667422
-5.65367e-07
0.000667648
-6.45865e-07
0.000667901
-7.23549e-07
0.00066818
-7.98107e-07
0.000668484
-8.6926e-07
0.000668811
-9.36751e-07
0.00066916
-1.00035e-06
0.00066953
-1.05986e-06
0.000669919
-1.1151e-06
0.000670325
-1.16589e-06
0.000670748
-1.2121e-06
0.000671184
-1.25359e-06
0.000671634
-1.29026e-06
0.000672094
-1.32198e-06
0.000672564
-1.34866e-06
0.000673041
-1.37019e-06
0.000673525
-1.3865e-06
0.000674012
-1.39745e-06
0.000674502
-1.40298e-06
0.000674992
-1.40293e-06
0.000675481
-1.39725e-06
0.000675967
-1.38571e-06
0.000676447
-1.36831e-06
0.000676921
-1.34473e-06
0.000677385
-1.31499e-06
0.000677838
-1.27865e-06
0.000678278
-1.23582e-06
0.000678702
-1.18585e-06
0.000679109
-1.12901e-06
0.000679495
-1.06433e-06
0.000679859
-9.92362e-07
0.000680198
-9.11634e-07
0.000680509
-8.23176e-07
0.00068079
-7.24756e-07
0.000681037
-6.18194e-07
0.000681247
-5.00061e-07
0.000681418
-3.73508e-07
0.000681546
-2.33261e-07
0.000681627
-8.48764e-08
0.000681658
8.16388e-08
0.000681634
2.58047e-07
0.000681549
4.55893e-07
0.000681401
6.60881e-07
0.000681183
8.9444e-07
0.000680891
1.13258e-06
0.000680516
1.40932e-06
0.000680056
1.68524e-06
0.000679499
2.01483e-06
0.000678843
2.33347e-06
0.000678072
2.72879e-06
0.000677188
3.09493e-06
0.000676168
3.57319e-06
0.000675018
3.98982e-06
4.57279e-06
0.000673705
0.000666684
-6.13968e-08
0.000666735
-1.84504e-07
0.00066682
-3.07627e-07
0.000666939
-4.29496e-07
0.000667091
-5.49471e-07
0.000667276
-6.66961e-07
0.000667492
-7.81412e-07
0.000667738
-8.92313e-07
0.000668014
-9.99201e-07
0.000668318
-1.10166e-06
0.000668648
-1.1993e-06
0.000669003
-1.29181e-06
0.000669381
-1.37889e-06
0.000669782
-1.46029e-06
0.000670202
-1.53578e-06
0.000670642
-1.60517e-06
0.000671098
-1.6683e-06
0.000671569
-1.72502e-06
0.000672054
-1.77521e-06
0.000672551
-1.81873e-06
0.000673058
-1.85551e-06
0.000673573
-1.8854e-06
0.000674095
-1.90834e-06
0.000674622
-1.92418e-06
0.000675151
-1.93285e-06
0.000675683
-1.93419e-06
0.000676214
-1.92811e-06
0.000676742
-1.91439e-06
0.000677267
-1.89298e-06
0.000677786
-1.86355e-06
0.000678297
-1.82608e-06
0.000678798
-1.78011e-06
0.000679288
-1.72567e-06
0.000679764
-1.66212e-06
0.000680225
-1.58961e-06
0.000680668
-1.50717e-06
0.000681091
-1.41521e-06
0.000681491
-1.3123e-06
0.000681867
-1.19922e-06
0.000682216
-1.07385e-06
0.000682536
-9.37658e-07
0.000682823
-7.87413e-07
0.000683076
-6.2575e-07
0.00068329
-4.47727e-07
0.000683463
-2.57999e-07
0.000683594
-4.94874e-08
0.000683678
1.74665e-07
0.00068371
4.23735e-07
0.000683686
6.84416e-07
0.000683604
9.76537e-07
0.000683458
1.27891e-06
0.000683244
1.62272e-06
0.000682957
1.97291e-06
0.000682592
2.37917e-06
0.000682142
2.78388e-06
0.000681604
3.26655e-06
0.000680966
3.73277e-06
0.00068023
4.31005e-06
0.000679376
4.84364e-06
5.53767e-06
0.000678411
0.000666686
-8.05191e-08
0.000666743
-2.42012e-07
0.000666839
-4.0348e-07
0.000666973
-5.63196e-07
0.000667144
-7.20269e-07
0.000667351
-8.73883e-07
0.000667592
-1.02328e-06
0.000667868
-1.16779e-06
0.000668176
-1.30679e-06
0.000668514
-1.43975e-06
0.000668881
-1.56622e-06
0.000669275
-1.68581e-06
0.000669694
-1.79817e-06
0.000670137
-1.90304e-06
0.000670601
-2.00017e-06
0.000671085
-2.08938e-06
0.000671587
-2.17052e-06
0.000672106
-2.24345e-06
0.000672639
-2.30805e-06
0.000673184
-2.36424e-06
0.000673741
-2.41191e-06
0.000674306
-2.45098e-06
0.000674879
-2.48137e-06
0.000675458
-2.50298e-06
0.000676041
-2.51572e-06
0.000676626
-2.51944e-06
0.000677212
-2.51406e-06
0.000677797
-2.49939e-06
0.000678379
-2.47529e-06
0.000678957
-2.44153e-06
0.000679529
-2.39796e-06
0.000680093
-2.34424e-06
0.000680648
-2.28022e-06
0.000681191
-2.20542e-06
0.000681721
-2.11971e-06
0.000682237
-2.02242e-06
0.000682735
-1.9135e-06
0.000683215
-1.79199e-06
0.000683673
-1.65798e-06
0.00068411
-1.51011e-06
0.000684521
-1.34874e-06
0.000684905
-1.17188e-06
0.00068526
-9.80436e-07
0.000685583
-7.71444e-07
0.000685872
-5.46833e-07
0.000686125
-3.02267e-07
0.000686342
-4.24211e-08
0.000686519
2.47204e-07
0.000686649
5.5449e-07
0.000686734
8.91032e-07
0.000686767
1.2465e-06
0.00068675
1.63913e-06
0.000686672
2.05068e-06
0.000686542
2.50982e-06
0.00068634
2.98587e-06
0.000686082
3.52451e-06
0.00068574
4.07475e-06
0.000685341
4.70919e-06
0.000684841
5.34332e-06
6.09174e-06
0.000684287
0.000666689
-1.02582e-07
0.000666755
-3.08407e-07
0.000666866
-5.14112e-07
0.00066702
-7.17365e-07
0.000667217