/*--------------------------------*- C++ -*----------------------------------*\
| =========                 |                                                 |
| \\      /  F ield         | OpenFOAM: The Open Source CFD Toolbox           |
|  \\    /   O peration     | Version:  2312                                  |
|   \\  /    A nd           | Website:  www.openfoam.com                      |
|    \\/     M anipulation  |                                                 |
\*---------------------------------------------------------------------------*/
FoamFile
{
    version     2.0;
    format      ascii;
    arch        "LSB;label=32;scalar=64";
    class       volScalarField;
    location    "51000";
    object      p;
}
// * * * * * * * * * * * * * * * * * * * * * * * * * * * * * * * * * * * * * //

dimensions      [0 2 -2 0 0 0 0];

internalField   nonuniform List<scalar> 
2715
(
3.26167e-07
2.75592e-07
2.54727e-07
2.37154e-07
2.19568e-07
2.01804e-07
1.82001e-07
1.60811e-07
1.36108e-07
1.0949e-07
7.85376e-08
4.61063e-08
9.22236e-09
-2.78081e-08
-6.87292e-08
-1.07688e-07
-1.49777e-07
-1.87481e-07
-2.27658e-07
-2.61126e-07
-2.96561e-07
-3.23424e-07
-3.52098e-07
-3.70263e-07
-3.91776e-07
-3.99575e-07
-4.17578e-07
-4.11968e-07
-4.35164e-07
-5.15812e-07
3.12285e-07
2.5715e-07
2.43285e-07
2.28279e-07
2.11365e-07
1.9401e-07
1.74516e-07
1.53471e-07
1.28964e-07
1.02701e-07
7.23803e-08
4.08055e-08
5.09858e-09
-3.06047e-08
-6.99921e-08
-1.07479e-07
-1.47771e-07
-1.84031e-07
-2.22431e-07
-2.55015e-07
-2.89535e-07
-3.15761e-07
-3.45178e-07
-3.62854e-07
-3.86377e-07
-3.9386e-07
-4.11668e-07
-4.14255e-07
-4.14446e-07
-5.55567e-07
3.00104e-07
2.5469e-07
2.41875e-07
2.27337e-07
2.09928e-07
1.91586e-07
1.71573e-07
1.50185e-07
1.2563e-07
9.9234e-08
6.91513e-08
3.76705e-08
2.52478e-09
-3.28233e-08
-7.13278e-08
-1.08218e-07
-1.47589e-07
-1.8348e-07
-2.21498e-07
-2.53574e-07
-2.87894e-07
-3.14164e-07
-3.42846e-07
-3.62104e-07
-3.83871e-07
-3.96982e-07
-4.10352e-07
-4.28116e-07
-4.03897e-07
-5.05256e-07
2.89938e-07
2.50599e-07
2.35711e-07
2.21682e-07
2.04983e-07
1.87229e-07
1.67413e-07
1.45854e-07
1.21359e-07
9.47983e-08
6.50476e-08
3.35756e-08
-8.13409e-10
-3.59641e-08
-7.32761e-08
-1.09964e-07
-1.47877e-07
-1.8371e-07
-2.1979e-07
-2.52533e-07
-2.84695e-07
-3.13119e-07
-3.39587e-07
-3.62593e-07
-3.813e-07
-4.01255e-07
-4.06444e-07
-4.36413e-07
-4.03622e-07
-4.74335e-07
2.80127e-07
2.48021e-07
2.32255e-07
2.19346e-07
2.03205e-07
1.84678e-07
1.64348e-07
1.42216e-07
1.17681e-07
9.07019e-08
6.12048e-08
2.94431e-08
-4.24364e-09
-3.95245e-08
-7.56494e-08
-1.12447e-07
-1.48757e-07
-1.8491e-07
-2.19137e-07
-2.53008e-07
-2.83215e-07
-3.13725e-07
-3.37682e-07
-3.64774e-07
-3.79372e-07
-4.05249e-07
-4.05156e-07
-4.3659e-07
-4.13707e-07
-4.489e-07
2.71543e-07
2.46306e-07
2.29691e-07
2.16331e-07
2.00464e-07
1.81835e-07
1.61321e-07
1.38696e-07
1.14043e-07
8.66137e-08
5.72518e-08
2.5139e-08
-8.00032e-09
-4.34861e-08
-7.85777e-08
-1.1554e-07
-1.50367e-07
-1.86911e-07
-2.19381e-07
-2.54171e-07
-2.82397e-07
-3.14599e-07
-3.3659e-07
-3.6616e-07
-3.7943e-07
-4.06697e-07
-4.08496e-07
-4.33931e-07
-4.28277e-07
-4.42984e-07
2.64518e-07
2.44806e-07
2.28052e-07
2.13866e-07
1.98124e-07
1.79419e-07
1.58653e-07
1.35452e-07
1.10502e-07
8.25784e-08
5.31597e-08
2.07095e-08
-1.21308e-08
-4.77279e-08
-8.21105e-08
-1.19012e-07
-1.52801e-07
-1.89292e-07
-2.20634e-07
-2.55523e-07
-2.82891e-07
-3.15381e-07
-3.37384e-07
-3.66895e-07
-3.82123e-07
-4.07339e-07
-4.15703e-07
-4.34094e-07
-4.39363e-07
-4.47884e-07
2.59268e-07
2.43404e-07
2.2715e-07
2.12008e-07
1.96022e-07
1.77166e-07
1.56075e-07
1.32318e-07
1.06893e-07
7.85101e-08
4.8818e-08
1.61398e-08
-1.66962e-08
-5.22013e-08
-8.62737e-08
-1.22759e-07
-1.56066e-07
-1.91918e-07
-2.22909e-07
-2.57017e-07
-2.84645e-07
-3.16169e-07
-3.39658e-07
-3.67537e-07
-3.86252e-07
-4.08698e-07
-4.22647e-07
-4.37686e-07
-4.47854e-07
-4.56335e-07
2.55877e-07
2.42108e-07
2.26503e-07
2.10715e-07
1.94166e-07
1.75001e-07
1.53487e-07
1.2921e-07
1.03166e-07
7.43544e-08
4.42016e-08
1.13913e-08
-2.16834e-08
-5.69271e-08
-9.1005e-08
-1.26805e-07
-1.60042e-07
-1.94856e-07
-2.25998e-07
-2.58826e-07
-2.87219e-07
-3.17302e-07
-3.42494e-07
-3.6882e-07
-3.90299e-07
-4.11516e-07
-4.28644e-07
-4.43724e-07
-4.55895e-07
-4.65972e-07
2.5411e-07
2.40978e-07
2.25932e-07
2.09791e-07
1.92519e-07
1.72858e-07
1.50797e-07
1.26011e-07
9.92655e-08
7.00225e-08
3.92943e-08
6.38175e-09
-2.70549e-08
-6.19775e-08
-9.61989e-08
-1.31232e-07
-1.64524e-07
-1.98222e-07
-2.29563e-07
-2.61119e-07
-2.90099e-07
-3.19007e-07
-3.45322e-07
-3.70911e-07
-3.93952e-07
-4.15268e-07
-4.34013e-07
-4.50239e-07
-4.64017e-07
-4.75927e-07
2.53499e-07
2.4016e-07
2.25331e-07
2.08949e-07
1.90948e-07
1.70652e-07
1.47925e-07
1.22597e-07
9.51237e-08
6.54146e-08
3.40754e-08
1.02022e-09
-3.27856e-08
-6.74343e-08
-1.0177e-07
-1.36115e-07
-1.69357e-07
-2.02088e-07
-2.33388e-07
-2.63944e-07
-2.93076e-07
-3.21254e-07
-3.48043e-07
-3.73472e-07
-3.97335e-07
-4.19248e-07
-4.392e-07
-4.56781e-07
-4.72263e-07
-4.85989e-07
2.53466e-07
2.39697e-07
2.24709e-07
2.07991e-07
1.8928e-07
1.6827e-07
1.44797e-07
1.18861e-07
9.06609e-08
6.04327e-08
2.84946e-08
-4.77657e-09
-3.88999e-08
-7.33675e-08
-1.07713e-07
-1.41502e-07
-1.74514e-07
-2.06464e-07
-2.37453e-07
-2.67241e-07
-2.96168e-07
-3.23866e-07
-3.50746e-07
-3.76219e-07
-4.00623e-07
-4.23239e-07
-4.44297e-07
-4.63235e-07
-4.80406e-07
-4.96025e-07
2.53608e-07
2.39445e-07
2.24022e-07
2.06791e-07
1.87356e-07
1.65591e-07
1.41332e-07
1.14713e-07
8.57829e-08
5.49791e-08
2.24629e-08
-1.10948e-08
-4.54805e-08
-7.98479e-08
-1.14104e-07
-1.47438e-07
-1.80079e-07
-2.11355e-07
-2.41849e-07
-2.70961e-07
-2.99484e-07
-3.26748e-07
-3.53545e-07
-3.79045e-07
-4.03896e-07
-4.27142e-07
-4.49303e-07
-4.69479e-07
-4.88379e-07
-5.05743e-07
2.53677e-07
2.39196e-07
2.23187e-07
2.05283e-07
1.85083e-07
1.62527e-07
1.3745e-07
1.1007e-07
8.0385e-08
4.89447e-08
1.58586e-08
-1.80445e-08
-5.26556e-08
-8.69777e-08
-1.21077e-07
-1.54004e-07
-1.86178e-07
-2.16813e-07
-2.46694e-07
-2.75133e-07
-3.03115e-07
-3.29909e-07
-3.56485e-07
-3.81947e-07
-4.07129e-07
-4.30937e-07
-4.54112e-07
-4.75489e-07
-4.96043e-07
-5.1514e-07
2.53577e-07
2.38754e-07
2.22115e-07
2.03449e-07
1.82427e-07
1.59018e-07
1.33066e-07
1.04836e-07
7.43439e-08
4.21981e-08
8.52749e-09
-2.57706e-08
-6.05925e-08
-9.48997e-08
-1.28799e-07
-1.61325e-07
-1.92963e-07
-2.22937e-07
-2.52109e-07
-2.7982e-07
-3.07139e-07
-3.33373e-07
-3.59585e-07
-3.84902e-07
-4.10269e-07
-4.34549e-07
-4.58619e-07
-4.81157e-07
-5.03302e-07
-5.24106e-07
2.53363e-07
2.3808e-07
2.2079e-07
2.01312e-07
1.79388e-07
1.55017e-07
1.28085e-07
9.88921e-08
6.75092e-08
3.45754e-08
2.82385e-10
-3.44576e-08
-6.94892e-08
-1.03793e-07
-1.37453e-07
-1.69556e-07
-2.00589e-07
-2.29843e-07
-2.58206e-07
-2.85093e-07
-3.11614e-07
-3.37156e-07
-3.62833e-07
-3.87859e-07
-4.13219e-07
-4.37853e-07
-4.62653e-07
-4.86308e-07
-5.09953e-07
-5.32489e-07
2.53217e-07
2.37257e-07
2.19259e-07
1.989e-07
1.75947e-07
1.50449e-07
1.2238e-07
9.20745e-08
5.96881e-08
2.58701e-08
-9.09962e-09
-4.43246e-08
-7.95662e-08
-1.1386e-07
-1.47234e-07
-1.78861e-07
-2.09203e-07
-2.37647e-07
-2.65085e-07
-2.91016e-07
-3.16587e-07
-3.4126e-07
-3.66209e-07
-3.90735e-07
-4.15869e-07
-4.40668e-07
-4.65989e-07
-4.90675e-07
-5.15677e-07
-5.40021e-07
2.53392e-07
2.36454e-07
2.17571e-07
1.96169e-07
1.71993e-07
1.45152e-07
1.15743e-07
8.41501e-08
5.06274e-08
1.58234e-08
-1.98812e-08
-5.56225e-08
-9.10625e-08
-1.25316e-07
-1.58334e-07
-1.89409e-07
-2.18951e-07
-2.46469e-07
-2.72841e-07
-2.97659e-07
-3.22106e-07
-3.45693e-07
-3.69704e-07
-3.93449e-07
-4.18123e-07
-4.42778e-07
-4.68412e-07
-4.93881e-07
-5.20118e-07
-5.4615e-07
2.54011e-07
2.35784e-07
2.15682e-07
1.92929e-07
1.67256e-07
1.38825e-07
1.0786e-07
7.47991e-08
4.00011e-08
4.1154e-09
-3.23738e-08
-6.86419e-08
-1.04249e-07
-1.38407e-07
-1.70978e-07
-2.014e-07
-2.30008e-07
-2.5647e-07
-2.81605e-07
-3.05142e-07
-3.28252e-07
-3.50525e-07
-3.73333e-07
-3.95986e-07
-4.19897e-07
-4.4402e-07
-4.69668e-07
-4.95523e-07
-5.22763e-07
-5.50157e-07
2.54855e-07
2.35079e-07
2.13271e-07
1.88746e-07
1.61268e-07
1.31007e-07
9.82811e-08
6.35814e-08
2.7376e-08
-9.67123e-09
-4.69787e-08
-8.37578e-08
-1.19482e-07
-1.53459e-07
-1.85476e-07
-2.15123e-07
-2.42645e-07
-2.67902e-07
-2.91598e-07
-3.13668e-07
-3.35176e-07
-3.55891e-07
-3.77156e-07
-3.98379e-07
-4.21121e-07
-4.44256e-07
-4.69489e-07
-4.95143e-07
-5.22989e-07
-5.51056e-07
2.55143e-07
2.33538e-07
2.09688e-07
1.83044e-07
1.5345e-07
1.21106e-07
8.64073e-08
4.99019e-08
1.21649e-08
-2.61084e-08
-6.42496e-08
-1.01497e-07
-1.37262e-07
-1.70943e-07
-2.02277e-07
-2.30998e-07
-2.57273e-07
-2.81143e-07
-3.03177e-07
-3.23546e-07
-3.43132e-07
-3.61993e-07
-3.81283e-07
-4.00701e-07
-4.21715e-07
-4.43369e-07
-4.67536e-07
-4.92292e-07
-5.20052e-07
-5.47716e-07
2.54461e-07
2.30733e-07
2.04489e-07
1.75337e-07
1.43239e-07
1.08475e-07
7.15278e-08
3.30136e-08
-6.39416e-09
-4.59534e-08
-8.49261e-08
-1.22566e-07
-1.58254e-07
-1.91472e-07
-2.2195e-07
-2.49549e-07
-2.74398e-07
-2.96676e-07
-3.16825e-07
-3.35208e-07
-3.52517e-07
-3.6913e-07
-3.85938e-07
-4.03068e-07
-4.21656e-07
-4.41235e-07
-4.63409e-07
-4.86537e-07
-5.13125e-07
-5.392e-07
2.52525e-07
2.26156e-07
1.97035e-07
1.64867e-07
1.29766e-07
9.21476e-08
5.26092e-08
1.18542e-08
-2.93572e-08
-7.02297e-08
-1.09977e-07
-1.4786e-07
-1.83271e-07
-2.15767e-07
-2.45131e-07
-2.7134e-07
-2.94553e-07
-3.15028e-07
-3.33121e-07
-3.49241e-07
-3.63942e-07
-3.77817e-07
-3.91593e-07
-4.05772e-07
-4.21134e-07
-4.37785e-07
-4.56818e-07
-4.77349e-07
-5.01339e-07
-5.24772e-07
2.48904e-07
2.1914e-07
1.86306e-07
1.5036e-07
1.11621e-07
7.06533e-08
2.81685e-08
-1.50375e-08
-5.81297e-08
-1.00265e-07
-1.40631e-07
-1.78502e-07
-2.13309e-07
-2.44697e-07
-2.72557e-07
-2.96994e-07
-3.18271e-07
-3.36709e-07
-3.52623e-07
-3.6632e-07
-3.78192e-07
-3.88846e-07
-3.99022e-07
-4.09443e-07
-4.20689e-07
-4.33236e-07
-4.4781e-07
-4.64355e-07
-4.84063e-07
-5.03955e-07
2.41751e-07
2.07789e-07
1.70271e-07
1.29671e-07
8.66042e-08
4.1771e-08
-3.99044e-09
-4.97884e-08
-9.47334e-08
-1.37954e-07
-1.78635e-07
-2.16079e-07
-2.49784e-07
-2.79502e-07
-3.05263e-07
-3.27338e-07
-3.46157e-07
-3.62154e-07
-3.7567e-07
-3.86875e-07
-3.9589e-07
-4.03065e-07
-4.09168e-07
-4.15049e-07
-4.21324e-07
-4.28505e-07
-4.3728e-07
-4.48112e-07
-4.61875e-07
-4.77066e-07
2.27076e-07
1.87353e-07
1.4431e-07
9.82849e-08
5.01807e-08
1.10291e-09
-4.79711e-08
-9.6153e-08
-1.42566e-07
-1.8634e-07
-2.26679e-07
-2.62956e-07
-2.94783e-07
-3.22045e-07
-3.44906e-07
-3.63782e-07
-3.79273e-07
-3.92006e-07
-4.02467e-07
-4.10856e-07
-4.17104e-07
-4.21032e-07
-4.23049e-07
-4.23936e-07
-4.24636e-07
-4.25852e-07
-4.28018e-07
-4.31711e-07
-4.3835e-07
-4.47508e-07
2.10215e-07
1.63822e-07
1.11488e-07
5.67307e-08
1.67868e-09
-5.26389e-08
-1.0556e-07
-1.56366e-07
-2.04204e-07
-2.48196e-07
-2.87599e-07
-3.21938e-07
-3.51064e-07
-3.75126e-07
-3.94473e-07
-4.09522e-07
-4.20801e-07
-4.28917e-07
-4.34547e-07
-4.38417e-07
-4.41152e-07
-4.42594e-07
-4.41679e-07
-4.37855e-07
-4.32493e-07
-4.28231e-07
-4.24977e-07
-4.21563e-07
-4.21605e-07
-4.27005e-07
1.48891e-07
9.26405e-08
3.50608e-08
-2.39987e-08
-8.34757e-08
-1.41785e-07
-1.97453e-07
-2.49282e-07
-2.96291e-07
-3.37696e-07
-3.72997e-07
-4.02117e-07
-4.25476e-07
-4.43937e-07
-4.58421e-07
-4.69202e-07
-4.76148e-07
-4.78826e-07
-4.76934e-07
-4.71401e-07
-4.6567e-07
-4.63848e-07
-4.63271e-07
-4.57252e-07
-4.45424e-07
-4.35264e-07
-4.30751e-07
-4.29107e-07
-4.27647e-07
-4.26713e-07
1.18846e-07
4.99326e-08
-2.44573e-08
-9.75365e-08
-1.66183e-07
-2.29768e-07
-2.88121e-07
-3.40643e-07
-3.86384e-07
-4.24455e-07
-4.54366e-07
-4.76295e-07
-4.91198e-07
-5.00918e-07
-5.08029e-07
-5.15589e-07
-5.24722e-07
-5.30864e-07
-5.26679e-07
-5.09659e-07
-4.86046e-07
-4.6814e-07
-4.61853e-07
-4.62346e-07
-4.60931e-07
-4.55796e-07
-4.49209e-07
-4.43889e-07
-4.4125e-07
-4.41181e-07
-1.20216e-07
-1.96504e-07
-2.7321e-07
-3.48399e-07
-4.17612e-07
-4.77539e-07
-5.26515e-07
-5.63781e-07
-5.88963e-07
-6.02068e-07
-6.03743e-07
-5.95534e-07
-5.79947e-07
-5.60638e-07
-5.4206e-07
-5.28855e-07
-5.23363e-07
-5.24984e-07
-5.28503e-07
-5.27576e-07
-5.20526e-07
-5.09518e-07
-4.95969e-07
-4.81845e-07
-4.69686e-07
-4.61362e-07
-4.56253e-07
-4.53444e-07
-4.52563e-07
-4.53124e-07
2.67101e-07
2.67853e-07
2.69313e-07
2.71369e-07
2.73543e-07
2.7522e-07
2.76276e-07
2.76718e-07
2.75975e-07
2.72194e-07
2.63328e-07
2.48033e-07
2.04291e-07
1.73586e-07
-3.96148e-08
-1.97096e-07
-2.7384e-07
-3.49072e-07
-4.18326e-07
-4.78296e-07
-5.27315e-07
-5.64622e-07
-5.89842e-07
-6.02984e-07
-6.0469e-07
-5.96506e-07
-5.80935e-07
-5.61631e-07
-5.43046e-07
-5.29823e-07
-5.2431e-07
-5.25916e-07
-5.29437e-07
-5.28529e-07
-5.21486e-07
-5.10478e-07
-4.96917e-07
-4.82761e-07
-4.70618e-07
-4.62298e-07
-4.57191e-07
-4.54379e-07
-4.53491e-07
-4.54043e-07
4.94521e-08
-2.49736e-08
-9.80904e-08
-1.66775e-07
-2.30397e-07
-2.88788e-07
-3.41348e-07
-3.87127e-07
-4.25235e-07
-4.55179e-07
-4.77139e-07
-4.92068e-07
-5.01807e-07
-5.08928e-07
-5.16491e-07
-5.25632e-07
-5.31799e-07
-5.27653e-07
-5.10667e-07
-4.87055e-07
-4.6911e-07
-4.62792e-07
-4.63308e-07
-4.61883e-07
-4.56746e-07
-4.50161e-07
-4.44832e-07
-4.42182e-07
-4.42104e-07
9.21876e-08
3.45767e-08
-2.45148e-08
-8.40249e-08
-1.42368e-07
-1.9807e-07
-2.49935e-07
-2.96978e-07
-3.38416e-07
-3.73749e-07
-4.02897e-07
-4.26281e-07
-4.44764e-07
-4.59267e-07
-4.70067e-07
-4.77032e-07
-4.79729e-07
-4.77855e-07
-4.72333e-07
-4.66599e-07
-4.64771e-07
-4.64211e-07
-4.58222e-07
-4.46402e-07
-4.36225e-07
-4.31705e-07
-4.30078e-07
-4.28638e-07
-4.27701e-07
1.63413e-07
1.1105e-07
5.62622e-08
1.17882e-09
-5.31702e-08
-1.06123e-07
-1.56961e-07
-2.04831e-07
-2.48855e-07
-2.88289e-07
-3.22657e-07
-3.5181e-07
-3.75897e-07
-3.95266e-07
-4.10336e-07
-4.21634e-07
-4.29766e-07
-4.3541e-07
-4.39292e-07
-4.42041e-07
-4.435e-07
-4.42605e-07
-4.38802e-07
-4.33455e-07
-4.29208e-07
-4.25982e-07
-4.22595e-07
-4.22639e-07
-4.28036e-07
1.86967e-07
1.43898e-07
9.78456e-08
4.97128e-08
6.05905e-10
-4.84977e-08
-9.67096e-08
-1.43153e-07
-1.86956e-07
-2.27326e-07
-2.63631e-07
-2.95485e-07
-3.22771e-07
-3.45655e-07
-3.64552e-07
-3.80061e-07
-3.92811e-07
-4.03287e-07
-4.11694e-07
-4.1796e-07
-4.21909e-07
-4.23947e-07
-4.24854e-07
-4.25578e-07
-4.26822e-07
-4.29018e-07
-4.32736e-07
-4.39393e-07
-4.48554e-07
2.07426e-07
1.69884e-07
1.29257e-07
8.61638e-08
4.13033e-08
-4.48601e-09
-5.03124e-08
-9.52863e-08
-1.38536e-07
-1.79245e-07
-2.16716e-07
-2.50448e-07
-2.8019e-07
-3.05974e-07
-3.28069e-07
-3.46907e-07
-3.62922e-07
-3.76455e-07
-3.87678e-07
-3.96711e-07
-4.03905e-07
-4.10028e-07
-4.15929e-07
-4.22227e-07
-4.29431e-07
-4.38228e-07
-4.49077e-07
-4.62853e-07
-4.78041e-07
2.18795e-07
1.85938e-07
1.49967e-07
1.11203e-07
7.02092e-08
2.7698e-08
-1.5535e-08
-5.86547e-08
-1.00817e-07
-1.41211e-07
-1.79108e-07
-2.13941e-07
-2.45353e-07
-2.73235e-07
-2.97692e-07
-3.18988e-07
-3.37444e-07
-3.53374e-07
-3.67088e-07
-3.78977e-07
-3.89647e-07
-3.99838e-07
-4.10274e-07
-4.21536e-07
-4.34095e-07
-4.48679e-07
-4.65227e-07
-4.84935e-07
-5.04814e-07
2.25827e-07
1.96684e-07
1.64492e-07
1.29367e-07
9.17237e-08
5.216e-08
1.13792e-08
-2.98586e-08
-7.07575e-08
-1.10531e-07
-1.4844e-07
-1.83875e-07
-2.16394e-07
-2.4578e-07
-2.72009e-07
-2.9524e-07
-3.15731e-07
-3.3384e-07
-3.49975e-07
-3.64689e-07
-3.78575e-07
-3.92362e-07
-4.06549e-07
-4.21917e-07
-4.38568e-07
-4.57598e-07
-4.78116e-07
-5.02089e-07
-5.25497e-07
2.30417e-07
2.04153e-07
1.74977e-07
1.42856e-07
1.08069e-07
7.1097e-08
3.2558e-08
-6.87514e-09
-4.64599e-08
-8.54578e-08
-1.23122e-07
-1.58834e-07
-1.92074e-07
-2.22573e-07
-2.50191e-07
-2.75057e-07
-2.9735e-07
-3.17514e-07
-3.35907e-07
-3.53227e-07
-3.69846e-07
-3.86659e-07
-4.03789e-07
-4.22373e-07
-4.41942e-07
-4.64099e-07
-4.872e-07
-5.13753e-07
-5.39791e-07
2.33234e-07
2.09364e-07
1.82698e-07
1.53081e-07
1.20715e-07
8.59927e-08
4.94633e-08
1.17017e-08
-2.65961e-08
-6.47618e-08
-1.02033e-07
-1.37821e-07
-1.71523e-07
-2.02877e-07
-2.31616e-07
-2.57906e-07
-2.8179e-07
-3.03835e-07
-3.24213e-07
-3.43805e-07
-3.62668e-07
-3.81956e-07
-4.01367e-07
-4.22369e-07
-4.44002e-07
-4.68139e-07
-4.92857e-07
-5.20566e-07
-5.48179e-07
2.34786e-07
2.12958e-07
1.88412e-07
1.60912e-07
1.30629e-07
9.78809e-08
6.31579e-08
2.69287e-08
-1.01424e-08
-4.74734e-08
-8.42754e-08
-1.20021e-07
-1.54019e-07
-1.86054e-07
-2.15718e-07
-2.43255e-07
-2.68523e-07
-2.92228e-07
-3.14304e-07
-3.35813e-07
-3.56527e-07
-3.77784e-07
-3.98994e-07
-4.21714e-07
-4.4482e-07
-4.70012e-07
-4.95618e-07
-5.23401e-07
-5.51405e-07
2.35501e-07
2.1538e-07
1.92606e-07
1.66912e-07
1.3846e-07
1.07473e-07
7.43892e-08
3.9568e-08
3.65917e-09
-3.28529e-08
-6.91431e-08
-1.04772e-07
-1.38948e-07
-1.71537e-07
-2.01975e-07
-2.30595e-07
-2.57068e-07
-2.82208e-07
-3.05749e-07
-3.28856e-07
-3.51123e-07
-3.73917e-07
-3.96551e-07
-4.20433e-07
-4.4452e-07
-4.70119e-07
-4.95918e-07
-5.23088e-07
-5.50409e-07
2.36181e-07
2.17279e-07
1.95856e-07
1.7166e-07
1.44798e-07
1.15367e-07
8.37523e-08
5.02072e-08
1.53806e-08
-2.0346e-08
-5.61089e-08
-9.15689e-08
-1.25841e-07
-1.58876e-07
-1.89965e-07
-2.19517e-07
-2.47044e-07
-2.7342e-07
-2.98238e-07
-3.22679e-07
-3.46256e-07
-3.70248e-07
-3.93968e-07
-4.18607e-07
-4.4322e-07
-4.68799e-07
-4.94205e-07
-5.2037e-07
-5.46324e-07
2.36993e-07
2.18975e-07
1.98596e-07
1.75623e-07
1.50105e-07
1.22016e-07
9.16879e-08
5.92796e-08
2.54395e-08
-9.55161e-09
-4.47975e-08
-8.00583e-08
-1.14371e-07
-1.47759e-07
-1.79399e-07
-2.09751e-07
-2.38201e-07
-2.6564e-07
-2.91569e-07
-3.17131e-07
-3.41789e-07
-3.66715e-07
-3.91211e-07
-4.16306e-07
-4.41057e-07
-4.6632e-07
-4.90939e-07
-5.15867e-07
-5.40131e-07
2.37823e-07
2.20515e-07
2.01018e-07
1.79073e-07
1.54682e-07
1.2773e-07
9.85157e-08
6.71113e-08
3.41559e-08
-1.57967e-10
-3.49183e-08
-6.99684e-08
-1.0429e-07
-1.37964e-07
-1.70078e-07
-2.01119e-07
-2.30378e-07
-2.5874e-07
-2.85622e-07
-3.12131e-07
-3.37655e-07
-3.63305e-07
-3.88298e-07
-4.13614e-07
-4.38196e-07
-4.62934e-07
-4.86521e-07
-5.1009e-07
-5.32549e-07
2.38505e-07
2.21848e-07
2.03162e-07
1.82121e-07
1.58692e-07
1.32719e-07
1.04469e-07
7.39557e-08
4.17888e-08
8.09773e-09
-2.62202e-08
-6.10599e-08
-9.53836e-08
-1.29296e-07
-1.61833e-07
-1.93478e-07
-2.23454e-07
-2.52623e-07
-2.80327e-07
-3.07631e-07
-3.33843e-07
-3.60025e-07
-3.85305e-07
-4.10625e-07
-4.34851e-07
-4.58858e-07
-4.81327e-07
-5.03395e-07
-5.24124e-07
2.38954e-07
2.22927e-07
2.05004e-07
1.84785e-07
1.6221e-07
1.37112e-07
1.09712e-07
8.00058e-08
4.85447e-08
1.54385e-08
-1.84838e-08
-5.31123e-08
-8.74501e-08
-1.21562e-07
-1.54499e-07
-1.86678e-07
-2.17314e-07
-2.4719e-07
-2.75619e-07
-3.03584e-07
-3.30353e-07
-3.56896e-07
-3.82319e-07
-4.07451e-07
-4.31203e-07
-4.54313e-07
-4.75622e-07
-4.96099e-07
-5.15122e-07
2.3921e-07
2.23769e-07
2.06519e-07
1.87066e-07
1.65281e-07
1.41003e-07
1.14363e-07
8.5412e-08
5.45878e-08
2.20517e-08
-1.15246e-08
-4.59274e-08
-8.03097e-08
-1.14578e-07
-1.4792e-07
-1.80565e-07
-2.11841e-07
-2.42329e-07
-2.71429e-07
-2.99932e-07
-3.27169e-07
-3.5393e-07
-3.79389e-07
-4.04188e-07
-4.27377e-07
-4.49473e-07
-4.6958e-07
-4.88405e-07
-5.05696e-07
2.39468e-07
2.24462e-07
2.07726e-07
1.88997e-07
1.67967e-07
1.44475e-07
1.18519e-07
9.02977e-08
6.00495e-08
2.80917e-08
-5.19767e-09
-3.93378e-08
-7.38195e-08
-1.08176e-07
-1.41973e-07
-1.74989e-07
-2.06937e-07
-2.37917e-07
-2.67691e-07
-2.96597e-07
-3.24266e-07
-3.51109e-07
-3.76537e-07
-4.00889e-07
-4.23447e-07
-4.44439e-07
-4.63309e-07
-4.80406e-07
-4.95953e-07
2.39938e-07
2.25091e-07
2.08691e-07
1.90671e-07
1.70356e-07
1.4761e-07
1.22262e-07
9.47678e-08
6.50389e-08
3.36802e-08
6.07252e-10
-3.32153e-08
-6.78773e-08
-1.02224e-07
-1.36575e-07
-1.6982e-07
-2.02547e-07
-2.33838e-07
-2.64378e-07
-2.93487e-07
-3.21634e-07
-3.48384e-07
-3.73768e-07
-3.97578e-07
-4.19432e-07
-4.39319e-07
-4.56832e-07
-4.72243e-07
-4.85899e-07
2.40762e-07
2.25698e-07
2.09539e-07
1.92249e-07
1.72569e-07
1.50488e-07
1.25683e-07
9.89165e-08
6.9654e-08
3.89061e-08
5.97626e-09
-2.74771e-08
-6.24122e-08
-9.66448e-08
-1.31683e-07
-1.64978e-07
-1.98669e-07
-2.30001e-07
-2.61538e-07
-2.90495e-07
-3.1937e-07
-3.45646e-07
-3.71187e-07
-3.94175e-07
-4.1543e-07
-4.34113e-07
-4.50272e-07
-4.63983e-07
-4.75824e-07
2.41897e-07
2.26275e-07
2.1047e-07
1.93903e-07
1.74718e-07
1.53185e-07
1.28888e-07
1.02824e-07
7.39924e-08
4.38199e-08
1.09926e-08
-2.20988e-08
-5.73545e-08
-9.14433e-08
-1.27248e-07
-1.60486e-07
-1.95293e-07
-2.26426e-07
-2.59233e-07
-2.87602e-07
-3.17649e-07
-3.42802e-07
-3.69077e-07
-3.90505e-07
-4.11662e-07
-4.28729e-07
-4.43743e-07
-4.5585e-07
-4.65862e-07
2.43199e-07
2.26928e-07
2.11769e-07
1.95764e-07
1.7689e-07
1.55779e-07
1.32002e-07
1.06556e-07
7.81541e-08
4.84424e-08
1.57472e-08
-1.71054e-08
-5.26222e-08
-8.67053e-08
-1.23194e-07
-1.56502e-07
-1.92346e-07
-2.23326e-07
-2.57412e-07
-2.85016e-07
-3.16501e-07
-3.39953e-07
-3.67778e-07
-3.86444e-07
-4.08827e-07
-4.2272e-07
-4.37695e-07
-4.47802e-07
-4.56222e-07
2.44606e-07
2.27835e-07
2.13633e-07
1.97873e-07
1.79149e-07
1.58363e-07
1.35142e-07
1.10171e-07
8.2228e-08
5.27896e-08
2.03222e-08
-1.25344e-08
-4.81432e-08
-8.2536e-08
-1.1944e-07
-1.5323e-07
-1.89712e-07
-2.21042e-07
-2.55907e-07
-2.83251e-07
-3.15701e-07
-3.37667e-07
-3.67123e-07
-3.82304e-07
-4.07455e-07
-4.15767e-07
-4.34093e-07
-4.39306e-07
-4.47769e-07
2.46112e-07
2.29481e-07
2.16104e-07
2.00219e-07
1.8157e-07
1.61037e-07
1.38391e-07
1.13718e-07
8.62682e-08
5.68867e-08
2.47564e-08
-8.39907e-09
-4.38969e-08
-7.8998e-08
-1.15964e-07
-1.5079e-07
-1.87324e-07
-2.19782e-07
-2.54547e-07
-2.82747e-07
-3.14909e-07
-3.3686e-07
-3.66376e-07
-3.796e-07
-4.06802e-07
-4.08553e-07
-4.33922e-07
-4.28221e-07
-4.42866e-07
2.47833e-07
2.32051e-07
2.19126e-07
2.02966e-07
1.84419e-07
1.64069e-07
1.41916e-07
1.17361e-07
9.03611e-08
6.08443e-08
2.90645e-08
-4.63824e-09
-3.99316e-08
-7.60654e-08
-1.12866e-07
-1.49174e-07
-1.85318e-07
-2.19531e-07
-2.53378e-07
-2.83556e-07
-3.14026e-07
-3.37941e-07
-3.64981e-07
-3.7953e-07
-4.05346e-07
-4.05204e-07
-4.36571e-07
-4.13646e-07
-4.48771e-07
2.50416e-07
2.35513e-07
2.21466e-07
2.04749e-07
1.86975e-07
1.6714e-07
1.4556e-07
1.21043e-07
9.44615e-08
6.4691e-08
3.32003e-08
-1.20464e-09
-3.63684e-08
-7.36888e-08
-1.1038e-07
-1.48291e-07
-1.84115e-07
-2.20178e-07
-2.52898e-07
-2.85028e-07
-3.13414e-07
-3.39837e-07
-3.62793e-07
-3.81447e-07
-4.01347e-07
-4.06481e-07
-4.36388e-07
-4.03552e-07
-4.74186e-07
2.54513e-07
2.41683e-07
2.27129e-07
2.09701e-07
1.91339e-07
1.71305e-07
1.49895e-07
1.2532e-07
9.89016e-08
6.87985e-08
3.72983e-08
2.13642e-09
-3.32253e-08
-7.17381e-08
-1.08633e-07
-1.48e-07
-1.83883e-07
-2.21881e-07
-2.53933e-07
-2.88218e-07
-3.14451e-07
-3.43085e-07
-3.62295e-07
-3.84007e-07
-3.97064e-07
-4.10377e-07
-4.28085e-07
-4.03814e-07
-5.0508e-07
2.56977e-07
2.43097e-07
2.28074e-07
2.11141e-07
1.93766e-07
1.74251e-07
1.53185e-07
1.28656e-07
1.02371e-07
7.20297e-08
4.04351e-08
4.71169e-09
-3.10055e-08
-7.04012e-08
-1.07892e-07
-1.4818e-07
-1.8443e-07
-2.22811e-07
-2.5537e-07
-2.89858e-07
-3.16043e-07
-3.45411e-07
-3.63039e-07
-3.86505e-07
-3.93935e-07
-4.11685e-07
-4.1422e-07
-4.14353e-07
-5.55375e-07
2.75429e-07
2.54548e-07
2.36958e-07
2.19354e-07
2.01569e-07
1.81745e-07
1.60532e-07
1.35807e-07
1.09166e-07
7.81913e-08
4.57389e-08
8.83747e-09
-2.82079e-08
-6.91378e-08
-1.08101e-07
-1.50186e-07
-1.87879e-07
-2.28034e-07
-2.61476e-07
-2.96872e-07
-3.23691e-07
-3.52314e-07
-3.70426e-07
-3.91881e-07
-3.99621e-07
-4.17567e-07
-4.11897e-07
-4.35038e-07
-5.15618e-07
-4.54527e-07
-4.43889e-07
-4.32942e-07
-4.41386e-07
-4.65149e-07
-4.98328e-07
-5.28368e-07
-5.51808e-07
-5.68069e-07
-5.77411e-07
-5.80636e-07
-5.79012e-07
-5.73779e-07
-5.66081e-07
-5.56858e-07
-5.46586e-07
-5.35607e-07
-5.24099e-07
-5.12147e-07
-5.00051e-07
-4.87878e-07
-4.76083e-07
-4.65067e-07
-4.55371e-07
-4.48265e-07
-4.42838e-07
-4.36016e-07
-4.12501e-07
-3.65113e-07
-3.01351e-07
-4.5664e-07
-4.4826e-07
-4.40737e-07
-4.46914e-07
-4.70574e-07
-5.04518e-07
-5.39887e-07
-5.69602e-07
-5.91448e-07
-6.05341e-07
-6.11793e-07
-6.11752e-07
-6.06949e-07
-5.9887e-07
-5.88759e-07
-5.77469e-07
-5.65277e-07
-5.52604e-07
-5.39407e-07
-5.25863e-07
-5.12276e-07
-4.98542e-07
-4.85499e-07
-4.72321e-07
-4.5926e-07
-4.44782e-07
-4.28948e-07
-4.14148e-07
-3.99721e-07
-3.87446e-07
-4.58882e-07
-4.53417e-07
-4.51302e-07
-4.6117e-07
-4.82891e-07
-5.13416e-07
-5.48301e-07
-5.81627e-07
-6.09295e-07
-6.29403e-07
-6.4177e-07
-6.4672e-07
-6.45174e-07
-6.38748e-07
-6.28744e-07
-6.16774e-07
-6.03582e-07
-5.89627e-07
-5.75474e-07
-5.60806e-07
-5.46253e-07
-5.31141e-07
-5.15898e-07
-5.00173e-07
-4.83742e-07
-4.67682e-07
-4.51431e-07
-4.37048e-07
-4.18681e-07
-3.95636e-07
-4.61125e-07
-4.58906e-07
-4.62746e-07
-4.768e-07
-4.99646e-07
-5.282e-07
-5.60862e-07
-5.94119e-07
-6.24574e-07
-6.49763e-07
-6.68102e-07
-6.7947e-07
-6.83835e-07
-6.82061e-07
-6.75132e-07
-6.64135e-07
-6.50748e-07
-6.35406e-07
-6.19488e-07
-6.02881e-07
-5.86074e-07
-5.69332e-07
-5.52078e-07
-5.35235e-07
-5.17631e-07
-5.00895e-07
-4.83238e-07
-4.65619e-07
-4.45923e-07
-4.25595e-07
-4.63048e-07
-4.64076e-07
-4.73727e-07
-4.92429e-07
-5.17676e-07
-5.47003e-07
-5.7787e-07
-6.09714e-07
-6.40363e-07
-6.67776e-07
-6.90459e-07
-7.07198e-07
-7.17798e-07
-7.21973e-07
-7.207e-07
-7.13923e-07
-7.03241e-07
-6.88983e-07
-6.72402e-07
-6.54322e-07
-6.35009e-07
-6.15616e-07
-5.95489e-07
-5.7606e-07
-5.56366e-07
-5.37389e-07
-5.18231e-07
-4.99303e-07
-4.80794e-07
-4.63564e-07
-4.64033e-07
-4.67999e-07
-4.8274e-07
-5.05839e-07
-5.34059e-07
-5.64968e-07
-5.96751e-07
-6.27862e-07
-6.58084e-07
-6.85748e-07
-7.10379e-07
-7.30283e-07
-7.45582e-07
-7.55182e-07
-7.59601e-07
-7.5857e-07
-7.52893e-07
-7.4287e-07
-7.29064e-07
-7.12413e-07
-6.93205e-07
-6.72613e-07
-6.50752e-07
-6.28584e-07
-6.06085e-07
-5.8371e-07
-5.61513e-07
-5.39969e-07
-5.19378e-07
-5.00585e-07
-4.6315e-07
-4.695e-07
-4.88453e-07
-5.15337e-07
-5.46627e-07
-5.79893e-07
-6.13349e-07
-6.45879e-07
-6.76272e-07
-7.04272e-07
-7.29491e-07
-7.51163e-07
-7.68872e-07
-7.82213e-07
-7.9096e-07
-7.9507e-07
-7.94565e-07
-7.89726e-07
-7.80792e-07
-7.68249e-07
-7.52425e-07
-7.33978e-07
-7.13316e-07
-6.91088e-07
-6.67634e-07
-6.43557e-07
-6.19092e-07
-5.94905e-07
-5.71178e-07
-5.49e-07
-4.59329e-07
-4.67508e-07
-4.8978e-07
-5.19722e-07
-5.53853e-07
-5.89615e-07
-6.25225e-07
-6.59709e-07
-6.91679e-07
-7.21277e-07
-7.47102e-07
-7.70205e-07
-7.89311e-07
-8.04984e-07
-8.16491e-07
-8.24159e-07
-8.27673e-07
-8.27309e-07
-8.23031e-07
-8.15186e-07
-8.03885e-07
-7.89566e-07
-7.72421e-07
-7.52997e-07
-7.3155e-07
-7.08683e-07
-6.84702e-07
-6.60203e-07
-6.35722e-07
-6.12111e-07
-4.5169e-07
-4.61459e-07
-4.86123e-07
-5.18407e-07
-5.54927e-07
-5.92971e-07
-6.30813e-07
-6.67318e-07
-7.01289e-07
-7.3287e-07
-7.60536e-07
-7.85369e-07
-8.05876e-07
-8.23338e-07
-8.36816e-07
-8.46907e-07
-8.53187e-07
-8.56053e-07
-8.55306e-07
-8.51287e-07
-8.43971e-07
-8.33675e-07
-8.20524e-07
-8.048e-07
-7.86829e-07
-7.66852e-07
-7.45452e-07
-7.22816e-07
-6.99906e-07
-6.76943e-07
-4.39927e-07
-4.51275e-07
-4.77499e-07
-5.11498e-07
-5.49847e-07
-5.89772e-07
-6.29516e-07
-6.67829e-07
-7.03761e-07
-7.37053e-07
-7.6667e-07
-7.93272e-07
-8.15812e-07
-8.35079e-07
-8.50388e-07
-8.62414e-07
-8.70832e-07
-8.7594e-07
-8.77766e-07
-8.76355e-07
-8.72073e-07
-8.64748e-07
-8.54929e-07
-8.42301e-07
-8.2764e-07
-8.10565e-07
-7.92054e-07
-7.71687e-07
-7.50655e-07
-7.28556e-07
-4.24737e-07
-4.37473e-07
-4.64713e-07
-4.99835e-07
-5.39404e-07
-5.8065e-07
-6.21786e-07
-6.61527e-07
-6.99007e-07
-7.33683e-07
-7.65061e-07
-7.93057e-07
-8.17367e-07
-8.38196e-07
-8.55115e-07
-8.68827e-07
-8.78998e-07
-8.85864e-07
-8.89638e-07
-8.9e-07
-8.87857e-07
-8.82476e-07
-8.7502e-07
-8.64457e-07
-8.52225e-07
-8.37206e-07
-8.20919e-07
-8.02251e-07
-7.82799e-07
-7.61452e-07
-4.07755e-07
-4.2153e-07
-4.49411e-07
-4.85125e-07
-5.25322e-07
-5.67281e-07
-6.09219e-07
-6.49844e-07
-6.88287e-07
-7.23947e-07
-7.56424e-07
-7.85491e-07
-8.10994e-07
-8.32906e-07
-8.5119e-07
-8.65996e-07
-8.77369e-07
-8.85444e-07
-8.90334e-07
-8.92135e-07
-8.9136e-07
-8.87204e-07
-8.81139e-07
-8.7173e-07
-8.60915e-07
-8.4701e-07
-8.32104e-07
-8.14347e-07
-7.96218e-07
-7.7512e-07
-3.91397e-07
-4.05793e-07
-4.34e-07
-4.69877e-07
-5.10202e-07
-5.52335e-07
-5.94522e-07
-6.35477e-07
-6.74324e-07
-7.1045e-07
-7.43452e-07
-7.73076e-07
-7.99178e-07
-8.21702e-07
-8.40659e-07
-8.56116e-07
-8.68153e-07
-8.76877e-07
-8.82401e-07
-8.84844e-07
-8.84362e-07
-8.81034e-07
-8.75162e-07
-8.6679e-07
-8.56277e-07
-8.43413e-07
-8.28718e-07
-8.11376e-07
-7.94607e-07
-7.71616e-07
-3.78381e-07
-3.93078e-07
-4.21349e-07
-4.57105e-07
-4.97243e-07
-5.39201e-07
-5.81262e-07
-6.22151e-07
-6.60991e-07
-6.97163e-07
-7.30257e-07
-7.60007e-07
-7.86265e-07
-8.08966e-07
-8.28111e-07
-8.43752e-07
-8.55968e-07
-8.64861e-07
-8.70543e-07
-8.73137e-07
-8.72774e-07
-8.6959e-07
-8.63734e-07
-8.55329e-07
-8.44548e-07
-8.31503e-07
-8.16374e-07
-7.99298e-07
-7.80562e-07
-7.60428e-07
-3.71169e-07
-3.8596e-07
-4.14165e-07
-4.49723e-07
-4.89597e-07
-5.31277e-07
-5.73075e-07
-6.13726e-07
-6.52355e-07
-6.8834e-07
-7.21267e-07
-7.50866e-07
-7.76985e-07
-7.99555e-07
-8.18571e-07
-8.34076e-07
-8.46145e-07
-8.54873e-07
-8.60373e-07
-8.62776e-07
-8.62224e-07
-8.58869e-07
-8.52861e-07
-8.44345e-07
-8.33459e-07
-8.20323e-07
-8.05071e-07
-7.87895e-07
-7.69101e-07
-7.4904e-07
-3.71266e-07
-3.86061e-07
-4.14271e-07
-4.49835e-07
-4.89708e-07
-5.31385e-07
-5.73176e-07
-6.13818e-07
-6.52436e-07
-6.88407e-07
-7.21318e-07
-7.509e-07
-7.77e-07
-7.99548e-07
-8.18542e-07
-8.34024e-07
-8.46067e-07
-8.5477e-07
-8.60243e-07
-8.62618e-07
-8.62039e-07
-8.58655e-07
-8.52618e-07
-8.44073e-07
-8.33157e-07
-8.19994e-07
-8.0472e-07
-7.87527e-07
-7.68714e-07
-7.48629e-07
-3.78663e-07
-3.93368e-07
-4.21652e-07
-4.57419e-07
-4.97558e-07
-5.39508e-07
-5.81553e-07
-6.22417e-07
-6.61226e-07
-6.97359e-07
-7.30409e-07
-7.6011e-07
-7.86315e-07
-8.08958e-07
-8.28043e-07
-8.43619e-07
-8.55769e-07
-8.64594e-07
-8.70206e-07
-8.72728e-07
-8.72292e-07
-8.69035e-07
-8.63104e-07
-8.54626e-07
-8.43773e-07
-8.30661e-07
-8.15476e-07
-7.9835e-07
-7.79566e-07
-7.59388e-07
-3.91842e-07
-4.06248e-07
-4.34474e-07