/*--------------------------------*- C++ -*----------------------------------*\
| =========                 |                                                 |
| \\      /  F ield         | OpenFOAM: The Open Source CFD Toolbox           |
|  \\    /   O peration     | Version:  2312                                  |
|   \\  /    A nd           | Website:  www.openfoam.com                      |
|    \\/     M anipulation  |                                                 |
\*---------------------------------------------------------------------------*/
FoamFile
{
    version     2.0;
    format      ascii;
    arch        "LSB;label=32;scalar=64";
    class       volVectorField;
    location    "131000";
    object      U;
}
// * * * * * * * * * * * * * * * * * * * * * * * * * * * * * * * * * * * * * //

dimensions      [0 1 -1 0 0 0 0];

internalField   nonuniform List<vector> 
10800
(
(0.000992484 4.94173e-06 0)
(0.000990039 1.24573e-05 0)
(0.000986873 1.74786e-05 0)
(0.000980501 2.06623e-05 0)
(0.000971089 2.27456e-05 0)
(0.0009598 2.42395e-05 0)
(0.000947699 2.53789e-05 0)
(0.000935323 2.62387e-05 0)
(0.000922813 2.68432e-05 0)
(0.000910147 2.72174e-05 0)
(0.000897281 2.7399e-05 0)
(0.00088421 2.7431e-05 0)
(0.000870972 2.73512e-05 0)
(0.00085762 2.71878e-05 0)
(0.000844207 2.6959e-05 0)
(0.000830771 2.66763e-05 0)
(0.000817337 2.63478e-05 0)
(0.000803923 2.598e-05 0)
(0.000790545 2.55783e-05 0)
(0.000777218 2.51478e-05 0)
(0.000763957 2.46919e-05 0)
(0.000750777 2.4214e-05 0)
(0.000737693 2.37159e-05 0)
(0.000724718 2.31995e-05 0)
(0.000711865 2.26659e-05 0)
(0.000699147 2.21163e-05 0)
(0.000686577 2.15509e-05 0)
(0.000674168 2.09711e-05 0)
(0.000661931 2.03764e-05 0)
(0.00064988 1.97685e-05 0)
(0.000638027 1.91459e-05 0)
(0.000626384 1.85113e-05 0)
(0.000614966 1.78621e-05 0)
(0.000603781 1.72022e-05 0)
(0.000592848 1.65273e-05 0)
(0.000582173 1.5844e-05 0)
(0.000571775 1.51448e-05 0)
(0.000561659 1.44404e-05 0)
(0.000551849 1.37183e-05 0)
(0.00054234 1.29963e-05 0)
(0.000533169 1.22527e-05 0)
(0.000524313 1.15175e-05 0)
(0.000515835 1.07535e-05 0)
(0.000507669 1.0011e-05 0)
(0.000499947 9.22599e-06 0)
(0.000492495 8.48335e-06 0)
(0.000485613 7.67339e-06 0)
(0.000478855 6.93762e-06 0)
(0.00047297 6.09372e-06 0)
(0.000466768 5.36355e-06 0)
(0.000462256 4.47634e-06 0)
(0.000456111 3.70557e-06 0)
(0.000454017 2.81094e-06 0)
(0.000446307 1.75375e-06 0)
(0.000449742 1.17185e-06 0)
(0.000435423 -1.23025e-06 0)
(0.000453655 1.13157e-07 0)
(0.000417833 -7.70485e-06 0)
(0.000475924 2.01491e-06 0)
(0.0003814 -2.45319e-05 0)
(0.00100003 5.80161e-06 0)
(0.00100172 1.49912e-05 0)
(0.00100423 2.15214e-05 0)
(0.00100706 2.60843e-05 0)
(0.00100979 2.94426e-05 0)
(0.00101219 3.21247e-05 0)
(0.00101421 3.4378e-05 0)
(0.00101589 3.62891e-05 0)
(0.00101726 3.78907e-05 0)
(0.00101837 3.92132e-05 0)
(0.00101922 4.02981e-05 0)
(0.00101981 4.11912e-05 0)
(0.00102013 4.19329e-05 0)
(0.00102018 4.25535e-05 0)
(0.00101998 4.30727e-05 0)
(0.00101955 4.35034e-05 0)
(0.00101889 4.3854e-05 0)
(0.00101801 4.41314e-05 0)
(0.00101693 4.43411e-05 0)
(0.00101566 4.44877e-05 0)
(0.00101421 4.45748e-05 0)
(0.00101258 4.46051e-05 0)
(0.0010108 4.45806e-05 0)
(0.00100885 4.45021e-05 0)
(0.00100677 4.4371e-05 0)
(0.00100454 4.41869e-05 0)
(0.0010022 4.3951e-05 0)
(0.000999727 4.36619e-05 0)
(0.000997174 4.33213e-05 0)
(0.000994483 4.29262e-05 0)
(0.000991755 4.24801e-05 0)
(0.000988882 4.19772e-05 0)
(0.000986026 4.14245e-05 0)
(0.000982999 4.08113e-05 0)
(0.000980068 4.01514e-05 0)
(0.000976909 3.94251e-05 0)
(0.000973966 3.86584e-05 0)
(0.000970687 3.78154e-05 0)
(0.000967814 3.69445e-05 0)
(0.000964405 3.59799e-05 0)
(0.000961715 3.50106e-05 0)
(0.000958131 3.39163e-05 0)
(0.000955788 3.28599e-05 0)
(0.000951919 3.1622e-05 0)
(0.000950176 3.04985e-05 0)
(0.0009458 2.90911e-05 0)
(0.000945058 2.79352e-05 0)
(0.000939755 2.63106e-05 0)
(0.000940679 2.51814e-05 0)
(0.000933679 2.32524e-05 0)
(0.00093738 2.22505e-05 0)
(0.000927304 1.98613e-05 0)
(0.000935663 1.91538e-05 0)
(0.000920062 1.60382e-05 0)
(0.000936266 1.58883e-05 0)
(0.000910841 1.163e-05 0)
(0.000940318 1.23766e-05 0)
(0.000897591 6.49517e-06 0)
(0.000949721 8.1688e-06 0)
(0.000877147 1.0483e-06 0)
(0.000999989 1.96186e-06 0)
(0.00100078 5.76257e-06 0)
(0.00100224 9.28747e-06 0)
(0.00100423 1.24527e-05 0)
(0.00100654 1.52555e-05 0)
(0.00100897 1.77411e-05 0)
(0.00101139 1.99641e-05 0)
(0.00101376 2.19675e-05 0)
(0.00101607 2.37786e-05 0)
(0.00101833 2.54141e-05 0)
(0.00102055 2.68871e-05 0)
(0.00102272 2.8211e-05 0)
(0.00102483 2.94002e-05 0)
(0.00102688 3.04685e-05 0)
(0.00102886 3.14283e-05 0)
(0.00103077 3.22893e-05 0)
(0.00103262 3.30597e-05 0)
(0.0010344 3.37451e-05 0)
(0.00103612 3.43511e-05 0)
(0.00103777 3.48808e-05 0)
(0.00103937 3.53388e-05 0)
(0.00104091 3.57263e-05 0)
(0.0010424 3.60475e-05 0)
(0.00104382 3.63012e-05 0)
(0.0010452 3.6492e-05 0)
(0.00104651 3.66163e-05 0)
(0.00104779 3.66799e-05 0)
(0.00104899 3.66762e-05 0)
(0.00105018 3.66135e-05 0)
(0.00105127 3.64809e-05 0)
(0.00105238 3.62914e-05 0)
(0.00105336 3.60275e-05 0)
(0.0010544 3.57101e-05 0)
(0.00105527 3.53114e-05 0)
(0.00105626 3.48649e-05 0)
(0.00105701 3.43268e-05 0)
(0.00105798 3.37505e-05 0)
(0.00105859 3.30676e-05 0)
(0.00105958 3.23621e-05 0)
(0.00106002 3.1528e-05 0)
(0.00106109 3.0696e-05 0)
(0.00106133 2.97026e-05 0)
(0.00106256 2.87497e-05 0)
(0.0010625 2.75868e-05 0)
(0.00106403 2.65226e-05 0)
(0.00106356 2.51772e-05 0)
(0.00106558 2.40164e-05 0)
(0.00106449 2.2472e-05 0)
(0.00106728 2.12363e-05 0)
(0.00106524 1.9474e-05 0)
(0.00106925 1.81937e-05 0)
(0.00106574 1.61961e-05 0)
(0.00107163 1.49119e-05 0)
(0.00106585 1.2677e-05 0)
(0.0010746 1.14417e-05 0)
(0.00106531 9.01961e-06 0)
(0.00107844 7.89911e-06 0)
(0.00106375 5.48776e-06 0)
(0.00108357 4.51808e-06 0)
(0.00106071 2.61961e-06 0)
(0.00100001 1.74058e-06 0)
(0.00100047 5.15706e-06 0)
(0.00100128 8.41757e-06 0)
(0.00100239 1.14458e-05 0)
(0.00100374 1.42009e-05 0)
(0.00100526 1.66798e-05 0)
(0.00100689 1.89043e-05 0)
(0.00100859 2.09041e-05 0)
(0.00101033 2.27063e-05 0)
(0.00101212 2.43316e-05 0)
(0.00101394 2.57956e-05 0)
(0.00101578 2.7111e-05 0)
(0.00101764 2.82903e-05 0)
(0.00101951 2.93453e-05 0)
(0.00102139 3.02877e-05 0)
(0.00102326 3.11275e-05 0)
(0.00102514 3.1874e-05 0)
(0.00102701 3.25339e-05 0)
(0.00102888 3.31136e-05 0)
(0.00103074 3.36172e-05 0)
(0.0010326 3.40495e-05 0)
(0.00103445 3.44128e-05 0)
(0.00103631 3.47108e-05 0)
(0.00103815 3.4944e-05 0)
(0.00103999 3.51157e-05 0)
(0.00104182 3.52248e-05 0)
(0.00104365 3.52745e-05 0)
(0.00104546 3.52619e-05 0)
(0.00104729 3.51909e-05 0)
(0.00104908 3.50565e-05 0)
(0.0010509 3.4864e-05 0)
(0.00105267 3.46058e-05 0)
(0.00105448 3.42893e-05 0)
(0.00105623 3.3904e-05 0)
(0.00105802 3.346e-05 0)
(0.00105974 3.29435e-05 0)
(0.00106154 3.23679e-05 0)
(0.00106322 3.17155e-05 0)
(0.00106502 3.10037e-05 0)
(0.00106665 3.02111e-05 0)
(0.00106847 2.93581e-05 0)
(0.00107004 2.84213e-05 0)
(0.00107189 2.74219e-05 0)
(0.00107339 2.63387e-05 0)
(0.00107529 2.51869e-05 0)
(0.00107669 2.39578e-05 0)
(0.00107869 2.26465e-05 0)
(0.00107996 2.12775e-05 0)
(0.00108211 1.97972e-05 0)
(0.0010832 1.83038e-05 0)
(0.00108557 1.66421e-05 0)
(0.00108641 1.5058e-05 0)
(0.00108912 1.31984e-05 0)
(0.00108961 1.15904e-05 0)
(0.00109278 9.51159e-06 0)
(0.00109278 8.00289e-06 0)
(0.00109663 5.67176e-06 0)
(0.00109591 4.46763e-06 0)
(0.0011007 1.80301e-06 0)
(0.00109893 1.19054e-06 0)
(0.001 1.15168e-06 0)
(0.00100023 3.42875e-06 0)
(0.00100067 5.6414e-06 0)
(0.00100134 7.75793e-06 0)
(0.0010022 9.75694e-06 0)
(0.00100324 1.16281e-05 0)
(0.00100441 1.33701e-05 0)
(0.00100569 1.49869e-05 0)
(0.00100705 1.64846e-05 0)
(0.00100848 1.78691e-05 0)
(0.00100996 1.9146e-05 0)
(0.00101149 2.032e-05 0)
(0.00101305 2.13959e-05 0)
(0.00101465 2.23785e-05 0)
(0.00101626 2.32727e-05 0)
(0.0010179 2.40833e-05 0)
(0.00101955 2.48147e-05 0)
(0.00102121 2.54708e-05 0)
(0.00102289 2.60548e-05 0)
(0.00102457 2.65696e-05 0)
(0.00102626 2.70175e-05 0)
(0.00102795 2.74004e-05 0)
(0.00102966 2.77198e-05 0)
(0.00103136 2.7977e-05 0)
(0.00103307 2.81728e-05 0)
(0.00103479 2.83081e-05 0)
(0.0010365 2.83827e-05 0)
(0.00103822 2.83974e-05 0)
(0.00103995 2.83509e-05 0)
(0.00104167 2.82447e-05 0)
(0.0010434 2.80757e-05 0)
(0.00104512 2.78466e-05 0)
(0.00104685 2.75521e-05 0)
(0.00104857 2.71973e-05 0)
(0.0010503 2.6773e-05 0)
(0.00105203 2.62891e-05 0)
(0.00105375 2.57296e-05 0)
(0.00105547 2.51128e-05 0)
(0.00105719 2.44116e-05 0)
(0.0010589 2.36585e-05 0)
(0.00106062 2.28079e-05 0)
(0.00106233 2.19162e-05 0)
(0.00106403 2.0907e-05 0)
(0.00106574 1.98764e-05 0)
(0.00106744 1.86971e-05 0)
(0.00106914 1.75311e-05 0)
(0.00107082 1.61676e-05 0)
(0.00107254 1.48758e-05 0)
(0.00107421 1.33094e-05 0)
(0.00107595 1.19113e-05 0)
(0.0010776 1.01155e-05 0)
(0.0010794 8.64469e-06 0)
(0.00108103 6.57903e-06 0)
(0.00108296 5.08963e-06 0)
(0.00108458 2.6907e-06 0)
(0.00108672 1.27172e-06 0)
(0.00108832 -1.55192e-06 0)
(0.00109077 -2.75135e-06 0)
(0.00109224 -6.13932e-06 0)
(0.00109499 -6.90304e-06 0)
(0.001 9.25245e-07 0)
(0.00100017 2.76827e-06 0)
(0.00100051 4.58537e-06 0)
(0.00100101 6.35762e-06 0)
(0.00100165 8.06756e-06 0)
(0.00100243 9.70128e-06 0)
(0.00100332 1.12495e-05 0)
(0.0010043 1.27073e-05 0)
(0.00100537 1.4073e-05 0)
(0.00100651 1.53472e-05 0)
(0.00100771 1.65312e-05 0)
(0.00100895 1.7627e-05 0)
(0.00101025 1.86367e-05 0)
(0.00101158 1.95629e-05 0)
(0.00101294 2.04083e-05 0)
(0.00101434 2.11757e-05 0)
(0.00101575 2.18681e-05 0)
(0.00101719 2.24883e-05 0)
(0.00101865 2.30386e-05 0)
(0.00102012 2.35215e-05 0)
(0.00102161 2.39388e-05 0)
(0.00102311 2.42925e-05 0)
(0.00102461 2.45834e-05 0)
(0.00102613 2.48135e-05 0)
(0.00102766 2.49827e-05 0)
(0.00102919 2.50929e-05 0)
(0.00103073 2.51429e-05 0)
(0.00103227 2.5135e-05 0)
(0.00103381 2.50665e-05 0)
(0.00103536 2.49406e-05 0)
(0.00103691 2.47526e-05 0)
(0.00103847 2.45074e-05 0)
(0.00104002 2.41973e-05 0)
(0.00104157 2.38304e-05 0)
(0.00104312 2.33942e-05 0)
(0.00104467 2.29023e-05 0)
(0.00104622 2.23348e-05 0)
(0.00104777 2.17139e-05 0)
(0.0010493 2.10084e-05 0)
(0.00105085 2.02545e-05 0)
(0.00105237 1.9403e-05 0)
(0.00105391 1.85121e-05 0)
(0.00105541 1.75046e-05 0)
(0.00105697 1.64738e-05 0)
(0.00105845 1.52981e-05 0)
(0.00106001 1.41262e-05 0)
(0.00106147 1.27667e-05 0)
(0.00106306 1.14554e-05 0)
(0.00106449 9.89178e-06 0)
(0.00106614 8.4484e-06 0)
(0.00106754 6.6539e-06 0)
(0.00106927 5.09546e-06 0)
(0.0010706 3.03436e-06 0)
(0.00107247 1.39141e-06 0)
(0.00107372 -9.92488e-07 0)
(0.0010758 -2.67915e-06 0)
(0.00107693 -5.48401e-06 0)
(0.00107934 -7.15727e-06 0)
(0.00108023 -1.05301e-05 0)
(0.00108296 -1.20899e-05 0)
(0.001 7.30422e-07 0)
(0.00100013 2.1862e-06 0)
(0.00100037 3.62392e-06 0)
(0.00100074 5.03089e-06 0)
(0.00100122 6.39567e-06 0)
(0.0010018 7.70888e-06 0)
(0.00100249 8.9636e-06 0)
(0.00100326 1.01553e-05 0)
(0.00100411 1.12813e-05 0)
(0.00100503 1.23404e-05 0)
(0.00100601 1.33325e-05 0)
(0.00100705 1.42579e-05 0)
(0.00100813 1.51171e-05 0)
(0.00100926 1.59111e-05 0)
(0.00101043 1.66408e-05 0)
(0.00101163 1.73073e-05 0)
(0.00101286 1.79119e-05 0)
(0.00101411 1.84558e-05 0)
(0.00101539 1.89401e-05 0)
(0.00101669 1.93662e-05 0)
(0.001018 1.97347e-05 0)
(0.00101933 2.00468e-05 0)
(0.00102067 2.03026e-05 0)
(0.00102202 2.05035e-05 0)
(0.00102339 2.06488e-05 0)
(0.00102476 2.07398e-05 0)
(0.00102613 2.07751e-05 0)
(0.00102751 2.07564e-05 0)
(0.00102889 2.06811e-05 0)
(0.00103028 2.05516e-05 0)
(0.00103167 2.03636e-05 0)
(0.00103305 2.0121e-05 0)
(0.00103443 1.9817e-05 0)
(0.00103582 1.94579e-05 0)
(0.00103719 1.90333e-05 0)
(0.00103856 1.85534e-05 0)
(0.00103992 1.80021e-05 0)
(0.00104129 1.73962e-05 0)
(0.00104263 1.67108e-05 0)
(0.00104398 1.5973e-05 0)
(0.00104531 1.51443e-05 0)
(0.00104665 1.42682e-05 0)
(0.00104794 1.3285e-05 0)
(0.00104927 1.22639e-05 0)
(0.00105054 1.11122e-05 0)
(0.00105186 9.93929e-06 0)
(0.00105309 8.60126e-06 0)
(0.00105441 7.27069e-06 0)
(0.0010556 5.72287e-06 0)
(0.00105695 4.22961e-06 0)
(0.00105809 2.43965e-06 0)
(0.0010595 7.80955e-07 0)
(0.0010606 -1.2933e-06 0)
(0.00106212 -3.10788e-06 0)
(0.00106317 -5.51737e-06 0)
(0.00106483 -7.46259e-06 0)
(0.00106577 -1.02858e-05 0)
(0.00106765 -1.23265e-05 0)
(0.00106837 -1.56925e-05 0)
(0.00107041 -1.77711e-05 0)
(0.001 5.81067e-07 0)
(0.0010001 1.74083e-06 0)
(0.00100029 2.89031e-06 0)
(0.00100058 4.02159e-06 0)
(0.00100095 5.12714e-06 0)
(0.00100142 6.20021e-06 0)
(0.00100197 7.23512e-06 0)
(0.0010026 8.22737e-06 0)
(0.00100329 9.17356e-06 0)
(0.00100406 1.00713e-05 0)
(0.00100488 1.0919e-05 0)
(0.00100575 1.17157e-05 0)
(0.00100667 1.24606e-05 0)
(0.00100764 1.31535e-05 0)
(0.00100864 1.37942e-05 0)
(0.00100968 1.43826e-05 0)
(0.00101075 1.49189e-05 0)
(0.00101185 1.54033e-05 0)
(0.00101297 1.5836e-05 0)
(0.00101412 1.62176e-05 0)
(0.00101528 1.65481e-05 0)
(0.00101646 1.68279e-05 0)
(0.00101765 1.7057e-05 0)
(0.00101885 1.72358e-05 0)
(0.00102006 1.73638e-05 0)
(0.00102128 1.74416e-05 0)
(0.00102251 1.74681e-05 0)
(0.00102374 1.74439e-05 0)
(0.00102497 1.73673e-05 0)
(0.0010262 1.72394e-05 0)
(0.00102743 1.70573e-05 0)
(0.00102866 1.68228e-05 0)
(0.00102988 1.65315e-05 0)
(0.0010311 1.61864e-05 0)
(0.00103231 1.57811e-05 0)
(0.00103351 1.53206e-05 0)
(0.0010347 1.4795e-05 0)
(0.00103588 1.4213e-05 0)
(0.00103705 1.35595e-05 0)
(0.00103821 1.28486e-05 0)
(0.00103934 1.20578e-05 0)
(0.00104047 1.12096e-05 0)
(0.00104157 1.02699e-05 0)
(0.00104268 9.27478e-06 0)
(0.00104373 8.1721e-06 0)
(0.00104481 7.01908e-06 0)
(0.00104582 5.73605e-06 0)
(0.00104688 4.41343e-06 0)
(0.00104784 2.92864e-06 0)
(0.00104889 1.42415e-06 0)
(0.00104978 -2.89501e-07 0)
(0.00105083 -1.9888e-06 0)
(0.00105166 -3.96984e-06 0)
(0.00105276 -5.88175e-06 0)
(0.00105351 -8.18518e-06 0)
(0.00105468 -1.03252e-05 0)
(0.00105533 -1.30196e-05 0)
(0.0010566 -1.53927e-05 0)
(0.00105703 -1.85705e-05 0)
(0.00105831 -2.1167e-05 0)
(0.001 4.6319e-07 0)
(0.00100008 1.38876e-06 0)
(0.00100024 2.30818e-06 0)
(0.00100047 3.21606e-06 0)
(0.00100078 4.10709e-06 0)
(0.00100117 4.97634e-06 0)
(0.00100162 5.81939e-06 0)
(0.00100214 6.63245e-06 0)
(0.00100273 7.41235e-06 0)
(0.00100337 8.15652e-06 0)
(0.00100407 8.86285e-06 0)
(0.00100481 9.52967e-06 0)
(0.00100561 1.01557e-05 0)
(0.00100644 1.07399e-05 0)
(0.00100731 1.12816e-05 0)
(0.00100822 1.17804e-05 0)
(0.00100915 1.22358e-05 0)
(0.00101012 1.26477e-05 0)
(0.00101111 1.30158e-05 0)
(0.00101212 1.33401e-05 0)
(0.00101315 1.36204e-05 0)
(0.00101419 1.38568e-05 0)
(0.00101525 1.40488e-05 0)
(0.00101632 1.41965e-05 0)
(0.0010174 1.42994e-05 0)
(0.00101849 1.43575e-05 0)
(0.00101958 1.43699e-05 0)
(0.00102067 1.43367e-05 0)
(0.00102177 1.42565e-05 0)
(0.00102286 1.41295e-05 0)
(0.00102395 1.39538e-05 0)
(0.00102503 1.37295e-05 0)
(0.00102611 1.34543e-05 0)
(0.00102718 1.31285e-05 0)
(0.00102824 1.27485e-05 0)
(0.00102928 1.23156e-05 0)
(0.00103031 1.18245e-05 0)
(0.00103133 1.12776e-05 0)
(0.00103232 1.06674e-05 0)
(0.0010333 9.99817e-06 0)
(0.00103424 9.25924e-06 0)
(0.00103518 8.45765e-06 0)
(0.00103608 7.57805e-06 0)
(0.00103697 6.63213e-06 0)
(0.00103781 5.59727e-06 0)
(0.00103865 4.49249e-06 0)
(0.00103942 3.28421e-06 0)
(0.00104021 2.00281e-06 0)
(0.00104091 5.98424e-07 0)
(0.00104165 -8.80122e-07 0)
(0.00104227 -2.50709e-06 0)
(0.00104297 -4.20385e-06 0)
(0.0010435 -6.08566e-06 0)
(0.00104417 -8.02891e-06 0)
(0.00104459 -1.02121e-05 0)
(0.00104526 -1.24371e-05 0)
(0.00104553 -1.49807e-05 0)
(0.00104619 -1.7523e-05 0)
(0.00104624 -2.04968e-05 0)
(0.0010468 -2.3382e-05 0)
(0.001 3.65561e-07 0)
(0.00100007 1.09677e-06 0)
(0.0010002 1.82429e-06 0)
(0.0010004 2.54428e-06 0)
(0.00100066 3.25293e-06 0)
(0.00100099 3.9466e-06 0)
(0.00100137 4.6219e-06 0)
(0.00100182 5.2758e-06 0)
(0.00100232 5.90561e-06 0)
(0.00100287 6.50902e-06 0)
(0.00100347 7.08403e-06 0)
(0.00100412 7.62894e-06 0)
(0.00100481 8.14235e-06 0)
(0.00100554 8.62311e-06 0)
(0.0010063 9.0703e-06 0)
(0.0010071 9.48314e-06 0)
(0.00100793 9.86102e-06 0)
(0.00100878 1.02034e-05 0)
(0.00100966 1.05099e-05 0)
(0.00101056 1.078e-05 0)
(0.00101148 1.10134e-05 0)
(0.00101241 1.12097e-05 0)
(0.00101336 1.13686e-05 0)
(0.00101431 1.14897e-05 0)
(0.00101528 1.15725e-05 0)
(0.00101625 1.16165e-05 0)
(0.00101722 1.16212e-05 0)
(0.0010182 1.15859e-05 0)
(0.00101917 1.15099e-05 0)
(0.00102014 1.13924e-05 0)
(0.00102111 1.12325e-05 0)
(0.00102206 1.1029e-05 0)
(0.00102301 1.0781e-05 0)
(0.00102395 1.04869e-05 0)
(0.00102486 1.01456e-05 0)
(0.00102577 9.75515e-06 0)
(0.00102665 9.31414e-06 0)
(0.00102751 8.82008e-06 0)
(0.00102835 8.27155e-06 0)
(0.00102916 7.6651e-06 0)
(0.00102994 6.99955e-06 0)
(0.00103069 6.26995e-06 0)
(0.0010314 5.47583e-06 0)
(0.00103209 4.60991e-06 0)
(0.00103273 3.67324e-06 0)
(0.00103334 2.65495e-06 0)
(0.00103389 1.55899e-06 0)
(0.00103442 3.68784e-07 0)
(0.00103486 -9.06591e-07 0)
(0.00103531 -2.29241e-06 0)
(0.00103564 -3.77158e-06 0)
(0.00103599 -5.38507e-06 0)
(0.0010362 -7.10026e-06 0)
(0.00103646 -8.98082e-06 0)
(0.00103651 -1.09688e-05 0)
(0.00103668 -1.31642e-05 0)
(0.00103655 -1.54681e-05 0)
(0.00103661 -1.80362e-05 0)
(0.00103621 -2.07029e-05 0)
(0.00103606 -2.37066e-05 0)
(0.001 2.82217e-07 0)
(0.00100006 8.47374e-07 0)
(0.00100017 1.41054e-06 0)
(0.00100035 1.96894e-06 0)
(0.00100057 2.51981e-06 0)
(0.00100086 3.06045e-06 0)
(0.00100119 3.58832e-06 0)
(0.00100158 4.10105e-06 0)
(0.00100202 4.59653e-06 0)
(0.00100251 5.07282e-06 0)
(0.00100303 5.52824e-06 0)
(0.00100361 5.96128e-06 0)
(0.00100422 6.37065e-06 0)
(0.00100486 6.75521e-06 0)
(0.00100554 7.11399e-06 0)
(0.00100626 7.44614e-06 0)
(0.001007 7.75094e-06 0)
(0.00100776 8.02771e-06 0)
(0.00100855 8.2759e-06 0)
(0.00100936 8.49493e-06 0)
(0.00101018 8.68433e-06 0)
(0.00101102 8.84357e-06 0)
(0.00101187 8.97223e-06 0)
(0.00101273 9.06969e-06 0)
(0.0010136 9.13557e-06 0)
(0.00101448 9.16911e-06 0)
(0.00101535 9.16993e-06 0)
(0.00101622 9.13706e-06 0)
(0.0010171 9.07012e-06 0)
(0.00101796 8.96782e-06 0)
(0.00101882 8.82985e-06 0)
(0.00101967 8.65442e-06 0)
(0.0010205 8.44139e-06 0)
(0.00102132 8.18825e-06 0)
(0.00102211 7.89524e-06 0)
(0.00102289 7.55876e-06 0)
(0.00102364 7.17977e-06 0)
(0.00102437 6.75301e-06 0)
(0.00102507 6.28075e-06 0)
(0.00102573 5.75516e-06 0)
(0.00102636 5.18084e-06 0)
(0.00102695 4.54586e-06 0)
(0.00102749 3.85885e-06 0)
(0.00102799 3.10142e-06 0)
(0.00102844 2.28894e-06 0)
(0.00102884 1.39287e-06 0)
(0.00102918 4.39587e-07 0)
(0.00102947 -6.15121e-07 0)
(0.00102967 -1.72684e-06 0)
(0.00102984 -2.96591e-06 0)
(0.0010299 -4.2583e-06 0)
(0.00102993 -5.71587e-06 0)
(0.00102982 -7.21558e-06 0)
(0.00102968 -8.93468e-06 0)
(0.00102938 -1.06708e-05 0)
(0.00102907 -1.27064e-05 0)
(0.00102853 -1.47107e-05 0)
(0.00102802 -1.71337e-05 0)
(0.00102717 -1.94355e-05 0)
(0.00102636 -2.23306e-05 0)
(0.001 2.09121e-07 0)
(0.00100005 6.2857e-07 0)
(0.00100015 1.0473e-06 0)
(0.00100031 1.46333e-06 0)
(0.00100051 1.87467e-06 0)
(0.00100076 2.27939e-06 0)
(0.00100106 2.6756e-06 0)
(0.00100141 3.06157e-06 0)
(0.0010018 3.43566e-06 0)
(0.00100224 3.79638e-06 0)
(0.00100271 4.14239e-06 0)
(0.00100323 4.47245e-06 0)
(0.00100378 4.78547e-06 0)
(0.00100436 5.08046e-06 0)
(0.00100498 5.35653e-06 0)
(0.00100563 5.61288e-06 0)
(0.0010063 5.84883e-06 0)
(0.00100699 6.06368e-06 0)
(0.00100771 6.2569e-06 0)
(0.00100845 6.42787e-06 0)
(0.0010092 6.57613e-06 0)
(0.00100996 6.70108e-06 0)
(0.00101074 6.80234e-06 0)
(0.00101152 6.87924e-06 0)
(0.00101231 6.93145e-06 0)
(0.00101311 6.95816e-06 0)
(0.0010139 6.95909e-06 0)
(0.00101469 6.93322e-06 0)
(0.00101548 6.88037e-06 0)
(0.00101626 6.79914e-06 0)
(0.00101703 6.68954e-06 0)
(0.00101779 6.54959e-06 0)
(0.00101853 6.37968e-06 0)
(0.00101925 6.17696e-06 0)
(0.00101994 5.94244e-06 0)
(0.00102062 5.67196e-06 0)
(0.00102126 5.36764e-06 0)
(0.00102188 5.02327e-06 0)
(0.00102245 4.6429e-06 0)
(0.00102299 4.21709e-06 0)
(0.00102349 3.75312e-06 0)
(0.00102394 3.23653e-06 0)
(0.00102433 2.67996e-06 0)
(0.00102468 2.06099e-06 0)
(0.00102496 1.40116e-06 0)
(0.00102519 6.65259e-07 0)
(0.00102534 -1.1044e-07 0)
(0.00102542 -9.81874e-07 0)
(0.00102542 -1.88892e-06 0)
(0.00102534 -2.92068e-06 0)
(0.00102515 -3.97796e-06 0)
(0.00102489 -5.20213e-06 0)
(0.00102449 -6.42999e-06 0)
(0.00102401 -7.88765e-06 0)
(0.00102337 -9.30823e-06 0)
(0.00102265 -1.10543e-05 0)
(0.00102172 -1.26898e-05 0)
(0.00102071 -1.47972e-05 0)
(0.00101942 -1.66635e-05 0)
(0.00101803 -1.9224e-05 0)
(0.001 1.43277e-07 0)
(0.00100005 4.31422e-07 0)
(0.00100014 7.1986e-07 0)
(0.00100028 1.00725e-06 0)
(0.00100047 1.29225e-06 0)
(0.0010007 1.57352e-06 0)
(0.00100097 1.84976e-06 0)
(0.00100129 2.11976e-06 0)
(0.00100165 2.38235e-06 0)
(0.00100205 2.63647e-06 0)
(0.00100249 2.88111e-06 0)
(0.00100296 3.11536e-06 0)
(0.00100347 3.33839e-06 0)
(0.00100401 3.54939e-06 0)
(0.00100458 3.7477e-06 0)
(0.00100518 3.93264e-06 0)
(0.0010058 4.10364e-06 0)
(0.00100644 4.26013e-06 0)
(0.00100711 4.40163e-06 0)
(0.00100779 4.52761e-06 0)
(0.00100849 4.63769e-06 0)
(0.0010092 4.73132e-06 0)
(0.00100992 4.80818e-06 0)
(0.00101065 4.86767e-06 0)
(0.00101138 4.90954e-06 0)
(0.00101211 4.93307e-06 0)
(0.00101284 4.93808e-06 0)
(0.00101357 4.92365e-06 0)
(0.0010143 4.88972e-06 0)
(0.00101501 4.83505e-06 0)
(0.00101571 4.75978e-06 0)
(0.0010164 4.66218e-06 0)
(0.00101707 4.54276e-06 0)
(0.00101771 4.39899e-06 0)
(0.00101833 4.23206e-06 0)
(0.00101893 4.03822e-06 0)
(0.00101949 3.81976e-06 0)
(0.00102001 3.57104e-06 0)
(0.0010205 3.29623e-06 0)
(0.00102094 2.98669e-06 0)
(0.00102133 2.6497e-06 0)
(0.00102167 2.27194e-06 0)
(0.00102195 1.86582e-06 0)
(0.00102218 1.41056e-06 0)
(0.00102233 9.2708e-07 0)
(0.00102241 3.82681e-07 0)
(0.00102241 -1.87694e-07 0)
(0.00102233 -8.36113e-07 0)
(0.00102215 -1.505e-06 0)
(0.00102188 -2.27721e-06 0)
(0.00102149 -3.05833e-06 0)
(0.00102099 -3.98071e-06 0)
(0.00102036 -4.88915e-06 0)
(0.0010196 -5.99599e-06 0)
(0.00101868 -7.04737e-06 0)
(0.00101762 -8.38519e-06 0)
(0.00101636 -9.5939e-06 0)
(0.00101494 -1.12256e-05 0)
(0.00101327 -1.25987e-05 0)
(0.00101141 -1.46057e-05 0)
(0.001 8.22946e-08 0)
(0.00100005 2.48792e-07 0)
(0.00100013 4.1644e-07 0)
(0.00100026 5.8445e-07 0)
(0.00100044 7.52019e-07 0)
(0.00100066 9.18343e-07 0)
(0.00100092 1.08265e-06 0)
(0.00100122 1.24417e-06 0)
(0.00100155 1.40222e-06 0)
(0.00100193 1.5561e-06 0)
(0.00100235 1.70519e-06 0)
(0.00100279 1.84889e-06 0)
(0.00100327 1.98666e-06 0)
(0.00100378 2.11797e-06 0)
(0.00100432 2.24235e-06 0)
(0.00100489 2.35935e-06 0)
(0.00100548 2.46857e-06 0)
(0.00100609 2.56959e-06 0)
(0.00100672 2.66209e-06 0)
(0.00100737 2.74566e-06 0)
(0.00100803 2.82004e-06 0)
(0.0010087 2.88482e-06 0)
(0.00100938 2.93978e-06 0)
(0.00101007 2.98447e-06 0)
(0.00101077 3.01872e-06 0)
(0.00101146 3.04201e-06 0)
(0.00101215 3.05422e-06 0)
(0.00101284 3.0547e-06 0)
(0.00101352 3.04344e-06 0)
(0.00101419 3.01955e-06 0)
(0.00101485 2.98319e-06 0)
(0.00101549 2.93314e-06 0)
(0.00101611 2.86981e-06 0)
(0.0010167 2.79147e-06 0)
(0.00101727 2.699e-06 0)
(0.00101781 2.58983e-06 0)
(0.00101831 2.46566e-06 0)
(0.00101878 2.32261e-06 0)
(0.0010192 2.16372e-06 0)
(0.00101957 1.98304e-06 0)
(0.0010199 1.78586e-06 0)
(0.00102016 1.56289e-06 0)
(0.00102036 1.32305e-06 0)
(0.0010205 1.05177e-06 0)
(0.00102056 7.63928e-07 0)
(0.00102055 4.36681e-07 0)
(0.00102044 9.45781e-08 0)
(0.00102025 -2.98401e-07 0)
(0.00101995 -7.01542e-07 0)
(0.00101954 -1.17295e-06 0)
(0.00101901 -1.64557e-06 0)
(0.00101835 -2.21205e-06 0)
(0.00101754 -2.76289e-06 0)
(0.00101659 -3.44722e-06 0)
(0.00101547 -4.08565e-06 0)
(0.00101417 -4.91888e-06 0)
(0.00101267 -5.65291e-06 0)
(0.00101096 -6.67764e-06 0)
(0.00100901 -7.50954e-06 0)
(0.00100682 -8.78156e-06 0)
(0.001 2.41441e-08 0)
(0.00100004 7.46015e-08 0)
(0.00100013 1.26964e-07 0)
(0.00100026 1.80947e-07 0)
(0.00100042 2.36251e-07 0)
(0.00100064 2.92572e-07 0)
(0.00100089 3.49606e-07 0)
(0.00100118 4.07053e-07 0)
(0.00100151 4.64626e-07 0)
(0.00100187 5.22042e-07 0)
(0.00100227 5.79032e-07 0)
(0.00100271 6.35337e-07 0)
(0.00100318 6.90712e-07 0)
(0.00100367 7.44916e-07 0)
(0.0010042 7.97729e-07 0)
(0.00100475 8.48929e-07 0)
(0.00100532 8.98318e-07 0)
(0.00100591 9.45687e-07 0)
(0.00100653 9.90858e-07 0)
(0.00100716 1.03363e-06 0)
(0.0010078 1.07385e-06 0)
(0.00100846 1.11132e-06 0)
(0.00100912 1.14591e-06 0)
(0.00100979 1.17739e-06 0)
(0.00101047 1.20567e-06 0)
(0.00101114 1.2305e-06 0)
(0.00101181 1.25181e-06 0)
(0.00101248 1.26932e-06 0)
(0.00101314 1.28298e-06 0)
(0.00101379 1.29246e-06 0)
(0.00101442 1.29778e-06 0)
(0.00101504 1.29847e-06 0)
(0.00101564 1.29467e-06 0)
(0.00101621 1.28574e-06 0)
(0.00101675 1.27198e-06 0)
(0.00101726 1.25245e-06 0)
(0.00101774 1.22778e-06 0)
(0.00101817 1.19655e-06 0)
(0.00101856 1.15991e-06 0)
(0.00101891 1.11574e-06 0)
(0.00101919 1.06596e-06 0)
(0.00101942 1.00742e-06 0)
(0.00101959 9.43417e-07 0)
(0.00101968 8.68682e-07 0)
(0.0010197 7.88654e-07 0)
(0.00101963 6.94932e-07 0)
(0.00101948 5.96543e-07 0)
(0.00101922 4.8011e-07 0)
(0.00101886 3.60627e-07 0)
(0.00101838 2.17325e-07 0)
(0.00101778 7.46789e-08 0)
(0.00101704 -1.00715e-07 0)
(0.00101615 -2.69182e-07 0)
(0.0010151 -4.84462e-07 0)
(0.00101387 -6.81669e-07 0)
(0.00101245 -9.47536e-07 0)
(0.00101083 -1.17594e-06 0)
(0.00100897 -1.50727e-06 -3.98451e-38)
(0.00100688 -1.76715e-06 0)
(0.00100451 -2.18337e-06 0)
(0.001 -3.3051e-08 0)
(0.00100004 -9.67474e-08 0)
(0.00100013 -1.57823e-07 0)
(0.00100026 -2.16075e-07 0)
(0.00100042 -2.7131e-07 0)
(0.00100064 -3.23353e-07 0)
(0.00100089 -3.72043e-07 0)
(0.00100118 -4.17233e-07 0)
(0.00100151 -4.58797e-07 0)
(0.00100187 -4.96623e-07 0)
(0.00100227 -5.30621e-07 0)
(0.00100271 -5.60708e-07 0)
(0.00100318 -5.86826e-07 0)
(0.00100367 -6.08924e-07 0)
(0.0010042 -6.26971e-07 0)
(0.00100475 -6.40939e-07 0)
(0.00100532 -6.50823e-07 0)
(0.00100591 -6.56611e-07 0)
(0.00100653 -6.58316e-07 0)
(0.00100716 -6.55931e-07 0)
(0.0010078 -6.49481e-07 0)
(0.00100846 -6.38949e-07 0)
(0.00100913 -6.2437e-07 0)
(0.0010098 -6.05707e-07 0)
(0.00101047 -5.83003e-07 0)
(0.00101115 -5.56183e-07 0)
(0.00101182 -5.25299e-07 0)
(0.00101249 -4.90217e-07 0)
(0.00101315 -4.51009e-07 0)
(0.0010138 -4.07452e-07 0)
(0.00101444 -3.59661e-07 0)
(0.00101506 -3.0728e-07 0)
(0.00101565 -2.5051e-07 0)
(0.00101623 -1.88792e-07 0)
(0.00101677 -1.22482e-07 0)
(0.00101728 -5.07103e-08 0)
(0.00101776 2.58857e-08 0)
(0.0010182 1.08656e-07 0)
(0.00101859 1.96493e-07 0)
(0.00101894 2.91464e-07 0)
(0.00101923 3.91747e-07 0)
(0.00101946 5.00505e-07 0)
(0.00101963 6.14693e-07 0)
(0.00101973 7.39662e-07 0)
(0.00101975 8.70517e-07 0)
(0.00101969 1.01507e-06 0)
(0.00101953 1.16473e-06 0)
(0.00101928 1.33201e-06 0)
(0.00101892 1.50269e-06 0)
(0.00101845 1.69705e-06 0)
(0.00101785 1.89184e-06 0)
(0.00101711 2.11951e-06 0)
(0.00101623 2.34188e-06 0)
(0.00101518 2.61139e-06 0)
(0.00101396 2.86499e-06 0)
(0.00101254 3.18776e-06 0)
(0.00101092 3.47561e-06 0)
(0.00100908 3.86729e-06 3.98451e-38)
(0.00100698 4.19024e-06 0)
(0.00100463 4.67154e-06 0)
(0.001 -9.10967e-08 0)
(0.00100005 -2.70658e-07 0)
(0.00100013 -4.46877e-07 0)
(0.00100026 -6.19047e-07 0)
(0.00100044 -7.86479e-07 0)
(0.00100065 -9.48499e-07 0)
(0.00100091 -1.10447e-06 0)
(0.00100121 -1.2538e-06 0)
(0.00100155 -1.39593e-06 0)
(0.00100193 -1.53035e-06 0)
(0.00100234 -1.65662e-06 0)
(0.00100279 -1.77431e-06 0)
(0.00100327 -1.88307e-06 0)
(0.00100378 -1.98254e-06 0)
(0.00100432 -2.07247e-06 0)
(0.00100489 -2.15258e-06 0)
(0.00100548 -2.22266e-06 0)
(0.00100609 -2.2825e-06 0)
(0.00100672 -2.33195e-06 0)
(0.00100737 -2.37081e-06 0)
(0.00100803 -2.39897e-06 0)
(0.00100871 -2.41623e-06 0)
(0.00100939 -2.42252e-06 0)
(0.00101009 -2.41757e-06 0)
(0.00101078 -2.40135e-06 0)
(0.00101148 -2.37352e-06 0)
(0.00101218 -2.33407e-06 0)
(0.00101287 -2.2825e-06 0)
(0.00101355 -2.2189e-06 0)
(0.00101423 -2.14253e-06 0)
(0.00101489 -2.0536e-06 0)
(0.00101553 -1.95101e-06 0)
(0.00101616 -1.83524e-06 0)
(0.00101676 -1.70463e-06 0)
(0.00101733 -1.56011e-06 0)
(0.00101788 -1.39916e-06 0)
(0.00101839 -1.22347e-06 0)
(0.00101886 -1.02924e-06 0)
(0.00101929 -8.19399e-07 0)
(0.00101967 -5.88166e-07 0)
(0.00102 -3.40536e-07 0)
(0.00102027 -6.76714e-08 0)
(0.00102049 2.219e-07 0)
(0.00102063 5.42398e-07 0)
(0.00102071 8.79323e-07 0)
(0.0010207 1.2555e-06 0)
(0.00102061 1.6471e-06 0)
(0.00102042 2.08963e-06 0)
(0.00102013 2.54328e-06 0)
(0.00101973 3.06477e-06 0)
(0.00101921 3.58883e-06 0)
(0.00101856 4.20655e-06 0)
(0.00101777 4.81072e-06 0)
(0.00101683 5.54803e-06 0)
(0.00101572 6.24234e-06 0)
(0.00101444 7.13099e-06 0)
(0.00101295 7.92421e-06 0)
(0.00101127 9.00756e-06 0)
(0.00100932 9.90271e-06 0)
(0.00100716 1.12377e-05 0)
(0.001 -1.51838e-07 0)
(0.00100005 -4.52663e-07 0)
(0.00100014 -7.49389e-07 0)
(0.00100028 -1.04076e-06 0)
(0.00100046 -1.32553e-06 0)
(0.0010007 -1.60249e-06 0)
(0.00100097 -1.87049e-06 0)
(0.00100129 -2.12845e-06 0)
(0.00100165 -2.37539e-06 0)
(0.00100205 -2.61038e-06 0)
(0.00100249 -2.83261e-06 0)
(0.00100296 -3.04132e-06 0)
(0.00100347 -3.23587e-06 0)
(0.00100401 -3.41565e-06 0)
(0.00100458 -3.58016e-06 0)
(0.00100518 -3.72892e-06 0)
(0.0010058 -3.86155e-06 0)
(0.00100645 -3.97766e-06 0)
(0.00100711 -4.07696e-06 0)
(0.0010078 -4.15911e-06 0)
(0.0010085 -4.2239e-06 0)
(0.00100921 -4.27095e-06 0)
(0.00100994 -4.30013e-06 0)
(0.00101067 -4.31098e-06 0)
(0.0010114 -4.30342e-06 0)
(0.00101214 -4.27687e-06 0)
(0.00101288 -4.23129e-06 0)
(0.00101362 -4.16589e-06 0)
(0.00101435 -4.08073e-06 0)
(0.00101507 -3.97467e-06 0)
(0.00101578 -3.84796e-06 0)
(0.00101647 -3.69894e-06 0)
(0.00101715 -3.52822e-06 0)
(0.00101781 -3.33334e-06 0)
(0.00101844 -3.1155e-06 0)
(0.00101904 -2.87105e-06 0)
(0.00101961 -2.60224e-06 0)
(0.00102015 -2.30353e-06 0)
(0.00102065 -1.97898e-06 0)
(0.0010211 -1.62008e-06 0)
(0.0010215 -1.23395e-06 0)
(0.00102186 -8.07437e-07 0)
(0.00102216 -3.5259e-07 0)
(0.00102239 1.50696e-07 0)
(0.00102256 6.82052e-07 0)
(0.00102266 1.27368e-06 0)
(0.00102268 1.89215e-06 0)
(0.00102261 2.58854e-06 0)
(0.00102245 3.30704e-06 0)
(0.0010222 4.1284e-06 0)
(0.00102183 4.96056e-06 0)
(0.00102135 5.93277e-06 0)
(0.00102073 6.894e-06 0)
(0.00102 8.05197e-06 0)
(0.0010191 9.15885e-06 0)