/*--------------------------------*- C++ -*----------------------------------*\
| =========                 |                                                 |
| \\      /  F ield         | OpenFOAM: The Open Source CFD Toolbox           |
|  \\    /   O peration     | Version:  2312                                  |
|   \\  /    A nd           | Website:  www.openfoam.com                      |
|    \\/     M anipulation  |                                                 |
\*---------------------------------------------------------------------------*/
FoamFile
{
    version     2.0;
    format      ascii;
    arch        "LSB;label=32;scalar=64";
    class       surfaceScalarField;
    location    "139000";
    object      phi;
}
// * * * * * * * * * * * * * * * * * * * * * * * * * * * * * * * * * * * * * //

dimensions      [0 3 -1 0 0 0 0];

oriented        oriented;

internalField   nonuniform List<scalar> 
5250
(
-4.18971e-06
-1.48659e-06
-2.86971e-06
-1.32e-06
-1.71084e-06
-1.15887e-06
-7.0651e-07
-1.00433e-06
1.50856e-07
-8.57366e-07
8.68918e-07
-7.18062e-07
1.45617e-06
-5.87255e-07
1.92192e-06
-4.65748e-07
2.27609e-06
-3.54172e-07
2.52906e-06
-2.52971e-07
2.69154e-06
-1.62473e-07
2.77428e-06
-8.27489e-08
2.78645e-06
-1.21669e-08
2.75021e-06
3.62406e-08
2.67685e-06
7.33572e-08
2.57778e-06
9.90713e-08
2.46515e-06
1.12633e-07
2.35131e-06
1.13835e-07
2.24869e-06
1.02626e-07
2.16948e-06
7.92095e-08
2.12568e-06
4.38023e-08
2.12908e-06
-3.40934e-09
2.18923e-06
-6.01487e-08
2.31447e-06
-1.25234e-07
2.51112e-06
-1.9665e-07
2.78351e-06
-2.72395e-07
3.13386e-06
-3.50351e-07
3.56229e-06
-4.28425e-07
4.0668e-06
-5.0451e-07
4.64333e-06
-5.76535e-07
5.28585e-06
-6.42514e-07
5.98647e-06
-7.00627e-07
6.73572e-06
-7.49242e-07
7.52267e-06
-7.86953e-07
8.33537e-06
-8.12703e-07
9.16146e-06
-8.26085e-07
9.98842e-06
-8.26962e-07
1.08018e-05
-8.13336e-07
1.15858e-05
-7.84093e-07
1.23263e-05
-7.40494e-07
1.301e-05
-6.83671e-07
1.36249e-05
-6.14932e-07
1.41608e-05
-5.35858e-07
1.46091e-05
-4.48318e-07
1.49635e-05
-3.5441e-07
1.52199e-05
-2.56415e-07
1.53766e-05
-1.56657e-07
1.54338e-05
-5.71767e-08
1.53981e-05
3.56964e-08
1.52785e-05
1.19589e-07
1.50829e-05
1.95634e-07
1.48221e-05
2.60713e-07
1.45089e-05
3.13203e-07
1.41573e-05
3.51684e-07
1.37864e-05
3.70882e-07
1.34166e-05
3.69825e-07
1.30686e-05
3.47923e-07
1.27641e-05
3.0449e-07
1.2525e-05
2.39099e-07
1.23738e-05
1.51218e-07
1.23344e-05
3.94377e-08
1.24198e-05
-8.54216e-08
1.26482e-05
-2.28394e-07
1.30384e-05
-3.90166e-07
1.36066e-05
-5.68243e-07
1.43672e-05
-7.60593e-07
1.5332e-05
-9.64759e-07
1.65106e-05
-1.17862e-06
1.79101e-05
-1.3995e-06
1.95354e-05
-1.62528e-06
2.13885e-05
-1.85317e-06
2.34697e-05
-2.08121e-06
2.57765e-05
-2.30673e-06
2.83045e-05
-2.52806e-06
3.10474e-05
-2.74287e-06
3.39972e-05
-2.94984e-06
3.71446e-05
-3.14733e-06
4.04788e-05
-3.33424e-06
4.3989e-05
-3.51014e-06
4.76625e-05
-3.67356e-06
5.1489e-05
-3.82645e-06
5.54544e-05
-3.96547e-06
5.9552e-05
-4.09757e-06
6.37656e-05
-4.21357e-06
6.80989e-05
-4.33333e-06
7.25259e-05
-4.42694e-06
7.70844e-05
-4.55857e-06
8.16967e-05
-4.61227e-06
-4.80107e-06
6.99486e-05
-2.89724e-06
7.12362e-05
-2.60754e-06
7.24058e-05
-2.32848e-06
7.34627e-05
-2.06119e-06
7.44125e-05
-1.80723e-06
7.52622e-05
-1.56775e-06
7.60192e-05
-1.3442e-06
7.66916e-05
-1.13819e-06
7.72889e-05
-9.51516e-07
7.78215e-05
-7.85481e-07
7.83001e-05
-6.4108e-07
7.87365e-05
-5.19161e-07
7.91448e-05
-4.20475e-07
7.95269e-05
-3.45868e-07
7.98969e-05
-2.96623e-07
8.02695e-05
-2.73562e-07
8.06591e-05
-2.76913e-07
8.10792e-05
-3.06323e-07
8.1543e-05
-3.61163e-07
8.20629e-05
-4.40657e-07
8.26506e-05
-5.43945e-07
8.33165e-05
-6.69327e-07
8.40698e-05
-8.13428e-07
8.49169e-05
-9.72337e-07
8.58626e-05
-1.14235e-06
8.69099e-05
-1.3197e-06
8.80599e-05
-1.50033e-06
8.93113e-05
-1.67985e-06
9.06604e-05
-1.85364e-06
9.21012e-05
-2.01729e-06
9.36256e-05
-2.16693e-06
9.52245e-05
-2.29952e-06
9.68875e-05
-2.41224e-06
9.86031e-05
-2.50251e-06
0.000100358
-2.56811e-06
0.00010214
-2.60739e-06
0.000103932
-2.61921e-06
0.000105722
-2.60298e-06
0.000107496
-2.55884e-06
0.000109244
-2.48789e-06
0.000110952
-2.39203e-06
0.000112611
-2.27393e-06
0.000114212
-2.13691e-06
0.000115749
-1.98494e-06
0.000117217
-1.82246e-06
0.000118615
-1.65436e-06
0.000119944
-1.48572e-06
0.000121209
-1.32182e-06
0.000122412
-1.16801e-06
0.000123561
-1.02956e-06
0.000124668
-9.1116e-07
0.000125747
-8.18153e-07
0.000126815
-7.55137e-07
0.000127893
-7.25531e-07
0.000128996
-7.32422e-07
0.000130144
-7.78518e-07
0.000131358
-8.65472e-07
0.000132657
-9.94538e-07
0.000134061
-1.1657e-06
0.000135591
-1.37876e-06
0.000137263
-1.63213e-06
0.000139102
-1.9241e-06
0.000141125
-2.25132e-06
0.000143346
-2.61164e-06
0.000145779
-3.00071e-06
0.000148434
-3.41566e-06
0.00015132
-3.85091e-06
0.000154445
-4.30351e-06
0.000157812
-4.76681e-06
0.000161425
-5.2384e-06
0.000165283
-5.7107e-06
0.000169384
-6.18257e-06
0.000173723
-6.64541e-06
0.000178295
-7.10022e-06
0.000183089
-7.53712e-06
0.000188099
-7.9602e-06
0.00019331
-8.35801e-06
0.000198715
-8.73867e-06
0.000204293
-9.08884e-06
0.000210041
-9.42098e-06
0.000215934
-9.72017e-06
0.000221971
-1.00021e-05
0.000228127
-1.02532e-05
0.0002344
-1.04873e-05
0.000240769
-1.0702e-05
0.000247236
-1.08935e-05
0.000253776
-1.10993e-05
0.000260417
-1.12527e-05
-1.15402e-05
0.000238488
-2.84014e-06
0.000238431
-2.5505e-06
0.000238376
-2.27302e-06
0.000238326
-2.01119e-06
0.000238287
-1.76832e-06
0.000238266
-1.54697e-06
0.000238271
-1.34888e-06
0.000238305
-1.1727e-06
0.000238374
-1.02078e-06
0.000238482
-8.93539e-07
0.000238632
-7.91068e-07
0.000238827
-7.13513e-07
0.000239067
-6.6083e-07
0.000239355
-6.33375e-07
0.00023969
-6.32325e-07
0.000240077
-6.60444e-07
0.00024052
-7.19519e-07
0.000241021
-8.07795e-07
0.000241584
-9.23842e-07
0.000242204
-1.06098e-06
0.000242893
-1.23306e-06
0.00024366
-1.43571e-06
0.000244508
-1.66171e-06
0.000245442
-1.90593e-06
0.000246462
-2.16306e-06
0.00024757
-2.42758e-06
0.000248764
-2.69449e-06
0.000250044
-2.95917e-06
0.000251407
-3.21692e-06
0.000252853
-3.46303e-06
0.000254379
-3.69296e-06
0.000255982
-3.90253e-06
0.000257657
-4.08784e-06
0.0002594
-4.24538e-06
0.000261204
-4.37216e-06
0.000263063
-4.46581e-06
0.000264968
-4.52444e-06
0.000266912
-4.5469e-06
0.000268886
-4.53298e-06
0.000270882
-4.48378e-06
0.000272891
-4.40155e-06
0.000274907
-4.28967e-06
0.000276923
-4.15231e-06
0.000278932
-3.99447e-06
0.000280931
-3.82165e-06
0.000282917
-3.64012e-06
0.000284888
-3.45636e-06
0.000286843
-3.2774e-06
0.000288785
-3.11005e-06
0.000290717
-2.96132e-06
0.000292643
-2.83741e-06
0.00029457
-2.74482e-06
0.000296504
-2.68887e-06
0.000298453
-2.67525e-06
0.000300429
-2.70792e-06
0.000302442
-2.79132e-06
0.000304504
-2.92724e-06
0.000306627
-3.11825e-06
0.000308825
-3.36351e-06
0.00031111
-3.66395e-06
0.000313494
-4.01612e-06
0.00031599
-4.4198e-06
0.000318608
-4.86926e-06
0.00032136
-5.36414e-06
0.000324256
-5.89593e-06
0.000327304
-6.46424e-06
0.000330511
-7.05759e-06
0.000333884
-7.6768e-06
0.000337425
-8.30726e-06
0.000341139
-8.95245e-06
0.000345022
-9.59422e-06
0.00034908
-1.02403e-05
0.000353303
-1.08682e-05
0.000357694
-1.14917e-05
0.00036224
-1.20833e-05
0.000366945
-1.26645e-05
0.000371789
-1.32019e-05
0.000376776
-1.37259e-05
0.000381884
-1.41971e-05
0.000387118
-1.46546e-05
0.000392452
-1.50547e-05
0.000397891
-1.54407e-05
0.000403412
-1.57738e-05
0.000409011
-1.60867e-05
0.000414679
-1.637e-05
0.000420393
-1.66079e-05
0.000426175
-1.68807e-05
0.000431955
-1.70327e-05
-1.73848e-05
0.000492003
-1.59162e-06
0.000490709
-1.2567e-06
0.000489375
-9.3922e-07
0.000488011
-6.46526e-07
0.000486627
-3.84988e-07
0.00048524
-1.59818e-07
0.00048386
3.15509e-08
0.000482476
2.11185e-07
0.000481112
3.43089e-07
0.000479784
4.34786e-07
0.000478504
4.88722e-07
0.000477284
5.064e-07
0.000476134
4.89534e-07
0.000475061
4.39427e-07
0.000474073
3.55582e-07
0.000473176
2.36147e-07
0.000472377
7.95329e-08
0.000471667
-9.7282e-08
0.000471042
-2.99364e-07
0.000470521
-5.39715e-07
0.000470102
-8.13723e-07
0.000469786
-1.12026e-06
0.000469578
-1.45338e-06
0.000469471
-1.79875e-06
0.000469459
-2.15184e-06
0.000469539
-2.5067e-06
0.000469702
-2.85812e-06
0.000469944
-3.20123e-06
0.000470258
-3.53104e-06
0.000470638
-3.84285e-06
0.000471078
-4.13242e-06
0.000471571
-4.39598e-06
0.000472113
-4.63006e-06
0.0004727
-4.83194e-06
0.000473327
-4.99945e-06
0.000473992
-5.13094e-06
0.000474693
-5.22482e-06
0.000475426
-5.28023e-06
0.00047619
-5.29728e-06
0.000476984
-5.27793e-06
0.000477808
-5.22549e-06
0.000478664
-5.14492e-06
0.000479553
-5.04155e-06
0.000480479
-4.92109e-06
0.000481446
-4.78865e-06
0.000482457
-4.65065e-06
0.000483514
-4.51303e-06
0.000484619
-4.38299e-06
0.000485776
-4.26654e-06
0.000486986
-4.17113e-06
0.00048825
-4.10229e-06
0.000489573
-4.06747e-06
0.000490955
-4.07106e-06
0.0004924
-4.11974e-06
0.000493908
-4.21593e-06
0.000495482
-4.36565e-06
0.000497124
-4.56896e-06
0.000498837
-4.83098e-06
0.000500622
-5.14865e-06
0.000502484
-5.52652e-06
0.000504426
-5.95813e-06
0.000506454
-6.44778e-06
0.00050857
-6.98458e-06
0.000510778
-7.57296e-06
0.00051308
-8.19733e-06
0.00051548
-8.86414e-06
0.000517975
-9.55338e-06
0.000520573
-1.02748e-05
0.000523269
-1.10028e-05
0.000526069
-1.1752e-05
0.000528965
-1.24909e-05
0.000531965
-1.32404e-05
0.00053506
-1.39625e-05
0.000538254
-1.46861e-05
0.000541537
-1.53667e-05
0.000544914
-1.60414e-05
0.000548373
-1.66602e-05
0.000551915
-1.72681e-05
0.00055553
-1.78125e-05
0.000559217
-1.83413e-05
0.000562969
-1.88071e-05
0.000566778
-1.92492e-05
0.000570645
-1.96413e-05
0.00057455
-1.99913e-05
0.000578506
-2.03259e-05
0.000582476
-2.05781e-05
0.000586481
-2.08864e-05
0.000590477
-2.10287e-05
-2.13706e-05
0.00069545
-9.11939e-07
0.000694931
-7.37698e-07
0.000694546
-5.54171e-07
0.00069427
-3.70312e-07
0.000694079
-1.93947e-07
0.000693948
-2.89265e-08
0.000693888
9.2286e-08
0.000693907
1.92238e-07
0.000693983
2.66107e-07
0.000694107
3.11495e-07
0.000694268
3.27729e-07
0.00069446
3.1446e-07
0.000694677
2.72118e-07
0.000694915
2.01823e-07
0.000695165
1.04876e-07
0.000695417
-1.52431e-08
0.000695688
-1.91825e-07
0.000695978
-3.86792e-07
0.000696284
-6.05648e-07
0.000696592
-8.47401e-07
0.000696889
-1.11083e-06
0.000697162
-1.3934e-06
0.000697398
-1.68997e-06
0.000697594
-1.99437e-06
0.000697744
-2.30154e-06
0.000697844
-2.60641e-06
0.000697889
-2.90343e-06
0.000697875
-3.18751e-06
0.000697798
-3.45409e-06
0.000697655
-3.69934e-06
0.000697442
-3.91975e-06
0.000697158
-4.11235e-06
0.000696803
-4.27426e-06
0.000696374
-4.4034e-06
0.000695873
-4.49843e-06
0.000695302
-4.55994e-06
0.000694666
-4.58915e-06
0.000693973
-4.58737e-06
0.000693232
-4.55606e-06
0.000692453
-4.49857e-06
0.000691646
-4.41842e-06
0.000690822
-4.3209e-06
0.000689991
-4.21064e-06
0.000689164
-4.09409e-06
0.000688352
-3.97632e-06
0.000687565
-3.86446e-06
0.000686816
-3.76322e-06
0.000686112
-3.67934e-06
0.000685462
-3.61677e-06
0.000684874
-3.58338e-06
0.000684354
-3.5823e-06
0.000683908
-3.62134e-06
0.000683539
-3.70205e-06
0.000683252
-3.8321e-06
0.000683046
-4.01058e-06
0.000682926
-4.24507e-06
0.000682889
-4.53179e-06
0.000682936
-4.87837e-06
0.000683065
-5.27734e-06
0.000683275
-5.73668e-06
0.000683561
-6.24472e-06
0.000683924
-6.81032e-06
0.000684356
-7.41713e-06
0.000684859
-8.07568e-06
0.000685426
-8.76451e-06
0.000686059
-9.49684e-06
0.000686752
-1.02459e-05
0.000687505
-1.10286e-05
0.000688315
-1.18128e-05
0.000689183
-1.26199e-05
0.000690105
-1.34128e-05
0.000691082
-1.42175e-05
0.000692113
-1.4993e-05
0.000693196
-1.57695e-05
0.000694334
-1.65044e-05
0.000695522
-1.72298e-05
0.000696768
-1.79058e-05
0.000698061
-1.85614e-05
0.000699416
-1.9167e-05
0.000700813
-1.97389e-05
0.000702276
-2.02702e-05
0.000703776
-2.07484e-05
0.000705345
-2.12102e-05
0.000706941
-2.15873e-05
0.000708608
-2.19934e-05
0.000710291
-2.2261e-05
0.000712038
-2.26333e-05
0.000713784
-2.27747e-05
-2.3145e-05
0.00080949
5.58689e-07
0.000808355
3.97452e-07
0.000807543
2.57125e-07
0.000807057
1.16396e-07
0.000806886
-2.37126e-08
0.000807008
-1.50404e-07
0.000807383
-2.82642e-07
0.000807997
-4.21971e-07
0.000808833
-5.70088e-07
0.000809872
-7.27778e-07
0.000811095
-8.95263e-07
0.000812483
-1.07259e-06
0.000814014
-1.25962e-06
0.000815672
-1.456e-06
0.000817439
-1.66184e-06
0.000819301
-1.87758e-06
0.000821213
-2.10318e-06
0.000823162
-2.33594e-06
0.000825131
-2.57504e-06
0.000827103
-2.8197e-06
0.000829062
-3.06957e-06
0.000830991
-3.32205e-06
0.000832872
-3.57131e-06
0.000834691
-3.81334e-06
0.000836434
-4.04402e-06
0.000838087
-4.25963e-06
0.00083964
-4.45649e-06
0.000841083
-4.63108e-06
0.000842409
-4.77976e-06
0.000843609
-4.89945e-06
0.000844677
-4.98715e-06
0.000845605
-5.04087e-06
0.00084639
-5.05879e-06
0.000847027
-5.0404e-06
0.000847514
-4.98547e-06
0.000847849
-4.8954e-06
0.000848031
-4.7714e-06
0.00084806
-4.61639e-06
0.000847937
-4.433e-06
0.000847665
-4.22622e-06
0.000847247
-4.00018e-06
0.000846687
-3.76162e-06
0.000845992
-3.51561e-06
0.000845168
-3.27014e-06
0.000844222
-3.0303e-06
0.000843163
-2.80487e-06
0.000841998
-2.59838e-06
0.000840739
-2.41999e-06
0.000839395
-2.2732e-06
0.000837979
-2.16743e-06
0.000836501
-2.10455e-06
0.000834974
-2.09416e-06
0.000833407
-2.13499e-06
0.000831811
-2.23604e-06
0.000830194
-2.39337e-06
0.000828565
-2.61647e-06
0.000826931
-2.89771e-06
0.0008253
-3.24673e-06
0.000823674
-3.65184e-06
0.000822061
-4.12361e-06
0.000820462
-4.64593e-06
0.000818882
-5.23054e-06
0.000817322
-5.8567e-06
0.000815784
-6.53818e-06
0.00081427
-7.24974e-06
0.00081278
-8.00751e-06
0.000811317
-8.78218e-06
0.00080988
-9.59233e-06
0.000808473
-1.04055e-05
0.000807095
-1.12421e-05
0.000805751
-1.20686e-05
0.000804439
-1.29057e-05
0.000803168
-1.37224e-05
0.000801935
-1.45358e-05
0.000800753
-1.53226e-05
0.000799613
-1.60902e-05
0.000798539
-1.68319e-05
0.000797513
-1.75347e-05
0.000796568
-1.82222e-05
0.000795673
-1.88443e-05
0.000794879
-1.94756e-05
0.000794134
-2.00042e-05
0.000793509
-2.05849e-05
0.00079293
-2.10084e-05
0.000792489
-2.15523e-05
0.000792086
-2.18574e-05
0.000791837
-2.23847e-05
0.000791612
-2.25498e-05
-2.30741e-05
0.000850462
2.2555e-06
0.000849201
1.65901e-06
0.000848366
1.09183e-06
0.000847936
5.47042e-07
0.00084788
3.20346e-08
0.000848206
-4.76834e-07
0.000848888
-9.6427e-07
0.000849902
-1.43598e-06
0.000851225
-1.89311e-06
0.000852832
-2.3353e-06
0.000854699
-2.76167e-06
0.000856798
-3.17167e-06
0.000859104
-3.56524e-06
0.00086159
-3.94228e-06
0.000864231
-4.30277e-06
0.000867
-4.64702e-06
0.000869872
-4.97526e-06
0.000872824
-5.28792e-06
0.000875834
-5.58514e-06
0.000878881
-5.86646e-06
0.000881943
-6.131e-06
0.000884998
-6.37704e-06
0.000888028
-6.60193e-06
0.000891018
-6.80344e-06
0.000893954
-6.97927e-06
0.000896821
-7.12695e-06
0.000899608
-7.24339e-06
0.000902302
-7.32578e-06
0.000904894
-7.37121e-06
0.000907372
-7.3774e-06
0.000909727
-7.34204e-06
0.00091195
-7.26382e-06
0.000914032
-7.14151e-06
0.000915967
-6.97533e-06
0.000917747
-6.76512e-06
0.000919364
-6.51282e-06
0.000920813
-6.2199e-06
0.000922087
-5.89039e-06
0.000923181
-5.52732e-06
0.000924092
-5.13681e-06
0.000924815
-4.72319e-06
0.000925348
-4.29447e-06
0.000925688
-3.85586e-06
0.000925835
-3.41686e-06
0.000925787
-2.98272e-06
0.000925546
-2.5641e-06
0.000925113
-2.16558e-06
0.000924492
-1.79845e-06
0.000923685
-1.46581e-06
0.000922696
-1.1791e-06
0.000921531
-9.39121e-07
0.000920196
-7.5925e-07
0.000918697
-6.36548e-07
0.000917045
-5.83594e-07
0.000915247
-5.94972e-07
0.000913313
-6.82561e-07
0.000911251
-8.36148e-07
0.000909073
-1.0684e-06
0.000906786
-1.36481e-06
0.000904401
-1.73883e-06
0.000901926
-2.17104e-06
0.000899372
-2.67671e-06
0.000896747
-3.23182e-06
0.000894062
-3.85323e-06
0.000891325
-4.51233e-06
0.000888545
-5.22799e-06
0.000885732
-5.96861e-06
0.000882894
-6.75469e-06
0.000880043
-7.55379e-06
0.000877186
-8.38585e-06
0.000874338
-9.22063e-06
0.000871506
-1.00735e-05
0.000868706
-1.09224e-05
0.000865942
-1.17715e-05
0.000863236
-1.26163e-05
0.000860584
-1.34386e-05
0.000858018
-1.42661e-05
0.000855525
-1.50409e-05
0.000853146
-1.58437e-05
0.000850853
-1.65514e-05
0.000848706
-1.73283e-05
0.000846651
-1.79494e-05
0.000844772
-1.87059e-05
0.000842983
-1.9219e-05
0.000841398
-1.99672e-05
0.000839888
-2.03474e-05
0.000838612
-2.11093e-05
0.000837391
-2.13282e-05
-2.21399e-05
0.000864859
3.23341e-06
0.000864349
2.16843e-06
0.000864298
1.14283e-06
0.000864697
1.48202e-07
0.000865494
-7.65038e-07
0.000866673
-1.65533e-06
0.000868216
-2.50695e-06
0.000870096
-3.31637e-06
0.000872284
-4.08081e-06
0.000874747
-4.79883e-06
0.000877455
-5.46955e-06
0.000880376
-6.09244e-06
0.000883479
-6.6681e-06
0.000886734
-7.19789e-06
0.000890115
-7.68363e-06
0.000893596
-8.12751e-06
0.000897152
-8.53173e-06
0.000900763
-8.89854e-06
0.000904407
-9.22973e-06
0.000908067
-9.5265e-06
0.000911726
-9.78948e-06
0.000915368
-1.00192e-05
0.000918981
-1.0215e-05
0.000922553
-1.03757e-05
0.000926073
-1.04995e-05
0.000929531
-1.05846e-05
0.000932916
-1.06287e-05
0.00093622
-1.06297e-05
0.000939434
-1.05849e-05
0.000942549
-1.04923e-05
0.000945557
-1.03496e-05
0.000948448
-1.01554e-05
0.000951215
-9.90792e-06
0.000953846
-9.60728e-06
0.000956334
-9.25309e-06
0.000958669
-8.84754e-06
0.000960841
-8.39187e-06
0.000962841
-7.8905e-06
0.00096466
-7.34622e-06
0.000966289
-6.76571e-06
0.000967719
-6.15329e-06
0.000968943
-5.51789e-06
0.000969951
-4.86475e-06
0.000970739
-4.2048e-06
0.0009713
-3.5436e-06
0.00097163
-2.89352e-06
0.000971724
-2.25945e-06
0.00097158
-1.65467e-06
0.000971197
-1.08257e-06
0.000970575
-5.57772e-07
0.000969715
-7.86305e-08
0.000968635
3.20075e-07
0.000967332
6.66603e-07
0.000965811
9.37923e-07
0.000964077
1.13901e-06
0.00096214
1.25444e-06
0.000960008
1.29517e-06
0.000957695
1.24508e-06
0.00095521
1.12052e-06
0.000952567
9.04232e-07
0.000949777
6.18271e-07
0.000946857
2.4393e-07
0.000943816
-1.91446e-07
0.000940673
-7.09861e-07
0.000937439
-1.27857e-06
0.000934134
-1.92246e-06
0.000930769
-2.60438e-06
0.000927365
-3.35077e-06
0.000923934
-4.12238e-06
0.000920493
-4.945e-06
0.000917055
-5.78275e-06
0.000913639
-6.65728e-06
0.00091026
-7.54357e-06
0.000906937
-8.44791e-06
0.000903686
-9.36556e-06
0.00090052
-1.02732e-05
0.000897462
-1.12077e-05
0.000894515
-1.20934e-05
0.000891707
-1.30359e-05
0.000889029
-1.38731e-05
0.00088652
-1.48202e-05
0.00088415
-1.55791e-05
0.000881977
-1.65325e-05
0.000879935
-1.71778e-05
0.000878114
-1.81455e-05
0.000876401
-1.86343e-05
0.000874925
-1.96335e-05
0.000873512
-1.99157e-05
-2.09964e-05
0.000895314
3.44536e-06
0.000895554
1.92827e-06
0.000896208
4.89179e-07
0.000897259
-9.02886e-07
0.000898697
-2.20335e-06
0.000900475
-3.43295e-06
0.000902554
-4.5862e-06
0.000904898
-5.66037e-06
0.000907471
-6.65385e-06
0.000910238
-7.5652e-06
0.000913162
-8.39425e-06
0.000916212
-9.14237e-06
0.000919356
-9.81219e-06
0.000922566
-1.04077e-05
0.000925817
-1.09344e-05
0.000929088
-1.13987e-05
0.000932363
-1.18069e-05
0.00093563
-1.2165e-05
0.000938878
-1.24781e-05
0.000942102
-1.27502e-05
0.000945297
-1.29844e-05
0.000948461
-1.31828e-05
0.000951592
-1.33462e-05
0.00095469
-1.34744e-05
0.000957757
-1.35663e-05
0.000960793
-1.36201e-05
0.000963797
-1.36333e-05
0.000966771
-1.3603e-05
0.000969711
-1.35258e-05
0.000972618
-1.33986e-05
0.000975486
-1.32177e-05
0.000978311
-1.29806e-05
0.000981087
-1.2684e-05
0.000983806
-1.23265e-05
0.000986459
-1.19062e-05
0.000989036
-1.14237e-05
0.000991522
-1.08785e-05
0.000993905
-1.02737e-05
0.00099617
-9.61105e-06
0.000998301
-8.89634e-06
0.00100028
-8.13325e-06
0.00100209
-7.33066e-06
0.00100372
-6.49393e-06
0.00100515
-5.63452e-06
0.00100637
-4.75879e-06
0.00100735
-3.8804e-06
0.0010081
-3.006e-06
0.0010086
-2.151e-06
0.00100884
-1.32113e-06
0.00100881
-5.33292e-07
0.00100851
2.2762e-07
0.0010079
9.21446e-07
0.00100702
1.54948e-06
0.00100586
2.09512e-06
0.00100444
2.56404e-06
0.00100275
2.94016e-06
0.00100081
3.23363e-06
0.000998635
3.42493e-06
0.000996226
3.52884e-06
0.000993605
3.5253e-06
0.000990787
3.43643e-06
0.000987792
3.23925e-06
0.000984637
2.96313e-06
0.000981346
2.58177e-06
0.000977934
2.13294e-06
0.000974427
1.58501e-06
0.00097084
9.82816e-07
0.000967199
2.8989e-07
0.000963524
-4.47833e-07
0.000959843
-1.26411e-06
0.00095617
-2.10967e-06
0.000952534
-3.02069e-06
0.000948941
-3.95089e-06
0.000945419
-4.92554e-06
0.00094197
-5.91718e-06
0.000938624
-6.92725e-06
0.000935383
-7.96631e-06
0.000932271
-8.98136e-06
0.000929288
-1.00533e-05
0.000926453
-1.10374e-05
0.000923765
-1.21327e-05
0.000921231
-1.30451e-05
0.000918858
-1.41592e-05
0.000916631
-1.49506e-05
0.00091457
-1.60846e-05
0.000912629
-1.66939e-05
0.000910851
-1.78556e-05
0.000909138
-1.82018e-05
-1.93931e-05
0.000939577
3.97775e-06
0.000939415
2.09016e-06
0.000939591
3.13452e-07
0.000940034
-1.34605e-06
0.000940711
-2.88072e-06
0.00094157
-4.29141e-06
0.000942561
-5.57743e-06
0.000943646
-6.74541e-06
0.00094479
-7.79833e-06
0.000945964
-8.73905e-06
0.000947141
-9.57117e-06
0.000948299
-1.02999e-05
0.000949419
-1.09328e-05
0.000950491
-1.14794e-05
0.000951508
-1.19511e-05
0.000952469
-1.23598e-05
0.000953379
-1.27169e-05
0.000954248
-1.30341e-05
0.000955092
-1.33219e-05
0.000955928
-1.35865e-05
0.000956775
-1.38318e-05
0.000957653
-1.40602e-05
0.000958579
-1.42727e-05
0.000959574
-1.44691e-05
0.000960655
-1.46476e-05
0.000961841
-1.48054e-05
0.000963146
-1.49383e-05
0.000964584
-1.50417e-05
0.000966168
-1.51096e-05
0.000967906
-1.51364e-05
0.000969803
-1.51152e-05
0.000971863
-1.50399e-05
0.000974082
-1.49038e-05
0.000976458
-1.47016e-05
0.000978979
-1.44275e-05
0.000981633
-1.40782e-05
0.000984405
-1.36499e-05
0.000987273
-1.31421e-05
0.000990216
-1.25537e-05
0.000993207
-1.18876e-05
0.000996219
-1.11456e-05
0.000999223
-1.0334e-05
0.00100219
-9.45735e-06
0.00100508
-8.52562e-06
0.00100786
-7.54562e-06
0.00101051
-6.53035e-06
0.001013
-5.4883e-06
0.00101528
-4.43478e-06
0.00101734
-3.37941e-06
0.00101915
-2.34031e-06
0.0010207
-1.32595e-06
0.00102198
-3.5848e-07
0.00102293
6.01874e-07
0.00102354
1.48238e-06
0.00102381
2.28905e-06
0.00102375
3.00546e-06
0.00102335
3.63674e-06
0.00102261
4.16106e-06
0.00102155
4.5864e-06
0.00102018
4.89488e-06
0.00101852
5.10179e-06
0.00101657
5.18816e-06
0.00101436
5.17593e-06
0.0010119
5.04003e-06
0.00100922
4.81164e-06
0.00100634
4.46125e-06
0.00100329
4.03073e-06
0.0010001
3.48457e-06
0.000996776
2.87561e-06
0.000993351
2.16081e-06
0.000989839
1.4026e-06
0.000986265
5.53569e-07
0.000982661
-3.47326e-07
0.000979069
-1.33323e-06
0.000975483
-2.33165e-06
0.000971944
-3.38815e-06
0.000968435
-4.45735e-06
0.000965003
-5.54942e-06
0.000961618
-6.6675e-06
0.000958332
-7.75161e-06
0.000955099
-8.89958e-06
0.000951977
-9.92372e-06
0.000948905
-1.10872e-05
0.000945943
-1.19886e-05
0.000943018
-1.31598e-05
0.000940185
-1.38606e-05
0.000937371
-1.5041e-05
0.000934611
-1.54424e-05
-1.6634e-05
0.000967592
6.63998e-06
0.000964977
4.7049e-06
0.000962383
2.90795e-06
0.000959788
1.24914e-06
0.000957213
-3.0588e-07
0.000954661
-1.73979e-06
0.000952079
-2.99479e-06
0.000949458
-4.12465e-06
0.000946774
-5.11494e-06
0.000943998
-5.96286e-06
0.000941101
-6.67405e-06
0.000938065
-7.26384e-06
0.000934878
-7.7456e-06
0.000931526
-8.12802e-06
0.000928017
-8.44176e-06
0.000924377
-8.71942e-06
0.000920647
-8.98723e-06
0.000916879
-9.26573e-06
0.000913134
-9.57769e-06
0.000909478
-9.93013e-06
0.000905976
-1.03295e-05
0.000902691
-1.07756e-05
0.000899684
-1.12658e-05
0.000897011
-1.17957e-05
0.00089472
-1.23571e-05
0.000892855
-1.29397e-05
0.000891448
-1.35312e-05
0.000890525
-1.4119e-05
0.000890105
-1.46896e-05
0.000890198
-1.52297e-05
0.000890809
-1.57256e-05
0.000891933
-1.61646e-05
0.000893564
-1.6534e-05
0.000895684
-1.68223e-05
0.000898275
-1.70185e-05
0.000901311
-1.71139e-05
0.000904761
-1.71003e-05
0.000908592
-1.69727e-05
0.000912765
-1.67266e-05
0.000917239
-1.63613e-05
0.00092197
-1.58769e-05
0.000926913
-1.52771e-05
0.000932022
-1.45665e-05
0.00093725
-1.37531e-05
0.000942548
-1.2844e-05
0.000947868
-1.18502e-05
0.000953162
-1.07824e-05
0.000958382
-9.65435e-06
0.000963481
-8.47864e-06
0.000968412
-7.27155e-06
0.000973133
-6.04686e-06
0.000977596
-4.82189e-06
0.000981807
-3.60876e-06
0.000985717
-2.42773e-06
0.000989299
-1.29284e-06
0.000992529
-2.24096e-07
0.000995342
8.22978e-07
0.000997741
1.76222e-06
0.000999722
2.60555e-06
0.00100127
3.34305e-06
0.0010024
3.97131e-06
0.00100311
4.48213e-06
0.00100341
4.87503e-06
0.00100331
5.14099e-06
0.00100283
5.28888e-06
0.00100199
5.30853e-06
0.0010008
5.21715e-06
0.000999284
5.00018e-06
0.000997474
4.68498e-06
0.000995388
4.24737e-06
0.000993059
3.73093e-06
0.000990513
3.10025e-06
0.00098775
2.41581e-06
0.000984788
1.62813e-06
0.000981643
8.13375e-07
0.000978358
-1.03437e-07
0.000974934
-1.03309e-06
0.000971419
-2.03394e-06
0.000967774
-3.02325e-06
0.000964074
-4.05114e-06
0.000960248
-5.07352e-06
0.000956394
-6.06929e-06
0.000952405
-7.09849e-06
0.000948405
-7.98918e-06
0.000944253
-9.00762e-06
0.000940099
-9.70659e-06
0.000935768
-1.07102e-05
0.000931431
-1.11046e-05
-1.20772e-05
0.000941137
1.17864e-05
0.000935838
1.00041e-05
0.000930325
8.42081e-06
0.000924509
7.06502e-06
0.000918235
5.96805e-06
0.000911392
5.10335e-06
0.000903955
4.44196e-06
0.000895887
3.94306e-06
0.000887205
3.56706e-06
0.000877965
3.2778e-06
0.000868249
3.04222e-06
0.000858158
2.82701e-06
0.000847816
2.59633e-06
0.000837374
2.31397e-06
0.000826985
1.94716e-06
0.000816795
1.47071e-06
0.000806937
8.70052e-07
0.000797521
1.50605e-07
0.000788735
-7.91726e-07
0.000780633
-1.82833e-06
0.000773277
-2.97276e-06
0.000766714
-4.21258e-06
0.000760977
-5.52939e-06
0.000756093
-6.91122e-06
0.000752073
-8.33733e-06
0.000748919
-9.78603e-06
0.000746624
-1.12359e-05
0.000745172
-1.26666e-05
0.000744541
-1.40588e-05
0.000744706
-1.53946e-05
0.000745637
-1.66572e-05
0.000747304
-1.78315e-05
0.000749673
-1.89031e-05
0.00075271
-1.98591e-05
0.000756379
-2.06878e-05
0.000760644
-2.1379e-05
0.000765468
-2.19237e-05
0.00077081
-2.23152e-05
0.000776632
-2.2548e-05
0.00078289
-2.26192e-05
0.00078954
-2.25274e-05
0.000796537
-2.22742e-05
0.000803833
-2.18625e-05
0.000811379
-2.12984e-05
0.000819123
-2.05889e-05
0.000827017
-1.97439e-05
0.000835009
-1.87739e-05
0.000843047
-1.76925e-05
0.000851081
-1.65133e-05
0.000859061
-1.52512e-05
0.000866936
-1.39218e-05
0.000874655
-1.25412e-05
0.000882173
-1.11263e-05
0.000889439
-9.69425e-06
0.000896411
-8.26398e-06
0.000903037
-6.85031e-06
0.000909329
-5.46949e-06
0.000915229
-4.13784e-06
0.00092071
-2.87503e-06
0.000925742
-1.68916e-06
0.000930316
-6.02256e-07
0.000934377
4.21003e-07
0.000937929
1.32258e-06
0.000940962
2.10833e-06
0.000943489
2.76169e-06
0.000945499
3.29903e-06
0.000947017
3.69913e-06
0.000948027
3.99014e-06
0.000948566
4.14544e-06
0.000948617
4.19618e-06
0.000948226
4.12207e-06
0.000947372
3.95423e-06
0.000946113
3.67486e-06
0.000944429
3.31193e-06
0.000942379
2.86342e-06
0.000939932
2.34423e-06
0.000937127
1.77117e-06
0.000933961
1.13201e-06
0.000930461
4.77668e-07
0.00092664
-2.30373e-07
0.000922474
-9.07417e-07
0.000918043
-1.63884e-06
0.000913239
-2.2946e-06
0.000908232
-2.98156e-06
0.000902802
-3.57834e-06
0.000897241
-4.14463e-06
0.000891209
-4.67879e-06
0.000885138
-5.0339e-06
-5.55641e-06
0.000866938
2.13755e-05
0.000855946
2.09964e-05
0.000843509
2.0858e-05
0.000829651
2.09224e-05
0.00081451
2.11092e-05
0.000798331
2.12825e-05
0.000781403
2.13694e-05
0.000764029
2.13178e-05
0.000746518
2.10778e-05
0.000729182
2.06138e-05
0.000712317
1.99074e-05
0.000696189
1.89549e-05
0.000681021
1.77645e-05
0.000666983
1.63516e-05
0.000654193
1.47367e-05
0.000642721
1.29433e-05
0.000632593
1.09975e-05
0.000623818
8.92545e-06
0.00061628
6.74617e-06
0.000609963
4.48924e-06
0.000604817
2.17279e-06
0.000600749
-1.44192e-07
0.00059763
-2.41056e-06
0.000595413
-4.69399e-06
0.000594029
-6.95385e-06
0.000593415
-9.17165e-06
0.000593511
-1.1332e-05
0.000594266
-1.34214e-05
0.000595634
-1.54274e-05
0.000597579
-1.73387e-05
0.000600066
-1.91446e-05
0.00060307
-2.08351e-05
0.000606567
-2.24005e-05
0.000610539
-2.38315e-05
0.000614971
-2.51193e-05
0.000619847
-2.62555e-05
0.000625156
-2.72322e-05
0.000630883
-2.80426e-05
0.000637016
-2.86808e-05
0.000643539
-2.91424e-05
0.000650436
-2.94245e-05
0.000657689
-2.95264e-05
0.000665275
-2.9449e-05
0.000673172
-2.91953e-05
0.000681352
-2.87693e-05
0.000689785
-2.8177e-05
0.000698437
-2.74257e-05
0.000707269
-2.65244e-05
0.00071624
-2.54837e-05
0.000725304
-2.43158e-05
0.000734416
-2.3034e-05
0.000743528
-2.16528e-05
0.00075259
-2.01881e-05
0.000761552
-1.86561e-05
0.000770362
-1.70747e-05
0.000778972
-1.54598e-05
0.000787333
-1.38308e-05
0.000795398
-1.22032e-05
0.000803122
-1.05984e-05
0.00081046
-9.02721e-06
0.00081737
-7.51183e-06
0.000823846
-6.05524e-06
0.000829852
-4.68414e-06
0.000835356
-3.39482e-06
0.000840334
-2.21668e-06
0.000844767
-1.13403e-06
0.000848658
-1.91718e-07
0.000851924
7.24458e-07
0.000854595
1.47424e-06
0.000856655
2.13647e-06
0.00085813
2.64676e-06
0.00085899
3.09371e-06
0.000859278
3.38674e-06
0.000858943
3.64734e-06
0.000858052
3.75459e-06
0.000856533
3.86295e-06
0.000854481
3.82355e-06
0.000851793
3.81989e-06
0.000848586
3.68453e-06
0.000844744
3.61152e-06
0.000840396
3.44096e-06
0.000835415
3.34141e-06
0.000829915
3.206e-06
0.00082381
3.12369e-06
0.000817118
3.11293e-06
0.00080989
3.08398e-06
0.00080196
3.25061e-06
0.000793667
3.2595e-06
3.60533e-06
0.000689939
4.01603e-05
0.000670825
4.011e-05
0.000651785
3.9898e-05
0.000633225
3.94826e-05
0.000615502
3.88325e-05
0.000598862
3.79226e-05
0.00058349
3.67414e-05
0.000569518
3.52897e-05
0.000557019
3.35768e-05
0.000546014
3.16191e-05
0.000536482
2.94391e-05
0.000528374
2.70633e-05
0.000521616
2.45217e-05
0.000516123
2.18451e-05
0.000511796
1.90639e-05
0.000508532
1.62065e-05
0.00050623
1.33e-05
0.000504785
1.03708e-05
0.000504091
7.44024e-06
0.000504052
4.5275e-06
0.000504593
1.63182e-06
0.000505545
-1.09564e-06
0.000506853
-3.71878e-06
0.000508448
-6.28946e-06
0.000510275
-8.78047e-06
0.000512283
-1.11797e-05
0.000514431
-1.34797e-05
0.000516685
-1.56757e-05
0.000519022
-1.77644e-05
0.000521427
-1.97435e-05
0.000523893
-2.16111e-05
0.000526424
-2.33654e-05
0.000529027