/*--------------------------------*- C++ -*----------------------------------*\
| =========                 |                                                 |
| \\      /  F ield         | OpenFOAM: The Open Source CFD Toolbox           |
|  \\    /   O peration     | Version:  2312                                  |
|   \\  /    A nd           | Website:  www.openfoam.com                      |
|    \\/     M anipulation  |                                                 |
\*---------------------------------------------------------------------------*/
FoamFile
{
    version     2.0;
    format      ascii;
    arch        "LSB;label=32;scalar=64";
    class       surfaceScalarField;
    location    "96000";
    object      phi;
}
// * * * * * * * * * * * * * * * * * * * * * * * * * * * * * * * * * * * * * //

dimensions      [0 3 -1 0 0 0 0];

oriented        oriented;

internalField   nonuniform List<scalar> 
21240
(
0.000664974
1.69227e-06
0.000661072
3.90242e-06
0.000655751
5.32087e-06
0.000649515
6.23637e-06
0.00064264
6.87503e-06
0.000635268
7.37153e-06
0.000627492
7.77635e-06
0.000619389
8.10254e-06
0.000611033
8.35611e-06
0.000602487
8.54604e-06
0.000593802
8.68464e-06
0.000585018
8.7842e-06
0.000576164
8.85436e-06
0.000567263
8.90143e-06
0.000558333
8.92923e-06
0.000549393
8.94023e-06
0.000540457
8.93624e-06
0.000531538
8.91885e-06
0.000522649
8.88936e-06
0.0005138
8.84888e-06
0.000505002
8.79819e-06
0.000496264
8.73792e-06
0.000487595
8.66846e-06
0.000479005
8.59012e-06
0.000470502
8.50312e-06
0.000462094
8.4076e-06
0.000453791
8.30367e-06
0.000445599
8.19135e-06
0.000437528
8.07077e-06
0.000429587
7.94178e-06
0.000421782
7.80461e-06
0.000414123
7.6589e-06
0.000406618
7.50516e-06
0.000399275
7.34263e-06
0.000392103
7.17238e-06
0.00038511
6.99291e-06
0.000378304
6.80638e-06
0.000371694
6.60985e-06
0.000365286
6.40754e-06
0.000359093
6.19378e-06
0.000353116
5.97657e-06
0.000347371
5.74517e-06
0.000341856
5.5145e-06
0.000336592
5.26446e-06
0.000331569
5.02264e-06
0.000326818
4.75163e-06
0.000322315
4.50222e-06
0.00031811
4.2051e-06
0.000314156
3.95386e-06
0.000310537
3.61922e-06
0.000307161
3.37647e-06
0.000304183
2.97795e-06
0.000301416
2.76665e-06
0.00029918
2.23649e-06
0.000297063
2.11705e-06
0.000295821
1.24208e-06
0.000294345
1.47523e-06
0.000294559
-2.13648e-07
0.000293401
1.15805e-06
-3.20267e-06
0.000296604
0.000667556
8.02991e-07
0.00066912
2.33794e-06
0.000670854
3.5875e-06
0.000672525
4.56546e-06
0.000674054
5.34622e-06
0.000675426
5.99857e-06
0.000676639
6.56415e-06
0.00067768
7.06136e-06
0.000678539
7.49725e-06
0.000679208
7.87626e-06
0.000679689
8.20401e-06
0.000679986
8.48743e-06
0.000680107
8.73353e-06
0.00068006
8.94818e-06
0.000679854
9.13569e-06
0.000679495
9.29899e-06
0.000678991
9.44023e-06
0.000678349
9.56098e-06
0.000677575
9.66271e-06
0.000676678
9.74646e-06
0.000675663
9.81336e-06
0.000674537
9.86396e-06
0.000673306
9.89909e-06
0.000671977
9.91882e-06
0.000670556
9.92388e-06
0.00066905
9.91388e-06
0.000667464
9.88969e-06
0.000665805
9.85038e-06
0.000664079
9.79726e-06
0.000662292
9.7286e-06
0.00066045
9.64653e-06
0.000658561
9.54814e-06
0.000656629
9.43697e-06
0.000654663
9.30823e-06
0.000652668
9.16783e-06
0.000650653
9.00791e-06
0.000648621
8.83836e-06
0.000646584
8.64623e-06
0.000644544
8.44799e-06
0.000642515
8.22227e-06
0.000640496
7.99644e-06
0.000638506
7.73519e-06
0.000636536
7.48387e-06
0.000634617
7.18409e-06
0.000632728
6.91094e-06
0.000630912
6.5678e-06
0.000629135
6.27889e-06
0.000627456
5.88448e-06
0.00062582
5.58983e-06
0.000624308
5.13125e-06
0.000622837
4.8472e-06
0.000621511
4.30398e-06
0.000620221
4.05698e-06
0.000619059
3.39837e-06
0.000617947
3.22935e-06
0.000616773
2.41582e-06
0.000615868
2.37983e-06
0.000614262
1.39321e-06
0.00061388
1.53975e-06
4.48389e-07
0.000610229
0.000666951
5.18724e-07
0.000667819
1.47034e-06
0.000669058
2.34756e-06
0.000670483
3.14048e-06
0.000671985
3.84496e-06
0.000673515
4.46863e-06
0.000675055
5.02372e-06
0.000676595
5.52134e-06
0.000678123
5.9693e-06
0.000679627
6.37251e-06
0.000681096
6.7345e-06
0.000682525
7.05855e-06
0.000683911
7.34819e-06
0.000685252
7.60687e-06
0.00068655
7.8379e-06
0.000687805
8.04388e-06
0.000689018
8.22705e-06
0.00069019
8.38896e-06
0.000691322
8.5311e-06
0.000692414
8.65437e-06
0.000693467
8.75994e-06
0.000694483
8.84822e-06
0.000695462
8.92023e-06
0.000696405
8.97588e-06
0.000697312
9.01614e-06
0.000698186
9.04041e-06
0.000699026
9.04982e-06
0.000699833
9.04313e-06
0.000700608
9.02191e-06
0.000701353
8.98412e-06
0.000702067
8.93208e-06
0.000702753
8.86261e-06
0.00070341
8.77926e-06
0.000704042
8.67722e-06
0.000704647
8.56196e-06
0.000705229
8.42624e-06
0.000705789
8.27842e-06
0.000706327
8.10775e-06
0.000706849
7.92685e-06
0.000707351
7.71983e-06
0.000707842
7.50553e-06
0.000708316
7.26071e-06
0.000708787
7.01302e-06
0.000709242
6.72891e-06
0.000709705
6.4483e-06
0.000710149
6.12357e-06
0.000710617
5.81108e-06
0.000711057
5.4448e-06
0.000711545
5.10203e-06
0.000711982
4.6942e-06
0.000712506
4.32307e-06
0.000712934
3.8758e-06
0.000713513
3.47802e-06
0.000713913
2.99874e-06
0.000714566
2.5755e-06
0.000714898
2.08473e-06
0.000715641
1.63591e-06
0.000715851
1.18394e-06
0.000716693
6.97784e-07
3.86444e-07
0.000716755
0.000666854
3.31586e-07
0.000667309
1.0156e-06
0.000667972
1.68427e-06
0.000668795
2.3169e-06
0.000669736
2.90427e-06
0.000670761
3.4435e-06
0.000671849
3.93613e-06
0.000672984
4.38582e-06
0.000674157
4.7965e-06
0.000675358
5.17139e-06
0.00067658
5.51299e-06
0.000677815
5.82337e-06
0.000679059
6.1045e-06
0.000680307
6.35837e-06
0.000681558
6.587e-06
0.00068281
6.79221e-06
0.000684061
6.97569e-06
0.000685311
7.13876e-06
0.00068656
7.28263e-06
0.000687806
7.40816e-06
0.00068905
7.51623e-06
0.000690291
7.60735e-06
0.000691529
7.68221e-06
0.000692763
7.74104e-06
0.000693995
7.78437e-06
0.000695223
7.81218e-06
0.000696448
7.82487e-06
0.000697669
7.82219e-06
0.000698887
7.80448e-06
0.000700099
7.77131e-06
0.000701309
7.72297e-06
0.000702512
7.6589e-06
0.000703712
7.57931e-06
0.000704906
7.48363e-06
0.000706096
7.37186e-06
0.000707279
7.24368e-06
0.000708458
7.09859e-06
0.000709629
6.93693e-06
0.000710799
6.75714e-06
0.000711958
6.56107e-06
0.000713118
6.34501e-06
0.000714265
6.11382e-06
0.000715418
5.85961e-06
0.000716554
5.593e-06
0.000717704
5.29835e-06
0.000718831
4.9968e-06
0.000719983
4.65877e-06
0.000721104
4.3242e-06
0.000722267
3.93909e-06
0.000723385
3.57619e-06
0.000724569
3.13946e-06
0.000725687
2.7578e-06
0.000726901
2.26359e-06
0.00072802
1.88011e-06
0.000729276
1.31961e-06
0.000730398
9.62418e-07
0.00073171
3.24192e-07
0.000732851
4.26805e-08
0.0007343
-7.51225e-07
-9.16289e-07
0.000735603
0.000666738
2.59862e-07
0.00066697
7.8436e-07
0.000667356
1.29798e-06
0.000667879
1.79372e-06
0.000668518
2.26568e-06
0.000669251
2.71028e-06
0.000670061
3.12605e-06
0.000670934
3.51309e-06
0.000671858
3.87228e-06
0.000672825
4.20474e-06
0.000673826
4.51156e-06
0.000674856
4.79372e-06
0.000675908
5.05217e-06
0.000676978
5.28789e-06
0.000678064
5.50189e-06
0.000679161
5.69522e-06
0.000680267
5.86886e-06
0.000681382
6.02374e-06
0.000682504
6.16062e-06
0.000683632
6.28021e-06
0.000684766
6.38306e-06
0.000685903
6.4697e-06
0.000687045
6.54046e-06
0.00068819
6.59579e-06
0.000689339
6.63577e-06
0.00069049
6.66081e-06
0.000691644
6.67072e-06
0.000692801
6.66596e-06
0.000693959
6.64601e-06
0.000695119
6.61148e-06
0.00069628
6.56139e-06
0.000697443
6.49677e-06
0.000698606
6.4159e-06
0.000699769
6.32057e-06
0.000700933
6.20792e-06
0.000702096
6.08106e-06
0.000703259
5.93531e-06
0.00070442
5.77599e-06
0.000705581
5.59549e-06
0.00070674
5.40281e-06
0.000707899
5.18554e-06
0.000709054
4.95876e-06
0.000710212
4.70233e-06
0.000711363
4.44116e-06
0.000712519
4.14266e-06
0.000713668
3.84762e-06
0.000714824
3.50335e-06
0.000715972
3.17598e-06
0.00071713
2.78052e-06
0.000718283
2.42345e-06
0.000719454
1.96825e-06
0.000720626
1.58593e-06
0.000721832
1.05809e-06
0.000723053
6.58454e-07
0.000724342
3.13319e-08
0.00072565
-3.45621e-07
0.000727025
-1.05076e-06
0.000728478
-1.41098e-06
0.000730002
-2.27457e-06
-2.58536e-06
0.000731671
0.000666724
2.02547e-07
0.000666899
6.0935e-07
0.000667184
1.01336e-06
0.000667569
1.40804e-06
0.000668045
1.78969e-06
0.0006686
2.15539e-06
0.000669223
2.50307e-06
0.000669905
2.83152e-06
0.000670637
3.14017e-06
0.000671413
3.42889e-06
0.000672226
3.69777e-06
0.000673073
3.94708e-06
0.000673948
4.17718e-06
0.000674847
4.3885e-06
0.000675768
4.58152e-06
0.000676706
4.75678e-06
0.00067766
4.91476e-06
0.000678628
5.05603e-06
0.000679608
5.18102e-06
0.000680598
5.29022e-06
0.000681597
5.38393e-06
0.000682604
5.46259e-06
0.000683618
5.52631e-06
0.000684638
5.5755e-06
0.000685664
5.61009e-06
0.000686694
5.63049e-06
0.000687729
5.63638e-06
0.000688766
5.62827e-06
0.000689807
5.60549e-06
0.00069085
5.56878e-06
0.000691894
5.51698e-06
0.00069294
5.45124e-06
0.000693986
5.3697e-06
0.000695032
5.27423e-06
0.000696078
5.16189e-06
0.000697123
5.03575e-06
0.000698168
4.89118e-06
0.00069921
4.73324e-06
0.000700251
4.55468e-06
0.00070129
4.36369e-06
0.000702327
4.14893e-06
0.000703362
3.92357e-06
0.000704395
3.66985e-06
0.000705427
3.40878e-06
0.000706457
3.11252e-06
0.00070749
2.81453e-06
0.000708522
2.47131e-06
0.000709562
2.13602e-06
0.000710602
1.74103e-06
0.000711655
1.37029e-06
0.000712704
9.18526e-07
0.000713773
5.17435e-07
0.000714821
9.8783e-09
0.00071592
-4.40148e-07
0.000717006
-1.05512e-06
0.000718175
-1.51417e-06
0.000719355
-2.23142e-06
0.000720643
-2.69888e-06
0.000721926
-3.55698e-06
-4.01167e-06
0.000723352
0.000666708
1.60835e-07
0.000666834
4.84167e-07
0.00066704
8.06546e-07
0.000667325
1.12341e-06
0.000667682
1.43222e-06
0.000668107
1.73085e-06
0.000668593
2.01758e-06
0.000669133
2.29117e-06
0.000669722
2.55088e-06
0.000670355
2.79635e-06
0.000671026
3.02622e-06
0.000671733
3.2406e-06
0.00067247
3.43964e-06
0.000673235
3.62344e-06
0.000674025
3.79212e-06
0.000674836
3.94588e-06
0.000675665
4.08491e-06
0.000676512
4.2095e-06
0.000677373
4.31982e-06
0.000678247
4.41616e-06
0.000679133
4.49865e-06
0.000680028
4.56754e-06
0.000680931
4.62286e-06
0.000681842
4.66486e-06
0.000682758
4.69342e-06
0.00068368
4.7088e-06
0.000684606
4.71071e-06
0.000685535
4.69949e-06
0.000686465
4.67457e-06
0.000687398
4.63645e-06
0.000688331
4.5842e-06
0.000689263
4.51859e-06
0.000690195
4.4382e-06
0.000691125
4.34425e-06
0.000692052
4.23455e-06
0.000692977
4.11113e-06
0.000693897
3.97062e-06
0.000694814
3.81634e-06
0.000695726
3.64314e-06
0.000696633
3.45638e-06
0.000697534
3.24816e-06
0.00069843
3.0271e-06
0.000699319
2.78108e-06
0.000700204
2.5239e-06
0.00070108
2.23683e-06
0.000701952
1.94172e-06
0.000702814
1.60919e-06
0.000703677
1.27335e-06
0.00070453
8.88049e-07
0.000705394
5.0686e-07
0.000706256
5.61148e-08
0.000707137
-3.63633e-07
0.000708022
-8.75318e-07
0.000708928
-1.34591e-06
0.000709818
-1.94535e-06
0.000710767
-2.46303e-06
0.000711703
-3.16685e-06
0.000712731
-3.72748e-06
0.000713737
-4.56318e-06
-5.15656e-06
0.000714882
0.000666699
1.28814e-07
0.000666795
3.87377e-07
0.000666956
6.45526e-07
0.00066718
9.00068e-07
0.000667463
1.14927e-06
0.000667802
1.39159e-06
0.000668194
1.62571e-06
0.000668635
1.85055e-06
0.00066912
2.06522e-06
0.000669648
2.26902e-06
0.000670212
2.46131e-06
0.000670811
2.64171e-06
0.000671441
2.80998e-06
0.000672098
2.96604e-06
0.000672781
3.1098e-06
0.000673485
3.24127e-06
0.00067421
3.36044e-06
0.000674952
3.46736e-06
0.00067571
3.56207e-06
0.000676481
3.64466e-06
0.000677265
3.71516e-06
0.000678059
3.77366e-06
0.000678861
3.82012e-06
0.000679671
3.85466e-06
0.000680488
3.87714e-06
0.000681309
3.88767e-06
0.000682134
3.88602e-06
0.000682961
3.87231e-06
0.000683789
3.84615e-06
0.000684618
3.80771e-06
0.000685446
3.75641e-06
0.000686272
3.69252e-06
0.000687095
3.61516e-06
0.000687914
3.52481e-06
0.000688729
3.42015e-06
0.000689538
3.30204e-06
0.00069034
3.16853e-06
0.000691135
3.02105e-06
0.000691922
2.85673e-06
0.0006927
2.67795e-06
0.000693468
2.4804e-06
0.000694227
2.26801e-06
0.000694974
2.03426e-06
0.000695712
1.7855e-06
0.000696437
1.51189e-06
0.000697155
1.22368e-06
0.000697858
9.06119e-07
0.000698556
5.75797e-07
0.000699233
2.11018e-07
0.000699907
-1.6706e-07
0.000700559
-5.96613e-07
0.000701225
-1.02952e-06
0.000701872
-1.52251e-06
0.000702539
-2.01226e-06
0.000703178
-2.58476e-06
0.000703854
-3.1389e-06
0.000704494
-3.80715e-06
0.000705196
-4.42957e-06
0.000705846
-5.21291e-06
-5.90379e-06
0.000706593
0.000666693
1.02653e-07
0.000666772
3.08542e-07
0.000666903
5.14233e-07
0.000667086
7.17395e-07
0.000667318
9.16801e-07
0.000667598
1.11134e-06
0.000667924
1.3e-06
0.000668293
1.4819e-06
0.000668702
1.65628e-06
0.000669148
1.8225e-06
0.000669629
1.98004e-06
0.000670143
2.12849e-06
0.000670685
2.2675e-06
0.000671254
2.39683e-06
0.000671848
2.5163e-06
0.000672463
2.62578e-06
0.000673099
2.72516e-06
0.000673752
2.81437e-06
0.00067442
2.89334e-06
0.000675103
2.96206e-06
0.000675798
3.02047e-06
0.000676503
3.06855e-06
0.000677217
3.10624e-06
0.000677938
3.13352e-06
0.000678665
3.15029e-06
0.000679396
3.1565e-06
0.00068013
3.152e-06
0.000680865
3.13672e-06
0.000681601
3.11044e-06
0.000682336
3.07307e-06
0.000683068
3.02428e-06
0.000683796
2.96398e-06
0.00068452
2.8917e-06
0.000685237
2.80737e-06
0.000685947
2.71036e-06
0.000686649
2.60061e-06
0.00068734
2.47726e-06
0.000688021
2.34036e-06
0.000688689
2.18873e-06
0.000689344
2.02255e-06
0.000689984
1.84025e-06
0.00069061
1.64227e-06
0.000691218
1.42643e-06
0.00069181
1.19362e-06
0.000692381
9.40796e-07
0.000692935
6.69487e-07
0.000693466
3.75428e-07
0.000693979
6.1874e-08
0.000694472
-2.81834e-07
0.000694953
-6.47975e-07
0.000695402
-1.0456e-06
0.000695841
-1.468e-06
0.000696246
-1.92791e-06
0.000696648
-2.41462e-06
0.000697011
-2.9472e-06
0.000697381
-3.50867e-06
0.000697701
-4.12718e-06
0.000698046
-4.77522e-06
0.000698328
-5.4948e-06
-6.24048e-06
0.000698665
0.000666689
8.05945e-08
0.000666755
2.42152e-07
0.000666866
4.03602e-07
0.00066702
5.63217e-07
0.000667217
7.20112e-07
0.000667454
8.73472e-07
0.000667732
1.02255e-06
0.000668047
1.16665e-06
0.000668398
1.30519e-06
0.000668783
1.43763e-06
0.0006692
1.56352e-06
0.000669646
1.68247e-06
0.000670119
1.79415e-06
0.000670618
1.89828e-06
0.000671139
1.99464e-06
0.000671682
2.08304e-06
0.000672244
2.16333e-06
0.000672823
2.23538e-06
0.000673417
2.29908e-06
0.000674025
2.35433e-06
0.000674644
2.40105e-06
0.000675274
2.43916e-06
0.000675911
2.46857e-06
0.000676556
2.48919e-06
0.000677205
2.50092e-06
0.000677858
2.50365e-06
0.000678513
2.49727e-06
0.000679168
2.48159e-06
0.000679822
2.4565e-06
0.000680473
2.42175e-06
0.00068112
2.3772e-06
0.000681761
2.32251e-06
0.000682396
2.25753e-06
0.000683021
2.18179e-06
0.000683636
2.09515e-06
0.00068424
1.99696e-06
0.00068483
1.88714e-06
0.000685406
1.76476e-06
0.000685965
1.6299e-06
0.000686506
1.4812e-06
0.000687027
1.31901e-06
0.000687528
1.14137e-06
0.000688005
9.49152e-07
0.00068846
7.39435e-07
0.000688886
5.14102e-07
0.000689287
2.68942e-07
0.000689653
9.25487e-09
0.000689997
-2.82401e-07
0.000690306
-5.90218e-07
0.000690585
-9.27209e-07
0.000690823
-1.28332e-06
0.000691031
-1.67639e-06
0.000691192
-2.08863e-06
0.000691325
-2.5481e-06
0.000691403
-3.02489e-06
0.000691458
-3.56372e-06
0.000691445
-4.11479e-06
0.000691419
-4.7492e-06
0.000691309
-5.38434e-06
-6.13243e-06
0.000691201
0.000666686
6.14738e-08
0.000666743
1.84645e-07
0.000666839
3.07744e-07
0.000666973
4.29503e-07
0.000667144
5.49285e-07
0.000667351
6.66502e-07
0.000667593
7.80603e-07
0.000667868
8.91083e-07
0.000668176
9.97479e-07
0.000668514
1.09938e-06
0.000668881
1.19641e-06
0.000669275
1.28824e-06
0.000669695
1.37459e-06
0.000670138
1.45521e-06
0.000670603
1.52987e-06
0.000671088
1.5984e-06
0.00067159
1.66063e-06
0.000672109
1.71641e-06
0.000672643
1.76563e-06
0.000673189
1.80816e-06
0.000673746
1.84392e-06
0.000674312
1.87278e-06
0.000674886
1.89467e-06
0.000675466
1.90944e-06
0.00067605
1.91704e-06
0.000676636
1.9173e-06
0.000677223
1.91014e-06
0.00067781
1.89534e-06
0.000678393
1.87285e-06
0.000678973
1.84235e-06
0.000679546
1.8038e-06
0.000680112
1.75677e-06
0.000680668
1.70128e-06
0.000681213
1.63669e-06
0.000681745
1.56315e-06
0.000682262
1.47971e-06
0.000682763
1.38674e-06
0.000683245
1.28285e-06
0.000683706
1.1688e-06
0.000684145
1.04249e-06
0.000684558
9.05364e-07
0.000684945
7.54218e-07
0.000685303
5.91664e-07
0.000685629
4.12798e-07
0.000685921
2.22257e-07
0.000686177
1.35078e-08
0.000686399
-2.12644e-07
0.000686579
-4.62362e-07
0.000686712
-7.23843e-07
0.000686802
-1.01669e-06
0.000686838
-1.31991e-06
0.000686826
-1.6644e-06
0.000686753
-2.01547e-06
0.000686627
-2.42235e-06
0.00068643
-2.82799e-06
0.000686178
-3.31118e-06
0.000685842
-3.77844e-06
0.000685449
-4.35611e-06
0.000684955
-4.8909e-06
-5.58511e-06
0.000684408
0.000666684
4.44558e-08
0.000666735
1.33486e-07
0.00066682
2.22452e-07
0.000666939
3.10462e-07
0.000667091
3.97074e-07
0.000667276
4.81876e-07
0.000667492
5.64484e-07
0.000667739
6.44536e-07
0.000668014
7.21701e-07
0.000668318
7.95673e-07
0.000668648
8.66175e-07
0.000669004
9.32956e-07
0.000669382
9.95793e-07
0.000669783
1.05448e-06
0.000670204
1.10885e-06
0.000670644
1.15872e-06
0.000671101
1.20398e-06
0.000671572
1.24449e-06
0.000672058
1.28013e-06
0.000672555
1.3108e-06
0.000673063
1.33641e-06
0.000673579
1.35685e-06
0.000674101
1.37204e-06
0.000674629
1.38186e-06
0.00067516
1.38626e-06
0.000675692
1.38506e-06
0.000676224
1.37823e-06
0.000676754
1.36554e-06
0.00067728
1.34698e-06
0.0006778
1.32224e-06
0.000678312
1.29135e-06
0.000678815
1.25387e-06
0.000679306
1.2099e-06
0.000679784
1.1588e-06
0.000680247
1.10084e-06
0.000680691
1.03506e-06
0.000681116
9.61989e-07
0.000681519
8.80181e-07
0.000681897
7.90652e-07
0.000682248
6.91178e-07
0.00068257
5.83568e-07
0.00068286
4.64414e-07
0.000683115
3.36853e-07
0.000683332
1.95676e-07
0.000683507
4.65694e-08
0.000683643
-1.21844e-07
0.000683729
-2.99067e-07
0.000683765
-4.97823e-07
0.000683745
-7.03812e-07
0.000683666
-9.38319e-07
0.000683524
-1.17749e-06
0.000683315
-1.45517e-06
0.000683031
-1.73216e-06
0.000682672
-2.06265e-06
0.000682226
-2.38243e-06
0.000681693
-2.77861e-06
0.000681061
-3.146e-06
0.00068033
-3.62506e-06
0.000679482
-4.0431e-06
-4.62678e-06
0.000678524
0.000666682
2.88942e-08
0.000666729
8.67203e-08
0.000666807
1.44478e-07
0.000666916
2.01598e-07
0.000667055
2.57801e-07
0.000667224
3.12827e-07
0.000667422
3.66431e-07
0.000667648
4.18381e-07
0.000667902
4.68464e-07
0.000668181
5.16479e-07
0.000668485
5.62246e-07
0.000668812
6.05594e-07
0.000669162
6.46374e-07
0.000669532
6.84444e-07
0.000669921
7.19684e-07
0.000670327
7.51978e-07
0.00067075
7.81229e-07
0.000671187
8.07339e-07
0.000671637
8.30232e-07
0.000672098
8.49819e-07
0.000672569
8.66039e-07
0.000673047
8.78803e-07
0.000673531
8.88062e-07
0.000674019
8.93714e-07
0.000674509
8.95725e-07
0.000675
8.93962e-07
0.00067549
8.88408e-07
0.000675977
8.78886e-07
0.000676458
8.65402e-07
0.000676933
8.4771e-07
0.000677398
8.25859e-07
0.000677853
7.99493e-07
0.000678294
7.68741e-07
0.00067872
7.3308e-07
0.000679128
6.92775e-07
0.000679516
6.47048e-07
0.000679881
5.96398e-07
0.000680222
5.39649e-07
0.000680535
4.77699e-07
0.000680817
4.08751e-07
0.000681067
3.34366e-07
0.000681279
2.51784e-07
0.000681452
1.63687e-07
0.000681582
6.59092e-08
0.000681666
-3.78144e-08
0.0006817
-1.55428e-07
0.000681679
-2.77891e-07
0.000681598
-4.16482e-07
0.000681453
-5.5911e-07
0.000681238
-7.23273e-07
0.000680949
-8.8899e-07
0.000680578
-1.08421e-06
0.000680122
-1.27614e-06
0.000679569
-1.5097e-06
0.000678918
-1.73116e-06
0.000678152
-2.01295e-06
0.000677273
-2.26692e-06
0.000676259
-2.61034e-06
0.000675114
-2.89815e-06
-3.32057e-06
0.000673807
0.000666681
1.42532e-08
0.000666725
4.27292e-08
0.000666799
7.11272e-08
0.000666901
9.91704e-08
0.000667032
1.26724e-07
0.000667191
1.53664e-07
0.000667378
1.79872e-07
0.000667591
2.05237e-07
0.00066783
2.29654e-07
0.000668093
2.53028e-07
0.00066838
2.75268e-07
0.00066869
2.96293e-07
0.00066902
3.16028e-07
0.00066937
3.34402e-07
0.000669738
3.51356e-07
0.000670123
3.66832e-07
0.000670524
3.8078e-07
0.000670938
3.9315e-07
0.000671364
4.03904e-07
0.000671801
4.12996e-07
0.000672247
4.20396e-07
0.0006727
4.26055e-07
0.000673158
4.2995e-07
0.000673619
4.32027e-07
0.000674083
4.32269e-07
0.000674546
4.30606e-07
0.000675008
4.27032e-07
0.000675465
4.21451e-07
0.000675917
4.13872e-07
0.00067636
4.04159e-07
0.000676794
3.92347e-07
0.000677215
3.78242e-07
0.000677622
3.61922e-07
0.000678012
3.431e-07
0.000678383
3.21934e-07
0.000678732
2.97995e-07
0.000679056
2.71573e-07
0.000679354
2.42017e-07
0.000679622
2.09845e-07
0.000679857
1.74058e-07
0.000680055
1.35556e-07
0.000680214
9.28068e-08
0.000680331
4.73691e-08
0.0006804
-2.96649e-09
0.000680419
-5.73426e-08
0.000680382
-1.18014e-07
0.000680285
-1.81136e-07
0.000680121
-2.52878e-07
0.000679889
-3.26399e-07
0.000679577
-4.11475e-07
0.000679185
-4.96855e-07
0.000678699
-5.98199e-07
0.00067812
-6.97045e-07
0.000677428
-8.18593e-07
0.00067663
-9.32553e-07
0.000675697
-1.07967e-06
0.00067464
-1.21018e-06
0.00067342
-1.39023e-06
0.000672059
-1.53772e-06
-1.76033e-06
0.000670499
0.000666681
5.84091e-11
0.000666724
8.22517e-11
0.000666795
1.64359e-11
0.000666894
-1.34899e-10
0.000667021
-3.72135e-10
0.000667175
-6.90932e-10
0.000667356
-1.08789e-09
0.000667563
-1.55953e-09
0.000667795
-2.10235e-09
0.000668051
-2.71283e-09
0.000668329
-3.38736e-09
0.00066863
-4.12226e-09
0.000668951
-4.91382e-09
0.000669291
-5.7583e-09
0.000669649
-6.65198e-09
0.000670023
-7.59114e-09
0.000670413
-8.57208e-09
0.000670815
-9.59112e-09
0.00067123
-1.06447e-08
0.000671655
-1.17292e-08
0.000672088
-1.28414e-08
0.000672528
-1.39782e-08
0.000672973
-1.51363e-08
0.000673421
-1.6313e-08
0.000673871
-1.75054e-08
0.00067432
-1.8711e-08
0.000674767
-1.99274e-08
0.00067521
-2.11524e-08
0.000675646
-2.2384e-08
0.000676074
-2.36205e-08
0.000676491
-2.48605e-08
0.000676896
-2.61024e-08
0.000677285
-2.73456e-08
0.000677656
-2.85886e-08
0.000678008
-2.98312e-08
0.000678337
-3.10721e-08
0.000678641
-3.23111e-08
0.000678917
-3.35461e-08
0.000679161
-3.47777e-08
0.000679371
-3.60049e-08
0.000679544
-3.72343e-08
0.000679676
-3.84725e-08
0.000679763
-3.9743e-08
0.000679801
-4.10939e-08
0.000679786
-4.25274e-08
0.000679712
-4.38928e-08
0.000679576
-4.52259e-08
0.00067937
-4.65432e-08
0.000679091
-4.78855e-08
0.000678729
-4.92511e-08
0.000678283
-5.06685e-08
0.000677737
-5.21113e-08
0.000677093
-5.3612e-08
0.00067633
-5.51373e-08
0.000675454
-5.67334e-08
0.000674433
-5.83592e-08
0.000673282
-6.0069e-08
0.000671954
-6.18149e-08
0.00067048
-6.36482e-08
-6.55291e-08
0.000668785
0.000666681
-1.41384e-08
0.000666724
-4.25672e-08
0.000666795
-7.1096e-08
0.000666894
-9.94433e-08
0.000667021
-1.2747e-07
0.000667175
-1.55044e-07
0.000667356
-1.82042e-07
0.000667563
-2.08346e-07
0.000667795
-2.33844e-07
0.000668051
-2.58433e-07
0.000668329
-2.82017e-07
0.00066863
-3.04504e-07
0.00066895
-3.25814e-07
0.000669291
-3.4587e-07
0.000669649
-3.64603e-07
0.000670023
-3.81948e-07
0.000670412
-3.97848e-07
0.000670815
-4.12246e-07
0.000671229
-4.25098e-07
0.000671654
-4.36348e-07
0.000672087
-4.45961e-07
0.000672527
-4.53882e-07
0.000672972
-4.60082e-07
0.00067342
-4.645e-07
0.00067387
-4.67115e-07
0.000674319
-4.67851e-07
0.000674766
-4.66697e-07
0.000675208
-4.63553e-07
0.000675644
-4.58424e-07
0.000676072
-4.51171e-07
0.000676489
-4.41826e-07
0.000676893
-4.30192e-07
0.000677282
-4.16344e-07
0.000677653
-3.99996e-07
0.000678005
-3.81302e-07
0.000678333
-3.59832e-07
0.000678637
-3.35879e-07
0.000678912
-3.08789e-07
0.000679156
-2.79081e-07
0.000679366
-2.45756e-07
0.000679539
-2.09707e-07
0.00067967
-1.69383e-07
0.000679756
-1.263e-07
0.000679793
-7.8061e-08
0.000679778
-2.73037e-08
0.000679704
3.04314e-08
0.000679567
9.1139e-08
0.00067936
1.6031e-07
0.000679081
2.31143e-07
0.000678719
3.13496e-07
0.000678272
3.96055e-07
0.000677725
4.94549e-07
0.000677081
5.90414e-07
0.000676317
7.08953e-07
0.000675441
8.19736e-07
0.000674419
9.63651e-07
0.000673268
1.09074e-06
0.000671939
1.26734e-06
0.000670464
1.41113e-06
1.62998e-06
0.000668768
0.000666681
-2.87829e-08
0.000666725
-8.65655e-08
0.000666799
-1.44455e-07
0.000666901
-2.01877e-07
0.000667032
-2.58548e-07
0.000667191
-3.14202e-07
0.000667378
-3.68586e-07
0.000667591
-4.21463e-07
0.00066783
-4.72612e-07
0.000668093
-5.21827e-07
0.00066838
-5.68918e-07
0.000668689
-6.13709e-07
0.000669019
-6.56042e-07
0.000669369
-6.95769e-07
0.000669738
-7.32763e-07
0.000670123
-7.66898e-07
0.000670523
-7.98073e-07
0.000670937
-8.26181e-07
0.000671363
-8.5114e-07
0.000671799
-8.72852e-07
0.000672245
-8.91252e-07
0.000672697
-9.06243e-07
0.000673155
-9.17772e-07
0.000673616
-9.25729e-07
0.000674079
-9.30075e-07
0.000674542
-9.30673e-07
0.000675002
-9.27501e-07
0.000675459
-9.20377e-07
0.00067591
-9.09304e-07
0.000676353
-8.94032e-07
0.000676786
-8.74608e-07
0.000677206
-8.50672e-07
0.000677612
-8.22352e-07
0.000678001
-7.89122e-07
0.000678371
-7.51247e-07
0.000678719
-7.07947e-07
0.000679043
-6.59721e-07
0.00067934
-6.05391e-07
0.000679607
-5.45855e-07
0.00067984
-4.79311e-07
0.000680038
-4.07327e-07
0.000680196
-3.27124e-07
0.000680311
-2.41385e-07
0.000680378
-1.45821e-07
0.000680396
-4.51178e-08
0.000680357
6.91565e-08
0.000680259
1.89306e-07
0.000680094
3.25426e-07
0.00067986
4.6544e-07
0.000679546
6.26952e-07
0.000679153
7.89891e-07
0.000678665
9.82329e-07
0.000678084
1.17133e-06
0.000677391
1.40198e-06
0.00067659
1.6203e-06
0.000675655
1.89899e-06
0.000674596
2.14958e-06
0.000673374
2.4897e-06
0.000672011
2.77383e-06
3.19271e-06
0.000670448
0.000666682
-4.43501e-08
0.000666729
-1.33343e-07
0.000666807
-2.22443e-07
0.000666916
-3.10753e-07
0.000667055
-3.97825e-07
0.000667224
-4.83243e-07
0.000667422
-5.66615e-07
0.000667648
-6.47575e-07
0.000667902
-7.25783e-07
0.000668181
-8.00926e-07
0.000668484
-8.72723e-07
0.000668812
-9.40912e-07
0.000669161
-1.00527e-06
0.000669531
-1.06557e-06
0.00066992
-1.12165e-06
0.000670326
-1.17332e-06
0.000670748
-1.22046e-06
0.000671185
-1.26291e-06
0.000671634
-1.30057e-06
0.000672095
-1.33331e-06
0.000672565
-1.36104e-06
0.000673042
-1.38365e-06
0.000673525
-1.40106e-06
0.000674013
-1.41312e-06
0.000674503
-1.41979e-06
0.000674993
-1.42089e-06
0.000675482
-1.41637e-06
0.000675967
-1.40602e-06
0.000676448
-1.38981e-06
0.000676921
-1.36742e-06
0.000677385
-1.33889e-06
0.000677839
-1.30377e-06
0.000678278
-1.26217e-06
0.000678703
-1.21343e-06
0.000679109
-1.15784e-06
0.000679496
-1.09441e-06
0.00067986
-1.0237e-06
0.000680199
-9.44235e-07
0.00068051
-8.57054e-07
0.00068079
-7.59915e-07
0.000681038
-6.54641e-07
0.000681248
-5.37797e-07
0.000681419
-4.12537e-07
0.000681547
-2.73576e-07
0.000681629
-1.26404e-07
0.00068166
3.76094e-08
0.000681636
2.1289e-07
0.000681553
4.09276e-07
0.000681405
6.12715e-07
0.000681188
8.44678e-07
0.000680896
1.08116e-06
0.000680522
1.3562e-06
0.000680063
1.63034e-06
0.000679507
1.95807e-06
0.000678853
2.27478e-06
0.000678084
2.66808e-06
0.000677201
3.03212e-06
0.000676183
3.50814e-06
0.000675034
3.9225e-06
4.50298e-06
0.000673724
0.000666684
-6.13759e-08
0.000666735
-1.84519e-07
0.00066682
-3.07753e-07
0.000666939
-4.29807e-07
0.000667091
-5.5004e-07
0.000667276
-6.67856e-07
0.000667492
-7.82701e-07
0.000667739
-8.9406e-07
0.000668014
-1.00147e-06
0.000668318
-1.1045e-06
0.000668648
-1.20278e-06
0.000669003
-1.29598e-06
0.000669382
-1.38379e-06
0.000669782
-1.46597e-06
0.000670203
-1.54229e-06
0.000670642
-1.61255e-06
0.000671098
-1.67659e-06
0.000671569
-1.73425e-06
0.000672054
-1.78541e-06
0.000672551
-1.82994e-06
0.000673057
-1.86775e-06
0.000673572
-1.8987e-06
0.000674094
-1.92271e-06
0.000674621
-1.93965e-06
0.00067515
-1.94944e-06
0.000675681
-1.95191e-06
0.000676212
-1.94698e-06
0.00067674
-1.93443e-06
0.000677265
-1.91419e-06
0.000677783
-1.88595e-06
0.000678294
-1.84968e-06
0.000678795
-1.80492e-06
0.000679285
-1.7517e-06
0.000679761
-1.68938e-06
0.000680221
-1.6181e-06
0.000680663
-1.53692e-06
0.000681086
-1.44622e-06
0.000681486
-1.34458e-06
0.000681862
-1.23279e-06
0.000682211
-1.10873e-06
0.00068253
-9.73861e-07
0.000682817
-8.24961e-07
0.000683069
-6.6466e-07
0.000683284
-4.88008e-07
0.000683457
-2.99627e-07
0.000683587
-9.21917e-08
0.00068367
1.29417e-07
0.000683703
3.77123e-07
0.000683679
6.36239e-07
0.000683597
9.26729e-07
0.000683451
1.22738e-06
0.000683238
1.56942e-06
0.00068295
1.91774e-06
0.000682586
2.32208e-06
0.000682136
2.72474e-06
0.000681599
3.20532e-06
0.000680962
3.6693e-06
0.000680226
4.24426e-06
0.000679373
4.7754e-06
5.46686e-06
0.000678409
0.000666686
-8.05063e-08
0.000666743
-2.42047e-07
0.000666839
-4.03635e-07
0.000666973
-5.6354e-07
0.000667144
-7.20871e-07
0.000667351
-8.7481e-07
0.000667593
-1.0246e-06
0.000667868
-1.16955e-06
0.000668176
-1.30906e-06
0.000668514
-1.44259e-06
0.000668881
-1.56967e-06
0.000669275
-1.68993e-06
0.000669694
-1.80301e-06
0.000670137
-1.90863e-06
0.000670601
-2.00657e-06
0.000671085
-2.09662e-06
0.000671587
-2.17864e-06
0.000672105
-2.25248e-06
0.000672638
-2.31803e-06
0.000673183
-2.37519e-06
0.000673739
-2.42386e-06
0.000674304
-2.46396e-06
0.000674877
-2.4954e-06
0.000675456
-2.51807e-06
0.000676038
-2.5319e-06
0.000676623
-2.53673e-06
0.000677208
-2.53246e-06
0.000677793
-2.51892e-06
0.000678375
-2.49598e-06
0.000678952
-2.46338e-06
0.000679523
-2.42098e-06
0.000680087
-2.36845e-06
0.000680641
-2.30562e-06
0.000681183
-2.23202e-06
0.000681713
-2.14753e-06
0.000682227
-2.05148e-06
0.000682725
-1.94381e-06
0.000683204
-1.82356e-06
0.000683662
-1.69083e-06
0.000684097
-1.54426e-06
0.000684508
-1.38421e-06
0.000684892
-1.20869e-06
0.000685246
-1.01862e-06
0.000685569
-8.11015e-07
0.000685857
-5.87813e-07
0.000686109
-3.44622e-07
0.000686324
-8.57669e-08
0.0006865
2.01054e-07
0.00068663
5.06902e-07
0.000686715
8.41863e-07
0.000686746
1.19558e-06
0.000686729
1.58643e-06
0.000686651
1.99604e-06
0.00068652
2.45325e-06
0.000686317
2.92717e-06
0.000686059
3.46371e-06
0.000685717
4.01157e-06
0.000685317
4.64369e-06
0.000684818
5.27519e-06
6.02107e-06
0.000684263
0.000666689
-1.02576e-07
0.000666755
-3.0846e-07
0.000666866
-5.14291e-07
0.00066702
-7.17736e-07
0.000667217
-9.17563e-07