/*--------------------------------*- C++ -*----------------------------------*\
| =========                 |                                                 |
| \\      /  F ield         | OpenFOAM: The Open Source CFD Toolbox           |
|  \\    /   O peration     | Version:  2312                                  |
|   \\  /    A nd           | Website:  www.openfoam.com                      |
|    \\/     M anipulation  |                                                 |
\*---------------------------------------------------------------------------*/
FoamFile
{
    version     2.0;
    format      ascii;
    arch        "LSB;label=32;scalar=64";
    class       volVectorField;
    location    "81000";
    object      U;
}
// * * * * * * * * * * * * * * * * * * * * * * * * * * * * * * * * * * * * * //

dimensions      [0 1 -1 0 0 0 0];

internalField   nonuniform List<vector> 
10800
(
(0.000992484 4.94189e-06 0)
(0.000990038 1.24577e-05 0)
(0.000986873 1.74791e-05 0)
(0.0009805 2.06628e-05 0)
(0.000971088 2.27459e-05 0)
(0.000959798 2.42395e-05 0)
(0.000947698 2.53785e-05 0)
(0.000935321 2.62378e-05 0)
(0.000922812 2.68416e-05 0)
(0.000910148 2.72149e-05 0)
(0.000897284 2.73955e-05 0)
(0.000884217 2.74263e-05 0)
(0.000870982 2.73452e-05 0)
(0.000857636 2.71804e-05 0)
(0.000844229 2.69499e-05 0)
(0.0008308 2.66656e-05 0)
(0.000817374 2.63352e-05 0)
(0.000803971 2.59655e-05 0)
(0.000790605 2.55619e-05 0)
(0.000777291 2.51293e-05 0)
(0.000764045 2.46714e-05 0)
(0.000750881 2.41913e-05 0)
(0.000737815 2.36912e-05 0)
(0.00072486 2.31728e-05 0)
(0.000712028 2.26371e-05 0)
(0.000699334 2.20856e-05 0)
(0.000686789 2.15184e-05 0)
(0.000674405 2.0937e-05 0)
(0.000662197 2.03408e-05 0)
(0.000650175 1.97315e-05 0)
(0.000638354 1.91078e-05 0)
(0.000626743 1.84723e-05 0)
(0.000615358 1.78223e-05 0)
(0.000604209 1.71619e-05 0)
(0.000593311 1.64867e-05 0)
(0.000582673 1.58033e-05 0)
(0.000572313 1.51042e-05 0)
(0.000562235 1.44001e-05 0)
(0.000552465 1.36784e-05 0)
(0.000542995 1.2957e-05 0)
(0.000533865 1.22141e-05 0)
(0.000525048 1.14798e-05 0)
(0.000516612 1.07166e-05 0)
(0.000508487 9.97519e-06 0)
(0.000500807 9.19098e-06 0)
(0.000493394 8.44951e-06 0)
(0.000486556 7.64031e-06 0)
(0.000479836 6.90575e-06 0)
(0.000473999 6.06269e-06 0)
(0.000467829 5.33354e-06 0)
(0.000463373 4.44794e-06 0)
(0.000457248 3.67717e-06 0)
(0.000455228 2.78712e-06 0)
(0.00044751 1.72629e-06 0)
(0.000451058 1.15753e-06 0)
(0.000436673 -1.2569e-06 0)
(0.000455084 1.17289e-07 0)
(0.00041912 -7.71975e-06 0)
(0.00047746 2.03703e-06 0)
(0.000382739 -2.44822e-05 0)
(0.00100003 5.80225e-06 0)
(0.00100172 1.49927e-05 0)
(0.00100423 2.15233e-05 0)
(0.00100706 2.60862e-05 0)
(0.00100979 2.94441e-05 0)
(0.00101219 3.21252e-05 0)
(0.00101421 3.43773e-05 0)
(0.00101588 3.62867e-05 0)
(0.00101726 3.78861e-05 0)
(0.00101837 3.9206e-05 0)
(0.00101922 4.02879e-05 0)
(0.00101981 4.11775e-05 0)
(0.00102013 4.19154e-05 0)
(0.00102019 4.25317e-05 0)
(0.00102 4.30463e-05 0)
(0.00101956 4.34719e-05 0)
(0.00101891 4.38173e-05 0)
(0.00101804 4.4089e-05 0)
(0.00101697 4.42927e-05 0)
(0.00101571 4.44331e-05 0)
(0.00101427 4.45138e-05 0)
(0.00101265 4.45374e-05 0)
(0.00101088 4.45061e-05 0)
(0.00100895 4.44209e-05 0)
(0.00100688 4.42828e-05 0)
(0.00100467 4.40918e-05 0)
(0.00100235 4.3849e-05 0)
(0.000999894 4.3553e-05 0)
(0.000997362 4.32057e-05 0)
(0.000994694 4.28041e-05 0)
(0.000991991 4.23516e-05 0)
(0.000989144 4.18426e-05 0)
(0.000986316 4.12841e-05 0)
(0.000983318 4.06655e-05 0)
(0.000980418 4.00004e-05 0)
(0.000977291 3.92692e-05 0)
(0.000974383 3.84981e-05 0)
(0.000971137 3.7651e-05 0)
(0.000968304 3.67764e-05 0)
(0.00096493 3.58083e-05 0)
(0.000962284 3.4836e-05 0)
(0.000958737 3.37389e-05 0)
(0.000956443 3.26802e-05 0)
(0.00095261 3.144e-05 0)
(0.000950921 3.03145e-05 0)
(0.00094658 2.89054e-05 0)
(0.000945901 2.77477e-05 0)
(0.000940629 2.61219e-05 0)
(0.000941626 2.49906e-05 0)
(0.00093465 2.30612e-05 0)
(0.000938437 2.20561e-05 0)
(0.000928374 1.96685e-05 0)
(0.000936834 1.89553e-05 0)
(0.000921238 1.58458e-05 0)
(0.000937557 1.5685e-05 0)
(0.00091213 1.14428e-05 0)
(0.000941729 1.21684e-05 0)
(0.000899013 6.32276e-06 0)
(0.000951247 7.95756e-06 0)
(0.000878738 9.01968e-07 0)
(0.000999989 1.96291e-06 0)
(0.00100078 5.7651e-06 0)
(0.00100224 9.29085e-06 0)
(0.00100423 1.24563e-05 0)
(0.00100654 1.52587e-05 0)
(0.00100897 1.77433e-05 0)
(0.00101139 1.99646e-05 0)
(0.00101376 2.19658e-05 0)
(0.00101607 2.37741e-05 0)
(0.00101833 2.54061e-05 0)
(0.00102054 2.6875e-05 0)
(0.00102271 2.81943e-05 0)
(0.00102483 2.93783e-05 0)
(0.00102688 3.04408e-05 0)
(0.00102886 3.13944e-05 0)
(0.00103077 3.22486e-05 0)
(0.00103262 3.30118e-05 0)
(0.00103441 3.36895e-05 0)
(0.00103613 3.42874e-05 0)
(0.00103779 3.48087e-05 0)
(0.0010394 3.52579e-05 0)
(0.00104094 3.56363e-05 0)
(0.00104244 3.59481e-05 0)
(0.00104387 3.61924e-05 0)
(0.00104526 3.63735e-05 0)
(0.00104658 3.64881e-05 0)
(0.00104788 3.65418e-05 0)
(0.00104909 3.65282e-05 0)
(0.00105029 3.64557e-05 0)
(0.0010514 3.63134e-05 0)
(0.00105252 3.61144e-05 0)
(0.00105352 3.58411e-05 0)
(0.00105458 3.55145e-05 0)
(0.00105546 3.51069e-05 0)
(0.00105647 3.46516e-05 0)
(0.00105724 3.41052e-05 0)
(0.00105823 3.35207e-05 0)
(0.00105887 3.28302e-05 0)
(0.00105988 3.2117e-05 0)
(0.00106035 3.1276e-05 0)
(0.00106145 3.04368e-05 0)
(0.00106171 2.94373e-05 0)
(0.00106297 2.84774e-05 0)
(0.00106295 2.73093e-05 0)
(0.00106451 2.6238e-05 0)
(0.00106407 2.48887e-05 0)
(0.00106613 2.37201e-05 0)
(0.00106507 2.21736e-05 0)
(0.00106791 2.09288e-05 0)
(0.0010659 1.9167e-05 0)
(0.00106996 1.78752e-05 0)
(0.00106649 1.58822e-05 0)
(0.00107242 1.45825e-05 0)
(0.00106669 1.23581e-05 0)
(0.00107548 1.11005e-05 0)
(0.00106626 8.69685e-06 0)
(0.00107942 7.54312e-06 0)
(0.00106483 5.16035e-06 0)
(0.00108465 4.14121e-06 0)
(0.00106193 2.28356e-06 0)
(0.00100001 1.74209e-06 0)
(0.00100047 5.16076e-06 0)
(0.00100128 8.42264e-06 0)
(0.00100239 1.14514e-05 0)
(0.00100374 1.42062e-05 0)
(0.00100526 1.6684e-05 0)
(0.00100688 1.89066e-05 0)
(0.00100858 2.09037e-05 0)
(0.00101033 2.27025e-05 0)
(0.00101211 2.43236e-05 0)
(0.00101393 2.57826e-05 0)
(0.00101577 2.70925e-05 0)
(0.00101763 2.82655e-05 0)
(0.00101951 2.93136e-05 0)
(0.00102138 3.02485e-05 0)
(0.00102326 3.10802e-05 0)
(0.00102514 3.18181e-05 0)
(0.00102701 3.24688e-05 0)
(0.00102888 3.30389e-05 0)
(0.00103075 3.35325e-05 0)
(0.00103262 3.39544e-05 0)
(0.00103448 3.43069e-05 0)
(0.00103633 3.45938e-05 0)
(0.00103818 3.48156e-05 0)
(0.00104003 3.49759e-05 0)
(0.00104187 3.50732e-05 0)
(0.00104371 3.51112e-05 0)
(0.00104553 3.50867e-05 0)
(0.00104737 3.50038e-05 0)
(0.00104917 3.48575e-05 0)
(0.001051 3.46531e-05 0)
(0.00105278 3.43832e-05 0)
(0.0010546 3.40549e-05 0)
(0.00105637 3.36582e-05 0)
(0.00105818 3.32028e-05 0)
(0.00105991 3.26753e-05 0)
(0.00106173 3.20885e-05 0)
(0.00106342 3.14258e-05 0)
(0.00106524 3.0703e-05 0)
(0.0010669 2.99006e-05 0)
(0.00106873 2.90369e-05 0)
(0.00107033 2.80912e-05 0)
(0.0010722 2.70809e-05 0)
(0.00107372 2.59896e-05 0)
(0.00107565 2.48266e-05 0)
(0.00107708 2.35905e-05 0)
(0.00107911 2.22669e-05 0)
(0.0010804 2.08922e-05 0)
(0.00108258 1.93978e-05 0)
(0.00108371 1.79005e-05 0)
(0.00108611 1.62216e-05 0)
(0.001087 1.46364e-05 0)
(0.00108973 1.27554e-05 0)
(0.00109027 1.11504e-05 0)
(0.00109347 9.04444e-06 0)
(0.00109353 7.54492e-06 0)
(0.00109739 5.17912e-06 0)
(0.00109675 3.99118e-06 0)
(0.00110154 1.2797e-06 0)
(0.00109986 6.9075e-07 0)
(0.001 1.15373e-06 0)
(0.00100023 3.43381e-06 0)
(0.00100067 5.64841e-06 0)
(0.00100134 7.76583e-06 0)
(0.0010022 9.7647e-06 0)
(0.00100323 1.16347e-05 0)
(0.00100441 1.33746e-05 0)
(0.00100569 1.49883e-05 0)
(0.00100705 1.6482e-05 0)
(0.00100848 1.78617e-05 0)
(0.00100996 1.91328e-05 0)
(0.00101148 2.03003e-05 0)
(0.00101305 2.13688e-05 0)
(0.00101464 2.23433e-05 0)
(0.00101626 2.32288e-05 0)
(0.0010179 2.40299e-05 0)
(0.00101955 2.47513e-05 0)
(0.00102121 2.53967e-05 0)
(0.00102289 2.59696e-05 0)
(0.00102458 2.64728e-05 0)
(0.00102627 2.69087e-05 0)
(0.00102797 2.72791e-05 0)
(0.00102968 2.75858e-05 0)
(0.00103139 2.783e-05 0)
(0.00103311 2.80125e-05 0)
(0.00103483 2.81343e-05 0)
(0.00103655 2.81952e-05 0)
(0.00103828 2.81962e-05 0)
(0.00104001 2.81359e-05 0)
(0.00104175 2.80158e-05 0)
(0.00104348 2.78329e-05 0)
(0.00104522 2.75901e-05 0)
(0.00104696 2.72818e-05 0)
(0.0010487 2.69135e-05 0)
(0.00105044 2.64755e-05 0)
(0.00105218 2.59783e-05 0)
(0.00105392 2.54054e-05 0)
(0.00105565 2.47757e-05 0)
(0.00105739 2.40612e-05 0)
(0.00105912 2.32958e-05 0)
(0.00106085 2.2432e-05 0)
(0.00106258 2.15285e-05 0)
(0.00106431 2.05059e-05 0)
(0.00106603 1.94641e-05 0)
(0.00106775 1.82711e-05 0)
(0.00106948 1.70947e-05 0)
(0.00107119 1.57167e-05 0)
(0.00107293 1.44156e-05 0)
(0.00107462 1.28333e-05 0)
(0.00107639 1.14271e-05 0)
(0.00107806 9.61298e-06 0)
(0.0010799 8.13536e-06 0)
(0.00108156 6.04698e-06 0)
(0.00108352 4.55163e-06 0)
(0.00108517 2.12324e-06 0)
(0.00108736 7.00089e-07 0)
(0.00108898 -2.16001e-06 0)
(0.00109149 -3.35859e-06 0)
(0.00109298 -6.78933e-06 0)
(0.0010958 -7.54525e-06 0)
(0.001 9.27741e-07 0)
(0.00100017 2.77453e-06 0)
(0.00100051 4.59417e-06 0)
(0.001001 6.36776e-06 0)
(0.00100165 8.07785e-06 0)
(0.00100242 9.71057e-06 0)
(0.00100331 1.12566e-05 0)
(0.0010043 1.27112e-05 0)
(0.00100537 1.40727e-05 0)
(0.0010065 1.53416e-05 0)
(0.0010077 1.65193e-05 0)
(0.00100895 1.76079e-05 0)
(0.00101024 1.86095e-05 0)
(0.00101157 1.95267e-05 0)
(0.00101294 2.03624e-05 0)
(0.00101433 2.11193e-05 0)
(0.00101575 2.18005e-05 0)
(0.00101719 2.24089e-05 0)
(0.00101865 2.29468e-05 0)
(0.00102013 2.34168e-05 0)
(0.00102162 2.38206e-05 0)
(0.00102312 2.41605e-05 0)
(0.00102463 2.44371e-05 0)
(0.00102616 2.46527e-05 0)
(0.00102769 2.48071e-05 0)
(0.00102923 2.49022e-05 0)
(0.00103077 2.4937e-05 0)
(0.00103232 2.49137e-05 0)
(0.00103387 2.48297e-05 0)
(0.00103543 2.46883e-05 0)
(0.00103699 2.44846e-05 0)
(0.00103856 2.42239e-05 0)
(0.00104012 2.38982e-05 0)
(0.00104169 2.35159e-05 0)
(0.00104325 2.30643e-05 0)
(0.00104481 2.25571e-05 0)
(0.00104637 2.19743e-05 0)
(0.00104794 2.13385e-05 0)
(0.00104948 2.06178e-05 0)
(0.00105105 1.98494e-05 0)
(0.00105258 1.89826e-05 0)
(0.00105415 1.80776e-05 0)
(0.00105567 1.70547e-05 0)
(0.00105724 1.60102e-05 0)
(0.00105874 1.48187e-05 0)
(0.00106033 1.36334e-05 0)
(0.00106181 1.22572e-05 0)
(0.00106343 1.09331e-05 0)
(0.00106488 9.35138e-06 0)
(0.00106656 7.89602e-06 0)
(0.00106797 6.08183e-06 0)
(0.00106974 4.5132e-06 0)
(0.00107109 2.43051e-06 0)
(0.00107299 7.79504e-07 0)
(0.00107426 -1.62992e-06 0)
(0.00107637 -3.32385e-06 0)
(0.00107753 -6.16178e-06 0)
(0.00107999 -7.84136e-06 0)
(0.0010809 -1.12551e-05 0)
(0.00108369 -1.28187e-05 0)
(0.001 7.33409e-07 0)
(0.00100013 2.19374e-06 0)
(0.00100037 3.6346e-06 0)
(0.00100074 5.04332e-06 0)
(0.00100121 6.40847e-06 0)
(0.0010018 7.72071e-06 0)
(0.00100248 8.97316e-06 0)
(0.00100326 1.01613e-05 0)
(0.00100411 1.12825e-05 0)
(0.00100503 1.23358e-05 0)
(0.00100601 1.33209e-05 0)
(0.00100704 1.42382e-05 0)
(0.00100813 1.50884e-05 0)
(0.00100925 1.58724e-05 0)
(0.00101042 1.65911e-05 0)
(0.00101162 1.72459e-05 0)
(0.00101285 1.7838e-05 0)
(0.00101411 1.83687e-05 0)
(0.00101539 1.88392e-05 0)
(0.00101669 1.92508e-05 0)
(0.001018 1.96043e-05 0)
(0.00101934 1.9901e-05 0)
(0.00102068 2.0141e-05 0)
(0.00102204 2.03257e-05 0)
(0.00102341 2.04544e-05 0)
(0.00102479 2.05287e-05 0)
(0.00102617 2.0547e-05 0)
(0.00102756 2.05112e-05 0)
(0.00102895 2.04186e-05 0)
(0.00103034 2.02718e-05 0)
(0.00103173 2.00664e-05 0)
(0.00103313 1.98064e-05 0)
(0.00103452 1.9485e-05 0)
(0.00103592 1.91086e-05 0)
(0.0010373 1.86666e-05 0)
(0.00103869 1.81696e-05 0)
(0.00104006 1.7601e-05 0)
(0.00104144 1.69782e-05 0)
(0.0010428 1.62756e-05 0)
(0.00104417 1.55212e-05 0)
(0.0010455 1.46753e-05 0)
(0.00104686 1.37827e-05 0)
(0.00104817 1.27821e-05 0)
(0.00104952 1.17447e-05 0)
(0.0010508 1.05751e-05 0)
(0.00105214 9.38622e-06 0)
(0.00105339 8.02939e-06 0)
(0.00105474 6.68287e-06 0)
(0.00105594 5.11462e-06 0)
(0.00105731 3.60516e-06 0)
(0.00105848 1.79221e-06 0)
(0.00105992 1.17641e-07 0)
(0.00106105 -1.98214e-06 0)
(0.00106259 -3.81052e-06 0)
(0.00106366 -6.24739e-06 0)
(0.00106536 -8.20359e-06 0)
(0.00106632 -1.10585e-05 0)
(0.00106824 -1.31093e-05 0)
(0.00106897 -1.6515e-05 0)
(0.00107107 -1.86027e-05 0)
(0.001 5.8451e-07 0)
(0.0010001 1.74958e-06 0)
(0.00100029 2.9028e-06 0)
(0.00100057 4.03626e-06 0)
(0.00100095 5.14247e-06 0)
(0.00100142 6.21473e-06 0)
(0.00100197 7.2474e-06 0)
(0.00100259 8.23603e-06 0)
(0.00100329 9.17727e-06 0)
(0.00100405 1.00688e-05 0)
(0.00100487 1.0909e-05 0)
(0.00100574 1.16971e-05 0)
(0.00100666 1.24324e-05 0)
(0.00100763 1.31145e-05 0)
(0.00100863 1.37435e-05 0)
(0.00100968 1.43193e-05 0)
(0.00101075 1.4842e-05 0)
(0.00101185 1.53122e-05 0)
(0.00101297 1.573e-05 0)
(0.00101412 1.6096e-05 0)
(0.00101528 1.64102e-05 0)
(0.00101646 1.66734e-05 0)
(0.00101766 1.68853e-05 0)
(0.00101886 1.70465e-05 0)
(0.00102008 1.71566e-05 0)
(0.00102131 1.72162e-05 0)
(0.00102254 1.72242e-05 0)
(0.00102377 1.71814e-05 0)
(0.00102501 1.7086e-05 0)
(0.00102625 1.69393e-05 0)
(0.00102749 1.67382e-05 0)
(0.00102873 1.64847e-05 0)
(0.00102996 1.61744e-05 0)
(0.00103119 1.58104e-05 0)
(0.00103241 1.53861e-05 0)
(0.00103362 1.49068e-05 0)
(0.00103482 1.43623e-05 0)
(0.00103602 1.37616e-05 0)
(0.00103719 1.30893e-05 0)
(0.00103837 1.236e-05 0)
(0.00103951 1.15504e-05 0)
(0.00104066 1.06839e-05 0)
(0.00104177 9.72529e-06 0)
(0.0010429 8.71201e-06 0)
(0.00104397 7.59007e-06 0)
(0.00104507 6.41912e-06 0)
(0.00104609 5.11633e-06 0)
(0.00104717 3.77611e-06 0)
(0.00104815 2.27088e-06 0)
(0.00104922 7.4929e-07 0)
(0.00105013 -9.86016e-07 0)
(0.0010512 -2.7024e-06 0)
(0.00105205 -4.70803e-06 0)
(0.00105317 -6.63773e-06 0)
(0.00105395 -8.96991e-06 0)
(0.00105515 -1.11275e-05 0)
(0.00105581 -1.38544e-05 0)
(0.00105712 -1.62441e-05 0)
(0.00105755 -1.94595e-05 0)
(0.00105889 -2.20719e-05 0)
(0.001 4.67061e-07 0)
(0.00100008 1.39864e-06 0)
(0.00100024 2.32236e-06 0)
(0.00100047 3.23285e-06 0)
(0.00100078 4.12484e-06 0)
(0.00100116 4.99344e-06 0)
(0.00100162 5.83426e-06 0)
(0.00100214 6.64359e-06 0)
(0.00100272 7.41831e-06 0)
(0.00100336 8.15591e-06 0)
(0.00100406 8.85434e-06 0)
(0.00100481 9.51198e-06 0)
(0.0010056 1.01276e-05 0)
(0.00100643 1.07003e-05 0)
(0.0010073 1.12295e-05 0)
(0.00100821 1.17147e-05 0)
(0.00100915 1.21556e-05 0)
(0.00101011 1.25522e-05 0)
(0.0010111 1.29042e-05 0)
(0.00101212 1.32117e-05 0)
(0.00101315 1.34745e-05 0)
(0.0010142 1.36928e-05 0)
(0.00101526 1.38663e-05 0)
(0.00101633 1.39951e-05 0)
(0.00101742 1.40787e-05 0)
(0.00101851 1.41171e-05 0)
(0.0010196 1.41097e-05 0)
(0.0010207 1.40563e-05 0)
(0.0010218 1.39559e-05 0)
(0.0010229 1.38085e-05 0)
(0.001024 1.36123e-05 0)
(0.00102509 1.33677e-05 0)
(0.00102618 1.30719e-05 0)
(0.00102725 1.27256e-05 0)
(0.00102832 1.23252e-05 0)
(0.00102938 1.18719e-05 0)
(0.00103041 1.13605e-05 0)
(0.00103144 1.07933e-05 0)
(0.00103244 1.01629e-05 0)
(0.00103343 9.47361e-06 0)
(0.00103439 8.71443e-06 0)
(0.00103535 7.89295e-06 0)
(0.00103626 6.99301e-06 0)
(0.00103716 6.02724e-06 0)
(0.00103801 4.97172e-06 0)
(0.00103887 3.84699e-06 0)
(0.00103965 2.61729e-06 0)
(0.00104046 1.31576e-06 0)
(0.00104117 -1.1114e-07 0)
(0.00104193 -1.60937e-06 0)
(0.00104257 -3.25936e-06 0)
(0.00104329 -4.97552e-06 0)
(0.00104383 -6.88222e-06 0)
(0.00104453 -8.84532e-06 0)
(0.00104496 -1.10567e-05 0)
(0.00104565 -1.33022e-05 0)
(0.00104594 -1.58775e-05 0)
(0.00104663 -1.84401e-05 0)
(0.00104668 -2.14498e-05 0)
(0.00104728 -2.43553e-05 0)
(0.001 3.69821e-07 0)
(0.00100007 1.10769e-06 0)
(0.0010002 1.84003e-06 0)
(0.0010004 2.56302e-06 0)
(0.00100066 3.2729e-06 0)
(0.00100098 3.96606e-06 0)
(0.00100137 4.63917e-06 0)
(0.00100181 5.28926e-06 0)
(0.00100231 5.91371e-06 0)
(0.00100287 6.51025e-06 0)
(0.00100347 7.07696e-06 0)
(0.00100411 7.61221e-06 0)
(0.0010048 8.11469e-06 0)
(0.00100553 8.5833e-06 0)
(0.0010063 9.01719e-06 0)
(0.00100709 9.41569e-06 0)
(0.00100792 9.77824e-06 0)
(0.00100878 1.01044e-05 0)
(0.00100966 1.03938e-05 0)
(0.00101056 1.06461e-05 0)
(0.00101148 1.0861e-05 0)
(0.00101241 1.10383e-05 0)
(0.00101336 1.11776e-05 0)
(0.00101432 1.12786e-05 0)
(0.00101529 1.13409e-05 0)
(0.00101626 1.13642e-05 0)
(0.00101724 1.13478e-05 0)
(0.00101822 1.12912e-05 0)
(0.0010192 1.11937e-05 0)
(0.00102018 1.10546e-05 0)
(0.00102115 1.0873e-05 0)
(0.00102211 1.06479e-05 0)
(0.00102306 1.03781e-05 0)
(0.00102401 1.00624e-05 0)
(0.00102493 9.6994e-06 0)
(0.00102584 9.28736e-06 0)
(0.00102673 8.82478e-06 0)
(0.0010276 8.30931e-06 0)
(0.00102845 7.73934e-06 0)
(0.00102927 7.11165e-06 0)
(0.00103006 6.42472e-06 0)
(0.00103083 5.67403e-06 0)
(0.00103155 4.85849e-06 0)
(0.00103225 3.97161e-06 0)
(0.0010329 3.01336e-06 0)
(0.00103352 1.97418e-06 0)
(0.00103408 8.56286e-07 0)
(0.00103462 -3.5473e-07 0)
(0.00103508 -1.65221e-06 0)
(0.00103554 -3.05899e-06 0)
(0.00103589 -4.56196e-06 0)
(0.00103626 -6.19729e-06 0)
(0.00103647 -7.93816e-06 0)
(0.00103675 -9.84103e-06 0)
(0.00103681 -1.18568e-05 0)
(0.001037 -1.4075e-05 0)
(0.00103688 -1.64095e-05 0)
(0.00103696 -1.9001e-05 0)
(0.00103657 -2.17016e-05 0)
(0.00103646 -2.47295e-05 0)
(0.001 2.86818e-07 0)
(0.00100006 8.5921e-07 0)
(0.00100017 1.42766e-06 0)
(0.00100034 1.98942e-06 0)
(0.00100057 2.54176e-06 0)
(0.00100085 3.08204e-06 0)
(0.00100119 3.60777e-06 0)
(0.00100158 4.11665e-06 0)
(0.00100202 4.60663e-06 0)
(0.0010025 5.07584e-06 0)
(0.00100303 5.52266e-06 0)
(0.0010036 5.94567e-06 0)
(0.00100421 6.34365e-06 0)
(0.00100486 6.71555e-06 0)
(0.00100554 7.06047e-06 0)
(0.00100625 7.37764e-06 0)
(0.00100699 7.66642e-06 0)
(0.00100775 7.92622e-06 0)
(0.00100854 8.15657e-06 0)
(0.00100935 8.35697e-06 0)
(0.00101018 8.52704e-06 0)
(0.00101102 8.6663e-06 0)
(0.00101187 8.77442e-06 0)
(0.00101274 8.85086e-06 0)
(0.00101361 8.8953e-06 0)
(0.00101448 8.90705e-06 0)
(0.00101536 8.88579e-06 0)
(0.00101624 8.83061e-06 0)
(0.00101712 8.74118e-06 0)
(0.00101799 8.61626e-06 0)
(0.00101885 8.45558e-06 0)
(0.0010197 8.25741e-06 0)
(0.00102054 8.02161e-06 0)
(0.00102136 7.74575e-06 0)
(0.00102217 7.43004e-06 0)
(0.00102295 7.07096e-06 0)
(0.00102371 6.6694e-06 0)
(0.00102444 6.22021e-06 0)
(0.00102515 5.72555e-06 0)
(0.00102582 5.17772e-06 0)
(0.00102645 4.5811e-06 0)
(0.00102705 3.92406e-06 0)
(0.0010276 3.21477e-06 0)
(0.00102811 2.43539e-06 0)
(0.00102857 1.60051e-06 0)
(0.00102898 6.82511e-07 0)
(0.00102932 -2.93301e-07 0)
(0.00102963 -1.36996e-06 0)
(0.00102984 -2.50457e-06 0)
(0.00103002 -3.76592e-06 0)
(0.00103009 -5.0825e-06 0)
(0.00103013 -6.56302e-06 0)
(0.00103003 -8.0882e-06 0)
(0.00102991 -9.8308e-06 0)
(0.00102961 -1.15941e-05 0)
(0.00102932 -1.36539e-05 0)
(0.00102878 -1.56876e-05 0)
(0.00102829 -1.81359e-05 0)
(0.00102744 -2.04698e-05 0)
(0.00102666 -2.33917e-05 0)
(0.001 2.14009e-07 0)
(0.00100005 6.41178e-07 0)
(0.00100015 1.06558e-06 0)
(0.00100031 1.48528e-06 0)
(0.00100051 1.89833e-06 0)
(0.00100076 2.30282e-06 0)
(0.00100106 2.69696e-06 0)
(0.00100141 3.07906e-06 0)
(0.0010018 3.44756e-06 0)
(0.00100223 3.80105e-06 0)
(0.00100271 4.13824e-06 0)
(0.00100322 4.45799e-06 0)
(0.00100377 4.75928e-06 0)
(0.00100436 5.0412e-06 0)
(0.00100497 5.30296e-06 0)
(0.00100562 5.54383e-06 0)
(0.00100629 5.76321e-06 0)
(0.00100699 5.96051e-06 0)
(0.0010077 6.13526e-06 0)
(0.00100844 6.28694e-06 0)
(0.00100919 6.41518e-06 0)
(0.00100996 6.51945e-06 0)
(0.00101074 6.59943e-06 0)
(0.00101153 6.65456e-06 0)
(0.00101232 6.68456e-06 0)
(0.00101311 6.68869e-06 0)
(0.00101391 6.66676e-06 0)
(0.0010147 6.61779e-06 0)
(0.00101549 6.54166e-06 0)
(0.00101628 6.43701e-06 0)
(0.00101705 6.30391e-06 0)
(0.00101781 6.14043e-06 0)
(0.00101855 5.94698e-06 0)
(0.00101928 5.72076e-06 0)
(0.00101998 5.46279e-06 0)
(0.00102066 5.16895e-06 0)
(0.00102131 4.84136e-06 0)
(0.00102192 4.47384e-06 0)
(0.00102251 4.07042e-06 0)
(0.00102305 3.6217e-06 0)
(0.00102355 3.13491e-06 0)
(0.00102401 2.59561e-06 0)
(0.00102441 2.01639e-06 0)
(0.00102476 1.37486e-06 0)
(0.00102505 6.92407e-07 0)
(0.00102528 -6.60288e-08 0)
(0.00102544 -8.64545e-07 0)
(0.00102553 -1.75854e-06 0)
(0.00102553 -2.68904e-06 0)
(0.00102546 -3.74389e-06 0)
(0.00102528 -4.82527e-06 0)
(0.00102503 -6.07288e-06 0)
(0.00102463 -7.3258e-06 0)
(0.00102417 -8.80761e-06 0)
(0.00102353 -1.02546e-05 0)
(0.00102282 -1.20258e-05 0)
(0.00102189 -1.36896e-05 0)
(0.0010209 -1.58235e-05 0)
(0.00101959 -1.77202e-05 0)
(0.00101823 -2.03091e-05 0)
(0.001 1.48395e-07 0)
(0.00100005 4.44649e-07 0)
(0.00100014 7.39087e-07 0)
(0.00100028 1.0304e-06 0)
(0.00100047 1.31729e-06 0)
(0.0010007 1.59846e-06 0)
(0.00100097 1.8727e-06 0)
(0.00100129 2.13884e-06 0)
(0.00100165 2.3958e-06 0)
(0.00100205 2.64258e-06 0)
(0.00100248 2.87827e-06 0)
(0.00100296 3.10201e-06 0)
(0.00100347 3.31307e-06 0)
(0.00100401 3.51073e-06 0)
(0.00100457 3.69441e-06 0)
(0.00100517 3.86351e-06 0)
(0.00100579 4.01756e-06 0)
(0.00100644 4.15608e-06 0)
(0.0010071 4.27868e-06 0)
(0.00100779 4.38491e-06 0)
(0.00100848 4.47447e-06 0)
(0.00100919 4.54691e-06 0)
(0.00100991 4.60199e-06 0)
(0.00101064 4.63918e-06 0)
(0.00101138 4.65831e-06 0)
(0.00101211 4.65873e-06 0)
(0.00101285 4.64033e-06 0)
(0.00101358 4.60225e-06 0)
(0.0010143 4.5445e-06 0)
(0.00101502 4.46588e-06 0)
(0.00101572 4.36659e-06 0)
(0.00101641 4.24494e-06 0)
(0.00101708 4.10148e-06 0)
(0.00101773 3.93372e-06 0)
(0.00101835 3.74286e-06 0)
(0.00101895 3.52518e-06 0)
(0.00101951 3.28299e-06 0)
(0.00102004 3.01067e-06 0)
(0.00102053 2.71237e-06 0)
(0.00102097 2.3795e-06 0)
(0.00102137 2.0193e-06 0)
(0.00102171 1.61851e-06 0)
(0.001022 1.18949e-06 0)
(0.00102222 7.11532e-07 0)
(0.00102238 2.05425e-07 0)
(0.00102246 -3.6139e-07 0)
(0.00102247 -9.54399e-07 0)
(0.00102239 -1.62544e-06 0)
(0.00102221 -2.31763e-06 0)
(0.00102194 -3.11323e-06 0)
(0.00102156 -3.91841e-06 0)
(0.00102107 -4.86459e-06 0)
(0.00102043 -5.7978e-06 0)
(0.00101968 -6.92912e-06 0)
(0.00101876 -8.00631e-06 0)
(0.00101771 -9.36963e-06 0)
(0.00101644 -1.06056e-05 0)
(0.00101504 -1.22643e-05 0)
(0.00101336 -1.36663e-05 0)
(0.00101151 -1.57025e-05 0)
(0.001 8.75799e-08 0)
(0.00100005 2.62475e-07 0)
(0.00100013 4.36363e-07 0)
(0.00100026 6.0849e-07 0)
(0.00100044 7.78098e-07 0)
(0.00100065 9.44442e-07 0)
(0.00100091 1.10681e-06 0)
(0.00100121 1.26451e-06 0)
(0.00100155 1.41691e-06 0)
(0.00100193 1.56341e-06 0)
(0.00100234 1.70346e-06 0)
(0.00100279 1.83655e-06 0)
(0.00100327 1.96221e-06 0)
(0.00100378 2.08001e-06 0)
(0.00100432 2.18958e-06 0)
(0.00100488 2.29053e-06 0)
(0.00100547 2.38258e-06 0)
(0.00100608 2.46539e-06 0)
(0.00100671 2.53872e-06 0)
(0.00100736 2.60227e-06 0)
(0.00100802 2.65586e-06 0)
(0.0010087 2.69916e-06 0)
(0.00100938 2.73204e-06 0)
(0.00101007 2.75414e-06 0)
(0.00101076 2.76534e-06 0)
(0.00101146 2.76523e-06 0)
(0.00101215 2.75373e-06 0)
(0.00101284 2.73028e-06 0)
(0.00101352 2.69491e-06 0)
(0.00101419 2.64681e-06 0)
(0.00101485 2.58616e-06 0)
(0.00101549 2.51181e-06 0)
(0.00101611 2.42422e-06 0)
(0.0010167 2.32167e-06 0)
(0.00101727 2.20508e-06 0)
(0.00101781 2.07192e-06 0)
(0.00101832 1.92387e-06 0)
(0.00101878 1.75707e-06 0)
(0.0010192 1.57455e-06 0)
(0.00101958 1.37037e-06 0)
(0.0010199 1.14976e-06 0)
(0.00102017 9.03512e-07 0)
(0.00102037 6.40463e-07 0)
(0.00102051 3.46246e-07 0)
(0.00102058 3.56031e-08 0)
(0.00102056 -3.14132e-07 0)
(0.00102046 -6.78568e-07 0)
(0.00102026 -1.0939e-06 0)
(0.00101996 -1.51979e-06 0)
(0.00101955 -2.01381e-06 0)
(0.00101902 -2.50956e-06 0)
(0.00101836 -3.09932e-06 0)
(0.00101755 -3.67413e-06 0)
(0.0010166 -4.38253e-06 0)
(0.00101548 -5.04588e-06 0)
(0.00101418 -5.90427e-06 0)
(0.00101268 -6.66438e-06 0)
(0.00101097 -7.71573e-06 0)
(0.00100901 -8.5751e-06 0)
(0.00100682 -9.87592e-06 0)
(0.001 2.9519e-08 0)
(0.00100004 8.85377e-08 0)
(0.00100013 1.47289e-07 0)
(0.00100026 2.05521e-07 0)
(0.00100042 2.62981e-07 0)
(0.00100064 3.1942e-07 0)
(0.00100089 3.74596e-07 0)
(0.00100118 4.28281e-07 0)
(0.00100151 4.80258e-07 0)
(0.00100187 5.30324e-07 0)
(0.00100227 5.78292e-07 0)
(0.00100271 6.23985e-07 0)
(0.00100317 6.67245e-07 0)
(0.00100367 7.07921e-07 0)
(0.00100419 7.4588e-07 0)
(0.00100474 7.80993e-07 0)
(0.00100532 8.13154e-07 0)
(0.00100591 8.42248e-07 0)
(0.00100652 8.68191e-07 0)
(0.00100715 8.90875e-07 0)
(0.0010078 9.10231e-07 0)
(0.00100845 9.26152e-07 0)
(0.00100911 9.38583e-07 0)
(0.00100979 9.47403e-07 0)
(0.00101046 9.52573e-07 0)
(0.00101113 9.53942e-07 0)
(0.00101181 9.51493e-07 0)
(0.00101247 9.45024e-07 0)
(0.00101313 9.34552e-07 0)
(0.00101378 9.19796e-07 0)
(0.00101441 9.00828e-07 0)
(0.00101503 8.77244e-07 0)
(0.00101562 8.49214e-07 0)
(0.00101619 8.1614e-07 0)
(0.00101674 7.78362e-07 0)
(0.00101725 7.3498e-07 0)
(0.00101772 6.8662e-07 0)
(0.00101816 6.31911e-07 0)
(0.00101855 5.7196e-07 0)
(0.00101889 5.04655e-07 0)
(0.00101917 4.31901e-07 0)
(0.0010194 3.50413e-07 0)
(0.00101956 2.63416e-07 0)
(0.00101965 1.65765e-07 0)
(0.00101967 6.28461e-08 0)
(0.0010196 -5.34905e-08 0)
(0.00101945 -1.74486e-07 0)
(0.00101919 -3.13092e-07 0)
(0.00101882 -4.54774e-07 0)
(0.00101834 -6.20139e-07 0)
(0.00101773 -7.85295e-07 0)
(0.00101699 -9.83312e-07 0)
(0.00101609 -1.17499e-06 0)
(0.00101504 -1.41363e-06 0)
(0.00101381 -1.63493e-06 0)
(0.00101238 -1.92517e-06 0)
(0.00101075 -2.17868e-06 0)
(0.0010089 -2.53567e-06 -3.61127e-38)
(0.00100679 -2.82186e-06 0)
(0.00100442 -3.26571e-06 0)
(0.001 -2.76462e-08 0)
(0.00100004 -8.27207e-08 0)
(0.00100013 -1.37346e-07 0)
(0.00100026 -1.91285e-07 0)
(0.00100042 -2.44302e-07 0)
(0.00100064 -2.96163e-07 0)
(0.00100089 -3.46643e-07 0)
(0.00100118 -3.95529e-07 0)
(0.00100151 -4.42619e-07 0)
(0.00100187 -4.87723e-07 0)
(0.00100227 -5.30668e-07 0)
(0.00100271 -5.71289e-07 0)
(0.00100317 -6.0944e-07 0)
(0.00100367 -6.44981e-07 0)
(0.00100419 -6.77792e-07 0)
(0.00100474 -7.07751e-07 0)
(0.00100532 -7.34762e-07 0)
(0.00100591 -7.58717e-07 0)
(0.00100652 -7.79538e-07 0)
(0.00100715 -7.97123e-07 0)
(0.0010078 -8.11408e-07 0)
(0.00100845 -8.2229e-07 0)
(0.00100912 -8.29716e-07 0)
(0.00100979 -8.33566e-07 0)
(0.00101046 -8.33802e-07 0)
(0.00101114 -8.30272e-07 0)
(0.00101181 -8.22957e-07 0)
(0.00101248 -8.11653e-07 0)
(0.00101314 -7.96373e-07 0)
(0.00101378 -7.76828e-07 0)
(0.00101442 -7.53087e-07 0)
(0.00101503 -7.24736e-07 0)
(0.00101563 -6.91938e-07 0)
(0.0010162 -6.54085e-07 0)
(0.00101674 -6.11506e-07 0)
(0.00101725 -5.6329e-07 0)
(0.00101773 -5.10052e-07 0)
(0.00101816 -4.50408e-07 0)
(0.00101855 -3.85451e-07 0)
(0.00101889 -3.13054e-07 0)
(0.00101918 -2.35106e-07 0)
(0.00101941 -1.48307e-07 0)
(0.00101957 -5.58491e-08 0)
(0.00101966 4.74351e-08 0)
(0.00101968 1.56223e-07 0)
(0.00101961 2.78696e-07 0)
(0.00101946 4.06099e-07 0)
(0.0010192 5.51337e-07 0)
(0.00101884 6.99937e-07 0)
(0.00101835 8.72478e-07 0)
(0.00101775 1.04518e-06 0)
(0.001017 1.25104e-06 0)
(0.00101611 1.45103e-06 0)
(0.00101505 1.69834e-06 0)
(0.00101382 1.92887e-06 0)
(0.0010124 2.22871e-06 0)
(0.00101077 2.49252e-06 0)
(0.00100891 2.8602e-06 3.61127e-38)
(0.00100681 3.15788e-06 0)
(0.00100444 3.61362e-06 0)
(0.001 -8.57217e-08 0)
(0.00100005 -2.56704e-07 0)
(0.00100013 -4.265e-07 0)
(0.00100026 -5.94369e-07 0)
(0.00100044 -7.59573e-07 0)
(0.00100066 -9.21381e-07 0)
(0.00100091 -1.07909e-06 0)
(0.00100121 -1.23204e-06 0)
(0.00100155 -1.37961e-06 0)
(0.00100193 -1.52119e-06 0)
(0.00100234 -1.65628e-06 0)
(0.00100279 -1.78434e-06 0)
(0.00100327 -1.90495e-06 0)
(0.00100378 -2.01768e-06 0)
(0.00100432 -2.12215e-06 0)
(0.00100489 -2.21801e-06 0)
(0.00100548 -2.30496e-06 0)
(0.00100609 -2.38269e-06 0)
(0.00100672 -2.45095e-06 0)
(0.00100737 -2.50947e-06 0)
(0.00100803 -2.55804e-06 0)
(0.0010087 -2.59636e-06 0)
(0.00100939 -2.62429e-06 0)
(0.00101008 -2.64147e-06 0)
(0.00101077 -2.6478e-06 0)
(0.00101147 -2.64285e-06 0)
(0.00101216 -2.62654e-06 0)
(0.00101285 -2.59831e-06 0)
(0.00101353 -2.55818e-06 0)
(0.0010142 -2.50535e-06 0)
(0.00101486 -2.43998e-06 0)
(0.0010155 -2.36092e-06 0)
(0.00101612 -2.26861e-06 0)
(0.00101672 -2.16133e-06 0)
(0.00101729 -2.04e-06 0)
(0.00101783 -1.90204e-06 0)
(0.00101833 -1.74916e-06 0)
(0.0010188 -1.57747e-06 0)
(0.00101923 -1.38999e-06 0)
(0.0010196 -1.18075e-06 0)
(0.00101993 -9.54968e-07 0)
(0.00102019 -7.03423e-07 0)
(0.0010204 -4.34954e-07 0)
(0.00102054 -1.35151e-07 0)
(0.0010206 1.81181e-07 0)
(0.00102059 5.36791e-07 0)
(0.00102049 9.07379e-07 0)
(0.00102029 1.32912e-06 0)
(0.00102 1.76175e-06 0)
(0.00101959 2.26277e-06 0)
(0.00101906 2.76592e-06 0)
(0.0010184 3.36334e-06 0)
(0.0010176 3.94631e-06 0)
(0.00101665 4.66316e-06 0)
(0.00101552 5.33559e-06 0)
(0.00101423 6.20332e-06 0)
(0.00101273 6.97359e-06 0)
(0.00101103 8.03528e-06 0)
(0.00100907 8.90604e-06 0)
(0.00100688 1.02183e-05 0)
(0.001 -1.46574e-07 0)
(0.00100005 -4.38994e-07 0)
(0.00100014 -7.29423e-07 0)
(0.00100028 -1.01657e-06 0)
(0.00100047 -1.29914e-06 0)
(0.0010007 -1.57588e-06 0)
(0.00100097 -1.84556e-06 0)
(0.00100129 -2.10705e-06 0)
(0.00100165 -2.35928e-06 0)
(0.00100205 -2.60125e-06 0)
(0.00100249 -2.83207e-06 0)
(0.00100296 -3.0509e-06 0)
(0.00100347 -3.25701e-06 0)
(0.00100401 -3.4497e-06 0)
(0.00100458 -3.62839e-06 0)
(0.00100518 -3.79251e-06 0)
(0.0010058 -3.94158e-06 0)
(0.00100644 -4.07513e-06 0)
(0.00100711 -4.19277e-06 0)
(0.00100779 -4.29407e-06 0)
(0.00100849 -4.37873e-06 0)
(0.0010092 -4.4463e-06 0)
(0.00100993 -4.49654e-06 0)
(0.00101066 -4.52893e-06 0)
(0.00101139 -4.54329e-06 0)
(0.00101213 -4.53899e-06 0)
(0.00101286 -4.51589e-06 0)
(0.00101359 -4.47314e-06 0)
(0.00101432 -4.41075e-06 0)
(0.00101504 -4.32751e-06 0)
(0.00101574 -4.22361e-06 0)
(0.00101643 -4.09736e-06 0)
(0.00101711 -3.9493e-06 0)
(0.00101776 -3.77694e-06 0)
(0.00101838 -3.58145e-06 0)
(0.00101898 -3.35912e-06 0)
(0.00101954 -3.11223e-06 0)
(0.00102007 -2.83516e-06 0)
(0.00102056 -2.53202e-06 0)
(0.00102101 -2.19426e-06 0)
(0.00102141 -1.82906e-06 0)
(0.00102175 -1.42319e-06 0)
(0.00102204 -9.88925e-07 0)
(0.00102227 -5.05652e-07 0)
(0.00102243 6.00626e-09 0)
(0.00102251 5.78447e-07 0)
(0.00102252 1.17741e-06 0)
(0.00102245 1.8547e-06 0)
(0.00102227 2.55351e-06 0)
(0.00102201 3.35595e-06 0)
(0.00102162 4.16835e-06 0)
(0.00102113 5.12192e-06 0)
(0.0010205 6.06305e-06 0)
(0.00101976 7.20244e-06 0)