/*--------------------------------*- C++ -*----------------------------------*\
| =========                 |                                                 |
| \\      /  F ield         | OpenFOAM: The Open Source CFD Toolbox           |
|  \\    /   O peration     | Version:  2312                                  |
|   \\  /    A nd           | Website:  www.openfoam.com                      |
|    \\/     M anipulation  |                                                 |
\*---------------------------------------------------------------------------*/
FoamFile
{
    version     2.0;
    format      ascii;
    arch        "LSB;label=32;scalar=64";
    class       volVectorField;
    location    "176000";
    object      U;
}
// * * * * * * * * * * * * * * * * * * * * * * * * * * * * * * * * * * * * * //

dimensions      [0 1 -1 0 0 0 0];

internalField   nonuniform List<vector> 
10800
(
(0.000992484 4.93647e-06 0)
(0.000990048 1.24417e-05 0)
(0.000986902 1.74526e-05 0)
(0.000980557 2.06259e-05 0)
(0.000971182 2.26988e-05 0)
(0.000959937 2.41826e-05 0)
(0.00094789 2.53123e-05 0)
(0.000935574 2.61629e-05 0)
(0.000923131 2.67588e-05 0)
(0.00091054 2.71252e-05 0)
(0.000897755 2.73e-05 0)
(0.00088477 2.73261e-05 0)
(0.000871622 2.72418e-05 0)
(0.000858364 2.70751e-05 0)
(0.000845048 2.68444e-05 0)
(0.00083171 2.65613e-05 0)
(0.000818375 2.6234e-05 0)
(0.00080506 2.58689e-05 0)
(0.00079178 2.54715e-05 0)
(0.000778548 2.50467e-05 0)
(0.000765379 2.45979e-05 0)
(0.000752286 2.41284e-05 0)
(0.000739284 2.36398e-05 0)
(0.000726384 2.31338e-05 0)
(0.0007136 2.26112e-05 0)
(0.000700944 2.20731e-05 0)
(0.000688427 2.15193e-05 0)
(0.000676062 2.09509e-05 0)
(0.000663862 2.03672e-05 0)
(0.000651838 1.97693e-05 0)
(0.000640005 1.91557e-05 0)
(0.000628373 1.85286e-05 0)
(0.000616958 1.78852e-05 0)
(0.00060577 1.72291e-05 0)
(0.000594826 1.6556e-05 0)
(0.000584136 1.5872e-05 0)
(0.000573718 1.51699e-05 0)
(0.000563579 1.44601e-05 0)
(0.000553743 1.37305e-05 0)
(0.000544208 1.29983e-05 0)
(0.00053501 1.22432e-05 0)
(0.000526131 1.14941e-05 0)
(0.000517629 1.07155e-05 0)
(0.000509448 9.95655e-06 0)
(0.000501706 9.15525e-06 0)
(0.000494253 8.39512e-06 0)
(0.000487357 7.56864e-06 0)
(0.000480618 6.81619e-06 0)
(0.000474722 5.95639e-06 0)
(0.000468568 5.21266e-06 0)
(0.000464037 4.30961e-06 0)
(0.00045798 3.53178e-06 0)
(0.000455844 2.61833e-06 0)
(0.000448278 1.56475e-06 0)
(0.000451637 9.57604e-07 0)
(0.000437509 -1.43191e-06 0)
(0.000455668 -1.08981e-07 0)
(0.000419993 -7.93337e-06 0)
(0.000478164 1.78148e-06 0)
(0.000383568 -2.47591e-05 0)
(0.00100003 5.78244e-06 0)
(0.00100173 1.49343e-05 0)
(0.00100425 2.14275e-05 0)
(0.00100711 2.59543e-05 0)
(0.00100987 2.92776e-05 0)
(0.00101231 3.1926e-05 0)
(0.00101438 3.41472e-05 0)
(0.00101611 3.6028e-05 0)
(0.00101755 3.76014e-05 0)
(0.00101873 3.88982e-05 0)
(0.00101965 3.996e-05 0)
(0.00102032 4.08328e-05 0)
(0.00102072 4.15576e-05 0)
(0.00102087 4.21645e-05 0)
(0.00102077 4.26737e-05 0)
(0.00102043 4.3098e-05 0)
(0.00101986 4.34462e-05 0)
(0.00101909 4.3725e-05 0)
(0.00101811 4.39401e-05 0)
(0.00101694 4.40961e-05 0)
(0.0010156 4.41964e-05 0)
(0.00101407 4.42436e-05 0)
(0.00101239 4.42395e-05 0)
(0.00101054 4.41848e-05 0)
(0.00100855 4.40802e-05 0)
(0.00100641 4.39253e-05 0)
(0.00100417 4.37206e-05 0)
(0.00100177 4.34643e-05 0)
(0.0009993 4.31577e-05 0)
(0.000996685 4.27972e-05 0)
(0.000994025 4.23856e-05 0)
(0.000991218 4.19166e-05 0)
(0.000988417 4.13967e-05 0)
(0.000985445 4.08146e-05 0)
(0.000982555 4.01834e-05 0)
(0.000979441 3.94832e-05 0)
(0.000976525 3.87393e-05 0)
(0.00097328 3.79155e-05 0)
(0.000970418 3.70602e-05 0)
(0.000967036 3.61066e-05 0)
(0.000964341 3.51449e-05 0)
(0.000960779 3.40528e-05 0)
(0.000958414 3.29962e-05 0)
(0.000954566 3.17515e-05 0)
(0.000952784 3.06215e-05 0)
(0.00094843 2.91985e-05 0)
(0.000947634 2.80321e-05 0)
(0.000942357 2.63833e-05 0)
(0.000943215 2.52436e-05 0)
(0.000936243 2.32815e-05 0)
(0.000939876 2.2274e-05 0)
(0.000929819 1.98416e-05 0)
(0.000938127 1.91392e-05 0)
(0.000922517 1.59684e-05 0)
(0.000938721 1.58392e-05 0)
(0.00091322 1.15139e-05 0)
(0.000942792 1.22963e-05 0)
(0.000899865 6.34486e-06 0)
(0.000952237 8.05162e-06 0)
(0.000879275 8.82779e-07 0)
(0.000999989 1.93285e-06 0)
(0.00100079 5.67613e-06 0)
(0.00100226 9.14454e-06 0)
(0.00100428 1.22545e-05 0)
(0.00100662 1.50036e-05 0)
(0.00100909 1.74373e-05 0)
(0.00101156 1.96106e-05 0)
(0.00101398 2.15669e-05 0)
(0.00101635 2.33338e-05 0)
(0.00101867 2.49284e-05 0)
(0.00102096 2.63641e-05 0)
(0.0010232 2.76546e-05 0)
(0.00102539 2.88147e-05 0)
(0.00102753 2.98582e-05 0)
(0.0010296 3.0798e-05 0)
(0.0010316 3.16438e-05 0)
(0.00103354 3.24039e-05 0)
(0.00103542 3.30841e-05 0)
(0.00103724 3.369e-05 0)
(0.00103899 3.42246e-05 0)
(0.0010407 3.46925e-05 0)
(0.00104234 3.50947e-05 0)
(0.00104393 3.5435e-05 0)
(0.00104546 3.57122e-05 0)
(0.00104695 3.59303e-05 0)
(0.00104837 3.60855e-05 0)
(0.00104976 3.61829e-05 0)
(0.00105107 3.62155e-05 0)
(0.00105236 3.61911e-05 0)
(0.00105356 3.60981e-05 0)
(0.00105477 3.59492e-05 0)
(0.00105585 3.57257e-05 0)
(0.00105699 3.54486e-05 0)
(0.00105796 3.50885e-05 0)
(0.00105904 3.46798e-05 0)
(0.00105988 3.41761e-05 0)
(0.00106094 3.36332e-05 0)
(0.00106164 3.29782e-05 0)
(0.00106271 3.23005e-05 0)
(0.00106324 3.14859e-05 0)
(0.00106437 3.06754e-05 0)
(0.00106468 2.96918e-05 0)
(0.00106598 2.87547e-05 0)
(0.00106599 2.75909e-05 0)
(0.00106758 2.65379e-05 0)
(0.00106716 2.51803e-05 0)
(0.00106923 2.40287e-05 0)
(0.00106817 2.24604e-05 0)
(0.00107104 2.12351e-05 0)
(0.001069 1.94372e-05 0)
(0.0010731 1.81718e-05 0)
(0.00106956 1.61282e-05 0)
(0.00107557 1.48662e-05 0)
(0.0010697 1.25774e-05 0)
(0.00107864 1.1372e-05 0)
(0.00106918 8.89385e-06 0)
(0.00108258 7.8053e-06 0)
(0.00106761 5.34656e-06 0)
(0.00108782 4.39652e-06 0)
(0.0010645 2.48064e-06 0)
(0.00100001 1.70163e-06 0)
(0.00100047 5.04062e-06 0)
(0.0010013 8.22444e-06 0)
(0.00100244 1.11773e-05 0)
(0.00100382 1.38589e-05 0)
(0.00100537 1.6267e-05 0)
(0.00100704 1.84235e-05 0)
(0.00100879 2.03589e-05 0)
(0.00101059 2.21005e-05 0)
(0.00101244 2.36695e-05 0)
(0.00101433 2.50818e-05 0)
(0.00101624 2.63506e-05 0)
(0.00101818 2.74885e-05 0)
(0.00102013 2.85075e-05 0)
(0.00102209 2.94195e-05 0)
(0.00102406 3.02348e-05 0)
(0.00102603 3.09626e-05 0)
(0.001028 3.16097e-05 0)
(0.00102997 3.21825e-05 0)
(0.00103193 3.26849e-05 0)
(0.00103389 3.31218e-05 0)
(0.00103585 3.34949e-05 0)
(0.00103781 3.38079e-05 0)
(0.00103976 3.4061e-05 0)
(0.00104172 3.42571e-05 0)
(0.00104365 3.43946e-05 0)
(0.0010456 3.44765e-05 0)
(0.00104752 3.4499e-05 0)
(0.00104946 3.4466e-05 0)
(0.00105137 3.43712e-05 0)
(0.00105329 3.42203e-05 0)
(0.00105518 3.40039e-05 0)
(0.0010571 3.37305e-05 0)
(0.00105896 3.33866e-05 0)
(0.00106087 3.2985e-05 0)
(0.00106269 3.25072e-05 0)
(0.0010646 3.19713e-05 0)
(0.00106639 3.13526e-05 0)
(0.00106829 3.06764e-05 0)
(0.00107003 2.99102e-05 0)
(0.00107195 2.90879e-05 0)
(0.00107362 2.81686e-05 0)
(0.00107557 2.71947e-05 0)
(0.00107715 2.61188e-05 0)
(0.00107916 2.49877e-05 0)
(0.00108063 2.37551e-05 0)
(0.00108275 2.2461e-05 0)
(0.00108407 2.10773e-05 0)
(0.00108634 1.96125e-05 0)
(0.00108747 1.8094e-05 0)
(0.00108998 1.64477e-05 0)
(0.00109083 1.48301e-05 0)
(0.0010937 1.29869e-05 0)
(0.00109417 1.13421e-05 0)
(0.00109754 9.28051e-06 0)
(0.00109747 7.74236e-06 0)
(0.00110156 5.42723e-06 0)
(0.00110069 4.21126e-06 0)
(0.00110581 1.54946e-06 0)
(0.00110377 9.66891e-07 0)
(0.001 1.10119e-06 0)
(0.00100023 3.27822e-06 0)
(0.00100069 5.39251e-06 0)
(0.00100138 7.41296e-06 0)
(0.00100227 9.31874e-06 0)
(0.00100334 1.11001e-05 0)
(0.00100456 1.27561e-05 0)
(0.00100589 1.42913e-05 0)
(0.00100731 1.57123e-05 0)
(0.0010088 1.70255e-05 0)
(0.00101035 1.82367e-05 0)
(0.00101194 1.9351e-05 0)
(0.00101358 2.03736e-05 0)
(0.00101526 2.13093e-05 0)
(0.00101696 2.21633e-05 0)
(0.00101868 2.29405e-05 0)
(0.00102043 2.36454e-05 0)
(0.00102218 2.42817e-05 0)
(0.00102396 2.48527e-05 0)
(0.00102574 2.5361e-05 0)
(0.00102753 2.58088e-05 0)
(0.00102933 2.61978e-05 0)
(0.00103113 2.65291e-05 0)
(0.00103295 2.68036e-05 0)
(0.00103477 2.70218e-05 0)
(0.00103659 2.7184e-05 0)
(0.00103841 2.72896e-05 0)
(0.00104024 2.73388e-05 0)
(0.00104208 2.73302e-05 0)
(0.00104391 2.72637e-05 0)
(0.00104575 2.7137e-05 0)
(0.00104758 2.69505e-05 0)
(0.00104942 2.67003e-05 0)
(0.00105125 2.63886e-05 0)
(0.00105309 2.60084e-05 0)
(0.00105492 2.55653e-05 0)
(0.00105675 2.50477e-05 0)
(0.00105858 2.44674e-05 0)
(0.00106041 2.38042e-05 0)
(0.00106222 2.30811e-05 0)
(0.00106405 2.22635e-05 0)
(0.00106585 2.13935e-05 0)
(0.00106767 2.04115e-05 0)
(0.00106947 1.93933e-05 0)
(0.00107127 1.82355e-05 0)
(0.00107307 1.70718e-05 0)
(0.00107487 1.57247e-05 0)
(0.00107667 1.44256e-05 0)
(0.00107846 1.28713e-05 0)
(0.00108027 1.14578e-05 0)
(0.00108206 9.67121e-06 0)
(0.00108392 8.17938e-06 0)
(0.0010857 6.12006e-06 0)
(0.00108767 4.60629e-06 0)
(0.00108948 2.20648e-06 0)
(0.00109163 7.72248e-07 0)
(0.00109346 -2.0611e-06 0)
(0.00109587 -3.24652e-06 0)
(0.00109763 -6.66107e-06 0)
(0.00110023 -7.35789e-06 0)
(0.001 8.66726e-07 0)
(0.00100018 2.59347e-06 0)
(0.00100053 4.29579e-06 0)
(0.00100105 5.95544e-06 0)
(0.00100172 7.5556e-06 0)
(0.00100253 9.08301e-06 0)
(0.00100346 1.0529e-05 0)
(0.00100449 1.18894e-05 0)
(0.00100562 1.31631e-05 0)
(0.00100681 1.43512e-05 0)
(0.00100807 1.54554e-05 0)
(0.00100939 1.64781e-05 0)
(0.00101075 1.74218e-05 0)
(0.00101216 1.82893e-05 0)
(0.00101361 1.90835e-05 0)
(0.00101508 1.98074e-05 0)
(0.00101659 2.04639e-05 0)
(0.00101812 2.10559e-05 0)
(0.00101967 2.15855e-05 0)
(0.00102124 2.20552e-05 0)
(0.00102282 2.24663e-05 0)
(0.00102442 2.28207e-05 0)
(0.00102603 2.31188e-05 0)
(0.00102765 2.33622e-05 0)
(0.00102928 2.35504e-05 0)
(0.00103092 2.36847e-05 0)
(0.00103256 2.37635e-05 0)
(0.00103421 2.37882e-05 0)
(0.00103586 2.37561e-05 0)
(0.00103751 2.3669e-05 0)
(0.00103917 2.35225e-05 0)
(0.00104083 2.33197e-05 0)
(0.00104248 2.30537e-05 0)
(0.00104414 2.27302e-05 0)
(0.00104579 2.23383e-05 0)
(0.00104745 2.18881e-05 0)
(0.0010491 2.13629e-05 0)
(0.00105075 2.07798e-05 0)
(0.00105238 2.01126e-05 0)
(0.00105403 1.93903e-05 0)
(0.00105565 1.85715e-05 0)
(0.0010573 1.77042e-05 0)
(0.00105891 1.67229e-05 0)
(0.00106055 1.57063e-05 0)
(0.00106214 1.45496e-05 0)
(0.0010638 1.33816e-05 0)
(0.00106537 1.20339e-05 0)
(0.00106706 1.07162e-05 0)
(0.00106861 9.15712e-06 0)
(0.00107034 7.69817e-06 0)
(0.00107188 5.90128e-06 0)
(0.00107369 4.3233e-06 0)
(0.00107518 2.25442e-06 0)
(0.00107709 5.93127e-07 0)
(0.00107854 -1.80616e-06 0)
(0.00108065 -3.50707e-06 0)
(0.00108203 -6.34574e-06 0)
(0.00108444 -8.0076e-06 0)
(0.00108564 -1.14415e-05 0)
(0.00108828 -1.29407e-05 0)
(0.001 6.62437e-07 0)
(0.00100013 1.98273e-06 0)
(0.00100039 3.28631e-06 0)
(0.00100078 4.56138e-06 0)
(0.00100128 5.79744e-06 0)
(0.0010019 6.98602e-06 0)
(0.00100262 8.12098e-06 0)
(0.00100344 9.19851e-06 0)
(0.00100434 1.02166e-05 0)
(0.00100531 1.11748e-05 0)
(0.00100635 1.20733e-05 0)
(0.00100746 1.29128e-05 0)
(0.00100861 1.36943e-05 0)
(0.00100981 1.4419e-05 0)
(0.00101105 1.5088e-05 0)
(0.00101233 1.57025e-05 0)
(0.00101365 1.62637e-05 0)
(0.00101499 1.67729e-05 0)
(0.00101635 1.7231e-05 0)
(0.00101774 1.76391e-05 0)
(0.00101915 1.79977e-05 0)
(0.00102058 1.83075e-05 0)
(0.00102201 1.85683e-05 0)
(0.00102347 1.87809e-05 0)
(0.00102493 1.89442e-05 0)
(0.00102639 1.90589e-05 0)
(0.00102787 1.91232e-05 0)
(0.00102935 1.91378e-05 0)
(0.00103083 1.90997e-05 0)
(0.00103232 1.90104e-05 0)
(0.0010338 1.88653e-05 0)
(0.00103529 1.8667e-05 0)
(0.00103677 1.84088e-05 0)
(0.00103825 1.80952e-05 0)
(0.00103972 1.77167e-05 0)
(0.00104119 1.72807e-05 0)
(0.00104265 1.67732e-05 0)
(0.00104411 1.6207e-05 0)
(0.00104555 1.55608e-05 0)
(0.001047 1.48561e-05 0)
(0.00104842 1.40603e-05 0)
(0.00104986 1.32085e-05 0)
(0.00105125 1.22503e-05 0)
(0.00105268 1.12432e-05 0)
(0.00105405 1.01076e-05 0)
(0.00105546 8.93766e-06 0)
(0.00105681 7.60645e-06 0)
(0.00105822 6.26716e-06 0)
(0.00105954 4.71644e-06 0)
(0.00106097 3.2025e-06 0)
(0.00106227 1.39906e-06 0)
(0.00106376 -2.89029e-07 0)
(0.00106504 -2.38766e-06 0)
(0.00106662 -4.22962e-06 0)
(0.00106788 -6.67271e-06 0)
(0.00106958 -8.63831e-06 0)
(0.00107079 -1.15145e-05 0)
(0.00107267 -1.35574e-05 0)
(0.00107372 -1.70096e-05 0)
(0.00107569 -1.90449e-05 0)
(0.001 5.04918e-07 0)
(0.00100011 1.513e-06 0)
(0.00100031 2.5124e-06 0)
(0.00100061 3.49617e-06 0)
(0.00100101 4.45773e-06 0)
(0.00100151 5.39127e-06 0)
(0.00100209 6.29195e-06 0)
(0.00100276 7.15604e-06 0)
(0.0010035 7.98085e-06 0)
(0.00100432 8.76463e-06 0)
(0.00100519 9.50633e-06 0)
(0.00100612 1.02054e-05 0)
(0.00100711 1.08616e-05 0)
(0.00100814 1.14749e-05 0)
(0.00100922 1.20452e-05 0)
(0.00101034 1.25726e-05 0)
(0.00101148 1.30573e-05 0)
(0.00101266 1.34996e-05 0)
(0.00101387 1.38995e-05 0)
(0.00101509 1.42572e-05 0)
(0.00101634 1.45725e-05 0)
(0.00101761 1.48455e-05 0)
(0.00101889 1.50757e-05 0)
(0.00102018 1.52631e-05 0)
(0.00102149 1.54064e-05 0)
(0.0010228 1.55058e-05 0)
(0.00102412 1.55595e-05 0)
(0.00102544 1.55675e-05 0)
(0.00102676 1.55273e-05 0)
(0.00102809 1.54391e-05 0)
(0.00102941 1.52996e-05 0)
(0.00103073 1.51094e-05 0)
(0.00103205 1.4864e-05 0)
(0.00103336 1.45647e-05 0)
(0.00103466 1.42054e-05 0)
(0.00103595 1.37891e-05 0)
(0.00103723 1.3307e-05 0)
(0.00103851 1.27645e-05 0)
(0.00103977 1.21492e-05 0)
(0.00104102 1.14707e-05 0)
(0.00104224 1.07106e-05 0)
(0.00104347 9.88519e-06 0)
(0.00104466 8.96669e-06 0)
(0.00104586 7.98279e-06 0)
(0.00104702 6.89034e-06 0)
(0.00104819 5.73568e-06 0)
(0.00104931 4.4508e-06 0)
(0.00105047 3.11323e-06 0)
(0.00105155 1.61398e-06 0)
(0.00105269 8.26906e-08 0)
(0.00105373 -1.65736e-06 0)
(0.00105487 -3.3959e-06 0)
(0.00105588 -5.41938e-06 0)
(0.00105705 -7.3792e-06 0)
(0.00105803 -9.74443e-06 0)
(0.00105926 -1.19276e-05 0)
(0.00106019 -1.47055e-05 0)
(0.00106148 -1.71049e-05 0)
(0.00106226 -2.04017e-05 0)
(0.00106347 -2.29846e-05 0)
(0.001 3.79554e-07 0)
(0.00100009 1.1384e-06 0)
(0.00100025 1.8927e-06 0)
(0.0010005 2.63812e-06 0)
(0.00100083 3.37038e-06 0)
(0.00100125 4.08558e-06 0)
(0.00100173 4.78021e-06 0)
(0.00100229 5.45137e-06 0)
(0.00100292 6.09668e-06 0)
(0.0010036 6.71428e-06 0)
(0.00100435 7.30263e-06 0)
(0.00100515 7.86059e-06 0)
(0.001006 8.38726e-06 0)
(0.0010069 8.88204e-06 0)
(0.00100783 9.34443e-06 0)
(0.00100881 9.77407e-06 0)
(0.00100982 1.01706e-05 0)
(0.00101085 1.05339e-05 0)
(0.00101192 1.08634e-05 0)
(0.001013 1.11589e-05 0)
(0.00101411 1.14199e-05 0)
(0.00101524 1.1646e-05 0)
(0.00101638 1.18363e-05 0)
(0.00101753 1.19904e-05 0)
(0.0010187 1.21071e-05 0)
(0.00101987 1.21858e-05 0)
(0.00102104 1.22249e-05 0)
(0.00102222 1.22235e-05 0)
(0.0010234 1.21799e-05 0)
(0.00102458 1.2093e-05 0)
(0.00102575 1.19604e-05 0)
(0.00102692 1.17812e-05 0)
(0.00102808 1.15524e-05 0)
(0.00102924 1.12731e-05 0)
(0.00103038 1.09396e-05 0)
(0.00103151 1.05512e-05 0)
(0.00103262 1.01034e-05 0)
(0.00103373 9.59583e-06 0)
(0.0010348 9.02269e-06 0)
(0.00103587 8.38463e-06 0)
(0.00103691 7.67375e-06 0)
(0.00103793 6.89245e-06 0)
(0.00103892 6.02959e-06 0)
(0.0010399 5.09066e-06 0)
(0.00104084 4.05922e-06 0)
(0.00104177 2.94623e-06 0)
(0.00104265 1.72594e-06 0)
(0.00104353 4.19829e-07 0)
(0.00104436 -1.01188e-06 0)
(0.0010452 -2.52863e-06 0)
(0.00104596 -4.19846e-06 0)
(0.00104676 -5.94701e-06 0)
(0.00104746 -7.8905e-06 0)
(0.00104822 -9.8984e-06 0)
(0.00104887 -1.21663e-05 0)
(0.00104959 -1.44603e-05 0)
(0.00105016 -1.71161e-05 0)
(0.00105085 -1.97184e-05 0)
(0.00105126 -2.28436e-05 0)
(0.00105176 -2.57597e-05 0)
(0.001 2.75212e-07 0)
(0.00100007 8.26221e-07 0)
(0.00100021 1.37518e-06 0)
(0.00100043 1.91936e-06 0)
(0.00100071 2.45609e-06 0)
(0.00100106 2.9828e-06 0)
(0.00100147 3.49712e-06 0)
(0.00100195 3.99697e-06 0)
(0.00100248 4.48049e-06 0)
(0.00100308 4.94615e-06 0)
(0.00100372 5.39259e-06 0)
(0.00100442 5.81869e-06 0)
(0.00100516 6.22349e-06 0)
(0.00100594 6.6062e-06 0)
(0.00100676 6.96612e-06 0)
(0.00100762 7.30262e-06 0)
(0.00100851 7.6151e-06 0)
(0.00100943 7.90298e-06 0)
(0.00101037 8.16562e-06 0)
(0.00101134 8.40239e-06 0)
(0.00101233 8.61253e-06 0)
(0.00101333 8.79525e-06 0)
(0.00101435 8.94966e-06 0)
(0.00101538 9.07475e-06 0)
(0.00101642 9.16944e-06 0)
(0.00101747 9.23252e-06 0)
(0.00101852 9.26269e-06 0)
(0.00101957 9.25846e-06 0)
(0.00102062 9.21836e-06 0)
(0.00102167 9.14053e-06 0)
(0.00102271 9.02338e-06 0)
(0.00102374 8.86464e-06 0)
(0.00102476 8.66266e-06 0)
(0.00102577 8.41465e-06 0)
(0.00102677 8.11902e-06 0)
(0.00102775 7.77225e-06 0)
(0.00102871 7.37301e-06 0)
(0.00102965 6.91674e-06 0)
(0.00103057 6.4027e-06 0)
(0.00103146 5.82477e-06 0)
(0.00103232 5.18326e-06 0)
(0.00103316 4.46984e-06 0)
(0.00103396 3.68651e-06 0)
(0.00103473 2.82166e-06 0)
(0.00103546 1.88001e-06 0)
(0.00103616 8.45088e-07 0)
(0.00103681 -2.73338e-07 0)
(0.00103743 -1.49764e-06 0)
(0.001038 -2.81341e-06 0)
(0.00103854 -4.25281e-06 0)
(0.00103902 -5.79473e-06 0)
(0.00103946 -7.48081e-06 0)
(0.00103984 -9.28163e-06 0)
(0.00104019 -1.12505e-05 0)
(0.00104047 -1.33501e-05 0)
(0.0010407 -1.56443e-05 0)
(0.00104086 -1.80918e-05 0)
(0.00104096 -2.07592e-05 0)
(0.00104092 -2.36121e-05 0)
(0.00104073 -2.66975e-05 0)
(0.001 1.86065e-07 0)
(0.00100006 5.59371e-07 0)
(0.00100019 9.32344e-07 0)
(0.00100037 1.3034e-06 0)
(0.00100061 1.67097e-06 0)
(0.00100092 2.03351e-06 0)
(0.00100128 2.38955e-06 0)
(0.00100169 2.73773e-06 0)
(0.00100216 3.07681e-06 0)
(0.00100268 3.4057e-06 0)
(0.00100325 3.72337e-06 0)
(0.00100386 4.02893e-06 0)
(0.00100451 4.32154e-06 0)
(0.00100521 4.60044e-06 0)
(0.00100594 4.86491e-06 0)
(0.0010067 5.11423e-06 0)
(0.00100749 5.3477e-06 0)
(0.00100831 5.56459e-06 0)
(0.00100916 5.76415e-06 0)
(0.00101002 5.94554e-06 0)
(0.00101091 6.10791e-06 0)
(0.00101181 6.25025e-06 0)
(0.00101272 6.37159e-06 0)
(0.00101365 6.47068e-06 0)
(0.00101458 6.54647e-06 0)
(0.00101552 6.59743e-06 0)
(0.00101646 6.6224e-06 0)
(0.0010174 6.61951e-06 0)
(0.00101833 6.58754e-06 0)
(0.00101927 6.52418e-06 0)
(0.00102019 6.42825e-06 0)
(0.0010211 6.29684e-06 0)
(0.001022 6.12904e-06 0)
(0.00102289 5.92106e-06 0)
(0.00102376 5.67252e-06 0)
(0.0010246 5.37837e-06 0)
(0.00102543 5.03922e-06 0)
(0.00102622 4.64809e-06 0)
(0.00102699 4.20729e-06 0)
(0.00102773 3.70691e-06 0)
(0.00102843 3.15211e-06 0)
(0.00102909 2.52846e-06 0)
(0.00102972 1.84581e-06 0)
(0.0010303 1.0823e-06 0)
(0.00103083 2.55618e-07 0)
(0.00103132 -6.6529e-07 0)
(0.00103175 -1.65127e-06 0)
(0.00103213 -2.75094e-06 0)
(0.00103245 -3.91808e-06 0)
(0.00103271 -5.22587e-06 0)
(0.0010329 -6.59923e-06 0)
(0.00103302 -8.14855e-06 0)
(0.00103307 -9.75595e-06 0)
(0.00103303 -1.15881e-05 0)
(0.00103293 -1.34621e-05 0)
(0.0010327 -1.56289e-05 0)
(0.00103243 -1.78068e-05 0)
(0.00103198 -2.03718e-05 0)
(0.00103145 -2.28918e-05 0)
(0.00103063 -2.59254e-05 0)
(0.001 1.08209e-07 0)
(0.00100006 3.26231e-07 0)
(0.00100016 5.45193e-07 0)
(0.00100033 7.64368e-07 0)
(0.00100054 9.83011e-07 0)
(0.00100081 1.20037e-06 0)
(0.00100113 1.41571e-06 0)
(0.0010015 1.62832e-06 0)
(0.00100192 1.83753e-06 0)
(0.00100238 2.04269e-06 0)
(0.00100289 2.24317e-06 0)
(0.00100343 2.43837e-06 0)
(0.00100402 2.62768e-06 0)
(0.00100464 2.8105e-06 0)
(0.0010053 2.9862e-06 0)
(0.00100598 3.15414e-06 0)
(0.0010067 3.31365e-06 0)
(0.00100744 3.46398e-06 0)
(0.0010082 3.60439e-06 0)
(0.00100899 3.73398e-06 0)
(0.00100979 3.85189e-06 0)
(0.0010106 3.95702e-06 0)
(0.00101143 4.04841e-06 0)
(0.00101227 4.12473e-06 0)
(0.00101311 4.18493e-06 0)
(0.00101396 4.2274e-06 0)
(0.00101481 4.25105e-06 0)
(0.00101565 4.25389e-06 0)
(0.0010165 4.23485e-06 0)
(0.00101733 4.19146e-06 0)
(0.00101816 4.1228e-06 0)
(0.00101897 4.02573e-06 0)
(0.00101976 3.89973e-06 0)
(0.00102054 3.7407e-06 0)
(0.0010213 3.54884e-06 0)
(0.00102203 3.31864e-06 0)
(0.00102274 3.05158e-06 0)
(0.00102341 2.73995e-06 0)
(0.00102405 2.38742e-06 0)
(0.00102465 1.98281e-06 0)
(0.00102521 1.53321e-06 0)
(0.00102573 1.02197e-06 0)
(0.0010262 4.62397e-07 0)
(0.00102661 -1.69442e-07 0)
(0.00102698 -8.51272e-07 0)
(0.00102728 -1.62044e-06 0)
(0.00102752 -2.44062e-06 0)
(0.00102768 -3.37016e-06 0)
(0.00102778 -4.34817e-06 0)
(0.00102779 -5.46442e-06 0)
(0.00102772 -6.6206e-06 0)
(0.00102754 -7.95594e-06 0)
(0.0010273 -9.31322e-06 0)
(0.00102691 -1.09089e-05 0)
(0.00102645 -1.24929e-05 0)
(0.00102581 -1.44023e-05 0)
(0.00102512 -1.624e-05 0)
(0.00102417 -1.85315e-05 0)
(0.00102318 -2.06461e-05 0)
(0.00102179 -2.3401e-05 0)
(0.001 3.81325e-08 0)
(0.00100005 1.16514e-07 0)
(0.00100015 1.97076e-07 0)
(0.0010003 2.79779e-07 0)
(0.00100049 3.64521e-07 0)
(0.00100073 4.5116e-07 0)
(0.00100102 5.3954e-07 0)
(0.00100136 6.29484e-07 0)
(0.00100174 7.20795e-07 0)
(0.00100216 8.13239e-07 0)
(0.00100262 9.06547e-07 0)
(0.00100312 1.00041e-06 0)
(0.00100365 1.0945e-06 0)
(0.00100422 1.18842e-06 0)
(0.00100482 1.28174e-06 0)
(0.00100545 1.37394e-06 0)
(0.0010061 1.4645e-06 0)
(0.00100678 1.55275e-06 0)
(0.00100748 1.63805e-06 0)
(0.0010082 1.71953e-06 0)
(0.00100893 1.79642e-06 0)
(0.00100968 1.86766e-06 0)
(0.00101044 1.93232e-06 0)
(0.00101121 1.98912e-06 0)
(0.00101198 2.03706e-06 0)
(0.00101276 2.0746e-06 0)
(0.00101353 2.10067e-06 0)
(0.0010143 2.11342e-06 0)
(0.00101507 2.11179e-06 0)
(0.00101583 2.09348e-06 0)
(0.00101657 2.05761e-06 0)
(0.00101731 2.00127e-06 0)
(0.00101802 1.92397e-06 0)
(0.00101871 1.82193e-06 0)
(0.00101938 1.69534e-06 0)
(0.00102002 1.53913e-06 0)
(0.00102063 1.35472e-06 0)
(0.00102121 1.13506e-06 0)
(0.00102174 8.83623e-07 0)
(0.00102224 5.90336e-07 0)
(0.00102268 2.62233e-07 0)
(0.00102308 -1.15421e-07 0)
(0.00102342 -5.30376e-07 0)
(0.00102371 -1.00467e-06 0)
(0.00102393 -1.51769e-06 0)
(0.00102408 -2.10479e-06 0)
(0.00102416 -2.73089e-06 0)
(0.00102415 -3.44929e-06 0)
(0.00102405 -4.20276e-06 0)
(0.00102386 -5.07435e-06 0)
(0.00102357 -5.97111e-06 0)
(0.00102316 -7.02327e-06 0)
(0.00102265 -8.08107e-06 0)
(0.00102197 -9.34925e-06 0)
(0.00102121 -1.0587e-05 0)
(0.00102023 -1.21177e-05 0)
(0.00101917 -1.35539e-05 0)
(0.00101782 -1.54083e-05 0)
(0.0010164 -1.70556e-05 0)
(0.00101456 -1.93086e-05 0)
(0.001 -2.53301e-08 0)
(0.00100005 -7.35984e-08 0)
(0.00100014 -1.18882e-07 0)
(0.00100027 -1.60644e-07 0)
(0.00100046 -1.98403e-07 0)
(0.00100068 -2.31758e-07 0)
(0.00100095 -2.60377e-07 0)
(0.00100126 -2.83961e-07 0)
(0.00100161 -3.02232e-07 0)
(0.001002 -3.14957e-07 0)
(0.00100243 -3.21958e-07 0)
(0.00100289 -3.23172e-07 0)
(0.00100339 -3.18617e-07 0)
(0.00100392 -3.08416e-07 0)
(0.00100448 -2.92781e-07 0)
(0.00100506 -2.72022e-07 0)
(0.00100567 -2.46509e-07 0)
(0.00100631 -2.16755e-07 0)
(0.00100696 -1.83295e-07 0)
(0.00100763 -1.46838e-07 0)
(0.00100832 -1.08096e-07 0)
(0.00100902 -6.80138e-08 0)
(0.00100973 -2.74229e-08 0)
(0.00101045 1.25435e-08 0)
(0.00101117 5.09058e-08 0)
(0.00101189 8.63219e-08 0)
(0.00101261 1.17771e-07 0)
(0.00101333 1.43576e-07 0)
(0.00101404 1.62747e-07 0)
(0.00101474 1.73303e-07 0)
(0.00101543 1.74323e-07 0)
(0.0010161 1.6342e-07 0)
(0.00101676 1.39944e-07 0)
(0.00101739 1.00911e-07 0)
(0.00101799 4.62122e-08 0)
(0.00101856 -2.80315e-08 0)
(0.0010191 -1.21112e-07 0)
(0.00101961 -2.38285e-07 0)
(0.00102007 -3.77353e-07 0)
(0.00102049 -5.45647e-07 0)
(0.00102085 -7.38389e-07 0)
(0.00102117 -9.66054e-07 0)
(0.00102142 -1.22041e-06 0)
(0.00102161 -1.5182e-06 0)
(0.00102172 -1.84464e-06 0)
(0.00102176 -2.22404e-06 0)
(0.00102172 -2.63198e-06 0)
(0.00102158 -3.10579e-06 0)
(0.00102135 -3.60532e-06 0)
(0.00102101 -4.18888e-06 0)
(0.00102056 -4.79115e-06 0)
(0.00101997 -5.50359e-06 0)
(0.00101927 -6.22051e-06 0)
(0.00101839 -7.08631e-06 0)
(0.00101739 -7.93028e-06 0)
(0.00101617 -8.98172e-06 0)
(0.00101482 -9.96428e-06 0)
(0.00101319 -1.12441e-05 0)
(0.00101142 -1.23712e-05 0)
(0.00100928 -1.39322e-05 0)
(0.001 -8.4269e-08 0)
(0.00100004 -2.50322e-07 0)
(0.00100013 -4.12893e-07 0)
(0.00100026 -5.7097e-07 0)
(0.00100043 -7.23525e-07 0)
(0.00100065 -8.69588e-07 0)
(0.0010009 -1.00829e-06 0)
(0.0010012 -1.13884e-06 0)
(0.00100153 -1.26048e-06 0)
(0.0010019 -1.37255e-06 0)
(0.00100231 -1.47449e-06 0)
(0.00100275 -1.56587e-06 0)
(0.00100323 -1.64641e-06 0)
(0.00100373 -1.71594e-06 0)
(0.00100427 -1.77441e-06 0)
(0.00100483 -1.82189e-06 0)
(0.00100541 -1.85857e-06 0)
(0.00100601 -1.88473e-06 0)
(0.00100664 -1.90077e-06 0)
(0.00100728 -1.90722e-06 0)
(0.00100794 -1.90466e-06 0)
(0.00100861 -1.89385e-06 0)
(0.00100928 -1.87554e-06 0)
(0.00100997 -1.85066e-06 0)
(0.00101066 -1.82012e-06 0)
(0.00101135 -1.78503e-06 0)
(0.00101204 -1.74637e-06 0)
(0.00101272 -1.70545e-06 0)
(0.0010134 -1.66332e-06 0)
(0.00101406 -1.62143e-06 0)
(0.00101472 -1.58084e-06 0)
(0.00101535 -1.54322e-06 0)
(0.00101597 -1.50953e-06 0)
(0.00101656 -1.48162e-06 0)
(0.00101713 -1.46025e-06 0)
(0.00101766 -1.44762e-06 0)
(0.00101817 -1.44411e-06 0)
(0.00101863 -1.45247e-06 0)
(0.00101905 -1.47243e-06 0)
(0.00101942 -1.50762e-06 0)
(0.00101974 -1.55702e-06 0)
(0.00102 -1.6256e-06 0)
(0.0010202 -1.71069e-06 0)
(0.00102033 -1.81897e-06 0)
(0.00102039 -1.94538e-06 0)
(0.00102036 -2.0996e-06 0)
(0.00102025 -2.27292e-06 0)
(0.00102004 -2.47968e-06 0)
(0.00101973 -2.70536e-06 0)
(0.00101931 -2.97183e-06 0)
(0.00101876 -3.25568e-06 0)
(0.00101808 -3.59032e-06 0)
(0.00101726 -3.93812e-06 0)
(0.00101627 -4.35079e-06 0)
(0.00101513 -4.7681e-06 0)
(0.00101378 -5.27181e-06 0)
(0.00101226 -5.76459e-06 0)
(0.00101048 -6.37585e-06 -4.68294e-38)
(0.0010085 -6.9468e-06 0)
(0.00100621 -7.68429e-06 0)
(0.001 -1.4189e-07 0)
(0.00100004 -4.2291e-07 0)
(0.00100013 -6.99664e-07 0)
(0.00100025 -9.70656e-07 0)
(0.00100042 -1.23438e-06 0)
(0.00100063 -1.48938e-06 0)
(0.00100088 -1.73428e-06 0)
(0.00100117 -1.96784e-06 0)
(0.0010015 -2.18891e-06 0)
(0.00100186 -2.39649e-06 0)
(0.00100226 -2.58973e-06 0)
(0.0010027 -2.7679e-06 0)
(0.00100316 -2.93041e-06 0)
(0.00100366 -3.07683e-06 0)
(0.00100418 -3.20685e-06 0)
(0.00100473 -3.3203e-06 0)
(0.0010053 -3.41714e-06 0)
(0.00100589 -3.49742e-06 0)
(0.0010065 -3.56136e-06 0)
(0.00100713 -3.60925e-06 0)
(0.00100778 -3.64156e-06 0)
(0.00100843 -3.65881e-06 0)
(0.0010091 -3.6617e-06 0)
(0.00100977 -3.65093e-06 0)
(0.00101045 -3.62734e-06 0)
(0.00101113 -3.59175e-06 0)
(0.0010118 -3.54514e-06 0)
(0.00101247 -3.48835e-06 0)
(0.00101314 -3.42253e-06 0)
(0.00101379 -3.34855e-06 0)
(0.00101444 -3.26763e-06 0)
(0.00101506 -3.18064e-06 0)
(0.00101567 -3.08888e-06 0)
(0.00101625 -2.99306e-06 0)
(0.0010168 -2.89467e-06 0)
(0.00101733 -2.79416e-06 0)
(0.00101782 -2.69314e-06 0)
(0.00101827 -2.59166e-06 0)
(0.00101868 -2.49167e-06 0)
(0.00101904 -2.39259e-06 0)
(0.00101934 -2.29694e-06 0)
(0.0010196 -2.20316e-06 0)
(0.00101978 -2.11476e-06 0)
(0.0010199 -2.02842e-06 0)
(0.00101995 -1.94949e-06 0)
(0.00101991 -1.87176e-06 0)
(0.00101979 -1.80356e-06 0)
(0.00101957 -1.73424e-06 0)
(0.00101924 -1.67735e-06 0)
(0.0010188 -1.61427e-06 0)
(0.00101824 -1.56824e-06 0)
(0.00101754 -1.50884e-06 0)
(0.00101669 -1.47415e-06 0)
(0.0010157 -1.41322e-06 0)
(0.00101452 -1.38953e-06 0)
(0.00101317 -1.31789e-06 0)
(0.00101159 -1.30446e-06 0)
(0.00100982 -1.2084e-06 4.68294e-38)
(0.00100776 -1.2063e-06 0)
(0.00100551 -1.06512e-06 0)
(0.001 -1.99239e-07 0)
(0.00100004 -5.94694e-07 0)
(0.00100013 -9.85096e-07 0)
(0.00100026 -1.36844e-06 0)
(0.00100043 -1.74275e-06 0)
(0.00100064 -2.10613e-06 0)
(0.00100089 -2.45676e-06 0)
(0.00100118 -2.79296e-06 0)
(0.00100151 -3.11321e-06 0)
(0.00100188 -3.41613e-06 0)
(0.00100228 -3.7005e-06 0)
(0.00100272 -3.96526e-06 0)
(0.00100319 -4.20953e-06 0)
(0.00100369 -4.43259e-06 0)
(0.00100422 -4.63389e-06 0)
(0.00100477 -4.81304e-06 0)
(0.00100535 -4.96981e-06 0)
(0.00100594 -5.10405e-06 0)
(0.00100656 -5.21582e-06 0)
(0.0010072 -5.30523e-06 0)
(0.00100785 -5.37262e-06 0)
(0.00100851 -5.41834e-06 0)
(0.00100918 -5.44295e-06 0)
(0.00100986 -5.44694e-06 0)
(0.00101054 -5.43108e-06 0)
(0.00101123 -5.39587e-06 0)
(0.00101191 -5.34225e-06 0)
(0.00101259 -5.27075e-06 0)
(0.00101327 -5.18245e-06 0)
(0.00101393 -5.07776e-06 0)
(0.00101459 -4.95799e-06 0)
(0.00101522 -4.82325e-06 0)
(0.00101584 -4.67511e-06 0)
(0.00101644 -4.51326e-06 0)
(0.00101701 -4.33962e-06 0)
(0.00101755 -4.15312e-06 0)
(0.00101806 -3.95635e-06 0)
(0.00101853 -3.74703e-06 0)
(0.00101896 -3.52887e-06 0)
(0.00101934 -3.29766e-06 0)
(0.00101968 -3.059e-06 0)
(0.00101996 -2.80565e-06 0)
(0.00102017 -2.54632e-06 0)
(0.00102033 -2.26891e-06 0)
(0.00102041 -1.98747e-06 0)
(0.00102041 -1.68203e-06 0)
(0.00102033 -1.37561e-06 0)
(0.00102015 -1.03556e-06 0)
(0.00101988 -6.99414e-07 0)
(0.0010195 -3.14455e-07 0)
(0.00101899 5.63098e-08 0)
(0.00101837 4.99931e-07 0)
(0.00101758 9.12126e-07 0)
(0.00101668 1.43485e-06 0)
(0.00101556 1.89518e-06 0)
(0.00101434 2.52657e-06 0)
(0.00101283 3.04155e-06 0)
(0.00101122 3.82332e-06 0)
(0.00100924 4.3941e-06 0)
(0.0010072 5.38391e-06 0)
(0.001 -2.57994e-07 0)
(0.00100005 -7.70692e-07 0)
(0.00100013 -1.27756e-06 0)
(0.00100027 -1.77609e-06 0)
(0.00100044 -2.26377e-06 0)
(0.00100067 -2.73819e-06 0)
(0.00100093 -3.19707e-06 0)
(0.00100123 -3.63827e-06 0)
(0.00100158 -4.05984e-06 0)
(0.00100196 -4.46004e-06 0)
(0.00100238 -4.8373e-06 0)
(0.00100283 -5.19026e-06 0)
(0.00100332 -5.51778e-06 0)
(0.00100384 -5.81889e-06 0)
(0.00100439 -6.09281e-06 0)
(0.00100496 -6.33895e-06 0)
(0.00100556 -6.5569e-06 0)
(0.00100618 -6.74636e-06 0)
(0.00100682 -6.90728e-06 0)
(0.00100748 -7.03962e-06 0)
(0.00100815 -7.14361e-06 0)
(0.00100884 -7.21944e-06 0)
(0.00100954 -7.26756e-06 0)
(0.00101024 -7.28826e-06 0)
(0.00101095 -7.28221e-06 0)
(0.00101166 -7.2497e-06 0)
(0.00101238 -7.1916e-06 0)
(0.00101309 -7.10813e-06 0)
(0.0010138 -7.00034e-06 0)
(0.00101449 -6.86825e-06 0)
(0.00101518 -6.71312e-06 0)
(0.00101585 -6.53459e-06 0)
(0.00101651 -6.33424e-06 0)
(0.00101715 -6.11099e-06 0)
(0.00101776 -5.86697e-06 0)
(0.00101834 -5.60002e-06 0)
(0.0010189 -5.31312e-06 0)
(0.00101942 -5.00246e-06 0)
(0.0010199 -4.67252e-06 0)
(0.00102035 -4.31683e-06 0)
(0.00102074 -3.94254e-06 0)
(0.00102108 -3.53887e-06 0)
(0.00102137 -3.11736e-06 0)
(0.0010216 -2.66052e-06 0)
(0.00102176 -2.18719e-06 0)
(0.00102185 -1.66899e-06 0)
(0.00102186 -1.1372e-06 0)
(0.00102179 -5.45624e-07 0)
(0.00102162 5.36586e-08 0)
(0.00102137 7.35262e-07 0)