/*--------------------------------*- C++ -*----------------------------------*\
| =========                 |                                                 |
| \\      /  F ield         | OpenFOAM: The Open Source CFD Toolbox           |
|  \\    /   O peration     | Version:  2312                                  |
|   \\  /    A nd           | Website:  www.openfoam.com                      |
|    \\/     M anipulation  |                                                 |
\*---------------------------------------------------------------------------*/
FoamFile
{
    version     2.0;
    format      ascii;
    arch        "LSB;label=32;scalar=64";
    class       volScalarField;
    location    "155000";
    object      p;
}
// * * * * * * * * * * * * * * * * * * * * * * * * * * * * * * * * * * * * * //

dimensions      [0 2 -2 0 0 0 0];

internalField   nonuniform List<scalar> 
2715
(
6.03234e-07
5.89108e-07
5.75334e-07
5.64747e-07
5.57311e-07
5.51903e-07
5.47432e-07
5.43329e-07
5.39428e-07
5.35733e-07
5.32284e-07
5.29084e-07
5.26099e-07
5.23278e-07
5.20577e-07
5.17961e-07
5.15408e-07
5.12906e-07
5.10443e-07
5.0801e-07
5.05598e-07
5.03201e-07
5.0081e-07
4.9842e-07
4.96027e-07
4.93626e-07
4.91214e-07
4.88788e-07
4.86346e-07
4.83887e-07
4.81408e-07
4.78908e-07
4.76388e-07
4.73845e-07
4.71281e-07
4.68694e-07
4.66086e-07
4.63456e-07
4.60804e-07
4.58131e-07
4.55437e-07
4.52723e-07
4.49989e-07
4.47234e-07
4.44458e-07
4.41661e-07
4.38843e-07
4.35999e-07
4.33134e-07
4.30232e-07
4.27315e-07
4.24331e-07
4.21359e-07
4.18232e-07
4.15244e-07
4.11767e-07
4.09048e-07
4.04275e-07
4.03595e-07
3.92574e-07
5.55212e-07
5.53481e-07
5.5083e-07
5.47695e-07
5.44467e-07
5.41356e-07
5.38413e-07
5.35604e-07
5.32876e-07
5.302e-07
5.27569e-07
5.2499e-07
5.22468e-07
5.20004e-07
5.1759e-07
5.15218e-07
5.12878e-07
5.10563e-07
5.08266e-07
5.05981e-07
5.03706e-07
5.01435e-07
4.99164e-07
4.9689e-07
4.9461e-07
4.92321e-07
4.9002e-07
4.87705e-07
4.85375e-07
4.83028e-07
4.80663e-07
4.78278e-07
4.75873e-07
4.73448e-07
4.71002e-07
4.68534e-07
4.66046e-07
4.63535e-07
4.61006e-07
4.58451e-07
4.55881e-07
4.53283e-07
4.50674e-07
4.48031e-07
4.45384e-07
4.42694e-07
4.40013e-07
4.37271e-07
4.34564e-07
4.31767e-07
4.29054e-07
4.26201e-07
4.23534e-07
4.20645e-07
4.18159e-07
4.15302e-07
4.13334e-07
4.10587e-07
4.09753e-07
4.06706e-07
5.46526e-07
5.45772e-07
5.44352e-07
5.4239e-07
5.40093e-07
5.37656e-07
5.35207e-07
5.32794e-07
5.30422e-07
5.28077e-07
5.2575e-07
5.23441e-07
5.21155e-07
5.18898e-07
5.16669e-07
5.14469e-07
5.12292e-07
5.10133e-07
5.07988e-07
5.05852e-07
5.03722e-07
5.01596e-07
4.9947e-07
4.97341e-07
4.95208e-07
4.93067e-07
4.90918e-07
4.88758e-07
4.86585e-07
4.84398e-07
4.82197e-07
4.79979e-07
4.77746e-07
4.75494e-07
4.73226e-07
4.70939e-07
4.68634e-07
4.66309e-07
4.63968e-07
4.61604e-07
4.59226e-07
4.56822e-07
4.54407e-07
4.51963e-07
4.49512e-07
4.47026e-07
4.44542e-07
4.42014e-07
4.39502e-07
4.36933e-07
4.34407e-07
4.31803e-07
4.29283e-07
4.26655e-07
4.24178e-07
4.21541e-07
4.1916e-07
4.16521e-07
4.14278e-07
4.11546e-07
5.34853e-07
5.34418e-07
5.33625e-07
5.32526e-07
5.31189e-07
5.29686e-07
5.28073e-07
5.26389e-07
5.24656e-07
5.22885e-07
5.21082e-07
5.19251e-07
5.17401e-07
5.15535e-07
5.1366e-07
5.11779e-07
5.09892e-07
5.08e-07
5.06102e-07
5.04198e-07
5.02287e-07
5.00368e-07
4.98441e-07
4.96505e-07
4.94559e-07
4.92603e-07
4.90634e-07
4.88654e-07
4.86661e-07
4.84654e-07
4.82634e-07
4.806e-07
4.78551e-07
4.76487e-07
4.74408e-07
4.72314e-07
4.70205e-07
4.68079e-07
4.65939e-07
4.63781e-07
4.61609e-07
4.59417e-07
4.57212e-07
4.54984e-07
4.52743e-07
4.50477e-07
4.48196e-07
4.45884e-07
4.43558e-07
4.41194e-07
4.38814e-07
4.36386e-07
4.33944e-07
4.31442e-07
4.28932e-07
4.26347e-07
4.23762e-07
4.21085e-07
4.18429e-07
4.15686e-07
5.28251e-07
5.28035e-07
5.27598e-07
5.26943e-07
5.26087e-07
5.25058e-07
5.23889e-07
5.22611e-07
5.21246e-07
5.19814e-07
5.18326e-07
5.16791e-07
5.15216e-07
5.13608e-07
5.11972e-07
5.10314e-07
5.08636e-07
5.06941e-07
5.05232e-07
5.03509e-07
5.01773e-07
5.00025e-07
4.98265e-07
4.96494e-07
4.94712e-07
4.92919e-07
4.91115e-07
4.893e-07
4.87474e-07
4.85637e-07
4.83789e-07
4.8193e-07
4.8006e-07
4.7818e-07
4.76289e-07
4.74386e-07
4.72473e-07
4.70549e-07
4.68615e-07
4.66668e-07
4.64711e-07
4.62741e-07
4.60759e-07
4.58764e-07
4.56754e-07
4.54729e-07
4.52688e-07
4.50628e-07
4.48548e-07
4.46445e-07
4.44313e-07
4.42146e-07
4.39935e-07
4.37666e-07
4.35323e-07
4.32892e-07
4.30361e-07
4.27736e-07
4.25027e-07
4.22332e-07
5.22843e-07
5.22677e-07
5.22346e-07
5.21854e-07
5.21209e-07
5.20429e-07
5.1953e-07
5.18532e-07
5.1745e-07
5.16295e-07
5.15079e-07
5.13809e-07
5.12491e-07
5.11131e-07
5.09734e-07
5.08305e-07
5.06847e-07
5.05365e-07
5.0386e-07
5.02335e-07
5.00792e-07
4.99232e-07
4.97656e-07
4.96066e-07
4.94462e-07
4.92846e-07
4.91218e-07
4.89578e-07
4.87928e-07
4.86269e-07
4.84599e-07
4.82921e-07
4.81234e-07
4.79539e-07
4.77836e-07
4.76126e-07
4.74408e-07
4.72684e-07
4.70952e-07
4.69213e-07
4.67467e-07
4.65713e-07
4.6395e-07
4.62178e-07
4.60395e-07
4.58599e-07
4.56786e-07
4.54956e-07
4.53101e-07
4.51222e-07
4.49311e-07
4.4737e-07
4.4539e-07
4.43377e-07
4.41309e-07
4.3919e-07
4.36986e-07
4.34718e-07
4.32382e-07
4.30105e-07
5.18631e-07
5.1851e-07
5.18267e-07
5.17903e-07
5.17422e-07
5.16831e-07
5.16138e-07
5.15355e-07
5.1449e-07
5.13554e-07
5.12553e-07
5.11495e-07
5.10385e-07
5.09229e-07
5.08031e-07
5.06795e-07
5.05526e-07
5.04226e-07
5.029e-07
5.01549e-07
5.00176e-07
4.98784e-07
4.97373e-07
4.95947e-07
4.94506e-07
4.93051e-07
4.91585e-07
4.90109e-07
4.88623e-07
4.87128e-07
4.85627e-07
4.84119e-07
4.82605e-07
4.81087e-07
4.79565e-07
4.78039e-07
4.76512e-07
4.74982e-07
4.73451e-07
4.71918e-07
4.70384e-07
4.6885e-07
4.67314e-07
4.65776e-07
4.64236e-07
4.62694e-07
4.61147e-07
4.59595e-07
4.58035e-07
4.56465e-07
4.54874e-07
4.53258e-07
4.51604e-07
4.49913e-07
4.48176e-07
4.46399e-07
4.44566e-07
4.42701e-07
4.40806e-07
4.38995e-07
5.15333e-07
5.15238e-07
5.15048e-07
5.14762e-07
5.14381e-07
5.13909e-07
5.13351e-07
5.12714e-07
5.12003e-07
5.11224e-07
5.10384e-07
5.09487e-07
5.08538e-07
5.07543e-07
5.06505e-07
5.05428e-07
5.04317e-07
5.03175e-07
5.02004e-07
5.00807e-07
4.99588e-07
4.98347e-07
4.97089e-07
4.95814e-07
4.94525e-07
4.93223e-07
4.9191e-07
4.90587e-07
4.89257e-07
4.87921e-07
4.8658e-07
4.85236e-07
4.83889e-07
4.82541e-07
4.81194e-07
4.79848e-07
4.78505e-07
4.77165e-07
4.7583e-07
4.745e-07
4.73176e-07
4.71859e-07
4.70548e-07
4.69244e-07
4.67947e-07
4.66656e-07
4.6537e-07
4.64089e-07
4.6281e-07
4.61535e-07
4.60261e-07
4.58986e-07
4.57699e-07
4.564e-07
4.55077e-07
4.53737e-07
4.52371e-07
4.51004e-07
4.49649e-07
4.48411e-07
5.12741e-07
5.12663e-07
5.12507e-07
5.12272e-07
5.11959e-07
5.11569e-07
5.11105e-07
5.10573e-07
5.09975e-07
5.09316e-07
5.086e-07
5.07832e-07
5.07015e-07
5.06153e-07
5.0525e-07
5.04309e-07
5.03334e-07
5.02328e-07
5.01293e-07
5.00233e-07
4.99151e-07
4.98047e-07
4.96926e-07
4.95789e-07
4.94638e-07
4.93476e-07
4.92304e-07
4.91124e-07
4.89939e-07
4.8875e-07
4.87559e-07
4.86368e-07
4.85178e-07
4.83992e-07
4.8281e-07
4.81635e-07
4.80468e-07
4.79311e-07
4.78165e-07
4.77031e-07
4.75912e-07
4.74808e-07
4.7372e-07
4.72651e-07
4.716e-07
4.70569e-07
4.69558e-07
4.68569e-07
4.67599e-07
4.66648e-07
4.6571e-07
4.6479e-07
4.63885e-07
4.62997e-07
4.6212e-07
4.61259e-07
4.6041e-07
4.59593e-07
4.58823e-07
4.58191e-07
5.10726e-07
5.1066e-07
5.10529e-07
5.1033e-07
5.10065e-07
5.09734e-07
5.09339e-07
5.08884e-07
5.08372e-07
5.07805e-07
5.07186e-07
5.06519e-07
5.05807e-07
5.05053e-07
5.0426e-07
5.03432e-07
5.0257e-07
5.01679e-07
5.0076e-07
4.99817e-07
4.98851e-07
4.97867e-07
4.96865e-07
4.95849e-07
4.9482e-07
4.93782e-07
4.92736e-07
4.91684e-07
4.90629e-07
4.89573e-07
4.88518e-07
4.87466e-07
4.8642e-07
4.85381e-07
4.84351e-07
4.83334e-07
4.8233e-07
4.81343e-07
4.80373e-07
4.79424e-07
4.78498e-07
4.77596e-07
4.76721e-07
4.75874e-07
4.75059e-07
4.74277e-07
4.7353e-07
4.72822e-07
4.72148e-07
4.71513e-07
4.70917e-07
4.70366e-07
4.69856e-07
4.69393e-07
4.68975e-07
4.68609e-07
4.68293e-07
4.68047e-07
4.67889e-07
4.67893e-07
5.09199e-07
5.09142e-07
5.09028e-07
5.08856e-07
5.08626e-07
5.08338e-07
5.07995e-07
5.07598e-07
5.0715e-07
5.06653e-07
5.06109e-07
5.05521e-07
5.04892e-07
5.04223e-07
5.03519e-07
5.02781e-07
5.02012e-07
5.01215e-07
5.00392e-07
4.99546e-07
4.9868e-07
4.97795e-07
4.96896e-07
4.95983e-07
4.9506e-07
4.94128e-07
4.93191e-07
4.92251e-07
4.91311e-07
4.90372e-07
4.89437e-07
4.88509e-07
4.8759e-07
4.86683e-07
4.8579e-07
4.84915e-07
4.84059e-07
4.83225e-07
4.82417e-07
4.81637e-07
4.80888e-07
4.80173e-07
4.79495e-07
4.78857e-07
4.78262e-07
4.77715e-07
4.77217e-07
4.76771e-07
4.76381e-07
4.76052e-07
4.75786e-07
4.75588e-07
4.75462e-07
4.75412e-07
4.75441e-07
4.75557e-07
4.75765e-07
4.76082e-07
4.76527e-07
4.7716e-07
5.08095e-07
5.08045e-07
5.07943e-07
5.0779e-07
5.07586e-07
5.0733e-07
5.07025e-07
5.06671e-07
5.06271e-07
5.05826e-07
5.05339e-07
5.04811e-07
5.04245e-07
5.03644e-07
5.03008e-07
5.02342e-07
5.01646e-07
5.00925e-07
5.00179e-07
4.99412e-07
4.98626e-07
4.97825e-07
4.97009e-07
4.96182e-07
4.95346e-07
4.94505e-07
4.93659e-07
4.92813e-07
4.91969e-07
4.9113e-07
4.90297e-07
4.89475e-07
4.88665e-07
4.87871e-07
4.87097e-07
4.86344e-07
4.85616e-07
4.84916e-07
4.84248e-07
4.83615e-07
4.83021e-07
4.8247e-07
4.81965e-07
4.81511e-07
4.81112e-07
4.80773e-07
4.80499e-07
4.8029e-07
4.80155e-07
4.80101e-07
4.80132e-07
4.80255e-07
4.80476e-07
4.80803e-07
4.81242e-07
4.81802e-07
4.82494e-07
4.83332e-07
4.84339e-07
4.85557e-07
5.07366e-07
5.0732e-07
5.07228e-07
5.07089e-07
5.06902e-07
5.06669e-07
5.06391e-07
5.06068e-07
5.05703e-07
5.05296e-07
5.04851e-07
5.04368e-07
5.03849e-07
5.03297e-07
5.02713e-07
5.021e-07
5.01461e-07
5.00797e-07
5.0011e-07
4.99405e-07
4.98681e-07
4.97944e-07
4.97194e-07
4.96434e-07
4.95668e-07
4.94897e-07
4.94125e-07
4.93354e-07
4.92587e-07
4.91827e-07
4.91076e-07
4.90339e-07
4.89618e-07
4.88916e-07
4.88237e-07
4.87584e-07
4.86961e-07
4.86371e-07
4.85818e-07
4.85306e-07
4.8484e-07
4.84424e-07
4.84063e-07
4.83761e-07
4.83523e-07
4.83356e-07
4.83264e-07
4.83256e-07
4.83337e-07
4.83515e-07
4.83797e-07
4.84191e-07
4.84706e-07
4.85352e-07
4.86138e-07
4.87076e-07
4.8818e-07
4.89464e-07
4.90951e-07
4.9267e-07
5.06978e-07
5.06935e-07
5.06849e-07
5.06718e-07
5.06544e-07
5.06327e-07
5.06066e-07
5.05764e-07
5.05422e-07
5.05042e-07
5.04624e-07
5.04171e-07
5.03685e-07
5.03167e-07
5.02619e-07
5.02044e-07
5.01443e-07
5.00819e-07
5.00175e-07
4.99512e-07
4.98834e-07
4.98142e-07
4.97439e-07
4.96728e-07
4.96012e-07
4.95292e-07
4.94573e-07
4.93857e-07
4.93147e-07
4.92445e-07
4.91756e-07
4.91082e-07
4.90426e-07
4.89793e-07
4.89185e-07
4.88606e-07
4.88061e-07
4.87553e-07
4.87087e-07
4.86666e-07
4.86296e-07
4.85982e-07
4.85729e-07
4.85541e-07
4.85426e-07
4.85388e-07
4.85433e-07
4.85572e-07
4.85816e-07
4.86169e-07
4.8664e-07
4.87238e-07
4.87975e-07
4.88861e-07
4.89909e-07
4.91132e-07
4.92547e-07
4.94168e-07
4.96017e-07
4.98116e-07
5.06909e-07
5.06868e-07
5.06785e-07
5.0666e-07
5.06492e-07
5.06283e-07
5.06032e-07
5.05742e-07
5.05413e-07
5.05046e-07
5.04645e-07
5.04209e-07
5.0374e-07
5.03242e-07
5.02714e-07
5.02161e-07
5.01583e-07
5.00983e-07
5.00363e-07
4.99726e-07
4.99074e-07
4.98409e-07
4.97735e-07
4.97054e-07
4.96368e-07
4.9568e-07
4.94994e-07
4.94311e-07
4.93635e-07
4.92971e-07
4.9232e-07
4.91685e-07
4.91071e-07
4.90481e-07
4.89918e-07
4.89386e-07
4.8889e-07
4.88434e-07
4.88022e-07
4.87659e-07
4.87349e-07
4.87099e-07
4.86914e-07
4.86799e-07
4.86762e-07
4.86807e-07
4.86945e-07
4.8718e-07
4.87519e-07
4.87976e-07
4.88561e-07
4.89283e-07
4.90154e-07
4.91186e-07
4.92393e-07
4.93788e-07
4.9539e-07
4.97213e-07
4.99279e-07
5.01604e-07
5.07145e-07
5.07104e-07
5.07022e-07
5.06898e-07
5.06732e-07
5.06525e-07
5.06276e-07
5.05989e-07
5.05663e-07
5.053e-07
5.04902e-07
5.04471e-07
5.04007e-07
5.03514e-07
5.02992e-07
5.02444e-07
5.01873e-07
5.0128e-07
5.00668e-07
5.00039e-07
4.99395e-07
4.9874e-07
4.98075e-07
4.97404e-07
4.96729e-07
4.96053e-07
4.95378e-07
4.94709e-07
4.94047e-07
4.93396e-07
4.92759e-07
4.9214e-07
4.91541e-07
4.90967e-07
4.90422e-07
4.89909e-07
4.89432e-07
4.88996e-07
4.88604e-07
4.88263e-07
4.87976e-07
4.8775e-07
4.8759e-07
4.87501e-07
4.87491e-07
4.87566e-07
4.87733e-07
4.88e-07
4.88375e-07
4.88869e-07
4.89491e-07
4.90252e-07
4.91163e-07
4.92238e-07
4.9349e-07
4.94933e-07
4.96585e-07
4.98461e-07
5.00582e-07
5.02963e-07
5.07685e-07
5.07644e-07
5.0756e-07
5.07433e-07
5.07263e-07
5.07051e-07
5.06798e-07
5.06504e-07
5.06171e-07
5.05801e-07
5.05395e-07
5.04955e-07
5.04482e-07
5.0398e-07
5.03449e-07
5.02892e-07
5.0231e-07
5.01708e-07
5.01086e-07
5.00447e-07
4.99794e-07
4.99129e-07
4.98455e-07
4.97774e-07
4.9709e-07
4.96405e-07
4.95721e-07
4.95043e-07
4.94372e-07
4.93712e-07
4.93066e-07
4.92437e-07
4.91829e-07
4.91246e-07
4.90691e-07
4.90167e-07
4.89679e-07
4.89231e-07
4.88828e-07
4.88474e-07
4.88173e-07
4.8793e-07
4.87751e-07
4.87643e-07
4.87611e-07
4.87662e-07
4.87802e-07
4.8804e-07
4.88383e-07
4.88839e-07
4.89419e-07
4.90132e-07
4.9099e-07
4.92004e-07
4.93186e-07
4.94551e-07
4.96115e-07
4.97892e-07
4.99903e-07
5.02165e-07
5.08537e-07
5.08493e-07
5.08404e-07
5.0827e-07
5.08091e-07
5.07868e-07
5.076e-07
5.07291e-07
5.06941e-07
5.06552e-07
5.06125e-07
5.05663e-07
5.05168e-07
5.04641e-07
5.04085e-07
5.03503e-07
5.02895e-07
5.02266e-07
5.01617e-07
5.0095e-07
5.00269e-07
4.99576e-07
4.98874e-07
4.98164e-07
4.97451e-07
4.96736e-07
4.96022e-07
4.95313e-07
4.94612e-07
4.9392e-07
4.93242e-07
4.9258e-07
4.91938e-07
4.91319e-07
4.90727e-07
4.90164e-07
4.89636e-07
4.89146e-07
4.88697e-07
4.88295e-07
4.87943e-07
4.87646e-07
4.87411e-07
4.87239e-07
4.87138e-07
4.87113e-07
4.87172e-07
4.87321e-07
4.87567e-07
4.87918e-07
4.88381e-07
4.88965e-07
4.89679e-07
4.90535e-07
4.91541e-07
4.92712e-07
4.94059e-07
4.95599e-07
4.97349e-07
4.99336e-07
5.09716e-07
5.09668e-07
5.09571e-07
5.09426e-07
5.09231e-07
5.08989e-07
5.08699e-07
5.08363e-07
5.07984e-07
5.07563e-07
5.07102e-07
5.06604e-07
5.06071e-07
5.05504e-07
5.04907e-07
5.04282e-07
5.03631e-07
5.02957e-07
5.02263e-07
5.01551e-07
5.00823e-07
5.00083e-07
4.99333e-07
4.98575e-07
4.97813e-07
4.97048e-07
4.96284e-07
4.95524e-07
4.9477e-07
4.94025e-07
4.93292e-07
4.92574e-07
4.91873e-07
4.91194e-07
4.90539e-07
4.89912e-07
4.89315e-07
4.88754e-07
4.8823e-07
4.87748e-07
4.87312e-07
4.86925e-07
4.86592e-07
4.86319e-07
4.86108e-07
4.85965e-07
4.85893e-07
4.859e-07
4.85993e-07
4.86177e-07
4.86457e-07
4.86842e-07
4.87336e-07
4.8795e-07
4.88691e-07
4.89568e-07
4.90592e-07
4.91779e-07
4.93144e-07
4.94727e-07
5.11251e-07
5.11197e-07
5.1109e-07
5.10927e-07
5.10709e-07
5.10438e-07
5.10114e-07
5.09741e-07
5.09319e-07
5.08851e-07
5.08341e-07
5.0779e-07
5.07202e-07
5.06578e-07
5.05922e-07
5.05236e-07
5.04524e-07
5.03787e-07
5.03029e-07
5.02252e-07
5.0146e-07
5.00653e-07
4.99836e-07
4.99011e-07
4.98181e-07
4.97347e-07
4.96513e-07
4.95681e-07
4.94854e-07
4.94035e-07
4.93226e-07
4.92429e-07
4.91649e-07
4.90886e-07
4.90145e-07
4.89428e-07
4.88739e-07
4.88079e-07
4.87453e-07
4.86863e-07
4.86312e-07
4.85805e-07
4.85344e-07
4.84933e-07
4.84576e-07
4.84277e-07
4.84039e-07
4.83862e-07
4.83754e-07
4.83721e-07
4.83767e-07
4.83896e-07
4.84112e-07
4.84421e-07
4.84826e-07
4.85337e-07
4.85958e-07
4.86707e-07
4.87598e-07
4.88683e-07
5.13186e-07
5.13124e-07
5.13e-07
5.12813e-07
5.12563e-07
5.12251e-07
5.1188e-07
5.11453e-07
5.10972e-07
5.1044e-07
5.09862e-07
5.09239e-07
5.08576e-07
5.07875e-07
5.0714e-07
5.06374e-07
5.0558e-07
5.04761e-07
5.0392e-07
5.03059e-07
5.02182e-07
5.01291e-07
5.00388e-07
4.99477e-07
4.98559e-07
4.97637e-07
4.96714e-07
4.95792e-07
4.94873e-07
4.93961e-07
4.93056e-07
4.92162e-07
4.9128e-07
4.90415e-07
4.89567e-07
4.88739e-07
4.87934e-07
4.87154e-07
4.86401e-07
4.85679e-07
4.8499e-07
4.84336e-07
4.83719e-07
4.83144e-07
4.82611e-07
4.82123e-07
4.81684e-07
4.81296e-07
4.80957e-07
4.80673e-07
4.80445e-07
4.80279e-07
4.80174e-07
4.80136e-07
4.80161e-07
4.80259e-07
4.80428e-07
4.80689e-07
4.81052e-07
4.81587e-07
5.15581e-07
5.15508e-07
5.1536e-07
5.15139e-07
5.14843e-07
5.14475e-07
5.14039e-07
5.13537e-07
5.12976e-07
5.12358e-07
5.11689e-07
5.10971e-07
5.1021e-07
5.0941e-07
5.08573e-07
5.07705e-07
5.06807e-07
5.05885e-07
5.04939e-07
5.03975e-07
5.02993e-07
5.01997e-07
5.0099e-07
4.99974e-07
4.9895e-07
4.97923e-07
4.96893e-07
4.95863e-07
4.94835e-07
4.93811e-07
4.92793e-07
4.91783e-07
4.90784e-07
4.89797e-07
4.88824e-07
4.87868e-07
4.86929e-07
4.86011e-07
4.85114e-07
4.84242e-07
4.83395e-07
4.82576e-07
4.81785e-07
4.81026e-07
4.80299e-07
4.79606e-07
4.78947e-07
4.78325e-07
4.77738e-07
4.77185e-07
4.76665e-07
4.76183e-07
4.75738e-07
4.75331e-07
4.74955e-07
4.7462e-07
4.74318e-07
4.74072e-07
4.73889e-07
4.73852e-07
5.18522e-07
5.18432e-07
5.18252e-07
5.1798e-07
5.17619e-07
5.17172e-07
5.16644e-07
5.16042e-07
5.15371e-07
5.14639e-07
5.1385e-07
5.1301e-07
5.12124e-07
5.11197e-07
5.10234e-07
5.09238e-07
5.08214e-07
5.07165e-07
5.06093e-07
5.05003e-07
5.03897e-07
5.02777e-07
5.01646e-07
5.00507e-07
4.9936e-07
4.98209e-07
4.97055e-07
4.959e-07
4.94746e-07
4.93594e-07
4.92447e-07
4.91306e-07
4.90173e-07
4.89049e-07
4.87935e-07
4.86834e-07
4.85747e-07
4.84674e-07
4.83618e-07
4.8258e-07
4.81561e-07
4.80561e-07
4.79581e-07
4.78623e-07
4.77686e-07
4.76771e-07
4.75876e-07
4.75004e-07
4.74152e-07
4.73324e-07
4.72514e-07
4.71726e-07
4.70943e-07
4.70169e-07
4.69393e-07
4.68629e-07
4.67862e-07
4.67121e-07
4.66407e-07
4.65819e-07
5.22133e-07
5.22017e-07
5.21785e-07
5.21437e-07
5.20977e-07
5.20413e-07
5.19753e-07
5.19008e-07
5.18188e-07
5.17301e-07
5.16357e-07
5.15361e-07
5.1432e-07
5.13239e-07
5.12122e-07
5.10975e-07
5.098e-07
5.08603e-07
5.07386e-07
5.06151e-07
5.04903e-07
5.03642e-07
5.02372e-07
5.01093e-07
4.99809e-07
4.9852e-07
4.97228e-07
4.95934e-07
4.94641e-07
4.9335e-07
4.92061e-07
4.90776e-07
4.89496e-07
4.88223e-07
4.86957e-07
4.857e-07
4.84452e-07
4.83215e-07
4.8199e-07
4.80777e-07
4.79576e-07
4.7839e-07
4.77216e-07
4.76057e-07
4.74912e-07
4.73782e-07
4.72664e-07
4.71559e-07
4.70463e-07
4.69375e-07
4.68284e-07
4.67187e-07
4.66074e-07
4.64948e-07
4.63801e-07
4.62645e-07
4.61456e-07
4.60258e-07
4.59045e-07
4.57926e-07
5.2662e-07
5.26461e-07
5.26142e-07
5.25667e-07
5.25045e-07
5.24294e-07
5.2343e-07
5.22473e-07
5.21438e-07
5.20338e-07
5.19182e-07
5.17978e-07
5.16733e-07
5.15453e-07
5.14143e-07
5.12809e-07
5.11453e-07
5.1008e-07
5.08692e-07
5.07292e-07
5.05881e-07
5.04463e-07
5.03037e-07
5.01605e-07
5.0017e-07
4.98731e-07
4.9729e-07
4.95847e-07
4.94405e-07
4.92963e-07
4.91522e-07
4.90084e-07
4.88649e-07
4.87218e-07
4.85791e-07
4.84369e-07
4.82953e-07
4.81544e-07
4.80141e-07
4.78746e-07
4.77358e-07
4.75977e-07
4.74603e-07
4.73236e-07
4.71874e-07
4.70516e-07
4.69159e-07
4.67803e-07
4.66442e-07
4.65078e-07
4.63703e-07
4.62321e-07
4.60922e-07
4.59517e-07
4.58076e-07
4.56611e-07
4.55079e-07
4.53504e-07
4.51876e-07
4.50322e-07
5.32258e-07
5.32047e-07
5.31621e-07
5.30985e-07
5.30153e-07
5.29155e-07
5.28023e-07
5.26788e-07
5.25474e-07
5.24099e-07
5.22674e-07
5.2121e-07
5.19712e-07
5.18189e-07
5.16645e-07
5.15086e-07
5.13516e-07
5.11936e-07
5.1035e-07
5.08759e-07
5.07164e-07
5.05565e-07
5.03964e-07
5.02361e-07
5.00756e-07
4.99151e-07
4.97545e-07
4.95939e-07
4.94332e-07
4.92726e-07
4.91121e-07
4.89517e-07
4.87915e-07
4.86315e-07
4.84717e-07
4.83121e-07
4.81529e-07
4.7994e-07
4.78355e-07
4.76773e-07
4.75196e-07
4.73623e-07
4.72054e-07
4.70488e-07
4.68926e-07
4.67367e-07
4.6581e-07
4.64254e-07
4.62697e-07
4.61136e-07
4.59566e-07
4.57982e-07
4.56374e-07
4.54733e-07
4.5304e-07
4.51281e-07
4.49451e-07
4.47564e-07
4.45579e-07
4.43627e-07
5.39062e-07
5.38632e-07
5.37851e-07
5.3677e-07
5.35458e-07
5.33985e-07
5.3241e-07
5.30771e-07
5.2909e-07
5.27377e-07
5.25639e-07
5.23881e-07
5.2211e-07
5.20332e-07
5.18552e-07
5.16773e-07
5.14997e-07
5.13224e-07
5.11453e-07
5.09685e-07
5.0792e-07
5.06156e-07
5.04393e-07
5.02631e-07
5.00869e-07
4.99108e-07
4.97346e-07
4.95583e-07
4.93819e-07
4.92054e-07
4.90287e-07
4.88519e-07
4.8675e-07
4.8498e-07
4.83208e-07
4.81436e-07
4.79663e-07
4.77888e-07
4.76115e-07
4.7434e-07
4.72566e-07
4.7079e-07
4.69016e-07
4.67238e-07
4.65464e-07
4.63682e-07
4.61904e-07
4.60115e-07
4.58329e-07
4.56526e-07
4.54728e-07
4.52904e-07
4.51088e-07
4.49235e-07
4.47394e-07
4.45503e-07
4.43628e-07
4.41684e-07
4.39803e-07
4.37837e-07
5.50863e-07
5.50116e-07
5.48709e-07
5.46767e-07
5.44496e-07
5.42093e-07
5.39683e-07
5.37317e-07
5.34998e-07
5.32714e-07
5.30455e-07
5.2822e-07
5.26017e-07
5.23848e-07
5.21717e-07
5.19622e-07
5.17557e-07
5.1552e-07
5.13505e-07
5.11508e-07
5.09527e-07
5.07558e-07
5.056e-07
5.03649e-07
5.01705e-07
4.99765e-07
4.97828e-07
4.95891e-07
4.93955e-07
4.92017e-07
4.90078e-07
4.88136e-07
4.86193e-07
4.84245e-07
4.82296e-07
4.80342e-07
4.78387e-07
4.76427e-07
4.74467e-07
4.725e-07
4.70537e-07
4.68565e-07
4.66599e-07
4.64622e-07
4.62656e-07
4.60674e-07
4.58713e-07
4.56728e-07
4.54778e-07
4.52792e-07
4.50867e-07
4.48888e-07
4.47009e-07
4.45047e-07
4.43251e-07
4.41322e-07
4.39663e-07
4.37774e-07
4.36291e-07
4.3434e-07
5.59662e-07
5.57938e-07
5.55299e-07
5.52183e-07
5.4898e-07
5.45903e-07
5.43e-07
5.40237e-07
5.37563e-07
5.34947e-07
5.32383e-07
5.29878e-07
5.27438e-07
5.25063e-07
5.22746e-07
5.20478e-07
5.18251e-07
5.16056e-07
5.13889e-07
5.11743e-07
5.09616e-07
5.07503e-07
5.05401e-07
5.03306e-07
5.01217e-07
4.9913e-07
4.97044e-07
4.94957e-07
4.92868e-07
4.90774e-07
4.88678e-07
4.86575e-07
4.84468e-07
4.82355e-07
4.80238e-07
4.78114e-07
4.75986e-07
4.73852e-07
4.71716e-07
4.69571e-07
4.67429e-07
4.65275e-07
4.63128e-07
4.60965e-07
4.58817e-07
4.56643e-07
4.54499e-07
4.52311e-07
4.50179e-07
4.47976e-07
4.45878e-07
4.43661e-07
4.41652e-07
4.39443e-07
4.37658e-07
4.35525e-07
4.343e-07
4.32324e-07
4.32262e-07
4.30023e-07
6.07728e-07
5.93608e-07
5.79848e-07
5.69282e-07
5.61873e-07
5.565e-07
5.5207e-07
5.48015e-07
5.44167e-07
5.40534e-07
5.37152e-07
5.34026e-07
5.31122e-07
5.2839e-07
5.25785e-07
5.23272e-07
5.20831e-07
5.18449e-07
5.16114e-07
5.13819e-07
5.11555e-07
5.09315e-07
5.07092e-07
5.04881e-07
5.02678e-07
5.0048e-07
4.98283e-07
4.96085e-07
4.93886e-07
4.91682e-07
4.89473e-07
4.87259e-07
4.85039e-07
4.82813e-07
4.80581e-07
4.78343e-07
4.761e-07
4.73852e-07
4.71599e-07
4.69343e-07
4.67083e-07
4.6482e-07
4.62555e-07
4.60288e-07
4.58018e-07
4.55746e-07
4.53472e-07
4.51191e-07
4.48909e-07
4.4661e-07
4.44317e-07
4.41977e-07
4.39674e-07
4.37234e-07
4.34962e-07
4.32215e-07
4.30261e-07
4.26268e-07
4.26386e-07
4.1625e-07
3.98567e-07
3.96871e-07
3.91691e-07
3.85222e-07
3.78858e-07
3.73507e-07
3.69662e-07
3.67434e-07
3.66609e-07
3.66704e-07
3.67119e-07
3.67363e-07
3.6718e-07
3.6662e-07
3.65959e-07
4.07869e-07
4.03768e-07
3.97034e-07
3.90618e-07
3.85743e-07
3.82586e-07
3.80932e-07
3.80394e-07
3.80552e-07
3.80856e-07
3.8087e-07
3.8049e-07
3.79949e-07
3.79628e-07
3.79851e-07
3.80819e-07
3.82464e-07
3.84643e-07
3.87037e-07
3.89267e-07
3.91311e-07
3.93375e-07
3.9527e-07
3.96104e-07
3.94385e-07
3.88786e-07
3.75098e-07
3.44343e-07
3.09042e-07
1.25416e-07
4.09258e-07
4.05581e-07
4.01369e-07
3.9769e-07
3.95077e-07
3.93452e-07
3.92388e-07
3.91461e-07
3.90466e-07
3.89555e-07
3.89165e-07
3.89663e-07
3.91093e-07
3.93209e-07
3.95714e-07
3.98443e-07
4.01336e-07
4.04309e-07
4.07402e-07
4.1077e-07
4.1478e-07
4.19379e-07
4.23907e-07
4.27533e-07
4.29443e-07
4.28417e-07
4.20369e-07
4.01207e-07
3.66616e-07
2.21519e-07
4.13061e-07
4.10554e-07
4.08371e-07
4.06595e-07
4.05265e-07
4.04324e-07
4.03642e-07
4.03151e-07
4.02934e-07
4.03252e-07
4.04305e-07
4.06133e-07
4.08607e-07
4.11454e-07
4.14403e-07
4.17354e-07
4.2047e-07
4.24086e-07
4.28556e-07
4.34117e-07
4.40629e-07
4.47583e-07
4.54369e-07
4.60804e-07
4.66506e-07
4.7016e-07
4.68416e-07
4.57987e-07
4.28146e-07
3.17272e-07
4.19786e-07
4.17968e-07
4.16833e-07
4.16125e-07
4.15671e-07
4.15434e-07
4.15459e-07
4.15827e-07
4.16631e-07
4.17925e-07
4.19677e-07
4.21777e-07
4.24119e-07
4.26728e-07
4.29824e-07
4.33759e-07
4.38791e-07
4.44934e-07
4.52031e-07
4.59899e-07
4.68227e-07
4.7683e-07
4.85894e-07
4.9557e-07
5.05294e-07
5.13619e-07
5.18017e-07
5.15181e-07
4.93303e-07
4.12185e-07
4.28035e-07
4.26826e-07
4.26414e-07
4.26495e-07
4.26841e-07
4.27386e-07
4.2818e-07
4.2931e-07
4.30838e-07
4.32783e-07
4.35138e-07
4.37912e-07
4.41178e-07
4.45112e-07
4.49903e-07
4.55645e-07
4.62334e-07
4.69832e-07
4.77948e-07
4.8662e-07
4.96062e-07
5.06706e-07
5.1884e-07
5.32143e-07
5.4571e-07
5.58445e-07
5.68587e-07
5.72879e-07
5.60226e-07
5.03772e-07
4.37434e-07
4.36803e-07
4.37016e-07
4.37761e-07
4.38799e-07
4.40044e-07
4.41529e-07
4.43338e-07
4.45549e-07
4.48218e-07
4.51392e-07
4.55131e-07
4.59504e-07
4.64585e-07
4.70419e-07
4.77008e-07
4.84321e-07
4.92409e-07
5.01495e-07
5.11947e-07
5.24091e-07
5.37976e-07
5.53344e-07
5.6967e-07
5.86516e-07
6.0349e-07
6.19193e-07
6.30316e-07
6.27289e-07
5.9132e-07
4.47456e-07
4.47416e-07
4.48204e-07
4.49535e-07
4.51183e-07
4.53064e-07
4.55206e-07
4.57694e-07
4.60616e-07
4.64046e-07
4.68042e-07
4.72657e-07
4.77941e-07
4.83945e-07
4.90728e-07
4.9837e-07
5.07e-07
5.16827e-07
5.28073e-07
5.40863e-07
5.55212e-07
5.71007e-07
5.88126e-07
6.06678e-07
6.26859e-07
6.4826e-07
6.69253e-07
6.86677e-07
6.92588e-07
6.72989e-07
4.57856e-07
4.58397e-07
4.59728e-07
4.61596e-07
4.63803e-07
4.66278e-07
4.69052e-07
4.72208e-07
4.75837e-07
4.80012e-07
4.84798e-07
4.9025e-07
4.96429e-07
5.03409e-07
5.11282e-07
5.2016e-07
5.30171e-07
5.41448e-07
5.54116e-07
5.68263e-07
5.83949e-07
6.01315e-07
6.20694e-07
6.42403e-07
6.66389e-07
6.91909e-07
7.1744e-07
7.40399e-07
7.54398e-07
7.47895e-07
4.68202e-07
4.69306e-07
4.71136e-07
4.73485e-07
4.76196e-07
4.79215e-07
4.82578e-07
4.86364e-07
4.90658e-07
4.95536e-07
5.01063e-07
5.07305e-07
5.14331e-07
5.22225e-07
5.31088e-07
5.41031e-07
5.52179e-07
5.64667e-07
5.78645e-07
5.94293e-07
6.11841e-07
6.31553e-07
6.53635e-07
6.78093e-07
7.0473e-07
7.33079e-07
7.62302e-07
7.90214e-07
8.11179e-07
8.14602e-07
4.78097e-07
4.79729e-07
4.82008e-07
4.84785e-07
4.87946e-07
4.91458e-07
4.95359e-07
4.99723e-07
5.0463e-07
5.10153e-07
5.16364e-07
5.23331e-07
5.31134e-07
5.39865e-07
5.49631e-07
5.60552e-07
5.7277e-07
5.8644e-07
6.01743e-07
6.18876e-07
6.38052e-07
6.59468e-07
6.83293e-07
7.09611e-07
7.38438e-07
7.69606e-07
8.02479e-07
8.34797e-07
8.61513e-07
8.72189e-07
4.87075e-07
4.89178e-07
4.91845e-07
4.94985e-07
4.98527e-07
5.02461e-07
5.06826e-07
5.1169e-07
5.17127e-07
5.23209e-07
5.30008e-07
5.376e-07
5.46071e-07
5.55518e-07
5.66056e-07
5.77813e-07
5.90936e-07
6.05592e-07
6.21965e-07
6.40258e-07
6.60691e-07
6.83486e-07
7.0888e-07
7.37067e-07
7.68159e-07
8.01932e-07
8.37645e-07
8.73101e-07
9.04061e-07
9.19624e-07
4.94683e-07
4.97177e-07
5.00156e-07
5.03583e-07
5.07429e-07
5.11701e-07
5.16442e-07
5.21711e-07
5.27577e-07
5.3411e-07
5.41384e-07
5.4948e-07
5.58489e-07
5.68514e-07
5.79672e-07
5.92099e-07
6.05947e-07
6.21388e-07
6.38617e-07
6.57847e-07
6.79317e-07
7.0327e-07
7.29959e-07
7.59575e-07
7.9222e-07
8.2768e-07
8.65328e-07
9.03123e-07
9.37349e-07
9.56386e-07
5.00502e-07
5.03282e-07
5.06486e-07
5.10116e-07
5.14177e-07
5.18693e-07
5.23704e-07
5.29263e-07
5.35436e-07
5.42291e-07
5.49904e-07
5.58358e-07
5.67748e-07
5.7818e-07
5.89777e-07
6.02674e-07
6.17028e-07
6.33017e-07
6.5084e-07
6.70718e-07
6.92894e-07
7.17621e-07
7.45156e-07
7.75701e-07
8.09385e-07
8.46033e-07
8.85076e-07
9.24504e-07
9.60852e-07
9.82062e-07
5.04209e-07
5.07155e-07
5.10484e-07
5.14228e-07
5.18411e-07
5.23064e-07
5.28227e-07
5.3395e-07
5.40294e-07
5.47327e-07
5.55125e-07
5.63775e-07
5.73373e-07
5.8403e-07
5.95865e-07
6.09016e-07
6.23643e-07
6.39925e-07
6.58064e-07
6.78283e-07
7.00831e-07
7.25962e-07
7.53941e-07
7.84976e-07
8.19206e-07
8.5646e-07
8.96182e-07
9.36388e-07
9.7376e-07
9.96037e-07
5.05619e-07
5.086e-07
5.11954e-07
5.15718e-07
5.19925e-07
5.24605e-07
5.29796e-07
5.35548e-07
5.4192e-07
5.48982e-07
5.56809e-07
5.6549e-07
5.75118e-07
5.85796e-07
5.97654e-07
6.10829e-07
6.25481e-07
6.41787e-07
6.59951e-07
6.80194e-07
7.02765e-07
7.27917e-07
7.55915e-07
7.86967e-07
8.21212e-07
8.58479e-07
8.98213e-07
9.38433e-07
9.75826e-07
9.98126e-07
5.04701e-07
5.07585e-07
5.1086e-07
5.14553e-07
5.18685e-07
5.23281e-07
5.28377e-07
5.34022e-07
5.40279e-07
5.47216e-07
5.54911e-07
5.63448e-07
5.72921e-07
5.83436e-07
5.95112e-07
6.08089e-07
6.22522e-07
6.38587e-07
6.56485e-07
6.76435e-07
6.98681e-07
7.23473e-07
7.51067e-07
7.81664e-07
8.15393e-07
8.52081e-07
8.91163e-07
9.30634e-07
9.67049e-07
9.88332e-07
5.01596e-07
5.04261e-07
5.07359e-07
5.10893e-07
5.14857e-07
5.19264e-07
5.24148e-07
5.29561e-07
5.35567e-07
5.42237e-07
5.49649e-07
5.57885e-07
5.67033e-07
5.77198e-07
5.88495e-07
6.01059e-07
6.15042e-07
6.30615e-07
6.47973e-07
6.67328e-07
6.88916e-07
7.12982e-07
7.39777e-07
7.6949e-07
8.02223e-07
8.37759e-07
8.75472e-07
9.13336e-07
9.47677e-07
9.66846e-07
4.96582e-07
4.98923e-07
5.01759e-07
5.05051e-07
5.08762e-07
5.12886e-07
5.17453e-07
5.22519e-07
5.28154e-07
5.34431e-07
5.41426e-07
5.49215e-07
5.57885e-07
5.67533e-07
5.7827e-07
5.90225e-07
6.03543e-07
6.18391e-07
6.34953e-07
6.53428e-07
6.74033e-07
6.96991e-07
7.22536e-07
7.50868e-07
7.82104e-07
8.16017e-07
8.51856e-07
8.87431e-07
9.18557e-07
9.34314e-07
4.9004e-07
4.91974e-07
4.94474e-07
4.97454e-07
5.00835e-07
5.04594e-07
5.08756e-07
5.13382e-07
5.18547e-07
5.24326e-07
5.30792e-07
5.38018e-07
5.46083e-07
5.55078e-07
5.65107e-07
5.76292e-07
5.88769e-07
6.02696e-07
6.18252e-07
6.35634e-07
6.55053e-07
6.76703e-07
7.00745e-07
7.27254e-07
7.56252e-07
7.87608e-07
8.20695e-07
8.53236e-07
8.80219e-07
8.91172e-07
4.8239e-07
4.8386e-07
4.85964e-07
4.88568e-07
4.91554e-07
4.94879e-07
4.98563e-07
5.02672e-07
5.07286e-07
5.12481e-07
5.18327e-07
5.24891e-07
5.32244e-07
5.4047e-07
5.49665e-07
5.5994e-07
5.7142e-07
5.84234e-07
5.98531e-07
6.14492e-07
6.32355e-07
6.5239e-07
6.74791e-07
6.9954e-07
7.26432e-07
7.55017e-07
7.84507e-07
8.12736e-07
8.34112e-07
8.37966e-07
4.74077e-07
4.75044e-07
4.76706e-07
4.78884e-07
4.81425e-07
4.84264e-07
4.87421e-07
4.90964e-07
4.94975e-07
4.99533e-07
5.04703e-07
5.10545e-07
5.17119e-07
5.24499e-07
5.32775e-07
5.42058e-07
5.52479e-07
5.64168e-07
5.77244e-07
5.91788e-07
6.07848e-07
6.25582e-07
6.45351e-07
6.67477e-07
6.91868e-07
7.1775e-07
7.43628e-07
7.67003e-07
7.81586e-07
7.75751e-07
4.6548e-07
4.65925e-07