/*--------------------------------*- C++ -*----------------------------------*\
| =========                 |                                                 |
| \\      /  F ield         | OpenFOAM: The Open Source CFD Toolbox           |
|  \\    /   O peration     | Version:  2312                                  |
|   \\  /    A nd           | Website:  www.openfoam.com                      |
|    \\/     M anipulation  |                                                 |
\*---------------------------------------------------------------------------*/
FoamFile
{
    version     2.0;
    format      ascii;
    arch        "LSB;label=32;scalar=64";
    class       volScalarField;
    location    "122000";
    object      p;
}
// * * * * * * * * * * * * * * * * * * * * * * * * * * * * * * * * * * * * * //

dimensions      [0 2 -2 0 0 0 0];

internalField   nonuniform List<scalar> 
2715
(
3.75362e-07
3.25168e-07
3.04509e-07
2.87293e-07
2.70048e-07
2.5274e-07
2.3336e-07
2.1272e-07
1.8853e-07
1.62565e-07
1.32237e-07
1.00557e-07
6.43931e-08
2.81661e-08
-1.20381e-08
-5.0288e-08
-9.19208e-08
-1.29355e-07
-1.6991e-07
-2.04073e-07
-2.41623e-07
-2.70981e-07
-3.04545e-07
-3.28005e-07
-3.5799e-07
-3.73466e-07
-4.04319e-07
-4.07273e-07
-4.45235e-07
-5.50921e-07
3.61591e-07
3.06915e-07
2.93232e-07
2.786e-07
2.62035e-07
2.45129e-07
2.26048e-07
2.05549e-07
1.81542e-07
1.55921e-07
1.26207e-07
9.53648e-08
6.03531e-08
2.54272e-08
-1.32682e-08
-5.0066e-08
-8.99166e-08
-1.25848e-07
-1.6452e-07
-1.97675e-07
-2.3377e-07
-2.62402e-07
-2.95562e-07
-3.18273e-07
-3.48604e-07
-3.64608e-07
-3.91913e-07
-4.08365e-07
-4.17162e-07
-5.69196e-07
3.49493e-07
3.04522e-07
2.91863e-07
2.7772e-07
2.60661e-07
2.4278e-07
2.23181e-07
2.02339e-07
1.78278e-07
1.52526e-07
1.23042e-07
9.22915e-08
5.78373e-08
2.3263e-08
-1.45299e-08
-5.07261e-08
-8.95468e-08
-1.25102e-07
-1.63128e-07
-1.95881e-07
-2.31461e-07
-2.59911e-07
-2.91806e-07
-3.16153e-07
-3.43493e-07
-3.65639e-07
-3.86563e-07
-4.17472e-07
-4.01527e-07
-5.05985e-07
3.39412e-07
3.00539e-07
2.85817e-07
2.72203e-07
2.55832e-07
2.38551e-07
2.19132e-07
1.98119e-07
1.74103e-07
1.48189e-07
1.19023e-07
8.82863e-08
5.45809e-08
2.02143e-08
-1.63605e-08
-5.23273e-08
-8.95855e-08
-1.25029e-07
-1.6084e-07
-1.94076e-07
-2.26767e-07
-2.57334e-07
-2.86002e-07
-3.1378e-07
-3.36606e-07
-3.64914e-07
-3.75938e-07
-4.1651e-07
-3.95678e-07
-4.6615e-07
3.29689e-07
2.98041e-07
2.8245e-07
2.69971e-07
2.5416e-07
2.36089e-07
2.16153e-07
1.94571e-07
1.7051e-07
1.44182e-07
1.15258e-07
8.42487e-08
5.12322e-08
1.67776e-08
-1.86038e-08
-5.4587e-08
-9.01794e-08
-1.25745e-07
-1.59514e-07
-1.93446e-07
-2.23898e-07
-2.55864e-07
-2.81457e-07
-3.12023e-07
-3.3066e-07
-3.6239e-07
-3.70004e-07
-4.07701e-07
-4.00669e-07
-4.37881e-07
3.21189e-07
2.96402e-07
2.80003e-07
2.6706e-07
2.51513e-07
2.33339e-07
2.13215e-07
1.9114e-07
1.66951e-07
1.40185e-07
1.11375e-07
8.00496e-08
4.75529e-08
1.2973e-08
-2.14023e-08
-5.73857e-08
-9.14958e-08
-1.27124e-07
-1.59089e-07
-1.9334e-07
-2.2178e-07
-2.54323e-07
-2.78067e-07
-3.09279e-07
-3.26937e-07
-3.57616e-07
-3.68379e-07
-3.97661e-07
-4.04932e-07
-4.2445e-07
3.14256e-07
2.94979e-07
2.785e-07
2.64691e-07
2.49253e-07
2.31008e-07
2.10633e-07
1.87983e-07
1.63484e-07
1.36237e-07
1.07352e-07
7.57251e-08
4.35021e-08
8.89608e-09
-2.47955e-08
-6.05363e-08
-9.36188e-08
-1.28844e-07
-1.59658e-07
-1.93384e-07
-2.20878e-07
-2.527e-07
-2.76257e-07
-3.06046e-07
-3.25303e-07
-3.5252e-07
-3.68117e-07
-3.90872e-07
-4.05141e-07
-4.20286e-07
3.0912e-07
2.9366e-07
2.77694e-07
2.62921e-07
2.47239e-07
2.28835e-07
2.08141e-07
1.84929e-07
1.59954e-07
1.32244e-07
1.03087e-07
7.12467e-08
3.90334e-08
4.56949e-09
-2.87877e-08
-6.39907e-08
-9.65267e-08
-1.30862e-07
-1.61173e-07
-1.93674e-07
-2.2108e-07
-2.51274e-07
-2.7562e-07
-3.0311e-07
-3.24516e-07
-3.48565e-07
-3.67538e-07
-3.87138e-07
-4.03746e-07
-4.18173e-07
3.05858e-07
2.92437e-07
2.77133e-07
2.61709e-07
2.45477e-07
2.26743e-07
2.05635e-07
1.81888e-07
1.5631e-07
1.2815e-07
9.85576e-08
6.65687e-08
3.41633e-08
-3.94578e-11
-3.33148e-08
-6.77942e-08
-1.0009e-07
-1.33277e-07
-1.63409e-07
-1.94416e-07
-2.21962e-07
-2.50409e-07
-2.7541e-07
-3.01035e-07
-3.23635e-07
-3.46081e-07
-3.66224e-07
-3.85134e-07
-4.02162e-07
-4.17233e-07
3.04219e-07
2.9138e-07
2.76651e-07
2.6086e-07
2.43918e-07
2.24666e-07
2.03023e-07
1.78743e-07
1.52492e-07
1.23867e-07
9.37411e-08
6.1611e-08
2.89168e-08
-5.00115e-09
-3.8292e-08
-7.20232e-08
-1.04145e-07
-1.36194e-07
-1.66118e-07
-1.95749e-07
-2.23212e-07
-2.5025e-07
-2.75364e-07
-2.99806e-07
-3.22643e-07
-3.44404e-07
-3.64739e-07
-3.83615e-07
-4.00937e-07
-4.1663e-07
3.03717e-07
2.90642e-07
2.76127e-07
2.60083e-07
2.42428e-07
2.2252e-07
2.00223e-07
1.75375e-07
1.48424e-07
1.193e-07
8.86051e-08
5.62898e-08
2.32995e-08
-1.0388e-08
-4.36686e-08
-7.67402e-08
-1.08598e-07
-1.39664e-07
-1.6919e-07
-1.97699e-07
-2.24746e-07
-2.50734e-07
-2.75493e-07
-2.99155e-07
-3.21741e-07
-3.43124e-07
-3.63397e-07
-3.82339e-07
-3.99988e-07
-4.16196e-07
3.03768e-07
2.90253e-07
2.75576e-07
2.59183e-07
2.40829e-07
2.20191e-07
1.97157e-07
1.71681e-07
1.44023e-07
1.14353e-07
8.30895e-08
5.0526e-08
1.72709e-08
-1.62645e-08
-4.94629e-08
-8.19894e-08
-1.13462e-07
-1.43701e-07
-1.72649e-07
-2.00221e-07
-2.26625e-07
-2.51746e-07
-2.75918e-07
-2.98926e-07
-3.21092e-07
-3.42135e-07
-3.62269e-07
-3.8124e-07
-3.99142e-07
-4.15827e-07
3.03974e-07
2.90065e-07
2.74951e-07
2.58034e-07
2.38961e-07
2.1756e-07
1.93744e-07
1.67571e-07
1.39191e-07
1.08928e-07
7.71019e-08
4.42309e-08
1.07434e-08
-2.27065e-08
-5.57611e-08
-8.78262e-08
-1.18824e-07
-1.4833e-07
-1.76592e-07
-2.0331e-07
-2.28961e-07
-2.53259e-07
-2.76752e-07
-2.99096e-07
-3.20789e-07
-3.41417e-07
-3.61394e-07
-3.80263e-07
-3.98399e-07
-4.15356e-07
3.04088e-07
2.89866e-07
2.74168e-07
2.56572e-07
2.36734e-07
2.14537e-07
1.89903e-07
1.62959e-07
1.33824e-07
1.02912e-07
7.05191e-08
3.72897e-08
3.5867e-09
-2.98252e-08
-6.26974e-08
-9.43468e-08
-1.24818e-07
-1.53628e-07
-1.81142e-07
-2.07026e-07
-2.31856e-07
-2.55327e-07
-2.78071e-07
-2.99717e-07
-3.20861e-07
-3.41026e-07
-3.6075e-07
-3.79463e-07
-3.97691e-07
-4.14844e-07
3.04026e-07
2.89465e-07
2.73137e-07
2.5478e-07
2.34117e-07
2.11064e-07
1.85549e-07
1.57748e-07
1.27798e-07
9.61718e-08
6.31852e-08
2.9551e-08
-4.3693e-09
-3.77739e-08
-7.04435e-08
-1.01691e-07
-1.31602e-07
-1.59714e-07
-1.86435e-07
-2.11467e-07
-2.3542e-07
-2.58023e-07
-2.79948e-07
-3.0084e-07
-3.21352e-07
-3.40981e-07
-3.60363e-07
-3.78829e-07
-3.97058e-07
-4.14265e-07
3.03849e-07
2.88828e-07
2.71849e-07
2.52682e-07
2.3111e-07
2.07092e-07
1.80587e-07
1.51816e-07
1.20959e-07
8.85379e-08
5.49102e-08
2.08239e-08
-1.33275e-08
-4.67419e-08
-7.91927e-08
-1.10028e-07
-1.39341e-07
-1.66727e-07
-1.92604e-07
-2.1674e-07
-2.39748e-07
-2.61428e-07
-2.82444e-07
-3.02515e-07
-3.22282e-07
-3.41309e-07
-3.60217e-07
-3.78376e-07
-3.96468e-07
-4.13661e-07
3.03742e-07
2.88043e-07
2.7035e-07
2.50301e-07
2.27692e-07
2.02544e-07
1.74886e-07
1.44996e-07
1.13114e-07
7.97996e-08
4.54671e-08
1.08829e-08
-2.3515e-08
-5.69396e-08
-8.91467e-08
-1.19535e-07
-1.48201e-07
-1.74804e-07
-1.99775e-07
-2.22944e-07
-2.44935e-07
-2.65606e-07
-2.85623e-07
-3.04776e-07
-3.23685e-07
-3.42009e-07
-3.60311e-07
-3.7808e-07
-3.9589e-07
-4.13029e-07
3.03954e-07
2.87276e-07
2.68688e-07
2.47591e-07
2.23749e-07
1.97252e-07
1.68235e-07
1.37049e-07
1.04005e-07
6.96931e-08
3.45889e-08
-5.29407e-10
-3.51771e-08
-6.85909e-08
-1.0051e-07
-1.30392e-07
-1.58341e-07
-1.84083e-07
-2.08072e-07
-2.30185e-07
-2.51077e-07
-2.70634e-07
-2.89563e-07
-3.07671e-07
-3.25618e-07
-3.43092e-07
-3.6067e-07
-3.779e-07
-3.95318e-07
-4.12284e-07
3.04608e-07
2.86641e-07
2.66818e-07
2.44361e-07
2.19009e-07
1.90914e-07
1.6032e-07
1.27653e-07
9.33032e-08
5.78934e-08
2.19602e-08
-1.37102e-08
-4.85903e-08
-8.19491e-08
-1.13515e-07
-1.4281e-07
-1.69952e-07
-1.94739e-07
-2.17649e-07
-2.38607e-07
-2.58304e-07
-2.76636e-07
-2.94372e-07
-3.11296e-07
-3.28163e-07
-3.44616e-07
-3.6133e-07
-3.77833e-07
-3.94694e-07
-4.11323e-07
3.05455e-07
2.85928e-07
2.64408e-07
2.40178e-07
2.13004e-07
1.83064e-07
1.50687e-07
1.16365e-07
8.05738e-08
4.39779e-08
7.1765e-09
-2.90415e-08
-6.41131e-08
-9.73495e-08
-1.28474e-07
-1.57086e-07
-1.83314e-07
-2.07037e-07
-2.28749e-07
-2.48437e-07
-2.66817e-07
-2.83797e-07
-3.00212e-07
-3.15794e-07
-3.31445e-07
-3.46665e-07
-3.6237e-07
-3.77858e-07
-3.93992e-07
-4.09928e-07
3.05753e-07
2.84405e-07
2.60822e-07
2.34456e-07
2.05148e-07
1.73109e-07
1.38735e-07
1.02584e-07
6.52251e-08
2.73685e-08
-1.03208e-08
-4.70581e-08
-8.22523e-08
-1.15271e-07
-1.45839e-07
-1.73648e-07
-1.9883e-07
-2.21364e-07
-2.41728e-07
-2.60007e-07
-2.76894e-07
-2.92377e-07
-3.07283e-07
-3.21361e-07
-3.3559e-07
-3.49366e-07
-3.63847e-07
-3.78e-07
-3.9317e-07
-4.07886e-07
3.05068e-07
2.81587e-07
2.55598e-07
2.26707e-07
1.94879e-07
1.60399e-07
1.2375e-07
8.55585e-08
4.64895e-08
7.30088e-09
-3.12783e-08
-6.84736e-08
-1.03678e-07
-1.36331e-07
-1.66177e-07
-1.93019e-07
-2.16997e-07
-2.38193e-07
-2.57042e-07
-2.73739e-07
-2.88916e-07
-3.02706e-07
-3.15859e-07
-3.28243e-07
-3.40769e-07
-3.52875e-07
-3.6581e-07
-3.78316e-07
-3.9219e-07
-4.05068e-07
3.03114e-07
2.76983e-07
2.48102e-07
2.16179e-07
1.81325e-07
1.43964e-07
1.04693e-07
6.42203e-08
2.3302e-08
-1.72567e-08
-5.66744e-08
-9.41932e-08
-1.29211e-07
-1.61256e-07
-1.90126e-07
-2.15754e-07
-2.38323e-07
-2.58016e-07
-2.75207e-07
-2.90154e-07
-3.03396e-07
-3.1524e-07
-3.26349e-07
-3.36792e-07
-3.47268e-07
-3.57413e-07
-3.68324e-07
-3.78839e-07
-3.90941e-07
-4.01403e-07
2.99458e-07
2.69918e-07
2.37308e-07
2.01583e-07
1.63066e-07
1.22324e-07
8.00692e-08
3.70989e-08
-5.75326e-09
-4.76399e-08
-8.7749e-08
-1.25345e-07
-1.59858e-07
-1.90919e-07
-2.18425e-07
-2.42464e-07
-2.63318e-07
-2.81283e-07
-2.96692e-07
-3.0978e-07
-3.20925e-07
-3.30533e-07
-3.39256e-07
-3.47413e-07
-3.55454e-07
-3.63228e-07
-3.71496e-07
-3.79557e-07
-3.89114e-07
-3.96842e-07
2.92274e-07
2.5853e-07
2.21205e-07
1.80789e-07
1.37908e-07
9.32604e-08
4.76811e-08
2.06159e-09
-4.2708e-08
-8.57548e-08
-1.26262e-07
-1.63526e-07
-1.97045e-07
-2.26564e-07
-2.52113e-07
-2.73965e-07
-2.92566e-07
-3.08366e-07
-3.21737e-07
-3.32861e-07
-3.41851e-07
-3.48984e-07
-3.54945e-07
-3.60328e-07
-3.65524e-07
-3.70449e-07
-3.75504e-07
-3.80434e-07
-3.86568e-07
-3.91265e-07
2.77487e-07
2.37932e-07
1.95075e-07
1.49228e-07
1.01278e-07
5.23351e-08
3.38351e-09
-4.46857e-08
-9.09962e-08
-1.34676e-07
-1.7493e-07
-2.11126e-07
-2.42874e-07
-2.70059e-07
-2.92846e-07
-3.11658e-07
-3.27108e-07
-3.39854e-07
-3.50433e-07
-3.5911e-07
-3.65879e-07
-3.70555e-07
-3.73525e-07
-3.75498e-07
-3.77225e-07
-3.78977e-07
-3.80611e-07
-3.81691e-07
-3.83686e-07
-3.85133e-07
2.60705e-07
2.14474e-07
1.62238e-07
1.07557e-07
5.25752e-08
-1.67869e-09
-5.45489e-08
-1.05322e-07
-1.53146e-07
-1.9714e-07
-2.36559e-07
-2.70921e-07
-3.00074e-07
-3.24169e-07
-3.43563e-07
-3.58689e-07
-3.70081e-07
-3.78364e-07
-3.84245e-07
-3.88512e-07
-3.91914e-07
-3.94411e-07
-3.94985e-07
-3.93041e-07
-3.89832e-07
-3.87914e-07
-3.86939e-07
-3.84216e-07
-3.81445e-07
-3.81086e-07
1.98946e-07
1.42864e-07
8.54394e-08
2.6464e-08
-3.29956e-08
-9.13281e-08
-1.47044e-07
-1.98944e-07
-2.46045e-07
-2.87559e-07
-3.22977e-07
-3.52208e-07
-3.75664e-07
-3.94205e-07
-4.08776e-07
-4.19713e-07
-4.26883e-07
-4.29866e-07
-4.28326e-07
-4.23102e-07
-4.17538e-07
-4.16119e-07
-4.16729e-07
-4.12537e-07
-4.02575e-07
-3.9415e-07
-3.91735e-07
-3.92266e-07
-3.91756e-07
-3.88629e-07
1.69222e-07
1.00278e-07
2.58134e-08
-4.73384e-08
-1.16061e-07
-1.79751e-07
-2.38252e-07
-2.90967e-07
-3.36935e-07
-3.75254e-07
-4.05414e-07
-4.27569e-07
-4.42643e-07
-4.52449e-07
-4.59541e-07
-4.67005e-07
-4.762e-07
-4.8282e-07
-4.79423e-07
-4.62987e-07
-4.39094e-07
-4.20046e-07
-4.13032e-07
-4.14104e-07
-4.14164e-07
-4.10828e-07
-4.05862e-07
-4.01095e-07
-3.98121e-07
-3.96899e-07
-7.05248e-08
-1.46877e-07
-2.23694e-07
-2.99056e-07
-3.68502e-07
-4.28717e-07
-4.78029e-07
-5.15669e-07
-5.41245e-07
-5.5474e-07
-5.56764e-07
-5.48823e-07
-5.3337e-07
-5.14004e-07
-4.95143e-07
-4.81465e-07
-4.7547e-07
-4.76794e-07
-4.80457e-07
-4.80002e-07
-4.73225e-07
-4.6246e-07
-4.49209e-07
-4.35374e-07
-4.23645e-07
-4.15773e-07
-4.10857e-07
-4.07513e-07
-4.05379e-07
-4.0436e-07
3.17362e-07
3.18157e-07
3.19654e-07
3.21735e-07
3.23917e-07
3.25596e-07
3.26648e-07
3.27077e-07
3.26308e-07
3.22493e-07
3.13573e-07
2.98291e-07
2.54273e-07
2.23837e-07
1.01175e-08
-1.6293e-07
-2.41003e-07
-3.17719e-07
-3.88594e-07
-4.50291e-07
-5.01117e-07
-5.40282e-07
-5.67365e-07
-5.82302e-07
-5.85637e-07
-5.78797e-07
-5.64147e-07
-5.4518e-07
-5.26233e-07
-5.12001e-07
-5.05209e-07
-5.0588e-07
-5.09559e-07
-5.09774e-07
-5.03507e-07
-4.93117e-07
-4.80094e-07
-4.66149e-07
-4.53916e-07
-4.45505e-07
-4.40259e-07
-4.36674e-07
-4.3422e-07
-4.32775e-07
8.68949e-08
1.13237e-08
-6.29998e-08
-1.32924e-07
-1.97846e-07
-2.57617e-07
-3.11641e-07
-3.58939e-07
-3.98579e-07
-4.30005e-07
-4.53313e-07
-4.69361e-07
-4.7989e-07
-4.8739e-07
-4.94939e-07
-5.043e-07
-5.11702e-07
-5.0977e-07
-4.94778e-07
-4.71157e-07
-4.50697e-07
-4.42011e-07
-4.42495e-07
-4.42976e-07
-4.40098e-07
-4.35402e-07
-4.30512e-07
-4.27223e-07
-4.25653e-07
1.29976e-07
7.16341e-08
1.16846e-08
-4.8803e-08
-1.08213e-07
-1.65049e-07
-2.18099e-07
-2.66362e-07
-3.09026e-07
-3.4555e-07
-3.75808e-07
-4.00173e-07
-4.19488e-07
-4.34723e-07
-4.46321e-07
-4.54136e-07
-4.57781e-07
-4.56871e-07
-4.52054e-07
-4.46357e-07
-4.44512e-07
-4.45382e-07
-4.42214e-07
-4.32874e-07
-4.23968e-07
-4.20935e-07
-4.21862e-07
-4.22259e-07
-4.19288e-07
2.02714e-07
1.49609e-07
9.40052e-08
3.80719e-08
-1.71608e-08
-7.10396e-08
-1.22848e-07
-1.71727e-07
-2.16777e-07
-2.57234e-07
-2.9259e-07
-3.22674e-07
-3.47626e-07
-3.67803e-07
-3.8364e-07
-3.95661e-07
-4.04487e-07
-4.10819e-07
-4.15452e-07
-4.19201e-07
-4.22165e-07
-4.23377e-07
-4.22123e-07
-4.19391e-07
-4.17772e-07
-4.1759e-07
-4.15916e-07
-4.13506e-07
-4.13061e-07
2.26669e-07
1.83042e-07
1.36377e-07
8.75734e-08
3.77422e-08
-1.21306e-08
-6.11505e-08
-1.08432e-07
-1.53091e-07
-1.94314e-07
-2.31451e-07
-2.64098e-07
-2.92125e-07
-3.15685e-07
-3.35189e-07
-3.51248e-07
-3.64531e-07
-3.75608e-07
-3.84797e-07
-3.92145e-07
-3.97456e-07
-4.01064e-07
-4.03678e-07
-4.06101e-07
-4.08678e-07
-4.11334e-07
-4.1346e-07
-4.16414e-07
-4.18735e-07
2.47854e-07
2.09799e-07
1.68603e-07
1.2492e-07
7.94493e-08
3.30171e-08
-1.34868e-08
-5.91649e-08
-1.03131e-07
-1.44554e-07
-1.82714e-07
-2.17094e-07
-2.47424e-07
-2.73723e-07
-2.96256e-07
-3.15475e-07
-3.31844e-07
-3.4577e-07
-3.57464e-07
-3.67061e-07
-3.74809e-07
-3.81398e-07
-3.87451e-07
-3.93451e-07
-3.99289e-07
-4.05389e-07
-4.11364e-07
-4.18666e-07
-4.24314e-07
2.59678e-07
2.26383e-07
1.89929e-07
1.50659e-07
1.09144e-07
6.6089e-08
2.22889e-08
-2.14174e-08
-6.41702e-08
-1.05145e-07
-1.43589e-07
-1.78922e-07
-2.1076e-07
-2.38991e-07
-2.63697e-07
-2.8517e-07
-3.03711e-07
-3.19685e-07
-3.33325e-07
-3.45037e-07
-3.55201e-07
-3.64523e-07
-3.73306e-07
-3.821e-07
-3.90654e-07
-3.99834e-07
-4.08753e-07
-4.19306e-07
-4.27903e-07
2.6715e-07
2.37615e-07
2.04995e-07
1.69425e-07
1.31329e-07
9.12985e-08
5.004e-08
8.31174e-09
-3.30674e-08
-7.33072e-08
-1.11631e-07
-1.47431e-07
-1.80217e-07
-2.09787e-07
-2.36058e-07
-2.59233e-07
-2.79479e-07
-2.97209e-07
-3.12654e-07
-3.26404e-07
-3.38722e-07
-3.50356e-07
-3.61304e-07
-3.72371e-07
-3.83063e-07
-3.94595e-07
-4.05648e-07
-4.18334e-07
-4.29444e-07
2.72116e-07
2.45496e-07
2.15936e-07
1.8342e-07
1.48239e-07
1.10864e-07
7.19223e-08
3.20805e-08
-7.88903e-09
-4.72517e-08
-8.52125e-08
-1.21163e-07
-1.5452e-07
-1.85036e-07
-2.12487e-07
-2.3704e-07
-2.58748e-07
-2.78086e-07
-2.95212e-07
-3.10817e-07
-3.24984e-07
-3.38532e-07
-3.51258e-07
-3.64136e-07
-3.76515e-07
-3.89686e-07
-4.02343e-07
-4.16291e-07
-4.29379e-07
2.75262e-07
2.51068e-07
2.24055e-07
1.94086e-07
1.61371e-07
1.26298e-07
8.94266e-08
5.13269e-08
1.27228e-08
-2.57152e-08
-6.31826e-08
-9.90872e-08
-1.32774e-07
-1.63974e-07
-1.92355e-07
-2.18066e-07
-2.4106e-07
-2.61845e-07
-2.80479e-07
-2.9769e-07
-3.13434e-07
-3.28566e-07
-3.42794e-07
-3.57098e-07
-3.70847e-07
-3.85155e-07
-3.99025e-07
-4.13741e-07
-4.2809e-07
2.77056e-07
2.54961e-07
2.30111e-07
2.02297e-07
1.71704e-07
1.38653e-07
1.03636e-07
6.71321e-08
2.98172e-08
-7.70039e-09
-4.46167e-08
-8.03623e-08
-1.14232e-07
-1.45947e-07
-1.7509e-07
-2.01791e-07
-2.2592e-07
-2.47974e-07
-2.67934e-07
-2.86517e-07
-3.03626e-07
-3.20077e-07
-3.35597e-07
-3.51037e-07
-3.65907e-07
-3.8104e-07
-3.95781e-07
-4.10952e-07
-4.2592e-07
2.78063e-07
2.57663e-07
2.34594e-07
2.08622e-07
1.79895e-07
1.48652e-07
1.15313e-07
8.02746e-08
4.41707e-08
7.55194e-09
-2.87876e-08
-6.43054e-08
-9.82638e-08
-1.30375e-07
-1.60158e-07
-1.87715e-07
-2.12847e-07
-2.36014e-07
-2.57151e-07
-2.76923e-07
-2.95236e-07
-3.12813e-07
-3.29447e-07
-3.45822e-07
-3.61592e-07
-3.77356e-07
-3.9266e-07
-4.08083e-07
-4.23194e-07
2.78962e-07
2.59805e-07
2.38107e-07
2.13661e-07
1.8655e-07
1.56903e-07
1.25062e-07
9.13523e-08
5.63683e-08
2.06071e-08
-1.51536e-08
-5.04032e-08
-8.43835e-08
-1.16803e-07
-1.47128e-07
-1.75429e-07
-2.01451e-07
-2.25607e-07
-2.478e-07
-2.68632e-07
-2.88016e-07
-3.06588e-07
-3.24173e-07
-3.41354e-07
-3.5782e-07
-3.74087e-07
-3.89708e-07
-4.05245e-07
-4.20218e-07
2.79976e-07
2.61724e-07
2.41084e-07
2.17885e-07
1.92136e-07
1.63862e-07
1.33332e-07
1.00804e-07
6.68368e-08
3.18733e-08
-3.32875e-09
-3.82947e-08
-7.22534e-08
-1.04915e-07
-1.357e-07
-1.64654e-07
-1.9147e-07
-2.16515e-07
-2.39659e-07
-2.61452e-07
-2.81791e-07
-3.01254e-07
-3.19657e-07
-3.37529e-07
-3.54546e-07
-3.7119e-07
-3.86988e-07
-4.02504e-07
-4.17252e-07
2.80991e-07
2.63463e-07
2.43715e-07
2.21563e-07
1.96955e-07
1.69847e-07
1.40449e-07
1.08963e-07
7.59053e-08
4.16697e-08
6.98827e-09
-2.76997e-08
-6.1617e-08
-9.44769e-08
-1.25664e-07
-1.552e-07
-1.8273e-07
-2.08585e-07
-2.32591e-07
-2.55261e-07
-2.76453e-07
-2.96716e-07
-3.15823e-07
-3.34287e-07
-3.51734e-07
-3.68657e-07
-3.84528e-07
-3.99951e-07
-4.14407e-07
2.81846e-07
2.64976e-07
2.46048e-07
2.24814e-07
2.01181e-07
1.75072e-07
1.46656e-07
1.16089e-07
8.38429e-08
5.02678e-08
1.60602e-08
-1.83685e-08
-5.22452e-08
-8.52818e-08
-1.16835e-07
-1.46905e-07
-1.75091e-07
-2.01695e-07
-2.26492e-07
-2.49968e-07
-2.71932e-07
-2.92909e-07
-3.12634e-07
-3.31592e-07
-3.49392e-07
-3.6649e-07
-3.82387e-07
-3.97618e-07
-4.1178e-07
2.82455e-07
2.6622e-07
2.48061e-07
2.2766e-07
2.04892e-07
1.79671e-07
1.52122e-07
1.22381e-07
9.08652e-08
5.7899e-08
2.41181e-08
-1.00698e-08
-4.39221e-08
-7.71236e-08
-1.09031e-07
-1.39603e-07
-1.68415e-07
-1.9572e-07
-2.21264e-07
-2.45483e-07
-2.68166e-07
-2.89779e-07
-3.10063e-07
-3.29425e-07
-3.47527e-07
-3.64709e-07
-3.80598e-07
-3.95557e-07
-4.0939e-07
2.82857e-07
2.67209e-07
2.49735e-07
2.30105e-07
2.08141e-07
1.83744e-07
1.56974e-07
1.27996e-07
9.71441e-08
6.47566e-08
3.13569e-08
-2.59714e-09
-3.64536e-08
-6.98057e-08
-1.02079e-07
-1.33124e-07
-1.62557e-07
-1.90527e-07
-2.16797e-07
-2.41713e-07
-2.65075e-07
-2.87272e-07
-3.08064e-07
-3.27774e-07
-3.4612e-07
-3.63339e-07
-3.79157e-07
-3.93814e-07
-4.07215e-07
2.83244e-07
2.68032e-07
2.5109e-07
2.32183e-07
2.1099e-07
1.87376e-07
1.61312e-07
1.33059e-07
1.02817e-07
7.0999e-08
3.79301e-08
4.22166e-09
-2.96841e-08
-6.3155e-08
-9.58357e-08
-1.2731e-07
-1.57398e-07
-1.85978e-07
-2.12993e-07
-2.38549e-07
-2.62588e-07
-2.85313e-07
-3.06591e-07
-3.26597e-07
-3.45159e-07
-3.62358e-07
-3.78083e-07
-3.92356e-07
-4.05311e-07
2.83826e-07
2.68777e-07
2.5219e-07
2.33988e-07
2.13529e-07
1.9065e-07
1.65223e-07
1.37679e-07
1.07996e-07
7.67503e-08
4.39531e-08
1.05176e-08
-2.35017e-08
-5.70372e-08
-9.0204e-08
-1.2203e-07
-1.52858e-07
-1.81956e-07
-2.0979e-07
-2.35893e-07
-2.60653e-07
-2.83833e-07
-3.05594e-07
-3.25868e-07
-3.44596e-07
-3.61789e-07
-3.77333e-07
-3.91255e-07
-4.03621e-07
2.84751e-07
2.69486e-07
2.53162e-07
2.35679e-07
2.15875e-07
1.93649e-07
1.68795e-07
1.41952e-07
1.1278e-07
8.21041e-08
4.95138e-08
1.6379e-08
-1.78322e-08
-5.13668e-08
-8.51302e-08
-1.17196e-07
-1.48913e-07
-1.78366e-07
-2.07193e-07
-2.33642e-07
-2.59294e-07
-2.82728e-07
-3.05102e-07
-3.25503e-07
-3.44456e-07
-3.616e-07
-3.76971e-07
-3.90511e-07
-4.02314e-07
2.85982e-07
2.70153e-07
2.54207e-07
2.37433e-07
2.18144e-07
1.96452e-07
1.72133e-07
1.45964e-07
1.17263e-07
8.71217e-08
5.4689e-08
2.18473e-08
-1.26148e-08
-4.61234e-08
-8.05749e-08
-1.12795e-07
-1.45555e-07
-1.75184e-07
-2.05249e-07
-2.3174e-07
-2.58624e-07
-2.8189e-07
-3.05259e-07
-3.25357e-07
-3.44841e-07
-3.61721e-07
-3.7706e-07
-3.90278e-07
-4.01474e-07
2.87375e-07
2.70895e-07
2.5561e-07
2.39387e-07
2.20421e-07
1.99141e-07
1.75356e-07
1.4979e-07
1.2154e-07
9.18361e-08
5.95597e-08
2.69186e-08
-7.78166e-09
-4.13551e-08
-7.64828e-08
-1.08916e-07
-1.42741e-07
-1.72515e-07
-2.03945e-07
-2.3026e-07
-2.58713e-07
-2.81309e-07
-3.06324e-07
-3.2524e-07
-3.46127e-07
-3.61868e-07
-3.77813e-07
-3.90621e-07
-4.01227e-07
2.88862e-07
2.71883e-07
2.57567e-07
2.41586e-07
2.22773e-07
2.01811e-07
1.78582e-07
1.53492e-07
1.25698e-07
9.62699e-08
6.42054e-08
3.1568e-08
-3.26585e-09
-3.71464e-08
-7.27843e-08
-1.05719e-07
-1.40378e-07
-1.70595e-07
-2.03154e-07
-2.29495e-07
-2.59434e-07
-2.81213e-07
-3.08326e-07
-3.25151e-07
-3.48964e-07
-3.61479e-07
-3.80373e-07
-3.90976e-07
-4.02344e-07
2.90453e-07
2.73578e-07
2.60119e-07
2.44023e-07
2.25275e-07
2.04564e-07
1.81901e-07
1.57119e-07
1.29794e-07
1.00446e-07
6.86725e-08
3.57774e-08
9.6523e-10
-3.35629e-08
-6.94368e-08
-1.03336e-07
-1.38374e-07
-1.69649e-07
-2.02687e-07
-2.29862e-07
-2.60445e-07
-2.8231e-07
-3.10733e-07
-3.25939e-07
-3.53033e-07
-3.6091e-07
-3.86019e-07
-3.89945e-07
-4.05546e-07
2.92259e-07
2.76212e-07
2.63216e-07
2.46853e-07
2.28198e-07
2.07668e-07
1.85485e-07
1.60827e-07
1.33926e-07
1.04463e-07
7.29917e-08
3.95898e-08
4.89187e-09
-3.06059e-08
-6.64848e-08
-1.01795e-07
-1.36765e-07
-1.69729e-07
-2.02445e-07
-2.31473e-07
-2.61479e-07
-2.85009e-07
-3.12782e-07
-3.28795e-07
-3.56932e-07
-3.61626e-07
-3.95005e-07
-3.85253e-07
-4.17741e-07
2.94926e-07
2.79753e-07
2.65611e-07
2.4868e-07
2.30811e-07
2.10797e-07
1.89173e-07
1.64553e-07
1.38051e-07
1.08342e-07
7.71275e-08
4.30431e-08
8.42077e-09
-2.82406e-08
-6.41095e-08
-1.01023e-07
-1.35868e-07
-1.70755e-07
-2.02763e-07
-2.33884e-07
-2.62522e-07
-2.88918e-07
-3.13991e-07
-3.33887e-07
-3.58786e-07
-3.66551e-07
-4.02941e-07
-3.79273e-07
-4.44253e-07
2.99097e-07
2.86001e-07
2.71339e-07
2.53724e-07
2.35248e-07
2.15034e-07
1.93556e-07
1.68873e-07
1.42511e-07
1.12471e-07
8.12215e-08
4.63844e-08
1.15393e-08
-2.63238e-08
-6.24226e-08
-1.00856e-07
-1.35807e-07
-1.72822e-07
-2.04291e-07
-2.38101e-07
-2.64656e-07
-2.94007e-07
-3.15756e-07
-3.39886e-07
-3.58797e-07
-3.76004e-07
-4.0319e-07
-3.83825e-07
-4.81871e-07
3.01612e-07
2.87483e-07
2.72328e-07
2.55196e-07
2.37688e-07
2.17992e-07
1.96855e-07
1.72216e-07
1.45975e-07
1.15694e-07
8.43397e-08
4.89391e-08
1.37369e-08
-2.50201e-08
-6.17081e-08
-1.01127e-07
-1.36434e-07
-1.74048e-07
-2.05905e-07
-2.40265e-07
-2.66814e-07
-2.97447e-07
-3.17428e-07
-3.44482e-07
-3.57309e-07
-3.80724e-07
-3.93695e-07
-3.98287e-07
-5.43107e-07
3.20128e-07
2.99025e-07
2.813e-07
2.63493e-07
2.45568e-07
2.25549e-07
2.04241e-07
1.7939e-07
1.52767e-07
1.21837e-07
8.96092e-08
5.30261e-08
1.64979e-08
-2.37794e-08
-6.19182e-08
-1.031e-07
-1.3983e-07
-1.79209e-07
-2.11979e-07
-2.47522e-07
-2.74679e-07
-3.05427e-07
-3.25913e-07
-3.52418e-07
-3.64294e-07
-3.91239e-07
-3.90543e-07
-4.24003e-07
-5.24673e-07
-4.04173e-07
-3.97433e-07
-3.90284e-07
-3.9117e-07
-3.95054e-07
-4.02517e-07
-4.08868e-07
-4.14403e-07
-4.19241e-07
-4.23206e-07
-4.26113e-07
-4.28074e-07
-4.29367e-07
-4.30203e-07
-4.30823e-07
-4.31242e-07
-4.31474e-07
-4.31541e-07
-4.31315e-07
-4.30999e-07
-4.30517e-07
-4.30179e-07
-4.30407e-07
-4.31732e-07
-4.35759e-07
-4.42313e-07
-4.5018e-07
-4.45455e-07
-4.12088e-07
-3.41565e-07
-4.04566e-07
-3.98759e-07
-3.92082e-07
-3.90245e-07
-3.96025e-07
-4.05728e-07
-4.15468e-07
-4.23945e-07
-4.31219e-07
-4.37183e-07
-4.41686e-07
-4.44662e-07
-4.46552e-07
-4.4769e-07
-4.48315e-07
-4.48752e-07
-4.48783e-07
-4.48581e-07
-4.47987e-07
-4.46971e-07
-4.45841e-07
-4.44186e-07
-4.42905e-07
-4.41122e-07
-4.39234e-07
-4.35552e-07
-4.28711e-07
-4.19138e-07
-4.06375e-07
-3.96567e-07
-4.05044e-07
-4.00406e-07
-3.95531e-07
-3.95064e-07
-3.99624e-07
-4.08173e-07
-4.1928e-07
-4.30281e-07
-4.40244e-07
-4.48753e-07
-4.55641e-07
-4.60782e-07
-4.64092e-07
-4.66155e-07
-4.67081e-07
-4.67407e-07
-4.67327e-07
-4.66722e-07
-4.6607e-07
-4.64649e-07
-4.63091e-07
-4.6067e-07
-4.57689e-07
-4.53768e-07
-4.48192e-07
-4.41862e-07
-4.33896e-07
-4.27372e-07
-4.18021e-07
-4.06259e-07
-4.05494e-07
-4.02055e-07
-3.99226e-07
-4.00139e-07
-4.04941e-07
-4.12721e-07
-4.23343e-07
-4.35326e-07
-4.47011e-07
-4.57769e-07
-4.67043e-07
-4.74824e-07
-4.80763e-07
-4.8492e-07
-4.87567e-07
-4.88578e-07
-4.8889e-07
-4.88069e-07
-4.86917e-07
-4.85078e-07
-4.8266e-07
-4.79941e-07
-4.75995e-07
-4.71845e-07
-4.66079e-07
-4.60628e-07
-4.54041e-07
-4.4761e-07
-4.394e-07
-4.30002e-07
-4.05719e-07
-4.03509e-07
-4.02792e-07
-4.05402e-07
-4.11032e-07
-4.1899e-07
-4.28731e-07
-4.40323e-07
-4.52617e-07
-4.64628e-07
-4.75902e-07
-4.8579e-07
-4.94521e-07
-5.01287e-07
-5.06828e-07
-5.10309e-07
-5.12527e-07
-5.13116e-07
-5.12392e-07
-5.10772e-07
-5.07855e-07
-5.04665e-07
-5.00146e-07
-4.9563e-07
-4.90111e-07
-4.84576e-07
-4.78305e-07
-4.71645e-07
-4.64527e-07
-4.57461e-07
-4.05488e-07
-4.0449e-07
-4.05775e-07
-4.1018e-07
-4.16986e-07
-4.25538e-07
-4.35393e-07
-4.46187e-07
-4.58095e-07
-4.70264e-07
-4.82535e-07
-4.93914e-07
-5.04652e-07
-5.13807e-07
-5.21998e-07
-5.28501e-07
-5.33617e-07
-5.37157e-07
-5.38985e-07
-5.3945e-07
-5.38179e-07
-5.35817e-07
-5.32015e-07
-5.27418e-07
-5.21792e-07
-5.15468e-07
-5.08206e-07
-5.00303e-07
-4.91854e-07
-4.83713e-07
-4.04562e-07
-4.04696e-07
-4.07749e-07
-4.13847e-07
-4.21955e-07
-4.31417e-07
-4.41775e-07
-4.52783e-07
-4.64109e-07
-4.76065e-07
-4.87951e-07
-5.0017e-07
-5.1163e-07
-5.22569e-07
-5.3262e-07
-5.41601e-07
-5.49387e-07
-5.55888e-07
-5.60926e-07
-5.64567e-07
-5.66575e-07
-5.67123e-07
-5.66028e-07
-5.63526e-07
-5.59452e-07
-5.54101e-07
-5.47321e-07
-5.39571e-07
-5.30849e-07
-5.22107e-07
-4.02724e-07
-4.03873e-07
-4.08389e-07
-4.1594e-07
-4.2531e-07
-4.35807e-07
-4.46952e-07
-4.58526e-07
-4.70088e-07
-4.82155e-07
-4.93428e-07
-5.05773e-07
-5.17044e-07
-5.28761e-07
-5.39597e-07
-5.50133e-07
-5.59747e-07
-5.68582e-07
-5.76252e-07
-5.8285e-07
-5.88052e-07
-5.91988e-07
-5.94357e-07
-5.95316e-07
-5.94625e-07
-5.9252e-07
-5.88959e-07
-5.84249e-07
-5.78698e-07
-5.72753e-07
-3.99841e-07
-4.01902e-07
-4.07565e-07
-4.16244e-07
-4.26695e-07
-4.38187e-07
-4.50211e-07
-4.62493e-07
-4.74638e-07
-4.87007e-07
-4.9868e-07
-5.1085e-07
-5.22083e-07
-5.33781e-07
-5.44803e-07
-5.55846e-07
-5.6626e-07
-5.7631e-07
-5.85652e-07
-5.9427e-07
-6.01951e-07
-6.08562e-07
-6.1403e-07
-6.18175e-07
-6.21104e-07
-6.22605e-07
-6.23e-07
-6.22062e-07
-6.20457e-07
-6.17974e-07
-3.95993e-07
-3.98812e-07
-4.0532e-07
-4.14808e-07
-4.26099e-07
-4.38425e-07
-4.51251e-07
-4.64225e-07
-4.77057e-07
-4.89837e-07
-5.02074e-07
-5.14326e-07
-5.26022e-07
-5.37675e-07
-5.48879e-07
-5.59926e-07
-5.7065e-07
-5.81038e-07
-5.91145e-07
-6.00573e-07
-6.09708e-07
-6.17784e-07
-6.25472e-07
-6.31761e-07
-6.37518e-07
-6.41671e-07
-6.4518e-07
-6.47025e-07
-6.48236e-07
-6.47887e-07
-3.91493e-07
-3.94883e-07
-4.01972e-07
-4.11978e-07
-4.2383e-07
-4.3675e-07
-4.50185e-07
-4.63749e-07
-4.77185e-07
-4.90383e-07
-5.03179e-07
-5.15662e-07
-5.27726e-07
-5.39504e-07
-5.50911e-07
-5.62064e-07
-5.72927e-07
-5.8345e-07
-5.93758e-07
-6.035e-07
-6.13157e-07
-6.21848e-07
-6.30547e-07
-6.37828e-07
-6.45144e-07
-6.50702e-07
-6.56182e-07
-6.59625e-07
-6.62847e-07
-6.63856e-07
-3.86891e-07
-3.90666e-07
-3.98121e-07
-4.08403e-07
-4.20552e-07
-4.33804e-07
-4.47606e-07
-4.61559e-07
-4.75396e-07
-4.8895e-07
-5.02116e-07
-5.14869e-07
-5.2719e-07
-5.3911e-07
-5.50642e-07
-5.61825e-07
-5.72679e-07
-5.83204e-07
-5.9343e-07
-6.03231e-07
-6.12813e-07
-6.21746e-07
-6.30453e-07
-6.3825e-07
-6.45863e-07
-6.52171e-07
-6.58409e-07
-6.62774e-07
-6.67432e-07
-6.69213e-07
-3.82914e-07
-3.8693e-07
-3.94592e-07
-4.04982e-07
-4.1723e-07
-4.30598e-07
-4.44546e-07
-4.58673e-07
-4.72699e-07
-4.8644e-07
-4.99782e-07
-5.12668e-07
-5.2508e-07
-5.37022e-07
-5.48513e-07
-5.59579e-07
-5.70241e-07
-5.80514e-07
-5.90408e-07
-5.99914e-07
-6.09032e-07
-6.17704e-07
-6.25923e-07
-6.33588e-07
-6.40725e-07
-6.47175e-07
-6.52981e-07
-6.57568e-07
-6.63158e-07
-6.63112e-07
-3.80337e-07
-3.84508e-07
-3.92293e-07
-4.02723e-07
-4.14985e-07
-4.28362e-07
-4.4233e-07
-4.56491e-07
-4.7056e-07
-4.8434e-07
-4.97703e-07
-5.10573e-07
-5.22915e-07
-5.34717e-07
-5.45985e-07
-5.56732e-07
-5.66975e-07
-5.76727e-07
-5.85997e-07
-5.94788e-07
-6.03093e-07
-6.10897e-07
-6.18179e-07
-6.24909e-07
-6.31054e-07
-6.36556e-07
-6.41361e-07
-6.45387e-07
-6.48611e-07
-6.50936e-07
-3.79806e-07
-3.84096e-07
-3.92001e-07
-4.0251e-07
-4.14836e-07
-4.28261e-07
-4.42268e-07
-4.56459e-07
-4.70541e-07
-4.84308e-07
-4.97618e-07
-5.1038e-07
-5.22541e-07
-5.34071e-07
-5.44961e-07
-5.5521e-07
-5.64822e-07
-5.73801e-07
-5.82152e-07
-5.89875e-07
-5.96972e-07
-6.0344e-07
-6.09274e-07
-6.14461e-07
-6.18977e-07
-6.2279e-07
-6.25884e-07
-6.28276e-07
-6.30019e-07
-6.31183e-07
-3.81656e-07
-3.86059e-07
-3.9413e-07
-4.0484e-07
-4.1736e-07
-4.30978e-07
-4.45162e-07
-4.59502e-07
-4.73697e-07
-4.87527e-07
-5.00839e-07
-5.13529e-07
-5.2553e-07
-5.36799e-07
-5.47309e-07
-5.57045e-07
-5.65997e-07
-5.74161e-07
-5.81531e-07
-5.88105e-07
-5.9388e-07
-5.9886e-07
-6.03052e-07
-6.06467e-07
-6.0911e-07
-6.10968e-07
-6.12015e-07
-6.12265e-07
-6.11839e-07
-6.10924e-07
-3.85807e-07
-3.90299e-07
-3.98557e-07
-4.09542e-07
-4.22377e-07
-4.36312e-07
-4.50792e-07
-4.65387e-07
-4.79782e-07
-4.93745e-07
-5.07114e-07
-5.19778e-07
-5.31661e-07
-5.42713e-07
-5.529e-07
-5.62201e-07
-5.70598e-07
-5.78081e-07
-5.84643e-07
-5.90278e-07
-5.94981e-07
-5.9875e-07
-6.01598e-07
-6.03533e-07
-6.04584e-07
-6.04737e-07
-6.03953e-07
-6.02131e-07
-5.99378e-07
-5.96194e-07
-3.91779e-07
-3.96288e-07
-4.04671e-07
-4.15893e-07
-4.28995e-07
-4.43181e-07
-4.57862e-07
-4.72589e-07
-4.87035e-07
-5.00964e-07
-5.14209e-07
-5.26663e-07