/*--------------------------------*- C++ -*----------------------------------*\
| =========                 |                                                 |
| \\      /  F ield         | OpenFOAM: The Open Source CFD Toolbox           |
|  \\    /   O peration     | Version:  2312                                  |
|   \\  /    A nd           | Website:  www.openfoam.com                      |
|    \\/     M anipulation  |                                                 |
\*---------------------------------------------------------------------------*/
FoamFile
{
    version     2.0;
    format      ascii;
    arch        "LSB;label=32;scalar=64";
    class       volVectorField;
    location    "119000";
    object      U;
}
// * * * * * * * * * * * * * * * * * * * * * * * * * * * * * * * * * * * * * //

dimensions      [0 1 -1 0 0 0 0];

internalField   nonuniform List<vector> 
2715
(
(0.000267831 2.90667e-05 1.09719e-24)
(0.000278884 -3.59439e-06 0)
(0.00024379 -2.67654e-06 0)
(0.000228638 -3.41482e-06 0)
(0.000220766 -3.42335e-06 -2.57519e-23)
(0.000225639 -4.30406e-06 2.5198e-23)
(0.000227327 -4.42659e-06 0)
(0.000241203 -5.35253e-06 6.53998e-25)
(0.000247243 -4.9053e-06 0)
(0.000267051 -5.52314e-06 0)
(0.00027442 -4.55625e-06 -2.00871e-25)
(0.00029713 -4.83201e-06 0)
(0.000303053 -3.27611e-06 -4.58779e-26)
(0.000325743 -3.1871e-06 0)
(0.00032763 -1.07663e-06 2.13746e-24)
(0.000348053 -5.40507e-07 -2.13794e-24)
(0.00034442 1.62361e-06 0)
(0.000361327 1.79005e-06 -1.10519e-25)
(0.000351877 3.50395e-06 0)
(0.000365052 3.26042e-06 0)
(0.000350726 5.33037e-06 0)
(0.00036018 3.9209e-06 0)
(0.000342541 6.97519e-06 9.81668e-25)
(0.000347927 4.69849e-06 0)
(0.000328423 6.72005e-06 -3.85146e-23)
(0.000329081 8.72939e-06 3.707e-23)
(0.000309597 7.03132e-07 0)
(0.000289946 1.48805e-05 0)
(0.000325699 5.48957e-05 0)
(-5.54471e-05 -7.05634e-05 1.67361e-24)
(0.000531108 4.85495e-05 6.42218e-23)
(0.000583326 1.31686e-05 -6.79694e-23)
(0.000556482 1.60173e-05 1.82268e-24)
(0.000550773 8.5225e-06 0)
(0.000541489 3.16775e-06 0)
(0.000556407 -1.31012e-06 2.4796e-23)
(0.000556112 -2.52334e-06 -2.09914e-24)
(0.000585645 -5.88175e-06 -2.29286e-23)
(0.000590887 -5.61103e-06 -5.79505e-25)
(0.000631965 -8.49599e-06 0)
(0.000639305 -6.88071e-06 -5.01765e-24)
(0.000687785 -9.56493e-06 5.6441e-24)
(0.000693759 -6.67853e-06 -9.35292e-25)
(0.00074508 -9.35128e-06 9.93344e-25)
(0.000746355 -5.29081e-06 6.67612e-24)
(0.000796307 -8.2011e-06 -7.71503e-24)
(0.000790438 -3.07731e-06 -2.07186e-24)
(0.000835635 -7.01296e-06 3.22286e-24)
(0.000822274 -2.43526e-07 -1.01469e-23)
(0.000860654 -5.67471e-06 1.07931e-23)
(0.000841771 3.13341e-06 0)
(0.000869553 -4.34817e-06 -8.89903e-25)
(0.000851507 6.30352e-06 3.20362e-23)
(0.000859069 -3.86084e-06 2.70964e-24)
(0.000857996 1.16911e-05 -3.40724e-23)
(0.000816553 -8.05956e-06 0)
(0.000881265 3.22827e-05 0)
(0.000685203 -3.99395e-05 2.61948e-24)
(0.0010004 0.000111701 9.57581e-23)
(0.000394178 -5.26423e-05 -9.89458e-23)
(0.000707097 4.80751e-05 4.31889e-24)
(0.000758439 1.89844e-06 -5.84479e-23)
(0.000749599 2.90641e-06 5.91764e-23)
(0.000760008 -2.7719e-06 3.54666e-24)
(0.000757001 -7.4887e-06 0)
(0.000781184 -1.43632e-05 0)
(0.000781763 -1.60745e-05 -1.45536e-24)
(0.000817759 -2.16439e-05 0)
(0.000822555 -2.10325e-05 -9.30072e-24)
(0.000869727 -2.62159e-05 1.53105e-24)
(0.000877434 -2.29937e-05 1.28815e-23)
(0.000932139 -2.77122e-05 -5.63082e-24)
(0.000940412 -2.14972e-05 0)
(0.000997963 -2.60339e-05 0)
(0.00100442 -1.67454e-05 1.17721e-23)
(0.00105996 -2.20826e-05 -1.17904e-23)
(0.00106327 -9.65715e-06 -1.68331e-25)
(0.00111234 -1.69465e-05 0)
(0.00111355 -6.7607e-07 1.03492e-23)
(0.001151 -1.1922e-05 -2.25046e-23)
(0.00115439 9.2122e-06 -1.74803e-24)
(0.00117219 -9.35962e-06 1.2901e-23)
(0.00118794 2.16369e-05 0)
(0.00117177 -1.10944e-05 -2.16075e-24)
(0.00122058 4.00637e-05 0)
(0.0011403 -2.24059e-05 0)
(0.00126624 7.48231e-05 5.04268e-24)
(0.00106273 -4.79709e-05 -8.79204e-23)
(0.00134239 0.000121197 8.69356e-23)
(0.000980798 -3.95063e-05 6.15132e-24)
(0.000839356 3.47079e-05 6.13814e-23)
(0.00088235 -3.24899e-06 -1.2752e-22)
(0.000883074 -2.73596e-06 3.60645e-23)
(0.000899296 -7.12012e-06 2.59477e-23)
(0.000900939 -1.12723e-05 0)
(0.000927297 -2.01503e-05 3.19167e-24)
(0.000932667 -2.25993e-05 -1.44698e-24)
(0.00096807 -3.08025e-05 0)
(0.000977732 -3.00784e-05 1.19923e-24)
(0.00102097 -3.79893e-05 -7.2213e-24)
(0.00103467 -3.35721e-05 6.849e-24)
(0.00108267 -4.12208e-05 0)
(0.00109926 -3.25273e-05 -8.82371e-25)
(0.0011478 -4.04686e-05 9.53443e-25)
(0.00116604 -2.71505e-05 1.76255e-23)
(0.00121041 -3.66574e-05 -1.88181e-23)
(0.00123005 -1.82514e-05 -1.99075e-24)
(0.00126548 -3.12785e-05 3.27603e-24)
(0.00128814 -7.12931e-06 0)
(0.00130929 -2.68365e-05 -1.30802e-23)
(0.00133938 5.86571e-06 1.23003e-23)
(0.00133949 -2.462e-05 1.86496e-24)
(0.00138538 2.25724e-05 0)
(0.00135331 -2.55131e-05 -2.19607e-24)
(0.00142863 4.40568e-05 0)
(0.0013489 -3.05301e-05 -5.01058e-24)
(0.00147347 7.00971e-05 -4.81871e-23)
(0.00132977 -3.58873e-05 -3.88656e-23)
(0.00152307 8.33708e-05 1.76878e-22)
(0.00130575 -1.55937e-06 -9.61576e-23)
(0.00094333 2.0625e-05 0)
(0.000975814 -8.95786e-06 5.40169e-23)
(0.000981209 -1.33942e-05 -9.62853e-23)
(0.000997122 -1.92339e-05 2.64534e-23)
(0.00100316 -2.37681e-05 0)
(0.00102799 -3.37806e-05 -3.28357e-24)
(0.00103874 -3.58353e-05 3.02909e-24)
(0.00106959 -4.50801e-05 0)
(0.00108486 -4.35985e-05 2.36e-24)
(0.00112099 -5.29176e-05 0)
(0.00114107 -4.73049e-05 7.84697e-25)
(0.00117998 -5.6615e-05 0)
(0.00120403 -4.59386e-05 0)
(0.00124213 -5.57864e-05 0)
(0.00126917 -3.95185e-05 2.47305e-23)
(0.00130252 -5.12988e-05 -2.4735e-23)
(0.00133229 -2.9015e-05 0)
(0.00135704 -4.493e-05 0)
(0.00139056 -1.58253e-05 0)
(0.00140308 -3.84667e-05 1.46842e-24)
(0.00144296 -5.45051e-07 0)
(0.00143937 -3.2732e-05 3.79293e-24)
(0.00148954 1.61613e-05 0)
(0.00146533 -2.87852e-05 4.54633e-24)
(0.00153094 3.45015e-05 0)
(0.00148154 -2.52416e-05 5.15323e-24)
(0.00156798 5.08776e-05 -4.86387e-23)
(0.00149002 -1.53253e-05 1.26362e-22)
(0.00160238 5.00635e-05 -9.89842e-23)
(0.00148715 1.6503e-05 0)
(0.001025 5.76193e-06 5.83832e-23)
(0.0010483 -1.55099e-05 -1.31034e-22)
(0.00105695 -2.35438e-05 9.43118e-23)
(0.00107143 -3.00623e-05 -2.69061e-23)
(0.00108039 -3.35286e-05 -2.73678e-23)
(0.00110181 -4.38151e-05 2.4336e-23)
(0.00111595 -4.66711e-05 2.31177e-23)
(0.00114236 -5.68883e-05 -4.38533e-23)
(0.00116099 -5.60665e-05 1.82636e-23)
(0.00119164 -6.58902e-05 0)
(0.00121476 -6.06998e-05 -8.08977e-25)
(0.00124778 -7.00725e-05 5.42197e-25)
(0.00127436 -5.96494e-05 -7.19109e-25)
(0.00130693 -6.90066e-05 8.88523e-25)
(0.00133572 -5.30109e-05 3.30267e-23)
(0.00136484 -6.35653e-05 -3.44443e-23)
(0.00139502 -4.20172e-05 -2.30863e-24)
(0.00141811 -5.55602e-05 3.54337e-24)
(0.00144966 -2.83493e-05 1.26366e-24)
(0.00146482 -4.66542e-05 -1.51385e-24)
(0.00149846 -1.34068e-05 0)
(0.00150428 -3.78956e-05 -3.65013e-23)
(0.0015411 1.75555e-06 6.79243e-23)
(0.00153655 -2.89163e-05 -3.52774e-23)
(0.00157747 1.6139e-05 -4.53277e-23)
(0.0015619 -1.78443e-05 4.00931e-23)
(0.0016078 2.64104e-05 4.94438e-23)
(0.0015801 -1.19343e-06 -1.4596e-22)
(0.00163349 2.71193e-05 1.94035e-22)
(0.00158842 1.98708e-05 -1.03234e-22)
(0.00108727 -8.60632e-06 -5.90998e-23)
(0.00110386 -2.30407e-05 1.24819e-23)
(0.00111429 -3.30123e-05 6.55178e-23)
(0.00112753 -4.0993e-05 -7.60448e-24)
(0.00113823 -4.51701e-05 2.79131e-23)
(0.0011568 -5.51602e-05 -1.80551e-23)
(0.00117263 -5.91428e-05 0)
(0.00119589 -6.90541e-05 0)
(0.00121578 -6.961e-05 0)
(0.00124299 -7.84542e-05 1.98624e-24)
(0.00126655 -7.48555e-05 7.71057e-25)
(0.00129638 -8.25271e-05 -5.59602e-25)
(0.00132231 -7.40858e-05 0)
(0.00135261 -8.08251e-05 -7.65976e-29)
(0.00137933 -6.74659e-05 4.33846e-23)
(0.00140786 -7.42026e-05 -4.33911e-23)
(0.00143412 -5.64355e-05 4.0242e-25)
(0.00145913 -6.44281e-05 0)
(0.00148435 -4.29581e-05 -1.30422e-24)
(0.00150481 -5.31549e-05 1.56483e-24)
(0.00152901 -2.87985e-05 3.53775e-24)
(0.00154436 -4.12299e-05 0)
(0.0015679 -1.51046e-05 0)
(0.0015777 -2.83153e-05 0)
(0.00160113 -2.95173e-06 5.62986e-23)
(0.00160447 -1.32426e-05 -4.09542e-23)
(0.00162915 6.33222e-06 0)
(0.00162385 4.38092e-06 -8.16315e-23)
(0.00165268 1.29658e-05 -3.09027e-24)
(0.00163505 1.95853e-05 1.05906e-22)
(0.00113178 -2.17846e-05 0)
(0.00114413 -3.18631e-05 -8.51779e-24)
(0.0011553 -4.23018e-05 3.17591e-23)
(0.00116781 -5.14722e-05 -2.43064e-23)
(0.00117965 -5.70573e-05 0)
(0.00119619 -6.63029e-05 -6.95272e-24)
(0.00121276 -7.16591e-05 0)
(0.0012338 -8.05873e-05 0)
(0.00125406 -8.30522e-05 0)
(0.0012788 -9.01881e-05 5.08487e-24)
(0.00130205 -8.89098e-05 -1.3177e-23)
(0.00132954 -9.39985e-05 6.29458e-24)
(0.00135433 -8.85023e-05 -1.57784e-24)
(0.00138286 -9.15857e-05 7.91559e-29)
(0.0014074 -8.20577e-05 5.57646e-23)
(0.00143528 -8.38056e-05 -5.58788e-23)
(0.00145806 -7.11586e-05 -4.1586e-25)
(0.0014841 -7.24378e-05 4.97664e-24)
(0.00150423 -5.79514e-05 -1.8284e-23)
(0.00152793 -5.92193e-05 2.41065e-23)
(0.00154506 -4.42792e-05 -1.73995e-23)
(0.00156643 -4.50824e-05 0)
(0.00158049 -3.11987e-05 0)
(0.00159961 -3.00804e-05 0)
(0.00161054 -1.92048e-05 -1.02527e-23)
(0.00162737 -1.38792e-05 0)
(0.00163518 -8.0608e-06 4.62843e-23)
(0.00164969 2.92446e-06 -4.57288e-23)
(0.00165377 3.10457e-06 -1.20127e-23)
(0.00166679 1.77282e-05 0)
(0.00115995 -3.37405e-05 9.02303e-24)
(0.0011702 -4.17972e-05 6.82369e-23)
(0.00118158 -5.19529e-05 -3.64662e-23)
(0.00119367 -6.16619e-05 -1.99923e-24)
(0.0012063 -6.89322e-05 -3.14119e-23)
(0.00122159 -7.74458e-05 0)
(0.00123848 -8.41762e-05 2.42875e-23)
(0.00125792 -9.19142e-05 -3.23794e-24)
(0.00127832 -9.62966e-05 -1.90116e-23)
(0.0013011 -0.000101609 -7.08918e-24)
(0.00132415 -0.000102663 7.13219e-24)
(0.00134942 -0.000105098 5.2226e-25)
(0.00137369 -0.000102521 2.08725e-25)
(0.0014 -0.000102002 3.93146e-26)
(0.00142367 -9.61751e-05 7.0355e-23)
(0.00144958 -9.32249e-05 -7.03249e-23)
(0.00147113 -8.52875e-05 -4.60176e-25)
(0.0014957 -8.0645e-05 1.19282e-24)
(0.00151422 -7.20765e-05 1.41918e-24)
(0.00153718 -6.61578e-05 -1.43596e-23)
(0.00155236 -5.83362e-05 1.42729e-23)
(0.00157378 -5.0925e-05 3.97622e-23)
(0.0015856 -4.49215e-05 3.28116e-24)
(0.00160565 -3.53362e-05 -3.81624e-23)
(0.0016141 -3.18182e-05 0)
(0.00163279 -1.94253e-05 4.58079e-23)
(0.00163773 -1.84424e-05 2.35318e-24)
(0.00165509 -3.66013e-06 5.12583e-23)
(0.00165599 -4.47374e-06 -9.6994e-23)
(0.00167222 1.13954e-05 1.2632e-23)
(0.0011734 -4.46156e-05 -8.19327e-23)
(0.00118317 -5.2366e-05 8.26824e-23)
(0.00119452 -6.22421e-05 -2.49492e-23)
(0.00120654 -7.19188e-05 5.76877e-23)
(0.00121972 -8.06591e-05 -3.22864e-23)
(0.00123453 -8.87098e-05 -2.03146e-23)
(0.00125151 -9.65697e-05 2.12687e-23)
(0.00127006 -0.000103297 0)
(0.00129043 -0.00010918 -4.97709e-24)
(0.00131193 -0.000113036 1.97553e-24)
(0.00133483 -0.000115893 0)
(0.00135841 -0.000116236 -1.33917e-24)
(0.00138251 -0.000115856 1.29681e-24)
(0.00140676 -0.00011257 2.27198e-26)
(0.00143037 -0.000109447 8.79567e-23)
(0.00145393 -0.000103033 -8.78913e-23)
(0.00147563 -9.83858e-05 -1.87087e-26)
(0.00149766 -8.96362e-05 -5.48649e-24)
(0.00151664 -8.49201e-05 5.49346e-24)
(0.00153698 -7.44163e-05 0)
(0.00155297 -7.0815e-05 3.96757e-24)
(0.00157187 -5.86705e-05 -8.77365e-24)
(0.00158478 -5.68626e-05 0)
(0.00160265 -4.28398e-05 -5.28007e-23)
(0.00161224 -4.30336e-05 5.29912e-23)
(0.00162949 -2.68791e-05 4.71934e-23)
(0.00163513 -2.90398e-05 -1.0766e-22)
(0.0016523 -1.06135e-05 4.84455e-23)
(0.00165299 -1.48272e-05 -9.11252e-23)
(0.00167093 6.56479e-06 7.63623e-23)
(0.0011744 -5.47747e-05 -7.4798e-23)
(0.00118467 -6.32454e-05 1.38913e-22)
(0.00119607 -7.31607e-05 -9.11442e-23)
(0.00120837 -8.25796e-05 4.98117e-23)
(0.00122196 -9.22948e-05 -3.32302e-23)
(0.00123698 -0.000100202 -7.4542e-24)
(0.00125399 -0.000108843 3.19254e-23)
(0.0012724 -0.000114963 -2.54061e-23)
(0.00129267 -0.000121759 2.54285e-24)
(0.00131376 -0.000124748 -2.04726e-24)
(0.00133649 -0.000128657 0)
(0.00135928 -0.000127739 1.1906e-24)
(0.00138327 -0.000128564 -1.38255e-24)
(0.00140631 -0.000123642 3.793e-26)
(0.00143003 -0.000121927 1.09303e-22)
(0.0014519 -0.000113566 -1.09192e-22)
(0.00147413 -0.000110524 4.73338e-24)
(0.00149396 -9.96496e-05 -2.13164e-25)
(0.0015141 -9.66481e-05 -5.81539e-24)
(0.00153168 -8.4033e-05 0)
(0.00154964 -8.20895e-05 -4.11159e-24)
(0.00156522 -6.80733e-05 4.54769e-24)
(0.00158108 -6.76715e-05 4.12095e-23)
(0.00159502 -5.21897e-05 -3.01855e-23)
(0.00160865 -5.34271e-05 -1.12693e-23)
(0.00162134 -3.61924e-05 4.87103e-23)
(0.00163225 -3.90754e-05 -2.33806e-23)
(0.00164414 -1.96131e-05 9.18223e-23)
(0.00165146 -2.43027e-05 -2.10523e-22)
(0.00166337 -1.73151e-06 1.05796e-22)
(0.00116626 -6.50066e-05 -5.74689e-23)
(0.00117736 -7.43725e-05 1.34034e-23)
(0.00118903 -8.4627e-05 8.48983e-23)
(0.00120195 -9.3924e-05 -1.75251e-23)
(0.00121597 -0.000104138 0)
(0.0012317 -0.000112134 7.55004e-24)
(0.0012489 -0.000121222 6.79172e-24)
(0.00126783 -0.000127151 2.78967e-23)
(0.00128813 -0.000134344 -1.31958e-23)
(0.00130966 -0.000137003 -7.11766e-24)
(0.0013323 -0.0001413 -4.46987e-24)
(0.00135534 -0.000139849 4.23959e-24)
(0.00137917 -0.000141029 1.01901e-24)
(0.00140221 -0.000135408 -9.49464e-26)
(0.00142581 -0.000134047 1.34464e-22)
(0.00144736 -0.000124906 -1.34678e-22)
(0.00146965 -0.000122214 5.55579e-25)
(0.00148877 -0.000110583 -6.20566e-24)
(0.00150937 -0.000107906 -8.2978e-24)
(0.00152578 -9.46504e-05 1.43968e-23)
(0.00154485 -9.2994e-05 2.25439e-23)
(0.00155866 -7.84771e-05 2.16711e-23)
(0.00157657 -7.83617e-05 -2.90611e-23)
(0.00158795 -6.24238e-05 1.10068e-23)
(0.00160497 -6.40706e-05 1.1658e-23)
(0.0016139 -4.61695e-05 0)
(0.00163015 -4.97836e-05 -2.55464e-23)
(0.00163643 -2.9106e-05 -9.49487e-23)
(0.00165191 -3.50733e-05 -4.49337e-24)
(0.00165531 -1.04676e-05 1.23392e-22)
(0.00115295 -7.60705e-05 3.89829e-23)
(0.00116487 -8.6076e-05 -9.10399e-23)
(0.00117709 -9.67263e-05 -9.49644e-24)
(0.00119087 -0.000106144 9.06071e-24)
(0.00120554 -0.000116577 0)
(0.00122228 -0.000124814 -7.83219e-24)
(0.00124001 -0.000134115 -7.04893e-24)
(0.00125993 -0.000140159 -6.14899e-24)
(0.00128064 -0.000147415 8.9383e-24)
(0.00130319 -0.000150094 -1.10294e-23)
(0.00132609 -0.000154336 0)
(0.00135013 -0.000152804 6.75747e-25)
(0.00137398 -0.000153783 -8.08466e-25)
(0.00139794 -0.000148026 -1.62276e-25)
(0.0014213 -0.000146347 1.64752e-22)
(0.00144367 -0.000137097 -1.64764e-22)
(0.00146553 -0.000133995 6.30896e-25)
(0.00148537 -0.000122363 6.62233e-24)
(0.00150542 -0.000119209 -2.97603e-24)
(0.00152245 -0.000106105 0)
(0.00154103 -0.000103944 1.45611e-23)
(0.00155535 -8.97121e-05 -1.89111e-23)
(0.00157301 -8.91345e-05 -1.06928e-23)
(0.00158472 -7.35136e-05 -1.14235e-23)
(0.00160196 -7.48401e-05 -1.20935e-23)
(0.00161096 -5.71064e-05 0)
(0.00162807 -6.06784e-05 1.32294e-23)
(0.00163404 -3.97761e-05 -1.36905e-23)
(0.00165117 -4.61944e-05 1.01018e-22)
(0.00165388 -2.0648e-05 -1.42267e-22)
(0.00113942 -8.85903e-05 -4.03416e-23)
(0.00115191 -9.88816e-05 1.74033e-22)
(0.00116478 -0.000109814 -7.11248e-23)
(0.00117949 -0.00011954 3.57977e-23)
(0.00119498 -0.000130097 -3.63115e-23)
(0.00121283 -0.000138678 7.89818e-24)
(0.00123143 -0.000148056 -7.02199e-24)
(0.00125257 -0.000154379 2.22273e-23)
(0.00127411 -0.000161514 -2.7369e-23)
(0.00129797 -0.00016437 -6.3906e-24)
(0.00132155 -0.000168299 2.64458e-24)
(0.00134688 -0.000166862 3.68151e-24)
(0.00137109 -0.000167332 -1.36663e-24)
(0.00139627 -0.000161636 9.83635e-25)
(0.00141955 -0.00015929 2.01241e-22)
(0.00144308 -0.000150156 -2.01253e-22)
(0.00146438 -0.00014628 5.31157e-24)
(0.00148537 -0.00013489 1.14897e-24)
(0.00150444 -0.000130905 -2.71357e-23)
(0.0015227 -0.000118217 -2.04997e-24)
(0.00153994 -0.000115202 1.33014e-23)
(0.00155563 -0.000101573 3.29721e-23)
(0.00157179 -0.000100143 -4.29966e-23)
(0.00158495 -8.52967e-05 -1.19412e-23)
(0.00160081 -8.57727e-05 1.25949e-23)
(0.00161112 -6.89497e-05 4.09971e-23)
(0.00162743 -7.16416e-05 -5.34113e-23)
(0.00163413 -5.17622e-05 1.30394e-22)
(0.00165175 -5.72036e-05 -2.19191e-22)
(0.00165377 -3.28382e-05 1.77462e-22)
(0.00112953 -0.000102818 -4.39198e-23)
(0.0011424 -0.000113225 -6.12747e-23)
(0.00115589 -0.000124309 1.23104e-22)
(0.00117148 -0.000134457 -3.98806e-23)
(0.00118785 -0.000145152 0)
(0.00120684 -0.000154158 -1.6283e-23)
(0.00122648 -0.000163541 3.39411e-23)
(0.00124892 -0.000170199 -2.69485e-23)
(0.00127151 -0.000177089 5.12199e-24)
(0.0012967 -0.000180139 6.07315e-24)
(0.00132117 -0.000183571 -6.12117e-24)
(0.0013477 -0.000182221 0)
(0.00137244 -0.000181971 0)
(0.00139859 -0.000176312 0)
(0.00142191 -0.000173089 2.45727e-22)
(0.00144623 -0.000164035 -2.45823e-22)
(0.00146698 -0.000159208 0)
(0.00148874 -0.000148024 -1.80764e-24)
(0.00150664 -0.000143075 0)
(0.00152586 -0.000130775 1.93755e-23)
(0.00154129 -0.000126819 -1.42036e-23)
(0.00155839 -0.00011379 1.09023e-23)
(0.00157204 -0.000111461 4.86978e-23)
(0.00158735 -9.7423e-05 -3.5694e-23)
(0.00159993 -9.70528e-05 -2.62459e-23)
(0.00161342 -8.1186e-05 1.37053e-23)
(0.00162562 -8.31166e-05 5.84712e-23)
(0.00163674 -6.4189e-05 -1.78267e-22)
(0.00164937 -6.90814e-05 1.49128e-22)
(0.00165711 -4.53852e-05 -6.22483e-23)
(0.00112602 -0.00011892 -6.60381e-23)
(0.00113907 -0.000129485 1.75747e-22)
(0.00115292 -0.000140661 -9.73496e-23)
(0.00116921 -0.000151271 3.79194e-23)
(0.00118631 -0.000162126 -7.3283e-23)
(0.00120633 -0.000171589 2.08352e-23)
(0.00122686 -0.000180904 4.65978e-24)
(0.00125049 -0.000187856 4.92673e-23)
(0.00127396 -0.000194358 -2.23374e-23)
(0.00130028 -0.000197516 1.68245e-24)
(0.00132541 -0.000200256 -2.72346e-24)
(0.00135281 -0.000198876 2.6056e-24)
(0.00137782 -0.000197692 -1.5e-24)
(0.00140445 -0.000191946 2.29637e-24)
(0.00142761 -0.000187651 2.99642e-22)
(0.00145201 -0.000178561 -2.99654e-22)
(0.00147219 -0.000172635 5.44875e-24)
(0.00149377 -0.00016156 3.07557e-24)
(0.00151072 -0.000155554 -2.69579e-23)
(0.00152974 -0.000143576 1.85857e-23)
(0.00154384 -0.000138627 0)
(0.00156101 -0.000126195 4.81834e-23)
(0.00157288 -0.000122909 -9.88351e-23)
(0.00158892 -0.00010981 9.72759e-24)
(0.00159913 -0.000108433 2.41927e-23)
(0.00161441 -9.39244e-05 1.14439e-22)
(0.00162342 -9.46468e-05 -4.30145e-23)
(0.00163785 -7.75735e-05 1.10244e-22)
(0.00164614 -8.08671e-05 -2.52456e-22)
(0.0016592 -5.96118e-05 1.59104e-22)
(0.00112814 -0.000136589 0)
(0.00114128 -0.000147562 -2.2881e-23)
(0.00115523 -0.000158903 1.09254e-23)
(0.001172 -0.000169989 3.90266e-23)
(0.00118953 -0.000181022 -3.96661e-23)
(0.00121039 -0.000190906 -4.0128e-23)
(0.00123148 -0.000200083 3.19936e-23)
(0.00125607 -0.000207209 0)
(0.00127997 -0.000213173 -3.49366e-24)
(0.00130715 -0.000216278 6.39957e-24)
(0.00133237 -0.000218122 -7.61518e-25)
(0.00136033 -0.000216544 6.47331e-25)
(0.00138502 -0.000214209 -6.11598e-25)
(0.0014118 -0.000208235 -6.85008e-25)
(0.00143423 -0.000202675 3.66218e-22)
(0.00145837 -0.00019345 -3.66229e-22)
(0.00147758 -0.000186288 -1.10652e-25)
(0.00149858 -0.000175254 -9.0363e-24)
(0.00151446 -0.000168139 4.10715e-24)
(0.00153274 -0.000156411 -5.36882e-24)
(0.00154578 -0.000150534 -2.39238e-23)
(0.00156226 -0.00013857 3.61042e-23)
(0.00157307 -0.000134554 0)
(0.0015888 -0.000122156 -7.04017e-23)
(0.00159777 -0.000120208 4.15406e-23)
(0.0016136 -0.000106663 6.14519e-23)
(0.00162086 -0.000106854 -7.59567e-23)
(0.00163724 -9.10711e-05 1.59834e-23)
(0.00164282 -9.36694e-05 -3.28746e-23)
(0.00165965 -7.41413e-05 0)
(0.00113099 -0.00015545 -9.59501e-23)
(0.0011445 -0.000167194 1.659e-22)
(0.00115868 -0.000178901 -1.16023e-22)
(0.00117593 -0.000190448 0)
(0.00119389 -0.000201652 -3.63447e-23)
(0.00121549 -0.000211829 2.84463e-23)
(0.001237 -0.000220796 7.24246e-24)
(0.00126234 -0.000227899 2.12071e-23)
(0.00128636 -0.000233198 -2.19399e-23)
(0.00131415 -0.000236024 0)
(0.00133906 -0.000236819 7.98926e-25)
(0.00136744 -0.000234842 -1.23938e-24)
(0.0013913 -0.000231197 -2.25579e-24)
(0.00141829 -0.000224872 1.87088e-24)
(0.00143948 -0.000217898 4.48579e-22)
(0.00146364 -0.000208518 -4.48588e-22)
(0.0014814 -0.000199973 1.27884e-23)
(0.00150225 -0.00018906 3.61513e-24)
(0.00151674 -0.00018069 -4.73564e-24)
(0.00153468 -0.000169363 5.63245e-24)
(0.00154664 -0.000162427 0)
(0.00156258 -0.000151096 5.46274e-23)
(0.00157278 -0.000146282 -5.37001e-23)
(0.00158784 -0.000134688 0)
(0.00159662 -0.000132243 -7.74012e-23)
(0.001612 -0.000119626 6.12035e-23)
(0.00161905 -0.000119587 0)
(0.00163596 -0.000104861 1.03221e-22)
(0.00164029 -0.000107333 -3.08465e-22)
(0.00165987 -8.91061e-05 1.37437e-22)
(0.0011308 -0.000175687 -1.00092e-22)
(0.00114483 -0.000188371 1.2688e-22)
(0.00115948 -0.000200587 2.3516e-23)
(0.00117723 -0.000212483 4.12669e-23)
(0.0011958 -0.00022378 -4.20121e-23)
(0.00121802 -0.000234017 8.89539e-24)
(0.00124009 -0.000242706 -7.59687e-24)
(0.00126603 -0.000249541 0)
(0.00129035 -0.000254133 -4.55205e-24)
(0.00131867 -0.000256425 -1.10434e-24)
(0.00134346 -0.000256155 2.76397e-25)
(0.00137233 -0.000253556 -1.49674e-24)
(0.00139557 -0.000248616 1.76552e-24)
(0.00142309 -0.000241788 1.0592e-24)
(0.00144312 -0.000233416 5.51441e-22)
(0.00146796 -0.000223826 -5.5154e-22)
(0.00148408 -0.000213867 -2.20629e-24)
(0.00150581 -0.000203138 1.10983e-23)
(0.00151839 -0.000193386 -4.07878e-23)
(0.00153729 -0.00018265 2.38332e-23)
(0.00154738 -0.00017441 -6.77104e-24)
(0.0015641 -0.000164017 -1.39511e-23)
(0.00157289 -0.000158078 0)
(0.00158812 -0.000147635 0)
(0.0015965 -0.000144411 1.5936e-23)
(0.00161099 -0.000132957 6.76748e-23)
(0.00161901 -0.00013266 -6.64735e-23)
(0.00163382 -0.000118925 3.49176e-23)
(0.00164022 -0.000121707 -1.10418e-22)
(0.00165701 -0.000104358 1.43348e-22)
(0.00112121 -0.000196823 -1.31684e-22)
(0.00113654 -0.000210415 8.11122e-23)
(0.00115271 -0.000223321 0)
(0.00117168 -0.000235612 0)
(0.00119179 -0.000247082 -3.7468e-23)
(0.00121517 -0.000257298 3.8142e-23)
(0.00123877 -0.000265781 2.5688e-23)
(0.00126575 -0.000272222 -3.13641e-23)
(0.00129143 -0.000276205 0)
(0.00132061 -0.000277777 1.92337e-24)
(0.00134642 -0.000276567 1.90005e-24)
(0.001376 -0.000273106 -2.67716e-24)
(0.00139969 -0.000267028 1.94171e-24)
(0.00142788 -0.000259428 0)
(0.0014476 -0.000249823 6.79959e-22)
(0.0014733 -0.00023976 -6.80053e-22)
(0.00148821 -0.000228504 0)
(0.00151123 -0.000217755 -5.81403e-24)
(0.00152159 -0.000206602 -2.02606e-23)
(0.00154244 -0.000196413 3.32198e-23)
(0.00154932 -0.000186631 1.45137e-23)
(0.0015686 -0.000177409 0)
(0.0015735 -0.000169814 4.90618e-23)
(0.00159147 -0.000161096 -6.41204e-23)
(0.00159601 -0.000156286 -6.94301e-23)
(0.00161245 -0.00014681 6.82022e-23)
(0.00161784 -0.00014543 0)
(0.00163231 -0.000133327 0)
(0.0016384 -0.000136206 -1.90175e-22)
(0.00165098 -0.000119427 1.11554e-22)
(0.00110773 -0.000221849 5.66542e-23)
(0.00112478 -0.000235994 2.69881e-23)
(0.00114317 -0.000249441 1.24411e-23)
(0.00116406 -0.000262045 -1.13024e-23)
(0.00118658 -0.000273646 9.95121e-24)
(0.00121182 -0.000283702 -2.29078e-23)
(0.0012379 -0.000291888 3.18563e-23)
(0.00126645 -0.000297708 8.40301e-25)
(0.00129447 -0.000300981 1.64766e-24)
(0.00132471 -0.000301519 -5.09455e-24)
(0.00135249 -0.000299287 1.84651e-25)
(0.00138251 -0.000294556 -4.07293e-24)
(0.00140761 -0.000287325 -1.67162e-24)
(0.0014357 -0.000278458 6.08371e-24)
(0.00145611 -0.000267714 8.42074e-22)
(0.00148146 -0.00025661 -8.42059e-22)
(0.00149613 -0.000244251 1.25029e-23)
(0.00151907 -0.000232867 1.0124e-24)
(0.00152794 -0.000220544 -1.35867e-23)
(0.00154961 -0.000210336 -3.85088e-23)
(0.00155328 -0.00019916 6.37088e-23)
(0.00157494 -0.000190814 -4.90146e-23)
(0.00157446 -0.000181392 -4.15846e-25)
(0.00159672 -0.000174681 -7.20261e-23)
(0.0015936 -0.000167438 8.89759e-23)
(0.00161571 -0.000161119 1.85625e-23)
(0.00161194 -0.000156842 0)
(0.00163106 -0.000148504 1.92273e-23)
(0.00162841 -0.00014888 3.92165e-23)
(0.00163983 -0.000135032 7.95746e-23)
(0.00110296 -0.000252289 -2.97276e-23)
(0.00112115 -0.000266752 0)
(0.00114126 -0.000280528 3.57032e-23)
(0.00116376 -0.000293287 -3.79687e-23)
(0.00118839 -0.000304805 -2.03421e-23)
(0.00121526 -0.000314453 -3.88309e-23)
(0.00124355 -0.000321996 5.86671e-23)
(0.0012734 -0.000326833 -2.13544e-23)
(0.00130348 -0.000328984 2.85494e-24)
(0.00133433 -0.000328065 -2.54361e-24)
(0.00136383 -0.000324415 7.53435e-24)
(0.00139353 -0.000317955 -1.24407e-24)
(0.00141998 -0.000309278 -1.6784e-23)
(0.00144679 -0.000298665 7.76259e-24)
(0.00146824 -0.000286691 1.05009e-21)
(0.00149158 -0.000274019 -1.05006e-21)
(0.00150704 -0.000260734 1.43504e-23)
(0.00152766 -0.000248049 -2.22936e-23)
(0.00153679 -0.000235005 -2.58087e-23)
(0.00155649 -0.000223891 7.58338e-23)
(0.00155916 -0.000212015 -4.2739e-23)
(0.00158026 -0.000203512 1.78133e-23)
(0.00157611 -0.000193052 7.53166e-23)
(0.00160068 -0.000187442 -1.32775e-22)
(0.00158903 -0.000178121 5.67884e-23)
(0.00161748 -0.000174785 -3.93627e-23)
(0.00159784 -0.000166584 8.13296e-23)
(0.00162668 -0.000163524 -9.98021e-23)
(0.00159985 -0.000157883 0)
(0.00161859 -0.000150678 -4.16592e-23)
(0.00109946 -0.000287359 -3.08247e-23)
(0.00111925 -0.000302263 1.4298e-23)
(0.00114128 -0.000316286 -1.29507e-23)
(0.00116571 -0.000329049 0)
(0.00119248 -0.000340207 -2.53773e-23)
(0.00122121 -0.000349155 3.65617e-23)
(0.00125153 -0.000355618 -6.42404e-24)
(0.0012828 -0.000359085 4.14253e-24)
(0.00131456 -0.000359591 0)
(0.00134609 -0.000356828 0)
(0.00137683 -0.000351243 1.62496e-24)
(0.00140623 -0.000342742 7.63763e-24)
(0.00143358 -0.000332188 -5.69422e-24)
(0.00145902 -0.000319621 0)
(0.00148136 -0.000306154 1.3197e-21)
(0.00150229 -0.00029178 -1.31974e-21)
(0.00151901 -0.000277541 0)
(0.00153623 -0.000263342 -2.1897e-23)
(0.00154719 -0.000249813 1.69821e-23)
(0.00156245 -0.000237207 -9.21692e-24)
(0.00156706 -0.000225213 0)
(0.00158293 -0.000215338 0)
(0.00157935 -0.000204954 2.00638e-23)
(0.00159893 -0.000198451 -2.04e-23)
(0.00158272 -0.000188561 -8.47408e-23)
(0.0016086 -0.000185643 1.03888e-22)
(0.00157198 -0.000174508 0)
(0.00160454 -0.000175037 -2.13576e-23)
(0.00153781 -0.000161332 2.1477e-23)
(0.0015706 -0.000163283 -4.29695e-23)
(0.00109022 -0.000326469 1.65795e-23)
(0.00111273 -0.000342052 -1.51135e-23)
(0.00113771 -0.000356434 1.37091e-23)
(0.00116515 -0.000369142 -4.17745e-23)
(0.00119487 -0.000379729 4.27799e-23)
(0.00122636 -0.000387687 2.3501e-23)
(0.00125921 -0.000392676 -2.40068e-23)
(0.00129268 -0.000394379 -8.0619e-25)
(0.0013263 -0.00039277 0)
(0.00135921 -0.000387794 0)
(0.00139104 -0.000379804 0)
(0.00142085 -0.000368997 1.03034e-23)
(0.00144862 -0.00035613 -1.03902e-23)
(0.00147347 -0.000341502 0)
(0.00149591 -0.000326146 1.66829e-21)
(0.00151526 -0.000310139 -1.66807e-21)
(0.00153232 -0.000294589 0)
(0.00154675 -0.000279049 -2.05616e-23)
(0.0015587 -0.000264689 3.04854e-23)
(0.00156904 -0.000250583 0)
(0.00157516 -0.000238105 0)
(0.00158223 -0.000226192 0)
(0.00157987 -0.000215849 -2.30364e-23)
(0.00158492 -0.000206512 9.15657e-23)
(0.00156691 -0.00019696 -8.96344e-23)
(0.00157149 -0.000190367 -9.17103e-23)
(0.00152234 -0.000178772 8.9555e-23)
(0.00153141 -0.000176631 2.26071e-23)
(0.00142365 -0.000157588 -2.2701e-23)
(0.00145166 -0.000164873 2.30222e-23)
(0.0010798 -0.00037547 1.42401e-22)
(0.00110594 -0.000390665 -1.28998e-22)
(0.00113484 -0.000404619 0)
(0.0011662 -0.000416589 0)
(0.00119961 -0.000425931 -2.81927e-23)
(0.00123457 -0.000432187 2.45256e-23)
(0.00127043 -0.000435032 0)
(0.00130655 -0.000434299 8.63109e-25)
(0.00134222 -0.000429954 0)
(0.00137678 -0.000422141 0)
(0.00140957 -0.000411163 5.77934e-24)
(0.00143999 -0.000397497 0)
(0.00146765 -0.00038176 -1.21091e-23)
(0.00149214 -0.000364612 1.64562e-23)
(0.00151357 -0.000346793 2.13277e-21)
(0.00153165 -0.000328814 -2.13268e-21)
(0.00154701 -0.000311296 2.31211e-23)
(0.00155897 -0.000294265 -2.91675e-23)
(0.00156844 -0.000278234 0)
(0.00157365 -0.000262637 -1.292e-23)
(0.00157547 -0.000248353 0)
(0.0015713 -0.000234206 -1.3007e-23)
(0.00156135 -0.000221885 2.46606e-23)
(0.00154416 -0.000208843 0)
(0.00151434 -0.000197645 -9.99916e-23)
(0.00147975 -0.000184943 9.75933e-23)
(0.00141311 -0.000173162 0)
(0.00136339 -0.00016158 0)
(0.00122468 -0.00014387 1.91416e-22)
(0.00120023 -0.000144237 -1.62636e-22)
(0.00107016 -0.000435807 0)
(0.00110024 -0.000452357 0)
(0.00113335 -0.000466418 0)
(0.00116932 -0.000477324 0)
(0.00120736 -0.000484604 0)
(0.00124659 -0.000487963 4.67437e-24)
(0.00128616 -0.000487286 0)
(0.0013254 -0.000482581 -1.62808e-23)
(0.00136352 -0.000473972 4.59312e-24)
(0.00139987 -0.00046176 4.38837e-23)
(0.00143363 -0.0004464 -6.35015e-23)
(0.00146433 -0.000428538 3.20617e-23)
(0.00149135 -0.000408867 -4.59716e-24)
(0.00151456 -0.000388149 0)
(0.0015336 -0.000367005 2.75269e-21)
(0.00154864 -0.000346014 -2.75062e-21)
(0.00155935 -0.000325536 0)
(0.00156565 -0.000305853 6.70018e-24)
(0.00156679 -0.000286961 5.79358e-23)
(0.00156167 -0.000268809 -1.01631e-22)
(0.00154893 -0.000251252 1.15863e-22)
(0.00152593 -0.000233975 5.76225e-23)
(0.00149151 -0.000216905 -1.42664e-22)
(0.00144163 -0.000199216 0)
(0.0013766 -0.000182483 0)
(0.00129085 -0.000164531 0)
(0.00118403 -0.000148273 0)
(0.00105799 -0.000127399 0)
(0.000892657 -0.000113429 0)
(0.000771731 -9.54489e-05 0)
(0.001061 -0.000502962 1.46979e-23)
(0.00109919 -0.000515823 0)
(0.0011412 -0.000527629 0)
(0.00118483 -0.000536213 1.68039e-23)
(0.00122886 -0.00054056 -1.63252e-23)
(0.00127264 -0.000540386 5.35713e-24)
(0.00131568 -0.00053576 -1.12065e-23)
(0.00135733 -0.000526848 -6.68318e-24)
(0.00139686 -0.00051395 0)
(0.00143343 -0.000497481 -1.05723e-23)
(0.00146627 -0.000478043 0)
(0.00149471 -0.000456347 0)
(0.0015182 -0.000433139 0)
(0.00153642 -0.000409077 0)
(0.00154881 -0.000384565 3.61602e-21)
(0.00155503 -0.000359865 -3.61753e-21)
(0.00155398 -0.00033516 0)
(0.00154485 -0.000310492 0)
(0.00152577 -0.000286036 0)
(0.00149544 -0.000262159 0)
(0.00145148 -0.000239413 1.73898e-23)
(0.00139192 -0.000217081 1.61226e-23)
(0.00131301 -0.000193439 3.1663e-23)
(0.00121265 -0.000168781 -1.25696e-22)
(0.00108915 -0.000145314 2.43942e-22)
(0.000942338 -0.000123236 -4.5435e-25)
(0.000777004 -9.88687e-05 -1.43017e-22)
(0.000595735 -7.51907e-05 0)