/*--------------------------------*- C++ -*----------------------------------*\
| =========                 |                                                 |
| \\      /  F ield         | OpenFOAM: The Open Source CFD Toolbox           |
|  \\    /   O peration     | Version:  2312                                  |
|   \\  /    A nd           | Website:  www.openfoam.com                      |
|    \\/     M anipulation  |                                                 |
\*---------------------------------------------------------------------------*/
FoamFile
{
    version     2.0;
    format      ascii;
    arch        "LSB;label=32;scalar=64";
    class       volVectorField;
    location    "35000";
    object      U;
}
// * * * * * * * * * * * * * * * * * * * * * * * * * * * * * * * * * * * * * //

dimensions      [0 1 -1 0 0 0 0];

internalField   nonuniform List<vector> 
10800
(
(0.000992484 4.94183e-06 0)
(0.000990038 1.24575e-05 0)
(0.000986873 1.74788e-05 0)
(0.000980501 2.06623e-05 0)
(0.000971089 2.27453e-05 0)
(0.000959799 2.42387e-05 0)
(0.0009477 2.53776e-05 0)
(0.000935325 2.62367e-05 0)
(0.000922817 2.68402e-05 0)
(0.000910154 2.72134e-05 0)
(0.000897291 2.73938e-05 0)
(0.000884225 2.74243e-05 0)
(0.000870992 2.73431e-05 0)
(0.000857647 2.7178e-05 0)
(0.000844243 2.69473e-05 0)
(0.000830816 2.66627e-05 0)
(0.000817393 2.63321e-05 0)
(0.000803992 2.59621e-05 0)
(0.000790629 2.55582e-05 0)
(0.000777318 2.51252e-05 0)
(0.000764075 2.4667e-05 0)
(0.000750915 2.41866e-05 0)
(0.000737853 2.36861e-05 0)
(0.000724901 2.31673e-05 0)
(0.000712074 2.26312e-05 0)
(0.000699384 2.20793e-05 0)
(0.000686844 2.15116e-05 0)
(0.000674466 2.09296e-05 0)
(0.000662264 2.03328e-05 0)
(0.000650248 1.97229e-05 0)
(0.000638433 1.90985e-05 0)
(0.00062683 1.84622e-05 0)
(0.000615452 1.78114e-05 0)
(0.000604311 1.71501e-05 0)
(0.000593423 1.64739e-05 0)
(0.000582794 1.57894e-05 0)
(0.000572444 1.50891e-05 0)
(0.000562377 1.43837e-05 0)
(0.000552619 1.36606e-05 0)
(0.000543162 1.29378e-05 0)
(0.000534045 1.21933e-05 0)
(0.000525243 1.14573e-05 0)
(0.000516824 1.06924e-05 0)
(0.000508714 9.94913e-06 0)
(0.000501053 9.16303e-06 0)
(0.000493659 8.41971e-06 0)
(0.000486843 7.60862e-06 0)
(0.000480142 6.87223e-06 0)
(0.000474332 6.02753e-06 0)
(0.000468182 5.29665e-06 0)
(0.000463758 4.41015e-06 0)
(0.000457649 3.63767e-06 0)
(0.000455672 2.74847e-06 0)
(0.000447961 1.68569e-06 0)
(0.000451567 1.12151e-06 0)
(0.000437172 -1.29506e-06 0)
(0.000455659 8.95439e-08 0)
(0.000419664 -7.74361e-06 0)
(0.000478091 2.0213e-06 0)
(0.000383339 -2.44556e-05 0)
(0.00100003 5.80203e-06 0)
(0.00100172 1.49921e-05 0)
(0.00100423 2.15222e-05 0)
(0.00100706 2.60845e-05 0)
(0.00100979 2.94419e-05 0)
(0.00101219 3.21226e-05 0)
(0.00101421 3.43741e-05 0)
(0.00101589 3.62829e-05 0)
(0.00101726 3.78817e-05 0)
(0.00101837 3.9201e-05 0)
(0.00101923 4.02823e-05 0)
(0.00101982 4.11712e-05 0)
(0.00102014 4.19084e-05 0)
(0.0010202 4.2524e-05 0)
(0.00102001 4.30379e-05 0)
(0.00101958 4.34628e-05 0)
(0.00101892 4.38073e-05 0)
(0.00101806 4.40782e-05 0)
(0.00101699 4.42811e-05 0)
(0.00101573 4.44205e-05 0)
(0.00101429 4.45003e-05 0)
(0.00101268 4.45229e-05 0)
(0.00101091 4.44906e-05 0)
(0.00100898 4.44041e-05 0)
(0.00100692 4.42649e-05 0)
(0.00100471 4.40726e-05 0)
(0.0010024 4.38285e-05 0)
(0.000999943 4.3531e-05 0)
(0.000997416 4.31822e-05 0)
(0.000994753 4.27789e-05 0)
(0.000992055 4.23246e-05 0)
(0.000989213 4.18137e-05 0)
(0.00098639 4.12531e-05 0)
(0.000983398 4.06322e-05 0)
(0.000980505 3.99646e-05 0)
(0.000977384 3.92309e-05 0)
(0.000974483 3.84569e-05 0)
(0.000971245 3.76068e-05 0)
(0.00096842 3.67288e-05 0)
(0.000965054 3.57574e-05 0)
(0.000962417 3.47812e-05 0)
(0.000958879 3.36804e-05 0)
(0.000956595 3.26172e-05 0)
(0.000952773 3.1373e-05 0)
(0.000951095 3.02426e-05 0)
(0.000946766 2.88293e-05 0)
(0.000946099 2.7666e-05 0)
(0.00094084 2.60361e-05 0)
(0.00094185 2.48988e-05 0)
(0.000934888 2.29659e-05 0)
(0.000938689 2.19541e-05 0)
(0.000928643 1.95645e-05 0)
(0.000937116 1.88439e-05 0)
(0.00092154 1.57353e-05 0)
(0.000937869 1.5566e-05 0)
(0.000912472 1.133e-05 0)
(0.000942072 1.20455e-05 0)
(0.000899401 6.21531e-06 0)
(0.000951619 7.83715e-06 0)
(0.000879189 8.09562e-07 0)
(0.000999989 1.96259e-06 0)
(0.00100078 5.76411e-06 0)
(0.00100224 9.28917e-06 0)
(0.00100423 1.24539e-05 0)
(0.00100654 1.52556e-05 0)
(0.00100897 1.77393e-05 0)
(0.00101139 1.99599e-05 0)
(0.00101376 2.19602e-05 0)
(0.00101607 2.37677e-05 0)
(0.00101833 2.53988e-05 0)
(0.00102055 2.68669e-05 0)
(0.00102272 2.81852e-05 0)
(0.00102483 2.93682e-05 0)
(0.00102689 3.04297e-05 0)
(0.00102887 3.13822e-05 0)
(0.00103079 3.22354e-05 0)
(0.00103264 3.29975e-05 0)
(0.00103442 3.3674e-05 0)
(0.00103615 3.42707e-05 0)
(0.00103781 3.47907e-05 0)
(0.00103942 3.52387e-05 0)
(0.00104097 3.56157e-05 0)
(0.00104247 3.59261e-05 0)
(0.0010439 3.61688e-05 0)
(0.00104529 3.63483e-05 0)
(0.00104661 3.64612e-05 0)
(0.00104791 3.65132e-05 0)
(0.00104912 3.64978e-05 0)
(0.00105033 3.64233e-05 0)
(0.00105144 3.62788e-05 0)
(0.00105256 3.60775e-05 0)
(0.00105356 3.58018e-05 0)
(0.00105463 3.54726e-05 0)
(0.00105551 3.50622e-05 0)
(0.00105653 3.46039e-05 0)
(0.0010573 3.40545e-05 0)
(0.0010583 3.34665e-05 0)
(0.00105893 3.27725e-05 0)
(0.00105995 3.20554e-05 0)
(0.00106042 3.12105e-05 0)
(0.00106152 3.03668e-05 0)
(0.00106179 2.93631e-05 0)
(0.00106305 2.83983e-05 0)
(0.00106304 2.72257e-05 0)
(0.0010646 2.61491e-05 0)
(0.00106417 2.47951e-05 0)
(0.00106622 2.3621e-05 0)
(0.00106517 2.20699e-05 0)
(0.001068 2.08195e-05 0)
(0.00106601 1.90537e-05 0)
(0.00107005 1.77563e-05 0)
(0.0010666 1.57604e-05 0)
(0.00107251 1.44556e-05 0)
(0.00106681 1.22299e-05 0)
(0.00107558 1.09679e-05 0)
(0.00106638 8.56512e-06 0)
(0.00107951 7.40762e-06 0)
(0.00106496 5.02818e-06 0)
(0.00108474 4.00552e-06 0)
(0.00106208 2.15361e-06 0)
(0.00100001 1.74166e-06 0)
(0.00100047 5.15946e-06 0)
(0.00100128 8.42043e-06 0)
(0.00100239 1.14482e-05 0)
(0.00100374 1.4202e-05 0)
(0.00100526 1.66789e-05 0)
(0.00100689 1.89005e-05 0)
(0.00100858 2.08965e-05 0)
(0.00101033 2.26942e-05 0)
(0.00101212 2.43141e-05 0)
(0.00101394 2.5772e-05 0)
(0.00101578 2.70807e-05 0)
(0.00101764 2.82526e-05 0)
(0.00101951 2.92994e-05 0)
(0.00102139 3.0233e-05 0)
(0.00102327 3.10635e-05 0)
(0.00102515 3.18e-05 0)
(0.00102702 3.24493e-05 0)
(0.0010289 3.3018e-05 0)
(0.00103077 3.35101e-05 0)
(0.00103263 3.39306e-05 0)
(0.00103449 3.42815e-05 0)
(0.00103635 3.45668e-05 0)
(0.0010382 3.4787e-05 0)
(0.00104006 3.49455e-05 0)
(0.00104189 3.50411e-05 0)
(0.00104374 3.50772e-05 0)
(0.00104556 3.50508e-05 0)
(0.0010474 3.49658e-05 0)
(0.00104921 3.48174e-05 0)
(0.00105103 3.46107e-05 0)
(0.00105282 3.43384e-05 0)
(0.00105464 3.40077e-05 0)
(0.00105641 3.36084e-05 0)
(0.00105822 3.31502e-05 0)
(0.00105996 3.26198e-05 0)
(0.00106177 3.203e-05 0)
(0.00106347 3.1364e-05 0)
(0.00106529 3.06381e-05 0)
(0.00106695 2.98321e-05 0)
(0.00106878 2.8965e-05 0)
(0.00107038 2.80154e-05 0)
(0.00107225 2.70015e-05 0)
(0.00107377 2.59062e-05 0)
(0.0010757 2.47394e-05 0)
(0.00107713 2.34991e-05 0)
(0.00107916 2.21718e-05 0)
(0.00108046 2.07928e-05 0)
(0.00108263 1.9295e-05 0)
(0.00108376 1.77934e-05 0)
(0.00108615 1.61115e-05 0)
(0.00108704 1.45221e-05 0)
(0.00108976 1.26389e-05 0)
(0.00109031 1.10301e-05 0)
(0.0010935 8.92324e-06 0)
(0.00109356 7.4205e-06 0)
(0.0010974 5.05548e-06 0)
(0.00109677 3.86491e-06 0)
(0.00110154 1.15581e-06 0)
(0.00109988 5.64575e-07 0)
(0.001 1.1532e-06 0)
(0.00100023 3.43217e-06 0)
(0.00100067 5.64564e-06 0)
(0.00100134 7.76188e-06 0)
(0.0010022 9.75955e-06 0)
(0.00100323 1.16284e-05 0)
(0.00100441 1.3367e-05 0)
(0.00100569 1.49794e-05 0)
(0.00100705 1.64717e-05 0)
(0.00100848 1.78501e-05 0)
(0.00100996 1.91199e-05 0)
(0.00101149 2.02859e-05 0)
(0.00101305 2.13531e-05 0)
(0.00101465 2.23261e-05 0)
(0.00101627 2.32101e-05 0)
(0.0010179 2.40097e-05 0)
(0.00101956 2.47296e-05 0)
(0.00102123 2.53735e-05 0)
(0.0010229 2.59448e-05 0)
(0.00102459 2.64464e-05 0)
(0.00102629 2.68806e-05 0)
(0.00102799 2.72494e-05 0)
(0.0010297 2.75543e-05 0)
(0.00103141 2.77967e-05 0)
(0.00103313 2.79774e-05 0)
(0.00103485 2.80973e-05 0)
(0.00103658 2.81563e-05 0)
(0.00103831 2.81553e-05 0)
(0.00104004 2.8093e-05 0)
(0.00104178 2.79708e-05 0)
(0.00104352 2.77857e-05 0)
(0.00104525 2.75406e-05 0)
(0.001047 2.72299e-05 0)
(0.00104873 2.68591e-05 0)
(0.00105048 2.64187e-05 0)
(0.00105221 2.59188e-05 0)
(0.00105396 2.53432e-05 0)
(0.00105569 2.47107e-05 0)
(0.00105743 2.39935e-05 0)
(0.00105916 2.32249e-05 0)
(0.00106089 2.23582e-05 0)
(0.00106262 2.14513e-05 0)
(0.00106435 2.04259e-05 0)
(0.00106607 1.93806e-05 0)
(0.00106779 1.8185e-05 0)
(0.00106952 1.70048e-05 0)
(0.00107122 1.56245e-05 0)
(0.00107296 1.43195e-05 0)
(0.00107465 1.27354e-05 0)
(0.00107642 1.13254e-05 0)
(0.00107809 9.51029e-06 0)
(0.00107992 8.02878e-06 0)
(0.00108157 5.94042e-06 0)
(0.00108354 4.441e-06 0)
(0.00108518 2.01364e-06 0)
(0.00108737 5.86275e-07 0)
(0.00108899 -2.27123e-06 0)
(0.00109149 -3.47373e-06 0)
(0.00109297 -6.89937e-06 0)
(0.00109578 -7.65851e-06 0)
(0.001 9.2714e-07 0)
(0.00100017 2.77268e-06 0)
(0.00100051 4.59103e-06 0)
(0.001001 6.36329e-06 0)
(0.00100165 8.07201e-06 0)
(0.00100242 9.70333e-06 0)
(0.00100331 1.1248e-05 0)
(0.0010043 1.27011e-05 0)
(0.00100537 1.40611e-05 0)
(0.00100651 1.53284e-05 0)
(0.0010077 1.65046e-05 0)
(0.00100895 1.75916e-05 0)
(0.00101024 1.85916e-05 0)
(0.00101158 1.95072e-05 0)
(0.00101294 2.03412e-05 0)
(0.00101434 2.10965e-05 0)
(0.00101576 2.17761e-05 0)
(0.0010172 2.23827e-05 0)
(0.00101866 2.29189e-05 0)
(0.00102014 2.33872e-05 0)
(0.00102163 2.37892e-05 0)
(0.00102313 2.41273e-05 0)
(0.00102465 2.44022e-05 0)
(0.00102617 2.46159e-05 0)
(0.00102771 2.47684e-05 0)
(0.00102925 2.48616e-05 0)
(0.00103079 2.48945e-05 0)
(0.00103234 2.48692e-05 0)
(0.0010339 2.47833e-05 0)
(0.00103546 2.46398e-05 0)
(0.00103702 2.44341e-05 0)
(0.00103859 2.41712e-05 0)
(0.00104015 2.38434e-05 0)
(0.00104172 2.34588e-05 0)
(0.00104328 2.3005e-05 0)
(0.00104485 2.24955e-05 0)
(0.0010464 2.19105e-05 0)
(0.00104797 2.12722e-05 0)
(0.00104952 2.05493e-05 0)
(0.00105108 1.97782e-05 0)
(0.00105262 1.89093e-05 0)
(0.00105419 1.80016e-05 0)
(0.00105571 1.69767e-05 0)
(0.00105728 1.59294e-05 0)
(0.00105878 1.47361e-05 0)
(0.00106036 1.35481e-05 0)
(0.00106184 1.21704e-05 0)
(0.00106346 1.08436e-05 0)
(0.00106491 9.26091e-06 0)
(0.00106659 7.80298e-06 0)
(0.00106801 5.98866e-06 0)
(0.00106977 4.41784e-06 0)
(0.00107112 2.33621e-06 0)
(0.00107301 6.83535e-07 0)
(0.00107428 -1.72347e-06 0)
(0.00107639 -3.41879e-06 0)
(0.00107754 -6.25327e-06 0)
(0.00107999 -7.93402e-06 0)
(0.00108091 -1.1343e-05 0)
(0.00108369 -1.29073e-05 0)
(0.001 7.32725e-07 0)
(0.00100013 2.19163e-06 0)
(0.00100037 3.63102e-06 0)
(0.00100074 5.03821e-06 0)
(0.00100121 6.4018e-06 0)
(0.0010018 7.71244e-06 0)
(0.00100248 8.96324e-06 0)
(0.00100326 1.01497e-05 0)
(0.00100411 1.12693e-05 0)
(0.00100503 1.23208e-05 0)
(0.00100601 1.33041e-05 0)
(0.00100705 1.42197e-05 0)
(0.00100813 1.50681e-05 0)
(0.00100926 1.58503e-05 0)
(0.00101043 1.65672e-05 0)
(0.00101163 1.72202e-05 0)
(0.00101286 1.78104e-05 0)
(0.00101412 1.83393e-05 0)
(0.0010154 1.88079e-05 0)
(0.0010167 1.92177e-05 0)
(0.00101802 1.95693e-05 0)
(0.00101935 1.98641e-05 0)
(0.0010207 2.01023e-05 0)
(0.00102206 2.0285e-05 0)
(0.00102343 2.04118e-05 0)
(0.00102481 2.04841e-05 0)
(0.00102619 2.05005e-05 0)
(0.00102758 2.04627e-05 0)
(0.00102897 2.03682e-05 0)
(0.00103037 2.02194e-05 0)
(0.00103176 2.0012e-05 0)
(0.00103316 1.975e-05 0)
(0.00103455 1.94266e-05 0)
(0.00103594 1.90481e-05 0)
(0.00103733 1.86041e-05 0)
(0.00103872 1.81049e-05 0)
(0.00104009 1.75343e-05 0)
(0.00104147 1.69093e-05 0)
(0.00104283 1.62048e-05 0)
(0.0010442 1.54481e-05 0)
(0.00104554 1.46003e-05 0)
(0.00104689 1.37055e-05 0)
(0.00104821 1.27032e-05 0)
(0.00104955 1.16636e-05 0)
(0.00105084 1.04924e-05 0)
(0.00105218 9.30136e-06 0)
(0.00105343 7.94323e-06 0)
(0.00105477 6.59463e-06 0)
(0.00105598 5.02538e-06 0)
(0.00105735 3.51392e-06 0)
(0.00105852 1.70033e-06 0)
(0.00105995 2.39825e-08 0)
(0.00106108 -2.07582e-06 0)
(0.00106262 -3.90533e-06 0)
(0.00106369 -6.34108e-06 0)
(0.00106539 -8.29749e-06 0)
(0.00106635 -1.11502e-05 0)
(0.00106826 -1.32002e-05 0)
(0.001069 -1.66028e-05 0)
(0.00107109 -1.86888e-05 0)
(0.001 5.8376e-07 0)
(0.0010001 1.74727e-06 0)
(0.00100029 2.89887e-06 0)
(0.00100057 4.03067e-06 0)
(0.00100095 5.13517e-06 0)
(0.00100142 6.20568e-06 0)
(0.00100197 7.23657e-06 0)
(0.00100259 8.22337e-06 0)
(0.00100329 9.16276e-06 0)
(0.00100405 1.00524e-05 0)
(0.00100487 1.08908e-05 0)
(0.00100575 1.16769e-05 0)
(0.00100667 1.24103e-05 0)
(0.00100763 1.30905e-05 0)
(0.00100864 1.37175e-05 0)
(0.00100968 1.42913e-05 0)
(0.00101075 1.48121e-05 0)
(0.00101185 1.52804e-05 0)
(0.00101298 1.56962e-05 0)
(0.00101413 1.60602e-05 0)
(0.00101529 1.63725e-05 0)
(0.00101647 1.66337e-05 0)
(0.00101767 1.68436e-05 0)
(0.00101888 1.70029e-05 0)
(0.0010201 1.7111e-05 0)
(0.00102132 1.71686e-05 0)
(0.00102256 1.71747e-05 0)
(0.00102379 1.71299e-05 0)
(0.00102503 1.70326e-05 0)
(0.00102627 1.68838e-05 0)
(0.00102751 1.66808e-05 0)
(0.00102875 1.64254e-05 0)
(0.00102998 1.61131e-05 0)
(0.00103121 1.57472e-05 0)
(0.00103243 1.5321e-05 0)
(0.00103365 1.48398e-05 0)
(0.00103485 1.42935e-05 0)
(0.00103605 1.36908e-05 0)
(0.00103722 1.30167e-05 0)
(0.0010384 1.22855e-05 0)
(0.00103955 1.14742e-05 0)
(0.0010407 1.06059e-05 0)
(0.00104181 9.64577e-06 0)
(0.00104293 8.63074e-06 0)
(0.001044 7.5075e-06 0)
(0.0010451 6.33495e-06 0)
(0.00104613 5.03119e-06 0)
(0.00104721 3.68962e-06 0)
(0.00104818 2.18386e-06 0)
(0.00104925 6.61295e-07 0)
(0.00105017 -1.07399e-06 0)
(0.00105124 -2.79104e-06 0)
(0.00105209 -4.79626e-06 0)
(0.00105321 -6.72635e-06 0)
(0.00105399 -9.05774e-06 0)
(0.00105519 -1.12151e-05 0)
(0.00105585 -1.39406e-05 0)
(0.00105716 -1.63292e-05 0)
(0.00105759 -1.95424e-05 0)
(0.00105892 -2.21526e-05 0)
(0.001 4.66252e-07 0)
(0.00100008 1.39615e-06 0)
(0.00100024 2.31813e-06 0)
(0.00100047 3.22682e-06 0)
(0.00100078 4.11696e-06 0)
(0.00100116 4.98366e-06 0)
(0.00100162 5.82256e-06 0)
(0.00100214 6.62992e-06 0)
(0.00100272 7.40265e-06 0)
(0.00100337 8.13823e-06 0)
(0.00100406 8.83462e-06 0)
(0.00100481 9.49021e-06 0)
(0.0010056 1.01038e-05 0)
(0.00100644 1.06744e-05 0)
(0.00100731 1.12015e-05 0)
(0.00100822 1.16846e-05 0)
(0.00100915 1.21234e-05 0)
(0.00101012 1.25179e-05 0)
(0.00101111 1.28678e-05 0)
(0.00101213 1.31733e-05 0)
(0.00101316 1.34341e-05 0)
(0.00101421 1.36503e-05 0)
(0.00101527 1.38218e-05 0)
(0.00101635 1.39485e-05 0)
(0.00101743 1.40301e-05 0)
(0.00101852 1.40665e-05 0)
(0.00101962 1.4057e-05 0)
(0.00102072 1.40017e-05 0)
(0.00102182 1.38993e-05 0)
(0.00102292 1.37499e-05 0)
(0.00102402 1.35519e-05 0)
(0.00102511 1.33052e-05 0)
(0.0010262 1.30076e-05 0)
(0.00102728 1.26594e-05 0)
(0.00102834 1.22572e-05 0)
(0.0010294 1.1802e-05 0)
(0.00103044 1.12888e-05 0)
(0.00103147 1.07199e-05 0)
(0.00103247 1.00877e-05 0)
(0.00103346 9.3967e-06 0)
(0.00103443 8.63593e-06 0)
(0.00103538 7.81279e-06 0)
(0.00103629 6.9114e-06 0)
(0.00103719 5.94408e-06 0)
(0.00103805 4.88725e-06 0)
(0.0010389 3.76111e-06 0)
(0.00103969 2.53029e-06 0)
(0.00104049 1.22749e-06 0)
(0.00104121 -2.0034e-07 0)
(0.00104197 -1.69951e-06 0)
(0.00104261 -3.35009e-06 0)
(0.00104333 -5.06684e-06 0)
(0.00104388 -6.9738e-06 0)
(0.00104457 -8.93707e-06 0)
(0.00104501 -1.11484e-05 0)
(0.0010457 -1.33935e-05 0)
(0.00104599 -1.59685e-05 0)
(0.00104668 -1.85298e-05 0)
(0.00104673 -2.1539e-05 0)
(0.00104733 -2.4442e-05 0)
(0.001 3.68962e-07 0)
(0.00100007 1.10504e-06 0)
(0.0010002 1.83552e-06 0)
(0.0010004 2.5566e-06 0)
(0.00100066 3.26451e-06 0)
(0.00100098 3.95566e-06 0)
(0.00100137 4.62672e-06 0)
(0.00100181 5.27472e-06 0)
(0.00100231 5.89704e-06 0)
(0.00100287 6.49144e-06 0)
(0.00100347 7.05599e-06 0)
(0.00100412 7.58906e-06 0)
(0.00100481 8.08934e-06 0)
(0.00100554 8.55576e-06 0)
(0.0010063 8.98746e-06 0)
(0.0010071 9.38375e-06 0)
(0.00100793 9.74411e-06 0)
(0.00100878 1.00681e-05 0)
(0.00100966 1.03553e-05 0)
(0.00101057 1.06054e-05 0)
(0.00101149 1.08182e-05 0)
(0.00101242 1.09934e-05 0)
(0.00101337 1.11305e-05 0)
(0.00101433 1.12294e-05 0)
(0.0010153 1.12897e-05 0)
(0.00101628 1.13108e-05 0)
(0.00101726 1.12924e-05 0)
(0.00101824 1.12338e-05 0)
(0.00101922 1.11343e-05 0)
(0.00102019 1.09933e-05 0)
(0.00102117 1.08097e-05 0)
(0.00102213 1.05827e-05 0)
(0.00102308 1.0311e-05 0)
(0.00102403 9.99341e-06 0)
(0.00102495 9.62859e-06 0)
(0.00102587 9.21472e-06 0)
(0.00102676 8.75039e-06 0)
(0.00102763 8.23315e-06 0)
(0.00102848 7.66149e-06 0)
(0.0010293 7.0321e-06 0)
(0.00103009 6.34357e-06 0)
(0.00103086 5.59127e-06 0)
(0.00103158 4.77422e-06 0)
(0.00103228 3.88582e-06 0)
(0.00103293 2.92618e-06 0)
(0.00103355 1.88561e-06 0)
(0.00103411 7.66444e-07 0)
(0.00103466 -4.45787e-07 0)
(0.00103512 -1.7443e-06 0)
(0.00103558 -3.15205e-06 0)
(0.00103593 -4.65591e-06 0)
(0.0010363 -6.29195e-06 0)
(0.00103652 -8.03354e-06 0)
(0.0010368 -9.93675e-06 0)
(0.00103686 -1.19531e-05 0)
(0.00103705 -1.41712e-05 0)
(0.00103693 -1.65061e-05 0)
(0.00103702 -1.90968e-05 0)
(0.00103663 -2.1798e-05 0)
(0.00103652 -2.48243e-05 0)
(0.001 2.85916e-07 0)
(0.00100006 8.56428e-07 0)
(0.00100017 1.42293e-06 0)
(0.00100034 1.98268e-06 0)
(0.00100057 2.53295e-06 0)
(0.00100085 3.07112e-06 0)
(0.00100119 3.59469e-06 0)
(0.00100158 4.10138e-06 0)
(0.00100202 4.58912e-06 0)
(0.0010025 5.05608e-06 0)
(0.00100303 5.50063e-06 0)
(0.0010036 5.92136e-06 0)
(0.00100421 6.31705e-06 0)
(0.00100486 6.68665e-06 0)
(0.00100554 7.02927e-06 0)
(0.00100625 7.34414e-06 0)
(0.00100699 7.63063e-06 0)
(0.00100776 7.88815e-06 0)
(0.00100855 8.11623e-06 0)
(0.00100936 8.31437e-06 0)
(0.00101019 8.4822e-06 0)
(0.00101103 8.61925e-06 0)
(0.00101188 8.72518e-06 0)
(0.00101275 8.79945e-06 0)
(0.00101362 8.84174e-06 0)
(0.0010145 8.85137e-06 0)
(0.00101537 8.82801e-06 0)
(0.00101625 8.77076e-06 0)
(0.00101713 8.67929e-06 0)
(0.001018 8.55236e-06 0)
(0.00101886 8.38969e-06 0)
(0.00101972 8.18955e-06 0)
(0.00102056 7.95183e-06 0)
(0.00102138 7.67406e-06 0)
(0.00102219 7.35648e-06 0)
(0.00102297 6.99554e-06 0)
(0.00102373 6.59217e-06 0)
(0.00102447 6.14119e-06 0)
(0.00102517 5.64477e-06 0)
(0.00102584 5.0952e-06 0)
(0.00102648 4.49688e-06 0)
(0.00102708 3.83815e-06 0)
(0.00102763 3.12721e-06 0)
(0.00102814 2.34619e-06 0)
(0.0010286 1.5097e-06 0)
(0.00102901 5.90115e-07 0)
(0.00102936 -3.87231e-07 0)
(0.00102966 -1.46523e-06 0)
(0.00102988 -2.6012e-06 0)
(0.00103006 -3.86378e-06 0)
(0.00103013 -5.1817e-06 0)
(0.00103017 -6.6633e-06 0)
(0.00103007 -8.18982e-06 0)
(0.00102995 -9.93327e-06 0)
(0.00102966 -1.16979e-05 0)
(0.00102937 -1.37583e-05 0)
(0.00102884 -1.57935e-05 0)
(0.00102836 -1.82419e-05 0)
(0.0010275 -2.05776e-05 0)
(0.00102673 -2.34989e-05 0)
(0.001 2.13074e-07 0)
(0.00100005 6.38292e-07 0)
(0.00100015 1.06068e-06 0)
(0.00100031 1.47828e-06 0)
(0.00100051 1.88918e-06 0)
(0.00100076 2.29148e-06 0)
(0.00100106 2.68338e-06 0)
(0.00100141 3.0632e-06 0)
(0.0010018 3.42939e-06 0)
(0.00100223 3.78053e-06 0)
(0.00100271 4.11537e-06 0)
(0.00100322 4.43275e-06 0)
(0.00100378 4.73166e-06 0)
(0.00100436 5.01119e-06 0)
(0.00100498 5.27056e-06 0)
(0.00100562 5.50905e-06 0)
(0.00100629 5.72606e-06 0)
(0.00100699 5.921e-06 0)
(0.00100771 6.09341e-06 0)
(0.00100845 6.24276e-06 0)
(0.0010092 6.36868e-06 0)
(0.00100997 6.47066e-06 0)
(0.00101075 6.54839e-06 0)
(0.00101153 6.60128e-06 0)
(0.00101233 6.62906e-06 0)
(0.00101312 6.63101e-06 0)
(0.00101392 6.60693e-06 0)
(0.00101471 6.55582e-06 0)
(0.00101551 6.47759e-06 0)
(0.00101629 6.37086e-06 0)
(0.00101706 6.23572e-06 0)
(0.00101782 6.07021e-06 0)
(0.00101857 5.87477e-06 0)
(0.00101929 5.64657e-06 0)
(0.00102 5.38665e-06 0)
(0.00102067 5.09088e-06 0)
(0.00102132 4.76138e-06 0)
(0.00102194 4.39197e-06 0)
(0.00102253 3.98668e-06 0)
(0.00102307 3.53611e-06 0)
(0.00102357 3.04749e-06 0)
(0.00102403 2.50639e-06 0)
(0.00102444 1.92539e-06 0)
(0.00102479 1.28211e-06 0)
(0.00102508 5.9793e-07 0)
(0.00102531 -1.62214e-07 0)
(0.00102547 -9.62479e-07 0)
(0.00102556 -1.85819e-06 0)
(0.00102557 -2.79055e-06 0)
(0.0010255 -3.84713e-06 0)
(0.00102532 -4.93042e-06 0)
(0.00102507 -6.17967e-06 0)
(0.00102468 -7.43457e-06 0)
(0.00102421 -8.91792e-06 0)
(0.00102358 -1.0367e-05 0)
(0.00102287 -1.21397e-05 0)
(0.00102195 -1.38058e-05 0)
(0.00102096 -1.5941e-05 0)
(0.00101966 -1.78405e-05 0)
(0.0010183 -2.04303e-05 0)
(0.001 1.47435e-07 0)
(0.00100005 4.41686e-07 0)
(0.00100014 7.34046e-07 0)
(0.00100028 1.02321e-06 0)
(0.00100047 1.3079e-06 0)
(0.0010007 1.58681e-06 0)
(0.00100097 1.85875e-06 0)
(0.00100129 2.12254e-06 0)
(0.00100165 2.37713e-06 0)
(0.00100205 2.6215e-06 0)
(0.00100249 2.85476e-06 0)
(0.00100296 3.07607e-06 0)
(0.00100347 3.28468e-06 0)
(0.00100401 3.47989e-06 0)
(0.00100458 3.66111e-06 0)
(0.00100517 3.82777e-06 0)
(0.0010058 3.97939e-06 0)
(0.00100644 4.11548e-06 0)
(0.00100711 4.23567e-06 0)
(0.00100779 4.33951e-06 0)
(0.00100849 4.4267e-06 0)
(0.0010092 4.49679e-06 0)
(0.00100992 4.54954e-06 0)
(0.00101065 4.58444e-06 0)
(0.00101138 4.6013e-06 0)
(0.00101212 4.59947e-06 0)
(0.00101285 4.57885e-06 0)
(0.00101358 4.53858e-06 0)
(0.00101431 4.47866e-06 0)
(0.00101503 4.3979e-06 0)
(0.00101573 4.29649e-06 0)
(0.00101642 4.17274e-06 0)
(0.00101709 4.0272e-06 0)
(0.00101774 3.85737e-06 0)
(0.00101836 3.66447e-06 0)
(0.00101896 3.44476e-06 0)
(0.00101952 3.20054e-06 0)
(0.00102005 2.9262e-06 0)
(0.00102054 2.62587e-06 0)
(0.00102099 2.29099e-06 0)
(0.00102138 1.92876e-06 0)
(0.00102173 1.52596e-06 0)
(0.00102202 1.09486e-06 0)
(0.00102224 6.14875e-07 0)
(0.0010224 1.06652e-07 0)
(0.00102249 -4.62171e-07 0)
(0.00102249 -1.05729e-06 0)
(0.00102242 -1.73042e-06 0)
(0.00102224 -2.42487e-06 0)
(0.00102198 -3.22265e-06 0)
(0.00102159 -4.03024e-06 0)
(0.0010211 -4.97865e-06 0)
(0.00102047 -5.91445e-06 0)
(0.00101972 -7.04807e-06 0)
(0.00101881 -8.12811e-06 0)
(0.00101776 -9.49378e-06 0)
(0.0010165 -1.07329e-05 0)
(0.00101509 -1.23941e-05 0)
(0.00101342 -1.37998e-05 0)
(0.00101158 -1.58384e-05 0)
(0.001 8.66045e-08 0)
(0.00100005 2.59463e-07 0)
(0.00100013 4.31237e-07 0)
(0.00100026 6.0118e-07 0)
(0.00100044 7.68543e-07 0)
(0.00100066 9.32588e-07 0)
(0.00100091 1.09261e-06 0)
(0.00100121 1.24792e-06 0)
(0.00100155 1.3979e-06 0)
(0.00100193 1.54195e-06 0)
(0.00100234 1.67954e-06 0)
(0.00100279 1.81014e-06 0)
(0.00100327 1.93332e-06 0)
(0.00100378 2.04862e-06 0)
(0.00100432 2.15569e-06 0)
(0.00100488 2.25416e-06 0)
(0.00100547 2.34372e-06 0)
(0.00100608 2.42406e-06 0)
(0.00100672 2.49494e-06 0)
(0.00100736 2.55606e-06 0)
(0.00100802 2.60722e-06 0)
(0.0010087 2.64814e-06 0)
(0.00100938 2.67864e-06 0)
(0.00101007 2.6984e-06 0)
(0.00101076 2.70728e-06 0)
(0.00101146 2.70487e-06 0)
(0.00101215 2.6911e-06 0)
(0.00101284 2.6654e-06 0)
(0.00101352 2.6278e-06 0)
(0.00101419 2.57749e-06 0)
(0.00101485 2.51465e-06 0)
(0.00101549 2.43813e-06 0)
(0.00101611 2.34837e-06 0)
(0.00101671 2.24367e-06 0)
(0.00101728 2.12494e-06 0)
(0.00101782 1.98962e-06 0)
(0.00101832 1.83941e-06 0)
(0.00101879 1.67046e-06 0)
(0.00101921 1.48575e-06 0)
(0.00101959 1.27938e-06 0)
(0.00101991 1.05652e-06 0)
(0.00102018 8.08019e-07 0)
(0.00102039 5.4264e-07 0)
(0.00102053 2.46072e-07 0)
(0.00102059 -6.69952e-08 0)
(0.00102058 -4.19122e-07 0)
(0.00102047 -7.86021e-07 0)
(0.00102028 -1.20383e-06 0)
(0.00101998 -1.63235e-06 0)
(0.00101957 -2.12904e-06 0)
(0.00101904 -2.6277e-06 0)
(0.00101839 -3.22032e-06 0)
(0.00101758 -3.79831e-06 0)
(0.00101663 -4.50979e-06 0)
(0.00101551 -5.17668e-06 0)
(0.00101422 -6.0384e-06 0)
(0.00101272 -6.80249e-06 0)
(0.00101102 -7.85744e-06 0)
(0.00100907 -8.72134e-06 0)
(0.00100688 -1.0026e-05 0)
(0.001 2.85398e-08 0)
(0.00100004 8.55129e-08 0)
(0.00100013 1.4214e-07 0)
(0.00100026 1.98177e-07 0)
(0.00100042 2.53379e-07 0)
(0.00100064 3.07503e-07 0)
(0.00100089 3.60317e-07 0)
(0.00100118 4.11597e-07 0)
(0.00100151 4.61136e-07 0)
(0.00100187 5.08736e-07 0)
(0.00100227 5.54217e-07 0)
(0.00100271 5.97409e-07 0)
(0.00100317 6.38157e-07 0)
(0.00100367 6.76315e-07 0)
(0.00100419 7.11757e-07 0)
(0.00100474 7.44358e-07 0)
(0.00100532 7.74015e-07 0)
(0.00100591 8.00617e-07 0)
(0.00100652 8.24082e-07 0)
(0.00100715 8.44306e-07 0)
(0.0010078 8.61222e-07 0)
(0.00100845 8.74724e-07 0)
(0.00100912 8.84758e-07 0)
(0.00100979 8.91203e-07 0)
(0.00101046 8.94021e-07 0)
(0.00101113 8.9306e-07 0)
(0.00101181 8.88302e-07 0)
(0.00101247 8.79543e-07 0)
(0.00101313 8.66799e-07 0)
(0.00101378 8.49785e-07 0)
(0.00101441 8.28572e-07 0)
(0.00101503 8.0275e-07 0)
(0.00101563 7.72488e-07 0)
(0.0010162 7.3718e-07 0)
(0.00101674 6.97163e-07 0)
(0.00101725 6.51532e-07 0)
(0.00101772 6.00907e-07 0)
(0.00101816 5.43912e-07 0)
(0.00101855 4.81648e-07 0)
(0.00101889 4.11999e-07 0)
(0.00101918 3.36861e-07 0)
(0.0010194 2.52954e-07 0)
(0.00101957 1.63484e-07 0)
(0.00101966 6.33054e-08 0)
(0.00101968 -4.22434e-08 0)
(0.00101961 -1.61338e-07 0)
(0.00101946 -2.85243e-07 0)
(0.0010192 -4.26847e-07 0)
(0.00101884 -5.71678e-07 0)
(0.00101836 -7.40282e-07 0)
(0.00101775 -9.08869e-07 0)
(0.00101701 -1.11041e-06 0)
(0.00101611 -1.30586e-06 0)
(0.00101506 -1.54836e-06 0)
(0.00101383 -1.77385e-06 0)
(0.00101241 -2.06835e-06 0)
(0.00101078 -2.32655e-06 0)
(0.00100893 -2.68826e-06 -3.55187e-38)
(0.00100683 -2.97971e-06 0)
(0.00100447 -3.42878e-06 0)
(0.001 -2.86217e-08 0)
(0.00100004 -8.57345e-08 0)
(0.00100013 -1.42477e-07 0)
(0.00100026 -1.98605e-07 0)
(0.00100042 -2.53873e-07 0)
(0.00100064 -3.08042e-07 0)
(0.00100089 -3.60879e-07 0)
(0.00100118 -4.12163e-07 0)
(0.00100151 -4.61685e-07 0)
(0.00100187 -5.09249e-07 0)
(0.00100227 -5.54675e-07 0)
(0.00100271 -5.97792e-07 0)
(0.00100317 -6.3845e-07 0)
(0.00100367 -6.76502e-07 0)
(0.00100419 -7.11824e-07 0)
(0.00100474 -7.44292e-07 0)
(0.00100532 -7.73802e-07 0)
(0.00100591 -8.00246e-07 0)
(0.00100652 -8.23541e-07 0)
(0.00100715 -8.43584e-07 0)
(0.0010078 -8.60309e-07 0)
(0.00100845 -8.7361e-07 0)
(0.00100912 -8.83435e-07 0)
(0.00100979 -8.89664e-07 0)
(0.00101046 -8.9226e-07 0)
(0.00101113 -8.91071e-07 0)
(0.00101181 -8.86079e-07 0)
(0.00101247 -8.77084e-07 0)
(0.00101313 -8.64099e-07 0)
(0.00101378 -8.46841e-07 0)
(0.00101441 -8.25381e-07 0)
(0.00101503 -7.9931e-07 0)
(0.00101563 -7.68797e-07 0)
(0.0010162 -7.33238e-07 0)
(0.00101674 -6.92969e-07 0)
(0.00101725 -6.47086e-07 0)
(0.00101772 -5.96209e-07 0)
(0.00101816 -5.38962e-07 0)
(0.00101855 -4.76447e-07 0)
(0.00101889 -4.06548e-07 0)
(0.00101918 -3.31161e-07 0)
(0.0010194 -2.47007e-07 0)
(0.00101957 -1.5729e-07 0)
(0.00101966 -5.6864e-08 0)
(0.00101968 4.89346e-08 0)
(0.00101961 1.68284e-07 0)
(0.00101946 2.92456e-07 0)
(0.0010192 4.3433e-07 0)
(0.00101884 5.79437e-07 0)
(0.00101836 7.48316e-07 0)
(0.00101775 9.17182e-07 0)
(0.00101701 1.11899e-06 0)
(0.00101611 1.31473e-06 0)
(0.00101506 1.55752e-06 0)
(0.00101383 1.7833e-06 0)
(0.00101241 2.0781e-06 0)
(0.00101078 2.33661e-06 0)
(0.00100893 2.69863e-06 3.55187e-38)
(0.00100683 2.9904e-06 0)
(0.00100447 3.43981e-06 0)
(0.001 -8.66855e-08 0)
(0.00100005 -2.59682e-07 0)
(0.00100013 -4.31571e-07 0)
(0.00100026 -6.01603e-07 0)
(0.00100044 -7.69032e-07 0)
(0.00100066 -9.3312e-07 0)
(0.00100091 -1.09316e-06 0)
(0.00100121 -1.24848e-06 0)
(0.00100155 -1.39844e-06 0)
(0.00100193 -1.54246e-06 0)
(0.00100234 -1.67999e-06 0)
(0.00100279 -1.81052e-06 0)
(0.00100327 -1.9336e-06 0)
(0.00100378 -2.0488e-06 0)
(0.00100432 -2.15575e-06 0)
(0.00100488 -2.25408e-06 0)
(0.00100547 -2.3435e-06 0)
(0.00100608 -2.42368e-06 0)
(0.00100672 -2.49439e-06 0)
(0.00100736 -2.55533e-06 0)
(0.00100802 -2.60631e-06 0)
(0.0010087 -2.64703e-06 0)
(0.00100938 -2.67733e-06 0)
(0.00101007 -2.69686e-06 0)
(0.00101076 -2.70553e-06 0)
(0.00101146 -2.70289e-06 0)
(0.00101215 -2.68889e-06 0)
(0.00101284 -2.66296e-06 0)
(0.00101352 -2.62512e-06 0)
(0.00101419 -2.57457e-06 0)
(0.00101485 -2.51149e-06 0)
(0.00101549 -2.43472e-06 0)
(0.00101611 -2.34471e-06 0)
(0.00101671 -2.23976e-06 0)
(0.00101728 -2.12078e-06 0)
(0.00101782 -1.98521e-06 0)
(0.00101832 -1.83475e-06 0)
(0.00101879 -1.66555e-06 0)
(0.00101921 -1.48059e-06 0)
(0.00101959 -1.27397e-06 0)
(0.00101991 -1.05085e-06 0)
(0.00102018 -8.02096e-07 0)
(0.00102039 -5.3646e-07 0)
(0.00102053 -2.39636e-07 0)
(0.00102059 7.369e-08 0)
(0.00102058 4.26072e-07 0)
(0.00102048 7.93224e-07 0)
(0.00102028 1.21128e-06 0)
(0.00101998 1.64007e-06 0)
(0.00101957 2.13701e-06 0)
(0.00101904 2.63593e-06 0)
(0.00101839 3.22882e-06 0)
(0.00101759 3.80709e-06 0)
(0.00101664 4.51885e-06 0)
(0.00101551 5.18602e-06 0)
(0.00101422 6.04803e-06 0)
(0.00101272 6.81242e-06 0)
(0.00101102 7.86767e-06 0)
(0.00100907 8.7319e-06 0)
(0.00100688 1.00369e-05 0)
(0.001 -1.47514e-07 0)
(0.00100005 -4.419e-07 0)
(0.00100014 -7.3437e-07 0)
(0.00100028 -1.02363e-06 0)
(0.00100047 -1.30837e-06 0)
(0.0010007 -1.58733e-06 0)
(0.00100097 -1.85929e-06 0)
(0.00100129 -2.12308e-06 0)
(0.00100165 -2.37765e-06 0)
(0.00100205 -2.62199e-06 0)
(0.00100249 -2.8552e-06 0)
(0.00100296 -3.07643e-06 0)
(0.00100347 -3.28495e-06 0)
(0.00100401 -3.48006e-06 0)
(0.00100458 -3.66117e-06 0)
(0.00100517 -3.82769e-06 0)
(0.0010058 -3.97917e-06 0)
(0.00100644 -4.1151e-06 0)
(0.00100711 -4.23513e-06 0)
(0.00100779 -4.33879e-06 0)
(0.00100849 -4.4258e-06 0)
(0.0010092 -4.49569e-06 0)
(0.00100992 -4.54824e-06 0)
(0.00101065 -4.58293e-06 0)
(0.00101138 -4.59957e-06 0)
(0.00101212 -4.59752e-06 0)
(0.00101285 -4.57668e-06 0)
(0.00101358 -4.53618e-06 0)
(0.00101431 -4.47602e-06 0)
(0.00101503 -4.39502e-06 0)
(0.00101573 -4.29337e-06 0)
(0.00101642 -4.16938e-06 0)
(0.00101709 -4.0236e-06 0)
(0.00101774 -3.85353e-06 0)
(0.00101836 -3.66038e-06 0)
(0.00101896 -3.44043e-06 0)
(0.00101952 -3.19596e-06 0)
(0.00102005 -2.92138e-06 0)
(0.00102054 -2.6208e-06 0)
(0.00102099 -2.28568e-06 0)
(0.00102138 -1.92319e-06 0)
(0.00102173 -1.52014e-06 0)
(0.00102202 -1.08879e-06 0)
(0.00102224 -6.08562e-07 0)
(0.0010224 -1.00086e-07 0)
(0.00102249 4.68986e-07 0)
(0.00102249 1.06435e-06 0)
(0.00102242 1.73772e-06 0)
(0.00102224 2.43242e-06 0)
(0.00102198 3.23046e-06 0)
(0.00102159 4.03831e-06 0)
(0.0010211 4.98698e-06 0)
(0.00102047 5.92305e-06 0)
(0.00101972 7.05694e-06 0)