/*--------------------------------*- C++ -*----------------------------------*\
| =========                 |                                                 |
| \\      /  F ield         | OpenFOAM: The Open Source CFD Toolbox           |
|  \\    /   O peration     | Version:  2312                                  |
|   \\  /    A nd           | Website:  www.openfoam.com                      |
|    \\/     M anipulation  |                                                 |
\*---------------------------------------------------------------------------*/
FoamFile
{
    version     2.0;
    format      ascii;
    arch        "LSB;label=32;scalar=64";
    class       surfaceScalarField;
    location    "9000";
    object      phi;
}
// * * * * * * * * * * * * * * * * * * * * * * * * * * * * * * * * * * * * * //

dimensions      [0 3 -1 0 0 0 0];

oriented        oriented;

internalField   nonuniform List<scalar> 
21240
(
0.000664977
1.68919e-06
0.000661084
3.89338e-06
0.000655779
5.30514e-06
0.000649566
6.21313e-06
0.000642722
6.84429e-06
0.000635389
7.33271e-06
0.000627662
7.72721e-06
0.000619621
8.04107e-06
0.000611338
8.28218e-06
0.000602879
8.45946e-06
0.000594297
8.58142e-06
0.000585639
8.65824e-06
0.000576935
8.70416e-06
0.000568207
8.72833e-06
0.000559479
8.72811e-06
0.000550777
8.70153e-06
0.000542121
8.65655e-06
0.000533522
8.59864e-06
0.000525
8.52176e-06
0.000516581
8.41924e-06
0.000508288
8.2927e-06
0.000500141
8.14732e-06
0.000492153
7.98776e-06
0.000484336
7.81759e-06
0.000476701
7.63427e-06
0.00046928
7.42164e-06
0.000462124
7.15558e-06
0.000455308
6.81609e-06
0.000448913
6.39505e-06
0.000443019
5.89406e-06
0.000437699
5.31947e-06
0.000433016
4.6837e-06
0.00042901
4.00527e-06
0.000425701
3.30964e-06
0.000423072
2.62906e-06
0.000421082
1.98958e-06
0.00041966
1.42176e-06
0.000418726
9.34329e-07
0.000418185
5.4128e-07
0.000417954
2.30663e-07
0.000417953
1.19892e-09
0.000418112
-1.59374e-07
0.000418373
-2.60822e-07
0.000418717
-3.43568e-07
0.000419092
-3.7497e-07
0.000419507
-4.15332e-07
0.000419913
-4.05811e-07
0.000420354
-4.41196e-07
0.000420747
-3.92848e-07
0.000421195
-4.47666e-07
0.000421543
-3.48898e-07
0.00042199
-4.46729e-07
0.000422237
-2.47192e-07
0.000422688
-4.50701e-07
0.000422725
-3.74127e-08
0.0004232
-4.74919e-07
0.000422769
4.31341e-07
0.000423361
-5.92058e-07
0.000421946
1.41517e-06
-1.0069e-06
0.000422953
0.000667558
7.98148e-07
0.000669128
2.3226e-06
0.000670873
3.56047e-06
0.000672561
4.52533e-06
0.000674113
5.29205e-06
0.000675516
5.92953e-06
0.000676765
6.47809e-06
0.000677852
6.95483e-06
0.000678766
7.36768e-06
0.000679503
7.72307e-06
0.000680059
8.02513e-06
0.000680441
8.27591e-06
0.000680664
8.48137e-06
0.000680741
8.65172e-06
0.000680675
8.79337e-06
0.000680471
8.90613e-06
0.00068014
8.98752e-06
0.000679704
9.03457e-06
0.000679179
9.04629e-06
0.000678569
9.02943e-06
0.000677867
8.99461e-06
0.000677074
8.94075e-06
0.000676211
8.85055e-06
0.000675324
8.70487e-06
0.000674457
8.50073e-06
0.000673628
8.25063e-06
0.000672811
7.97317e-06
0.000671948
7.67921e-06
0.000670976
7.36623e-06
0.000669855
7.01542e-06
0.000668577
6.59794e-06
0.000667172
6.08857e-06
0.000665699
5.47751e-06
0.000664233
4.77607e-06
0.000662842
4.01979e-06
0.000661586
3.24602e-06
0.0006605
2.50785e-06
0.000659603
1.83159e-06
0.000658893
1.25075e-06
0.000658357
7.66996e-07
0.000657971
3.87329e-07
0.00065772
9.14796e-08
0.00065759
-1.30696e-07
0.000657562
-3.16059e-07
0.000657612
-4.24789e-07
0.000657727
-5.30595e-07
0.000657902
-5.80903e-07
0.000658117
-6.55717e-07
0.000658387
-6.62719e-07
0.000658674
-7.35499e-07
0.000659024
-6.98354e-07
0.00065935
-7.73091e-07
0.000659798
-6.94557e-07
0.000660123
-7.75583e-07
0.000660712
-6.2726e-07
0.000660939
-7.0102e-07
0.000661843
-4.72909e-07
0.000661746
-4.95357e-07
0.000663369
-2.07773e-07
-5.48899e-08
0.000662417
0.000666953
5.12108e-07
0.000667826
1.44973e-06
0.000669074
2.31195e-06
0.000670511
3.08839e-06
0.000672028
3.775e-06
0.000673578
4.37959e-06
0.000675143
4.91343e-06
0.000676711
5.38646e-06
0.000678272
5.80694e-06
0.000679814
6.18103e-06
0.000681327
6.51147e-06
0.000682805
6.79863e-06
0.000684242
7.04436e-06
0.00068564
7.25385e-06
0.000687
7.43265e-06
0.000688324
7.58248e-06
0.00068961
7.70127e-06
0.000690859
7.78629e-06
0.000692067
7.83772e-06
0.000693236
7.86052e-06
0.000694369
7.86166e-06
0.000695467
7.84258e-06
0.000696523
7.79484e-06
0.000697523
7.70485e-06
0.000698458
7.56513e-06
0.000699329
7.38001e-06
0.000700139
7.16357e-06
0.000700887
6.93072e-06
0.000701564
6.68912e-06
0.000702146
6.43419e-06
0.000702594
6.14942e-06
0.000702867
5.81514e-06
0.00070293
5.41452e-06
0.000702762
4.94459e-06
0.000702368
4.41418e-06
0.000701769
3.84439e-06
0.000701016
3.26145e-06
0.000700156
2.69163e-06
0.000699251
2.15498e-06
0.000698349
1.66919e-06
0.000697501
1.2351e-06
0.000696731
8.61722e-07
0.000696064
5.36186e-07
0.000695488
2.59971e-07
0.000695049
1.41616e-08
0.000694694
-1.75328e-07
0.000694471
-3.57414e-07
0.000694318
-5.03565e-07
0.000694312
-6.56261e-07
0.000694342
-7.65871e-07
0.000694546
-9.02126e-07
0.00069475
-9.77474e-07
0.000695165
-1.10944e-06
0.000695529
-1.1396e-06
0.000696182
-1.28025e-06
0.000696721
-1.23932e-06
0.000697667
-1.41886e-06
0.000698429
-1.25809e-06
0.000699736
-1.51408e-06
-1.16266e-06
0.000700843
0.000666855
3.23999e-07
0.000667312
9.92101e-07
0.000667981
1.64368e-06
0.000668811
2.25774e-06
0.000669761
2.82507e-06
0.000670798
3.34283e-06
0.0006719
3.81194e-06
0.000673051
4.23519e-06
0.000674241
4.61666e-06
0.000675462
4.9603e-06
0.000676705
5.26813e-06
0.000677963
5.54033e-06
0.00067923
5.77754e-06
0.000680502
5.98258e-06
0.000681775
6.15935e-06
0.000683048
6.30944e-06
0.000684318
6.43088e-06
0.000685583
6.52115e-06
0.00068684
6.5814e-06
0.000688083
6.61683e-06
0.000689312
6.63267e-06
0.000690526
6.62928e-06
0.00069172
6.60042e-06
0.000692888
6.53679e-06
0.00069402
6.43311e-06
0.000695106
6.294e-06
0.000696136
6.13329e-06
0.000697099
5.96783e-06
0.00069798
5.80804e-06
0.000698761
5.6537e-06
0.000699419
5.49153e-06
0.000699931
5.30308e-06
0.000700278
5.06737e-06
0.000700449
4.77332e-06
0.000700448
4.41563e-06
0.000700287
4.00484e-06
0.000699997
3.55178e-06
0.000699608
3.08062e-06
0.00069916
2.60276e-06
0.000698686
2.14318e-06
0.00069822
1.70158e-06
0.000697782
1.29956e-06
0.000697397
9.213e-07
0.000697067
5.8986e-07
0.000696808
2.73515e-07
0.00069662
1.25082e-08
0.000696537
-2.74485e-07
0.00069653
-4.97149e-07
0.000696622
-7.47723e-07
0.000696784
-9.28412e-07
0.000697055
-1.17237e-06
0.00069739
-1.31271e-06
0.000697851
-1.57022e-06
0.000698381
-1.6696e-06
0.000699061
-1.96034e-06
0.00069983
-2.00859e-06
0.000700774
-2.36329e-06
0.000701852
-2.33553e-06
0.000703145
-2.80689e-06
-2.66636e-06
0.000704648
0.000666738
2.52342e-07
0.000666971
7.59876e-07
0.000667359
1.25531e-06
0.000667885
1.73156e-06
0.000668527
2.18267e-06
0.000669265
2.60505e-06
0.000670081
2.99672e-06
0.000670959
3.3571e-06
0.000671888
3.68722e-06
0.00067286
3.98872e-06
0.000673866
4.26222e-06
0.000674899
4.50732e-06
0.000675952
4.72417e-06
0.00067702
4.91445e-06
0.000678099
5.08056e-06
0.000679185
5.22332e-06
0.000680275
5.34092e-06
0.000681365
5.43144e-06
0.00068245
5.49629e-06
0.000683526
5.54008e-06
0.000684592
5.56684e-06
0.000685645
5.57639e-06
0.000686682
5.564e-06
0.000687695
5.52359e-06
0.000688676
5.45232e-06
0.000689615
5.35467e-06
0.000690506
5.24194e-06
0.000691346
5.12799e-06
0.000692133
5.02151e-06
0.000692864
4.92284e-06
0.000693534
4.82133e-06
0.000694135
4.70183e-06
0.000694657
4.54568e-06
0.000695089
4.34145e-06
0.000695423
4.08082e-06
0.000695659
3.76889e-06
0.000695801
3.41034e-06
0.000695858
3.02314e-06
0.000695847
2.61437e-06
0.000695784
2.20562e-06
0.00069569
1.79622e-06
0.000695582
1.40695e-06
0.000695478
1.02504e-06
0.000695395
6.73312e-07
0.000695345
3.23349e-07
0.000695353
4.90644e-09
0.000695382
-3.04168e-07
0.000695464
-5.78778e-07
0.000695601
-8.8516e-07
0.000695809
-1.13644e-06
0.000696084
-1.44683e-06
0.000696448
-1.67725e-06
0.000696888
-2.01005e-06
0.000697436
-2.21763e-06
0.000698073
-2.59681e-06
0.000698844
-2.78011e-06
0.000699714
-3.23292e-06
0.000700764
-3.38567e-06
0.000701912
-3.95468e-06
-4.05723e-06
0.000703303
0.000666725
1.94409e-07
0.0006669
5.84277e-07
0.000667185
9.70271e-07
0.000667571
1.34571e-06
0.000668047
1.70689e-06
0.000668601
2.05086e-06
0.000669223
2.37515e-06
0.000669902
2.67806e-06
0.00067063
2.95919e-06
0.0006714
3.21874e-06
0.000672205
3.45641e-06
0.000673041
3.67142e-06
0.000673902
3.86369e-06
0.000674782
4.03439e-06
0.000675677
4.18506e-06
0.000676585
4.31596e-06
0.0006775
4.4255e-06
0.000678419
4.51223e-06
0.000679338
4.57752e-06
0.000680253
4.62531e-06
0.000681161
4.65876e-06
0.00068206
4.67736e-06
0.000682947
4.6772e-06
0.000683816
4.654e-06
0.000684662
4.60664e-06
0.000685477
4.53985e-06
0.000686256
4.46322e-06
0.000686996
4.38768e-06
0.000687698
4.31951e-06
0.000688363
4.25791e-06
0.000688991
4.19334e-06
0.00068958
4.11256e-06
0.000690126
3.99981e-06
0.000690623
3.84476e-06
0.000691064
3.63973e-06
0.000691445
3.38729e-06
0.000691766
3.09023e-06
0.000692027
2.76147e-06
0.000692235
2.40675e-06
0.000692398
2.04236e-06
0.000692525
1.66922e-06
0.000692628
1.3037e-06
0.000692715
9.37913e-07
0.000692799
5.90108e-07
0.00069288
2.42121e-07
0.000692972
-8.70416e-08
0.0006931
-4.32626e-07
0.00069327
-7.48047e-07
0.000693474
-1.08952e-06
0.000693731
-1.39379e-06
0.000694031
-1.74663e-06
0.000694401
-2.0476e-06
0.000694819
-2.42779e-06
0.000695333
-2.73121e-06
0.000695898
-3.16166e-06
0.000696585
-3.46719e-06
0.000697329
-3.97705e-06
0.000698227
-4.28402e-06
0.000699179
-4.90698e-06
-5.21194e-06
0.000700334
0.000666708
1.53069e-07
0.000666832
4.60221e-07
0.000667037
7.65443e-07
0.000667319
1.06407e-06
0.000667672
1.35356e-06
0.000668091
1.63177e-06
0.000668569
1.89666e-06
0.000669101
2.14671e-06
0.000669678
2.3816e-06
0.000670296
2.60067e-06
0.00067095
2.80237e-06
0.000671636
2.98624e-06
0.000672347
3.15214e-06
0.000673081
3.30086e-06
0.000673832
3.43339e-06
0.000674599
3.54965e-06
0.000675376
3.64817e-06
0.00067616
3.7279e-06
0.000676948
3.79014e-06
0.000677735
3.83815e-06
0.000678519
3.87429e-06
0.000679299
3.89786e-06
0.000680071
3.90555e-06
0.00068083
3.89427e-06
0.000681573
3.86394e-06
0.000682294
3.81914e-06
0.000682989
3.76788e-06
0.000683658
3.71852e-06
0.000684303
3.67514e-06
0.000684925
3.63584e-06
0.000685526
3.59194e-06
0.000686107
3.5319e-06
0.000686664
3.44287e-06
0.000687192
3.31611e-06
0.000687686
3.14571e-06
0.000688141
2.93306e-06
0.00068855
2.68068e-06
0.000688914
2.39775e-06
0.000689231
2.08933e-06
0.000689507
1.76691e-06
0.000689744
1.4323e-06
0.000689951
1.09622e-06
0.000690135
7.54366e-07
0.000690307
4.17551e-07
0.000690477
7.26752e-08
0.000690647
-2.57283e-07
0.000690817
-6.02622e-07
0.000691004
-9.34841e-07
0.000691202
-1.28746e-06
0.000691433
-1.62511e-06
0.000691685
-1.99868e-06
0.000691986
-2.34898e-06
0.000692316
-2.75777e-06
0.000692714
-3.12922e-06
0.000693142
-3.58956e-06
0.000693666
-3.99051e-06
0.000694214
-4.52563e-06
0.000694889
-4.95861e-06
0.000695582
-5.60058e-06
-6.06556e-06
0.000696436
0.000666698
1.21649e-07
0.000666793
3.65306e-07
0.000666951
6.07711e-07
0.000667169
8.45605e-07
0.000667445
1.07728e-06
0.000667776
1.30118e-06
0.000668157
1.51572e-06
0.000668584
1.7196e-06
0.000669054
1.91214e-06
0.000669561
2.09282e-06
0.000670103
2.2607e-06
0.000670675
2.4148e-06
0.000671272
2.55487e-06
0.000671891
2.68152e-06
0.000672529
2.79536e-06
0.000673183
2.89608e-06
0.000673849
2.98237e-06
0.000674523
3.05343e-06
0.000675203
3.11045e-06
0.000675885
3.15606e-06
0.000676567
3.192e-06
0.000677248
3.21743e-06
0.000677924
3.22957e-06
0.000678592
3.22608e-06
0.000679248
3.20739e-06
0.00067989
3.17763e-06
0.000680514
3.14343e-06
0.000681122
3.11107e-06
0.000681714
3.0831e-06
0.000682293
3.05694e-06
0.00068286
3.02491e-06
0.000683415
2.97701e-06
0.000683954
2.90293e-06
0.000684475
2.79537e-06
0.000684971
2.65006e-06
0.000685436
2.46759e-06
0.000685866
2.25052e-06
0.000686259
2.00509e-06
0.000686612
1.73604e-06
0.000686928
1.45095e-06
0.000687208
1.15272e-06
0.000687456
8.47918e-07
0.000687674
5.36327e-07
0.000687868
2.23955e-07
0.000688038
-9.7858e-08
0.000688204
-4.22882e-07
0.000688358
-7.56663e-07
0.000688515
-1.09127e-06
0.000688669
-1.44166e-06
0.000688837
-1.79342e-06
0.000689008
-2.1698e-06
0.000689207
-2.54776e-06
0.000689412
-2.96241e-06
0.000689658
-3.37597e-06
0.000689913
-3.84448e-06
0.000690227
-4.30473e-06
0.000690545
-4.84349e-06
0.00069095
-5.36378e-06
0.000691344
-5.99426e-06
-6.58125e-06
0.00069186
0.000666692
9.62758e-08
0.000666768
2.88932e-07
0.000666895
4.80697e-07
0.000667072
6.69205e-07
0.000667296
8.53269e-07
0.000667565
1.03175e-06
0.000667878
1.20343e-06
0.00066823
1.36727e-06
0.000668619
1.52272e-06
0.000669043
1.66935e-06
0.000669497
1.80638e-06
0.000669979
1.93293e-06
0.000670485
2.04871e-06
0.000671013
2.15413e-06
0.000671558
2.24958e-06
0.00067212
2.33463e-06
0.000672694
2.40812e-06
0.000673278
2.46946e-06
0.000673869
2.51967e-06
0.000674464
2.56085e-06
0.000675062
2.59423e-06
0.00067566
2.61889e-06
0.000676257
2.6325e-06
0.00067685
2.63329e-06
0.000677436
2.62189e-06
0.000678011
2.60193e-06
0.000678576
2.5788e-06
0.00067913
2.55719e-06
0.000679674
2.53857e-06
0.000680211
2.5201e-06
0.000680741
2.4951e-06
0.000681263
2.45505e-06
0.000681774
2.39181e-06
0.00068227
2.29927e-06
0.000682746
2.1746e-06
0.000683195
2.01786e-06
0.000683614
1.83175e-06
0.000683999
1.62037e-06
0.000684347
1.3883e-06
0.000684657
1.14009e-06
0.000684931
8.79322e-07
0.00068517
6.08864e-07
0.000685376
3.30612e-07
0.000685554
4.54464e-08
0.000685707
-2.511e-07
0.000685838
-5.53849e-07
0.000685946
-8.64785e-07
0.000686041
-1.18588e-06
0.000686118
-1.51824e-06
0.000686189
-1.86478e-06
0.000686246
-2.22667e-06
0.000686306
-2.6081e-06
0.000686353
-3.00934e-06
0.000686415
-3.43736e-06
0.00068646
-3.89003e-06
0.000686533
-4.37805e-06
0.000686587
-4.89667e-06
0.000686683
-5.46056e-06
0.000686749
-6.05958e-06
-6.7183e-06
0.000686886
0.000666688
7.51425e-08
0.000666751
2.25414e-07
0.000666857
3.75027e-07
0.000667004
5.22242e-07
0.000667191
6.66215e-07
0.000667417
8.06117e-07
0.000667679
9.4103e-07
0.000667976
1.07019e-06
0.000668306
1.19318e-06
0.000668665
1.30963e-06
0.000669053
1.41891e-06
0.000669466
1.52027e-06
0.000669901
1.61346e-06
0.000670356
1.69879e-06
0.000670829
1.77646e-06
0.000671318
1.84603e-06
0.000671819
1.90652e-06
0.000672331
1.95748e-06
0.000672851
1.99978e-06
0.000673377
2.03507e-06
0.000673907
2.06418e-06
0.00067444
2.08623e-06
0.000674973
2.0993e-06
0.000675504
2.10202e-06
0.000676031
2.09513e-06
0.000676551
2.08162e-06
0.000677064
2.06577e-06
0.000677571
2.05102e-06
0.000678071
2.03811e-06
0.000678567
2.02424e-06
0.000679058
2.00385e-06
0.000679543
1.96986e-06
0.000680019
1.91598e-06
0.000680481
1.83726e-06
0.000680924
1.73188e-06
0.000681342
1.59958e-06
0.000681731
1.44299e-06
0.000682087
1.2646e-06
0.000682406
1.06868e-06
0.000682689
8.5752e-07
0.000682933
6.35136e-07
0.00068314
4.01973e-07
0.000683309
1.61877e-07
0.000683445
-9.06691e-08
0.000683544
-3.50825e-07
0.000683613
-6.2229e-07
0.000683648
-9.0038e-07
0.000683657
-1.19428e-06
0.000683634
-1.49547e-06
0.000683588
-1.81882e-06
0.000683511
-2.1499e-06
0.000683416
-2.51232e-06
0.000683288
-2.88144e-06
0.000683146
-3.29514e-06
0.000682967
-3.71194e-06
0.000682782
-4.1925e-06
0.000682552
-4.66708e-06
0.000682326
-5.23389e-06
0.000682043
-5.77701e-06
-6.45158e-06
0.000681776
0.000666685
5.70339e-08
0.000666739
1.71039e-07
0.00066683
2.84561e-07
0.000666956
3.96333e-07
0.000667116
5.05759e-07
0.00066731
6.1224e-07
0.000667536
7.15104e-07
0.000667792
8.13798e-07
0.000668077
9.08017e-07
0.000668389
9.9748e-07
0.000668727
1.08166e-06
0.000669087
1.15997e-06
0.000669468
1.23223e-06
0.000669868
1.29866e-06
0.000670286
1.35936e-06
0.000670718
1.41392e-06
0.000671163
1.46157e-06
0.000671618
1.50201e-06
0.000672082
1.53594e-06
0.000672552
1.56458e-06
0.000673028
1.58849e-06
0.000673507
1.60685e-06
0.000673989
1.61815e-06
0.000674469
1.62137e-06
0.000674947
1.61719e-06
0.000675421
1.60799e-06
0.00067589
1.59703e-06
0.000676354
1.58674e-06
0.000676814
1.57748e-06
0.000677272
1.56671e-06
0.000677726
1.55003e-06
0.000678174
1.52177e-06
0.000678613
1.47725e-06
0.000679037
1.41252e-06
0.000679443
1.32655e-06
0.000679823
1.21883e-06
0.000680175
1.09182e-06
0.000680492
9.46846e-07
0.000680773
7.87718e-07
0.000681016
6.15229e-07
0.000681217
4.33366e-07
0.000681378
2.40953e-07
0.000681498
4.2761e-08
0.000681577
-1.70341e-07
0.000681614
-3.87834e-07
0.00068161
-6.18506e-07
0.000681564
-8.54083e-07
0.000681477
-1.10761e-06
0.000681347
-1.36537e-06
0.000681177
-1.64837e-06
0.000680961
-1.9338e-06
0.000680704
-2.25538e-06
0.000680397
-2.57494e-06
0.000680049
-2.94701e-06
0.000679645
-3.30818e-06
0.000679199
-3.74619e-06
0.000678689
-4.15647e-06
0.000678136
-4.68086e-06
0.000677505
-5.14614e-06
-5.78188e-06
0.000676835
0.000666683
4.10796e-08
0.00066673
1.23168e-07
0.00066681
2.04915e-07
0.000666921
2.85435e-07
0.000667062
3.6432e-07
0.000667234
4.41152e-07
0.000667433
5.15461e-07
0.00066766
5.86861e-07
0.000667913
6.55143e-07
0.00066819
7.20096e-07
0.000668491
7.81322e-07
0.000668812
8.38404e-07
0.000669153
8.91213e-07
0.000669512
9.39895e-07
0.000669887
9.84503e-07
0.000670276
1.0247e-06
0.000670678
1.05993e-06
0.00067109
1.08998e-06
0.00067151
1.11539e-06
0.000671938
1.137e-06
0.000672371
1.15514e-06
0.000672809
1.16917e-06
0.000673249
1.17796e-06
0.00067369
1.18082e-06
0.000674129
1.17828e-06
0.000674565
1.17211e-06
0.000674997
1.16466e-06
0.000675426
1.15754e-06
0.000675853
1.15086e-06
0.000676277
1.1426e-06
0.000676697
1.1295e-06
0.000677112
1.10731e-06
0.000677516
1.07275e-06
0.000677906
1.02289e-06
0.000678275
9.5715e-07
0.000678619
8.75005e-07
0.000678933
7.78474e-07
0.000679211
6.68139e-07
0.000679452
5.4711e-07
0.000679652
4.15355e-07
0.000679809
2.76388e-07
0.000679921
1.28412e-07
0.000679989
-2.53854e-08
0.00068001
-1.90846e-07
0.000679982
-3.59973e-07
0.000679905
-5.41408e-07
0.000679777
-7.26217e-07
0.000679597
-9.27821e-07
0.000679363
-1.1315e-06
0.000679074
-1.35892e-06
0.000678726
-1.58569e-06
0.000678317
-1.8467e-06
0.000677844
-2.10143e-06
0.000677303
-2.40643e-06
0.000676689
-2.69458e-06
0.000676001
-3.05738e-06
0.000675228
-3.38408e-06
0.000674371
-3.82329e-06
0.000673416
-4.19184e-06
-4.73095e-06
0.000672365
0.000666681
2.661e-08
0.000666725
7.97728e-08
0.000666797
1.32717e-07
0.000666897
1.8488e-07
0.000667026
2.36006e-07
0.000667181
2.85828e-07
0.000667362
3.34049e-07
0.000667569
3.80429e-07
0.000667799
4.24831e-07
0.000668052
4.67112e-07
0.000668326
5.07015e-07
0.00066862
5.44274e-07
0.000668933
5.78809e-07
0.000669262
6.10704e-07
0.000669607
6.39973e-07
0.000669965
6.66387e-07
0.000670335
6.89591e-07
0.000670716
7.09467e-07
0.000671105
7.2635e-07
0.000671501
7.40759e-07
0.000671903
7.52868e-07
0.00067231
7.62241e-07
0.00067272
7.68163e-07
0.000673131
7.70219e-07
0.00067354
7.68788e-07
0.000673947
7.64992e-07
0.000674352
7.60298e-07
0.000674754
7.55668e-07
0.000675153
7.51107e-07
0.000675551
7.4523e-07
0.000675944
7.35927e-07
0.000676331
7.20432e-07
0.000676707
6.96686e-07
0.000677067
6.62731e-07
0.000677406
6.183e-07
0.000677718
5.62912e-07
0.000677999
4.9799e-07
0.000678243
4.23692e-07
0.000678448
3.42208e-07
0.00067861
2.53206e-07
0.000678727
1.59269e-07
0.000678797
5.88088e-08
0.000678818
-4.63866e-08
0.000678787
-1.59495e-07
0.000678702
-2.75275e-07
0.000678561
-4.00461e-07
0.000678362
-5.27719e-07
0.000678103
-6.67859e-07
0.00067778
-8.08814e-07
0.000677389
-9.6803e-07
0.000676929
-1.12555e-06
0.000676392
-1.30955e-06
0.000675777
-1.48691e-06
0.000675074
-1.70341e-06
0.000674284
-1.90419e-06
0.00067339
-2.16358e-06
0.000672397
-2.39098e-06
0.000671281
-2.70751e-06
0.000670052
-2.96301e-06
-3.35505e-06
0.000668676
0.00066668
1.30745e-08
0.000666721
3.91919e-08
0.000666788
6.52026e-08
0.000666882
9.08345e-08
0.000667002
1.1596e-07
0.000667148
1.4045e-07
0.000667318
1.64164e-07
0.000667511
1.86989e-07
0.000667727
2.08851e-07
0.000667965
2.29674e-07
0.000668222
2.49335e-07
0.000668499
2.67718e-07
0.000668793
2.84784e-07
0.000669103
3.00554e-07
0.000669428
3.15016e-07
0.000669766
3.28068e-07
0.000670116
3.39561e-07
0.000670476
3.49453e-07
0.000670845
3.57883e-07
0.00067122
3.65059e-07
0.000671602
3.7104e-07
0.000671989
3.75634e-07
0.000672378
3.78548e-07
0.000672769
3.79624e-07
0.000673159
3.79045e-07
0.000673546
3.77292e-07
0.000673932
3.74993e-07
0.000674315
3.72539e-07
0.000674696
3.69921e-07
0.000675075
3.66494e-07
0.000675449
3.61313e-07
0.000675817
3.53092e-07
0.000676173
3.40888e-07
0.000676512
3.23735e-07
0.000676828
3.01502e-07
0.000677117
2.73866e-07
0.000677374
2.41512e-07
0.000677593
2.04406e-07
0.000677772
1.63654e-07
0.000677906
1.18977e-07
0.000677994
7.17442e-08
0.000678031
2.10515e-08
0.000678017
-3.2315e-08
0.000677947
-8.97321e-08
0.000677821
-1.48546e-07
0.000677633
-2.12451e-07
0.000677382
-2.77344e-07
0.000677064
-3.49211e-07
0.000676676
-4.21305e-07
0.000676211
-5.03298e-07
0.00067567
-5.84042e-07
0.00067504
-6.79179e-07
0.000674323
-7.70218e-07
0.000673502
-8.8261e-07
0.000672584
-9.85727e-07
0.000671541
-1.12096e-06
0.000670388
-1.23768e-06
0.000669084
-1.40347e-06
0.000667655
-1.53432e-06
-1.74077e-06
0.000666041
0.00066668
-9.14208e-12
0.000666719
-2.85379e-11
0.000666784
-4.69945e-11
0.000666875
-6.2983e-11
0.000666991
-8.32671e-11
0.000667132
-1.09812e-10
0.000667296
-1.31492e-10
0.000667483
-1.43147e-10
0.000667692
-1.60595e-10
0.000667922
-1.98415e-10
0.000668172
-2.41308e-10
0.00066844
-2.60173e-10
0.000668725
-2.57522e-10
0.000669025
-2.74947e-10
0.000669341
-3.41946e-10
0.000669669
-4.29108e-10
0.000670009
-4.71876e-10
0.000670359
-4.45962e-10
0.000670718
-4.09246e-10
0.000671083
-4.56402e-10
0.000671455
-6.25361e-10
0.000671831
-8.46396e-10
0.000672211
-9.86039e-10
0.000672591
-9.52473e-10
0.000672971
-7.78845e-10
0.000673349
-6.21098e-10
0.000673725
-6.73462e-10
0.000674098
-1.06105e-09
0.00067447
-1.77099e-09
0.000674839
-2.65818e-09
0.000675204
-3.50676e-09
0.000675561
-4.11563e-09
0.000675906
-4.36041e-09
0.000676234
-4.21807e-09
0.00067654
-3.75306e-09
0.000676817
-3.07928e-09
0.00067706
-2.32236e-09
0.000677266
-1.58831e-09
0.000677431
-9.46996e-10
0.00067755
-4.35292e-10
0.000677622
-5.83434e-11
0.000677643
1.99144e-10
0.00067761
3.55971e-10
0.00067752
4.36312e-10
0.000677371
4.65708e-10
0.000677158
4.59675e-10
0.000676881
4.32706e-10
0.000676531
3.9283e-10
0.000676109
3.45825e-10
0.000675606
2.95339e-10
0.000675021
2.44865e-10
0.000674342
1.93992e-10
0.000673572
1.43532e-10
0.000672689
9.45014e-11
0.000671703
4.79082e-11
0.000670582
1.15684e-12
0.000669345
-4.66649e-11
0.000667941
-9.43289e-11
0.000666407
-1.45325e-10
-2.03396e-10
0.000664666
0.00066668
-1.30927e-08
0.000666719
-3.92486e-08
0.000666784
-6.52961e-08
0.000666875
-9.09599e-08
0.000666991
-1.16126e-07
0.000667132
-1.40669e-07
0.000667296
-1.64426e-07
0.000667483
-1.87274e-07
0.000667692
-2.09171e-07
0.000667922
-2.30069e-07
0.000668172
-2.49815e-07
0.00066844
-2.68236e-07
0.000668725
-2.85296e-07
0.000669025
-3.011e-07
0.000669341
-3.15696e-07
0.000669669
-3.28921e-07
0.000670009
-3.40499e-07
0.000670359
-3.5034e-07
0.000670717
-3.58697e-07
0.000671083
-3.65968e-07
0.000671455
-3.72284e-07
0.000671831
-3.77318e-07
0.000672211
-3.80509e-07
0.000672591
-3.81519e-07
0.000672971
-3.80595e-07
0.000673349
-3.78527e-07
0.000673725
-3.76331e-07
0.000674098
-3.74648e-07
0.00067447
-3.7344e-07
0.000674839
-3.71777e-07
0.000675204
-3.68283e-07
0.000675561
-3.61272e-07
0.000675906
-3.49557e-07
0.000676234
-3.32122e-07
0.000676539
-3.08967e-07
0.000676816
-2.79993e-07
0.00067706
-2.46135e-07
0.000677266
-2.07571e-07
0.000677431
-1.65544e-07
0.00067755
-1.19853e-07
0.000677622
-7.18717e-08
0.000677643
-2.06659e-08
0.00067761
3.30185e-08
0.00067752
9.05953e-08
0.000677371
1.49468e-07
0.000677158
2.13359e-07
0.00067688
2.78199e-07
0.000676531
3.49985e-07
0.000676109
4.21986e-07
0.000675605
5.03877e-07
0.000675021
5.84521e-07
0.000674342
6.79555e-07
0.000673571
7.70494e-07
0.000672689
8.82786e-07
0.000671703
9.85811e-07
0.000670582
1.12095e-06
0.000669344
1.23757e-06
0.000667941
1.40327e-06
0.000666407
1.53402e-06
1.74035e-06
0.000664666
0.00066668
-2.66279e-08
0.000666721
-7.98287e-08
0.000666788
-1.32809e-07
0.000666882
-1.85004e-07
0.000667002
-2.36169e-07
0.000667148
-2.86043e-07
0.000667318
-3.34307e-07
0.000667511
-3.80709e-07
0.000667727
-4.25146e-07
0.000667964
-4.67501e-07
0.000668222
-5.07488e-07
0.000668499
-5.44784e-07
0.000668793
-5.79314e-07
0.000669103
-6.11243e-07
0.000669428
-6.40643e-07
0.000669766
-6.67228e-07
0.000670116
-6.90515e-07
0.000670476
-7.10341e-07
0.000670845
-7.27152e-07
0.00067122
-7.41651e-07
0.000671602
-7.54088e-07
0.000671989
-7.63893e-07
0.000672378
-7.70089e-07
0.000672769
-7.72081e-07
0.000673159
-7.70312e-07
0.000673546
-7.66206e-07
0.000673931
-7.61611e-07
0.000674315
-7.57733e-07
0.000674696
-7.54554e-07
0.000675074
-7.50408e-07
0.000675449
-7.42764e-07
0.000675816
-7.28465e-07
0.000676172
-7.05204e-07
0.00067651
-6.7098e-07
0.000676827
-6.25648e-07
0.000677116
-5.68951e-07
0.000677373
-5.02552e-07
0.000677592
-4.26823e-07
0.00067777
-3.44086e-07
0.000677905
-2.54084e-07
0.000677992
-1.5941e-07
0.00067803
-5.84505e-08
0.000678016
4.70671e-08
0.000677946
1.6033e-07
0.000677819
2.76169e-07
0.000677631
4.01338e-07
0.000677381
5.28542e-07
0.000677062
6.68599e-07
0.000676675
8.09461e-07
0.00067621
9.68573e-07
0.000675669
1.12599e-06
0.000675038
1.30989e-06
0.000674322
1.48715e-06
0.000673501
1.70354e-06
0.000672583
1.90423e-06
0.00067154
2.16352e-06
0.000670387
2.39083e-06
0.000669083
2.70725e-06
0.000667654
2.96266e-06
3.35458e-06
0.00066604
0.000666681
-4.10972e-08
0.000666725
-1.23223e-07
0.000666797
-2.05005e-07
0.000666897
-2.85555e-07
0.000667026
-3.64479e-07
0.000667181
-4.41362e-07
0.000667362
-5.15712e-07
0.000667569
-5.87136e-07
0.000667799
-6.55451e-07
0.000668052
-7.20475e-07
0.000668326
-7.81783e-07
0.00066862
-8.38901e-07
0.000668933
-8.91705e-07
0.000669262
-9.40419e-07
0.000669607
-9.85155e-07
0.000669965
-1.02552e-06
0.000670335
-1.06083e-06
0.000670716
-1.09083e-06
0.000671105
-1.11617e-06
0.000671501
-1.13787e-06
0.000671903
-1.15633e-06
0.00067231
-1.17078e-06
0.00067272
-1.17983e-06
0.00067313
-1.18263e-06
0.00067354
-1.17977e-06
0.000673947
-1.17329e-06
0.000674351
-1.16593e-06
0.000674753
-1.15953e-06
0.000675153
-1.15418e-06
0.00067555
-1.1476e-06
0.000675943
-1.13611e-06
0.00067633
-1.11509e-06
0.000676706
-1.08102e-06
0.000677065
-1.0309e-06
0.000677404
-9.64305e-07
0.000677716
-8.80898e-07
0.000677996
-7.82936e-07
0.000678241
-6.71212e-07
0.000678446
-5.48965e-07
0.000678608
-4.16239e-07
0.000678725
-2.76554e-07
0.000678795
-1.28094e-07
0.000678816
2.60256e-08
0.000678784
1.91627e-07
0.0006787
3.60813e-07
0.000678559
5.4223e-07
0.00067836
7.26989e-07
0.0006781
9.28508e-07
0.000677778
1.1321e-06
0.000677387
1.3594e-06
0.000676927
1.58608e-06
0.00067639
1.84698e-06
0.000675775
2.10161e-06
0.000675072
2.40649e-06
0.000674282
2.69455e-06
0.000673388
3.05724e-06
0.000672395
3.38384e-06
0.00067128
3.82294e-06
0.000670051
4.19139e-06
4.73038e-06
0.000668675
0.000666683
-5.70509e-08
0.00066673
-1.71092e-07
0.00066681
-2.84648e-07
0.000666921
-3.96449e-07
0.000667062
-5.05913e-07
0.000667234
-6.12443e-07
0.000667433
-7.15348e-07
0.00066766
-8.14062e-07
0.000667913
-9.08314e-07
0.00066819
-9.97846e-07
0.000668491
-1.0821e-06
0.000668812
-1.16045e-06
0.000669153
-1.23271e-06
0.000669512
-1.29917e-06
0.000669887
-1.35999e-06
0.000670276
-1.41471e-06
0.000670678
-1.46244e-06
0.00067109
-1.50283e-06
0.00067151
-1.53669e-06
0.000671938
-1.56541e-06
0.000672371
-1.58962e-06
0.000672809
-1.60839e-06
0.000673249
-1.61994e-06
0.000673689
-1.62311e-06
0.000674128
-1.61862e-06
0.000674564
-1.60912e-06
0.000674996
-1.59824e-06
0.000675425
-1.58863e-06
0.000675852
-1.58063e-06
0.000676276
-1.57147e-06
0.000676696
-1.55634e-06
0.00067711
-1.52921e-06
0.000677514
-1.48516e-06
0.000677903
-1.42022e-06
0.000678272
-1.33343e-06
0.000678616
-1.22452e-06
0.000678929
-1.09615e-06
0.000679208
-9.49841e-07
0.000679449
-7.89542e-07
0.000679648
-6.16118e-07
0.000679805
-4.33558e-07
0.000679918
-2.40668e-07
0.000679986
-4.2202e-08
0.000680007
1.71067e-07
0.000679979
3.88618e-07
0.000679902
6.19263e-07
0.000679774
8.54789e-07
0.000679594
1.10823e-06
0.000679361
1.36589e-06
0.000679071
1.64878e-06
0.000678723
1.93412e-06
0.000678315
2.25558e-06
0.000677841
2.57504e-06
0.000677301
2.94698e-06
0.000676687
3.30806e-06
0.000675998
3.74594e-06
0.000675226
4.15612e-06
0.000674369
4.68039e-06
0.000673415
5.14557e-06
5.78117e-06
0.000672364
0.000666685
-7.51587e-08
0.000666739
-2.25464e-07
0.00066683
-3.7511e-07
0.000666956
-5.22353e-07
0.000667116
-6.66363e-07
0.00066731
-8.06311e-07
0.000667536
-9.41263e-07
0.000667792
-1.07044e-06
0.000668077
-1.19346e-06
0.000668389
-1.30998e-06
0.000668727
-1.41933e-06
0.000669087
-1.52072e-06
0.000669468
-1.61392e-06
0.000669868
-1.69927e-06
0.000670285
-1.77706e-06
0.000670717
-1.84678e-06
0.000671162
-1.90735e-06
0.000671618
-1.95826e-06
0.000672082
-2.0005e-06
0.000672552
-2.03586e-06
0.000673028
-2.06525e-06
0.000673507
-2.08768e-06
0.000673988
-2.10099e-06
0.000674469
-2.10368e-06
0.000674946
-2.09648e-06
0.00067542
-2.08269e-06
0.000675889
-2.06691e-06
0.000676353
-2.05277e-06
0.000676813
-2.04106e-06
0.00067727
-2.0287e-06
0.000677724
-2.00977e-06
0.000678172
-1.97687e-06
0.00067861
-1.92346e-06
0.000679034
-1.84456e-06
0.000679439
-1.73843e-06
0.00067982
-1.60501e-06
0.000680171
-1.44713e-06
0.000680488
-1.26748e-06
0.000680769
-1.07045e-06
0.000681011
-8.58404e-07
0.000681213
-6.35354e-07
0.000681374
-4.0175e-07
0.000681493
-1.61372e-07
0.000681573
9.13214e-08
0.00068161
3.5153e-07
0.000681607
6.22969e-07
0.00068156
9.0101e-07
0.000681474
1.19482e-06
0.000681344
1.49593e-06
0.000681173
1.81916e-06
0.000680957
2.15014e-06
0.000680701
2.51244e-06
0.000680394
2.88146e-06
0.000680046
3.29502e-06
0.000679642
3.71172e-06
0.000679196
4.19214e-06
0.000678686
4.66662e-06
0.000678133
5.23328e-06
0.000677502
5.77629e-06
6.45071e-06
0.000676833
0.000666688
-9.62911e-08
0.000666751