/*--------------------------------*- C++ -*----------------------------------*\
| =========                 |                                                 |
| \\      /  F ield         | OpenFOAM: The Open Source CFD Toolbox           |
|  \\    /   O peration     | Version:  2312                                  |
|   \\  /    A nd           | Website:  www.openfoam.com                      |
|    \\/     M anipulation  |                                                 |
\*---------------------------------------------------------------------------*/
FoamFile
{
    version     2.0;
    format      ascii;
    arch        "LSB;label=32;scalar=64";
    class       volVectorField;
    location    "191000";
    object      U;
}
// * * * * * * * * * * * * * * * * * * * * * * * * * * * * * * * * * * * * * //

dimensions      [0 1 -1 0 0 0 0];

internalField   nonuniform List<vector> 
2685
(
(0.000442409 -5.59445e-06 0)
(0.000429926 9.52581e-06 0)
(0.000404651 1.85622e-05 0)
(0.000380564 2.13197e-05 0)
(0.000357501 1.78495e-05 0)
(0.000334198 9.98716e-06 0)
(0.000311328 5.37121e-07 0)
(0.000289838 -8.17033e-06 0)
(0.000270177 -1.48052e-05 0)
(0.000252207 -1.88715e-05 0)
(0.000235575 -2.03424e-05 0)
(0.00022006 -1.95717e-05 0)
(0.000205679 -1.70331e-05 0)
(0.000192556 -1.32629e-05 0)
(0.000180781 -8.83315e-06 0)
(0.000170312 -4.29666e-06 0)
(0.000160996 -1.26414e-07 0)
(0.000152645 3.3202e-06 0)
(0.000145067 5.81645e-06 0)
(0.000138196 7.34139e-06 0)
(0.000132131 7.9932e-06 0)
(0.000127042 7.87974e-06 0)
(0.000123042 7.18104e-06 0)
(0.000120205 6.13249e-06 0)
(0.000118555 4.98303e-06 0)
(0.000118054 3.94543e-06 0)
(0.000118504 3.13679e-06 0)
(0.00011968 2.66048e-06 0)
(0.000121453 2.49892e-06 0)
(0.000123679 2.53623e-06 0)
(0.000126225 2.62671e-06 0)
(0.000129009 2.63548e-06 0)
(0.000131965 2.46503e-06 0)
(0.000135054 2.06683e-06 0)
(0.000138272 1.44281e-06 0)
(0.000141643 6.34335e-07 0)
(0.000145213 -3.01042e-07 0)
(0.000149042 -1.31299e-06 0)
(0.000153198 -2.35974e-06 0)
(0.000157747 -3.40841e-06 0)
(0.000162747 -4.43505e-06 0)
(0.000168239 -5.42277e-06 0)
(0.000174244 -6.36064e-06 0)
(0.000180757 -7.24287e-06 0)
(0.000187754 -8.06834e-06 0)
(0.00019519 -8.84035e-06 0)
(0.00020301 -9.56634e-06 0)
(0.000211146 -1.02579e-05 0)
(0.000219517 -1.09305e-05 0)
(0.000228036 -1.16026e-05 0)
(0.000236605 -1.22932e-05 0)
(0.000245123 -1.30188e-05 0)
(0.000253483 -1.37917e-05 0)
(0.000261564 -1.46199e-05 0)
(0.000269217 -1.55049e-05 0)
(0.000276266 -1.6439e-05 0)
(0.000282498 -1.73986e-05 0)
(0.000287664 -1.83222e-05 0)
(0.000291515 -1.9087e-05 0)
(0.000293879 -1.95319e-05 0)
(0.000294686 -1.94725e-05 0)
(0.00029415 -1.86904e-05 0)
(0.000292674 -1.716e-05 0)
(0.000290705 -1.49119e-05 0)
(0.00028876 -1.20454e-05 0)
(0.000287304 -8.71195e-06 0)
(0.000286636 -5.07806e-06 0)
(0.000286955 -1.29707e-06 0)
(0.00028822 2.37232e-06 0)
(0.000290131 5.68867e-06 0)
(0.000292264 8.47391e-06 0)
(0.000294174 1.06522e-05 0)
(0.000295409 1.22269e-05 0)
(0.000295628 1.31034e-05 0)
(0.000294655 1.29994e-05 0)
(0.000292547 1.16415e-05 0)
(0.000289716 8.93668e-06 0)
(0.000286755 5.16271e-06 0)
(0.000284188 9.74341e-07 0)
(0.0002822 -2.80887e-06 0)
(0.000280551 -5.48422e-06 0)
(0.0002788 -6.53936e-06 0)
(0.00027649 -6.05603e-06 0)
(0.00027338 -4.38981e-06 0)
(0.000269609 -2.1476e-06 0)
(0.000265473 9.47354e-08 0)
(0.000261124 1.91462e-06 0)
(0.000256415 3.07775e-06 0)
(0.000251087 3.64922e-06 0)
(0.000245068 3.75947e-06 0)
(0.00104864 4.65448e-05 0)
(0.00104296 5.6378e-05 0)
(0.00104127 6.58459e-05 0)
(0.00103717 7.47733e-05 0)
(0.00102827 8.24439e-05 0)
(0.00101371 8.84854e-05 0)
(0.000994458 9.28783e-05 0)
(0.000971644 9.57047e-05 0)
(0.000945047 9.68275e-05 0)
(0.00091428 9.60292e-05 0)
(0.000880027 9.32971e-05 0)
(0.00084337 8.83967e-05 0)
(0.000805506 8.09653e-05 0)
(0.000767459 7.13502e-05 0)
(0.000730052 6.06863e-05 0)
(0.000693938 5.02631e-05 0)
(0.000659656 4.09394e-05 0)
(0.000627685 3.29752e-05 0)
(0.000598603 2.62217e-05 0)
(0.000572919 2.04248e-05 0)
(0.000550708 1.53507e-05 0)
(0.000531951 1.08009e-05 0)
(0.000516729 6.6226e-06 0)
(0.000505022 2.71906e-06 0)
(0.000496637 -9.28587e-07 0)
(0.000491216 -4.28528e-06 0)
(0.000488466 -7.30309e-06 0)
(0.000488089 -9.88353e-06 0)
(0.000489666 -1.1993e-05 0)
(0.000492842 -1.36268e-05 0)
(0.000497294 -1.48113e-05 0)
(0.000502727 -1.55999e-05 0)
(0.000508862 -1.60305e-05 0)
(0.000515427 -1.61745e-05 0)
(0.000522196 -1.61593e-05 0)
(0.000529011 -1.61283e-05 0)
(0.000535767 -1.62138e-05 0)
(0.000542422 -1.65157e-05 0)
(0.000549023 -1.70919e-05 0)
(0.00055567 -1.79463e-05 0)
(0.000562488 -1.90427e-05 0)
(0.000569603 -2.03146e-05 0)
(0.000577125 -2.16714e-05 0)
(0.000585143 -2.3012e-05 0)
(0.000593717 -2.42452e-05 0)
(0.000602879 -2.53017e-05 0)
(0.000612639 -2.61271e-05 0)
(0.000622988 -2.66645e-05 0)
(0.000633899 -2.68475e-05 0)
(0.000645324 -2.66139e-05 0)
(0.000657194 -2.59194e-05 0)
(0.000669408 -2.47307e-05 0)
(0.000681817 -2.29945e-05 0)
(0.000694204 -2.06004e-05 0)
(0.000706267 -1.73709e-05 0)
(0.00071762 -1.31125e-05 0)
(0.000727817 -7.72733e-06 0)
(0.000736418 -1.32353e-06 0)
(0.000743052 5.73957e-06 0)
(0.000747488 1.28587e-05 0)
(0.000749736 1.92312e-05 0)
(0.000749642 2.39388e-05 0)
(0.00074709 2.60923e-05 0)
(0.000742407 2.51429e-05 0)
(0.000736066 2.10924e-05 0)
(0.000728557 1.45615e-05 0)
(0.000720308 6.64683e-06 0)
(0.000711395 -1.4126e-06 0)
(0.000701702 -8.46671e-06 0)
(0.000691456 -1.37526e-05 0)
(0.000681073 -1.68123e-05 0)
(0.000670841 -1.74512e-05 0)
(0.000660416 -1.57609e-05 0)
(0.000648822 -1.20667e-05 0)
(0.000635495 -7.12711e-06 0)
(0.000621014 -1.97095e-06 0)
(0.000607152 2.39279e-06 0)
(0.000596205 5.42485e-06 0)
(0.000589897 7.37801e-06 0)
(0.000588542 9.14726e-06 0)
(0.000591205 1.17037e-05 0)
(0.000595528 1.52865e-05 0)
(0.000598693 1.89972e-05 0)
(0.000598681 2.13593e-05 0)
(0.000594715 2.1607e-05 0)
(0.000587427 2.03056e-05 0)
(0.000578005 1.89839e-05 0)
(0.000567742 1.89939e-05 0)
(0.000557452 2.04817e-05 0)
(0.000547387 2.27935e-05 0)
(0.00132508 3.3896e-05 0)
(0.00132991 4.74698e-05 0)
(0.00133669 5.97409e-05 0)
(0.00134198 7.0753e-05 0)
(0.00134413 8.08208e-05 0)
(0.00134241 9.03669e-05 0)
(0.00133716 9.95236e-05 0)
(0.00132887 0.000108074 0)
(0.00131739 0.000115864 0)
(0.00130301 0.000123004 0)
(0.00128678 0.000129481 0)
(0.00126861 0.000134955 0)
(0.00124755 0.000138965 0)
(0.00122326 0.000141229 0)
(0.00119593 0.000141662 0)
(0.00116599 0.00014019 0)
(0.00113404 0.000136692 0)
(0.00110083 0.000131095 0)
(0.00106692 0.000123361 0)
(0.00103258 0.000113293 0)
(0.000998385 0.000100753 0)
(0.00096514 8.60127e-05 0)
(0.000933483 6.97766e-05 0)
(0.000903782 5.311e-05 0)
(0.000876308 3.71418e-05 0)
(0.000851323 2.27476e-05 0)
(0.000829076 1.04202e-05 0)
(0.000809696 2.22498e-07 0)
(0.000793279 -8.04346e-06 0)
(0.000779828 -1.46174e-05 0)
(0.000769143 -1.96835e-05 0)
(0.000761022 -2.33864e-05 0)
(0.000755215 -2.59151e-05 0)
(0.00075129 -2.74581e-05 0)
(0.000748685 -2.82258e-05 0)
(0.000746908 -2.85244e-05 0)
(0.000745625 -2.87218e-05 0)
(0.000744641 -2.91322e-05 0)
(0.000743868 -2.99578e-05 0)
(0.000743323 -3.13019e-05 0)
(0.000743083 -3.31993e-05 0)
(0.000743261 -3.55952e-05 0)
(0.000743981 -3.83956e-05 0)
(0.000745349 -4.14819e-05 0)
(0.000747435 -4.47249e-05 0)
(0.000750292 -4.80104e-05 0)
(0.000753994 -5.12523e-05 0)
(0.00075866 -5.43849e-05 0)
(0.000764457 -5.73439e-05 0)
(0.000771582 -6.00593e-05 0)
(0.000780233 -6.24402e-05 0)
(0.000790576 -6.43426e-05 0)
(0.000802708 -6.55406e-05 0)
(0.000816645 -6.57381e-05 0)
(0.000832323 -6.46282e-05 0)
(0.000849629 -6.19705e-05 0)
(0.000868425 -5.76379e-05 0)
(0.00088858 -5.16175e-05 0)
(0.000909958 -4.40029e-05 0)
(0.000932256 -3.50017e-05 0)
(0.000954897 -2.49702e-05 0)
(0.000977313 -1.44406e-05 0)
(0.000998972 -3.95752e-06 0)
(0.0010191 5.87447e-06 0)
(0.00103686 1.45438e-05 0)
(0.00105155 2.20014e-05 0)
(0.00106255 2.87859e-05 0)
(0.00106989 3.55255e-05 0)
(0.00107385 4.201e-05 0)
(0.00107451 4.73458e-05 0)
(0.00107198 5.11983e-05 0)
(0.00106606 5.49838e-05 0)
(0.00105683 6.11668e-05 0)
(0.00104459 7.0431e-05 0)
(0.00102951 7.94244e-05 0)
(0.00101189 8.17536e-05 0)
(0.000992131 7.2193e-05 0)
(0.000970441 5.05856e-05 0)
(0.000947364 2.23616e-05 0)
(0.00092396 -4.05973e-06 0)
(0.000900506 -2.10233e-05 0)
(0.000876043 -2.48213e-05 0)
(0.000849704 -1.62204e-05 0)
(0.000822911 -2.41667e-07 0)
(0.000799799 1.67321e-05 0)
(0.000784507 3.05437e-05 0)
(0.000778177 4.05385e-05 0)
(0.000777358 4.74674e-05 0)
(0.000776838 5.10428e-05 0)
(0.000773039 5.08378e-05 0)
(0.00146425 1.25158e-05 0)
(0.0014744 2.79754e-05 0)
(0.00148602 4.36709e-05 0)
(0.00149857 5.91538e-05 0)
(0.00151051 7.47616e-05 0)
(0.00152042 9.09701e-05 0)
(0.0015275 0.000107813 0)
(0.00153134 0.000124876 0)
(0.00153198 0.000141581 0)
(0.00152971 0.000157364 0)
(0.0015241 0.000171442 0)
(0.00151435 0.00018298 0)
(0.00150021 0.000191564 0)
(0.00148177 0.000197044 0)
(0.0014593 0.000199427 0)
(0.00143327 0.000198886 0)
(0.00140446 0.000195608 0)
(0.00137363 0.000189796 0)
(0.0013415 0.000181766 0)
(0.00130889 0.000171899 0)
(0.00127645 0.000160644 0)
(0.00124421 0.000148546 0)
(0.0012121 0.0001361 0)
(0.00118034 0.000123511 0)
(0.00114911 0.00011068 0)
(0.00111847 9.73959e-05 0)
(0.0010886 8.34881e-05 0)
(0.00105975 6.90176e-05 0)
(0.00103207 5.44393e-05 0)
(0.00100569 4.03999e-05 0)
(0.000980864 2.74695e-05 0)
(0.000957762 1.61052e-05 0)
(0.000936368 6.68338e-06 0)
(0.000916718 -5.31859e-07 0)
(0.000898735 -5.58363e-06 0)
(0.00088219 -8.91757e-06 0)
(0.000866889 -1.12001e-05 0)
(0.000852754 -1.30568e-05 0)
(0.000839732 -1.49514e-05 0)
(0.000827735 -1.72236e-05 0)
(0.000816775 -2.00977e-05 0)
(0.000806879 -2.36652e-05 0)
(0.000797976 -2.78e-05 0)
(0.000790001 -3.22488e-05 0)
(0.0007829 -3.68197e-05 0)
(0.000776628 -4.14968e-05 0)
(0.000771221 -4.64102e-05 0)
(0.000766917 -5.17193e-05 0)
(0.00076418 -5.74612e-05 0)
(0.000763617 -6.36224e-05 0)
(0.00076584 -7.00958e-05 0)
(0.000771318 -7.66424e-05 0)
(0.000780303 -8.2885e-05 0)
(0.000792832 -8.83509e-05 0)
(0.000808758 -9.25473e-05 0)
(0.000827793 -9.50443e-05 0)
(0.000849531 -9.55417e-05 0)
(0.000873443 -9.39049e-05 0)
(0.00089889 -9.0183e-05 0)
(0.000925233 -8.46137e-05 0)
(0.000951976 -7.75787e-05 0)
(0.000978725 -6.95343e-05 0)
(0.00100511 -6.10014e-05 0)
(0.00103081 -5.24641e-05 0)
(0.00105549 -4.42998e-05 0)
(0.00107895 -3.667e-05 0)
(0.00110122 -2.9348e-05 0)
(0.00112223 -2.17603e-05 0)
(0.00114197 -1.36364e-05 0)
(0.0011607 -5.07284e-06 0)
(0.00117851 3.85736e-06 0)
(0.00119569 1.37576e-05 0)
(0.0012127 2.56759e-05 0)
(0.00123033 3.96537e-05 0)
(0.00124934 5.43471e-05 0)
(0.00126927 6.8341e-05 0)
(0.0012878 8.10999e-05 0)
(0.00130144 9.19461e-05 0)
(0.00130714 9.96474e-05 0)
(0.00130304 0.000105223 0)
(0.00128774 0.000113597 0)
(0.00126162 0.000128616 0)
(0.00122688 0.000144071 0)
(0.00118612 0.000144975 0)
(0.00114223 0.00012125 0)
(0.00109704 7.95583e-05 0)
(0.00105075 3.97495e-05 0)
(0.0010037 1.95085e-05 0)
(0.000958462 2.30194e-05 0)
(0.000919997 4.09975e-05 0)
(0.00147187 -1.42009e-05 0)
(0.00148841 -4.00365e-06 0)
(0.00150427 9.04042e-06 0)
(0.0015207 2.4389e-05 0)
(0.00153812 4.15002e-05 0)
(0.00155541 5.99532e-05 0)
(0.00157117 7.95662e-05 0)
(0.00158456 0.000100271 0)
(0.00159517 0.000121778 0)
(0.00160273 0.00014341 0)
(0.00160726 0.000164633 0)
(0.00160907 0.000185193 0)
(0.00160828 0.000204585 0)
(0.00160455 0.000222245 0)
(0.00159747 0.00023764 0)
(0.0015867 0.000249911 0)
(0.00157153 0.000258323 0)
(0.00155136 0.000262552 0)
(0.00152618 0.000262055 0)
(0.0014961 0.000256608 0)
(0.00146138 0.000247003 0)
(0.0014233 0.000233817 0)
(0.00138342 0.000217087 0)
(0.00134263 0.000197879 0)
(0.00130195 0.000178157 0)
(0.00126271 0.000159169 0)
(0.0012256 0.0001414 0)
(0.00119073 0.000125305 0)
(0.00115811 0.000111046 0)
(0.00112731 9.81631e-05 0)
(0.00109742 8.60674e-05 0)
(0.00106802 7.46102e-05 0)
(0.0010394 6.41198e-05 0)
(0.00101158 5.5016e-05 0)
(0.000984185 4.74878e-05 0)
(0.00095728 4.13527e-05 0)
(0.000931612 3.60537e-05 0)
(0.000907714 3.08983e-05 0)
(0.000885307 2.54133e-05 0)
(0.000863854 1.94968e-05 0)
(0.000843246 1.32669e-05 0)
(0.000823856 6.78948e-06 0)
(0.000805909 8.86223e-08 0)
(0.000788838 -6.74106e-06 0)
(0.000771615 -1.35311e-05 0)
(0.000753703 -2.02873e-05 0)
(0.000735743 -2.74702e-05 0)
(0.00071955 -3.59591e-05 0)
(0.00070709 -4.6662e-05 0)
(0.000699701 -5.99011e-05 0)
(0.000698121 -7.5262e-05 0)
(0.000702503 -9.17845e-05 0)
(0.000712549 -0.000108272 0)
(0.000727664 -0.000123555 0)
(0.000747109 -0.00013664 0)
(0.00077011 -0.000146771 0)
(0.000795913 -0.000153446 0)
(0.000823809 -0.000156406 0)
(0.000853142 -0.000155627 0)
(0.000883276 -0.000151295 0)
(0.000913563 -0.000143816 0)
(0.000943378 -0.000133793 0)
(0.00097219 -0.000121934 0)
(0.000999597 -0.000108959 0)
(0.00102534 -9.55386e-05 0)
(0.00104934 -8.22387e-05 0)
(0.00107167 -6.94861e-05 0)
(0.00109265 -5.7592e-05 0)
(0.00111278 -4.66484e-05 0)
(0.00113259 -3.67763e-05 0)
(0.00115257 -2.79579e-05 0)
(0.00117313 -1.99036e-05 0)
(0.00119479 -1.22299e-05 0)
(0.00121808 -4.65689e-06 0)
(0.0012434 2.7791e-06 0)
(0.0012707 9.9554e-06 0)
(0.00129947 1.70405e-05 0)
(0.0013291 2.46205e-05 0)
(0.0013586 3.37017e-05 0)
(0.00138626 4.60807e-05 0)
(0.00141182 6.51649e-05 0)
(0.00143654 9.40281e-05 0)
(0.00146053 0.000130067 0)
(0.00148171 0.000164529 0)
(0.00149498 0.000191075 0)
(0.00149195 0.000213705 0)
(0.0014639 0.000238418 0)
(0.00141082 0.000257492 0)
(0.00134252 0.000252079 0)
(0.00126812 0.000214896 0)
(0.00148865 -5.56748e-05 0)
(0.00151411 -4.58043e-05 0)
(0.00153914 -3.23863e-05 0)
(0.00156237 -1.52202e-05 0)
(0.00158268 5.24455e-06 0)
(0.0016 2.82546e-05 0)
(0.00161435 5.31783e-05 0)
(0.00162508 7.91069e-05 0)
(0.00163174 0.000104908 0)
(0.00163479 0.000130187 0)
(0.00163503 0.000154581 0)
(0.00163285 0.000177538 0)
(0.0016285 0.000199152 0)
(0.00162249 0.000219497 0)
(0.00161524 0.000238184 0)
(0.00160666 0.000255739 0)
(0.00159696 0.000272623 0)
(0.00158663 0.000287449 0)
(0.00157506 0.000299382 0)
(0.00156085 0.000308882 0)
(0.00154307 0.0003142 0)
(0.00152046 0.000313101 0)
(0.00149153 0.000307011 0)
(0.00145661 0.000297276 0)
(0.00141721 0.000282266 0)
(0.00137415 0.000262134 0)
(0.00132878 0.000239572 0)
(0.00128341 0.000215959 0)
(0.00123907 0.000192757 0)
(0.00119599 0.000172945 0)
(0.00115579 0.000157122 0)
(0.00111964 0.000142948 0)
(0.00108572 0.000129897 0)
(0.00105176 0.000119928 0)
(0.00101847 0.000113017 0)
(0.000987719 0.00010612 0)
(0.000958821 9.74133e-05 0)
(0.000929239 8.85403e-05 0)
(0.000898511 8.15343e-05 0)
(0.000869136 7.54775e-05 0)
(0.000843132 6.77965e-05 0)
(0.000819077 5.7942e-05 0)
(0.000793195 4.8441e-05 0)
(0.000762916 4.23281e-05 0)
(0.000729145 3.95459e-05 0)
(0.000695588 3.61528e-05 0)
(0.000666592 2.72249e-05 0)
(0.000645286 1.00763e-05 0)
(0.000633193 -1.49227e-05 0)
(0.000630562 -4.52536e-05 0)
(0.0006366 -7.78365e-05 0)
(0.000649988 -0.000109971 0)
(0.000669266 -0.000139633 0)
(0.00069305 -0.000165463 0)
(0.00072014 -0.000186629 0)
(0.000749562 -0.000202671 0)
(0.000780548 -0.000213382 0)
(0.000812487 -0.000218742 0)
(0.000844863 -0.000218902 0)
(0.000877176 -0.000214215 0)
(0.000908895 -0.000205275 0)
(0.00093948 -0.00019292 0)
(0.00096844 -0.000178197 0)
(0.000995397 -0.000162263 0)
(0.00102015 -0.000146242 0)
(0.0010427 -0.00013106 0)
(0.00106329 -0.000117349 0)
(0.00108233 -0.000105452 0)
(0.00110045 -9.54989e-05 0)
(0.00111836 -8.74715e-05 0)
(0.00113677 -8.1198e-05 0)
(0.00115634 -7.62904e-05 0)
(0.00117787 -7.22218e-05 0)
(0.00120202 -6.84751e-05 0)
(0.00122905 -6.45334e-05 0)
(0.00125879 -5.97244e-05 0)
(0.00129085 -5.32435e-05 0)
(0.00132454 -4.44741e-05 0)
(0.00135896 -3.3104e-05 0)
(0.00139378 -1.84399e-05 0)
(0.00142868 1.47268e-06 0)
(0.00146327 2.8287e-05 0)
(0.00149807 6.08514e-05 0)
(0.00153259 9.48522e-05 0)
(0.00156381 0.000128193 0)
(0.00158898 0.000165485 0)
(0.00160915 0.000211603 0)
(0.00162634 0.000261764 0)
(0.00163756 0.000305719 0)
(0.00163378 0.000341774 0)
(0.00158187 -0.000133417 0)
(0.00161286 -0.000117737 0)
(0.0016434 -9.72656e-05 0)
(0.00167398 -7.24266e-05 0)
(0.00170321 -4.32661e-05 0)
(0.00172887 -9.97183e-06 0)
(0.00174942 2.62638e-05 0)
(0.00176364 6.41635e-05 0)
(0.0017707 0.000103131 0)
(0.00177064 0.000141564 0)
(0.00176368 0.000177914 0)
(0.00175008 0.000211357 0)
(0.00173041 0.000240388 0)
(0.00170581 0.000263686 0)
(0.00167763 0.000281797 0)
(0.00164759 0.000295001 0)
(0.00161784 0.000303214 0)
(0.00158974 0.000309447 0)
(0.00156421 0.000317041 0)
(0.00154263 0.00032532 0)
(0.00152515 0.000333979 0)
(0.00150958 0.000344669 0)
(0.00149355 0.000354299 0)
(0.00147537 0.000357673 0)
(0.0014523 0.000355872 0)
(0.00142225 0.000350567 0)
(0.00138595 0.000338444 0)
(0.00134463 0.000320328 0)
(0.00129923 0.000301474 0)
(0.00125261 0.000280154 0)
(0.0012076 0.000253053 0)
(0.00116392 0.000227692 0)
(0.00112076 0.000212616 0)
(0.00107981 0.000202632 0)
(0.00104246 0.000188249 0)
(0.00100677 0.000172235 0)
(0.000970268 0.000164073 0)
(0.000933913 0.000162854 0)
(0.000900628 0.000157122 0)
(0.000870426 0.000141209 0)
(0.000838888 0.000123665 0)
(0.000800886 0.000117312 0)
(0.000755362 0.000124499 0)
(0.000706739 0.000134606 0)
(0.000662118 0.000134134 0)
(0.000627328 0.00011623 0)
(0.000604982 8.18693e-05 0)
(0.000594841 3.61038e-05 0)
(0.000595408 -1.53207e-05 0)
(0.000604826 -6.76305e-05 0)
(0.000621138 -0.00011747 0)
(0.000642673 -0.000162646 0)
(0.000668072 -0.000201835 0)
(0.000696196 -0.000234363 0)
(0.000726107 -0.000260043 0)
(0.000757068 -0.000279009 0)
(0.000788565 -0.000291538 0)
(0.000820322 -0.000297923 0)
(0.000852248 -0.000298402 0)
(0.000884342 -0.000293193 0)
(0.000916587 -0.000282615 0)
(0.000948839 -0.000267246 0)
(0.000980764 -0.000248028 0)
(0.00101189 -0.000226266 0)
(0.00104174 -0.000203484 0)
(0.00106996 -0.000181232 0)
(0.00109633 -0.000160909 0)
(0.00112085 -0.000143638 0)
(0.00114377 -0.000130139 0)
(0.00116569 -0.000120668 0)
(0.00118733 -0.000115059 0)
(0.00120943 -0.000112837 0)
(0.00123266 -0.000113294 0)
(0.00125761 -0.000115518 0)
(0.00128469 -0.000118428 0)
(0.00131401 -0.000120835 0)
(0.0013454 -0.000121483 0)
(0.00137854 -0.000119047 0)
(0.00141296 -0.000112315 0)
(0.0014479 -0.000100413 0)
(0.00148277 -8.2698e-05 0)
(0.00151762 -5.81264e-05 0)
(0.00155256 -2.63574e-05 0)
(0.00158701 1.09028e-05 0)
(0.00161999 5.22565e-05 0)
(0.00165059 9.90526e-05 0)
(0.00167867 0.000152576 0)
(0.00170448 0.000209443 0)
(0.00172664 0.000265089 0)
(0.00174211 0.00031927 0)
(0.00152434 -0.000206718 0)
(0.00156294 -0.000194457 0)
(0.00160393 -0.000174926 0)
(0.00164741 -0.00014814 0)
(0.00169178 -0.000114226 0)
(0.00173468 -7.36632e-05 0)
(0.00177379 -2.72264e-05 0)
(0.00180808 2.38339e-05 0)
(0.00183625 7.78452e-05 0)
(0.00185661 0.00013322 0)
(0.00186823 0.000188376 0)
(0.00187016 0.000241102 0)
(0.00186191 0.000289335 0)
(0.00184323 0.000331864 0)
(0.00181445 0.000366832 0)
(0.00177689 0.000392032 0)
(0.00173179 0.000407607 0)
(0.00168096 0.000413963 0)
(0.00162819 0.000409961 0)
(0.00157713 0.000398782 0)
(0.00153048 0.000388401 0)
(0.00149172 0.000382697 0)
(0.00146285 0.000381336 0)
(0.00144082 0.000385925 0)
(0.00142127 0.000395629 0)
(0.00140262 0.000403466 0)
(0.00138225 0.000405234 0)
(0.00135555 0.000401949 0)
(0.00132219 0.000391355 0)
(0.00128513 0.000371552 0)
(0.00124357 0.000349639 0)
(0.00119628 0.000331735 0)
(0.0011482 0.000313081 0)
(0.00110484 0.000290418 0)
(0.00106422 0.000271803 0)
(0.00102156 0.000263276 0)
(0.000978092 0.000256829 0)
(0.000939071 0.000241776 0)
(0.000904484 0.000221562 0)
(0.000866995 0.000211094 0)
(0.000819666 0.000219115 0)
(0.000763526 0.000237997 0)
(0.000706733 0.000250554 0)
(0.000657948 0.000243168 0)
(0.000621658 0.000212183 0)
(0.00059805 0.000161942 0)
(0.000585091 9.97655e-05 0)
(0.000580454 3.24321e-05 0)
(0.000582608 -3.50184e-05 0)
(0.000590659 -9.95678e-05 0)
(0.000603984 -0.000159154 0)
(0.000622196 -0.000212168 0)
(0.000644796 -0.000257427 0)
(0.000670981 -0.000294232 0)
(0.000699689 -0.000322473 0)
(0.000729774 -0.000342593 0)
(0.000760239 -0.000355413 0)
(0.00079043 -0.000361855 0)
(0.000820117 -0.000362684 0)
(0.000849452 -0.000358393 0)
(0.000878809 -0.000349251 0)
(0.000908597 -0.000335498 0)
(0.000939101 -0.000317576 0)
(0.000970393 -0.0002963 0)
(0.00100229 -0.000272882 0)
(0.00103442 -0.000248841 0)
(0.00106645 -0.000225832 0)
(0.00109821 -0.000205484 0)
(0.00112971 -0.000189185 0)
(0.00116118 -0.000177847 0)
(0.00119304 -0.000171749 0)
(0.00122584 -0.00017059 0)
(0.00126011 -0.00017363 0)
(0.00129633 -0.00017965 0)
(0.00133472 -0.000186862 0)
(0.00137522 -0.000193151 0)
(0.00141739 -0.000196632 0)
(0.00146049 -0.000195745 0)
(0.00150372 -0.00018903 0)
(0.00154624 -0.000175356 0)
(0.0015871 -0.000154344 0)
(0.00162549 -0.000126042 0)
(0.001661 -9.06416e-05 0)
(0.00169356 -4.90672e-05 0)
(0.00172245 -2.7577e-06 0)
(0.00174669 4.77266e-05 0)
(0.00176661 0.000102322 0)
(0.00178344 0.000159456 0)
(0.00179821 0.000217621 0)
(0.0018114 0.000277584 0)
(0.00123466 -0.000293089 0)
(0.00128506 -0.000292872 0)
(0.00134155 -0.00028215 0)
(0.00140387 -0.000260404 0)
(0.00146989 -0.00022765 0)
(0.00153669 -0.000184482 0)
(0.00160128 -0.000131664 0)
(0.00166099 -7.01709e-05 0)
(0.00171483 -2.09925e-06 0)
(0.00176211 7.00456e-05 0)
(0.00180075 0.000143733 0)
(0.00182959 0.000216993 0)
(0.00184834 0.000287847 0)
(0.00185644 0.000353844 0)
(0.00185325 0.000412426 0)
(0.001838 0.000462386 0)
(0.00181044 0.000502298 0)
(0.00177182 0.000529016 0)
(0.00172329 0.000541462 0)
(0.0016653 0.000540575 0)
(0.00160137 0.000524833 0)
(0.001538 0.000496537 0)
(0.00148017 0.000468234 0)
(0.00143134 0.000450114 0)
(0.00139447 0.00044018 0)
(0.00136834 0.000435987 0)
(0.00134656 0.0004405 0)
(0.00132401 0.000449594 0)
(0.00129954 0.000452501 0)
(0.0012711 0.000448423 0)
(0.00123604 0.000443311 0)
(0.00119656 0.000433 0)
(0.00115695 0.000410803 0)
(0.00111666 0.000385186 0)
(0.00107295 0.000369193 0)
(0.0010279 0.000359457 0)
(0.000986229 0.000343332 0)
(0.000947446 0.000321837 0)
(0.000904883 0.000311154 0)
(0.000853169 0.00032192 0)
(0.000794141 0.000345818 0)
(0.000735152 0.000362891 0)
(0.000683292 0.000357041 0)
(0.000641672 0.000323909 0)
(0.000609741 0.000268483 0)
(0.000585608 0.000198877 0)
(0.000567905 0.000121988 0)
(0.000556401 4.23595e-05 0)
(0.000550899 -3.71053e-05 0)
(0.000551527 -0.000114136 0)
(0.000559186 -0.000186455 0)
(0.000574239 -0.00025168 0)
(0.000596282 -0.000307605 0)
(0.0006243 -0.000352578 0)
(0.000656776 -0.000385846 0)
(0.00069188 -0.000407749 0)
(0.000727734 -0.000419645 0)
(0.000762723 -0.000423518 0)
(0.000795814 -0.000421422 0)
(0.000826725 -0.000414985 0)
(0.000855858 -0.000405172 0)
(0.000884032 -0.000392384 0)
(0.000912146 -0.000376776 0)
(0.000940919 -0.000358634 0)
(0.000970777 -0.000338634 0)
(0.00100188 -0.000317919 0)
(0.00103423 -0.000297994 0)
(0.00106781 -0.000280538 0)
(0.00110265 -0.000267157 0)
(0.00113893 -0.000259061 0)
(0.00117696 -0.000256802 0)
(0.00121714 -0.000260143 0)
(0.00125983 -0.00026812 0)
(0.00130515 -0.000279106 0)
(0.00135294 -0.000290838 0)
(0.00140272 -0.000300625 0)
(0.00145374 -0.000305998 0)
(0.00150507 -0.000305178 0)
(0.0015557 -0.000296773 0)
(0.00160471 -0.00027958 0)
(0.00165121 -0.000253106 0)
(0.00169439 -0.000217783 0)
(0.00173376 -0.000174165 0)
(0.00176914 -0.00012297 0)
(0.00180012 -6.56795e-05 0)
(0.00182662 -3.62518e-06 0)
(0.00184845 6.24723e-05 0)
(0.00186515 0.000130969 0)
(0.00187651 0.000199057 0)
(0.00188263 0.000265389 0)
(0.000846726 -0.000411234 0)
(0.000912854 -0.000427789 0)
(0.000986364 -0.000430506 0)
(0.00106631 -0.000418782 0)
(0.00115091 -0.00039187 0)
(0.00123794 -0.000349148 0)
(0.00132461 -0.000291385 0)
(0.00140788 -0.000220817 0)
(0.0014851 -0.000139867 0)
(0.0015549 -5.09028e-05 0)
(0.00161699 4.29568e-05 0)
(0.00167012 0.000137814 0)
(0.00171268 0.000230818 0)
(0.00174438 0.000319946 0)
(0.00176522 0.000403291 0)
(0.00177496 0.000478616 0)
(0.00177319 0.000543055 0)
(0.00175925 0.000594665 0)
(0.00173278 0.000633498 0)
(0.00169476 0.000657403 0)
(0.00164614 0.00066142 0)
(0.00158667 0.000645375 0)
(0.00151983 0.000614463 0)
(0.00145479 0.000574099 0)
(0.00139863 0.000533889 0)
(0.00135194 0.000508101 0)
(0.00131416 0.000501283 0)
(0.00128571 0.000503234 0)
(0.00126353 0.000505279 0)
(0.00124117 0.000508478 0)
(0.00121581 0.000510589 0)
(0.00118883 0.00050264 0)
(0.00115905 0.000485228 0)
(0.00112275 0.000470465 0)
(0.00108087 0.000462003 0)
(0.00103893 0.00044986 0)
(0.00099882 0.000430398 0)
(0.000955686 0.000417136 0)
(0.000904274 0.000424815 0)
(0.00084531 0.0004505 0)
(0.000784839 0.000475025 0)
(0.000729227 0.000478754 0)
(0.000681541 0.000453376 0)
(0.000641645 0.000401811 0)
(0.000608314 0.000331641 0)
(0.000580822 0.0002497 0)
(0.000559272 0.000160463 0)
(0.000544229 6.6776e-05 0)
(0.000536257 -2.8973e-05 0)
(0.000535653 -0.000123756 0)
(0.000542609 -0.000214325 0)
(0.000557242 -0.000297271 0)
(0.000579342 -0.000369295 0)
(0.000608372 -0.000427625 0)
(0.000643348 -0.000470481 0)
(0.000682756 -0.000497492 0)
(0.000724627 -0.000509909 0)
(0.00076682 -0.000510443 0)
(0.000807454 -0.000502643 0)
(0.000845347 -0.000489996 0)
(0.000880257 -0.000475127 0)
(0.0009128 -0.00045942 0)
(0.000944091 -0.000443203 0)
(0.00097529 -0.000426292 0)
(0.00100724 -0.00040862 0)
(0.00104032 -0.000390675 0)
(0.00107455 -0.000373635 0)
(0.00110982 -0.000359198 0)
(0.00114616 -0.000349207 0)
(0.00118382 -0.000345194 0)
(0.00122328 -0.000347951 0)
(0.00126512 -0.000357219 0)
(0.00130976 -0.000371607 0)
(0.00135724 -0.000388736 0)
(0.00140711 -0.00040554 0)
(0.00145856 -0.000418724 0)
(0.00151055 -0.000425344 0)
(0.00156194 -0.000423317 0)
(0.00161159 -0.000411334 0)
(0.00165854 -0.000388535 0)
(0.0017021 -0.000354729 0)
(0.00174184 -0.000310702 0)
(0.00177748 -0.000257622 0)
(0.00180886 -0.000196612 0)
(0.00183582 -0.000129202 0)
(0.00185843 -5.70682e-05 0)
(0.00187732 1.88011e-05 0)
(0.00189227 9.77466e-05 0)
(0.00190249 0.000177554 0)
(0.00190782 0.000255819 0)
(0.000485825 -0.000569158 0)
(0.000562271 -0.000601991 0)
(0.000643542 -0.000619019 0)
(0.00073113 -0.000618336 0)
(0.000824685 -0.000598309 0)
(0.000922554 -0.000557901 0)
(0.0010223 -0.000497093 0)
(0.00112094 -0.000417409 0)
(0.00121529 -0.000322315 0)
(0.00130273 -0.000216275 0)
(0.00138159 -0.000103408 0)
(0.00145175 1.29345e-05 0)
(0.00151251 0.000129258 0)
(0.00156251 0.0002414 0)
(0.00160174 0.000346283 0)
(0.00163067 0.000443477 0)
(0.00164959 0.000532669 0)
(0.00165784 0.000610853 0)
(0.00165462 0.000673969 0)
(0.00164008 0.000720759 0)
(0.00161375 0.000752233 0)
(0.00157472 0.000765057 0)
(0.00152488 0.000751522 0)
(0.00146796 0.000712999 0)
(0.00140761 0.000664994 0)
(0.00135036 0.00062188 0)
(0.00130439 0.000586991 0)
(0.00127181 0.000561579 0)
(0.00124685 0.000550397 0)
(0.00122369 0.000552393 0)
(0.00120117 0.000556565 0)
(0.00117815 0.000555199 0)
(0.00115034 0.000552666 0)
(0.00111572 0.000553217 0)
(0.00107804 0.000550019 0)
(0.00104109 0.000536557 0)
(0.00100278 0.000521755 0)
(0.000958116 0.000522912 0)
(0.000905749 0.000545577 0)
(0.000849623 0.000576346 0)
(0.000795389 0.000594018 0)
(0.000746639 0.000584263 0)
(0.000704151 0.000544648 0)
(0.000667437 0.000480348 0)
(0.000636095 0.000398181 0)
(0.000610079 0.000303647 0)
(0.000589464 0.000200671 0)
(0.000574403 9.22898e-05 0)
(0.000565189 -1.87577e-05 0)
(0.000561968 -0.000129383 0)
(0.000564822 -0.000236276 0)
(0.000574133 -0.00033578 0)
(0.000590243 -0.000424134 0)
(0.000613338 -0.000497796 0)
(0.000643269 -0.000553897 0)
(0.00067935 -0.000590795 0)
(0.00072024 -0.000608643 0)
(0.00076396 -0.000609723 0)
(0.000808191 -0.000598238 0)
(0.000850836 -0.000579403 0)
(0.000890656 -0.000558061 0)
(0.000927585 -0.000537473 0)
(0.00096254 -0.000518854 0)
(0.000996832 -0.000501795 0)
(0.00103155 -0.000485278 0)
(0.00106717 -0.000468746 0)
(0.00110365 -0.000452769 0)
(0.00114068 -0.000439115 0)
(0.00117819 -0.000430239 0)
(0.0012165 -0.000428454 0)
(0.00125632 -0.000435054 0)
(0.00129844 -0.000449686 0)
(0.00134333 -0.000470204 0)
(0.00139091 -0.000493052 0)
(0.00144044 -0.000514012 0)
(0.00149078 -0.000529019 0)
(0.00154064 -0.00053483 0)
(0.00158876 -0.00052935 0)
(0.00163405 -0.000511529 0)
(0.00167571 -0.000481117 0)
(0.00171336 -0.000438645 0)
(0.00174687 -0.000385389 0)
(0.00177615 -0.000322814 0)
(0.00180123 -0.000252282 0)
(0.00182219 -0.000175539 0)
(0.00183917 -9.45232e-05 0)
(0.00185284 -1.04937e-05 0)
(0.00186326 7.56767e-05 0)
(0.00187011 0.000162877 0)
(0.00187362 0.000249564 0)
(0.000291781 -0.000744761 0)
(0.000356383 -0.00078762 0)
(0.000421808 -0.00081583 0)
(0.000492665 -0.000826766 0)
(0.000571319 -0.000816956 0)
(0.000658253 -0.000783346 0)
(0.000752187 -0.00072436 0)
(0.000850231 -0.000640722 0)
(0.000948637 -0.000535463 0)
(0.00104384 -0.0004135 0)
(0.00113269 -0.000280986 0)
(0.0012132 -0.000143691 0)
(0.00128501 -6.25687e-06 0)
(0.00134774 0.000128222 0)
(0.00140055 0.00025655 0)
(0.00144371 0.000375513 0)
(0.0014777 0.000484115 0)
(0.00150248 0.00058262 0)
(0.00151784 0.000669504 0)
(0.00152347 0.000742159 0)
(0.00151849 0.000798047 0)
(0.00150225 0.000832642 0)
(0.00147418 0.000841733 0)
(0.00143364 0.000826168 0)
(0.00138387 0.000788829 0)
(0.00133315 0.000733704 0)
(0.00128791 0.00067401 0)
(0.0012483 0.000629887 0)
(0.00121284 0.000610727 0)
(0.00118271 0.000607888 0)
(0.00115862 0.000609016 0)
(0.00113694 0.000611971 0)
(0.00111298 0.000619221 0)
(0.0010864 0.000625642 0)
(0.00105977 0.000622223 0)
(0.00103275 0.000610985 0)
(0.00100122 0.000607237 0)
(0.000962107 0.000623793 0)
(0.000916861 0.000656816 0)
(0.000869968 0.000688128 0)
(0.000825481 0.000698533 0)
(0.000785339 0.000678153 0)
(0.000749928 0.000627288 0)
(0.000719142 0.000551753 0)
(0.000692769 0.00045841 0)
(0.000670567 0.000352978 0)
(0.000652406 0.000239503 0)
(0.000638217 0.000120748 0)
(0.000628411 -9.13068e-07 0)
(0.000623328 -0.00012289 0)
(0.000623122 -0.0002421 0)
(0.000628361 -0.000355061 0)
(0.000639525 -0.000457979 0)
(0.000657045 -0.000546901 0)
(0.000681124 -0.000618068 0)
(0.000711546 -0.000668511 0)
(0.00074759 -0.000696773 0)
(0.000787935 -0.000703625 0)
(0.000830605 -0.00069256 0)