/*--------------------------------*- C++ -*----------------------------------*\
| =========                 |                                                 |
| \\      /  F ield         | OpenFOAM: The Open Source CFD Toolbox           |
|  \\    /   O peration     | Version:  2312                                  |
|   \\  /    A nd           | Website:  www.openfoam.com                      |
|    \\/     M anipulation  |                                                 |
\*---------------------------------------------------------------------------*/
FoamFile
{
    version     2.0;
    format      ascii;
    arch        "LSB;label=32;scalar=64";
    class       surfaceScalarField;
    location    "194000";
    object      phi;
}
// * * * * * * * * * * * * * * * * * * * * * * * * * * * * * * * * * * * * * //

dimensions      [0 3 -1 0 0 0 0];

oriented        oriented;

internalField   nonuniform List<scalar> 
21240
(
0.000664979
1.68739e-06
0.000661091
3.88845e-06
0.000655793
5.29828e-06
0.000649587
6.20547e-06
0.000642751
6.83613e-06
0.000635426
7.32499e-06
0.000627703
7.72262e-06
0.000619661
8.04219e-06
0.000611371
8.28976e-06
0.000602897
8.47438e-06
0.000594289
8.60843e-06
0.000585584
8.70427e-06
0.000576813
8.77161e-06
0.000567996
8.81684e-06
0.000559152
8.84381e-06
0.000550297
8.85502e-06
0.000541445
8.85234e-06
0.000532607
8.83735e-06
0.000523796
8.81135e-06
0.000515021
8.77542e-06
0.00050629
8.73032e-06
0.000497614
8.67659e-06
0.000488999
8.61457e-06
0.000480455
8.54447e-06
0.000471988
8.46638e-06
0.000463608
8.3803e-06
0.000455322
8.28623e-06
0.000447138
8.18399e-06
0.000439064
8.07355e-06
0.00043111
7.95458e-06
0.000423282
7.82713e-06
0.000415592
7.69065e-06
0.000408046
7.5455e-06
0.000400656
7.3907e-06
0.000393428
7.22725e-06
0.000386375
7.05344e-06
0.000379503
6.87142e-06
0.000372825
6.67805e-06
0.000366348
6.47768e-06
0.000360083
6.26439e-06
0.000354037
6.04657e-06
0.000348224
5.81302e-06
0.000342644
5.57952e-06
0.000337319
5.32501e-06
0.00033224
5.07876e-06
0.000327439
4.80143e-06
0.000322892
4.54691e-06
0.00031865
4.24211e-06
0.000314664
3.98612e-06
0.000311021
3.64296e-06
0.000307624
3.39678e-06
0.000304635
2.98938e-06
0.000301858
2.77633e-06
0.000299621
2.23742e-06
0.000297507
2.11412e-06
0.000296273
1.23364e-06
0.000294804
1.46904e-06
0.000295041
-2.37146e-07
0.000293897
1.14413e-06
-3.24491e-06
0.000297142
0.000667559
7.94626e-07
0.000669135
2.31246e-06
0.000670889
3.54505e-06
0.000672588
4.5066e-06
0.000674152
5.27168e-06
0.000675568
5.90916e-06
0.00067683
6.46074e-06
0.000677927
6.94492e-06
0.000678848
7.36886e-06
0.000679585
7.73714e-06
0.000680138
8.05549e-06
0.000680511
8.33094e-06
0.000680712
8.5706e-06
0.000680749
8.7804e-06
0.000680628
8.96474e-06
0.000680356
9.12659e-06
0.000679941
9.26816e-06
0.000679387
9.39102e-06
0.000678702
9.49664e-06
0.000677891
9.58605e-06
0.000676961
9.66032e-06
0.000675918
9.71993e-06
0.000674767
9.76563e-06
0.000673514
9.79735e-06
0.000672164
9.81569e-06
0.000670725
9.8201e-06
0.0006692
9.81125e-06
0.000667595
9.78801e-06
0.000665918
9.75147e-06
0.000664172
9.69967e-06
0.000662365
9.63452e-06
0.000660503
9.55282e-06
0.00065859
9.45795e-06
0.000656636
9.34476e-06
0.000654644
9.21918e-06
0.000652625
9.07279e-06
0.000650581
8.91582e-06
0.000648524
8.73444e-06
0.000646456
8.54606e-06
0.000644393
8.32776e-06
0.00064233
8.10891e-06
0.000640292
7.8514e-06
0.000638267
7.60441e-06
0.000636287
7.30456e-06
0.000634332
7.03374e-06
0.000632447
6.68671e-06
0.000630595
6.39927e-06
0.00062884
5.99709e-06
0.000627121
5.70457e-06
0.00062553
5.23411e-06
0.000623972
4.95476e-06
0.000622567
4.39502e-06
0.000621186
4.15741e-06
0.000619946
3.4769e-06
0.000618736
3.32411e-06
0.000617487
2.48269e-06
0.000616485
2.47087e-06
0.000614797
1.45153e-06
0.00061431
1.63019e-06
5.10014e-07
0.000610556
0.000666955
5.05916e-07
0.000667836
1.43227e-06
0.000669096
2.28501e-06
0.000670548
3.05427e-06
0.000672084
3.73608e-06
0.000673654
4.33823e-06
0.000675242
4.87306e-06
0.000676835
5.3518e-06
0.000678422
5.78238e-06
0.000679989
6.16982e-06
0.000681527
6.51779e-06
0.000683028
6.82967e-06
0.00068449
7.10907e-06
0.00068591
7.35954e-06
0.000687291
7.58442e-06
0.000688631
7.78638e-06
0.000689931
7.96768e-06
0.000691193
8.12988e-06
0.000692415
8.27447e-06
0.000693599
8.40231e-06
0.000694744
8.51452e-06
0.000695853
8.61145e-06
0.000696924
8.694e-06
0.00069796
8.76196e-06
0.000698959
8.81619e-06
0.000699924
8.85587e-06
0.000700853
8.88202e-06
0.000701748
8.89311e-06
0.000702609
8.89061e-06
0.000703436
8.87208e-06
0.000704231
8.83986e-06
0.000704993
8.79016e-06
0.000705725
8.72681e-06
0.000706425
8.64406e-06
0.000707096
8.54806e-06
0.000707739
8.43016e-06
0.000708355
8.30014e-06
0.000708944
8.1449e-06
0.000709511
7.97977e-06
0.000710053
7.78502e-06
0.000710578
7.5842e-06
0.000711082
7.34785e-06
0.000711575
7.11144e-06
0.000712048
6.83153e-06
0.000712521
6.56049e-06
0.000712972
6.23532e-06
0.00071344
5.93157e-06
0.000713877
5.56005e-06
0.000714355
5.22654e-06
0.00071478
4.80878e-06
0.000715286
4.44914e-06
0.000715693
3.98765e-06
0.000716245
3.60528e-06
0.000716614
3.10811e-06
0.000717233
2.70506e-06
0.000717522
2.19439e-06
0.000718222
1.77026e-06
0.000718374
1.29983e-06
0.000719163
8.40671e-07
5.19936e-07
0.000719153
0.000666857
3.15146e-07
0.000667323
9.6677e-07
0.000668004
1.60363e-06
0.000668853
2.20542e-06
0.000669826
2.76317e-06
0.00067089
3.27417e-06
0.000672023
3.74017e-06
0.00067321
4.16497e-06
0.00067444
4.55264e-06
0.000675703
4.90653e-06
0.000676991
5.22928e-06
0.000678298
5.52305e-06
0.000679617
5.78993e-06
0.000680945
6.03195e-06
0.000682278
6.25119e-06
0.000683615
6.44951e-06
0.000684954
6.62861e-06
0.000686294
6.7898e-06
0.000687634
6.93427e-06
0.000688974
7.06282e-06
0.000690312
7.17626e-06
0.000691648
7.27503e-06
0.000692983
7.3597e-06
0.000694314
7.43035e-06
0.000695643
7.48739e-06
0.000696968
7.53056e-06
0.00069829
7.56019e-06
0.000699608
7.57568e-06
0.000700921
7.57735e-06
0.000702229
7.56428e-06
0.000703532
7.5369e-06
0.000704828
7.49391e-06
0.000706119
7.43596e-06
0.000707402
7.36135e-06
0.000708679
7.27105e-06
0.000709946
7.16297e-06
0.000711207
7.0384e-06
0.000712457
6.89496e-06
0.000713703
6.73415e-06
0.000714934
6.55363e-06
0.000716164
6.35462e-06
0.000717376
6.13563e-06
0.000718591
5.89649e-06
0.000719784
5.63827e-06
0.000720988
5.35694e-06
0.000722164
5.05972e-06
0.000723361
4.73382e-06
0.000724522
4.3994e-06
0.000725723
4.02584e-06
0.000726873
3.6589e-06
0.000728088
3.23372e-06
0.000729231
2.84434e-06
0.000730474
2.36265e-06
0.000731613
1.96942e-06
0.000732895
1.42311e-06
0.000734031
1.05761e-06
0.000735368
4.34028e-07
0.00073652
1.46892e-07
0.000737981
-6.19687e-07
-7.74074e-07
0.000739275
0.000666741
2.40686e-07
0.000666983
7.2518e-07
0.000667387
1.19949e-06
0.000667935
1.65722e-06
0.000668606
2.09265e-06
0.000669377
2.50244e-06
0.000670232
2.88532e-06
0.000671156
3.24157e-06
0.000672136
3.57221e-06
0.000673164
3.87853e-06
0.000674232
4.16173e-06
0.000675332
4.42291e-06
0.000676458
4.6631e-06
0.000677607
4.88336e-06
0.000678774
5.08474e-06
0.000679955
5.26833e-06
0.000681148
5.4351e-06
0.000682352
5.58595e-06
0.000683565
5.72161e-06
0.000684785
5.84272e-06
0.000686011
5.94974e-06
0.000687243
6.0431e-06
0.00068848
6.123e-06
0.000689721
6.18971e-06
0.000690965
6.24321e-06
0.000692212
6.28363e-06
0.000693461
6.31071e-06
0.000694712
6.32453e-06
0.000695965
6.32456e-06
0.000697218
6.3109e-06
0.000698473
6.2827e-06
0.000699726
6.24027e-06
0.00070098
6.18226e-06
0.000702232
6.10944e-06
0.000703483
6.01973e-06
0.000704731
5.91472e-06
0.000705979
5.79117e-06
0.000707222
5.65214e-06
0.000708463
5.49241e-06
0.000709699
5.31761e-06
0.000710935
5.11917e-06
0.000712163
4.90717e-06
0.000713392
4.6673e-06
0.000714613
4.41721e-06
0.000715838
4.13289e-06
0.000717052
3.84485e-06
0.000718274
3.51262e-06
0.000719485
3.18833e-06
0.000720707
2.80361e-06
0.000721919
2.44652e-06
0.000723151
2.00155e-06
0.000724379
1.61686e-06
0.000725643
1.09865e-06
0.000726917
6.95086e-07
0.000728261
7.89817e-08
0.000729626
-3.06808e-07
0.000731064
-1.00398e-06
0.000732568
-1.35761e-06
0.000734166
-2.21742e-06
-2.49945e-06
0.000735891
0.000666729
1.78836e-07
0.000666915
5.39098e-07
0.000667217
8.97359e-07
0.000667626
1.24763e-06
0.000668132
1.58651e-06
0.000668724
1.91132e-06
0.000669389
2.22025e-06
0.000670118
2.51227e-06
0.000670903
2.78703e-06
0.000671737
3.04455e-06
0.000672614
3.28509e-06
0.000673528
3.50904e-06
0.000674474
3.71687e-06
0.000675448
3.90909e-06
0.000676447
4.08622e-06
0.000677466
4.24881e-06
0.000678504
4.39736e-06
0.000679557
4.5324e-06
0.000680625
4.6543e-06
0.000681704
4.76349e-06
0.000682794
4.86015e-06
0.000683892
4.9446e-06
0.000684998
5.01682e-06
0.000686111
5.07703e-06
0.000687229
5.125e-06
0.000688352
5.16091e-06
0.000689478
5.18428e-06
0.000690608
5.19528e-06
0.000691739
5.19316e-06
0.000692872
5.17821e-06
0.000694005
5.14927e-06
0.000695138
5.10689e-06
0.000696271
5.04941e-06
0.000697403
4.97786e-06
0.000698533
4.88979e-06
0.00069966
4.78708e-06
0.000700786
4.66609e-06
0.000701908
4.53011e-06
0.000703026
4.37362e-06
0.000704142
4.20223e-06
0.000705254
4.00738e-06
0.000706362
3.79852e-06
0.000707467
3.56214e-06
0.000708571
3.31394e-06
0.000709671
3.03234e-06
0.000710773
2.74327e-06
0.000711874
2.41187e-06
0.000712981
2.08104e-06
0.00071409
1.69455e-06
0.000715213
1.32366e-06
0.000716337
8.77659e-07
0.000717479
4.73986e-07
0.000718607
-2.89184e-08
0.000719784
-4.81581e-07
0.000720957
-1.09472e-06
0.000722206
-1.55559e-06
0.000723478
-2.27548e-06
0.000724858
-2.73748e-06
0.000726246
-3.60538e-06
-4.03808e-06
0.000727784
0.000666712
1.33944e-07
0.000666846
4.04375e-07
0.000667069
6.74698e-07
0.000667376
9.40921e-07
0.000667761
1.20084e-06
0.00066822
1.45263e-06
0.000668745
1.69487e-06
0.000669331
1.92657e-06
0.000669971
2.1472e-06
0.000670659
2.3566e-06
0.00067139
2.55359e-06
0.000672161
2.7384e-06
0.000672967
2.9113e-06
0.000673803
3.07247e-06
0.000674667
3.2221e-06
0.000675556
3.36039e-06
0.000676466
3.48754e-06
0.000677394
3.60378e-06
0.000678339
3.70925e-06
0.000679299
3.80413e-06
0.00068027
3.88843e-06
0.000681253
3.96228e-06
0.000682244
4.02554e-06
0.000683243
4.07827e-06
0.000684248
4.12016e-06
0.000685257
4.15124e-06
0.00068627
4.17101e-06
0.000687286
4.17949e-06
0.000688303
4.17596e-06
0.000689321
4.16049e-06
0.000690338
4.13208e-06
0.000691354
4.09096e-06
0.000692368
4.03575e-06
0.000693379
3.96699e-06
0.000694386
3.88274e-06
0.000695389
3.78406e-06
0.000696387
3.66824e-06
0.00069738
3.5372e-06
0.000698366
3.38697e-06
0.000699348
3.22094e-06
0.000700322
3.03318e-06
0.000701291
2.82946e-06
0.000702252
2.60069e-06
0.00070321
2.35662e-06
0.000704159
2.08301e-06
0.000705106
1.79625e-06
0.000706044
1.47357e-06
0.000706983
1.14208e-06
0.000707914
7.63772e-07
0.000708856
3.82061e-07
0.000709801
-6.77731e-08
0.000710766
-4.91309e-07
0.000711742
-1.00507e-06
0.000712744
-1.48272e-06
0.000713737
-2.0879e-06
0.000714792
-2.61052e-06
0.000715842
-3.3259e-06
0.000716991
-3.88591e-06
0.000718131
-4.74535e-06
-5.32345e-06
0.000719416
0.000666702
9.89058e-08
0.000666807
2.98616e-07
0.000666983
4.9883e-07
0.000667227
6.96973e-07
0.000667536
8.91666e-07
0.000667907
1.08171e-06
0.000668336
1.2661e-06
0.000668819
1.444e-06
0.000669351
1.6148e-06
0.00066993
1.77799e-06
0.00067055
1.93316e-06
0.000671209
2.08006e-06
0.000671901
2.2186e-06
0.000672625
2.34875e-06
0.000673377
2.47049e-06
0.000674153
2.58385e-06
0.000674952
2.6888e-06
0.00067577
2.78537e-06
0.000676606
2.87351e-06
0.000677457
2.95324e-06
0.000678321
3.02443e-06
0.000679196
3.08705e-06
0.000680081
3.14088e-06
0.000680973
3.18581e-06
0.000681872
3.22153e-06
0.000682775
3.24787e-06
0.000683682
3.26437e-06
0.000684591
3.27084e-06
0.0006855
3.26667e-06
0.000686409
3.25164e-06
0.000687316
3.22499e-06
0.00068822
3.18652e-06
0.000689121
3.13526e-06
0.000690017
3.07109e-06
0.000690907
2.99278e-06
0.00069179
2.90039e-06
0.000692666
2.79229e-06
0.000693534
2.66886e-06
0.000694394
2.52794e-06
0.000695244
2.37042e-06
0.000696084
2.19328e-06
0.000696915
1.99837e-06
0.000697734
1.78124e-06
0.000698546
1.54537e-06
0.000699345
1.28399e-06
0.000700138
1.00344e-06
0.000700918
6.93076e-07
0.000701696
3.64641e-07
0.000702454
5.42525e-09
0.000703217
-3.81145e-07
0.000703962
-8.12748e-07
0.000704724
-1.25371e-06
0.000705475
-1.75583e-06
0.00070625
-2.25794e-06
0.000707009
-2.84613e-06
0.000707811
-3.41306e-06
0.00070859
-4.10515e-06
0.000709441
-4.7364e-06
0.000710252
-5.55608e-06
-6.24393e-06
0.000711172
0.000666696
7.00134e-08
0.000666783
2.11672e-07
0.000666927
3.5411e-07
0.000667129
4.95658e-07
0.000667385
6.35477e-07
0.000667694
7.7281e-07
0.000668053
9.06977e-07
0.000668459
1.03739e-06
0.000668911
1.16356e-06
0.000669404
1.28508e-06
0.000669935
1.40165e-06
0.000670502
1.513e-06
0.000671102
1.61894e-06
0.000671731
1.71932e-06
0.000672388
1.814e-06
0.000673069
1.90288e-06
0.000673772
1.98585e-06
0.000674494
2.06279e-06
0.000675234
2.13357e-06
0.000675989
2.19806e-06
0.000676758
2.25607e-06
0.000677537
2.30743e-06
0.000678326
2.35189e-06
0.000679123
2.38919e-06
0.000679925
2.41902e-06
0.000680732
2.44106e-06
0.000681542
2.45488e-06
0.000682352
2.46012e-06
0.000683163
2.45626e-06
0.000683972
2.44285e-06
0.000684777
2.41931e-06
0.000685579
2.3851e-06
0.000686374
2.33958e-06
0.000687163
2.28212e-06
0.000687944
2.21202e-06
0.000688716
2.12856e-06
0.000689477
2.03098e-06
0.000690228
1.91847e-06
0.000690965
1.79024e-06
0.00069169
1.64531e-06
0.000692401
1.48289e-06
0.000693097
1.30187e-06
0.000693777
1.10138e-06
0.000694442
8.80233e-07
0.000695089
6.37391e-07
0.000695721
3.71668e-07
0.000696332
8.2157e-08
0.000696929
-2.3266e-07
0.000697513
-5.78784e-07
0.000698085
-9.52893e-07
0.000698632
-1.36037e-06
0.000699176
-1.79702e-06
0.000699694
-2.27411e-06
0.000700217
-2.78045e-06
0.000700709
-3.33883e-06
0.000701219
-3.92304e-06
0.000701692
-4.57766e-06
0.000702203
-5.24724e-06
0.000702663
-6.01697e-06
-6.77586e-06
0.000703195
0.000666691
4.55694e-08
0.000666765
1.38172e-07
0.000666887
2.31682e-07
0.000667058
3.25083e-07
0.000667275
4.17902e-07
0.000667538
5.09705e-07
0.000667845
6.00087e-07
0.000668194
6.88681e-07
0.000668582
7.75165e-07
0.000669008
8.59263e-07
0.000669469
9.40738e-07
0.000669963
1.01938e-06
0.000670487
1.095e-06
0.000671038
1.16743e-06
0.000671616
1.23651e-06
0.000672217
1.30207e-06
0.000672839
1.36395e-06
0.000673479
1.42198e-06
0.000674137
1.47598e-06
0.000674809
1.52573e-06
0.000675494
1.57102e-06
0.00067619
1.61159e-06
0.000676895
1.64714e-06
0.000677607
1.67735e-06
0.000678324
1.70189e-06
0.000679045
1.72034e-06
0.000679767
1.73231e-06
0.00068049
1.7373e-06
0.000681212
1.73486e-06
0.00068193
1.72438e-06
0.000682644
1.70542e-06
0.000683352
1.6772e-06
0.000684052
1.63929e-06
0.000684743
1.59075e-06
0.000685424
1.53123e-06
0.000686093
1.4595e-06
0.000686749
1.3754e-06
0.00068739
1.27731e-06
0.000688015
1.16539e-06
0.000688623
1.03742e-06
0.000689212
8.9412e-07
0.000689781
7.32416e-07
0.000690328
5.5392e-07
0.000690854
3.54284e-07
0.000691355
1.36689e-07
0.00069183
-1.03403e-07
0.000692281
-3.68731e-07
0.000692711
-6.62713e-07
0.000693111
-9.78166e-07
0.000693486
-1.32812e-06
0.000693826
-1.70084e-06
0.000694144
-2.11493e-06
0.000694423
-2.55302e-06
0.000694683
-3.04078e-06
0.000694898
-3.55383e-06
0.000695102
-4.12666e-06
0.000695251
-4.72627e-06
0.0006954
-5.39706e-06
0.00069548
-6.09637e-06
-6.87717e-06
0.000695581
0.000666688
2.44528e-08
0.000666751
7.46453e-08
0.000666857
1.25796e-07
0.000667005
1.77407e-07
0.000667193
2.29283e-07
0.000667422
2.81234e-07
0.000667689
3.33065e-07
0.000667993
3.84592e-07
0.000668333
4.35647e-07
0.000668706
4.86075e-07
0.000669111
5.35736e-07
0.000669546
5.84494e-07
0.000670008
6.32213e-07
0.000670497
6.78749e-07
0.00067101
7.23955e-07
0.000671544
7.6767e-07
0.000672098
8.09725e-07
0.00067267
8.49932e-07
0.000673258
8.88092e-07
0.00067386
9.23963e-07
0.000674474
9.57303e-07
0.000675098
9.87808e-07
0.000675729
1.01519e-06
0.000676368
1.03906e-06
0.000677011
1.0591e-06
0.000677656
1.07484e-06
0.000678302
1.08589e-06
0.000678948
1.0917e-06
0.000679591
1.09185e-06
0.00068023
1.08566e-06
0.000680862
1.07274e-06
0.000681487
1.05224e-06
0.000682103
1.02385e-06
0.000682707
9.86442e-07
0.000683299
9.39873e-07
0.000683875
8.82668e-07
0.000684436
8.14988e-07
0.000684978
7.34831e-07
0.000685501
6.42889e-07
0.000686002
5.36362e-07
0.000686479
4.1677e-07
0.000686932
2.80037e-07
0.000687356
1.29131e-07
0.00068775
-3.89665e-08
0.000688114
-2.27595e-07
0.00068845
-4.39938e-07
0.000688751
-6.68859e-07
0.000689015
-9.27321e-07
0.000689239
-1.20207e-06
0.000689424
-1.51341e-06
0.000689564
-1.84006e-06
0.000689661
-2.21275e-06
0.000689707
-2.59826e-06
0.000689709
-3.04279e-06
0.00068965
-3.49498e-06
0.000689547
-4.02422e-06
0.000689373
-4.55188e-06
0.000689158
-5.18167e-06
0.000688855
-5.79353e-06
-6.5412e-06
0.000688519
0.000666685
5.80647e-09
0.000666741
1.86104e-08
0.000666835
3.24037e-08
0.000666965
4.71056e-08
0.000667132
6.27122e-08
0.000667334
7.92152e-08
0.00066757
9.66058e-08
0.00066784
1.1487e-07
0.000668141
1.33984e-07
0.000668474
1.53919e-07
0.000668835
1.74632e-07
0.000669223
1.96068e-07
0.000669637
2.18156e-07
0.000670075
2.40805e-07
0.000670535
2.63907e-07
0.000671016
2.87323e-07
0.000671514
3.10915e-07
0.00067203
3.34502e-07
0.00067256
3.57887e-07
0.000673103
3.80844e-07
0.000673657
4.03127e-07
0.000674221
4.24418e-07
0.000674791
4.44429e-07
0.000675368
4.62773e-07
0.000675948
4.79142e-07
0.000676529
4.93051e-07
0.000677111
5.04121e-07
0.000677691
5.11775e-07
0.000678267
5.15642e-07
0.000678838
5.14931e-07
0.000679401
5.09416e-07
0.000679955
4.98233e-07
0.000680498
4.81125e-07
0.000681028
4.56918e-07
0.000681542
4.25485e-07
0.000682039
3.85382e-07
0.000682518
3.36807e-07
0.000682975
2.77796e-07
0.000683408
2.09154e-07
0.000683817
1.2812e-07
0.000684196
3.68492e-08
0.000684544
-6.77671e-08
0.000684861
-1.87439e-07
0.000685146
-3.24426e-07
0.000685393
-4.74397e-07
0.0006856
-6.46312e-07
0.000685762
-8.31423e-07
0.000685878
-1.04356e-06
0.000685944
-1.26823e-06
0.000685958
-1.52693e-06
0.000685914
-1.79621e-06
0.000685811
-2.10933e-06
0.000685641
-2.4289e-06
0.000685405
-2.80621e-06
0.000685092
-3.18217e-06
0.000684704
-3.63617e-06
0.000684227
-4.07492e-06
0.000683667
-4.62147e-06
0.000683001
-5.12824e-06
-5.7857e-06
0.000682246
0.000666684
-1.11048e-08
0.000666734
-3.21238e-08
0.000666819
-5.18931e-08
0.000666936
-7.03958e-08
0.000667086
-8.74773e-08
0.000667268
-1.02982e-07
0.000667482
-1.16764e-07
0.000667725
-1.28697e-07
0.000667998
-1.3867e-07
0.000668299
-1.46606e-07
0.000668626
-1.52469e-07
0.000668978
-1.56189e-07
0.000669354
-1.57823e-07
0.000669752
-1.57343e-07
0.000670171
-1.54779e-07
0.000670608
-1.50339e-07
0.000671063
-1.44004e-07
0.000671534
-1.35864e-07
0.000672018
-1.26344e-07
0.000672514
-1.15376e-07
0.000673021
-1.03263e-07
0.000673535
-9.0382e-08
0.000674057
-7.69271e-08
0.000674583
-6.35302e-08
0.000675112
-5.00957e-08
0.000675642
-3.7145e-08
0.000676172
-2.53234e-08
0.000676699
-1.49545e-08
0.00067722
-5.87615e-09
0.000677736
-9.20947e-10
0.000678243
2.00543e-09
0.00067874
1.44738e-09
0.000679224
-2.63759e-09
0.000679693
-1.16259e-08
0.000680144
-2.63641e-08
0.000680577
-4.68904e-08
0.000680988
-7.43756e-08
0.000681375
-1.09449e-07
0.000681736
-1.51474e-07
0.000682067
-2.03562e-07
0.000682368
-2.6423e-07
0.000682637
-3.3622e-07
0.000682868
-4.18377e-07
0.000683058
-5.14574e-07
0.000683205
-6.21337e-07
0.000683304
-7.45516e-07
0.000683353
-8.7996e-07
0.000683346
-1.03651e-06
0.00068328
-1.20275e-06
0.00068315
-1.39651e-06
0.000682952
-1.59844e-06
0.000682678
-1.83586e-06
0.000682327
-2.07764e-06
0.000681888
-2.3665e-06
0.000681358
-2.65258e-06
0.000680725
-3.00287e-06
0.000679987
-3.33763e-06
0.000679128
-3.76229e-06
0.000678149
-4.14866e-06
-4.66307e-06
0.000677026
0.000666682
-2.66561e-08
0.000666729
-7.88578e-08
0.000666807
-1.29513e-07
0.000666915
-1.78587e-07
0.000667053
-2.25783e-07
0.000667221
-2.70797e-07
0.000667417
-3.13348e-07
0.000667642
-3.532e-07
0.000667893
-3.90149e-07
0.000668171
-4.24026e-07
0.000668473
-4.54649e-07
0.000668799
-4.81912e-07
0.000669147
-5.05723e-07
0.000669515
-5.26031e-07
0.000669903
-5.42817e-07
0.000670309
-5.5612e-07
0.000670731
-5.65992e-07
0.000671168
-5.72536e-07
0.000671617
-5.75852e-07
0.000672078
-5.76218e-07
0.000672549
-5.73732e-07
0.000673027
-5.68695e-07
0.000673511
-5.61351e-07
0.000674
-5.51922e-07
0.000674491
-5.40971e-07
0.000674982
-5.28561e-07
0.000675472
-5.15436e-07
0.000675959
-5.01725e-07
0.000676441
-4.88027e-07
0.000676915
-4.74834e-07
0.00067738
-4.62518e-07
0.000677832
-4.5143e-07
0.000678272
-4.42429e-07
0.000678696
-4.35769e-07
0.000679102
-4.32107e-07
0.000679487
-4.32244e-07
0.00067985
-4.36514e-07
0.000680186
-4.45746e-07
0.000680494
-4.59744e-07
0.000680771
-4.80663e-07
0.000681014
-5.0733e-07
0.00068122
-5.41915e-07
0.000681385
-5.83763e-07
0.000681506
-6.35107e-07
0.000681579
-6.94214e-07
0.000681599
-7.65184e-07
0.000681563
-8.44249e-07
0.000681464
-9.37914e-07
0.000681301
-1.03941e-06
0.000681063
-1.15906e-06
0.000680751
-1.2858e-06
0.00068035
-1.43533e-06
0.000679863
-1.59007e-06
0.00067927
-1.77419e-06
0.000678578
-1.95969e-06
0.000677759
-2.18433e-06
0.000676824
-2.40317e-06
0.000675738
-2.67581e-06
0.000674519
-2.92945e-06
-3.25871e-06
0.000673114
0.000666681
-4.12357e-08
0.000666725
-1.22743e-07
0.000666798
-2.02566e-07
0.0006669
-2.80531e-07
0.000667031
-3.5618e-07
0.000667189
-4.29086e-07
0.000667374
-4.98863e-07
0.000667586
-5.65171e-07
0.000667824
-6.27702e-07
0.000668086
-6.86176e-07
0.000668372
-7.40337e-07
0.00066868
-7.89979e-07
0.000669009
-8.34922e-07
0.000669358
-8.75071e-07
0.000669726
-9.10324e-07
0.00067011
-9.40631e-07
0.00067051
-9.66051e-07
0.000670924
-9.86575e-07
0.000671351
-1.00234e-06
0.000671788
-1.01346e-06
0.000672234
-1.0201e-06
0.000672688
-1.02248e-06
0.000673147
-1.02076e-06
0.000673611
-1.01531e-06
0.000674076
-1.00646e-06
0.000674542
-9.94375e-07
0.000675006
-9.79597e-07
0.000675467
-9.62283e-07
0.000675922
-9.4312e-07
0.000676369
-9.22253e-07
0.000676807
-9.00258e-07
0.000677233
-8.77371e-07
0.000677645
-8.54287e-07
0.000678041
-8.31518e-07
0.000678418
-8.09082e-07
0.000678773
-7.88105e-07
0.000679105
-7.68361e-07
0.00067941
-7.50813e-07
0.000679687
-7.35918e-07
0.00067993
-7.23872e-07
0.000680138
-7.15157e-07
0.000680306
-7.10452e-07
0.000680432
-7.0965e-07
0.000680511
-7.13816e-07
0.00068054
-7.23201e-07
0.000680512
-7.37913e-07
0.000680427
-7.58441e-07
0.000680274
-7.85175e-07
0.000680053
-8.1825e-07
0.000679752
-8.58266e-07
0.000679371
-9.05129e-07
0.000678895
-9.5956e-07
0.000678327
-1.02158e-06
0.000677644
-1.09136e-06
0.000676854
-1.1696e-06
0.000675925
-1.25567e-06
0.000674873
-1.35118e-06
0.000673652
-1.45424e-06
0.00067229
-1.56772e-06
-1.687e-06
0.000670718
0.000666681
-5.53617e-08
0.000666723
-1.64994e-07
0.000666794
-2.73141e-07
0.000666892
-3.79143e-07
0.000667018
-4.82434e-07
0.000667172
-5.82475e-07
0.000667352
-6.78764e-07
0.000667557
-7.70836e-07
0.000667788
-8.58272e-07
0.000668043
-9.40692e-07
0.00066832
-1.01775e-06
0.000668619
-1.08916e-06
0.000668939
-1.15469e-06
0.000669278
-1.21415e-06
0.000669635
-1.2674e-06
0.000670009
-1.31435e-06
0.000670398
-1.35497e-06
0.0006708
-1.38919e-06
0.000671215
-1.41713e-06
0.00067164
-1.43883e-06
0.000672075
-1.45445e-06
0.000672516
-1.46412e-06
0.000672964
-1.46807e-06
0.000673415
-1.46653e-06
0.000673868
-1.45975e-06
0.000674322
-1.44801e-06
0.000674774
-1.43164e-06
0.000675223
-1.41093e-06
0.000675666
-1.38625e-06
0.000676101
-1.35798e-06
0.000676528
-1.32645e-06
0.000676942
-1.29197e-06
0.000677343
-1.25509e-06
0.000677728
-1.21599e-06
0.000678094
-1.17521e-06
0.000678438
-1.13288e-06
0.00067876
-1.08956e-06
0.000679054
-1.04542e-06
0.000679319
-1.00118e-06
0.000679552
-9.56349e-07
0.000679749
-9.12172e-07
0.000679906
-8.678e-07
0.000680021
-8.24706e-07
0.000680089
-7.81404e-07
0.000680106
-7.40253e-07
0.000680067
-6.98421e-07
0.000679968
-6.59559e-07
0.000679801
-6.18785e-07
0.000679565
-5.82475e-07
0.000679249
-5.42046e-07
0.000678852
-5.07775e-07
0.000678358
-4.65712e-07
0.00067777
-4.33253e-07
0.000677065
-3.87103e-07
0.000676251
-3.55497e-07
0.000675297
-3.01051e-07
0.000674217
-2.70973e-07
0.000672963
-2.00921e-07
0.000671568
-1.72507e-07
-7.73302e-08
0.000669958
0.000666681
-6.94317e-08
0.000666723
-2.07173e-07
0.000666793
-3.43653e-07
0.000666892
-4.7773e-07
0.000667018
-6.08693e-07
0.000667172
-7.35874e-07
0.000667352
-8.58654e-07
0.000667557
-9.76458e-07
0.000667788
-1.08876e-06
0.000668042
-1.19509e-06
0.000668319
-1.29502e-06
0.000668618
-1.38818e-06
0.000668938
-1.47426e-06
0.000669277
-1.553e-06
0.000669634
-1.62422e-06
0.000670007
-1.68777e-06
0.000670396
-1.74354e-06
0.000670798
-1.79149e-06
0.000671212
-1.83165e-06
0.000671638
-1.86403e-06
0.000672072
-1.88876e-06
0.000672514
-1.90595e-06
0.000672961
-1.91578e-06
0.000673413
-1.91842e-06
0.000673868
-1.91411e-06
0.000674323
-1.90303e-06
0.000674777
-1.88554e-06
0.000675228
-1.86184e-06
0.000675674
-1.8323e-06
0.000676113
-1.79717e-06
0.000676543
-1.75681e-06
0.000676963
-1.71143e-06
0.000677369
-1.66142e-06
0.00067776
-1.60692e-06
0.000678133
-1.54853e-06
0.000678486
-1.4859e-06
0.000678817
-1.41995e-06
0.000679122
-1.35034e-06
0.000679398
-1.27777e-06
0.000679643
-1.20145e-06
0.000679854
-1.12305e-06
0.000680027
-1.04069e-06
0.000680159
-9.56445e-07
0.000680245
-8.67527e-07
0.000680282
-7.77703e-07
0.000680265
-6.81463e-07
0.000680191
-5.85254e-07
0.000680052
-4.8014e-07
0.000679846
-3.76562e-07
0.000679564
-2.59584e-07
0.000679204
-1.47595e-07
0.000678753
-1.44566e-08
0.000678207
1.12049e-07
0.000677552
2.68439e-07
0.00067679
4.05906e-07
0.000675896
5.93531e-07
0.000674878
7.46269e-07
0.000673699
9.78321e-07
0.00067238
1.14709e-06
1.44174e-06
0.000670861
0.000666681
-8.39592e-08
0.000666725
-2.50862e-07
0.000666798
-4.16611e-07
0.0006669
-5.79687e-07
0.00066703
-7.39219e-07
0.000667189
-8.94401e-07
0.000667375
-1.04448e-06
0.000667587
-1.18877e-06
0.000667825
-1.32663e-06
0.000668087
-1.45749e-06
0.000668373
-1.58085e-06
0.000668681
-1.69624e-06
0.00066901
-1.80331e-06
0.000669359
-1.90174e-06
0.000669726
-1.99128e-06
0.00067011
-2.07175e-06
0.000670509
-2.14302e-06
0.000670923
-2.20502e-06
0.000671349
-2.25772e-06
0.000671786
-2.30114e-06
0.000672233
-2.33535e-06
0.000672687
-2.36045e-06
0.000673148
-2.37658e-06
0.000673614
-2.38389e-06
0.000674082
-2.38259e-06
0.000674552
-2.37286e-06
0.000675021
-2.35498e-06
0.000675489
-2.32912e-06
0.000675952
-2.29563e-06
0.000676409
-2.25465e-06
0.000676859
-2.20654e-06
0.000677299
-2.15137e-06
0.000677727
-2.08961e-06
0.000678141
-2.02114e-06
0.00067854
-1.94662e-06
0.000678919
-1.86556e-06
0.000679278
-1.7789e-06
0.000679614
-1.68574e-06
0.000679923
-1.58729e-06
0.000680204
-1.48227e-06
0.000680453
-1.37207e-06
0.000680667
-1.25469e-06
0.000680843
-1.13241e-06
0.000680977
-1.0018e-06
0.000681066
-8.6681e-07
0.000681106
-7.20953e-07
0.000681092
-5.71946e-07
0.000681021
-4.08511e-07
0.000680888
-2.43332e-07
0.000680687
-5.85685e-08
0.000680409
1.30413e-07
0.000680048
3.46126e-07
0.000679604
5.5581e-07
0.000679064
8.08593e-07
0.000678425
1.04516e-06
0.000677671
1.34743e-06
0.000676802
1.6148e-06
0.000675797
1.98382e-06
0.00067466
2.28404e-06
2.743e-06
0.000673359
0.000666682
-9.95189e-08
0.000666729
-2.97682e-07
0.000666807
-4.94751e-07
0.000666916
-6.88825e-07
0.000667056
-8.78852e-07
0.000667225
-1.06386e-06
0.000667424
-1.24295e-06
0.00066765
-1.41529e-06
0.000667904
-1.58013e-06
0.000668183
-1.73682e-06
0.000668487
-1.88474e-06
0.000668814
-2.0234e-06
0.000669163
-2.15236e-06
0.000669533
-2.27127e-06
0.000669921
-2.37984e-06
0.000670328
-2.47788e-06
0.00067075
-2.56523e-06
0.000671187
-2.6418e-06
0.000671636
-2.70757e-06
0.000672098
-2.76253e-06
0.000672569
-2.80676e-06
0.000673049
-2.84033e-06
0.000673536
-2.86338e-06
0.000674028
-2.87606e-06
0.000674524
-2.87855e-06
0.000675022
-2.87102e-06
0.000675521
-2.85371e-06
0.000676019
-2.82677e-06
0.000676513
-2.79049e-06
0.000677004
-2.745e-06
0.000677488
-2.6906e-06
0.000677964
-2.62734e-06
0.00067843
-2.55555e-06
0.000678884
-2.47518e-06
0.000679324
-2.38659e-06
0.000679748
-2.28953e-06
0.000680153
-2.18448e-06
0.000680538
-2.07089e-06
0.000680901
-1.94943e-06
0.000681237
-1.81906e-06
0.000681546
-1.68087e-06
0.000681824
-1.53296e-06
0.000682069
-1.37716e-06
0.000682278
-1.21032e-06
0.000682446
-1.03523e-06
0.000682572
-8.46954e-07
0.000682651
-6.5061e-07
0.00068268
-4.37972e-07
0.000682654
-2.17289e-07
0.000682568
2.71865e-08
0.000682419
2.7976e-07
0.000682203
5.62643e-07
0.00068191
8.47954e-07
0.000681541
1.17815e-06
0.000681083
1.50284e-06
0.000680536
1.89423e-06
0.000679887
2.26427e-06
0.000679135
2.73574e-06
0.000678264
3.15548e-06
3.73156e-06
0.000677275
0.000666684
-1.16764e-07
0.000666736
-3.49609e-07
0.000666822
-5.81387e-07
0.000666943
-8.09747e-07
0.000667098
-1.03341e-06
0.000667285
-1.2512e-06
0.000667504
-1.46202e-06
0.000667754
-1.66489e-06
0.000668033
-1.85894e-06
0.000668339
-2.0434e-06
0.000668672
-2.2176e-06
0.00066903
-2.38099e-06
0.000669411
-2.5331e-06
0.000669813
-2.67356e-06
0.000670235
-2.8021e-06
0.000670676
-2.91851e-06
0.000671133
-3.02265e-06
0.000671606
-3.11446e-06
0.000672092
-3.19391e-06
0.000672591
-3.26102e-06
0.0006731
-3.31588e-06
0.000673618
-3.35857e-06
0.000674144
-3.38925e-06
0.000674676
-3.40806e-06
0.000675213
-3.41518e-06
0.000675752
-3.4108e-06
0.000676294
-3.3951e-06
0.000676835
-3.36829e-06
0.000677375
-3.33055e-06
0.000677912
-3.28207e-06
0.000678445
-3.223e-06
0.000678971
-3.15353e-06
0.000679489
-3.07374e-06
0.000679998
-2.9838e-06
0.000680495
-2.88369e-06
0.000680979
-2.77355e-06
0.000681448
-2.65324e-06
0.0006819
-2.52284e-06
0.000682332
-2.38205e-06
0.000682744
-2.23084e-06
0.000683132
-2.06877e-06
0.000683495
-1.89569e-06
0.000683829
-1.71106e-06
0.000684133
-1.51441e-06
0.000684403
-1.30529e-06
0.000684638
-1.08263e-06
0.000684834
-8.46272e-07
0.00068499
-5.94206e-07
0.0006851
-3.27249e-07
0.000685169
-4.17257e-08
0.000685181
2.68052e-07
0.000685143
6.00815e-07
0.000685041
9.49923e-07
0.000684884
1.33496e-06
0.000684653
1.73418e-06
0.000684362
2.18492e-06
0.000683983
2.64278e-06
0.000683542
3.17693e-06
0.000682997