/*--------------------------------*- C++ -*----------------------------------*\
| =========                 |                                                 |
| \\      /  F ield         | OpenFOAM: The Open Source CFD Toolbox           |
|  \\    /   O peration     | Version:  2312                                  |
|   \\  /    A nd           | Website:  www.openfoam.com                      |
|    \\/     M anipulation  |                                                 |
\*---------------------------------------------------------------------------*/
FoamFile
{
    version     2.0;
    format      ascii;
    arch        "LSB;label=32;scalar=64";
    class       volScalarField;
    location    "180000";
    object      p;
}
// * * * * * * * * * * * * * * * * * * * * * * * * * * * * * * * * * * * * * //

dimensions      [0 2 -2 0 0 0 0];

internalField   nonuniform List<scalar> 
2685
(
1.28813e-07
1.39977e-07
1.52164e-07
1.63686e-07
1.75083e-07
1.86846e-07
1.99006e-07
2.11463e-07
2.24091e-07
2.3679e-07
2.49495e-07
2.62167e-07
2.74751e-07
2.87193e-07
2.99432e-07
3.11381e-07
3.22918e-07
3.33871e-07
3.4415e-07
3.53539e-07
3.61817e-07
3.68856e-07
3.74762e-07
3.79737e-07
3.84022e-07
3.8781e-07
3.912e-07
3.94149e-07
3.96389e-07
3.97771e-07
3.9814e-07
3.97106e-07
3.94288e-07
3.89432e-07
3.82446e-07
3.73544e-07
3.63166e-07
3.5164e-07
3.3897e-07
3.2495e-07
3.09385e-07
2.91912e-07
2.7254e-07
2.51648e-07
2.29682e-07
2.07263e-07
1.851e-07
1.63861e-07
1.44099e-07
1.26271e-07
1.10559e-07
9.70964e-08
8.59472e-08
7.71603e-08
7.07212e-08
6.65333e-08
6.44996e-08
6.41713e-08
6.53493e-08
6.78062e-08
7.13209e-08
7.56761e-08
8.06603e-08
8.60695e-08
9.17103e-08
9.74041e-08
1.02969e-07
1.08201e-07
1.12916e-07
1.16959e-07
1.20217e-07
1.22625e-07
1.24167e-07
1.24878e-07
1.2498e-07
1.24617e-07
1.24017e-07
1.23431e-07
1.23078e-07
1.23114e-07
1.23711e-07
1.24869e-07
1.26538e-07
1.2864e-07
1.31082e-07
1.33761e-07
1.36574e-07
1.39417e-07
1.42209e-07
1.44918e-07
1.16991e-07
1.31481e-07
1.43912e-07
1.57113e-07
1.70802e-07
1.84465e-07
1.97818e-07
2.10949e-07
2.23935e-07
2.36849e-07
2.49716e-07
2.62541e-07
2.7531e-07
2.87965e-07
3.00426e-07
3.12589e-07
3.24326e-07
3.35542e-07
3.45979e-07
3.55299e-07
3.63111e-07
3.69131e-07
3.73489e-07
3.76716e-07
3.79448e-07
3.82222e-07
3.85457e-07
3.89351e-07
3.93264e-07
3.97997e-07
4.0289e-07
4.07096e-07
4.09706e-07
4.10037e-07
4.07336e-07
4.01124e-07
3.91265e-07
3.77831e-07
3.60876e-07
3.40698e-07
3.18405e-07
2.9432e-07
2.69183e-07
2.43879e-07
2.19285e-07
1.96066e-07
1.74595e-07
1.54707e-07
1.36191e-07
1.1928e-07
1.04057e-07
9.06535e-08
7.93212e-08
7.02609e-08
6.35816e-08
5.92921e-08
5.70648e-08
5.70265e-08
5.8781e-08
6.19799e-08
6.63018e-08
7.14619e-08
7.72158e-08
8.33543e-08
8.9689e-08
9.6034e-08
1.022e-07
1.08008e-07
1.13269e-07
1.17818e-07
1.21538e-07
1.24372e-07
1.26324e-07
1.27492e-07
1.27796e-07
1.27515e-07
1.26858e-07
1.26061e-07
1.2537e-07
1.25035e-07
1.25176e-07
1.25925e-07
1.27063e-07
1.28677e-07
1.307e-07
1.33043e-07
1.35612e-07
1.38331e-07
1.41079e-07
1.43677e-07
1.21131e-07
1.34144e-07
1.45861e-07
1.58349e-07
1.71639e-07
1.85187e-07
1.98625e-07
2.11765e-07
2.2472e-07
2.37623e-07
2.50448e-07
2.63179e-07
2.7579e-07
2.88249e-07
3.0049e-07
3.12418e-07
3.23942e-07
3.34973e-07
3.45366e-07
3.54994e-07
3.63789e-07
3.71793e-07
3.7896e-07
3.85265e-07
3.90756e-07
3.95496e-07
3.99443e-07
4.02488e-07
4.05328e-07
4.07102e-07
4.07878e-07
4.07558e-07
4.02866e-07
3.96396e-07
3.87703e-07
3.76877e-07
3.64597e-07
3.51513e-07
3.37811e-07
3.23729e-07
3.08812e-07
2.92792e-07
2.74383e-07
2.52859e-07
2.28504e-07
2.02231e-07
1.7544e-07
1.49731e-07
1.26095e-07
1.05248e-07
8.78328e-08
7.40558e-08
6.38093e-08
5.66637e-08
5.22695e-08
5.02584e-08
5.02105e-08
5.16336e-08
5.45763e-08
5.84204e-08
6.315e-08
6.86186e-08
7.46692e-08
8.11323e-08
8.78347e-08
9.46022e-08
1.01231e-07
1.07498e-07
1.13167e-07
1.18012e-07
1.21865e-07
1.2464e-07
1.26342e-07
1.27028e-07
1.26909e-07
1.26134e-07
1.24883e-07
1.23561e-07
1.22402e-07
1.21628e-07
1.21397e-07
1.21755e-07
1.22869e-07
1.24493e-07
1.26509e-07
1.29095e-07
1.32051e-07
1.35268e-07
1.38638e-07
1.42033e-07
1.11771e-07
1.26704e-07
1.41615e-07
1.56787e-07
1.71915e-07
1.86565e-07
2.00581e-07
2.1411e-07
2.27371e-07
2.4044e-07
2.53285e-07
2.65989e-07
2.78509e-07
2.90823e-07
3.02865e-07
3.14562e-07
3.25843e-07
3.3663e-07
3.46827e-07
3.56318e-07
3.64967e-07
3.72619e-07
3.79159e-07
3.8456e-07
3.8886e-07
3.9212e-07
3.94401e-07
3.95716e-07
3.96068e-07
3.95333e-07
3.9326e-07
3.89064e-07
3.85262e-07
3.7935e-07
3.71489e-07
3.61649e-07
3.4994e-07
3.36644e-07
3.21948e-07
3.05873e-07
2.87863e-07
2.67038e-07
2.43685e-07
2.18999e-07
1.94334e-07
1.70894e-07
1.49707e-07
1.31144e-07
1.1488e-07
9.99701e-08
8.57813e-08
7.25118e-08
6.08836e-08
5.1646e-08
4.51842e-08
4.16499e-08
4.09431e-08
4.26794e-08
4.61427e-08
5.12134e-08
5.73059e-08
6.40033e-08
7.10327e-08
7.82268e-08
8.54647e-08
9.27053e-08
9.97296e-08
1.06343e-07
1.1231e-07
1.17382e-07
1.21385e-07
1.24288e-07
1.26173e-07
1.27172e-07
1.27441e-07
1.27114e-07
1.26508e-07
1.25544e-07
1.24581e-07
1.23774e-07
1.23233e-07
1.23042e-07
1.23258e-07
1.23933e-07
1.25165e-07
1.26753e-07
1.28795e-07
1.31263e-07
1.34139e-07
1.37361e-07
1.08262e-07
1.2579e-07
1.42878e-07
1.59445e-07
1.75335e-07
1.90475e-07
2.04932e-07
2.18838e-07
2.32299e-07
2.45398e-07
2.58281e-07
2.70866e-07
2.83216e-07
2.9532e-07
3.07099e-07
3.1844e-07
3.2925e-07
3.39442e-07
3.489e-07
3.57511e-07
3.65191e-07
3.7188e-07
3.77538e-07
3.82145e-07
3.85668e-07
3.88066e-07
3.89289e-07
3.89272e-07
3.87902e-07
3.85056e-07
3.80636e-07
3.74511e-07
3.66606e-07
3.56744e-07
3.45123e-07
3.31511e-07
3.15865e-07
2.98467e-07
2.79792e-07
2.59975e-07
2.39033e-07
2.17453e-07
1.96283e-07
1.76326e-07
1.57653e-07
1.40256e-07
1.24091e-07
1.08741e-07
9.37548e-08
7.93218e-08
6.65267e-08
5.63891e-08
4.93356e-08
4.53246e-08
4.39098e-08
4.43213e-08
4.59323e-08
4.85071e-08
5.19913e-08
5.63314e-08
6.14566e-08
6.73418e-08
7.37874e-08
8.04824e-08
8.70477e-08
9.4729e-08
1.01956e-07
1.08716e-07
1.14825e-07
1.19923e-07
1.23739e-07
1.2621e-07
1.27497e-07
1.27862e-07
1.27524e-07
1.26601e-07
1.25295e-07
1.23851e-07
1.22225e-07
1.2056e-07
1.19086e-07
1.18027e-07
1.17521e-07
1.17612e-07
1.18294e-07
1.19567e-07
1.21477e-07
1.23889e-07
1.27142e-07
1.30998e-07
1.03841e-07
1.23067e-07
1.41288e-07
1.58723e-07
1.75486e-07
1.91591e-07
2.06996e-07
2.21673e-07
2.35657e-07
2.49056e-07
2.62026e-07
2.74591e-07
2.86558e-07
2.98073e-07
3.09075e-07
3.19593e-07
3.29593e-07
3.39099e-07
3.48004e-07
3.56036e-07
3.62932e-07
3.68575e-07
3.72938e-07
3.76008e-07
3.77764e-07
3.78172e-07
3.77177e-07
3.747e-07
3.70626e-07
3.64803e-07
3.5707e-07
3.47255e-07
3.35188e-07
3.20794e-07
3.04177e-07
2.85501e-07
2.64982e-07
2.43065e-07
2.20809e-07
1.98219e-07
1.76587e-07
1.5619e-07
1.37266e-07
1.19865e-07
1.03832e-07
8.90872e-08
7.58671e-08
6.45555e-08
5.5542e-08
4.90866e-08
4.50877e-08
4.30673e-08
4.24839e-08
4.29142e-08
4.40708e-08
4.59084e-08
4.8644e-08
5.24912e-08
5.74441e-08
6.33519e-08
6.99391e-08
7.68173e-08
8.37743e-08
9.08967e-08
9.8268e-08
1.04193e-07
1.10056e-07
1.15894e-07
1.21446e-07
1.25956e-07
1.29094e-07
1.30637e-07
1.31026e-07
1.30688e-07
1.29766e-07
1.28217e-07
1.25933e-07
1.23191e-07
1.2035e-07
1.17646e-07
1.151e-07
1.12717e-07
1.10626e-07
1.08989e-07
1.08028e-07
1.07941e-07
1.08913e-07
1.11329e-07
1.14461e-07
1.18546e-07
9.78903e-08
1.18659e-07
1.38033e-07
1.56544e-07
1.74428e-07
1.91645e-07
2.07933e-07
2.23026e-07
2.36953e-07
2.50062e-07
2.6268e-07
2.75007e-07
2.87461e-07
2.99296e-07
3.10402e-07
3.20269e-07
3.2871e-07
3.36259e-07
3.43346e-07
3.49951e-07
3.55724e-07
3.60248e-07
3.63238e-07
3.64587e-07
3.64316e-07
3.62492e-07
3.59163e-07
3.5432e-07
3.47851e-07
3.39524e-07
3.28988e-07
3.15814e-07
2.99609e-07
2.80153e-07
2.57496e-07
2.32014e-07
2.04422e-07
1.75612e-07
1.46168e-07
1.17783e-07
9.11982e-08
6.70313e-08
4.63292e-08
2.93628e-08
1.63716e-08
7.45834e-09
2.45186e-09
9.20623e-10
2.14659e-09
5.30465e-09
9.70032e-09
1.49211e-08
2.08355e-08
2.73892e-08
3.44959e-08
4.2028e-08
4.97889e-08
5.7587e-08
6.53385e-08
7.29984e-08
8.04617e-08
8.77147e-08
9.49823e-08
1.02332e-07
1.09304e-07
1.15436e-07
1.21101e-07
1.26628e-07
1.31506e-07
1.34865e-07
1.36191e-07
1.36264e-07
1.35675e-07
1.34487e-07
1.32481e-07
1.29579e-07
1.25728e-07
1.20854e-07
1.14825e-07
1.07791e-07
1.00408e-07
9.34545e-08
8.75163e-08
8.30349e-08
8.02661e-08
7.93127e-08
8.00734e-08
8.26685e-08
8.70471e-08
9.28173e-08
8.39537e-08
1.06559e-07
1.27406e-07
1.47323e-07
1.66404e-07
1.84173e-07
2.00269e-07
2.14918e-07
2.28712e-07
2.42149e-07
2.55302e-07
2.67326e-07
2.76892e-07
2.86895e-07
2.98425e-07
3.10804e-07
3.22188e-07
3.30868e-07
3.3682e-07
3.40236e-07
3.41588e-07
3.4142e-07
3.40071e-07
3.3764e-07
3.34098e-07
3.29387e-07
3.23477e-07
3.16362e-07
3.07986e-07
2.98144e-07
2.86403e-07
2.721e-07
2.5446e-07
2.32807e-07
2.0678e-07
1.76492e-07
1.42581e-07
1.06174e-07
6.88476e-08
3.23501e-08
-2.20425e-09
-3.28821e-08
-5.83818e-08
-7.76287e-08
-9.02038e-08
-9.61712e-08
-9.5917e-08
-9.02708e-08
-8.02844e-08
-6.69938e-08
-5.14302e-08
-3.46022e-08
-1.74408e-08
-7.75008e-10
1.48107e-08
2.90444e-08
4.18716e-08
5.34301e-08
6.39846e-08
7.37684e-08
8.2905e-08
9.15062e-08
9.97531e-08
1.07632e-07
1.14768e-07
1.20981e-07
1.26632e-07
1.3185e-07
1.35944e-07
1.38199e-07
1.38826e-07
1.38609e-07
1.37879e-07
1.36155e-07
1.32431e-07
1.25821e-07
1.16382e-07
1.04892e-07
9.23596e-08
7.97404e-08
6.78516e-08
5.73994e-08
4.8939e-08
4.28461e-08
3.93285e-08
3.84237e-08
3.99651e-08
4.38652e-08
4.98653e-08
5.7604e-08
6.00883e-08
8.48698e-08
1.06885e-07
1.27222e-07
1.46587e-07
1.64992e-07
1.82013e-07
1.97613e-07
2.1214e-07
2.25836e-07
2.3956e-07
2.54233e-07
2.68764e-07
2.79917e-07
2.86218e-07
2.88305e-07
2.88572e-07
2.87891e-07
2.87915e-07
2.88581e-07
2.89292e-07
2.89362e-07
2.88237e-07
2.85523e-07
2.80965e-07
2.74437e-07
2.65984e-07
2.55857e-07
2.44434e-07
2.31996e-07
2.18484e-07
2.0336e-07
1.85642e-07
1.64152e-07
1.37889e-07
1.06398e-07
7.00082e-08
2.98088e-08
-1.25478e-08
-5.50338e-08
-9.55353e-08
-1.32217e-07
-1.63634e-07
-1.87496e-07
-2.02964e-07
-2.09608e-07
-2.07757e-07
-1.97941e-07
-1.81056e-07
-1.58474e-07
-1.31918e-07
-1.03164e-07
-7.3935e-08
-4.58203e-08
-1.99909e-08
2.92139e-09
2.27526e-08
3.97166e-08
5.41936e-08
6.66064e-08
7.7414e-08
8.70427e-08
9.58005e-08
1.03775e-07
1.10905e-07
1.17317e-07
1.23212e-07
1.28235e-07
1.3162e-07
1.33184e-07
1.33516e-07
1.32983e-07
1.30944e-07
1.2613e-07
1.17539e-07
1.05029e-07
8.93186e-08
7.16871e-08
5.35511e-08
3.61538e-08
2.04392e-08
7.06606e-09
-3.54455e-09
-1.11444e-08
-1.56051e-08
-1.68237e-08
-1.46432e-08
-9.82933e-09
-2.41234e-09
7.28405e-09
2.53504e-08
5.2178e-08
7.59506e-08
9.78538e-08
1.1814e-07
1.36875e-07
1.5424e-07
1.70269e-07
1.85685e-07
2.00441e-07
2.12081e-07
2.16858e-07
2.15882e-07
2.12647e-07
2.10165e-07
2.09146e-07
2.09056e-07
2.11021e-07
2.14109e-07
2.17921e-07
2.21748e-07
2.24667e-07
2.25815e-07
2.24523e-07
2.2035e-07
2.13055e-07
2.02621e-07
1.89379e-07
1.74044e-07
1.57497e-07
1.4037e-07
1.22659e-07
1.03581e-07
8.17392e-08
5.55897e-08
2.40368e-08
-1.31286e-08
-5.51013e-08
-1.00214e-07
-1.46298e-07
-1.90941e-07
-2.31687e-07
-2.66511e-07
-2.94065e-07
-3.12372e-07
-3.20694e-07
-3.18718e-07
-3.06931e-07
-2.86186e-07
-2.57767e-07
-2.23402e-07
-1.85186e-07
-1.45362e-07
-1.06033e-07
-6.90002e-08
-3.57175e-08
-7.05546e-09
1.68101e-08
3.62244e-08
5.19146e-08
6.47551e-08
7.54344e-08
8.44253e-08
9.21258e-08
9.88859e-08
1.04934e-07
1.10184e-07
1.14153e-07
1.16429e-07
1.17152e-07
1.16595e-07
1.14331e-07
1.09144e-07
9.97503e-08
8.55786e-08
6.70988e-08
4.56084e-08
2.27098e-08
-1.45475e-10
-2.18496e-08
-4.16064e-08
-5.88237e-08
-7.30187e-08
-8.37773e-08
-9.0758e-08
-9.36872e-08
-9.23262e-08
-8.71703e-08
-7.8284e-08
-6.59972e-08
-1.7962e-08
1.32858e-08
3.9423e-08
6.1874e-08
8.25349e-08
1.02245e-07
1.20513e-07
1.35641e-07
1.43762e-07
1.43899e-07
1.3879e-07
1.31481e-07
1.23474e-07
1.16275e-07
1.11591e-07
1.1038e-07
1.1293e-07
1.19023e-07
1.27644e-07
1.37551e-07
1.47343e-07
1.55617e-07
1.61171e-07
1.63195e-07
1.61261e-07
1.55143e-07
1.44853e-07
1.3087e-07
1.14128e-07
9.56269e-08
7.6012e-08
5.53961e-08
3.33402e-08
8.83762e-09
-1.94767e-08
-5.27951e-08
-9.1585e-08
-1.3529e-07
-1.82406e-07
-2.30772e-07
-2.77912e-07
-3.21313e-07
-3.58648e-07
-3.88167e-07
-4.08142e-07
-4.17919e-07
-4.16594e-07
-4.04441e-07
-3.8216e-07
-3.50839e-07
-3.12113e-07
-2.68003e-07
-2.20678e-07
-1.72445e-07
-1.2579e-07
-8.30039e-08
-4.56181e-08
-1.43052e-08
1.09424e-08
3.07298e-08
4.60065e-08
5.77518e-08
6.69014e-08
7.42656e-08
8.03673e-08
8.54005e-08
8.92429e-08
9.15754e-08
9.22303e-08
9.12681e-08
8.84986e-08
8.3037e-08
7.35389e-08
5.89698e-08
3.92396e-08
1.52625e-08
-1.14826e-08
-3.94768e-08
-6.74345e-08
-9.43176e-08
-1.19252e-07
-1.41448e-07
-1.60177e-07
-1.74795e-07
-1.84778e-07
-1.8975e-07
-1.89599e-07
-1.84223e-07
-1.73831e-07
-1.58782e-07
-6.7027e-08
-3.24894e-08
-4.75892e-09
1.92857e-08
4.08171e-08
5.81229e-08
6.7723e-08
6.76773e-08
5.94116e-08
4.57364e-08
2.96157e-08
1.39195e-08
1.01773e-09
-7.25155e-09
-9.52695e-09
-8.21985e-09
-1.28428e-09
1.02697e-08
2.50501e-08
4.14623e-08
5.7815e-08
7.24001e-08
8.36757e-08
9.06082e-08
9.28554e-08
9.04124e-08
8.3312e-08
7.1987e-08
5.75951e-08
4.14314e-08
2.39482e-08
4.52986e-09
-1.79142e-08
-4.44021e-08
-7.57276e-08
-1.12368e-07
-1.5425e-07
-2.00559e-07
-2.49765e-07
-2.99834e-07
-3.48422e-07
-3.9311e-07
-4.31627e-07
-4.62138e-07
-4.83414e-07
-4.93548e-07
-4.92649e-07
-4.80648e-07
-4.5805e-07
-4.2573e-07
-3.85054e-07
-3.37878e-07
-2.8638e-07
-2.32968e-07
-1.80226e-07
-1.30641e-07
-8.62892e-08
-4.86441e-08
-1.82952e-08
5.19506e-09
2.29281e-08
3.6175e-08
4.60814e-08
5.34978e-08
5.89477e-08
6.26873e-08
6.47287e-08
6.49514e-08
6.32962e-08
5.97001e-08
5.37014e-08
4.42174e-08
2.99562e-08
1.01764e-08
-1.48642e-08
-4.40652e-08
-7.59809e-08
-1.09209e-07
-1.42514e-07
-1.74798e-07
-2.05043e-07
-2.32293e-07
-2.55674e-07
-2.74402e-07
-2.8781e-07
-2.95345e-07
-2.96494e-07
-2.91834e-07
-2.8104e-07
-2.6429e-07
-1.29014e-07
-9.07169e-08
-6.04249e-08
-3.65285e-08
-2.11941e-08
-1.70702e-08
-2.34133e-08
-3.79325e-08
-5.81493e-08
-8.10834e-08
-1.03616e-07
-1.23125e-07
-1.37696e-07
-1.46058e-07
-1.47602e-07
-1.41239e-07
-1.29372e-07
-1.12553e-07
-9.1838e-08
-6.87129e-08
-4.48684e-08
-2.21108e-08
-2.42855e-09
1.23298e-08
2.13185e-08
2.48501e-08
2.35109e-08
1.77403e-08
8.32352e-09
-3.57665e-09
-1.73674e-08
-3.37329e-08
-5.41968e-08
-8.01746e-08
-1.12442e-07
-1.51024e-07
-1.95209e-07
-2.43653e-07
-2.9451e-07
-3.45615e-07
-3.94704e-07
-4.39539e-07
-4.7803e-07
-5.08363e-07
-5.29211e-07
-5.39737e-07
-5.39347e-07
-5.28037e-07
-5.06098e-07
-4.74268e-07
-4.33786e-07
-3.86302e-07
-3.3372e-07
-2.78253e-07
-2.22473e-07
-1.69064e-07
-1.20489e-07
-7.86225e-08
-4.43262e-08
-1.74125e-08
2.93697e-09
1.77689e-08
2.81662e-08
3.51092e-08
3.93669e-08
4.14093e-08
4.13808e-08
3.92484e-08
3.49806e-08
2.84265e-08
1.8958e-08
5.41242e-09
-1.33897e-08
-3.79606e-08
-6.78706e-08
-1.02011e-07
-1.39019e-07
-1.77542e-07
-2.16308e-07
-2.54114e-07
-2.89815e-07
-3.22353e-07
-3.50758e-07
-3.74119e-07
-3.91599e-07
-4.02496e-07
-4.06472e-07
-4.03093e-07
-3.92266e-07
-3.74121e-07
-1.89256e-07
-1.52386e-07
-1.27421e-07
-1.14206e-07
-1.12461e-07
-1.20753e-07
-1.37569e-07
-1.61e-07
-1.88224e-07
-2.15982e-07
-2.41266e-07
-2.61665e-07
-2.75328e-07
-2.81065e-07
-2.79862e-07
-2.70065e-07
-2.52772e-07
-2.28942e-07
-1.99953e-07
-1.6774e-07
-1.3451e-07
-1.02322e-07
-7.32733e-08
-4.96557e-08
-3.29162e-08
-2.28084e-08
-1.83583e-08
-1.89748e-08
-2.41847e-08
-3.30937e-08
-4.47948e-08
-5.92577e-08
-7.75794e-08
-1.01363e-07
-1.31864e-07
-1.69407e-07
-2.13208e-07
-2.61591e-07
-3.12395e-07
-3.6328e-07
-4.11896e-07
-4.56022e-07
-4.93667e-07
-5.23178e-07
-5.43397e-07
-5.53716e-07
-5.53538e-07
-5.43061e-07
-5.22443e-07
-4.92255e-07
-4.5352e-07
-4.07618e-07
-3.56254e-07
-3.01479e-07
-2.45642e-07
-1.91264e-07
-1.40886e-07
-9.66831e-08
-5.9973e-08
-3.11169e-08
-9.6929e-09
5.30974e-09
1.52057e-08
2.12668e-08
2.44407e-08
2.52039e-08
2.36395e-08
1.96934e-08
1.33165e-08
4.26104e-09
-8.22676e-09
-2.53243e-08
-4.80785e-08
-7.68297e-08
-1.11069e-07
-1.49702e-07
-1.91383e-07
-2.34726e-07
-2.7837e-07
-3.2102e-07
-3.61473e-07
-3.98615e-07
-4.31403e-07
-4.58834e-07
-4.7997e-07
-4.93982e-07
-5.00378e-07
-4.98736e-07
-4.8885e-07
-4.70704e-07
-2.35974e-07
-2.11535e-07
-1.97763e-07
-1.94483e-07
-2.01643e-07
-2.18531e-07
-2.43376e-07
-2.73287e-07
-3.04772e-07
-3.34422e-07
-3.59347e-07
-3.77348e-07
-3.87001e-07
-3.87972e-07
-3.79573e-07
-3.62411e-07
-3.37294e-07
-3.05482e-07
-2.68528e-07
-2.28453e-07
-1.87828e-07
-1.49157e-07
-1.14457e-07
-8.56546e-08
-6.41638e-08
-4.9788e-08
-4.13115e-08
-3.80327e-08
-3.97382e-08
-4.58184e-08
-5.53454e-08
-6.78761e-08
-8.39575e-08
-1.04944e-07
-1.32307e-07
-1.66796e-07
-2.07922e-07
-2.54041e-07
-3.02857e-07
-3.51902e-07
-3.98797e-07
-4.41331e-07
-4.77561e-07
-5.05947e-07
-5.25403e-07
-5.35274e-07
-5.35527e-07
-5.25903e-07
-5.06681e-07
-4.78465e-07
-4.42206e-07
-3.99142e-07
-3.5077e-07
-2.98875e-07
-2.45599e-07
-1.93423e-07
-1.44905e-07
-1.02196e-07
-6.6631e-08
-3.86132e-08
-1.77032e-08
-2.86009e-09
7.18572e-09
1.35365e-08
1.68717e-08
1.74456e-08
1.52927e-08
1.043e-08
2.82705e-09
-7.86015e-09
-2.24786e-08
-4.2168e-08
-6.78275e-08
-9.96673e-08
-1.37133e-07
-1.79137e-07
-2.24335e-07
-2.71292e-07
-3.18585e-07
-3.64869e-07
-4.08904e-07
-4.49558e-07
-4.85755e-07
-5.16457e-07
-5.40658e-07
-5.57562e-07
-5.66743e-07
-5.67348e-07
-5.59307e-07
-5.42411e-07
-2.41451e-07
-2.29226e-07
-2.27371e-07
-2.36644e-07
-2.56346e-07
-2.8452e-07
-3.18194e-07
-3.53816e-07
-3.87859e-07
-4.17239e-07
-4.3963e-07
-4.53534e-07
-4.5769e-07
-4.52074e-07
-4.36886e-07
-4.1284e-07
-3.80974e-07
-3.4272e-07
-2.99835e-07
-2.54193e-07
-2.08051e-07
-1.64205e-07
-1.25261e-07
-9.31275e-08
-6.89069e-08
-5.2437e-08
-4.24857e-08
-3.79097e-08
-3.80614e-08
-4.22408e-08
-4.96222e-08
-5.9788e-08
-7.30912e-08
-9.06158e-08
-1.13798e-07
-1.43713e-07
-1.80329e-07
-2.22304e-07
-2.67424e-07
-3.13203e-07
-3.57244e-07
-3.97373e-07
-4.31683e-07
-4.5864e-07
-4.77215e-07
-4.86892e-07
-4.87669e-07
-4.79271e-07
-4.62088e-07
-4.36602e-07
-4.03599e-07
-3.64167e-07
-3.19713e-07
-2.72017e-07
-2.23208e-07
-1.75575e-07
-1.31268e-07
-9.2055e-08
-5.9126e-08
-3.29023e-08
-1.29774e-08
1.60238e-09
1.18599e-08
1.85411e-08
2.20291e-08
2.24582e-08
1.99002e-08
1.44584e-08
6.12913e-09
-5.47095e-09
-2.12011e-08
-4.21479e-08
-6.91441e-08
-1.0238e-07
-1.41346e-07
-1.85011e-07
-2.32049e-07
-2.81016e-07
-3.30454e-07
-3.7896e-07
-4.25253e-07
-4.68164e-07
-5.06595e-07
-5.3948e-07
-5.65824e-07
-5.84859e-07
-5.96177e-07
-5.98979e-07
-5.93038e-07
-1.78442e-07
-1.87926e-07
-2.07996e-07
-2.3701e-07
-2.73186e-07
-3.13719e-07
-3.55365e-07
-3.94851e-07
-4.29265e-07
-4.56393e-07
-4.74829e-07
-4.83041e-07
-4.81438e-07
-4.69954e-07
-4.49205e-07
-4.20157e-07
-3.83939e-07
-3.41796e-07
-2.95356e-07
-2.46552e-07
-1.97452e-07
-1.50616e-07
-1.08818e-07
-7.41742e-08
-4.7979e-08
-3.0544e-08
-2.07147e-08
-1.66222e-08
-1.68695e-08
-2.05911e-08
-2.70616e-08
-3.58066e-08
-4.68895e-08
-6.10156e-08
-7.946e-08
-1.03603e-07
-1.34075e-07
-1.70158e-07
-2.09967e-07
-2.51116e-07
-2.91244e-07
-3.28211e-07
-3.60161e-07
-3.85567e-07
-4.03346e-07
-4.12928e-07
-4.14321e-07
-4.07198e-07
-3.92216e-07
-3.6982e-07
-3.40635e-07
-3.05583e-07
-2.65948e-07
-2.23382e-07
-1.79786e-07
-1.37151e-07
-9.74359e-08
-6.23948e-08
-3.31993e-08
-1.00945e-08
7.51172e-09
2.05758e-08
2.99502e-08
3.61605e-08
3.94241e-08
3.98021e-08
3.73566e-08
3.21616e-08
2.41285e-08
1.27941e-08
-2.7218e-09
-2.34591e-08
-5.01915e-08
-8.31083e-08
-1.21764e-07
-1.65218e-07
-2.12207e-07
-2.61308e-07
-3.11067e-07
-3.60082e-07
-4.07051e-07
-4.50809e-07
-4.90277e-07
-5.24417e-07
-5.52258e-07
-5.73077e-07
-5.8639e-07
-5.91454e-07
-5.8789e-07
-8.86363e-08
-1.24516e-07
-1.66968e-07
-2.13947e-07
-2.63142e-07
-3.11843e-07
-3.57254e-07
-3.96838e-07
-4.28748e-07
-4.51918e-07
-4.64898e-07
-4.67952e-07
-4.60991e-07
-4.44737e-07
-4.19914e-07
-3.87259e-07
-3.47877e-07
-3.03222e-07
-2.55089e-07
-2.05672e-07
-1.5728e-07
-1.1239e-07
-7.35573e-08
-4.2289e-08
-1.86844e-08
-2.25516e-09
7.82898e-09
1.27418e-08
1.35661e-08
1.10974e-08
6.04463e-09
-9.61853e-10
-9.61736e-09
-2.01667e-08
-3.35381e-08
-5.11804e-08
-7.4335e-08
-1.03135e-07
-1.36311e-07
-1.71689e-07
-2.06925e-07
-2.39901e-07
-2.6882e-07
-2.92187e-07
-3.08881e-07
-3.18216e-07
-3.20004e-07
-3.14014e-07
-3.01098e-07
-2.81701e-07
-2.56463e-07
-2.2626e-07
-1.92234e-07
-1.55784e-07
-1.18536e-07
-8.23036e-08
-4.89332e-08
-1.99515e-08
3.89063e-09
2.27668e-08
3.74412e-08
4.87381e-08
5.72015e-08
6.3063e-08
6.6376e-08
6.71596e-08
6.54631e-08
6.13028e-08
5.44962e-08
4.45109e-08
3.04848e-08
1.14627e-08
-1.32668e-08
-4.39157e-08
-8.01347e-08
-1.21116e-07
-1.65743e-07
-2.12734e-07
-2.60733e-07
-3.08383e-07
-3.54418e-07
-3.97673e-07
-4.37079e-07
-4.71648e-07
-5.00579e-07
-5.23502e-07
-5.38359e-07
-5.45712e-07
-5.44943e-07
-2.87535e-08
-7.95199e-08
-1.32742e-07
-1.86598e-07
-2.39015e-07
-2.87706e-07
-3.30491e-07
-3.65775e-07
-3.92553e-07
-4.09606e-07
-4.17054e-07
-4.14967e-07
-4.0375e-07
-3.83789e-07
-3.55751e-07
-3.2062e-07
-2.7975e-07
-2.34842e-07
-1.87879e-07
-1.4131e-07
-9.76833e-08
-5.91306e-08
-2.73933e-08
-3.2243e-09
1.4164e-08
2.62914e-08
3.45173e-08
3.98013e-08
4.25943e-08
4.29995e-08
4.11836e-08
3.75153e-08
3.23725e-08
2.59018e-08
1.77242e-08
6.73534e-09
-8.5407e-09
-2.9059e-08
-5.44695e-08
-8.31069e-08
-1.12688e-07
-1.41018e-07
-1.66283e-07
-1.87044e-07
-2.02169e-07
-2.1082e-07
-2.125e-07
-2.08634e-07
-1.98186e-07
-1.81828e-07
-1.60354e-07
-1.34737e-07
-1.06125e-07
-7.5859e-08
-4.54746e-08
-1.65932e-08
9.35622e-09
3.15038e-08
4.97354e-08
6.45072e-08
7.64337e-08
8.59704e-08
9.33404e-08
9.86114e-08
1.01789e-07
1.02881e-07
1.01917e-07
9.8879e-08
9.3574e-08
8.55125e-08
7.39287e-08
5.79595e-08
3.69201e-08
1.05233e-08
-2.10692e-08
-5.72918e-08
-9.72639e-08
-1.39912e-07
-1.84044e-07
-2.28426e-07
-2.71893e-07
-3.13332e-07
-3.51649e-07
-3.8582e-07
-4.15103e-07
-4.38857e-07
-4.56786e-07
-4.67533e-07
-4.70618e-07
-3.8116e-09
-5.46692e-08
-1.06035e-07
-1.56139e-07
-2.03151e-07
-2.45333e-07
-2.81228e-07
-3.09315e-07
-3.28591e-07
-3.38894e-07
-3.40398e-07
-3.33423e-07
-3.18355e-07
-2.95836e-07
-2.66656e-07
-2.31679e-07
-1.92389e-07
-1.51007e-07
-1.0966e-07
-7.03158e-08
-3.49951e-08
-5.10054e-09
1.87479e-08
3.65005e-08
4.89223e-08
5.74256e-08
6.35226e-08
6.83396e-08
7.22429e-08
7.50297e-08
7.64821e-08
7.65581e-08
7.52611e-08
7.26551e-08
6.88576e-08
6.35297e-08
5.55157e-08
4.33865e-08
2.64466e-08
5.39957e-09
-1.78683e-08
-4.11017e-08
-6.23408e-08
-8.01288e-08
-9.3439e-08
-1.01578e-07
-1.04159e-07
-1.01391e-07
-9.30185e-08
-7.95945e-08
-6.1809e-08
-4.05887e-08
-1.71086e-08
7.24855e-09
3.10159e-08
5.28828e-08
7.198e-08
8.80476e-08
1.01323e-07
1.12236e-07
1.21142e-07
1.28247e-07
1.33692e-07
1.37647e-07
1.40306e-07
1.41801e-07
1.42112e-07
1.41024e-07
1.38117e-07
1.32795e-07
1.24353e-07
1.12105e-07
9.55149e-08
7.43113e-08
4.85348e-08
1.85265e-08
-1.513e-08
-5.1658e-08
-9.01356e-08
-1.29575e-07
-1.68988e-07
-2.07374e-07
-2.43676e-07
-2.77151e-07
-3.07464e-07
-3.32609e-07
-3.52711e-07
-3.66652e-07
-3.73885e-07
4.84015e-09
-3.66743e-08
-7.81161e-08
-1.18281e-07
-1.5574e-07
-1.88475e-07
-2.14906e-07
-2.33949e-07
-2.45059e-07
-2.48341e-07
-2.44183e-07
-2.33153e-07
-2.1568e-07
-1.92334e-07
-1.64404e-07
-1.33392e-07
-1.00605e-07
-6.76535e-08
-3.62303e-08
-7.72898e-09
1.66877e-08
3.65636e-08
5.2345e-08
6.47789e-08
7.46142e-08
8.25929e-08
8.93619e-08
9.54087e-08
1.00945e-07
1.05914e-07
1.10212e-07
1.13646e-07
1.15756e-07
1.16216e-07
1.15299e-07
1.1355e-07
1.10782e-07
1.05706e-07
9.68782e-08
8.38559e-08
6.75678e-08
4.98929e-08
3.29045e-08
1.83387e-08
7.42243e-09
8.73707e-10
-9.34167e-10
2.27035e-09
9.35825e-09
2.01704e-08
3.41466e-08
5.05097e-08
6.82628e-08
8.62856e-08
1.0351e-07
1.19114e-07
1.32666e-07
1.44101e-07
1.5355e-07
1.61155e-07
1.67001e-07
1.71208e-07
1.74078e-07
1.76105e-07
1.77797e-07
1.79423e-07
1.80833e-07
1.81511e-07
1.80776e-07
1.77972e-07
1.72577e-07
1.64198e-07
1.52535e-07
1.37374e-07
1.1861e-07
9.62773e-08
7.05685e-08
4.18469e-08
1.06373e-08
-2.24045e-08
-5.65213e-08
-9.0843e-08
-1.24604e-07
-1.57514e-07
-1.87367e-07
-2.14578e-07
-2.37544e-07
-2.55569e-07
-2.67958e-07
1.46095e-08
-1.3249e-08
-4.12934e-08
-6.86063e-08
-9.43019e-08
-1.16406e-07
-1.32867e-07
-1.42734e-07
-1.4614e-07
-1.43817e-07
-1.3648e-07
-1.24788e-07
-1.09326e-07
-9.04343e-08
-6.87248e-08
-4.55375e-08
-2.24207e-08
-6.62268e-10
1.88986e-08
3.60409e-08
5.08036e-08
6.34187e-08
7.44088e-08
8.42559e-08
9.32539e-08
1.01674e-07
1.09827e-07
1.17842e-07
1.25445e-07
1.32239e-07
1.38227e-07
1.43633e-07
1.48164e-07
1.50983e-07
1.51926e-07
1.51934e-07
1.51803e-07
1.5128e-07
1.49059e-07
1.43642e-07
1.34893e-07
1.23953e-07
1.12147e-07
1.00904e-07
9.17781e-08
8.60123e-08
8.42719e-08
8.68525e-08
9.24784e-08
1.01438e-07
1.12924e-07
1.26023e-07
1.39842e-07
1.53553e-07
1.66485e-07
1.7818e-07
1.88419e-07
1.97137e-07
2.04288e-07
2.09798e-07
2.13633e-07
2.15935e-07
2.17075e-07
2.17564e-07
2.1785e-07
2.18139e-07
2.18356e-07
2.18218e-07
2.17377e-07
2.1554e-07
2.12482e-07
2.07985e-07
2.01758e-07
1.93408e-07
1.8249e-07
1.68591e-07
1.51446e-07
1.30997e-07
1.07412e-07
8.10651e-08
5.24726e-08
2.22271e-08
-9.02965e-09
-3.99789e-08
-7.05769e-08
-9.90681e-08
-1.24717e-07
-1.46765e-07
-1.64534e-07
4.53176e-08
3.07557e-08
1.47572e-08
-3.39884e-09
-2.03376e-08
-3.40162e-08
-4.33942e-08
-4.83165e-08
-4.91592e-08
-4.63331e-08
-4.03128e-08
-3.17043e-08
-2.13495e-08
-9.94886e-09
2.04053e-09
1.42389e-08
2.63792e-08
3.82531e-08
4.97359e-08
6.08384e-08
7.15482e-08
8.18103e-08
9.16641e-08
1.01223e-07
1.10552e-07
1.19602e-07
1.28253e-07
1.3644e-07
1.44131e-07
1.51212e-07
1.57542e-07
1.63124e-07
1.6802e-07
1.72066e-07
1.7493e-07
1.7643e-07
1.76992e-07
1.77412e-07
1.78054e-07
1.78824e-07
1.78856e-07
1.76392e-07
1.70939e-07
1.63834e-07
1.57197e-07
1.52485e-07
1.50302e-07
1.50695e-07
1.54494e-07
1.61107e-07
1.69885e-07
1.80197e-07
1.91326e-07
2.0259e-07
2.13459e-07
2.236e-07
2.32792e-07
2.40834e-07
2.47524e-07
2.52673e-07
2.56175e-07
2.58092e-07
2.58681e-07
2.58319e-07
2.57393e-07
2.56214e-07
2.54984e-07
2.53841e-07
2.52899e-07
2.52218e-07
2.51724e-07
2.51115e-07
2.49836e-07
2.47155e-07
2.4231e-07
2.34625e-07
2.23542e-07
2.0876e-07
1.90394e-07
1.68623e-07
1.43494e-07
1.1599e-07
8.69948e-08
5.77446e-08
2.87576e-08
3.72678e-10
-2.69739e-08
-5.26902e-08
-7.61485e-08
9.20345e-08
8.21108e-08
6.95831e-08
5.69279e-08
4.57066e-08
3.67663e-08
3.03418e-08
2.61583e-08
2.3719e-08
2.2624e-08
2.29594e-08
2.48039e-08
2.79661e-08
3.23141e-08
3.78675e-08
4.46518e-08
5.25619e-08
6.12858e-08
7.04004e-08
7.96032e-08
8.87768e-08
9.79148e-08
1.07055e-07
1.16142e-07
1.25034e-07
1.33603e-07
1.417e-07
1.49153e-07
1.5592e-07
1.62034e-07
1.67402e-07
1.72018e-07
1.76191e-07
1.80241e-07
1.84093e-07
1.87363e-07
1.89698e-07
1.9119e-07
1.9243e-07
1.93877e-07
1.95661e-07
1.97861e-07
2.00033e-07
2.01573e-07
2.01988e-07
2.01533e-07
2.01201e-07
2.02239e-07
2.04366e-07
2.08464e-07
2.14444e-07
2.21872e-07
2.3027e-07
2.39185e-07
2.48194e-07
2.5693e-07
2.65088e-07
2.72408e-07
2.78652e-07
2.83613e-07
2.87158e-07
2.89281e-07
2.90135e-07
2.90008e-07
2.89292e-07
2.88438e-07
2.8787e-07
2.87903e-07
2.88686e-07
2.90156e-07
2.92036e-07
2.93865e-07
2.94995e-07
2.94711e-07
2.92355e-07
2.87396e-07
2.79286e-07
2.67819e-07
2.53535e-07
2.35907e-07
2.15303e-07
1.91752e-07
1.65892e-07
1.37716e-07
1.08428e-07
7.96142e-08
5.13747e-08
2.24772e-08
-8.25888e-09
1.10607e-07
1.04128e-07
9.71067e-08
8.97695e-08
8.20972e-08
7.44717e-08
6.76525e-08
6.22792e-08
5.85219e-08
5.62328e-08
5.52576e-08
5.56412e-08
5.74438e-08
6.05479e-08
6.47657e-08
6.98729e-08
7.56601e-08
8.19738e-08
8.87003e-08
9.57867e-08
1.03202e-07
1.10836e-07
1.18523e-07
1.26116e-07
1.33487e-07
1.40551e-07
1.4725e-07
1.53469e-07
1.59114e-07
1.64251e-07
1.68988e-07
1.73309e-07
1.77227e-07
1.80945e-07
1.84664e-07
1.88329e-07
1.91718e-07
1.94799e-07
1.97722e-07
2.00572e-07
2.03438e-07
2.06281e-07
2.08947e-07
2.11716e-07
2.15147e-07
2.19364e-07
2.23937e-07
2.28312e-07
2.33665e-07
2.39083e-07
2.44883e-07
2.51194e-07
2.57987e-07
2.65104e-07
2.72326e-07
2.79408e-07
2.86102e-07
2.92177e-07
2.97433e-07
3.01728e-07
3.05024e-07
3.07398e-07
3.09053e-07
3.10297e-07
3.1147e-07
3.1285e-07
3.14618e-07
3.16851e-07
3.19507e-07
3.22374e-07
3.25086e-07
3.27092e-07
3.27769e-07
3.26778e-07
3.2356e-07
3.18683e-07
3.118e-07
3.02786e-07
2.91298e-07
2.77684e-07
2.62044e-07
2.45279e-07
2.26754e-07
2.03574e-07
1.73258e-07
1.38595e-07
1.04263e-07
7.19043e-08
3.98308e-08
1.17564e-07
1.17743e-07
1.16445e-07
1.12695e-07
1.07126e-07
1.01019e-07
9.54456e-08
9.10857e-08
8.81075e-08
8.61667e-08
8.49364e-08
8.43598e-08
8.45166e-08
8.54197e-08
8.70484e-08
8.94282e-08
9.25907e-08
9.64959e-08
1.0101e-07
1.05969e-07
1.11255e-07
1.16796e-07
1.2251e-07
1.28312e-07
1.34126e-07
1.39874e-07
1.45502e-07
1.50993e-07
1.56299e-07
1.61328e-07
1.66013e-07
1.70351e-07
1.7439e-07
1.7822e-07
1.81952e-07
1.85673e-07
1.89416e-07
1.93163e-07
1.96917e-07
2.00676e-07
2.04598e-07
2.08775e-07
2.13237e-07
2.17942e-07
2.22793e-07
2.27693e-07
2.32736e-07
2.38188e-07
2.44262e-07
2.50869e-07
2.57854e-07
2.65047e-07
2.72307e-07
2.79507e-07
2.86518e-07
2.93202e-07
2.99417e-07
3.05041e-07
3.09959e-07
3.14064e-07
3.17364e-07
3.19963e-07
3.22051e-07
3.23891e-07
3.25754e-07
3.27875e-07
3.30402e-07
3.33395e-07
3.36722e-07
3.40122e-07
3.43512e-07
3.46246e-07
3.47971e-07
3.4834e-07
3.47781e-07
3.45543e-07
3.4153e-07
3.34038e-07
3.21369e-07
3.04044e-07
2.83905e-07
2.6404e-07
2.47324e-07
2.31908e-07
2.1382e-07
1.88168e-07
1.54612e-07
1.1569e-07
7.46454e-08
1.48411e-07
1.49834e-07
1.46946e-07
1.41483e-07
1.35235e-07
1.29273e-07
1.24048e-07
1.19536e-07
1.15472e-07
1.11582e-07
1.07804e-07
1.04479e-07
1.02075e-07
1.00725e-07
1.00264e-07
1.00478e-07
1.01231e-07
1.02488e-07
1.04286e-07
1.06669e-07
1.09656e-07
1.13255e-07
1.17456e-07
1.22207e-07
1.2741e-07
1.32938e-07
1.38642e-07
1.44367e-07
1.49977e-07
1.55392e-07
1.60543e-07
1.65382e-07
1.69893e-07
1.74113e-07
1.78152e-07
1.82068e-07
1.86027e-07
1.90086e-07
1.94223e-07
1.98476e-07
2.0288e-07
2.07508e-07
2.124e-07
2.17598e-07
2.23152e-07
2.29091e-07
2.35406e-07
2.42063e-07
2.49021e-07
2.56223e-07