/*--------------------------------*- C++ -*----------------------------------*\
| =========                 |                                                 |
| \\      /  F ield         | OpenFOAM: The Open Source CFD Toolbox           |
|  \\    /   O peration     | Version:  2312                                  |
|   \\  /    A nd           | Website:  www.openfoam.com                      |
|    \\/     M anipulation  |                                                 |
\*---------------------------------------------------------------------------*/
FoamFile
{
    version     2.0;
    format      ascii;
    arch        "LSB;label=32;scalar=64";
    class       surfaceScalarField;
    location    "180000";
    object      phi;
}
// * * * * * * * * * * * * * * * * * * * * * * * * * * * * * * * * * * * * * //

dimensions      [0 3 -1 0 0 0 0];

oriented        oriented;

internalField   nonuniform List<scalar> 
5250
(
0.000210144
-5.58014e-06
0.000214566
-4.42129e-06
0.000217899
-3.33301e-06
0.000220411
-2.51232e-06
0.000222448
-2.03682e-06
0.000224277
-1.82941e-06
0.000226046
-1.76892e-06
0.000227798
-1.75154e-06
0.000229524
-1.72625e-06
0.000231214
-1.69023e-06
0.000232871
-1.65715e-06
0.000234482
-1.6107e-06
0.000235993
-1.51133e-06
0.000237347
-1.35328e-06
0.000238463
-1.11613e-06
0.000239227
-7.64125e-07
0.000239483
-2.56328e-07
0.000239088
3.95573e-07
0.000237828
1.2593e-06
0.000235485
2.34291e-06
0.000231903
3.58193e-06
0.000227277
4.62683e-06
0.000222034
5.24304e-06
0.000216713
5.32067e-06
0.000211801
4.91181e-06
0.000207636
4.16496e-06
0.000204395
3.24084e-06
0.000202088
2.30772e-06
0.000200589
1.49881e-06
0.00019969
8.98976e-07
0.000199151
5.39062e-07
0.000198535
6.15717e-07
0.000197491
1.04434e-06
0.000195716
1.77488e-06
0.000193069
2.64696e-06
0.000189659
3.41019e-06
0.000185704
3.95491e-06
0.000181272
4.43223e-06
0.000176205
5.06609e-06
0.000170269
5.93662e-06
0.000163246
7.02311e-06
0.000154716
8.52951e-06
0.000144893
9.82296e-06
0.000134006
1.08872e-05
0.000122411
1.15946e-05
0.000110578
1.18335e-05
9.89992e-05
1.15788e-05
8.81007e-05
1.08985e-05
7.82409e-05
9.85979e-06
6.96662e-05
8.57475e-06
6.24251e-05
7.24107e-06
5.65614e-05
5.86373e-06
5.20948e-05
4.46663e-06
4.90409e-05
3.05384e-06
4.73788e-05
1.66214e-06
4.70654e-05
3.13425e-07
4.7885e-05
-8.19628e-07
4.97176e-05
-1.83262e-06
5.24329e-05
-2.71527e-06
5.58986e-05
-3.46572e-06
5.99821e-05
-4.08354e-06
6.45493e-05
-4.56719e-06
6.94643e-05
-4.91499e-06
7.45893e-05
-5.12496e-06
7.97871e-05
-5.19783e-06
8.492e-05
-5.13293e-06
8.98226e-05
-4.9026e-06
9.43117e-05
-4.48913e-06
9.82164e-05
-3.9047e-06
0.000101394
-3.17754e-06
0.000103747
-2.35302e-06
0.000105232
-1.48457e-06
0.000105862
-6.30043e-07
0.000105733
1.28463e-07
0.00010508
6.53341e-07
0.000104136
9.43811e-07
0.000103188
9.47648e-07
0.000102512
6.76561e-07
0.000102315
1.96683e-07
0.000102796
-4.80497e-07
0.000103996
-1.20062e-06
0.000105855
-1.8587e-06
0.000108241
-2.38609e-06
0.000110988
-2.74656e-06
0.000113912
-2.92454e-06
0.000116832
-2.92013e-06
0.000119577
-2.74477e-06
0.000122003
-2.42567e-06
0.000124027
-2.02409e-06
-1.59798e-06
0.000566118
4.84733e-06
0.000557815
3.88154e-06
0.000551525
2.95736e-06
0.000546961
2.0512e-06
0.000543814
1.11031e-06
0.00054183
1.55124e-07
0.000540914
-8.52862e-07
0.000540921
-1.75908e-06
0.000541767
-2.57186e-06
0.00054346
-3.38313e-06
0.00054598
-4.17774e-06
0.000549314
-4.94461e-06
0.00055347
-5.66705e-06
0.00055845
-6.33387e-06
0.000564256
-6.92153e-06
0.000570883
-7.39178e-06
0.000578342
-7.71491e-06
0.000586604
-7.86651e-06
0.000595686
-7.82282e-06
0.000605655
-7.62545e-06
0.000616551
-7.31451e-06
0.00062799
-6.81193e-06
0.000639417
-6.18429e-06
0.000650191
-5.45278e-06
0.000659684
-4.5811e-06
0.000667346
-3.49709e-06
0.000672688
-2.10176e-06
0.000675206
-2.10141e-07
0.000675022
1.68298e-06
0.00067175
4.17043e-06
0.000665001
7.28802e-06
0.00065438
1.12371e-05
0.000640049
1.5375e-05
0.000622221
1.96027e-05
0.000601281
2.35872e-05
0.000577753
2.69388e-05
0.000552257
2.94508e-05
0.000525441
3.12478e-05
0.000497972
3.25355e-05
0.000470839
3.30695e-05
0.000444834
3.30285e-05
0.000420429
3.29338e-05
0.000397747
3.25053e-05
0.000377052
3.15824e-05
0.000358592
3.00547e-05
0.000342461
2.79644e-05
0.000328462
2.55776e-05
0.000316028
2.33324e-05
0.000304912
2.09754e-05
0.000294903
1.85844e-05
0.000285953
1.61906e-05
0.000278133
1.36833e-05
0.000271609
1.09913e-05
0.000266523
8.1393e-06
0.000262975
5.21051e-06
0.000260955
2.33316e-06
0.000260449
-3.13612e-07
0.000261392
-2.77582e-06
0.0002636
-4.92254e-06
0.000266874
-6.7404e-06
0.000271029
-8.23781e-06
0.000275887
-9.42587e-06
0.000281287
-1.03144e-05
0.000287067
-1.0905e-05
0.000293055
-1.1186e-05
0.000299054
-1.11315e-05
0.000304856
-1.07051e-05
0.000310244
-9.87738e-06
0.000314992
-8.65198e-06
0.000318895
-7.08121e-06
0.000321804
-5.26143e-06
0.000323637
-3.31804e-06
0.000324404
-1.39727e-06
0.000324157
3.76077e-07
0.000322917
1.89278e-06
0.000320916
2.94474e-06
0.000318405
3.45933e-06
0.000315651
3.43012e-06
0.000312923
2.9248e-06
0.000310374
2.0687e-06
0.000308158
1.01559e-06
0.000306372
-7.34537e-08
0.000304891
-9.0497e-07
0.000303707
-1.56211e-06
0.000302756
-1.97402e-06
0.000301966
-2.12969e-06
0.000301241
-2.01995e-06
0.000300458
-1.6427e-06
0.000299377
-9.42981e-07
1.19773e-08
0.000724528
1.68722e-05
0.000713208
1.52014e-05
0.000702882
1.32831e-05
0.000693721
1.12121e-05
0.000685744
9.08709e-06
0.000678934
6.96572e-06
0.000673235
4.84599e-06
0.000668774
2.70134e-06
0.000665697
5.0529e-07
0.000663987
-1.6725e-06
0.000663735
-3.92563e-06
0.000665001
-6.21081e-06
0.000667826
-8.49231e-06
0.000672229
-1.07371e-05
0.000678211
-1.29037e-05
0.00068576
-1.49401e-05
0.000694837
-1.67921e-05
0.000705387
-1.84168e-05
0.000717335
-1.97709e-05
0.000730522
-2.08121e-05
0.00074473
-2.15226e-05
0.000759828
-2.19103e-05
0.000775638
-2.19942e-05
0.000791945
-2.17595e-05
0.000808526
-2.11623e-05
0.000825168
-2.01386e-05
0.000841654
-1.85886e-05
0.000857853
-1.64086e-05
0.00087309
-1.35544e-05
0.00088718
-9.91934e-06
0.000899905
-5.43702e-06
0.000911283
-1.41233e-07
0.000920568
6.09078e-06
0.000927402
1.27683e-05
0.000931062
1.99275e-05
0.000930651
2.73496e-05
0.000925276
3.48257e-05
0.000914366
4.2158e-05
0.000897707
4.9194e-05
0.000874884
5.58926e-05
0.000845885
6.20279e-05
0.000812049
6.67693e-05
0.000774703
6.98519e-05
0.000735215
7.107e-05
0.000694963
7.03073e-05
0.000655357
6.75699e-05
0.00061789
6.30448e-05
0.000583726
5.74962e-05
0.000553208
5.14932e-05
0.000526572
4.5221e-05
0.000503939
3.88234e-05
0.000485205
3.24175e-05
0.000470004
2.61919e-05
0.000457805
2.03388e-05
0.000448212
1.48028e-05
0.000440775
9.76998e-06
0.000435151
5.31096e-06
0.000431046
1.32865e-06
0.000428079
-1.95513e-06
0.000426193
-4.85457e-06
0.000425419
-7.46342e-06
0.000425767
-9.77426e-06
0.00042722
-1.17675e-05
0.000429741
-1.34259e-05
0.000433277
-1.47217e-05
0.000437741
-1.55956e-05
0.000442986
-1.59505e-05
0.000448794
-1.56846e-05
0.000454886
-1.4744e-05
0.000460978
-1.31733e-05
0.000466837
-1.11205e-05
0.000472316
-8.79691e-06
0.000477341
-6.42285e-06
0.000481852
-4.13453e-06
0.000485809
-2.06424e-06
0.000489073
-3.19557e-07
0.00049163
9.02595e-07
0.000493356
1.70361e-06
0.00049418
2.10154e-06
0.000494114
2.13453e-06
0.000493258
1.87098e-06
0.000491776
1.40943e-06
0.000490001
8.69466e-07
0.000488086
3.52778e-07
0.000486203
-9.11495e-08
0.000484496
-4.22578e-07
0.00048299
-5.13671e-07
0.000481677
-3.29601e-07
0.000480578
1.55843e-07
9.29006e-07
0.000783103
3.20872e-05
0.000768669
2.96353e-05
0.000755038
2.69141e-05
0.000742312
2.39386e-05
0.000730652
2.07473e-05
0.00072026
1.7357e-05
0.000711333
1.37732e-05
0.000704024
1.00105e-05
0.00069843
6.09949e-06
0.000694656
2.10179e-06
0.000692787
-2.05747e-06
0.000692787
-6.21004e-06
0.000694589
-1.02949e-05
0.000698145
-1.42925e-05
0.000703421
-1.81796e-05
0.000710401
-2.19203e-05
0.000719084
-2.54758e-05
0.000729474
-2.88062e-05
0.000741565
-3.18617e-05
0.000755349
-3.45968e-05
0.000770793
-3.69666e-05
0.0007878
-3.89168e-05
0.000806199
-4.03932e-05
0.000825774
-4.13344e-05
0.000846283
-4.16715e-05
0.000867483
-4.13381e-05
0.000889151
-4.02575e-05
0.000911088
-3.83447e-05
0.000933068
-3.55348e-05
0.000954895
-3.17465e-05
0.000976343
-2.68851e-05
0.000997121
-2.0919e-05
0.00101706
-1.38436e-05
0.00103556
-5.73372e-06
0.00105238
3.10531e-06
0.00106679
1.29398e-05
0.0010783
2.33126e-05
0.00108639
3.40687e-05
0.00109061
4.49759e-05
0.00109079
5.57132e-05
0.001087
6.58212e-05
0.00107897
7.47937e-05
0.00106627
8.25563e-05
0.0010484
8.89356e-05
0.00102507
9.36419e-05
0.000996082
9.65557e-05
0.000961415
9.77115e-05
0.000921803
9.71081e-05
0.000878845
9.44512e-05
0.000834446
8.962e-05
0.00079046
8.28098e-05
0.000748541
7.43364e-05
0.000709969
6.47635e-05
0.000675482
5.4826e-05
0.000645247
4.50378e-05
0.000619249
3.57677e-05
0.000597309
2.72509e-05
0.000579074
1.9564e-05
0.0005644
1.27192e-05
0.000552821
6.72366e-06
0.000543785
1.57297e-06
0.000536896
-2.8855e-06
0.000531755
-6.62595e-06
0.000528177
-9.84799e-06
0.000526088
-1.26329e-05
0.000525499
-1.50069e-05
0.000526369
-1.682e-05
0.000528492
-1.78079e-05
0.000531463
-1.77145e-05
0.000534764
-1.64752e-05
0.000537966
-1.4322e-05
0.000540837
-1.16683e-05
0.000543318
-8.90357e-06
0.000545443
-6.25944e-06
0.000547207
-3.82855e-06
0.000548548
-1.66062e-06
0.000549241
2.10268e-07
0.000549162
1.78203e-06
0.000548382
2.88206e-06
0.000547004
3.51246e-06
0.000545173
3.70149e-06
0.000543071
3.51182e-06
0.000540924
3.01611e-06
0.000539005
2.27227e-06
0.000537586
1.3275e-06
0.000536925
2.38141e-07
0.000537358
-9.46049e-07
0.00053917
-2.14229e-06
0.000542608
-3.28173e-06
-4.29595e-06
0.000783598
4.85134e-05
0.000768135
4.50987e-05
0.000753729
4.13198e-05
0.000740495
3.71727e-05
0.000728573
3.26694e-05
0.00071809
2.78396e-05
0.000709153
2.27101e-05
0.000701797
1.73668e-05
0.000695969
1.19274e-05
0.000691572
6.49858e-06
0.000688413
1.10181e-06
0.000686606
-4.40268e-06
0.000686196
-9.8849e-06
0.000687439
-1.55358e-05
0.00069062
-2.13607e-05
0.000695956
-2.72563e-05
0.000703559
-3.30784e-05
0.000713451
-3.86987e-05
0.000725551
-4.39611e-05
0.000739709
-4.87555e-05
0.000755742
-5.29999e-05
0.000773457
-5.66311e-05
0.000792681
-5.96177e-05
0.000813287
-6.19397e-05
0.000835176
-6.35614e-05
0.000858274
-6.4436e-05
0.000882515
-6.44983e-05
0.000907827
-6.36568e-05
0.000934104
-6.18119e-05
0.000961209
-5.88516e-05
0.000988953
-5.46283e-05
0.00101703
-4.89918e-05
0.00104504
-4.18598e-05
0.00107249
-3.31792e-05
0.00109854
-2.29496e-05
0.00112274
-1.1262e-05
0.00114438
1.67677e-06
0.00116294
1.55044e-05
0.00117802
2.99047e-05
0.00118927
4.4461e-05
0.00119637
5.87169e-05
0.00119895
7.22199e-05
0.00119692
8.45777e-05
0.00119043
9.54346e-05
0.00117959
0.00010448
0.0011647
0.000111442
0.00114634
0.000116075
0.00112506
0.000118381
0.00110091
0.000118605
0.00107363
0.000116902
0.00104304
0.000113399
0.00100896
0.000108413
0.000971587
0.00010214
0.000931867
9.45457e-05
0.000891097
8.58078e-05
0.000850586
7.62784e-05
0.000811689
6.61485e-05
0.000775563
5.56899e-05
0.000742835
4.54463e-05
0.000713714
3.58451e-05
0.000688282
2.70046e-05
0.000666424
1.89732e-05
0.000647957
1.18408e-05
0.000632504
5.60532e-06
0.000619692
1.79221e-07
0.000609532
-4.84741e-06
0.000601813
-9.10059e-06
0.000596314
-1.23092e-05
0.000592465
-1.38653e-05
0.00058947
-1.348e-05
0.000586668
-1.15202e-05
0.00058374
-8.74033e-06
0.000580647
-5.81045e-06
0.000577441
-3.05424e-06
0.000574155
-5.41879e-07
0.000570885
1.6095e-06
0.000567502
3.59239e-06
0.000563693
5.59108e-06
0.000558822
7.75337e-06
0.000552379
9.956e-06
0.00054428
1.18003e-05
0.000534959
1.28325e-05
0.000525219
1.27557e-05
0.000515995
1.14964e-05
0.000508161
9.16201e-06
0.000502421
5.97795e-06
0.000499234
2.24095e-06
0.000499064
-1.97198e-06
0.00050201
-6.22769e-06
-1.02259e-05
0.000778066
6.60452e-05
0.000761504
6.16613e-05
0.00074595
5.68735e-05
0.000731429
5.1694e-05
0.000717987
4.6111e-05
0.000705637
4.01893e-05
0.000694256
3.40918e-05
0.000683656
2.79665e-05
0.000673805
2.17785e-05
0.00066503
1.52732e-05
0.000657919
8.21349e-06
0.000652893
6.23036e-07
0.000650843
-7.83461e-06
0.000651868
-1.65611e-05
0.000655966
-2.5459e-05
0.000662761
-3.4051e-05
0.000671658
-4.19756e-05
0.000682223
-4.92636e-05
0.00069417
-5.59078e-05
0.000707354
-6.194e-05
0.000721686
-6.73317e-05
0.000737203
-7.21478e-05
0.00075404
-7.6455e-05
0.000772377
-8.02764e-05
0.000792407
-8.35918e-05
0.000814317
-8.63464e-05
0.000838273
-8.84538e-05
0.000864408
-8.97918e-05
0.000892798
-9.02017e-05
0.000923427
-8.94813e-05
0.000956179
-8.73798e-05
0.000990791
-8.36038e-05
0.00102678
-7.7851e-05
0.00106347
-6.98703e-05
0.00110003
-5.95073e-05
0.00113553
-4.67603e-05
0.00116902
-3.18104e-05
0.0011995
-1.49802e-05
0.00122576
3.64585e-06
0.00124686
2.33655e-05
0.00126227
4.32975e-05
0.00127171
6.27867e-05
0.00127518
8.11077e-05
0.00127296
9.76557e-05
0.00126544
0.000111998
0.00125321
0.000123671
0.00123695
0.000132336
0.00121728
0.000138045
0.00119501
0.000140878
0.00117101
0.000140901
0.00114583
0.000138577
0.00111985
0.0001344
0.00109339
0.000128592
0.00106629
0.000121646
0.00103797
0.000114127
0.00100824
0.000106012
0.000977172
9.72178e-05
0.000944757
8.81048e-05
0.000911367
7.88363e-05
0.000877864
6.93475e-05
0.000844936
5.9933e-05
0.00081311
5.07986e-05
0.000783252
4.16994e-05
0.000756017
3.28401e-05
0.00073123
2.49659e-05
0.000708386
1.79965e-05
0.000688152
1.11338e-05
0.000671137
4.70591e-06
0.000656646
6.25305e-07
0.000643034
1.32285e-07
0.000629346
2.16846e-06
0.000616182
4.42352e-06
0.000605063
5.30832e-06
0.000596649
5.35934e-06
0.000589755
6.35235e-06
0.000581755
9.6099e-06
0.000570297
1.50496e-05
0.00055443
2.14585e-05
0.000534782
2.74017e-05
0.000512922
3.18155e-05
0.000490696
3.40263e-05
0.000469918
3.36105e-05
0.00045204
3.06343e-05
0.000438017
2.55186e-05
0.000428362
1.88176e-05
0.000423236
1.11035e-05
0.000422607
2.87075e-06
0.000425714
-5.07989e-06
0.00043231
-1.2823e-05
-2.00191e-05
0.000766672
8.7183e-05
0.000746419
8.19144e-05
0.000727153
7.61395e-05
0.000708723
7.01241e-05
0.000690875
6.39592e-05
0.000673545
5.75194e-05
0.000657026
5.06111e-05
0.000641885
4.31072e-05
0.000628813
3.48509e-05
0.000618679
2.54071e-05
0.00061237
1.45223e-05
0.00061034
2.65274e-06
0.000611325
-8.81909e-06
0.000614567
-1.9803e-05
0.000619055
-2.99474e-05
0.000623203
-3.81992e-05
0.000625897
-4.46697e-05
0.00062687
-5.02365e-05
0.000626781
-5.58188e-05
0.000626772
-6.19311e-05
0.000628111
-6.86699e-05
0.000631834
-7.58712e-05
0.000638648
-8.32695e-05
0.000648956
-9.05837e-05
0.000662939
-9.75752e-05
0.000680664
-0.000104071
0.000702172
-0.000109962
0.000727547
-0.000115167
0.000756906
-0.00011956
0.000790342
-0.000122918
0.000827835
-0.000124873
0.000869147
-0.000124916
0.000913757
-0.000122461
0.000960841
-0.000116954
0.00100933
-0.000107999
0.00105802
-9.54461e-05
0.00110562
-7.94071e-05
0.00115087
-6.02394e-05
0.00119295
-3.84278e-05
0.00123106
-1.47457e-05
0.00126358
1.07723e-05
0.00128973
3.6642e-05
0.00130873
6.21082e-05
0.00131996
8.64261e-05
0.00132318
0.000108775
0.00131855
0.000128305
0.00130637
0.000144509
0.00128746
0.000156959
0.00126325
0.000165091
0.00123526
0.000168888
0.00120502
0.000168819
0.00117425
0.000165175
0.00114422
0.000158613
0.0011155
0.000150375
0.00108833
0.000141292
0.00106253
0.000131816
0.00103726
0.000122488
0.00101198
0.000113386
0.000986486
0.000104326
0.000960126
9.57077e-05
0.000932452
8.76073e-05
0.000904202
7.90483e-05
0.000875991
6.99107e-05
0.000847123
6.17079e-05
0.000817304
5.47847e-05
0.00078814
4.71601e-05
0.000761305
3.79692e-05
0.000736257
2.97541e-05
0.000711413
2.54687e-05
0.000686847
2.46982e-05
0.000664683
2.43326e-05
0.000646771
2.23359e-05
0.000632197
1.9882e-05
0.000617494
2.00623e-05
0.000598728
2.51183e-05
0.000573529
3.48089e-05
0.000542121
4.64578e-05
0.000507109
5.6471e-05
0.000472111
6.23993e-05
0.000440472
6.34542e-05
0.000414424
6.00748e-05
0.000394802
5.32322e-05
0.000381528
4.39082e-05
0.000374066
3.29813e-05
0.000371698
2.11848e-05
0.000373715
9.08655e-06
0.000379636
-3.04945e-06
0.000389225
-1.46691e-05
0.00040182
-2.54177e-05
-3.50804e-05
0.000729195
0.000109572
0.000706545
0.000104565
0.000683626
9.90582e-05
0.000661363
9.23865e-05
0.000640695
8.46272e-05
0.00062188
7.63348e-05
0.000605019
6.74724e-05
0.000590919
5.72071e-05
0.000581107
4.46627e-05
0.000576913
2.96006e-05
0.000577438
1.39978e-05
0.000578049
2.042e-06
0.00057395
-4.72095e-06
0.000561588
-7.4409e-06
0.000541387
-9.74593e-06
0.000517145
-1.39578e-05
0.000493031
-2.05548e-05
0.00047197
-2.91763e-05
0.000456659
-4.05074e-05
0.000448333
-5.3605e-05
0.000447303
-6.76403e-05
0.00045317
-8.17383e-05
0.000465059
-9.51579e-05
0.000481872
-0.000107396
0.000502525
-0.000118228
0.000526139
-0.000127685
0.000552192
-0.000136016
0.000580603
-0.000143578
0.000611699
-0.000150656
0.000646056
-0.000157275
0.000684271
-0.000163088
0.000726728
-0.000167373
0.0007734
-0.000169133
0.000823803
-0.000167357
0.000877044
-0.000161241
0.000931913
-0.000150314
0.000987059
-0.000134554
0.00104114
-0.000114315
0.00109289
-9.01803e-05
0.00114107
-6.29305e-05
0.00118528
-3.34334e-05
0.00122457
-2.65277e-06
0.00125755
2.91293e-05
0.00128376
6.02213e-05
0.00130258
8.99546e-05
0.00131333
0.000117548
0.0013157
0.000142144
0.00130986
0.0001628
0.00129596
0.000178985
0.00127441
0.000190438
0.00124657
0.000196658
0.00121415
0.000197598
0.00117883
0.000193935
0.00114306
0.000186139
0.00110922
0.000175137
0.00107808
0.000162952
0.00104982
0.000150749
0.00102468
0.00013853
0.0010016
0.000127401
0.000978796
0.000118515
0.000956042
0.000110361
0.000933793
0.000101297
0.000910566
9.31379e-05
0.0008845
8.77733e-05
0.000856657
8.2628e-05
0.00082947
7.43467e-05
0.000802661
6.47788e-05
0.000773866
5.85486e-05
0.00074316
5.61749e-05
0.00071417
5.36886e-05
0.000689815
4.86873e-05
0.000668301
4.38499e-05
0.000644099
4.40843e-05
0.00061246
5.17013e-05
0.000572923
6.4655e-05
0.00052933
7.84019e-05
0.000487057
8.87306e-05
0.000450107
9.34214e-05
0.000420286
9.22201e-05
0.000397691
8.60494e-05
0.000381564
7.62016e-05
0.000370941
6.38548e-05
0.000364943
4.99069e-05
0.000362888
3.50357e-05
0.000364342
1.97313e-05
0.00036899
4.43824e-06
0.000376952
-1.10112e-05
0.000387902
-2.56197e-05
0.000401686
-3.92012e-05
-5.14703e-05
0.000680524
0.00013744
0.000654864
0.000130225
0.000632716
0.000121206
0.000612328
0.000112774
0.000591727
0.000105228
0.000572639
9.54227e-05
0.000559626
8.04853e-05
0.000554643
6.21906e-05
0.000552649
4.66564e-05
0.000543912
3.83384e-05
0.000521713
3.61963e-05
0.000486235
3.75201e-05
0.000442424
3.90903e-05
0.000397474
3.75088e-05
0.000357674
3.00536e-05
0.000327937
1.57797e-05
0.000310912
-3.52986e-06
0.000307116
-2.538e-05
0.000315008
-4.84001e-05
0.000332262
-7.08584e-05
0.000356307
-9.16858e-05
0.000384771
-0.000110202
0.000415639
-0.000126026
0.000447258
-0.000139016
0.000478277
-0.000149247
0.000507656
-0.000157064
0.000534839
-0.000163198
0.000559994
-0.000168733
0.00058413
-0.000174793
0.000608909
-0.000182053
0.000636216
-0.000190395
0.000667661
-0.000198818
0.000704182
-0.000205654
0.000745849
-0.000209024
0.00079193
-0.000207322
0.000841195
-0.00019958
0.000892213
-0.000185571
0.00094355
-0.000165653
0.000994029
-0.000140659
0.00104259
-0.000111493
0.00108841
-7.92566e-05
0.00113056
-4.47959e-05
0.001169
-9.31343e-06
0.00120198
2.72405e-05
0.00122923
6.27078e-05
0.00125021
9.65661e-05
0.00126443
0.000127924
0.00127116
0.000156072
0.0012698
0.000180339
0.00126056
0.000199682
0.00124384
0.000213377
0.00121986
0.000221582
0.00118972
0.000224077
0.00115556
0.000220296
0.00111942
0.000211273
0.00108348
0.000198892
0.00105012
0.000184111
0.00102023
0.000168416
0.000993364
0.000154271
0.000969682
0.000142197
0.000949137
0.000130907
0.000929332
0.000121102
0.000907633
0.000114836
0.00088464
0.000110767
0.000862353
0.000104914
0.000839787
9.6913e-05
0.000813787
9.07791e-05
0.000783987
8.83489e-05
0.000753933
8.62288e-05
0.000726517
8.11041e-05
0.000700037
7.51671e-05
0.000669701
7.41861e-05
0.00063229
8.14955e-05
0.000588884
9.51068e-05
0.000543794
0.000109746
0.000501709
0.000120487
0.000465587
0.000124852
0.00043627
0.000122739
0.000413135
0.000115355
0.000394999
0.000104185
0.000380739
9.04616e-05
0.000369603
7.49907e-05
0.000361284
5.82262e-05
0.000355755
4.05649e-05
0.000353245
2.22412e-05
0.000354104
3.57944e-06
0.000357823
-1.47305e-05
0.000364932
-3.27288e-05
0.000375578
-4.98467e-05
-6.56312e-05
0.000653781
0.000167154
0.000627582
0.000156425
0.00060081
0.000147978
0.000574583
0.000139001
0.000554501
0.00012531
0.000543279
0.000106645
0.000535344
8.84202e-05
0.000519726
7.78089e-05
0.000487767
7.86146e-05
0.000438494
8.76121e-05
0.000378757
9.59328e-05
0.000320448
9.58297e-05
0.000274657
8.48808e-05
0.000247032
6.51336e-05
0.000237594
3.94921e-05
0.000242981
1.03929e-05
0.000259458
-2.00067e-05
0.000284541
-5.04638e-05
0.000315762
-7.96211e-05
0.000351317
-0.000106413
0.000389625
-0.000129994
0.000429202
-0.000149779
0.000468691
-0.000165515
0.000506882
-0.000177206
0.000542557
-0.000184922
0.000574289
-0.000188796
0.000600591
-0.0001895
0.00062062
-0.000188763
0.000634968
-0.00018914
0.000645856
-0.000192941
0.000656558
-0.000201098
0.000670406
-0.000212665
0.000689865
-0.000225113
0.00071601
-0.000235169
0.000748545
-0.000239857
0.000786248
-0.000237284
0.000827483
-0.000226806
0.000870649
-0.000208819
0.00091427
-0.00018428
0.000957162
-0.000154385
0.000998358
-0.000120452
0.00103724
-8.3675e-05
0.00107304
-4.51158e-05
0.001106
-5.72287e-06
0.00113465
3.40626e-05
0.00115891
7.2307e-05
0.00117825
0.000108583
0.00119205
0.000142272
0.00119986
0.000172523
0.00120113
0.000198418
0.00119514
0.000219369
0.001182
0.000234716
0.00116249
0.000243592
0.0011369
0.000245886
0.00110607
0.000242101
0.00107257
0.000232392
0.00103897
0.000217713
0.00100665
0.00020073
0.000977223
0.0001837
0.00095203
0.00016739
0.00092984
0.000153097
0.000908154
0.000142788
0.000887011
0.000135979
0.000868262
0.000129516
0.000851017
0.00012216
0.00083124
0.000116689
0.000806707
0.000115312
0.000779651
0.000115405
0.000753213
0.000112667
0.000726932
0.000107385
0.000697129
0.00010497
0.000660987
0.000110329
0.000619313
0.000123169
0.000575828
0.000138592
0.000534658
0.000150916
0.00049839
0.000156755
0.00046765
0.000155592
0.000441736
0.000148653
0.00041953
0.000137561
0.000400144
0.000123571
0.000383174
0.000107431
0.000368618
8.95472e-05
0.000356669
7.01754e-05
0.000347668
4.9565e-05
0.000341895
2.8015e-05
0.000339619
5.85513e-06
0.0003407
-1.58114e-05
0.000345421
-3.74497e-05
0.000353945
-5.83709e-05
-7.80341e-05
0.000649481
0.000204178
0.000611936
0.00019397
0.000578642
0.000181271
0.000555755
0.000161888
0.000540979
0.000140086
0.000521349
0.000126275
0.000483164
0.000126605
0.000423641
0.000137332
0.000353576
0.00014868
0.000289407
0.000151782
0.000242313
0.000143026
0.00021501
0.000123133
0.000205088
9.48032e-05
0.000209101
6.112e-05
0.000223951
2.46428e-05
0.00024687
-1.25268e-05
0.000276322
-4.9458e-05
0.000310617
-8.47591e-05
0.000348541
-0.000117545
0.000389102
-0.000146975
0.00043134
-0.000172231
0.000474166
-0.000192606
0.000516491
-0.000207839
0.000557548
-0.000218263
0.000596859
-0.000224233
0.000633486
-0.000225424
0.00066531
-0.000221323
0.000689486
-0.000212939
0.000704111
-0.000203764
0.00070978
-0.00019861
0.000709754
-0.000201072
0.00070874
-0.000211651
0.000711167
-0.00022754
0.00071987
-0.000243873
0.000735734
-0.00025572
0.000758043
-0.000259593
0.000785349
-0.000254112
0.000816068
-0.000239537
0.00084878
-0.000216992
0.000882297
-0.000187902
0.000915577
-0.000153732
0.000947828
-0.000115926
0.00097851
-7.57977e-05
0.00100728
-3.44896e-05
0.00103375
7.58938e-06
0.00105711
4.89479e-05
0.00107709
8.86029e-05
0.00109352
0.000125839
0.0011059
0.000160146
0.00111333
0.000190986
0.00111534
0.000217355
0.00111186
0.000238205
0.00110224
0.000253207
0.00108604
0.00026209
0.00106436
0.000263783
0.00103887
0.000257876
0.00101058
0.000246001
0.000981076
0.000230238
0.000952842
0.000211934
0.000927036
0.000193195
0.000903172
0.000176961
0.000881679
0.000164281
0.000864057
0.000153601
0.000849538
0.000144035
0.000834112
0.000137586
0.000814518
0.000136283
0.000791666
0.000138165
0.000768556
0.000138515
0.000745767
0.000135456
0.000720476
0.000132675
0.000689684
0.000135762
0.000653302
0.000146712
0.000614193
0.000162278
0.000576065
0.00017672
0.000541466
0.000185515
0.000511141
0.00018708
0.000484564
0.000182169
0.00046085
0.000172368
0.000439387
0.000159023
0.00041999
0.000142968
0.00040278
0.000124641
0.000387976
0.000104351
0.000375767
8.23841e-05
0.000366291
5.90411e-05
0.000359654
3.46525e-05
0.000355886
9.6229e-06
0.000355251
-1.51762e-05
0.00035773
-3.99292e-05
0.00036344
-6.40804e-05
-8.71465e-05
0.000612053
0.000246617
0.000578683
0.000227341
0.000556017
0.000203937
0.00053346
0.000184444
0.000495448
0.000178098
0.000435783
0.00018594
0.000363188
0.0001992
0.000293743
0.000206777
0.000240031
0.000202391
0.00020652
0.000185293
0.000191827
0.000157719
0.000192181
0.000122779
0.00020365
8.3334e-05
0.000223109
4.16615e-05
0.000248134
-3.82927e-07
0.000276999
-4.13916e-05
0.000308703
-8.11617e-05
0.000342595
-0.000118651
0.000378158
-0.000153109
0.000415006
-0.000183822
0.000452744
-0.000209969
0.000490602
-0.000230464
0.000527314
-0.000244551
0.000561944
-0.000252893
0.000594913
-0.000257203
0.000627485
-0.000257996
0.000659727
-0.000253565
0.000689147
-0.00024236
0.000711773
-0.00022639
0.000724846
-0.000211682
0.000728737
-0.000204963
0.000726787
-0.000209701
0.0007236
-0.000224353
0.000723206
-0.000243479
0.000727843
-0.000260357
0.000737999
-0.000269749
0.00075297
-0.000269083
0.000771619
-0.000258186
0.000792858
-0.00023823
0.000815793
-0.000210838
0.000839657
-0.000177597
0.000863767
-0.000140036
0.000887424
-9.94547e-05
0.00091023
-5.72958e-05
0.00093228
-1.44607e-05
0.00095279
2.84376e-05
0.000971514
6.98797e-05
0.000987855
0.000109498
0.00100128
0.000146725
0.00101157
0.000180693
0.00101845
0.000210475
0.00102101
0.000235643
0.00101848
0.000255741
0.0010111
0.000269465
0.000999201
0.000275683
0.000982366
0.000274711
0.000961135
0.000267232
0.000937923
0.00025345
0.000914957
0.0002349
0.000893031
0.000215121
0.000873015
0.000196978
0.000856321
0.000180975
0.000842638
0.000167284
0.000828891
0.000157782
0.000812095
0.000154382
0.000792584
0.000155794
0.000773113
0.000157636
0.000754976
0.000156651
0.000736114
0.000154318
0.000713228
0.000155561
0.000684985
0.000164005
0.000652986
0.000178711
0.000620311
0.000194953
0.000589529
0.000207502
0.000561715
0.000213329
0.000536705
0.000212089
0.000513909
0.000204965
0.000492928
0.000193349
0.000473696
0.000178255
0.00045634
0.000160324
0.000440971
0.000140011
0.000427637
0.000117685
0.000416361
9.36599e-05
0.000407192
6.82101e-05
0.000400235
4.16098e-05
0.000395722
1.4136e-05
0.000393534
-1.29882e-05
0.000393771
-4.01668e-05
0.000396679
-6.69878e-05
-9.29169e-05
0.000549884
0.000264684
0.000530847
0.000246378
0.000498793
0.000235992
0.000445706
0.000237531
0.000376291
0.000247513
0.000305454
0.000256777
0.000247536
0.000257118
0.000209307
0.000245005
0.00019067
0.000221028
0.000188142
0.000187821
0.000197496
0.000148365
0.000215084
0.000105191
0.00023823
6.01883e-05
0.000265301
1.45903e-05
0.000293821
-2.89026e-05
0.000323814
-7.13851e-05
0.00035476
-0.000112107
0.00038642
-0.000150312
0.000418433
-0.000185121
0.000450353
-0.000215743
0.000481988
-0.000241604
0.000513111
-0.000261587
0.000542317
-0.000273756
0.000567092
-0.000277668
0.00058638
-0.000276491
0.000602581
-0.000274197
0.000619739
-0.000270724
0.000639633
-0.000262254
0.000660159
-0.000246916
0.000677267
-0.00022879
0.000688131
-0.000215827
0.000692763
-0.000214333
0.000693543
-0.000225134
0.000693627
-0.000243562
0.000695568
-0.000262298
0.000700634
-0.000274815
0.000708977
-0.000277427
0.000720133
-0.000269342
0.000733521
-0.000251619
0.000748528
-0.000225845
0.000764699
-0.000193768
0.00078157
-0.000156907
0.000798863
-0.000116747
0.00081608
-7.45128e-05
0.000833071
-3.14516e-05
0.000849932
1.15762e-05
0.00086611
5.37015e-05
0.00088123
9.43782e-05
0.00089498
0.000132975
0.000906904
0.000168768
0.000916275
0.000201105
0.000922607
0.000229312
0.000925941
0.000252406
0.000925942
0.000269464
0.000921562
0.000280064
0.000912678
0.000283595
0.000900922
0.000278988
0.000887782
0.00026659
0.000873395
0.000249287
0.000858118
0.000230397
0.000843447
0.000211649
0.000830147
0.000194275
0.00081679
0.000180641
0.000801476
0.000173097
0.000784543
0.000171315
0.000768473
0.000171864
0.000754958
0.000171151
0.000742705
0.000168904
0.000728453
0.00016857
0.000709815
0.000174199
0.000686954
0.000186866
0.000662005
0.00020366
0.000637376
0.000219583
0.000614484
0.000230393
0.000593595
0.000234218
0.000574401
0.000231284
0.00055662
0.000222745
0.000540213
0.000209757
0.000525263
0.000193205
0.000511826
0.000173762
0.00049986
0.000151976
0.000489301
0.000128245
0.000480134
0.000102826
0.000472434
7.59107e-05
0.000466327
4.77168e-05
0.000461893
1.85697e-05
0.000459454
-1.05492e-05
0.000459093
-3.9806e-05
0.000460934
-6.88282e-05
-9.7115e-05
0.000444681
0.000284681
0.000405648
0.000285411
0.000350345
0.000291294
0.000289733
0.000298144
0.000237151
0.000300095
0.000201338
0.000292591
0.000184484
0.000273972
0.000184325
0.000245165
0.000196885
0.000208467
0.000218284
0.000166422
0.000245444
0.000121206
0.000276157
7.44774e-05
0.000308904
2.74421e-05
0.000341551
-1.80574e-05
0.000374967
-6.23186e-05
0.000408392
-0.000104809
0.000441328
-0.000145043
0.000473579
-0.000182563
0.00050489
-0.000216432
0.000534443
-0.000245296
0.000561386
-0.000268547
0.000585989
-0.000286191
0.000608641
-0.000296408
0.000627249
-0.000296276
0.000637942
-0.000287184
0.000639867
-0.000276122
0.000637545
-0.000268402
0.000637222
-0.000261931
0.000641627
-0.000251321
0.000648774
-0.000235937
0.000654841
-0.000221895
0.000657408
-0.0002169
0.000656589
-0.000224314
0.000654239
-0.000241212
0.000652544
-0.000260604
0.00065295
-0.00027522
0.000655925
-0.000280401
0.000661337
-0.000274754
0.000668817
-0.000259098
0.000678013
-0.000235041
0.000688543
-0.000204297
0.000699997
-0.000168361
0.000712095
-0.000128845
0.000724742
-8.71598e-05