/*--------------------------------*- C++ -*----------------------------------*\
| =========                 |                                                 |
| \\      /  F ield         | OpenFOAM: The Open Source CFD Toolbox           |
|  \\    /   O peration     | Version:  2312                                  |
|   \\  /    A nd           | Website:  www.openfoam.com                      |
|    \\/     M anipulation  |                                                 |
\*---------------------------------------------------------------------------*/
FoamFile
{
    version     2.0;
    format      ascii;
    arch        "LSB;label=32;scalar=64";
    class       volVectorField;
    location    "118000";
    object      U;
}
// * * * * * * * * * * * * * * * * * * * * * * * * * * * * * * * * * * * * * //

dimensions      [0 1 -1 0 0 0 0];

internalField   nonuniform List<vector> 
10800
(
(0.000992484 4.94172e-06 0)
(0.000990039 1.24571e-05 0)
(0.000986874 1.7478e-05 0)
(0.000980502 2.06612e-05 0)
(0.000971091 2.27437e-05 0)
(0.000959804 2.42367e-05 0)
(0.000947706 2.53749e-05 0)
(0.000935333 2.62334e-05 0)
(0.000922828 2.68363e-05 0)
(0.000910169 2.72087e-05 0)
(0.00089731 2.73883e-05 0)
(0.000884249 2.7418e-05 0)
(0.000871022 2.73358e-05 0)
(0.000857683 2.71698e-05 0)
(0.000844285 2.69382e-05 0)
(0.000830866 2.66527e-05 0)
(0.000817451 2.63212e-05 0)
(0.00080406 2.59503e-05 0)
(0.000790706 2.55455e-05 0)
(0.000777406 2.51118e-05 0)
(0.000764174 2.46528e-05 0)
(0.000751026 2.41717e-05 0)
(0.000737976 2.36706e-05 0)
(0.000725038 2.31514e-05 0)
(0.000712225 2.26149e-05 0)
(0.000699549 2.20628e-05 0)
(0.000687023 2.1495e-05 0)
(0.00067466 2.09132e-05 0)
(0.000662472 2.03167e-05 0)
(0.000650472 1.97072e-05 0)
(0.000638672 1.90835e-05 0)
(0.000627083 1.84481e-05 0)
(0.000615721 1.77983e-05 0)
(0.000604594 1.71383e-05 0)
(0.000593719 1.64635e-05 0)
(0.000583103 1.57807e-05 0)
(0.000572767 1.50822e-05 0)
(0.000562711 1.43788e-05 0)
(0.000552963 1.36579e-05 0)
(0.000543516 1.29373e-05 0)
(0.000534408 1.21952e-05 0)
(0.000525613 1.14617e-05 0)
(0.000517199 1.06992e-05 0)
(0.000509094 9.9586e-06 0)
(0.000501436 9.175e-06 0)
(0.000494043 8.43429e-06 0)
(0.000487226 7.62555e-06 0)
(0.000480525 6.89168e-06 0)
(0.000474709 6.049e-06 0)
(0.000468556 5.32045e-06 0)
(0.000464124 4.43542e-06 0)
(0.000458008 3.66484e-06 0)
(0.000456021 2.77655e-06 0)
(0.000448297 1.7143e-06 0)
(0.000451898 1.15123e-06 0)
(0.000437476 -1.26903e-06 0)
(0.000455977 1.19578e-07 0)
(0.000419926 -7.72749e-06 0)
(0.000478409 2.04484e-06 0)
(0.000383548 -2.44551e-05 0)
(0.00100003 5.80164e-06 0)
(0.00100172 1.49907e-05 0)
(0.00100423 2.15197e-05 0)
(0.00100706 2.60807e-05 0)
(0.00100979 2.94366e-05 0)
(0.0010122 3.21156e-05 0)
(0.00101422 3.43652e-05 0)
(0.00101589 3.6272e-05 0)
(0.00101727 3.78686e-05 0)
(0.00101839 3.91856e-05 0)
(0.00101924 4.02644e-05 0)
(0.00101983 4.11507e-05 0)
(0.00102016 4.18852e-05 0)
(0.00102023 4.2498e-05 0)
(0.00102004 4.3009e-05 0)
(0.00101962 4.3431e-05 0)
(0.00101897 4.37725e-05 0)
(0.00101811 4.40405e-05 0)
(0.00101705 4.42404e-05 0)
(0.0010158 4.43769e-05 0)
(0.00101437 4.44538e-05 0)
(0.00101277 4.44738e-05 0)
(0.00101101 4.44388e-05 0)
(0.00100909 4.435e-05 0)
(0.00100704 4.42085e-05 0)
(0.00100485 4.40143e-05 0)
(0.00100255 4.37684e-05 0)
(0.00100011 4.34696e-05 0)
(0.000997594 4.31197e-05 0)
(0.000994946 4.27156e-05 0)
(0.000992263 4.2261e-05 0)
(0.000989436 4.17501e-05 0)
(0.00098663 4.119e-05 0)
(0.000983654 4.057e-05 0)
(0.000980777 3.99039e-05 0)
(0.000977673 3.91719e-05 0)
(0.00097479 3.84003e-05 0)
(0.000971568 3.75528e-05 0)
(0.00096876 3.66782e-05 0)
(0.000965411 3.57102e-05 0)
(0.000962793 3.47384e-05 0)
(0.000959269 3.36417e-05 0)
(0.000957005 3.25838e-05 0)
(0.000953196 3.13442e-05 0)
(0.000951539 3.022e-05 0)
(0.00094722 2.88115e-05 0)
(0.000946577 2.76553e-05 0)
(0.000941323 2.603e-05 0)
(0.00094236 2.49005e-05 0)
(0.000935397 2.29717e-05 0)
(0.000939231 2.19682e-05 0)
(0.000929174 1.95815e-05 0)
(0.000937691 1.88695e-05 0)
(0.000922089 1.57622e-05 0)
(0.000938476 1.56011e-05 0)
(0.000913034 1.1365e-05 0)
(0.00094271 1.20864e-05 0)
(0.000899972 6.25566e-06 0)
(0.000952285 7.87778e-06 0)
(0.000879768 8.51785e-07 0)
(0.000999989 1.96205e-06 0)
(0.00100078 5.76221e-06 0)
(0.00100224 9.28563e-06 0)
(0.00100423 1.24485e-05 0)
(0.00100654 1.5248e-05 0)
(0.00100897 1.77293e-05 0)
(0.0010114 1.99471e-05 0)
(0.00101377 2.19446e-05 0)
(0.00101608 2.37488e-05 0)
(0.00101834 2.53766e-05 0)
(0.00102056 2.68411e-05 0)
(0.00102274 2.81557e-05 0)
(0.00102485 2.93348e-05 0)
(0.00102691 3.03923e-05 0)
(0.0010289 3.13407e-05 0)
(0.00103082 3.21897e-05 0)
(0.00103268 3.29475e-05 0)
(0.00103447 3.36197e-05 0)
(0.0010362 3.42121e-05 0)
(0.00103787 3.47278e-05 0)
(0.00103949 3.51715e-05 0)
(0.00104104 3.55444e-05 0)
(0.00104255 3.58508e-05 0)
(0.00104399 3.60896e-05 0)
(0.00104539 3.62655e-05 0)
(0.00104672 3.6375e-05 0)
(0.00104803 3.64238e-05 0)
(0.00104925 3.64055e-05 0)
(0.00105047 3.63285e-05 0)
(0.00105159 3.61819e-05 0)
(0.00105273 3.59788e-05 0)
(0.00105375 3.57017e-05 0)
(0.00105482 3.53717e-05 0)
(0.00105572 3.49608e-05 0)
(0.00105676 3.45027e-05 0)
(0.00105754 3.39535e-05 0)
(0.00105855 3.33667e-05 0)
(0.00105921 3.2674e-05 0)
(0.00106024 3.19591e-05 0)
(0.00106074 3.11163e-05 0)
(0.00106186 3.02758e-05 0)
(0.00106214 2.92751e-05 0)
(0.00106343 2.83142e-05 0)
(0.00106343 2.71455e-05 0)
(0.00106502 2.60734e-05 0)
(0.0010646 2.47239e-05 0)
(0.00106669 2.35546e-05 0)
(0.00106565 2.20087e-05 0)
(0.00106852 2.0763e-05 0)
(0.00106654 1.90029e-05 0)
(0.00107063 1.77095e-05 0)
(0.00106718 1.57204e-05 0)
(0.00107315 1.44176e-05 0)
(0.00106744 1.22002e-05 0)
(0.00107628 1.09367e-05 0)
(0.00106708 8.54477e-06 0)
(0.00108027 7.37995e-06 0)
(0.00106571 5.01539e-06 0)
(0.00108557 3.97624e-06 0)
(0.00106289 2.14501e-06 0)
(0.00100001 1.74099e-06 0)
(0.00100047 5.15705e-06 0)
(0.00100128 8.41589e-06 0)
(0.00100239 1.14412e-05 0)
(0.00100374 1.41922e-05 0)
(0.00100526 1.66658e-05 0)
(0.00100689 1.88839e-05 0)
(0.00100859 2.08761e-05 0)
(0.00101034 2.26697e-05 0)
(0.00101213 2.42854e-05 0)
(0.00101395 2.57387e-05 0)
(0.00101579 2.70427e-05 0)
(0.00101766 2.82095e-05 0)
(0.00101953 2.92513e-05 0)
(0.00102142 3.01796e-05 0)
(0.0010233 3.10047e-05 0)
(0.00102518 3.17358e-05 0)
(0.00102706 3.23797e-05 0)
(0.00102894 3.29428e-05 0)
(0.00103082 3.34295e-05 0)
(0.00103269 3.38445e-05 0)
(0.00103456 3.419e-05 0)
(0.00103643 3.447e-05 0)
(0.00103829 3.46851e-05 0)
(0.00104015 3.48386e-05 0)
(0.00104199 3.49293e-05 0)
(0.00104385 3.49608e-05 0)
(0.00104568 3.493e-05 0)
(0.00104753 3.4841e-05 0)
(0.00104935 3.46888e-05 0)
(0.00105119 3.44787e-05 0)
(0.00105299 3.42033e-05 0)
(0.00105482 3.38698e-05 0)
(0.0010566 3.3468e-05 0)
(0.00105843 3.30078e-05 0)
(0.00106018 3.24758e-05 0)
(0.00106201 3.18848e-05 0)
(0.00106373 3.1218e-05 0)
(0.00106557 3.04915e-05 0)
(0.00106724 2.96856e-05 0)
(0.0010691 2.88184e-05 0)
(0.00107071 2.78697e-05 0)
(0.00107261 2.68563e-05 0)
(0.00107415 2.57627e-05 0)
(0.0010761 2.45965e-05 0)
(0.00107755 2.33587e-05 0)
(0.00107961 2.20317e-05 0)
(0.00108093 2.06561e-05 0)
(0.00108314 1.91576e-05 0)
(0.00108429 1.76606e-05 0)
(0.00108672 1.59764e-05 0)
(0.00108764 1.43932e-05 0)
(0.0010904 1.25049e-05 0)
(0.00109097 1.0905e-05 0)
(0.0010942 8.78906e-06 0)
(0.00109429 7.29937e-06 0)
(0.00109818 4.91932e-06 0)
(0.00109758 3.74728e-06 0)
(0.00110239 1.01432e-06 0)
(0.00110076 4.49927e-07 0)
(0.001 1.15236e-06 0)
(0.00100023 3.42917e-06 0)
(0.00100067 5.64e-06 0)
(0.00100134 7.75316e-06 0)
(0.0010022 9.74732e-06 0)
(0.00100324 1.16122e-05 0)
(0.00100441 1.33465e-05 0)
(0.00100569 1.49543e-05 0)
(0.00100706 1.64416e-05 0)
(0.00100849 1.78147e-05 0)
(0.00100997 1.90789e-05 0)
(0.0010115 2.02392e-05 0)
(0.00101307 2.13003e-05 0)
(0.00101467 2.22672e-05 0)
(0.00101629 2.31448e-05 0)
(0.00101793 2.39379e-05 0)
(0.00101959 2.46512e-05 0)
(0.00102126 2.52884e-05 0)
(0.00102295 2.5853e-05 0)
(0.00102464 2.63479e-05 0)
(0.00102634 2.67754e-05 0)
(0.00102805 2.71375e-05 0)
(0.00102977 2.74358e-05 0)
(0.00103149 2.76718e-05 0)
(0.00103322 2.78462e-05 0)
(0.00103495 2.79599e-05 0)
(0.00103668 2.80129e-05 0)
(0.00103842 2.80062e-05 0)
(0.00104017 2.79383e-05 0)
(0.00104191 2.78108e-05 0)
(0.00104367 2.76207e-05 0)
(0.00104541 2.73708e-05 0)
(0.00104717 2.70557e-05 0)
(0.00104892 2.66808e-05 0)
(0.00105068 2.62364e-05 0)
(0.00105243 2.57331e-05 0)
(0.00105419 2.51541e-05 0)
(0.00105594 2.45188e-05 0)
(0.0010577 2.37987e-05 0)
(0.00105945 2.30281e-05 0)
(0.0010612 2.21589e-05 0)
(0.00106295 2.12507e-05 0)
(0.00106469 2.02229e-05 0)
(0.00106644 1.91771e-05 0)
(0.00106818 1.79789e-05 0)
(0.00106993 1.67991e-05 0)
(0.00107166 1.54158e-05 0)
(0.00107343 1.41121e-05 0)
(0.00107514 1.25239e-05 0)
(0.00107694 1.11162e-05 0)
(0.00107864 9.29505e-06 0)
(0.0010805 7.817e-06 0)
(0.00108219 5.71921e-06 0)
(0.00108418 4.22482e-06 0)
(0.00108586 1.78366e-06 0)
(0.00108809 3.64525e-07 0)
(0.00108974 -2.51231e-06 0)
(0.00109228 -3.70115e-06 0)
(0.00109381 -7.15279e-06 0)
(0.00109666 -7.89011e-06 0)
(0.001 9.2623e-07 0)
(0.00100017 2.76937e-06 0)
(0.00100051 4.58476e-06 0)
(0.001001 6.35354e-06 0)
(0.00100165 8.05828e-06 0)
(0.00100242 9.68512e-06 0)
(0.00100332 1.12248e-05 0)
(0.0010043 1.26726e-05 0)
(0.00100537 1.40269e-05 0)
(0.00100651 1.52882e-05 0)
(0.00100771 1.64579e-05 0)
(0.00100896 1.75382e-05 0)
(0.00101026 1.85312e-05 0)
(0.0010116 1.94396e-05 0)
(0.00101297 2.02662e-05 0)
(0.00101437 2.1014e-05 0)
(0.00101579 2.16858e-05 0)
(0.00101724 2.22847e-05 0)
(0.0010187 2.2813e-05 0)
(0.00102019 2.32733e-05 0)
(0.00102168 2.36675e-05 0)
(0.00102319 2.39977e-05 0)
(0.00102472 2.42647e-05 0)
(0.00102625 2.44707e-05 0)
(0.00102779 2.46155e-05 0)
(0.00102934 2.47012e-05 0)
(0.00103089 2.47267e-05 0)
(0.00103246 2.46942e-05 0)
(0.00103402 2.46012e-05 0)
(0.00103559 2.44509e-05 0)
(0.00103717 2.42386e-05 0)
(0.00103874 2.39694e-05 0)
(0.00104032 2.36353e-05 0)
(0.0010419 2.32449e-05 0)
(0.00104348 2.27853e-05 0)
(0.00104506 2.22705e-05 0)
(0.00104663 2.168e-05 0)
(0.00104821 2.10369e-05 0)
(0.00104978 2.0309e-05 0)
(0.00105136 1.95336e-05 0)
(0.00105292 1.86598e-05 0)
(0.0010545 1.77483e-05 0)
(0.00105604 1.67185e-05 0)
(0.00105763 1.56679e-05 0)
(0.00105916 1.44694e-05 0)
(0.00106076 1.32786e-05 0)
(0.00106227 1.18951e-05 0)
(0.00106391 1.0566e-05 0)
(0.00106539 8.97645e-06 0)
(0.00106709 7.51715e-06 0)
(0.00106853 5.69463e-06 0)
(0.00107032 4.12417e-06 0)
(0.00107171 2.03259e-06 0)
(0.00107363 3.82221e-07 0)
(0.00107493 -2.03881e-06 0)
(0.00107707 -3.73021e-06 0)
(0.00107826 -6.58457e-06 0)
(0.00108075 -8.25778e-06 0)
(0.0010817 -1.16936e-05 0)
(0.00108453 -1.32452e-05 0)
(0.001 7.31703e-07 0)
(0.00100013 2.18788e-06 0)
(0.00100037 3.62388e-06 0)
(0.00100074 5.02706e-06 0)
(0.00100122 6.38604e-06 0)
(0.0010018 7.69152e-06 0)
(0.00100249 8.93664e-06 0)
(0.00100326 1.01169e-05 0)
(0.00100411 1.12299e-05 0)
(0.00100504 1.22744e-05 0)
(0.00100602 1.32503e-05 0)
(0.00100706 1.41582e-05 0)
(0.00100815 1.49985e-05 0)
(0.00100928 1.57724e-05 0)
(0.00101045 1.64808e-05 0)
(0.00101165 1.71251e-05 0)
(0.00101289 1.77065e-05 0)
(0.00101415 1.82264e-05 0)
(0.00101544 1.86859e-05 0)
(0.00101674 1.90866e-05 0)
(0.00101807 1.94291e-05 0)
(0.00101941 1.97147e-05 0)
(0.00102076 1.99437e-05 0)
(0.00102213 2.01174e-05 0)
(0.00102351 2.02352e-05 0)
(0.00102489 2.02987e-05 0)
(0.00102629 2.03063e-05 0)
(0.00102768 2.02599e-05 0)
(0.00102909 2.01569e-05 0)
(0.00103049 1.99998e-05 0)
(0.0010319 1.97842e-05 0)
(0.00103331 1.95143e-05 0)
(0.00103471 1.91831e-05 0)
(0.00103612 1.87971e-05 0)
(0.00103752 1.83456e-05 0)
(0.00103892 1.78393e-05 0)
(0.00104031 1.72616e-05 0)
(0.0010417 1.66299e-05 0)
(0.00104308 1.59184e-05 0)
(0.00104446 1.51553e-05 0)
(0.00104582 1.43007e-05 0)
(0.00104719 1.33998e-05 0)
(0.00104852 1.23906e-05 0)
(0.00104989 1.13452e-05 0)
(0.00105119 1.01668e-05 0)
(0.00105256 8.97032e-06 0)
(0.00105383 7.60446e-06 0)
(0.00105519 6.25062e-06 0)
(0.00105643 4.67255e-06 0)
(0.00105782 3.15601e-06 0)
(0.00105902 1.33183e-06 0)
(0.00106048 -3.48816e-07 0)
(0.00106164 -2.46108e-06 0)
(0.00106321 -4.29306e-06 0)
(0.00106431 -6.74409e-06 0)
(0.00106604 -8.70102e-06 0)
(0.00106703 -1.15737e-05 0)
(0.00106898 -1.36218e-05 0)
(0.00106974 -1.70512e-05 0)
(0.00107187 -1.91307e-05 0)
(0.001 5.8265e-07 0)
(0.0010001 1.74318e-06 0)
(0.00100029 2.89107e-06 0)
(0.00100058 4.01847e-06 0)
(0.00100095 5.11792e-06 0)
(0.00100142 6.18276e-06 0)
(0.00100197 7.2074e-06 0)
(0.0010026 8.18742e-06 0)
(0.00100329 9.11953e-06 0)
(0.00100406 1.00014e-05 0)
(0.00100488 1.08316e-05 0)
(0.00100576 1.16092e-05 0)
(0.00100668 1.23337e-05 0)
(0.00100765 1.30047e-05 0)
(0.00100866 1.36223e-05 0)
(0.0010097 1.41864e-05 0)
(0.00101078 1.46974e-05 0)
(0.00101189 1.51556e-05 0)
(0.00101302 1.55613e-05 0)
(0.00101417 1.5915e-05 0)
(0.00101534 1.62171e-05 0)
(0.00101653 1.64679e-05 0)
(0.00101773 1.66675e-05 0)
(0.00101895 1.68166e-05 0)
(0.00102017 1.69145e-05 0)
(0.00102141 1.69619e-05 0)
(0.00102265 1.69579e-05 0)
(0.00102389 1.69032e-05 0)
(0.00102514 1.6796e-05 0)
(0.00102639 1.66376e-05 0)
(0.00102764 1.64249e-05 0)
(0.00102889 1.61601e-05 0)
(0.00103013 1.58385e-05 0)
(0.00103138 1.54636e-05 0)
(0.00103261 1.50283e-05 0)
(0.00103384 1.45382e-05 0)
(0.00103505 1.39831e-05 0)
(0.00103626 1.33719e-05 0)
(0.00103746 1.26891e-05 0)
(0.00103865 1.19496e-05 0)
(0.00103981 1.11296e-05 0)
(0.00104098 1.02532e-05 0)
(0.0010421 9.28419e-06 0)
(0.00104325 8.26113e-06 0)
(0.00104434 7.12874e-06 0)
(0.00104546 5.9483e-06 0)
(0.0010465 4.63487e-06 0)
(0.0010476 3.28562e-06 0)
(0.0010486 1.76938e-06 0)
(0.00104969 2.39378e-07 0)
(0.00105063 -1.50773e-06 0)
(0.00105173 -3.23242e-06 0)
(0.0010526 -5.2524e-06 0)
(0.00105375 -7.19012e-06 0)
(0.00105456 -9.53901e-06 0)
(0.00105578 -1.17023e-05 0)
(0.00105648 -1.44488e-05 0)
(0.00105782 -1.68409e-05 0)
(0.00105828 -2.00806e-05 0)
(0.00105965 -2.26909e-05 0)
(0.001 4.65062e-07 0)
(0.00100008 1.39175e-06 0)
(0.00100024 2.30971e-06 0)
(0.00100047 3.21363e-06 0)
(0.00100078 4.09827e-06 0)
(0.00100116 4.9588e-06 0)
(0.00100162 5.79088e-06 0)
(0.00100214 6.59084e-06 0)
(0.00100273 7.3556e-06 0)
(0.00100337 8.08271e-06 0)
(0.00100407 8.77015e-06 0)
(0.00100482 9.41637e-06 0)
(0.00100561 1.00202e-05 0)
(0.00100645 1.05807e-05 0)
(0.00100733 1.10974e-05 0)
(0.00100824 1.15698e-05 0)
(0.00100918 1.19978e-05 0)
(0.00101015 1.23812e-05 0)
(0.00101115 1.27199e-05 0)
(0.00101216 1.3014e-05 0)
(0.0010132 1.32634e-05 0)
(0.00101426 1.34682e-05 0)
(0.00101532 1.36282e-05 0)
(0.00101641 1.37435e-05 0)
(0.0010175 1.38136e-05 0)
(0.0010186 1.38387e-05 0)
(0.0010197 1.38179e-05 0)
(0.00102081 1.37513e-05 0)
(0.00102192 1.36378e-05 0)
(0.00102303 1.34775e-05 0)
(0.00102414 1.32684e-05 0)
(0.00102524 1.3011e-05 0)
(0.00102634 1.27027e-05 0)
(0.00102743 1.2344e-05 0)
(0.0010285 1.19313e-05 0)
(0.00102957 1.14658e-05 0)
(0.00103062 1.09422e-05 0)
(0.00103166 1.03631e-05 0)
(0.00103268 9.72076e-06 0)
(0.00103369 9.0197e-06 0)
(0.00103466 8.24861e-06 0)
(0.00103563 7.41546e-06 0)
(0.00103656 6.50352e-06 0)
(0.00103748 5.52609e-06 0)
(0.00103835 4.45823e-06 0)
(0.00103922 3.3217e-06 0)
(0.00104003 2.07902e-06 0)
(0.00104085 7.6554e-07 0)
(0.00104159 -6.74855e-07 0)
(0.00104237 -2.18424e-06 0)
(0.00104303 -3.84811e-06 0)
(0.00104378 -5.57493e-06 0)
(0.00104434 -7.49703e-06 0)
(0.00104506 -9.47056e-06 0)
(0.00104552 -1.16999e-05 0)
(0.00104624 -1.39549e-05 0)
(0.00104656 -1.65514e-05 0)
(0.00104728 -1.91212e-05 0)
(0.00104735 -2.21567e-05 0)
(0.00104799 -2.50659e-05 0)
(0.001 3.67697e-07 0)
(0.00100007 1.10035e-06 0)
(0.0010002 1.82654e-06 0)
(0.0010004 2.5425e-06 0)
(0.00100066 3.24452e-06 0)
(0.00100098 3.92903e-06 0)
(0.00100137 4.59277e-06 0)
(0.00100182 5.2328e-06 0)
(0.00100232 5.84655e-06 0)
(0.00100287 6.43183e-06 0)
(0.00100348 6.98673e-06 0)
(0.00100413 7.50971e-06 0)
(0.00100482 7.99946e-06 0)
(0.00100555 8.45498e-06 0)
(0.00100632 8.87545e-06 0)
(0.00100712 9.26023e-06 0)
(0.00100795 9.60882e-06 0)
(0.00100881 9.92082e-06 0)
(0.00100969 1.01959e-05 0)
(0.0010106 1.04338e-05 0)
(0.00101152 1.06342e-05 0)
(0.00101246 1.07969e-05 0)
(0.00101342 1.09216e-05 0)
(0.00101439 1.1008e-05 0)
(0.00101536 1.10557e-05 0)
(0.00101634 1.10645e-05 0)
(0.00101733 1.10336e-05 0)
(0.00101832 1.09627e-05 0)
(0.0010193 1.0851e-05 0)
(0.00102029 1.06977e-05 0)
(0.00102127 1.05021e-05 0)
(0.00102224 1.02631e-05 0)
(0.00102321 9.9795e-06 0)
(0.00102416 9.6501e-06 0)
(0.0010251 9.27352e-06 0)
(0.00102602 8.84801e-06 0)
(0.00102692 8.37203e-06 0)
(0.0010278 7.84324e-06 0)
(0.00102866 7.25996e-06 0)
(0.0010295 6.61905e-06 0)
(0.0010303 5.91881e-06 0)
(0.00103108 5.15491e-06 0)
(0.00103182 4.32591e-06 0)
(0.00103253 3.42572e-06 0)
(0.0010332 2.4537e-06 0)
(0.00103384 1.40105e-06 0)
(0.00103441 2.68945e-07 0)
(0.00103497 -9.55512e-07 0)
(0.00103545 -2.26764e-06 0)
(0.00103593 -3.6881e-06 0)
(0.0010363 -5.20722e-06 0)
(0.00103669 -6.85657e-06 0)
(0.00103693 -8.61511e-06 0)
(0.00103723 -1.05319e-05 0)
(0.00103732 -1.25675e-05 0)
(0.00103753 -1.47992e-05 0)
(0.00103743 -1.71565e-05 0)
(0.00103755 -1.97604e-05 0)
(0.00103718 -2.24882e-05 0)
(0.0010371 -2.55263e-05 0)
(0.001 2.84584e-07 0)
(0.00100006 8.51476e-07 0)
(0.00100017 1.41344e-06 0)
(0.00100034 1.96778e-06 0)
(0.00100057 2.51181e-06 0)
(0.00100086 3.04295e-06 0)
(0.00100119 3.55875e-06 0)
(0.00100158 4.05699e-06 0)
(0.00100202 4.53564e-06 0)
(0.00100251 4.99291e-06 0)
(0.00100304 5.42723e-06 0)
(0.00100361 5.83722e-06 0)
(0.00100422 6.22173e-06 0)
(0.00100487 6.57973e-06 0)
(0.00100555 6.91041e-06 0)
(0.00100627 7.21302e-06 0)
(0.00100701 7.48697e-06 0)
(0.00100778 7.73173e-06 0)
(0.00100857 7.94685e-06 0)
(0.00100939 8.13188e-06 0)
(0.00101022 8.28648e-06 0)
(0.00101106 8.41021e-06 0)
(0.00101192 8.50276e-06 0)
(0.00101279 8.56362e-06 0)
(0.00101367 8.59249e-06 0)
(0.00101455 8.58871e-06 0)
(0.00101544 8.55198e-06 0)
(0.00101632 8.48141e-06 0)
(0.0010172 8.37666e-06 0)
(0.00101808 8.23654e-06 0)
(0.00101895 8.06074e-06 0)
(0.00101981 7.84755e-06 0)
(0.00102066 7.59684e-06 0)
(0.00102149 7.30615e-06 0)
(0.00102231 6.9757e-06 0)
(0.0010231 6.60195e-06 0)
(0.00102387 6.18577e-06 0)
(0.00102462 5.72202e-06 0)
(0.00102533 5.21276e-06 0)
(0.00102601 4.65039e-06 0)
(0.00102666 4.0391e-06 0)
(0.00102727 3.36743e-06 0)
(0.00102783 2.64326e-06 0)
(0.00102836 1.84906e-06 0)
(0.00102883 9.98936e-07 0)
(0.00102926 6.58793e-08 0)
(0.00102962 -9.25501e-07 0)
(0.00102993 -2.01719e-06 0)
(0.00103017 -3.16821e-06 0)
(0.00103036 -4.44552e-06 0)
(0.00103045 -5.78006e-06 0)
(0.00103051 -7.27722e-06 0)
(0.00103042 -8.82193e-06 0)
(0.00103033 -1.05816e-05 0)
(0.00103005 -1.23664e-05 0)
(0.00102978 -1.44436e-05 0)
(0.00102927 -1.65018e-05 0)
(0.00102881 -1.89674e-05 0)
(0.00102797 -2.13298e-05 0)
(0.00102723 -2.4268e-05 0)
(0.001 2.11682e-07 0)
(0.00100005 6.33114e-07 0)
(0.00100015 1.05075e-06 0)
(0.00100031 1.46269e-06 0)
(0.00100051 1.86705e-06 0)
(0.00100076 2.26199e-06 0)
(0.00100106 2.64576e-06 0)
(0.00100141 3.01672e-06 0)
(0.0010018 3.37337e-06 0)
(0.00100224 3.71436e-06 0)
(0.00100272 4.03846e-06 0)
(0.00100323 4.34457e-06 0)
(0.00100378 4.63174e-06 0)
(0.00100437 4.8991e-06 0)
(0.00100499 5.14591e-06 0)
(0.00100564 5.37151e-06 0)
(0.00100631 5.57533e-06 0)
(0.00100701 5.75683e-06 0)
(0.00100773 5.91559e-06 0)
(0.00100847 6.05112e-06 0)
(0.00100923 6.16308e-06 0)
(0.00101 6.25099e-06 0)
(0.00101078 6.31458e-06 0)
(0.00101157 6.35328e-06 0)
(0.00101237 6.36685e-06 0)
(0.00101317 6.3546e-06 0)
(0.00101397 6.31631e-06 0)
(0.00101477 6.25105e-06 0)
(0.00101557 6.1587e-06 0)
(0.00101636 6.03792e-06 0)
(0.00101714 5.88877e-06 0)
(0.0010179 5.70933e-06 0)
(0.00101865 5.49999e-06 0)
(0.00101939 5.25797e-06 0)
(0.0010201 4.98425e-06 0)
(0.00102078 4.67472e-06 0)
(0.00102144 4.33146e-06 0)
(0.00102207 3.94831e-06 0)
(0.00102266 3.52919e-06 0)
(0.00102321 3.06479e-06 0)
(0.00102372 2.56216e-06 0)
(0.00102419 2.00703e-06 0)
(0.0010246 1.41168e-06 0)
(0.00102497 7.54021e-07 0)
(0.00102527 5.5004e-08 0)
(0.00102551 -7.19827e-07 0)
(0.00102568 -1.53531e-06 0)
(0.00102579 -2.44639e-06 0)
(0.0010258 -3.39514e-06 0)
(0.00102575 -4.46807e-06 0)
(0.00102558 -5.56904e-06 0)
(0.00102534 -6.83557e-06 0)
(0.00102497 -8.10966e-06 0)
(0.00102452 -9.61131e-06 0)
(0.0010239 -1.10816e-05 0)
(0.00102321 -1.28736e-05 0)
(0.0010223 -1.45635e-05 0)
(0.00102133 -1.67192e-05 0)
(0.00102005 -1.86457e-05 0)
(0.00101871 -2.12567e-05 0)
(0.001 1.4599e-07 0)
(0.00100005 4.36314e-07 0)
(0.00100014 7.23752e-07 0)
(0.00100028 1.00705e-06 0)
(0.00100047 1.28496e-06 0)
(0.0010007 1.55625e-06 0)
(0.00100097 1.81975e-06 0)
(0.00100129 2.07437e-06 0)
(0.00100165 2.31907e-06 0)
(0.00100205 2.55291e-06 0)
(0.00100249 2.77503e-06 0)
(0.00100296 2.98465e-06 0)
(0.00100347 3.18108e-06 0)
(0.00100401 3.36366e-06 0)
(0.00100459 3.53184e-06 0)
(0.00100518 3.6851e-06 0)
(0.00100581 3.82302e-06 0)
(0.00100645 3.94513e-06 0)
(0.00100712 4.05112e-06 0)
(0.00100781 4.14058e-06 0)
(0.00100851 4.21323e-06 0)
(0.00100922 4.26866e-06 0)
(0.00100995 4.30667e-06 0)
(0.00101068 4.32676e-06 0)
(0.00101141 4.32878e-06 0)
(0.00101215 4.31211e-06 0)
(0.00101289 4.27665e-06 0)
(0.00101363 4.22156e-06 0)
(0.00101436 4.14685e-06 0)
(0.00101508 4.05134e-06 0)
(0.00101579 3.93524e-06 0)
(0.00101648 3.79683e-06 0)
(0.00101716 3.63669e-06 0)
(0.00101781 3.4523e-06 0)
(0.00101844 3.24486e-06 0)
(0.00101904 3.01064e-06 0)
(0.00101961 2.7519e-06 0)
(0.00102015 2.46304e-06 0)
(0.00102064 2.14813e-06 0)
(0.00102109 1.79862e-06 0)
(0.0010215 1.42163e-06 0)
(0.00102185 1.00396e-06 0)
(0.00102215 5.57759e-07 0)
(0.00102238 6.25133e-08 0)
(0.00102255 -4.61154e-07 0)
(0.00102264 -1.04557e-06 0)
(0.00102266 -1.65694e-06 0)
(0.00102259 -2.34668e-06 0)
(0.00102243 -3.05853e-06 0)
(0.00102217 -3.87391e-06 0)
(0.00102179 -4.70009e-06 0)
(0.00102131 -5.66717e-06 0)
(0.0010207 -6.62308e-06 0)
(0.00101996 -7.7767e-06 0)
(0.00101905 -8.8788e-06 0)
(0.00101801 -1.0266e-05 0)
(0.00101677 -1.15296e-05 0)
(0.00101538 -1.32139e-05 0)
(0.00101371 -1.4647e-05 0)
(0.00101189 -1.67103e-05 0)
(0.001 8.51145e-08 0)
(0.00100005 2.53931e-07 0)
(0.00100013 4.20645e-07 0)
(0.00100026 5.84556e-07 0)
(0.00100044 7.44962e-07 0)
(0.00100066 9.01176e-07 0)
(0.00100092 1.05254e-06 0)
(0.00100122 1.19843e-06 0)
(0.00100155 1.33827e-06 0)
(0.00100193 1.47151e-06 0)
(0.00100235 1.59766e-06 0)
(0.00100279 1.71627e-06 0)
(0.00100327 1.82693e-06 0)
(0.00100379 1.92926e-06 0)
(0.00100433 2.02294e-06 0)
(0.00100489 2.10765e-06 0)
(0.00100548 2.18313e-06 0)
(0.00100609 2.24911e-06 0)
(0.00100673 2.30538e-06 0)
(0.00100738 2.35171e-06 0)
(0.00100804 2.38792e-06 0)
(0.00100871 2.41374e-06 0)
(0.0010094 2.42906e-06 0)
(0.00101009 2.43356e-06 0)
(0.00101079 2.42715e-06 0)
(0.00101148 2.40942e-06 0)
(0.00101218 2.38034e-06 0)
(0.00101287 2.33933e-06 0)
(0.00101356 2.28645e-06 0)
(0.00101423 2.22088e-06 0)
(0.00101489 2.14284e-06 0)
(0.00101553 2.05114e-06 0)
(0.00101616 1.94623e-06 0)
(0.00101676 1.82641e-06 0)
(0.00101733 1.69257e-06 0)
(0.00101788 1.54216e-06 0)
(0.00101839 1.37683e-06 0)
(0.00101886 1.19273e-06 0)
(0.00101928 9.92816e-07 0)
(0.00101966 7.71169e-07 0)
(0.00101999 5.32951e-07 0)
(0.00102027 2.6898e-07 0)
(0.00102048 -1.19188e-08 0)
(0.00102062 -3.24131e-07 0)
(0.00102069 -6.53085e-07 0)
(0.00102068 -1.0216e-06 0)
(0.00102059 -1.40561e-06 0)
(0.0010204 -1.84096e-06 0)
(0.00102011 -2.28766e-06 0)
(0.00101971 -2.8028e-06 0)
(0.00101918 -3.32069e-06 0)
(0.00101853 -3.93291e-06 0)
(0.00101774 -4.53167e-06 0)
(0.0010168 -5.26428e-06 0)
(0.00101568 -5.95385e-06 0)
(0.0010144 -6.83849e-06 0)
(0.00101291 -7.62754e-06 0)
(0.00101122 -8.70747e-06 0)
(0.00100927 -9.59901e-06 0)
(0.0010071 -1.0931e-05 0)
(0.001 2.70173e-08 0)
(0.00100004 7.98742e-08 0)
(0.00100013 1.31358e-07 0)
(0.00100026 1.81268e-07 0)
(0.00100042 2.29408e-07 0)
(0.00100064 2.75587e-07 0)
(0.00100089 3.1962e-07 0)
(0.00100118 3.61337e-07 0)
(0.00100151 4.00581e-07 0)
(0.00100187 4.37206e-07 0)
(0.00100227 4.71084e-07 0)
(0.00100271 5.02096e-07 0)
(0.00100318 5.3014e-07 0)
(0.00100367 5.5512e-07 0)
(0.0010042 5.76959e-07 0)
(0.00100475 5.95579e-07 0)
(0.00100532 6.10922e-07 0)
(0.00100592 6.22923e-07 0)
(0.00100653 6.31541e-07 0)
(0.00100716 6.36712e-07 0)
(0.0010078 6.38406e-07 0)
(0.00100846 6.36551e-07 0)
(0.00100913 6.31126e-07 0)
(0.0010098 6.22036e-07 0)
(0.00101047 6.09269e-07 0)
(0.00101115 5.92695e-07 0)
(0.00101182 5.72316e-07 0)
(0.00101249 5.47945e-07 0)
(0.00101315 5.19607e-07 0)
(0.0010138 4.87029e-07 0)
(0.00101444 4.50283e-07 0)
(0.00101505 4.08962e-07 0)
(0.00101565 3.63229e-07 0)
(0.00101622 3.12476e-07 0)
(0.00101677 2.57026e-07 0)
(0.00101728 1.95966e-07 0)
(0.00101776 1.29894e-07 0)
(0.00101819 5.74289e-08 0)
(0.00101859 -2.03649e-08 0)
(0.00101893 -1.05593e-07 0)
(0.00101922 -1.96411e-07 0)
(0.00101945 -2.96097e-07 0)
(0.00101962 -4.01515e-07 0)
(0.00101971 -5.17879e-07 0)
(0.00101973 -6.40188e-07 0)
(0.00101967 -7.76556e-07 0)
(0.00101952 -9.18333e-07 0)
(0.00101926 -1.07818e-06 0)
(0.0010189 -1.24175e-06 0)
(0.00101843 -1.42942e-06 0)
(0.00101783 -1.61777e-06 0)
(0.00101709 -1.83954e-06 0)
(0.0010162 -2.05623e-06 0)
(0.00101515 -2.32057e-06 0)
(0.00101393 -2.56918e-06 0)
(0.00101251 -2.88748e-06 0)
(0.00101089 -3.171e-06 0)
(0.00100904 -3.55877e-06 -3.92997e-38)
(0.00100694 -3.87805e-06 0)
(0.00100458 -4.3558e-06 0)
(0.001 -3.01701e-08 0)
(0.00100004 -9.14507e-08 0)
(0.00100013 -1.53388e-07 0)
(0.00100026 -2.15694e-07 0)
(0.00100042 -2.78077e-07 0)
(0.00100064 -3.40244e-07 0)
(0.00100089 -4.01916e-07 0)
(0.00100118 -4.62818e-07 0)
(0.00100151 -5.22693e-07 0)
(0.00100187 -5.81291e-07 0)
(0.00100227 -6.38382e-07 0)
(0.00100271 -6.93743e-07 0)
(0.00100317 -7.47171e-07 0)
(0.00100367 -7.98472e-07 0)
(0.00100419 -8.47472e-07 0)
(0.00100474 -8.93998e-07 0)
(0.00100532 -9.37903e-07 0)
(0.00100591 -9.79033e-07 0)
(0.00100652 -1.01726e-06 0)
(0.00100715 -1.05245e-06 0)
(0.0010078 -1.0845e-06 0)
(0.00100845 -1.11326e-06 0)
(0.00100912 -1.13865e-06 0)
(0.00100979 -1.16053e-06 0)
(0.00101046 -1.17883e-06 0)
(0.00101114 -1.19337e-06 0)
(0.00101181 -1.20413e-06 0)
(0.00101248 -1.21088e-06 0)
(0.00101314 -1.21362e-06 0)
(0.00101378 -1.21207e-06 0)
(0.00101442 -1.20629e-06 0)
(0.00101503 -1.19586e-06 0)
(0.00101563 -1.18097e-06 0)
(0.0010162 -1.161e-06 0)
(0.00101674 -1.13632e-06 0)
(0.00101725 -1.10601e-06 0)
(0.00101773 -1.07073e-06 0)
(0.00101816 -1.02911e-06 0)
(0.00101856 -9.82276e-07 0)
(0.0010189 -9.28142e-07 0)
(0.00101918 -8.68667e-07 0)
(0.00101941 -8.00594e-07 0)
(0.00101958 -7.27279e-07 0)
(0.00101967 -6.43575e-07 0)
(0.00101969 -5.54847e-07 0)
(0.00101962 -4.52895e-07 0)
(0.00101946 -3.46509e-07 0)
(0.00101921 -2.22686e-07 0)
(0.00101885 -9.61775e-08 0)
(0.00101837 5.36416e-08 0)
(0.00101776 2.0262e-07 0)
(0.00101702 3.83971e-07 0)
(0.00101613 5.58234e-07 0)
(0.00101508 7.78927e-07 0)
(0.00101385 9.81407e-07 0)
(0.00101243 1.25217e-06 0)
(0.0010108 1.4852e-06 0)
(0.00100895 1.82086e-06 3.92997e-38)
(0.00100685 2.08467e-06 0)
(0.00100449 2.50499e-06 0)
(0.001 -8.82532e-08 0)
(0.00100005 -2.65446e-07 0)
(0.00100013 -4.4255e-07 0)
(0.00100026 -6.18771e-07 0)
(0.00100044 -7.93314e-07 0)
(0.00100065 -9.65393e-07 0)
(0.00100091 -1.13425e-06 0)
(0.00100121 -1.29916e-06 0)
(0.00100155 -1.45944e-06 0)
(0.00100193 -1.61445e-06 0)
(0.00100234 -1.7636e-06 0)
(0.00100279 -1.90632e-06 0)
(0.00100327 -2.04212e-06 0)
(0.00100378 -2.17051e-06 0)
(0.00100432 -2.29107e-06 0)
(0.00100488 -2.4034e-06 0)
(0.00100547 -2.50714e-06 0)
(0.00100608 -2.60194e-06 0)
(0.00100671 -2.68752e-06 0)
(0.00100736 -2.76355e-06 0)
(0.00100802 -2.82978e-06 0)
(0.00100869 -2.88589e-06 0)
(0.00100937 -2.9317e-06 0)
(0.00101006 -2.96683e-06 0)
(0.00101076 -2.99115e-06 0)
(0.00101145 -3.0042e-06 0)
(0.00101214 -3.00591e-06 0)
(0.00101283 -2.99569e-06 0)
(0.00101351 -2.97355e-06 0)
(0.00101418 -2.93868e-06 0)
(0.00101484 -2.89127e-06 0)
(0.00101548 -2.83014e-06 0)
(0.0010161 -2.75575e-06 0)
(0.00101669 -2.6664e-06 0)
(0.00101726 -2.56302e-06 0)
(0.0010178 -2.44307e-06 0)
(0.0010183 -2.30826e-06 0)
(0.00101877 -2.15474e-06 0)
(0.00101919 -1.98558e-06 0)
(0.00101956 -1.79486e-06 0)
(0.00101989 -1.58784e-06 0)
(0.00102015 -1.35533e-06 0)
(0.00102036 -1.10621e-06 0)
(0.00102049 -8.26056e-07 0)
(0.00102056 -5.29659e-07 0)
(0.00102054 -1.94231e-07 0)
(0.00102044 1.55675e-07 0)
(0.00102024 5.56173e-07 0)
(0.00101994 9.66684e-07 0)
(0.00101953 1.44484e-06 0)
(0.001019 1.92402e-06 0)
(0.00101834 2.49666e-06 0)
(0.00101753 3.05357e-06 0)
(0.00101658 3.74353e-06 0)
(0.00101546 4.38754e-06 0)
(0.00101416 5.2259e-06 0)
(0.00101266 5.9649e-06 0)
(0.00101096 6.99429e-06 0)
(0.001009 7.83057e-06 0)
(0.00100681 9.10717e-06 0)
(0.001 -1.49086e-07 0)
(0.00100005 -4.47653e-07 0)
(0.00100014 -7.453e-07 0)
(0.00100028 -1.04069e-06 0)
(0.00100047 -1.33246e-06 0)
(0.0010007 -1.61932e-06 0)
(0.00100097 -1.89997e-06 0)
(0.00100129 -2.17323e-06 0)
(0.00100165 -2.43797e-06 0)
(0.00100205 -2.69314e-06 0)
(0.00100248 -2.9378e-06 0)
(0.00100296 -3.17104e-06 0)
(0.00100346 -3.39209e-06 0)
(0.001004 -3.60019e-06 0)
(0.00100457 -3.7947e-06 0)
(0.00100517 -3.97501e-06 0)
(0.00100579 -4.14061e-06 0)
(0.00100643 -4.29095e-06 0)
(0.0010071 -4.42562e-06 0)
(0.00100778 -4.54415e-06 0)
(0.00100848 -4.6462e-06 0)
(0.00100918 -4.73128e-06 0)
(0.0010099 -4.79912e-06 0)
(0.00101063 -4.84919e-06 0)
(0.00101136 -4.88127e-06 0)
(0.0010121 -4.89471e-06 0)
(0.00101283 -4.88937e-06 0)
(0.00101356 -4.86438e-06 0)
(0.00101428 -4.81973e-06 0)
(0.001015 -4.75422e-06 0)
(0.0010157 -4.66805e-06 0)
(0.00101638 -4.5595e-06 0)
(0.00101705 -4.42916e-06 0)
(0.0010177 -4.27452e-06 0)
(0.00101832 -4.09679e-06 0)
(0.00101891 -3.89228e-06 0)
(0.00101947 -3.66328e-06 0)
(0.00102 -3.40421e-06 0)
(0.00102048 -3.11923e-06 0)
(0.00102093 -2.79976e-06 0)
(0.00102132 -2.4531e-06 0)
(0.00102166 -2.06594e-06 0)
(0.00102195 -1.65074e-06 0)
(0.00102217 -1.18673e-06 0)
(0.00102232 -6.94861e-07 0)
(0.00102241 -1.42446e-07 0)
(0.00102241 4.35673e-07 0)
(0.00102233 1.09142e-06 0)
(0.00102215 1.76776e-06 0)
(0.00102188 2.54715e-06 0)
(0.00102149 3.33545e-06 0)
(0.00102099 4.26437e-06 0)
(0.00102036 5.17945e-06 0)
(0.0010196 6.29224e-06 0)