/*--------------------------------*- C++ -*----------------------------------*\
| =========                 |                                                 |
| \\      /  F ield         | OpenFOAM: The Open Source CFD Toolbox           |
|  \\    /   O peration     | Version:  2312                                  |
|   \\  /    A nd           | Website:  www.openfoam.com                      |
|    \\/     M anipulation  |                                                 |
\*---------------------------------------------------------------------------*/
FoamFile
{
    version     2.0;
    format      ascii;
    arch        "LSB;label=32;scalar=64";
    class       volScalarField;
    location    "8000";
    object      p;
}
// * * * * * * * * * * * * * * * * * * * * * * * * * * * * * * * * * * * * * //

dimensions      [0 2 -2 0 0 0 0];

internalField   nonuniform List<scalar> 
10800
(
6.28096e-07
6.13962e-07
6.00174e-07
5.89566e-07
5.82099e-07
5.76657e-07
5.72144e-07
5.67989e-07
5.64033e-07
5.60278e-07
5.56746e-07
5.5345e-07
5.50361e-07
5.47406e-07
5.44559e-07
5.41832e-07
5.39184e-07
5.36531e-07
5.33864e-07
5.31237e-07
5.28666e-07
5.26116e-07
5.23557e-07
5.20997e-07
5.18455e-07
5.15945e-07
5.13491e-07
5.11137e-07
5.08938e-07
5.06946e-07
5.05199e-07
5.03711e-07
5.02473e-07
5.01452e-07
5.00601e-07
4.9987e-07
4.99206e-07
4.98568e-07
4.9792e-07
4.97239e-07
4.96508e-07
4.95717e-07
4.94867e-07
4.9395e-07
4.92974e-07
4.91933e-07
4.90847e-07
4.8969e-07
4.88516e-07
4.87257e-07
4.8602e-07
4.84664e-07
4.83422e-07
4.81945e-07
4.80812e-07
4.79123e-07
4.78395e-07
4.76078e-07
4.76566e-07
4.71301e-07
5.80122e-07
5.78387e-07
5.75726e-07
5.72575e-07
5.69321e-07
5.66183e-07
5.63212e-07
5.60361e-07
5.57594e-07
5.54889e-07
5.52211e-07
5.49561e-07
5.46974e-07
5.44424e-07
5.41875e-07
5.39381e-07
5.37e-07
5.34652e-07
5.32229e-07
5.29763e-07
5.2736e-07
5.25025e-07
5.22665e-07
5.20236e-07
5.1779e-07
5.1541e-07
5.13147e-07
5.11032e-07
5.091e-07
5.07379e-07
5.05879e-07
5.04588e-07
5.03479e-07
5.02519e-07
5.01671e-07
5.00896e-07
5.00161e-07
4.99436e-07
4.98702e-07
4.97936e-07
4.97141e-07
4.96285e-07
4.95383e-07
4.94411e-07
4.93385e-07
4.92293e-07
4.91165e-07
4.89944e-07
4.88723e-07
4.87378e-07
4.86057e-07
4.84592e-07
4.83184e-07
4.81538e-07
4.80085e-07
4.78192e-07
4.76677e-07
4.74355e-07
4.72773e-07
4.6929e-07
5.71542e-07
5.70785e-07
5.69359e-07
5.67389e-07
5.65076e-07
5.62625e-07
5.60163e-07
5.57728e-07
5.55338e-07
5.52992e-07
5.50652e-07
5.48313e-07
5.46015e-07
5.43731e-07
5.41416e-07
5.39142e-07
5.37007e-07
5.34939e-07
5.32789e-07
5.30567e-07
5.28413e-07
5.26381e-07
5.24388e-07
5.22372e-07
5.20368e-07
5.18436e-07
5.16585e-07
5.14799e-07
5.13081e-07
5.11452e-07
5.0993e-07
5.08518e-07
5.07211e-07
5.05998e-07
5.04867e-07
5.038e-07
5.02778e-07
5.01781e-07
5.00795e-07
4.998e-07
4.9879e-07
4.97751e-07
4.96684e-07
4.95583e-07
4.94441e-07
4.93254e-07
4.92029e-07
4.90737e-07
4.89401e-07
4.87976e-07
4.86495e-07
4.84908e-07
4.83254e-07
4.81452e-07
4.7958e-07
4.77487e-07
4.75309e-07
4.72806e-07
4.70177e-07
4.67071e-07
5.59961e-07
5.59524e-07
5.58731e-07
5.5763e-07
5.56287e-07
5.54782e-07
5.5317e-07
5.5148e-07
5.49748e-07
5.47998e-07
5.46205e-07
5.44374e-07
5.42547e-07
5.40697e-07
5.38779e-07
5.36867e-07
5.35066e-07
5.33314e-07
5.3147e-07
5.29543e-07
5.27669e-07
5.25903e-07
5.24162e-07
5.22383e-07
5.20602e-07
5.18878e-07
5.17227e-07
5.15632e-07
5.14091e-07
5.12619e-07
5.11225e-07
5.09907e-07
5.08656e-07
5.07465e-07
5.06324e-07
5.05225e-07
5.04156e-07
5.03105e-07
5.02065e-07
5.01024e-07
4.99977e-07
4.98914e-07
4.97831e-07
4.96722e-07
4.95586e-07
4.94401e-07
4.93156e-07
4.91845e-07
4.90473e-07
4.89024e-07
4.87493e-07
4.85865e-07
4.84132e-07
4.8227e-07
4.80272e-07
4.78104e-07
4.75756e-07
4.7319e-07
4.70409e-07
4.67388e-07
5.53481e-07
5.53266e-07
5.52832e-07
5.52183e-07
5.5133e-07
5.50309e-07
5.49154e-07
5.47882e-07
5.46535e-07
5.45142e-07
5.43686e-07
5.42175e-07
5.40653e-07
5.39092e-07
5.37448e-07
5.35797e-07
5.34243e-07
5.32728e-07
5.31118e-07
5.29423e-07
5.27778e-07
5.26234e-07
5.24714e-07
5.23159e-07
5.216e-07
5.20092e-07
5.18641e-07
5.17227e-07
5.15842e-07
5.14496e-07
5.13197e-07
5.11943e-07
5.10726e-07
5.09545e-07
5.08395e-07
5.07272e-07
5.0617e-07
5.05082e-07
5.04003e-07
5.02925e-07
5.01841e-07
5.00745e-07
4.99629e-07
4.98484e-07
4.97304e-07
4.96086e-07
4.94833e-07
4.93534e-07
4.92175e-07
4.90748e-07
4.89242e-07
4.87648e-07
4.85951e-07
4.84139e-07
4.82196e-07
4.80109e-07
4.77858e-07
4.7544e-07
4.7285e-07
4.70139e-07
5.48167e-07
5.48003e-07
5.47677e-07
5.47192e-07
5.46555e-07
5.4579e-07
5.44914e-07
5.43933e-07
5.4288e-07
5.41778e-07
5.40608e-07
5.39378e-07
5.38131e-07
5.36838e-07
5.35453e-07
5.34054e-07
5.32744e-07
5.31463e-07
5.30077e-07
5.28603e-07
5.27173e-07
5.25834e-07
5.2451e-07
5.23141e-07
5.21761e-07
5.2042e-07
5.19124e-07
5.17851e-07
5.16595e-07
5.15364e-07
5.14167e-07
5.13001e-07
5.11861e-07
5.10746e-07
5.09652e-07
5.08577e-07
5.07517e-07
5.06467e-07
5.05423e-07
5.0438e-07
5.03335e-07
5.02283e-07
5.0122e-07
5.00146e-07
4.99049e-07
4.97923e-07
4.96752e-07
4.95538e-07
4.94274e-07
4.92954e-07
4.91567e-07
4.90107e-07
4.88559e-07
4.86918e-07
4.85168e-07
4.83303e-07
4.8131e-07
4.79191e-07
4.76955e-07
4.7467e-07
5.44033e-07
5.43915e-07
5.4368e-07
5.43329e-07
5.4286e-07
5.4229e-07
5.41627e-07
5.40869e-07
5.40042e-07
5.39168e-07
5.38224e-07
5.37219e-07
5.36192e-07
5.35116e-07
5.33943e-07
5.32753e-07
5.31645e-07
5.30559e-07
5.29361e-07
5.28072e-07
5.26822e-07
5.25657e-07
5.24499e-07
5.23291e-07
5.22067e-07
5.20875e-07
5.19719e-07
5.18577e-07
5.17443e-07
5.16325e-07
5.15231e-07
5.14158e-07
5.13103e-07
5.12064e-07
5.11041e-07
5.10032e-07
5.09035e-07
5.08048e-07
5.07068e-07
5.06092e-07
5.05117e-07
5.0414e-07
5.03154e-07
5.02152e-07
5.01135e-07
5.00098e-07
4.99039e-07
4.97953e-07
4.96831e-07
4.95668e-07
4.94458e-07
4.93196e-07
4.9187e-07
4.90477e-07
4.89005e-07
4.87452e-07
4.85807e-07
4.84081e-07
4.82284e-07
4.80493e-07
5.40783e-07
5.40692e-07
5.40511e-07
5.40239e-07
5.39874e-07
5.39426e-07
5.38902e-07
5.38294e-07
5.37626e-07
5.36915e-07
5.36136e-07
5.35297e-07
5.34438e-07
5.33527e-07
5.3252e-07
5.31494e-07
5.3055e-07
5.29623e-07
5.28581e-07
5.27446e-07
5.26349e-07
5.25332e-07
5.24316e-07
5.23247e-07
5.22157e-07
5.21096e-07
5.20063e-07
5.19039e-07
5.18017e-07
5.17005e-07
5.16012e-07
5.15035e-07
5.14071e-07
5.13121e-07
5.12184e-07
5.1126e-07
5.10347e-07
5.09445e-07
5.08551e-07
5.07663e-07
5.06781e-07
5.05901e-07
5.05024e-07
5.04145e-07
5.03262e-07
5.02371e-07
5.01471e-07
5.00556e-07
4.99624e-07
4.98671e-07
4.97692e-07
4.96683e-07
4.95638e-07
4.94555e-07
4.93425e-07
4.9225e-07
4.91022e-07
4.89754e-07
4.8846e-07
4.87215e-07
5.38203e-07
5.38129e-07
5.37984e-07
5.37764e-07
5.37467e-07
5.37104e-07
5.36676e-07
5.36176e-07
5.35623e-07
5.35034e-07
5.34383e-07
5.33675e-07
5.32949e-07
5.32174e-07
5.31303e-07
5.30414e-07
5.29606e-07
5.28813e-07
5.27904e-07
5.269e-07
5.25933e-07
5.25043e-07
5.2415e-07
5.23201e-07
5.22229e-07
5.21281e-07
5.20359e-07
5.19441e-07
5.18522e-07
5.1761e-07
5.16713e-07
5.1583e-07
5.14959e-07
5.141e-07
5.13254e-07
5.12422e-07
5.11602e-07
5.10796e-07
5.10002e-07
5.0922e-07
5.0845e-07
5.07691e-07
5.06939e-07
5.06197e-07
5.05461e-07
5.04732e-07
5.04008e-07
5.03287e-07
5.02568e-07
5.01849e-07
5.01128e-07
5.00403e-07
4.99672e-07
4.98934e-07
4.98184e-07
4.97425e-07
4.96656e-07
4.95887e-07
4.95136e-07
4.94472e-07
5.36163e-07
5.36102e-07
5.35981e-07
5.35798e-07
5.35549e-07
5.35246e-07
5.34888e-07
5.34465e-07
5.33999e-07
5.33502e-07
5.32947e-07
5.32341e-07
5.3172e-07
5.31051e-07
5.30288e-07
5.29508e-07
5.2881e-07
5.28125e-07
5.27323e-07
5.26426e-07
5.25566e-07
5.2478e-07
5.2399e-07
5.23142e-07
5.22269e-07
5.21419e-07
5.20592e-07
5.19768e-07
5.1894e-07
5.18118e-07
5.1731e-07
5.16516e-07
5.15733e-07
5.14962e-07
5.14206e-07
5.13466e-07
5.12741e-07
5.12033e-07
5.11343e-07
5.1067e-07
5.10015e-07
5.0938e-07
5.08763e-07
5.08164e-07
5.07586e-07
5.07028e-07
5.06492e-07
5.05976e-07
5.05482e-07
5.0501e-07
5.0456e-07
5.04134e-07
5.0373e-07
5.03352e-07
5.02998e-07
5.02673e-07
5.02379e-07
5.02129e-07
5.01939e-07
5.0187e-07
5.34572e-07
5.3452e-07
5.34416e-07
5.3426e-07
5.34046e-07
5.33785e-07
5.33478e-07
5.33113e-07
5.3271e-07
5.32281e-07
5.318e-07
5.3127e-07
5.30729e-07
5.30141e-07
5.29462e-07
5.28767e-07
5.28155e-07
5.27556e-07
5.2684e-07
5.26029e-07
5.25255e-07
5.24554e-07
5.23848e-07
5.23084e-07
5.22295e-07
5.21527e-07
5.20781e-07
5.20037e-07
5.19289e-07
5.18547e-07
5.17818e-07
5.17103e-07
5.16401e-07
5.15713e-07
5.15041e-07
5.14387e-07
5.13753e-07
5.1314e-07
5.12549e-07
5.11981e-07
5.1144e-07
5.10924e-07
5.10437e-07
5.09981e-07
5.09556e-07
5.09167e-07
5.08813e-07
5.08497e-07
5.08222e-07
5.07991e-07
5.07805e-07
5.0767e-07
5.07586e-07
5.07559e-07
5.07592e-07
5.07691e-07
5.07863e-07
5.0812e-07
5.08481e-07
5.08994e-07
5.33366e-07
5.33319e-07
5.33228e-07
5.3309e-07
5.32902e-07
5.32672e-07
5.32401e-07
5.32077e-07
5.3172e-07
5.31341e-07
5.30914e-07
5.30441e-07
5.29958e-07
5.29432e-07
5.28816e-07
5.28186e-07
5.27639e-07
5.27107e-07
5.26458e-07
5.25714e-07
5.25007e-07
5.24374e-07
5.23735e-07
5.23038e-07
5.22315e-07
5.21614e-07
5.20934e-07
5.20256e-07
5.19574e-07
5.18898e-07
5.18236e-07
5.17589e-07
5.16956e-07
5.16339e-07
5.1574e-07
5.15163e-07
5.14608e-07
5.14079e-07
5.13576e-07
5.13104e-07
5.12663e-07
5.12257e-07
5.11887e-07
5.11557e-07
5.11271e-07
5.11032e-07
5.10843e-07
5.10709e-07
5.10632e-07
5.10619e-07
5.10673e-07
5.10801e-07
5.11008e-07
5.11301e-07
5.11687e-07
5.12173e-07
5.12771e-07
5.13494e-07
5.14361e-07
5.15408e-07
5.32497e-07
5.32455e-07
5.32372e-07
5.32247e-07
5.32076e-07
5.31867e-07
5.31621e-07
5.31327e-07
5.31001e-07
5.30658e-07
5.30268e-07
5.29835e-07
5.29395e-07
5.28913e-07
5.28342e-07
5.27759e-07
5.2726e-07
5.26775e-07
5.26175e-07
5.25481e-07
5.24824e-07
5.24241e-07
5.23652e-07
5.23004e-07
5.22331e-07
5.2168e-07
5.21051e-07
5.20424e-07
5.19792e-07
5.19168e-07
5.18559e-07
5.17965e-07
5.17387e-07
5.16826e-07
5.16285e-07
5.15769e-07
5.15279e-07
5.14817e-07
5.14386e-07
5.13991e-07
5.13632e-07
5.13314e-07
5.13041e-07
5.12816e-07
5.12644e-07
5.12529e-07
5.12476e-07
5.1249e-07
5.12577e-07
5.12743e-07
5.12996e-07
5.13341e-07
5.13789e-07
5.14346e-07
5.15025e-07
5.15834e-07
5.16788e-07
5.17899e-07
5.1919e-07
5.20686e-07
5.31934e-07
5.31895e-07
5.31818e-07
5.31701e-07
5.3154e-07
5.31345e-07
5.31115e-07
5.30839e-07
5.30534e-07
5.30213e-07
5.29847e-07
5.29439e-07
5.29026e-07
5.28573e-07
5.28031e-07
5.27478e-07
5.2701e-07
5.26557e-07
5.25989e-07
5.25327e-07
5.24703e-07
5.24153e-07
5.23597e-07
5.22983e-07
5.22344e-07
5.21726e-07
5.21131e-07
5.20538e-07
5.19941e-07
5.19352e-07
5.18778e-07
5.18221e-07
5.17681e-07
5.17159e-07
5.1666e-07
5.16186e-07
5.15741e-07
5.15326e-07
5.14947e-07
5.14605e-07
5.14304e-07
5.14049e-07
5.13844e-07
5.13693e-07
5.13602e-07
5.13576e-07
5.13619e-07
5.13739e-07
5.13943e-07
5.14237e-07
5.1463e-07
5.15131e-07
5.15751e-07
5.16498e-07
5.17386e-07
5.18427e-07
5.19637e-07
5.2103e-07
5.22627e-07
5.24447e-07
5.31658e-07
5.3162e-07
5.31546e-07
5.31433e-07
5.31277e-07
5.31088e-07
5.30866e-07
5.30598e-07
5.30303e-07
5.29993e-07
5.29639e-07
5.29244e-07
5.28844e-07
5.28404e-07
5.27877e-07
5.27339e-07
5.26886e-07
5.26449e-07
5.25896e-07
5.25251e-07
5.24643e-07
5.2411e-07
5.2357e-07
5.22972e-07
5.2235e-07
5.2175e-07
5.21172e-07
5.20596e-07
5.20017e-07
5.19445e-07
5.1889e-07
5.18352e-07
5.17831e-07
5.17329e-07
5.1685e-07
5.16399e-07
5.15976e-07
5.15587e-07
5.15233e-07
5.14919e-07
5.14649e-07
5.14426e-07
5.14256e-07
5.14144e-07
5.14095e-07
5.14114e-07
5.14208e-07
5.14383e-07
5.14647e-07
5.15008e-07
5.15475e-07
5.16057e-07
5.16766e-07
5.17612e-07
5.1861e-07
5.19772e-07
5.21117e-07
5.22657e-07
5.24415e-07
5.26405e-07
5.31658e-07
5.3162e-07
5.31546e-07
5.31433e-07
5.31277e-07
5.31088e-07
5.30866e-07
5.30599e-07
5.30304e-07
5.29993e-07
5.29639e-07
5.29244e-07
5.28845e-07
5.28405e-07
5.27877e-07
5.27339e-07
5.26887e-07
5.26449e-07
5.25897e-07
5.25251e-07
5.24643e-07
5.2411e-07
5.2357e-07
5.22973e-07
5.22351e-07
5.2175e-07
5.21172e-07
5.20596e-07
5.20017e-07
5.19446e-07
5.1889e-07
5.18352e-07
5.17831e-07
5.17329e-07
5.16851e-07
5.16399e-07
5.15977e-07
5.15587e-07
5.15234e-07
5.1492e-07
5.14649e-07
5.14427e-07
5.14257e-07
5.14145e-07
5.14096e-07
5.14115e-07
5.14209e-07
5.14384e-07
5.14648e-07
5.15008e-07
5.15475e-07
5.16058e-07
5.16767e-07
5.17613e-07
5.18611e-07
5.19773e-07
5.21118e-07
5.22658e-07
5.24416e-07
5.26407e-07
5.31935e-07
5.31896e-07
5.31819e-07
5.31702e-07
5.31541e-07
5.31346e-07
5.31116e-07
5.30839e-07
5.30534e-07
5.30213e-07
5.29847e-07
5.2944e-07
5.29027e-07
5.28573e-07
5.28031e-07
5.27479e-07
5.27011e-07
5.26558e-07
5.25989e-07
5.25328e-07
5.24704e-07
5.24154e-07
5.23598e-07
5.22983e-07
5.22344e-07
5.21727e-07
5.21132e-07
5.20539e-07
5.19942e-07
5.19353e-07
5.18779e-07
5.18223e-07
5.17682e-07
5.1716e-07
5.16661e-07
5.16187e-07
5.15742e-07
5.15328e-07
5.14948e-07
5.14606e-07
5.14306e-07
5.14051e-07
5.13846e-07
5.13695e-07
5.13604e-07
5.13577e-07
5.13621e-07
5.13741e-07
5.13945e-07
5.14239e-07
5.14633e-07
5.15134e-07
5.15753e-07
5.16501e-07
5.17389e-07
5.1843e-07
5.19641e-07
5.21034e-07
5.22631e-07
5.24451e-07
5.32498e-07
5.32456e-07
5.32373e-07
5.32248e-07
5.32077e-07
5.31868e-07
5.31622e-07
5.31328e-07
5.31002e-07
5.30659e-07
5.30269e-07
5.29836e-07
5.29396e-07
5.28914e-07
5.28343e-07
5.2776e-07
5.27261e-07
5.26776e-07
5.26176e-07
5.25482e-07
5.24825e-07
5.24242e-07
5.23653e-07
5.23005e-07
5.22333e-07
5.21682e-07
5.21053e-07
5.20425e-07
5.19794e-07
5.1917e-07
5.1856e-07
5.17967e-07
5.17388e-07
5.16828e-07
5.16287e-07
5.15771e-07
5.15281e-07
5.14819e-07
5.14389e-07
5.13993e-07
5.13635e-07
5.13317e-07
5.13043e-07
5.12819e-07
5.12647e-07
5.12532e-07
5.12479e-07
5.12493e-07
5.12581e-07
5.12747e-07
5.13e-07
5.13345e-07
5.13793e-07
5.14351e-07
5.15029e-07
5.15839e-07
5.16793e-07
5.17905e-07
5.19197e-07
5.20693e-07
5.33367e-07
5.33321e-07
5.33229e-07
5.33092e-07
5.32903e-07
5.32673e-07
5.32402e-07
5.32079e-07
5.31721e-07
5.31343e-07
5.30915e-07
5.30442e-07
5.2996e-07
5.29434e-07
5.28817e-07
5.28188e-07
5.27641e-07
5.27108e-07
5.26459e-07
5.25716e-07
5.25009e-07
5.24376e-07
5.23737e-07
5.2304e-07
5.22317e-07
5.21616e-07
5.20936e-07
5.20258e-07
5.19576e-07
5.189e-07
5.18239e-07
5.17592e-07
5.16959e-07
5.16342e-07
5.15743e-07
5.15166e-07
5.14611e-07
5.14082e-07
5.1358e-07
5.13107e-07
5.12667e-07
5.1226e-07
5.1189e-07
5.11561e-07
5.11275e-07
5.11036e-07
5.10848e-07
5.10713e-07
5.10637e-07
5.10624e-07
5.10679e-07
5.10807e-07
5.11014e-07
5.11307e-07
5.11693e-07
5.1218e-07
5.12779e-07
5.13502e-07
5.1437e-07
5.15418e-07
5.34574e-07
5.34521e-07
5.34418e-07
5.34261e-07
5.34048e-07
5.33787e-07
5.33479e-07
5.33115e-07
5.32711e-07
5.32283e-07
5.31802e-07
5.31272e-07
5.3073e-07
5.30143e-07
5.29464e-07
5.28769e-07
5.28156e-07
5.27558e-07
5.26842e-07
5.26031e-07
5.25257e-07
5.24556e-07
5.23851e-07
5.23086e-07
5.22297e-07
5.21529e-07
5.20784e-07
5.2004e-07
5.19292e-07
5.1855e-07
5.17821e-07
5.17107e-07
5.16404e-07
5.15716e-07
5.15045e-07
5.14391e-07
5.13757e-07
5.13144e-07
5.12553e-07
5.11986e-07
5.11444e-07
5.10928e-07
5.10442e-07
5.09986e-07
5.09562e-07
5.09172e-07
5.08818e-07
5.08503e-07
5.08228e-07
5.07997e-07
5.07812e-07
5.07676e-07
5.07593e-07
5.07567e-07
5.076e-07
5.077e-07
5.07872e-07
5.0813e-07
5.08492e-07
5.09006e-07
5.36165e-07
5.36104e-07
5.35983e-07
5.358e-07
5.35551e-07
5.35248e-07
5.3489e-07
5.34467e-07
5.34001e-07
5.33504e-07
5.32949e-07
5.32343e-07
5.31722e-07
5.31053e-07
5.3029e-07
5.29511e-07
5.28812e-07
5.28127e-07
5.27326e-07
5.26429e-07
5.25568e-07
5.24782e-07
5.23992e-07
5.23144e-07
5.22272e-07
5.21422e-07
5.20595e-07
5.19771e-07
5.18943e-07
5.18121e-07
5.17314e-07
5.16519e-07
5.15736e-07
5.14966e-07
5.1421e-07
5.1347e-07
5.12746e-07
5.12038e-07
5.11348e-07
5.10675e-07
5.1002e-07
5.09385e-07
5.08768e-07
5.0817e-07
5.07592e-07
5.07035e-07
5.06498e-07
5.05983e-07
5.05489e-07
5.05018e-07
5.04568e-07
5.04142e-07
5.03739e-07
5.03361e-07
5.03008e-07
5.02684e-07
5.0239e-07
5.0214e-07
5.01952e-07
5.01884e-07
5.38205e-07
5.38131e-07
5.37986e-07
5.37766e-07
5.3747e-07
5.37106e-07
5.36678e-07
5.36178e-07
5.35626e-07
5.35036e-07
5.34385e-07
5.33677e-07
5.32952e-07
5.32176e-07
5.31305e-07
5.30417e-07
5.29609e-07
5.28816e-07
5.27907e-07
5.26903e-07
5.25936e-07
5.25046e-07
5.24153e-07
5.23204e-07
5.22232e-07
5.21284e-07
5.20362e-07
5.19445e-07
5.18525e-07
5.17614e-07
5.16717e-07
5.15834e-07
5.14963e-07
5.14104e-07
5.13259e-07
5.12426e-07
5.11607e-07
5.10801e-07
5.10008e-07
5.09226e-07
5.08456e-07
5.07697e-07
5.06946e-07
5.06204e-07
5.05468e-07
5.04739e-07
5.04015e-07
5.03295e-07
5.02576e-07
5.01858e-07
5.01137e-07
5.00413e-07
4.99682e-07
4.98944e-07
4.98195e-07
4.97437e-07
4.96668e-07
4.95901e-07
4.95151e-07
4.94487e-07
5.40785e-07
5.40694e-07
5.40514e-07
5.40242e-07
5.39876e-07
5.39429e-07
5.38905e-07
5.38297e-07
5.37629e-07
5.36918e-07
5.36139e-07
5.353e-07
5.3444e-07
5.3353e-07
5.32523e-07
5.31497e-07
5.30553e-07
5.29626e-07
5.28585e-07
5.27449e-07
5.26352e-07
5.25335e-07
5.24319e-07
5.23251e-07
5.22161e-07
5.21099e-07
5.20067e-07
5.19043e-07
5.18021e-07
5.1701e-07
5.16016e-07
5.15039e-07
5.14076e-07
5.13126e-07
5.12189e-07
5.11265e-07
5.10353e-07
5.09451e-07
5.08557e-07
5.0767e-07
5.06787e-07
5.05908e-07
5.05031e-07
5.04152e-07
5.03269e-07
5.02379e-07
5.01479e-07
5.00565e-07
4.99633e-07
4.9868e-07
4.97702e-07
4.96693e-07
4.95649e-07
4.94567e-07
4.93438e-07
4.92263e-07
4.91036e-07
4.89769e-07
4.88476e-07
4.87232e-07
5.44036e-07
5.43917e-07
5.43683e-07
5.43332e-07
5.42863e-07
5.42293e-07
5.4163e-07
5.40872e-07
5.40045e-07
5.39171e-07
5.38227e-07
5.37222e-07
5.36195e-07
5.35119e-07
5.33946e-07
5.32756e-07
5.31649e-07
5.30562e-07
5.29365e-07
5.28075e-07
5.26826e-07
5.25661e-07
5.24503e-07
5.23295e-07
5.22071e-07
5.20879e-07
5.19723e-07
5.18582e-07
5.17448e-07
5.1633e-07
5.15236e-07
5.14163e-07
5.13108e-07
5.12069e-07
5.11046e-07
5.10038e-07
5.09042e-07
5.08055e-07
5.07075e-07
5.06099e-07
5.05125e-07
5.04147e-07
5.03162e-07
5.0216e-07
5.01143e-07
5.00107e-07
4.99048e-07
4.97962e-07
4.9684e-07
4.95679e-07
4.94469e-07
4.93207e-07
4.91882e-07
4.9049e-07
4.89018e-07
4.87466e-07
4.85822e-07
4.84097e-07
4.82301e-07
4.80511e-07
5.4817e-07
5.48006e-07
5.4768e-07
5.47195e-07
5.46558e-07
5.45793e-07
5.44917e-07
5.43936e-07
5.42883e-07
5.41781e-07
5.40611e-07
5.39382e-07
5.38134e-07
5.36841e-07
5.35456e-07
5.34058e-07
5.32748e-07
5.31466e-07
5.30081e-07
5.28607e-07
5.27177e-07
5.25838e-07
5.24514e-07
5.23145e-07
5.21765e-07
5.20425e-07
5.19129e-07
5.17856e-07
5.16599e-07
5.15369e-07
5.14172e-07
5.13006e-07
5.11867e-07
5.10752e-07
5.09658e-07
5.08583e-07
5.07524e-07
5.06474e-07
5.0543e-07
5.04388e-07
5.03343e-07
5.02291e-07
5.01228e-07
5.00155e-07
4.99058e-07
4.97932e-07
4.96762e-07
4.95548e-07
4.94285e-07
4.92965e-07
4.91579e-07
4.90119e-07
4.88572e-07
4.86932e-07
4.85182e-07
4.83318e-07
4.81325e-07
4.79208e-07
4.76972e-07
4.74688e-07
5.53484e-07
5.53269e-07
5.52836e-07
5.52186e-07
5.51333e-07
5.50312e-07
5.49157e-07
5.47886e-07
5.46539e-07
5.45145e-07
5.43689e-07
5.42179e-07
5.40657e-07
5.39096e-07
5.37452e-07
5.358e-07
5.34246e-07
5.32732e-07
5.31122e-07
5.29427e-07
5.27783e-07
5.26238e-07
5.24719e-07
5.23163e-07
5.21605e-07
5.20096e-07
5.18646e-07
5.17232e-07
5.15847e-07
5.14502e-07
5.13203e-07
5.11948e-07
5.10733e-07
5.09551e-07
5.08402e-07
5.07279e-07
5.06177e-07
5.05089e-07
5.0401e-07
5.02932e-07
5.01849e-07
5.00753e-07
4.99638e-07
4.98493e-07
4.97314e-07
4.96095e-07
4.94843e-07
4.93545e-07
4.92186e-07
4.90759e-07
4.89254e-07
4.8766e-07
4.85964e-07
4.84153e-07
4.82211e-07
4.80124e-07
4.77874e-07
4.75457e-07
4.72868e-07
4.70158e-07
5.59964e-07
5.59528e-07
5.58734e-07
5.57634e-07
5.56291e-07
5.54785e-07
5.53174e-07
5.51484e-07
5.49752e-07
5.48001e-07
5.46208e-07
5.44378e-07
5.42551e-07
5.40701e-07
5.38783e-07
5.36871e-07
5.3507e-07
5.33318e-07
5.31474e-07
5.29547e-07
5.27674e-07
5.25907e-07
5.24166e-07
5.22388e-07
5.20607e-07
5.18883e-07
5.17232e-07
5.15637e-07
5.14097e-07
5.12625e-07
5.11231e-07
5.09913e-07
5.08662e-07
5.07471e-07
5.06331e-07
5.05232e-07
5.04163e-07
5.03113e-07
5.02073e-07
5.01033e-07
4.99986e-07
4.98923e-07
4.9784e-07
4.96732e-07
4.95596e-07
4.94411e-07
4.93166e-07
4.91856e-07
4.90485e-07
4.89036e-07
4.87506e-07
4.85878e-07
4.84146e-07
4.82284e-07
4.80287e-07
4.78119e-07
4.75772e-07
4.73206e-07
4.70426e-07
4.67406e-07
5.71546e-07
5.70788e-07
5.69362e-07
5.67392e-07
5.65079e-07
5.62629e-07
5.60167e-07
5.57731e-07
5.55341e-07
5.52996e-07
5.50655e-07
5.48317e-07
5.46019e-07
5.43735e-07
5.4142e-07
5.39146e-07
5.37011e-07
5.34944e-07
5.32793e-07
5.30571e-07
5.28418e-07
5.26386e-07
5.24393e-07
5.22377e-07
5.20374e-07
5.18441e-07
5.1659e-07
5.14805e-07
5.13087e-07
5.11458e-07
5.09936e-07
5.08524e-07
5.07217e-07
5.06005e-07
5.04874e-07
5.03807e-07
5.02785e-07
5.01789e-07
5.00803e-07
4.99809e-07
4.98799e-07
4.9776e-07
4.96694e-07
4.95593e-07
4.94451e-07
4.93265e-07
4.9204e-07
4.90749e-07
4.89413e-07
4.87989e-07
4.86508e-07
4.84921e-07
4.83268e-07
4.81466e-07
4.79595e-07
4.77502e-07
4.75325e-07
4.72822e-07
4.70194e-07
4.67088e-07
5.80126e-07
5.7839e-07
5.75729e-07
5.72579e-07
5.69325e-07
5.66187e-07
5.63216e-07
5.60365e-07
5.57598e-07
5.54893e-07
5.52215e-07
5.49565e-07
5.46978e-07
5.44429e-07
5.4188e-07
5.39386e-07
5.37004e-07
5.34657e-07
5.32234e-07
5.29768e-07
5.27365e-07
5.2503e-07
5.2267e-07
5.20241e-07
5.17796e-07
5.15416e-07
5.13152e-07
5.11038e-07
5.09105e-07
5.07384e-07
5.05885e-07
5.04594e-07
5.03486e-07
5.02526e-07
5.01678e-07
5.00903e-07
5.00169e-07
4.99444e-07
4.9871e-07
4.97945e-07
4.9715e-07
4.96295e-07
4.95393e-07
4.94421e-07
4.93395e-07
4.92304e-07
4.91176e-07
4.89956e-07
4.88735e-07
4.8739e-07
4.86069e-07
4.84605e-07
4.83198e-07
4.81552e-07
4.80099e-07
4.78207e-07
4.76692e-07
4.74371e-07
4.7279e-07
4.69307e-07
6.28099e-07
6.13966e-07
6.00178e-07
5.89569e-07
5.82103e-07
5.76661e-07
5.72148e-07
5.67993e-07
5.64037e-07
5.60282e-07
5.5675e-07
5.53454e-07
5.50365e-07
5.47411e-07
5.44563e-07
5.41837e-07
5.39188e-07
5.36535e-07
5.33869e-07
5.31242e-07
5.28672e-07
5.26121e-07
5.23562e-07
5.21003e-07
5.18461e-07
5.1595e-07
5.13497e-07
5.11143e-07
5.08944e-07
5.06951e-07
5.05204e-07
5.03717e-07
5.02479e-07
5.01458e-07
5.00608e-07
4.99877e-07
4.99214e-07
4.98576e-07
4.97928e-07
4.97247e-07
4.96517e-07
4.95726e-07
4.94877e-07
4.9396e-07
4.92984e-07
4.91944e-07
4.90858e-07
4.89702e-07
4.88528e-07
4.8727e-07
4.86033e-07
4.84677e-07
4.83435e-07
4.81959e-07
4.80827e-07
4.79138e-07
4.78411e-07
4.76094e-07
4.76583e-07
4.71318e-07
4.94565e-07
4.38365e-07
4.09906e-07
3.8935e-07
3.71423e-07
3.53915e-07
3.35828e-07
3.1689e-07
2.96627e-07
2.74373e-07
2.48964e-07
2.21681e-07
1.92053e-07
1.63421e-07
1.34019e-07
1.08778e-07
8.45905e-08
6.64718e-08
5.05349e-08
4.09962e-08
3.40394e-08
3.2871e-08
3.31085e-08
3.9077e-08
4.29689e-08
5.44985e-08
5.56583e-08
7.17528e-08
6.85487e-08
2.36555e-08
4.74474e-07
4.17049e-07
3.95523e-07
3.80039e-07
3.64017e-07
3.46928e-07
3.28959e-07
3.10654e-07
2.9066e-07
2.68673e-07
2.43665e-07
2.17215e-07
1.88524e-07
1.61128e-07
1.3308e-07
1.08936e-07
8.5538e-08
6.79603e-08
5.22556e-08
4.24103e-08
3.50849e-08
3.31358e-08
3.25069e-08
3.75723e-08
4.05155e-08
5.08886e-08
5.45124e-08
6.29786e-08
7.60924e-08
1.5634e-08
4.58401e-07
4.14372e-07
3.95603e-07
3.80703e-07
3.64099e-07
3.46184e-07
3.27531e-07
3.0829e-07
2.87784e-07
2.65564e-07
2.40505e-07
2.14297e-07
1.85958e-07
1.59053e-07
1.31326e-07
1.07767e-07
8.48102e-08
6.75267e-08
5.22035e-08
4.23443e-08
3.525e-08
3.29549e-08
3.24267e-08
3.68655e-08
4.04656e-08
4.81282e-08
5.47836e-08
5.69615e-08
7.99712e-08
4.3557e-08
4.46255e-07
4.10521e-07
3.90645e-07
3.75905e-07
3.59752e-07
3.4219e-07
3.23867e-07
3.04783e-07
2.83902e-07
2.61257e-07
2.35955e-07
2.09842e-07
1.81807e-07
1.5538e-07
1.28269e-07
1.05248e-07
8.30208e-08
6.58807e-08
5.12032e-08
4.12098e-08
3.46675e-08
3.1971e-08
3.20689e-08
3.52951e-08
4.03053e-08
4.56156e-08
5.58933e-08
5.48938e-08
7.86629e-08
5.93928e-08
4.35368e-07
4.06985e-07
3.87698e-07
3.73688e-07
3.58294e-07
3.40696e-07
3.21687e-07
3.01796e-07
2.80193e-07
2.5699e-07
2.31415e-07
2.05226e-07
1.77489e-07
1.51214e-07
1.24783e-07
1.0179e-07
8.03339e-08
6.30975e-08
4.91735e-08
3.90208e-08
3.30893e-08
3.01303e-08
3.09549e-08
3.346e-08
3.98354e-08
4.40223e-08
5.55657e-08
5.62414e-08
7.39625e-08
7.01785e-08
4.26269e-07
4.04064e-07
3.85747e-07
3.71163e-07
3.55531e-07
3.37898e-07
3.18647e-07
2.983e-07
2.76138e-07
2.52427e-07
2.26609e-07
2.00231e-07
1.72743e-07
1.4639e-07
1.20573e-07
9.7459e-08
7.67827e-08
5.9448e-08
4.61376e-08
3.6031e-08
3.04499e-08
2.74943e-08
2.8901e-08
3.11626e-08
3.82516e-08
4.28194e-08
5.37364e-08
5.75985e-08
7.02106e-08
7.44793e-08
4.19169e-07
4.01441e-07
3.83966e-07
3.6868e-07
3.52829e-07
3.35114e-07
3.15569e-07
2.94688e-07
2.71925e-07
2.47651e-07
2.21573e-07
1.94891e-07
1.6762e-07
1.41055e-07
1.15816e-07
9.25411e-08
7.24592e-08
5.51618e-08
4.21105e-08
3.22634e-08
2.67899e-08
2.40138e-08
2.57907e-08
2.82162e-08
3.54268e-08
4.10794e-08
5.09178e-08
5.75205e-08
6.77713e-08
7.47681e-08
4.13893e-07
3.98871e-07
3.82197e-07
3.6641e-07
3.5014e-07
3.32172e-07
3.12245e-07
2.90797e-07
2.6744e-07
2.42574e-07
2.16241e-07
1.8918e-07
1.62088e-07
1.35245e-07
1.10438e-07
8.70457e-08
6.72619e-08
5.01728e-08
3.70948e-08
2.761e-08
2.21528e-08
1.95668e-08
2.1578e-08
2.44269e-08
3.14354e-08
3.83288e-08
4.74887e-08
5.5783e-08
6.54966e-08
7.36775e-08
4.10065e-07
3.96355e-07
3.80375e-07
3.64248e-07
3.47439e-07
3.29048e-07
3.08648e-07
2.86608e-07
2.62683e-07
2.37195e-07
2.10589e-07
1.83078e-07
1.56084e-07
1.28943e-07
1.04337e-07
8.09441e-08
6.11513e-08
4.43894e-08
3.1135e-08
2.19356e-08
1.65485e-08
1.40469e-08
1.62068e-08
1.96094e-08
2.63821e-08
3.42811e-08
4.34745e-08
5.25929e-08
6.26899e-08
7.14434e-08
4.07236e-07
3.93976e-07
3.78461e-07
3.62069e-07
3.44681e-07
3.25729e-07
3.0477e-07
2.82106e-07
2.57637e-07
2.31487e-07
2.04549e-07
1.76531e-07
1.49496e-07
1.22092e-07
9.74275e-08
7.41532e-08
5.41091e-08
3.76616e-08
2.41936e-08
1.51057e-08
9.89002e-09
7.38859e-09
9.57343e-09
1.35832e-08
2.0244e-08
2.88203e-08
3.85265e-08
4.82195e-08
5.88376e-08
6.83012e-08
4.04987e-07
3.9179e-07
3.7645e-07
3.59761e-07
3.41781e-07
3.22189e-07
3.00606e-07
2.77262e-07
2.52243e-07
2.25384e-07
1.98024e-07
1.69461e-07
1.42197e-07
1.14602e-07
8.96275e-08
6.65404e-08
4.61279e-08
2.98524e-08
1.63286e-08
7.03787e-09
2.01211e-09
-4.68549e-10
1.56912e-09
6.14429e-09
1.28999e-08
2.18689e-08
3.22999e-08
4.26311e-08
5.38112e-08
6.40024e-08
4.03029e-07
3.89762e-07
3.74336e-07
3.57245e-07
3.38653e-07
3.18385e-07
2.96134e-07
2.72023e-07
2.46404e-07
2.18792e-07
1.9089e-07
1.61767e-07
1.34059e-07
1.06346e-07
8.08713e-08
5.79429e-08
3.71832e-08
2.08257e-08
7.37454e-09
-2.31166e-09
-7.27467e-09
-9.64641e-09
-7.90222e-09
-2.92841e-09
4.13269e-09
1.33371e-08
2.44878e-08
3.56239e-08
4.74328e-08
5.83781e-08
4.01215e-07
3.87785e-07
3.72085e-07
3.54482e-07
3.35237e-07
3.14259e-07
2.91296e-07
2.66311e-07
2.39988e-07
2.11592e-07
1.83006e-07
1.53323e-07
1.24961e-07
9.71585e-08
7.10962e-08
4.81757e-08
2.71944e-08
1.04782e-08
-2.84209e-09
-1.29546e-08
-1.81379e-08
-2.03538e-08
-1.89458e-08
-1.38414e-08
-6.35219e-09
3.07464e-09
1.48096e-08
2.68784e-08
3.94304e-08
5.11131e-08
3.9947e-07
3.85752e-07
3.69659e-07
3.51461e-07
3.31492e-07
3.09724e-07
2.85984e-07
2.60022e-07
2.32839e-07
2.03632e-07
1.74208e-07
1.43964e-07
1.14781e-07
8.68323e-08
6.02153e-08
3.70578e-08
1.60076e-08
-1.2538e-09
-1.45398e-08
-2.49695e-08
-3.06758e-08
-3.28332e-08
-3.17246e-08
-2.67845e-08
-1.89028e-08
-9.18262e-09
2.9942e-09
1.59847e-08
2.94589e-08
4.19291e-08
3.9777e-07
3.83607e-07
3.67028e-07
3.48159e-07
3.27365e-07
3.04669e-07
2.80041e-07
2.53022e-07
2.2479e-07
1.9473e-07
1.64322e-07
1.33489e-07
1.03401e-07
7.51411e-08
4.80845e-08
2.44332e-08
3.39077e-09
-1.4441e-08
-2.79333e-08
-3.85414e-08
-4.49454e-08
-4.73248e-08
-4.64764e-08
-4.19467e-08
-3.38911e-08
-2.3812e-08
-1.12884e-08
2.51288e-09
1.70303e-08
3.0439e-08
3.96138e-07
3.81346e-07
3.6416e-07
3.44527e-07
3.22776e-07
2.98968e-07
2.73279e-07
2.45136e-07
2.15665e-07
1.84668e-07
1.53163e-07
1.21658e-07
9.06693e-08
6.18558e-08
3.44841e-08
1.01735e-08
-1.09377e-08
-2.92244e-08
-4.32005e-08
-5.39512e-08
-6.10618e-08
-6.40049e-08
-6.34399e-08
-5.95209e-08
-5.16774e-08
-4.1319e-08
-2.84786e-08
-1.40318e-08
1.53903e-09
1.60106e-08
3.94625e-07
3.78991e-07
3.61011e-07
3.40473e-07
3.176e-07
2.92477e-07
2.65485e-07
2.36134e-07
2.05268e-07
1.73191e-07
1.40512e-07
1.08191e-07
7.63688e-08
4.67634e-08
1.91234e-08
-5.85311e-09
-2.72472e-08
-4.58419e-08
-6.04934e-08
-7.15286e-08
-7.92503e-08
-8.30564e-08
-8.30009e-08
-7.97557e-08
-7.25552e-08
-6.22761e-08
-4.92006e-08
-3.42661e-08
-1.77443e-08
-2.15796e-09
3.93246e-07
3.76545e-07
3.57541e-07
3.35849e-07
3.11643e-07
2.84999e-07
2.56424e-07
2.25713e-07
1.93333e-07
1.59985e-07
1.26075e-07
9.27545e-08
6.01769e-08
2.96515e-08
1.6567e-09
-2.38512e-08
-4.57517e-08
-6.46023e-08
-7.99611e-08
-9.15837e-08
-9.98649e-08
-1.04696e-07
-1.05519e-07
-1.0305e-07
-9.67857e-08
-8.70991e-08
-7.41715e-08
-5.90095e-08
-4.1774e-08
-2.51209e-08
3.91918e-07
3.73896e-07
3.53528e-07
3.30408e-07
3.0461e-07
2.76236e-07
2.45797e-07
2.13476e-07
1.79476e-07
1.44648e-07
1.09446e-07
7.4955e-08
4.16384e-08
1.0232e-08
-1.82904e-08
-4.41699e-08
-6.66473e-08
-8.58384e-08
-1.01801e-07
-1.14297e-07
-1.23319e-07
-1.29245e-07
-1.31351e-07
-1.30021e-07
-1.24923e-07
-1.16317e-07
-1.03931e-07
-8.90621e-08
-7.16652e-08
-5.43326e-08
3.90428e-07
3.70827e-07
3.48761e-07
3.23849e-07
2.9613e-07
2.65767e-07
2.33198e-07
1.98927e-07
1.6316e-07
1.26662e-07
9.00825e-08
5.43162e-08
2.01777e-08
-1.19598e-08
-4.11117e-08
-6.73017e-08
-9.02373e-08
-1.09881e-07
-1.2634e-07
-1.39784e-07
-1.49862e-07
-1.57067e-07
-1.60814e-07
-1.61219e-07
-1.57761e-07
-1.50799e-07
-1.3971e-07
-1.25565e-07
-1.08509e-07
-9.11346e-08
3.88494e-07
3.67002e-07
3.42829e-07
3.15701e-07
2.85667e-07
2.52976e-07
2.1802e-07
1.81439e-07
1.43671e-07
1.05343e-07
6.72752e-08
3.02153e-08
-4.85514e-09
-3.75946e-08
-6.72926e-08
-9.37986e-08
-1.17008e-07
-1.37097e-07
-1.5403e-07
-1.68334e-07
-1.79645e-07
-1.88416e-07
-1.94137e-07
-1.9696e-07
-1.95988e-07
-1.91534e-07
-1.82713e-07
-1.70381e-07
-1.54498e-07
-1.37908e-07
3.85752e-07
3.62008e-07
3.35254e-07
3.05377e-07
2.72527e-07