/*--------------------------------*- C++ -*----------------------------------*\
| =========                 |                                                 |
| \\      /  F ield         | OpenFOAM: The Open Source CFD Toolbox           |
|  \\    /   O peration     | Version:  2312                                  |
|   \\  /    A nd           | Website:  www.openfoam.com                      |
|    \\/     M anipulation  |                                                 |
\*---------------------------------------------------------------------------*/
FoamFile
{
    version     2.0;
    format      ascii;
    arch        "LSB;label=32;scalar=64";
    class       surfaceScalarField;
    location    "8000";
    object      phi;
}
// * * * * * * * * * * * * * * * * * * * * * * * * * * * * * * * * * * * * * //

dimensions      [0 3 -1 0 0 0 0];

oriented        oriented;

internalField   nonuniform List<scalar> 
21240
(
0.000664978
1.68841e-06
0.000661088
3.89044e-06
0.000655786
5.30144e-06
0.000649578
6.20821e-06
0.000642743
6.83539e-06
0.000635422
7.32038e-06
0.000627707
7.71498e-06
0.000619679
8.0283e-06
0.000611416
8.26325e-06
0.000602985
8.43128e-06
0.000594435
8.54912e-06
0.000585807
8.62865e-06
0.000577137
8.66993e-06
0.000568464
8.67253e-06
0.000559812
8.65256e-06
0.000551184
8.62764e-06
0.000542596
8.58839e-06
0.000534086
8.50978e-06
0.000525698
8.38834e-06
0.000517452
8.24554e-06
0.000509352
8.0999e-06
0.000501401
7.95143e-06
0.000493615
7.78626e-06
0.000486034
7.58051e-06
0.000478731
7.30261e-06
0.000471808
6.9229e-06
0.000465381
6.42741e-06
0.00045956
5.82147e-06
0.000454432
5.12798e-06
0.000450052
4.3798e-06
0.000446434
3.61756e-06
0.000443553
2.88169e-06
0.000441345
2.20713e-06
0.000439726
1.61945e-06
0.000438597
1.12867e-06
0.00043786
7.37486e-07
0.000437423
4.36678e-07
0.000437213
2.10407e-07
0.000437162
5.11401e-08
0.000437227
-6.50182e-08
0.000437361
-1.34338e-07
0.000437555
-1.94363e-07
0.00043778
-2.24621e-07
0.000438039
-2.59096e-07
0.000438304
-2.64597e-07
0.000438602
-2.9805e-07
0.000438879
-2.77757e-07
0.000439201
-3.21361e-07
0.000439474
-2.73663e-07
0.000439808
-3.33489e-07
0.000440039
-2.31308e-07
0.000440381
-3.42179e-07
0.000440503
-1.21983e-07
0.00044084
-3.36181e-07
0.000440726
1.13849e-07
0.000441057
-3.31453e-07
0.000440426
6.31236e-07
0.000440806
-3.79994e-07
0.000439116
1.6897e-06
-6.1243e-07
0.000439729
0.000667558
7.9701e-07
0.00066913
2.3183e-06
0.000670878
3.55359e-06
0.00067257
4.51604e-06
0.000674127
5.27829e-06
0.000675538
5.90992e-06
0.000676798
6.4544e-06
0.000677898
6.92904e-06
0.000678824
7.33715e-06
0.000679574
7.68096e-06
0.000680154
7.9692e-06
0.000680568
8.21439e-06
0.000680818
8.42028e-06
0.000680911
8.57949e-06
0.000680872
8.69141e-06
0.000680728
8.7715e-06
0.000680483
8.83364e-06
0.000680119
8.87412e-06
0.000679628
8.87872e-06
0.000679039
8.83477e-06
0.000678404
8.73479e-06
0.000677774
8.5814e-06
0.000677168
8.3924e-06
0.000676558
8.19034e-06
0.000675879
7.98141e-06
0.000675059
7.74361e-06
0.000674049
7.43711e-06
0.000672849
7.02184e-06
0.000671499
6.47726e-06
0.000670072
5.80714e-06
0.000668646
5.04372e-06
0.000667293
4.23426e-06
0.000666068
3.43266e-06
0.000665002
2.68565e-06
0.000664106
2.02422e-06
0.000663377
1.46604e-06
0.000662801
1.01296e-06
0.000662359
6.52983e-07
0.000662027
3.82742e-07
0.000661793
1.68778e-07
0.000661638
2.10206e-08
0.00066156
-1.16681e-07
0.000661549
-2.13786e-07
0.000661587
-2.97057e-07
0.000661677
-3.54733e-07
0.000661808
-4.283e-07
0.000661981
-4.51278e-07
0.000662185
-5.25358e-07
0.000662437
-5.256e-07
0.000662689
-5.85757e-07
0.000663022
-5.63623e-07
0.000663308
-6.28134e-07
0.000663734
-5.4801e-07
0.000664012
-6.1419e-07
0.000664595
-4.69138e-07
0.000664774
-5.10959e-07
0.000665682
-2.76977e-07
0.000665561
-2.58509e-07
0.000667216
3.48378e-08
2.89417e-07
0.000666314
0.000666953
5.10545e-07
0.000667827
1.44443e-06
0.000669077
2.30311e-06
0.000670517
3.07609e-06
0.000672038
3.75797e-06
0.000673591
4.35632e-06
0.000675161
4.88454e-06
0.000676737
5.35355e-06
0.000678305
5.76832e-06
0.000679855
6.13172e-06
0.000681374
6.44944e-06
0.000682861
6.72816e-06
0.000684311
6.96952e-06
0.000685722
7.16945e-06
0.000687087
7.32605e-06
0.000688412
7.44639e-06
0.000689704
7.5416e-06
0.000690962
7.61584e-06
0.000692179
7.6622e-06
0.000693345
7.66835e-06
0.000694455
7.62523e-06
0.000695503
7.53361e-06
0.000696489
7.40604e-06
0.000697418
7.26083e-06
0.00069829
7.1099e-06
0.000699085
6.94863e-06
0.000699766
6.7562e-06
0.000700283
6.50423e-06
0.000700591
6.16984e-06
0.000700655
5.74343e-06
0.000700465
5.23345e-06
0.000700037
4.66231e-06
0.000699409
4.06081e-06
0.000698633
3.46133e-06
0.000697768
2.88904e-06
0.000696869
2.36497e-06
0.000695986
1.89579e-06
0.000695152
1.48744e-06
0.000694401
1.13388e-06
0.000693738
8.31323e-07
0.000693189
5.70169e-07
0.000692726
3.46171e-07
0.000692368
1.44361e-07
0.000692096
-2.52764e-08
0.000691922
-1.80721e-07
0.000691806
-3.12237e-07
0.000691801
-4.46256e-07
0.000691832
-5.55755e-07
0.000691982
-6.75972e-07
0.000692155
-7.58513e-07
0.000692468
-8.7731e-07
0.000692765
-9.25143e-07
0.000693263
-1.0455e-06
0.000693695
-1.04649e-06
0.000694408
-1.18204e-06
0.000695004
-1.10631e-06
0.000696004
-1.27783e-06
0.000696835
-1.08899e-06
0.000698205
-1.33494e-06
-9.51081e-07
0.000699445
0.000666855
3.22217e-07
0.000667313
9.86353e-07
0.000667982
1.63391e-06
0.000668814
2.24393e-06
0.000669766
2.80635e-06
0.000670804
3.31802e-06
0.000671908
3.78123e-06
0.000673062
4.19958e-06
0.000674255
4.57496e-06
0.000675478
4.90903e-06
0.000676721
5.20572e-06
0.00067798
5.46935e-06
0.000679249
5.70076e-06
0.000680521
5.89721e-06
0.00068179
6.05682e-06
0.000683054
6.18308e-06
0.000684311
6.28407e-06
0.000685562
6.36562e-06
0.000686799
6.42462e-06
0.000688017
6.45043e-06
0.000689208
6.43402e-06
0.000690365
6.37664e-06
0.00069148
6.2912e-06
0.000692545
6.19604e-06
0.000693549
6.10532e-06
0.000694477
6.02075e-06
0.000695304
5.92921e-06
0.000696001
5.80742e-06
0.00069654
5.63075e-06
0.000696901
5.38222e-06
0.000697078
5.05663e-06
0.000697078
4.66236e-06
0.000696923
4.21567e-06
0.000696645
3.73997e-06
0.000696279
3.25508e-06
0.000695861
2.78245e-06
0.000695425
2.33176e-06
0.000694996
1.91618e-06
0.000694598
1.53269e-06
0.000694239
1.19006e-06
0.000693935
8.74512e-07
0.000693683
5.97723e-07
0.000693491
3.36285e-07
0.000693354
1.1158e-07
0.000693292
-1.19001e-07
0.000693295
-3.14297e-07
0.000693373
-5.24421e-07
0.000693504
-6.87006e-07
0.000693719
-8.90863e-07
0.000693987
-1.02633e-06
0.000694343
-1.23345e-06
0.000694762
-1.34437e-06
0.000695287
-1.57076e-06
0.000695884
-1.64343e-06
0.000696618
-1.91615e-06
0.000697444
-1.93172e-06
0.000698444
-2.27775e-06
0.000699574
-2.21897e-06
0.000700918
-2.67911e-06
-2.5182e-06
0.000702485
0.000666738
2.50623e-07
0.00066697
7.54118e-07
0.000667359
1.24543e-06
0.000667885
1.71752e-06
0.000668528
2.16378e-06
0.000669266
2.58044e-06
0.00067008
2.96656e-06
0.000670958
3.32207e-06
0.000671886
3.64631e-06
0.000672856
3.93934e-06
0.000673858
4.20346e-06
0.000674886
4.44133e-06
0.000675934
4.65286e-06
0.000676996
4.83559e-06
0.000678064
4.98817e-06
0.000679134
5.11312e-06
0.000680202
5.21617e-06
0.000681266
5.3017e-06
0.000682323
5.36765e-06
0.000683367
5.40618e-06
0.000684391
5.41083e-06
0.000685384
5.38367e-06
0.000686339
5.33609e-06
0.000687252
5.28325e-06
0.00068812
5.23646e-06
0.000688944
5.19732e-06
0.000689717
5.15585e-06
0.000690431
5.09364e-06
0.000691072
4.99e-06
0.000691625
4.82914e-06
0.000692078
4.60345e-06
0.000692424
4.31596e-06
0.000692664
3.97599e-06
0.000692804
3.5998e-06
0.000692858
3.20162e-06
0.000692841
2.7989e-06
0.000692773
2.39988e-06
0.000692672
2.01743e-06
0.000692554
1.65034e-06
0.000692436
1.30851e-06
0.000692329
9.81424e-07
0.000692245
6.81289e-07
0.000692194
3.87696e-07
0.000692186
1.19841e-07
0.000692211
-1.44236e-07
0.000692277
-3.80637e-07
0.000692388
-6.34818e-07
0.000692555
-8.54391e-07
0.000692775
-1.11111e-06
0.000693064
-1.31479e-06
0.000693417
-1.58651e-06
0.00069385
-1.77721e-06
0.000694355
-2.07631e-06
0.000694968
-2.25637e-06
0.000695656
-2.60364e-06
0.000696486
-2.76238e-06
0.000697403
-3.19476e-06
0.0006985
-3.31551e-06
0.000699698
-3.87776e-06
-3.94692e-06
0.000701127
0.000666725
1.92599e-07
0.0006669
5.78605e-07
0.000667185
9.60681e-07
0.00066757
1.33214e-06
0.000668045
1.68878e-06
0.000668598
2.02761e-06
0.000669218
2.34697e-06
0.000669894
2.64546e-06
0.000670619
2.92132e-06
0.000671385
3.17369e-06
0.000672185
3.40375e-06
0.000673013
3.61308e-06
0.000673865
3.80113e-06
0.000674735
3.96579e-06
0.000675617
4.10617e-06
0.000676505
4.22437e-06
0.000677397
4.32466e-06
0.000678288
4.40998e-06
0.000679178
4.47856e-06
0.000680059
4.52457e-06
0.000680926
4.54363e-06
0.000681772
4.5383e-06
0.000682589
4.51841e-06
0.000683376
4.49621e-06
0.000684133
4.48017e-06
0.00068486
4.47058e-06
0.000685557
4.45855e-06
0.000686222
4.42871e-06
0.000686848
4.36391e-06
0.000687426
4.25081e-06
0.000687947
4.08232e-06
0.000688404
3.8596e-06
0.000688791
3.58881e-06
0.000689109
3.28164e-06
0.000689362
2.9488e-06
0.000689557
2.6036e-06
0.000689704
2.2531e-06
0.000689814
1.90771e-06
0.000689896
1.56788e-06
0.000689963
1.24188e-06
0.000690021
9.23493e-07
0.00069008
6.22189e-07
0.000690142
3.25427e-07
0.000690213
4.88817e-08
0.000690312
-2.43466e-07
0.000690445
-5.13076e-07
0.000690607
-7.97622e-07
0.000690812
-1.05911e-06
0.000691051
-1.35032e-06
0.000691347
-1.61065e-06
0.000691682
-1.92172e-06
0.00069209
-2.18499e-06
0.000692547
-2.53351e-06
0.000693093
-2.80227e-06
0.000693695
-3.20552e-06
0.000694418
-3.48561e-06
0.000695191
-3.96684e-06
0.000696128
-4.25325e-06
0.000697107
-4.85609e-06
-5.13196e-06
0.000698292
0.000666708
1.51399e-07
0.000666831
4.55007e-07
0.000667035
7.56657e-07
0.000667316
1.05166e-06
0.000667668
1.33707e-06
0.000668085
1.61078e-06
0.00066856
1.87146e-06
0.000669088
2.11775e-06
0.000669661
2.34825e-06
0.000670273
2.56135e-06
0.00067092
2.75708e-06
0.000671596
2.93676e-06
0.000672298
3.09964e-06
0.00067302
3.24379e-06
0.000673757
3.36859e-06
0.000674506
3.47592e-06
0.000675261
3.56908e-06
0.000676021
3.64998e-06
0.000676783
3.71681e-06
0.000677543
3.76501e-06
0.000678294
3.79171e-06
0.000679033
3.79973e-06
0.000679754
3.79749e-06
0.000680455
3.79472e-06
0.000681138
3.79743e-06
0.000681804
3.80465e-06
0.000682455
3.8081e-06
0.000683089
3.79468e-06
0.000683702
3.75033e-06
0.000684289
3.66427e-06
0.00068484
3.53087e-06
0.000685349
3.35081e-06
0.000685809
3.12882e-06
0.000686217
2.87361e-06
0.000686572
2.5935e-06
0.000686877
2.29836e-06
0.000687136
1.99412e-06
0.000687356
1.6883e-06
0.000687541
1.38231e-06
0.000687702
1.08163e-06
0.000687842
7.82784e-07
0.000687973
4.91268e-07
0.0006881
1.98288e-07
0.000688236
-8.66428e-08
0.000688371
-3.78268e-07
0.000688519
-6.61433e-07
0.000688679
-9.57131e-07
0.000688863
-1.24394e-06
0.000689068
-1.55473e-06
0.00068931
-1.85262e-06
0.000689577
-2.18914e-06
0.000689898
-2.5059e-06
0.000690246
-2.88163e-06
0.000690667
-3.22336e-06
0.000691119
-3.65744e-06
0.000691662
-4.02847e-06
0.000692238
-4.54249e-06
0.000692936
-4.95116e-06
0.000693648
-5.56861e-06
-6.01581e-06
0.000694532
0.000666698
1.20158e-07
0.000666792
3.6068e-07
0.000666949
5.9995e-07
0.000667166
8.34676e-07
0.00066744
1.06283e-06
0.000667768
1.28294e-06
0.000668145
1.49401e-06
0.000668568
1.69477e-06
0.000669033
1.88362e-06
0.000669535
2.05956e-06
0.000670069
2.22288e-06
0.000670632
2.37404e-06
0.000671219
2.51215e-06
0.000671828
2.63553e-06
0.000672452
2.74374e-06
0.00067309
2.83841e-06
0.000673737
2.92212e-06
0.000674391
2.99603e-06
0.000675049
3.05832e-06
0.000675709
3.10533e-06
0.000676366
3.13514e-06
0.000677015
3.15057e-06
0.000677654
3.15865e-06
0.000678281
3.16701e-06
0.000678899
3.17978e-06
0.000679508
3.19524e-06
0.000680111
3.20585e-06
0.000680705
3.20048e-06
0.000681287
3.16769e-06
0.000681853
3.09888e-06
0.000682394
2.98976e-06
0.000682904
2.84088e-06
0.000683377
2.65609e-06
0.000683808
2.44199e-06
0.000684197
2.20516e-06
0.000684542
1.95277e-06
0.000684846
1.68979e-06
0.000685114
1.42124e-06
0.000685347
1.14911e-06
0.000685552
8.76493e-07
0.000685732
6.02584e-07
0.000685893
3.30288e-07
0.000686034
5.71394e-08
0.00068617
-2.22227e-07
0.000686297
-5.05407e-07
0.000686425
-7.89408e-07
0.000686552
-1.08405e-06
0.000686689
-1.38107e-06
0.00068683
-1.69558e-06
0.000686991
-2.01334e-06
0.000687159
-2.35777e-06
0.000687358
-2.70483e-06
0.000687568
-3.09124e-06
0.000687822
-3.47767e-06
0.000688084
-3.91959e-06
0.000688412
-4.3562e-06
0.000688742
-4.87288e-06
0.000689158
-5.36717e-06
0.000689571
-5.98149e-06
-6.54567e-06
0.000690101
0.000666692
9.49935e-08
0.000666768
2.84971e-07
0.000666893
4.74079e-07
0.000667068
6.59912e-07
0.00066729
8.41026e-07
0.000667557
1.0164e-06
0.000667865
1.18529e-06
0.000668213
1.34665e-06
0.000668598
1.49915e-06
0.000669015
1.6421e-06
0.000669462
1.77579e-06
0.000669936
1.90043e-06
0.000670433
2.01508e-06
0.00067095
2.11829e-06
0.000671484
2.20975e-06
0.000672032
2.29086e-06
0.00067259
2.36359e-06
0.000673158
2.42857e-06
0.000673732
2.48405e-06
0.00067431
2.52705e-06
0.000674889
2.55631e-06
0.000675465
2.57445e-06
0.000676037
2.58728e-06
0.000676603
2.60072e-06
0.000677165
2.61756e-06
0.000677725
2.63569e-06
0.000678282
2.64843e-06
0.000678836
2.64646e-06
0.000679383
2.62056e-06
0.000679918
2.56392e-06
0.000680435
2.47337e-06
0.000680926
2.34941e-06
0.000681387
2.1953e-06
0.000681813
2.01598e-06
0.000682201
1.81684e-06
0.000682551
1.6029e-06
0.000682862
1.37846e-06
0.000683137
1.14654e-06
0.000683377
9.09561e-07
0.000683585
6.68592e-07
0.000683763
4.24484e-07
0.000683916
1.77381e-07
0.000684049
-7.60031e-08
0.000684161
-3.3491e-07
0.000684255
-5.99333e-07
0.000684337
-8.71054e-07
0.000684404
-1.15136e-06
0.000684466
-1.44247e-06
0.000684516
-1.74591e-06
0.000684567
-2.06445e-06
0.000684609
-2.39944e-06
0.000684659
-2.75501e-06
0.0006847
-3.13194e-06
0.000684758
-3.53569e-06
0.000684805
-3.96646e-06
0.000684881
-4.43237e-06
0.000684938
-4.93007e-06
0.000685045
-5.47435e-06
0.000685118
-6.05456e-06
-6.6916e-06
0.000685264
0.000666688
7.40806e-08
0.00066675
2.22146e-07
0.000666855
3.69587e-07
0.000667
5.14624e-07
0.000667185
6.56216e-07
0.000667408
7.93655e-07
0.000667667
9.26412e-07
0.00066796
1.05367e-06
0.000668284
1.17439e-06
0.000668638
1.28808e-06
0.000669019
1.39497e-06
0.000669424
1.49517e-06
0.000669852
1.5878e-06
0.000670298
1.67166e-06
0.000670762
1.74654e-06
0.000671239
1.8136e-06
0.000671728
1.87435e-06
0.000672228
1.92908e-06
0.000672735
1.97622e-06
0.000673249
2.01337e-06
0.000673766
2.03973e-06
0.000674283
2.05759e-06
0.000674798
2.07161e-06
0.000675313
2.08631e-06
0.000675827
2.10351e-06
0.000676341
2.12102e-06
0.000676857
2.13314e-06
0.000677371
2.13224e-06
0.00067788
2.11103e-06
0.00067838
2.06423e-06
0.000678864
1.98956e-06
0.000679326
1.88749e-06
0.00067976
1.76072e-06
0.000680163
1.61292e-06
0.000680532
1.44842e-06
0.000680864
1.27062e-06
0.000681159
1.08321e-06
0.000681418
8.87685e-07
0.000681641
6.8665e-07
0.00068183
4.79776e-07
0.000681985
2.69035e-07
0.00068211
5.32648e-08
0.000682205
-1.71269e-07
0.000682272
-4.02563e-07
0.000682312
-6.39127e-07
0.000682328
-8.86951e-07
0.000682318
-1.14133e-06
0.000682287
-1.41171e-06
0.000682231
-1.69003e-06
0.000682158
-1.99086e-06
0.000682059
-2.30025e-06
0.000681945
-2.64136e-06
0.000681803
-2.99035e-06
0.000681652
-3.384e-06
0.000681467
-3.78199e-06
0.000681279
-4.24364e-06
0.00068105
-4.70131e-06
0.000680825
-5.24959e-06
0.000680547
-5.7766e-06
-6.43521e-06
0.000680291
0.000666685
5.61941e-08
0.000666738
1.68464e-07
0.000666828
2.80287e-07
0.000666952
3.90363e-07
0.00066711
4.97947e-07
0.000667301
6.02554e-07
0.000667524
7.03814e-07
0.000667776
8.01103e-07
0.000668057
8.93649e-07
0.000668364
9.8109e-07
0.000668695
1.06362e-06
0.000669049
1.14126e-06
0.000669424
1.2133e-06
0.000669817
1.27879e-06
0.000670226
1.33759e-06
0.000670649
1.39064e-06
0.000671084
1.43906e-06
0.00067153
1.48297e-06
0.000671985
1.521e-06
0.000672447
1.55132e-06
0.000672914
1.57339e-06
0.000673382
1.5891e-06
0.000673852
1.60207e-06
0.000674322
1.61563e-06
0.000674795
1.63089e-06
0.00067527
1.64587e-06
0.000675747
1.65592e-06
0.000676224
1.65508e-06
0.000676698
1.63777e-06
0.000677162
1.6e-06
0.000677611
1.54019e-06
0.00067804
1.45869e-06
0.000678443
1.35771e-06
0.000678816
1.23985e-06
0.000679156
1.10853e-06
0.000679461
9.65952e-07
0.000679729
8.15183e-07
0.00067996
6.56742e-07
0.000680153
4.93171e-07
0.00068031
3.23307e-07
0.000680429
1.49637e-07
0.000680514
-3.1882e-08
0.000680562
-2.19318e-07
0.000680575
-4.15285e-07
0.000680552
-6.15751e-07
0.000680494
-8.28886e-07
0.000680399
-1.04676e-06
0.00068027
-1.28252e-06
0.000680103
-1.52286e-06
0.0006799
-1.78848e-06
0.000679657
-2.05709e-06
0.000679378
-2.3619e-06
0.000679053
-2.66564e-06
0.000678691
-3.02158e-06
0.000678276
-3.36775e-06
0.000677823
-3.79058e-06
0.000677309
-4.1867e-06
0.000676755
-4.69625e-06
0.000676127
-5.1486e-06
-5.76975e-06
0.000675462
0.000666682
4.04578e-08
0.00066673
1.21267e-07
0.000666808
2.01767e-07
0.000666917
2.81046e-07
0.000667057
3.58591e-07
0.000667225
4.34081e-07
0.000667422
5.07257e-07
0.000667645
5.77672e-07
0.000667894
6.44778e-07
0.000668167
7.08334e-07
0.000668462
7.68478e-07
0.000668778
8.25208e-07
0.000669113
8.77972e-07
0.000669466
9.26082e-07
0.000669834
9.69472e-07
0.000670216
1.00883e-06
0.00067061
1.04494e-06
0.000671015
1.07779e-06
0.00067143
1.10635e-06
0.000671852
1.12927e-06
0.000672279
1.14625e-06
0.00067271
1.1587e-06
0.000673142
1.16925e-06
0.000673578
1.1802e-06
0.000674016
1.1922e-06
0.000674459
1.20364e-06
0.000674904
1.21104e-06
0.000675349
1.21001e-06
0.00067579
1.19655e-06
0.000676222
1.16778e-06
0.00067664
1.12265e-06
0.000677037
1.06141e-06
0.000677409
9.85703e-07
0.000677751
8.97293e-07
0.000678061
7.98731e-07
0.000678336
6.91351e-07
0.000678574
5.77537e-07
0.000678773
4.5725e-07
0.000678933
3.32712e-07
0.000679054
2.02471e-07
0.000679135
6.90884e-08
0.000679176
-7.25699e-08
0.000679174
-2.17998e-07
0.000679131
-3.71745e-07
0.000679044
-5.2898e-07
0.000678913
-6.98008e-07
0.000678737
-8.70233e-07
0.000678513
-1.05908e-06
0.00067824
-1.25021e-06
0.000677917
-1.46496e-06
0.000677539
-1.67943e-06
0.000677105
-1.92806e-06
0.000676611
-2.17109e-06
0.000676053
-2.46403e-06
0.000675426
-2.74096e-06
0.000674728
-3.09225e-06
0.00067395
-3.4083e-06
0.00067309
-3.8362e-06
0.000672136
-4.19466e-06
-4.72302e-06
0.000671089
0.000666681
2.61999e-08
0.000666724
7.85222e-08
0.000666795
1.30649e-07
0.000666894
1.81999e-07
0.00066702
2.32254e-07
0.000667173
2.81215e-07
0.000667352
3.28714e-07
0.000667555
3.74463e-07
0.000667781
4.18119e-07
0.00066803
4.59537e-07
0.0006683
4.98798e-07
0.000668589
5.35882e-07
0.000668897
5.70424e-07
0.000669221
6.01996e-07
0.00066956
6.30571e-07
0.000669912
6.56582e-07
0.000670276
6.80494e-07
0.000670652
7.02267e-07
0.000671037
7.21217e-07
0.00067143
7.36518e-07
0.000671828
7.48004e-07
0.00067223
7.56604e-07
0.000672636
7.63966e-07
0.000673044
7.71502e-07
0.000673457
7.79549e-07
0.000673874
7.87e-07
0.000674293
7.91592e-07
0.000674712
7.90486e-07
0.000675128
7.81126e-07
0.000675534
7.61673e-07
0.000675925
7.31467e-07
0.000676296
6.90628e-07
0.000676641
6.4024e-07
0.000676957
5.81349e-07
0.00067724
5.15638e-07
0.000677488
4.43832e-07
0.000677698
3.67573e-07
0.000677869
2.86631e-07
0.000677999
2.02655e-07
0.000678087
1.14388e-07
0.000678132
2.39246e-08
0.000678133
-7.33363e-08
0.000678087
-1.72753e-07
0.000677994
-2.78621e-07
0.000677852
-3.86855e-07
0.000677658
-5.04109e-07
0.000677411
-6.23301e-07
0.000677107
-7.55206e-07
0.000676745
-8.88026e-07
0.000676319
-1.03898e-06
0.000675828
-1.18846e-06
0.000675265
-1.3643e-06
0.000674627
-1.53394e-06
0.000673906
-1.74242e-06
0.000673101
-1.93575e-06
0.000672196
-2.18743e-06
0.000671195
-2.40769e-06
0.000670076
-2.71659e-06
0.000668846
-2.96533e-06
-3.35003e-06
0.000667473
0.00066668
1.28706e-08
0.00066672
3.85724e-08
0.000666786
6.41767e-08
0.000666879
8.94028e-08
0.000666997
1.14103e-07
0.00066714
1.38177e-07
0.000667307
1.61534e-07
0.000667498
1.84038e-07
0.00066771
2.05538e-07
0.000667944
2.25966e-07
0.000668197
2.4534e-07
0.00066847
2.6363e-07
0.000668759
2.80672e-07
0.000669065
2.96292e-07
0.000669385
3.10486e-07
0.000669718
3.23428e-07
0.000670064
3.3529e-07
0.00067042
3.46038e-07
0.000670786
3.55388e-07
0.000671159
3.63006e-07
0.000671538
3.68843e-07
0.000671922
3.73309e-07
0.000672308
3.77103e-07
0.000672699
3.80816e-07
0.000673094
3.8457e-07
0.000673493
3.87854e-07
0.000673895
3.89652e-07
0.000674297
3.88671e-07
0.000674694
3.83735e-07
0.000675082
3.73961e-07
0.000675455
3.59005e-07
0.000675806
3.38859e-07
0.000676133
3.13999e-07
0.000676429
2.84861e-07
0.000676692
2.52254e-07
0.00067692
2.16473e-07
0.000677109
1.78358e-07
0.000677258
1.37738e-07
0.000677365
9.5501e-08
0.000677429
5.09349e-08
0.000677447
5.2793e-09
0.000677418
-4.42709e-08
0.00067734
-9.47551e-08
0.00067721
-1.48742e-07
0.000677027
-2.03926e-07
0.000676787
-2.63981e-07
0.000676489
-3.24941e-07
0.000676126
-3.92769e-07
0.000675699
-4.60862e-07
0.000675199
-5.38771e-07
0.000674626
-6.15536e-07
0.000673968
-7.06615e-07
0.000673228
-7.93814e-07
0.000672388
-9.0219e-07
0.000671454
-1.00158e-06
0.000670399
-1.13294e-06
0.000669238
-1.24606e-06
0.000667929
-1.40801e-06
0.000666499
-1.53543e-06
-1.73818e-06
0.000664887
0.00066668
-1.00183e-11
0.000666718
-2.79315e-11
0.000666782
-5.18689e-11
0.000666872
-7.71175e-11
0.000666986
-9.21068e-11
0.000667124
-1.07078e-10
0.000667286
-1.42819e-10
0.00066747
-1.88699e-10
0.000667676
-2.09494e-10
0.000667902
-2.04281e-10
0.000668148
-2.22951e-10
0.000668412
-2.9967e-10
0.000668693
-3.92147e-10
0.000668989
-4.21899e-10
0.0006693
-3.76567e-10
0.000669624
-3.46649e-10
0.00066996
-4.40495e-10
0.000670306
-6.62736e-10
0.000670663
-8.86179e-10
0.000671027
-9.52567e-10
0.000671396
-8.1422e-10
0.00067177
-5.95887e-10
0.000672148
-5.28669e-10
0.00067253
-8.08838e-10
0.000672916
-1.48103e-09
0.000673306
-2.41161e-09
0.000673699
-3.35514e-09
0.000674092
-4.06174e-09
0.00067448
-4.36801e-09
0.000674858
-4.23454e-09
0.000675221
-3.73156e-09
0.000675562
-2.99493e-09
0.000675879
-2.17052e-09
0.000676165
-1.38204e-09
0.000676418
-7.05795e-10
0.000676635
-1.77136e-10
0.000676813
2.01826e-10
0.00067695
4.53046e-10
0.000677045
6.02339e-10
0.000677095
6.78001e-10
0.0006771
7.03376e-10
0.000677055
6.97791e-10
0.000676959
6.7393e-10
0.00067681
6.39275e-10
0.000676605
5.99827e-10
0.000676341
5.60327e-10
0.000676015
5.19991e-10
0.000675622
4.79927e-10
0.000675161
4.44912e-10
0.000674622
4.0993e-10
0.000674006
3.77878e-10
0.000673299
3.49522e-10
0.000672505
3.24717e-10
0.000671602
3.00591e-10
0.0006706
2.80276e-10
0.000669467
2.62986e-10
0.000668221
2.46436e-10
0.000666813
2.2586e-10
0.000665277
2.05216e-10
1.78147e-10
0.000663539
0.00066668
-1.28905e-08
0.000666718
-3.86279e-08
0.000666782
-6.42798e-08
0.000666872
-8.95562e-08
0.000666986
-1.14286e-07
0.000667124
-1.3839e-07
0.000667286
-1.61818e-07
0.00066747
-1.84414e-07
0.000667676
-2.05955e-07
0.000667902
-2.26373e-07
0.000668148
-2.45784e-07
0.000668412
-2.64225e-07
0.000668693
-2.8145e-07
0.000668989
-2.9713e-07
0.0006693
-3.11235e-07
0.000669624
-3.24118e-07
0.00066996
-3.36167e-07
0.000670306
-3.47357e-07
0.000670663
-3.57151e-07
0.000671027
-3.64901e-07
0.000671396
-3.70464e-07
0.00067177
-3.74495e-07
0.000672148
-3.78154e-07
0.000672529
-3.82423e-07
0.000672915
-3.87511e-07
0.000673306
-3.92646e-07
0.000673699
-3.96321e-07
0.000674091
-3.96746e-07
0.000674479
-3.92421e-07
0.000674858
-3.82382e-07
0.00067522
-3.66427e-07
0.000675562
-3.44817e-07
0.000675878
-3.18319e-07
0.000676164
-2.87614e-07
0.000676417
-2.53661e-07
0.000676634
-2.16831e-07
0.000676812
-1.77961e-07
0.00067695
-1.36844e-07
0.000677044
-9.4314e-08
0.000677095
-4.96037e-08
0.000677099
-3.90595e-09
0.000677054
4.56593e-08
0.000676959
9.60937e-08
0.00067681
1.50009e-07
0.000676605
2.05112e-07
0.000676341
2.65086e-07
0.000676015
3.25966e-07
0.000675622
3.93712e-07
0.000675161
4.61734e-07
0.000674621
5.3957e-07
0.000674006
6.1627e-07
0.000673299
7.0729e-07
0.000672504
7.94437e-07
0.000671602
9.02762e-07
0.0006706
1.00211e-06
0.000669467
1.13343e-06
0.000668221
1.24652e-06
0.000666813
1.40843e-06
0.000665277
1.53582e-06
1.73851e-06
0.000663539
0.00066668
-2.62195e-08
0.00066672
-7.85769e-08
0.000666786
-1.3075e-07
0.000666879
-1.8215e-07
0.000666997
-2.32435e-07
0.00066714
-2.81425e-07
0.000667307
-3.28993e-07
0.000667498
-3.74832e-07
0.00066771
-4.18529e-07
0.000667944
-4.59937e-07
0.000668197
-4.99235e-07
0.00066847
-5.36467e-07
0.000668759
-5.71191e-07
0.000669065
-6.02822e-07
0.000669385
-6.31309e-07
0.000669718
-6.57262e-07
0.000670063
-6.81355e-07
0.00067042
-7.03561e-07
0.000670785
-7.22948e-07
0.000671159
-7.38378e-07
0.000671538
-7.49595e-07
0.000671921
-7.5777e-07
0.000672308
-7.64998e-07
0.000672699
-7.73077e-07
0.000673094
-7.82432e-07
0.000673493
-7.91698e-07
0.000673895
-7.98135e-07
0.000674296
-7.98415e-07
0.000674694
-7.89661e-07
0.000675081
-7.69955e-07
0.000675453
-7.38773e-07
0.000675805
-6.965e-07
0.000676131
-6.44503e-07
0.000676428
-5.84073e-07
0.000676691
-5.1704e-07
0.000676919
-4.44203e-07
0.000677108
-3.672e-07
0.000677257
-2.85771e-07
0.000677364
-2.01506e-07
0.000677427
-1.13094e-07
0.000677446
-2.25918e-08
0.000677417
7.46842e-08
0.000677339
1.7405e-07
0.000677209
2.79842e-07
0.000677026
3.87995e-07
0.000676786
5.05164e-07
0.000676488
6.24275e-07
0.000676126
7.56091e-07
0.000675698
8.88842e-07
0.000675198
1.03971e-06
0.000674625
1.18913e-06
0.000673968
1.3649e-06
0.000673228
1.53449e-06
0.000672388
1.7429e-06
0.000671454
1.93619e-06
0.000670399
2.18782e-06
0.000669238
2.40805e-06
0.000667929
2.71689e-06
0.000666499
2.96559e-06
3.35023e-06
0.000664888
0.000666681
-4.0477e-08
0.000666724
-1.2132e-07
0.000666795
-2.01866e-07
0.000666894
-2.81193e-07
0.00066702
-3.58767e-07
0.000667173
-4.34285e-07
0.000667352
-5.0753e-07
0.000667555
-5.78032e-07
0.000667781
-6.45178e-07
0.00066803
-7.08723e-07
0.0006683
-7.68902e-07
0.000668589
-8.25777e-07
0.000668897
-8.78716e-07
0.000669221
-9.26885e-07
0.00066956
-9.7019e-07
0.000669912
-1.00949e-06
0.000670276
-1.04578e-06
0.000670652
-1.07905e-06
0.000671037
-1.10803e-06
0.00067143
-1.13108e-06
0.000671828
-1.1478e-06
0.00067223
-1.15984e-06
0.000672635
-1.17025e-06
0.000673044
-1.18172e-06
0.000673456
-1.19498e-06
0.000673873
-1.20818e-06
0.000674292
-1.21738e-06
0.000674711
-1.2177e-06
0.000675126
-1.20483e-06
0.000675532
-1.17583e-06
0.000675923
-1.12977e-06
0.000676294
-1.06714e-06
0.000676639
-9.89874e-07
0.000676955
-8.99973e-07
0.000677238
-8.00125e-07
0.000677486
-6.91742e-07
0.000677696
-5.77201e-07
0.000677867
-4.56439e-07
0.000677997
-3.31615e-07
0.000678085
-2.01245e-07
0.00067813
-6.78403e-08
0.000678131
7.38486e-08
0.000678086
2.19222e-07
0.000677993
3.72892e-07
0.000677851
5.30049e-07
0.000677657
6.98985e-07
0.00067741
8.71131e-07
0.000677106
1.05988e-06
0.000676744
1.25094e-06
0.000676318
1.46559e-06
0.000675827
1.68e-06
0.000675264
1.92855e-06
0.000674627
2.17152e-06
0.000673905
2.46437e-06
0.0006731
2.74126e-06
0.000672195
3.09247e-06
0.000671195
3.40849e-06
0.000670076
3.8363e-06
0.000668846
4.19473e-06
4.72299e-06
0.000667474
0.000666682
-5.62126e-08
0.00066673
-1.68516e-07
0.000666808
-2.80383e-07
0.000666917
-3.90505e-07
0.000667057
-4.98117e-07
0.000667225
-6.02752e-07
0.000667422
-7.04077e-07
0.000667645
-8.0145e-07
0.000667894
-8.94034e-07
0.000668167
-9.81466e-07
0.000668462
-1.06403e-06
0.000668778
-1.14181e-06
0.000669113
-1.21402e-06
0.000669466
-1.27956e-06
0.000669834
-1.33828e-06
0.000670216
-1.39127e-06
0.00067061
-1.43986e-06
0.000671015
-1.48417e-06
0.00067143
-1.52261e-06
0.000671852
-1.55305e-06
0.000672279
-1.57488e-06
0.000672709
-1.59019e-06
0.000673142
-1.60302e-06
0.000673577
-1.61707e-06
0.000674016
-1.63353e-06
0.000674458
-1.65019e-06
0.000674902
-1.66197e-06
0.000675347
-1.66243e-06
0.000675788
-1.6457e-06
0.00067622
-1.60772e-06
0.000676637
-1.54703e-06
0.000677034
-1.46422e-06
0.000677406
-1.36175e-06
0.000677748
-1.24246e-06
0.000678058
-1.1099e-06
0.000678333
-9.66368e-07
0.000678571
-8.14901e-07
0.00067877
-6.5601e-07
0.000678931
-4.92163e-07
0.000679052
-3.22168e-07
0.000679132
-1.48431e-07
0.000679173
3.30692e-08
0.000679172
2.2045e-07
0.000679128
4.16335e-07
0.000679042
6.16723e-07
0.000678911
8.29758e-07
0.000678734
1.04756e-06
0.000678511
1.28321e-06
0.000678239
1.52348e-06
0.000677915
1.78899e-06
0.000677538
2.05753e-06
0.000677104
2.36224e-06
0.00067661
2.66592e-06
0.000676052
3.02175e-06
0.000675426
3.36786e-06
0.000674727
3.79058e-06
0.000673949
4.18666e-06
0.00067309
4.69609e-06
0.000672136
5.14839e-06
5.76941e-06
0.000671089
0.000666685
-7.40983e-08
0.000666738
-2.22195e-07
0.000666828
-3.69678e-07
0.000666952
-5.1476e-07
0.00066711
-6.56378e-07
0.000667301
-7.93844e-07
0.000667524
-9.26663e-07
0.000667776
-1.054e-06
0.000668057
-1.17476e-06
0.000668364
-1.28844e-06
0.000668695
-1.39536e-06
0.000669049
-1.49569e-06
0.000669424
-1.58848e-06
0.000669816
-1.67239e-06
0.000670225
-1.74719e-06
0.000670648
-1.81421e-06
0.000671084
-1.87511e-06
0.00067153
-1.93022e-06
0.000671985
-1.97773e-06
0.000672447
-2.01502e-06
0.000672913
-2.04114e-06
0.000673381
-2.05862e-06
0.000673851
-2.07251e-06
0.000674321
-2.08766e-06
0.000674794
-2.10598e-06
0.000675269
-2.12507e-06
0.000675746
-2.13882e-06
0.000676222
-2.13916e-06
0.000676695
-2.11853e-06
0.000677159
-2.07155e-06
0.000677608
-1.99606e-06
0.000678037
-1.89276e-06
0.000678439
-1.76459e-06
0.000678812
-1.61544e-06
0.000679152
-1.44977e-06
0.000679457
-1.27107e-06
0.000679725
-1.08298e-06
0.000679956
-8.87029e-07
0.00068015
-6.85727e-07
0.000680306
-4.78728e-07
0.000680426
-2.67932e-07
0.000680511
-5.22077e-08
0.000680559
1.72299e-07
0.000680572
4.03507e-07
0.000680549
6.39995e-07
0.000680491
8.87712e-07
0.000680396
1.14201e-06
0.000680267
1.41227e-06
0.0006801
1.69053e-06
0.000679898
1.99123e-06
0.000679655
2.30055e-06
0.000679376
2.64153e-06
0.000679051
2.99045e-06
0.000678689
3.38397e-06
0.000678275
3.78189e-06
0.000677822
4.2434e-06
0.000677308
4.701e-06
0.000676755
5.24912e-06
0.000676127
5.77605e-06
6.43448e-06
0.000675462
0.000666688
-9.50102e-08
0.00066675
-2.85018e-07