/*--------------------------------*- C++ -*----------------------------------*\
| =========                 |                                                 |
| \\      /  F ield         | OpenFOAM: The Open Source CFD Toolbox           |
|  \\    /   O peration     | Version:  2312                                  |
|   \\  /    A nd           | Website:  www.openfoam.com                      |
|    \\/     M anipulation  |                                                 |
\*---------------------------------------------------------------------------*/
FoamFile
{
    version     2.0;
    format      ascii;
    arch        "LSB;label=32;scalar=64";
    class       surfaceScalarField;
    location    "169000";
    object      phi;
}
// * * * * * * * * * * * * * * * * * * * * * * * * * * * * * * * * * * * * * //

dimensions      [0 3 -1 0 0 0 0];

oriented        oriented;

internalField   nonuniform List<scalar> 
21240
(
0.000664972
1.69496e-06
0.000661061
3.91049e-06
0.000655727
5.33439e-06
0.000649471
6.25553e-06
0.000642571
6.90003e-06
0.000635169
7.40258e-06
0.000627355
7.81357e-06
0.000619209
8.14604e-06
0.000610803
8.40595e-06
0.000602201
8.60223e-06
0.000593454
8.74715e-06
0.000584601
8.85298e-06
0.000575671
8.92927e-06
0.000566689
8.9823e-06
0.000557673
9.01582e-06
0.000548641
9.03225e-06
0.000539608
9.03337e-06
0.000530587
9.02071e-06
0.000521592
8.99553e-06
0.000512633
8.9589e-06
0.000503721
8.91159e-06
0.000494867
8.8542e-06
0.00048608
8.78711e-06
0.000477369
8.71063e-06
0.000468744
8.62498e-06
0.000460214
8.53033e-06
0.000451787
8.42682e-06
0.000443472
8.31452e-06
0.000435279
8.19359e-06
0.000427215
8.06395e-06
0.000419289
7.92591e-06
0.00041151
7.77919e-06
0.000403885
7.62435e-06
0.000396425
7.46077e-06
0.000389135
7.28957e-06
0.000382026
7.1094e-06
0.000375103
6.92243e-06
0.000368377
6.72591e-06
0.000361853
6.524e-06
0.000355542
6.31131e-06
0.000349446
6.09562e-06
0.00034358
5.86663e-06
0.000337941
5.63879e-06
0.000332548
5.39268e-06
0.000327393
5.15504e-06
0.000322504
4.88955e-06
0.000317858
4.64562e-06
0.000313503
4.3555e-06
0.000309392
4.11083e-06
0.000305607
3.78443e-06
0.000302058
3.54895e-06
0.000298899
3.15943e-06
0.000295944
2.95504e-06
0.00029351
2.43375e-06
0.000291201
2.30928e-06
0.000289751
1.45011e-06
0.000288067
1.68346e-06
0.000288041
2.67466e-08
0.000286663
1.37724e-06
-3.02952e-06
0.000289693
0.000667554
8.07526e-07
0.000669112
2.35237e-06
0.000670834
3.6124e-06
0.000672489
4.6012e-06
0.000673995
5.3931e-06
0.000675341
6.05683e-06
0.000676521
6.63402e-06
0.000677524
7.14302e-06
0.000678339
7.59081e-06
0.000678959
7.98177e-06
0.000679385
8.32142e-06
0.000679621
8.61663e-06
0.000679676
8.87434e-06
0.000679558
9.10032e-06
0.000679275
9.29885e-06
0.000678835
9.47275e-06
0.000678244
9.62413e-06
0.00067751
9.75447e-06
0.000676641
9.8652e-06
0.000675642
9.9573e-06
0.000674522
1.00319e-05
0.000673287
1.00894e-05
0.000671943
1.01308e-05
0.000670498
1.0156e-05
0.000668957
1.01658e-05
0.000667327
1.01598e-05
0.000665615
1.01389e-05
0.000663827
1.01024e-05
0.00066197
1.00513e-05
0.000660049
9.98432e-06
0.000658072
9.90341e-06
0.000656045
9.80595e-06
0.000653974
9.69538e-06
0.000651868
9.56727e-06
0.00064973
9.42735e-06
0.000647571
9.26826e-06
0.000645394
9.09953e-06
0.000643211
8.90894e-06
0.000641022
8.71233e-06
0.000638844
8.48938e-06
0.000636674
8.26641e-06
0.000634531
8.00959e-06
0.000632407
7.7627e-06
0.00063033
7.46938e-06
0.000628283
7.20249e-06
0.000626304
6.86801e-06
0.000624362
6.5874e-06
0.000622514
6.20372e-06
0.000620705
5.91963e-06
0.000619017
5.4732e-06
0.000617363
5.20244e-06
0.000615851
4.67117e-06
0.000614365
4.44146e-06
0.000613007
3.79134e-06
0.000611669
3.64719e-06
0.000610286
2.83324e-06
0.000609131
2.83895e-06
0.000607321
1.83622e-06
0.00060664
2.05869e-06
9.29224e-07
0.000602681
0.000666949
5.25509e-07
0.00066781
1.49145e-06
0.000669038
2.38351e-06
0.000670448
3.19177e-06
0.000671929
3.91199e-06
0.000673434
4.5517e-06
0.000674945
5.12309e-06
0.000676451
5.63718e-06
0.00067794
6.10172e-06
0.0006794
6.52152e-06
0.000680822
6.90003e-06
0.000682198
7.24044e-06
0.000683526
7.54618e-06
0.000684806
7.82064e-06
0.000686037
8.06705e-06
0.000687222
8.28793e-06
0.000688361
8.48545e-06
0.000689454
8.66111e-06
0.000690503
8.81633e-06
0.000691509
8.95196e-06
0.000692471
9.06914e-06
0.000693392
9.16826e-06
0.000694273
9.25029e-06
0.000695114
9.31518e-06
0.000695916
9.36387e-06
0.00069668
9.39581e-06
0.000697407
9.4121e-06
0.000698097
9.41165e-06
0.000698753
9.39596e-06
0.000699374
9.36322e-06
0.000699961
9.31564e-06
0.000700517
9.25037e-06
0.000701042
9.17076e-06
0.000701536
9.07251e-06
0.000702003
8.9607e-06
0.000702442
8.82884e-06
0.000702857
8.68466e-06
0.000703248
8.51845e-06
0.000703618
8.34187e-06
0.000703967
8.14043e-06
0.000704302
7.93164e-06
0.000704618
7.69396e-06
0.000704927
7.45343e-06
0.000705218
7.17838e-06
0.000705513
6.90705e-06
0.000705788
6.59338e-06
0.000706083
6.2928e-06
0.000706347
5.93935e-06
0.000706655
5.61187e-06
0.00070691
5.21803e-06
0.000707245
4.86694e-06
0.000707483
4.43376e-06
0.000707861
4.06329e-06
0.000708056
3.59606e-06
0.000708492
3.21123e-06
0.000708599
2.72633e-06
0.000709105
2.33301e-06
0.000709067
1.87462e-06
0.000709654
1.47165e-06
1.13411e-06
0.000709449
0.000666852
3.40182e-07
0.000667301
1.04224e-06
0.000667955
1.72982e-06
0.000668765
2.38202e-06
0.000669687
2.98949e-06
0.00067069
3.54922e-06
0.00067175
4.06266e-06
0.000672854
4.53335e-06
0.000673991
4.96511e-06
0.000675151
5.36106e-06
0.000676327
5.72363e-06
0.000677513
6.05475e-06
0.000678703
6.35631e-06
0.000679893
6.6302e-06
0.000681082
6.87835e-06
0.000682267
7.10252e-06
0.000683449
7.30432e-06
0.000684625
7.48501e-06
0.000685795
7.64575e-06
0.00068696
7.78735e-06
0.000688118
7.91066e-06
0.00068927
8.01618e-06
0.000690416
8.10457e-06
0.000691555
8.1761e-06
0.000692688
8.23125e-06
0.000693814
8.27011e-06
0.000694933
8.29302e-06
0.000696044
8.29991e-06
0.000697149
8.29103e-06
0.000698246
8.26621e-06
0.000699336
8.22559e-06
0.000700418
8.16899e-06
0.000701492
8.09639e-06
0.000702557
8.00774e-06
0.000703615
7.90266e-06
0.000704662
7.78154e-06
0.000705704
7.64332e-06
0.000706733
7.48926e-06
0.000707758
7.31705e-06
0.000708768
7.12963e-06
0.000709778
6.92238e-06
0.00071077
6.70136e-06
0.000711766
6.45779e-06
0.000712741
6.20328e-06
0.000713726
5.92173e-06
0.000714685
5.63451e-06
0.000715665
5.31284e-06
0.00071661
4.99482e-06
0.000717591
4.63018e-06
0.000718524
4.28541e-06
0.000719517
3.87407e-06
0.00072044
3.51047e-06
0.000721456
3.04763e-06
0.000722372
2.67971e-06
0.000723425
2.15889e-06
0.000724339
1.8114e-06
0.00072545
1.22245e-06
0.000726391
9.33891e-07
0.000727603
2.58951e-07
8.5424e-08
0.000728652
0.000666737
2.6966e-07
0.000666964
8.15902e-07
0.000667341
1.35255e-06
0.000667851
1.872e-06
0.000668472
2.36828e-06
0.000669184
2.83765e-06
0.000669968
3.27855e-06
0.00067081
3.69093e-06
0.0006717
4.07553e-06
0.000672627
4.43338e-06
0.000673586
4.76544e-06
0.000674568
5.07258e-06
0.000675568
5.35562e-06
0.000676583
5.61545e-06
0.000677609
5.85298e-06
0.000678642
6.06919e-06
0.000679681
6.26498e-06
0.000680725
6.44121e-06
0.000681772
6.59858e-06
0.000682822
6.73778e-06
0.000683873
6.85931e-06
0.000684926
6.96371e-06
0.000685979
7.05127e-06
0.000687032
7.12249e-06
0.000688086
7.17742e-06
0.00068914
7.21658e-06
0.000690193
7.23974e-06
0.000691246
7.24751e-06
0.000692297
7.23933e-06
0.000693347
7.21605e-06
0.000694396
7.17658e-06
0.000695443
7.12229e-06
0.000696488
7.05128e-06
0.00069753
6.9658e-06
0.00069857
6.86271e-06
0.000699606
6.74572e-06
0.000700639
6.60973e-06
0.000701668
6.46083e-06
0.000702694
6.29083e-06
0.000703714
6.10963e-06
0.000704732
5.90418e-06
0.000705743
5.69044e-06
0.000706753
5.4477e-06
0.000707755
5.2015e-06
0.000708758
4.91911e-06
0.000709751
4.64116e-06
0.000710748
4.31605e-06
0.000711735
4.00803e-06
0.000712729
3.63607e-06
0.000713713
3.30106e-06
0.000714711
2.87608e-06
0.000715703
2.51898e-06
0.000716719
2.03132e-06
0.000717739
1.65981e-06
0.000718803
1.09423e-06
0.000719894
7.20865e-07
0.000721067
4.90346e-08
0.000722288
-2.86803e-07
0.000723609
-1.06156e-06
-1.36672e-06
0.000725061
0.000666722
2.14526e-07
0.000666891
6.46455e-07
0.000667167
1.07682e-06
0.00066754
1.49881e-06
0.000668
1.90851e-06
0.000668535
2.30284e-06
0.000669134
2.67958e-06
0.000669787
3.03736e-06
0.000670487
3.37548e-06
0.000671227
3.69366e-06
0.000672001
3.99185e-06
0.000672803
4.27018e-06
0.00067363
4.52887e-06
0.000674477
4.76825e-06
0.000675341
4.98867e-06
0.00067622
5.1906e-06
0.00067711
5.37442e-06
0.000678011
5.54065e-06
0.00067892
5.68965e-06
0.000679836
5.82188e-06
0.000680758
5.93758e-06
0.000681684
6.03721e-06
0.000682615
6.12086e-06
0.000683548
6.18897e-06
0.000684484
6.24146e-06
0.000685422
6.27885e-06
0.000686361
6.30078e-06
0.0006873
6.30794e-06
0.00068824
6.29961e-06
0.000689179
6.27676e-06
0.000690118
6.23817e-06
0.000691055
6.1853e-06
0.00069199
6.11616e-06
0.000692923
6.03303e-06
0.000693852
5.93278e-06
0.000694779
5.81899e-06
0.000695702
5.68674e-06
0.000696621
5.54173e-06
0.000697536
5.3763e-06
0.000698446
5.1994e-06
0.000699351
4.99919e-06
0.000700252
4.78966e-06
0.000701147
4.55261e-06
0.000702039
4.30974e-06
0.000702925
4.03311e-06
0.00070381
3.75625e-06
0.000704689
3.4364e-06
0.000705572
3.1252e-06
0.000706451
2.75736e-06
0.00070734
2.41228e-06
0.000708225
1.99074e-06
0.00070913
1.61421e-06
0.000710029
1.13228e-06
0.000710958
7.30043e-07
0.000711871
1.81411e-07
0.000712843
-2.50498e-07
0.000713804
-9.12769e-07
0.000714874
-1.35657e-06
0.000715946
-2.13378e-06
-2.57405e-06
0.000717154
0.000666707
1.7424e-07
0.000666828
5.25746e-07
0.000667027
8.77702e-07
0.0006673
1.22524e-06
0.000667643
1.56564e-06
0.00066805
1.89655e-06
0.000668513
2.21609e-06
0.000669028
2.52281e-06
0.000669587
2.81577e-06
0.000670186
3.0945e-06
0.000670821
3.35753e-06
0.000671486
3.60475e-06
0.000672179
3.83615e-06
0.000672895
4.05172e-06
0.000673633
4.25146e-06
0.000674388
4.43546e-06
0.000675158
4.60383e-06
0.000675942
4.75677e-06
0.000676738
4.89439e-06
0.000677542
5.01695e-06
0.000678355
5.12453e-06
0.000679175
5.21738e-06
0.000680001
5.29552e-06
0.00068083
5.35923e-06
0.000681663
5.40838e-06
0.000682499
5.44336e-06
0.000683336
5.46384e-06
0.000684174
5.47032e-06
0.000685011
5.46223e-06
0.000685847
5.44028e-06
0.000686682
5.40352e-06
0.000687514
5.35299e-06
0.000688343
5.2872e-06
0.000689169
5.20775e-06
0.000689989
5.11231e-06
0.000690805
5.00338e-06
0.000691614
4.87737e-06
0.000692418
4.73819e-06
0.000693214
4.58036e-06
0.000694003
4.40995e-06
0.000694784
4.21862e-06
0.000695557
4.01577e-06
0.000696321
3.78877e-06
0.000697079
3.55209e-06
0.000697825
3.28669e-06
0.000698567
3.01471e-06
0.000699296
2.70751e-06
0.000700022
2.39874e-06
0.000700735
2.04509e-06
0.000701449
1.69755e-06
0.00070215
1.2902e-06
0.000702864
9.00504e-07
0.000703568
4.27988e-07
0.000704309
-1.13491e-08
0.000705039
-5.48645e-07
0.000705815
-1.02652e-06
0.000706567
-1.66491e-06
0.000707403
-2.19216e-06
0.000708215
-2.94626e-06
-3.51175e-06
0.000709153
0.000666697
1.43531e-07
0.00066679
4.33053e-07
0.000666944
7.23719e-07
0.000667157
1.01201e-06
0.000667427
1.29597e-06
0.00066775
1.57385e-06
0.000668122
1.84413e-06
0.000668539
2.10553e-06
0.000668998
2.35695e-06
0.000669495
2.59753e-06
0.000670026
2.82644e-06
0.000670587
3.04312e-06
0.000671176
3.24718e-06
0.00067179
3.43838e-06
0.000672425
3.61652e-06
0.000673079
3.78148e-06
0.000673749
3.93315e-06
0.000674435
4.07152e-06
0.000675132
4.19653e-06
0.000675841
4.30825e-06
0.000676559
4.40664e-06
0.000677285
4.49182e-06
0.000678016
4.56372e-06
0.000678753
4.62249e-06
0.000679493
4.66801e-06
0.000680236
4.70047e-06
0.000680981
4.71965e-06
0.000681725
4.72581e-06
0.000682469
4.7186e-06
0.000683211
4.69838e-06
0.00068395
4.66456e-06
0.000684685
4.61768e-06
0.000685415
4.55684e-06
0.00068614
4.48286e-06
0.000686858
4.39435e-06
0.000687569
4.29258e-06
0.000688271
4.17546e-06
0.000688964
4.04496e-06
0.000689646
3.89795e-06
0.000690319
3.73747e-06
0.000690979
3.55888e-06
0.000691628
3.36684e-06
0.000692262
3.15446e-06
0.000692885
2.92884e-06
0.000693492
2.67982e-06
0.000694089
2.41805e-06
0.000694667
2.12868e-06
0.000695239
1.8276e-06
0.00069579
1.49329e-06
0.000696338
1.14947e-06
0.000696864
7.65116e-07
0.000697388
3.76082e-07
0.00069788
-6.43544e-08
0.000698386
-5.16617e-07
0.00069887
-1.0327e-06
0.000699383
-1.5399e-06
0.000699857
-2.13932e-06
0.000700381
-2.71607e-06
0.00070085
-3.4151e-06
-4.06406e-06
0.000701402
0.000666692
1.18536e-07
0.000666767
3.57845e-07
0.000666892
5.9865e-07
0.000667066
8.38275e-07
0.000667286
1.07526e-06
0.000667552
1.30826e-06
0.00066786
1.53605e-06
0.000668208
1.75752e-06
0.000668593
1.97171e-06
0.000669013
2.17779e-06
0.000669464
2.37502e-06
0.000669945
2.5628e-06
0.000670451
2.74064e-06
0.000670982
2.90812e-06
0.000671533
3.06492e-06
0.000672104
3.21079e-06
0.000672692
3.34551e-06
0.000673294
3.46892e-06
0.00067391
3.58088e-06
0.000674537
3.68131e-06
0.000675173
3.77013e-06
0.000675818
3.8473e-06
0.000676469
3.91275e-06
0.000677125
3.96649e-06
0.000677784
4.00843e-06
0.000678446
4.03862e-06
0.000679109
4.05692e-06
0.000679771
4.0634e-06
0.000680432
4.05789e-06
0.00068109
4.04047e-06
0.000681744
4.01087e-06
0.000682392
3.96922e-06
0.000683034
3.91509e-06
0.000683668
3.8487e-06
0.000684293
3.7694e-06
0.000684908
3.67753e-06
0.000685511
3.57216e-06
0.000686102
3.45379e-06
0.000686679
3.32112e-06
0.000687242
3.17488e-06
0.000687788
3.01325e-06
0.000688317
2.83733e-06
0.000688827
2.64463e-06
0.000689319
2.43668e-06
0.000689789
2.21019e-06
0.000690239
1.96726e-06
0.000690665
1.70362e-06
0.00069107
1.42194e-06
0.000691447
1.11692e-06
0.000691804
7.91647e-07
0.00069213
4.39887e-07
0.00069244
6.58174e-08
0.000692721
-3.45327e-07
0.000692988
-7.84243e-07
0.000693214
-1.25775e-06
0.000693439
-1.76586e-06
0.000693612
-2.31228e-06
0.0006938
-2.90381e-06
0.000693922
-3.53651e-06
-4.22646e-06
0.000694084
0.000666688
9.74672e-08
0.000666751
2.94551e-07
0.000666856
4.93339e-07
0.000667003
6.91745e-07
0.000667189
8.88632e-07
0.000667415
1.08294e-06
0.000667677
1.27369e-06
0.000667975
1.45996e-06
0.000668306
1.64093e-06
0.000668667
1.81586e-06
0.000669058
1.98409e-06
0.000669476
2.14502e-06
0.000669919
2.29815e-06
0.000670384
2.44303e-06
0.000670869
2.57927e-06
0.000671374
2.70657e-06
0.000671894
2.82464e-06
0.00067243
2.93326e-06
0.000672979
3.03224e-06
0.000673539
3.12144e-06
0.000674108
3.20071e-06
0.000674685
3.26997e-06
0.000675269
3.32911e-06
0.000675857
3.37807e-06
0.000676449
3.41679e-06
0.000677042
3.44521e-06
0.000677636
3.46328e-06
0.000678229
3.47093e-06
0.000678818
3.46812e-06
0.000679404
3.45476e-06
0.000679984
3.43079e-06
0.000680557
3.39609e-06
0.000681122
3.35056e-06
0.000681677
3.29402e-06
0.00068222
3.22638e-06
0.00068275
3.1473e-06
0.000683265
3.05673e-06
0.000683765
2.95414e-06
0.000684246
2.83954e-06
0.000684709
2.7121e-06
0.00068515
2.57203e-06
0.00068557
2.41792e-06
0.000685964
2.25045e-06
0.000686333
2.06725e-06
0.000686674
1.86992e-06
0.000686987
1.65446e-06
0.000687266
1.42416e-06
0.000687516
1.17235e-06
0.000687727
9.05414e-07
0.000687907
6.12149e-07
0.000688042
3.04963e-07
0.000688144
-3.64794e-08
0.000688196
-3.97789e-07
0.000688216
-8.03698e-07
0.000688176
-1.21765e-06
0.000688106
-1.69638e-06
0.000687966
-2.17262e-06
0.000687804
-2.74121e-06
0.000687555
-3.28715e-06
-3.96644e-06
0.000687295
0.000666685
7.91575e-08
0.00066674
2.39583e-07
0.000666831
4.01848e-07
0.000666959
5.64312e-07
0.000667121
7.26075e-07
0.000667318
8.8629e-07
0.000667548
1.04416e-06
0.000667809
1.19894e-06
0.0006681
1.34993e-06
0.000668419
1.4965e-06
0.000668765
1.63806e-06
0.000669136
1.77406e-06
0.00066953
1.90403e-06
0.000669946
2.02752e-06
0.000670381
2.14418e-06
0.000670834
2.25365e-06
0.000671303
2.35567e-06
0.000671786
2.44997e-06
0.000672282
2.53636e-06
0.000672789
2.61465e-06
0.000673305
2.68471e-06
0.000673828
2.74638e-06
0.000674358
2.7996e-06
0.000674891
2.84425e-06
0.000675428
2.88028e-06
0.000675966
2.9076e-06
0.000676503
2.9262e-06
0.000677038
2.93597e-06
0.000677569
2.93694e-06
0.000678095
2.92895e-06
0.000678613
2.91206e-06
0.000679123
2.88604e-06
0.000679623
2.85102e-06
0.00068011
2.80659e-06
0.000680584
2.753e-06
0.000681041
2.6896e-06
0.000681481
2.61683e-06
0.000681902
2.53366e-06
0.0006823
2.44086e-06
0.000682676
2.33676e-06
0.000683025
2.22277e-06
0.000683347
2.09615e-06
0.000683638
1.95941e-06
0.000683897
1.8081e-06
0.00068412
1.64659e-06
0.000684307
1.46767e-06
0.000684452
1.27888e-06
0.000684556
1.06843e-06
0.000684613
8.4925e-07
0.000684623
6.02153e-07
0.000684578
3.49244e-07
0.000684482
6.01551e-08
0.000684321
-2.37229e-07
0.000684104
-5.86656e-07
0.000683813
-9.26662e-07
0.00068346
-1.34379e-06
0.000683021
-1.73357e-06
0.000682518
-2.23746e-06
0.000681912
-2.68115e-06
-3.29519e-06
0.00068124
0.000666683
6.27663e-08
0.000666732
1.9039e-07
0.000666814
3.19935e-07
0.000666928
4.50132e-07
0.000667074
5.80264e-07
0.000667251
7.09652e-07
0.000667457
8.37653e-07
0.000667693
9.63661e-07
0.000667955
1.0871e-06
0.000668244
1.20744e-06
0.000668558
1.32416e-06
0.000668896
1.4368e-06
0.000669255
1.54492e-06
0.000669634
1.64815e-06
0.000670032
1.74612e-06
0.000670447
1.83854e-06
0.000670878
1.92513e-06
0.000671322
2.00565e-06
0.000671779
2.07991e-06
0.000672246
2.14772e-06
0.000672721
2.20895e-06
0.000673204
2.26347e-06
0.000673693
2.31119e-06
0.000674185
2.35202e-06
0.000674679
2.38593e-06
0.000675174
2.4128e-06
0.000675668
2.43269e-06
0.000676158
2.44547e-06
0.000676644
2.45122e-06
0.000677123
2.44978e-06
0.000677594
2.4413e-06
0.000678054
2.42553e-06
0.000678502
2.4027e-06
0.000678937
2.3724e-06
0.000679355
2.33503e-06
0.000679754
2.28989e-06
0.000680134
2.23764e-06
0.00068049
2.17713e-06
0.000680821
2.10949e-06
0.000681125
2.03285e-06
0.000681399
1.94907e-06
0.00068164
1.85513e-06
0.000681845
1.75414e-06
0.000682012
1.64122e-06
0.000682137
1.5216e-06
0.000682218
1.38735e-06
0.000682249
1.24724e-06
0.000682229
1.08841e-06
0.000682153
9.2556e-07
0.000682017
7.37757e-07
0.000681817
5.49479e-07
0.00068155
3.27077e-07
0.000681202
1.11348e-07
0.000680774
-1.58825e-07
0.000680258
-4.11326e-07
0.000679652
-7.37424e-07
0.000678944
-1.02562e-06
0.000678131
-1.42484e-06
0.000677201
-1.75023e-06
-2.24464e-06
0.00067615
0.000666682
4.76482e-08
0.000666727
1.45011e-07
0.000666803
2.44331e-07
0.000666908
3.44667e-07
0.000667043
4.45461e-07
0.000667207
5.4618e-07
0.000667398
6.46313e-07
0.000667616
7.45376e-07
0.00066786
8.42906e-07
0.000668129
9.38463e-07
0.000668422
1.03163e-06
0.000668737
1.12201e-06
0.000669072
1.20924e-06
0.000669427
1.29299e-06
0.000669801
1.37297e-06
0.00067019
1.44889e-06
0.000670595
1.52054e-06
0.000671013
1.58769e-06
0.000671443
1.65018e-06
0.000671882
1.70785e-06
0.000672331
1.76058e-06
0.000672786
1.80827e-06
0.000673246
1.85086e-06
0.00067371
1.88826e-06
0.000674176
1.92047e-06
0.000674641
1.94743e-06
0.000675104
1.96918e-06
0.000675564
1.98567e-06
0.000676018
1.99699e-06
0.000676465
2.00305e-06
0.000676902
2.00403e-06
0.000677328
1.99975e-06
0.00067774
1.99049e-06
0.000678137
1.97594e-06
0.000678515
1.95651e-06
0.000678874
1.93169e-06
0.000679209
1.90213e-06
0.000679519
1.86693e-06
0.000679802
1.82714e-06
0.000680053
1.78128e-06
0.000680271
1.73104e-06
0.000680452
1.67398e-06
0.000680594
1.61286e-06
0.000680691
1.54368e-06
0.000680742
1.47098e-06
0.000680741
1.38824e-06
0.000680685
1.30298e-06
0.000680569
1.20462e-06
0.000680389
1.10548e-06
0.000680138
9.88401e-07
0.000679814
8.73771e-07
0.000679408
7.33645e-07
0.000678918
6.01356e-07
0.000678327
4.31782e-07
0.000677635
2.80739e-07
0.000676822
7.56833e-08
0.000675895
-9.89667e-08
0.00067483
-3.59738e-07
0.000673634
-5.54331e-07
-8.81557e-07
0.000672271
0.000666681
3.32555e-08
0.000666724
1.01835e-07
0.000666796
1.72332e-07
0.000666897
2.4415e-07
0.000667025
3.16881e-07
0.000667181
3.90124e-07
0.000667364
4.63491e-07
0.000667573
5.36611e-07
0.000667807
6.09127e-07
0.000668065
6.80697e-07
0.000668345
7.50994e-07
0.000668647
8.19705e-07
0.00066897
8.8654e-07
0.000669312
9.51229e-07
0.000669671
1.01353e-06
0.000670047
1.07323e-06
0.000670437
1.13015e-06
0.000670841
1.1841e-06
0.000671256
1.23496e-06
0.000671681
1.28261e-06
0.000672115
1.32697e-06
0.000672555
1.36797e-06
0.000673001
1.40556e-06
0.000673449
1.43972e-06
0.000673899
1.47046e-06
0.000674349
1.49778e-06
0.000674796
1.52173e-06
0.00067524
1.54234e-06
0.000675677
1.5597e-06
0.000676106
1.57385e-06
0.000676525
1.58494e-06
0.000676932
1.59296e-06
0.000677324
1.59814e-06
0.0006777
1.6004e-06
0.000678056
1.60007e-06
0.000678391
1.59696e-06
0.000678702
1.59154e-06
0.000678985
1.58342e-06
0.000679239
1.57333e-06
0.00067946
1.56054e-06
0.000679645
1.54613e-06
0.00067979
1.52885e-06
0.000679892
1.51038e-06
0.000679947
1.48861e-06
0.000679952
1.46623e-06
0.000679901
1.43977e-06
0.00067979
1.41353e-06
0.000679613
1.38169e-06
0.000679367
1.35146e-06
0.000679042
1.31324e-06
0.000678637
1.27876e-06
0.000678138
1.23236e-06
0.000677546
1.19328e-06
0.000676842
1.13582e-06
0.000676032
1.09127e-06
0.000675089
1.01817e-06
0.000674022
9.68057e-07
0.000672789
8.73579e-07
0.000671415
8.19232e-07
6.95029e-07
0.000669839
0.000666681
1.90526e-08
0.000666723
5.93758e-08
0.000666794
1.01483e-07
0.000666893
1.45213e-07
0.00066702
1.90276e-07
0.000667173
2.36385e-07
0.000667354
2.83271e-07
0.00066756
3.30678e-07
0.00066779
3.78357e-07
0.000668045
4.26065e-07
0.000668322
4.73565e-07
0.000668622
5.20633e-07
0.000668941
5.67058e-07
0.00066928
6.12646e-07
0.000669636
6.57215e-07
0.000670009
7.00608e-07
0.000670396
7.42681e-07
0.000670797
7.83314e-07
0.000671209
8.22415e-07
0.000671632
8.5991e-07
0.000672063
8.95759e-07
0.000672501
9.29933e-07
0.000672944
9.6243e-07
0.000673391
9.93264e-07
0.000673839
1.02248e-06
0.000674286
1.05012e-06
0.000674732
1.07629e-06
0.000675173
1.10105e-06
0.000675608
1.12455e-06
0.000676035
1.14693e-06
0.000676452
1.16829e-06
0.000676856
1.18886e-06
0.000677245
1.20878e-06
0.000677618
1.22825e-06
0.00067797
1.24745e-06
0.000678301
1.2666e-06
0.000678606
1.28592e-06
0.000678884
1.30567e-06
0.000679131
1.32603e-06
0.000679344
1.34729e-06
0.000679521
1.36963e-06
0.000679656
1.39339e-06
0.000679748
1.41879e-06
0.000679791
1.44608e-06
0.000679781
1.47557e-06
0.000679714
1.50746e-06
0.000679585
1.54211e-06
0.000679387
1.57965e-06
0.000679118
1.62057e-06
0.000678766
1.66486e-06
0.000678332
1.71319e-06
0.000677799
1.76533e-06
0.00067717
1.82227e-06
0.000676422
1.88334e-06
0.000675563
1.95013e-06
0.00067456
2.02142e-06
0.000673429
2.09937e-06
0.000672121
2.18181e-06
0.000670668
2.27179e-06
2.36622e-06
0.000668997
0.000666681
4.68167e-09
0.000666724
1.60798e-08
0.000666796
2.94159e-08
0.000666897
4.46227e-08
0.000667026
6.15531e-08
0.000667182
8.00573e-08
0.000667365
9.99896e-08
0.000667575
1.21207e-07
0.00066781
1.43565e-07
0.000668069
1.66918e-07
0.000668351
1.91124e-07
0.000668656
2.16045e-07
0.000668981
2.41553e-07
0.000669326
2.67531e-07
0.00066969
2.93865e-07
0.00067007
3.20455e-07
0.000670465
3.47204e-07
0.000670875
3.7404e-07
0.000671296
4.00915e-07
0.000671728
4.27791e-07
0.000672169
4.54669e-07
0.000672618
4.81582e-07
0.000673072
5.08595e-07
0.000673529
5.3574e-07
0.000673988
5.63068e-07
0.000674448
5.90691e-07
0.000674905
6.18718e-07
0.000675359
6.47344e-07
0.000675807
6.7665e-07
0.000676247
7.0691e-07
0.000676677
7.38259e-07
0.000677095
7.71055e-07
0.000677498
8.05368e-07
0.000677885
8.41724e-07
0.000678252
8.80109e-07
0.000678598
9.21223e-07
0.000678919
9.64951e-07
0.000679212
1.01221e-06
0.000679475
1.06267e-06
0.000679705
1.11759e-06
0.000679898
1.17633e-06
0.000680051
1.24071e-06
0.00068016
1.30949e-06
0.000680221
1.38535e-06
0.000680231
1.4661e-06
0.000680182
1.55576e-06
0.000680074
1.65059e-06
0.000679897
1.75677e-06
0.000679649
1.86803e-06
0.00067932
1.99396e-06
0.000678909
2.12423e-06
0.000678401
2.27385e-06
0.000677797
2.4259e-06
0.000677076
2.60416e-06
0.000676245
2.78088e-06
0.000675273
2.99412e-06
0.000674174
3.19828e-06
0.000672901
3.45479e-06
0.000671484
3.68822e-06
3.99819e-06
0.000669852
0.000666682
-1.03335e-08
0.000666727
-2.91358e-08
0.000666802
-4.59351e-08
0.000666907
-6.05976e-08
0.000667042
-7.31296e-08
0.000667206
-8.35427e-08
0.000667398
-9.18509e-08
0.000667617
-9.80732e-08
0.000667863
-1.02241e-07
0.000668134
-1.04393e-07
0.00066843
-1.04579e-07
0.000668749
-1.02849e-07
0.000669089
-9.92566e-08
0.000669451
-9.38488e-08
0.000669831
-8.66767e-08
0.00067023
-7.77781e-08
0.000670644
-6.7194e-08
0.000671073
-5.49417e-08
0.000671515
-4.10486e-08
0.000671968
-2.55195e-08
0.000672431
-8.43545e-09
0.000672903
1.03e-08
0.00067338
3.13194e-08
0.000673861
5.41528e-08
0.000674346
7.894e-08
0.00067483
1.0587e-07
0.000675314
1.35084e-07
0.000675795
1.66859e-07
0.00067627
2.01248e-07
0.000676738
2.38669e-07
0.000677197
2.79216e-07
0.000677645
3.2333e-07
0.000678079
3.71092e-07
0.000678498
4.23214e-07
0.000678898
4.79636e-07
0.000679278
5.41509e-07
0.000679634
6.08442e-07
0.000679965
6.81804e-07
0.000680267
7.60884e-07
0.000680536
8.47779e-07
0.000680772
9.41121e-07
0.000680968
1.04399e-06
0.000681124
1.15399e-06
0.000681233
1.27574e-06
0.000681294
1.40513e-06
0.000681301
1.54923e-06
0.00068125
1.70112e-06
0.000681135
1.8717e-06
0.000680954
2.04957e-06
0.000680696
2.25169e-06
0.000680361
2.45943e-06
0.000679935
2.69943e-06
0.00067942
2.94134e-06
0.000678797
3.22733e-06
0.00067807
3.50803e-06
0.000677213
3.85061e-06
0.000676237
4.1746e-06
0.000675104
4.58766e-06
0.000673834
4.95794e-06
5.4586e-06
0.000672374
0.000666683
-2.64481e-08
0.000666731
-7.76026e-08
0.000666812
-1.26815e-07
0.000666925
-1.73611e-07
0.00066707
-2.17827e-07
0.000667246
-2.59323e-07
0.000667452
-2.97969e-07
0.000667687
-3.33649e-07
0.000667951
-3.66267e-07
0.000668243
-3.95752e-07
0.00066856
-4.22053e-07
0.000668902
-4.45135e-07
0.000669268
-4.6498e-07
0.000669656
-4.81568e-07
0.000670064
-4.94896e-07
0.000670491
-5.04948e-07
0.000670936
-5.11722e-07
0.000671396
-5.15195e-07
0.00067187
-5.15354e-07
0.000672357
-5.1215e-07
0.000672854
-5.05544e-07
0.00067336
-4.95419e-07
0.000673873
-4.81686e-07
0.000674391
-4.64225e-07
0.000674913
-4.42966e-07
0.000675437
-4.17684e-07
0.00067596
-3.8827e-07
0.000676481
-3.544e-07
0.000676999
-3.15967e-07
0.00067751
-2.72517e-07
0.000678013
-2.23971e-07
0.000678506
-1.69734e-07
0.000678987
-1.09866e-07
0.000679454
-4.37402e-08
0.000679905
2.80873e-08
0.000680338
1.09275e-07
0.000680749
1.97395e-07
0.000681136
2.94314e-07
0.000681498
3.99318e-07
0.00068183
5.15117e-07
0.000682131
6.40114e-07
0.000682397
7.77932e-07
0.000682626
9.25567e-07
0.000682813
1.08868e-06
0.000682956
1.26234e-06
0.00068305
1.45511e-06
0.000683092
1.65873e-06
0.000683078
1.88635e-06
0.000683003
2.12442e-06
0.000682861
2.39327e-06
0.00068265
2.67089e-06
0.00068236
2.98894e-06
0.00068199
3.31185e-06
0.000681528
3.68928e-06
0.000680972
4.06382e-06
0.000680309
4.51378e-06
0.000679537
4.94647e-06
0.000678639
5.48599e-06
0.000677615
5.98199e-06
6.63164e-06
0.000676441
0.000666684
-4.41753e-08
0.000666738
-1.30986e-07
0.000666827
-2.15935e-07
0.000666951
-2.98148e-07
0.000667111
-3.77257e-07
0.000667304
-4.52933e-07
0.000667531
-5.24874e-07
0.000667791
-5.92809e-07
0.000668081
-6.56508e-07
0.000668401
-7.1578e-07
0.000668749
-7.70475e-07
0.000669125
-8.20472e-07
0.000669525
-8.65684e-07
0.00066995
-9.06035e-07
0.000670396
-9.41475e-07
0.000670863
-9.71956e-07
0.000671349
-9.97448e-07
0.000671852
-1.01791e-06
0.00067237
-1.0333e-06
0.000672901
-1.04357e-06
0.000673444
-1.04867e-06
0.000673997
-1.04849e-06
0.000674559
-1.04298e-06
0.000675126
-1.03196e-06
0.000675699
-1.01536e-06
0.000676274
-9.92948e-07
0.00067685
-9.64597e-07
0.000677426
-9.29981e-07
0.000677999
-8.88965e-07
0.000678568
-8.41097e-07
0.00067913
-7.86262e-07
0.000679684
-7.23839e-07
0.000680228
-6.53769e-07
0.000680759
-5.75175e-07
0.000681275
-4.88043e-07
0.000681776
-3.91062e-07
0.000682258
-2.84707e-07
0.00068272
-1.67532e-07
0.00068316
-4.08146e-08
0.000683576
9.92265e-08
0.000683964
2.52179e-07
0.000684322
4.19862e-07
0.000684647
6.00306e-07
0.000684937
7.98814e-07
0.000685188
1.01101e-06
0.000685398
1.24478e-06
0.000685564
1.49313e-06
0.000685682
1.76797e-06
0.000685749
2.05784e-06
0.000685761
2.38081e-06
0.000685714
2.71836e-06
0.000685605
3.09809e-06
0.000685426
3.49039e-06
0.000685178
3.93773e-06
0.000684849
4.39294e-06
0.000684441
4.92161e-06
0.000683939
5.44867e-06
0.000683349
6.0759e-06
0.000682647
6.68335e-06
7.42894e-06
0.00068185
0.000666687
-6.41861e-08
0.000666747
-1.91264e-07
0.000666848
-3.16545e-07
0.000666988
-4.38677e-07
0.000667168
-5.57028e-07
0.000667386
-6.71032e-07
0.000667641
-7.80172e-07
0.000667932
-8.83999e-07
0.000668258
-9.82127e-07
0.000668617
-1.07425e-06
0.000669006
-1.16011e-06
0.000669425
-1.23953e-06
0.000669872
-1.31236e-06
0.000670344
-1.3785e-06
0.000670841
-1.43787e-06
0.000671359
-1.49042e-06
0.000671898
-1.53612e-06
0.000672455
-1.57495e-06
0.000673029
-1.60687e-06
0.000673617
-1.63184e-06
0.000674218
-1.64984e-06
0.00067483
-1.66078e-06
0.000675452
-1.66462e-06
0.000676081
-1.66122e-06
0.000676716
-1.65048e-06
0.000677355
-1.63221e-06
0.000677997
-1.60626e-06
0.00067864
-1.57236e-06
0.000679281
-1.53031e-06
0.00067992
-1.47973e-06
0.000680554
-1.4204e-06
0.000681182
-1.35179e-06
0.000681802
-1.27367e-06
0.000682412
-1.18535e-06
0.00068301
-1.08664e-06
0.000683596
-9.76609e-07
0.000684166
-8.55172e-07
0.00068472
-7.21071e-07
0.000685253
-5.74336e-07
0.000685766
-4.13186e-07
0.000686256
-2.38335e-07
0.000686725
-4.85329e-08
0.000687167
1.58338e-07
0.00068758
3.85429e-07
0.000687962
6.2933e-07
0.000688311
8.95239e-07
0.000688624
1.18022e-06
0.000688901
1.49097e-06
0.000689136
1.82301e-06
0.000689331
2.18561e-06
0.000689478
2.57163e-06
0.000689582
2.99429e-06
0.000689629
3.44264e-06
0.000689632
3.93544e-06
0.000689568
4.4562e-06
0.000689459
5.03141e-06
0.000689271
5.63637e-06
0.000689039
6.3084e-06
0.000688711
7.01043e-06
7.79406e-06
0.000688346
0.00066669
-8.72976e-08
0.000666759
-2.60927e-07
0.000666876
-4.32786e-07
0.000667038
-6.00898e-07
0.000667245
-7.64274e-07
0.000667496
-9.22033e-07
0.000667789
-1.07339e-06
0.000668123
-1.21768e-06
0.000668495
-1.35434e-06
0.000668904
-1.48295e-06
0.000669347
-1.60319e-06
0.000669822
-1.71481e-06
0.000670328