/*--------------------------------*- C++ -*----------------------------------*\
| =========                 |                                                 |
| \\      /  F ield         | OpenFOAM: The Open Source CFD Toolbox           |
|  \\    /   O peration     | Version:  2312                                  |
|   \\  /    A nd           | Website:  www.openfoam.com                      |
|    \\/     M anipulation  |                                                 |
\*---------------------------------------------------------------------------*/
FoamFile
{
    version     2.0;
    format      ascii;
    arch        "LSB;label=32;scalar=64";
    class       volScalarField;
    location    "4000";
    object      p;
}
// * * * * * * * * * * * * * * * * * * * * * * * * * * * * * * * * * * * * * //

dimensions      [0 2 -2 0 0 0 0];

internalField   nonuniform List<scalar> 
10800
(
6.12192e-07
5.98035e-07
5.8415e-07
5.73482e-07
5.66029e-07
5.6037e-07
5.55737e-07
5.51953e-07
5.48122e-07
5.43635e-07
5.39292e-07
5.35865e-07
5.32908e-07
5.29777e-07
5.26549e-07
5.23611e-07
5.21082e-07
5.18864e-07
5.16883e-07
5.15122e-07
5.13559e-07
5.12147e-07
5.10841e-07
5.09609e-07
5.08428e-07
5.07279e-07
5.0615e-07
5.05032e-07
5.03918e-07
5.02804e-07
5.01687e-07
5.00564e-07
4.99433e-07
4.98292e-07
4.97141e-07
4.95978e-07
4.94802e-07
4.93612e-07
4.92408e-07
4.91188e-07
4.89955e-07
4.88701e-07
4.87442e-07
4.8615e-07
4.84874e-07
4.83544e-07
4.82258e-07
4.80909e-07
4.79604e-07
4.78296e-07
4.7697e-07
4.75722e-07
4.74583e-07
4.7324e-07
4.72553e-07
4.71225e-07
4.70943e-07
4.69836e-07
4.70518e-07
4.67447e-07
5.6436e-07
5.62613e-07
5.59838e-07
5.56642e-07
5.53462e-07
5.50007e-07
5.46704e-07
5.44387e-07
5.42269e-07
5.39053e-07
5.35309e-07
5.32336e-07
5.30072e-07
5.27638e-07
5.24864e-07
5.22253e-07
5.20082e-07
5.18222e-07
5.16516e-07
5.14941e-07
5.13508e-07
5.12191e-07
5.10951e-07
5.09758e-07
5.08599e-07
5.07463e-07
5.0634e-07
5.05225e-07
5.04111e-07
5.02995e-07
5.01875e-07
5.00749e-07
4.99615e-07
4.98472e-07
4.97317e-07
4.96151e-07
4.94972e-07
4.93779e-07
4.92572e-07
4.91347e-07
4.90105e-07
4.88842e-07
4.87564e-07
4.86257e-07
4.84941e-07
4.83587e-07
4.82228e-07
4.80828e-07
4.79418e-07
4.77964e-07
4.76529e-07
4.74944e-07
4.73517e-07
4.71764e-07
4.7021e-07
4.68431e-07
4.66613e-07
4.64274e-07
4.62533e-07
4.58882e-07
5.56043e-07
5.55282e-07
5.53755e-07
5.5177e-07
5.49575e-07
5.46809e-07
5.44005e-07
5.42177e-07
5.40568e-07
5.37811e-07
5.34493e-07
5.32005e-07
5.30296e-07
5.28406e-07
5.26083e-07
5.23809e-07
5.2186e-07
5.20106e-07
5.18395e-07
5.16733e-07
5.15166e-07
5.13694e-07
5.12292e-07
5.10943e-07
5.09639e-07
5.08373e-07
5.07138e-07
5.05927e-07
5.04734e-07
5.03554e-07
5.02382e-07
5.01215e-07
5.00049e-07
4.98882e-07
4.9771e-07
4.96531e-07
4.95342e-07
4.94141e-07
4.92922e-07
4.91689e-07
4.90439e-07
4.89168e-07
4.87874e-07
4.86552e-07
4.85202e-07
4.8382e-07
4.82399e-07
4.80939e-07
4.79431e-07
4.77865e-07
4.76252e-07
4.74527e-07
4.72777e-07
4.70843e-07
4.68845e-07
4.66658e-07
4.64228e-07
4.61567e-07
4.58595e-07
4.55047e-07
5.44684e-07
5.44251e-07
5.43372e-07
5.42278e-07
5.41082e-07
5.39286e-07
5.37344e-07
5.36264e-07
5.35337e-07
5.33245e-07
5.30565e-07
5.28651e-07
5.27445e-07
5.26013e-07
5.24117e-07
5.22225e-07
5.20606e-07
5.19132e-07
5.17657e-07
5.16194e-07
5.1479e-07
5.13451e-07
5.12158e-07
5.10897e-07
5.09666e-07
5.08461e-07
5.07277e-07
5.06108e-07
5.0495e-07
5.03801e-07
5.02656e-07
5.01512e-07
5.00368e-07
4.99221e-07
4.98067e-07
4.96906e-07
4.95735e-07
4.94551e-07
4.93356e-07
4.92141e-07
4.90906e-07
4.89647e-07
4.88361e-07
4.87045e-07
4.85694e-07
4.84305e-07
4.82868e-07
4.81384e-07
4.79836e-07
4.78225e-07
4.76534e-07
4.74745e-07
4.72863e-07
4.70831e-07
4.68667e-07
4.66316e-07
4.63749e-07
4.60962e-07
4.57883e-07
4.54542e-07
5.38491e-07
5.38285e-07
5.37777e-07
5.37149e-07
5.36457e-07
5.35155e-07
5.33676e-07
5.33023e-07
5.32492e-07
5.30784e-07
5.28481e-07
5.26922e-07
5.26036e-07
5.24895e-07
5.2327e-07
5.2162e-07
5.20205e-07
5.18897e-07
5.17558e-07
5.162e-07
5.14878e-07
5.136e-07
5.12351e-07
5.11124e-07
5.09919e-07
5.08734e-07
5.07567e-07
5.06414e-07
5.05273e-07
5.04141e-07
5.03016e-07
5.01893e-07
5.00772e-07
4.99649e-07
4.98522e-07
4.9739e-07
4.96248e-07
4.95097e-07
4.93932e-07
4.9275e-07
4.91548e-07
4.90323e-07
4.89072e-07
4.8779e-07
4.86472e-07
4.85115e-07
4.83709e-07
4.82255e-07
4.80734e-07
4.79149e-07
4.77481e-07
4.7572e-07
4.73862e-07
4.71873e-07
4.69759e-07
4.6749e-07
4.65032e-07
4.6241e-07
4.59568e-07
4.5656e-07
5.33415e-07
5.3326e-07
5.32861e-07
5.32404e-07
5.31935e-07
5.30897e-07
5.2971e-07
5.29356e-07
5.29123e-07
5.27713e-07
5.25713e-07
5.24452e-07
5.23845e-07
5.22965e-07
5.21588e-07
5.20174e-07
5.18975e-07
5.17863e-07
5.16702e-07
5.15505e-07
5.14328e-07
5.13178e-07
5.12044e-07
5.10918e-07
5.09804e-07
5.087e-07
5.07606e-07
5.0652e-07
5.05441e-07
5.04366e-07
5.03294e-07
5.02223e-07
5.01152e-07
5.00078e-07
4.98999e-07
4.97912e-07
4.96814e-07
4.95723e-07
4.94615e-07
4.9349e-07
4.92348e-07
4.91184e-07
4.89996e-07
4.8878e-07
4.87533e-07
4.8625e-07
4.84924e-07
4.83554e-07
4.82124e-07
4.80641e-07
4.79082e-07
4.77446e-07
4.75728e-07
4.73897e-07
4.71969e-07
4.6991e-07
4.67704e-07
4.65385e-07
4.62898e-07
4.60336e-07
5.29498e-07
5.29391e-07
5.29086e-07
5.28765e-07
5.28468e-07
5.27629e-07
5.26656e-07
5.26525e-07
5.26513e-07
5.25323e-07
5.23548e-07
5.22507e-07
5.22107e-07
5.21422e-07
5.20232e-07
5.18995e-07
5.1796e-07
5.16998e-07
5.15974e-07
5.14904e-07
5.13842e-07
5.12798e-07
5.11759e-07
5.10721e-07
5.09687e-07
5.08659e-07
5.07635e-07
5.06616e-07
5.056e-07
5.04587e-07
5.03576e-07
5.02566e-07
5.01557e-07
5.00546e-07
4.99534e-07
4.9852e-07
4.97503e-07
4.96463e-07
4.95417e-07
4.94363e-07
4.93297e-07
4.92215e-07
4.91116e-07
4.89996e-07
4.88852e-07
4.87681e-07
4.86476e-07
4.85239e-07
4.83954e-07
4.8263e-07
4.81246e-07
4.79805e-07
4.78302e-07
4.76712e-07
4.75053e-07
4.73296e-07
4.71435e-07
4.69502e-07
4.67459e-07
4.65401e-07
5.26428e-07
5.26349e-07
5.26098e-07
5.25857e-07
5.25662e-07
5.24944e-07
5.24108e-07
5.24125e-07
5.24265e-07
5.23231e-07
5.21615e-07
5.20734e-07
5.2049e-07
5.19955e-07
5.18912e-07
5.17819e-07
5.16922e-07
5.1609e-07
5.15189e-07
5.14235e-07
5.13283e-07
5.12342e-07
5.114e-07
5.10453e-07
5.09505e-07
5.08558e-07
5.07613e-07
5.06668e-07
5.05725e-07
5.04783e-07
5.03841e-07
5.029e-07
5.0196e-07
5.01019e-07
5.00078e-07
4.99135e-07
4.98188e-07
4.97236e-07
4.9628e-07
4.95317e-07
4.94348e-07
4.9337e-07
4.92382e-07
4.91382e-07
4.90367e-07
4.89336e-07
4.88285e-07
4.87214e-07
4.86113e-07
4.8499e-07
4.83827e-07
4.8263e-07
4.81395e-07
4.80103e-07
4.78772e-07
4.7738e-07
4.75923e-07
4.74435e-07
4.72885e-07
4.71367e-07
5.23994e-07
5.23932e-07
5.23715e-07
5.23525e-07
5.23398e-07
5.22761e-07
5.2202e-07
5.2214e-07
5.22388e-07
5.21469e-07
5.19973e-07
5.19215e-07
5.19092e-07
5.18675e-07
5.17751e-07
5.16774e-07
5.15989e-07
5.15265e-07
5.14468e-07
5.13614e-07
5.12757e-07
5.11907e-07
5.11053e-07
5.1019e-07
5.09323e-07
5.08454e-07
5.07583e-07
5.06712e-07
5.05841e-07
5.0497e-07
5.041e-07
5.03231e-07
5.02364e-07
5.01498e-07
5.00633e-07
4.99768e-07
4.98905e-07
4.98043e-07
4.97181e-07
4.96319e-07
4.95457e-07
4.94594e-07
4.9373e-07
4.92864e-07
4.91995e-07
4.91123e-07
4.90245e-07
4.89363e-07
4.8847e-07
4.87573e-07
4.86661e-07
4.85738e-07
4.84804e-07
4.83845e-07
4.82879e-07
4.81887e-07
4.80872e-07
4.79865e-07
4.78841e-07
4.7789e-07
5.22069e-07
5.22018e-07
5.21825e-07
5.2167e-07
5.21589e-07
5.21009e-07
5.20334e-07
5.20527e-07
5.20855e-07
5.20019e-07
5.18612e-07
5.17946e-07
5.17914e-07
5.17589e-07
5.16757e-07
5.15872e-07
5.15177e-07
5.1454e-07
5.13829e-07
5.13059e-07
5.12284e-07
5.11513e-07
5.10735e-07
5.09947e-07
5.09153e-07
5.08355e-07
5.07555e-07
5.06753e-07
5.05951e-07
5.05149e-07
5.04349e-07
5.03551e-07
5.02756e-07
5.01964e-07
5.01176e-07
5.00393e-07
4.99615e-07
4.98843e-07
4.98077e-07
4.97318e-07
4.96567e-07
4.95823e-07
4.95088e-07
4.94361e-07
4.93644e-07
4.92937e-07
4.9224e-07
4.91556e-07
4.90879e-07
4.90219e-07
4.89568e-07
4.88931e-07
4.88311e-07
4.87698e-07
4.87111e-07
4.86535e-07
4.85977e-07
4.85464e-07
4.84982e-07
4.84606e-07
5.20565e-07
5.20522e-07
5.20345e-07
5.20215e-07
5.20166e-07
5.19626e-07
5.18998e-07
5.19244e-07
5.19628e-07
5.18854e-07
5.17513e-07
5.16915e-07
5.16952e-07
5.16697e-07
5.15935e-07
5.15122e-07
5.14498e-07
5.13932e-07
5.13289e-07
5.12588e-07
5.1188e-07
5.11175e-07
5.10463e-07
5.09739e-07
5.09008e-07
5.08273e-07
5.07535e-07
5.06796e-07
5.06056e-07
5.05317e-07
5.04581e-07
5.03848e-07
5.03121e-07
5.02398e-07
5.01683e-07
5.00977e-07
5.00281e-07
4.99595e-07
4.98922e-07
4.98261e-07
4.97616e-07
4.96987e-07
4.96376e-07
4.95785e-07
4.95215e-07
4.94669e-07
4.94147e-07
4.93655e-07
4.9319e-07
4.92761e-07
4.92364e-07
4.92007e-07
4.91693e-07
4.91418e-07
4.91201e-07
4.91032e-07
4.90922e-07
4.90894e-07
4.90943e-07
4.91129e-07
5.19422e-07
5.19384e-07
5.19219e-07
5.19106e-07
5.1908e-07
5.18568e-07
5.17972e-07
5.18256e-07
5.18681e-07
5.17951e-07
5.16657e-07
5.16109e-07
5.16197e-07
5.15994e-07
5.15286e-07
5.14527e-07
5.13957e-07
5.13445e-07
5.12857e-07
5.12209e-07
5.11555e-07
5.10903e-07
5.10244e-07
5.09572e-07
5.08893e-07
5.0821e-07
5.07525e-07
5.06838e-07
5.06152e-07
5.05467e-07
5.04786e-07
5.04111e-07
5.03442e-07
5.02782e-07
5.02132e-07
5.01493e-07
5.00868e-07
5.00259e-07
4.99667e-07
4.99095e-07
4.98545e-07
4.98019e-07
4.9752e-07
4.9705e-07
4.96612e-07
4.96211e-07
4.95848e-07
4.95529e-07
4.95255e-07
4.95035e-07
4.94869e-07
4.94765e-07
4.94729e-07
4.94763e-07
4.94882e-07
4.95087e-07
4.95387e-07
4.95804e-07
4.96342e-07
4.97045e-07
5.18597e-07
5.18563e-07
5.18406e-07
5.18304e-07
5.18294e-07
5.178e-07
5.17228e-07
5.17537e-07
5.1799e-07
5.1729e-07
5.1603e-07
5.15517e-07
5.15641e-07
5.15474e-07
5.14804e-07
5.14084e-07
5.13555e-07
5.13082e-07
5.12534e-07
5.11926e-07
5.11312e-07
5.107e-07
5.1008e-07
5.09449e-07
5.0881e-07
5.08167e-07
5.07522e-07
5.06876e-07
5.06232e-07
5.0559e-07
5.04953e-07
5.04323e-07
5.03702e-07
5.03091e-07
5.02492e-07
5.01908e-07
5.01342e-07
5.00795e-07
5.0027e-07
4.99769e-07
4.99297e-07
4.98855e-07
4.98447e-07
4.98077e-07
4.97748e-07
4.97465e-07
4.97233e-07
4.97056e-07
4.9694e-07
4.96891e-07
4.96916e-07
4.97021e-07
4.97216e-07
4.97506e-07
4.97906e-07
4.98421e-07
4.99065e-07
4.99855e-07
5.00804e-07
5.01941e-07
5.18062e-07
5.18031e-07
5.17878e-07
5.17784e-07
5.17783e-07
5.17301e-07
5.16743e-07
5.17068e-07
5.17539e-07
5.16858e-07
5.15619e-07
5.15128e-07
5.15275e-07
5.15132e-07
5.14487e-07
5.13792e-07
5.13288e-07
5.12841e-07
5.12319e-07
5.11738e-07
5.1115e-07
5.10565e-07
5.09972e-07
5.09368e-07
5.08756e-07
5.0814e-07
5.07523e-07
5.06906e-07
5.0629e-07
5.05678e-07
5.05071e-07
5.04473e-07
5.03884e-07
5.03307e-07
5.02745e-07
5.022e-07
5.01675e-07
5.01171e-07
5.00694e-07
5.00244e-07
4.99826e-07
4.99444e-07
4.99101e-07
4.98801e-07
4.98549e-07
4.98351e-07
4.98211e-07
4.98136e-07
4.98132e-07
4.98206e-07
4.98366e-07
4.98621e-07
4.98982e-07
4.99455e-07
5.00056e-07
5.00795e-07
5.01687e-07
5.02747e-07
5.03994e-07
5.05446e-07
5.17799e-07
5.17769e-07
5.17618e-07
5.17528e-07
5.17532e-07
5.17056e-07
5.16504e-07
5.16837e-07
5.17316e-07
5.16645e-07
5.15416e-07
5.14936e-07
5.15094e-07
5.14963e-07
5.1433e-07
5.13648e-07
5.13156e-07
5.12722e-07
5.12213e-07
5.11645e-07
5.1107e-07
5.10499e-07
5.09919e-07
5.09328e-07
5.0873e-07
5.08128e-07
5.07525e-07
5.06922e-07
5.06321e-07
5.05724e-07
5.05133e-07
5.0455e-07
5.03979e-07
5.0342e-07
5.02876e-07
5.02351e-07
5.01847e-07
5.01366e-07
5.00913e-07
5.0049e-07
5.001e-07
4.99749e-07
4.99439e-07
4.99176e-07
4.98964e-07
4.9881e-07
4.98718e-07
4.98696e-07
4.9875e-07
4.98888e-07
4.99119e-07
4.99453e-07
4.99899e-07
5.00468e-07
5.01175e-07
5.02031e-07
5.03053e-07
5.04256e-07
5.0566e-07
5.07278e-07
5.178e-07
5.1777e-07
5.17619e-07
5.17528e-07
5.17532e-07
5.17056e-07
5.16504e-07
5.16837e-07
5.17317e-07
5.16646e-07
5.15416e-07
5.14936e-07
5.15095e-07
5.14964e-07
5.1433e-07
5.13648e-07
5.13157e-07
5.12723e-07
5.12214e-07
5.11646e-07
5.11071e-07
5.10499e-07
5.0992e-07
5.09329e-07
5.08731e-07
5.08129e-07
5.07526e-07
5.06923e-07
5.06322e-07
5.05725e-07
5.05134e-07
5.04551e-07
5.0398e-07
5.03421e-07
5.02877e-07
5.02352e-07
5.01848e-07
5.01368e-07
5.00914e-07
5.00491e-07
5.00102e-07
4.9975e-07
4.99441e-07
4.99178e-07
4.98966e-07
4.98812e-07
4.9872e-07
4.98698e-07
4.98752e-07
4.9889e-07
4.99122e-07
4.99455e-07
4.99902e-07
5.00471e-07
5.01178e-07
5.02034e-07
5.03057e-07
5.04261e-07
5.05666e-07
5.07286e-07
5.18064e-07
5.18033e-07
5.1788e-07
5.17786e-07
5.17785e-07
5.17303e-07
5.16744e-07
5.1707e-07
5.17541e-07
5.1686e-07
5.1562e-07
5.1513e-07
5.15277e-07
5.15134e-07
5.14489e-07
5.13794e-07
5.1329e-07
5.12844e-07
5.12321e-07
5.1174e-07
5.11152e-07
5.10568e-07
5.09975e-07
5.0937e-07
5.08758e-07
5.08143e-07
5.07526e-07
5.06908e-07
5.06293e-07
5.05681e-07
5.05074e-07
5.04476e-07
5.03887e-07
5.03311e-07
5.02749e-07
5.02204e-07
5.01678e-07
5.01175e-07
5.00698e-07
5.00248e-07
4.99831e-07
4.99448e-07
4.99105e-07
4.98806e-07
4.98555e-07
4.98356e-07
4.98217e-07
4.98142e-07
4.98138e-07
4.98213e-07
4.98374e-07
4.98629e-07
4.9899e-07
4.99464e-07
5.00066e-07
5.00805e-07
5.01698e-07
5.02761e-07
5.04011e-07
5.05468e-07
5.186e-07
5.18566e-07
5.18409e-07
5.18307e-07
5.18297e-07
5.17803e-07
5.17231e-07
5.1754e-07
5.17993e-07
5.17293e-07
5.16033e-07
5.1552e-07
5.15644e-07
5.15478e-07
5.14808e-07
5.14088e-07
5.13558e-07
5.13086e-07
5.12537e-07
5.1193e-07
5.11315e-07
5.10704e-07
5.10084e-07
5.09453e-07
5.08814e-07
5.08171e-07
5.07526e-07
5.06881e-07
5.06236e-07
5.05595e-07
5.04958e-07
5.04328e-07
5.03707e-07
5.03096e-07
5.02498e-07
5.01914e-07
5.01348e-07
5.00801e-07
5.00277e-07
4.99777e-07
4.99304e-07
4.98863e-07
4.98455e-07
4.98085e-07
4.97757e-07
4.97474e-07
4.97242e-07
4.97066e-07
4.9695e-07
4.96903e-07
4.96928e-07
4.97034e-07
4.9723e-07
4.9752e-07
4.97921e-07
4.98437e-07
4.99084e-07
4.99877e-07
5.00832e-07
5.01976e-07
5.19426e-07
5.19388e-07
5.19223e-07
5.1911e-07
5.19084e-07
5.18572e-07
5.17976e-07
5.1826e-07
5.18685e-07
5.17955e-07
5.16661e-07
5.16113e-07
5.16201e-07
5.15998e-07
5.1529e-07
5.14531e-07
5.13962e-07
5.1345e-07
5.12862e-07
5.12215e-07
5.1156e-07
5.10909e-07
5.10249e-07
5.09578e-07
5.08899e-07
5.08216e-07
5.07531e-07
5.06844e-07
5.06158e-07
5.05474e-07
5.04793e-07
5.04118e-07
5.0345e-07
5.0279e-07
5.0214e-07
5.01501e-07
5.00877e-07
5.00268e-07
4.99677e-07
4.99105e-07
4.98555e-07
4.98029e-07
4.97531e-07
4.97061e-07
4.96625e-07
4.96224e-07
4.95861e-07
4.95543e-07
4.9527e-07
4.9505e-07
4.94885e-07
4.94782e-07
4.94747e-07
4.94782e-07
4.94903e-07
4.95109e-07
4.95412e-07
4.95834e-07
4.96379e-07
4.97092e-07
5.2057e-07
5.20527e-07
5.2035e-07
5.2022e-07
5.20172e-07
5.19631e-07
5.19003e-07
5.19249e-07
5.19634e-07
5.18859e-07
5.17518e-07
5.1692e-07
5.16957e-07
5.16702e-07
5.15941e-07
5.15128e-07
5.14504e-07
5.13938e-07
5.13296e-07
5.12595e-07
5.11887e-07
5.11182e-07
5.1047e-07
5.09746e-07
5.09015e-07
5.0828e-07
5.07543e-07
5.06804e-07
5.06064e-07
5.05326e-07
5.0459e-07
5.03858e-07
5.0313e-07
5.02408e-07
5.01693e-07
5.00988e-07
5.00292e-07
4.99607e-07
4.98934e-07
4.98274e-07
4.97629e-07
4.97001e-07
4.96391e-07
4.958e-07
4.95231e-07
4.94685e-07
4.94164e-07
4.93673e-07
4.93209e-07
4.9278e-07
4.92385e-07
4.92028e-07
4.91715e-07
4.91442e-07
4.91226e-07
4.9106e-07
4.90953e-07
4.9093e-07
4.90987e-07
4.91184e-07
5.22075e-07
5.22024e-07
5.21831e-07
5.21676e-07
5.21595e-07
5.21015e-07
5.2034e-07
5.20533e-07
5.20861e-07
5.20026e-07
5.18619e-07
5.17953e-07
5.17921e-07
5.17596e-07
5.16764e-07
5.15879e-07
5.15185e-07
5.14548e-07
5.13837e-07
5.13067e-07
5.12292e-07
5.11521e-07
5.10744e-07
5.09956e-07
5.09162e-07
5.08364e-07
5.07564e-07
5.06763e-07
5.05961e-07
5.0516e-07
5.0436e-07
5.03562e-07
5.02767e-07
5.01975e-07
5.01188e-07
5.00406e-07
4.99628e-07
4.98856e-07
4.98091e-07
4.97333e-07
4.96582e-07
4.95839e-07
4.95104e-07
4.94379e-07
4.93662e-07
4.92957e-07
4.9226e-07
4.91577e-07
4.90901e-07
4.90242e-07
4.89592e-07
4.88956e-07
4.88338e-07
4.87727e-07
4.87141e-07
4.86568e-07
4.86013e-07
4.85506e-07
4.85033e-07
4.84668e-07
5.24001e-07
5.23939e-07
5.23722e-07
5.23532e-07
5.23405e-07
5.22768e-07
5.22027e-07
5.22147e-07
5.22396e-07
5.21477e-07
5.19981e-07
5.19223e-07
5.19099e-07
5.18683e-07
5.17759e-07
5.16783e-07
5.15998e-07
5.15274e-07
5.14477e-07
5.13623e-07
5.12767e-07
5.11917e-07
5.11063e-07
5.102e-07
5.09333e-07
5.08464e-07
5.07594e-07
5.06723e-07
5.05853e-07
5.04982e-07
5.04112e-07
5.03244e-07
5.02376e-07
5.01511e-07
5.00646e-07
4.99782e-07
4.98919e-07
4.98057e-07
4.97196e-07
4.96335e-07
4.95474e-07
4.94612e-07
4.93749e-07
4.92884e-07
4.92016e-07
4.91145e-07
4.90268e-07
4.89388e-07
4.88495e-07
4.876e-07
4.86689e-07
4.85767e-07
4.84835e-07
4.83877e-07
4.82913e-07
4.81925e-07
4.80914e-07
4.79912e-07
4.78899e-07
4.77959e-07
5.26436e-07
5.26357e-07
5.26106e-07
5.25865e-07
5.2567e-07
5.24952e-07
5.24117e-07
5.24133e-07
5.24273e-07
5.23239e-07
5.21624e-07
5.20743e-07
5.20498e-07
5.19964e-07
5.18921e-07
5.17829e-07
5.16932e-07
5.161e-07
5.15199e-07
5.14246e-07
5.13293e-07
5.12352e-07
5.11411e-07
5.10465e-07
5.09517e-07
5.08571e-07
5.07625e-07
5.06681e-07
5.05738e-07
5.04796e-07
5.03855e-07
5.02914e-07
5.01974e-07
5.01033e-07
5.00092e-07
4.99149e-07
4.98203e-07
4.97252e-07
4.96296e-07
4.95335e-07
4.94367e-07
4.9339e-07
4.92403e-07
4.91404e-07
4.9039e-07
4.89361e-07
4.8831e-07
4.87241e-07
4.86141e-07
4.85019e-07
4.83858e-07
4.82662e-07
4.81429e-07
4.80139e-07
4.78811e-07
4.77422e-07
4.75969e-07
4.74488e-07
4.72948e-07
4.71442e-07
5.29507e-07
5.294e-07
5.29095e-07
5.28774e-07
5.28477e-07
5.27637e-07
5.26665e-07
5.26534e-07
5.26522e-07
5.25333e-07
5.23557e-07
5.22516e-07
5.22117e-07
5.21432e-07
5.20242e-07
5.19005e-07
5.17971e-07
5.17009e-07
5.15986e-07
5.14916e-07
5.13854e-07
5.1281e-07
5.11771e-07
5.10734e-07
5.097e-07
5.08672e-07
5.07649e-07
5.0663e-07
5.05615e-07
5.04602e-07
5.03592e-07
5.02582e-07
5.01572e-07
5.00561e-07
4.99549e-07
4.98533e-07
4.97513e-07
4.96478e-07
4.95435e-07
4.94382e-07
4.93318e-07
4.92238e-07
4.9114e-07
4.90021e-07
4.88878e-07
4.87708e-07
4.86504e-07
4.85268e-07
4.83985e-07
4.82662e-07
4.8128e-07
4.7984e-07
4.78339e-07
4.76751e-07
4.75094e-07
4.73341e-07
4.71484e-07
4.69558e-07
4.67524e-07
4.65477e-07
5.33425e-07
5.3327e-07
5.32871e-07
5.32413e-07
5.31944e-07
5.30907e-07
5.29719e-07
5.29366e-07
5.29133e-07
5.27723e-07
5.25724e-07
5.24463e-07
5.23856e-07
5.22976e-07
5.21599e-07
5.20185e-07
5.18987e-07
5.17875e-07
5.16714e-07
5.15518e-07
5.1434e-07
5.13191e-07
5.12057e-07
5.10932e-07
5.09818e-07
5.08715e-07
5.07621e-07
5.06536e-07
5.05457e-07
5.04383e-07
5.03311e-07
5.02242e-07
5.01171e-07
5.00099e-07
4.99021e-07
4.97938e-07
4.96844e-07
4.95749e-07
4.9464e-07
4.93515e-07
4.92373e-07
4.91209e-07
4.90022e-07
4.88807e-07
4.87561e-07
4.86279e-07
4.84954e-07
4.83585e-07
4.82157e-07
4.80675e-07
4.79118e-07
4.77483e-07
4.75767e-07
4.73938e-07
4.72012e-07
4.69957e-07
4.67755e-07
4.65441e-07
4.62961e-07
4.60408e-07
5.38501e-07
5.38295e-07
5.37787e-07
5.37159e-07
5.36467e-07
5.35165e-07
5.33686e-07
5.33033e-07
5.32503e-07
5.30794e-07
5.28492e-07
5.26933e-07
5.26047e-07
5.24907e-07
5.23281e-07
5.21632e-07
5.20217e-07
5.1891e-07
5.17571e-07
5.16214e-07
5.14892e-07
5.13614e-07
5.12366e-07
5.11139e-07
5.09934e-07
5.08749e-07
5.07583e-07
5.06431e-07
5.05291e-07
5.0416e-07
5.03035e-07
5.01913e-07
5.00793e-07
4.99671e-07
4.98545e-07
4.97414e-07
4.96273e-07
4.95122e-07
4.93957e-07
4.92776e-07
4.91575e-07
4.9035e-07
4.891e-07
4.87818e-07
4.86502e-07
4.85146e-07
4.83741e-07
4.82288e-07
4.80768e-07
4.79184e-07
4.77518e-07
4.75758e-07
4.73902e-07
4.71915e-07
4.69804e-07
4.67538e-07
4.65083e-07
4.62465e-07
4.59629e-07
4.56625e-07
5.44694e-07
5.44261e-07
5.43382e-07
5.42288e-07
5.41092e-07
5.39297e-07
5.37355e-07
5.36275e-07
5.35348e-07
5.33256e-07
5.30577e-07
5.28662e-07
5.27456e-07
5.26024e-07
5.24129e-07
5.22238e-07
5.20619e-07
5.19145e-07
5.17671e-07
5.16207e-07
5.14804e-07
5.13466e-07
5.12173e-07
5.10913e-07
5.09682e-07
5.08478e-07
5.07294e-07
5.06125e-07
5.04969e-07
5.0382e-07
5.02675e-07
5.01533e-07
5.0039e-07
4.99243e-07
4.9809e-07
4.9693e-07
4.9576e-07
4.94576e-07
4.93382e-07
4.92168e-07
4.90933e-07
4.89675e-07
4.8839e-07
4.87075e-07
4.85724e-07
4.84336e-07
4.829e-07
4.81418e-07
4.79871e-07
4.78261e-07
4.76571e-07
4.74783e-07
4.72902e-07
4.70872e-07
4.68709e-07
4.66361e-07
4.63796e-07
4.61011e-07
4.57935e-07
4.54596e-07
5.56054e-07
5.55293e-07
5.53766e-07
5.51781e-07
5.49586e-07
5.4682e-07
5.44016e-07
5.42189e-07
5.4058e-07
5.37823e-07
5.34505e-07
5.32017e-07
5.30309e-07
5.28419e-07
5.26096e-07
5.23821e-07
5.21874e-07
5.2012e-07
5.18409e-07
5.16747e-07
5.15181e-07
5.13709e-07
5.12308e-07
5.10959e-07
5.09655e-07
5.0839e-07
5.07156e-07
5.05946e-07
5.04753e-07
5.03573e-07
5.02402e-07
5.01236e-07
5.00071e-07
4.98904e-07
4.97733e-07
4.96555e-07
4.95366e-07
4.94166e-07
4.92948e-07
4.91716e-07
4.90467e-07
4.89196e-07
4.87903e-07
4.86583e-07
4.85233e-07
4.83852e-07
4.82432e-07
4.80973e-07
4.79466e-07
4.77901e-07
4.7629e-07
4.74565e-07
4.72816e-07
4.70883e-07
4.68886e-07
4.667e-07
4.64271e-07
4.61611e-07
4.5864e-07
4.55092e-07
5.64371e-07
5.62625e-07
5.59849e-07
5.56653e-07
5.53473e-07
5.50018e-07
5.46716e-07
5.44398e-07
5.42281e-07
5.39065e-07
5.35321e-07
5.32348e-07
5.30085e-07
5.27651e-07
5.24877e-07
5.22266e-07
5.20095e-07
5.18236e-07
5.1653e-07
5.14955e-07
5.13522e-07
5.12207e-07
5.10966e-07
5.09774e-07
5.08616e-07
5.0748e-07
5.06358e-07
5.05243e-07
5.0413e-07
5.03015e-07
5.01896e-07
5.00771e-07
4.99637e-07
4.98494e-07
4.97341e-07
4.96175e-07
4.94997e-07
4.93805e-07
4.92599e-07
4.91374e-07
4.90133e-07
4.8887e-07
4.87593e-07
4.86287e-07
4.84972e-07
4.83619e-07
4.82261e-07
4.80862e-07
4.79453e-07
4.78e-07
4.76568e-07
4.74982e-07
4.73556e-07
4.71804e-07
4.7025e-07
4.68472e-07
4.66655e-07
4.64316e-07
4.62576e-07
4.58925e-07
6.12203e-07
5.98046e-07
5.84161e-07
5.73493e-07
5.6604e-07
5.60382e-07
5.55749e-07
5.51965e-07
5.48134e-07
5.43647e-07
5.39304e-07
5.35878e-07
5.3292e-07
5.2979e-07
5.26562e-07
5.23624e-07
5.21096e-07
5.18878e-07
5.16897e-07
5.15137e-07
5.13574e-07
5.12162e-07
5.10857e-07
5.09626e-07
5.08445e-07
5.07296e-07
5.06168e-07
5.05051e-07
5.03938e-07
5.02824e-07
5.01708e-07
5.00585e-07
4.99455e-07
4.98315e-07
4.97165e-07
4.96002e-07
4.94827e-07
4.93638e-07
4.92435e-07
4.91215e-07
4.89983e-07
4.88729e-07
4.87472e-07
4.8618e-07
4.84905e-07
4.83575e-07
4.8229e-07
4.80942e-07
4.79637e-07
4.78329e-07
4.77003e-07
4.75757e-07
4.74619e-07
4.73278e-07
4.72592e-07
4.71265e-07
4.70983e-07
4.69876e-07
4.70559e-07
4.67489e-07
4.8683e-07
4.2601e-07
3.91845e-07
3.7199e-07
3.60199e-07
3.50069e-07
3.3688e-07
3.19228e-07
2.981e-07
2.74881e-07
2.50526e-07
2.25797e-07
2.01557e-07
1.78733e-07
1.583e-07
1.40954e-07
1.27409e-07
1.17839e-07
1.12305e-07
1.10537e-07
1.11162e-07
1.15444e-07
1.18302e-07
1.27419e-07
1.2622e-07
1.4014e-07
1.31872e-07
1.43941e-07
1.37709e-07
9.06205e-08
4.6329e-07
4.02404e-07
3.76234e-07
3.63851e-07
3.54879e-07
3.45319e-07
3.3129e-07
3.12918e-07
2.91785e-07
2.69092e-07
2.4555e-07
2.21829e-07
1.9875e-07
1.77037e-07
1.57529e-07
1.40862e-07
1.27799e-07
1.18424e-07
1.1275e-07
1.10817e-07
1.10791e-07
1.15021e-07
1.16726e-07
1.26477e-07
1.24941e-07
1.37369e-07
1.34412e-07
1.36932e-07
1.4563e-07
9.98887e-08
4.44715e-07
3.99761e-07
3.78572e-07
3.67061e-07
3.56744e-07
3.44008e-07
3.28394e-07
3.09665e-07
2.88641e-07
2.66138e-07
2.42818e-07
2.19362e-07
1.96544e-07
1.75096e-07
1.55945e-07
1.39672e-07
1.26946e-07
1.17845e-07
1.12329e-07
1.10512e-07
1.10361e-07
1.14727e-07
1.16304e-07
1.25279e-07
1.2552e-07
1.3412e-07
1.36463e-07
1.34935e-07
1.48148e-07
1.24156e-07
4.31459e-07
3.96658e-07
3.75621e-07
3.6375e-07
3.52781e-07
3.40134e-07
3.23946e-07
3.04816e-07
2.8379e-07
2.61493e-07
2.38464e-07
2.15359e-07
1.92984e-07
1.72055e-07
1.53444e-07
1.3764e-07
1.25321e-07
1.16538e-07
1.11277e-07
1.09586e-07
1.09643e-07
1.13721e-07
1.15935e-07
1.23407e-07
1.26037e-07
1.32052e-07
1.37752e-07
1.36705e-07
1.4808e-07
1.35882e-07
4.20287e-07
3.93768e-07
3.74578e-07
3.63001e-07
3.51968e-07
3.37767e-07
3.20286e-07
3.00639e-07
2.79561e-07
2.5733e-07
2.34412e-07
2.11491e-07
1.89381e-07
1.68751e-07
1.50456e-07
1.34967e-07
1.2299e-07
1.14487e-07
1.09547e-07
1.07953e-07
1.08402e-07
1.12084e-07
1.15221e-07
1.21577e-07
1.25964e-07
1.31386e-07
1.37604e-07
1.38594e-07
1.4665e-07
1.42997e-07
4.11572e-07
3.91517e-07
3.74002e-07
3.61307e-07
3.48972e-07
3.34062e-07
3.16098e-07
2.96162e-07
2.74992e-07
2.52763e-07
2.29899e-07
2.0709e-07
1.85159e-07
1.64753e-07
1.46727e-07
1.31527e-07
1.19919e-07
1.117e-07
1.07119e-07
1.05602e-07
1.06557e-07
1.09941e-07
1.14008e-07
1.19861e-07
1.2531e-07
1.3117e-07
1.36881e-07
1.39836e-07
1.46516e-07
1.46207e-07
4.05168e-07
3.89377e-07
3.7297e-07
3.59013e-07
3.45979e-07
3.30688e-07
3.12194e-07
2.91789e-07
2.70386e-07
2.48048e-07
2.25127e-07
2.02323e-07
1.80483e-07
1.60234e-07
1.42442e-07
1.27493e-07
1.16173e-07
1.08183e-07
1.03966e-07
1.02572e-07
1.04082e-07
1.07353e-07
1.12258e-07
1.18135e-07
1.24058e-07
1.30575e-07
1.35866e-07
1.39949e-07
1.46324e-07
1.47603e-07
4.00285e-07
3.86941e-07
3.71484e-07
3.56683e-07
3.4283e-07
3.27048e-07
3.08078e-07
2.87219e-07
2.65517e-07
2.42988e-07
2.19927e-07
1.97047e-07
1.75214e-07
1.55045e-07
1.37407e-07
1.22643e-07
1.11574e-07
1.03846e-07
1.00038e-07
9.87874e-08
1.00885e-07
1.04238e-07
1.09843e-07
1.16117e-07
1.22233e-07
1.29651e-07
1.34957e-07
1.39559e-07
1.46246e-07
1.48504e-07
3.96421e-07
3.84315e-07
3.69696e-07
3.54204e-07
3.39426e-07
3.23181e-07
3.03825e-07
2.82481e-07
2.60386e-07
2.37575e-07
2.14286e-07
1.91235e-07
1.69323e-07
1.49163e-07
1.3162e-07
1.17016e-07
1.06223e-07
9.86813e-08
9.52593e-08
9.42162e-08
9.69087e-08
1.00548e-07
1.06727e-07
1.13623e-07
1.19839e-07
1.27922e-07
1.33696e-07
1.38602e-07
1.45737e-07
1.48782e-07
3.93418e-07
3.8166e-07
3.67562e-07
3.51534e-07
3.35857e-07
3.19139e-07
2.99388e-07
2.77501e-07
2.54898e-07
2.317e-07
2.08085e-07
1.8477e-07
1.62687e-07
1.42457e-07
1.2495e-07
1.10452e-07
9.98318e-08
9.24843e-08
8.95308e-08
8.87538e-08
9.20348e-08
9.6126e-08
1.02759e-07
1.10396e-07
1.16847e-07
1.25524e-07
1.32188e-07
1.37305e-07
1.44879e-07
1.48885e-07
3.91014e-07
3.78982e-07
3.65114e-07
3.48717e-07
3.32091e-07
3.14777e-07
2.94614e-07
2.72143e-07
2.48932e-07
2.25252e-07
2.01227e-07
1.7756e-07
1.5522e-07
1.34855e-07
1.17323e-07
1.02891e-07
9.25104e-08
8.54006e-08
8.27797e-08
8.23243e-08
8.61611e-08
9.08472e-08
9.78815e-08
1.06356e-07
1.13235e-07
1.22379e-07
1.30089e-07
1.35577e-07
1.43515e-07
1.48497e-07
3.88895e-07
3.76287e-07
3.62395e-07
3.45665e-07
3.28055e-07
3.10034e-07
2.8945e-07
2.66364e-07
2.42431e-07
2.18149e-07
1.93614e-07
1.69494e-07
1.46795e-07
1.2621e-07
1.08587e-07
9.41675e-08
8.39089e-08
7.70148e-08
7.48351e-08
7.47635e-08
7.91318e-08
8.45418e-08
9.19526e-08
1.01279e-07
1.08842e-07
1.18406e-07
1.27302e-07
1.33401e-07
1.41663e-07
1.47731e-07
3.86882e-07
3.73598e-07
3.59405e-07
3.42339e-07
3.23736e-07
3.04858e-07
2.8377e-07
2.60009e-07
2.35222e-07
2.10205e-07
1.85065e-07
1.60406e-07
1.37259e-07
1.1638e-07
9.86113e-08
8.41652e-08
7.40481e-08
6.73176e-08
6.55529e-08
6.59341e-08
7.08014e-08
7.70185e-08
8.48387e-08
9.50442e-08
1.03539e-07
1.13534e-07
1.23639e-07
1.30609e-07
1.39212e-07
1.46353e-07
3.84924e-07
3.70917e-07
3.56141e-07
3.38702e-07
3.19096e-07
2.99148e-07
2.7741e-07
2.52925e-07
2.2718e-07
2.01293e-07
1.7544e-07
1.50146e-07
1.26447e-07
1.05185e-07
8.71992e-08
7.26737e-08
6.26701e-08
5.61026e-08
5.47283e-08
5.5622e-08
6.09501e-08
6.80573e-08
7.63826e-08
8.74588e-08
9.71039e-08
1.07604e-07
1.18902e-07
1.27039e-07
1.36071e-07
1.4428e-07
3.82994e-07
3.68224e-07
3.52596e-07
3.34671e-07
3.14048e-07
2.92803e-07
2.7021e-07
2.44941e-07
2.18133e-07
1.91204e-07
1.645e-07
1.38472e-07
1.14123e-07
9.23843e-08
7.41237e-08
5.94636e-08
4.95564e-08
4.3145e-08
4.21366e-08
4.35987e-08
4.93519e-08
5.74112e-08
6.63613e-08
7.82848e-08
8.92786e-08
1.00436e-07
1.1289e-07
1.22454e-07
1.32089e-07
1.41316e-07
3.81022e-07
3.65468e-07
3.48731e-07
3.30127e-07
3.08466e-07
2.85705e-07
2.61978e-07
2.35816e-07
2.07839e-07
1.79688e-07
1.5198e-07
1.25121e-07
1.0003e-07
7.7714e-08
5.91148e-08
4.42581e-08
3.44267e-08
2.81688e-08
2.74817e-08
2.95741e-08
3.57237e-08
4.47624e-08
5.44991e-08
6.72422e-08
7.97381e-08
9.17696e-08
1.05346e-07
1.16559e-07
1.27047e-07
1.37262e-07
3.78899e-07
3.62551e-07
3.44471e-07
3.24906e-07
3.02154e-07
2.77689e-07
2.52486e-07
2.25252e-07
1.96006e-07
1.66454e-07
1.37558e-07
1.09751e-07
8.38326e-08
6.08312e-08
4.18283e-08
2.67144e-08
1.69307e-08
1.08376e-08
1.04043e-08
1.31897e-08
1.97262e-08
2.97358e-08
4.04535e-08
5.39852e-08
6.8073e-08
8.1261e-08
9.59482e-08
1.08983e-07
1.20647e-07
1.31859e-07
3.76483e-07
3.59319e-07
3.39695e-07
3.18798e-07
2.94841e-07
2.68534e-07
2.41473e-07
2.1289e-07
1.82258e-07
1.51128e-07
1.20828e-07
9.1927e-08
6.51057e-08
4.13134e-08
2.1841e-08
6.41365e-09
-3.37209e-09
-9.26258e-09
-9.53089e-09
-6.00448e-09
9.4983e-10
1.18725e-08
2.3773e-08
3.80911e-08
5.37763e-08
6.84511e-08
8.42958e-08
9.92423e-08
1.12464e-07
1.24771e-07
3.73606e-07
3.55544e-07
3.34212e-07
3.11541e-07
2.86166e-07
2.57917e-07
2.28608e-07
1.98281e-07
1.66103e-07
1.33232e-07
1.01293e-07
7.11063e-08
4.33087e-08
1.86315e-08
-1.38545e-09
-1.71665e-08
-2.7033e-08
-3.26502e-08
-3.27554e-08
-2.85671e-08
-2.11101e-08
-9.38691e-09
3.85767e-09
1.90277e-08
3.62258e-08
5.27039e-08
6.98523e-08
8.67387e-08
1.01914e-07
1.15554e-07
3.70096e-07
3.50935e-07
3.27758e-07
3.02838e-07
2.75667e-07
2.45355e-07
2.13448e-07
1.80876e-07
1.46905e-07
1.1214e-07
7.83273e-08
4.6612e-08
1.7743e-08
-7.88655e-09
-2.85373e-08
-4.46883e-08
-5.47467e-08
-6.00301e-08
-6.01196e-08
-5.51817e-08
-4.71153e-08
-3.4731e-08
-2.00666e-08
-3.88531e-09
1.46784e-08
3.31642e-08
5.18746e-08
7.06583e-08
8.81242e-08
1.03493e-07
3.65745e-07
3.45075e-07
3.19864e-07
2.92226e-07
2.62694e-07
2.30116e-07
1.95345e-07
1.59967e-07
1.23825e-07
8.7008e-08
5.11205e-08
1.75949e-08
-1.24956e-08
-3.91054e-08
-6.04878e-08
-7.69935e-08
-8.73698e-08
-9.22997e-08
-9.22785e-08
-8.68586e-08
-7.79522e-08
-6.50666e-08
-4.90483e-08
-3.15899e-08
-1.17989e-08
8.74284e-09
2.94353e-08
5.02223e-08
7.0189e-08
8.77158e-08
3.60358e-07
3.37531e-07
3.09967e-07
2.79138e-07
2.46463e-07
2.11188e-07
1.73328e-07
1.34602e-07
9.57495e-08
5.66687e-08
1.85659e-08
-1.7035e-08
-4.85867e-08
-7.61701e-08
-9.83648e-08