/*--------------------------------*- C++ -*----------------------------------*\
| =========                 |                                                 |
| \\      /  F ield         | OpenFOAM: The Open Source CFD Toolbox           |
|  \\    /   O peration     | Version:  2312                                  |
|   \\  /    A nd           | Website:  www.openfoam.com                      |
|    \\/     M anipulation  |                                                 |
\*---------------------------------------------------------------------------*/
FoamFile
{
    version     2.0;
    format      ascii;
    arch        "LSB;label=32;scalar=64";
    class       volVectorField;
    location    "4000";
    object      U;
}
// * * * * * * * * * * * * * * * * * * * * * * * * * * * * * * * * * * * * * //

dimensions      [0 1 -1 0 0 0 0];

internalField   nonuniform List<vector> 
10800
(
(0.00099255 4.93774e-06 0)
(0.000989984 1.24185e-05 0)
(0.000987024 1.72849e-05 0)
(0.000980925 2.0408e-05 0)
(0.000971314 2.25869e-05 0)
(0.000960451 2.41603e-05 0)
(0.000948869 2.51072e-05 0)
(0.000935855 2.54865e-05 0)
(0.000923228 2.57059e-05 0)
(0.000912279 2.62299e-05 0)
(0.000901039 2.70001e-05 0)
(0.000888003 2.73093e-05 0)
(0.000874455 2.64053e-05 0)
(0.000861999 2.41371e-05 0)
(0.000850846 2.09364e-05 0)
(0.000840792 1.73851e-05 0)
(0.00083203 1.39382e-05 0)
(0.000824793 1.08831e-05 0)
(0.000819007 8.3552e-06 0)
(0.000814422 6.36127e-06 0)
(0.0008108 4.83083e-06 0)
(0.000807953 3.67171e-06 0)
(0.000805719 2.79941e-06 0)
(0.000803958 2.14407e-06 0)
(0.000802561 1.65025e-06 0)
(0.000801444 1.27564e-06 0)
(0.000800547 9.88942e-07 0)
(0.000799823 7.67174e-07 0)
(0.000799238 5.93487e-07 0)
(0.000798766 4.55489e-07 0)
(0.000798388 3.44049e-07 0)
(0.000798089 2.52433e-07 0)
(0.000797857 1.75686e-07 0)
(0.000797685 1.10134e-07 0)
(0.000797565 5.31455e-08 0)
(0.000797491 2.69994e-09 0)
(0.000797462 -4.25251e-08 0)
(0.000797467 -8.43037e-08 0)
(0.000797522 -1.22708e-07 0)
(0.00079758 -1.57532e-07 0)
(0.000797731 -1.89918e-07 0)
(0.000797787 -2.12978e-07 0)
(0.000798106 -2.48966e-07 0)
(0.00079801 -2.35213e-07 0)
(0.00079871 -3.1488e-07 0)
(0.000798107 -1.93678e-07 0)
(0.00079965 -3.72731e-07 0)
(0.000797903 -1.51009e-07 0)
(0.000800989 -1.63533e-07 0)
(0.000797248 -4.89048e-07 0)
(0.000802748 8.03334e-07 0)
(0.000795811 -1.19704e-06 0)
(0.000805278 1.76315e-06 0)
(0.000792529 -5.37393e-07 0)
(0.000809492 1.9318e-06 0)
(0.000785597 -4.86793e-08 0)
(0.00081717 6.16988e-06 0)
(0.000771251 -2.70394e-06 0)
(0.000832572 1.31718e-05 0)
(0.0007448 -3.55913e-06 0)
(0.00100011 5.74705e-06 0)
(0.00100164 1.48454e-05 0)
(0.00100439 2.11442e-05 0)
(0.00100745 2.54996e-05 0)
(0.00100977 2.87622e-05 0)
(0.00101275 3.13606e-05 0)
(0.00101579 3.34095e-05 0)
(0.00101669 3.48591e-05 0)
(0.00101683 3.57931e-05 0)
(0.00101877 3.66653e-05 0)
(0.00102147 3.78501e-05 0)
(0.00102267 3.90164e-05 0)
(0.00102266 3.93315e-05 0)
(0.00102279 3.82056e-05 0)
(0.00102308 3.56102e-05 0)
(0.00102281 3.18838e-05 0)
(0.00102185 2.75079e-05 0)
(0.0010206 2.2991e-05 0)
(0.00101933 1.87585e-05 0)
(0.00101807 1.5066e-05 0)
(0.00101683 1.19989e-05 0)
(0.00101564 9.53239e-06 0)
(0.00101456 7.58871e-06 0)
(0.00101358 6.07301e-06 0)
(0.0010127 4.89291e-06 0)
(0.00101191 3.96884e-06 0)
(0.00101121 3.23729e-06 0)
(0.0010106 2.64974e-06 0)
(0.00101007 2.1699e-06 0)
(0.00100961 1.77094e-06 0)
(0.00100921 1.43314e-06 0)
(0.00100888 1.14198e-06 0)
(0.00100861 8.86821e-07 0)
(0.00100839 6.59539e-07 0)
(0.00100822 4.54715e-07 0)
(0.0010081 2.66863e-07 0)
(0.00100803 9.5469e-08 0)
(0.001008 -6.77259e-08 0)
(0.00100802 -2.10269e-07 0)
(0.00100807 -3.62614e-07 0)
(0.00100817 -4.69622e-07 0)
(0.00100829 -6.33935e-07 0)
(0.0010085 -6.80108e-07 0)
(0.00100862 -8.74387e-07 0)
(0.00100901 -8.58136e-07 0)
(0.00100902 -1.00742e-06 0)
(0.00100976 -1.08182e-06 0)
(0.00100943 -9.0971e-07 0)
(0.00101072 -1.28789e-06 0)
(0.00100993 -8.23567e-07 0)
(0.00101179 -7.7775e-07 0)
(0.0010105 -1.34169e-06 0)
(0.00101333 6.02074e-07 0)
(0.00101027 -9.69464e-07 0)
(0.00101661 7.29458e-07 0)
(0.00100852 1.83084e-06 0)
(0.00102115 2.14028e-06 0)
(0.00100715 2.93853e-06 0)
(0.00102683 7.2666e-06 0)
(0.0010041 7.45812e-06 0)
(0.00100007 1.88669e-06 0)
(0.00100067 5.54665e-06 0)
(0.00100237 8.87024e-06 0)
(0.00100456 1.17952e-05 0)
(0.00100634 1.43953e-05 0)
(0.0010093 1.6712e-05 0)
(0.00101275 1.86715e-05 0)
(0.00101423 2.02032e-05 0)
(0.00101509 2.14269e-05 0)
(0.00101793 2.26031e-05 0)
(0.00102167 2.38745e-05 0)
(0.00102402 2.50935e-05 0)
(0.00102532 2.59063e-05 0)
(0.00102701 2.59849e-05 0)
(0.00102906 2.51963e-05 0)
(0.00103056 2.36262e-05 0)
(0.00103121 2.15045e-05 0)
(0.00103131 1.91085e-05 0)
(0.00103112 1.66826e-05 0)
(0.00103066 1.43965e-05 0)
(0.00102996 1.23406e-05 0)
(0.00102913 1.05451e-05 0)
(0.00102825 9.00285e-06 0)
(0.00102738 7.68808e-06 0)
(0.00102654 6.56819e-06 0)
(0.00102577 5.61087e-06 0)
(0.00102506 4.78733e-06 0)
(0.00102443 4.07327e-06 0)
(0.00102387 3.44874e-06 0)
(0.00102338 2.89751e-06 0)
(0.00102296 2.40648e-06 0)
(0.00102261 1.96506e-06 0)
(0.00102232 1.56467e-06 0)
(0.00102209 1.1983e-06 0)
(0.00102191 8.6029e-07 0)
(0.00102178 5.45951e-07 0)
(0.0010217 2.51564e-07 0)
(0.00102166 -2.61631e-08 0)
(0.00102167 -2.88973e-07 0)
(0.00102172 -5.4058e-07 0)
(0.00102181 -7.78126e-07 0)
(0.00102194 -1.01124e-06 0)
(0.00102211 -1.22184e-06 0)
(0.00102233 -1.44291e-06 0)
(0.00102258 -1.61566e-06 0)
(0.0010229 -1.82701e-06 0)
(0.00102323 -1.95507e-06 0)
(0.00102364 -2.12056e-06 0)
(0.00102412 -2.25781e-06 0)
(0.00102456 -2.22392e-06 0)
(0.00102526 -2.53273e-06 0)
(0.00102581 -2.09902e-06 0)
(0.00102656 -2.52305e-06 0)
(0.00102753 -2.02116e-06 0)
(0.00102843 -1.82312e-06 0)
(0.00102927 -1.641e-06 0)
(0.00103158 -1.46094e-06 0)
(0.00103173 6.13941e-07 0)
(0.00103527 -1.22913e-06 0)
(0.00103619 2.13834e-06 0)
(0.0010001 1.65797e-06 0)
(0.00100034 4.91028e-06 0)
(0.00100137 7.96832e-06 0)
(0.00100266 1.07597e-05 0)
(0.00100342 1.32994e-05 0)
(0.00100541 1.5585e-05 0)
(0.00100802 1.75413e-05 0)
(0.0010088 1.91355e-05 0)
(0.00100905 2.04811e-05 0)
(0.00101131 2.17565e-05 0)
(0.00101447 2.30459e-05 0)
(0.00101627 2.42648e-05 0)
(0.00101709 2.51959e-05 0)
(0.00101841 2.55924e-05 0)
(0.00102027 2.53e-05 0)
(0.00102182 2.43224e-05 0)
(0.00102277 2.2795e-05 0)
(0.00102338 2.09113e-05 0)
(0.00102384 1.88608e-05 0)
(0.00102413 1.67962e-05 0)
(0.00102421 1.48217e-05 0)
(0.00102414 1.29966e-05 0)
(0.00102397 1.13456e-05 0)
(0.00102375 9.87147e-06 0)
(0.0010235 8.56442e-06 0)
(0.00102322 7.40868e-06 0)
(0.00102294 6.38644e-06 0)
(0.00102268 5.48003e-06 0)
(0.00102242 4.67301e-06 0)
(0.00102219 3.95062e-06 0)
(0.00102199 3.29992e-06 0)
(0.00102181 2.70965e-06 0)
(0.00102166 2.17012e-06 0)
(0.00102154 1.67299e-06 0)
(0.00102146 1.2112e-06 0)
(0.00102141 7.78546e-07 0)
(0.00102139 3.70158e-07 0)
(0.0010214 -1.89466e-08 0)
(0.00102145 -3.92264e-07 0)
(0.00102153 -7.52482e-07 0)
(0.00102166 -1.10119e-06 0)
(0.00102181 -1.43989e-06 0)
(0.00102202 -1.77374e-06 0)
(0.00102224 -2.09222e-06 0)
(0.00102255 -2.42372e-06 0)
(0.00102286 -2.71016e-06 0)
(0.00102326 -3.05709e-06 0)
(0.00102371 -3.29145e-06 0)
(0.00102419 -3.65846e-06 0)
(0.00102484 -3.84267e-06 0)
(0.0010254 -4.20355e-06 0)
(0.00102628 -4.31221e-06 0)
(0.00102704 -4.78778e-06 0)
(0.0010281 -4.49982e-06 0)
(0.00102919 -5.47913e-06 0)
(0.0010306 -4.66134e-06 0)
(0.00103194 -5.58251e-06 0)
(0.00103391 -5.38259e-06 0)
(0.00103584 -5.89245e-06 0)
(0.00103803 -4.49458e-06 0)
(0.00100009 1.06328e-06 0)
(0.00100009 3.16264e-06 0)
(0.00100074 5.16944e-06 0)
(0.00100155 7.05602e-06 0)
(0.00100181 8.8435e-06 0)
(0.00100329 1.05221e-05 0)
(0.00100543 1.20153e-05 0)
(0.00100576 1.32793e-05 0)
(0.00100562 1.43933e-05 0)
(0.00100753 1.54979e-05 0)
(0.00101034 1.66601e-05 0)
(0.0010118 1.78132e-05 0)
(0.00101232 1.87925e-05 0)
(0.00101342 1.94125e-05 0)
(0.00101514 1.95477e-05 0)
(0.00101667 1.91787e-05 0)
(0.00101771 1.83802e-05 0)
(0.00101851 1.72739e-05 0)
(0.00101924 1.59849e-05 0)
(0.00101984 1.46183e-05 0)
(0.00102025 1.32503e-05 0)
(0.00102051 1.19296e-05 0)
(0.00102067 1.06828e-05 0)
(0.00102074 9.52135e-06 0)
(0.00102076 8.4474e-06 0)
(0.00102073 7.45805e-06 0)
(0.00102067 6.5476e-06 0)
(0.0010206 5.70916e-06 0)
(0.00102052 4.93548e-06 0)
(0.00102044 4.21936e-06 0)
(0.00102037 3.55394e-06 0)
(0.0010203 2.93276e-06 0)
(0.00102025 2.34985e-06 0)
(0.00102022 1.79969e-06 0)
(0.0010202 1.2772e-06 0)
(0.00102021 7.77871e-07 0)
(0.00102024 2.97335e-07 0)
(0.00102029 -1.68134e-07 0)
(0.00102038 -6.21412e-07 0)
(0.00102048 -1.06588e-06 0)
(0.00102063 -1.50518e-06 0)
(0.00102079 -1.94024e-06 0)
(0.00102102 -2.37714e-06 0)
(0.00102124 -2.80981e-06 0)
(0.00102156 -3.25725e-06 0)
(0.00102186 -3.68757e-06 0)
(0.00102229 -4.16548e-06 0)
(0.0010227 -4.58095e-06 0)
(0.00102323 -5.12232e-06 0)
(0.00102382 -5.49797e-06 0)
(0.00102443 -6.14161e-06 0)
(0.00102529 -6.46543e-06 0)
(0.00102599 -7.22311e-06 0)
(0.00102713 -7.52295e-06 0)
(0.00102813 -8.43813e-06 0)
(0.00102936 -8.57998e-06 0)
(0.00103091 -1.0076e-05 0)
(0.00103241 -9.62656e-06 0)
(0.00103411 -1.18434e-05 0)
(0.00103638 -1.17806e-05 0)
(0.00100009 8.44773e-07 0)
(0.00100004 2.52515e-06 0)
(0.00100057 4.15794e-06 0)
(0.00100121 5.73007e-06 0)
(0.00100123 7.2567e-06 0)
(0.00100243 8.72013e-06 0)
(0.00100425 1.00523e-05 0)
(0.00100426 1.12168e-05 0)
(0.00100381 1.2273e-05 0)
(0.0010054 1.33243e-05 0)
(0.00100788 1.44133e-05 0)
(0.00100902 1.54774e-05 0)
(0.00100924 1.63833e-05 0)
(0.00101007 1.6989e-05 0)
(0.00101156 1.72005e-05 0)
(0.00101292 1.70028e-05 0)
(0.00101386 1.64505e-05 0)
(0.00101465 1.56337e-05 0)
(0.00101543 1.46459e-05 0)
(0.00101614 1.35667e-05 0)
(0.0010167 1.24562e-05 0)
(0.00101715 1.1355e-05 0)
(0.00101751 1.02879e-05 0)
(0.00101779 9.26852e-06 0)
(0.00101801 8.30315e-06 0)
(0.00101818 7.39348e-06 0)
(0.00101831 6.5384e-06 0)
(0.0010184 5.73512e-06 0)
(0.00101848 4.97987e-06 0)
(0.00101853 4.26835e-06 0)
(0.00101858 3.59602e-06 0)
(0.00101862 2.95826e-06 0)
(0.00101866 2.35054e-06 0)
(0.00101871 1.76844e-06 0)
(0.00101876 1.20773e-06 0)
(0.00101882 6.64207e-07 0)
(0.00101889 1.33896e-07 0)
(0.00101897 -3.86571e-07 0)
(0.00101908 -9.01195e-07 0)
(0.00101919 -1.41314e-06 0)
(0.00101934 -1.9264e-06 0)
(0.0010195 -2.44264e-06 0)
(0.00101972 -2.96872e-06 0)
(0.00101992 -3.50021e-06 0)
(0.00102022 -4.05573e-06 0)
(0.00102048 -4.60987e-06 0)
(0.00102087 -5.21703e-06 0)
(0.00102122 -5.79685e-06 0)
(0.00102171 -6.48445e-06 0)
(0.0010222 -7.0917e-06 0)
(0.00102277 -7.89638e-06 0)
(0.00102349 -8.52652e-06 0)
(0.00102413 -9.51248e-06 0)
(0.00102509 -1.01389e-05 0)
(0.00102592 -1.13871e-05 0)
(0.00102707 -1.20411e-05 0)
(0.00102825 -1.3547e-05 0)
(0.0010295 -1.42968e-05 0)
(0.00103108 -1.63689e-05 0)
(0.00103251 -1.66328e-05 0)
(0.00100009 6.56515e-07 0)
(0.000999985 1.96255e-06 0)
(0.00100043 3.23244e-06 0)
(0.00100092 4.46158e-06 0)
(0.00100077 5.66587e-06 0)
(0.00100178 6.83019e-06 0)
(0.00100338 7.90124e-06 0)
(0.00100318 8.85507e-06 0)
(0.00100251 9.74245e-06 0)
(0.00100391 1.06448e-05 0)
(0.00100619 1.15906e-05 0)
(0.00100713 1.2523e-05 0)
(0.00100716 1.33303e-05 0)
(0.00100782 1.38984e-05 0)
(0.00100916 1.4155e-05 0)
(0.00101038 1.40894e-05 0)
(0.00101124 1.37429e-05 0)
(0.00101198 1.31827e-05 0)
(0.00101275 1.24776e-05 0)
(0.00101347 1.16859e-05 0)
(0.00101408 1.08514e-05 0)
(0.0010146 1.00044e-05 0)
(0.00101504 9.16408e-06 0)
(0.00101543 8.34197e-06 0)
(0.00101575 7.5446e-06 0)
(0.00101602 6.77525e-06 0)
(0.00101625 6.03514e-06 0)
(0.00101644 5.32409e-06 0)
(0.00101661 4.64098e-06 0)
(0.00101675 3.98401e-06 0)
(0.00101687 3.3509e-06 0)
(0.00101698 2.73905e-06 0)
(0.00101708 2.14558e-06 0)
(0.00101717 1.56741e-06 0)
(0.00101726 1.00142e-06 0)
(0.00101735 4.44192e-07 0)
(0.00101744 -1.07537e-07 0)
(0.00101753 -6.56476e-07 0)
(0.00101764 -1.20651e-06 0)
(0.00101775 -1.76114e-06 0)
(0.00101788 -2.32411e-06 0)
(0.00101802 -2.8984e-06 0)
(0.00101819 -3.48974e-06 0)
(0.00101835 -4.09757e-06 0)
(0.00101859 -4.73599e-06 0)
(0.00101878 -5.38981e-06 0)
(0.0010191 -6.09987e-06 0)
(0.00101935 -6.81065e-06 0)
(0.00101974 -7.62226e-06 0)
(0.0010201 -8.40509e-06 0)
(0.00102054 -9.34931e-06 0)
(0.00102107 -1.02247e-05 0)
(0.00102156 -1.1348e-05 0)
(0.00102228 -1.23171e-05 0)
(0.00102291 -1.37093e-05 0)
(0.00102373 -1.47554e-05 0)
(0.00102464 -1.65168e-05 0)
(0.00102557 -1.76654e-05 0)
(0.0010266 -1.98535e-05 0)
(0.00102771 -2.12181e-05 0)
(0.00100009 5.16941e-07 0)
(0.000999956 1.54705e-06 0)
(0.00100034 2.55271e-06 0)
(0.00100075 3.53488e-06 0)
(0.0010005 4.5081e-06 0)
(0.00100139 5.45813e-06 0)
(0.00100286 6.3419e-06 0)
(0.00100251 7.14319e-06 0)
(0.00100169 7.90477e-06 0)
(0.00100294 8.68969e-06 0)
(0.00100508 9.51489e-06 0)
(0.00100587 1.03276e-05 0)
(0.00100576 1.10333e-05 0)
(0.00100628 1.154e-05 0)
(0.00100749 1.17926e-05 0)
(0.00100859 1.17852e-05 0)
(0.00100934 1.15516e-05 0)
(0.00101001 1.11443e-05 0)
(0.00101072 1.0616e-05 0)
(0.00101142 1.00109e-05 0)
(0.00101203 9.36192e-06 0)
(0.00101256 8.6918e-06 0)
(0.00101303 8.01537e-06 0)
(0.00101345 7.34192e-06 0)
(0.00101383 6.67718e-06 0)
(0.00101415 6.02459e-06 0)
(0.00101444 5.386e-06 0)
(0.00101469 4.76219e-06 0)
(0.0010149 4.15309e-06 0)
(0.00101509 3.558e-06 0)
(0.00101526 2.97571e-06 0)
(0.00101541 2.40461e-06 0)
(0.00101554 1.84268e-06 0)
(0.00101566 1.28765e-06 0)
(0.00101576 7.37039e-07 0)
(0.00101586 1.88068e-07 0)
(0.00101595 -3.61532e-07 0)
(0.00101604 -9.15576e-07 0)
(0.00101613 -1.47703e-06 0)
(0.00101621 -2.04949e-06 0)
(0.00101631 -2.63639e-06 0)
(0.0010164 -3.24178e-06 0)
(0.00101652 -3.87009e-06 0)
(0.00101661 -4.52414e-06 0)
(0.00101676 -5.21331e-06 0)
(0.00101686 -5.93215e-06 0)
(0.00101707 -6.70693e-06 0)
(0.00101718 -7.50785e-06 0)
(0.00101744 -8.39663e-06 0)
(0.00101762 -9.30415e-06 0)
(0.00101789 -1.03349e-05 0)
(0.0010182 -1.13804e-05 0)
(0.00101847 -1.25968e-05 0)
(0.00101892 -1.37945e-05 0)
(0.00101926 -1.52729e-05 0)
(0.00101975 -1.66408e-05 0)
(0.0010203 -1.84407e-05 0)
(0.00102079 -2.00276e-05 0)
(0.00102143 -2.22568e-05 0)
(0.00102199 -2.40203e-05 0)
(0.00100009 4.09434e-07 0)
(0.000999937 1.22613e-06 0)
(0.00100029 2.02519e-06 0)
(0.00100065 2.81016e-06 0)
(0.00100032 3.59352e-06 0)
(0.00100113 4.36198e-06 0)
(0.00100251 5.08074e-06 0)
(0.00100206 5.73975e-06 0)
(0.00100114 6.37613e-06 0)
(0.00100228 7.03947e-06 0)
(0.00100431 7.73878e-06 0)
(0.00100498 8.42626e-06 0)
(0.00100476 9.02278e-06 0)
(0.00100517 9.45461e-06 0)
(0.00100628 9.67998e-06 0)
(0.00100728 9.6969e-06 0)
(0.00100794 9.5337e-06 0)
(0.00100853 9.2319e-06 0)
(0.00100919 8.83227e-06 0)
(0.00100984 8.36819e-06 0)
(0.00101043 7.86423e-06 0)
(0.00101094 7.33721e-06 0)
(0.00101141 6.79807e-06 0)
(0.00101184 6.25378e-06 0)
(0.00101223 5.7088e-06 0)
(0.00101258 5.16599e-06 0)
(0.00101288 4.62711e-06 0)
(0.00101316 4.09314e-06 0)
(0.0010134 3.56439e-06 0)
(0.00101361 3.04066e-06 0)
(0.0010138 2.52128e-06 0)
(0.00101396 2.00517e-06 0)
(0.0010141 1.49093e-06 0)
(0.00101422 9.76914e-07 0)
(0.00101433 4.61042e-07 0)
(0.00101442 -5.88986e-08 0)
(0.00101449 -5.85024e-07 0)
(0.00101456 -1.1207e-06 0)
(0.00101462 -1.6687e-06 0)
(0.00101466 -2.23271e-06 0)
(0.0010147 -2.81564e-06 0)
(0.00101473 -3.42237e-06 0)
(0.00101477 -4.05583e-06 0)
(0.00101478 -4.72184e-06 0)
(0.00101483 -5.42489e-06 0)
(0.00101481 -6.16851e-06 0)
(0.00101488 -6.96474e-06 0)
(0.00101486 -7.80755e-06 0)
(0.00101494 -8.7228e-06 0)
(0.00101493 -9.69581e-06 0)
(0.00101499 -1.07543e-05 0)
(0.00101506 -1.18967e-05 0)
(0.00101508 -1.31376e-05 0)
(0.00101521 -1.44722e-05 0)
(0.00101525 -1.59661e-05 0)
(0.00101536 -1.75219e-05 0)
(0.00101551 -1.93132e-05 0)
(0.00101556 -2.11708e-05 0)
(0.00101571 -2.33098e-05 0)
(0.00101573 -2.55019e-05 0)
(0.00100009 3.22106e-07 0)
(0.000999925 9.65023e-07 0)
(0.00100025 1.59493e-06 0)
(0.00100058 2.21642e-06 0)
(0.00100021 2.83981e-06 0)
(0.00100096 3.45313e-06 0)
(0.00100227 4.02864e-06 0)
(0.00100174 4.56069e-06 0)
(0.00100075 5.08103e-06 0)
(0.00100182 5.62848e-06 0)
(0.00100376 6.20691e-06 0)
(0.00100435 6.77445e-06 0)
(0.00100405 7.26586e-06 0)
(0.00100437 7.62273e-06 0)
(0.00100539 7.81375e-06 0)
(0.00100631 7.83933e-06 0)
(0.0010069 7.72294e-06 0)
(0.00100742 7.49737e-06 0)
(0.00100802 7.19403e-06 0)
(0.00100863 6.8381e-06 0)
(0.00100918 6.44784e-06 0)
(0.00100967 6.03559e-06 0)
(0.00101012 5.60931e-06 0)
(0.00101054 5.17409e-06 0)
(0.00101092 4.73326e-06 0)
(0.00101127 4.28904e-06 0)
(0.00101158 3.84286e-06 0)
(0.00101185 3.39556e-06 0)
(0.0010121 2.94752e-06 0)
(0.00101231 2.49871e-06 0)
(0.0010125 2.04872e-06 0)
(0.00101266 1.59683e-06 0)
(0.0010128 1.14199e-06 0)
(0.00101291 6.8284e-07 0)
(0.001013 2.17668e-07 0)
(0.00101307 -2.55145e-07 0)
(0.00101312 -7.38226e-07 0)
(0.00101315 -1.23414e-06 0)
(0.00101316 -1.74529e-06 0)
(0.00101316 -2.27532e-06 0)
(0.00101314 -2.82664e-06 0)
(0.00101309 -3.40457e-06 0)
(0.00101305 -4.01068e-06 0)
(0.00101296 -4.65291e-06 0)
(0.0010129 -5.33158e-06 0)
(0.00101276 -6.0573e-06 0)
(0.00101268 -6.83e-06 0)
(0.0010125 -7.66297e-06 0)
(0.0010124 -8.5524e-06 0)
(0.0010122 -9.52676e-06 0)
(0.00101203 -1.05537e-05 0)
(0.00101184 -1.17121e-05 0)
(0.00101159 -1.29113e-05 0)
(0.0010114 -1.42828e-05 0)
(0.00101111 -1.57158e-05 0)
(0.00101084 -1.73413e-05 0)
(0.00101056 -1.90385e-05 0)
(0.00101017 -2.10146e-05 0)
(0.00100981 -2.30066e-05 0)
(0.0010093 -2.53903e-05 0)
(0.00100009 2.4867e-07 0)
(0.000999916 7.4524e-07 0)
(0.00100023 1.23228e-06 0)
(0.00100053 1.71449e-06 0)
(0.00100012 2.19995e-06 0)
(0.00100084 2.67833e-06 0)
(0.00100211 3.12808e-06 0)
(0.00100153 3.54648e-06 0)
(0.00100048 3.95975e-06 0)
(0.00100149 4.39758e-06 0)
(0.00100337 4.86069e-06 0)
(0.0010039 5.31392e-06 0)
(0.00100353 5.70511e-06 0)
(0.00100379 5.98913e-06 0)
(0.00100474 6.14303e-06 0)
(0.0010056 6.1685e-06 0)
(0.00100612 6.08448e-06 0)
(0.00100659 5.91637e-06 0)
(0.00100714 5.68799e-06 0)
(0.00100771 5.41812e-06 0)
(0.00100821 5.12014e-06 0)
(0.00100867 4.80294e-06 0)
(0.0010091 4.47221e-06 0)
(0.0010095 4.13157e-06 0)
(0.00100987 3.7834e-06 0)
(0.0010102 3.42927e-06 0)
(0.0010105 3.07026e-06 0)
(0.00101077 2.70701e-06 0)
(0.00101101 2.33982e-06 0)
(0.00101121 1.96869e-06 0)
(0.00101139 1.59333e-06 0)
(0.00101154 1.21317e-06 0)
(0.00101166 8.27365e-07 0)
(0.00101176 4.3475e-07 0)
(0.00101182 3.40236e-08 0)
(0.00101187 -3.76341e-07 0)
(0.00101188 -7.98485e-07 0)
(0.00101187 -1.23471e-06 0)
(0.00101184 -1.68706e-06 0)
(0.00101178 -2.15893e-06 0)
(0.00101169 -2.65219e-06 0)
(0.00101157 -3.17216e-06 0)
(0.00101144 -3.71935e-06 0)
(0.00101126 -4.3027e-06 0)
(0.00101108 -4.91951e-06 0)
(0.00101082 -5.58479e-06 0)
(0.0010106 -6.28981e-06 0)
(0.00101027 -7.06079e-06 0)
(0.00100998 -7.87313e-06 0)
(0.00100958 -8.78393e-06 0)
(0.00100919 -9.72091e-06 0)
(0.00100875 -1.08139e-05 0)
(0.00100823 -1.19055e-05 0)
(0.00100773 -1.32124e-05 0)
(0.00100711 -1.4511e-05 0)
(0.00100646 -1.60792e-05 0)
(0.00100577 -1.76042e-05 0)
(0.00100493 -1.95391e-05 0)
(0.00100408 -2.13029e-05 0)
(0.00100304 -2.36821e-05 0)
(0.00100009 1.84895e-07 0)
(0.00099991 5.54212e-07 0)
(0.00100021 9.16775e-07 0)
(0.00100049 1.2767e-06 0)
(0.00100007 1.63992e-06 0)
(0.00100076 1.9981e-06 0)
(0.00100199 2.33529e-06 0)
(0.00100137 2.65057e-06 0)
(0.00100028 2.96432e-06 0)
(0.00100126 3.29821e-06 0)
(0.0010031 3.65126e-06 0)
(0.00100357 3.99573e-06 0)
(0.00100316 4.29207e-06 0)
(0.00100337 4.50696e-06 0)
(0.00100427 4.62416e-06 0)
(0.00100508 4.64574e-06 0)
(0.00100555 4.58618e-06 0)
(0.00100597 4.46433e-06 0)
(0.00100648 4.2976e-06 0)
(0.00100701 4.09951e-06 0)
(0.00100749 3.87957e-06 0)
(0.00100792 3.64405e-06 0)
(0.00100832 3.39689e-06 0)
(0.0010087 3.14059e-06 0)
(0.00100905 2.87677e-06 0)
(0.00100936 2.60654e-06 0)
(0.00100965 2.3306e-06 0)
(0.0010099 2.04942e-06 0)
(0.00101013 1.7632e-06 0)
(0.00101032 1.47193e-06 0)
(0.00101049 1.17533e-06 0)
(0.00101062 8.72958e-07 0)
(0.00101072 5.64132e-07 0)
(0.00101079 2.4795e-07 0)
(0.00101084 -7.65667e-08 0)
(0.00101085 -4.1097e-07 0)
(0.00101083 -7.56785e-07 0)
(0.00101078 -1.1159e-06 0)
(0.0010107 -1.49e-06 0)
(0.00101058 -1.88201e-06 0)
(0.00101044 -2.29334e-06 0)
(0.00101025 -2.72878e-06 0)
(0.00101003 -3.18817e-06 0)
(0.00100976 -3.6802e-06 0)
(0.00100947 -4.20066e-06 0)
(0.00100911 -4.76571e-06 0)
(0.00100874 -5.36234e-06 0)
(0.00100828 -6.02197e-06 0)
(0.00100782 -6.70998e-06 0)
(0.00100725 -7.4951e-06 0)
(0.00100665 -8.28826e-06 0)
(0.00100598 -9.23713e-06 0)
(0.00100522 -1.016e-05 0)
(0.00100443 -1.13035e-05 0)
(0.00100351 -1.23982e-05 0)
(0.00100251 -1.37834e-05 0)
(0.00100144 -1.5062e-05 0)
(0.0010002 -1.67903e-05 0)
(0.00099888 -1.82539e-05 0)
(0.00099736 -2.04102e-05 0)
(0.00100009 1.27763e-07 0)
(0.000999906 3.82972e-07 0)
(0.0010002 6.33762e-07 0)
(0.00100047 8.83217e-07 0)
(0.00100003 1.1352e-06 0)
(0.0010007 1.38367e-06 0)
(0.00100191 1.61795e-06 0)
(0.00100127 1.83807e-06 0)
(0.00100015 2.05823e-06 0)
(0.0010011 2.29279e-06 0)
(0.00100291 2.5402e-06 0)
(0.00100335 2.78079e-06 0)
(0.0010029 2.98727e-06 0)
(0.00100308 3.13706e-06 0)
(0.00100395 3.21941e-06 0)
(0.00100471 3.23598e-06 0)
(0.00100515 3.19676e-06 0)
(0.00100554 3.11457e-06 0)
(0.00100602 3.0012e-06 0)
(0.00100651 2.86574e-06 0)
(0.00100696 2.71458e-06 0)
(0.00100737 2.5519e-06 0)
(0.00100775 2.38031e-06 0)
(0.00100811 2.20146e-06 0)
(0.00100844 2.01641e-06 0)
(0.00100874 1.82588e-06 0)
(0.00100901 1.63032e-06 0)
(0.00100926 1.43001e-06 0)
(0.00100947 1.22508e-06 0)
(0.00100965 1.01546e-06 0)
(0.00100979 8.00972e-07 0)
(0.00100991 5.81272e-07 0)
(0.00101 3.55843e-07 0)
(0.00101005 1.24028e-07 0)
(0.00101007 -1.14896e-07 0)
(0.00101005 -3.62147e-07 0)
(0.00101 -6.18793e-07 0)
(0.00100992 -8.8628e-07 0)
(0.0010098 -1.16586e-06 0)
(0.00100963 -1.45978e-06 0)
(0.00100943 -1.76901e-06 0)
(0.00100919 -2.09737e-06 0)
(0.0010089 -2.44442e-06 0)
(0.00100856 -2.81736e-06 0)
(0.00100818 -3.21196e-06 0)
(0.00100773 -3.64241e-06 0)
(0.00100724 -4.09572e-06 0)
(0.00100667 -4.60089e-06 0)
(0.00100606 -5.12396e-06 0)
(0.00100535 -5.72854e-06 0)
(0.00100458 -6.33143e-06 0)
(0.00100372 -7.06596e-06 0)
(0.00100276 -7.76695e-06 0)
(0.00100172 -8.6573e-06 0)
(0.00100055 -9.48742e-06 0)
(0.000999268 -1.05736e-05 0)
(0.000997868 -1.154e-05 0)
(0.000996288 -1.29063e-05 0)
(0.00099458 -1.40046e-05 0)
(0.000992656 -1.57279e-05 0)
(0.00100009 7.49767e-08 0)
(0.000999903 2.24689e-07 0)
(0.00100019 3.72045e-07 0)
(0.00100045 5.18808e-07 0)
(0.001 6.66831e-07 0)
(0.00100066 8.12628e-07 0)
(0.00100186 9.50585e-07 0)
(0.0010012 1.08106e-06 0)
(0.00100007 1.21187e-06 0)
(0.001001 1.3505e-06 0)
(0.00100279 1.49559e-06 0)
(0.00100321 1.63599e-06 0)
(0.00100274 1.75651e-06 0)
(0.0010029 1.84454e-06 0)
(0.00100374 1.89396e-06 0)
(0.00100448 1.90551e-06 0)
(0.0010049 1.8846e-06 0)
(0.00100526 1.83838e-06 0)
(0.00100572 1.77347e-06 0)
(0.00100619 1.69511e-06 0)
(0.00100663 1.60703e-06 0)
(0.00100701 1.51171e-06 0)
(0.00100738 1.41071e-06 0)
(0.00100773 1.305e-06 0)
(0.00100805 1.19524e-06 0)
(0.00100833 1.08182e-06 0)
(0.00100859 9.65012e-07 0)
(0.00100882 8.44975e-07 0)
(0.00100902 7.21757e-07 0)
(0.00100919 5.95321e-07 0)
(0.00100933 4.65542e-07 0)
(0.00100943 3.32196e-07 0)
(0.0010095 1.94964e-07 0)
(0.00100954 5.34434e-08 0)
(0.00100954 -9.28192e-08 0)
(0.00100951 -2.44565e-07 0)
(0.00100943 -4.0246e-07 0)
(0.00100932 -5.67407e-07 0)
(0.00100917 -7.40182e-07 0)
(0.00100897 -9.22188e-07 0)
(0.00100874 -1.11401e-06 0)
(0.00100845 -1.31808e-06 0)
(0.00100811 -1.53403e-06 0)
(0.00100772 -1.76657e-06 0)
(0.00100727 -2.01267e-06 0)
(0.00100676 -2.28194e-06 0)
(0.00100619 -2.56501e-06 0)
(0.00100554 -2.88212e-06 0)
(0.00100482 -3.20888e-06 0)
(0.00100401 -3.58975e-06 0)
(0.00100312 -3.96637e-06 0)
(0.00100212 -4.43068e-06 0)
(0.00100101 -4.86842e-06 0)
(0.0009998 -5.43346e-06 0)
(0.000998449 -5.95128e-06 0)
(0.000996959 -6.64386e-06 0)
(0.000995324 -7.24562e-06 0)
(0.000993499 -8.12157e-06 0)
(0.000991505 -8.80239e-06 0)
(0.000989289 -9.9155e-06 0)
(0.00100009 2.46556e-08 0)
(0.000999902 7.37562e-08 0)
(0.00100019 1.22424e-07 0)
(0.00100044 1.70923e-07 0)
(0.000999991 2.19151e-07 0)
(0.00100065 2.66332e-07 0)
(0.00100184 3.11792e-07 0)
(0.00100117 3.55883e-07 0)
(0.00100003 3.99849e-07 0)
(0.00100095 4.44586e-07 0)
(0.00100273 4.89408e-07 0)
(0.00100315 5.31943e-07 0)
(0.00100266 5.68976e-07 0)
(0.00100281 5.97468e-07 0)
(0.00100364 6.15407e-07 0)
(0.00100437 6.22251e-07 0)
(0.00100477 6.188e-07 0)
(0.00100513 6.06653e-07 0)
(0.00100557 5.87631e-07 0)
(0.00100604 5.63406e-07 0)
(0.00100646 5.35323e-07 0)
(0.00100684 5.04373e-07 0)
(0.0010072 4.71229e-07 0)
(0.00100754 4.36329e-07 0)
(0.00100785 3.9995e-07 0)
(0.00100813 3.62265e-07 0)
(0.00100838 3.23386e-07 0)
(0.00100861 2.83368e-07 0)
(0.0010088 2.42234e-07 0)
(0.00100896 1.99967e-07 0)
(0.00100909 1.56525e-07 0)
(0.00100919 1.11837e-07 0)
(0.00100925 6.57907e-08 0)
(0.00100928 1.82666e-08 0)
(0.00100927 -3.09012e-08 0)
(0.00100923 -8.19778e-08 0)
(0.00100914 -1.35176e-07 0)
(0.00100902 -1.90798e-07 0)
(0.00100885 -2.4911e-07 0)
(0.00100864 -3.10581e-07 0)
(0.00100838 -3.75416e-07 0)
(0.00100807 -4.44429e-07 0)
(0.0010077 -5.17498e-07 0)
(0.00100728 -5.96238e-07 0)
(0.0010068 -6.79558e-07 0)
(0.00100626 -7.70864e-07 0)
(0.00100564 -8.667e-07 0)
(0.00100495 -9.74407e-07 0)
(0.00100418 -1.08501e-06 0)
(0.00100331 -1.21453e-06 0)
(0.00100236 -1.34203e-06 0)
(0.00100129 -1.5001e-06 0)
(0.00100011 -1.64822e-06 0)
(0.000998806 -1.84103e-06 0)
(0.00099736 -2.01598e-06 0)
(0.000995761 -2.25295e-06 0)
(0.000994002 -2.45619e-06 0)
(0.000992049 -2.75666e-06 -4.63621e-38)
(0.000989902 -2.98626e-06 0)
(0.000987533 -3.37027e-06 0)
(0.00100009 -2.4866e-08 0)
(0.000999902 -7.47885e-08 0)
(0.00100019 -1.23271e-07 0)
(0.00100044 -1.71599e-07 0)
(0.000999991 -2.21801e-07 0)
(0.00100065 -2.71898e-07 0)
(0.00100184 -3.17671e-07 0)
(0.00100117 -3.58899e-07 0)
(0.00100003 -4.00946e-07 0)
(0.00100095 -4.49409e-07 0)
(0.00100273 -5.04145e-07 0)
(0.00100314 -5.58658e-07 0)
(0.00100266 -6.04241e-07 0)
(0.00100281 -6.34531e-07 0)
(0.00100364 -6.47593e-07 0)
(0.00100437 -6.45348e-07 0)
(0.00100477 -6.31622e-07 0)
(0.00100513 -6.10282e-07 0)
(0.00100557 -5.84234e-07 0)
(0.00100604 -5.55269e-07 0)
(0.00100646 -5.24327e-07 0)
(0.00100684 -4.91837e-07 0)
(0.0010072 -4.5797e-07 0)
(0.00100754 -4.22795e-07 0)
(0.00100785 -3.86363e-07 0)
(0.00100813 -3.48724e-07 0)
(0.00100838 -3.09921e-07 0)
(0.00100861 -2.69972e-07 0)
(0.0010088 -2.28883e-07 0)
(0.00100896 -1.86631e-07 0)
(0.00100909 -1.43173e-07 0)
(0.00100919 -9.84254e-08 0)
(0.00100925 -5.2275e-08 0)
(0.00100928 -4.59315e-09 0)
(0.00100927 4.47898e-08 0)
(0.00100923 9.61203e-08 0)
(0.00100914 1.4962e-07 0)
(0.00100902 2.05608e-07 0)
(0.00100885 2.64341e-07 0)
(0.00100864 3.26316e-07 0)
(0.00100838 3.91711e-07 0)
(0.00100807 4.61399e-07 0)
(0.00100771 5.352e-07 0)
(0.00100729 6.14811e-07 0)
(0.00100681 6.99107e-07 0)
(0.00100626 7.91473e-07 0)
(0.00100565 8.88649e-07 0)
(0.00100495 9.97619e-07 0)
(0.00100418 1.10996e-06 0)
(0.00100332 1.24118e-06 0)
(0.00100236 1.37064e-06 0)
(0.0010013 1.53114e-06 0)
(0.00100011 1.68167e-06 0)
(0.00099881 1.87723e-06 0)
(0.000997365 2.05566e-06 0)
(0.000995766 2.29578e-06 0)
(0.000994007 2.5027e-06 0)
(0.000992054 2.80739e-06 4.63621e-38)
(0.000989907 3.04069e-06 0)
(0.000987537 3.42758e-06 0)
(0.00100009 -7.51851e-08 0)
(0.000999903 -2.2571e-07 0)
(0.00100019 -3.72885e-07 0)
(0.00100045 -5.19482e-07 0)
(0.001 -6.69452e-07 0)
(0.00100066 -8.18127e-07 0)
(0.00100186 -9.56393e-07 0)
(0.0010012 -1.08404e-06 0)
(0.00100007 -1.21296e-06 0)
(0.001001 -1.35526e-06 0)
(0.00100279 -1.51014e-06 0)
(0.00100321 -1.66236e-06 0)
(0.00100274 -1.79132e-06 0)
(0.0010029 -1.88114e-06 0)
(0.00100374 -1.92576e-06 0)
(0.00100448 -1.92835e-06 0)
(0.00100489 -1.8973e-06 0)
(0.00100526 -1.842e-06 0)
(0.00100572 -1.77015e-06 0)
(0.00100619 -1.68711e-06 0)
(0.00100662 -1.59621e-06 0)
(0.00100701 -1.49935e-06 0)
(0.00100738 -1.39762e-06 0)
(0.00100773 -1.29165e-06 0)
(0.00100804 -1.18185e-06 0)
(0.00100833 -1.06848e-06 0)
(0.00100859 -9.51746e-07 0)
(0.00100882 -8.31777e-07 0)
(0.00100902 -7.08606e-07 0)
(0.00100919 -5.8219e-07 0)
(0.00100933 -4.52394e-07 0)
(0.00100943 -3.19e-07 0)
(0.0010095 -1.8168e-07 0)
(0.00100954 -4.00523e-08 0)
(0.00100954 1.06351e-07 0)
(0.00100951 2.58304e-07 0)
(0.00100944 4.16459e-07 0)
(0.00100932 5.81724e-07 0)
(0.00100917 7.5487e-07 0)
(0.00100898 9.37324e-07 0)
(0.00100874 1.12965e-06 0)
(0.00100845 1.33432e-06 0)
(0.00100811 1.55093e-06 0)
(0.00100772 1.78425e-06 0)
(0.00100728 2.03124e-06 0)
(0.00100676 2.30144e-06 0)
(0.00100619 2.58575e-06 0)
(0.00100554 2.90394e-06 0)
(0.00100483 3.23235e-06 0)
(0.00100402 3.61464e-06 0)
(0.00100312 3.99315e-06 0)
(0.00100213 4.45951e-06 0)
(0.00100103 4.89956e-06 0)
(0.000999812 5.46692e-06 0)
(0.000998463 5.98805e-06 0)
(0.000996974 6.68333e-06 0)
(0.000995339 7.28854e-06 0)
(0.000993515 8.16817e-06 0)
(0.000991518 8.85257e-06 0)
(0.0009893 9.96804e-06 0)
(0.00100009 -1.27966e-07 0)
(0.000999906 -3.83969e-07 0)
(0.0010002 -6.34581e-07 0)
(0.00100047 -8.83871e-07 0)
(0.00100003 -1.13775e-06 0)
(0.0010007 -1.38903e-06 0)
(0.00100191 -1.62362e-06 0)
(0.00100127 -1.84097e-06 0)
(0.00100015 -2.05929e-06 0)
(0.0010011 -2.29744e-06 0)
(0.00100291 -2.55441e-06 0)
(0.00100335 -2.80655e-06 0)
(0.0010029 -3.02129e-06 0)
(0.00100308 -3.17283e-06 0)
(0.00100394 -3.2505e-06 0)
(0.00100471 -3.25833e-06 0)
(0.00100515 -3.20922e-06 0)
(0.00100554 -3.11818e-06 0)
(0.00100602 -2.99804e-06 0)
(0.00100651 -2.85802e-06 0)
(0.00100696 -2.70412e-06 0)
(0.00100737 -2.53995e-06 0)
(0.00100775 -2.36767e-06 0)
(0.00100811 -2.18856e-06 0)
(0.00100844 -2.00348e-06 0)
(0.00100874 -1.81301e-06 0)
(0.00100901 -1.61754e-06 0)
(0.00100926 -1.41732e-06 0)
(0.00100947 -1.21246e-06 0)
(0.00100965 -1.00289e-06 0)
(0.00100979 -7.88413e-07 0)
(0.00100991 -5.68693e-07 0)
(0.00101 -3.4322e-07 0)
(0.00101005 -1.11325e-07 0)
(0.00101007 1.27721e-07 0)
(0.00101006 3.75134e-07 0)
(0.00101001 6.31982e-07 0)
(0.00100992 8.99718e-07 0)
(0.0010098 1.17959e-06 0)
(0.00100964 1.47386e-06 0)
(0.00100944 1.78349e-06 0)
(0.00100919 2.11232e-06 0)
(0.00100891 2.4599e-06 0)
(0.00100857 2.83345e-06 0)
(0.00100819 3.22879e-06 0)
(0.00100774 3.65992e-06 0)