/*--------------------------------*- C++ -*----------------------------------*\
| =========                 |                                                 |
| \\      /  F ield         | OpenFOAM: The Open Source CFD Toolbox           |
|  \\    /   O peration     | Version:  2312                                  |
|   \\  /    A nd           | Website:  www.openfoam.com                      |
|    \\/     M anipulation  |                                                 |
\*---------------------------------------------------------------------------*/
FoamFile
{
    version     2.0;
    format      ascii;
    arch        "LSB;label=32;scalar=64";
    class       volVectorField;
    location    "193000";
    object      U;
}
// * * * * * * * * * * * * * * * * * * * * * * * * * * * * * * * * * * * * * //

dimensions      [0 1 -1 0 0 0 0];

internalField   nonuniform List<vector> 
2685
(
(0.000424763 -2.95233e-05 0)
(0.000428569 -1.531e-05 0)
(0.000420182 -1.34866e-06 0)
(0.000410321 1.24e-05 0)
(0.00039834 2.2795e-05 0)
(0.000382747 2.72275e-05 0)
(0.00036447 2.5026e-05 0)
(0.000345488 1.77304e-05 0)
(0.000327345 8.01777e-06 0)
(0.000310704 -1.81364e-06 0)
(0.000295641 -1.04626e-05 0)
(0.00028212 -1.73259e-05 0)
(0.000269881 -2.21416e-05 0)
(0.000258548 -2.46565e-05 0)
(0.000247609 -2.47994e-05 0)
(0.000236713 -2.27549e-05 0)
(0.000225767 -1.89319e-05 0)
(0.000214922 -1.3923e-05 0)
(0.000204417 -8.36944e-06 0)
(0.000194401 -2.85146e-06 0)
(0.000184877 2.16448e-06 0)
(0.000175766 6.34487e-06 0)
(0.000166984 9.48779e-06 0)
(0.000158462 1.15224e-05 0)
(0.000150297 1.25772e-05 0)
(0.000142736 1.28006e-05 0)
(0.000136013 1.23366e-05 0)
(0.000130322 1.13644e-05 0)
(0.000125812 1.00801e-05 0)
(0.00012256 8.66023e-06 0)
(0.000120566 7.22836e-06 0)
(0.000119798 5.84172e-06 0)
(0.000120101 4.47923e-06 0)
(0.000121321 3.20006e-06 0)
(0.000123388 1.99874e-06 0)
(0.000126226 8.67956e-07 0)
(0.000129739 -1.91529e-07 0)
(0.000133821 -1.17163e-06 0)
(0.000138367 -2.06216e-06 0)
(0.000143276 -2.85499e-06 0)
(0.000148469 -3.54635e-06 0)
(0.000153884 -4.13892e-06 0)
(0.000159486 -4.64229e-06 0)
(0.000165252 -5.06879e-06 0)
(0.000171174 -5.42981e-06 0)
(0.000177245 -5.73508e-06 0)
(0.000183458 -5.99327e-06 0)
(0.000189795 -6.21269e-06 0)
(0.00019623 -6.40277e-06 0)
(0.000202734 -6.57587e-06 0)
(0.000209271 -6.74873e-06 0)
(0.000215809 -6.94257e-06 0)
(0.000222319 -7.18117e-06 0)
(0.000228778 -7.48744e-06 0)
(0.000235171 -7.88004e-06 0)
(0.000241484 -8.37192e-06 0)
(0.000247698 -8.97173e-06 0)
(0.000253774 -9.68504e-06 0)
(0.000259636 -1.05123e-05 0)
(0.000265169 -1.14443e-05 0)
(0.000270224 -1.24577e-05 0)
(0.000274639 -1.35081e-05 0)
(0.000278248 -1.45274e-05 0)
(0.000280895 -1.54121e-05 0)
(0.000282475 -1.60232e-05 0)
(0.000282978 -1.62085e-05 0)
(0.000282608 -1.58004e-05 0)
(0.0002817 -1.47458e-05 0)
(0.000280596 -1.30733e-05 0)
(0.000279664 -1.08568e-05 0)
(0.000279192 -8.20883e-06 0)
(0.000279421 -5.24163e-06 0)
(0.000280397 -2.13391e-06 0)
(0.000281971 9.32752e-07 0)
(0.000283868 3.7777e-06 0)
(0.000285791 6.24143e-06 0)
(0.000287454 8.23933e-06 0)
(0.000288587 9.79204e-06 0)
(0.000288967 1.09024e-05 0)
(0.000288448 1.14266e-05 0)
(0.00028705 1.11034e-05 0)
(0.00028503 9.67672e-06 0)
(0.000282841 7.09042e-06 0)
(0.000281007 3.61244e-06 0)
(0.000279922 -2.04212e-07 0)
(0.000279646 -3.72632e-06 0)
(0.000279785 -6.35064e-06 0)
(0.000279715 -7.64414e-06 0)
(0.000278941 -7.60676e-06 0)
(0.000277232 -6.49552e-06 0)
(0.000979877 3.08654e-06 0)
(0.000980811 1.12255e-05 0)
(0.000984878 1.988e-05 0)
(0.000989149 2.90596e-05 0)
(0.000993212 3.8105e-05 0)
(0.000996709 4.65219e-05 0)
(0.000998677 5.39445e-05 0)
(0.000997857 6.00745e-05 0)
(0.000993374 6.47997e-05 0)
(0.000984721 6.8309e-05 0)
(0.000971625 7.10146e-05 0)
(0.000953906 7.31156e-05 0)
(0.000931463 7.44253e-05 0)
(0.000904678 7.49838e-05 0)
(0.00087408 7.49324e-05 0)
(0.000840455 7.36937e-05 0)
(0.000804822 7.02741e-05 0)
(0.00076815 6.43446e-05 0)
(0.00073139 5.66555e-05 0)
(0.000695413 4.85285e-05 0)
(0.000660928 4.10913e-05 0)
(0.000628468 3.48213e-05 0)
(0.000598444 2.96001e-05 0)
(0.000571338 2.50925e-05 0)
(0.000547406 2.10416e-05 0)
(0.000526565 1.72219e-05 0)
(0.000508853 1.34195e-05 0)
(0.000494486 9.5228e-06 0)
(0.000483618 5.57075e-06 0)
(0.000476213 1.70189e-06 0)
(0.000471999 -1.9425e-06 0)
(0.000470506 -5.2912e-06 0)
(0.000471371 -8.33278e-06 0)
(0.000474239 -1.10476e-05 0)
(0.000478597 -1.33988e-05 0)
(0.000484088 -1.53826e-05 0)
(0.000490421 -1.69956e-05 0)
(0.000497347 -1.82289e-05 0)
(0.000504643 -1.91091e-05 0)
(0.000512115 -1.96974e-05 0)
(0.000519609 -2.00839e-05 0)
(0.00052701 -2.03668e-05 0)
(0.000534268 -2.06246e-05 0)
(0.000541392 -2.09059e-05 0)
(0.00054844 -2.12291e-05 0)
(0.000555496 -2.15833e-05 0)
(0.000562646 -2.19317e-05 0)
(0.000569965 -2.22249e-05 0)
(0.000577506 -2.24183e-05 0)
(0.000585296 -2.24814e-05 0)
(0.000593347 -2.23962e-05 0)
(0.000601662 -2.21535e-05 0)
(0.000610252 -2.17526e-05 0)
(0.000619141 -2.1201e-05 0)
(0.000628362 -2.05047e-05 0)
(0.000637942 -1.96475e-05 0)
(0.000647876 -1.85638e-05 0)
(0.000658102 -1.71243e-05 0)
(0.000668484 -1.51473e-05 0)
(0.0006788 -1.24422e-05 0)
(0.000688756 -8.87153e-06 0)
(0.000697991 -4.4188e-06 0)
(0.000706113 7.53185e-07 0)
(0.000712772 6.28685e-06 0)
(0.000717722 1.16558e-05 0)
(0.000720907 1.62066e-05 0)
(0.000722273 1.92515e-05 0)
(0.000721718 2.01573e-05 0)
(0.000719383 1.86424e-05 0)
(0.000715615 1.48612e-05 0)
(0.000710844 9.43291e-06 0)
(0.000705305 3.2985e-06 0)
(0.000698952 -2.6248e-06 0)
(0.000691804 -7.65281e-06 0)
(0.000683958 -1.13449e-05 0)
(0.000675686 -1.34818e-05 0)
(0.000667397 -1.40253e-05 0)
(0.000659143 -1.30782e-05 0)
(0.000650328 -1.08534e-05 0)
(0.00064014 -7.74552e-06 0)
(0.000628343 -4.34946e-06 0)
(0.000615759 -1.33745e-06 0)
(0.000604176 7.59236e-07 0)
(0.000595578 1.83367e-06 0)
(0.000591215 2.36148e-06 0)
(0.000591315 3.27278e-06 0)
(0.000594964 5.4039e-06 0)
(0.00060007 9.02527e-06 0)
(0.000604188 1.34438e-05 0)
(0.000605608 1.71125e-05 0)
(0.00119677 -2.04023e-05 0)
(0.00120586 -1.27083e-05 0)
(0.00121916 -4.70266e-06 0)
(0.0012339 3.36481e-06 0)
(0.00124899 1.15121e-05 0)
(0.00126375 1.98238e-05 0)
(0.00127744 2.83475e-05 0)
(0.00128951 3.70672e-05 0)
(0.00129965 4.59734e-05 0)
(0.00130743 5.52407e-05 0)
(0.0013124 6.50462e-05 0)
(0.00131407 7.54232e-05 0)
(0.00131174 8.63977e-05 0)
(0.00130537 9.78647e-05 0)
(0.00129581 0.000109523 0)
(0.00128312 0.000120614 0)
(0.00126671 0.000130046 0)
(0.00124607 0.000136948 0)
(0.00122097 0.000140898 0)
(0.00119159 0.000141896 0)
(0.00115863 0.000140153 0)
(0.00112315 0.000135947 0)
(0.00108623 0.000129679 0)
(0.00104864 0.000121753 0)
(0.00101085 0.000112145 0)
(0.000973668 0.000100489 0)
(0.000938092 8.65336e-05 0)
(0.000904926 7.0524e-05 0)
(0.000874581 5.34032e-05 0)
(0.000847156 3.65164e-05 0)
(0.000822652 2.10428e-05 0)
(0.000801126 7.65253e-06 0)
(0.000782587 -3.46955e-06 0)
(0.000767106 -1.25207e-05 0)
(0.000754707 -1.97579e-05 0)
(0.000745291 -2.54218e-05 0)
(0.000738692 -2.97056e-05 0)
(0.000734557 -3.27387e-05 0)
(0.000732339 -3.46238e-05 0)
(0.000731441 -3.553e-05 0)
(0.000731303 -3.57223e-05 0)
(0.000731504 -3.55165e-05 0)
(0.000731795 -3.52141e-05 0)
(0.000732044 -3.50522e-05 0)
(0.000732209 -3.51659e-05 0)
(0.000732345 -3.56097e-05 0)
(0.000732569 -3.63724e-05 0)
(0.000732997 -3.7383e-05 0)
(0.000733697 -3.85383e-05 0)
(0.000734686 -3.97477e-05 0)
(0.000735984 -4.09711e-05 0)
(0.000737666 -4.22344e-05 0)
(0.000739894 -4.36135e-05 0)
(0.000742916 -4.51903e-05 0)
(0.000747042 -4.6998e-05 0)
(0.000752589 -4.89718e-05 0)
(0.000759841 -5.09334e-05 0)
(0.000769005 -5.26061e-05 0)
(0.000780201 -5.36609e-05 0)
(0.000793455 -5.37742e-05 0)
(0.000808716 -5.26791e-05 0)
(0.000825871 -5.01978e-05 0)
(0.000844771 -4.62584e-05 0)
(0.000865212 -4.09084e-05 0)
(0.00088685 -3.43046e-05 0)
(0.000909124 -2.66921e-05 0)
(0.000931341 -1.84374e-05 0)
(0.000952899 -9.99261e-06 0)
(0.000973137 -1.86002e-06 0)
(0.00099129 5.50429e-06 0)
(0.00100677 1.19923e-05 0)
(0.00101919 1.79933e-05 0)
(0.00102835 2.41059e-05 0)
(0.00103427 3.04044e-05 0)
(0.00103733 3.60561e-05 0)
(0.00103783 4.01223e-05 0)
(0.00103572 4.30234e-05 0)
(0.00103087 4.68133e-05 0)
(0.00102341 5.34993e-05 0)
(0.00101343 6.2496e-05 0)
(0.00100108 6.96917e-05 0)
(0.000986714 6.9465e-05 0)
(0.000970597 5.83204e-05 0)
(0.000952917 3.73674e-05 0)
(0.000934403 1.19474e-05 0)
(0.000916015 -1.0891e-05 0)
(0.000898014 -2.53277e-05 0)
(0.000879725 -2.87022e-05 0)
(0.000859399 -2.17038e-05 0)
(0.000836635 -8.1642e-06 0)
(0.00129028 -4.18354e-05 0)
(0.00130403 -3.96433e-05 0)
(0.00131904 -3.61811e-05 0)
(0.0013361 -3.1571e-05 0)
(0.0013555 -2.55864e-05 0)
(0.00137666 -1.79828e-05 0)
(0.00139851 -8.57521e-06 0)
(0.00141999 2.79913e-06 0)
(0.00144039 1.61609e-05 0)
(0.00145945 3.1329e-05 0)
(0.0014769 4.80141e-05 0)
(0.00149233 6.5938e-05 0)
(0.00150533 8.47687e-05 0)
(0.00151565 0.000104316 0)
(0.00152266 0.000124074 0)
(0.00152539 0.000143206 0)
(0.00152346 0.000160864 0)
(0.00151695 0.000176298 0)
(0.00150571 0.000188803 0)
(0.00148941 0.000197867 0)
(0.00146789 0.000203251 0)
(0.00144139 0.000204822 0)
(0.00141043 0.000202572 0)
(0.00137581 0.000196714 0)
(0.00133877 0.000187468 0)
(0.0013007 0.000175035 0)
(0.00126232 0.000159987 0)
(0.00122388 0.000143461 0)
(0.00118579 0.000126761 0)
(0.00114865 0.000110759 0)
(0.0011131 9.55889e-05 0)
(0.00107967 8.08027e-05 0)
(0.00104853 6.58355e-05 0)
(0.00101965 5.05399e-05 0)
(0.000992967 3.53136e-05 0)
(0.000968391 2.08896e-05 0)
(0.00094575 7.96863e-06 0)
(0.000925029 -2.85296e-06 0)
(0.000906257 -1.11121e-05 0)
(0.000889287 -1.67173e-05 0)
(0.000873857 -2.00338e-05 0)
(0.000859666 -2.16844e-05 0)
(0.000846432 -2.22958e-05 0)
(0.000834005 -2.24307e-05 0)
(0.000822331 -2.26216e-05 0)
(0.00081135 -2.32466e-05 0)
(0.000801024 -2.43857e-05 0)
(0.000791316 -2.58436e-05 0)
(0.000782111 -2.73525e-05 0)
(0.00077321 -2.88009e-05 0)
(0.000764425 -3.03172e-05 0)
(0.00075578 -3.21995e-05 0)
(0.000747653 -3.4807e-05 0)
(0.000740785 -3.84676e-05 0)
(0.000736089 -4.33657e-05 0)
(0.000734408 -4.94432e-05 0)
(0.000736326 -5.64129e-05 0)
(0.000742135 -6.37732e-05 0)
(0.000751859 -7.09093e-05 0)
(0.000765318 -7.72093e-05 0)
(0.000782187 -8.21537e-05 0)
(0.000802031 -8.53675e-05 0)
(0.000824325 -8.66421e-05 0)
(0.00084848 -8.59478e-05 0)
(0.000873914 -8.34304e-05 0)
(0.00090011 -7.93504e-05 0)
(0.000926614 -7.40179e-05 0)
(0.000953015 -6.77633e-05 0)
(0.000978913 -6.09685e-05 0)
(0.00100392 -5.39729e-05 0)
(0.0010277 -4.69711e-05 0)
(0.00105007 -3.98902e-05 0)
(0.00107112 -3.24301e-05 0)
(0.00109104 -2.43313e-05 0)
(0.00110978 -1.57287e-05 0)
(0.00112722 -7.04392e-06 0)
(0.00114344 1.71611e-06 0)
(0.00115874 1.13006e-05 0)
(0.00117373 2.2379e-05 0)
(0.00118933 3.44117e-05 0)
(0.00120614 4.59485e-05 0)
(0.00122353 5.61432e-05 0)
(0.00123941 6.51941e-05 0)
(0.00125086 7.25405e-05 0)
(0.00125551 7.62126e-05 0)
(0.00125259 7.65886e-05 0)
(0.00124237 7.97843e-05 0)
(0.00122537 9.26377e-05 0)
(0.00120213 0.000112554 0)
(0.00117308 0.000125318 0)
(0.00128523 -6.99425e-05 0)
(0.00130022 -7.42622e-05 0)
(0.00131749 -7.63911e-05 0)
(0.00133763 -7.6176e-05 0)
(0.00136073 -7.35757e-05 0)
(0.00138623 -6.85098e-05 0)
(0.00141331 -6.08366e-05 0)
(0.00144111 -5.04854e-05 0)
(0.00146863 -3.73866e-05 0)
(0.00149501 -2.14569e-05 0)
(0.00151976 -2.7715e-06 0)
(0.00154243 1.83631e-05 0)
(0.00156294 4.15787e-05 0)
(0.00158119 6.6152e-05 0)
(0.0015966 9.13362e-05 0)
(0.00160871 0.000116775 0)
(0.00161731 0.000142264 0)
(0.00162244 0.000167172 0)
(0.00162402 0.000190875 0)
(0.00162194 0.000213121 0)
(0.00161634 0.000233185 0)
(0.00160723 0.00024997 0)
(0.00159404 0.000262968 0)
(0.00157606 0.000271549 0)
(0.00155269 0.000274419 0)
(0.00152328 0.000270996 0)
(0.00148783 0.000261641 0)
(0.0014472 0.000246726 0)
(0.00140263 0.000226953 0)
(0.00135594 0.000203696 0)
(0.00130916 0.000178578 0)
(0.00126364 0.000153539 0)
(0.00122033 0.000130553 0)
(0.00118031 0.000110591 0)
(0.00114394 9.34688e-05 0)
(0.00111041 7.85564e-05 0)
(0.00107891 6.5309e-05 0)
(0.0010492 5.35247e-05 0)
(0.00102091 4.34046e-05 0)
(0.000993377 3.52934e-05 0)
(0.0009665 2.92235e-05 0)
(0.000940797 2.47469e-05 0)
(0.000916557 2.12262e-05 0)
(0.000893334 1.81495e-05 0)
(0.000870669 1.51476e-05 0)
(0.000848852 1.1973e-05 0)
(0.00082842 8.58979e-06 0)
(0.000809137 5.273e-06 0)
(0.000789805 2.49849e-06 0)
(0.000769164 5.48134e-07 0)
(0.000747048 -9.91347e-07 0)
(0.00072476 -3.41444e-06 0)
(0.000704461 -8.43267e-06 0)
(0.000688274 -1.73044e-05 0)
(0.00067772 -3.0276e-05 0)
(0.00067344 -4.65577e-05 0)
(0.00067537 -6.47505e-05 0)
(0.000683062 -8.33372e-05 0)
(0.000695819 -0.000100967 0)
(0.000712857 -0.000116585 0)
(0.000733405 -0.00012945 0)
(0.000756759 -0.000139099 0)
(0.000782307 -0.0001453 0)
(0.000809524 -0.000148001 0)
(0.00083793 -0.000147307 0)
(0.000867026 -0.000143475 0)
(0.000896258 -0.000136895 0)
(0.000925089 -0.000128059 0)
(0.00095304 -0.000117524 0)
(0.000979708 -0.000105879 0)
(0.00100479 -9.36706e-05 0)
(0.00102813 -8.13272e-05 0)
(0.00104977 -6.91553e-05 0)
(0.00106998 -5.74555e-05 0)
(0.00108915 -4.65158e-05 0)
(0.00110762 -3.65042e-05 0)
(0.00112572 -2.73906e-05 0)
(0.00114376 -1.8963e-05 0)
(0.00116223 -1.10211e-05 0)
(0.00118166 -3.70859e-06 0)
(0.00120239 2.41362e-06 0)
(0.00122433 7.02371e-06 0)
(0.00124725 1.07192e-05 0)
(0.00127084 1.46458e-05 0)
(0.00129437 1.94069e-05 0)
(0.00131644 2.51519e-05 0)
(0.00133666 3.39264e-05 0)
(0.00135689 5.09829e-05 0)
(0.00137883 7.93465e-05 0)
(0.00140135 0.000112591 0)
(0.00124783 -0.000100691 0)
(0.00127235 -0.000113282 0)
(0.00129987 -0.000123126 0)
(0.00133052 -0.000129639 0)
(0.00136403 -0.000132177 0)
(0.00139963 -0.000130358 0)
(0.00143622 -0.000124098 0)
(0.00147271 -0.000113355 0)
(0.00150835 -9.811e-05 0)
(0.00154265 -7.86224e-05 0)
(0.00157493 -5.52958e-05 0)
(0.0016043 -2.84078e-05 0)
(0.0016295 1.58185e-06 0)
(0.00164984 3.37124e-05 0)
(0.00166529 6.72937e-05 0)
(0.00167564 0.0001014 0)
(0.00168103 0.0001341 0)
(0.00168178 0.00016441 0)
(0.00167818 0.000192317 0)
(0.00167101 0.000217134 0)
(0.00166125 0.000238439 0)
(0.00164936 0.000257316 0)
(0.00163584 0.000274285 0)
(0.00162144 0.000288954 0)
(0.00160648 0.000301867 0)
(0.00159066 0.00031283 0)
(0.0015729 0.0003199 0)
(0.00155119 0.000322099 0)
(0.00152393 0.000318983 0)
(0.00149052 0.000309195 0)
(0.00145047 0.000293234 0)
(0.00140439 0.000272893 0)
(0.00135499 0.000247648 0)
(0.00130474 0.000218034 0)
(0.00125482 0.000188931 0)
(0.001207 0.00016405 0)
(0.00116319 0.000142692 0)
(0.00112301 0.000124526 0)
(0.00108495 0.000111314 0)
(0.00104905 0.000102714 0)
(0.00101602 9.55484e-05 0)
(0.000984699 8.82221e-05 0)
(0.000952999 8.22736e-05 0)
(0.000920928 7.86284e-05 0)
(0.00089066 7.5126e-05 0)
(0.000863332 6.93695e-05 0)
(0.000836964 6.2499e-05 0)
(0.000807989 5.85691e-05 0)
(0.000774447 6.01422e-05 0)
(0.000737714 6.48879e-05 0)
(0.00070168 6.67973e-05 0)
(0.000670578 6.04245e-05 0)
(0.000647333 4.38402e-05 0)
(0.000633085 1.84739e-05 0)
(0.000627647 -1.26163e-05 0)
(0.000630141 -4.61415e-05 0)
(0.000639313 -7.9371e-05 0)
(0.000653854 -0.000110358 0)
(0.000672602 -0.000137832 0)
(0.000694563 -0.000161056 0)
(0.000718913 -0.000179673 0)
(0.000744989 -0.000193578 0)
(0.000772288 -0.00020282 0)
(0.000800447 -0.000207546 0)
(0.000829182 -0.000207988 0)
(0.000858232 -0.000204472 0)
(0.000887315 -0.000197432 0)
(0.000916107 -0.00018743 0)
(0.000944251 -0.000175146 0)
(0.00097138 -0.000161334 0)
(0.000997165 -0.000146765 0)
(0.00102138 -0.000132154 0)
(0.00104395 -0.00011809 0)
(0.00106498 -0.000105026 0)
(0.00108474 -9.32905e-05 0)
(0.00110356 -8.30606e-05 0)
(0.0011219 -7.43243e-05 0)
(0.00114035 -6.69218e-05 0)
(0.00115961 -6.06461e-05 0)
(0.00118021 -5.5302e-05 0)
(0.00120237 -5.07021e-05 0)
(0.00122603 -4.65232e-05 0)
(0.00125097 -4.20963e-05 0)
(0.00127697 -3.65353e-05 0)
(0.00130365 -2.94546e-05 0)
(0.00133051 -2.12828e-05 0)
(0.0013572 -1.16172e-05 0)
(0.00138369 2.51586e-06 0)
(0.00141088 2.42198e-05 0)
(0.00143971 5.11194e-05 0)
(0.00124985 -0.00017488 0)
(0.00128249 -0.000196258 0)
(0.00131596 -0.00021271 0)
(0.00135155 -0.000223934 0)
(0.00138988 -0.00022971 0)
(0.00143052 -0.000229869 0)
(0.00147275 -0.000224108 0)
(0.00151599 -0.000212168 0)
(0.00155966 -0.00019402 0)
(0.00160308 -0.000169559 0)
(0.00164544 -0.000138627 0)
(0.00168592 -0.000101739 0)
(0.00172349 -5.99959e-05 0)
(0.00175671 -1.4016e-05 0)
(0.00178391 3.50706e-05 0)
(0.0018031 8.50345e-05 0)
(0.00181295 0.000134461 0)
(0.0018132 0.000181933 0)
(0.00180427 0.000225063 0)
(0.00178721 0.000261603 0)
(0.00176268 0.000291187 0)
(0.00173221 0.000313504 0)
(0.0016986 0.000327834 0)
(0.00166394 0.000335607 0)
(0.00162984 0.000339589 0)
(0.00159875 0.000342312 0)
(0.00157214 0.000346641 0)
(0.00154943 0.00035311 0)
(0.00152926 0.000359017 0)
(0.00150903 0.000363317 0)
(0.00148516 0.000365393 0)
(0.00145598 0.000360514 0)
(0.00142111 0.000346423 0)
(0.00137926 0.000327658 0)
(0.00133088 0.000305846 0)
(0.00127979 0.000278149 0)
(0.00122921 0.00024834 0)
(0.00117992 0.00022425 0)
(0.00113314 0.000205304 0)
(0.00109047 0.000186417 0)
(0.00105104 0.000170132 0)
(0.00101224 0.000162603 0)
(0.000973585 0.000160943 0)
(0.000937292 0.000155113 0)
(0.000904106 0.000141992 0)
(0.000870705 0.000130384 0)
(0.000832287 0.000130634 0)
(0.000787307 0.000142835 0)
(0.000739345 0.000156454 0)
(0.000694666 0.000159317 0)
(0.000658384 0.000145282 0)
(0.000632627 0.00011519 0)
(0.000617024 7.37217e-05 0)
(0.000610002 2.62029e-05 0)
(0.000610076 -2.29446e-05 0)
(0.000616141 -7.06577e-05 0)
(0.00062717 -0.000114961 0)
(0.00064233 -0.000154588 0)
(0.000660923 -0.00018877 0)
(0.000682285 -0.000217134 0)
(0.000705782 -0.000239619 0)
(0.000730856 -0.000256415 0)
(0.000757054 -0.000267847 0)
(0.000784057 -0.000274283 0)
(0.0008117 -0.000276054 0)
(0.000839948 -0.000273431 0)
(0.000868822 -0.000266679 0)
(0.000898325 -0.000256144 0)
(0.000928386 -0.000242315 0)
(0.000958807 -0.000225842 0)
(0.000989233 -0.000207531 0)
(0.00101923 -0.000188314 0)
(0.00104838 -0.000169205 0)
(0.00107639 -0.000151188 0)
(0.00110314 -0.000135094 0)
(0.0011287 -0.000121509 0)
(0.00115328 -0.000110759 0)
(0.0011772 -0.000102943 0)
(0.00120093 -9.79355e-05 0)
(0.00122503 -9.53705e-05 0)
(0.00125 -9.46759e-05 0)
(0.00127609 -9.51529e-05 0)
(0.00130337 -9.59114e-05 0)
(0.00133184 -9.56951e-05 0)
(0.00136147 -9.31449e-05 0)
(0.0013919 -8.74812e-05 0)
(0.0014224 -7.84925e-05 0)
(0.00145241 -6.52297e-05 0)
(0.0014823 -4.56716e-05 0)
(0.00151273 -1.9557e-05 0)
(0.0011673 -0.000238751 0)
(0.00118187 -0.000260932 0)
(0.00119868 -0.000279106 0)
(0.00122026 -0.000293264 0)
(0.00124823 -0.000303395 0)
(0.00128288 -0.000309146 0)
(0.00132374 -0.000309847 0)
(0.00137018 -0.000304683 0)
(0.00142157 -0.000292669 0)
(0.00147704 -0.000272643 0)
(0.00153546 -0.00024364 0)
(0.00159532 -0.000205325 0)
(0.0016547 -0.000157749 0)
(0.0017111 -0.000101517 0)
(0.00176219 -3.84547e-05 0)
(0.00180718 2.90053e-05 0)
(0.00184392 9.91713e-05 0)
(0.00186972 0.00016945 0)
(0.00188391 0.000236118 0)
(0.00188554 0.000297334 0)
(0.00187405 0.000351321 0)
(0.00185046 0.00039427 0)
(0.001816 0.000425115 0)
(0.00177197 0.000445098 0)
(0.00172105 0.000452249 0)
(0.00166652 0.00044604 0)
(0.00161209 0.000432385 0)
(0.00156268 0.000417867 0)
(0.00152177 0.000406992 0)
(0.0014892 0.000403359 0)
(0.00146318 0.000405611 0)
(0.00144082 0.000408654 0)
(0.00141698 0.000410898 0)
(0.00138777 0.000411091 0)
(0.00135356 0.000403009 0)
(0.00131489 0.000383765 0)
(0.00127064 0.000358969 0)
(0.0012226 0.000333075 0)
(0.00117513 0.000305991 0)
(0.00112912 0.000281531 0)
(0.00108233 0.000266114 0)
(0.00103538 0.000257628 0)
(0.000992226 0.0002467 0)
(0.000953866 0.000230977 0)
(0.000915364 0.000220284 0)
(0.000870635 0.000224805 0)
(0.00081877 0.000242381 0)
(0.00076481 0.000259389 0)
(0.000715444 0.000261534 0)
(0.000674824 0.00024242 0)
(0.000643575 0.000204133 0)
(0.000620288 0.000152914 0)
(0.00060333 9.49727e-05 0)
(0.000591822 3.47816e-05 0)
(0.000585538 -2.47918e-05 0)
(0.000584575 -8.19345e-05 0)
(0.000589143 -0.000135251 0)
(0.000599285 -0.000183325 0)
(0.000614704 -0.00022498 0)
(0.000634748 -0.000259451 0)
(0.000658473 -0.000286483 0)
(0.000684784 -0.000306336 0)
(0.000712604 -0.000319678 0)
(0.000741057 -0.000327392 0)
(0.000769584 -0.000330352 0)
(0.000797994 -0.000329263 0)
(0.000826405 -0.000324593 0)
(0.000855109 -0.000316631 0)
(0.000884414 -0.000305596 0)
(0.000914543 -0.000291763 0)
(0.000945584 -0.000275559 0)
(0.000977457 -0.000257618 0)
(0.00100993 -0.000238815 0)
(0.00104272 -0.000220226 0)
(0.00107555 -0.000202958 0)
(0.00110833 -0.00018797 0)
(0.0011411 -0.000175949 0)
(0.00117407 -0.000167334 0)
(0.00120756 -0.000162275 0)
(0.00124195 -0.000160491 0)
(0.00127757 -0.000161153 0)
(0.00131461 -0.000163076 0)
(0.00135301 -0.000165015 0)
(0.00139248 -0.00016565 0)
(0.00143264 -0.000163497 0)
(0.00147297 -0.000157258 0)
(0.00151265 -0.000146261 0)
(0.00155074 -0.000129987 0)
(0.00158665 -0.000107564 0)
(0.00162032 -7.88017e-05 0)
(0.000871281 -0.000222686 0)
(0.000865578 -0.000257569 0)
(0.000870186 -0.00029171 0)
(0.00088583 -0.000324044 0)
(0.000912405 -0.000353427 0)
(0.000949176 -0.0003787 0)
(0.000995213 -0.000398555 0)
(0.00104976 -0.000411426 0)
(0.0011122 -0.000415547 0)
(0.00118182 -0.000408998 0)
(0.0012575 -0.000389835 0)
(0.00133744 -0.000356548 0)
(0.00141928 -0.00030863 0)
(0.00150037 -0.000246926 0)
(0.00157781 -0.000173024 0)
(0.0016486 -8.90859e-05 0)
(0.0017115 1.31327e-06 0)
(0.00176546 9.41014e-05 0)
(0.00180783 0.000186078 0)
(0.00183709 0.000274822 0)
(0.00185364 0.000356709 0)
(0.00185731 0.000428095 0)
(0.00184663 0.000487263 0)
(0.00182224 0.00053248 0)
(0.00178646 0.000562036 0)
(0.0017395 0.000575815 0)
(0.00168212 0.000572365 0)
(0.00161916 0.000551444 0)
(0.0015567 0.000521175 0)
(0.00150025 0.000492817 0)
(0.00145425 0.000472106 0)
(0.00141894 0.000461677 0)
(0.00139053 0.000461481 0)
(0.00136568 0.000464371 0)
(0.00134163 0.000462637 0)
(0.00131351 0.000456532 0)
(0.00127788 0.000447349 0)
(0.00123646 0.000431074 0)
(0.00119223 0.000408008 0)
(0.0011455 0.00038706 0)
(0.00109706 0.000372445 0)
(0.00105053 0.000357247 0)
(0.00100814 0.000336945 0)
(0.00096676 0.000320452 0)
(0.00092089 0.000320767 0)
(0.000868516 0.000338847 0)
(0.000812964 0.000360899 0)
(0.000759699 0.000369527 0)
(0.000712333 0.000355199 0)
(0.000671428 0.000318704 0)
(0.000635972 0.000266286 0)
(0.000605195 0.000204156 0)
(0.00057931 0.000136311 0)
(0.000559259 6.50915e-05 0)
(0.000545892 -7.57184e-06 0)
(0.000539539 -7.93445e-05 0)
(0.000540627 -0.000147742 0)
(0.000549423 -0.000210352 0)
(0.000565482 -0.000265084 0)
(0.000588026 -0.000310412 0)
(0.000615982 -0.000345543 0)
(0.000648001 -0.000370499 0)
(0.000682559 -0.0003861 0)
(0.000718143 -0.000393791 0)
(0.000753471 -0.000395347 0)
(0.000787712 -0.000392495 0)
(0.000820579 -0.000386594 0)
(0.000852298 -0.000378469 0)
(0.000883427 -0.00036845 0)
(0.000914608 -0.000356569 0)
(0.000946349 -0.000342828 0)
(0.000978917 -0.000327447 0)
(0.00101234 -0.000310992 0)
(0.0010465 -0.00029441 0)
(0.00108125 -0.000278892 0)
(0.00111656 -0.000265664 0)
(0.00115255 -0.000255725 0)
(0.00118954 -0.000249686 0)
(0.00122789 -0.000247715 0)
(0.00126789 -0.00024947 0)
(0.00130972 -0.000253954 0)
(0.00135337 -0.000259557 0)
(0.00139859 -0.00026445 0)
(0.00144483 -0.000266959 0)
(0.00149137 -0.000265497 0)
(0.00153753 -0.000258493 0)
(0.00158251 -0.000244855 0)
(0.00162552 -0.000224193 0)
(0.00166592 -0.000196184 0)
(0.00170342 -0.000160588 0)
(0.000493218 -0.000200232 0)
(0.000507754 -0.000266483 0)
(0.000532804 -0.000330598 0)
(0.000567033 -0.000389931 0)
(0.000609207 -0.000442849 0)
(0.000657806 -0.000488578 0)
(0.000711867 -0.000526722 0)
(0.000771408 -0.000556591 0)
(0.00083704 -0.000576736 0)
(0.000909425 -0.000584687 0)
(0.000988714 -0.000577334 0)
(0.00107422 -0.000551755 0)
(0.00116416 -0.000506264 0)
(0.00125589 -0.000440872 0)
(0.0013463 -0.000357413 0)
(0.00143232 -0.000259369 0)
(0.00151152 -0.000150785 0)
(0.00158265 -3.55423e-05 0)
(0.00164426 8.2344e-05 0)
(0.00169435 0.000197476 0)
(0.0017325 0.000305643 0)
(0.00175846 0.000406035 0)
(0.00177146 0.000495965 0)
(0.00177157 0.000569261 0)
(0.00175868 0.000624871 0)
(0.00173268 0.000665534 0)
(0.00169502 0.000687731 0)
(0.0016466 0.000686498 0)
(0.00158809 0.000664156 0)
(0.00152471 0.000626905 0)
(0.0014647 0.000584084 0)
(0.0014132 0.000548833 0)
(0.00137163 0.00052793 0)
(0.00133916 0.000518043 0)
(0.00131172 0.000516124 0)
(0.00128381 0.000520819 0)
(0.00125325 0.000523969 0)
(0.00122074 0.000516217 0)
(0.00118559 0.000500247 0)
(0.00114645 0.000485025 0)
(0.00110498 0.000470295 0)
(0.00106421 0.000449874 0)
(0.00102384 0.000427762 0)
(0.000980111 0.000418698 0)
(0.000930387 0.000431252 0)
(0.000876152 0.000456898 0)
(0.000821541 0.00047687 0)
(0.000770016 0.000476279 0)
(0.000722726 0.000451111 0)
(0.000679411 0.000405264 0)
(0.000639946 0.000344337 0)
(0.000604947 0.000272372 0)
(0.000575412 0.000191982 0)
(0.000552241 0.000105565 0)
(0.000536078 1.59041e-05 0)
(0.000526974 -7.37913e-05 0)
(0.00052482 -0.000160152 0)
(0.000529922 -0.000240278 0)
(0.000542575 -0.00031157 0)
(0.000562791 -0.00037185 0)
(0.000590191 -0.000419541 0)
(0.000623897 -0.000453886 0)
(0.000662516 -0.000475165 0)
(0.000704253 -0.000484775 0)
(0.000747181 -0.000485071 0)
(0.000789616 -0.000478923 0)
(0.000830476 -0.000469095 0)
(0.000869443 -0.000457655 0)
(0.000906868 -0.000445678 0)
(0.000943467 -0.000433307 0)
(0.000979957 -0.000420152 0)
(0.00101679 -0.000405812 0)
(0.00105406 -0.000390337 0)
(0.00109163 -0.000374449 0)
(0.00112932 -0.000359467 0)
(0.00116713 -0.000347004 0)
(0.00120531 -0.000338549 0)
(0.00124437 -0.000335059 0)
(0.00128492 -0.000336705 0)
(0.00132744 -0.000342788 0)
(0.0013721 -0.000351803 0)
(0.00141873 -0.000361586 0)
(0.00146685 -0.000369664 0)
(0.00151572 -0.000373743 0)
(0.00156438 -0.000371903 0)
(0.00161185 -0.000362564 0)
(0.00165725 -0.000344634 0)
(0.00169976 -0.000317884 0)
(0.00173877 -0.00028265 0)
(0.00177399 -0.000239175 0)
(0.000278537 -0.000260056 0)
(0.000328699 -0.000354886 0)
(0.000381969 -0.000438555 0)
(0.000437145 -0.000509868 0)
(0.000491774 -0.000569703 0)
(0.000543983 -0.000620088 0)
(0.000593314 -0.000663289 0)
(0.000641133 -0.000700641 0)
(0.000690197 -0.000731658 0)
(0.000744014 -0.00075334 0)
(0.000805575 -0.000760655 0)
(0.000876409 -0.000747878 0)
(0.000955906 -0.000710566 0)
(0.00104175 -0.000646905 0)
(0.00113041 -0.00055852 0)
(0.00121813 -0.000449758 0)
(0.00130171 -0.00032599 0)
(0.00137868 -0.000192091 0)
(0.00144799 -5.31775e-05 0)
(0.0015089 8.50231e-05 0)
(0.00155971 0.00021817 0)
(0.00159975 0.000343301 0)
(0.00162956 0.000457067 0)
(0.00164864 0.000556919 0)
(0.00165556 0.000641898 0)
(0.00165065 0.000708761 0)
(0.00163493 0.000753982 0)
(0.00160692 0.000778653 0)
(0.00156593 0.000781672 0)
(0.00151563 0.000757913 0)
(0.00146089 0.000712641 0)
(0.0014061 0.000662926 0)
(0.00135657 0.00062168 0)
(0.00131577 0.00059382 0)
(0.00128278 0.000581974 0)
(0.0012552 0.000582438 0)
(0.00123153 0.000583365 0)
(0.00120902 0.000577496 0)
(0.00118326 0.000569152 0)
(0.00115218 0.000562166 0)
(0.00111775 0.00055119 0)
(0.00108194 0.000532871 0)
(0.00104347 0.000517363 0)
(0.000999927 0.000519659 0)
(0.000951231 0.000542316 0)
(0.000900026 0.000571548 0)
(0.000849433 0.000588578 0)
(0.000801168 0.000581867 0)
(0.000755674 0.000549889 0)
(0.000713201 0.000496551 0)
(0.000674304 0.00042646 0)
(0.000639617 0.000343333 0)
(0.000609597 0.000250336 0)
(0.000584518 0.000150611 0)
(0.000564607 4.72852e-05 0)
(0.000550268 -5.66628e-05 0)
(0.000541884 -0.000158186 0)
(0.000540015 -0.000254515 0)
(0.00054557 -0.000342883 0)
(0.000559216 -0.000420502 0)
(0.000581218 -0.000484765 0)
(0.000611288 -0.000533618 0)
(0.000648484 -0.000566027 0)
(0.000691191 -0.000582404 0)
(0.00073724 -0.000584855 0)
(0.000784257 -0.000576987 0)
(0.000830221 -0.00056315 0)
(0.000873969 -0.000547306 0)
(0.000915385 -0.000532028 0)
(0.000955142 -0.000518093 0)
(0.000994172 -0.000504843 0)
(0.00103316 -0.000491076 0)
(0.00107234 -0.000476057 0)
(0.00111155 -0.000460158 0)
(0.00115061 -0.000444915 0)
(0.00118957 -0.000432558 0)
(0.00122886 -0.000425261 0)
(0.00126918 -0.000424406 0)
(0.00131129 -0.000430094 0)
(0.00135567 -0.000441023 0)
(0.00140232 -0.000454756 0)
(0.00145074 -0.000468231 0)
(0.00150007 -0.00047831 0)
(0.00154929 -0.000482231 0)
(0.00159727 -0.000477867 0)
(0.00164296 -0.000463793 0)
(0.00168554 -0.00043939 0)
(0.00172449 -0.000404903 0)
(0.00175954 -0.000361083 0)
(0.00179053 -0.000308621 0)
(0.000265013 -0.000400021 0)
(0.00034203 -0.000500725 0)
(0.000415803 -0.000580611 0)
(0.000485599 -0.000641416 0)
(0.000548765 -0.000686569 0)
(0.000602442 -0.000720958 0)
(0.000644679 -0.000750605 0)
(0.000675559 -0.000781188 0)
(0.000698228 -0.000815369 0)
(0.000718792 -0.000850434 0)
(0.000744269 -0.000878576 0)
(0.000780266 -0.000889246 0)
(0.000829274 -0.000872856 0)
(0.000890476 -0.000823818 0)
(0.000960625 -0.00074189 0)
(0.0010355 -0.000631397 0)
(0.0011109 -0.000499289 0)
(0.00118357 -0.000352825 0)
(0.00125129 -0.0001984 0)
(0.00131313 -4.20887e-05 0)
(0.00136839 0.000110546 0)
(0.00141613 0.000255485 0)
(0.00145568 0.000390097 0)
(0.0014862 0.000512414 0)
(0.0015074 0.000619369 0)
(0.00151972 0.000708156 0)
(0.00152221 0.000779447 0)
(0.00151339 0.000832451 0)
(0.00149381 0.000858889 0)
(0.00146423 0.000852858 0)
(0.00142476 0.000821328 0)
(0.00137933 0.000775924 0)
(0.00133549 0.000725211 0)
(0.00129814 0.000679432 0)
(0.00126788 0.00064861 0)
(0.00124408 0.000632797 0)
(0.001225 0.000624557 0)
(0.0012064 0.000620835 0)
(0.00118402 0.000622885 0)
(0.00115734 0.000626117 0)
(0.00112843 0.000621489 0)
(0.00109783 0.000609268 0)
(0.00106371 0.000602978 0)
(0.00102476 0.000615579 0)
(0.000982002 0.000645246 0)
(0.000937876 0.000676318 0)
(0.000894363 0.000691262 0)
(0.000852439 0.000680418 0)
(0.000812576 0.000643004 0)
(0.000775192 0.000582964 0)
(0.000740646 0.000505159 0)
(0.000709145 0.00041379 0)
(0.000680814 0.000312289 0)
(0.000655766 0.00020364 0)
(0.000634234 9.06081e-05 0)
(0.000616919 -2.42979e-05 0)