/*--------------------------------*- C++ -*----------------------------------*\
| =========                 |                                                 |
| \\      /  F ield         | OpenFOAM: The Open Source CFD Toolbox           |
|  \\    /   O peration     | Version:  2312                                  |
|   \\  /    A nd           | Website:  www.openfoam.com                      |
|    \\/     M anipulation  |                                                 |
\*---------------------------------------------------------------------------*/
FoamFile
{
    version     2.0;
    format      ascii;
    arch        "LSB;label=32;scalar=64";
    class       volScalarField;
    location    "24000";
    object      p;
}
// * * * * * * * * * * * * * * * * * * * * * * * * * * * * * * * * * * * * * //

dimensions      [0 2 -2 0 0 0 0];

internalField   nonuniform List<scalar> 
2685
(
-1.39608e-07
-1.37399e-07
-1.33433e-07
-1.29709e-07
-1.25654e-07
-1.20748e-07
-1.14963e-07
-1.08443e-07
-1.01364e-07
-9.38529e-08
-8.60038e-08
-7.78956e-08
-6.96416e-08
-6.13126e-08
-5.2994e-08
-4.47699e-08
-3.67158e-08
-2.88955e-08
-2.13609e-08
-1.4151e-08
-7.29284e-09
-8.04142e-10
5.30559e-09
1.10336e-08
1.63827e-08
2.13607e-08
2.59775e-08
3.02433e-08
3.41669e-08
3.77569e-08
4.10242e-08
4.39839e-08
4.66556e-08
4.90615e-08
5.12228e-08
5.31576e-08
5.4883e-08
5.64165e-08
5.77689e-08
5.89426e-08
5.99397e-08
6.07639e-08
6.14248e-08
6.19397e-08
6.23325e-08
6.2628e-08
6.28476e-08
6.30074e-08
6.31131e-08
6.31647e-08
6.31623e-08
6.3111e-08
6.30177e-08
6.28916e-08
6.27436e-08
6.25831e-08
6.24158e-08
6.22444e-08
6.20693e-08
6.18901e-08
6.17068e-08
6.15184e-08
6.13216e-08
6.11126e-08
6.08878e-08
6.06387e-08
6.03544e-08
6.00244e-08
5.96403e-08
5.91971e-08
5.86945e-08
5.81373e-08
5.75354e-08
5.68991e-08
5.62414e-08
5.55739e-08
5.49072e-08
5.42491e-08
5.36049e-08
5.29774e-08
5.23672e-08
5.17732e-08
5.11936e-08
5.06263e-08
5.00691e-08
4.952e-08
4.89771e-08
4.84379e-08
4.79015e-08
4.73672e-08
-1.51152e-07
-1.44148e-07
-1.39954e-07
-1.34333e-07
-1.27398e-07
-1.19976e-07
-1.12546e-07
-1.05167e-07
-9.77302e-08
-9.01425e-08
-8.23798e-08
-7.44548e-08
-6.63963e-08
-5.83114e-08
-5.02727e-08
-4.23298e-08
-3.45331e-08
-2.69199e-08
-1.9565e-08
-1.25105e-08
-5.78925e-09
5.70971e-10
6.55194e-09
1.21474e-08
1.73628e-08
2.22125e-08
2.67133e-08
3.08793e-08
3.47184e-08
3.8234e-08
4.14301e-08
4.43173e-08
4.69163e-08
4.92555e-08
5.13635e-08
5.32633e-08
5.49742e-08
5.65114e-08
5.78792e-08
5.90692e-08
6.00708e-08
6.08853e-08
6.15267e-08
6.20185e-08
6.23884e-08
6.26625e-08
6.28628e-08
6.30026e-08
6.30878e-08
6.31226e-08
6.31141e-08
6.30716e-08
6.30057e-08
6.29226e-08
6.28236e-08
6.27073e-08
6.25692e-08
6.24043e-08
6.22102e-08
6.19889e-08
6.17462e-08
6.14894e-08
6.12252e-08
6.09575e-08
6.06844e-08
6.04015e-08
6.00991e-08
5.97655e-08
5.93921e-08
5.89721e-08
5.85026e-08
5.79849e-08
5.74217e-08
5.68229e-08
5.61993e-08
5.55589e-08
5.49121e-08
5.42643e-08
5.3624e-08
5.29958e-08
5.23818e-08
5.17824e-08
5.11972e-08
5.06246e-08
5.00628e-08
4.951e-08
4.8964e-08
4.8424e-08
4.78878e-08
4.73539e-08
-1.51716e-07
-1.43285e-07
-1.3747e-07
-1.31085e-07
-1.23589e-07
-1.15358e-07
-1.06958e-07
-9.87034e-08
-9.06455e-08
-8.27112e-08
-7.48125e-08
-6.69002e-08
-5.89776e-08
-5.10948e-08
-4.33159e-08
-3.56958e-08
-2.82821e-08
-2.11271e-08
-1.42394e-08
-7.65687e-09
-1.4061e-09
4.50168e-09
1.00556e-08
1.5251e-08
2.00986e-08
2.46154e-08
2.88129e-08
3.26976e-08
3.62757e-08
3.95566e-08
4.25523e-08
4.52783e-08
4.77539e-08
4.9997e-08
5.20211e-08
5.38358e-08
5.54467e-08
5.68621e-08
5.80969e-08
5.91647e-08
6.00729e-08
6.08274e-08
6.14392e-08
6.19248e-08
6.23042e-08
6.25978e-08
6.28221e-08
6.29863e-08
6.30947e-08
6.31471e-08
6.31436e-08
6.30881e-08
6.29887e-08
6.28563e-08
6.26988e-08
6.25217e-08
6.23277e-08
6.2117e-08
6.18898e-08
6.16477e-08
6.13941e-08
6.11335e-08
6.08701e-08
6.06056e-08
6.0339e-08
6.00662e-08
5.97785e-08
5.94649e-08
5.91139e-08
5.87177e-08
5.82728e-08
5.77798e-08
5.72429e-08
5.66698e-08
5.60705e-08
5.5459e-08
5.48464e-08
5.42079e-08
5.35811e-08
5.29663e-08
5.23635e-08
5.1773e-08
5.11942e-08
5.06261e-08
5.00671e-08
4.95157e-08
4.89704e-08
4.84297e-08
4.78924e-08
4.73578e-08
-1.65083e-07
-1.5356e-07
-1.42857e-07
-1.32251e-07
-1.21585e-07
-1.11022e-07
-1.00784e-07
-9.09984e-08
-8.1681e-08
-7.27764e-08
-6.42097e-08
-5.5919e-08
-4.78719e-08
-4.00688e-08
-3.25326e-08
-2.5289e-08
-1.83539e-08
-1.17352e-08
-5.44125e-09
5.155e-10
6.12407e-09
1.13808e-08
1.6299e-08
2.08994e-08
2.51944e-08
2.91933e-08
3.29078e-08
3.63397e-08
3.94975e-08
4.23962e-08
4.50488e-08
4.74652e-08
4.96544e-08
5.16269e-08
5.33949e-08
5.4972e-08
5.63712e-08
5.76055e-08
5.86881e-08
5.96304e-08
6.04392e-08
6.11197e-08
6.16808e-08
6.21348e-08
6.24941e-08
6.27687e-08
6.29674e-08
6.30976e-08
6.3165e-08
6.31754e-08
6.31357e-08
6.30563e-08
6.2948e-08
6.28187e-08
6.26723e-08
6.2508e-08
6.23228e-08
6.21141e-08
6.1881e-08
6.16251e-08
6.13499e-08
6.10597e-08
6.07584e-08
6.04479e-08
6.01283e-08
5.97967e-08
5.94495e-08
5.90825e-08
5.86912e-08
5.82721e-08
5.78233e-08
5.7345e-08
5.68387e-08
5.63077e-08
5.57557e-08
5.51872e-08
5.46025e-08
5.40374e-08
5.34623e-08
5.2885e-08
5.23099e-08
5.17395e-08
5.11745e-08
5.06151e-08
5.00612e-08
4.95122e-08
4.89676e-08
4.84265e-08
4.78884e-08
4.73526e-08
-1.71295e-07
-1.55893e-07
-1.41266e-07
-1.27335e-07
-1.14089e-07
-1.01572e-07
-8.98325e-08
-7.88756e-08
-6.86476e-08
-5.90648e-08
-5.00445e-08
-4.15214e-08
-3.34545e-08
-2.58255e-08
-1.86285e-08
-1.18557e-08
-5.49332e-09
4.74429e-10
6.06209e-09
1.12842e-08
1.61567e-08
2.06965e-08
2.49196e-08
2.88392e-08
3.24664e-08
3.58125e-08
3.88908e-08
4.17235e-08
4.43191e-08
4.67076e-08
4.88922e-08
5.08773e-08
5.2672e-08
5.42859e-08
5.57301e-08
5.70165e-08
5.8156e-08
5.91583e-08
6.00325e-08
6.07872e-08
6.14296e-08
6.19656e-08
6.24022e-08
6.27474e-08
6.30104e-08
6.32006e-08
6.33274e-08
6.33984e-08
6.34197e-08
6.33966e-08
6.33342e-08
6.3237e-08
6.31088e-08
6.29525e-08
6.27702e-08
6.25639e-08
6.23354e-08
6.20861e-08
6.18175e-08
6.15312e-08
6.12296e-08
6.09148e-08
6.05889e-08
6.02529e-08
5.99072e-08
5.95511e-08
5.91829e-08
5.87997e-08
5.83985e-08
5.79767e-08
5.75328e-08
5.70665e-08
5.65787e-08
5.60714e-08
5.55474e-08
5.50102e-08
5.44635e-08
5.39125e-08
5.33582e-08
5.2802e-08
5.22466e-08
5.16925e-08
5.11405e-08
5.05911e-08
5.00445e-08
4.95007e-08
4.89594e-08
4.84203e-08
4.78833e-08
4.73478e-08
-1.74671e-07
-1.55878e-07
-1.38101e-07
-1.2137e-07
-1.05735e-07
-9.12366e-08
-7.78817e-08
-6.56314e-08
-5.44087e-08
-4.41118e-08
-3.46331e-08
-2.58858e-08
-1.78099e-08
-1.03653e-08
-3.51957e-09
2.76321e-09
8.52581e-09
1.38141e-08
1.86714e-08
2.31359e-08
2.72406e-08
3.10132e-08
3.44779e-08
3.76561e-08
4.05684e-08
4.32349e-08
4.56755e-08
4.79107e-08
4.99618e-08
5.18166e-08
5.34913e-08
5.50052e-08
5.63749e-08
5.75948e-08
5.86747e-08
5.96252e-08
6.04576e-08
6.11814e-08
6.18041e-08
6.23326e-08
6.27737e-08
6.31331e-08
6.34164e-08
6.363e-08
6.37811e-08
6.38758e-08
6.39192e-08
6.39154e-08
6.38686e-08
6.37833e-08
6.36631e-08
6.35115e-08
6.33323e-08
6.31291e-08
6.29046e-08
6.26608e-08
6.23993e-08
6.21213e-08
6.18279e-08
6.15202e-08
6.1199e-08
6.08655e-08
6.05205e-08
6.01646e-08
5.97976e-08
5.94189e-08
5.90272e-08
5.86212e-08
5.81999e-08
5.77625e-08
5.73091e-08
5.68401e-08
5.63565e-08
5.58597e-08
5.53514e-08
5.48336e-08
5.43084e-08
5.37778e-08
5.32434e-08
5.27067e-08
5.21673e-08
5.16273e-08
5.10871e-08
5.05476e-08
5.00092e-08
4.94717e-08
4.89354e-08
4.84001e-08
4.7866e-08
4.73328e-08
-1.74805e-07
-1.53383e-07
-1.33221e-07
-1.14166e-07
-9.62738e-08
-7.97044e-08
-6.45664e-08
-5.08583e-08
-3.84858e-08
-2.73215e-08
-1.72583e-08
-8.21208e-09
-1.05205e-10
7.14194e-09
1.36103e-08
1.93778e-08
2.45237e-08
2.91264e-08
3.32559e-08
3.69673e-08
4.03032e-08
4.32974e-08
4.59794e-08
4.83769e-08
5.05163e-08
5.24232e-08
5.41226e-08
5.56372e-08
5.69869e-08
5.81879e-08
5.92526e-08
6.01904e-08
6.10076e-08
6.17303e-08
6.23647e-08
6.2915e-08
6.33827e-08
6.37811e-08
6.41141e-08
6.43848e-08
6.45954e-08
6.4748e-08
6.48464e-08
6.48949e-08
6.48979e-08
6.48594e-08
6.47828e-08
6.46715e-08
6.45294e-08
6.43596e-08
6.41643e-08
6.39463e-08
6.37083e-08
6.34521e-08
6.3179e-08
6.28901e-08
6.25867e-08
6.22699e-08
6.19405e-08
6.15992e-08
6.12466e-08
6.08834e-08
6.05101e-08
6.01269e-08
5.97338e-08
5.93309e-08
5.89177e-08
5.84939e-08
5.80592e-08
5.76131e-08
5.71556e-08
5.6687e-08
5.62076e-08
5.57183e-08
5.52198e-08
5.47135e-08
5.42003e-08
5.36817e-08
5.31586e-08
5.26322e-08
5.21032e-08
5.15724e-08
5.10406e-08
5.05082e-08
4.99755e-08
4.94429e-08
4.89107e-08
4.83789e-08
4.78475e-08
4.73165e-08
-1.72302e-07
-1.47524e-07
-1.24528e-07
-1.03096e-07
-8.32238e-08
-6.50072e-08
-4.8546e-08
-3.38395e-08
-2.07629e-08
-9.14004e-09
1.18565e-09
1.03329e-08
1.83951e-08
2.54543e-08
3.15891e-08
3.68857e-08
4.14378e-08
4.53402e-08
4.86799e-08
5.15323e-08
5.39626e-08
5.60288e-08
5.77829e-08
5.92702e-08
6.05305e-08
6.15979e-08
6.25011e-08
6.32655e-08
6.39124e-08
6.44592e-08
6.49197e-08
6.53059e-08
6.56284e-08
6.58956e-08
6.6114e-08
6.62884e-08
6.64242e-08
6.65146e-08
6.65631e-08
6.65738e-08
6.65536e-08
6.64938e-08
6.63986e-08
6.62718e-08
6.61169e-08
6.5937e-08
6.5734e-08
6.55103e-08
6.52677e-08
6.50076e-08
6.47313e-08
6.44405e-08
6.41365e-08
6.38199e-08
6.34913e-08
6.31519e-08
6.28027e-08
6.24442e-08
6.20769e-08
6.17013e-08
6.13179e-08
6.09269e-08
6.05284e-08
6.01226e-08
5.97092e-08
5.9288e-08
5.88587e-08
5.84211e-08
5.79747e-08
5.75195e-08
5.70555e-08
5.65829e-08
5.6102e-08
5.56133e-08
5.51176e-08
5.46157e-08
5.41083e-08
5.35963e-08
5.30804e-08
5.25613e-08
5.20396e-08
5.1516e-08
5.09907e-08
5.04644e-08
4.99372e-08
4.94096e-08
4.88816e-08
4.83534e-08
4.78252e-08
4.72969e-08
-1.71238e-07
-1.41174e-07
-1.13796e-07
-8.87971e-08
-6.61283e-08
-4.58554e-08
-2.8009e-08
-1.24847e-08
9.47195e-10
1.25607e-08
2.25988e-08
3.12457e-08
3.86399e-08
4.49022e-08
5.01547e-08
5.4525e-08
5.81401e-08
6.11163e-08
6.35528e-08
6.55303e-08
6.71148e-08
6.83619e-08
6.93211e-08
7.00371e-08
7.05503e-08
7.08969e-08
7.11088e-08
7.12125e-08
7.12308e-08
7.11826e-08
7.10829e-08
7.09436e-08
7.07734e-08
7.05791e-08
7.03656e-08
7.01367e-08
6.98949e-08
6.96406e-08
6.93728e-08
6.90898e-08
6.87885e-08
6.84811e-08
6.81669e-08
6.7845e-08
6.75135e-08
6.71765e-08
6.68336e-08
6.64848e-08
6.613e-08
6.5769e-08
6.54024e-08
6.50304e-08
6.46525e-08
6.42683e-08
6.38787e-08
6.34848e-08
6.30866e-08
6.26838e-08
6.22764e-08
6.18645e-08
6.1448e-08
6.10269e-08
6.06009e-08
6.01698e-08
5.97334e-08
5.92915e-08
5.88438e-08
5.83901e-08
5.79303e-08
5.74642e-08
5.6992e-08
5.65136e-08
5.60294e-08
5.55396e-08
5.50446e-08
5.45447e-08
5.40406e-08
5.35325e-08
5.3021e-08
5.25066e-08
5.19896e-08
5.14706e-08
5.09498e-08
5.04276e-08
4.99043e-08
4.93802e-08
4.88553e-08
4.83299e-08
4.7804e-08
4.72779e-08
-1.69137e-07
-1.32305e-07
-9.90557e-08
-6.92489e-08
-4.29193e-08
-2.01529e-08
-8.5859e-10
1.53001e-08
2.87648e-08
3.99541e-08
4.9219e-08
5.68412e-08
6.30465e-08
6.80274e-08
7.19614e-08
7.50168e-08
7.73465e-08
7.90789e-08
8.03167e-08
8.11412e-08
8.16193e-08
8.18088e-08
8.17614e-08
8.15235e-08
8.11356e-08
8.06328e-08
8.00451e-08
7.93981e-08
7.87125e-08
7.80055e-08
7.72905e-08
7.65781e-08
7.58759e-08
7.51893e-08
7.45214e-08
7.38732e-08
7.32442e-08
7.26341e-08
7.20426e-08
7.14698e-08
7.09153e-08
7.03786e-08
6.9858e-08
6.93523e-08
6.88609e-08
6.83779e-08
6.79022e-08
6.74327e-08
6.69689e-08
6.65106e-08
6.60577e-08
6.56072e-08
6.51581e-08
6.47096e-08
6.42618e-08
6.38153e-08
6.33695e-08
6.29239e-08
6.24778e-08
6.20311e-08
6.15832e-08
6.11338e-08
6.06823e-08
6.02285e-08
5.97718e-08
5.9312e-08
5.88487e-08
5.83817e-08
5.79106e-08
5.74353e-08
5.69558e-08
5.64719e-08
5.59838e-08
5.54915e-08
5.49953e-08
5.44953e-08
5.39919e-08
5.34853e-08
5.29758e-08
5.24638e-08
5.19496e-08
5.14334e-08
5.09156e-08
5.03963e-08
4.98758e-08
4.93542e-08
4.88318e-08
4.83087e-08
4.77849e-08
4.72606e-08
-1.5786e-07
-1.14514e-07
-7.56624e-08
-4.14067e-08
-1.17799e-08
1.33267e-08
3.4201e-08
5.1258e-08
6.49736e-08
7.58175e-08
8.4211e-08
9.0523e-08
9.50831e-08
9.81915e-08
1.00123e-07
1.01124e-07
1.01408e-07
1.01145e-07
1.0047e-07
9.94876e-08
9.82794e-08
9.69124e-08
9.54406e-08
9.39062e-08
9.23423e-08
9.07742e-08
8.92216e-08
8.76999e-08
8.62208e-08
8.4793e-08
8.34228e-08
8.21142e-08
8.08695e-08
7.96893e-08
7.85728e-08
7.7518e-08
7.65222e-08
7.55822e-08
7.46947e-08
7.38558e-08
7.30613e-08
7.2307e-08
7.15888e-08
7.09027e-08
7.02454e-08
6.96131e-08
6.90033e-08
6.84135e-08
6.78408e-08
6.72825e-08
6.67358e-08
6.62007e-08
6.56764e-08
6.51627e-08
6.46579e-08
6.416e-08
6.36675e-08
6.31799e-08
6.26963e-08
6.22157e-08
6.17373e-08
6.12603e-08
6.07841e-08
6.03081e-08
5.98317e-08
5.93544e-08
5.88756e-08
5.83952e-08
5.79126e-08
5.74276e-08
5.694e-08
5.64497e-08
5.59566e-08
5.54606e-08
5.49619e-08
5.44605e-08
5.39565e-08
5.345e-08
5.29413e-08
5.24305e-08
5.19178e-08
5.14034e-08
5.08874e-08
5.037e-08
4.98514e-08
4.93318e-08
4.88112e-08
4.82897e-08
4.77676e-08
4.72448e-08
-1.31142e-07
-8.3145e-08
-4.02194e-08
-2.64303e-09
2.94747e-08
5.62708e-08
7.80931e-08
9.54115e-08
1.08742e-07
1.18601e-07
1.25488e-07
1.29883e-07
1.32237e-07
1.32965e-07
1.32433e-07
1.30957e-07
1.28798e-07
1.26162e-07
1.23213e-07
1.2008e-07
1.16862e-07
1.13635e-07
1.10455e-07
1.07364e-07
1.04387e-07
1.01541e-07
9.88381e-08
9.62823e-08
9.38756e-08
9.16173e-08
8.95047e-08
8.75335e-08
8.5698e-08
8.39917e-08
8.2407e-08
8.09357e-08
7.95694e-08
7.82995e-08
7.71177e-08
7.60158e-08
7.49862e-08
7.40215e-08
7.31149e-08
7.22603e-08
7.14519e-08
7.06844e-08
6.9953e-08
6.92532e-08
6.85817e-08
6.79352e-08
6.73114e-08
6.67081e-08
6.61233e-08
6.5555e-08
6.50008e-08
6.44583e-08
6.39259e-08
6.34016e-08
6.28867e-08
6.23775e-08
6.18732e-08
6.13731e-08
6.08763e-08
6.03819e-08
5.98892e-08
5.93975e-08
5.89061e-08
5.84147e-08
5.79227e-08
5.74297e-08
5.69354e-08
5.64396e-08
5.59421e-08
5.54428e-08
5.49416e-08
5.44385e-08
5.39334e-08
5.34265e-08
5.29178e-08
5.24074e-08
5.18954e-08
5.13818e-08
5.08669e-08
5.03507e-08
4.98333e-08
4.93149e-08
4.87955e-08
4.82753e-08
4.77543e-08
4.72326e-08
-8.82996e-08
-3.82335e-08
6.057e-09
4.43442e-08
7.66641e-08
1.03283e-07
1.24601e-07
1.41086e-07
1.53239e-07
1.61592e-07
1.66684e-07
1.69053e-07
1.69208e-07
1.67618e-07
1.64696e-07
1.60797e-07
1.56216e-07
1.51194e-07
1.45926e-07
1.4057e-07
1.35247e-07
1.30051e-07
1.25051e-07
1.20293e-07
1.15807e-07
1.11606e-07
1.07695e-07
1.04071e-07
1.00725e-07
9.76443e-08
9.48132e-08
9.22153e-08
8.98332e-08
8.76496e-08
8.56474e-08
8.38101e-08
8.21221e-08
8.05689e-08
7.9137e-08
7.78138e-08
7.6588e-08
7.54489e-08
7.4387e-08
7.33937e-08
7.24612e-08
7.15825e-08
7.07516e-08
6.99631e-08
6.92123e-08
6.84953e-08
6.78084e-08
6.71483e-08
6.65119e-08
6.58965e-08
6.52996e-08
6.47189e-08
6.41523e-08
6.35988e-08
6.30544e-08
6.25201e-08
6.19939e-08
6.14744e-08
6.09602e-08
6.04505e-08
5.99441e-08
5.94404e-08
5.89385e-08
5.84378e-08
5.79377e-08
5.74378e-08
5.69377e-08
5.64371e-08
5.59356e-08
5.54331e-08
5.49294e-08
5.44244e-08
5.39181e-08
5.34104e-08
5.29012e-08
5.23907e-08
5.18789e-08
5.13657e-08
5.08514e-08
5.03359e-08
4.98193e-08
4.93016e-08
4.87831e-08
4.82637e-08
4.77435e-08
4.72226e-08
-4.00598e-08
8.85394e-09
5.17192e-08
8.85331e-08
1.19394e-07
1.44531e-07
1.64289e-07
1.79102e-07
1.89472e-07
1.95941e-07
1.99075e-07
1.99434e-07
1.97549e-07
1.93908e-07
1.88947e-07
1.83039e-07
1.765e-07
1.69593e-07
1.62533e-07
1.55491e-07
1.48601e-07
1.41961e-07
1.35641e-07
1.29687e-07
1.24124e-07
1.1896e-07
1.14191e-07
1.09806e-07
1.05786e-07
1.0211e-07
9.87538e-08
9.56936e-08
9.29047e-08
9.03633e-08
8.80465e-08
8.59326e-08
8.40014e-08
8.22342e-08
8.06138e-08
7.91244e-08
7.77517e-08
7.64827e-08
7.53057e-08
7.421e-08
7.31864e-08
7.22266e-08
7.13234e-08
7.04703e-08
6.96617e-08
6.88927e-08
6.81589e-08
6.74564e-08
6.67817e-08
6.61319e-08
6.55043e-08
6.48965e-08
6.4306e-08
6.37308e-08
6.31685e-08
6.26174e-08
6.20772e-08
6.15448e-08
6.10191e-08
6.0499e-08
5.99835e-08
5.94716e-08
5.89626e-08
5.84557e-08
5.79502e-08
5.74457e-08
5.69417e-08
5.64377e-08
5.59335e-08
5.54288e-08
5.49233e-08
5.4417e-08
5.39097e-08
5.34012e-08
5.28917e-08
5.2381e-08
5.18691e-08
5.13561e-08
5.0842e-08
5.03269e-08
4.98107e-08
4.92935e-08
4.87754e-08
4.82565e-08
4.77368e-08
4.72164e-08
-7.95162e-09
3.93629e-08
8.06016e-08
1.15733e-07
1.44968e-07
1.68531e-07
1.86771e-07
2.00128e-07
2.09105e-07
2.14246e-07
2.16111e-07
2.1525e-07
2.12186e-07
2.074e-07
2.01325e-07
1.94336e-07
1.86757e-07
1.78859e-07
1.70864e-07
1.62949e-07
1.55252e-07
1.47874e-07
1.40885e-07
1.34328e-07
1.28225e-07
1.2258e-07
1.17386e-07
1.12626e-07
1.08276e-07
1.04312e-07
1.00704e-07
9.74237e-08
9.44419e-08
9.17313e-08
8.92659e-08
8.70212e-08
8.49746e-08
8.31051e-08
8.13938e-08
7.98232e-08
7.83777e-08
7.70431e-08
7.58068e-08
7.46574e-08
7.3585e-08
7.25809e-08
7.16374e-08
7.07478e-08
6.99062e-08
6.91074e-08
6.83471e-08
6.76212e-08
6.69261e-08
6.62583e-08
6.5615e-08
6.49932e-08
6.43904e-08
6.38041e-08
6.32323e-08
6.26733e-08
6.21238e-08
6.15838e-08
6.10517e-08
6.05259e-08
6.00054e-08
5.94892e-08
5.89763e-08
5.84661e-08
5.79577e-08
5.74507e-08
5.69445e-08
5.64387e-08
5.5933e-08
5.5427e-08
5.49206e-08
5.44135e-08
5.39056e-08
5.33967e-08
5.28869e-08
5.23761e-08
5.18642e-08
5.13512e-08
5.08372e-08
5.03221e-08
4.98061e-08
4.92892e-08
4.87714e-08
4.82527e-08
4.77332e-08
4.7213e-08
-7.90167e-09
3.94065e-08
8.06393e-08
1.15763e-07
1.44992e-07
1.6855e-07
1.86786e-07
2.00139e-07
2.09112e-07
2.14251e-07
2.16114e-07
2.15251e-07
2.12186e-07
2.074e-07
2.01324e-07
1.94335e-07
1.86756e-07
1.78858e-07
1.70862e-07
1.62948e-07
1.55251e-07
1.47874e-07
1.40886e-07
1.34329e-07
1.28226e-07
1.22581e-07
1.17387e-07
1.12627e-07
1.08278e-07
1.04313e-07
1.00705e-07
9.74248e-08
9.4443e-08
9.17324e-08
8.92669e-08
8.70221e-08
8.49753e-08
8.31057e-08
8.13942e-08
7.98234e-08
7.83778e-08
7.70431e-08
7.58067e-08
7.46573e-08
7.35849e-08
7.25808e-08
7.16373e-08
7.07477e-08
6.99061e-08
6.91074e-08
6.83472e-08
6.76213e-08
6.69262e-08
6.62585e-08
6.56152e-08
6.49934e-08
6.43905e-08
6.38043e-08
6.32322e-08
6.26725e-08
6.21236e-08
6.15838e-08
6.10518e-08
6.0526e-08
6.00055e-08
5.94893e-08
5.89764e-08
5.84661e-08
5.79577e-08
5.74507e-08
5.69445e-08
5.64387e-08
5.5933e-08
5.5427e-08
5.49206e-08
5.44135e-08
5.39056e-08
5.33967e-08
5.28869e-08
5.23761e-08
5.18642e-08
5.13512e-08
5.08372e-08
5.03221e-08
4.98061e-08
4.92892e-08
4.87713e-08
4.82527e-08
4.77332e-08
-3.99353e-08
8.96296e-09
5.18127e-08
8.86115e-08
1.19459e-07
1.44583e-07
1.64329e-07
1.79133e-07
1.89494e-07
1.95957e-07
1.99085e-07
1.99439e-07
1.97551e-07
1.93909e-07
1.88946e-07
1.83038e-07
1.76498e-07
1.69592e-07
1.62532e-07
1.55491e-07
1.48601e-07
1.41962e-07
1.35643e-07
1.29689e-07
1.24126e-07
1.18962e-07
1.14194e-07
1.09808e-07
1.05788e-07
1.02112e-07
9.87564e-08
9.56962e-08
9.29073e-08
9.03657e-08
8.80487e-08
8.59345e-08
8.4003e-08
8.22355e-08
8.06148e-08
7.91251e-08
7.77522e-08
7.6483e-08
7.53058e-08
7.421e-08
7.31864e-08
7.22266e-08
7.13234e-08
7.04703e-08
6.96618e-08
6.88928e-08
6.81591e-08
6.74566e-08
6.6782e-08
6.61323e-08
6.55049e-08
6.48973e-08
6.43071e-08
6.3732e-08
6.317e-08
6.26194e-08
6.20785e-08
6.15457e-08
6.10197e-08
6.04994e-08
5.99838e-08
5.94719e-08
5.89628e-08
5.84558e-08
5.79503e-08
5.74458e-08
5.69417e-08
5.64377e-08
5.59335e-08
5.54288e-08
5.49233e-08
5.4417e-08
5.39097e-08
5.34012e-08
5.28917e-08
5.2381e-08
5.18691e-08
5.13561e-08
5.0842e-08
5.03268e-08
4.98106e-08
4.92935e-08
4.87754e-08
4.82565e-08
4.77368e-08
-8.81464e-08
-3.80977e-08
6.17496e-09
4.44444e-08
7.67475e-08
1.03351e-07
1.24656e-07
1.41129e-07
1.53273e-07
1.61617e-07
1.66704e-07
1.69067e-07
1.69218e-07
1.67625e-07
1.64702e-07
1.60802e-07
1.5622e-07
1.51198e-07
1.4593e-07
1.40573e-07
1.35251e-07
1.30055e-07
1.25055e-07
1.20297e-07
1.1581e-07
1.11609e-07
1.07699e-07
1.04075e-07
1.00729e-07
9.76476e-08
9.48164e-08
9.22183e-08
8.98361e-08
8.76523e-08
8.56498e-08
8.38123e-08
8.2124e-08
8.05706e-08
7.91383e-08
7.78149e-08
7.65888e-08
7.54495e-08
7.43874e-08
7.3394e-08
7.24614e-08
7.15827e-08
7.07518e-08
6.99633e-08
6.92125e-08
6.84955e-08
6.78087e-08
6.71486e-08
6.65123e-08
6.58969e-08
6.53002e-08
6.47199e-08
6.41538e-08
6.36013e-08
6.30561e-08
6.25213e-08
6.19949e-08
6.14751e-08
6.09608e-08
6.04509e-08
5.99445e-08
5.94407e-08
5.89387e-08
5.84379e-08
5.79378e-08
5.74379e-08
5.69378e-08
5.64371e-08
5.59357e-08
5.54331e-08
5.49294e-08
5.44245e-08
5.39181e-08
5.34104e-08
5.29012e-08
5.23907e-08
5.18789e-08
5.13657e-08
5.08513e-08
5.03358e-08
4.98192e-08
4.93016e-08
4.87831e-08
4.82637e-08
4.77435e-08
-1.30997e-07
-8.30162e-08
-4.01066e-08
-2.54605e-09
2.95565e-08
5.63388e-08
7.8149e-08
9.54571e-08
1.08779e-07
1.18631e-07
1.25513e-07
1.29903e-07
1.32254e-07
1.32979e-07
1.32445e-07
1.30968e-07
1.28807e-07
1.2617e-07
1.2322e-07
1.20086e-07
1.16868e-07
1.1364e-07
1.10461e-07
1.07369e-07
1.04391e-07
1.01546e-07
9.8842e-08
9.6286e-08
9.38791e-08
9.16207e-08
8.95079e-08
8.75365e-08
8.57008e-08
8.39943e-08
8.24094e-08
8.09379e-08
7.95713e-08
7.83012e-08
7.71192e-08
7.60171e-08
7.49873e-08
7.40224e-08
7.31157e-08
7.22609e-08
7.14524e-08
7.06849e-08
6.99534e-08
6.92537e-08
6.85821e-08
6.79357e-08
6.73119e-08
6.67085e-08
6.61236e-08
6.55552e-08
6.50009e-08
6.44581e-08
6.39253e-08
6.34002e-08
6.28863e-08
6.23776e-08
6.18735e-08
6.13734e-08
6.08766e-08
6.03822e-08
5.98895e-08
5.93977e-08
5.89063e-08
5.84149e-08
5.79228e-08
5.74298e-08
5.69355e-08
5.64397e-08
5.59422e-08
5.54428e-08
5.49416e-08
5.44385e-08
5.39334e-08
5.34265e-08
5.29178e-08
5.24074e-08
5.18953e-08
5.13818e-08
5.08668e-08
5.03506e-08
4.98333e-08
4.93149e-08
4.87955e-08
4.82753e-08
4.77542e-08
-1.5774e-07
-1.14409e-07
-7.55701e-08
-4.13268e-08
-1.17117e-08
1.33844e-08
3.42496e-08
5.12988e-08
6.50079e-08
7.58465e-08
8.42356e-08
9.05439e-08
9.5101e-08
9.82069e-08
1.00136e-07
1.01136e-07
1.01418e-07
1.01154e-07
1.00478e-07
9.94941e-08
9.82852e-08
9.69176e-08
9.54452e-08
9.39104e-08
9.23461e-08
9.07777e-08
8.9225e-08
8.77031e-08
8.62239e-08
8.4796e-08
8.34256e-08
8.2117e-08
8.08722e-08
7.96918e-08
7.85751e-08
7.75201e-08
7.65241e-08
7.5584e-08
7.46963e-08
7.38573e-08
7.30627e-08
7.23082e-08
7.15898e-08
7.09037e-08
7.02462e-08
6.96138e-08
6.90039e-08
6.8414e-08
6.78412e-08
6.72829e-08
6.67364e-08
6.62014e-08
6.56768e-08
6.51629e-08
6.46581e-08
6.41601e-08
6.36675e-08
6.31798e-08
6.26963e-08
6.22158e-08
6.17374e-08
6.12605e-08
6.07843e-08
6.03083e-08
5.98319e-08
5.93546e-08
5.88758e-08
5.83953e-08
5.79127e-08
5.74277e-08
5.69401e-08
5.64497e-08
5.59566e-08
5.54606e-08
5.49619e-08
5.44604e-08
5.39564e-08
5.345e-08
5.29412e-08
5.24304e-08
5.19177e-08
5.14033e-08
5.08873e-08
5.03699e-08
4.98514e-08
4.93317e-08
4.88111e-08
4.82897e-08
4.77675e-08
-1.69049e-07
-1.32227e-07
-9.89868e-08
-6.91887e-08
-4.28673e-08
-2.01087e-08
-8.21134e-10
1.53318e-08
2.87918e-08
3.99771e-08
4.92387e-08
5.68579e-08
6.30607e-08
6.80395e-08
7.19717e-08
7.50257e-08
7.7354e-08
7.90853e-08
8.03223e-08
8.11461e-08
8.16236e-08
8.18127e-08
8.1765e-08
8.15268e-08
8.11388e-08
8.06359e-08
8.00481e-08
7.9401e-08
7.87154e-08
7.80083e-08
7.72933e-08
7.65807e-08
7.58784e-08
7.51917e-08
7.45237e-08
7.38754e-08
7.32462e-08
7.26359e-08
7.20443e-08
7.14713e-08
7.09166e-08
7.03798e-08
6.98591e-08
6.93533e-08
6.8862e-08
6.83789e-08
6.79032e-08
6.74336e-08
6.69698e-08
6.65114e-08
6.60583e-08
6.56076e-08
6.51586e-08
6.47101e-08
6.42622e-08
6.38156e-08
6.33698e-08
6.29241e-08
6.2478e-08
6.20313e-08
6.15834e-08
6.1134e-08
6.06825e-08
6.02287e-08
5.9772e-08
5.93122e-08
5.88489e-08
5.83818e-08
5.79107e-08
5.74354e-08
5.69558e-08
5.64719e-08
5.59838e-08
5.54915e-08
5.49952e-08
5.44952e-08
5.39918e-08
5.34852e-08
5.29757e-08
5.24637e-08
5.19495e-08
5.14333e-08
5.09155e-08
5.03962e-08
4.98757e-08
4.93541e-08
4.88317e-08
4.83086e-08
4.77848e-08
-1.71177e-07
-1.41119e-07
-1.13747e-07
-8.87534e-08
-6.60899e-08
-4.58222e-08
-2.79805e-08
-1.24604e-08
9.67954e-10
1.25783e-08
2.26135e-08
3.12578e-08
3.86499e-08
4.49104e-08
5.01614e-08
5.45306e-08
5.81447e-08
6.11203e-08
6.35563e-08
6.55336e-08
6.71179e-08
6.83649e-08
6.93241e-08
7.004e-08
7.05532e-08
7.08998e-08
7.11117e-08
7.12154e-08
7.12337e-08
7.11854e-08
7.10857e-08
7.09463e-08
7.0776e-08
7.05816e-08
7.0368e-08
7.0139e-08
6.98971e-08
6.96426e-08
6.93747e-08
6.90917e-08
6.87902e-08
6.84826e-08
6.81684e-08
6.78463e-08
6.75147e-08
6.71777e-08
6.68347e-08
6.64858e-08
6.6131e-08
6.57699e-08
6.54032e-08
6.50312e-08
6.46533e-08
6.4269e-08
6.38793e-08
6.34853e-08
6.3087e-08
6.26842e-08
6.22768e-08
6.18648e-08
6.14483e-08
6.10272e-08
6.06011e-08
6.017e-08
5.97336e-08
5.92917e-08
5.88439e-08
5.83902e-08
5.79303e-08
5.74643e-08
5.6992e-08
5.65136e-08
5.60294e-08
5.55395e-08
5.50445e-08
5.45446e-08
5.40404e-08
5.35324e-08
5.30209e-08
5.25064e-08
5.19895e-08
5.14705e-08
5.09497e-08
5.04275e-08
4.99042e-08
4.93801e-08
4.88552e-08
4.83298e-08
4.78039e-08
-1.72258e-07
-1.47483e-07
-1.24491e-07
-1.03062e-07
-8.31936e-08
-6.49805e-08
-4.85227e-08
-3.38192e-08
-2.07454e-08
-9.12493e-09
1.19864e-09
1.0344e-08
1.84046e-08
2.54625e-08
3.15963e-08
3.6892e-08
4.14435e-08
4.53453e-08
4.86845e-08
5.15366e-08
5.39666e-08
5.60326e-08
5.77865e-08
5.92738e-08
6.0534e-08
6.16013e-08
6.25044e-08
6.32686e-08
6.39154e-08
6.44621e-08
6.49225e-08
6.53086e-08
6.5631e-08
6.58981e-08
6.61164e-08
6.62907e-08
6.64263e-08
6.65165e-08
6.65649e-08
6.65755e-08
6.65552e-08
6.64954e-08
6.64001e-08
6.62732e-08
6.61182e-08
6.59382e-08
6.57353e-08
6.55115e-08
6.52689e-08
6.50087e-08
6.47324e-08
6.44415e-08
6.41373e-08
6.38206e-08
6.3492e-08
6.31525e-08
6.28032e-08
6.24446e-08
6.20773e-08
6.17017e-08
6.13182e-08
6.09271e-08
6.05286e-08
6.01227e-08
5.97093e-08
5.92881e-08
5.88588e-08
5.84211e-08
5.79747e-08
5.75195e-08
5.70555e-08
5.65828e-08
5.61019e-08
5.56132e-08
5.51175e-08
5.46155e-08
5.41081e-08
5.35961e-08
5.30802e-08
5.25611e-08
5.20395e-08
5.15158e-08
5.09906e-08
5.04642e-08
4.99371e-08
4.94094e-08
4.88815e-08
4.83533e-08
4.78251e-08
-1.74771e-07
-1.53351e-07
-1.33191e-07
-1.14139e-07
-9.62488e-08
-7.96819e-08
-6.45463e-08
-5.08404e-08
-3.84699e-08
-2.73074e-08
-1.72457e-08
-8.20065e-09
-9.48343e-11
7.15137e-09
1.36189e-08
1.93857e-08
2.45309e-08
2.91331e-08
3.3262e-08
3.6973e-08
4.03085e-08
4.33024e-08
4.59841e-08
4.83813e-08
5.05205e-08
5.24272e-08
5.41263e-08
5.56408e-08
5.69902e-08
5.8191e-08
5.92556e-08
6.01932e-08
6.10103e-08
6.17328e-08
6.23671e-08
6.29172e-08
6.33848e-08
6.37831e-08
6.4116e-08
6.43866e-08
6.45971e-08
6.47496e-08
6.4848e-08
6.48964e-08
6.48994e-08
6.48608e-08
6.47842e-08
6.46729e-08
6.45307e-08
6.43608e-08
6.41655e-08
6.39474e-08
6.37093e-08
6.3453e-08
6.31798e-08
6.28909e-08
6.25874e-08
6.22705e-08
6.1941e-08
6.15996e-08
6.12469e-08
6.08837e-08
6.05103e-08
6.0127e-08
5.9734e-08
5.9331e-08
5.89177e-08
5.84939e-08
5.80591e-08
5.7613e-08
5.71555e-08
5.66869e-08
5.62075e-08
5.57181e-08
5.52196e-08
5.47132e-08
5.42001e-08
5.36814e-08
5.31584e-08
5.2632e-08
5.2103e-08
5.15722e-08
5.10404e-08
5.0508e-08
4.99753e-08
4.94427e-08
4.89105e-08
4.83788e-08
4.78474e-08
-1.74646e-07
-1.55854e-07
-1.38078e-07
-1.21348e-07
-1.05714e-07
-9.12174e-08
-7.78639e-08
-6.5615e-08
-5.43936e-08
-4.40978e-08
-3.46202e-08
-2.58739e-08
-1.7799e-08
-1.03553e-08
-3.5104e-09
2.77165e-09
8.5336e-09
1.38213e-08
1.86781e-08
2.31421e-08
2.72463e-08
3.10186e-08
3.4483e-08
3.76607e-08
4.05728e-08
4.32391e-08
4.56794e-08
4.79145e-08
4.99652e-08
5.18198e-08
5.34942e-08
5.5008e-08
5.63775e-08
5.75972e-08
5.8677e-08
5.96274e-08
6.04597e-08
6.11834e-08
6.18059e-08
6.23344e-08
6.27754e-08
6.31348e-08
6.34181e-08
6.36316e-08
6.37826e-08
6.38773e-08
6.39207e-08
6.39168e-08
6.387e-08
6.37846e-08
6.36643e-08
6.35127e-08
6.33334e-08
6.313e-08
6.29055e-08
6.26616e-08
6.23999e-08
6.21218e-08
6.18284e-08
6.15206e-08
6.11994e-08
6.08658e-08
6.05208e-08
6.01648e-08
5.97978e-08
5.9419e-08
5.90272e-08
5.86211e-08
5.81998e-08
5.77624e-08
5.73089e-08
5.68399e-08
5.63563e-08
5.58594e-08
5.53511e-08
5.48333e-08
5.4308e-08
5.37774e-08
5.32431e-08
5.27064e-08
5.21671e-08
5.16271e-08
5.10869e-08
5.05474e-08
5.0009e-08
4.94716e-08
4.89352e-08
4.83999e-08
4.78658e-08
-1.71277e-07
-1.55875e-07
-1.41248e-07
-1.27317e-07
-1.14071e-07
-1.01555e-07
-8.98163e-08
-7.88602e-08
-6.8633e-08
-5.9051e-08
-5.00315e-08
-4.15093e-08
-3.34432e-08
-2.5815e-08
-1.86187e-08
-1.18467e-08
-5.48504e-09
4.82028e-10
6.06905e-09
1.12906e-08
1.61625e-08
2.07018e-08
2.49245e-08
2.88437e-08
3.24705e-08
3.58163e-08
3.88942e-08
4.17266e-08
4.43221e-08
4.67104e-08
4.88949e-08
5.08799e-08
5.26744e-08
5.42882e-08
5.57323e-08
5.70186e-08
5.81581e-08
5.91602e-08
6.00344e-08
6.0789e-08
6.14313e-08
6.19673e-08
6.24038e-08
6.27491e-08
6.3012e-08
6.32022e-08
6.3329e-08
6.34e-08
6.34213e-08
6.33981e-08
6.33356e-08
6.32383e-08
6.311e-08
6.29535e-08
6.27712e-08
6.25647e-08
6.2336e-08
6.20867e-08
6.1818e-08
6.15316e-08
6.12299e-08
6.09151e-08
6.05891e-08
6.02531e-08
5.99074e-08
5.95512e-08
5.91829e-08
5.87996e-08
5.83983e-08
5.79765e-08
5.75325e-08
5.70662e-08
5.65783e-08
5.60709e-08
5.55469e-08
5.50096e-08
5.44628e-08
5.3912e-08
5.33578e-08
5.28016e-08
5.22463e-08
5.16922e-08
5.11403e-08
5.05909e-08
5.00443e-08
4.95004e-08
4.89592e-08
4.84201e-08
4.7883e-08
-1.6507e-07
-1.53546e-07
-1.42842e-07
-1.32235e-07
-1.21569e-07
-1.11006e-07
-1.00768e-07
-9.09829e-08
-8.16661e-08
-7.2762e-08
-6.41959e-08
-5.59059e-08
-4.78595e-08
-4.00571e-08
-3.25216e-08
-2.52788e-08
-1.83445e-08
-1.17267e-08
-5.43349e-09
5.22496e-10
6.13036e-09
1.13864e-08
1.63041e-08
2.09039e-08
2.51984e-08
2.91969e-08
3.2911e-08
3.63426e-08
3.95003e-08
4.23988e-08
4.50513e-08
4.74674e-08
4.96566e-08
5.16289e-08
5.33969e-08
5.4974e-08
5.63732e-08
5.76074e-08
5.869e-08
5.96323e-08
6.0441e-08
6.11215e-08
6.16826e-08
6.21366e-08
6.24958e-08
6.27704e-08
6.29691e-08
6.30992e-08
6.31666e-08
6.31769e-08
6.31371e-08
6.30576e-08
6.29492e-08
6.28197e-08
6.26733e-08
6.25088e-08
6.23235e-08
6.21147e-08
6.18816e-08
6.16256e-08
6.13503e-08
6.10601e-08
6.07587e-08
6.04482e-08
6.01285e-08
5.97968e-08
5.94495e-08
5.90824e-08
5.8691e-08
5.82718e-08
5.7823e-08
5.73445e-08
5.68382e-08
5.63071e-08
5.5755e-08
5.51863e-08
5.4601e-08
5.40364e-08
5.34617e-08
5.28845e-08
5.23096e-08
5.17392e-08
5.11743e-08
5.06149e-08
5.0061e-08
4.95121e-08
4.89674e-08
4.84263e-08
4.78882e-08
-1.51705e-07
-1.43271e-07
-1.37455e-07
-1.31068e-07