/*--------------------------------*- C++ -*----------------------------------*\
| =========                 |                                                 |
| \\      /  F ield         | OpenFOAM: The Open Source CFD Toolbox           |
|  \\    /   O peration     | Version:  2312                                  |
|   \\  /    A nd           | Website:  www.openfoam.com                      |
|    \\/     M anipulation  |                                                 |
\*---------------------------------------------------------------------------*/
FoamFile
{
    version     2.0;
    format      ascii;
    arch        "LSB;label=32;scalar=64";
    class       surfaceScalarField;
    location    "49000";
    object      phi;
}
// * * * * * * * * * * * * * * * * * * * * * * * * * * * * * * * * * * * * * //

dimensions      [0 3 -1 0 0 0 0];

oriented        oriented;

internalField   nonuniform List<scalar> 
21240
(
0.000664974
1.69226e-06
0.000661072
3.90243e-06
0.000655751
5.32089e-06
0.000649515
6.23642e-06
0.00064264
6.87512e-06
0.000635268
7.37167e-06
0.000627491
7.77654e-06
0.000619389
8.1028e-06
0.000611032
8.35645e-06
0.000602486
8.54647e-06
0.0005938
8.68516e-06
0.000585016
8.78483e-06
0.000576161
8.8551e-06
0.000567258
8.9023e-06
0.000558328
8.93022e-06
0.000549387
8.94135e-06
0.000540449
8.9375e-06
0.000531529
8.92025e-06
0.000522638
8.89091e-06
0.000513787
8.85056e-06
0.000504987
8.80002e-06
0.000496248
8.73988e-06
0.000487577
8.67056e-06
0.000478985
8.59235e-06
0.000470479
8.50548e-06
0.000462069
8.41006e-06
0.000453763
8.30624e-06
0.000445569
8.19402e-06
0.000437495
8.07352e-06
0.000429551
7.94459e-06
0.000421743
7.80747e-06
0.000414081
7.66179e-06
0.000406573
7.50805e-06
0.000399228
7.34551e-06
0.000392053
7.17524e-06
0.000385057
6.99571e-06
0.000378248
6.80912e-06
0.000371635
6.6125e-06
0.000365225
6.41008e-06
0.000359029
6.1962e-06
0.00035305
5.97883e-06
0.000347303
5.74726e-06
0.000341787
5.51641e-06
0.00033652
5.26617e-06
0.000331496
5.02412e-06
0.000326743
4.7529e-06
0.00032224
4.50322e-06
0.000318034
4.20586e-06
0.00031408
3.95432e-06
0.00031046
3.61942e-06
0.000307084
3.37634e-06
0.000304107
2.97754e-06
0.000301341
2.76585e-06
0.000299105
2.23541e-06
0.00029699
2.11554e-06
0.00029575
1.2403e-06
0.000294277
1.47299e-06
0.000294493
-2.16724e-07
0.000293338
1.15536e-06
-3.20773e-06
0.000296546
0.000667556
8.02986e-07
0.00066912
2.33795e-06
0.000670854
3.58753e-06
0.000672525
4.56554e-06
0.000674053
5.34637e-06
0.000675426
5.99881e-06
0.000676638
6.56449e-06
0.000677679
7.06182e-06
0.000678538
7.49784e-06
0.000679207
7.87701e-06
0.000679688
8.20493e-06
0.000679984
8.48853e-06
0.000680104
8.73484e-06
0.000680057
8.94969e-06
0.00067985
9.13742e-06
0.00067949
9.30096e-06
0.000678985
9.44245e-06
0.000678342
9.56345e-06
0.000677567
9.66543e-06
0.000676668
9.74944e-06
0.000675652
9.8166e-06
0.000674524
9.86745e-06
0.000673292
9.90285e-06
0.000671962
9.92282e-06
0.000670539
9.92813e-06
0.000669031
9.91835e-06
0.000667442
9.89438e-06
0.000665781
9.85528e-06
0.000664052
9.80234e-06
0.000662263
9.73385e-06
0.000660419
9.65192e-06
0.000658527
9.55366e-06
0.000656592
9.44258e-06
0.000654624
9.31391e-06
0.000652626
9.17355e-06
0.000650608
9.01365e-06
0.000648573
8.84407e-06
0.000646533
8.65189e-06
0.00064449
8.45356e-06
0.000642458
8.22773e-06
0.000640435
8.00174e-06
0.000638442
7.74031e-06
0.00063647
7.48877e-06
0.000634547
7.18874e-06
0.000632656
6.9153e-06
0.000630837
6.57185e-06
0.000629058
6.28259e-06
0.000627376
5.88781e-06
0.000625738
5.59273e-06
0.000624223
5.13371e-06
0.00062275
4.84918e-06
0.000621423
4.30543e-06
0.00062013
4.05789e-06
0.000618967
3.39863e-06
0.000617854
3.22904e-06
0.000616679
2.4147e-06
0.000615774
2.37809e-06
0.000614167
1.39041e-06
0.000613786
1.53627e-06
4.43386e-07
0.000610135
0.000666951
5.18713e-07
0.000667819
1.47033e-06
0.000669058
2.34759e-06
0.000670483
3.14058e-06
0.000671985
3.84514e-06
0.000673515
4.46892e-06
0.000675055
5.02415e-06
0.000676595
5.52193e-06
0.000678123
5.97008e-06
0.000679626
6.37349e-06
0.000681095
6.73571e-06
0.000682524
7.06001e-06
0.000683909
7.3499e-06
0.00068525
7.60887e-06
0.000686547
7.84018e-06
0.000687801
8.04647e-06
0.000689014
8.22995e-06
0.000690185
8.39218e-06
0.000691316
8.53466e-06
0.000692407
8.65826e-06
0.000693459
8.76417e-06
0.000694474
8.85279e-06
0.000695452
8.92514e-06
0.000696393
8.98112e-06
0.0006973
9.02172e-06
0.000698172
9.0463e-06
0.00069901
9.05601e-06
0.000699816
9.04962e-06
0.00070059
9.02868e-06
0.000701332
8.99114e-06
0.000702045
8.93934e-06
0.000702729
8.87007e-06
0.000703384
8.78692e-06
0.000704013
8.68503e-06
0.000704617
8.5699e-06
0.000705196
8.43427e-06
0.000705754
8.28652e-06
0.00070629
8.11587e-06
0.000706808
7.93496e-06
0.000707308
7.7279e-06
0.000707796
7.51352e-06
0.000708268
7.26856e-06
0.000708736
7.02072e-06
0.000709188
6.7364e-06
0.000709648
6.45557e-06
0.00071009
6.13052e-06
0.000710554
5.81774e-06
0.000710991
5.45103e-06
0.000711476
5.10792e-06
0.00071191
4.69953e-06
0.000712431
4.328e-06
0.000712857
3.88002e-06
0.000713433
3.48184e-06
0.00071383
3.00164e-06
0.000714481
2.57801e-06
0.000714809
2.08606e-06
0.000715551
1.63685e-06
0.000715758
1.18334e-06
0.000716597
6.96789e-07
3.83472e-07
0.000716657
0.000666854
3.31571e-07
0.000667309
1.01559e-06
0.000667972
1.6843e-06
0.000668795
2.317e-06
0.000669736
2.90448e-06
0.000670761
3.44384e-06
0.000671849
3.93664e-06
0.000672984
4.38654e-06
0.000674157
4.79744e-06
0.000675358
5.17257e-06
0.000676579
5.51445e-06
0.000677814
5.82513e-06
0.000679057
6.10658e-06
0.000680305
6.36079e-06
0.000681556
6.58977e-06
0.000682807
6.79534e-06
0.000684057
6.9792e-06
0.000685307
7.14267e-06
0.000686555
7.28694e-06
0.0006878
7.41287e-06
0.000689043
7.52134e-06
0.000690283
7.61288e-06
0.00069152
7.68815e-06
0.000692754
7.74739e-06
0.000693984
7.79112e-06
0.000695211
7.81932e-06
0.000696435
7.83238e-06
0.000697654
7.83007e-06
0.00069887
7.81272e-06
0.000700082
7.77988e-06
0.000701289
7.73186e-06
0.000702491
7.66808e-06
0.000703689
7.58875e-06
0.000704881
7.49331e-06
0.000706069
7.38176e-06
0.00070725
7.25375e-06
0.000708427
7.10881e-06
0.000709596
6.94726e-06
0.000710763
6.76756e-06
0.00071192
6.57152e-06
0.000713078
6.35548e-06
0.000714222
6.12423e-06
0.000715373
5.86997e-06
0.000716506
5.60321e-06
0.000717653
5.30844e-06
0.000718777
5.00663e-06
0.000719926
4.66843e-06
0.000721044
4.33348e-06
0.000722204
3.94814e-06
0.000723318
3.5847e-06
0.000724499
3.14769e-06
0.000725613
2.76529e-06
0.000726825
2.27076e-06
0.00072794
1.88629e-06
0.000729192
1.32548e-06
0.000730311
9.67034e-07
0.00073162
3.28511e-07
0.000732758
4.52926e-08
0.000734203
-7.48474e-07
-9.15647e-07
0.000735502
0.000666738
2.59838e-07
0.00066697
7.84336e-07
0.000667356
1.298e-06
0.000667879
1.79382e-06
0.000668518
2.26591e-06
0.000669251
2.71067e-06
0.000670061
3.12664e-06
0.000670934
3.51391e-06
0.000671858
3.87337e-06
0.000672824
4.20612e-06
0.000673825
4.51327e-06
0.000674855
4.79578e-06
0.000675907
5.0546e-06
0.000676977
5.29071e-06
0.000678061
5.50512e-06
0.000679158
5.69889e-06
0.000680264
5.87298e-06
0.000681378
6.02831e-06
0.0006825
6.16566e-06
0.000683627
6.28573e-06
0.000684759
6.38906e-06
0.000685896
6.47618e-06
0.000687036
6.54743e-06
0.000688181
6.60323e-06
0.000689328
6.64369e-06
0.000690478
6.66919e-06
0.000691631
6.67956e-06
0.000692786
6.67525e-06
0.000693943
6.65572e-06
0.000695101
6.62161e-06
0.000696261
6.57191e-06
0.000697421
6.50766e-06
0.000698583
6.42714e-06
0.000699744
6.33213e-06
0.000700906
6.21978e-06
0.000702067
6.09318e-06
0.000703228
5.94767e-06
0.000704387
5.78855e-06
0.000705546
5.60822e-06
0.000706702
5.41566e-06
0.000707859
5.1985e-06
0.000709011
4.97176e-06
0.000710166
4.71536e-06
0.000711315
4.45413e-06
0.000712468
4.15559e-06
0.000713614
3.86037e-06
0.000714766
3.516e-06
0.000715912
3.18832e-06
0.000717067
2.7927e-06
0.000718217
2.43518e-06
0.000719384
1.97981e-06
0.000720553
1.59688e-06
0.000721755
1.0689e-06
0.000722973
6.68442e-07
0.000724256
4.18872e-08
0.000725561
-3.37381e-07
0.000726932
-1.04249e-06
0.000728381
-1.40418e-06
0.0007299
-2.26775e-06
-2.5805e-06
0.000731565
0.000666724
2.0252e-07
0.000666899
6.09321e-07
0.000667184
1.01337e-06
0.000667569
1.40815e-06
0.000668045
1.78994e-06
0.0006686
2.15583e-06
0.000669223
2.50373e-06
0.000669904
2.83245e-06
0.000670636
3.1414e-06
0.000671412
3.43046e-06
0.000672226
3.69972e-06
0.000673072
3.94943e-06
0.000673947
4.17995e-06
0.000674846
4.39173e-06
0.000675766
4.58522e-06
0.000676703
4.76097e-06
0.000677657
4.91947e-06
0.000678624
5.06127e-06
0.000679603
5.18679e-06
0.000680592
5.29654e-06
0.00068159
5.39081e-06
0.000682596
5.47002e-06
0.00068361
5.5343e-06
0.000684629
5.58405e-06
0.000685653
5.61919e-06
0.000686682
5.64014e-06
0.000687715
5.64656e-06
0.000688752
5.63898e-06
0.000689791
5.61671e-06
0.000690832
5.5805e-06
0.000691874
5.52917e-06
0.000692918
5.46389e-06
0.000693963
5.38279e-06
0.000695007
5.28773e-06
0.000696051
5.17577e-06
0.000697094
5.04998e-06
0.000698136
4.90575e-06
0.000699177
4.7481e-06
0.000700215
4.56981e-06
0.000701252
4.37903e-06
0.000702286
4.16448e-06
0.000703318
3.93926e-06
0.000704348
3.68568e-06
0.000705377
3.42467e-06
0.000706404
3.1285e-06
0.000707434
2.83046e-06
0.000708463
2.48729e-06
0.000709499
2.15184e-06
0.000710535
1.75682e-06
0.000711585
1.38574e-06
0.000712631
9.3385e-07
0.000713695
5.32157e-07
0.000714741
2.31991e-08
0.000715835
-4.25779e-07
0.000716918
-1.04104e-06
0.000718082
-1.50126e-06
0.000719258
-2.21864e-06
0.000720542
-2.68753e-06
0.000721819
-3.54553e-06
-4.00208e-06
0.000723241
0.000666708
1.60803e-07
0.000666834
4.84131e-07
0.00066704
8.06561e-07
0.000667325
1.12353e-06
0.000667682
1.4325e-06
0.000668107
1.73133e-06
0.000668592
2.01832e-06
0.000669133
2.29221e-06
0.000669722
2.55225e-06
0.000670354
2.7981e-06
0.000671025
3.02839e-06
0.000671732
3.24323e-06
0.000672469
3.44275e-06
0.000673234
3.62706e-06
0.000674022
3.79627e-06
0.000674833
3.95059e-06
0.000675662
4.0902e-06
0.000676508
4.21538e-06
0.000677368
4.32632e-06
0.000678242
4.42328e-06
0.000679126
4.5064e-06
0.00068002
4.57593e-06
0.000680923
4.63188e-06
0.000681832
4.67451e-06
0.000682748
4.7037e-06
0.000683668
4.71972e-06
0.000684592
4.72225e-06
0.00068552
4.71163e-06
0.000686449
4.68732e-06
0.00068738
4.64977e-06
0.000688311
4.59809e-06
0.000689242
4.53303e-06
0.000690171
4.45316e-06
0.000691099
4.35971e-06
0.000692025
4.25049e-06
0.000692947
4.12752e-06
0.000693866
3.98745e-06
0.00069478
3.83356e-06
0.000695689
3.66073e-06
0.000696594
3.47428e-06
0.000697492
3.26637e-06
0.000698386
3.04556e-06
0.000699272
2.79977e-06
0.000700154
2.54275e-06
0.000701026
2.25584e-06
0.000701896
1.96077e-06
0.000702755
1.62836e-06
0.000703614
1.29248e-06
0.000704464
9.07312e-07
0.000705323
5.26046e-07
0.000706181
7.58109e-08
0.000707059
-3.45076e-07
0.000707938
-8.56642e-07
0.00070884
-1.3277e-06
0.000709726
-1.92701e-06
0.000710671
-2.44548e-06
0.000711601
-3.14923e-06
0.000712625
-3.71115e-06
0.000713626
-4.54668e-06
-5.14172e-06
0.000714766
0.000666699
1.2878e-07
0.000666795
3.87337e-07
0.000666957
6.45542e-07
0.00066718
9.002e-07
0.000667463
1.14957e-06
0.000667802
1.39212e-06
0.000668194
1.62652e-06
0.000668634
1.85169e-06
0.00066912
2.06675e-06
0.000669647
2.27096e-06
0.000670212
2.46372e-06
0.00067081
2.64461e-06
0.00067144
2.81342e-06
0.000672097
2.97004e-06
0.000672778
3.11441e-06
0.000673482
3.2465e-06
0.000674206
3.36631e-06
0.000674948
3.47389e-06
0.000675705
3.56928e-06
0.000676476
3.65256e-06
0.000677258
3.72376e-06
0.000678051
3.78297e-06
0.000678853
3.83015e-06
0.000679662
3.8654e-06
0.000680477
3.8886e-06
0.000681297
3.89984e-06
0.00068212
3.89889e-06
0.000682946
3.88587e-06
0.000683773
3.8604e-06
0.0006846
3.82264e-06
0.000685426
3.77199e-06
0.000686251
3.70874e-06
0.000687072
3.632e-06
0.000687889
3.54225e-06
0.000688702
3.43817e-06
0.000689509
3.32061e-06
0.000690308
3.18762e-06
0.000691101
3.04064e-06
0.000691885
2.87679e-06
0.000692661
2.69844e-06
0.000693426
2.50131e-06
0.000694182
2.28928e-06
0.000694926
2.0559e-06
0.000695662
1.80742e-06
0.000696383
1.53412e-06
0.000697098
1.2461e-06
0.000697798
9.2876e-07
0.000698492
5.98472e-07
0.000699165
2.33715e-07
0.000699835
-1.43631e-07
0.000700484
-5.7327e-07
0.000701145
-1.00643e-06
0.000701788
-1.49932e-06
0.00070245
-1.98944e-06
0.000703084
-2.56176e-06
0.000703755
-3.11649e-06
0.000704391
-3.7845e-06
0.000705087
-4.40788e-06
0.000705732
-5.19086e-06
-5.88315e-06
0.000706473
0.000666693
1.02617e-07
0.000666772
3.08502e-07
0.000666903
5.14255e-07
0.000667086
7.17545e-07
0.000667318
9.17142e-07
0.000667598
1.11193e-06
0.000667924
1.3009e-06
0.000668292
1.48316e-06
0.000668701
1.65795e-06
0.000669148
1.82463e-06
0.000669629
1.98268e-06
0.000670141
2.13167e-06
0.000670684
2.27126e-06
0.000671252
2.40122e-06
0.000671846
2.52134e-06
0.000672461
2.6315e-06
0.000673095
2.73158e-06
0.000673748
2.82151e-06
0.000674416
2.90124e-06
0.000675098
2.97071e-06
0.000675791
3.0299e-06
0.000676496
3.07876e-06
0.000677209
3.11724e-06
0.000677929
3.14531e-06
0.000678654
3.16287e-06
0.000679384
3.16988e-06
0.000680117
3.16616e-06
0.000680851
3.15167e-06
0.000681585
3.12616e-06
0.000682319
3.08955e-06
0.000683049
3.04151e-06
0.000683776
2.98194e-06
0.000684497
2.91038e-06
0.000685213
2.82675e-06
0.000685921
2.73041e-06
0.00068662
2.62131e-06
0.000687309
2.4986e-06
0.000687987
2.3623e-06
0.000688653
2.21125e-06
0.000689306
2.04563e-06
0.000689943
1.86386e-06
0.000690566
1.66636e-06
0.000691171
1.451e-06
0.00069176
1.21859e-06
0.000692328
9.66178e-07
0.000692879
6.952e-07
0.000693406
4.01522e-07
0.000693916
8.80894e-08
0.000694405
-2.54809e-07
0.000694882
-6.20827e-07
0.000695327
-1.01815e-06
0.000695761
-1.44054e-06
0.000696162
-1.90017e-06
0.000696559
-2.38701e-06
0.000696917
-2.91926e-06
0.000697282
-3.48107e-06
0.000697596
-4.09916e-06
0.000697936
-4.74782e-06
0.000698212
-5.46685e-06
-6.21355e-06
0.000698543
0.000666689
8.05575e-08
0.000666755
2.42115e-07
0.000666866
4.03636e-07
0.00066702
5.63392e-07
0.000667217
7.20494e-07
0.000667454
8.74125e-07
0.000667732
1.02353e-06
0.000668047
1.16803e-06
0.000668398
1.30701e-06
0.000668782
1.43995e-06
0.000669199
1.56638e-06
0.000669644
1.68592e-06
0.000670118
1.79823e-06
0.000670616
1.90304e-06
0.000671137
2.0001e-06
0.000671679
2.08923e-06
0.000672241
2.17028e-06
0.000672819
2.24312e-06
0.000673413
2.30763e-06
0.00067402
2.3637e-06
0.000674638
2.41127e-06
0.000675267
2.45023e-06
0.000675903
2.4805e-06
0.000676547
2.50198e-06
0.000677195
2.51459e-06
0.000677847
2.51819e-06
0.0006785
2.51267e-06
0.000679154
2.49786e-06
0.000679807
2.47363e-06
0.000680456
2.43972e-06
0.000681102
2.39601e-06
0.000681742
2.34214e-06
0.000682374
2.27797e-06
0.000682998
2.20302e-06
0.000683611
2.11716e-06
0.000684213
2.01972e-06
0.000684801
1.91064e-06
0.000685374
1.78898e-06
0.00068593
1.65481e-06
0.000686469
1.50678e-06
0.000686988
1.34525e-06
0.000687486
1.16823e-06
0.00068796
9.76628e-07
0.000688411
7.67475e-07
0.000688835
5.42699e-07
0.000689232
2.97975e-07
0.000689596
3.80302e-08
0.000689936
-2.51921e-07
0.00069024
-5.59369e-07
0.000690515
-8.9608e-07
0.000690749
-1.25174e-06
0.000690953
-1.64455e-06
0.000691109
-2.05631e-06
0.000691238
-2.51564e-06
0.00069131
-2.99191e-06
0.00069136
-3.53075e-06
0.000691342
-4.08122e-06
0.00069131
-4.71588e-06
0.000691194
-5.35026e-06
-6.09892e-06
0.000691079
0.000666686
6.14377e-08
0.000666743
1.84614e-07
0.000666839
3.07794e-07
0.000666973
4.29706e-07
0.000667144
5.49713e-07
0.00066735
6.67221e-07
0.000667592
7.81679e-07
0.000667868
8.92575e-07
0.000668175
9.99447e-07
0.000668513
1.10188e-06
0.00066888
1.19949e-06
0.000669274
1.29195e-06
0.000669694
1.37898e-06
0.000670136
1.46031e-06
0.000670601
1.53572e-06
0.000671085
1.60503e-06
0.000671587
1.66808e-06
0.000672106
1.7247e-06
0.000672638
1.77479e-06
0.000673184
1.81821e-06
0.00067374
1.85487e-06
0.000674306
1.88464e-06
0.000674879
1.90746e-06
0.000675458
1.92317e-06
0.000676041
1.93171e-06
0.000676626
1.93291e-06
0.000677212
1.9267e-06
0.000677797
1.91284e-06
0.000678379
1.89128e-06
0.000678957
1.86171e-06
0.000679529
1.82409e-06
0.000680093
1.77797e-06
0.000680648
1.72338e-06
0.000681191
1.65967e-06
0.000681721
1.587e-06
0.000682237
1.50441e-06
0.000682735
1.41229e-06
0.000683215
1.30922e-06
0.000683674
1.19598e-06
0.00068411
1.07045e-06
0.000684521
9.34099e-07
0.000684906
7.83689e-07
0.00068526
6.21861e-07
0.000685584
4.43673e-07
0.000685873
2.53789e-07
0.000686126
4.51657e-08
0.000686343
-1.79285e-07
0.00068652
-4.28516e-07
0.00068665
-6.89373e-07
0.000686735
-9.81674e-07
0.000686768
-1.28423e-06
0.000686752
-1.62823e-06
0.000686674
-1.97862e-06
0.000686543
-2.38508e-06
0.000686341
-2.78999e-06
0.000686084
-3.27287e-06
0.000685742
-3.73931e-06
0.000685343
-4.31681e-06
0.000684843
-4.85064e-06
-5.5449e-06
0.000684289
0.000666684
4.4422e-08
0.000666735
1.33465e-07
0.00066682
2.22523e-07
0.000666939
3.107e-07
0.000667091
3.97553e-07
0.000667276
4.82666e-07
0.000667492
5.65652e-07
0.000667738
6.46146e-07
0.000668014
7.23814e-07
0.000668317
7.98346e-07
0.000668647
8.69463e-07
0.000669003
9.36908e-07
0.000669381
1.00046e-06
0.000669781
1.0599e-06
0.000670202
1.11506e-06
0.000670641
1.16577e-06
0.000671098
1.21189e-06
0.000671569
1.25328e-06
0.000672054
1.28985e-06
0.000672551
1.32146e-06
0.000673058
1.34803e-06
0.000673573
1.36944e-06
0.000674095
1.38562e-06
0.000674621
1.39644e-06
0.000675151
1.40183e-06
0.000675682
1.40164e-06
0.000676213
1.39582e-06
0.000676742
1.38415e-06
0.000677267
1.3666e-06
0.000677786
1.34287e-06
0.000678297
1.31298e-06
0.000678798
1.27648e-06
0.000679288
1.2335e-06
0.000679764
1.18338e-06
0.000680225
1.12638e-06
0.000680668
1.06154e-06
0.000681091
9.8941e-07
0.000681491
9.08522e-07
0.000681867
8.19903e-07
0.000682217
7.21323e-07
0.000682536
6.14603e-07
0.000682823
4.96315e-07
0.000683076
3.69606e-07
0.00068329
2.29204e-07
0.000683463
8.06649e-08
0.000683595
-8.61297e-08
0.000683678
-2.62689e-07
0.00068371
-4.60706e-07
0.000683687
-6.65868e-07
0.000683605
-8.99603e-07
0.000683458
-1.13792e-06
0.000683245
-1.41485e-06
0.000682957
-1.69096e-06
0.000682593
-2.02074e-06
0.000682143
-2.33958e-06
0.000681605
-2.7351e-06
0.000680967
-3.10145e-06
0.00068023
-3.57993e-06
0.000679376
-3.99677e-06
-4.57998e-06
0.000678411
0.000666682
2.88641e-08
0.000666729
8.67125e-08
0.000666807
1.44573e-07
0.000666916
2.01874e-07
0.000667055
2.58334e-07
0.000667224
3.13689e-07
0.000667422
3.67691e-07
0.000667648
4.20105e-07
0.000667901
4.70715e-07
0.00066818
5.19317e-07
0.000668484
5.65726e-07
0.000668811
6.09768e-07
0.00066916
6.51291e-07
0.00066953
6.9015e-07
0.000669919
7.2622e-07
0.000670325
7.59381e-07
0.000670747
7.89535e-07
0.000671184
8.16578e-07
0.000671634
8.40433e-07
0.000672094
8.61004e-07
0.000672564
8.78232e-07
0.000673041
8.92019e-07
0.000673525
9.02319e-07
0.000674012
9.09022e-07
0.000674502
9.12093e-07
0.000674992
9.11398e-07
0.000675481
9.06917e-07
0.000675967
8.9847e-07
0.000676447
8.86061e-07
0.00067692
8.69443e-07
0.000677385
8.48662e-07
0.000677838
8.23363e-07
0.000678278
7.93671e-07
0.000678702
7.59063e-07
0.000679109
7.19804e-07
0.000679495
6.75113e-07
0.000679859
6.25488e-07
0.000680198
5.69752e-07
0.000680509
5.08798e-07
0.000680789
4.40827e-07
0.000681037
3.67396e-07
0.000681247
2.85741e-07
0.000681418
1.98543e-07
0.000681546
1.01593e-07
0.000681626
3.13865e-10
0.000681657
-1.17182e-07
0.000681633
-2.38688e-07
0.000681549
-3.76303e-07
0.000681401
-5.17919e-07
0.000681182
-6.81108e-07
0.00068089
-8.4579e-07
0.000680515
-1.04003e-06
0.000680055
-1.23088e-06
0.000679498
-1.46345e-06
0.000678842
-1.68375e-06
0.000678072
-1.96454e-06
0.000677187
-2.21725e-06
0.000676167
-2.55967e-06
0.000675016
-2.84608e-06
-3.26752e-06
0.000673704
0.000666681
1.42279e-08
0.000666725
4.27371e-08
0.000666799
7.12501e-08
0.000666901
9.94878e-08
0.000667032
1.27313e-07
0.000667191
1.54598e-07
0.000667378
1.81222e-07
0.000667591
2.07069e-07
0.000667829
2.32034e-07
0.000668093
2.56015e-07
0.000668379
2.78921e-07
0.000668688
3.00664e-07
0.000669019
3.21168e-07
0.000669368
3.40358e-07
0.000669736
3.58171e-07
0.000670121
3.74544e-07
0.000670521
3.89426e-07
0.000670935
4.02763e-07
0.000671361
4.14514e-07
0.000671798
4.24628e-07
0.000672243
4.33072e-07
0.000672695
4.39796e-07
0.000673152
4.44773e-07
0.000673614
4.47946e-07
0.000674076
4.49295e-07
0.000674539
4.48748e-07
0.000675
4.46297e-07
0.000675456
4.41844e-07
0.000675907
4.35395e-07
0.00067635
4.26815e-07
0.000676782
4.16135e-07
0.000677202
4.0316e-07
0.000677608
3.87967e-07
0.000677997
3.7027e-07
0.000678366
3.50224e-07
0.000678714
3.274e-07
0.000679037
3.02088e-07
0.000679334
2.73639e-07
0.0006796
2.42568e-07
0.000679833
2.07881e-07
0.00068003
1.70471e-07
0.000680187
1.28798e-07
0.000680301
8.4382e-08
0.000680367
3.48674e-08
0.000680385
-1.75116e-08
0.000680345
-7.72691e-08
0.000680246
-1.39324e-07
0.00068008
-2.09953e-07
0.000679844
-2.82304e-07
0.000679529
-3.66214e-07
0.000679134
-4.50379e-07
0.000678644
-5.50523e-07
0.000678061
-6.48092e-07
0.000677366
-7.68393e-07
0.000676564
-8.80992e-07
0.000675626
-1.0268e-06
0.000674564
-1.15584e-06
0.000673339
-1.33451e-06
0.000671974
-1.48038e-06
-1.70153e-06
0.000670408
0.000666681
3.83618e-11
0.000666723
1.07651e-10
0.000666795
1.69543e-10
0.000666894
2.24259e-10
0.000667021
2.71765e-10
0.000667175
3.12011e-10
0.000667356
3.45159e-10
0.000667563
3.71489e-10
0.000667794
3.91332e-10
0.00066805
4.04988e-10
0.000668328
4.12666e-10
0.000668629
4.14539e-10
0.000668949
4.10762e-10
0.000669289
4.01464e-10
0.000669647
3.87081e-10
0.000670021
3.67779e-10
0.00067041
3.43954e-10
0.000670813
3.15817e-10
0.000671227
2.84019e-10
0.000671652
2.4849e-10
0.000672084
2.09555e-10
0.000672524
1.67198e-10
0.000672969
1.22305e-10
0.000673417
7.44877e-11
0.000673866
2.42484e-11
0.000674315
-2.75711e-11
0.000674761
-8.15354e-11
0.000675203
-1.37026e-10
0.000675639
-1.93731e-10
0.000676066
-2.51409e-10
0.000676482
-3.09824e-10
0.000676886
-3.68787e-10
0.000677274
-4.28087e-10
0.000677645
-4.87561e-10
0.000677996
-5.4697e-10
0.000678324
-6.0614e-10
0.000678626
-6.6476e-10
0.000678901
-7.22746e-10
0.000679144
-7.79832e-10
0.000679353
-8.36348e-10
0.000679524
-8.92246e-10
0.000679654
-9.49526e-10
0.000679739
-1.0101e-09
0.000679775
-1.06748e-09
0.000679759
-1.12021e-09
0.000679683
-1.1693e-09
0.000679545
-1.21899e-09
0.000679336
-1.26761e-09
0.000679055
-1.31499e-09
0.00067869
-1.36006e-09
0.000678241
-1.40449e-09
0.000677692
-1.44678e-09
0.000677045
-1.48847e-09
0.000676279
-1.52779e-09
0.000675399
-1.56654e-09
0.000674374
-1.60301e-09
0.00067322
-1.63859e-09
0.000671887
-1.67231e-09
0.000670408
-1.70395e-09
-1.73526e-09
0.000668708
0.000666681
-1.41515e-08
0.000666723
-4.25233e-08
0.000666795
-7.09132e-08
0.000666894
-9.90421e-08
0.000667021
-1.26773e-07
0.000667175
-1.53978e-07
0.000667356
-1.80536e-07
0.000667563
-2.06331e-07
0.000667794
-2.31256e-07
0.00066805
-2.5521e-07
0.000668329
-2.78101e-07
0.000668629
-2.9984e-07
0.00066895
-3.20352e-07
0.00066929
-3.3956e-07
0.000669647
-3.57402e-07
0.000670021
-3.73814e-07
0.000670411
-3.88743e-07
0.000670813
-4.02136e-07
0.000671227
-4.13951e-07
0.000671652
-4.24135e-07
0.000672085
-4.32657e-07
0.000672524
-4.39465e-07
0.000672969
-4.44532e-07
0.000673417
-4.47799e-07
0.000673866
-4.49248e-07
0.000674315
-4.48806e-07
0.000674761
-4.46462e-07
0.000675203
-4.42119e-07
0.000675639
-4.35783e-07
0.000676066
-4.27318e-07
0.000676482
-4.16754e-07
0.000676886
-4.03897e-07
0.000677274
-3.88822e-07
0.000677645
-3.71244e-07
0.000677996
-3.51316e-07
0.000678324
-3.2861e-07
0.000678626
-3.03416e-07
0.000678901
-2.75083e-07
0.000679144
-2.44128e-07
0.000679353
-2.09553e-07
0.000679524
-1.72252e-07
0.000679654
-1.30683e-07
0.000679739
-8.63688e-08
0.000679775
-3.69518e-08
0.000679759
1.5255e-08
0.000679683
7.49356e-08
0.000679545
1.3689e-07
0.000679336
2.07422e-07
0.000679055
2.79679e-07
0.00067869
3.635e-07
0.000678241
4.47577e-07
0.000677692
5.47638e-07
0.000677045
6.45124e-07
0.000676278
7.65347e-07
0.000675399
8.77869e-07
0.000674374
1.02361e-06
0.00067322
1.15257e-06
0.000671887
1.33117e-06
0.000670408
1.47698e-06
1.69806e-06
0.000668708
0.000666681
-2.87892e-08
0.000666725
-8.65027e-08
0.000666799
-1.44242e-07
0.000666901
-2.01437e-07
0.000667032
-2.57804e-07
0.000667191
-3.1308e-07
0.000667378
-3.67017e-07
0.000667591
-4.1938e-07
0.000667829
-4.69952e-07
0.000668093
-5.18527e-07
0.00066838
-5.64921e-07
0.000668689
-6.08961e-07
0.000669019
-6.50491e-07
0.000669369
-6.89369e-07
0.000669737
-7.25467e-07
0.000670121
-7.58667e-07
0.000670522
-7.88868e-07
0.000670935
-8.15966e-07
0.000671361
-8.39883e-07
0.000671798
-8.60525e-07
0.000672243
-8.77829e-07
0.000672695
-8.917e-07
0.000673153
-9.02088e-07
0.000673614
-9.08885e-07
0.000674077
-9.12055e-07
0.000674539
-9.11463e-07
0.000675
-9.07087e-07
0.000675457
-8.98749e-07
0.000675907
-8.86452e-07
0.00067635
-8.69947e-07
0.000676782
-8.49281e-07
0.000677203
-8.24098e-07
0.000677608
-7.94522e-07
0.000677997
-7.60032e-07
0.000678367
-7.20889e-07
0.000678714
-6.76314e-07
0.000679038
-6.26806e-07
0.000679334
-5.71186e-07
0.0006796
-5.10348e-07
0.000679833
-4.42491e-07
0.00068003
-3.69177e-07
0.000680187
-2.87635e-07
0.000680301
-2.0055e-07
0.000680368
-1.03698e-07
0.000680385
-2.3243e-09
0.000680345
1.14835e-07
0.000680246
2.36261e-07
0.00068008
3.73796e-07
0.000679844
5.15322e-07
0.000679529
6.78423e-07
0.000679134
8.43016e-07
0.000678644
1.03717e-06
0.000678061
1.22794e-06
0.000677366
1.46044e-06
0.000676563
1.68066e-06
0.000675626
1.96137e-06
0.000674564
2.21401e-06
0.000673339
2.55637e-06
0.000671973
2.8427e-06
3.26408e-06
0.000670407
0.000666682
-4.43493e-08
0.000666729
-1.33262e-07
0.000666807
-2.22202e-07
0.000666916
-3.10276e-07
0.000667055
-3.97038e-07
0.000667224
-4.82076e-07
0.000667422
-5.64999e-07
0.000667648
-6.45444e-07
0.000667901
-7.23075e-07
0.00066818
-7.97582e-07
0.000668484
-8.68684e-07
0.000668811
-9.36127e-07
0.00066916
-9.99682e-07
0.00066953
-1.05914e-06
0.000669919
-1.11433e-06
0.000670325
-1.16508e-06
0.000670748
-1.21125e-06
0.000671185
-1.2527e-06
0.000671634
-1.28932e-06
0.000672094
-1.321e-06
0.000672564
-1.34764e-06
0.000673042
-1.36914e-06
0.000673525
-1.3854e-06
0.000674012
-1.39631e-06
0.000674502
-1.40181e-06
0.000674992
-1.40172e-06
0.000675481
-1.396e-06
0.000675967
-1.38443e-06
0.000676448
-1.367e-06
0.000676921
-1.34337e-06
0.000677385
-1.3136e-06
0.000677838
-1.27721e-06
0.000678278
-1.23435e-06
0.000678703
-1.18433e-06
0.000679109
-1.12745e-06
0.000679496
-1.06273e-06
0.000679859
-9.90711e-07
0.000680198
-9.09936e-07
0.000680509
-8.21428e-07
0.00068079
-7.22956e-07
0.000681037
-6.16341e-07
0.000681247
-4.98153e-07
0.000681418
-3.71544e-07
0.000681546
-2.31237e-07
0.000681626
-8.27946e-08
0.000681657
8.38422e-08
0.000681633
2.60315e-07
0.000681549
4.58244e-07
0.000681401
6.63316e-07
0.000681182
8.96967e-07
0.00068089
1.1352e-06
0.000680515
1.41205e-06
0.000680055
1.68808e-06
0.000679498
2.01779e-06
0.000678842
2.33654e-06
0.000678071
2.732e-06
0.000677187
3.09827e-06
0.000676167
3.57668e-06
0.000675016
3.99345e-06
4.5766e-06
0.000673703
0.000666684
-6.1368e-08
0.000666735
-1.84419e-07
0.00066682
-3.07486e-07
0.000666939
-4.293e-07
0.000667091
-5.49221e-07
0.000667276
-6.66656e-07
0.000667492
-7.81054e-07
0.000667738
-8.91904e-07
0.000668014
-9.98741e-07
0.000668318
-1.10115e-06
0.000668648
-1.19874e-06
0.000669003
-1.29121e-06
0.000669381
-1.37824e-06
0.000669782
-1.45959e-06
0.000670203
-1.53503e-06
0.000670642
-1.60438e-06
0.000671098
-1.66747e-06
0.000671569
-1.72415e-06
0.000672054
-1.77429e-06
0.000672551
-1.81778e-06
0.000673058
-1.85451e-06
0.000673573
-1.88437e-06
0.000674095
-1.90727e-06
0.000674622
-1.92307e-06
0.000675152
-1.93171e-06
0.000675683
-1.933e-06
0.000676214
-1.92689e-06
0.000676743
-1.91313e-06
0.000677267
-1.89168e-06
0.000677786
-1.86221e-06
0.000678297
-1.8247e-06
0.000678799
-1.77869e-06
0.000679289
-1.72421e-06
0.000679765
-1.66062e-06
0.000680226
-1.58806e-06
0.000680668
-1.50558e-06
0.000681091
-1.41357e-06
0.000681492
-1.31061e-06
0.000681868
-1.19748e-06
0.000682217
-1.07205e-06
0.000682537
-9.35802e-07
0.000682824
-7.85496e-07
0.000683076
-6.23769e-07
0.000683291
-4.45678e-07
0.000683464
-2.55884e-07
0.000683595
-4.73217e-08
0.000683678
1.76965e-07
0.00068371
4.26117e-07
0.000683687
6.86886e-07
0.000683605
9.79107e-07
0.000683458
1.28158e-06
0.000683245
1.6255e-06
0.000682957
1.97581e-06
0.000682593
2.3822e-06
0.000682142
2.78703e-06
0.000681604
3.26984e-06
0.000680966
3.7362e-06
0.000680229
4.31365e-06
0.000679375
4.84739e-06
5.5416e-06
0.00067841
0.000666686
-8.04916e-08
0.000666743
-2.4193e-07
0.000666839
-4.03346e-07
0.000666973
-5.63008e-07
0.000667144
-7.20029e-07
0.000667351
-8.73592e-07
0.000667592
-1.02294e-06
0.000667868
-1.1674e-06
0.000668176
-1.30635e-06
0.000668514
-1.43926e-06
0.000668881
-1.56569e-06
0.000669275
-1.68523e-06
0.000669694
-1.79754e-06
0.000670137
-1.90236e-06
0.000670601
-1.99946e-06
0.000671085
-2.08863e-06
0.000671588
-2.16972e-06
0.000672106
-2.24261e-06
0.000672639
-2.30717e-06
0.000673185
-2.36332e-06
0.000673741
-2.41095e-06
0.000674307
-2.44999e-06
0.00067488
-2.48034e-06
0.000675459
-2.50191e-06
0.000676041
-2.51461e-06
0.000676627
-2.5183e-06
0.000677213
-2.51288e-06
0.000677798
-2.49816e-06
0.00067838
-2.47403e-06
0.000678958
-2.44023e-06
0.00067953
-2.39662e-06
0.000680094
-2.34286e-06
0.000680649
-2.2788e-06
0.000681192
-2.20395e-06
0.000681722
-2.1182e-06
0.000682238
-2.02087e-06
0.000682736
-1.91189e-06
0.000683216
-1.79033e-06
0.000683674
-1.65627e-06
0.000684111
-1.50834e-06
0.000684522
-1.34691e-06
0.000684906
-1.16999e-06
0.000685261
-9.78479e-07
0.000685585
-7.69416e-07
0.000685874
-5.44733e-07
0.000686126
-3.00091e-07
0.000686343
-4.01998e-08
0.00068652
2.49588e-07
0.00068665
5.56957e-07
0.000686735
8.93599e-07
0.000686768
1.24917e-06
0.000686751
1.64192e-06
0.000686674
2.05359e-06
0.000686543
2.51285e-06
0.000686341
2.98904e-06
0.000686083
3.52783e-06
0.000685741
4.07822e-06
0.000685342
4.71282e-06
0.000684842
5.34712e-06
6.09572e-06
0.000684288
0.000666689
-1.02556e-07
0.000666755
-3.0833e-07
0.000666866
-5.13985e-07
0.00066702
-7.17188e-07
0.000667217
-9.1671e-07
0.000667454
-1.11143e-06