/*--------------------------------*- C++ -*----------------------------------*\
| =========                 |                                                 |
| \\      /  F ield         | OpenFOAM: The Open Source CFD Toolbox           |
|  \\    /   O peration     | Version:  2312                                  |
|   \\  /    A nd           | Website:  www.openfoam.com                      |
|    \\/     M anipulation  |                                                 |
\*---------------------------------------------------------------------------*/
FoamFile
{
    version     2.0;
    format      ascii;
    arch        "LSB;label=32;scalar=64";
    class       volVectorField;
    location    "99000";
    object      U;
}
// * * * * * * * * * * * * * * * * * * * * * * * * * * * * * * * * * * * * * //

dimensions      [0 1 -1 0 0 0 0];

internalField   nonuniform List<vector> 
2715
(
(0.000267309 2.90396e-05 1.07169e-24)
(0.000278349 -3.58822e-06 0)
(0.000243261 -2.66228e-06 0)
(0.00022807 -3.39939e-06 0)
(0.000220244 -3.40864e-06 -2.49291e-23)
(0.000225037 -4.278e-06 2.4394e-23)
(0.000226767 -4.40761e-06 0)
(0.000240563 -5.32942e-06 6.28233e-25)
(0.000246659 -4.88901e-06 0)
(0.000266427 -5.50755e-06 0)
(0.000273867 -4.54631e-06 -1.88198e-25)
(0.000296609 -4.82767e-06 0)
(0.000302615 -3.27459e-06 -3.96564e-26)
(0.00032543 -3.19459e-06 0)
(0.000327406 -1.08112e-06 2.54816e-24)
(0.000348057 -5.53868e-07 -2.54864e-24)
(0.000344496 1.62684e-06 0)
(0.000361714 1.78342e-06 -1.16233e-25)
(0.000352257 3.50771e-06 0)
(0.000365753 3.26234e-06 0)
(0.000351279 5.36842e-06 0)
(0.000360947 3.92404e-06 0)
(0.000342883 7.04009e-06 9.9856e-25)
(0.00034826 4.62205e-06 0)
(0.000327901 6.80014e-06 -3.88258e-23)
(0.000328378 8.54787e-06 3.73669e-23)
(0.000307253 3.88587e-07 0)
(0.000288202 1.51653e-05 0)
(0.000319119 5.42558e-05 0)
(-5.9401e-05 -7.08452e-05 1.66969e-24)
(0.000530366 4.85216e-05 6.25834e-23)
(0.000582434 1.31731e-05 -6.62337e-23)
(0.000555605 1.60142e-05 1.77027e-24)
(0.000549716 8.52881e-06 0)
(0.000540575 3.15685e-06 0)
(0.000555256 -1.29969e-06 2.39244e-23)
(0.000555131 -2.53821e-06 -2.09212e-24)
(0.000584427 -5.8826e-06 -2.20512e-23)
(0.000589878 -5.64069e-06 -5.53143e-25)
(0.000630782 -8.52008e-06 0)
(0.000638349 -6.9302e-06 -4.64207e-24)
(0.000686779 -9.62117e-06 5.22783e-24)
(0.000692979 -6.7521e-06 -7.38137e-25)
(0.000744429 -9.44639e-06 8.90046e-25)
(0.000745917 -5.38901e-06 7.84354e-24)
(0.000796209 -8.33161e-06 -9.08101e-24)
(0.000790526 -3.18674e-06 -2.16582e-24)
(0.000836269 -7.15836e-06 3.42002e-24)
(0.000823016 -3.36828e-07 -1.05084e-23)
(0.000862088 -5.79561e-06 1.11753e-23)
(0.00084316 3.12288e-06 0)
(0.00087167 -4.34337e-06 -9.09549e-25)
(0.000853167 6.48743e-06 3.255e-23)
(0.000861438 -3.54477e-06 2.63532e-24)
(0.000859096 1.20926e-05 -3.45097e-23)
(0.000818368 -7.20137e-06 0)
(0.000880302 3.29432e-05 0)
(0.000684988 -3.87218e-05 2.62435e-24)
(0.000996005 0.000113911 9.56851e-23)
(0.000386128 -5.21113e-05 -9.88682e-23)
(0.00070633 4.80748e-05 4.21216e-24)
(0.000757449 1.94773e-06 -5.67911e-23)
(0.000748713 2.95089e-06 5.75009e-23)
(0.000758805 -2.70267e-06 3.4386e-24)
(0.000756048 -7.45503e-06 0)
(0.000779829 -1.42926e-05 0)
(0.000780747 -1.60563e-05 -1.40103e-24)
(0.000816301 -2.16001e-05 0)
(0.000821523 -2.10482e-05 -8.84254e-24)
(0.000868259 -2.62208e-05 1.52643e-24)
(0.000876463 -2.30557e-05 1.20243e-23)
(0.000930792 -2.77875e-05 -5.20296e-24)
(0.000939616 -2.16166e-05 0)
(0.000996899 -2.61984e-05 0)
(0.00100396 -1.69271e-05 1.39579e-23)
(0.00105936 -2.23443e-05 -1.39762e-23)
(0.00106332 -9.89096e-06 -1.80841e-25)
(0.00111238 -1.72936e-05 0)
(0.00111429 -9.08442e-07 1.07236e-23)
(0.00115179 -1.22884e-05 -2.32364e-23)
(0.00115588 9.09348e-06 -1.72995e-24)
(0.00117373 -9.59891e-06 1.32171e-23)
(0.00119007 2.16997e-05 0)
(0.00117378 -1.11023e-05 -2.1949e-24)
(0.00122289 4.05691e-05 0)
(0.00114208 -2.20401e-05 0)
(0.00126794 7.63086e-05 5.07755e-24)
(0.0010627 -4.74246e-05 -8.80377e-23)
(0.00134263 0.000124553 8.70452e-23)
(0.000977054 -3.83302e-05 6.15091e-24)
(0.000838598 3.47497e-05 5.97462e-23)
(0.00088129 -3.17347e-06 -1.24004e-22)
(0.00088221 -2.68149e-06 3.50631e-23)
(0.00089802 -7.02851e-06 2.51705e-23)
(0.000900034 -1.12466e-05 0)
(0.000925851 -2.0075e-05 3.08017e-24)
(0.000931721 -2.26014e-05 -1.39142e-24)
(0.000966476 -3.07672e-05 0)
(0.000976788 -3.0128e-05 1.14359e-24)
(0.0010193 -3.80208e-05 -6.78084e-24)
(0.00103379 -3.36824e-05 6.43386e-24)
(0.00108103 -4.13468e-05 0)
(0.00109855 -3.27101e-05 -6.66937e-25)
(0.00114631 -4.07161e-05 8.44228e-25)
(0.00116562 -2.74101e-05 2.06688e-23)
(0.00120923 -3.7041e-05 -2.20722e-23)
(0.00123007 -1.85728e-05 -2.07865e-24)
(0.00126477 -3.17824e-05 3.48032e-24)
(0.00128874 -7.44663e-06 0)
(0.00130918 -2.73864e-05 -1.34815e-23)
(0.00134065 5.67475e-06 1.26759e-23)
(0.00134002 -2.50847e-05 1.90768e-24)
(0.00138724 2.26628e-05 0)
(0.00135444 -2.57447e-05 -2.23646e-24)
(0.00143088 4.4744e-05 0)
(0.00135036 -3.03192e-05 -5.06711e-24)
(0.00147555 7.17715e-05 -4.8489e-23)
(0.00133115 -3.49257e-05 -3.88358e-23)
(0.00152403 8.62753e-05 1.77213e-22)
(0.00130692 1.0808e-06 -9.62288e-23)
(0.000942559 2.06988e-05 0)
(0.000974704 -8.85157e-06 5.24465e-23)
(0.000980356 -1.33124e-05 -9.34532e-23)
(0.00099581 -1.90873e-05 2.56547e-23)
(0.00100227 -2.37076e-05 0)
(0.00102649 -3.36573e-05 -3.16886e-24)
(0.00103781 -3.5821e-05 2.91443e-24)
(0.00106793 -4.50072e-05 0)
(0.00108392 -4.36492e-05 2.24605e-24)
(0.00111922 -5.29252e-05 0)
(0.00114018 -4.74387e-05 7.2826e-25)
(0.00117819 -5.67356e-05 0)
(0.00120325 -4.6171e-05 0)
(0.00124042 -5.60506e-05 0)
(0.0012686 -3.98583e-05 2.89095e-23)
(0.00130104 -5.17228e-05 -2.8914e-23)
(0.00133205 -2.945e-05 0)
(0.00135595 -4.54955e-05 0)
(0.00139073 -1.63076e-05 0)
(0.00140252 -3.91049e-05 1.51917e-24)
(0.00144362 -9.93377e-07 0)
(0.00143944 -3.33353e-05 3.88736e-24)
(0.00149066 1.59948e-05 0)
(0.00146607 -2.90996e-05 4.62404e-24)
(0.00153237 3.485e-05 0)
(0.00148291 -2.50181e-05 5.21137e-24)
(0.00156938 5.20423e-05 -4.90347e-23)
(0.00149188 -1.41481e-05 1.27103e-22)
(0.00160309 5.21965e-05 -9.94616e-23)
(0.00148937 1.9695e-05 0)
(0.00102418 5.8669e-06 5.678e-23)
(0.00104716 -1.5368e-05 -1.27336e-22)
(0.00105606 -2.34443e-05 9.15201e-23)
(0.0010701 -2.98807e-05 -2.60862e-23)
(0.00107943 -3.34751e-05 -2.64329e-23)
(0.0011003 -4.36646e-05 2.35093e-23)
(0.00111494 -4.66766e-05 2.21804e-23)
(0.0011407 -5.67836e-05 -4.1972e-23)
(0.00115994 -5.61524e-05 1.74379e-23)
(0.00118987 -6.58654e-05 0)
(0.00121371 -6.0891e-05 -7.50793e-25)
(0.00124598 -7.0162e-05 4.84368e-25)
(0.00127336 -5.99674e-05 -4.90633e-25)
(0.0013052 -6.92416e-05 7.72844e-25)
(0.00133483 -5.34716e-05 3.8187e-23)
(0.00136331 -6.39631e-05 -3.98292e-23)
(0.00139434 -4.26159e-05 -2.41743e-24)
(0.00141692 -5.61056e-05 3.76274e-24)
(0.00144925 -2.90445e-05 1.31731e-24)
(0.00146412 -4.72797e-05 -1.56617e-24)
(0.00149839 -1.4099e-05 0)
(0.00150419 -3.8443e-05 -3.7367e-23)
(0.00154135 1.23858e-06 6.94127e-23)
(0.00153713 -2.91668e-05 -3.5997e-23)
(0.00157792 1.60065e-05 -4.60126e-23)
(0.00156316 -1.74636e-05 4.06904e-23)
(0.00160825 2.6864e-05 4.99297e-23)
(0.00158202 3.24084e-07 -1.47175e-22)
(0.00163369 2.84535e-05 1.95212e-22)
(0.00159089 2.33647e-05 -1.03744e-22)
(0.00108638 -8.47558e-06 -5.74555e-23)
(0.0011027 -2.28528e-05 1.2233e-23)
(0.00111333 -3.29089e-05 6.36009e-23)
(0.00112619 -4.0768e-05 -7.36479e-24)
(0.00113718 -4.51132e-05 2.6953e-23)
(0.00115531 -5.49614e-05 -1.74474e-23)
(0.0011715 -5.9161e-05 0)
(0.00119426 -6.88978e-05 0)
(0.00121458 -6.97277e-05 0)
(0.00124124 -7.83753e-05 1.86609e-24)
(0.00126531 -7.5104e-05 7.11358e-25)
(0.00129459 -8.25599e-05 -4.99917e-25)
(0.00132107 -7.44933e-05 0)
(0.00135085 -8.1001e-05 -2.94672e-26)
(0.00137815 -6.80558e-05 4.98238e-23)
(0.00140626 -7.45379e-05 -4.98304e-23)
(0.00143307 -5.7213e-05 4.31008e-25)
(0.00145782 -6.49053e-05 0)
(0.00148351 -4.38914e-05 -1.35959e-24)
(0.00150391 -5.36992e-05 1.62047e-24)
(0.00152844 -2.97955e-05 3.64602e-24)
(0.00154398 -4.16907e-05 0)
(0.00156762 -1.60192e-05 0)
(0.00157789 -2.84513e-05 0)
(0.00160109 -3.5859e-06 5.72449e-23)
(0.00160524 -1.27284e-05 -4.16269e-23)
(0.00162928 6.18649e-06 0)
(0.00162518 5.9665e-06 -8.24023e-23)
(0.00165287 1.35729e-05 -2.91153e-24)
(0.00163703 2.27038e-05 1.06651e-22)
(0.00113083 -2.16319e-05 0)
(0.00114296 -3.16254e-05 -8.27394e-24)
(0.00115426 -4.21878e-05 3.07809e-23)
(0.00116648 -5.1206e-05 -2.35634e-23)
(0.0011785 -5.6995e-05 0)
(0.00119471 -6.60566e-05 -6.70381e-24)
(0.00121152 -7.16876e-05 0)
(0.00123217 -8.03827e-05 0)
(0.00125273 -8.3198e-05 0)
(0.00127705 -9.00553e-05 4.71636e-24)
(0.00130066 -8.92095e-05 -1.21292e-23)
(0.00132771 -9.39721e-05 5.61866e-24)
(0.00135291 -8.89914e-05 -1.33282e-24)
(0.00138103 -9.16964e-05 3.04513e-26)
(0.00140602 -8.27666e-05 6.34687e-23)
(0.00143354 -8.40699e-05 -6.35828e-23)
(0.00145678 -7.21003e-05 -4.45402e-25)
(0.00148257 -7.28382e-05 5.21147e-24)
(0.00150314 -5.91019e-05 -1.90417e-23)
(0.00152673 -5.96812e-05 2.49711e-23)
(0.00154425 -4.5558e-05 -1.79678e-23)
(0.00156565 -4.54613e-05 0)
(0.00157999 -3.24631e-05 0)
(0.00159932 -3.01443e-05 0)
(0.00161037 -2.02613e-05 -1.04409e-23)
(0.00162759 -1.33448e-05 0)
(0.00163533 -8.66891e-06 4.69144e-23)
(0.00165041 4.37514e-06 -4.63514e-23)
(0.00165421 3.30551e-06 -1.2153e-23)
(0.0016682 2.05872e-05 0)
(0.00115896 -3.35638e-05 8.77476e-24)
(0.00116906 -4.15177e-05 6.62353e-23)
(0.00118048 -5.18262e-05 -3.54451e-23)
(0.00119236 -6.13598e-05 -1.99127e-24)
(0.00120508 -6.88568e-05 -3.03892e-23)
(0.00122013 -7.71579e-05 0)
(0.00123715 -8.42014e-05 2.32684e-23)
(0.00125631 -9.16689e-05 -3.22829e-24)
(0.00127688 -9.64527e-05 -1.81119e-23)
(0.00129935 -0.000101433 -6.58175e-24)
(0.00132263 -0.00010299 6.62168e-24)
(0.00134756 -0.000105026 4.58885e-25)
(0.00137214 -0.000103062 1.45911e-25)
(0.00139809 -0.000102065 7.057e-26)
(0.00142214 -9.69644e-05 7.93549e-23)
(0.00144769 -9.34411e-05 -7.93248e-23)
(0.0014697 -8.63442e-05 -4.91011e-25)
(0.00149395 -8.10005e-05 1.25426e-24)
(0.001513 -7.33823e-05 1.4797e-24)
(0.00153567 -6.65871e-05 -1.48429e-23)
(0.00155142 -5.98169e-05 1.47532e-23)
(0.00157263 -5.12951e-05 4.08229e-23)
(0.00158503 -4.64332e-05 3.26683e-24)
(0.00160494 -3.54429e-05 -3.90729e-23)
(0.00161393 -3.31573e-05 0)
(0.00163258 -1.90209e-05 4.66063e-23)
(0.00163797 -1.93564e-05 2.30148e-24)
(0.00165542 -2.46138e-06 5.18688e-23)
(0.00165664 -4.63044e-06 -9.83412e-23)
(0.00167333 1.38304e-05 1.27873e-23)
(0.00117237 -4.44108e-05 -7.96352e-23)
(0.00118204 -5.2049e-05 8.03533e-23)
(0.00119337 -6.20892e-05 -2.41733e-23)
(0.00120525 -7.15876e-05 5.58591e-23)
(0.00121843 -8.05586e-05 -3.12333e-23)
(0.0012331 -8.83914e-05 -1.95294e-23)
(0.00125009 -9.6573e-05 2.0473e-23)
(0.00126847 -0.000103026 0)
(0.00128889 -0.000109322 -4.71373e-24)
(0.00131019 -0.000112837 1.84448e-24)
(0.00133319 -0.000116215 0)
(0.00135653 -0.000116145 -1.07926e-24)
(0.00138082 -0.000116404 1.03607e-24)
(0.0014048 -0.000112622 2.26164e-26)
(0.00142869 -0.000110261 9.8365e-23)
(0.00145194 -0.000103247 -9.82995e-23)
(0.00147405 -9.94882e-05 -1.88108e-26)
(0.00149575 -9.00073e-05 -5.74164e-24)
(0.00151528 -8.62982e-05 5.74785e-24)
(0.00153526 -7.48912e-05 0)
(0.00155194 -7.23994e-05 4.0953e-24)
(0.00157045 -5.91305e-05 -9.02468e-24)
(0.00158419 -5.85145e-05 0)
(0.00160163 -4.30983e-05 -5.4019e-23)
(0.00161216 -4.45528e-05 5.41948e-23)
(0.00162892 -2.67019e-05 4.80917e-23)
(0.00163561 -3.01952e-05 -1.09623e-22)
(0.00165223 -9.73244e-06 4.92825e-23)
(0.0016541 -1.53428e-05 -9.24129e-23)
(0.00167151 8.54714e-06 7.74568e-23)
(0.00117335 -5.453e-05 -7.2697e-23)
(0.00118356 -6.28955e-05 1.34927e-22)
(0.00119488 -7.29654e-05 -8.84594e-23)
(0.00120711 -8.22212e-05 4.82023e-23)
(0.00122061 -9.21537e-05 -3.2145e-23)
(0.00123557 -9.98638e-05 -7.18266e-24)
(0.00125249 -0.000108805 3.05719e-23)
(0.00127083 -0.00011468 -2.4314e-23)
(0.00129102 -0.00012186 2.40671e-24)
(0.00131205 -0.000124547 -1.91146e-24)
(0.00133471 -0.00012894 0)
(0.00135743 -0.000127659 9.22117e-25)
(0.00138141 -0.000129076 -1.31337e-24)
(0.00140435 -0.00012372 3.06216e-25)
(0.00142816 -0.000122712 1.21259e-22)
(0.00144991 -0.000113828 -1.21131e-22)
(0.00147235 -0.000111609 4.99944e-24)
(0.00149202 -0.000100097 -2.78386e-25)
(0.00151254 -9.80262e-05 -6.0807e-24)
(0.00152991 -8.46256e-05 0)
(0.00154844 -8.37026e-05 -4.24396e-24)
(0.00156375 -6.8703e-05 4.67928e-24)
(0.00158036 -6.93949e-05 4.22736e-23)
(0.00159396 -5.26781e-05 -3.09811e-23)
(0.00160852 -5.5077e-05 -1.15225e-23)
(0.00162076 -3.63076e-05 4.97126e-23)
(0.00163276 -4.04392e-05 -2.38806e-23)
(0.00164411 -1.90904e-05 9.3408e-23)
(0.00165267 -2.51412e-05 -2.14059e-22)
(0.00166407 -2.18811e-07 1.07475e-22)
(0.00116519 -6.47157e-05 -5.58463e-23)
(0.00117626 -7.39922e-05 1.31155e-23)
(0.00118782 -8.43834e-05 8.24064e-23)
(0.0012007 -9.35457e-05 -1.69706e-23)
(0.00121458 -0.000103947 0)
(0.00123029 -0.000111783 7.27147e-24)
(0.00124733 -0.000121129 6.5123e-24)
(0.00126628 -0.000126865 2.65009e-23)
(0.00128639 -0.000134387 -1.2627e-23)
(0.00130795 -0.000136813 -6.69465e-24)
(0.00133041 -0.000141522 -3.91363e-24)
(0.00135351 -0.000139797 3.81902e-24)
(0.00137716 -0.000141479 7.4027e-25)
(0.00140029 -0.000135535 -1.29588e-25)
(0.00142375 -0.000134771 1.48024e-22)
(0.00144542 -0.000125246 -1.48255e-22)
(0.00146766 -0.000123244 5.90148e-25)
(0.00148691 -0.000111146 -6.48357e-24)
(0.00150758 -0.000109247 -8.57963e-24)
(0.00152411 -9.54056e-05 1.49523e-23)
(0.00154342 -9.46005e-05 2.3251e-23)
(0.00155732 -7.93273e-05 2.22473e-23)
(0.00157567 -8.01247e-05 -2.99003e-23)
(0.00158704 -6.31966e-05 1.12949e-23)
(0.00160473 -6.58196e-05 1.1947e-23)
(0.0016135 -4.66338e-05 0)
(0.00163064 -5.13153e-05 -2.60927e-23)
(0.00163657 -2.90024e-05 -9.67875e-23)
(0.00165322 -3.61719e-05 -4.44454e-24)
(0.00165611 -9.47633e-06 1.25604e-22)
(0.00115185 -7.57264e-05 3.78706e-23)
(0.00116375 -8.5668e-05 -8.84927e-23)
(0.00117585 -9.64286e-05 -9.21251e-24)
(0.0011896 -0.000105745 8.77404e-24)
(0.0012041 -0.000116329 0)
(0.00122084 -0.000124451 -7.54321e-24)
(0.00123839 -0.000133959 -6.75893e-24)
(0.00125834 -0.00013987 -5.85877e-24)
(0.00127883 -0.000147392 8.36185e-24)
(0.00130146 -0.000149916 -1.03031e-23)
(0.0013241 -0.00015449 0)
(0.00134828 -0.000152781 3.89281e-25)
(0.00137185 -0.000154165 -5.19978e-25)
(0.00139603 -0.000148206 -1.98029e-25)
(0.0014191 -0.000147006 1.80048e-22)
(0.00144178 -0.00013752 -1.8006e-22)
(0.00146335 -0.000134969 6.66831e-25)
(0.0014836 -0.000123048 6.91229e-24)
(0.00150342 -0.000120513 -3.11922e-24)
(0.00152094 -0.000107033 0)
(0.00153936 -0.000105545 1.50108e-23)
(0.00155423 -9.07977e-05 -1.95029e-23)
(0.00157184 -9.09364e-05 -1.09914e-23)
(0.00158412 -7.45944e-05 -1.17225e-23)
(0.00160145 -7.66835e-05 -1.23932e-23)
(0.00161094 -5.79528e-05 0)
(0.0016283 -6.23677e-05 1.35226e-23)
(0.00163464 -4.01263e-05 -1.39987e-23)
(0.00165222 -4.75287e-05 1.03023e-22)
(0.00165519 -2.01889e-05 -1.45135e-22)
(0.00113829 -8.81853e-05 -3.91946e-23)
(0.00115075 -9.84412e-05 1.69081e-22)
(0.0011635 -0.000109455 -6.90603e-23)
(0.00117816 -0.000119116 3.4622e-23)
(0.0011935 -0.000129785 -3.5119e-23)
(0.00121133 -0.000138297 7.60134e-24)
(0.00122977 -0.000147832 -6.72411e-24)
(0.00125092 -0.000154083 2.10357e-23)
(0.00127226 -0.000161423 -2.58667e-23)
(0.00129617 -0.000164199 -5.79461e-24)
(0.00131951 -0.000168387 2.63954e-24)
(0.00134497 -0.000166863 2.93444e-24)
(0.0013689 -0.000167653 -1.36506e-24)
(0.0013943 -0.000161861 1.31909e-24)
(0.00141728 -0.000159896 2.18396e-22)
(0.00144115 -0.00015065 -2.18408e-22)
(0.00146211 -0.000147215 5.57433e-24)
(0.00148361 -0.000135683 1.15221e-24)
(0.00150229 -0.00013219 -2.81996e-23)
(0.00152124 -0.000119302 -2.0617e-24)
(0.00153808 -0.000116816 1.37601e-23)
(0.00155463 -0.000102883 3.39337e-23)
(0.00157038 -0.000102001 -4.42621e-23)
(0.00158455 -8.66856e-05 -1.22703e-23)
(0.0016 -8.77233e-05 1.29304e-23)
(0.00161141 -7.01953e-05 4.19991e-23)
(0.00162733 -7.34892e-05 -5.47337e-23)
(0.00163513 -5.26014e-05 1.33371e-22)
(0.00165241 -5.87454e-05 -2.24117e-22)
(0.00165555 -3.29532e-05 1.81335e-22)
(0.00112834 -0.000102349 -4.27301e-23)
(0.00114117 -0.000112747 -5.94771e-23)
(0.00115454 -0.000123886 1.19459e-22)
(0.00117008 -0.000134003 -3.86538e-23)
(0.00118632 -0.000144771 0)
(0.00120526 -0.000153756 -1.56673e-23)
(0.00122476 -0.000163248 3.24009e-23)
(0.00124718 -0.000169893 -2.57038e-23)
(0.00126961 -0.000176931 4.81083e-24)
(0.0012948 -0.00017997 5.45601e-24)
(0.0013191 -0.000183597 -5.49915e-24)
(0.00134568 -0.000182239 0)
(0.00137022 -0.000182237 0)
(0.00139651 -0.000176571 0)
(0.00141961 -0.000173653 2.64889e-22)
(0.00144418 -0.000164585 -2.64985e-22)
(0.00146468 -0.00016012 0)
(0.00148685 -0.000148903 -1.88573e-24)
(0.00150443 -0.000144364 0)
(0.00152428 -0.000131988 2.00244e-23)
(0.00153931 -0.000128474 -1.46848e-23)
(0.0015573 -0.00011529 1.12324e-23)
(0.00157044 -0.000113412 5.00786e-23)
(0.00158693 -9.90853e-05 -3.67161e-23)
(0.00159886 -9.91535e-05 -2.69539e-23)
(0.0016138 -8.28033e-05 1.40581e-23)
(0.00162518 -8.51692e-05 5.99472e-23)
(0.00163796 -6.54981e-05 -1.82682e-22)
(0.00164963 -7.087e-05 1.52804e-22)
(0.00165922 -4.60535e-05 -6.37132e-23)
(0.00112475 -0.000118386 -6.42029e-23)
(0.00113776 -0.000128963 1.70778e-22)
(0.0011515 -0.000140172 -9.45168e-23)
(0.00116773 -0.000150783 3.66632e-23)
(0.0011847 -0.000161678 -7.07444e-23)
(0.00120466 -0.00017116 2.01852e-23)
(0.00122507 -0.000180544 4.64709e-24)
(0.00124865 -0.000187535 4.67016e-23)
(0.00127199 -0.000194135 -2.10465e-23)
(0.00129828 -0.000197347 1.52262e-24)
(0.00132328 -0.000200222 -2.08386e-24)
(0.00135067 -0.000198909 1.64182e-24)
(0.00137557 -0.000197906 -1.49855e-24)
(0.00140224 -0.000192235 2.69729e-24)
(0.00142528 -0.000188176 3.20908e-22)
(0.0014498 -0.000179156 -3.2092e-22)
(0.00146986 -0.000173527 5.69352e-24)
(0.00149167 -0.000162504 3.1617e-24)
(0.00150847 -0.000156854 -2.79518e-23)
(0.0015279 -0.000144886 1.9248e-23)
(0.0015418 -0.000140341 0)
(0.00155964 -0.000127844 4.96054e-23)
(0.00157118 -0.000124985 -1.01703e-22)
(0.00158823 -0.000111698 1.00375e-23)
(0.0015979 -0.000110737 2.48867e-23)
(0.0016146 -9.58658e-05 1.17545e-22)
(0.00162275 -9.69747e-05 -4.4169e-23)
(0.00163906 -7.93121e-05 1.1311e-22)
(0.00164607 -8.29793e-05 -2.58944e-22)
(0.00166153 -6.08043e-05 1.63156e-22)
(0.0011268 -0.000135992 0)
(0.0011399 -0.000146992 -2.22356e-23)
(0.00115374 -0.00015835 1.05997e-23)
(0.00117044 -0.000169458 3.77263e-23)
(0.00118785 -0.000180509 -3.83444e-23)
(0.00120865 -0.000190443 -3.84828e-23)
(0.00122961 -0.00019966 3.0661e-23)
(0.00125416 -0.000206866 0)
(0.00127792 -0.000212889 -3.16232e-24)
(0.00130507 -0.000216102 5.89741e-24)
(0.00133016 -0.00021803 -5.95866e-25)
(0.00135811 -0.000216585 1.14482e-24)
(0.00138267 -0.000214369 -9.45369e-25)
(0.00140947 -0.000208547 -7.68585e-25)
(0.00143181 -0.000203153 3.89747e-22)
(0.001456 -0.000194085 -3.89757e-22)
(0.00147515 -0.000187147 -1.09908e-25)
(0.00149625 -0.000176256 -9.37864e-24)
(0.00151213 -0.000169435 4.27664e-24)
(0.00153059 -0.000157806 -5.54244e-24)
(0.00154367 -0.000152299 -2.4649e-23)
(0.0015605 -0.000140348 3.71859e-23)
(0.00157132 -0.000136763 0)
(0.00158767 -0.000124239 -7.23798e-23)
(0.00159653 -0.000122752 4.27112e-23)
(0.00161336 -0.000108888 6.31549e-23)
(0.00162022 -0.000109535 -7.80539e-23)
(0.00163811 -9.31924e-05 1.64142e-23)
(0.00164279 -9.62193e-05 -3.37522e-23)
(0.00166183 -7.58144e-05 0)
(0.00112961 -0.000154788 -9.33279e-23)
(0.00114306 -0.000166567 1.61238e-22)
(0.00115714 -0.000178286 -1.12651e-22)
(0.00117431 -0.000189867 0)
(0.00119215 -0.000201082 -3.49899e-23)
(0.00121368 -0.000211322 2.74101e-23)
(0.00123506 -0.000220317 6.90077e-24)
(0.00126035 -0.000227522 1.98356e-23)
(0.00128423 -0.000232862 -2.05475e-23)
(0.001312 -0.000235826 0)
(0.00133675 -0.000236675 6.25137e-25)
(0.00136513 -0.000234876 -1.75779e-24)
(0.00138883 -0.000231305 -2.34019e-24)
(0.00141586 -0.000225195 2.13146e-24)
(0.00143691 -0.000218321 4.74513e-22)
(0.00146115 -0.000209183 -4.74522e-22)
(0.0014788 -0.000200781 1.33153e-23)
(0.00149976 -0.000190118 3.70802e-24)
(0.00151423 -0.000181955 -4.9101e-24)
(0.0015323 -0.000170851 5.81459e-24)
(0.00154437 -0.000164206 0)
(0.0015605 -0.000153018 5.61805e-23)
(0.00157092 -0.000148593 -5.52377e-23)
(0.00158629 -0.000136981 0)
(0.00159537 -0.000135022 -7.95679e-23)
(0.00161127 -0.000122137 6.29192e-23)
(0.00161851 -0.000122662 0)
(0.00163635 -0.000107349 1.06175e-22)
(0.00164045 -0.000110429 -3.17372e-22)
(0.00166167 -9.12292e-05 1.41415e-22)
(0.00112938 -0.000174956 -9.73769e-23)
(0.00114334 -0.000187668 1.23417e-22)
(0.00115791 -0.000199899 2.2816e-23)
(0.00117555 -0.000211834 3.9871e-23)
(0.00119402 -0.000223151 -4.0591e-23)
(0.00121614 -0.000233452 8.53861e-24)
(0.00123811 -0.000242176 -7.23846e-24)
(0.00126395 -0.000249111 0)
(0.00128815 -0.00025375 -4.19149e-24)
(0.0013164 -0.000256182 -9.26275e-25)
(0.00134106 -0.000255968 9.91521e-25)
(0.00136991 -0.000253557 -2.39743e-24)
(0.00139298 -0.000248681 2.12698e-24)
(0.00142055 -0.000242093 1.14965e-24)
(0.00144039 -0.000233793 5.79951e-22)
(0.00146535 -0.000224498 -5.8005e-22)
(0.00148128 -0.000214625 -2.29777e-24)
(0.0015032 -0.000204239 1.14664e-23)
(0.00151562 -0.000194602 -4.20884e-23)
(0.00153478 -0.000184233 2.4577e-23)
(0.00154482 -0.000176164 -6.96125e-24)
(0.00156183 -0.000166108 -1.4348e-23)
(0.00157077 -0.000160428 0)
(0.00158629 -0.000150188 0)
(0.00159507 -0.000147352 1.63795e-23)
(0.00160982 -0.000135822 6.95921e-23)
(0.00161847 -0.000136082 -6.83567e-23)
(0.00163358 -0.000121842 3.59256e-23)
(0.00164061 -0.000125373 -1.13777e-22)
(0.00165799 -0.000106973 1.47669e-22)
(0.00111978 -0.000196025 -1.28166e-22)
(0.001135 -0.000209647 7.89484e-23)
(0.00115109 -0.000222567 0)
(0.00116993 -0.000234889 0)
(0.00118995 -0.000246389 -3.60124e-23)
(0.00121319 -0.000256663 3.66602e-23)
(0.00123672 -0.000265196 2.42173e-23)
(0.00126355 -0.000271725 -2.95028e-23)
(0.00128916 -0.000275776 0)
(0.0013182 -0.000277471 1.55107e-24)
(0.00134394 -0.000276343 2.64273e-24)
(0.00137341 -0.00027305 -3.61403e-24)
(0.00139702 -0.000267063 2.12815e-24)
(0.00142516 -0.000259686 0)
(0.00144478 -0.000250174 7.11173e-22)
(0.00147051 -0.000240401 -7.11266e-22)
(0.00148526 -0.000229233 0)
(0.00150846 -0.000218855 -6.00365e-24)
(0.00151861 -0.000207783 -2.08426e-23)
(0.00153979 -0.000198051 3.41808e-23)
(0.00154643 -0.00018835 1.49096e-23)
(0.0015662 -0.000179647 0)
(0.00157092 -0.000172151 5.03758e-23)
(0.00158948 -0.000163932 -6.58213e-23)
(0.00159404 -0.000159287 -7.13245e-23)
(0.00161102 -0.000150115 7.0063e-23)
(0.00161682 -0.000149063 0)
(0.00163157 -0.000136813 0)
(0.00163852 -0.000140332 -1.96027e-22)
(0.00165101 -0.000122671 1.14975e-22)
(0.00110617 -0.000220949 5.51908e-23)
(0.00112312 -0.000235131 2.62414e-23)
(0.00114143 -0.000248602 1.20691e-23)
(0.00116219 -0.000261236 -1.09277e-23)
(0.00118463 -0.000272873 9.57449e-24)
(0.00120971 -0.000282984 -2.17682e-23)
(0.00123573 -0.000291232 3.03111e-23)
(0.00126411 -0.000297134 8.33284e-25)
(0.0012921 -0.000300494 1.26173e-24)
(0.00132215 -0.000301142 -3.54291e-24)
(0.00134993 -0.00029902 -5.93646e-25)
(0.00137974 -0.000294433 -4.45921e-24)
(0.00140487 -0.000287332 -1.67177e-24)
(0.00143276 -0.00027865 6.47252e-24)
(0.00145322 -0.000268049 8.76118e-22)
(0.00147842 -0.000257184 -8.76102e-22)
(0.00149312 -0.00024497 1.28958e-23)
(0.00151601 -0.000233905 1.01961e-24)
(0.00152483 -0.000221716 -1.39798e-23)
(0.00154663 -0.00021194 -3.95234e-23)
(0.00155015 -0.000200867 6.53327e-23)
(0.00157221 -0.000193097 -5.02391e-23)
(0.00157142 -0.000183721 -3.98127e-25)
(0.00159445 -0.000177717 -7.38653e-23)
(0.00159091 -0.00017045 9.12369e-23)
(0.00161406 -0.000164861 1.90411e-23)
(0.00160993 -0.000160546 0)
(0.00163 -0.000152687 1.97702e-23)
(0.00162738 -0.000153223 4.04057e-23)
(0.00163899 -0.000139128 8.20734e-23)
(0.00110127 -0.000251287 -2.8964e-23)
(0.00111937 -0.000265788 0)
(0.00113939 -0.00027959 3.45508e-23)
(0.00116176 -0.000292383 -3.67853e-23)
(0.0011863 -0.000303941 -1.95547e-23)
(0.00121302 -0.000313648 -3.68571e-23)
(0.00124124 -0.000321259 5.50882e-23)
(0.00127093 -0.000326183 -1.9754e-23)
(0.00130096 -0.000328429 2.45009e-24)
(0.00133163 -0.00032762 -3.13933e-24)
(0.00136113 -0.000324092 8.94445e-24)
(0.00139061 -0.000317768 -1.6511e-24)
(0.00141711 -0.000309242 -1.77906e-23)
(0.00144367 -0.00029879 8.16634e-24)
(0.00146524 -0.000286994 1.08713e-21)
(0.00148829 -0.000274513 -1.0871e-21)
(0.00150393 -0.00026143 1.47568e-23)
(0.00152425 -0.000248987 -2.29034e-23)
(0.0015336 -0.000236164 -2.64254e-23)
(0.00155305 -0.00022538 7.76789e-23)
(0.00155591 -0.000213727 -4.37707e-23)
(0.00157694 -0.000205701 1.82444e-23)
(0.00157283 -0.00019541 7.7114e-23)
(0.00159773 -0.000190486 -1.3593e-22)
(0.00158577 -0.000181179 5.81187e-23)
(0.00161516 -0.000178765 -4.03394e-23)
(0.00159467 -0.00017031 8.35195e-23)
(0.00162498 -0.000168303 -1.02516e-22)
(0.00159675 -0.000162165 0)
(0.00161673 -0.00015573 -4.29635e-23)
(0.0010977 -0.000286248 -3.00462e-23)
(0.0011174 -0.000301193 1.39033e-23)
(0.00113932 -0.000315244 -1.25523e-23)
(0.00116362 -0.000328047 0)
(0.00119028 -0.000339248 -2.41697e-23)
(0.00121888 -0.000348262 3.49067e-23)
(0.00124909 -0.000354796 -6.00677e-24)
(0.00128023 -0.000358357 3.72341e-24)
(0.00131189 -0.000358959 0)
(0.00134328 -0.000356315 0)
(0.00137395 -0.000350851 1.83605e-24)
(0.0014032 -0.000342492 8.05323e-24)
(0.00143052 -0.000332087 -6.00727e-24)
(0.00145578 -0.000319684 0)
(0.00147816 -0.000306393 1.35991e-21)
(0.00149884 -0.000292202 -1.35995e-21)
(0.0015157 -0.000278173 0)
(0.00153258 -0.000264181 -2.24237e-23)
(0.0015438 -0.000250909 1.74074e-23)
(0.00155862 -0.000238556 -9.43093e-24)
(0.00156363 -0.000226876 0)
(0.00157896 -0.000217338 0)
(0.00157587 -0.000207304 2.05078e-23)
(0.00159495 -0.000201284 -2.0857e-23)
(0.00157908 -0.000191664 -8.66296e-23)
(0.0016048 -0.000189472 1.06236e-22)
(0.00156778 -0.000178268 0)
(0.00160098 -0.000179895 -2.18677e-23)
(0.00153209 -0.000165386 2.2028e-23)
(0.00156661 -0.000168892 -4.41648e-23)
(0.00108836 -0.000325231 1.61592e-23)
(0.00111078 -0.00034086 -1.46963e-23)
(0.00113563 -0.000355279 1.32874e-23)
(0.00116294 -0.00036803 -4.01106e-23)
(0.00119253 -0.000378666 4.1076e-23)
(0.0012239 -0.000386693 2.18185e-23)
(0.00125662 -0.000391759 -2.22881e-23)
(0.00128997 -0.000393561 -3.87061e-25)
(0.00132347 -0.000392052 0)
(0.00135626 -0.0003872 0)
(0.00138797 -0.000379332 0)
(0.00141768 -0.000368675 1.07332e-23)
(0.00144535 -0.00035595 -1.08237e-23)
(0.0014701 -0.000341495 0)
(0.00149246 -0.000326301 1.71169e-21)
(0.00151169 -0.000310487 -1.71148e-21)
(0.00152872 -0.000295121 0)
(0.00154297 -0.000279794 -2.0994e-23)
(0.00155497 -0.000265654 3.11334e-23)
(0.00156498 -0.00025179 0)
(0.00157129 -0.000239597 0)
(0.00157778 -0.000227964 0)
(0.00157582 -0.000217999 -2.34401e-23)
(0.0015799 -0.00020898 9.33035e-23)
(0.00156249 -0.000199866 -9.13355e-23)
(0.00156562 -0.000193649 -9.35736e-23)
(0.0015169 -0.000182369 9.13745e-23)
(0.00152432 -0.00018078 2.3147e-23)
(0.0014154 -0.00016132 -2.32834e-23)
(0.00144311 -0.000169939 2.37428e-23)
(0.00107779 -0.00037406 1.38644e-22)
(0.00110383 -0.000389302 -1.25573e-22)
(0.00113261 -0.0004033 0)
(0.00116384 -0.000415321 0)
(0.00119711 -0.000424725 -2.64727e-23)
(0.00123194 -0.000431057 2.31887e-23)
(0.00126767 -0.000433991 0)
(0.00130367 -0.000433362 4.14388e-25)
(0.0013392 -0.00042913 0)
(0.00137365 -0.000421444 0)
(0.00140632 -0.000410598 5.99501e-24)
(0.00143665 -0.000397079 0)
(0.00146418 -0.000381492 -1.24453e-23)
(0.00148859 -0.00036451 1.69035e-23)
(0.0015099 -0.000346853 2.17955e-21)
(0.00152791 -0.000329058 -2.17946e-21)
(0.00154314 -0.00031171 2.35681e-23)
(0.00155502 -0.000294882 -2.97202e-23)
(0.00156432 -0.000279027 0)
(0.00156937 -0.000263655 -1.31319e-23)
(0.00157098 -0.000249565 0)
(0.00156644 -0.000235675 -1.32099e-23)
(0.00155625 -0.000223582 2.50928e-23)
(0.00153823 -0.000210804 0)
(0.00150824 -0.000199885 -1.01632e-22)
(0.00147188 -0.000187404 9.91942e-23)
(0.00140532 -0.000175954 0)
(0.00135231 -0.000164402 0)
(0.00121385 -0.000146872 1.9543e-22)
(0.00118522 -0.00014734 -1.6597e-22)
(0.001068 -0.000434242 0)
(0.00109798 -0.000450851 0)
(0.00113096 -0.000464957 0)
(0.00116678 -0.00047591 0)
(0.00120468 -0.000483254 0)
(0.00124377 -0.000486693 4.21818e-24)
(0.00128321 -0.000486113 0)
(0.00132231 -0.000481517 -1.76261e-23)
(0.00136031 -0.00047303 5.51529e-24)
(0.00139654 -0.00046095 4.56917e-23)
(0.00143019 -0.000445732 -6.55495e-23)
(0.00146078 -0.000428018 3.29761e-23)
(0.00148768 -0.000408501 -4.7145e-24)
(0.00151079 -0.000387939 0)
(0.00152973 -0.000366955 2.80273e-21)
(0.00154466 -0.000346124 -2.80063e-21)
(0.00155523 -0.000325812 0)
(0.00156139 -0.000306289 6.81752e-24)
(0.0015623 -0.000287551 5.88409e-23)
(0.00155695 -0.000269547 -1.03184e-22)
(0.0015438 -0.000252111 1.17602e-22)
(0.00152037 -0.000234969 5.84626e-23)
(0.00148526 -0.000217963 -1.44702e-22)
(0.00143461 -0.000200389 0)
(0.0013685 -0.000183654 0)
(0.0012813 -0.000165823 0)
(0.00117319 -0.000149432 0)
(0.00104446 -0.000128602 0)
(0.000878994 -0.000114585 0)
(0.000753016 -9.60394e-05 0)
(0.00105867 -0.000501126 1.42771e-23)
(0.00109673 -0.000514067 0)
(0.00113861 -0.000525957 0)
(0.00118208 -0.000534629 1.54625e-23)
(0.00122595 -0.000539069 -1.62774e-23)
(0.00126959 -0.000538999 8.95232e-24)
(0.00131249 -0.000534488 -1.30299e-23)
(0.00135401 -0.000525702 -7.15164e-24)
(0.00139341 -0.000512939 0)
(0.00142986 -0.000496613 -1.07873e-23)
(0.00146258 -0.000477322 0)
(0.00149091 -0.000455775 0)
(0.00151429 -0.000432711 0)
(0.0015324 -0.000408786 0)
(0.00154467 -0.000384396 3.66929e-21)
(0.00155074 -0.000359813 -3.67082e-21)
(0.0015495 -0.000335224 0)
(0.00154014 -0.000310658 0)
(0.0015208 -0.0002863 0)
(0.00149009 -0.000262489 0)
(0.00144569 -0.000239797 1.76096e-23)
(0.00138551 -0.00021741 1.63456e-23)
(0.00130583 -0.000193662 3.20913e-23)
(0.00120457 -0.000168819 -1.27255e-22)
(0.00107992 -0.000145207 2.46934e-22)
(0.000931887 -0.000122802 -5.12706e-25)
(0.00076527 -9.79575e-05 -1.44693e-22)
(0.000582655 -7.42392e-05 0)
(0.000389879 -5.58087e-05 0)