/*--------------------------------*- C++ -*----------------------------------*\
| =========                 |                                                 |
| \\      /  F ield         | OpenFOAM: The Open Source CFD Toolbox           |
|  \\    /   O peration     | Version:  2312                                  |
|   \\  /    A nd           | Website:  www.openfoam.com                      |
|    \\/     M anipulation  |                                                 |
\*---------------------------------------------------------------------------*/
FoamFile
{
    version     2.0;
    format      ascii;
    arch        "LSB;label=32;scalar=64";
    class       volVectorField;
    location    "154000";
    object      U;
}
// * * * * * * * * * * * * * * * * * * * * * * * * * * * * * * * * * * * * * //

dimensions      [0 1 -1 0 0 0 0];

internalField   nonuniform List<vector> 
2685
(
(0.000779553 -3.66929e-05 0)
(0.000804639 -2.31822e-05 0)
(0.000803493 -1.41821e-05 0)
(0.000796566 -6.19292e-06 0)
(0.000789243 8.64605e-07 0)
(0.000781268 6.84609e-06 0)
(0.000771675 1.18335e-05 0)
(0.000759717 1.60737e-05 0)
(0.000745096 1.98249e-05 0)
(0.00072779 2.33442e-05 0)
(0.00070794 2.68142e-05 0)
(0.00068566 3.02954e-05 0)
(0.000660952 3.37602e-05 0)
(0.000633706 3.71442e-05 0)
(0.000603784 4.03544e-05 0)
(0.000571107 4.32503e-05 0)
(0.000535709 4.56368e-05 0)
(0.00049774 4.727e-05 0)
(0.000457466 4.78333e-05 0)
(0.00041532 4.68788e-05 0)
(0.000371969 4.3894e-05 0)
(0.000328304 3.85648e-05 0)
(0.000285358 3.10795e-05 0)
(0.000244069 2.21934e-05 0)
(0.000205148 1.31168e-05 0)
(0.000169454 5.10293e-06 0)
(0.000136909 -1.28283e-06 0)
(0.000107451 -5.78029e-06 0)
(8.0865e-05 -8.28358e-06 0)
(5.69277e-05 -9.13117e-06 0)
(3.54148e-05 -8.92464e-06 0)
(1.6115e-05 -8.20746e-06 0)
(-1.15456e-06 -7.40063e-06 0)
(-1.661e-05 -6.77426e-06 0)
(-3.04516e-05 -6.45946e-06 0)
(-4.28657e-05 -6.4894e-06 0)
(-5.39855e-05 -6.8223e-06 0)
(-6.38395e-05 -7.36731e-06 0)
(-7.23768e-05 -8.07697e-06 0)
(-7.95619e-05 -8.92275e-06 0)
(-8.53718e-05 -9.87628e-06 0)
(-8.97979e-05 -1.0895e-05 0)
(-9.28502e-05 -1.19342e-05 0)
(-9.45563e-05 -1.2955e-05 0)
(-9.49729e-05 -1.39194e-05 0)
(-9.42202e-05 -1.47867e-05 0)
(-9.24497e-05 -1.54753e-05 0)
(-8.97856e-05 -1.5929e-05 0)
(-8.63908e-05 -1.61065e-05 0)
(-8.24358e-05 -1.5982e-05 0)
(-7.80727e-05 -1.55429e-05 0)
(-7.34558e-05 -1.47995e-05 0)
(-6.87465e-05 -1.37743e-05 0)
(-6.40654e-05 -1.25261e-05 0)
(-5.94607e-05 -1.11128e-05 0)
(-5.49234e-05 -9.59648e-06 0)
(-5.04099e-05 -8.04152e-06 0)
(-4.58564e-05 -6.50949e-06 0)
(-4.11902e-05 -5.05679e-06 0)
(-3.63312e-05 -3.72909e-06 0)
(-3.11864e-05 -2.5603e-06 0)
(-2.56705e-05 -1.57476e-06 0)
(-1.97615e-05 -7.82614e-07 0)
(-1.34538e-05 -1.77605e-07 0)
(-6.74017e-06 2.60348e-07 0)
(4.05571e-07 5.62586e-07 0)
(7.90242e-06 7.41526e-07 0)
(1.56075e-05 8.1517e-07 0)
(2.34193e-05 7.81724e-07 0)
(3.12079e-05 6.31837e-07 0)
(3.8847e-05 3.52226e-07 0)
(4.62189e-05 -6.96531e-08 0)
(5.32202e-05 -6.38302e-07 0)
(5.97652e-05 -1.34256e-06 0)
(6.57806e-05 -2.14442e-06 0)
(7.11946e-05 -2.97308e-06 0)
(7.5928e-05 -3.73602e-06 0)
(7.98961e-05 -4.3461e-06 0)
(8.30231e-05 -4.74846e-06 0)
(8.52616e-05 -4.93025e-06 0)
(8.66073e-05 -4.91288e-06 0)
(8.70996e-05 -4.71705e-06 0)
(8.68079e-05 -4.33126e-06 0)
(8.58066e-05 -3.78362e-06 0)
(8.41672e-05 -3.09482e-06 0)
(8.19607e-05 -2.27766e-06 0)
(7.92487e-05 -1.35112e-06 0)
(7.60842e-05 -3.4023e-07 0)
(7.25118e-05 7.22935e-07 0)
(6.85669e-05 1.80334e-06 0)
(0.00131826 -4.4943e-06 0)
(0.00131641 4.32588e-06 0)
(0.00131838 1.07711e-05 0)
(0.0013204 1.71081e-05 0)
(0.00132157 2.35646e-05 0)
(0.00132193 3.01302e-05 0)
(0.00132146 3.66773e-05 0)
(0.00132002 4.31373e-05 0)
(0.00131745 4.96103e-05 0)
(0.00131361 5.62913e-05 0)
(0.00130837 6.33293e-05 0)
(0.00130154 7.07833e-05 0)
(0.00129297 7.86381e-05 0)
(0.00128254 8.68369e-05 0)
(0.00127015 9.53015e-05 0)
(0.00125569 0.000103922 0)
(0.00123906 0.000112568 0)
(0.00122021 0.000121063 0)
(0.00119921 0.000129116 0)
(0.00117598 0.000136337 0)
(0.00115029 0.000142323 0)
(0.00112189 0.00014673 0)
(0.00109034 0.000149222 0)
(0.00105548 0.000149649 0)
(0.00101685 0.000147873 0)
(0.000974942 0.000144003 0)
(0.000929841 0.000138225 0)
(0.000882031 0.000130751 0)
(0.000832363 0.000121823 0)
(0.000781842 0.00011186 0)
(0.000731436 0.000101449 0)
(0.000681964 9.11942e-05 0)
(0.000634033 8.16096e-05 0)
(0.000588098 7.30145e-05 0)
(0.000544507 6.54479e-05 0)
(0.000503561 5.87032e-05 0)
(0.000465546 5.25616e-05 0)
(0.000430487 4.68881e-05 0)
(0.000398313 4.15309e-05 0)
(0.000368976 3.63551e-05 0)
(0.000342349 3.13089e-05 0)
(0.000318326 2.64177e-05 0)
(0.00029683 2.17107e-05 0)
(0.000277724 1.7197e-05 0)
(0.000260834 1.28834e-05 0)
(0.000246088 8.81972e-06 0)
(0.000233366 5.14188e-06 0)
(0.000222467 1.97804e-06 0)
(0.00021324 -6.15369e-07 0)
(0.000205552 -2.67333e-06 0)
(0.000199231 -4.28181e-06 0)
(0.000194115 -5.51921e-06 0)
(0.000190082 -6.48079e-06 0)
(0.000187005 -7.32866e-06 0)
(0.000184814 -8.28148e-06 0)
(0.00018342 -9.51528e-06 0)
(0.000182717 -1.10672e-05 0)
(0.000182604 -1.29077e-05 0)
(0.000182988 -1.50017e-05 0)
(0.00018378 -1.73479e-05 0)
(0.000184897 -1.99489e-05 0)
(0.000186268 -2.27438e-05 0)
(0.000187811 -2.5602e-05 0)
(0.000189574 -2.83646e-05 0)
(0.00019157 -3.08923e-05 0)
(0.000193735 -3.30555e-05 0)
(0.000196002 -3.47167e-05 0)
(0.000198261 -3.5747e-05 0)
(0.000200431 -3.6079e-05 0)
(0.000202441 -3.56946e-05 0)
(0.000204234 -3.46093e-05 0)
(0.000205782 -3.28585e-05 0)
(0.00020709 -3.04923e-05 0)
(0.000208207 -2.76097e-05 0)
(0.000209217 -2.42788e-05 0)
(0.000210187 -2.05492e-05 0)
(0.000211097 -1.64762e-05 0)
(0.000211815 -1.21499e-05 0)
(0.000212135 -7.7174e-06 0)
(0.000211859 -3.37348e-06 0)
(0.000210919 6.84771e-07 0)
(0.000209386 4.30165e-06 0)
(0.000207299 7.3956e-06 0)
(0.00020466 9.98572e-06 0)
(0.000201548 1.20945e-05 0)
(0.000198026 1.37611e-05 0)
(0.000194124 1.504e-05 0)
(0.00018986 1.59941e-05 0)
(0.000185254 1.66877e-05 0)
(0.000180328 1.71854e-05 0)
(0.00150228 -2.33079e-05 0)
(0.00150207 -1.64341e-05 0)
(0.00150566 -9.52504e-06 0)
(0.00151142 -2.74784e-06 0)
(0.00151788 4.12806e-06 0)
(0.0015242 1.12375e-05 0)
(0.00152972 1.86399e-05 0)
(0.00153447 2.64375e-05 0)
(0.0015388 3.47979e-05 0)
(0.00154283 4.38024e-05 0)
(0.00154645 5.34315e-05 0)
(0.00154951 6.36458e-05 0)
(0.00155185 7.44262e-05 0)
(0.00155333 8.57466e-05 0)
(0.00155385 9.75473e-05 0)
(0.00155327 0.000109719 0)
(0.00155149 0.000122092 0)
(0.00154832 0.000134476 0)
(0.00154347 0.000146621 0)
(0.0015367 0.000158203 0)
(0.00152784 0.00016889 0)
(0.00151673 0.000178422 0)
(0.00150305 0.000186604 0)
(0.00148663 0.000193359 0)
(0.00146719 0.00019867 0)
(0.00144468 0.000202597 0)
(0.00141898 0.000205155 0)
(0.00139022 0.000206419 0)
(0.00135842 0.000206348 0)
(0.00132395 0.000204826 0)
(0.00128725 0.000201777 0)
(0.00124849 0.000197124 0)
(0.00120779 0.000190842 0)
(0.00116549 0.000182989 0)
(0.00112219 0.000173677 0)
(0.00107855 0.000163096 0)
(0.00103516 0.000151501 0)
(0.000992564 0.000139173 0)
(0.000951331 0.000126395 0)
(0.00091193 0.000113431 0)
(0.000874709 0.000100557 0)
(0.000839928 8.80261e-05 0)
(0.000807818 7.60114e-05 0)
(0.000778523 6.46305e-05 0)
(0.00075208 5.39935e-05 0)
(0.00072844 4.41948e-05 0)
(0.000707528 3.52793e-05 0)
(0.000689268 2.72969e-05 0)
(0.00067356 2.02383e-05 0)
(0.000660353 1.40532e-05 0)
(0.00064946 8.74471e-06 0)
(0.000640589 4.29713e-06 0)
(0.000633721 5.95058e-07 0)
(0.00062877 -2.45631e-06 0)
(0.00062535 -4.90236e-06 0)
(0.000623208 -6.75974e-06 0)
(0.00062209 -8.10849e-06 0)
(0.000621696 -9.03254e-06 0)
(0.00062175 -9.57576e-06 0)
(0.000622042 -9.82119e-06 0)
(0.00062234 -9.85024e-06 0)
(0.0006224 -9.70499e-06 0)
(0.000621964 -9.42176e-06 0)
(0.000620946 -9.02743e-06 0)
(0.000619162 -8.52875e-06 0)
(0.000616277 -7.9447e-06 0)
(0.00061224 -7.27321e-06 0)
(0.000607135 -6.45134e-06 0)
(0.000601042 -5.46875e-06 0)
(0.000594036 -4.39546e-06 0)
(0.000586216 -3.33533e-06 0)
(0.000577672 -2.43224e-06 0)
(0.000568401 -1.91897e-06 0)
(0.000558434 -1.96623e-06 0)
(0.000547921 -2.62767e-06 0)
(0.000536986 -3.62454e-06 0)
(0.000525771 -4.36431e-06 0)
(0.000514447 -4.26641e-06 0)
(0.000503171 -3.11478e-06 0)
(0.00049209 -1.13439e-06 0)
(0.00048133 1.23501e-06 0)
(0.000470956 3.61322e-06 0)
(0.000461177 5.78695e-06 0)
(0.000452154 7.79572e-06 0)
(0.00044379 9.78353e-06 0)
(0.000436041 1.1839e-05 0)
(0.000428892 1.39942e-05 0)
(0.000422324 1.62425e-05 0)
(0.000416311 1.855e-05 0)
(0.000410814 2.08673e-05 0)
(0.00157443 -2.25072e-05 0)
(0.00157577 -1.74225e-05 0)
(0.00157809 -1.17299e-05 0)
(0.00158158 -5.95953e-06 0)
(0.0015861 -1.02851e-07 0)
(0.00159132 5.9191e-06 0)
(0.00159719 1.23882e-05 0)
(0.00160385 1.96624e-05 0)
(0.00161115 2.78537e-05 0)
(0.00161867 3.68928e-05 0)
(0.00162617 4.67372e-05 0)
(0.00163363 5.73986e-05 0)
(0.00164105 6.88376e-05 0)
(0.00164839 8.09927e-05 0)
(0.0016555 9.38086e-05 0)
(0.00166218 0.000107206 0)
(0.00166829 0.000121057 0)
(0.00167369 0.000135184 0)
(0.00167817 0.000149419 0)
(0.00168153 0.00016362 0)
(0.00168362 0.000177627 0)
(0.00168431 0.00019125 0)
(0.0016834 0.000204299 0)
(0.00168068 0.000216604 0)
(0.00167592 0.000228004 0)
(0.00166895 0.000238356 0)
(0.00165959 0.000247516 0)
(0.00164773 0.000255349 0)
(0.0016333 0.000261724 0)
(0.00161625 0.000266481 0)
(0.00159665 0.000269439 0)
(0.00157449 0.000270407 0)
(0.00154983 0.000269256 0)
(0.00152281 0.000265946 0)
(0.00149366 0.000260503 0)
(0.00146266 0.000252972 0)
(0.00143006 0.000243434 0)
(0.00139617 0.000232049 0)
(0.0013613 0.000219049 0)
(0.00132587 0.000204703 0)
(0.0012903 0.0001893 0)
(0.00125502 0.000173153 0)
(0.00122042 0.000156568 0)
(0.00118691 0.000139842 0)
(0.00115485 0.000123271 0)
(0.00112453 0.000107121 0)
(0.00109618 9.16393e-05 0)
(0.00106996 7.702e-05 0)
(0.00104597 6.33954e-05 0)
(0.00102429 5.08631e-05 0)
(0.00100498 3.94512e-05 0)
(0.000987989 2.91577e-05 0)
(0.000973169 2.00167e-05 0)
(0.000960449 1.20176e-05 0)
(0.000949774 5.09146e-06 0)
(0.000941079 -8.21355e-07 0)
(0.000934082 -5.8174e-06 0)
(0.000928659 -9.96777e-06 0)
(0.000924589 -1.33552e-05 0)
(0.000921651 -1.6019e-05 0)
(0.000919658 -1.79961e-05 0)
(0.00091845 -1.93065e-05 0)
(0.000917869 -1.99683e-05 0)
(0.000917811 -1.99886e-05 0)
(0.00091816 -1.93641e-05 0)
(0.000918743 -1.80909e-05 0)
(0.000919585 -1.614e-05 0)
(0.000920726 -1.34785e-05 0)
(0.000922011 -1.01724e-05 0)
(0.000923273 -6.29113e-06 0)
(0.000924364 -1.87414e-06 0)
(0.00092507 2.96399e-06 0)
(0.000925492 8.03809e-06 0)
(0.000925691 1.32053e-05 0)
(0.00092537 1.83917e-05 0)
(0.000924245 2.35156e-05 0)
(0.000922166 2.84303e-05 0)
(0.000919163 3.31007e-05 0)
(0.000915398 3.75233e-05 0)
(0.000911042 4.15271e-05 0)
(0.000906182 4.48342e-05 0)
(0.000900592 4.73141e-05 0)
(0.000893867 4.90021e-05 0)
(0.000886028 4.993e-05 0)
(0.000877295 5.01857e-05 0)
(0.000867772 4.98899e-05 0)
(0.000857561 4.91304e-05 0)
(0.000846792 4.79925e-05 0)
(0.000835597 4.65785e-05 0)
(0.000824103 4.50165e-05 0)
(0.00154103 -2.19882e-05 0)
(0.00154367 -2.14207e-05 0)
(0.00154757 -2.01375e-05 0)
(0.00155301 -1.80566e-05 0)
(0.00155988 -1.51257e-05 0)
(0.001568 -1.12094e-05 0)
(0.00157739 -6.17748e-06 0)
(0.00158765 -4.53361e-08 0)
(0.00159819 7.08244e-06 0)
(0.00160883 1.52368e-05 0)
(0.00161968 2.45058e-05 0)
(0.00163065 3.49165e-05 0)
(0.00164149 4.64671e-05 0)
(0.00165213 5.90962e-05 0)
(0.00166253 7.26759e-05 0)
(0.0016725 8.70591e-05 0)
(0.00168188 0.000102101 0)
(0.00169052 0.000117649 0)
(0.00169837 0.000133544 0)
(0.00170538 0.000149641 0)
(0.00171145 0.000165788 0)
(0.00171646 0.0001818 0)
(0.00172032 0.000197489 0)
(0.00172295 0.000212677 0)
(0.00172428 0.000227206 0)
(0.00172422 0.000240924 0)
(0.00172274 0.000253687 0)
(0.0017198 0.000265357 0)
(0.00171533 0.000275793 0)
(0.00170928 0.000284861 0)
(0.00170154 0.000292422 0)
(0.00169199 0.000298338 0)
(0.00168059 0.000302469 0)
(0.00166737 0.000304679 0)
(0.00165236 0.000304846 0)
(0.00163553 0.000302859 0)
(0.0016169 0.000298644 0)
(0.00159659 0.000292166 0)
(0.0015747 0.00028344 0)
(0.00155132 0.000272556 0)
(0.00152658 0.000259685 0)
(0.00150064 0.000245076 0)
(0.00147376 0.000229039 0)
(0.00144623 0.00021191 0)
(0.0014184 0.000194035 0)
(0.00139059 0.000175754 0)
(0.00136315 0.000157388 0)
(0.00133637 0.000139233 0)
(0.00131051 0.000121556 0)
(0.00128584 0.000104597 0)
(0.00126252 8.85518e-05 0)
(0.00124072 7.35681e-05 0)
(0.00122064 5.97705e-05 0)
(0.00120234 4.72593e-05 0)
(0.00118572 3.60804e-05 0)
(0.00117069 2.62036e-05 0)
(0.0011572 1.76033e-05 0)
(0.00114518 1.02593e-05 0)
(0.00113451 4.09493e-06 0)
(0.00112516 -9.6282e-07 0)
(0.00111706 -4.98355e-06 0)
(0.00111007 -8.05329e-06 0)
(0.00110407 -1.0243e-05 0)
(0.00109901 -1.16253e-05 0)
(0.00109484 -1.23084e-05 0)
(0.00109152 -1.23872e-05 0)
(0.00108906 -1.1914e-05 0)
(0.00108731 -1.09772e-05 0)
(0.00108621 -9.67903e-06 0)
(0.00108596 -8.06425e-06 0)
(0.00108669 -6.15373e-06 0)
(0.0010885 -3.96482e-06 0)
(0.00109128 -1.48188e-06 0)
(0.00109489 1.23481e-06 0)
(0.00109939 4.16507e-06 0)
(0.00110463 7.30457e-06 0)
(0.00111041 1.07277e-05 0)
(0.00111666 1.45026e-05 0)
(0.00112334 1.86204e-05 0)
(0.00113037 2.30036e-05 0)
(0.00113759 2.75508e-05 0)
(0.00114484 3.21359e-05 0)
(0.00115209 3.67006e-05 0)
(0.00115928 4.12591e-05 0)
(0.00116626 4.57469e-05 0)
(0.00117286 5.00748e-05 0)
(0.00117884 5.41959e-05 0)
(0.00118408 5.80715e-05 0)
(0.0011885 6.16322e-05 0)
(0.00119202 6.4809e-05 0)
(0.0015414 -3.42847e-05 0)
(0.00154984 -3.59422e-05 0)
(0.00155953 -3.6799e-05 0)
(0.00157056 -3.67448e-05 0)
(0.00158284 -3.56611e-05 0)
(0.00159616 -3.3364e-05 0)
(0.00161012 -2.97638e-05 0)
(0.00162429 -2.48479e-05 0)
(0.00163861 -1.85416e-05 0)
(0.0016531 -1.07399e-05 0)
(0.00166752 -1.4174e-06 0)
(0.00168168 9.34514e-06 0)
(0.00169543 2.14926e-05 0)
(0.00170851 3.50183e-05 0)
(0.00172064 4.99445e-05 0)
(0.00173164 6.62048e-05 0)
(0.00174143 8.3534e-05 0)
(0.00174989 0.000101728 0)
(0.00175693 0.000120574 0)
(0.00176245 0.000139802 0)
(0.00176633 0.000159138 0)
(0.00176848 0.000178322 0)
(0.00176885 0.000197108 0)
(0.00176746 0.000215253 0)
(0.00176435 0.000232532 0)
(0.00175958 0.000248742 0)
(0.00175326 0.000263702 0)
(0.00174554 0.000277253 0)
(0.00173661 0.000289261 0)
(0.00172668 0.00029962 0)
(0.00171595 0.000308261 0)
(0.00170457 0.000315182 0)
(0.00169266 0.000320417 0)
(0.00168032 0.000323978 0)
(0.00166761 0.000325843 0)
(0.00165453 0.000325976 0)
(0.001641 0.000324341 0)
(0.00162688 0.000320887 0)
(0.00161204 0.000315563 0)
(0.00159644 0.000308339 0)
(0.00158009 0.000299214 0)
(0.00156297 0.000288227 0)
(0.00154506 0.000275479 0)
(0.00152634 0.000261144 0)
(0.00150684 0.00024545 0)
(0.00148661 0.000228678 0)
(0.00146575 0.000211139 0)
(0.00144441 0.000193155 0)
(0.00142278 0.000175049 0)
(0.00140107 0.000157111 0)
(0.00137949 0.000139601 0)
(0.00135826 0.000122741 0)
(0.00133756 0.000106686 0)
(0.00131755 9.15357e-05 0)
(0.0012983 7.7376e-05 0)
(0.00127991 6.42906e-05 0)
(0.00126245 5.23557e-05 0)
(0.00124598 4.16053e-05 0)
(0.00123048 3.20813e-05 0)
(0.00121596 2.37742e-05 0)
(0.00120247 1.66491e-05 0)
(0.00119004 1.06363e-05 0)
(0.00117876 5.65464e-06 0)
(0.00116868 1.61095e-06 0)
(0.00115986 -1.61307e-06 0)
(0.00115244 -4.12331e-06 0)
(0.00114654 -6.03593e-06 0)
(0.00114223 -7.44539e-06 0)
(0.00113961 -8.34171e-06 0)
(0.00113877 -8.72247e-06 0)
(0.00113963 -8.64492e-06 0)
(0.00114203 -8.18121e-06 0)
(0.00114589 -7.39744e-06 0)
(0.0011511 -6.27973e-06 0)
(0.00115751 -4.82259e-06 0)
(0.00116505 -3.06676e-06 0)
(0.00117368 -1.00489e-06 0)
(0.00118326 1.36855e-06 0)
(0.00119373 4.03189e-06 0)
(0.00120501 6.92769e-06 0)
(0.00121703 1.00012e-05 0)
(0.0012297 1.32197e-05 0)
(0.00124294 1.65199e-05 0)
(0.00125661 1.98333e-05 0)
(0.00127054 2.31041e-05 0)
(0.00128468 2.62741e-05 0)
(0.00129905 2.93339e-05 0)
(0.00131353 3.22915e-05 0)
(0.00132796 3.51815e-05 0)
(0.00134228 3.80383e-05 0)
(0.00161722 -6.11301e-05 0)
(0.00162548 -6.4951e-05 0)
(0.00163456 -6.78837e-05 0)
(0.00164481 -6.98045e-05 0)
(0.00165637 -7.05175e-05 0)
(0.00166912 -6.98012e-05 0)
(0.00168278 -6.74672e-05 0)
(0.00169709 -6.33308e-05 0)
(0.00171189 -5.72602e-05 0)
(0.001727 -4.92327e-05 0)
(0.00174223 -3.92465e-05 0)
(0.00175753 -2.73071e-05 0)
(0.0017729 -1.34877e-05 0)
(0.00178836 2.13808e-06 0)
(0.00180385 1.94253e-05 0)
(0.0018187 3.81674e-05 0)
(0.0018324 5.83516e-05 0)
(0.00184488 7.99242e-05 0)
(0.00185586 0.000102583 0)
(0.00186504 0.000126026 0)
(0.0018722 0.000149963 0)
(0.00187711 0.000174093 0)
(0.00187955 0.000198098 0)
(0.0018793 0.000221646 0)
(0.00187621 0.000244398 0)
(0.00187017 0.000266018 0)
(0.00186112 0.000286182 0)
(0.0018491 0.000304591 0)
(0.00183419 0.000320973 0)
(0.0018166 0.000335095 0)
(0.00179666 0.00034677 0)
(0.0017748 0.00035585 0)
(0.00175141 0.000362237 0)
(0.0017269 0.000365925 0)
(0.00170171 0.000366997 0)
(0.00167626 0.000365604 0)
(0.001651 0.000361944 0)
(0.00162631 0.000356258 0)
(0.00160247 0.000348813 0)
(0.00157963 0.000339869 0)
(0.00155774 0.000329647 0)
(0.00153674 0.000318321 0)
(0.00151654 0.000306008 0)
(0.00149704 0.00029278 0)
(0.00147811 0.000278689 0)
(0.00145961 0.000263795 0)
(0.00144139 0.000248185 0)
(0.00142332 0.000231983 0)
(0.0014053 0.000215348 0)
(0.00138722 0.000198467 0)
(0.00136903 0.000181548 0)
(0.00135068 0.000164812 0)
(0.00133215 0.000148484 0)
(0.00131347 0.000132783 0)
(0.00129472 0.000117909 0)
(0.00127604 0.00010403 0)
(0.00125757 9.1251e-05 0)
(0.00123952 7.96022e-05 0)
(0.00122214 6.90633e-05 0)
(0.00120569 5.95695e-05 0)
(0.00119041 5.09943e-05 0)
(0.00117651 4.31839e-05 0)
(0.00116421 3.59572e-05 0)
(0.00115372 2.91268e-05 0)
(0.00114521 2.2558e-05 0)
(0.00113877 1.61669e-05 0)
(0.00113446 9.93086e-06 0)
(0.00113238 3.92589e-06 0)
(0.00113253 -1.77263e-06 0)
(0.00113474 -7.09143e-06 0)
(0.00113877 -1.19351e-05 0)
(0.00114445 -1.61779e-05 0)
(0.00115166 -1.9738e-05 0)
(0.00116026 -2.25926e-05 0)
(0.00117007 -2.47355e-05 0)
(0.00118094 -2.6149e-05 0)
(0.00119272 -2.68792e-05 0)
(0.00120528 -2.69819e-05 0)
(0.00121852 -2.65147e-05 0)
(0.00123237 -2.5547e-05 0)
(0.00124678 -2.41559e-05 0)
(0.00126173 -2.24139e-05 0)
(0.00127722 -2.03928e-05 0)
(0.00129321 -1.81522e-05 0)
(0.00130963 -1.57056e-05 0)
(0.00132646 -1.30553e-05 0)
(0.00134368 -1.02272e-05 0)
(0.0013613 -7.2516e-06 0)
(0.00137931 -4.124e-06 0)
(0.00139762 -8.37824e-07 0)
(0.0015791 -6.9295e-05 0)
(0.00157801 -7.59665e-05 0)
(0.00157783 -8.17036e-05 0)
(0.00157933 -8.62684e-05 0)
(0.00158295 -8.94586e-05 0)
(0.00158879 -9.10976e-05 0)
(0.00159669 -9.1041e-05 0)
(0.00160639 -8.91695e-05 0)
(0.0016178 -8.53576e-05 0)
(0.00163087 -7.948e-05 0)
(0.00164557 -7.14345e-05 0)
(0.00166177 -6.11309e-05 0)
(0.00167939 -4.85006e-05 0)
(0.00169808 -3.35656e-05 0)
(0.00171741 -1.64734e-05 0)
(0.00173758 2.65894e-06 0)
(0.0017588 2.38541e-05 0)
(0.00178029 4.69056e-05 0)
(0.00180128 7.16652e-05 0)
(0.00182154 9.79416e-05 0)
(0.00184076 0.000125475 0)
(0.0018585 0.000153995 0)
(0.00187436 0.000183162 0)
(0.00188791 0.000212611 0)
(0.00189874 0.000241946 0)
(0.00190646 0.00027075 0)
(0.00191073 0.000298587 0)
(0.00191124 0.000325008 0)
(0.00190774 0.000349566 0)
(0.00190007 0.000371825 0)
(0.00188809 0.000391366 0)
(0.00187174 0.000407792 0)
(0.00185113 0.000420748 0)
(0.00182657 0.00042998 0)
(0.00179848 0.000435344 0)
(0.00176734 0.000436807 0)
(0.00173374 0.000434463 0)
(0.00169834 0.000428537 0)
(0.00166188 0.000419368 0)
(0.00162516 0.000407385 0)
(0.00158895 0.00039309 0)
(0.00155387 0.000377016 0)
(0.00152035 0.000359673 0)
(0.00148864 0.000341521 0)
(0.00145885 0.00032295 0)
(0.00143093 0.00030428 0)
(0.00140475 0.000285744 0)
(0.00138006 0.000267507 0)
(0.0013566 0.000249692 0)
(0.00133416 0.000232396 0)
(0.00131255 0.000215708 0)
(0.00129172 0.000199695 0)
(0.00127166 0.000184386 0)
(0.00125246 0.00016976 0)
(0.00123421 0.000155742 0)
(0.00121701 0.000142225 0)
(0.00120094 0.000129114 0)
(0.00118608 0.000116332 0)
(0.00117252 0.000103802 0)
(0.00116037 9.14446e-05 0)
(0.00114981 7.91825e-05 0)
(0.00114105 6.6965e-05 0)
(0.00113431 5.47863e-05 0)
(0.00112976 4.26915e-05 0)
(0.00112754 3.07654e-05 0)
(0.00112774 1.91046e-05 0)
(0.00113039 7.80662e-06 0)
(0.00113529 -2.99238e-06 0)
(0.00114207 -1.30698e-05 0)
(0.00115046 -2.22439e-05 0)
(0.00116017 -3.04178e-05 0)
(0.00117082 -3.75482e-05 0)
(0.00118199 -4.36003e-05 0)
(0.0011934 -4.85453e-05 0)
(0.0012049 -5.23664e-05 0)
(0.00121643 -5.50724e-05 0)
(0.00122792 -5.67142e-05 0)
(0.0012394 -5.74217e-05 0)
(0.00125095 -5.73877e-05 0)
(0.00126268 -5.6818e-05 0)
(0.0012747 -5.58924e-05 0)
(0.00128711 -5.47464e-05 0)
(0.00130004 -5.34738e-05 0)
(0.00131359 -5.21373e-05 0)
(0.00132782 -5.07485e-05 0)
(0.00134281 -4.92862e-05 0)
(0.00135863 -4.77177e-05 0)
(0.00137531 -4.59954e-05 0)
(0.00139284 -4.40832e-05 0)
(0.00141121 -4.19399e-05 0)
(0.00130444 -4.82307e-05 0)
(0.00129307 -5.98576e-05 0)
(0.0012837 -7.03906e-05 0)
(0.00127729 -7.9639e-05 0)
(0.00127426 -8.75934e-05 0)
(0.00127467 -9.42107e-05 0)
(0.0012784 -9.93928e-05 0)
(0.00128538 -0.000103032 0)
(0.00129558 -0.000104931 0)
(0.00130901 -0.000104795 0)
(0.00132556 -0.000102385 0)
(0.00134516 -9.7568e-05 0)
(0.00136767 -9.01753e-05 0)
(0.0013929 -7.99554e-05 0)
(0.00142052 -6.67108e-05 0)
(0.00145005 -5.04409e-05 0)
(0.00148093 -3.13568e-05 0)
(0.00151295 -9.63268e-06 0)
(0.0015459 1.4689e-05 0)
(0.00157922 4.14685e-05 0)
(0.00161254 7.0496e-05 0)
(0.00164544 0.000101472 0)
(0.00167742 0.000134086 0)
(0.00170805 0.000167981 0)
(0.00173686 0.000202756 0)
(0.00176339 0.000237967 0)
(0.00178718 0.000273129 0)
(0.00180773 0.000307723 0)
(0.00182461 0.00034121 0)
(0.00183737 0.000373027 0)
(0.0018456 0.000402604 0)
(0.00184898 0.000429404 0)
(0.00184728 0.000452933 0)
(0.00184039 0.000472723 0)
(0.00182826 0.000488352 0)
(0.00181096 0.00049948 0)
(0.00178874 0.000505874 0)
(0.00176196 0.000507437 0)
(0.00173114 0.000504216 0)
(0.00169683 0.000496409 0)
(0.00165968 0.000484372 0)
(0.00162041 0.00046861 0)
(0.00157987 0.000449772 0)
(0.00153892 0.000428616 0)
(0.00149843 0.00040593 0)
(0.00145916 0.000382469 0)
(0.0014218 0.000358892 0)
(0.00138687 0.000335706 0)
(0.00135476 0.000313227 0)
(0.00132562 0.000291594 0)
(0.00129946 0.000270777 0)
(0.0012761 0.000250638 0)
(0.00125526 0.000231024 0)
(0.00123652 0.000211866 0)
(0.00121944 0.000193207 0)
(0.00120368 0.000175147 0)
(0.00118914 0.000157756 0)
(0.001176 0.000141012 0)
(0.00116466 0.000124779 0)
(0.00115559 0.000108842 0)
(0.00114918 9.29548e-05 0)
(0.00114566 7.68945e-05 0)
(0.00114505 6.05171e-05 0)
(0.00114719 4.38044e-05 0)
(0.00115165 2.68594e-05 0)
(0.00115781 9.89146e-06 0)
(0.00116512 -6.72897e-06 0)
(0.00117333 -2.24099e-05 0)
(0.00118212 -3.63138e-05 0)
(0.00119079 -4.76994e-05 0)
(0.00119874 -5.62773e-05 0)
(0.0012057 -6.23991e-05 0)
(0.00121167 -6.67378e-05 0)
(0.00121665 -6.99055e-05 0)
(0.00122073 -7.22844e-05 0)
(0.00122402 -7.40701e-05 0)
(0.00122663 -7.53849e-05 0)
(0.00122859 -7.63101e-05 0)
(0.00123005 -7.69234e-05 0)
(0.00123135 -7.73231e-05 0)
(0.00123292 -7.76191e-05 0)
(0.0012352 -7.79106e-05 0)
(0.00123861 -7.82744e-05 0)
(0.00124347 -7.87586e-05 0)
(0.00125003 -7.93742e-05 0)
(0.00125849 -8.00942e-05 0)
(0.00126893 -8.08614e-05 0)
(0.00128143 -8.15969e-05 0)
(0.00129596 -8.22029e-05 0)
(0.00131249 -8.25691e-05 0)
(0.000874213 -1.65539e-05 0)
(0.000862262 -3.42209e-05 0)
(0.000853637 -5.12541e-05 0)
(0.000848558 -6.76188e-05 0)
(0.000847386 -8.33099e-05 0)
(0.000850364 -9.81784e-05 0)
(0.000857547 -0.00011193 0)
(0.000868879 -0.000124192 0)
(0.000884245 -0.000134559 0)
(0.000903495 -0.000142596 0)
(0.000926442 -0.000147891 0)
(0.000952847 -0.00015013 0)
(0.000982407 -0.000149118 0)
(0.0010148 -0.000144724 0)
(0.00104971 -0.000136823 0)
(0.00108686 -0.000125303 0)
(0.0011259 -0.000110091 0)
(0.00116648 -9.11728e-05 0)
(0.00120824 -6.87489e-05 0)
(0.00125081 -4.30337e-05 0)
(0.00129379 -1.42422e-05 0)
(0.00133684 1.73405e-05 0)
(0.00137968 5.14253e-05 0)
(0.00142194 8.76662e-05 0)
(0.00146321 0.000125698 0)
(0.00150313 0.000165152 0)
(0.00154129 0.000205558 0)
(0.0015773 0.000246402 0)
(0.00161074 0.000287152 0)
(0.00164114 0.000327229 0)
(0.00166808 0.000366029 0)
(0.00169111 0.000402934 0)
(0.00170983 0.000437308 0)
(0.00172384 0.000468508 0)
(0.00173281 0.000495914 0)
(0.00173649 0.000518964 0)
(0.00173474 0.000537174 0)
(0.00172751 0.000550156 0)
(0.00171494 0.000557652 0)
(0.00169732 0.000559561 0)
(0.00167513 0.000555962 0)
(0.00164901 0.000547121 0)
(0.00161968 0.000533473 0)
(0.00158791 0.000515585 0)
(0.00155448 0.000494122 0)
(0.00152012 0.000469796 0)
(0.00148542 0.000443328 0)
(0.00145087 0.000415406 0)
(0.00141688 0.000386664 0)
(0.00138383 0.000357676 0)
(0.00135208 0.000329034 0)
(0.00132184 0.000301401 0)
(0.00129338 0.000275441 0)
(0.00126707 0.000251626 0)
(0.00124349 0.000229962 0)
(0.00122334 0.000209843 0)
(0.00120733 0.000190183 0)
(0.00119589 0.000169846 0)
(0.00118891 0.000148089 0)
(0.00118573 0.00012478 0)
(0.00118525 0.000100292 0)
(0.00118625 7.53093e-05 0)
(0.00118777 5.0783e-05 0)
(0.00118926 2.7869e-05 0)
(0.00119052 7.56288e-06 0)
(0.00119162 -9.79379e-06 0)
(0.00119287 -2.4627e-05 0)
(0.00119453 -3.7488e-05 0)
(0.00119644 -4.84779e-05 0)
(0.00119766 -5.73805e-05 0)
(0.00119634 -6.41266e-05 0)
(0.00119054 -6.88376e-05 0)
(0.00117941 -7.16973e-05 0)
(0.00116336 -7.27038e-05 0)
(0.00114362 -7.17964e-05 0)
(0.00112169 -6.92444e-05 0)
(0.00109916 -6.57685e-05 0)
(0.00107746 -6.23254e-05 0)
(0.0010577 -5.98057e-05 0)
(0.00104063 -5.88122e-05 0)
(0.00102678 -5.96855e-05 0)
(0.00101649 -6.24462e-05 0)
(0.00100995 -6.68774e-05 0)
(0.00100722 -7.26395e-05 0)
(0.00100826 -7.93485e-05 0)
(0.00101294 -8.66292e-05 0)
(0.0010211 -9.41431e-05 0)
(0.00103254 -0.000101595 0)
(0.00104704 -0.000108732 0)
(0.00106441 -0.000115339 0)
(0.000435613 7.66629e-06 0)
(0.000429135 -1.65091e-05 0)
(0.00042531 -4.16163e-05 0)
(0.000424853 -6.7008e-05 0)
(0.000428249 -9.21189e-05 0)
(0.000435741 -0.000116427 0)
(0.0004473 -0.000139446 0)
(0.000462909 -0.000160679 0)
(0.000482489 -0.000179654 0)
(0.000505973 -0.000195889 0)
(0.000533238 -0.000208947 0)
(0.000564131 -0.000218441 0)
(0.000598437 -0.000224055 0)
(0.000635878 -0.000225554 0)
(0.000676132 -0.000222772 0)
(0.000718841 -0.000215611 0)
(0.00076363 -0.000204047 0)
(0.000810122 -0.000188126 0)
(0.000857939 -0.00016796 0)
(0.000906698 -0.000143745 0)
(0.000956025 -0.000115748 0)
(0.00100558 -8.42442e-05 0)
(0.00105509 -4.95443e-05 0)
(0.00110429 -1.19763e-05 0)
(0.001153 2.81002e-05 0)
(0.00120086 7.02243e-05 0)
(0.00124744 0.000113958 0)
(0.00129256 0.0001589 0)
(0.00133595 0.000204618 0)
(0.0013773 0.000250543 0)
(0.00141626 0.000296111 0)
(0.00145247 0.000340719 0)
(0.00148554 0.00038371 0)
(0.00151506 0.000424393 0)
(0.00154064 0.000462061 0)
(0.00156191 0.00049602 0)
(0.00157857 0.000525608 0)
(0.00159035 0.000550226 0)
(0.00159709 0.000569372 0)
(0.0015987 0.000582664 0)
(0.00159519 0.000589855 0)
(0.00158665 0.000590854 0)
(0.00157327 0.000585743 0)
(0.00155537 0.000574803 0)
(0.00153344 0.000558564 0)
(0.00150819 0.000537802 0)
(0.00148045 0.000513467 0)
(0.00145127 0.000486632 0)
(0.00142166 0.000458392 0)
(0.00139259 0.000429715 0)
(0.00136501 0.000401267 0)
(0.00133981 0.000373225 0)
(0.0013179 0.000345175 0)
(0.00129992 0.000316254 0)
(0.00128599 0.000285555 0)
(0.00127537 0.000252634 0)
(0.00126659 0.000217929 0)
(0.00125788 0.000182884 0)
(0.00124798 0.000149631 0)
(0.00123666 0.000120211 0)
(0.00122481 9.56417e-05 0)
(0.00121415 7.53918e-05 0)
(0.0012066 5.77637e-05 0)
(0.00120305 4.09143e-05 0)
(0.00120232 2.3453e-05 0)
(0.00120072 4.4515e-06 0)
(0.00119327 -1.58825e-05 0)
(0.00117623 -3.46216e-05 0)
(0.00114845 -4.64883e-05 0)
(0.00111116 -4.72185e-05 0)
(0.00106708 -3.67831e-05 0)
(0.0010189 -1.93228e-05 0)
(0.000969003 -5.37367e-07 0)
(0.000920015 1.47658e-05 0)
(0.000874244 2.39317e-05 0)
(0.000833378 2.64125e-05 0)
(0.000798567 2.2962e-05 0)
(0.000770425 1.48075e-05 0)
(0.000749128 3.19493e-06 0)
(0.000734313 -1.07634e-05 0)
(0.000725352 -2.63446e-05 0)
(0.000721704 -4.28977e-05 0)
(0.000722737 -5.98898e-05 0)
(0.000727814 -7.68914e-05 0)
(0.000736363 -9.35641e-05 0)
(0.000747897 -0.000109645 0)
(0.000762015 -0.000124936 0)
(0.000778399 -0.000139292 0)
(0.000796806 -0.000152607 0)
(0.000817066 -0.000164799 0)
(2.67366e-05 2.42726e-05 0)
(2.10278e-05 -7.73409e-06 0)
(1.75197e-05 -4.0371e-05 0)
(1.76416e-05 -7.32259e-05 0)
(2.1212e-05 -0.000106025 0)
(2.87651e-05 -0.000138351 0)
(4.03066e-05 -0.000169696 0)
(5.61603e-05 -0.000199458 0)
(7.62902e-05 -0.000227067 0)
(0.000100816 -0.000251908 0)
(0.000129635 -0.000273447 0)
(0.000162688 -0.000291133 0)
(0.00019977 -0.000304502 0)
(0.00024065 -0.000313174 0)
(0.000285025 -0.000316848 0)
(0.000332504 -0.000315296 0)
(0.000382663 -0.000308446 0)
(0.000435058 -0.000296366 0)
(0.00048924 -0.000279108 0)
(0.000544707 -0.00025688 0)
(0.000600964 -0.00022998 0)
(0.000657543 -0.000198773 0)
(0.00071399 -0.00016369 0)
(0.000769922 -0.000125157 0)
(0.000825016 -8.3604e-05 0)
(0.000879087 -3.94999e-05 0)
(0.000932104 6.73102e-06 0)
(0.000983949 5.46447e-05 0)
(0.00103425 0.000103726 0)
(0.0010828 0.000153544 0)
(0.0011296 0.000203568 0)
(0.00117443 0.000253335 0)
(0.00121705 0.000302288 0)
(0.00125717 0.000349808 0)
(0.00129448 0.000395233 0)
(0.00132864 0.00043786 0)
(0.00135931 0.000476963 0)
(0.00138612 0.000511825 0)
(0.00140878 0.000541772 0)
(0.00142705 0.000566221 0)
(0.0014408 0.000584719 0)
(0.00145004 0.000596969 0)
(0.00145497 0.000602859 0)
(0.00145595 0.000602462 0)
(0.00145345 0.000596013 0)
(0.00144793 0.000583868 0)
(0.00143987 0.000566473 0)
(0.00142974 0.000544279 0)
(0.00141797 0.000517672 0)
(0.00140487 0.000486971 0)
(0.00139058 0.000452445 0)
(0.00137502 0.000414503 0)
(0.00135787 0.000374152 0)
(0.0013387 0.000333451 0)
(0.00131727 0.000295417 0)
(0.00129387 0.000263028 0)
(0.00126966 0.000237604 0)
(0.00124684 0.000217644 0)
(0.00122813 0.000199155 0)
(0.0012157 0.000177357 0)
(0.00120938 0.000148616 0)
(0.00120563 0.000111928 0)
(0.00119832 7.05956e-05 0)
(0.00118136 3.32281e-05 0)
(0.00115104 1.09873e-05 0)
(0.00110627 1.12636e-05 0)
(0.00104804 3.27687e-05 0)