/*--------------------------------*- C++ -*----------------------------------*\
| =========                 |                                                 |
| \\      /  F ield         | OpenFOAM: The Open Source CFD Toolbox           |
|  \\    /   O peration     | Version:  2312                                  |
|   \\  /    A nd           | Website:  www.openfoam.com                      |
|    \\/     M anipulation  |                                                 |
\*---------------------------------------------------------------------------*/
FoamFile
{
    version     2.0;
    format      ascii;
    arch        "LSB;label=32;scalar=64";
    class       volScalarField;
    location    "131000";
    object      p;
}
// * * * * * * * * * * * * * * * * * * * * * * * * * * * * * * * * * * * * * //

dimensions      [0 2 -2 0 0 0 0];

internalField   nonuniform List<scalar> 
2715
(
3.77811e-07
3.27425e-07
3.06494e-07
2.88929e-07
2.7129e-07
2.53563e-07
2.33766e-07
2.1272e-07
1.8817e-07
1.61905e-07
1.31383e-07
9.96382e-08
6.35974e-08
2.77073e-08
-1.18664e-08
-4.91861e-08
-8.94855e-08
-1.25204e-07
-1.63532e-07
-1.95134e-07
-2.29554e-07
-2.55483e-07
-2.85206e-07
-3.04581e-07
-3.30439e-07
-3.41491e-07
-3.68495e-07
-3.67627e-07
-4.01722e-07
-5.04409e-07
3.63958e-07
3.09031e-07
2.95066e-07
2.80061e-07
2.63095e-07
2.45768e-07
2.26295e-07
2.05423e-07
1.81086e-07
1.55199e-07
1.2532e-07
9.44381e-08
5.95649e-08
2.49794e-08
-1.30997e-08
-4.90015e-08
-8.758e-08
-1.21928e-07
-1.58556e-07
-1.89299e-07
-2.22579e-07
-2.47966e-07
-2.77551e-07
-2.96494e-07
-3.22703e-07
-3.34898e-07
-3.57839e-07
-3.71005e-07
-3.75475e-07
-5.2022e-07
3.51781e-07
3.06528e-07
2.93585e-07
2.79062e-07
2.61613e-07
2.43365e-07
2.23381e-07
2.02162e-07
1.77782e-07
1.51772e-07
1.22133e-07
9.13482e-08
5.70326e-08
2.27907e-08
-1.44055e-08
-4.97416e-08
-8.73441e-08
-1.21361e-07
-1.57377e-07
-1.87783e-07
-2.20478e-07
-2.45914e-07
-2.74165e-07
-2.94936e-07
-3.18127e-07
-3.36451e-07
-3.53e-07
-3.80225e-07
-3.60873e-07
-4.58147e-07
3.41606e-07
3.02416e-07
2.87421e-07
2.73433e-07
2.56671e-07
2.38981e-07
2.19192e-07
1.97834e-07
1.73518e-07
1.47364e-07
1.18051e-07
8.72903e-08
5.37193e-08
1.96804e-08
-1.6325e-08
-5.14589e-08
-8.75514e-08
-1.215e-07
-1.55402e-07
-1.86376e-07
-2.16382e-07
-2.43939e-07
-2.69167e-07
-2.93265e-07
-3.12077e-07
-3.36343e-07
-3.43306e-07
-3.79376e-07
-3.56029e-07
-4.20008e-07
3.31783e-07
2.99791e-07
2.83908e-07
2.71056e-07
2.54859e-07
2.36405e-07
2.16112e-07
1.94196e-07
1.6984e-07
1.43281e-07
1.1421e-07
8.31815e-08
5.02842e-08
1.6153e-08
-1.87028e-08
-5.38685e-08
-8.83744e-08
-1.22471e-07
-1.5446e-07
-1.86148e-07
-2.14058e-07
-2.42962e-07
-2.65301e-07
-2.92003e-07
-3.06948e-07
-3.34204e-07
-3.38286e-07
-3.70943e-07
-3.61809e-07
-3.93381e-07
3.23174e-07
2.98021e-07
2.81313e-07
2.68006e-07
2.52083e-07
2.33537e-07
2.1306e-07
1.9066e-07
1.66178e-07
1.39189e-07
1.10226e-07
7.88856e-08
4.6483e-08
1.22229e-08
-2.16814e-08
-5.68581e-08
-8.99766e-08
-1.24149e-07
-1.54473e-07
-1.86474e-07
-2.12556e-07
-2.4197e-07
-2.62694e-07
-2.89893e-07
-3.04105e-07
-3.30037e-07
-3.37382e-07
-3.61543e-07
-3.65592e-07
-3.80727e-07
3.16118e-07
2.96469e-07
2.79655e-07
2.65499e-07
2.49694e-07
2.3108e-07
2.10352e-07
1.87384e-07
1.62591e-07
1.35128e-07
1.06077e-07
7.44366e-08
4.22762e-08
7.98258e-09
-2.52973e-08
-6.02486e-08
-9.2433e-08
-1.26228e-07
-1.55529e-07
-1.87031e-07
-2.12314e-07
-2.41023e-07
-2.61683e-07
-2.87458e-07
-3.03275e-07
-3.25804e-07
-3.37638e-07
-3.55558e-07
-3.65885e-07
-3.76834e-07
3.10844e-07
2.95018e-07
2.78701e-07
2.63585e-07
2.47541e-07
2.28775e-07
2.07726e-07
1.842e-07
1.58927e-07
1.31003e-07
1.01665e-07
6.98034e-08
3.76214e-08
3.44977e-09
-2.95482e-08
-6.40006e-08
-9.57151e-08
-1.28681e-07
-1.57572e-07
-1.87936e-07
-2.13212e-07
-2.40402e-07
-2.61858e-07
-2.85491e-07
-3.03291e-07
-3.22866e-07
-3.37684e-07
-3.52631e-07
-3.64806e-07
-3.74847e-07
3.07429e-07
2.93664e-07
2.77996e-07
2.62223e-07
2.45632e-07
2.26544e-07
2.05078e-07
1.81016e-07
1.55133e-07
1.26753e-07
9.69657e-08
6.4938e-08
3.25371e-08
-1.41032e-09
-3.43677e-08
-6.81607e-08
-9.96888e-08
-1.31607e-07
-1.60373e-07
-1.89385e-07
-2.14832e-07
-2.40458e-07
-2.62532e-07
-2.84517e-07
-3.03368e-07
-3.21507e-07
-3.37239e-07
-3.5148e-07
-3.63812e-07
-3.74221e-07
3.0563e-07
2.92471e-07
2.7736e-07
2.61217e-07
2.43922e-07
2.24319e-07
2.02315e-07
1.77713e-07
1.51149e-07
1.22292e-07
9.19579e-08
5.97604e-08
2.70487e-08
-6.66605e-09
-3.96711e-08
-7.28002e-08
-1.04195e-07
-1.35099e-07
-1.63702e-07
-1.91505e-07
-2.16899e-07
-2.41316e-07
-2.63505e-07
-2.84492e-07
-3.03538e-07
-3.21085e-07
-3.36918e-07
-3.51041e-07
-3.6348e-07
-3.74257e-07
3.04968e-07
2.91587e-07
2.76691e-07
2.60283e-07
2.42272e-07
2.22014e-07
1.99353e-07
1.74173e-07
1.469e-07
1.17524e-07
8.66083e-08
5.4189e-08
2.11599e-08
-1.23855e-08
-4.54114e-08
-7.79743e-08
-1.09149e-07
-1.39202e-07
-1.67462e-07
-1.94309e-07
-2.19354e-07
-2.42901e-07
-2.64805e-07
-2.85167e-07
-3.0401e-07
-3.21258e-07
-3.37008e-07
-3.51144e-07
-3.63757e-07
-3.74867e-07
3.04863e-07
2.91045e-07
2.75986e-07
2.59222e-07
2.40506e-07
2.19514e-07
1.96114e-07
1.70291e-07
1.42301e-07
1.12355e-07
8.08556e-08
4.81473e-08
1.48285e-08
-1.8629e-08
-5.16111e-08
-8.37218e-08
-1.14568e-07
-1.4392e-07
-1.71683e-07
-1.97749e-07
-2.22258e-07
-2.45109e-07
-2.66544e-07
-2.86411e-07
-3.04934e-07
-3.21946e-07
-3.37584e-07
-3.51752e-07
-3.64518e-07
-3.75995e-07
3.04914e-07
2.90698e-07
2.75203e-07
2.57907e-07
2.38465e-07
2.16701e-07
1.92515e-07
1.65979e-07
1.37255e-07
1.06687e-07
7.46063e-08
4.15478e-08
7.9657e-09
-2.54705e-08
-5.83566e-08
-9.00964e-08
-1.2054e-07
-1.4928e-07
-1.7646e-07
-2.01825e-07
-2.25715e-07
-2.4792e-07
-2.68828e-07
-2.88209e-07
-3.06398e-07
-3.23138e-07
-3.38693e-07
-3.52822e-07
-3.65789e-07
-3.77511e-07
3.04875e-07
2.90336e-07
2.74254e-07
2.56272e-07
2.36058e-07
2.13487e-07
1.88473e-07
1.61149e-07
1.31655e-07
1.00409e-07
6.77359e-08
3.42756e-08
4.40315e-10
-3.30212e-08
-6.57827e-08
-9.71953e-08
-1.27198e-07
-1.55362e-07
-1.81914e-07
-2.06601e-07
-2.29826e-07
-2.5139e-07
-2.71732e-07
-2.90617e-07
-3.08434e-07
-3.24893e-07
-3.40324e-07
-3.54418e-07
-3.67523e-07
-3.79502e-07
3.04657e-07
2.8977e-07
2.73052e-07
2.54299e-07
2.3325e-07
2.09809e-07
1.83903e-07
1.55704e-07
1.25373e-07
9.33829e-08
6.00864e-08
2.61776e-08
-7.92012e-09
-4.14368e-08
-7.4063e-08
-1.05161e-07
-1.347e-07
-1.62287e-07
-1.88182e-07
-2.12175e-07
-2.34701e-07
-2.55596e-07
-2.75332e-07
-2.93684e-07
-3.11096e-07
-3.27234e-07
-3.4252e-07
-3.56535e-07
-3.69779e-07
-3.81938e-07
3.04316e-07
2.8896e-07
2.71581e-07
2.52005e-07
2.30036e-07
2.05617e-07
1.78706e-07
1.49516e-07
1.18256e-07
8.54384e-08
5.14646e-08
1.70593e-08
-1.73221e-08
-5.09114e-08
-8.33945e-08
-1.14169e-07
-1.43216e-07
-1.70199e-07
-1.95398e-07
-2.1866e-07
-2.40437e-07
-2.60619e-07
-2.7969e-07
-2.97468e-07
-3.14405e-07
-3.30193e-07
-3.45272e-07
-3.59202e-07
-3.72535e-07
-3.84873e-07
3.04035e-07
2.87991e-07
2.69886e-07
2.49414e-07
2.26394e-07
2.0083e-07
1.72748e-07
1.42417e-07
1.10104e-07
7.636e-08
4.16395e-08
6.68972e-09
-2.79973e-08
-6.16611e-08
-9.39834e-08
-1.244e-07
-1.52915e-07
-1.7924e-07
-2.03689e-07
-2.26157e-07
-2.47127e-07
-2.66527e-07
-2.84865e-07
-3.02001e-07
-3.18393e-07
-3.33779e-07
-3.4858e-07
-3.62406e-07
-3.75773e-07
-3.88318e-07
3.04058e-07
2.87027e-07
2.68012e-07
2.46478e-07
2.22209e-07
1.95279e-07
1.65817e-07
1.34166e-07
1.00657e-07
6.58796e-08
3.03399e-08
-5.1937e-09
-4.01952e-08
-7.39156e-08
-1.06038e-07
-1.3604e-07
-1.63958e-07
-1.89549e-07
-2.13179e-07
-2.34769e-07
-2.54861e-07
-2.73391e-07
-2.90927e-07
-3.07328e-07
-3.23105e-07
-3.37999e-07
-3.52462e-07
-3.66118e-07
-3.7949e-07
-3.92217e-07
3.04503e-07
2.86176e-07
2.65918e-07
2.43011e-07
2.17213e-07
1.88663e-07
1.57597e-07
1.24437e-07
8.9584e-08
5.36686e-08
1.72474e-08
-1.88921e-08
-5.41956e-08
-8.79314e-08
-1.19792e-07
-1.49302e-07
-1.76535e-07
-2.013e-07
-2.24018e-07
-2.44635e-07
-2.63761e-07
-2.81323e-07
-2.97971e-07
-3.1353e-07
-3.28609e-07
-3.42902e-07
-3.56941e-07
-3.70335e-07
-3.83626e-07
-3.96505e-07
3.05134e-07
2.85233e-07
2.63276e-07
2.38586e-07
2.10941e-07
1.80518e-07
1.47636e-07
1.12785e-07
7.6449e-08
3.93023e-08
1.95578e-09
-3.47898e-08
-7.03581e-08
-1.04045e-07
-1.35558e-07
-1.6448e-07
-1.90922e-07
-2.14753e-07
-2.36443e-07
-2.55974e-07
-2.74021e-07
-2.90493e-07
-3.06147e-07
-3.20728e-07
-3.35011e-07
-3.48543e-07
-3.62076e-07
-3.75022e-07
-3.8815e-07
-4.00976e-07
3.05218e-07
2.83477e-07
2.59447e-07
2.32603e-07
2.02798e-07
1.70242e-07
1.35326e-07
9.86062e-08
6.06559e-08
2.21975e-08
-1.60983e-08
-5.34272e-08
-8.91942e-08
-1.22741e-07
-1.53791e-07
-1.82007e-07
-2.07527e-07
-2.30298e-07
-2.5081e-07
-2.69113e-07
-2.8591e-07
-3.01147e-07
-3.15638e-07
-3.29086e-07
-3.42415e-07
-3.55005e-07
-3.67898e-07
-3.80153e-07
-3.92987e-07
-4.05378e-07
3.04327e-07
2.80436e-07
2.53965e-07
2.24563e-07
1.92206e-07
1.57177e-07
1.19947e-07
8.11418e-08
4.14287e-08
1.57959e-09
-3.76724e-08
-7.55305e-08
-1.11386e-07
-1.44649e-07
-1.7507e-07
-2.02416e-07
-2.26848e-07
-2.48409e-07
-2.67571e-07
-2.84472e-07
-2.99796e-07
-3.13598e-07
-3.26685e-07
-3.38817e-07
-3.50944e-07
-3.62387e-07
-3.74397e-07
-3.85686e-07
-3.98012e-07
-4.09418e-07
3.02145e-07
2.75573e-07
2.46183e-07
2.13719e-07
1.78304e-07
1.40354e-07
1.00455e-07
5.93151e-08
1.76913e-08
-2.35972e-08
-6.37616e-08
-1.02023e-07
-1.37775e-07
-1.70517e-07
-2.0005e-07
-2.26277e-07
-2.49402e-07
-2.69581e-07
-2.8723e-07
-3.02561e-07
-3.16169e-07
-3.28281e-07
-3.39647e-07
-3.50216e-07
-3.60795e-07
-3.7082e-07
-3.81519e-07
-3.91514e-07
-4.02946e-07
-4.1271e-07
2.98247e-07
2.68231e-07
2.35082e-07
1.98784e-07
1.59665e-07
1.18284e-07
7.53446e-08
3.16397e-08
-1.19914e-08
-5.46884e-08
-9.56276e-08
-1.34055e-07
-1.6939e-07
-2.0124e-07
-2.29492e-07
-2.54219e-07
-2.75712e-07
-2.94264e-07
-3.10249e-07
-3.23887e-07
-3.35593e-07
-3.45718e-07
-3.54976e-07
-3.63617e-07
-3.72207e-07
-3.80415e-07
-3.89138e-07
-3.97376e-07
-4.0712e-07
-4.14724e-07
2.90849e-07
2.56603e-07
2.18692e-07
1.77642e-07
1.34099e-07
8.87473e-08
4.24077e-08
-4.0308e-09
-4.96694e-08
-9.36216e-08
-1.35055e-07
-1.73252e-07
-2.07688e-07
-2.38092e-07
-2.64474e-07
-2.87095e-07
-3.06401e-07
-3.22857e-07
-3.36875e-07
-3.48671e-07
-3.58388e-07
-3.66262e-07
-3.72981e-07
-3.79138e-07
-3.85219e-07
-3.91054e-07
-3.97076e-07
-4.02782e-07
-4.09715e-07
-4.14715e-07
2.75804e-07
2.3566e-07
1.92178e-07
1.45667e-07
9.69921e-08
4.72528e-08
-2.56207e-09
-5.15556e-08
-9.88422e-08
-1.43537e-07
-1.84828e-07
-2.22061e-07
-2.54827e-07
-2.8299e-07
-3.06698e-07
-3.26355e-07
-3.42568e-07
-3.56006e-07
-3.67246e-07
-3.76617e-07
-3.84183e-07
-3.89754e-07
-3.93658e-07
-3.96591e-07
-3.99338e-07
-4.02209e-07
-4.05121e-07
-4.07357e-07
-4.10256e-07
-4.12258e-07
2.58819e-07
2.12062e-07
1.59165e-07
1.03694e-07
4.7838e-08
-7.35194e-09
-6.12176e-08
-1.13048e-07
-1.61986e-07
-2.07137e-07
-2.47731e-07
-2.83257e-07
-3.13533e-07
-3.38689e-07
-3.59073e-07
-3.7512e-07
-3.87354e-07
-3.964e-07
-4.02962e-07
-4.07835e-07
-4.11839e-07
-4.15112e-07
-4.16719e-07
-4.15933e-07
-4.13672e-07
-4.12478e-07
-4.12757e-07
-4.11477e-07
-4.09139e-07
-4.08307e-07
1.96844e-07
1.39915e-07
8.16279e-08
2.17752e-08
-3.86247e-08
-9.79968e-08
-1.54857e-07
-2.07993e-07
-2.56398e-07
-2.99254e-07
-3.36015e-07
-3.66543e-07
-3.91195e-07
-4.10792e-07
-4.26286e-07
-4.38116e-07
-4.46164e-07
-4.50078e-07
-4.4948e-07
-4.44987e-07
-4.39546e-07
-4.37876e-07
-4.3904e-07
-4.36389e-07
-4.27603e-07
-4.19055e-07
-4.16233e-07
-4.17406e-07
-4.18107e-07
-4.14954e-07
1.67165e-07
9.7367e-08
2.19109e-08
-5.23327e-08
-1.22234e-07
-1.872e-07
-2.47089e-07
-3.013e-07
-3.48854e-07
-3.88811e-07
-4.20606e-07
-4.44318e-07
-4.60777e-07
-4.71687e-07
-4.79497e-07
-4.87251e-07
-4.96731e-07
-5.04303e-07
-5.02729e-07
-4.88239e-07
-4.65045e-07
-4.44715e-07
-4.35963e-07
-4.36455e-07
-4.37133e-07
-4.34622e-07
-4.30171e-07
-4.25415e-07
-4.22114e-07
-4.20418e-07
-7.31606e-08
-1.50668e-07
-2.28746e-07
-3.05506e-07
-3.76498e-07
-4.38404e-07
-4.89539e-07
-5.29112e-07
-5.56692e-07
-5.72203e-07
-5.76169e-07
-5.69987e-07
-5.55982e-07
-5.37593e-07
-5.19093e-07
-5.05119e-07
-4.98395e-07
-4.99007e-07
-5.02657e-07
-5.02993e-07
-4.96894e-07
-4.86743e-07
-4.7397e-07
-4.60248e-07
-4.48163e-07
-4.39816e-07
-4.34583e-07
-4.30951e-07
-4.28361e-07
-4.267e-07
3.18034e-07
3.18659e-07
3.19974e-07
3.21865e-07
3.23858e-07
3.25352e-07
3.26216e-07
3.26445e-07
3.2548e-07
3.21486e-07
3.12384e-07
2.96946e-07
2.52868e-07
2.22482e-07
8.5481e-09
-1.48134e-07
-2.25134e-07
-3.00671e-07
-3.70244e-07
-4.3051e-07
-4.79783e-07
-5.17291e-07
-5.42644e-07
-5.5583e-07
-5.57462e-07
-5.49056e-07
-5.33086e-07
-5.13184e-07
-4.93816e-07
-4.7973e-07
-4.73492e-07
-4.74764e-07
-4.78514e-07
-4.78143e-07
-4.71336e-07
-4.60449e-07
-4.47035e-07
-4.32997e-07
-4.21056e-07
-4.13066e-07
-4.0812e-07
-4.04784e-07
-4.02675e-07
-4.01704e-07
1.01246e-07
2.65895e-08
-4.67813e-08
-1.15706e-07
-1.79548e-07
-2.38139e-07
-2.90882e-07
-3.3682e-07
-3.75049e-07
-4.05061e-07
-4.27014e-07
-4.41846e-07
-4.51393e-07
-4.58244e-07
-4.6552e-07
-4.74659e-07
-4.81333e-07
-4.77951e-07
-4.61347e-07
-4.37051e-07
-4.17513e-07
-4.10203e-07
-4.11228e-07
-4.11296e-07
-4.0794e-07
-4.02909e-07
-3.98069e-07
-3.95049e-07
-3.93827e-07
1.44527e-07
8.67986e-08
2.75766e-08
-3.20655e-08
-9.05359e-08
-1.46356e-07
-1.98326e-07
-2.45454e-07
-2.8695e-07
-3.22302e-07
-3.51425e-07
-3.74739e-07
-3.93126e-07
-4.07558e-07
-4.18402e-07
-4.25487e-07
-4.28363e-07
-4.26674e-07
-4.21247e-07
-4.15442e-07
-4.1383e-07
-4.14324e-07
-4.09979e-07
-3.9973e-07
-3.90963e-07
-3.8836e-07
-3.88911e-07
-3.88429e-07
-3.85292e-07
2.1682e-07
1.64391e-07
1.09503e-07
5.43196e-08
-1.12808e-10
-5.31293e-08
-1.04014e-07
-1.51915e-07
-1.95952e-07
-2.3538e-07
-2.69718e-07
-2.98819e-07
-3.22844e-07
-3.4216e-07
-3.57204e-07
-3.68504e-07
-3.76682e-07
-3.82444e-07
-3.86585e-07
-3.89863e-07
-3.92236e-07
-3.9266e-07
-3.90527e-07
-3.87095e-07
-3.84968e-07
-3.8384e-07
-3.80961e-07
-3.77971e-07
-3.77466e-07
2.40813e-07
1.97747e-07
1.51668e-07
1.03502e-07
5.43725e-08
5.26267e-09
-4.2938e-08
-8.93538e-08
-1.33113e-07
-1.73418e-07
-2.09636e-07
-2.41382e-07
-2.68542e-07
-2.91289e-07
-3.10045e-07
-3.25433e-07
-3.38111e-07
-3.48621e-07
-3.57228e-07
-3.63923e-07
-3.68507e-07
-3.7136e-07
-3.73197e-07
-3.74785e-07
-3.76403e-07
-3.77901e-07
-3.78845e-07
-3.80716e-07
-3.82097e-07
2.61699e-07
2.2419e-07
1.83577e-07
1.40497e-07
9.56632e-08
4.99171e-08
4.15125e-09
-4.07447e-08
-8.38967e-08
-1.24486e-07
-1.61809e-07
-1.95363e-07
-2.24895e-07
-2.5044e-07
-2.72276e-07
-2.90854e-07
-3.06628e-07
-3.19973e-07
-3.31068e-07
-3.40024e-07
-3.47111e-07
-3.53016e-07
-3.58341e-07
-3.63484e-07
-3.68366e-07
-3.73383e-07
-3.78301e-07
-3.84442e-07
-3.89168e-07
2.73372e-07
2.40581e-07
2.04658e-07
1.65944e-07
1.25016e-07
8.25891e-08
3.94619e-08
-3.53222e-09
-4.55442e-08
-8.57601e-08
-1.23442e-07
-1.58021e-07
-1.8913e-07
-2.16667e-07
-2.40728e-07
-2.61597e-07
-2.79575e-07
-2.94997e-07
-3.08097e-07
-3.19253e-07
-3.28871e-07
-3.37608e-07
-3.45791e-07
-3.53875e-07
-3.61718e-07
-3.70085e-07
-3.78284e-07
-3.88011e-07
-3.95922e-07
2.80632e-07
2.5158e-07
2.19468e-07
1.84423e-07
1.46877e-07
1.07433e-07
6.67972e-08
2.57263e-08
-1.49724e-08
-5.4516e-08
-9.21437e-08
-1.27254e-07
-1.59376e-07
-1.8831e-07
-2.13993e-07
-2.36613e-07
-2.56355e-07
-2.73598e-07
-2.88598e-07
-3.01902e-07
-3.13815e-07
-3.25012e-07
-3.35566e-07
-3.46187e-07
-3.56519e-07
-3.67668e-07
-3.78479e-07
-3.90923e-07
-4.01765e-07
2.85397e-07
2.59243e-07
2.30171e-07
1.98156e-07
1.63495e-07
1.2667e-07
8.83108e-08
4.90801e-08
9.73937e-09
-2.89822e-08
-6.63057e-08
-1.01626e-07
-1.34382e-07
-1.64322e-07
-1.91249e-07
-2.15312e-07
-2.36592e-07
-2.55533e-07
-2.72326e-07
-2.87617e-07
-3.01538e-07
-3.14853e-07
-3.27432e-07
-3.40203e-07
-3.52609e-07
-3.65913e-07
-3.78864e-07
-3.93255e-07
-4.06706e-07
2.88345e-07
2.64601e-07
2.38058e-07
2.08569e-07
1.76352e-07
1.41802e-07
1.0548e-07
6.79522e-08
2.99335e-08
-7.91245e-09
-4.47946e-08
-8.01261e-08
-1.1327e-07
-1.43959e-07
-1.71882e-07
-1.97182e-07
-2.19834e-07
-2.40328e-07
-2.58749e-07
-2.75803e-07
-2.91477e-07
-3.06616e-07
-3.20969e-07
-3.35536e-07
-3.49716e-07
-3.64685e-07
-3.79417e-07
-3.95256e-07
-4.10707e-07
2.89997e-07
2.68308e-07
2.439e-07
2.16546e-07
1.8643e-07
1.53877e-07
1.19381e-07
8.34149e-08
4.6648e-08
9.67745e-09
-2.67005e-08
-6.1928e-08
-9.53106e-08
-1.26581e-07
-1.55334e-07
-1.8171e-07
-2.05585e-07
-2.27467e-07
-2.47341e-07
-2.65938e-07
-2.83168e-07
-2.99881e-07
-3.15813e-07
-3.31884e-07
-3.47602e-07
-3.63896e-07
-3.80071e-07
-3.96994e-07
-4.13787e-07
2.90784e-07
2.70817e-07
2.48191e-07
2.22659e-07
1.94386e-07
1.63615e-07
1.30772e-07
9.62415e-08
6.06524e-08
2.45389e-08
-1.13053e-08
-4.63583e-08
-7.98829e-08
-1.11617e-07
-1.41079e-07
-1.68399e-07
-1.93371e-07
-2.16488e-07
-2.37673e-07
-2.57636e-07
-2.7627e-07
-2.94366e-07
-3.11706e-07
-3.29068e-07
-3.46093e-07
-3.63482e-07
-3.80751e-07
-3.98488e-07
-4.16053e-07
2.91505e-07
2.72774e-07
2.51511e-07
2.27492e-07
2.00817e-07
1.71622e-07
1.40257e-07
1.07027e-07
7.25288e-08
3.72344e-08
1.92918e-09
-3.29067e-08
-6.65049e-08
-9.86144e-08
-1.28687e-07
-1.56842e-07
-1.828e-07
-2.07032e-07
-2.29411e-07
-2.50614e-07
-2.70521e-07
-2.89865e-07
-3.08444e-07
-3.2695e-07
-3.45055e-07
-3.63372e-07
-3.81423e-07
-3.99771e-07
-4.17719e-07
2.92348e-07
2.74513e-07
2.54297e-07
2.31515e-07
2.0619e-07
1.78354e-07
1.48281e-07
1.16211e-07
8.27021e-08
4.81709e-08
1.33873e-08
-2.12126e-08
-5.48393e-08
-8.72561e-08
-1.17859e-07
-1.46756e-07
-1.73605e-07
-1.98853e-07
-2.22324e-07
-2.44667e-07
-2.6573e-07
-2.86211e-07
-3.05881e-07
-3.254e-07
-3.44399e-07
-3.63484e-07
-3.82103e-07
-4.00869e-07
-4.19007e-07
2.93205e-07
2.76082e-07
2.56748e-07
2.35003e-07
2.1081e-07
1.84128e-07
1.55172e-07
1.24123e-07
9.14992e-08
5.76657e-08
2.33678e-08
-1.09976e-08
-4.46317e-08
-7.73098e-08
-1.08383e-07
-1.37951e-07
-1.65611e-07
-1.91795e-07
-2.16267e-07
-2.39663e-07
-2.61773e-07
-2.83291e-07
-3.0392e-07
-3.24331e-07
-3.44065e-07
-3.63776e-07
-3.82797e-07
-4.01839e-07
-4.20025e-07
2.93906e-07
2.77435e-07
2.58912e-07
2.38077e-07
2.14849e-07
1.89156e-07
1.61167e-07
1.31022e-07
9.9186e-08
6.59877e-08
3.21293e-08
-2.01482e-09
-3.56572e-08
-6.8569e-08
-1.00077e-07
-1.30264e-07
-1.58679e-07
-1.85731e-07
-2.11133e-07
-2.35502e-07
-2.58573e-07
-2.81028e-07
-3.02511e-07
-3.23687e-07
-3.44046e-07
-3.64225e-07
-3.8355e-07
-4.02693e-07
-4.20858e-07
2.94366e-07
2.78526e-07
2.60765e-07
2.40757e-07
2.18384e-07
1.93574e-07
1.66437e-07
1.37105e-07
1.05975e-07
7.33653e-08
3.98994e-08
5.96403e-09
-2.7704e-08
-6.08308e-08
-9.27649e-08
-1.23528e-07
-1.5267e-07
-1.80535e-07
-2.06823e-07
-2.3209e-07
-2.56063e-07
-2.79355e-07
-3.01622e-07
-3.23435e-07
-3.44339e-07
-3.6484e-07
-3.84387e-07
-4.03469e-07
-4.21516e-07
2.9462e-07
2.79366e-07
2.62285e-07
2.43044e-07
2.21466e-07
1.97475e-07
1.71105e-07
1.42525e-07
1.12037e-07
7.99899e-08
4.68704e-08
1.31429e-08
-2.0581e-08
-5.39009e-08
-8.62744e-08
-1.17578e-07
-1.47444e-07
-1.76073e-07
-2.03226e-07
-2.29331e-07
-2.54161e-07
-2.78214e-07
-3.01199e-07
-3.23558e-07
-3.44922e-07
-3.65641e-07
-3.85302e-07
-4.0421e-07
-4.2197e-07
2.94859e-07
2.80044e-07
2.6349e-07
2.44969e-07
2.24156e-07
2.00945e-07
1.7527e-07
1.47408e-07
1.17508e-07
8.60179e-08
5.31955e-08
1.96925e-08
-1.41332e-08
-4.76072e-08
-8.04644e-08
-1.12254e-07
-1.4288e-07
-1.72208e-07
-2.00244e-07
-2.27115e-07
-2.52792e-07
-2.7753e-07
-3.01191e-07
-3.24013e-07
-3.45775e-07
-3.66609e-07
-3.8631e-07
-4.04892e-07
-4.22265e-07
2.95297e-07
2.80646e-07
2.64442e-07
2.46622e-07
2.26542e-07
2.04067e-07
1.79018e-07
1.51859e-07
1.225e-07
9.15725e-08
5.89907e-08
2.57427e-08
-8.248e-09
-4.18159e-08
-7.52369e-08
-1.07424e-07
-1.38901e-07
-1.68818e-07
-1.97816e-07
-2.25337e-07
-2.51903e-07
-2.77228e-07
-3.01547e-07
-3.24772e-07
-3.46849e-07
-3.67771e-07
-3.87368e-07
-4.05595e-07
-4.22362e-07
2.96083e-07
2.81215e-07
2.65267e-07
2.48164e-07
2.28744e-07
2.0692e-07
1.82439e-07
1.55974e-07
1.27114e-07
9.67463e-08
6.43454e-08
3.13808e-08
-2.84857e-09
-3.64423e-08
-7.05353e-08
-1.03002e-07
-1.35479e-07
-1.65807e-07
-1.95948e-07
-2.23889e-07
-2.51525e-07
-2.77194e-07
-3.02298e-07
-3.25744e-07
-3.4817e-07
-3.69096e-07
-3.88548e-07
-4.06344e-07
-4.22461e-07
2.97184e-07
2.81739e-07
2.66164e-07
2.49773e-07
2.30875e-07
2.09584e-07
1.85636e-07
1.59839e-07
1.31444e-07
1.01599e-07
6.93386e-08
3.66466e-08
2.12992e-09
-3.14691e-08
-6.63145e-08
-9.89786e-08
-1.326e-07
-1.63155e-07
-1.94681e-07
-2.22715e-07
-2.5177e-07
-2.77314e-07
-3.03608e-07
-3.26767e-07
-3.4986e-07
-3.70515e-07
-3.89933e-07
-4.07332e-07
-4.22698e-07
2.98449e-07
2.82337e-07
2.67422e-07
2.51585e-07
2.3302e-07
2.12139e-07
1.88728e-07
1.63527e-07
1.35585e-07
1.06164e-07
7.40529e-08
4.15356e-08
6.75843e-09
-2.69466e-08
-6.25131e-08
-9.54481e-08
-1.30212e-07
-1.60981e-07
-1.9399e-07
-2.21908e-07
-2.52699e-07
-2.77592e-07
-3.0574e-07
-3.27659e-07
-3.52348e-07
-3.71723e-07
-3.91797e-07
-4.0865e-07
-4.23264e-07
2.99807e-07
2.8318e-07
2.69238e-07
2.53649e-07
2.35244e-07
2.14679e-07
1.91832e-07
1.67104e-07
1.39624e-07
1.10466e-07
7.85666e-08
4.60245e-08
1.11046e-08
-2.29569e-08
-5.90584e-08
-9.25704e-08
-1.28213e-07
-1.59525e-07
-1.93737e-07
-2.21784e-07
-2.54162e-07
-2.78305e-07
-3.08696e-07
-3.28461e-07
-3.56277e-07
-3.72195e-07
-3.95465e-07
-4.09752e-07
-4.25026e-07
3.01268e-07
2.84717e-07
2.71653e-07
2.55957e-07
2.37624e-07
2.17309e-07
1.95037e-07
1.70617e-07
1.43615e-07
1.14528e-07
8.29237e-08
5.00987e-08
1.5198e-08
-1.95612e-08
-5.59106e-08
-9.04703e-08
-1.26514e-07
-1.59004e-07
-1.93724e-07
-2.2276e-07
-2.55812e-07
-2.80188e-07
-3.11911e-07
-3.30134e-07
-3.61295e-07
-3.72344e-07
-4.02213e-07
-4.09395e-07
-4.28995e-07
3.02943e-07
2.872e-07
2.74611e-07
2.58653e-07
2.40421e-07
2.20294e-07
1.98515e-07
1.74223e-07
1.47654e-07
1.1845e-07
8.71526e-08
5.38045e-08
1.90144e-08
-1.67551e-08
-5.31225e-08
-8.91681e-08
-1.25164e-07
-1.59462e-07
-1.93866e-07
-2.2494e-07
-2.57394e-07
-2.83639e-07
-3.14642e-07
-3.33932e-07
-3.6598e-07
-3.74106e-07
-4.11964e-07
-4.04526e-07
-4.42365e-07
3.05479e-07
2.90595e-07
2.76866e-07
2.60361e-07
2.42923e-07
2.23318e-07
2.02106e-07
1.77861e-07
1.51699e-07
1.22254e-07
9.12164e-08
5.71798e-08
2.2459e-08
-1.45022e-08
-5.08798e-08
-8.85865e-08
-1.24494e-07
-1.60818e-07
-1.94542e-07
-2.27811e-07
-2.58932e-07
-2.88206e-07
-3.16416e-07
-3.39848e-07
-3.68408e-07
-3.79999e-07
-4.20487e-07
-3.99802e-07
-4.7075e-07
3.09514e-07
2.9671e-07
2.8245e-07
2.65248e-07
2.47201e-07
2.27418e-07
2.06375e-07
1.82085e-07
1.56078e-07
1.26315e-07
9.52507e-08
6.04657e-08
2.55149e-08
-1.26607e-08
-4.92986e-08
-8.85581e-08
-1.24626e-07
-1.63149e-07
-1.9647e-07
-2.32591e-07
-2.61621e-07
-2.94027e-07
-3.18921e-07
-3.46714e-07
-3.69193e-07
-3.9043e-07
-4.21286e-07
-4.0554e-07
-5.10016e-07
3.11918e-07
2.98086e-07
2.83333e-07
2.66634e-07
2.49578e-07
2.30316e-07
2.09615e-07
1.85379e-07
1.595e-07
1.29506e-07
9.83416e-08
6.29979e-08
2.76823e-08
-1.13971e-08
-4.86567e-08
-8.8939e-08
-1.25411e-07
-1.64556e-07
-1.98322e-07
-2.34914e-07
-2.64183e-07
-2.97828e-07
-3.21155e-07
-3.51844e-07
-3.68342e-07
-3.95769e-07
-4.1228e-07
-4.20995e-07
-5.72147e-07
3.30277e-07
3.0946e-07
2.9211e-07
2.74722e-07
2.57257e-07
2.37699e-07
2.16855e-07
1.92435e-07
1.66206e-07
1.35592e-07
1.0358e-07
6.70721e-08
3.04391e-08
-1.01661e-08
-4.89002e-08
-9.09909e-08
-1.28992e-07
-1.70053e-07
-2.04863e-07
-2.4293e-07
-2.72977e-07
-3.06997e-07
-3.31123e-07
-3.61365e-07
-3.77444e-07
-4.08079e-07
-4.11536e-07
-4.48672e-07
-5.52589e-07
-4.25747e-07
-4.20341e-07
-4.16488e-07
-4.18568e-07
-4.22338e-07
-4.26113e-07
-4.26685e-07
-4.25195e-07
-4.22437e-07
-4.18834e-07
-4.14579e-07
-4.10016e-07
-4.05512e-07
-4.0126e-07
-3.97455e-07
-3.94081e-07
-3.91138e-07
-3.88662e-07
-3.86508e-07
-3.84844e-07
-3.83538e-07
-3.82807e-07
-3.82986e-07
-3.84463e-07
-3.88723e-07
-3.9553e-07
-4.03902e-07
-4.00791e-07
-3.70508e-07
-3.00824e-07
-4.25181e-07
-4.20719e-07
-4.16929e-07
-4.17787e-07
-4.23347e-07
-4.30624e-07
-4.35112e-07
-4.36644e-07
-4.36058e-07
-4.33805e-07
-4.30324e-07
-4.25964e-07
-4.21344e-07
-4.16809e-07
-4.12511e-07
-4.08689e-07
-4.05135e-07
-4.02018e-07
-3.99196e-07
-3.96589e-07
-3.94488e-07
-3.92399e-07
-3.91143e-07
-3.89777e-07
-3.88584e-07
-3.85883e-07
-3.80191e-07
-3.71676e-07
-3.592e-07
-3.49402e-07
-4.24559e-07
-4.21281e-07
-4.18922e-07
-4.20513e-07
-4.25673e-07
-4.33106e-07
-4.40589e-07
-4.45697e-07
-4.48262e-07
-4.48523e-07
-4.46881e-07
-4.43749e-07
-4.39476e-07
-4.3485e-07
-4.30028e-07
-4.25461e-07
-4.21268e-07
-4.17237e-07
-4.13796e-07
-4.10252e-07
-4.07201e-07
-4.03923e-07
-4.00614e-07
-3.96903e-07
-3.91943e-07
-3.86554e-07
-3.79559e-07
-3.74005e-07
-3.65774e-07
-3.55289e-07
-4.23777e-07
-4.21653e-07
-4.20952e-07
-4.23531e-07
-4.29093e-07
-4.36357e-07
-4.44756e-07
-4.52401e-07
-4.57866e-07
-4.61009e-07
-4.618e-07
-4.60762e-07
-4.58056e-07
-4.54176e-07
-4.49667e-07
-4.4455e-07
-4.39705e-07
-4.34697e-07
-4.3016e-07
-4.25757e-07
-4.2142e-07
-4.17402e-07
-4.12703e-07
-4.08312e-07
-4.02777e-07
-3.97875e-07
-3.92173e-07
-3.86981e-07
-3.80468e-07
-3.73159e-07
-4.22637e-07
-4.21654e-07
-4.22656e-07
-4.26554e-07
-4.3275e-07
-4.40326e-07
-4.48719e-07
-4.57301e-07
-4.64821e-07
-4.70394e-07
-4.73788e-07
-4.74946e-07
-4.74491e-07
-4.72151e-07
-4.68979e-07
-4.64603e-07
-4.59914e-07
-4.54794e-07
-4.4946e-07
-4.44361e-07
-4.38914e-07
-4.34067e-07
-4.2866e-07
-4.23863e-07
-4.18608e-07
-4.13757e-07
-4.08517e-07
-4.03172e-07
-3.97535e-07
-3.91876e-07
-4.20917e-07
-4.2104e-07
-4.23655e-07
-4.28998e-07
-4.36148e-07
-4.44293e-07
-4.52872e-07
-4.61505e-07
-4.69845e-07
-4.76969e-07
-4.82486e-07
-4.85834e-07
-4.87591e-07
-4.87206e-07
-4.85721e-07
-4.82853e-07
-4.79187e-07
-4.74914e-07
-4.70049e-07
-4.65136e-07
-4.59793e-07
-4.54662e-07
-4.49259e-07
-4.44099e-07
-4.38779e-07
-4.33499e-07
-4.27887e-07
-4.21959e-07
-4.15562e-07
-4.09176e-07
-4.184e-07
-4.19556e-07
-4.236e-07
-4.30324e-07
-4.38571e-07
-4.47548e-07
-4.56713e-07
-4.65642e-07
-4.74017e-07
-4.82017e-07
-4.88381e-07
-4.93773e-07
-4.97172e-07
-4.98877e-07
-4.99137e-07
-4.9797e-07
-4.95708e-07
-4.92613e-07
-4.88787e-07
-4.84627e-07
-4.80069e-07
-4.75484e-07
-4.70716e-07
-4.66023e-07
-4.61159e-07
-4.5627e-07
-4.51018e-07
-4.45538e-07
-4.39561e-07
-4.33564e-07
-4.14905e-07
-4.16987e-07
-4.22226e-07
-4.30128e-07
-4.39458e-07
-4.49378e-07
-4.59348e-07
-4.69009e-07
-4.77978e-07
-4.86332e-07
-4.92953e-07
-4.99626e-07
-5.03853e-07
-5.07356e-07
-5.09095e-07
-5.09618e-07
-5.0882e-07
-5.07087e-07
-5.04423e-07
-5.01239e-07
-4.97514e-07
-4.93617e-07
-4.89473e-07
-4.85361e-07
-4.81185e-07
-4.77144e-07
-4.73212e-07
-4.69511e-07
-4.66172e-07
-4.63168e-07
-4.10343e-07
-4.13235e-07
-4.19412e-07
-4.28237e-07
-4.38476e-07
-4.49303e-07
-4.60136e-07
-4.70606e-07
-4.80279e-07
-4.89363e-07
-4.96773e-07
-5.03892e-07
-5.08976e-07
-5.13533e-07
-5.16355e-07
-5.18165e-07
-5.18683e-07
-5.18192e-07
-5.16748e-07
-5.14526e-07
-5.1174e-07
-5.08468e-07
-5.05003e-07
-5.01312e-07
-4.97757e-07
-4.94196e-07
-4.91114e-07
-4.88245e-07
-4.86206e-07
-4.84426e-07
-4.04824e-07
-4.08333e-07
-4.15192e-07
-4.24663e-07
-4.35601e-07
-4.47184e-07
-4.58817e-07
-4.70075e-07
-4.80613e-07
-4.90433e-07
-4.98816e-07
-5.06559e-07
-5.12737e-07
-5.17978e-07
-5.21819e-07
-5.24592e-07
-5.26211e-07
-5.26692e-07
-5.26366e-07
-5.24941e-07
-5.23157e-07
-5.20402e-07
-5.17715e-07
-5.14263e-07
-5.11228e-07
-5.07652e-07
-5.04762e-07
-5.01481e-07
-4.99045e-07
-4.96244e-07
-3.98635e-07
-4.02555e-07
-4.09844e-07
-4.19693e-07
-4.31074e-07
-4.43186e-07
-4.55441e-07
-4.67396e-07
-4.78732e-07
-4.89264e-07
-4.98718e-07
-5.07176e-07
-5.14427e-07
-5.20561e-07
-5.25472e-07
-5.29246e-07
-5.31916e-07
-5.3345e-07
-5.3412e-07
-5.33642e-07
-5.32697e-07
-5.30645e-07
-5.28602e-07
-5.2547e-07
-5.22812e-07
-5.1911e-07
-5.16271e-07
-5.12371e-07
-5.09665e-07
-5.05637e-07
-3.92274e-07
-3.96412e-07
-4.03899e-07
-4.13884e-07
-4.25452e-07
-4.37842e-07
-4.50484e-07
-4.62944e-07
-4.74902e-07
-4.86128e-07
-4.96442e-07
-5.05767e-07
-5.14012e-07
-5.21159e-07
-5.27176e-07
-5.32077e-07
-5.35883e-07
-5.38617e-07
-5.4037e-07
-5.41151e-07
-5.41134e-07
-5.40171e-07
-5.38872e-07
-5.36524e-07
-5.34262e-07
-5.31087e-07
-5.28368e-07
-5.2455e-07
-5.22169e-07
-5.16957e-07
-3.86401e-07
-3.90595e-07
-3.98091e-07
-4.08023e-07
-4.1957e-07
-4.32016e-07
-4.44823e-07
-4.57573e-07
-4.69955e-07
-4.81736e-07
-4.92747e-07
-5.0288e-07
-5.12056e-07
-5.20247e-07
-5.27411e-07
-5.33539e-07
-5.38638e-07
-5.42727e-07
-5.45839e-07
-5.48008e-07
-5.49295e-07
-5.49731e-07
-5.494e-07
-5.48335e-07
-5.46667e-07
-5.44429e-07
-5.41838e-07
-5.38859e-07
-5.35533e-07
-5.30764e-07
-3.81726e-07
-3.85857e-07
-3.93241e-07
-4.03013e-07
-4.14424e-07
-4.26799e-07
-4.39634e-07
-4.52536e-07
-4.65208e-07
-4.7743e-07
-4.89041e-07
-4.99925e-07
-5.09968e-07
-5.19201e-07
-5.27543e-07
-5.34987e-07
-5.41531e-07
-5.47182e-07
-5.51953e-07
-5.55868e-07
-5.5896e-07
-5.61274e-07
-5.62676e-07
-5.63366e-07
-5.634e-07
-5.62798e-07
-5.61522e-07
-5.59447e-07
-5.56684e-07
-5.53846e-07
-3.78844e-07
-3.82846e-07
-3.90069e-07
-3.99667e-07
-4.10928e-07
-4.23206e-07
-4.36025e-07
-4.49013e-07
-4.61893e-07
-4.74462e-07
-4.8658e-07
-4.98154e-07
-5.09148e-07
-5.1945e-07
-5.29091e-07
-5.38046e-07
-5.46303e-07
-5.53854e-07
-5.60697e-07
-5.66824e-07
-5.72226e-07
-5.76887e-07
-5.80982e-07
-5.84355e-07
-5.87015e-07
-5.88936e-07
-5.90067e-07
-5.90393e-07
-5.9003e-07
-5.89242e-07
-3.78109e-07
-3.81967e-07
-3.8906e-07
-3.98575e-07
-4.0981e-07
-4.22132e-07
-4.3508e-07
-4.48297e-07
-4.61522e-07
-4.74571e-07
-4.8732e-07
-4.9969e-07
-5.11633e-07
-5.23113e-07
-5.34132e-07
-5.44687e-07
-5.54774e-07
-5.64383e-07
-5.73502e-07
-5.82111e-07
-5.90188e-07
-5.97709e-07
-6.04654e-07
-6.10969e-07
-6.16589e-07
-6.21443e-07
-6.25475e-07
-6.28681e-07
-6.31139e-07
-6.32883e-07
-3.79489e-07
-3.83194e-07
-3.90191e-07
-3.99717e-07
-4.11042e-07
-4.23532e-07
-4.36721e-07
-4.50256e-07
-4.63884e-07
-4.77434e-07
-4.90797e-07
-5.03911e-07
-5.16745e-07
-5.29288e-07
-5.41541e-07
-5.53506e-07
-5.65181e-07
-5.76551e-07
-5.87593e-07
-5.98269e-07
-6.08531e-07
-6.18314e-07
-6.27548e-07
-6.36144e-07
-6.44019e-07
-6.51063e-07
-6.57178e-07
-6.62217e-07
-6.66209e-07
-6.6901e-07
-3.82605e-07
-3.86122e-07
-3.93012e-07
-4.0257e-07
-4.14006e-07
-4.26664e-07
-4.40066e-07
-4.53855e-07
-4.67785e-07
-4.81697e-07