/*--------------------------------*- C++ -*----------------------------------*\
| =========                 |                                                 |
| \\      /  F ield         | OpenFOAM: The Open Source CFD Toolbox           |
|  \\    /   O peration     | Version:  2312                                  |
|   \\  /    A nd           | Website:  www.openfoam.com                      |
|    \\/     M anipulation  |                                                 |
\*---------------------------------------------------------------------------*/
FoamFile
{
    version     2.0;
    format      ascii;
    arch        "LSB;label=32;scalar=64";
    class       volScalarField;
    location    "76000";
    object      p;
}
// * * * * * * * * * * * * * * * * * * * * * * * * * * * * * * * * * * * * * //

dimensions      [0 2 -2 0 0 0 0];

internalField   nonuniform List<scalar> 
10800
(
4.95227e-07
4.81104e-07
4.67337e-07
4.5676e-07
4.49338e-07
4.43947e-07
4.39497e-07
4.35418e-07
4.31543e-07
4.27879e-07
4.24463e-07
4.213e-07
4.18355e-07
4.15579e-07
4.12925e-07
4.1036e-07
4.07863e-07
4.0542e-07
4.0302e-07
4.00656e-07
3.98318e-07
3.95998e-07
3.9369e-07
3.91389e-07
3.8909e-07
3.86789e-07
3.84484e-07
3.82171e-07
3.79849e-07
3.77516e-07
3.7517e-07
3.72812e-07
3.7044e-07
3.68054e-07
3.65654e-07
3.63239e-07
3.60811e-07
3.58369e-07
3.55914e-07
3.53446e-07
3.50966e-07
3.48474e-07
3.4597e-07
3.43455e-07
3.40928e-07
3.38388e-07
3.35836e-07
3.33267e-07
3.30687e-07
3.28079e-07
3.25466e-07
3.22795e-07
3.20148e-07
3.17353e-07
3.14712e-07
3.11586e-07
3.09236e-07
3.04836e-07
3.04536e-07
2.93944e-07
4.47183e-07
4.45456e-07
4.42811e-07
4.39685e-07
4.3647e-07
4.33376e-07
4.30453e-07
4.27666e-07
4.24965e-07
4.22319e-07
4.19722e-07
4.1718e-07
4.14698e-07
4.12278e-07
4.09913e-07
4.07593e-07
4.05309e-07
4.03054e-07
4.00821e-07
3.98606e-07
3.96404e-07
3.94211e-07
3.92024e-07
3.89839e-07
3.87654e-07
3.85465e-07
3.83271e-07
3.81069e-07
3.78858e-07
3.76637e-07
3.74404e-07
3.72159e-07
3.69902e-07
3.67631e-07
3.65348e-07
3.6305e-07
3.60741e-07
3.58415e-07
3.5608e-07
3.53728e-07
3.51369e-07
3.48989e-07
3.46608e-07
3.44201e-07
3.41799e-07
3.39362e-07
3.36945e-07
3.34474e-07
3.32048e-07
3.2954e-07
3.27126e-07
3.24583e-07
3.22235e-07
3.19674e-07
3.17526e-07
3.15016e-07
3.13404e-07
3.11024e-07
3.10555e-07
3.07889e-07
4.38441e-07
4.3769e-07
4.36277e-07
4.34325e-07
4.32041e-07
4.29621e-07
4.27191e-07
4.24802e-07
4.22456e-07
4.20142e-07
4.17849e-07
4.15577e-07
4.13333e-07
4.11119e-07
4.0894e-07
4.06792e-07
4.04671e-07
4.02573e-07
4.00492e-07
3.98426e-07
3.9637e-07
3.94323e-07
3.9228e-07
3.90241e-07
3.88202e-07
3.86161e-07
3.84117e-07
3.82068e-07
3.80013e-07
3.7795e-07
3.7588e-07
3.73799e-07
3.7171e-07
3.6961e-07
3.675e-07
3.65378e-07
3.63247e-07
3.61103e-07
3.58951e-07
3.56784e-07
3.54611e-07
3.52421e-07
3.50229e-07
3.48015e-07
3.45804e-07
3.43566e-07
3.4134e-07
3.39079e-07
3.36844e-07
3.34561e-07
3.32329e-07
3.30031e-07
3.27824e-07
3.25521e-07
3.23374e-07
3.21079e-07
3.19044e-07
3.16763e-07
3.14881e-07
3.1252e-07
4.26704e-07
4.26271e-07
4.25485e-07
4.24395e-07
4.2307e-07
4.21582e-07
4.19988e-07
4.18327e-07
4.1662e-07
4.14878e-07
4.13107e-07
4.11314e-07
4.09503e-07
4.07681e-07
4.05854e-07
4.04024e-07
4.02192e-07
4.0036e-07
3.98526e-07
3.9669e-07
3.94852e-07
3.93011e-07
3.91166e-07
3.89317e-07
3.87464e-07
3.85605e-07
3.8374e-07
3.81868e-07
3.7999e-07
3.78104e-07
3.76211e-07
3.74309e-07
3.724e-07
3.70483e-07
3.68558e-07
3.66624e-07
3.64683e-07
3.62732e-07
3.60775e-07
3.58808e-07
3.56834e-07
3.54849e-07
3.52858e-07
3.50854e-07
3.48845e-07
3.46819e-07
3.44786e-07
3.42733e-07
3.40673e-07
3.38585e-07
3.36491e-07
3.34359e-07
3.32224e-07
3.3004e-07
3.27858e-07
3.25615e-07
3.23381e-07
3.21069e-07
3.18783e-07
3.16416e-07
4.20001e-07
4.19787e-07
4.19356e-07
4.18711e-07
4.17867e-07
4.16854e-07
4.15703e-07
4.14446e-07
4.13108e-07
4.11704e-07
4.10248e-07
4.08749e-07
4.07213e-07
4.05647e-07
4.04058e-07
4.0245e-07
4.00826e-07
3.99189e-07
3.97542e-07
3.95885e-07
3.9422e-07
3.92548e-07
3.90868e-07
3.89181e-07
3.87489e-07
3.8579e-07
3.84086e-07
3.82376e-07
3.8066e-07
3.78939e-07
3.77214e-07
3.75483e-07
3.73748e-07
3.72008e-07
3.70264e-07
3.68516e-07
3.66764e-07
3.65008e-07
3.63249e-07
3.61486e-07
3.59719e-07
3.57948e-07
3.56173e-07
3.54393e-07
3.52607e-07
3.50815e-07
3.49017e-07
3.47209e-07
3.4539e-07
3.43558e-07
3.41707e-07
3.3983e-07
3.37917e-07
3.35958e-07
3.33933e-07
3.31831e-07
3.29641e-07
3.27372e-07
3.25029e-07
3.22706e-07
4.14478e-07
4.14316e-07
4.13991e-07
4.13507e-07
4.12874e-07
4.12108e-07
4.11228e-07
4.1025e-07
4.09192e-07
4.08065e-07
4.06879e-07
4.05642e-07
4.04361e-07
4.03042e-07
4.01689e-07
4.00308e-07
3.98902e-07
3.97475e-07
3.96029e-07
3.94567e-07
3.93091e-07
3.91603e-07
3.90103e-07
3.88593e-07
3.87075e-07
3.85548e-07
3.84015e-07
3.82475e-07
3.8093e-07
3.79381e-07
3.77827e-07
3.7627e-07
3.74711e-07
3.73149e-07
3.71586e-07
3.70022e-07
3.68457e-07
3.66892e-07
3.65326e-07
3.63761e-07
3.62196e-07
3.6063e-07
3.59064e-07
3.57496e-07
3.55925e-07
3.5435e-07
3.52766e-07
3.51174e-07
3.49567e-07
3.47947e-07
3.46304e-07
3.44645e-07
3.42959e-07
3.41253e-07
3.39502e-07
3.3771e-07
3.35842e-07
3.3392e-07
3.3194e-07
3.30028e-07
4.10128e-07
4.1001e-07
4.09772e-07
4.09416e-07
4.08946e-07
4.08369e-07
4.07693e-07
4.06929e-07
4.06087e-07
4.05176e-07
4.04204e-07
4.03177e-07
4.02103e-07
4.00985e-07
3.99828e-07
3.98637e-07
3.97416e-07
3.96169e-07
3.94898e-07
3.93606e-07
3.92297e-07
3.90971e-07
3.89632e-07
3.88281e-07
3.8692e-07
3.8555e-07
3.84173e-07
3.82789e-07
3.81402e-07
3.80011e-07
3.78617e-07
3.77223e-07
3.75829e-07
3.74435e-07
3.73044e-07
3.71655e-07
3.70271e-07
3.6889e-07
3.67515e-07
3.66145e-07
3.64781e-07
3.63424e-07
3.62073e-07
3.60729e-07
3.5939e-07
3.58058e-07
3.5673e-07
3.55408e-07
3.54084e-07
3.5276e-07
3.51423e-07
3.50072e-07
3.48693e-07
3.47289e-07
3.45851e-07
3.4439e-07
3.42885e-07
3.41361e-07
3.39815e-07
3.3836e-07
4.06673e-07
4.06581e-07
4.06396e-07
4.06117e-07
4.05746e-07
4.05287e-07
4.04744e-07
4.04125e-07
4.03435e-07
4.0268e-07
4.01865e-07
4.00998e-07
4.00081e-07
3.99121e-07
3.98121e-07
3.97086e-07
3.9602e-07
3.94925e-07
3.93805e-07
3.92663e-07
3.91501e-07
3.90323e-07
3.8913e-07
3.87924e-07
3.86708e-07
3.85484e-07
3.84252e-07
3.83016e-07
3.81776e-07
3.80535e-07
3.79294e-07
3.78054e-07
3.76817e-07
3.75584e-07
3.74357e-07
3.73137e-07
3.71926e-07
3.70724e-07
3.69532e-07
3.68353e-07
3.67186e-07
3.66032e-07
3.64892e-07
3.63767e-07
3.62655e-07
3.61558e-07
3.60474e-07
3.59404e-07
3.58346e-07
3.57302e-07
3.56268e-07
3.55244e-07
3.54218e-07
3.5319e-07
3.52151e-07
3.51109e-07
3.50054e-07
3.49012e-07
3.47991e-07
3.47094e-07
4.03905e-07
4.0383e-07
4.03678e-07
4.0345e-07
4.03146e-07
4.02767e-07
4.02318e-07
4.01801e-07
4.01222e-07
4.00584e-07
3.99892e-07
3.9915e-07
3.98362e-07
3.97532e-07
3.96663e-07
3.9576e-07
3.94825e-07
3.93862e-07
3.92873e-07
3.91863e-07
3.90832e-07
3.89784e-07
3.88722e-07
3.87647e-07
3.86563e-07
3.8547e-07
3.84372e-07
3.8327e-07
3.82166e-07
3.81063e-07
3.79961e-07
3.78865e-07
3.77774e-07
3.76691e-07
3.75618e-07
3.74556e-07
3.73508e-07
3.72476e-07
3.7146e-07
3.70462e-07
3.69485e-07
3.6853e-07
3.67597e-07
3.6669e-07
3.65809e-07
3.64955e-07
3.64129e-07
3.63332e-07
3.62562e-07
3.6182e-07
3.61102e-07
3.60413e-07
3.59749e-07
3.59114e-07
3.58501e-07
3.57918e-07
3.57358e-07
3.56844e-07
3.56385e-07
3.56071e-07
4.01699e-07
4.01635e-07
4.01507e-07
4.01314e-07
4.01057e-07
4.00736e-07
4.00354e-07
3.99913e-07
3.99417e-07
3.98868e-07
3.98271e-07
3.97627e-07
3.9694e-07
3.96214e-07
3.95451e-07
3.94655e-07
3.93829e-07
3.92975e-07
3.92097e-07
3.91197e-07
3.90277e-07
3.89341e-07
3.88391e-07
3.8743e-07
3.86459e-07
3.85482e-07
3.845e-07
3.83516e-07
3.82533e-07
3.81552e-07
3.80576e-07
3.79607e-07
3.78647e-07
3.77699e-07
3.76766e-07
3.75848e-07
3.74949e-07
3.74071e-07
3.73217e-07
3.72388e-07
3.71587e-07
3.70816e-07
3.70079e-07
3.69376e-07
3.68711e-07
3.68086e-07
3.67503e-07
3.66964e-07
3.66471e-07
3.66024e-07
3.65625e-07
3.6528e-07
3.64987e-07
3.64752e-07
3.64572e-07
3.64457e-07
3.64403e-07
3.64431e-07
3.64555e-07
3.64849e-07
3.99966e-07
3.99911e-07
3.998e-07
3.99632e-07
3.99409e-07
3.9913e-07
3.98797e-07
3.98412e-07
3.97978e-07
3.97496e-07
3.9697e-07
3.96402e-07
3.95794e-07
3.95149e-07
3.9447e-07
3.93759e-07
3.9302e-07
3.92255e-07
3.91466e-07
3.90657e-07
3.89829e-07
3.88986e-07
3.8813e-07
3.87264e-07
3.8639e-07
3.8551e-07
3.84628e-07
3.83746e-07
3.82865e-07
3.8199e-07
3.81122e-07
3.80265e-07
3.7942e-07
3.7859e-07
3.77778e-07
3.76988e-07
3.76221e-07
3.75481e-07
3.74771e-07
3.74093e-07
3.73451e-07
3.72849e-07
3.72288e-07
3.71774e-07
3.71309e-07
3.70896e-07
3.7054e-07
3.70242e-07
3.70006e-07
3.69838e-07
3.69742e-07
3.69724e-07
3.69785e-07
3.69933e-07
3.70169e-07
3.70504e-07
3.7094e-07
3.71497e-07
3.7219e-07
3.73076e-07
3.98643e-07
3.98594e-07
3.98495e-07
3.98346e-07
3.98147e-07
3.97898e-07
3.97601e-07
3.97257e-07
3.96868e-07
3.96436e-07
3.95963e-07
3.95451e-07
3.94903e-07
3.9432e-07
3.93705e-07
3.9306e-07
3.92389e-07
3.91693e-07
3.90975e-07
3.90237e-07
3.89483e-07
3.88714e-07
3.87934e-07
3.87144e-07
3.86348e-07
3.85548e-07
3.84747e-07
3.83947e-07
3.83152e-07
3.82364e-07
3.81585e-07
3.8082e-07
3.8007e-07
3.79339e-07
3.7863e-07
3.77946e-07
3.7729e-07
3.76667e-07
3.76078e-07
3.75529e-07
3.75022e-07
3.74563e-07
3.74154e-07
3.73801e-07
3.73507e-07
3.73278e-07
3.73117e-07
3.7303e-07
3.73023e-07
3.73103e-07
3.73275e-07
3.73546e-07
3.73923e-07
3.74413e-07
3.75024e-07
3.75765e-07
3.76647e-07
3.77685e-07
3.78898e-07
3.80328e-07
3.97686e-07
3.97641e-07
3.97551e-07
3.97414e-07
3.97232e-07
3.97004e-07
3.96732e-07
3.96416e-07
3.96059e-07
3.95662e-07
3.95227e-07
3.94755e-07
3.9425e-07
3.93711e-07
3.93143e-07
3.92547e-07
3.91925e-07
3.9128e-07
3.90614e-07
3.8993e-07
3.8923e-07
3.88517e-07
3.87793e-07
3.87062e-07
3.86325e-07
3.85585e-07
3.84846e-07
3.84109e-07
3.83379e-07
3.82657e-07
3.81948e-07
3.81253e-07
3.80577e-07
3.79922e-07
3.79292e-07
3.78691e-07
3.78122e-07
3.77589e-07
3.77096e-07
3.76648e-07
3.76248e-07
3.75901e-07
3.75612e-07
3.75387e-07
3.7523e-07
3.75147e-07
3.75144e-07
3.75228e-07
3.75406e-07
3.75686e-07
3.76076e-07
3.76583e-07
3.77218e-07
3.77989e-07
3.78908e-07
3.79986e-07
3.81236e-07
3.82675e-07
3.84322e-07
3.86205e-07
3.97062e-07
3.9702e-07
3.96935e-07
3.96807e-07
3.96635e-07
3.96421e-07
3.96164e-07
3.95867e-07
3.9553e-07
3.95155e-07
3.94745e-07
3.94299e-07
3.93821e-07
3.93311e-07
3.92773e-07
3.92209e-07
3.91619e-07
3.91008e-07
3.90377e-07
3.89728e-07
3.89064e-07
3.88388e-07
3.87702e-07
3.87009e-07
3.86312e-07
3.85613e-07
3.84915e-07
3.84221e-07
3.83534e-07
3.82858e-07
3.82195e-07
3.81549e-07
3.80922e-07
3.80319e-07
3.79744e-07
3.79199e-07
3.78689e-07
3.78219e-07
3.77792e-07
3.77412e-07
3.77086e-07
3.76818e-07
3.76612e-07
3.76476e-07
3.76414e-07
3.76433e-07
3.7654e-07
3.76744e-07
3.77052e-07
3.77472e-07
3.78015e-07
3.78689e-07
3.79506e-07
3.80477e-07
3.81615e-07
3.82934e-07
3.84448e-07
3.86174e-07
3.88133e-07
3.90345e-07
3.96753e-07
3.96712e-07
3.96629e-07
3.96505e-07
3.96339e-07
3.96131e-07
3.95882e-07
3.95593e-07
3.95266e-07
3.94903e-07
3.94504e-07
3.94071e-07
3.93606e-07
3.93111e-07
3.92588e-07
3.92039e-07
3.91465e-07
3.90871e-07
3.90256e-07
3.89625e-07
3.88979e-07
3.88322e-07
3.87655e-07
3.86981e-07
3.86303e-07
3.85624e-07
3.84947e-07
3.84275e-07
3.8361e-07
3.82956e-07
3.82317e-07
3.81694e-07
3.81093e-07
3.80517e-07
3.79968e-07
3.79452e-07
3.78973e-07
3.78534e-07
3.7814e-07
3.77796e-07
3.77507e-07
3.77278e-07
3.77115e-07
3.77023e-07
3.7701e-07
3.77081e-07
3.77245e-07
3.7751e-07
3.77885e-07
3.78378e-07
3.79e-07
3.7976e-07
3.80672e-07
3.81746e-07
3.82998e-07
3.84441e-07
3.86093e-07
3.87969e-07
3.90091e-07
3.92474e-07
3.96748e-07
3.96707e-07
3.96624e-07
3.965e-07
3.96334e-07
3.96125e-07
3.95877e-07
3.95588e-07
3.95261e-07
3.94897e-07
3.94498e-07
3.94065e-07
3.936e-07
3.93105e-07
3.92582e-07
3.92033e-07
3.91459e-07
3.90864e-07
3.9025e-07
3.89619e-07
3.88973e-07
3.88315e-07
3.87648e-07
3.86974e-07
3.86296e-07
3.85617e-07
3.84939e-07
3.84267e-07
3.83602e-07
3.82948e-07
3.82308e-07
3.81685e-07
3.81084e-07
3.80507e-07
3.79958e-07
3.79441e-07
3.78961e-07
3.78522e-07
3.78128e-07
3.77783e-07
3.77494e-07
3.77264e-07
3.77101e-07
3.77008e-07
3.76994e-07
3.77065e-07
3.77229e-07
3.77493e-07
3.77867e-07
3.78359e-07
3.7898e-07
3.7974e-07
3.80651e-07
3.81724e-07
3.82975e-07
3.84417e-07
3.86068e-07
3.87943e-07
3.90064e-07
3.92445e-07
3.97047e-07
3.97005e-07
3.9692e-07
3.96792e-07
3.9662e-07
3.96405e-07
3.96149e-07
3.95851e-07
3.95514e-07
3.95139e-07
3.94728e-07
3.94283e-07
3.93804e-07
3.93294e-07
3.92756e-07
3.92191e-07
3.91601e-07
3.90989e-07
3.90358e-07
3.89708e-07
3.89044e-07
3.88368e-07
3.87681e-07
3.86987e-07
3.86289e-07
3.8559e-07
3.84891e-07
3.84196e-07
3.83509e-07
3.82832e-07
3.82168e-07
3.8152e-07
3.80893e-07
3.80289e-07
3.79712e-07
3.79167e-07
3.78656e-07
3.78184e-07
3.77755e-07
3.77375e-07
3.77047e-07
3.76777e-07
3.7657e-07
3.76432e-07
3.76369e-07
3.76385e-07
3.76491e-07
3.76692e-07
3.76998e-07
3.77417e-07
3.77957e-07
3.78629e-07
3.79444e-07
3.80412e-07
3.81547e-07
3.82862e-07
3.84374e-07
3.86097e-07
3.88052e-07
3.9026e-07
3.97661e-07
3.97616e-07
3.97526e-07
3.97389e-07
3.97207e-07
3.96979e-07
3.96706e-07
3.96391e-07
3.96033e-07
3.95636e-07
3.952e-07
3.94728e-07
3.94222e-07
3.93683e-07
3.93114e-07
3.92517e-07
3.91895e-07
3.91249e-07
3.90583e-07
3.89898e-07
3.89197e-07
3.88483e-07
3.87758e-07
3.87026e-07
3.86287e-07
3.85547e-07
3.84806e-07
3.84068e-07
3.83337e-07
3.82614e-07
3.81903e-07
3.81206e-07
3.80528e-07
3.79872e-07
3.7924e-07
3.78637e-07
3.78066e-07
3.77531e-07
3.77036e-07
3.76586e-07
3.76183e-07
3.75834e-07
3.75543e-07
3.75314e-07
3.75154e-07
3.75069e-07
3.75063e-07
3.75144e-07
3.75318e-07
3.75594e-07
3.7598e-07
3.76484e-07
3.77114e-07
3.77881e-07
3.78795e-07
3.79868e-07
3.81114e-07
3.82547e-07
3.84188e-07
3.86066e-07
3.98609e-07
3.9856e-07
3.98461e-07
3.98312e-07
3.98113e-07
3.97863e-07
3.97566e-07
3.97221e-07
3.96832e-07
3.96399e-07
3.95926e-07
3.95413e-07
3.94864e-07
3.94281e-07
3.93665e-07
3.9302e-07
3.92347e-07
3.9165e-07
3.90931e-07
3.90192e-07
3.89437e-07
3.88667e-07
3.87885e-07
3.87094e-07
3.86296e-07
3.85495e-07
3.84692e-07
3.83891e-07
3.83093e-07
3.82303e-07
3.81523e-07
3.80755e-07
3.80003e-07
3.7927e-07
3.78558e-07
3.77871e-07
3.77213e-07
3.76587e-07
3.75995e-07
3.75443e-07
3.74933e-07
3.7447e-07
3.74058e-07
3.73701e-07
3.73403e-07
3.7317e-07
3.73004e-07
3.72913e-07
3.72901e-07
3.72976e-07
3.73143e-07
3.73409e-07
3.7378e-07
3.74264e-07
3.74868e-07
3.75603e-07
3.76478e-07
3.77509e-07
3.78715e-07
3.80137e-07
3.99922e-07
3.99867e-07
3.99756e-07
3.99589e-07
3.99365e-07
3.99086e-07
3.98752e-07
3.98367e-07
3.97932e-07
3.9745e-07
3.96923e-07
3.96354e-07
3.95745e-07
3.95099e-07
3.94419e-07
3.93708e-07
3.92967e-07
3.92201e-07
3.91411e-07
3.906e-07
3.89771e-07
3.88926e-07
3.88069e-07
3.87201e-07
3.86325e-07
3.85443e-07
3.84559e-07
3.83674e-07
3.82791e-07
3.81914e-07
3.81043e-07
3.80183e-07
3.79335e-07
3.78502e-07
3.77688e-07
3.76894e-07
3.76124e-07
3.7538e-07
3.74666e-07
3.73984e-07
3.73339e-07
3.72732e-07
3.72167e-07
3.71647e-07
3.71177e-07
3.7076e-07
3.70398e-07
3.70094e-07
3.69852e-07
3.69679e-07
3.69576e-07
3.69551e-07
3.69605e-07
3.69745e-07
3.69974e-07
3.703e-07
3.70728e-07
3.71275e-07
3.71959e-07
3.72836e-07
4.01647e-07
4.01583e-07
4.01455e-07
4.01262e-07
4.01004e-07
4.00683e-07
4.003e-07
3.99859e-07
3.99362e-07
3.98813e-07
3.98214e-07
3.9757e-07
3.96882e-07
3.96155e-07
3.95391e-07
3.94594e-07
3.93766e-07
3.92911e-07
3.92031e-07
3.91129e-07
3.90207e-07
3.8927e-07
3.88318e-07
3.87354e-07
3.86381e-07
3.85401e-07
3.84417e-07
3.83431e-07
3.82444e-07
3.8146e-07
3.80481e-07
3.79509e-07
3.78546e-07
3.77595e-07
3.76657e-07
3.75735e-07
3.74832e-07
3.7395e-07
3.73091e-07
3.72258e-07
3.71452e-07
3.70676e-07
3.69933e-07
3.69225e-07
3.68553e-07
3.67922e-07
3.67333e-07
3.66788e-07
3.66287e-07
3.65833e-07
3.65427e-07
3.65073e-07
3.64772e-07
3.64528e-07
3.64339e-07
3.64213e-07
3.64149e-07
3.64167e-07
3.6428e-07
3.64563e-07
4.03845e-07
4.0377e-07
4.03618e-07
4.03389e-07
4.03085e-07
4.02706e-07
4.02256e-07
4.01739e-07
4.01159e-07
4.0052e-07
3.99827e-07
3.99084e-07
3.98295e-07
3.97463e-07
3.96593e-07
3.95688e-07
3.94752e-07
3.93787e-07
3.92797e-07
3.91784e-07
3.90751e-07
3.89701e-07
3.88637e-07
3.8756e-07
3.86472e-07
3.85377e-07
3.84276e-07
3.83171e-07
3.82064e-07
3.80957e-07
3.79852e-07
3.78752e-07
3.77657e-07
3.7657e-07
3.75492e-07
3.74426e-07
3.73374e-07
3.72336e-07
3.71315e-07
3.70312e-07
3.69329e-07
3.68368e-07
3.67429e-07
3.66516e-07
3.65627e-07
3.64767e-07
3.63933e-07
3.63128e-07
3.62351e-07
3.616e-07
3.60874e-07
3.60175e-07
3.59501e-07
3.58857e-07
3.58233e-07
3.57639e-07
3.57068e-07
3.56541e-07
3.5607e-07
3.55744e-07
4.06606e-07
4.06513e-07
4.06328e-07
4.06049e-07
4.05678e-07
4.05218e-07
4.04675e-07
4.04054e-07
4.03363e-07
4.02608e-07
4.01792e-07
4.00923e-07
4.00006e-07
3.99044e-07
3.98043e-07
3.97006e-07
3.95938e-07
3.94841e-07
3.93719e-07
3.92575e-07
3.91411e-07
3.9023e-07
3.89034e-07
3.87826e-07
3.86607e-07
3.85379e-07
3.84145e-07
3.82905e-07
3.81662e-07
3.80416e-07
3.79171e-07
3.77927e-07
3.76686e-07
3.75448e-07
3.74216e-07
3.72991e-07
3.71775e-07
3.70567e-07
3.6937e-07
3.68184e-07
3.67011e-07
3.65851e-07
3.64704e-07
3.63571e-07
3.62452e-07
3.61347e-07
3.60255e-07
3.59176e-07
3.58109e-07
3.57056e-07
3.56012e-07
3.54978e-07
3.53941e-07
3.52903e-07
3.51852e-07
3.50798e-07
3.4973e-07
3.48675e-07
3.4764e-07
3.4673e-07
4.10054e-07
4.09935e-07
4.09698e-07
4.09342e-07
4.08871e-07
4.08293e-07
4.07616e-07
4.06852e-07
4.06009e-07
4.05097e-07
4.04123e-07
4.03096e-07
4.0202e-07
4.009e-07
3.99742e-07
3.98549e-07
3.97326e-07
3.96076e-07
3.94803e-07
3.93509e-07
3.92197e-07
3.90869e-07
3.89527e-07
3.88173e-07
3.86809e-07
3.85435e-07
3.84054e-07
3.82667e-07
3.81276e-07
3.7988e-07
3.78483e-07
3.77084e-07
3.75684e-07
3.74286e-07
3.72889e-07
3.71495e-07
3.70105e-07
3.68718e-07
3.67337e-07
3.6596e-07
3.6459e-07
3.63225e-07
3.61866e-07
3.60514e-07
3.59167e-07
3.57827e-07
3.5649e-07
3.55158e-07
3.53825e-07
3.52491e-07
3.51143e-07
3.49781e-07
3.4839e-07
3.46975e-07
3.45524e-07
3.4405e-07
3.42532e-07
3.40994e-07
3.39433e-07
3.37964e-07
4.14398e-07
4.14236e-07
4.13911e-07
4.13426e-07
4.12793e-07
4.12026e-07
4.11145e-07
4.10167e-07
4.09107e-07
4.07979e-07
4.06792e-07
4.05554e-07
4.04272e-07
4.02951e-07
4.01596e-07
4.00213e-07
3.98805e-07
3.97375e-07
3.95927e-07
3.94463e-07
3.92984e-07
3.91493e-07
3.8999e-07
3.88477e-07
3.86955e-07
3.85424e-07
3.83887e-07
3.82344e-07
3.80794e-07
3.7924e-07
3.77682e-07
3.7612e-07
3.74555e-07
3.72988e-07
3.71419e-07
3.69849e-07
3.68278e-07
3.66706e-07
3.65134e-07
3.63562e-07
3.61989e-07
3.60416e-07
3.58841e-07
3.57265e-07
3.55685e-07
3.54101e-07
3.52508e-07
3.50906e-07
3.49288e-07
3.47657e-07
3.46003e-07
3.44332e-07
3.42634e-07
3.40916e-07
3.39152e-07
3.37346e-07
3.35464e-07
3.33527e-07
3.31531e-07
3.29604e-07
4.19916e-07
4.19702e-07
4.19271e-07
4.18625e-07
4.17781e-07
4.16767e-07
4.15616e-07
4.14358e-07
4.13018e-07
4.11614e-07
4.10156e-07
4.08655e-07
4.07118e-07
4.05551e-07
4.03959e-07
4.02349e-07
4.00723e-07
3.99084e-07
3.97434e-07
3.95775e-07
3.94107e-07
3.92431e-07
3.90748e-07
3.89058e-07
3.87362e-07
3.85659e-07
3.8395e-07
3.82236e-07
3.80516e-07
3.78791e-07
3.7706e-07
3.75324e-07
3.73583e-07
3.71837e-07
3.70087e-07
3.68333e-07
3.66575e-07
3.64812e-07
3.63045e-07
3.61275e-07
3.595e-07
3.57721e-07
3.55937e-07
3.54148e-07
3.52353e-07
3.50551e-07
3.48742e-07
3.46924e-07
3.45095e-07
3.43251e-07
3.41388e-07
3.39499e-07
3.37574e-07
3.35601e-07
3.33562e-07
3.31446e-07
3.29241e-07
3.26957e-07
3.24598e-07
3.2226e-07
4.26615e-07
4.26182e-07
4.25395e-07
4.24305e-07
4.2298e-07
4.21491e-07
4.19896e-07
4.18234e-07
4.16526e-07
4.14783e-07
4.13011e-07
4.11215e-07
4.09403e-07
4.0758e-07
4.0575e-07
4.03918e-07
4.02084e-07
4.00249e-07
3.98413e-07
3.96574e-07
3.94733e-07
3.92889e-07
3.9104e-07
3.89188e-07
3.87331e-07
3.85468e-07
3.83598e-07
3.81722e-07
3.79839e-07
3.77948e-07
3.7605e-07
3.74143e-07
3.72228e-07
3.70305e-07
3.68373e-07
3.66433e-07
3.64485e-07
3.62527e-07
3.60562e-07
3.58587e-07
3.56605e-07
3.54611e-07
3.52611e-07
3.50598e-07
3.48578e-07
3.46542e-07
3.44499e-07
3.42435e-07
3.40364e-07
3.38264e-07
3.36157e-07
3.34013e-07
3.31864e-07
3.29667e-07
3.27471e-07
3.25212e-07
3.22964e-07
3.20635e-07
3.18333e-07
3.1595e-07
4.38349e-07
4.37598e-07
4.36184e-07
4.34232e-07
4.31947e-07
4.29527e-07
4.27096e-07
4.24706e-07
4.22359e-07
4.20043e-07
4.17749e-07
4.15476e-07
4.13229e-07
4.11014e-07
4.08832e-07
4.06682e-07
4.04559e-07
4.02458e-07
4.00375e-07
3.98306e-07
3.96247e-07
3.94196e-07
3.9215e-07
3.90107e-07
3.88064e-07
3.86019e-07
3.83971e-07
3.81917e-07
3.79857e-07
3.77789e-07
3.75713e-07
3.73627e-07
3.71532e-07
3.69425e-07
3.67309e-07
3.6518e-07
3.63042e-07
3.60891e-07
3.58731e-07
3.56556e-07
3.54374e-07
3.52175e-07
3.49973e-07
3.4775e-07
3.45528e-07
3.4328e-07
3.41043e-07
3.38771e-07
3.36524e-07
3.34229e-07
3.31984e-07
3.29673e-07
3.27453e-07
3.25135e-07
3.22974e-07
3.20664e-07
3.18613e-07
3.16317e-07
3.14418e-07
3.1204e-07
4.47089e-07
4.45361e-07
4.42716e-07
4.3959e-07
4.36374e-07
4.33279e-07
4.30355e-07
4.27568e-07
4.24866e-07
4.22218e-07
4.19619e-07
4.17076e-07
4.14593e-07
4.1217e-07
4.09803e-07
4.07481e-07
4.05194e-07
4.02936e-07
4.00701e-07
3.98483e-07
3.96278e-07
3.94082e-07
3.91891e-07
3.89703e-07
3.87513e-07
3.8532e-07
3.83122e-07
3.80915e-07
3.78699e-07
3.76473e-07
3.74235e-07
3.71984e-07
3.69721e-07
3.67443e-07
3.65154e-07
3.62848e-07
3.60531e-07
3.58198e-07
3.55855e-07
3.53494e-07
3.51126e-07
3.48738e-07
3.46347e-07
3.4393e-07
3.41518e-07
3.3907e-07
3.36641e-07
3.34158e-07
3.3172e-07
3.292e-07
3.26773e-07
3.24216e-07
3.21854e-07
3.19279e-07
3.17117e-07
3.14591e-07
3.12963e-07
3.10566e-07
3.10082e-07
3.07398e-07
4.95131e-07
4.81009e-07
4.67241e-07
4.56664e-07
4.49241e-07
4.43849e-07
4.39398e-07
4.35318e-07
4.31442e-07
4.27777e-07
4.2436e-07
4.21194e-07
4.18248e-07
4.1547e-07
4.12814e-07
4.10247e-07
4.07747e-07
4.05301e-07
4.02899e-07
4.00532e-07
3.9819e-07
3.95867e-07
3.93556e-07
3.91251e-07
3.88948e-07
3.86643e-07
3.84333e-07
3.82015e-07
3.79688e-07
3.7735e-07
3.74999e-07
3.72635e-07
3.70257e-07
3.67864e-07
3.65457e-07
3.63036e-07
3.606e-07
3.5815e-07
3.55687e-07
3.53211e-07
3.50721e-07
3.4822e-07
3.45706e-07
3.43181e-07
3.40643e-07
3.38092e-07
3.35529e-07
3.32949e-07
3.30356e-07
3.27736e-07
3.25109e-07
3.22425e-07
3.19764e-07
3.16954e-07
3.14298e-07
3.11157e-07
3.0879e-07
3.04374e-07
3.04058e-07
2.93448e-07
3.33831e-07
2.8335e-07
2.62485e-07
2.44973e-07
2.27428e-07
2.09749e-07
1.90002e-07
1.68922e-07
1.44294e-07
1.17816e-07
8.69695e-08
5.47091e-08
1.79544e-08
-1.88966e-08
-5.97193e-08
-9.85632e-08
-1.40727e-07
-1.78562e-07
-2.1931e-07
-2.53413e-07
-2.90421e-07
-3.18828e-07
-3.50601e-07
-3.71832e-07
-3.98257e-07
-4.10135e-07
-4.35429e-07
-4.32899e-07
-4.64969e-07
-5.60422e-07
3.19963e-07
2.6494e-07
2.51062e-07
2.36125e-07
2.19253e-07
2.01985e-07
1.82544e-07
1.61612e-07
1.37176e-07
1.11055e-07
8.08371e-08
4.94307e-08
1.38484e-08
-2.16806e-08
-6.09734e-08
-9.83491e-08
-1.38714e-07
-1.75061e-07
-2.13963e-07
-2.47117e-07
-2.82864e-07
-3.10639e-07
-3.42457e-07
-3.63023e-07
-3.90684e-07
-4.02652e-07
-4.26153e-07
-4.35806e-07
-4.40537e-07
-5.88331e-07
3.07791e-07
2.62489e-07
2.4965e-07
2.35191e-07
2.17825e-07
1.99575e-07
1.79614e-07
1.5834e-07
1.33855e-07
1.07602e-07
7.76222e-08
4.63091e-08
1.12947e-08
-2.38834e-08
-6.22656e-08
-9.9047e-08
-1.384e-07
-1.74392e-07
-2.12715e-07
-2.45483e-07
-2.80842e-07
-3.08534e-07
-3.3926e-07
-3.61609e-07
-3.86638e-07
-4.04986e-07
-4.22494e-07
-4.47605e-07
-4.26824e-07
-5.28771e-07
2.97634e-07
2.5841e-07
2.43498e-07
2.29561e-07
2.12895e-07
1.95238e-07
1.7547e-07
1.54028e-07
1.29601e-07
1.03187e-07
7.35405e-08
4.22389e-08
7.99138e-09
-2.69875e-08
-6.41396e-08
-1.00714e-07
-1.38518e-07
-1.74443e-07
-2.10624e-07
-2.43966e-07
-2.7661e-07
-3.06631e-07
-3.34484e-07
-3.6048e-07
-3.81522e-07
-4.06467e-07
-4.14472e-07
-4.5042e-07
-4.23556e-07
-4.92687e-07
2.87829e-07
2.55836e-07
2.40049e-07
2.27242e-07
2.11133e-07
1.927e-07
1.72416e-07
1.50406e-07
1.25939e-07
9.91125e-08
6.97183e-08
3.81411e-08
4.59684e-09
-3.04838e-08
-6.64329e-08
-1.0306e-07
-1.39207e-07
-1.75337e-07
-2.09527e-07
-2.43757e-07
-2.74285e-07
-3.05983e-07
-3.30925e-07
-3.60303e-07
-3.77164e-07
-4.06587e-07
-4.10683e-07
-4.45381e-07
-4.31155e-07
-4.66181e-07
2.79248e-07
2.54124e-07
2.37505e-07
2.24244e-07
2.08406e-07
1.89872e-07
1.69402e-07
1.46902e-07
1.22312e-07
9.50503e-08
6.57807e-08
3.38827e-08
8.71114e-10
-3.43541e-08
-6.92851e-08
-1.05963e-07
-1.40628e-07
-1.76935e-07
-2.09347e-07
-2.44121e-07
-2.72675e-07
-3.05351e-07
-3.28514e-07
-3.59162e-07
-3.75021e-07
-4.04274e-07
-4.11297e-07
-4.38605e-07
-4.40441e-07
-4.56792e-07
2.72228e-07
2.5263e-07
2.35898e-07
2.21793e-07
2.0607e-07
1.87466e-07
1.66744e-07
1.43676e-07
1.1878e-07
9.10424e-08
6.1702e-08
2.95035e-08
-3.22965e-09
-3.84931e-08
-7.27411e-08
-1.0922e-07
-1.42872e-07
-1.78878e-07
-2.10185e-07
-2.44634e-07
-2.72337e-07
-3.04627e-07
-3.27783e-07
-3.57497e-07
-3.75267e-07
-4.01525e-07
-4.14243e-07
-4.34831e-07
-4.45149e-07
-4.56916e-07
2.66996e-07
2.51239e-07
2.35012e-07
2.19946e-07
2.03977e-07
1.85223e-07
1.64179e-07
1.40559e-07
1.15185e-07
8.69965e-08
5.73796e-08
2.49783e-08
-7.75449e-09
-4.28729e-08
-7.68082e-08
-1.12768e-07
-1.4592e-07
-1.81101e-07
-2.12e-07
-2.45359e-07
-2.73165e-07
-3.04048e-07
-3.28331e-07
-3.56013e-07
-3.76521e-07
-3.99818e-07
-4.16794e-07
-4.34294e-07
-4.48014e-07
-4.59558e-07
2.63635e-07
2.4995e-07
2.34377e-07
2.18661e-07
2.02135e-07
1.83065e-07
1.61603e-07
1.37461e-07
1.11477e-07
8.28552e-08
5.2792e-08
2.02615e-08
-1.26843e-08
-4.7525e-08
-8.14179e-08
-1.1665e-07
-1.49638e-07
-1.83695e-07
-2.14558e-07
-2.46494e-07
-2.74702e-07
-3.03964e-07
-3.29324e-07
-3.55319e-07
-3.77641e-07
-3.99583e-07
-4.18506e-07
-4.35726e-07
-4.50576e-07
-4.63326e-07
2.61901e-07
2.48827e-07
2.33821e-07
2.17741e-07
2.00502e-07
1.80926e-07
1.58926e-07
1.34264e-07
1.07598e-07
7.85298e-08
4.79206e-08
1.52706e-08
-1.79873e-08
-5.2522e-08
-8.64741e-08
-1.20945e-07
-1.53841e-07
-1.86768e-07
-2.17574e-07
-2.48187e-07
-2.76563e-07
-3.04543e-07
-3.304e-07
-3.55451e-07
-3.78534e-07
-4.00174e-07
-4.19889e-07
-4.37623e-07
-4.53382e-07
-4.67367e-07
2.61318e-07
2.48019e-07
2.33229e-07
2.169e-07
1.98943e-07
1.78721e-07
1.56066e-07
1.30848e-07
1.03476e-07
7.3923e-08
4.27369e-08
9.91954e-09
-2.36514e-08
-5.7939e-08
-9.19145e-08
-1.25718e-07
-1.58416e-07
-1.90376e-07
-2.20904e-07
-2.50462e-07
-2.78629e-07
-3.05717e-07
-3.31541e-07
-3.56099e-07
-3.79377e-07
-4.01078e-07
-4.21287e-07
-4.39666e-07
-4.56385e-07
-4.71498e-07
2.61299e-07
2.47563e-07
2.32612e-07
2.15941e-07
1.97282e-07
1.76336e-07
1.52946e-07
1.27107e-07
9.90274e-08
6.89395e-08
3.71828e-08
4.12935e-09
-2.97138e-08
-6.38397e-08
-9.77522e-08
-1.31011e-07
-1.63366e-07
-1.94526e-07
-2.24563e-07
-2.53264e-07
-2.80951e-07
-3.07344e-07
-3.32855e-07
-3.57065e-07
-3.80333e-07
-4.02152e-07
-4.22769e-07
-4.41769e-07
-4.59382e-07
-4.7562e-07
2.61444e-07
2.47313e-07
2.31927e-07
2.14734e-07
1.95358e-07
1.73652e-07
1.49484e-07
1.22953e-07
9.41557e-08
6.34812e-08
3.1166e-08
-2.18702e-09
-3.62613e-08
-7.02968e-08
-1.04072e-07
-1.36874e-07
-1.68778e-07
-1.99232e-07
-2.28645e-07
-2.5657e-07
-2.83635e-07
-3.09373e-07
-3.3445e-07
-3.58293e-07
-3.81481e-07
-4.03341e-07
-4.24352e-07
-4.43841e-07
-4.62351e-07
-4.79517e-07
2.61504e-07
2.47056e-07
2.31088e-07
2.13218e-07
1.9308e-07
1.7058e-07
1.45598e-07
1.18301e-07
8.87554e-08
5.74379e-08
2.45634e-08
-9.1418e-09
-4.34237e-08
-7.74171e-08
-1.11006e-07
-1.43396e-07
-1.74783e-07
-2.04562e-07
-2.33269e-07
-2.60427e-07
-2.86777e-07
-3.11839e-07
-3.36381e-07
-3.59812e-07
-3.82822e-07
-4.04667e-07
-4.25971e-07
-4.45904e-07
-4.6519e-07
-4.83235e-07
2.6139e-07
2.46602e-07
2.30005e-07
2.11374e-07
1.90415e-07
1.67061e-07
1.41203e-07
1.13055e-07
8.27026e-08
5.06764e-08
1.72198e-08
-1.68835e-08
-5.13701e-08
-8.53493e-08
-1.18725e-07
-1.50709e-07
-1.81534e-07
-2.10626e-07
-2.38563e-07
-2.64917e-07
-2.9047e-07
-3.14792e-07
-3.387e-07
-3.61636e-07
-3.84358e-07
-4.06104e-07
-4.27599e-07
-4.479e-07
-4.6788e-07
-4.86701e-07
2.61161e-07
2.45913e-07
2.28667e-07
2.09226e-07
1.87362e-07
1.63046e-07
1.36207e-07
1.07093e-07
7.58456e-08
4.30301e-08
8.94647e-09
-2.56001e-08
-6.0301e-08
-9.42787e-08
-1.27418e-07
-1.58978e-07
-1.89191e-07
-2.17553e-07
-2.4465e-07
-2.70132e-07
-2.94792e-07
-3.18284e-07
-3.41434e-07
-3.63772e-07
-3.86059e-07
-4.07612e-07
-4.29149e-07
-4.49758e-07
-4.7031e-07
-4.8987e-07
2.61001e-07
2.45075e-07
2.27121e-07
2.068e-07
1.83904e-07
1.58461e-07
1.30478e-07
1.0025e-07
6.79903e-08
3.42899e-08
-4.8163e-10
-3.55149e-08
-7.04403e-08
-1.04412e-07
-1.37282e-07
-1.68373e-07
-1.97912e-07
-2.2547e-07
-2.51644e-07
-2.76155e-07
-2.99816e-07
-3.22352e-07
-3.4461e-07
-3.66203e-07
-3.87895e-07
-4.09114e-07
-4.30525e-07
-4.51353e-07
-4.72324e-07
-4.92617e-07
2.61162e-07
2.44258e-07
2.25414e-07
2.0405e-07
1.79927e-07
1.53138e-07
1.23806e-07
9.22892e-08
5.88818e-08
2.41937e-08
-1.13295e-08
-4.68829e-08
-8.20303e-08
-1.15971e-07
-1.48516e-07
-1.79072e-07
-2.0785e-07
-2.34509e-07
-2.59656e-07
-2.83076e-07
-3.05619e-07
-3.27044e-07
-3.48269e-07
-3.68923e-07
-3.8986e-07
-4.10526e-07
-4.3165e-07
-4.52501e-07
-4.73771e-07
-4.94669e-07
2.61768e-07
2.43574e-07
2.23503e-07
2.00784e-07
1.75158e-07
1.46776e-07
1.15878e-07
8.28896e-08
4.81924e-08
1.24182e-08
-2.39109e-08
-5.99987e-08
-9.53455e-08
-1.29204e-07
-1.6135e-07
-1.9128e-07
-2.1919e-07
-2.44838e-07
-2.6883e-07
-2.9103e-07
-3.12308e-07
-3.32459e-07
-3.52478e-07
-3.7198e-07
-3.91963e-07
-4.11814e-07
-4.32436e-07
-4.53034e-07
-4.74397e-07
-4.95674e-07
2.62583e-07
2.42834e-07
2.21061e-07
1.9657e-07
1.69129e-07
1.38912e-07
1.06242e-07
7.16078e-08
3.54873e-08
-1.45732e-09
-3.86289e-08
-7.52418e-08
-1.10742e-07
-1.44445e-07
-1.76094e-07
-2.05292e-07
-2.32206e-07
-2.56718e-07
-2.794e-07
-3.00233e-07
-3.20064e-07
-3.38762e-07
-3.57357e-07
-3.75468e-07
-3.94246e-07
-4.1296e-07
-4.32816e-07
-4.52743e-07
-4.73928e-07
-4.95091e-07
2.62842e-07
2.41267e-07
2.17442e-07
1.90824e-07
1.61258e-07
1.2895e-07
9.42957e-08
5.7846e-08
2.01767e-08
-1.80088e-08
-5.60405e-08
-9.31443e-08
-1.28726e-07
-1.6217e-07
-1.93201e-07
-2.21532e-07
-2.47306e-07