/*--------------------------------*- C++ -*----------------------------------*\
| =========                 |                                                 |
| \\      /  F ield         | OpenFOAM: The Open Source CFD Toolbox           |
|  \\    /   O peration     | Version:  2312                                  |
|   \\  /    A nd           | Website:  www.openfoam.com                      |
|    \\/     M anipulation  |                                                 |
\*---------------------------------------------------------------------------*/
FoamFile
{
    version     2.0;
    format      ascii;
    arch        "LSB;label=32;scalar=64";
    class       volVectorField;
    location    "73000";
    object      U;
}
// * * * * * * * * * * * * * * * * * * * * * * * * * * * * * * * * * * * * * //

dimensions      [0 1 -1 0 0 0 0];

internalField   nonuniform List<vector> 
2685
(
(7.34204e-05 -6.20787e-06 0)
(8.30559e-05 -5.87359e-06 0)
(9.22962e-05 -5.52133e-06 0)
(0.000101121 -5.15689e-06 0)
(0.000109515 -4.78564e-06 0)
(0.000117468 -4.41249e-06 0)
(0.000124974 -4.04187e-06 0)
(0.000132033 -3.67768e-06 0)
(0.000138647 -3.32331e-06 0)
(0.000144822 -2.98165e-06 0)
(0.000150568 -2.65507e-06 0)
(0.000155895 -2.34549e-06 0)
(0.000160817 -2.05434e-06 0)
(0.00016535 -1.78267e-06 0)
(0.000169512 -1.53112e-06 0)
(0.00017332 -1.29998e-06 0)
(0.000176793 -1.08927e-06 0)
(0.000179952 -8.987e-07 0)
(0.000182815 -7.27781e-07 0)
(0.000185403 -5.75818e-07 0)
(0.000187736 -4.41956e-07 0)
(0.000189834 -3.25217e-07 0)
(0.000191715 -2.24528e-07 0)
(0.000193398 -1.38754e-07 0)
(0.000194901 -6.67263e-08 0)
(0.000196241 -7.26089e-09 0)
(0.000197434 4.08182e-08 0)
(0.000198495 7.8664e-08 0)
(0.00019944 1.07391e-07 0)
(0.00020028 1.28064e-07 0)
(0.00020103 1.41689e-07 0)
(0.000201699 1.49208e-07 0)
(0.000202299 1.51498e-07 0)
(0.000202838 1.49366e-07 0)
(0.000203327 1.43555e-07 0)
(0.000203772 1.34738e-07 0)
(0.000204181 1.23526e-07 0)
(0.00020456 1.10467e-07 0)
(0.000204914 9.60508e-08 0)
(0.000205249 8.07129e-08 0)
(0.000205567 6.48361e-08 0)
(0.000205874 4.87537e-08 0)
(0.000206172 3.27511e-08 0)
(0.000206464 1.7066e-08 0)
(0.000206752 1.88722e-09 0)
(0.000207038 -1.26435e-08 0)
(0.000207323 -2.64263e-08 0)
(0.000207608 -3.93951e-08 0)
(0.000207894 -5.15074e-08 0)
(0.000208182 -6.27239e-08 0)
(0.000208473 -7.30004e-08 0)
(0.000208766 -8.23048e-08 0)
(0.000209061 -9.06208e-08 0)
(0.00020936 -9.79474e-08 0)
(0.00020966 -1.04296e-07 0)
(0.000209963 -1.09689e-07 0)
(0.000210267 -1.14158e-07 0)
(0.000210573 -1.17741e-07 0)
(0.00021088 -1.20482e-07 0)
(0.000211188 -1.22427e-07 0)
(0.000211495 -1.23625e-07 0)
(0.000211802 -1.24133e-07 0)
(0.000212107 -1.24007e-07 0)
(0.000212411 -1.23317e-07 0)
(0.000212712 -1.22134e-07 0)
(0.00021301 -1.20549e-07 0)
(0.000213304 -1.18645e-07 0)
(0.000213594 -1.16515e-07 0)
(0.00021388 -1.1424e-07 0)
(0.00021416 -1.11909e-07 0)
(0.000214435 -1.09601e-07 0)
(0.000214705 -1.07385e-07 0)
(0.000214968 -1.05356e-07 0)
(0.000215226 -1.03546e-07 0)
(0.000215479 -1.02108e-07 0)
(0.000215725 -1.0098e-07 0)
(0.000215967 -1.0046e-07 0)
(0.000216203 -1.00256e-07 0)
(0.000216435 -1.0099e-07 0)
(0.000216662 -1.01866e-07 0)
(0.000216887 -1.04198e-07 0)
(0.000217107 -1.06135e-07 0)
(0.000217328 -1.10455e-07 0)
(0.000217542 -1.13105e-07 0)
(0.000217765 -1.19966e-07 0)
(0.000217971 -1.22192e-07 0)
(0.000218211 -1.32507e-07 0)
(0.000218388 -1.31409e-07 0)
(0.000218709 -1.45897e-07 0)
(0.00033767 -3.61662e-05 0)
(0.000350114 -3.48207e-05 0)
(0.000362149 -3.3398e-05 0)
(0.000373757 -3.19156e-05 0)
(0.000384921 -3.03899e-05 0)
(0.000395631 -2.88363e-05 0)
(0.000405879 -2.72691e-05 0)
(0.000415664 -2.57013e-05 0)
(0.000424983 -2.41447e-05 0)
(0.000433841 -2.26099e-05 0)
(0.000442242 -2.11062e-05 0)
(0.000450194 -1.96417e-05 0)
(0.000457707 -1.82235e-05 0)
(0.000464791 -1.68572e-05 0)
(0.000471461 -1.55478e-05 0)
(0.000477729 -1.4299e-05 0)
(0.000483611 -1.31138e-05 0)
(0.000489123 -1.1994e-05 0)
(0.000494281 -1.09408e-05 0)
(0.000499102 -9.95487e-06 0)
(0.000503603 -9.0359e-06 0)
(0.000507802 -8.18322e-06 0)
(0.000511715 -7.39561e-06 0)
(0.000515361 -6.6714e-06 0)
(0.000518757 -6.00851e-06 0)
(0.000521919 -5.40457e-06 0)
(0.000524863 -4.85693e-06 0)
(0.000527606 -4.36274e-06 0)
(0.000530162 -3.91901e-06 0)
(0.000532547 -3.52262e-06 0)
(0.000534776 -3.17041e-06 0)
(0.00053686 -2.85917e-06 0)
(0.000538814 -2.58575e-06 0)
(0.000540648 -2.34704e-06 0)
(0.000542376 -2.13999e-06 0)
(0.000544006 -1.96169e-06 0)
(0.000545549 -1.80935e-06 0)
(0.000547015 -1.68031e-06 0)
(0.00054841 -1.57208e-06 0)
(0.000549744 -1.4823e-06 0)
(0.000551022 -1.40877e-06 0)
(0.000552251 -1.34945e-06 0)
(0.000553437 -1.30245e-06 0)
(0.000554584 -1.26602e-06 0)
(0.000555698 -1.23858e-06 0)
(0.00055678 -1.21866e-06 0)
(0.000557836 -1.20489e-06 0)
(0.000558868 -1.19603e-06 0)
(0.000559878 -1.19099e-06 0)
(0.000560868 -1.1889e-06 0)
(0.000561841 -1.18905e-06 0)
(0.000562797 -1.19083e-06 0)
(0.000563739 -1.19369e-06 0)
(0.000564667 -1.19714e-06 0)
(0.000565582 -1.20074e-06 0)
(0.000566484 -1.20407e-06 0)
(0.000567375 -1.20677e-06 0)
(0.000568254 -1.20852e-06 0)
(0.000569121 -1.20903e-06 0)
(0.000569976 -1.20807e-06 0)
(0.00057082 -1.20544e-06 0)
(0.000571652 -1.20099e-06 0)
(0.000572472 -1.19459e-06 0)
(0.00057328 -1.1862e-06 0)
(0.000574076 -1.17576e-06 0)
(0.000574858 -1.16332e-06 0)
(0.000575628 -1.14892e-06 0)
(0.000576385 -1.13268e-06 0)
(0.000577128 -1.1148e-06 0)
(0.000577858 -1.09541e-06 0)
(0.000578575 -1.07487e-06 0)
(0.000579278 -1.05325e-06 0)
(0.000579969 -1.03114e-06 0)
(0.000580645 -1.00843e-06 0)
(0.000581312 -9.85997e-07 0)
(0.000581961 -9.63492e-07 0)
(0.000582606 -9.42041e-07 0)
(0.000583228 -9.21081e-07 0)
(0.000583856 -9.01814e-07 0)
(0.000584448 -8.83675e-07 0)
(0.000585068 -8.67678e-07 0)
(0.000585623 -8.53444e-07 0)
(0.000586252 -8.41897e-07 0)
(0.000586754 -8.32226e-07 0)
(0.000587418 -8.2684e-07 0)
(0.000587837 -8.21588e-07 0)
(0.000588588 -8.25088e-07 0)
(0.000588859 -8.23232e-07 0)
(0.000589793 -8.3953e-07 0)
(0.000628047 -6.16307e-05 0)
(0.000636965 -5.95295e-05 0)
(0.000645573 -5.73183e-05 0)
(0.000653861 -5.50227e-05 0)
(0.000661826 -5.26668e-05 0)
(0.000669465 -5.02727e-05 0)
(0.000676777 -4.78608e-05 0)
(0.000683765 -4.54494e-05 0)
(0.000690432 -4.30552e-05 0)
(0.000696783 -4.0693e-05 0)
(0.000702824 -3.83755e-05 0)
(0.000708563 -3.6114e-05 0)
(0.000714007 -3.3918e-05 0)
(0.000719167 -3.17952e-05 0)
(0.000724051 -2.97521e-05 0)
(0.00072867 -2.77939e-05 0)
(0.000733035 -2.59244e-05 0)
(0.000737156 -2.41466e-05 0)
(0.000741044 -2.24622e-05 0)
(0.000744711 -2.08722e-05 0)
(0.000748168 -1.93767e-05 0)
(0.000751426 -1.79749e-05 0)
(0.000754496 -1.66657e-05 0)
(0.000757389 -1.54471e-05 0)
(0.000760115 -1.43168e-05 0)
(0.000762686 -1.3272e-05 0)
(0.000765111 -1.23097e-05 0)
(0.0007674 -1.14265e-05 0)
(0.000769563 -1.06187e-05 0)
(0.00077161 -9.88253e-06 0)
(0.00077355 -9.21411e-06 0)
(0.000775391 -8.60945e-06 0)
(0.000777141 -8.0645e-06 0)
(0.00077881 -7.57521e-06 0)
(0.000780403 -7.13755e-06 0)
(0.000781928 -6.74754e-06 0)
(0.000783393 -6.40127e-06 0)
(0.000784804 -6.09497e-06 0)
(0.000786166 -5.82497e-06 0)
(0.000787486 -5.58772e-06 0)
(0.000788768 -5.37986e-06 0)
(0.000790018 -5.19817e-06 0)
(0.00079124 -5.03961e-06 0)
(0.000792438 -4.90133e-06 0)
(0.000793617 -4.78066e-06 0)
(0.000794779 -4.67512e-06 0)
(0.000795927 -4.58246e-06 0)
(0.000797065 -4.5006e-06 0)
(0.000798195 -4.42768e-06 0)
(0.000799319 -4.36201e-06 0)
(0.000800439 -4.30209e-06 0)
(0.000801555 -4.24662e-06 0)
(0.000802669 -4.19444e-06 0)
(0.000803781 -4.14456e-06 0)
(0.000804893 -4.09608e-06 0)
(0.000806004 -4.04826e-06 0)
(0.000807114 -4.0004e-06 0)
(0.000808224 -3.952e-06 0)
(0.000809332 -3.9025e-06 0)
(0.000810437 -3.85165e-06 0)
(0.000811539 -3.79903e-06 0)
(0.000812637 -3.74469e-06 0)
(0.000813728 -3.68836e-06 0)
(0.000814812 -3.63046e-06 0)
(0.000815887 -3.57075e-06 0)
(0.00081695 -3.51006e-06 0)
(0.000818005 -3.44798e-06 0)
(0.000819041 -3.38586e-06 0)
(0.00082007 -3.32277e-06 0)
(0.000821075 -3.26084e-06 0)
(0.000822075 -3.19809e-06 0)
(0.000823045 -3.13798e-06 0)
(0.000824019 -3.07681e-06 0)
(0.000824949 -3.02013e-06 0)
(0.000825903 -2.96168e-06 0)
(0.000826792 -2.91009e-06 0)
(0.000827735 -2.85554e-06 0)
(0.000828579 -2.81066e-06 0)
(0.00082953 -2.76109e-06 0)
(0.00083032 -2.72414e-06 0)
(0.000831302 -2.6804e-06 0)
(0.000832026 -2.65188e-06 0)
(0.000833071 -2.61455e-06 0)
(0.000833703 -2.59407e-06 0)
(0.000834856 -2.5635e-06 0)
(0.000835356 -2.55012e-06 0)
(0.000836681 -2.52673e-06 0)
(0.000836982 -2.51972e-06 0)
(0.000838575 -2.50422e-06 0)
(0.000909252 -7.64247e-05 0)
(0.000912692 -7.37579e-05 0)
(0.000915965 -7.09674e-05 0)
(0.000919072 -6.80839e-05 0)
(0.000922012 -6.51361e-05 0)
(0.000924786 -6.21505e-05 0)
(0.000927398 -5.91511e-05 0)
(0.000929848 -5.61599e-05 0)
(0.000932141 -5.31961e-05 0)
(0.000934281 -5.02769e-05 0)
(0.000936272 -4.74172e-05 0)
(0.000938119 -4.463e-05 0)
(0.000939826 -4.19263e-05 0)
(0.000941401 -3.93154e-05 0)
(0.000942847 -3.6805e-05 0)
(0.000944171 -3.44008e-05 0)
(0.000945379 -3.21071e-05 0)
(0.000946476 -2.99268e-05 0)
(0.000947469 -2.78619e-05 0)
(0.000948363 -2.5913e-05 0)
(0.000949165 -2.40802e-05 0)
(0.00094988 -2.23625e-05 0)
(0.000950514 -2.07584e-05 0)
(0.000951074 -1.92655e-05 0)
(0.000951564 -1.78809e-05 0)
(0.000951991 -1.66013e-05 0)
(0.000952359 -1.5423e-05 0)
(0.000952675 -1.4342e-05 0)
(0.000952944 -1.33538e-05 0)
(0.00095317 -1.24539e-05 0)
(0.000953358 -1.16376e-05 0)
(0.000953514 -1.09e-05 0)
(0.000953641 -1.02365e-05 0)
(0.000953745 -9.64207e-06 0)
(0.000953829 -9.11218e-06 0)
(0.000953897 -8.64219e-06 0)
(0.000953954 -8.22763e-06 0)
(0.000954002 -7.86417e-06 0)
(0.000954045 -7.54758e-06 0)
(0.000954087 -7.27381e-06 0)
(0.00095413 -7.03892e-06 0)
(0.000954177 -6.83911e-06 0)
(0.000954232 -6.67078e-06 0)
(0.000954297 -6.53048e-06 0)
(0.000954374 -6.41494e-06 0)
(0.000954466 -6.32113e-06 0)
(0.000954574 -6.24622e-06 0)
(0.000954701 -6.18764e-06 0)
(0.000954848 -6.14304e-06 0)
(0.000955018 -6.11029e-06 0)
(0.00095521 -6.08729e-06 0)
(0.000955427 -6.07223e-06 0)
(0.000955671 -6.06315e-06 0)
(0.000955941 -6.0585e-06 0)
(0.000956239 -6.05637e-06 0)
(0.000956565 -6.05548e-06 0)
(0.000956921 -6.05388e-06 0)
(0.000957305 -6.05061e-06 0)
(0.000957719 -6.04356e-06 0)
(0.000958159 -6.03233e-06 0)
(0.000958628 -6.01449e-06 0)
(0.000959121 -5.99055e-06 0)
(0.000959642 -5.95756e-06 0)
(0.00096018 -5.91765e-06 0)
(0.000960746 -5.86698e-06 0)
(0.000961319 -5.81018e-06 0)
(0.000961921 -5.74184e-06 0)
(0.000962517 -5.67007e-06 0)
(0.000963146 -5.58678e-06 0)
(0.000963753 -5.50458e-06 0)
(0.000964403 -5.41139e-06 0)
(0.000965005 -5.32522e-06 0)
(0.000965673 -5.22867e-06 0)
(0.000966258 -5.14572e-06 0)
(0.000966943 -5.05282e-06 0)
(0.000967499 -4.9796e-06 0)
(0.000968209 -4.89686e-06 0)
(0.000968724 -4.83787e-06 0)
(0.000969473 -4.77068e-06 0)
(0.000969939 -4.72771e-06 0)
(0.00097075 -4.68033e-06 0)
(0.000971161 -4.65263e-06 0)
(0.000972063 -4.6287e-06 0)
(0.000972408 -4.61366e-06 0)
(0.000973437 -4.61639e-06 0)
(0.000973699 -4.61029e-06 0)
(0.000974901 -4.6418e-06 0)
(0.000975051 -4.6404e-06 0)
(0.000976483 -4.70045e-06 0)
(0.00111053 -7.73765e-05 0)
(0.00110882 -7.4593e-05 0)
(0.00110714 -7.16824e-05 0)
(0.00110549 -6.86766e-05 0)
(0.00110387 -6.56053e-05 0)
(0.00110229 -6.24958e-05 0)
(0.00110074 -5.9373e-05 0)
(0.00109922 -5.62594e-05 0)
(0.00109773 -5.31752e-05 0)
(0.00109627 -5.01382e-05 0)
(0.00109484 -4.71636e-05 0)
(0.00109344 -4.42646e-05 0)
(0.00109205 -4.14522e-05 0)
(0.00109069 -3.87355e-05 0)
(0.00108935 -3.61222e-05 0)
(0.00108802 -3.36188e-05 0)
(0.00108671 -3.12304e-05 0)
(0.00108542 -2.89602e-05 0)
(0.00108413 -2.68105e-05 0)
(0.00108286 -2.47819e-05 0)
(0.00108159 -2.28745e-05 0)
(0.00108033 -2.10874e-05 0)
(0.00107908 -1.94194e-05 0)
(0.00107783 -1.78684e-05 0)
(0.00107659 -1.64317e-05 0)
(0.00107535 -1.51058e-05 0)
(0.00107412 -1.38873e-05 0)
(0.0010729 -1.27723e-05 0)
(0.00107168 -1.17565e-05 0)
(0.00107047 -1.08355e-05 0)
(0.00106927 -1.00046e-05 0)
(0.00106807 -9.2591e-06 0)
(0.00106689 -8.5938e-06 0)
(0.00106572 -8.0036e-06 0)
(0.00106456 -7.48351e-06 0)
(0.00106342 -7.02872e-06 0)
(0.00106229 -6.63458e-06 0)
(0.00106118 -6.29654e-06 0)
(0.00106009 -6.01024e-06 0)
(0.00105901 -5.77142e-06 0)
(0.00105797 -5.57594e-06 0)
(0.00105694 -5.41978e-06 0)
(0.00105594 -5.29902e-06 0)
(0.00105497 -5.20995e-06 0)
(0.00105403 -5.14901e-06 0)
(0.00105311 -5.11295e-06 0)
(0.00105223 -5.09864e-06 0)
(0.00105138 -5.10343e-06 0)
(0.00105057 -5.12462e-06 0)
(0.00104979 -5.16017e-06 0)
(0.00104904 -5.20767e-06 0)
(0.00104833 -5.26552e-06 0)
(0.00104767 -5.33128e-06 0)
(0.00104704 -5.40367e-06 0)
(0.00104645 -5.47993e-06 0)
(0.00104591 -5.55921e-06 0)
(0.00104541 -5.63822e-06 0)
(0.00104496 -5.71691e-06 0)
(0.00104455 -5.79103e-06 0)
(0.00104418 -5.86188e-06 0)
(0.00104386 -5.92358e-06 0)
(0.00104357 -5.97963e-06 0)
(0.00104333 -6.02192e-06 0)
(0.00104312 -6.05749e-06 0)
(0.00104295 -6.07536e-06 0)
(0.00104279 -6.08752e-06 0)
(0.00104269 -6.07922e-06 0)
(0.00104258 -6.06829e-06 0)
(0.00104254 -6.0352e-06 0)
(0.00104246 -6.00372e-06 0)
(0.00104247 -5.94951e-06 0)
(0.00104242 -5.9012e-06 0)
(0.00104249 -5.832e-06 0)
(0.00104245 -5.7722e-06 0)
(0.00104257 -5.69809e-06 0)
(0.00104253 -5.63469e-06 0)
(0.0010427 -5.5701e-06 0)
(0.00104266 -5.51258e-06 0)
(0.00104289 -5.47399e-06 0)
(0.00104284 -5.43029e-06 0)
(0.00104314 -5.43219e-06 0)
(0.00104308 -5.40558e-06 0)
(0.00104346 -5.45769e-06 0)
(0.0010434 -5.4461e-06 0)
(0.00104387 -5.55329e-06 0)
(0.00104382 -5.55133e-06 0)
(0.0010444 -5.7153e-06 0)
(0.00104437 -5.71684e-06 0)
(0.00104508 -5.93704e-06 0)
(0.00120442 -6.86594e-05 0)
(0.00119988 -6.61277e-05 0)
(0.00119552 -6.34789e-05 0)
(0.00119132 -6.07414e-05 0)
(0.0011873 -5.79417e-05 0)
(0.00118344 -5.5104e-05 0)
(0.00117974 -5.22504e-05 0)
(0.0011762 -4.94009e-05 0)
(0.00117281 -4.65731e-05 0)
(0.00116956 -4.37831e-05 0)
(0.00116644 -4.10452e-05 0)
(0.00116346 -3.8372e-05 0)
(0.0011606 -3.57742e-05 0)
(0.00115785 -3.32608e-05 0)
(0.0011552 -3.08389e-05 0)
(0.00115265 -2.85136e-05 0)
(0.00115019 -2.62897e-05 0)
(0.00114782 -2.41711e-05 0)
(0.00114551 -2.21607e-05 0)
(0.00114328 -2.02607e-05 0)
(0.00114111 -1.84716e-05 0)
(0.001139 -1.67934e-05 0)
(0.00113694 -1.52252e-05 0)
(0.00113493 -1.37657e-05 0)
(0.00113296 -1.24132e-05 0)
(0.00113103 -1.11654e-05 0)
(0.00112914 -1.0019e-05 0)
(0.00112728 -8.97067e-06 0)
(0.00112545 -8.01685e-06 0)
(0.00112365 -7.15417e-06 0)
(0.00112187 -6.37887e-06 0)
(0.00112012 -5.68737e-06 0)
(0.0011184 -5.07532e-06 0)
(0.0011167 -4.53802e-06 0)
(0.00111502 -4.0709e-06 0)
(0.00111337 -3.66952e-06 0)
(0.00111173 -3.32957e-06 0)
(0.00111012 -3.04687e-06 0)
(0.00110854 -2.81743e-06 0)
(0.00110698 -2.63744e-06 0)
(0.00110544 -2.50322e-06 0)
(0.00110393 -2.41108e-06 0)
(0.00110244 -2.35721e-06 0)
(0.00110099 -2.33786e-06 0)
(0.00109956 -2.34914e-06 0)
(0.00109816 -2.38764e-06 0)
(0.00109679 -2.44991e-06 0)
(0.00109546 -2.53344e-06 0)
(0.00109416 -2.63564e-06 0)
(0.00109289 -2.7552e-06 0)
(0.00109166 -2.89017e-06 0)
(0.00109046 -3.04007e-06 0)
(0.0010893 -3.20252e-06 0)
(0.00108819 -3.37706e-06 0)
(0.00108711 -3.55964e-06 0)
(0.00108609 -3.74957e-06 0)
(0.00108511 -3.94041e-06 0)
(0.00108418 -4.13202e-06 0)
(0.00108331 -4.31561e-06 0)
(0.00108249 -4.49417e-06 0)
(0.00108173 -4.65627e-06 0)
(0.001081 -4.80874e-06 0)
(0.00108034 -4.93697e-06 0)
(0.00107971 -5.05389e-06 0)
(0.00107913 -5.14129e-06 0)
(0.00107857 -5.21935e-06 0)
(0.00107806 -5.26612e-06 0)
(0.00107755 -5.30854e-06 0)
(0.00107711 -5.32155e-06 0)
(0.00107663 -5.33554e-06 0)
(0.00107625 -5.32537e-06 0)
(0.00107579 -5.31829e-06 0)
(0.00107546 -5.2965e-06 0)
(0.00107503 -5.2739e-06 0)
(0.00107476 -5.25292e-06 0)
(0.00107435 -5.22001e-06 0)
(0.00107416 -5.21496e-06 0)
(0.00107378 -5.17881e-06 0)
(0.00107367 -5.20797e-06 0)
(0.00107332 -5.17712e-06 0)
(0.0010733 -5.25937e-06 0)
(0.00107298 -5.24062e-06 0)
(0.00107307 -5.39188e-06 0)
(0.0010728 -5.38702e-06 0)
(0.00107299 -5.61855e-06 0)
(0.00107278 -5.62377e-06 0)
(0.00107308 -5.94252e-06 0)
(0.00107296 -5.94989e-06 0)
(0.00107336 -6.35873e-06 0)
(0.00124018 -5.67114e-05 0)
(0.0012354 -5.46311e-05 0)
(0.0012308 -5.24381e-05 0)
(0.00122638 -5.0156e-05 0)
(0.00122214 -4.78067e-05 0)
(0.00121806 -4.54105e-05 0)
(0.00121416 -4.29864e-05 0)
(0.00121041 -4.05516e-05 0)
(0.00120681 -3.81221e-05 0)
(0.00120336 -3.57117e-05 0)
(0.00120003 -3.33329e-05 0)
(0.00119683 -3.09974e-05 0)
(0.00119374 -2.87155e-05 0)
(0.00119076 -2.64968e-05 0)
(0.00118788 -2.43502e-05 0)
(0.00118509 -2.22821e-05 0)
(0.00118239 -2.02961e-05 0)
(0.00117976 -1.83963e-05 0)
(0.0011772 -1.6586e-05 0)
(0.0011747 -1.48673e-05 0)
(0.00117226 -1.32432e-05 0)
(0.00116987 -1.1716e-05 0)
(0.00116752 -1.02868e-05 0)
(0.00116522 -8.95355e-06 0)
(0.00116296 -7.71613e-06 0)
(0.00116073 -6.57434e-06 0)
(0.00115854 -5.52578e-06 0)
(0.00115638 -4.5675e-06 0)
(0.00115424 -3.69656e-06 0)
(0.00115213 -2.91006e-06 0)
(0.00115004 -2.20501e-06 0)
(0.00114797 -1.57778e-06 0)
(0.00114592 -1.02521e-06 0)
(0.0011439 -5.44332e-07 0)
(0.00114189 -1.31831e-07 0)
(0.00113991 2.16042e-07 0)
(0.00113794 5.03184e-07 0)
(0.00113599 7.33451e-07 0)
(0.00113406 9.10516e-07 0)
(0.00113216 1.03786e-06 0)
(0.00113027 1.11885e-06 0)
(0.0011284 1.15667e-06 0)
(0.00112655 1.1546e-06 0)
(0.00112473 1.11592e-06 0)
(0.00112293 1.04431e-06 0)
(0.00112115 9.43201e-07 0)
(0.0011194 8.16431e-07 0)
(0.00111768 6.66742e-07 0)
(0.00111599 4.97172e-07 0)
(0.00111432 3.0868e-07 0)
(0.00111269 1.03062e-07 0)
(0.00111109 -1.2067e-07 0)
(0.00110952 -3.60914e-07 0)
(0.00110798 -6.19523e-07 0)
(0.00110648 -8.92712e-07 0)
(0.00110501 -1.182e-06 0)
(0.00110359 -1.47923e-06 0)
(0.00110221 -1.78607e-06 0)
(0.00110088 -2.08886e-06 0)
(0.0010996 -2.39088e-06 0)
(0.00109838 -2.67321e-06 0)
(0.0010972 -2.94516e-06 0)
(0.00109608 -3.18303e-06 0)
(0.001095 -3.40464e-06 0)
(0.001094 -3.58235e-06 0)
(0.00109301 -3.7439e-06 0)
(0.00109209 -3.85914e-06 0)
(0.00109117 -3.96386e-06 0)
(0.00109033 -4.02832e-06 0)
(0.00108945 -4.08942e-06 0)
(0.00108869 -4.12412e-06 0)
(0.00108784 -4.15788e-06 0)
(0.00108714 -4.18602e-06 0)
(0.00108632 -4.20604e-06 0)
(0.00108571 -4.2506e-06 0)
(0.00108493 -4.26772e-06 0)
(0.00108441 -4.34963e-06 0)
(0.00108368 -4.372e-06 0)
(0.00108329 -4.51105e-06 0)
(0.00108262 -4.54533e-06 0)
(0.00108237 -4.75995e-06 0)
(0.00108179 -4.80926e-06 0)
(0.0010817 -5.11549e-06 0)
(0.00108121 -5.17619e-06 0)
(0.00108128 -5.58776e-06 0)
(0.00108092 -5.64778e-06 0)
(0.00108115 -6.17754e-06 0)
(0.00108094 -6.21802e-06 0)
(0.0010813 -6.87917e-06 0)
(0.00128592 -4.70418e-05 0)
(0.0012818 -4.52947e-05 0)
(0.00127779 -4.34295e-05 0)
(0.00127389 -4.14665e-05 0)
(0.00127009 -3.94251e-05 0)
(0.0012664 -3.73233e-05 0)
(0.00126279 -3.5179e-05 0)
(0.00125928 -3.30084e-05 0)
(0.00125586 -3.08266e-05 0)
(0.00125251 -2.86489e-05 0)
(0.00124924 -2.64883e-05 0)
(0.00124604 -2.43547e-05 0)
(0.00124289 -2.22587e-05 0)
(0.00123981 -2.02092e-05 0)
(0.00123677 -1.82121e-05 0)
(0.00123378 -1.62779e-05 0)
(0.00123084 -1.44164e-05 0)
(0.00122795 -1.26324e-05 0)
(0.00122509 -1.09318e-05 0)
(0.00122226 -9.31231e-06 0)
(0.00121945 -7.77494e-06 0)
(0.00121667 -6.32531e-06 0)
(0.00121391 -4.96548e-06 0)
(0.00121118 -3.69647e-06 0)
(0.00120847 -2.5168e-06 0)
(0.00120577 -1.42527e-06 0)
(0.0012031 -4.21736e-07 0)
(0.00120044 4.9446e-07 0)
(0.0011978 1.32523e-06 0)
(0.00119518 2.0733e-06 0)
(0.00119257 2.74152e-06 0)
(0.00118998 3.33318e-06 0)
(0.0011874 3.85092e-06 0)
(0.00118483 4.29726e-06 0)
(0.00118228 4.67508e-06 0)
(0.00117974 4.98769e-06 0)
(0.00117722 5.23863e-06 0)
(0.00117471 5.43151e-06 0)
(0.00117222 5.56993e-06 0)
(0.00116974 5.65745e-06 0)
(0.00116728 5.69747e-06 0)
(0.00116485 5.69307e-06 0)
(0.00116242 5.64724e-06 0)
(0.00116002 5.56271e-06 0)
(0.00115764 5.44263e-06 0)
(0.00115528 5.28991e-06 0)
(0.00115293 5.10833e-06 0)
(0.00115062 4.90076e-06 0)
(0.00114832 4.67112e-06 0)
(0.00114605 4.42099e-06 0)
(0.00114381 4.15338e-06 0)
(0.00114159 3.86712e-06 0)
(0.0011394 3.56434e-06 0)
(0.00113724 3.24105e-06 0)
(0.0011351 2.90085e-06 0)
(0.00113299 2.53836e-06 0)
(0.0011309 2.16237e-06 0)
(0.00112885 1.76679e-06 0)
(0.00112682 1.36878e-06 0)
(0.00112483 9.60919e-07 0)
(0.00112288 5.69601e-07 0)
(0.00112097 1.80985e-07 0)
(0.00111911 -1.70281e-07 0)
(0.00111729 -5.08231e-07 0)
(0.00111554 -7.9215e-07 0)
(0.00111381 -1.0586e-06 0)
(0.00111216 -1.26454e-06 0)
(0.00111052 -1.45665e-06 0)
(0.00110899 -1.59565e-06 0)
(0.00110743 -1.72872e-06 0)
(0.001106 -1.83031e-06 0)
(0.00110451 -1.9301e-06 0)
(0.00110319 -2.03262e-06 0)
(0.00110176 -2.1246e-06 0)
(0.00110055 -2.26385e-06 0)
(0.0010992 -2.36614e-06 0)
(0.00109813 -2.57253e-06 0)
(0.00109686 -2.69637e-06 0)
(0.00109595 -2.99427e-06 0)
(0.00109479 -3.14392e-06 0)
(0.00109405 -3.55272e-06 0)
(0.00109302 -3.72416e-06 0)
(0.00109247 -4.25897e-06 0)
(0.00109161 -4.43674e-06 0)
(0.00109124 -5.11439e-06 0)
(0.00109059 -5.27224e-06 0)
(0.00109037 -6.11224e-06 0)
(0.00109 -6.21163e-06 0)
(0.00108986 -7.2402e-06 0)
(0.00135843 -3.86304e-05 0)
(0.00135443 -3.70527e-05 0)
(0.00135049 -3.53508e-05 0)
(0.0013466 -3.35433e-05 0)
(0.00134276 -3.16488e-05 0)
(0.00133897 -2.96851e-05 0)
(0.00133523 -2.76685e-05 0)
(0.00133154 -2.56157e-05 0)
(0.00132789 -2.35423e-05 0)
(0.00132429 -2.14606e-05 0)
(0.00132073 -1.93851e-05 0)
(0.00131721 -1.73307e-05 0)
(0.00131372 -1.53062e-05 0)
(0.00131028 -1.33252e-05 0)
(0.00130687 -1.13946e-05 0)
(0.00130348 -9.51023e-06 0)
(0.0013001 -7.6854e-06 0)
(0.00129675 -5.93349e-06 0)
(0.00129344 -4.25678e-06 0)
(0.00129015 -2.6631e-06 0)
(0.00128689 -1.15727e-06 0)
(0.00128363 2.62062e-07 0)
(0.00128039 1.5961e-06 0)
(0.00127717 2.84211e-06 0)
(0.00127397 3.99948e-06 0)
(0.00127078 5.06954e-06 0)
(0.00126761 6.05267e-06 0)
(0.00126445 6.94929e-06 0)
(0.0012613 7.76061e-06 0)
(0.00125816 8.48868e-06 0)
(0.00125504 9.13603e-06 0)
(0.00125193 9.70487e-06 0)
(0.00124884 1.0198e-05 0)
(0.00124575 1.06186e-05 0)
(0.00124268 1.097e-05 0)
(0.00123962 1.12556e-05 0)
(0.00123657 1.14787e-05 0)
(0.00123353 1.16426e-05 0)
(0.00123051 1.17506e-05 0)
(0.0012275 1.18062e-05 0)
(0.00122451 1.18126e-05 0)
(0.00122153 1.1773e-05 0)
(0.00121856 1.16907e-05 0)
(0.00121561 1.15687e-05 0)
(0.00121267 1.141e-05 0)
(0.00120975 1.12171e-05 0)
(0.00120684 1.09931e-05 0)
(0.00120395 1.07399e-05 0)
(0.00120107 1.04613e-05 0)
(0.00119821 1.01584e-05 0)
(0.00119536 9.83601e-06 0)
(0.00119254 9.49356e-06 0)
(0.00118973 9.13638e-06 0)
(0.00118694 8.76069e-06 0)
(0.00118417 8.37302e-06 0)
(0.00118141 7.9651e-06 0)
(0.00117867 7.54752e-06 0)
(0.00117594 7.10787e-06 0)
(0.00117322 6.66495e-06 0)
(0.00117051 6.20109e-06 0)
(0.00116781 5.74695e-06 0)
(0.00116514 5.27879e-06 0)
(0.00116248 4.84018e-06 0)
(0.00115985 4.3975e-06 0)
(0.00115726 4.00456e-06 0)
(0.0011547 3.61573e-06 0)
(0.00115219 3.28861e-06 0)
(0.00114972 2.96829e-06 0)
(0.00114732 2.70563e-06 0)
(0.00114495 2.44797e-06 0)
(0.00114268 2.22412e-06 0)
(0.00114041 2.00558e-06 0)
(0.00113827 1.77732e-06 0)
(0.00113613 1.56728e-06 0)
(0.00113414 1.28853e-06 0)
(0.00113212 1.06208e-06 0)
(0.0011303 6.92317e-07 0)
(0.00112842 4.33945e-07 0)
(0.00112676 -5.9247e-08 0)
(0.00112506 -3.54225e-07 0)
(0.00112357 -9.96477e-07 0)
(0.00112207 -1.31986e-06 0)
(0.00112072 -2.13251e-06 0)
(0.00111945 -2.45901e-06 0)
(0.0011182 -3.45988e-06 0)
(0.00111724 -3.74283e-06 0)
(0.00111602 -4.95465e-06 0)
(0.00111546 -5.132e-06 0)
(0.00111415 -6.58743e-06 0)
(0.00141684 -2.9735e-05 0)
(0.0014125 -2.82416e-05 0)
(0.0014082 -2.66252e-05 0)
(0.00140396 -2.49043e-05 0)
(0.00139977 -2.30962e-05 0)
(0.00139564 -2.12179e-05 0)
(0.00139157 -1.92869e-05 0)
(0.00138756 -1.73172e-05 0)
(0.00138361 -1.53232e-05 0)
(0.00137972 -1.33222e-05 0)
(0.00137588 -1.13198e-05 0)
(0.0013721 -9.32535e-06 0)
(0.00136837 -7.35931e-06 0)
(0.00136469 -5.43018e-06 0)
(0.00136109 -3.54949e-06 0)
(0.00135756 -1.73214e-06 0)
(0.00135405 2.1473e-08 0)
(0.00135058 1.70934e-06 0)
(0.00134715 3.32814e-06 0)
(0.00134376 4.86728e-06 0)
(0.0013404 6.3217e-06 0)
(0.0013371 7.69374e-06 0)
(0.00133384 8.98292e-06 0)
(0.00133061 1.01877e-05 0)
(0.00132741 1.13059e-05 0)
(0.00132424 1.23372e-05 0)
(0.0013211 1.3283e-05 0)
(0.00131799 1.41449e-05 0)
(0.0013149 1.4924e-05 0)
(0.00131183 1.56221e-05 0)
(0.00130879 1.62411e-05 0)
(0.00130576 1.67834e-05 0)
(0.00130275 1.72517e-05 0)
(0.00129976 1.76492e-05 0)
(0.00129678 1.79787e-05 0)
(0.00129381 1.82435e-05 0)
(0.00129086 1.84466e-05 0)
(0.00128792 1.85912e-05 0)
(0.00128498 1.86805e-05 0)
(0.00128206 1.87177e-05 0)
(0.00127914 1.87059e-05 0)
(0.00127623 1.86482e-05 0)
(0.00127333 1.85478e-05 0)
(0.00127043 1.84075e-05 0)
(0.00126754 1.82306e-05 0)
(0.00126465 1.80193e-05 0)
(0.00126176 1.77773e-05 0)
(0.00125888 1.75059e-05 0)
(0.00125599 1.72091e-05 0)
(0.00125312 1.68871e-05 0)
(0.00125024 1.65448e-05 0)
(0.00124736 1.61805e-05 0)
(0.00124448 1.58013e-05 0)
(0.0012416 1.54023e-05 0)
(0.00123873 1.49937e-05 0)
(0.00123585 1.4566e-05 0)
(0.00123297 1.41345e-05 0)
(0.00123009 1.36829e-05 0)
(0.0012272 1.32341e-05 0)
(0.00122431 1.27636e-05 0)
(0.0012214 1.23054e-05 0)
(0.00121849 1.18254e-05 0)
(0.00121557 1.13702e-05 0)
(0.00121266 1.08954e-05 0)
(0.00120974 1.04584e-05 0)
(0.00120685 1.00057e-05 0)
(0.00120394 9.59796e-06 0)
(0.00120109 9.17882e-06 0)
(0.00119824 8.79916e-06 0)
(0.00119546 8.4133e-06 0)
(0.00119269 8.04212e-06 0)
(0.00119003 7.67493e-06 0)
(0.00118736 7.27667e-06 0)
(0.00118483 6.90542e-06 0)
(0.00118228 6.43681e-06 0)
(0.00117992 6.04067e-06 0)
(0.0011775 5.46378e-06 0)
(0.00117532 5.03493e-06 0)
(0.00117302 4.32206e-06 0)
(0.00117105 3.86731e-06 0)
(0.00116884 2.99627e-06 0)
(0.00116711 2.53448e-06 0)
(0.00116492 1.48057e-06 0)
(0.00116348 1.04296e-06 0)
(0.00116126 -2.19402e-07 0)
(0.00116017 -5.81877e-07 0)
(0.00115779 -2.08306e-06 0)
(0.00115716 -2.3037e-06 0)
(0.00115446 -4.07921e-06 0)
(0.00140801 -1.9823e-05 0)
(0.00140354 -1.84418e-05 0)
(0.00139915 -1.69492e-05 0)
(0.00139484 -1.53616e-05 0)
(0.00139062 -1.36944e-05 0)
(0.0013865 -1.19638e-05 0)
(0.00138248 -1.01851e-05 0)
(0.00137856 -8.3717e-06 0)
(0.00137475 -6.5371e-06 0)
(0.00137104 -4.69296e-06 0)
(0.00136746 -2.85482e-06 0)
(0.00136398 -1.03575e-06 0)
(0.00136058 7.55361e-07 0)
(0.0013573 2.51446e-06 0)
(0.00135409 4.23065e-06 0)
(0.00135097 5.88529e-06 0)
(0.00134797 7.47908e-06 0)
(0.00134506 9.01442e-06 0)
(0.00134225 1.04829e-05 0)
(0.00133951 1.18829e-05 0)
(0.00133686 1.3214e-05 0)
(0.0013343 1.44713e-05 0)
(0.0013318 1.56509e-05 0)
(0.00132938 1.67518e-05 0)
(0.00132701 1.77738e-05 0)
(0.00132471 1.8717e-05 0)
(0.00132246 1.95818e-05 0)
(0.00132026 2.03692e-05 0)
(0.00131811 2.10806e-05 0)
(0.001316 2.17174e-05 0)
(0.00131393 2.22815e-05 0)
(0.0013119 2.2775e-05 0)
(0.00130989 2.32003e-05 0)
(0.00130791 2.35602e-05 0)
(0.00130595 2.38574e-05 0)
(0.00130401 2.40946e-05 0)
(0.00130209 2.42747e-05 0)
(0.00130018 2.44007e-05 0)
(0.00129827 2.44755e-05 0)
(0.00129638 2.4502e-05 0)
(0.00129448 2.44833e-05 0)
(0.00129259 2.44223e-05 0)
(0.0012907 2.43218e-05 0)
(0.0012888 2.41844e-05 0)
(0.0012869 2.40133e-05 0)
(0.00128499 2.38106e-05 0)
(0.00128307 2.35794e-05 0)
(0.00128114 2.33212e-05 0)
(0.00127919 2.30397e-05 0)
(0.00127723 2.27349e-05 0)
(0.00127526 2.2412e-05 0)
(0.00127327 2.20687e-05 0)
(0.00127125 2.17124e-05 0)
(0.00126922 2.13375e-05 0)
(0.00126717 2.0955e-05 0)
(0.0012651 2.05546e-05 0)
(0.001263 2.01528e-05 0)
(0.00126089 1.97325e-05 0)
(0.00125873 1.93177e-05 0)
(0.00125657 1.88829e-05 0)
(0.00125436 1.84612e-05 0)
(0.00125216 1.80179e-05 0)
(0.00124989 1.75955e-05 0)
(0.00124765 1.71505e-05 0)
(0.00124533 1.67321e-05 0)
(0.00124306 1.62914e-05 0)
(0.00124069 1.58762e-05 0)
(0.00123842 1.54409e-05 0)
(0.00123602 1.50184e-05 0)
(0.00123378 1.45819e-05 0)
(0.00123138 1.41296e-05 0)
(0.00122919 1.36776e-05 0)
(0.0012268 1.31635e-05 0)
(0.00122471 1.26791e-05 0)
(0.00122233 1.20689e-05 0)
(0.00122036 1.15412e-05 0)
(0.001218 1.08061e-05 0)
(0.00121618 1.02371e-05 0)
(0.00121381 9.35756e-06 0)
(0.00121216 8.76589e-06 0)
(0.00120975 7.72941e-06 0)
(0.00120831 7.14855e-06 0)
(0.00120578 5.94393e-06 0)
(0.00120459 5.41759e-06 0)
(0.00120187 4.02578e-06 0)
(0.00120097 3.60381e-06 0)
(0.00119794 2.00023e-06 0)
(0.00119743 1.74808e-06 0)
(0.00119393 -9.64461e-08 0)
(0.00130611 -1.00342e-05 0)
(0.00130209 -8.85026e-06 0)
(0.00129819 -7.57764e-06 0)
(0.00129441 -6.22893e-06 0)
(0.00129077 -4.81899e-06 0)
(0.00128727 -3.35923e-06 0)
(0.00128392 -1.85987e-06 0)
(0.00128072 -3.37149e-07 0)
(0.00127769 1.19873e-06 0)
(0.00127481 2.74063e-06 0)
(0.00127207 4.26905e-06 0)
(0.00126949 5.77436e-06 0)
(0.00126708 7.25913e-06 0)
(0.00126483 8.71364e-06 0)
(0.00126272 1.0132e-05 0)
(0.00126078 1.15174e-05 0)
(0.00125899 1.28602e-05 0)
(0.00125735 1.41504e-05 0)
(0.00125584 1.53843e-05 0)
(0.00125446 1.65605e-05 0)
(0.00125321 1.76759e-05 0)
(0.00125208 1.87268e-05 0)
(0.00125107 1.97109e-05 0)
(0.00125016 2.06282e-05 0)
(0.00124935 2.1479e-05 0)
(0.00124864 2.2263e-05 0)
(0.00124801 2.29805e-05 0)
(0.00124747 2.36324e-05 0)
(0.001247 2.422e-05 0)
(0.00124659 2.47449e-05 0)
(0.00124625 2.52088e-05 0)
(0.00124596 2.56135e-05 0)
(0.00124571 2.59611e-05 0)
(0.00124551 2.62541e-05 0)
(0.00124534 2.64947e-05 0)
(0.00124521 2.66854e-05 0)
(0.00124509 2.68284e-05 0)
(0.001245 2.69265e-05 0)
(0.00124492 2.69821e-05 0)
(0.00124484 2.69977e-05 0)
(0.00124478 2.69759e-05 0)
(0.00124471 2.69191e-05 0)
(0.00124464 2.68298e-05 0)
(0.00124456 2.67103e-05 0)
(0.00124446 2.65631e-05 0)
(0.00124436 2.63902e-05 0)
(0.00124423 2.61941e-05 0)
(0.00124409 2.59762e-05 0)
(0.00124391 2.57396e-05 0)
(0.00124372 2.54844e-05 0)
(0.00124349 2.52147e-05 0)
(0.00124324 2.49292e-05 0)
(0.00124294 2.46335e-05 0)
(0.00124262 2.43237e-05 0)
(0.00124226 2.40083e-05 0)
(0.00124186 2.36796e-05 0)
(0.00124142 2.33501e-05 0)
(0.00124095 2.30071e-05 0)
(0.00124042 2.2668e-05 0)
(0.00123987 2.23142e-05 0)
(0.00123925 2.19689e-05 0)
(0.00123863 2.16072e-05 0)
(0.00123791 2.12576e-05 0)
(0.00123721 2.08898e-05 0)
(0.0012364 2.05343e-05 0)
(0.00123565 2.01595e-05 0)
(0.00123474 1.9791e-05 0)
(0.00123394 1.94036e-05 0)