/*--------------------------------*- C++ -*----------------------------------*\
| =========                 |                                                 |
| \\      /  F ield         | OpenFOAM: The Open Source CFD Toolbox           |
|  \\    /   O peration     | Version:  2312                                  |
|   \\  /    A nd           | Website:  www.openfoam.com                      |
|    \\/     M anipulation  |                                                 |
\*---------------------------------------------------------------------------*/
FoamFile
{
    version     2.0;
    format      ascii;
    arch        "LSB;label=32;scalar=64";
    class       surfaceScalarField;
    location    "109000";
    object      phi;
}
// * * * * * * * * * * * * * * * * * * * * * * * * * * * * * * * * * * * * * //

dimensions      [0 3 -1 0 0 0 0];

oriented        oriented;

internalField   nonuniform List<scalar> 
21240
(
0.000664974
1.69221e-06
0.000661072
3.9023e-06
0.000655751
5.32071e-06
0.000649515
6.23621e-06
0.00064264
6.8749e-06
0.000635269
7.37147e-06
0.000627492
7.77639e-06
0.00061939
8.10272e-06
0.000611033
8.35646e-06
0.000602487
8.5466e-06
0.000593801
8.68545e-06
0.000585016
8.78529e-06
0.00057616
8.85576e-06
0.000567257
8.90319e-06
0.000558326
8.93137e-06
0.000549383
8.94278e-06
0.000540444
8.93924e-06
0.000531521
8.92231e-06
0.000522628
8.89332e-06
0.000513775
8.85335e-06
0.000504971
8.80319e-06
0.000496228
8.74346e-06
0.000487553
8.67455e-06
0.000478957
8.59677e-06
0.000470446
8.51033e-06
0.000462031
8.41536e-06
0.000453719
8.31198e-06
0.000445519
8.20019e-06
0.000437439
8.08012e-06
0.000429487
7.95162e-06
0.000421672
7.81492e-06
0.000414003
7.66964e-06
0.000406486
7.5163e-06
0.000399132
7.35413e-06
0.000391948
7.18421e-06
0.000384943
7.00503e-06
0.000378124
6.81875e-06
0.000371502
6.62243e-06
0.000365081
6.42029e-06
0.000358875
6.20666e-06
0.000352885
5.98954e-06
0.000347127
5.75819e-06
0.000341599
5.52756e-06
0.000336322
5.27751e-06
0.000331286
5.03566e-06
0.000326522
4.7646e-06
0.000322007
4.51514e-06
0.000317789
4.21791e-06
0.000313822
3.9666e-06
0.00031019
3.63181e-06
0.000306801
3.38898e-06
0.000303811
2.99024e-06
0.000301032
2.77878e-06
0.000298784
2.24833e-06
0.000296656
2.12804e-06
0.000295403
1.25302e-06
0.000293917
1.48538e-06
0.000294121
-2.03297e-07
0.000292954
1.16699e-06
-3.19884e-06
0.000296153
0.000667556
8.02891e-07
0.000669121
2.3377e-06
0.000670854
3.58716e-06
0.000672525
4.56509e-06
0.000674054
5.3459e-06
0.000675427
5.99835e-06
0.00067664
6.5641e-06
0.000677681
7.06153e-06
0.00067854
7.49771e-06
0.000679209
7.87708e-06
0.000679689
8.20525e-06
0.000679985
8.48915e-06
0.000680105
8.7358e-06
0.000680058
8.95104e-06
0.00067985
9.13921e-06
0.000679489
9.30322e-06
0.000678983
9.44523e-06
0.000678339
9.56679e-06
0.000677563
9.66937e-06
0.000676662
9.75402e-06
0.000675643
9.82185e-06
0.000674513
9.87341e-06
0.000673279
9.90953e-06
0.000671945
9.93026e-06
0.000670519
9.93634e-06
0.000669007
9.92736e-06
0.000667415
9.9042e-06
0.000665749
9.86591e-06
0.000664015
9.81379e-06
0.000662221
9.74613e-06
0.000660371
9.66502e-06
0.000658473
9.56758e-06
0.000656532
9.45731e-06
0.000654557
9.32945e-06
0.000652551
9.18987e-06
0.000650525
9.03074e-06
0.000648482
8.86192e-06
0.000646434
8.67048e-06
0.000644381
8.47288e-06
0.00064234
8.24774e-06
0.000640307
8.02247e-06
0.000638304
7.76169e-06
0.000636321
7.51085e-06
0.000634387
7.21142e-06
0.000632484
6.93871e-06
0.000630652
6.5958e-06
0.00062886
6.30733e-06
0.000627165
5.91299e-06
0.000625513
5.61884e-06
0.000623985
5.16009e-06
0.000622497
4.87672e-06
0.000621154
4.33292e-06
0.000619846
4.08694e-06
0.000618667
3.42708e-06
0.000617536
3.25973e-06
0.000616345
2.44386e-06
0.000615419
2.4108e-06
0.000613796
1.42032e-06
0.000613391
1.57216e-06
4.75672e-07
0.000609716
0.000666951
5.18559e-07
0.000667819
1.46993e-06
0.000669059
2.34701e-06
0.000670484
3.13987e-06
0.000671986
3.84438e-06
0.000673516
4.46817e-06
0.000675056
5.02346e-06
0.000676597
5.52137e-06
0.000678125
5.9697e-06
0.000679628
6.37336e-06
0.000681098
6.73589e-06
0.000682526
7.06055e-06
0.000683911
7.35087e-06
0.000685252
7.61032e-06
0.000686549
7.84217e-06
0.000687803
8.04905e-06
0.000689015
8.23318e-06
0.000690186
8.39611e-06
0.000691316
8.53933e-06
0.000692406
8.66372e-06
0.000693458
8.77046e-06
0.000694471
8.85996e-06
0.000695447
8.93321e-06
0.000696388
8.99014e-06
0.000697292
9.0317e-06
0.000698162
9.05729e-06
0.000698998
9.06803e-06
0.000699802
9.06267e-06
0.000700573
9.04279e-06
0.000701312
9.00633e-06
0.000702022
8.95561e-06
0.000702702
8.88743e-06
0.000703354
8.80537e-06
0.000703979
8.70456e-06
0.000704578
8.59053e-06
0.000705153
8.45597e-06
0.000705706
8.30932e-06
0.000706236
8.13972e-06
0.000706749
7.95991e-06
0.000707243
7.75386e-06
0.000707725
7.54059e-06
0.00070819
7.29661e-06
0.000708651
7.04992e-06
0.000709096
6.76651e-06
0.000709548
6.48689e-06
0.000709981
6.16266e-06
0.000710437
5.85122e-06
0.000710865
5.4852e-06
0.00071134
5.14363e-06
0.000711764
4.73574e-06
0.000712275
4.36611e-06
0.000712689
3.9184e-06
0.000713254
3.52267e-06
0.000713638
3.04241e-06
0.000714276
2.62205e-06
0.00071459
2.12951e-06
0.000715317
1.68469e-06
0.000715507
1.22993e-06
0.00071633
7.4951e-07
4.34388e-07
0.000716371
0.000666854
3.31367e-07
0.000667309
1.01505e-06
0.000667972
1.68351e-06
0.000668796
2.31602e-06
0.000669737
2.90341e-06
0.000670762
3.44274e-06
0.00067185
3.9356e-06
0.000672986
4.38562e-06
0.000674159
4.79673e-06
0.00067536
5.17214e-06
0.000676582
5.51437e-06
0.000677817
5.82547e-06
0.00067906
6.10741e-06
0.000680308
6.36217e-06
0.000681559
6.59177e-06
0.00068281
6.79803e-06
0.00068406
6.98264e-06
0.00068531
7.1469e-06
0.000686557
7.29202e-06
0.000687802
7.41886e-06
0.000689044
7.52829e-06
0.000690283
7.62082e-06
0.000691519
7.69713e-06
0.000692752
7.75745e-06
0.000693981
7.8023e-06
0.000695207
7.83164e-06
0.000696429
7.84589e-06
0.000697647
7.84477e-06
0.000698861
7.82864e-06
0.00070007
7.79705e-06
0.000701276
7.75028e-06
0.000702475
7.68777e-06
0.000703671
7.60973e-06
0.00070486
7.51557e-06
0.000706045
7.40533e-06
0.000707223
7.2786e-06
0.000708397
7.13499e-06
0.000709562
6.97472e-06
0.000710725
6.79637e-06
0.000711878
6.60161e-06
0.000713031
6.38695e-06
0.000714171
6.15696e-06
0.000715317
5.90414e-06
0.000716445
5.63862e-06
0.000717586
5.3454e-06
0.000718704
5.04481e-06
0.000719847
4.70832e-06
0.000720958
4.37454e-06
0.00072211
3.99114e-06
0.000723217
3.62879e-06
0.000724389
3.19398e-06
0.000725495
2.81249e-06
0.000726697
2.3205e-06
0.000727803
1.93669e-06
0.000729046
1.37891e-06
0.000730155
1.02077e-06
0.000731454
3.85408e-07
0.000732584
1.00144e-07
0.000734017
-6.83085e-07
-8.50971e-07
0.000735302
0.000666738
2.59582e-07
0.00066697
7.83647e-07
0.000667356
1.29697e-06
0.00066788
1.79255e-06
0.000668519
2.26449e-06
0.000669252
2.70919e-06
0.000670063
3.12521e-06
0.000670936
3.51261e-06
0.00067186
3.87227e-06
0.000672827
4.20533e-06
0.000673829
4.51286e-06
0.000674858
4.79584e-06
0.00067591
5.05521e-06
0.000676981
5.29194e-06
0.000678065
5.50705e-06
0.000679162
5.70157e-06
0.000680268
5.8765e-06
0.000681382
6.03273e-06
0.000682503
6.17103e-06
0.00068363
6.29211e-06
0.000684762
6.3965e-06
0.000685898
6.48474e-06
0.000687038
6.55715e-06
0.000688181
6.61416e-06
0.000689327
6.65585e-06
0.000690476
6.68263e-06
0.000691628
6.69432e-06
0.000692781
6.69134e-06
0.000693937
6.67318e-06
0.000695093
6.64045e-06
0.000696252
6.59216e-06
0.00069741
6.52933e-06
0.00069857
6.45025e-06
0.000699728
6.35668e-06
0.000700888
6.24581e-06
0.000702046
6.12067e-06
0.000703204
5.97666e-06
0.00070436
5.81901e-06
0.000705516
5.64022e-06
0.000706669
5.44914e-06
0.000707822
5.23356e-06
0.000708971
5.00829e-06
0.000710121
4.75353e-06
0.000711266
4.49377e-06
0.000712415
4.19694e-06
0.000713556
3.90317e-06
0.000714704
3.56061e-06
0.000715844
3.23435e-06
0.000716994
2.84077e-06
0.000718138
2.48471e-06
0.000719301
2.03175e-06
0.000720463
1.65039e-06
0.000721658
1.12541e-06
0.000722868
7.26774e-07
0.00072414
1.06554e-07
0.000725438
-2.7699e-07
0.000726801
-9.77205e-07
0.000728238
-1.33724e-06
0.000729751
-2.19568e-06
-2.50678e-06
0.000731406
0.000666724
2.02205e-07
0.000666899
6.08484e-07
0.000667184
1.01212e-06
0.00066757
1.4066e-06
0.000668046
1.78819e-06
0.000668602
2.15398e-06
0.000669225
2.50191e-06
0.000669907
2.83074e-06
0.000670639
3.13991e-06
0.000671415
3.42929e-06
0.000672229
3.69895e-06
0.000673076
3.94916e-06
0.000673951
4.18028e-06
0.00067485
4.39273e-06
0.00067577
4.58699e-06
0.000676708
4.76357e-06
0.000677661
4.92298e-06
0.000678628
5.06576e-06
0.000679607
5.19233e-06
0.000680596
5.3032e-06
0.000681594
5.39863e-06
0.0006826
5.47906e-06
0.000683612
5.54462e-06
0.000684631
5.59568e-06
0.000685654
5.63218e-06
0.000686682
5.65453e-06
0.000687714
5.6624e-06
0.000688749
5.65628e-06
0.000689787
5.63551e-06
0.000690827
5.60082e-06
0.000691868
5.55104e-06
0.00069291
5.48732e-06
0.000693952
5.4078e-06
0.000694995
5.31433e-06
0.000696036
5.204e-06
0.000697077
5.07983e-06
0.000698117
4.93725e-06
0.000699154
4.78124e-06
0.00070019
4.60464e-06
0.000701224
4.41553e-06
0.000702254
4.20272e-06
0.000703283
3.97918e-06
0.00070431
3.72742e-06
0.000705335
3.46814e-06
0.000706358
3.17391e-06
0.000707384
2.87767e-06
0.000708408
2.53659e-06
0.000709439
2.20294e-06
0.00071047
1.81013e-06
0.000711514
1.44077e-06
0.000712554
9.91123e-07
0.000713614
5.90841e-07
0.000714658
8.1704e-08
0.000715745
-3.60411e-07
0.000716825
-9.73254e-07
0.00071798
-1.43207e-06
0.000719148
-2.14596e-06
0.000720424
-2.613e-06
0.000721695
-3.46652e-06
-3.92105e-06
0.000723109
0.000666708
1.60435e-07
0.000666834
4.83149e-07
0.000667041
8.05086e-07
0.000667326
1.12168e-06
0.000667684
1.4304e-06
0.000668108
1.72911e-06
0.000668594
2.01608e-06
0.000669135
2.29007e-06
0.000669724
2.55033e-06
0.000670357
2.7965e-06
0.000671029
3.02722e-06
0.000671736
3.24259e-06
0.000672473
3.44274e-06
0.000673238
3.62778e-06
0.000674027
3.79781e-06
0.000674838
3.95303e-06
0.000675667
4.09363e-06
0.000676513
4.21987e-06
0.000677373
4.33193e-06
0.000678247
4.4301e-06
0.000679131
4.51447e-06
0.000680024
4.58532e-06
0.000680926
4.64265e-06
0.000681835
4.68671e-06
0.00068275
4.71738e-06
0.00068367
4.7349e-06
0.000684593
4.73899e-06
0.00068552
4.72996e-06
0.000686448
4.70726e-06
0.000687377
4.67136e-06
0.000688307
4.62135e-06
0.000689236
4.55798e-06
0.000690164
4.47982e-06
0.00069109
4.3881e-06
0.000692014
4.28063e-06
0.000692934
4.15941e-06
0.00069385
4.02112e-06
0.000694763
3.86901e-06
0.000695669
3.698e-06
0.000696571
3.51337e-06
0.000697467
3.30732e-06
0.000698358
3.08834e-06
0.000699241
2.84447e-06
0.000700119
2.58927e-06
0.000700989
2.30434e-06
0.000701856
2.01112e-06
0.000702711
1.68083e-06
0.000703567
1.34697e-06
0.000704413
9.64259e-07
0.000705269
5.8531e-07
0.000706121
1.3867e-07
0.000706994
-2.82231e-07
0.000707866
-7.90587e-07
0.000708765
-1.25914e-06
0.000709647
-1.85499e-06
0.000710586
-2.37105e-06
0.000711511
-3.07116e-06
0.000712529
-3.63092e-06
0.000713525
-4.46233e-06
-5.05481e-06
0.000714659
0.000666699
1.2836e-07
0.000666796
3.86214e-07
0.000666957
6.4385e-07
0.000667181
8.98073e-07
0.000667464
1.14714e-06
0.000667803
1.38952e-06
0.000668196
1.62388e-06
0.000668636
1.84914e-06
0.000669122
2.0644e-06
0.00066965
2.26894e-06
0.000670215
2.46214e-06
0.000670814
2.64359e-06
0.000671444
2.81306e-06
0.000672101
2.97045e-06
0.000672783
3.11567e-06
0.000673488
3.24872e-06
0.000674212
3.36957e-06
0.000674953
3.47828e-06
0.00067571
3.57488e-06
0.000676481
3.65944e-06
0.000677263
3.73198e-06
0.000678056
3.7926e-06
0.000678857
3.84125e-06
0.000679666
3.87801e-06
0.000680481
3.90278e-06
0.0006813
3.91564e-06
0.000682123
3.91634e-06
0.000682948
3.90502e-06
0.000683774
3.88127e-06
0.0006846
3.84525e-06
0.000685425
3.79639e-06
0.000686248
3.73493e-06
0.000687068
3.66001e-06
0.000687884
3.57209e-06
0.000688694
3.46988e-06
0.0006895
3.35418e-06
0.000690298
3.22309e-06
0.000691089
3.078e-06
0.000691871
2.91607e-06
0.000692644
2.73965e-06
0.000693407
2.54448e-06
0.000694161
2.3344e-06
0.000694902
2.10304e-06
0.000695635
1.85655e-06
0.000696354
1.58533e-06
0.000697066
1.29932e-06
0.000697763
9.84084e-07
0.000698454
6.55718e-07
0.000699125
2.92861e-07
0.000699791
-8.0148e-08
0.000700438
-5.08167e-07
0.000701095
-9.39301e-07
0.000701734
-1.42952e-06
0.000702392
-1.91726e-06
0.000703023
-2.48642e-06
0.000703691
-3.03855e-06
0.000704323
-3.70307e-06
0.000705015
-4.32375e-06
0.000705656
-5.10287e-06
-5.79219e-06
0.000706393
0.000666693
1.02149e-07
0.000666772
3.07247e-07
0.000666903
5.12359e-07
0.000667086
7.15152e-07
0.000667319
9.14397e-07
0.0006676
1.10897e-06
0.000667926
1.29787e-06
0.000668295
1.4802e-06
0.000668704
1.65519e-06
0.00066915
1.82219e-06
0.000669632
1.98069e-06
0.000670145
2.13025e-06
0.000670688
2.27053e-06
0.000671257
2.40128e-06
0.00067185
2.5223e-06
0.000672466
2.63346e-06
0.000673101
2.73463e-06
0.000673753
2.82575e-06
0.000674421
2.90674e-06
0.000675103
2.97756e-06
0.000675797
3.03815e-06
0.000676501
3.0885e-06
0.000677214
3.12852e-06
0.000677934
3.15819e-06
0.000678659
3.1774e-06
0.000679388
3.1861e-06
0.000680121
3.18413e-06
0.000680854
3.17141e-06
0.000681588
3.1477e-06
0.00068232
3.11293e-06
0.00068305
3.06675e-06
0.000683776
3.00907e-06
0.000684496
2.93942e-06
0.000685211
2.85771e-06
0.000685917
2.76332e-06
0.000686615
2.65617e-06
0.000687303
2.53543e-06
0.00068798
2.4011e-06
0.000688644
2.25206e-06
0.000689295
2.08843e-06
0.000689931
1.90869e-06
0.000690552
1.71321e-06
0.000691155
1.49991e-06
0.000691742
1.26954e-06
0.000692308
1.01925e-06
0.000692857
7.50368e-07
0.000693382
4.58886e-07
0.000693891
1.47364e-07
0.000694376
-1.92228e-07
0.000694852
-5.56112e-07
0.000695295
-9.50978e-07
0.000695726
-1.37107e-06
0.000696125
-1.82806e-06
0.00069652
-2.31245e-06
0.000696875
-2.84176e-06
0.000697238
-3.40089e-06
0.00069755
-4.01571e-06
0.000697888
-4.66145e-06
0.000698162
-5.37691e-06
-6.12039e-06
0.00069849
0.000666689
8.00461e-08
0.000666755
2.4074e-07
0.000666866
4.01552e-07
0.00066702
5.60754e-07
0.000667217
7.17456e-07
0.000667456
8.70837e-07
0.000667733
1.02014e-06
0.000668049
1.16468e-06
0.0006684
1.30385e-06
0.000668785
1.43711e-06
0.000669202
1.56399e-06
0.000669648
1.68411e-06
0.000670121
1.79712e-06
0.00067062
1.90274e-06
0.000671142
2.00073e-06
0.000671684
2.0909e-06
0.000672246
2.17308e-06
0.000672824
2.24714e-06
0.000673418
2.31296e-06
0.000674025
2.37043e-06
0.000674644
2.41946e-06
0.000675272
2.45996e-06
0.000675909
2.49183e-06
0.000676552
2.51498e-06
0.0006772
2.5293e-06
0.000677852
2.53465e-06
0.000678505
2.53094e-06
0.000679159
2.51797e-06
0.000679811
2.49561e-06
0.00068046
2.46361e-06
0.000681105
2.42183e-06
0.000681744
2.36991e-06
0.000682376
2.30771e-06
0.000682999
2.23474e-06
0.000683611
2.15088e-06
0.000684212
2.05545e-06
0.000684799
1.9484e-06
0.000685371
1.82876e-06
0.000685927
1.69664e-06
0.000686464
1.55066e-06
0.000686982
1.3912e-06
0.000687479
1.21624e-06
0.000687952
1.02672e-06
0.000688402
8.1964e-07
0.000688824
5.9696e-07
0.00068922
3.54243e-07
0.000689583
9.57967e-08
0.000689921
-1.90241e-07
0.000690225
-4.95668e-07
0.000690499
-8.30231e-07
0.000690731
-1.18351e-06
0.000690934
-1.57396e-06
0.000691089
-1.98314e-06
0.000691217
-2.43997e-06
0.000691288
-2.91348e-06
0.000691337
-3.44965e-06
0.000691319
-3.99713e-06
0.000691286
-4.62885e-06
0.000691169
-5.26002e-06
-6.0054e-06
0.000691054
0.000666686
6.08878e-08
0.000666743
1.83132e-07
0.000666839
3.05542e-07
0.000666973
4.26849e-07
0.000667144
5.46411e-07
0.000667352
6.63632e-07
0.000667594
7.77958e-07
0.00066787
8.88875e-07
0.000668178
9.95915e-07
0.000668516
1.09865e-06
0.000668883
1.19671e-06
0.000669278
1.28976e-06
0.000669697
1.37749e-06
0.00067014
1.45965e-06
0.000670605
1.53601e-06
0.00067109
1.60637e-06
0.000671592
1.67058e-06
0.000672111
1.72845e-06
0.000672644
1.77989e-06
0.00067319
1.82474e-06
0.000673746
1.8629e-06
0.000674312
1.89426e-06
0.000674885
1.91872e-06
0.000675464
1.93613e-06
0.000676047
1.94643e-06
0.000676632
1.94944e-06
0.000677218
1.94507e-06
0.000677803
1.9331e-06
0.000678385
1.91346e-06
0.000678962
1.88583e-06
0.000679534
1.85018e-06
0.000680098
1.80605e-06
0.000680652
1.75347e-06
0.000681195
1.69178e-06
0.000681725
1.62114e-06
0.00068224
1.54059e-06
0.000682738
1.45051e-06
0.000683217
1.34949e-06
0.000683675
1.2383e-06
0.000684111
1.11483e-06
0.000684522
9.80538e-07
0.000684906
8.32196e-07
0.00068526
6.7244e-07
0.000685583
4.96301e-07
0.000685872
3.08408e-07
0.000686125
1.01384e-07
0.00068634
-1.1948e-07
0.000686517
-3.66807e-07
0.000686647
-6.25519e-07
0.000686732
-9.15629e-07
0.000686764
-1.21588e-06
0.000686748
-1.55757e-06
0.00068667
-1.90553e-06
0.00068654
-2.30956e-06
0.000686338
-2.71192e-06
0.000686081
-3.1922e-06
0.00068574
-3.65592e-06
0.000685341
-4.2306e-06
0.000684843
-4.76155e-06
-5.45266e-06
0.00068429
0.000666684
4.38393e-08
0.000666735
1.31892e-07
0.00066682
2.20128e-07
0.00066694
3.07654e-07
0.000667092
3.94021e-07
0.000667277
4.78814e-07
0.000667493
5.6164e-07
0.00066774
6.42132e-07
0.000668016
7.1995e-07
0.00066832
7.94779e-07
0.00066865
8.66335e-07
0.000669005
9.34357e-07
0.000669384
9.98613e-07
0.000669785
1.05889e-06
0.000670206
1.115e-06
0.000670646
1.16678e-06
0.000671102
1.21407e-06
0.000671574
1.25674e-06
0.000672059
1.29466e-06
0.000672556
1.32772e-06
0.000673063
1.35582e-06
0.000673579
1.37884e-06
0.000674101
1.39669e-06
0.000674628
1.40923e-06
0.000675158
1.41641e-06
0.000675689
1.41805e-06
0.00067622
1.41411e-06
0.000676749
1.40434e-06
0.000677273
1.38873e-06
0.000677792
1.36696e-06
0.000678303
1.33906e-06
0.000678805
1.30457e-06
0.000679295
1.26361e-06
0.000679771
1.21551e-06
0.000680232
1.16055e-06
0.000680674
1.09775e-06
0.000681097
1.02766e-06
0.000681498
9.48807e-07
0.000681874
8.62221e-07
0.000682223
7.65659e-07
0.000682543
6.60943e-07
0.00068283
5.44633e-07
0.000683083
4.19885e-07
0.000683298
2.81411e-07
0.000683472
1.34692e-07
0.000683601
-2.8548e-08
0.000683686
-2.03535e-07
0.000683718
-3.99541e-07
0.000683695
-6.02588e-07
0.000683614
-8.34198e-07
0.000683468
-1.07036e-06
0.000683256
-1.34511e-06
0.000682969
-1.61898e-06
0.000682606
-1.94648e-06
0.000682157
-2.26298e-06
0.000681621
-2.65607e-06
0.000680985
-3.01998e-06
0.000680251
-3.49583e-06
0.000679399
-3.91015e-06
-4.49043e-06
0.000678437
0.000666682
2.82551e-08
0.000666729
8.50654e-08
0.000666807
1.42061e-07
0.000666916
1.98672e-07
0.000667056
2.54613e-07
0.000667225
3.09617e-07
0.000667423
3.63434e-07
0.000667649
4.15823e-07
0.000667903
4.66565e-07
0.000668182
5.15449e-07
0.000668486
5.62286e-07
0.000668813
6.06896e-07
0.000669163
6.49121e-07
0.000669533
6.8881e-07
0.000669922
7.25832e-07
0.000670329
7.6006e-07
0.000670752
7.91388e-07
0.000671189
8.19707e-07
0.000671638
8.4493e-07
0.000672099
8.66958e-07
0.000672569
8.85721e-07
0.000673047
9.01117e-07
0.000673531
9.13091e-07
0.000674018
9.2153e-07
0.000674508
9.26389e-07
0.000674999
9.27529e-07
0.000675488
9.24923e-07
0.000675974
9.18386e-07
0.000676455
9.07917e-07
0.000676928
8.93261e-07
0.000677393
8.74462e-07
0.000677846
8.51158e-07
0.000678287
8.23472e-07
0.000678711
7.90875e-07
0.000679118
7.5363e-07
0.000679505
7.10951e-07
0.000679869
6.63338e-07
0.000680208
6.09605e-07
0.00068052
5.50653e-07
0.000680801
4.84673e-07
0.000681049
4.13236e-07
0.00068126
3.33556e-07
0.000681431
2.48316e-07
0.00068156
1.53211e-07
0.000681641
5.28959e-08
0.000681674
-6.07092e-08
0.000681651
-1.8051e-07
0.000681567
-3.16303e-07
0.000681421
-4.56013e-07
0.000681204
-6.17236e-07
0.000680913
-7.79904e-07
0.00068054
-9.7211e-07
0.000680082
-1.16092e-06
0.000679527
-1.3914e-06
0.000678874
-1.60961e-06
0.000678106
-1.88821e-06
0.000677225
-2.13876e-06
0.000676208
-2.47884e-06
0.000675061
-2.76304e-06
-3.1819e-06
0.000673752
0.000666681
1.35988e-08
0.000666725
4.10343e-08
0.000666799
6.86502e-08
0.000666901
9.61679e-08
0.000667032
1.23447e-07
0.000667192
1.50357e-07
0.000667378
1.76773e-07
0.000667592
2.02575e-07
0.000667831
2.27653e-07
0.000668094
2.519e-07
0.000668381
2.75218e-07
0.000668691
2.97516e-07
0.000669021
3.18709e-07
0.000669371
3.38718e-07
0.000669739
3.57473e-07
0.000670125
3.74902e-07
0.000670525
3.9095e-07
0.000670939
4.05553e-07
0.000671365
4.18664e-07
0.000671802
4.30225e-07
0.000672248
4.40196e-07
0.0006727
4.48518e-07
0.000673158
4.5516e-07
0.00067362
4.60055e-07
0.000674083
4.63179e-07
0.000674546
4.64452e-07
0.000675007
4.63859e-07
0.000675464
4.61296e-07
0.000675915
4.56764e-07
0.000676358
4.50121e-07
0.000676791
4.41394e-07
0.000677212
4.30383e-07
0.000677619
4.1716e-07
0.000678008
4.01433e-07
0.000678378
3.83356e-07
0.000678727
3.62495e-07
0.000679051
3.39138e-07
0.000679348
3.12631e-07
0.000679615
2.83489e-07
0.000679849
2.50709e-07
0.000680047
2.15181e-07
0.000680205
1.75347e-07
0.000680321
1.32727e-07
0.000680389
8.49121e-08
0.000680408
3.45301e-08
0.000680369
-2.25686e-08
0.000680272
-8.30009e-08
0.000680107
-1.5188e-07
0.000679874
-2.22437e-07
0.000679561
-3.04561e-07
0.000679168
-3.86924e-07
0.000678681
-4.85259e-07
0.000678101
-5.81001e-07
0.00067741
-6.9946e-07
0.00067661
-8.10212e-07
0.000675676
-9.54128e-07
0.000674619
-1.08128e-06
0.000673398
-1.25796e-06
0.000672037
-1.40192e-06
-1.6209e-06
0.000670476
0.000666681
-6.02138e-10
0.000666724
-1.63242e-09
0.000666795
-2.48798e-09
0.000666894
-3.17381e-09
0.000667021
-3.69187e-09
0.000667176
-4.04568e-09
0.000667357
-4.23881e-09
0.000667563
-4.2759e-09
0.000667795
-4.16107e-09
0.000668051
-3.89795e-09
0.00066833
-3.49615e-09
0.00066863
-2.9575e-09
0.000668951
-2.28915e-09
0.000669291
-1.49694e-09
0.000669649
-5.86917e-10
0.000670024
4.28041e-10
0.000670413
1.54944e-09
0.000670816
2.76704e-09
0.000671231
4.07355e-09
0.000671656
5.46186e-09
0.000672089
6.92492e-09
0.000672529
8.45571e-09
0.000672974
1.00473e-08
0.000673422
1.16929e-08
0.000673872
1.33856e-08
0.000674321
1.5119e-08
0.000674768
1.68867e-08
0.000675211
1.86822e-08
0.000675647
2.04999e-08
0.000676075
2.23338e-08
0.000676492
2.41788e-08
0.000676897
2.60295e-08
0.000677286
2.78816e-08
0.000677658
2.97298e-08
0.000678009
3.1571e-08
0.000678339
3.33993e-08
0.000678642
3.52122e-08
0.000678918
3.70033e-08
0.000679163
3.87723e-08
0.000679373
4.05151e-08
0.000679546
4.22405e-08
0.000679677
4.39524e-08
0.000679764
4.56826e-08
0.000679802
4.74931e-08
0.000679787
4.93066e-08
0.000679713
5.10191e-08
0.000679578
5.26624e-08
0.000679372
5.4236e-08
0.000679093
5.57996e-08
0.000678731
5.73432e-08
0.000678286
5.89048e-08
0.00067774
6.04422e-08
0.000677097
6.2001e-08
0.000676334
6.35317e-08
0.000675459
6.50917e-08
0.000674438
6.66279e-08
0.000673288
6.81972e-08
0.000671961
6.97537e-08
0.000670487
7.13297e-08
7.29226e-08
0.000668794
0.000666681
-1.47966e-08
0.000666724
-4.42736e-08
0.000666795
-7.35919e-08
0.000666894
-1.02472e-07
0.000667021
-1.30781e-07
0.000667175
-1.58394e-07
0.000667356
-1.85193e-07
0.000667563
-2.11067e-07
0.000667795
-2.35914e-07
0.000668051
-2.59639e-07
0.000668329
-2.82154e-07
0.00066863
-3.03378e-07
0.000668951
-3.23241e-07
0.000669291
-3.41673e-07
0.000669649
-3.58618e-07
0.000670023
-3.7402e-07
0.000670413
-3.87835e-07
0.000670815
-4.00014e-07
0.00067123
-4.10524e-07
0.000671655
-4.19321e-07
0.000672088
-4.26379e-07
0.000672528
-4.31654e-07
0.000672973
-4.35127e-07
0.000673422
-4.36747e-07
0.000673872
-4.36501e-07
0.000674321
-4.34324e-07
0.000674768
-4.30213e-07
0.000675211
-4.24077e-07
0.000675647
-4.15927e-07
0.000676075
-4.05634e-07
0.000676493
-3.93235e-07
0.000676897
-3.78541e-07
0.000677287
-3.61632e-07
0.000677659
-3.42227e-07
0.000678011
-3.20485e-07
0.00067834
-2.95982e-07
0.000678645
-2.69011e-07
0.00067892
-2.38925e-07
0.000679165
-2.06243e-07
0.000679376
-1.69975e-07
0.000679549
-1.31019e-07
0.000679681
-8.78513e-08
0.000679769
-4.20313e-08
0.000679807
8.94693e-09
0.000679793
6.35236e-08
0.00067972
1.24473e-07
0.000679584
1.87858e-07
0.000679379
2.59819e-07
0.000679101
3.33529e-07
0.00067874
4.18732e-07
0.000678294
5.04207e-07
0.000677749
6.05578e-07
0.000677107
7.04425e-07
0.000676344
8.25905e-07
0.00067547
9.39775e-07
0.00067445
1.08672e-06
0.000673301
1.21704e-06
0.000671974
1.3968e-06
0.000670501
1.544e-06
1.76622e-06
0.000668808
0.000666681
-2.94296e-08
0.000666725
-8.82428e-08
0.000666799
-1.46909e-07
0.000666901
-2.04856e-07
0.000667032
-2.61804e-07
0.000667191
-3.17495e-07
0.000667378
-3.71682e-07
0.000667591
-4.24137e-07
0.000667829
-4.74645e-07
0.000668093
-5.23009e-07
0.00066838
-5.69049e-07
0.000668689
-6.12597e-07
0.000669019
-6.53506e-07
0.000669369
-6.91637e-07
0.000669737
-7.26872e-07
0.000670122
-7.59098e-07
0.000670523
-7.88222e-07
0.000670937
-8.14148e-07
0.000671363
-8.36806e-07
0.0006718
-8.56108e-07
0.000672246
-8.71999e-07
0.000672698
-8.84392e-07
0.000673156
-8.93243e-07
0.000673618
-8.98453e-07
0.000674082
-8.99992e-07
0.000674545
-8.97733e-07
0.000675007
-8.9166e-07
0.000675464
-8.81603e-07
0.000675916
-8.6757e-07
0.000676359
-8.49319e-07
0.000676793
-8.26904e-07
0.000677215
-7.99973e-07
0.000677622
-7.68656e-07
0.000678012
-7.32438e-07
0.000678383
-6.91583e-07
0.000678732
-6.4532e-07
0.000679057
-5.94149e-07
0.000679355
-5.36901e-07
0.000679624
-4.74471e-07
0.000679859
-4.05071e-07
0.000680058
-3.30259e-07
0.000680217
-2.47285e-07
0.000680334
-1.58825e-07
0.000680404
-6.07503e-08
0.000680424
4.34661e-08
0.000680387
1.61272e-07
0.000680291
2.83934e-07
0.000680128
4.2269e-07
0.000679896
5.65471e-07
0.000679585
7.29713e-07
0.000679194
8.95484e-07
0.000678709
1.09067e-06
0.000678131
1.28257e-06
0.000677441
1.51599e-06
0.000676643
1.73732e-06
0.000675711
2.01885e-06
0.000674655
2.27259e-06
0.000673436
2.61565e-06
0.000672077
2.90312e-06
3.32506e-06
0.000670519
0.000666682
-4.49774e-08
0.000666729
-1.3497e-07
0.000666807
-2.24821e-07
0.000666916
-3.13637e-07
0.000667055
-4.00976e-07
0.000667224
-4.86427e-07
0.000667422
-5.69604e-07
0.000667648
-6.50149e-07
0.000667901
-7.27729e-07
0.00066818
-8.02042e-07
0.000668484
-8.72812e-07
0.000668811
-9.39789e-07
0.00066916
-1.00275e-06
0.00066953
-1.0615e-06
0.000669919
-1.11587e-06
0.000670325
-1.16568e-06
0.000670748
-1.21082e-06
0.000671185
-1.25115e-06
0.000671635
-1.28657e-06
0.000672096
-1.31696e-06
0.000672566
-1.34226e-06
0.000673044
-1.36234e-06
0.000673528
-1.37714e-06
0.000674016
-1.38654e-06
0.000674506
-1.39048e-06
0.000674997
-1.3888e-06
0.000675487
-1.38148e-06
0.000675974
-1.36828e-06
0.000676456
-1.3492e-06
0.00067693
-1.32392e-06
0.000677396
-1.2925e-06
0.00067785
-1.25447e-06
0.000678292
-1.20997e-06
0.000678717
-1.15835e-06
0.000679126
-1.09987e-06
0.000679514
-1.03358e-06
0.00067988
-9.60022e-07
0.000680221
-8.77746e-07
0.000680534
-7.87768e-07
0.000680817
-6.87874e-07
0.000681066
-5.79869e-07
0.000681279
-4.60359e-07
0.000681453
-3.32476e-07
0.000681583
-1.91026e-07
0.000681669
-4.17047e-08
0.000681703
1.27109e-07
0.000681682
3.04499e-07
0.000681602
5.03356e-07
0.000681458
7.0943e-07
0.000681243
9.43946e-07
0.000680956
1.18314e-06
0.000680586
1.46074e-06
0.000680131
1.73767e-06
0.000679579
2.06796e-06
0.000678928
2.38758e-06
0.000678164
2.78345e-06
0.000677286
3.15058e-06
0.000676272
3.62921e-06
0.000675128
4.0469e-06
4.63003e-06
0.000673823
0.000666684
-6.19758e-08
0.000666735
-1.86073e-07
0.00066682
-3.10023e-07
0.000666939
-4.32558e-07
0.000667091
-5.5304e-07
0.000667275
-6.7088e-07
0.000667491
-7.85531e-07
0.000667738
-8.96484e-07
0.000668013
-1.00328e-06
0.000668317
-1.10551e-06
0.000668647
-1.2028e-06
0.000669002
-1.29482e-06
0.00066938
-1.38129e-06
0.000669781
-1.46197e-06
0.000670201
-1.53663e-06
0.000670641
-1.6051e-06
0.000671097
-1.66721e-06
0.000671569
-1.72283e-06
0.000672054
-1.77183e-06
0.000672551
-1.81411e-06
0.000673059
-1.84956e-06
0.000673574
-1.87808e-06
0.000674097
-1.89959e-06
0.000674624
-1.91397e-06
0.000675155
-1.92114e-06
0.000675687
-1.92094e-06
0.000676219
-1.91331e-06
0.000676749
-1.89803e-06
0.000677275
-1.87504e-06
0.000677795
-1.84403e-06
0.000678307
-1.80499e-06
0.00067881
-1.75745e-06
0.000679302
-1.70146e-06
0.00067978
-1.63637e-06
0.000680242
-1.56234e-06
0.000680687
-1.47843e-06
0.000681112
-1.38501e-06
0.000681515
-1.28069e-06
0.000681893
-1.16623e-06
0.000682245
-1.03954e-06
0.000682567
-9.02055e-07
0.000682857
-7.50588e-07
0.000683113
-5.87735e-07
0.00068333
-4.08615e-07
0.000683506
-2.17865e-07
0.000683643
-9.09368e-09
0.00068373
2.17455e-07
0.000683766
4.67227e-07
0.000683746
7.28788e-07
0.000683669
1.0216e-06
0.000683527
1.32481e-06
0.000683319
1.66916e-06
0.000683036
2.02014e-06
0.000682677
2.42676e-06
0.000682233
2.83223e-06
0.000681701
3.31505e-06
0.00068107
3.78204e-06
0.00068034
4.35921e-06
0.000679493
4.89366e-06
5.58727e-06
0.000678536
0.000666686
-8.1071e-08
0.000666743
-2.43507e-07
0.000666839
-4.05766e-07
0.000666972
-5.66117e-07
0.000667143
-7.23676e-07
0.00066735
-8.77627e-07
0.000667592
-1.02722e-06
0.000667867
-1.17178e-06
0.000668174
-1.31069e-06
0.000668512
-1.44345e-06
0.000668879
-1.56958e-06
0.000669273
-1.68871e-06
0.000669692
-1.80051e-06
0.000670135
-1.90469e-06
0.000670599
-2.00105e-06
0.000671084
-2.08939e-06
0.000671586
-2.16957e-06
0.000672105
-2.24146e-06
0.000672638
-2.30496e-06
0.000673184
-2.35996e-06
0.00067374
-2.4064e-06
0.000674306
-2.44419e-06
0.00067488
-2.47324e-06
0.00067546
-2.49348e-06
0.000676043
-2.50481e-06
0.000676629
-2.50711e-06
0.000677216
-2.50029e-06
0.000677803
-2.48415e-06
0.000678386
-2.4586e-06
0.000678965
-2.42338e-06
0.000679539
-2.37836e-06
0.000680105
-2.32319e-06
0.000680661
-2.25774e-06
0.000681206
-2.18154e-06
0.000681738
-2.09445e-06
0.000682256
-1.99583e-06
0.000682756
-1.8856e-06
0.000683238
-1.76283e-06
0.0006837
-1.62759e-06
0.000684139
-1.47855e-06
0.000684553
-1.31604e-06
0.00068494
-1.13812e-06
0.000685298
-9.4564e-07
0.000685625
-7.35723e-07
0.000685918
-5.10186e-07
0.000686173
-2.64906e-07
0.000686396
-5.31724e-09
0.000686577
2.86696e-07
0.000686711
5.94505e-07
0.000686801
9.31412e-07
0.000686838
1.28751e-06
0.000686827
1.6804e-06
0.000686755
2.09255e-06
0.00068663
2.5517e-06
0.000686434
3.02831e-06
0.000686182
3.5667e-06
0.000685847
4.11752e-06
0.000685454
4.75138e-06
0.000684962
5.38617e-06
6.13362e-06
0.000684416
0.000666689
-1.03099e-07
0.000666755
-3.09809e-07
0.000666865
-5.16256e-07
0.000667019
-7.20105e-07
0.000667216
-9.20132e-07
0.000667454
-1.11522e-06
0.000667731