/*--------------------------------*- C++ -*----------------------------------*\
| =========                 |                                                 |
| \\      /  F ield         | OpenFOAM: The Open Source CFD Toolbox           |
|  \\    /   O peration     | Version:  2312                                  |
|   \\  /    A nd           | Website:  www.openfoam.com                      |
|    \\/     M anipulation  |                                                 |
\*---------------------------------------------------------------------------*/
FoamFile
{
    version     2.0;
    format      ascii;
    arch        "LSB;label=32;scalar=64";
    class       volVectorField;
    location    "109000";
    object      U;
}
// * * * * * * * * * * * * * * * * * * * * * * * * * * * * * * * * * * * * * //

dimensions      [0 1 -1 0 0 0 0];

internalField   nonuniform List<vector> 
10800
(
(0.000992484 4.94175e-06 0)
(0.000990039 1.24573e-05 0)
(0.000986873 1.74785e-05 0)
(0.000980501 2.0662e-05 0)
(0.00097109 2.2745e-05 0)
(0.000959801 2.42385e-05 0)
(0.000947701 2.53774e-05 0)
(0.000935326 2.62366e-05 0)
(0.000922818 2.68404e-05 0)
(0.000910155 2.72138e-05 0)
(0.000897292 2.73945e-05 0)
(0.000884225 2.74254e-05 0)
(0.000870992 2.73446e-05 0)
(0.000857646 2.718e-05 0)
(0.000844239 2.69499e-05 0)
(0.00083081 2.66658e-05 0)
(0.000817385 2.63359e-05 0)
(0.000803981 2.59667e-05 0)
(0.000790614 2.55635e-05 0)
(0.000777299 2.51315e-05 0)
(0.000764051 2.46741e-05 0)
(0.000750886 2.41947e-05 0)
(0.000737817 2.36951e-05 0)
(0.000724859 2.31774e-05 0)
(0.000712024 2.26424e-05 0)
(0.000699325 2.20915e-05 0)
(0.000686776 2.15249e-05 0)
(0.000674388 2.09441e-05 0)
(0.000662174 2.03485e-05 0)
(0.000650146 1.97398e-05 0)
(0.000638318 1.91166e-05 0)
(0.0006267 1.84815e-05 0)
(0.000615308 1.78319e-05 0)
(0.000604151 1.71719e-05 0)
(0.000593245 1.6497e-05 0)
(0.000582598 1.58138e-05 0)
(0.000572229 1.51148e-05 0)
(0.000562142 1.44109e-05 0)
(0.000552361 1.36892e-05 0)
(0.000542882 1.29677e-05 0)
(0.000533741 1.22247e-05 0)
(0.000524914 1.14902e-05 0)
(0.000516467 1.07268e-05 0)
(0.000508331 9.98507e-06 0)
(0.000500639 9.2006e-06 0)
(0.000493216 8.45874e-06 0)
(0.000486366 7.64923e-06 0)
(0.000479636 6.91421e-06 0)
(0.000473785 6.07075e-06 0)
(0.000467607 5.34119e-06 0)
(0.000463135 4.45488e-06 0)
(0.000457004 3.68401e-06 0)
(0.000454963 2.79231e-06 0)
(0.000447248 1.73244e-06 0)
(0.000450765 1.15955e-06 0)
(0.000436398 -1.25155e-06 0)
(0.000454761 1.13744e-07 0)
(0.000418831 -7.71841e-06 0)
(0.000477112 2.02716e-06 0)
(0.000382431 -2.44974e-05 0)
(0.00100003 5.80174e-06 0)
(0.00100172 1.49913e-05 0)
(0.00100423 2.15211e-05 0)
(0.00100706 2.60833e-05 0)
(0.00100979 2.94407e-05 0)
(0.00101219 3.21215e-05 0)
(0.00101421 3.43733e-05 0)
(0.00101589 3.62825e-05 0)
(0.00101727 3.78819e-05 0)
(0.00101838 3.9202e-05 0)
(0.00101923 4.02841e-05 0)
(0.00101982 4.11741e-05 0)
(0.00102014 4.19125e-05 0)
(0.0010202 4.25295e-05 0)
(0.00102001 4.3045e-05 0)
(0.00101958 4.34716e-05 0)
(0.00101892 4.3818e-05 0)
(0.00101805 4.4091e-05 0)
(0.00101698 4.42961e-05 0)
(0.00101572 4.44379e-05 0)
(0.00101428 4.45202e-05 0)
(0.00101266 4.45456e-05 0)
(0.00101089 4.45161e-05 0)
(0.00100896 4.44327e-05 0)
(0.00100689 4.42966e-05 0)
(0.00100467 4.41076e-05 0)
(0.00100235 4.38669e-05 0)
(0.000999894 4.35731e-05 0)
(0.000997359 4.32279e-05 0)
(0.000994688 4.28284e-05 0)
(0.000991981 4.23781e-05 0)
(0.000989129 4.18713e-05 0)
(0.000986296 4.13148e-05 0)
(0.000983293 4.06982e-05 0)
(0.000980387 4.00351e-05 0)
(0.000977253 3.93058e-05 0)
(0.000974338 3.85365e-05 0)
(0.000971086 3.76911e-05 0)
(0.000968244 3.68181e-05 0)
(0.000964862 3.58515e-05 0)
(0.000962206 3.48807e-05 0)
(0.000958651 3.37849e-05 0)
(0.000956345 3.27274e-05 0)
(0.000952505 3.14883e-05 0)
(0.000950802 3.03639e-05 0)
(0.000946454 2.89556e-05 0)
(0.000945759 2.77989e-05 0)
(0.000940479 2.61736e-05 0)
(0.000941457 2.50436e-05 0)
(0.000934475 2.31143e-05 0)
(0.000938241 2.21108e-05 0)
(0.000928174 1.97225e-05 0)
(0.000936608 1.90117e-05 0)
(0.000921009 1.59e-05 0)
(0.0009373 1.57434e-05 0)
(0.000911869 1.14959e-05 0)
(0.000941441 1.22287e-05 0)
(0.000898713 6.37235e-06 0)
(0.000950929 8.01898e-06 0)
(0.000878389 9.45184e-07 0)
(0.000999989 1.96212e-06 0)
(0.00100078 5.7629e-06 0)
(0.00100224 9.28742e-06 0)
(0.00100423 1.24518e-05 0)
(0.00100654 1.52534e-05 0)
(0.00100897 1.77372e-05 0)
(0.00101139 1.99581e-05 0)
(0.00101376 2.19589e-05 0)
(0.00101607 2.37671e-05 0)
(0.00101833 2.53991e-05 0)
(0.00102055 2.68684e-05 0)
(0.00102272 2.8188e-05 0)
(0.00102484 2.93727e-05 0)
(0.00102689 3.0436e-05 0)
(0.00102887 3.13906e-05 0)
(0.00103079 3.2246e-05 0)
(0.00103264 3.30106e-05 0)
(0.00103442 3.36898e-05 0)
(0.00103615 3.42895e-05 0)
(0.00103781 3.48126e-05 0)
(0.00103942 3.52639e-05 0)
(0.00104096 3.56445e-05 0)
(0.00104246 3.59587e-05 0)
(0.00104389 3.62054e-05 0)
(0.00104528 3.6389e-05 0)
(0.0010466 3.65063e-05 0)
(0.00104789 3.65628e-05 0)
(0.0010491 3.6552e-05 0)
(0.00105031 3.64824e-05 0)
(0.00105141 3.6343e-05 0)
(0.00105253 3.61469e-05 0)
(0.00105353 3.58766e-05 0)
(0.00105459 3.5553e-05 0)
(0.00105547 3.51482e-05 0)
(0.00105648 3.46959e-05 0)
(0.00105724 3.41523e-05 0)
(0.00105823 3.35706e-05 0)
(0.00105886 3.28828e-05 0)
(0.00105987 3.21724e-05 0)
(0.00106034 3.13338e-05 0)
(0.00106143 3.04973e-05 0)
(0.00106169 2.94999e-05 0)
(0.00106295 2.85427e-05 0)
(0.00106292 2.73765e-05 0)
(0.00106448 2.63079e-05 0)
(0.00106403 2.496e-05 0)
(0.00106608 2.37944e-05 0)
(0.00106501 2.22487e-05 0)
(0.00106784 2.10073e-05 0)
(0.00106583 1.92455e-05 0)
(0.00106988 1.79578e-05 0)
(0.0010664 1.59636e-05 0)
(0.00107232 1.46692e-05 0)
(0.00106657 1.24418e-05 0)
(0.00107537 1.11914e-05 0)
(0.00106612 8.78271e-06 0)
(0.00107928 7.63899e-06 0)
(0.00106466 5.24886e-06 0)
(0.00108449 4.24369e-06 0)
(0.00106172 2.37631e-06 0)
(0.00100001 1.741e-06 0)
(0.00100047 5.15773e-06 0)
(0.00100128 8.41789e-06 0)
(0.00100239 1.14452e-05 0)
(0.00100374 1.41987e-05 0)
(0.00100526 1.66755e-05 0)
(0.00100689 1.88974e-05 0)
(0.00100859 2.0894e-05 0)
(0.00101033 2.26924e-05 0)
(0.00101212 2.43135e-05 0)
(0.00101394 2.57727e-05 0)
(0.00101578 2.7083e-05 0)
(0.00101765 2.82567e-05 0)
(0.00101952 2.93056e-05 0)
(0.0010214 3.02416e-05 0)
(0.00102328 3.10747e-05 0)
(0.00102515 3.1814e-05 0)
(0.00102703 3.24665e-05 0)
(0.0010289 3.30385e-05 0)
(0.00103077 3.35342e-05 0)
(0.00103264 3.39584e-05 0)
(0.0010345 3.43133e-05 0)
(0.00103636 3.46029e-05 0)
(0.0010382 3.48275e-05 0)
(0.00104005 3.49906e-05 0)
(0.00104189 3.5091e-05 0)
(0.00104373 3.5132e-05 0)
(0.00104556 3.51107e-05 0)
(0.00104739 3.50311e-05 0)
(0.00104919 3.48881e-05 0)
(0.00105102 3.46871e-05 0)
(0.00105281 3.44206e-05 0)
(0.00105462 3.40958e-05 0)
(0.00105639 3.37025e-05 0)
(0.0010582 3.32506e-05 0)
(0.00105993 3.27265e-05 0)
(0.00106174 3.21432e-05 0)
(0.00106344 3.14837e-05 0)
(0.00106526 3.07645e-05 0)
(0.00106691 2.99652e-05 0)
(0.00106874 2.91051e-05 0)
(0.00107033 2.81622e-05 0)
(0.0010722 2.71556e-05 0)
(0.00107372 2.6067e-05 0)
(0.00107565 2.49077e-05 0)
(0.00107707 2.36739e-05 0)
(0.0010791 2.23544e-05 0)
(0.00108039 2.09816e-05 0)
(0.00108257 1.94919e-05 0)
(0.00108368 1.7996e-05 0)
(0.00108608 1.63227e-05 0)
(0.00108696 1.47381e-05 0)
(0.00108969 1.28638e-05 0)
(0.00109022 1.12587e-05 0)
(0.00109342 9.16095e-06 0)
(0.00109346 7.66005e-06 0)
(0.00109732 5.30431e-06 0)
(0.00109666 4.11376e-06 0)
(0.00110146 1.41503e-06 0)
(0.00109975 8.2273e-07 0)
(0.001 1.1523e-06 0)
(0.00100023 3.42982e-06 0)
(0.00100067 5.64218e-06 0)
(0.00100134 7.75766e-06 0)
(0.0010022 9.7549e-06 0)
(0.00100324 1.16236e-05 0)
(0.00100441 1.33624e-05 0)
(0.00100569 1.49754e-05 0)
(0.00100705 1.64686e-05 0)
(0.00100848 1.78482e-05 0)
(0.00100997 1.91195e-05 0)
(0.00101149 2.02873e-05 0)
(0.00101306 2.13566e-05 0)
(0.00101465 2.2332e-05 0)
(0.00101627 2.32186e-05 0)
(0.00101791 2.40212e-05 0)
(0.00101956 2.47443e-05 0)
(0.00102123 2.53916e-05 0)
(0.00102291 2.59667e-05 0)
(0.0010246 2.64722e-05 0)
(0.00102629 2.69105e-05 0)
(0.00102799 2.72837e-05 0)
(0.0010297 2.75932e-05 0)
(0.00103141 2.78405e-05 0)
(0.00103313 2.80261e-05 0)
(0.00103485 2.81513e-05 0)
(0.00103658 2.82156e-05 0)
(0.00103831 2.82201e-05 0)
(0.00104004 2.81634e-05 0)
(0.00104177 2.80471e-05 0)
(0.00104351 2.7868e-05 0)
(0.00104524 2.76289e-05 0)
(0.00104699 2.73244e-05 0)
(0.00104872 2.696e-05 0)
(0.00105046 2.65259e-05 0)
(0.0010522 2.60326e-05 0)
(0.00105394 2.54636e-05 0)
(0.00105567 2.48377e-05 0)
(0.00105741 2.41272e-05 0)
(0.00105914 2.33655e-05 0)
(0.00106087 2.25057e-05 0)
(0.0010626 2.16058e-05 0)
(0.00106432 2.05872e-05 0)
(0.00106604 1.95489e-05 0)
(0.00106776 1.83601e-05 0)
(0.00106949 1.71869e-05 0)
(0.00107119 1.58134e-05 0)
(0.00107293 1.45152e-05 0)
(0.00107462 1.29377e-05 0)
(0.00107638 1.15342e-05 0)
(0.00107805 9.72547e-06 0)
(0.00107989 8.25027e-06 0)
(0.00108154 6.1684e-06 0)
(0.0010835 4.67546e-06 0)
(0.00108514 2.25518e-06 0)
(0.00108733 8.34553e-07 0)
(0.00108895 -2.01578e-06 0)
(0.00109144 -3.21208e-06 0)
(0.00109293 -6.63188e-06 0)
(0.00109573 -7.38582e-06 0)
(0.001 9.26054e-07 0)
(0.00100017 2.76981e-06 0)
(0.00100051 4.58676e-06 0)
(0.001001 6.35802e-06 0)
(0.00100165 8.06611e-06 0)
(0.00100242 9.69717e-06 0)
(0.00100332 1.12419e-05 0)
(0.0010043 1.26955e-05 0)
(0.00100537 1.40564e-05 0)
(0.00100651 1.53249e-05 0)
(0.00100771 1.65027e-05 0)
(0.00100896 1.75916e-05 0)
(0.00101025 1.85938e-05 0)
(0.00101158 1.95119e-05 0)
(0.00101295 2.03488e-05 0)
(0.00101435 2.11072e-05 0)
(0.00101577 2.17902e-05 0)
(0.00101721 2.24005e-05 0)
(0.00101867 2.29407e-05 0)
(0.00102015 2.34132e-05 0)
(0.00102164 2.38197e-05 0)
(0.00102314 2.41624e-05 0)
(0.00102465 2.44421e-05 0)
(0.00102618 2.46609e-05 0)
(0.00102771 2.48187e-05 0)
(0.00102925 2.49174e-05 0)
(0.00103079 2.49558e-05 0)
(0.00103235 2.49363e-05 0)
(0.0010339 2.48562e-05 0)
(0.00103546 2.47188e-05 0)
(0.00103702 2.45192e-05 0)
(0.00103858 2.42625e-05 0)
(0.00104014 2.3941e-05 0)
(0.00104171 2.35628e-05 0)
(0.00104327 2.31154e-05 0)
(0.00104484 2.26124e-05 0)
(0.00104639 2.20339e-05 0)
(0.00104796 2.14022e-05 0)
(0.0010495 2.06859e-05 0)
(0.00105107 1.99215e-05 0)
(0.0010526 1.90591e-05 0)
(0.00105417 1.81581e-05 0)
(0.00105568 1.71396e-05 0)
(0.00105725 1.6099e-05 0)
(0.00105875 1.49121e-05 0)
(0.00106034 1.37306e-05 0)
(0.00106182 1.23592e-05 0)
(0.00106343 1.10388e-05 0)
(0.00106488 9.46225e-06 0)
(0.00106655 8.01045e-06 0)
(0.00106797 6.20179e-06 0)
(0.00106973 4.63642e-06 0)
(0.00107109 2.55971e-06 0)
(0.00107298 9.11642e-07 0)
(0.00107424 -1.491e-06 0)
(0.00107635 -3.18184e-06 0)
(0.00107751 -6.01146e-06 0)
(0.00107996 -7.68731e-06 0)
(0.00108087 -1.10913e-05 0)
(0.00108365 -1.26503e-05 0)
(0.001 7.31428e-07 0)
(0.00100013 2.18819e-06 0)
(0.00100037 3.62587e-06 0)
(0.00100074 5.03181e-06 0)
(0.00100122 6.39457e-06 0)
(0.0010018 7.70483e-06 0)
(0.00100249 8.95567e-06 0)
(0.00100326 1.01426e-05 0)
(0.00100411 1.1263e-05 0)
(0.00100503 1.23158e-05 0)
(0.00100601 1.33008e-05 0)
(0.00100705 1.42184e-05 0)
(0.00100814 1.50692e-05 0)
(0.00100927 1.58542e-05 0)
(0.00101043 1.65742e-05 0)
(0.00101163 1.72306e-05 0)
(0.00101287 1.78245e-05 0)
(0.00101412 1.83574e-05 0)
(0.0010154 1.88303e-05 0)
(0.00101671 1.92446e-05 0)
(0.00101803 1.9601e-05 0)
(0.00101936 1.99008e-05 0)
(0.00102071 2.01442e-05 0)
(0.00102207 2.03324e-05 0)
(0.00102343 2.04648e-05 0)
(0.00102481 2.05429e-05 0)
(0.00102619 2.05652e-05 0)
(0.00102758 2.05335e-05 0)
(0.00102897 2.04451e-05 0)
(0.00103037 2.03025e-05 0)
(0.00103176 2.01015e-05 0)
(0.00103316 1.9846e-05 0)
(0.00103455 1.9529e-05 0)
(0.00103594 1.91572e-05 0)
(0.00103733 1.87197e-05 0)
(0.00103871 1.82273e-05 0)
(0.00104009 1.76633e-05 0)
(0.00104146 1.70451e-05 0)
(0.00104282 1.63471e-05 0)
(0.00104419 1.55972e-05 0)
(0.00104552 1.4756e-05 0)
(0.00104688 1.38679e-05 0)
(0.00104819 1.2872e-05 0)
(0.00104954 1.1839e-05 0)
(0.00105082 1.06743e-05 0)
(0.00105216 9.48979e-06 0)
(0.00105341 8.1381e-06 0)
(0.00105475 6.79596e-06 0)
(0.00105596 5.23326e-06 0)
(0.00105732 3.72828e-06 0)
(0.00105849 1.92149e-06 0)
(0.00105992 2.51468e-07 0)
(0.00106105 -1.84159e-06 0)
(0.00106259 -3.66564e-06 0)
(0.00106366 -6.09541e-06 0)
(0.00106535 -8.04758e-06 0)
(0.00106632 -1.08948e-05 0)
(0.00106823 -1.29411e-05 0)
(0.00106896 -1.63378e-05 0)
(0.00107105 -1.842e-05 0)
(0.001 5.82267e-07 0)
(0.0010001 1.74329e-06 0)
(0.00100029 2.89289e-06 0)
(0.00100058 4.02319e-06 0)
(0.00100095 5.12667e-06 0)
(0.00100142 6.19664e-06 0)
(0.00100197 7.22745e-06 0)
(0.0010026 8.21464e-06 0)
(0.00100329 9.15486e-06 0)
(0.00100405 1.00458e-05 0)
(0.00100488 1.08858e-05 0)
(0.00100575 1.1674e-05 0)
(0.00100667 1.24099e-05 0)
(0.00100764 1.3093e-05 0)
(0.00100865 1.37232e-05 0)
(0.00100969 1.43006e-05 0)
(0.00101076 1.48253e-05 0)
(0.00101186 1.52977e-05 0)
(0.00101299 1.5718e-05 0)
(0.00101413 1.60867e-05 0)
(0.0010153 1.6404e-05 0)
(0.00101648 1.66704e-05 0)
(0.00101768 1.68858e-05 0)
(0.00101889 1.70508e-05 0)
(0.0010201 1.71648e-05 0)
(0.00102133 1.72284e-05 0)
(0.00102256 1.72406e-05 0)
(0.0010238 1.72021e-05 0)
(0.00102504 1.71111e-05 0)
(0.00102628 1.69689e-05 0)
(0.00102752 1.67724e-05 0)
(0.00102875 1.65236e-05 0)
(0.00102998 1.6218e-05 0)
(0.00103121 1.58589e-05 0)
(0.00103243 1.54394e-05 0)
(0.00103365 1.49649e-05 0)
(0.00103485 1.44253e-05 0)
(0.00103604 1.38294e-05 0)
(0.00103722 1.3162e-05 0)
(0.00103839 1.24374e-05 0)
(0.00103954 1.16327e-05 0)
(0.00104069 1.0771e-05 0)
(0.00104179 9.81727e-06 0)
(0.00104292 8.80867e-06 0)
(0.00104399 7.69169e-06 0)
(0.00104508 6.52533e-06 0)
(0.00104611 5.22756e-06 0)
(0.00104719 3.8918e-06 0)
(0.00104816 2.39168e-06 0)
(0.00104923 8.74438e-07 0)
(0.00105014 -8.55533e-07 0)
(0.00105122 -2.56753e-06 0)
(0.00105206 -4.56722e-06 0)
(0.00105318 -6.49217e-06 0)
(0.00105396 -8.81757e-06 0)
(0.00105515 -1.097e-05 0)
(0.00105582 -1.36896e-05 0)
(0.00105712 -1.60737e-05 0)
(0.00105756 -1.92812e-05 0)
(0.00105888 -2.1887e-05 0)
(0.001 4.64575e-07 0)
(0.00100008 1.39166e-06 0)
(0.00100024 2.31136e-06 0)
(0.00100047 3.21831e-06 0)
(0.00100078 4.10724e-06 0)
(0.00100116 4.97324e-06 0)
(0.00100162 5.81194e-06 0)
(0.00100214 6.61961e-06 0)
(0.00100273 7.39312e-06 0)
(0.00100337 8.12997e-06 0)
(0.00100407 8.82806e-06 0)
(0.00100481 9.4858e-06 0)
(0.00100561 1.01019e-05 0)
(0.00100644 1.06755e-05 0)
(0.00100732 1.1206e-05 0)
(0.00100822 1.16928e-05 0)
(0.00100916 1.21357e-05 0)
(0.00101013 1.25346e-05 0)
(0.00101112 1.28892e-05 0)
(0.00101213 1.31997e-05 0)
(0.00101317 1.34657e-05 0)
(0.00101422 1.36875e-05 0)
(0.00101528 1.38647e-05 0)
(0.00101635 1.39973e-05 0)
(0.00101744 1.4085e-05 0)
(0.00101853 1.41277e-05 0)
(0.00101963 1.41246e-05 0)
(0.00102073 1.40758e-05 0)
(0.00102183 1.39801e-05 0)
(0.00102293 1.38375e-05 0)
(0.00102402 1.36461e-05 0)
(0.00102512 1.34064e-05 0)
(0.0010262 1.31156e-05 0)
(0.00102728 1.27743e-05 0)
(0.00102834 1.2379e-05 0)
(0.0010294 1.19307e-05 0)
(0.00103044 1.14244e-05 0)
(0.00103146 1.08623e-05 0)
(0.00103247 1.02369e-05 0)
(0.00103346 9.55266e-06 0)
(0.00103442 8.79856e-06 0)
(0.00103537 7.98203e-06 0)
(0.00103628 7.08717e-06 0)
(0.00103718 6.12628e-06 0)
(0.00103804 5.07585e-06 0)
(0.00103889 3.95595e-06 0)
(0.00103968 2.73143e-06 0)
(0.00104048 1.43471e-06 0)
(0.00104119 1.31235e-08 0)
(0.00104195 -1.48034e-06 0)
(0.00104259 -3.12491e-06 0)
(0.00104331 -4.83637e-06 0)
(0.00104385 -6.73736e-06 0)
(0.00104455 -8.69556e-06 0)
(0.00104498 -1.09007e-05 0)
(0.00104567 -1.31409e-05 0)
(0.00104596 -1.57097e-05 0)
(0.00104665 -1.82665e-05 0)
(0.0010467 -2.12693e-05 0)
(0.0010473 -2.41681e-05 0)
(0.001 3.67115e-07 0)
(0.00100007 1.10008e-06 0)
(0.0010002 1.82803e-06 0)
(0.0010004 2.54715e-06 0)
(0.00100066 3.25366e-06 0)
(0.00100098 3.94395e-06 0)
(0.00100137 4.61471e-06 0)
(0.00100182 5.26294e-06 0)
(0.00100232 5.88601e-06 0)
(0.00100287 6.48165e-06 0)
(0.00100347 7.04792e-06 0)
(0.00100412 7.58319e-06 0)
(0.00100481 8.08611e-06 0)
(0.00100554 8.55559e-06 0)
(0.00100631 8.99076e-06 0)
(0.00100711 9.39092e-06 0)
(0.00100794 9.7555e-06 0)
(0.00100879 1.0084e-05 0)
(0.00100967 1.03761e-05 0)
(0.00101057 1.06315e-05 0)
(0.00101149 1.08497e-05 0)
(0.00101243 1.10305e-05 0)
(0.00101338 1.11736e-05 0)
(0.00101434 1.12787e-05 0)
(0.00101531 1.13452e-05 0)
(0.00101628 1.13728e-05 0)
(0.00101726 1.1361e-05 0)
(0.00101824 1.13091e-05 0)
(0.00101922 1.12165e-05 0)
(0.0010202 1.10824e-05 0)
(0.00102117 1.09058e-05 0)
(0.00102214 1.06857e-05 0)
(0.00102309 1.04211e-05 0)
(0.00102403 1.01106e-05 0)
(0.00102496 9.75276e-06 0)
(0.00102587 9.34592e-06 0)
(0.00102676 8.88856e-06 0)
(0.00102763 8.37826e-06 0)
(0.00102847 7.81349e-06 0)
(0.0010293 7.19093e-06 0)
(0.00103009 6.50915e-06 0)
(0.00103085 5.76352e-06 0)
(0.00103157 4.95308e-06 0)
(0.00103227 4.07117e-06 0)
(0.00103292 3.11797e-06 0)
(0.00103355 2.08366e-06 0)
(0.0010341 9.70774e-07 0)
(0.00103465 -2.35468e-07 0)
(0.00103511 -1.52795e-06 0)
(0.00103556 -2.93006e-06 0)
(0.00103591 -4.42794e-06 0)
(0.00103628 -6.05854e-06 0)
(0.0010365 -7.79416e-06 0)
(0.00103678 -9.69222e-06 0)
(0.00103684 -1.17026e-05 0)
(0.00103703 -1.39157e-05 0)
(0.00103691 -1.62446e-05 0)
(0.00103699 -1.88306e-05 0)
(0.0010366 -2.15256e-05 0)
(0.00103649 -2.4547e-05 0)
(0.001 2.8392e-07 0)
(0.00100006 8.51053e-07 0)
(0.00100017 1.41479e-06 0)
(0.00100034 1.97237e-06 0)
(0.00100057 2.52108e-06 0)
(0.00100086 3.05826e-06 0)
(0.00100119 3.58142e-06 0)
(0.00100158 4.08826e-06 0)
(0.00100202 4.57669e-06 0)
(0.0010025 5.04487e-06 0)
(0.00100303 5.49115e-06 0)
(0.00100361 5.91409e-06 0)
(0.00100422 6.31246e-06 0)
(0.00100486 6.68518e-06 0)
(0.00100555 7.03135e-06 0)
(0.00100626 7.35019e-06 0)
(0.001007 7.64101e-06 0)
(0.00100777 7.90322e-06 0)
(0.00100856 8.13632e-06 0)
(0.00100937 8.33979e-06 0)
(0.00101019 8.51323e-06 0)
(0.00101104 8.65614e-06 0)
(0.00101189 8.76816e-06 0)
(0.00101276 8.84873e-06 0)
(0.00101363 8.89751e-06 0)
(0.0010145 8.91379e-06 0)
(0.00101538 8.89722e-06 0)
(0.00101626 8.84688e-06 0)
(0.00101714 8.76241e-06 0)
(0.00101801 8.64255e-06 0)
(0.00101887 8.48701e-06 0)
(0.00101972 8.29405e-06 0)
(0.00102056 8.06351e-06 0)
(0.00102139 7.79293e-06 0)
(0.00102219 7.48252e-06 0)
(0.00102297 7.12874e-06 0)
(0.00102373 6.73247e-06 0)
(0.00102447 6.28854e-06 0)
(0.00102517 5.79912e-06 0)
(0.00102584 5.25648e-06 0)
(0.00102648 4.66502e-06 0)
(0.00102708 4.01306e-06 0)
(0.00102763 3.30885e-06 0)
(0.00102814 2.53444e-06 0)
(0.0010286 1.70457e-06 0)
(0.00102901 7.91407e-07 0)
(0.00102935 -1.79509e-07 0)
(0.00102966 -1.25148e-06 0)
(0.00102987 -2.38137e-06 0)
(0.00103005 -3.63825e-06 0)
(0.00103012 -4.95017e-06 0)
(0.00103016 -6.42621e-06 0)
(0.00103006 -7.94666e-06 0)
(0.00102994 -9.68476e-06 0)
(0.00102964 -1.14433e-05 0)
(0.00102936 -1.34986e-05 0)
(0.00102882 -1.55275e-05 0)
(0.00102834 -1.79709e-05 0)
(0.00102748 -2.03002e-05 0)
(0.00102671 -2.32163e-05 0)
(0.001 2.1095e-07 0)
(0.00100005 6.32562e-07 0)
(0.00100015 1.05198e-06 0)
(0.00100031 1.46725e-06 0)
(0.00100051 1.87643e-06 0)
(0.00100076 2.27762e-06 0)
(0.00100106 2.66901e-06 0)
(0.00100141 3.0489e-06 0)
(0.0010018 3.41572e-06 0)
(0.00100224 3.76805e-06 0)
(0.00100271 4.1046e-06 0)
(0.00100323 4.42419e-06 0)
(0.00100378 4.72581e-06 0)
(0.00100436 5.00851e-06 0)
(0.00100498 5.27149e-06 0)
(0.00100563 5.51401e-06 0)
(0.0010063 5.73543e-06 0)
(0.001007 5.93515e-06 0)
(0.00100772 6.11268e-06 0)
(0.00100845 6.26747e-06 0)
(0.00100921 6.39912e-06 0)
(0.00100997 6.50708e-06 0)
(0.00101075 6.59103e-06 0)
(0.00101154 6.65036e-06 0)
(0.00101233 6.68477e-06 0)
(0.00101313 6.6935e-06 0)
(0.00101393 6.67634e-06 0)
(0.00101472 6.63228e-06 0)
(0.00101551 6.56118e-06 0)
(0.0010163 6.46166e-06 0)
(0.00101707 6.33378e-06 0)
(0.00101783 6.17557e-06 0)
(0.00101857 5.98743e-06 0)
(0.0010193 5.76653e-06 0)
(0.00102 5.5139e-06 0)
(0.00102068 5.22538e-06 0)
(0.00102133 4.9031e-06 0)
(0.00102195 4.54083e-06 0)
(0.00102253 4.14262e-06 0)
(0.00102308 3.69903e-06 0)
(0.00102358 3.21731e-06 0)
(0.00102404 2.68299e-06 0)
(0.00102444 2.10866e-06 0)
(0.00102479 1.4719e-06 0)
(0.00102508 7.94146e-07 0)
(0.00102532 4.02798e-08 0)
(0.00102547 -7.53712e-07 0)
(0.00102556 -1.64333e-06 0)
(0.00102557 -2.56941e-06 0)
(0.0010255 -3.61993e-06 0)
(0.00102532 -4.69696e-06 0)
(0.00102506 -5.94039e-06 0)
(0.00102467 -7.18915e-06 0)
(0.00102421 -8.6669e-06 0)
(0.00102357 -1.01099e-05 0)
(0.00102287 -1.1877e-05 0)
(0.00102194 -1.3537e-05 0)
(0.00102095 -1.56667e-05 0)
(0.00101965 -1.75599e-05 0)
(0.00101829 -2.0144e-05 0)
(0.001 1.45207e-07 0)
(0.00100005 4.35665e-07 0)
(0.00100014 7.24893e-07 0)
(0.00100028 1.01158e-06 0)
(0.00100047 1.29442e-06 0)
(0.0010007 1.57212e-06 0)
(0.00100097 1.84346e-06 0)
(0.00100129 2.10725e-06 0)
(0.00100165 2.36242e-06 0)
(0.00100205 2.60794e-06 0)
(0.00100249 2.84289e-06 0)
(0.00100296 3.0664e-06 0)
(0.00100347 3.27772e-06 0)
(0.00100401 3.47611e-06 0)
(0.00100458 3.66097e-06 0)
(0.00100518 3.83169e-06 0)
(0.0010058 3.98777e-06 0)
(0.00100645 4.1287e-06 0)
(0.00100711 4.25407e-06 0)
(0.00100779 4.36341e-06 0)
(0.00100849 4.4564e-06 0)
(0.0010092 4.53256e-06 0)
(0.00100993 4.59161e-06 0)
(0.00101066 4.63303e-06 0)
(0.00101139 4.65659e-06 0)
(0.00101213 4.66164e-06 0)
(0.00101286 4.64803e-06 0)
(0.00101359 4.61489e-06 0)
(0.00101432 4.56219e-06 0)
(0.00101503 4.48871e-06 0)
(0.00101574 4.39465e-06 0)
(0.00101643 4.27826e-06 0)
(0.0010171 4.14011e-06 0)
(0.00101775 3.97766e-06 0)
(0.00101837 3.79211e-06 0)
(0.00101897 3.57972e-06 0)
(0.00101953 3.34277e-06 0)
(0.00102006 3.07563e-06 0)
(0.00102055 2.78246e-06 0)
(0.00102099 2.45462e-06 0)
(0.00102139 2.09937e-06 0)
(0.00102174 1.70341e-06 0)
(0.00102202 1.27911e-06 0)
(0.00102225 8.05736e-07 0)
(0.00102241 3.04096e-07 0)
(0.0010225 -2.58391e-07 0)
(0.0010225 -8.47166e-07 0)
(0.00102242 -1.5141e-06 0)
(0.00102225 -2.20225e-06 0)
(0.00102198 -2.9939e-06 0)
(0.0010216 -3.79522e-06 0)
(0.00102111 -4.7377e-06 0)
(0.00102048 -5.66737e-06 0)
(0.00101973 -6.79523e-06 0)
(0.00101881 -7.86916e-06 0)
(0.00101776 -9.22913e-06 0)
(0.0010165 -1.04621e-05 0)
(0.0010151 -1.21175e-05 0)
(0.00101342 -1.3517e-05 0)
(0.00101158 -1.55495e-05 0)
(0.001 8.42984e-08 0)
(0.00100005 2.53221e-07 0)
(0.00100013 4.21737e-07 0)
(0.00100026 5.89085e-07 0)
(0.00100044 7.54506e-07 0)
(0.00100066 9.1725e-07 0)
(0.00100091 1.07659e-06 0)
(0.00100122 1.23185e-06 0)
(0.00100155 1.38236e-06 0)
(0.00100193 1.52752e-06 0)
(0.00100234 1.66676e-06 0)
(0.00100279 1.79955e-06 0)
(0.00100327 1.92541e-06 0)
(0.00100378 2.0439e-06 0)
(0.00100432 2.1546e-06 0)
(0.00100489 2.25713e-06 0)
(0.00100548 2.35117e-06 0)
(0.00100609 2.43636e-06 0)
(0.00100672 2.51245e-06 0)
(0.00100737 2.57909e-06 0)
(0.00100803 2.63609e-06 0)
(0.0010087 2.68309e-06 0)
(0.00100939 2.71993e-06 0)
(0.00101008 2.74623e-06 0)
(0.00101077 2.76186e-06 0)
(0.00101147 2.76635e-06 0)
(0.00101216 2.75962e-06 0)
(0.00101285 2.74108e-06 0)
(0.00101353 2.71072e-06 0)
(0.0010142 2.66773e-06 0)
(0.00101486 2.61225e-06 0)
(0.0010155 2.54312e-06 0)
(0.00101612 2.46076e-06 0)
(0.00101672 2.36346e-06 0)
(0.00101729 2.25209e-06 0)
(0.00101783 2.12411e-06 0)
(0.00101834 1.98119e-06 0)
(0.0010188 1.81945e-06 0)
(0.00101923 1.64191e-06 0)
(0.0010196 1.44262e-06 0)
(0.00101993 1.22679e-06 0)
(0.00102019 9.85213e-07 0)
(0.0010204 7.26725e-07 0)
(0.00102054 4.36907e-07 0)
(0.0010206 1.30538e-07 0)
(0.00102059 -2.15105e-07 0)
(0.00102049 -5.75646e-07 0)
(0.0010203 -9.87275e-07 0)
(0.00102 -1.4096e-06 0)
(0.00101959 -1.90024e-06 0)
(0.00101906 -2.39276e-06 0)
(0.0010184 -2.97941e-06 0)
(0.0010176 -3.55131e-06 0)
(0.00101665 -4.2569e-06 0)
(0.00101553 -4.91771e-06 0)
(0.00101424 -5.77356e-06 0)
(0.00101274 -6.53155e-06 0)
(0.00101104 -7.58053e-06 0)
(0.00100909 -8.43825e-06 0)
(0.0010069 -9.73668e-06 0)
(0.001 2.61881e-08 0)
(0.00100004 7.91408e-08 0)
(0.00100013 1.32428e-07 0)
(0.00100026 1.85794e-07 0)
(0.00100042 2.38981e-07 0)
(0.00100064 2.91735e-07 0)
(0.00100089 3.43811e-07 0)
(0.00100118 3.9497e-07 0)
(0.00100151 4.44985e-07 0)
(0.00100187 4.93638e-07 0)
(0.00100227 5.40728e-07 0)
(0.00100271 5.86063e-07 0)
(0.00100318 6.29465e-07 0)
(0.00100367 6.70765e-07 0)
(0.0010042 7.0981e-07 0)
(0.00100475 7.4645e-07 0)
(0.00100532 7.80553e-07 0)
(0.00100591 8.11981e-07 0)
(0.00100653 8.40624e-07 0)
(0.00100716 8.66349e-07 0)
(0.0010078 8.89062e-07 0)
(0.00100846 9.0863e-07 0)
(0.00100912 9.24971e-07 0)
(0.00100979 9.37937e-07 0)
(0.00101047 9.47465e-07 0)
(0.00101114 9.53375e-07 0)
(0.00101181 9.55625e-07 0)
(0.00101248 9.53987e-07 0)
(0.00101314 9.48452e-07 0)
(0.00101379 9.38714e-07 0)
(0.00101442 9.24822e-07 0)
(0.00101504 9.06346e-07 0)
(0.00101564 8.83436e-07 0)
(0.00101621 8.55471e-07 0)
(0.00101675 8.22772e-07 0)
(0.00101726 7.84416e-07 0)
(0.00101774 7.41015e-07 0)
(0.00101817 6.91176e-07 0)
(0.00101856 6.35998e-07 0)
(0.00101891 5.73341e-07 0)
(0.00101919 5.05117e-07 0)
(0.00101942 4.28001e-07 0)
(0.00101959 3.45246e-07 0)
(0.00101968 2.51643e-07 0)
(0.0010197 1.52637e-07 0)
(0.00101963 4.00375e-08 0)
(0.00101948 -7.74145e-08 0)
(0.00101922 -2.12695e-07 0)
(0.00101886 -3.51209e-07 0)
(0.00101838 -5.13637e-07 0)
(0.00101778 -6.76035e-07 0)
(0.00101703 -8.71506e-07 0)
(0.00101614 -1.06081e-06 0)
(0.00101509 -1.29729e-06 0)
(0.00101386 -1.51666e-06 0)
(0.00101244 -1.80513e-06 0)
(0.00101082 -2.05719e-06 0)
(0.00100897 -2.41276e-06 -3.92984e-38)
(0.00100687 -2.698e-06 0)
(0.0010045 -3.14066e-06 0)
(0.001 -3.09944e-08 0)
(0.00100004 -9.21697e-08 0)
(0.00100013 -1.52294e-07 0)
(0.00100026 -2.11136e-07 0)
(0.00100042 -2.68462e-07 0)
(0.00100064 -3.24045e-07 0)
(0.00100089 -3.77665e-07 0)
(0.00100118 -4.29116e-07 0)
(0.00100151 -4.78209e-07 0)
(0.00100187 -5.24769e-07 0)
(0.00100227 -5.68636e-07 0)
(0.00100271 -6.09663e-07 0)
(0.00100317 -6.47722e-07 0)
(0.00100367 -6.8269e-07 0)
(0.00100419 -7.14468e-07 0)
(0.00100474 -7.42959e-07 0)
(0.00100532 -7.68088e-07 0)
(0.00100591 -7.89774e-07 0)
(0.00100653 -8.07963e-07 0)
(0.00100716 -8.22579e-07 0)
(0.0010078 -8.33585e-07 0)
(0.00100846 -8.40902e-07 0)
(0.00100912 -8.44505e-07 0)
(0.00100979 -8.44301e-07 0)
(0.00101046 -8.40278e-07 0)
(0.00101114 -8.32313e-07 0)
(0.00101181 -8.20412e-07 0)
(0.00101248 -8.04397e-07 0)
(0.00101314 -7.84307e-07 0)
(0.00101379 -7.59881e-07 0)
(0.00101442 -7.31209e-07 0)
(0.00101504 -6.97905e-07 0)
(0.00101564 -6.6015e-07 0)
(0.00101621 -6.17365e-07 0)
(0.00101675 -5.69894e-07 0)
(0.00101726 -5.16854e-07 0)
(0.00101774 -4.5887e-07 0)
(0.00101818 -3.94589e-07 0)
(0.00101857 -3.25107e-07 0)
(0.00101891 -2.48329e-07 0)
(0.0010192 -1.66143e-07 0)
(0.00101943 -7.52752e-08 0)
(0.00101959 2.10871e-08 0)
(0.00101969 1.281e-07 0)
(0.00101971 2.40441e-07 0)
(0.00101964 3.66246e-07 0)
(0.00101949 4.96895e-07 0)
(0.00101923 6.45142e-07 0)
(0.00101887 7.96562e-07 0)
(0.00101839 9.71587e-07 0)
(0.00101779 1.14659e-06 0)
(0.00101705 1.35441e-06 0)
(0.00101616 1.55622e-06 0)
(0.00101511 1.80497e-06 0)
(0.00101388 2.03684e-06 0)
(0.00101246 2.33763e-06 0)
(0.00101084 2.60229e-06 0)
(0.00100898 2.97041e-06 3.92984e-38)
(0.00100689 3.26843e-06 0)
(0.00100453 3.72417e-06 0)
(0.001 -8.90548e-08 0)
(0.00100005 -2.66112e-07 0)
(0.00100013 -4.41386e-07 0)
(0.00100026 -6.1414e-07 0)
(0.00100044 -7.83638e-07 0)
(0.00100065 -9.49158e-07 0)
(0.00100091 -1.11001e-06 0)
(0.00100121 -1.26552e-06 0)
(0.00100155 -1.4151e-06 0)
(0.00100193 -1.55816e-06 0)
(0.00100234 -1.69418e-06 0)
(0.00100279 -1.82269e-06 0)
(0.00100327 -1.94324e-06 0)
(0.00100378 -2.05543e-06 0)
(0.00100432 -2.15892e-06 0)
(0.00100488 -2.25338e-06 0)
(0.00100547 -2.33852e-06 0)
(0.00100609 -2.41405e-06 0)
(0.00100672 -2.47977e-06 0)
(0.00100736 -2.53541e-06 0)
(0.00100803 -2.5808e-06 0)
(0.0010087 -2.61567e-06 0)
(0.00100938 -2.6399e-06 0)
(0.00101008 -2.65315e-06 0)
(0.00101077 -2.65536e-06 0)
(0.00101147 -2.64611e-06 0)
(0.00101216 -2.62537e-06 0)
(0.00101285 -2.59259e-06 0)
(0.00101353 -2.54782e-06 0)
(0.0010142 -2.49028e-06 0)
(0.00101486 -2.42017e-06 0)
(0.0010155 -2.33636e-06 0)
(0.00101613 -2.2393e-06 0)
(0.00101672 -2.12731e-06 0)
(0.0010173 -2.00131e-06 0)
(0.00101784 -1.85878e-06 0)
(0.00101834 -1.7014e-06 0)
(0.00101881 -1.52534e-06 0)
(0.00101924 -1.3336e-06 0)
(0.00101962 -1.12028e-06 0)
(0.00101994 -8.90562e-07 0)
(0.00102021 -6.35286e-07 0)
(0.00102042 -3.63256e-07 0)
(0.00102056 -6.01323e-08 0)
(0.00102063 2.59348e-07 0)
(0.00102062 6.17794e-07 0)
(0.00102052 9.9109e-07 0)
(0.00102033 1.41526e-06 0)
(0.00102003 1.8502e-06 0)
(0.00101962 2.35316e-06 0)
(0.0010191 2.85813e-06 0)
(0.00101844 3.45688e-06 0)
(0.00101764 4.04115e-06 0)
(0.0010167 4.75873e-06 0)
(0.00101558 5.43197e-06 0)
(0.00101429 6.29982e-06 0)
(0.00101279 7.07042e-06 0)
(0.0010111 8.1316e-06 0)
(0.00100914 9.00223e-06 0)
(0.00100697 1.03134e-05 0)
(0.001 -1.49845e-07 0)
(0.00100005 -4.48231e-07 0)
(0.00100014 -7.4404e-07 0)
(0.00100028 -1.03599e-06 0)
(0.00100047 -1.32278e-06 0)
(0.0010007 -1.60317e-06 0)
(0.00100097 -1.87595e-06 0)
(0.00100129 -2.13997e-06 0)
(0.00100165 -2.39419e-06 0)
(0.00100205 -2.63763e-06 0)
(0.00100248 -2.8694e-06 0)
(0.00100296 -3.08869e-06 0)
(0.00100347 -3.29477e-06 0)
(0.00100401 -3.48699e-06 0)
(0.00100458 -3.66476e-06 0)
(0.00100517 -3.82754e-06 0)
(0.0010058 -3.97488e-06 0)
(0.00100644 -4.10633e-06 0)
(0.00100711 -4.22153e-06 0)
(0.00100779 -4.32007e-06 0)
(0.00100849 -4.40168e-06 0)
(0.0010092 -4.46593e-06 0)
(0.00100992 -4.51261e-06 0)
(0.00101065 -4.54123e-06 0)
(0.00101139 -4.55164e-06 0)
(0.00101212 -4.54321e-06 0)
(0.00101286 -4.51587e-06 0)
(0.00101359 -4.46877e-06 0)
(0.00101432 -4.40194e-06 0)
(0.00101504 -4.31422e-06 0)
(0.00101574 -4.20581e-06 0)
(0.00101643 -4.07505e-06 0)
(0.00101711 -3.92249e-06 0)
(0.00101776 -3.74567e-06 0)
(0.00101838 -3.54578e-06 0)
(0.00101898 -3.31915e-06 0)
(0.00101955 -3.06805e-06 0)
(0.00102008 -2.78692e-06 0)
(0.00102057 -2.47984e-06 0)
(0.00102102 -2.13833e-06 0)
(0.00102142 -1.76952e-06 0)
(0.00102176 -1.36029e-06 0)
(0.00102206 -9.22797e-07 0)
(0.00102229 -4.36635e-07 0)
(0.00102245 7.78121e-08 0)
(0.00102254 6.52685e-07 0)
(0.00102255 1.25393e-06 0)
(0.00102247 1.93318e-06 0)
(0.0010223 2.63392e-06 0)
(0.00102204 3.43776e-06 0)
(0.00102166 4.25157e-06 0)
(0.00102117 5.2059e-06 0)
(0.00102055 6.14794e-06 0)
(0.0010198 7.2874e-06 0)