/*--------------------------------*- C++ -*----------------------------------*\
| =========                 |                                                 |
| \\      /  F ield         | OpenFOAM: The Open Source CFD Toolbox           |
|  \\    /   O peration     | Version:  2312                                  |
|   \\  /    A nd           | Website:  www.openfoam.com                      |
|    \\/     M anipulation  |                                                 |
\*---------------------------------------------------------------------------*/
FoamFile
{
    version     2.0;
    format      ascii;
    arch        "LSB;label=32;scalar=64";
    class       surfaceScalarField;
    location    "9000";
    object      phi;
}
// * * * * * * * * * * * * * * * * * * * * * * * * * * * * * * * * * * * * * //

dimensions      [0 3 -1 0 0 0 0];

oriented        oriented;

internalField   nonuniform List<scalar> 
5250
(
0.000413438
-3.76639e-10
0.000413438
-3.4413e-10
0.000413438
-3.16902e-10
0.000413439
-2.91709e-10
0.000413439
-2.6619e-10
0.000413439
-2.43949e-10
0.000413439
-2.24835e-10
0.00041344
-2.0416e-10
0.00041344
-1.84376e-10
0.00041344
-1.68032e-10
0.00041344
-1.56002e-10
0.00041344
-1.44218e-10
0.00041344
-1.31228e-10
0.00041344
-1.18604e-10
0.000413441
-1.07212e-10
0.000413441
-9.7082e-11
0.000413441
-8.82263e-11
0.000413441
-8.00064e-11
0.000413441
-7.1597e-11
0.000413441
-6.32338e-11
0.000413441
-5.56606e-11
0.000413441
-4.90909e-11
0.000413441
-4.33117e-11
0.000413441
-3.82113e-11
0.000413441
-3.38859e-11
0.000413441
-3.03419e-11
0.000413441
-2.74122e-11
0.000413441
-2.48991e-11
0.000413441
-2.26816e-11
0.000413441
-2.0699e-11
0.000413441
-1.89091e-11
0.000413441
-1.72745e-11
0.000413441
-1.57695e-11
0.000413441
-1.43777e-11
0.000413441
-1.30888e-11
0.000413441
-1.18932e-11
0.000413441
-1.07847e-11
0.000413441
-9.75674e-12
0.000413441
-8.80521e-12
0.000413441
-7.92364e-12
0.000413441
-7.10801e-12
0.000413441
-6.34928e-12
0.000413441
-5.64592e-12
0.000413441
-4.98247e-12
0.000413441
-4.36878e-12
0.000413441
-3.76994e-12
0.000413441
-3.23292e-12
0.000413441
-2.66258e-12
0.000413441
-2.21173e-12
0.000413441
-1.61813e-12
0.000413441
-1.30328e-12
0.000413441
-6.0151e-13
0.000413441
-5.18582e-13
0.000413441
3.93091e-13
0.000413441
1.3466e-13
0.000413441
1.31687e-12
0.000413441
7.40075e-13
0.000413441
1.97164e-12
0.000413441
1.58994e-12
0.000413441
1.95862e-12
0.000413441
2.94737e-12
0.000413441
1.27581e-12
0.000413441
4.3417e-12
0.000413441
1.0286e-12
0.000413441
4.08814e-12
0.000413441
2.87785e-12
0.000413441
1.22187e-12
0.000413441
6.14134e-12
0.000413441
-9.75562e-13
0.000413441
5.81812e-12
0.000413441
2.27333e-12
0.000413441
4.52149e-14
0.000413441
7.52064e-12
0.000413441
-2.92969e-12
0.000413441
6.4389e-12
0.000413441
1.786e-12
0.000413441
-1.65175e-13
0.000413441
7.5235e-12
0.000413441
-3.0075e-12
0.000413441
5.9566e-12
0.000413441
4.62369e-12
0.000413441
-3.15481e-12
0.000413441
9.52994e-12
0.000413441
3.06592e-12
0.000413441
-5.79405e-13
0.000413441
9.04308e-12
0.000413441
5.58294e-12
0.000413441
3.73595e-12
7.66238e-12
0.000649003
-2.60514e-10
0.000649003
-2.44658e-10
0.000649003
-2.30134e-10
0.000649003
-2.1636e-10
0.000649003
-2.02546e-10
0.000649003
-1.88623e-10
0.000649003
-1.76969e-10
0.000649003
-1.65736e-10
0.000649003
-1.52444e-10
0.000649003
-1.39824e-10
0.000649003
-1.3078e-10
0.000649003
-1.2322e-10
0.000649003
-1.14288e-10
0.000649003
-1.04368e-10
0.000649003
-9.50339e-11
0.000649003
-8.68832e-11
0.000649003
-7.98575e-11
0.000649003
-7.35305e-11
0.000649003
-6.71534e-11
0.000649003
-6.03398e-11
0.000649003
-5.34416e-11
0.000649003
-4.69995e-11
0.000649003
-4.12608e-11
0.000649003
-3.6292e-11
0.000649003
-3.21732e-11
0.000649003
-2.8916e-11
0.000649003
-2.63716e-11
0.000649003
-2.43095e-11
0.000649003
-2.2545e-11
0.000649003
-2.09686e-11
0.000649003
-1.95177e-11
0.000649003
-1.81499e-11
0.000649003
-1.68414e-11
0.000649003
-1.55802e-11
0.000649003
-1.43636e-11
0.000649003
-1.31908e-11
0.000649003
-1.20642e-11
0.000649003
-1.09852e-11
0.000649003
-9.95663e-12
0.000649003
-8.97791e-12
0.000649003
-8.0502e-12
0.000649003
-7.16818e-12
0.000649003
-6.33379e-12
0.000649003
-5.53332e-12
0.000649003
-4.77953e-12
0.000649003
-4.03744e-12
0.000649003
-3.35743e-12
0.000649003
-2.6416e-12
0.000649003
-2.04802e-12
0.000649003
-1.31202e-12
0.000649003
-8.58039e-13
0.000649003
-4.63159e-14
0.000649003
2.11266e-13
0.000649003
1.27707e-12
0.000649003
1.20078e-12
0.000649003
2.4319e-12
0.000649003
2.2035e-12
0.000649003
3.19307e-12
0.000649003
3.52779e-12
0.000649003
3.2246e-12
0.000649003
5.33295e-12
0.000649003
2.72249e-12
0.000649003
6.80584e-12
0.000649003
3.15164e-12
0.000649003
5.99526e-12
0.000649003
6.30801e-12
0.000649003
2.50981e-12
0.000649003
1.01471e-11
0.000649003
1.28033e-12
0.000649003
8.15388e-12
0.000649003
7.30507e-12
0.000649003
9.41738e-13
0.000649003
1.29168e-11
0.000649003
1.27433e-12
0.000649003
6.91805e-12
0.000649003
1.07837e-11
0.000649003
6.45178e-13
0.000649003
1.18361e-11
0.000649003
6.92937e-12
0.000649003
4.53108e-12
0.000649003
1.34547e-11
0.000649003
5.30273e-12
0.000649003
9.90416e-12
0.000649003
1.31734e-11
0.000649003
7.81447e-12
0.000649003
1.27475e-11
0.000649003
1.51148e-11
0.000649003
1.18407e-11
1.50964e-11
0.000684027
9.19663e-11
0.000684026
6.92903e-11
0.000684026
5.02274e-11
0.000684026
3.43749e-11
0.000684026
2.07448e-11
0.000684026
1.00887e-11
0.000684025
1.52774e-12
0.000684025
-6.386e-12
0.000684025
-1.2809e-11
0.000684025
-1.67222e-11
0.000684025
-2.00891e-11
0.000684025
-2.34858e-11
0.000684025
-2.56598e-11
0.000684025
-2.62811e-11
0.000684024
-2.63341e-11
0.000684024
-2.6333e-11
0.000684024
-2.60313e-11
0.000684024
-2.52948e-11
0.000684024
-2.42093e-11
0.000684024
-2.27444e-11
0.000684024
-2.08857e-11
0.000684024
-1.88346e-11
0.000684024
-1.689e-11
0.000684024
-1.5245e-11
0.000684024
-1.39669e-11
0.000684024
-1.30518e-11
0.000684024
-1.24438e-11
0.000684024
-1.20399e-11
0.000684024
-1.17313e-11
0.000684024
-1.14354e-11
0.000684024
-1.11036e-11
0.000684024
-1.07139e-11
0.000684024
-1.02659e-11
0.000684024
-9.7592e-12
0.000684024
-9.20235e-12
0.000684024
-8.60801e-12
0.000684024
-7.98881e-12
0.000684024
-7.35402e-12
0.000684024
-6.71262e-12
0.000684024
-6.06971e-12
0.000684024
-5.43116e-12
0.000684024
-4.79717e-12
0.000684024
-4.1723e-12
0.000684024
-3.55079e-12
0.000684024
-2.94099e-12
0.000684024
-2.32925e-12
0.000684024
-1.73803e-12
0.000684024
-1.12636e-12
0.000684024
-5.53102e-13
0.000684024
6.29222e-14
0.000684024
5.67408e-13
0.000684024
1.20774e-12
0.000684024
1.65272e-12
0.000684024
2.34361e-12
0.000684024
2.70526e-12
0.000684024
3.40228e-12
0.000684024
3.75533e-12
0.000684024
4.29153e-12
0.000684024
4.87452e-12
0.000684024
4.93725e-12
0.000684024
6.03712e-12
0.000684024
5.4776e-12
0.000684024
6.90883e-12
0.000684024
6.39944e-12
0.000684024
6.98273e-12
0.000684024
8.01398e-12
0.000684024
6.53374e-12
0.000684024
9.29963e-12
0.000684024
7.32974e-12
0.000684024
8.50526e-12
0.000684024
1.02044e-11
0.000684024
6.97242e-12
0.000684024
1.17298e-11
0.000684024
8.97862e-12
0.000684024
9.4492e-12
0.000684024
1.31515e-11
0.000684024
9.01665e-12
0.000684024
1.27732e-11
0.000684024
1.38752e-11
0.000684024
1.06083e-11
0.000684024
1.64634e-11
0.000684024
1.43217e-11
0.000684024
1.46338e-11
0.000684024
1.87041e-11
0.000684024
1.75727e-11
0.000684024
1.78915e-11
0.000684024
2.24016e-11
0.000684024
2.09726e-11
2.35607e-11
0.00068754
4.85245e-10
0.00068754
4.21188e-10
0.000687539
3.65067e-10
0.000687539
3.16092e-10
0.000687539
2.72849e-10
0.000687538
2.35098e-10
0.000687538
2.02297e-10
0.000687538
1.73105e-10
0.000687538
1.47386e-10
0.000687538
1.25725e-10
0.000687538
1.07263e-10
0.000687538
9.08016e-11
0.000687537
7.64417e-11
0.000687537
6.44436e-11
0.000687537
5.42108e-11
0.000687537
4.52294e-11
0.000687537
3.75979e-11
0.000687537
3.13288e-11
0.000687537
2.60497e-11
0.000687537
2.15261e-11
0.000687537
1.78391e-11
0.000687537
1.49814e-11
0.000687537
1.26912e-11
0.000687537
1.06779e-11
0.000687537
8.8044e-12
0.000687537
7.04416e-12
0.000687537
5.38793e-12
0.000687537
3.84265e-12
0.000687537
2.43879e-12
0.000687537
1.21455e-12
0.000687537
2.03617e-13
0.000687537
-5.82565e-13
0.000687537
-1.23287e-12
0.000687537
-1.71045e-12
0.000687537
-2.02407e-12
0.000687537
-2.20361e-12
0.000687537
-2.27439e-12
0.000687537
-2.24993e-12
0.000687537
-2.14806e-12
0.000687537
-1.97833e-12
0.000687537
-1.75203e-12
0.000687537
-1.47807e-12
0.000687537
-1.16705e-12
0.000687537
-8.16788e-13
0.000687537
-4.39993e-13
0.000687537
-3.59219e-14
0.000687537
3.64697e-13
0.000687537
8.10809e-13
0.000687537
1.2634e-12
0.000687537
1.74497e-12
0.000687537
2.20987e-12
0.000687537
2.71723e-12
0.000687537
3.18622e-12
0.000687537
3.71151e-12
0.000687537
4.18283e-12
0.000687537
4.69677e-12
0.000687537
5.19474e-12
0.000687537
5.64256e-12
0.000687537
6.21619e-12
0.000687537
6.54604e-12
0.000687537
7.20058e-12
0.000687537
7.47392e-12
0.000687537
8.04703e-12
0.000687537
8.52684e-12
0.000687537
8.72716e-12
0.000687537
9.63098e-12
0.000687537
9.52299e-12
0.000687537
1.04076e-11
0.000687537
1.08667e-11
0.000687537
1.07516e-11
0.000687537
1.24487e-11
0.000687537
1.15588e-11
0.000687537
1.32358e-11
0.000687537
1.35839e-11
0.000687537
1.35244e-11
0.000687537
1.55053e-11
0.000687537
1.53133e-11
0.000687537
1.59975e-11
0.000687537
1.83922e-11
0.000687537
1.71632e-11
0.000687537
2.00143e-11
0.000687537
2.06321e-11
0.000687537
2.13202e-11
0.000687537
2.3138e-11
0.000687537
2.51738e-11
0.000687537
2.48678e-11
0.000687537
2.86257e-11
0.000687537
2.86237e-11
3.18085e-11
0.000687805
8.45324e-10
0.000687805
7.43796e-10
0.000687805
6.53906e-10
0.000687804
5.74575e-10
0.000687804
5.04313e-10
0.000687804
4.42126e-10
0.000687804
3.87371e-10
0.000687804
3.38904e-10
0.000687804
2.95864e-10
0.000687803
2.58168e-10
0.000687803
2.25375e-10
0.000687803
1.96508e-10
0.000687803
1.71069e-10
0.000687803
1.48882e-10
0.000687803
1.29403e-10
0.000687803
1.12137e-10
0.000687803
9.71009e-11
0.000687803
8.42691e-11
0.000687803
7.31769e-11
0.000687803
6.33807e-11
0.000687803
5.48202e-11
0.000687803
4.75236e-11
0.000687803
4.12962e-11
0.000687803
3.58355e-11
0.000687803
3.09516e-11
0.000687803
2.6578e-11
0.000687802
2.26752e-11
0.000687802
1.91986e-11
0.000687802
1.61188e-11
0.000687802
1.34243e-11
0.000687802
1.11034e-11
0.000687802
9.13108e-12
0.000687802
7.47059e-12
0.000687802
6.09228e-12
0.000687802
4.96545e-12
0.000687802
4.05879e-12
0.000687802
3.34335e-12
0.000687802
2.79386e-12
0.000687802
2.38834e-12
0.000687802
2.10806e-12
0.000687802
1.93671e-12
0.000687802
1.86037e-12
0.000687802
1.86684e-12
0.000687802
1.94627e-12
0.000687802
2.08877e-12
0.000687802
2.28684e-12
0.000687802
2.53113e-12
0.000687802
2.82058e-12
0.000687802
3.14612e-12
0.000687802
3.50639e-12
0.000687802
3.8918e-12
0.000687802
4.30365e-12
0.000687802
4.73553e-12
0.000687802
5.18133e-12
0.000687802
5.65278e-12
0.000687802
6.11284e-12
0.000687802
6.62281e-12
0.000687802
7.08236e-12
0.000687802
7.62196e-12
0.000687802
8.09466e-12
0.000687802
8.6186e-12
0.000687802
9.17024e-12
0.000687802
9.60049e-12
0.000687802
1.02942e-11
0.000687802
1.06453e-11
0.000687802
1.13645e-11
0.000687802
1.1904e-11
0.000687802
1.23227e-11
0.000687802
1.33526e-11
0.000687802
1.34166e-11
0.000687802
1.4698e-11
0.000687802
1.49623e-11
0.000687802
1.59299e-11
0.000687802
1.67512e-11
0.000687802
1.7526e-11
0.000687802
1.84579e-11
0.000687802
1.96864e-11
0.000687802
2.0182e-11
0.000687802
2.22536e-11
0.000687802
2.237e-11
0.000687802
2.46487e-11
0.000687802
2.55093e-11
0.000687802
2.73151e-11
0.000687802
2.83e-11
0.000687802
3.13495e-11
0.000687802
3.13488e-11
0.000687802
3.50462e-11
0.000687802
3.55063e-11
3.96104e-11
0.000687821
1.14245e-09
0.000687821
1.01027e-09
0.00068782
8.92805e-10
0.00068782
7.88632e-10
0.00068782
6.96188e-10
0.00068782
6.1409e-10
0.00068782
5.41365e-10
0.00068782
4.76889e-10
0.000687819
4.19578e-10
0.000687819
3.68886e-10
0.000687819
3.24294e-10
0.000687819
2.84955e-10
0.000687819
2.50204e-10
0.000687819
2.19601e-10
0.000687819
1.92542e-10
0.000687819
1.68496e-10
0.000687819
1.47341e-10
0.000687819
1.28975e-10
0.000687819
1.12936e-10
0.000687819
9.87242e-11
0.000687819
8.61641e-11
0.000687819
7.5229e-11
0.000687819
6.57428e-11
0.000687819
5.74142e-11
0.000687819
5.00238e-11
0.000687819
4.34638e-11
0.000687819
3.7661e-11
0.000687819
3.25368e-11
0.000687819
2.80224e-11
0.000687819
2.4068e-11
0.000687819
2.06315e-11
0.000687819
1.76677e-11
0.000687819
1.51282e-11
0.000687819
1.29664e-11
0.000687819
1.11393e-11
0.000687819
9.60749e-12
0.000687819
8.33493e-12
0.000687819
7.28988e-12
0.000687819
6.44452e-12
0.000687819
5.77464e-12
0.000687819
5.25913e-12
0.000687818
4.87952e-12
0.000687818
4.61962e-12
0.000687818
4.46532e-12
0.000687818
4.40415e-12
0.000687818
4.42503e-12
0.000687818
4.51858e-12
0.000687818
4.67609e-12
0.000687818
4.89118e-12
0.000687818
5.15459e-12
0.000687818
5.46526e-12
0.000687818
5.80873e-12
0.000687818
6.19679e-12
0.000687818
6.59798e-12
0.000687818
7.05195e-12
0.000687818
7.49239e-12
0.000687818
8.00233e-12
0.000687818
8.47679e-12
0.000687818
9.01888e-12
0.000687818
9.55493e-12
0.000687818
1.00747e-11
0.000687818
1.07329e-11
0.000687818
1.11806e-11
0.000687818
1.19675e-11
0.000687818
1.24353e-11
0.000687818
1.31574e-11
0.000687818
1.39447e-11
0.000687818
1.43338e-11
0.000687818
1.55729e-11
0.000687818
1.582e-11
0.000687818
1.70602e-11
0.000687818
1.77421e-11
0.000687818
1.86884e-11
0.000687818
1.96538e-11
0.000687818
2.09088e-11
0.000687818
2.15932e-11
0.000687818
2.33624e-11
0.000687818
2.40277e-11
0.000687818
2.60513e-11
0.000687818
2.67231e-11
0.000687818
2.91363e-11
0.000687818
2.99636e-11
0.000687818
3.25268e-11
0.000687818
3.33464e-11
0.000687818
3.68215e-11
0.000687818
3.71609e-11
0.000687818
4.12059e-11
0.000687818
4.16934e-11
4.64517e-11
0.000687821
1.35886e-09
0.000687821
1.20471e-09
0.000687821
1.0675e-09
0.000687821
9.45504e-10
0.00068782
8.37037e-10
0.00068782
7.40547e-10
0.00068782
6.54838e-10
0.00068782
5.78717e-10
0.00068782
5.11025e-10
0.00068782
4.50964e-10
0.00068782
3.97838e-10
0.00068782
3.50816e-10
0.00068782
3.09192e-10
0.00068782
2.72401e-10
0.00068782
2.39783e-10
0.00068782
2.10773e-10
0.00068782
1.8513e-10
0.00068782
1.62661e-10
0.00068782
1.42923e-10
0.00068782
1.25427e-10
0.000687819
1.09927e-10
0.000687819
9.63172e-11
0.000687819
8.44079e-11
0.000687819
7.3926e-11
0.000687819
6.46472e-11
0.000687819
5.64354e-11
0.000687819
4.91887e-11
0.000687819
4.28062e-11
0.000687819
3.71952e-11
0.000687819
3.22809e-11
0.000687819
2.79987e-11
0.000687819
2.42862e-11
0.000687819
2.10824e-11
0.000687819
1.83301e-11
0.000687819
1.59771e-11
0.000687819
1.39766e-11
0.000687819
1.22867e-11
0.000687819
1.08705e-11
0.000687819
9.69536e-12
0.000687819
8.73306e-12
0.000687819
7.95878e-12
0.000687819
7.35078e-12
0.000687819
6.89002e-12
0.000687819
6.55967e-12
0.000687819
6.34511e-12
0.000687819
6.23295e-12
0.000687819
6.21234e-12
0.000687819
6.27179e-12
0.000687819
6.40473e-12
0.000687819
6.59866e-12
0.000687819
6.85438e-12
0.000687819
7.15226e-12
0.000687819
7.50882e-12
0.000687819
7.88489e-12
0.000687819
8.32775e-12
0.000687819
8.76232e-12
0.000687819
9.27811e-12
0.000687819
9.76759e-12
0.000687819
1.03279e-11
0.000687819
1.09032e-11
0.000687819
1.14504e-11
0.000687819
1.21715e-11
0.000687819
1.26618e-11
0.000687819
1.35219e-11
0.000687819
1.40674e-11
0.000687819
1.48532e-11
0.000687819
1.57642e-11
0.000687819
1.6218e-11
0.000687819
1.75891e-11
0.000687819
1.79563e-11
0.000687819
1.92934e-11
0.000687819
2.0145e-11
0.000687819
2.12285e-11
0.000687819
2.22914e-11
0.000687819
2.38137e-11
0.000687819
2.45468e-11
0.000687819
2.65587e-11
0.000687819
2.74114e-11
0.000687819
2.9589e-11
0.000687819
3.04482e-11
0.000687819
3.31752e-11
0.000687819
3.40387e-11
0.000687819
3.7012e-11
0.000687819
3.79232e-11
0.000687819
4.17524e-11
0.000687819
4.22351e-11
0.000687819
4.67211e-11
0.000687819
4.72231e-11
5.26062e-11
0.00068782
1.48255e-09
0.00068782
1.31635e-09
0.00068782
1.16824e-09
0.00068782
1.03637e-09
0.00068782
9.18959e-10
0.00068782
8.1442e-10
0.00068782
7.21439e-10
0.00068782
6.38745e-10
0.00068782
5.65176e-10
0.00068782
4.99818e-10
0.00068782
4.41827e-10
0.00068782
3.90357e-10
0.00068782
3.44716e-10
0.00068782
3.04292e-10
0.00068782
2.68408e-10
0.00068782
2.36498e-10
0.00068782
2.08238e-10
0.00068782
1.83338e-10
0.000687819
1.61359e-10
0.000687819
1.41868e-10
0.000687819
1.24601e-10
0.000687819
1.09383e-10
0.000687819
9.59985e-11
0.000687819
8.41921e-11
0.000687819
7.37535e-11
0.000687819
6.45323e-11
0.000687819
5.64049e-11
0.000687819
4.92554e-11
0.000687819
4.2979e-11
0.000687819
3.74864e-11
0.000687819
3.26981e-11
0.000687819
2.85396e-11
0.000687819
2.4941e-11
0.000687819
2.18379e-11
0.000687819
1.91725e-11
0.000687819
1.68932e-11
0.000687819
1.49541e-11
0.000687819
1.33152e-11
0.000687819
1.19414e-11
0.000687819
1.0802e-11
0.000687819
9.87035e-12
0.000687819
9.12304e-12
0.000687819
8.53956e-12
0.000687819
8.10171e-12
0.000687819
7.79375e-12
0.000687819
7.60111e-12
0.000687819
7.51212e-12
0.000687819
7.51405e-12
0.000687819
7.59992e-12
0.000687819
7.75577e-12
0.000687819
7.98282e-12
0.000687819
8.25919e-12
0.000687819
8.60332e-12
0.000687819
8.97225e-12
0.000687819
9.41736e-12
0.000687819
9.85786e-12
0.000687819
1.0389e-11
0.000687819
1.08976e-11
0.000687819
1.1484e-11
0.000687819
1.20939e-11
0.000687819
1.26747e-11
0.000687819
1.34493e-11
0.000687819
1.39799e-11
0.000687819
1.49096e-11
0.000687819
1.55117e-11
0.000687819
1.63686e-11
0.000687819
1.73697e-11
0.000687819
1.78857e-11
0.000687819
1.93772e-11
0.000687819
1.98201e-11
0.000687819
2.12761e-11
0.000687819
2.22393e-11
0.000687819
2.34489e-11
0.000687819
2.46172e-11
0.000687819
2.63207e-11
0.000687819
2.71416e-11
0.000687819
2.93448e-11
0.000687819
3.03325e-11
0.000687819
3.2697e-11
0.000687819
3.36701e-11
0.000687819
3.66771e-11
0.000687819
3.76082e-11
0.000687819
4.08794e-11
0.000687819
4.19055e-11
0.000687819
4.60458e-11
0.000687819
4.66073e-11
0.000687819
5.1507e-11
0.000687819
5.20411e-11
5.79139e-11
0.00068782
1.50737e-09
0.00068782
1.3396e-09
0.00068782
1.19001e-09
0.00068782
1.05668e-09
0.00068782
9.37873e-10
0.00068782
8.32049e-10
0.00068782
7.37816e-10
0.00068782
6.53912e-10
0.000687819
5.79279e-10
0.000687819
5.12948e-10
0.000687819
4.53961e-10
0.000687819
4.01508e-10
0.000687819
3.54949e-10
0.000687819
3.13645e-10
0.000687819
2.7695e-10
0.000687819
2.44357e-10
0.000687819
2.15479e-10
0.000687819
1.89915e-10
0.000687819
1.67254e-10
0.000687819
1.47161e-10
0.000687819
1.29379e-10
0.000687819
1.13673e-10
0.000687819
9.98008e-11
0.000687819
8.75434e-11
0.000687819
7.67205e-11
0.000687819
6.71791e-11
0.000687819
5.87826e-11
0.000687819
5.14088e-11
0.000687819
4.49503e-11
0.000687819
3.93108e-11
0.000687819
3.44016e-11
0.000687819
3.01405e-11
0.000687819
2.64526e-11
0.000687819
2.32701e-11
0.000687819
2.05325e-11
0.000687819
1.81864e-11
0.000687819
1.61851e-11
0.000687819
1.4488e-11
0.000687819
1.30599e-11
0.000687819
1.18701e-11
0.000687819
1.08923e-11
0.000687819
1.01031e-11
0.000687819
9.48242e-12
0.000687819
9.01214e-12
0.000687819
8.67665e-12
0.000687819
8.46134e-12
0.000687819
8.35459e-12
0.000687819
8.34345e-12
0.000687819
8.4211e-12
0.000687819
8.57295e-12
0.000687819
8.80077e-12
0.000687819
9.08129e-12
0.000687819
9.43456e-12
0.000687819
9.81481e-12
0.000687819
1.02771e-11
0.000687819
1.07356e-11
0.000687819
1.12918e-11
0.000687819
1.18256e-11
0.000687819
1.24436e-11
0.000687819
1.30887e-11
0.000687819
1.37043e-11
0.000687819
1.45286e-11
0.000687819
1.50954e-11
0.000687819
1.60891e-11
0.000687819
1.67368e-11
0.000687819
1.76583e-11
0.000687819
1.87349e-11
0.000687819
1.92998e-11
0.000687819
2.09019e-11
0.000687819
2.13944e-11
0.000687819
2.29632e-11
0.000687819
2.40115e-11
0.000687819
2.53235e-11
0.000687819
2.65904e-11
0.000687819
2.84301e-11
0.000687819
2.93312e-11
0.000687819
3.16981e-11
0.000687819
3.27805e-11
0.000687819
3.53182e-11
0.000687819
3.63775e-11
0.000687819
3.96046e-11
0.000687819
4.06141e-11
0.000687819
4.41137e-11
0.000687819
4.52337e-11
0.000687819
4.96482e-11
0.000687819
5.02634e-11
0.000687819
5.54964e-11
0.000687819
5.60656e-11
6.2335e-11
0.000687819
1.43313e-09
0.000687819
1.27427e-09
0.000687819
1.1326e-09
0.000687819
1.00617e-09
0.000687819
8.93448e-10
0.000687819
7.93072e-10
0.000687819
7.03626e-10
0.000687819
6.23969e-10
0.000687819
5.53163e-10
0.000687819
4.90146e-10
0.000687819
4.33964e-10
0.000687819
3.84e-10
0.000687819
3.39656e-10
0.000687819
3.00233e-10
0.000687819
2.65196e-10
0.000687819
2.34161e-10
0.000687819
2.06653e-10
0.000687819
1.8217e-10
0.000687819
1.60393e-10
0.000687819
1.41121e-10
0.000687819
1.2409e-10
0.000687819
1.08997e-10
0.000687819
9.56068e-11
0.000687819
8.377e-11
0.000687819
7.33471e-11
0.000687819
6.41866e-11
0.000687819
5.61482e-11
0.000687819
4.91149e-11
0.000687819
4.29826e-11
0.000687819
3.76512e-11
0.000687819
3.30261e-11
0.000687819
2.90219e-11
0.000687819
2.55624e-11
0.000687819
2.25802e-11
0.000687819
2.0016e-11
0.000687819
1.78183e-11
0.000687819
1.5943e-11
0.000687819
1.43523e-11
0.000687819
1.3014e-11
0.000687819
1.19003e-11
0.000687819
1.09872e-11
0.000687819
1.02537e-11
0.000687819
9.68146e-12
0.000687819
9.25419e-12
0.000687819
8.95762e-12
0.000687819
8.7782e-12
0.000687819
8.70521e-12
0.000687819
8.72621e-12
0.000687819
8.83509e-12
0.000687819
9.01731e-12
0.000687819
9.27566e-12
0.000687819
9.58609e-12
0.000687819
9.97059e-12
0.000687819
1.03808e-11
0.000687819
1.08758e-11
0.000687819
1.13644e-11
0.000687819
1.19554e-11
0.000687819
1.25209e-11
0.000687819
1.31755e-11
0.000687819
1.38575e-11
0.000687819
1.45087e-11
0.000687819
1.53803e-11
0.000687819
1.59798e-11
0.000687819
1.70314e-11
0.000687819
1.77179e-11
0.000687819
1.86936e-11
0.000687819
1.98374e-11
0.000687819
2.04353e-11
0.000687819
2.21387e-11
0.000687819
2.2661e-11
0.000687819
2.43288e-11
0.000687819
2.54433e-11
0.000687819
2.68356e-11
0.000687819
2.81846e-11
0.000687819
3.0132e-11
0.000687819
3.10939e-11
0.000687819
3.35945e-11
0.000687819
3.47479e-11
0.000687819
3.74236e-11
0.000687819
3.85484e-11
0.000687819
4.19468e-11
0.000687819
4.30187e-11
0.000687819
4.66872e-11
0.000687819
4.788e-11
0.000687819
5.25068e-11
0.000687819
5.31625e-11
0.000687819
5.86539e-11
0.000687819
5.92594e-11
6.58079e-11
0.000687818
1.26554e-09
0.000687818
1.12547e-09
0.000687818
1.00045e-09
0.000687818
8.88772e-10
0.000687819
7.89293e-10
0.000687819
7.00678e-10
0.000687819
6.21623e-10
0.000687819
5.51394e-10
0.000687819
4.89075e-10
0.000687819
4.33362e-10
0.000687819
3.83548e-10
0.000687819
3.39384e-10
0.000687819
3.00199e-10
0.000687819
2.65232e-10
0.000687819
2.34222e-10
0.000687819
2.06908e-10
0.000687819
1.8263e-10
0.000687819
1.60842e-10
0.000687819
1.41441e-10
0.000687819
1.24356e-10
0.000687819
1.09251e-10
0.000687819
9.57625e-11
0.000687819
8.37355e-11
0.000687819
7.31264e-11
0.000687819
6.3838e-11
0.000687819
5.57218e-11
0.000687819
4.86459e-11
0.000687819
4.25072e-11
0.000687819
3.72049e-11
0.000687819
3.26336e-11
0.000687819
2.86938e-11
0.000687819
2.53e-11
0.000687819
2.23788e-11
0.000687819
1.98673e-11
0.000687819
1.77115e-11
0.000687819
1.58665e-11
0.000687819
1.42946e-11
0.000687819
1.29647e-11
0.000687819
1.18506e-11
0.000687819
1.09302e-11
0.000687819
1.01845e-11
0.000687819
9.59684e-12
0.000687819
9.15256e-12
0.000687819
8.83836e-12
0.000687819
8.64241e-12
0.000687819
8.55342e-12
0.000687819
8.56238e-12
0.000687819
8.65821e-12
0.000687819
8.83588e-12
0.000687819
9.08129e-12
0.000687819
9.39842e-12
0.000687819
9.76279e-12
0.000687819
1.01988e-11
0.000687819
1.06559e-11
0.000687819
1.1198e-11
0.000687819
1.17282e-11
0.000687819
1.23633e-11
0.000687819
1.29664e-11
0.000687819
1.3662e-11
0.000687819
1.43822e-11
0.000687819
1.50697e-11
0.000687819
1.5986e-11
0.000687819
1.66158e-11
0.000687819
1.77191e-11
0.000687819
1.84395e-11
0.000687819
1.94584e-11
0.000687819
2.06629e-11
0.000687819
2.12779e-11
0.000687819
2.30735e-11
0.000687819
2.36077e-11
0.000687819
2.5359e-11
0.000687819
2.65231e-11
0.000687819
2.79735e-11
0.000687819
2.93863e-11
0.000687819
3.14156e-11
0.000687819
3.24177e-11
0.000687819
3.50194e-11
0.000687819
3.62248e-11
0.000687819
3.89974e-11
0.000687819
4.01687e-11
0.000687819
4.36895e-11
0.000687819
4.48084e-11
0.000687819
4.85858e-11
0.000687819
4.98371e-11
0.000687819
5.46031e-11
0.000687819
5.52873e-11
0.000687819
6.09401e-11
0.000687819
6.15813e-11
6.83112e-11
0.000687817
1.01582e-09
0.000687818
9.03224e-10
0.000687818
8.02487e-10
0.000687818
7.12438e-10
0.000687818
6.32527e-10
0.000687818
5.61299e-10
0.000687818
4.97643e-10
0.000687818
4.41352e-10
0.000687819
3.914e-10
0.000687819
3.46411e-10
0.000687819
3.06248e-10
0.000687819
2.70909e-10
0.000687819
2.39425e-10
0.000687819
2.11143e-10
0.000687819
1.86264e-10
0.000687819
1.64559e-10
0.000687819
1.45124e-10
0.000687819
1.27494e-10
0.000687819
1.11847e-10
0.000687819
9.816e-11
0.000687819
8.59815e-11
0.000687819
7.49627e-11
0.000687819
6.50974e-11
0.000687819
5.64527e-11
0.000687819
4.8962e-11
0.000687819
4.24874e-11
0.000687819
3.69196e-11
0.000687819
3.21703e-11
0.000687819
2.81384e-11
0.000687819
2.47121e-11
0.000687819
2.17923e-11
0.000687819
1.92984e-11
0.000687819
1.71661e-11
0.000687819
1.53422e-11
0.000687819
1.3784e-11
0.000687819
1.24575e-11
0.000687819
1.1336e-11
0.000687819
1.03977e-11
0.000687819
9.62485e-12
0.000687819
9.00227e-12
0.000687819
8.51747e-12
0.000687819
8.15907e-12
0.000687819
7.91742e-12
0.000687819
7.78275e-12
0.000687819
7.74678e-12
0.000687819
7.80036e-12
0.000687819
7.93716e-12
0.000687819
8.14755e-12
0.000687819
8.42898e-12
0.000687819
8.76815e-12
0.000687819
9.17122e-12
0.000687819
9.61289e-12
0.000687819
1.01201e-11
0.000687819
1.064e-11
0.000687819
1.12417e-11
0.000687819
1.18233e-11
0.000687819
1.25104e-11
0.000687819
1.31571e-11
0.000687819
1.3898e-11
0.000687819
1.46576e-11
0.000687819
1.53821e-11
0.000687819
1.63393e-11
0.000687819
1.69979e-11
0.000687819
1.81442e-11
0.000687819
1.88952e-11
0.000687819
1.99459e-11
0.000687819
2.12033e-11
0.000687819
2.18248e-11
0.000687819
2.36975e-11
0.000687819
2.42341e-11
0.000687819
2.6049e-11
0.000687819
2.72489e-11
0.000687819
2.87362e-11
0.000687819
3.01948e-11
0.000687819
3.22781e-11
0.000687819
3.33049e-11
0.000687819
3.59684e-11
0.000687819
3.72105e-11
0.000687819
4.00339e-11
0.000687819
4.12343e-11
0.000687819
4.48225e-11
0.000687819
4.59726e-11
0.000687819
4.97969e-11
0.000687819
5.10931e-11
0.000687819
5.59304e-11
0.000687819
5.66348e-11
0.000687819
6.2359e-11
0.000687819
6.30214e-11
6.98362e-11
0.000687817
7.00108e-10
0.000687817
6.21748e-10
0.000687817
5.51427e-10
0.000687818
4.88832e-10
0.000687818
4.33541e-10
0.000687818
3.84071e-10
0.000687818
3.40006e-10
0.000687818
3.01281e-10
0.000687818
2.66522e-10
0.000687818
2.35005e-10
0.000687819
2.07403e-10
0.000687819
1.83353e-10
0.000687819
1.61489e-10
0.000687819
1.41726e-10
0.000687819
1.24752e-10
0.000687819
1.10128e-10
0.000687819
9.68098e-11
0.000687819
8.45928e-11
0.000687819
7.38179e-11
0.000687819
6.43746e-11
0.000687819
5.58157e-11
0.000687819
4.79809e-11
0.000687819
4.10205e-11
0.000687819
3.50289e-11
0.000687819
2.99288e-11
0.000687819
2.56016e-11
0.000687819
2.19706e-11
0.000687819
1.89651e-11
0.000687819
1.64943e-11
0.000687819
1.4459e-11
0.000687819
1.27755e-11
0.000687819
1.13765e-11
0.000687819
1.02104e-11
0.000687819
9.23582e-12
0.000687819
8.42347e-12
0.000687819
7.75113e-12
0.000687819
7.20406e-12
0.000687819
6.77008e-12
0.000687819
6.44124e-12
0.000687819
6.20975e-12
0.000687819
6.07042e-12
0.000687819
6.01705e-12
0.000687819
6.04545e-12
0.000687819
6.14997e-12
0.000687819
6.32713e-12
0.000687819
6.57074e-12
0.000687819
6.87746e-12
0.000687819
7.23892e-12
0.000687819
7.65491e-12
0.000687819
8.11322e-12
0.000687819
8.62294e-12
0.000687819
9.15966e-12
0.000687819
9.75348e-12
0.000687819
1.035e-11
0.000687819
1.10215e-11
0.000687819
1.16628e-11
0.000687819
1.24057e-11
0.000687819
1.30999e-11
0.000687819
1.38874e-11
0.000687819
1.46871e-11
0.000687819
1.54495e-11
0.000687819
1.64428e-11
0.000687819
1.71316e-11
0.000687819
1.83106e-11
0.000687819
1.90906e-11
0.000687819
2.01637e-11
0.000687819
2.14601e-11
0.000687819
2.2088e-11
0.000687819
2.40086e-11
0.000687819
2.45508e-11
0.000687819
2.64001e-11
0.000687819
2.76255e-11
0.000687819
2.91288e-11
0.000687819
3.06161e-11
0.000687819
3.27219e-11
0.000687819
3.37649e-11
0.000687819
3.64476e-11
0.000687819
3.77119e-11
0.000687819
4.05428e-11
0.000687819
4.17561e-11
0.000687819
4.53536e-11
0.000687819
4.65197e-11
0.000687819
5.03292e-11
0.000687819
5.16496e-11
0.000687819
5.64768e-11
0.000687819
5.71921e-11
0.000687819
6.29018e-11
0.000687819
6.35827e-11
7.03341e-11
0.000687816
3.38209e-10
0.000687817
2.9886e-10
0.000687817
2.63479e-10
0.000687817
2.32418e-10
0.000687818
2.05094e-10
0.000687818
1.80422e-10
0.000687818
1.588e-10
0.000687818
1.39917e-10
0.000687818
1.22303e-10
0.000687818
1.06573e-10
0.000687818
9.37498e-11
0.000687819
8.25214e-11
0.000687819
7.15303e-11
0.000687819
6.15761e-11
0.000687819
5.36387e-11
0.000687819
4.70504e-11
0.000687819
4.08724e-11
0.000687819
3.50947e-11
0.000687819
2.99523e-11
0.000687819
2.52965e-11
0.000687819
2.09731e-11
0.000687819
1.71125e-11
0.000687819
1.38754e-11
0.000687819
1.12061e-11
0.000687819
8.9471e-12
0.000687819
7.00605e-12
0.000687819
5.37679e-12
0.000687819
4.0703e-12
0.000687819
3.08405e-12
0.000687819
2.39269e-12
0.000687819
1.95617e-12
0.000687819
1.71971e-12
0.000687819
1.62939e-12
0.000687819
1.63711e-12
0.000687819
1.71099e-12
0.000687819
1.82959e-12
0.000687819
1.98411e-12
0.000687819
2.16966e-12
0.000687819
2.38764e-12
0.000687819
2.63833e-12
0.000687819
2.92526e-12
0.000687819
3.24891e-12
0.000687819
3.61156e-12
0.000687819
4.01121e-12
0.000687819
4.44917e-12
0.000687819
4.92309e-12
0.000687819
5.43443e-12
0.000687819
5.97798e-12
0.000687819
6.55699e-12
0.000687819
7.15997e-12
0.000687819
7.79722e-12
0.000687819
8.44473e-12
0.000687819
9.13544e-12
0.000687819
9.81761e-12
0.000687819
1.05656e-11
0.000687819
1.12748e-11
0.000687819
1.20766e-11
0.000687819
1.28219e-11
0.000687819
1.36536e-11
0.000687819
1.44915e-11
0.000687819
1.52898e-11