/*--------------------------------*- C++ -*----------------------------------*\
| =========                 |                                                 |
| \\      /  F ield         | OpenFOAM: The Open Source CFD Toolbox           |
|  \\    /   O peration     | Version:  2312                                  |
|   \\  /    A nd           | Website:  www.openfoam.com                      |
|    \\/     M anipulation  |                                                 |
\*---------------------------------------------------------------------------*/
FoamFile
{
    version     2.0;
    format      ascii;
    arch        "LSB;label=32;scalar=64";
    class       surfaceScalarField;
    location    "83000";
    object      phi;
}
// * * * * * * * * * * * * * * * * * * * * * * * * * * * * * * * * * * * * * //

dimensions      [0 3 -1 0 0 0 0];

oriented        oriented;

internalField   nonuniform List<scalar> 
5309
(
7.45785e-05
2.7732e-05
6.91886e-05
5.38989e-06
6.29015e-05
6.28713e-06
5.97021e-05
3.1994e-06
5.86023e-05
1.09977e-06
5.93482e-05
-7.45847e-07
6.05741e-05
-1.22596e-06
6.31054e-05
-2.53124e-06
6.55237e-05
-2.41835e-06
6.90628e-05
-3.53904e-06
7.19409e-05
-2.87813e-06
7.58369e-05
-3.89597e-06
7.85232e-05
-2.68639e-06
8.21948e-05
-3.67158e-06
8.41312e-05
-1.93642e-06
8.72403e-05
-3.1091e-06
8.80794e-05
-8.39083e-07
9.04621e-05
-2.38268e-06
9.00159e-05
4.46191e-07
9.17428e-05
-1.72686e-06
8.9974e-05
1.76878e-06
9.11748e-05
-1.20078e-06
8.80362e-05
3.13855e-06
8.8811e-05
-7.74783e-07
8.41095e-05
4.70147e-06
8.47364e-05
-6.26831e-07
7.60608e-05
8.67555e-06
8.44311e-05
-8.37028e-06
3.5078e-05
4.93531e-05
-3.45731e-05
6.96511e-05
0.000148624
3.36223e-05
0.000146323
7.69083e-06
0.000144048
8.5621e-06
0.000142762
4.48558e-06
0.000142571
1.29054e-06
0.000144294
-2.46912e-06
0.000146809
-3.74101e-06
0.000151066
-6.78834e-06
0.000155486
-6.83782e-06
0.000161561
-9.61443e-06
0.000167081
-8.39774e-06
0.000174184
-1.09989e-05
0.000179906
-8.40928e-06
0.000187236
-1.10012e-05
0.000192326
-7.02635e-06
0.000199212
-9.99466e-06
0.00020297
-4.59758e-06
0.000209086
-8.49884e-06
0.000211184
-1.65155e-06
0.000216628
-7.17065e-06
0.000216524
1.87217e-06
0.000221824
-6.50074e-06
0.000218551
6.41146e-06
0.000224866
-7.0898e-06
0.000215972
1.35963e-05
0.00022679
-1.14454e-05
0.000203978
3.14877e-05
0.000223866
-2.82579e-05
0.000203286
6.99329e-05
-3.57639e-05
0.000204477
0.000197805
3.15243e-05
0.000198547
6.94852e-06
0.000200029
7.07989e-06
0.000200952
3.56263e-06
0.000202286
-4.33158e-08
0.00020469
-4.87363e-06
0.000207712
-6.76279e-06
0.000212197
-1.12735e-05
0.000216872
-1.15121e-05
0.000223156
-1.5899e-05
0.00022903
-1.42713e-05
0.000236608
-1.85769e-05
0.000242991
-1.47927e-05
0.000251285
-1.92955e-05
0.000257469
-1.32099e-05
0.000266002
-1.85277e-05
0.000271399
-9.99441e-06
0.000280053
-1.71533e-05
0.000284016
-5.61467e-06
0.000292901
-1.60555e-05
0.000294708
6.51684e-08
0.000304133
-1.59258e-05
0.000303168
7.37719e-06
0.000313759
-1.7681e-05
0.000308836
1.85192e-05
0.000320214
-2.2823e-05
0.00031587
3.5831e-05
0.000320553
-3.29404e-05
0.000335491
5.49945e-05
-1.81376e-05
0.000317865
0.00023474
2.69002e-05
0.00023478
6.90851e-06
0.000236936
4.92351e-06
0.000239051
1.44781e-06
0.000240948
-1.94068e-06
0.00024418
-8.10502e-06
0.000247647
-1.02301e-05
0.000252302
-1.59286e-05
0.000256992
-1.62018e-05
0.000263038
-2.19451e-05
0.00026874
-1.9973e-05
0.00027592
-2.57573e-05
0.000282226
-2.10985e-05
0.000290187
-2.72563e-05
0.000296637
-1.966e-05
0.000305088
-2.69792e-05
0.000311287
-1.61932e-05
0.000320021
-2.58871e-05
0.000325629
-1.12223e-05
0.00033445
-2.48768e-05
0.000339546
-5.03082e-06
0.000348258
-2.4638e-05
0.000353007
2.62779e-06
0.000360826
-2.54997e-05
0.00036689
1.24557e-05
0.000371538
-2.74712e-05
0.000383438
2.39305e-05
0.000378733
-2.82348e-05
0.000405661
2.80664e-05
-7.65198e-06
0.000395175
0.000263498
2.21346e-05
0.000263108
7.29781e-06
0.000265043
2.9887e-06
0.000267682
-1.19069e-06
0.000270183
-4.44207e-06
0.000273052
-1.09745e-05
0.000276412
-1.35896e-05
0.000280513
-2.00296e-05
0.000285008
-2.06969e-05
0.000290197
-2.71343e-05
0.000295665
-2.54411e-05
0.000301751
-3.18431e-05
0.000307971
-2.73188e-05
0.000314694
-3.39792e-05
0.000321436
-2.64016e-05
0.000328535
-3.40784e-05
0.000335654
-2.33125e-05
0.000342839
-3.30716e-05
0.000350402
-1.8786e-05
0.000357366
-3.18402e-05
0.000365688
-1.33533e-05
0.000371869
-3.08191e-05
0.000381572
-7.07487e-06
0.000386107
-3.00347e-05
0.000398665
-1.0256e-07
0.000399597
-2.84028e-05
0.000417876
5.65147e-06
0.000412156
-2.25147e-05
0.000436404
3.81766e-06
-6.28757e-06
0.00043504
0.000286292
1.81191e-05
0.000285862
7.72789e-06
0.000287256
1.5949e-06
0.000289376
-3.31079e-06
0.000291754
-6.82026e-06
0.000294233
-1.34536e-05
0.000297464
-1.68206e-05
0.000300885
-2.34505e-05
0.000305188
-2.49993e-05
0.000309392
-3.13385e-05
0.000314641
-3.06904e-05
0.000319497
-3.66991e-05
0.000325611
-3.34328e-05
0.000330932
-3.93001e-05
0.000337837
-3.33065e-05
0.000343403
-3.96439e-05
0.000351102
-3.10121e-05
0.000356655
-3.8624e-05
0.000365317
-2.74485e-05
0.000370525
-3.70479e-05
0.000380474
-2.33023e-05
0.000384861
-3.52068e-05
0.000396712
-1.89257e-05
0.000399503
-3.28252e-05
0.000414212
-1.4812e-05
0.000414478
-2.86684e-05
0.000432492
-1.23623e-05
0.000430841
-2.08646e-05
0.000448393
-1.3734e-05
-1.12975e-05
0.000453403
0.000304061
1.51253e-05
0.000304043
7.74574e-06
0.00030476
8.77393e-07
0.000306294
-4.84408e-06
0.000308547
-9.07319e-06
0.000310569
-1.54761e-05
0.000313532
-1.9784e-05
0.000316222
-2.61405e-05
0.000320165
-2.89414e-05
0.000323475
-3.46485e-05
0.000328331
-3.55474e-05
0.000332148
-4.0516e-05
0.000337906
-3.91904e-05
0.000342106
-4.34999e-05
0.000348767
-3.99676e-05
0.000353182
-4.40588e-05
0.000360815
-3.8645e-05
0.000365253
-4.30623e-05
0.000374014
-3.62094e-05
0.00037824
-4.12739e-05
0.000388367
-3.34293e-05
0.000392113
-3.8953e-05
0.000403921
-3.07336e-05
0.000406893
-3.57975e-05
0.000420535
-2.84535e-05
0.000422893
-3.10263e-05
0.000437483
-2.69524e-05
0.000440999
-2.43813e-05
0.000453196
-2.59301e-05
-1.85212e-05
0.000460419
0.000317301
1.31393e-05
0.000317656
7.39087e-06
0.000318097
4.36327e-07
0.000319109
-5.85575e-06
0.000321091
-1.10555e-05
0.000322749
-1.71341e-05
0.00032535
-2.23853e-05
0.000327488
-2.8278e-05
0.000330939
-3.23926e-05
0.000333594
-3.7303e-05
0.000337886
-3.98402e-05
0.000340971
-4.36003e-05
0.000346127
-4.43465e-05
0.000349574
-4.69474e-05
0.000355636
-4.60297e-05
0.000359353
-4.77751e-05
0.0003664
-4.56919e-05
0.000370288
-4.69504e-05
0.000378422
-4.43434e-05
0.000382392
-4.52437e-05
0.000391715
-4.27525e-05
0.000395734
-4.29719e-05
0.000406263
-4.1263e-05
0.000410441
-3.99751e-05
0.00042188
-3.98931e-05
0.000426835
-3.5981e-05
0.000438187
-3.83045e-05
0.000445152
-3.13464e-05
0.000454824
-3.56015e-05
-2.68198e-05
0.000463122
0.000326443
1.20123e-05
0.000327027
6.80699e-06
0.000327523
-5.95353e-08
0.000328228
-6.56133e-06
0.000329858
-1.26855e-05
0.00033127
-1.85459e-05
0.00033347
-2.45849e-05
0.000335248
-3.00561e-05
0.000338132
-3.52769e-05
0.000340367
-3.95378e-05
0.000343983
-4.34556e-05
0.000346627
-4.62452e-05
0.000351012
-4.87315e-05
0.000354054
-4.99894e-05
0.00035927
-5.12458e-05
0.000362698
-5.12022e-05
0.000368807
-5.18015e-05
0.000372623
-5.07659e-05
0.000379671
-5.1392e-05
0.000383917
-4.94892e-05
0.000391901
-5.07363e-05
0.0003967
-4.77711e-05
0.000405496
-5.00589e-05
0.000411127
-4.56065e-05
0.00042041
-4.91757e-05
0.000427334
-4.29049e-05
0.000436631
-4.76016e-05
0.000444974
-3.96895e-05
0.000454245
-4.48725e-05
-3.55985e-05
0.000463024
0.000331991
1.14811e-05
0.000332723
6.07515e-06
0.000333375
-7.12003e-07
0.000333995
-7.18128e-06
0.000335294
-1.39837e-05
0.000336553
-1.98053e-05
0.000338368
-2.64001e-05
0.000339946
-3.16336e-05
0.000342279
-3.76106e-05
0.000344276
-4.15349e-05
0.000347215
-4.63941e-05
0.000349636
-4.86663e-05
0.000353225
-5.23206e-05
0.000356103
-5.28675e-05
0.000360415
-5.5558e-05
0.000363805
-5.45925e-05
0.000368894
-5.68902e-05
0.000372871
-5.47424e-05
0.000378762
-5.72836e-05
0.000383431
-5.41578e-05
0.000390108
-5.74135e-05
0.000395618
-5.32813e-05
0.000403011
-5.7452e-05
0.000409545
-5.21398e-05
0.000417552
-5.71831e-05
0.000425179
-5.05319e-05
0.000433818
-5.6241e-05
0.000442256
-4.8127e-05
0.000451794
-5.44109e-05
-4.43866e-05
0.000460582
0.000334658
1.12252e-05
0.000335386
5.3469e-06
0.00033617
-1.49544e-06
0.000336887
-7.89862e-06
0.000337963
-1.50601e-05
0.000339138
-2.098e-05
0.000340646
-2.79074e-05
0.000342134
-3.3122e-05
0.00034403
-3.95065e-05
0.000345908
-4.34135e-05
0.00034829
-4.87759e-05
0.000350612
-5.0988e-05
0.000353534
-5.52423e-05
0.000356366
-5.56993e-05
0.000359909
-5.9101e-05
0.000363347
-5.80312e-05
0.000367576
-6.11192e-05
0.000371728
-5.88941e-05
0.000376688
-6.22432e-05
0.000381667
-5.91366e-05
0.000387387
-6.3134e-05
0.000393297
-5.91915e-05
0.000399815
-6.39694e-05
0.000406708
-5.90333e-05
0.000414087
-6.45624e-05
0.000421905
-5.83497e-05
0.000430267
-6.4603e-05
0.000438867
-5.67265e-05
0.000448285
-6.38292e-05
-5.36391e-05
0.000457537
0.00033523
1.08799e-05
0.000335949
4.62792e-06
0.000336795
-2.34124e-06
0.000337653
-8.75725e-06
0.000338636
-1.6043e-05
0.000339794
-2.21375e-05
0.000341113
-2.92265e-05
0.000342584
-3.45931e-05
0.000344214
-4.11363e-05
0.000346045
-4.52449e-05
0.00034807
-5.08007e-05
0.000350343
-5.32608e-05
0.00035283
-5.77296e-05
0.000355635
-5.85046e-05
0.000358671
-6.21367e-05
0.000362124
-6.14842e-05
0.000365792
-6.47877e-05
0.000370008
-6.31093e-05
0.00037439
-6.66252e-05
0.000379466
-6.4213e-05
0.000384642
-6.83099e-05
0.00039065
-6.51995e-05
0.000396713
-7.00322e-05
0.000403681
-6.60017e-05
0.000410732
-7.16134e-05
0.000418638
-6.62551e-05
0.000426769
-7.27341e-05
0.000435555
-6.5513e-05
0.000444804
-7.30781e-05
-6.32666e-05
0.000454432
0.000334656
1.02964e-05
0.000335449
3.83574e-06
0.00033633
-3.2223e-06
0.000337311
-9.7384e-06
0.000338305
-1.70377e-05
0.000339512
-2.33438e-05
0.000340772
-3.04869e-05
0.000342279
-3.61001e-05
0.00034381
-4.26669e-05
0.000345646
-4.70809e-05
0.000347508
-5.26632e-05
0.000349759
-5.5511e-05
0.00035203
-6.00013e-05
0.000354794
-6.1268e-05
0.000357568
-6.49112e-05
0.000360966
-6.48817e-05
0.000364347
-6.81687e-05
0.000368495
-6.72575e-05
0.000372582
-7.07126e-05
0.000377582
-6.92128e-05
0.000382473
-7.32011e-05
0.000388407
-7.11339e-05
0.000394202
-7.58264e-05
0.000401131
-7.29309e-05
0.000407921
-7.84035e-05
0.000415876
-7.42105e-05
0.000423729
-8.05865e-05
0.000432706
-7.44902e-05
0.000441658
-8.20306e-05
-7.3233e-05
0.000451625
0.000334295
9.5333e-06
0.000335152
2.97908e-06
0.00033604
-4.11042e-06
0.000337094
-1.07921e-05
0.000338145
-1.80887e-05
0.00033943
-2.46288e-05
0.000340717
-3.17746e-05
0.000342287
-3.76694e-05
0.000343819
-4.41987e-05
0.000345684
-4.89465e-05
0.000347499
-5.44777e-05
0.000349731
-5.77435e-05
0.000351905
-6.21752e-05
0.0003546
-6.3963e-05
0.000357233
-6.75444e-05
0.000360511
-6.81593e-05
0.000363718
-7.13762e-05
0.000367702
-7.12414e-05
0.000371594
-7.46041e-05
0.0003764
-7.40189e-05
0.000381077
-7.78775e-05
0.000386813
-7.68708e-05
0.000392368
-8.13809e-05
0.000399138
-7.97006e-05
0.00040565
-8.49162e-05
0.000413535
-8.20955e-05
0.000421059
-8.81098e-05
0.0004301
-8.35317e-05
0.000438665
-9.05954e-05
-8.34458e-05
0.000448878
0.000335252
8.73329e-06
0.000336111
2.11992e-06
0.000336983
-4.98201e-06
0.00033806
-1.18692e-05
0.000339161
-1.91899e-05
0.000340508
-2.59751e-05
0.000341841
-3.31076e-05
0.000343449
-3.92781e-05
0.000344994
-4.57434e-05
0.000346857
-5.08093e-05
0.000348629
-5.62494e-05
0.000350794
-5.99086e-05
0.000352862
-6.42434e-05
0.000355419
-6.65198e-05
0.000357889
-7.00152e-05
0.000360959
-7.12287e-05
0.000363961
-7.43786e-05
0.000367675
-7.49554e-05
0.000371334
-7.82628e-05
0.00037582
-7.85053e-05
0.000380247
-8.23037e-05
0.000385632
-8.22564e-05
0.000390925
-8.66735e-05
0.000397342
-8.61177e-05
0.000403583
-9.11576e-05
0.000411157
-8.96695e-05
0.000418401
-9.53532e-05
0.000427223
-9.23544e-05
0.00043549
-9.88622e-05
-9.35667e-05
0.000445611
0.000338341
8.10834e-06
-0.000337716
0.000339089
1.37183e-06
0.000339881
-5.77393e-06
0.000340896
-1.28842e-05
0.000341973
-2.02674e-05
0.000343287
-2.72888e-05
0.000344592
-3.44127e-05
0.000346136
-4.08225e-05
0.000347607
-4.72139e-05
0.00034935
-5.25525e-05
0.00035098
-5.78789e-05
0.000352953
-6.18825e-05
0.000354804
-6.6094e-05
0.000357099
-6.88149e-05
0.000359288
-7.22042e-05
0.000362036
-7.39764e-05
0.000364711
-7.7054e-05
0.000368055
-7.82989e-05
0.000371362
-8.15706e-05
0.000375436
-8.25792e-05
0.000379507
-8.63749e-05
0.000384445
-8.71938e-05
0.000389398
-9.16267e-05
0.000395345
-9.20644e-05
0.000401282
-9.70944e-05
0.000408394
-9.67816e-05
0.000415377
-0.000102337
0.000423801
-0.000100778
0.000431839
-0.000106901
-0.000103421
0.000441694
0.000343349
7.77309e-06
-0.000343014
0.000343893
8.27882e-07
0.000344551
-6.43122e-06
0.000345416
-1.37494e-05
0.000346368
-2.12198e-05
0.000347516
-2.84368e-05
0.000348668
-3.55644e-05
0.000349996
-4.21502e-05
0.000351254
-4.84726e-05
0.000352714
-5.40119e-05
0.00035406
-5.92253e-05
0.000355683
-6.35058e-05
0.000357182
-6.75929e-05
0.000359078
-7.07108e-05
0.000360865
-7.39905e-05
0.000363189
-7.63005e-05
0.000365431
-7.92962e-05
0.000368343
-8.12113e-05
0.000371206
-8.44334e-05
0.000374845
-8.62179e-05
0.000378479
-9.00089e-05
0.000382969
-9.16835e-05
0.000387521
-9.61788e-05
0.000392994
-9.7538e-05
0.000398603
-0.000102703
0.000405212
-0.00010339
0.000411977
-0.000109102
0.000419882
-0.000108683
0.000427815
-0.000114834
-0.000112786
0.00043718
0.000348968
7.6215e-06
-0.000348816
0.000349346
4.49115e-07
0.000349891
-6.97619e-06
0.000350593
-1.4451e-05
0.000351366
-2.19934e-05
0.000352259
-2.93295e-05
0.000353158
-3.64634e-05
0.000354149
-4.31414e-05
0.000355087
-4.94108e-05
0.000356136
-5.50609e-05
0.000357105
-6.01938e-05
0.000358267
-6.46682e-05
0.000359352
-6.8678e-05
0.000360772
-7.21305e-05
0.000362129
-7.53478e-05
0.000363995
-7.81663e-05
0.000365804
-8.11045e-05
0.000368296
-8.37041e-05
0.000370719
-8.6856e-05
0.000373981
-8.94796e-05
0.000377165
-9.31933e-05
0.000381307
-9.58252e-05
0.000385411
-0.000100283
0.000390533
-0.00010266
0.000395736
-0.000107906
0.000401939
-0.000109593
0.000408406
-0.000115568
0.000415802
-0.000116079
0.00042361
-0.000122642
-0.000121535
0.000432359
0.000354204
7.54925e-06
-0.000354132
0.000354462
1.91151e-07
0.000354889
-7.40298e-06
0.000355404
-1.49663e-05
0.000355959
-2.25476e-05
0.000356558
-2.9929e-05
0.000357161
-3.70658e-05
0.000357783
-4.3764e-05
0.000358379
-5.00063e-05
0.000359007
-5.56896e-05
0.000359615
-6.08017e-05
0.000360334
-6.5387e-05
0.000361067
-6.94108e-05
0.000362047
-7.31109e-05
0.000363073
-7.63737e-05
0.000364525
-7.96178e-05
0.000366015
-8.25944e-05
0.000368133
-8.5822e-05
0.000370223
-8.89459e-05
0.000373157
-9.24144e-05
0.000375953
-9.59888e-05
0.000379817
-9.96896e-05
0.000383441
-0.000103907
0.000388322
-0.000107541
0.00039295
-0.000112534
0.000398893
-0.000115536
0.000404754
-0.000121429
0.000411751
-0.000123076
0.000419063
-0.000129955
-0.000129564
0.000427092
0.000357286
7.22545e-06
-0.000356962
0.000357725
-2.48591e-07
0.000358217
-7.89488e-06
0.000358741
-1.54898e-05
0.00035926
-2.3067e-05
0.000359761
-3.04302e-05
0.000360234
-3.75386e-05
0.000360669
-4.4199e-05
0.000361076
-5.04132e-05
0.000361455
-5.60687e-05
0.000361846
-6.11932e-05
0.000362271
-6.58117e-05
0.000362783
-6.99229e-05
0.000363435
-7.3763e-05
0.000364248
-7.71868e-05
0.000365341
-8.0711e-05
0.000366622
-8.3875e-05
0.000368355
-8.75554e-05
0.000370215
-9.08053e-05
0.000372751
-9.49501e-05
0.000375239
-9.84769e-05
0.000378712
-0.000103163
0.00038187
-0.000107065
0.00038641
-0.000112081
0.000390321
-0.000116445
0.000395984
-0.000121199
0.00040081
-0.000126255
0.000407483
-0.000129749
0.000413495
-0.000135967
-0.000136858
0.000420789
0.000360319
6.60736e-06
-0.000359701
0.000360968
-8.97794e-07
0.000361621
-8.54752e-06
0.000362276
-1.61449e-05
0.000362887
-2.36783e-05
0.000363433
-3.09762e-05
0.000363894
-3.79992e-05
0.000364264
-4.45687e-05
0.000364556
-5.07058e-05
0.00036477
-5.62824e-05
0.000364966
-6.13896e-05
0.000365138
-6.59835e-05
0.000365403
-7.01872e-05
0.000365726
-7.40867e-05
0.00036627
-7.77304e-05
0.000366963
-8.14041e-05
0.000367975
-8.48868e-05
0.000369229
-8.8809e-05
0.000370825
-9.24021e-05
0.000372795
-9.69197e-05
0.000375002
-0.000100684
0.000377829
-0.000105991
0.000380594
-0.00010983
0.000384449
-0.000115936
0.000387669
-0.000119665
0.00039268
-0.000126211
0.000396179
-0.000129755
0.000402206
-0.000135775
0.000405821
-0.000139582
-0.000143114
0.000412076
0.000366957
6.05241e-06
-0.000366402
0.000367522
-1.46307e-06
0.000368088
-9.11395e-06
0.000368643
-1.66998e-05
0.000369124
-2.4159e-05
0.000369504
-3.13564e-05
0.000369743
-3.82385e-05
0.000369849
-4.46744e-05
0.000369816
-5.06732e-05
0.000369675
-5.61412e-05
0.000369464
-6.11783e-05
0.000369216
-6.57358e-05
0.000369026
-6.99967e-05
0.000368893
-7.39543e-05
0.000368978
-7.78151e-05
0.000369191
-8.16176e-05
0.000369772
-8.54671e-05
0.000370494
-8.95312e-05
0.000371699
-9.36073e-05
0.00037303
-9.82507e-05
0.000374898
-0.000102551
0.000376899
-0.000107992
0.000379312
-0.000112243
0.000382039
-0.000118662
0.000384652
-0.000122279
0.000388138
-0.000129697
0.000390174
-0.00013179
0.000394224
-0.000139824
0.000394278
-0.000139636
-0.000146824
0.000397989
0.000375188
5.52525e-06
-0.000374661
0.000375681
-1.95632e-06
0.00037614
-9.57201e-06
0.000376513
-1.7073e-05
0.000376745
-2.43914e-05
0.000376816
-3.14267e-05
0.000376686
-3.81093e-05
0.000376372
-4.43604e-05
0.000375869
-5.01697e-05
0.000375232
-5.55043e-05
0.000374486
-6.04324e-05
0.000373713
-6.49629e-05
0.000372966
-6.92498e-05
0.000372325
-7.33126e-05
0.00037187
-7.73606e-05
0.000371618
-8.13653e-05
0.000371691
-8.55408e-05
0.000371955
-8.97952e-05
0.000372648
-9.42995e-05
0.000373409
-9.90119e-05
0.000374726
-0.000103869
0.000375866
-0.000109132
0.000377607
-0.000113985
0.000378762
-0.000119816
0.000380279
-0.000123796
0.000380874
-0.000130292
0.000380751
-0.000131668
0.00038002
-0.000139093
0.000375276
-0.000134892
-0.000144078
0.00037253
0.000383115
4.67776e-06
-0.000382268
0.0003838
-2.64132e-06
0.000384325
-1.00965e-05
0.000384648
-1.73963e-05
0.000384734
-2.44776e-05
0.000384557
-3.12495e-05
0.000384097
-3.76489e-05
0.000383375
-4.36382e-05
0.000382412
-4.92073e-05
0.000381272
-5.43641e-05
0.000379996
-5.91565e-05
0.00037868
-6.36472e-05
0.000377378
-6.79477e-05
0.000376206
-7.21409e-05
0.000375208
-7.63619e-05
0.000374476
-8.06332e-05
0.000374009
-8.50743e-05
0.000373808
-8.95939e-05
0.000373836
-9.43272e-05
0.000373927
-9.91032e-05
0.000374196
-0.000104137
0.000374169
-0.000109105
0.000374225
-0.00011404
0.000373047
-0.000118639
0.000371631
-0.00012238
0.00036754
-0.000126201
0.000362743
-0.00012687
0.000353526
-0.000129877
0.000341692
-0.000123058
-0.000128863
0.000326477
0.000393231
3.76025e-06
-0.000392313
0.000394029
-3.43904e-06
0.000394475
-1.0543e-05
0.000394653
-1.75745e-05
0.000394537
-2.43608e-05
0.000394035
-3.07477e-05
0.000393155
-3.67687e-05
0.000391934
-4.2418e-05
0.000390421
-4.76943e-05
0.000388679
-5.26217e-05
0.000386778
-5.72552e-05
0.000384809
-6.16784e-05
0.000382852
-6.59905e-05
0.00038101
-7.02993e-05
0.00037934
-7.46922e-05
0.000377919
-7.92125e-05
0.00037671
-8.38647e-05
0.000375699
-8.85829e-05
0.000374674
-9.33027e-05
0.00037343
-9.78592e-05
0.000371663
-0.00010237
0.000369185
-0.000106627
0.000365648
-0.000110503
0.000360201
-0.000113192
0.000352601
-0.00011478
0.00034112
-0.00011472
0.000326972
-0.000112722
0.000305939
-0.000108844
0.000282762
-9.98806e-05
-9.61591e-05
0.000250058
0.000406786
2.54142e-06
-0.000405567
0.00040756
-4.21377e-06
0.000408056
-1.10392e-05
0.000408018
-1.75358e-05
0.000407394
-2.37365e-05
0.00040628
-2.96343e-05
0.000404722
-3.52106e-05
0.000402759
-4.04551e-05
0.00040045
-4.53856e-05
0.000397872
-5.00437e-05
0.000395115
-5.44975e-05
0.000392266
-5.88294e-05
0.000389402
-6.31273e-05
0.000386581
-6.74779e-05
0.000383833
-7.19441e-05
0.000381158
-7.65375e-05
0.00037848
-8.11872e-05
0.000375638
-8.57403e-05
0.000372313
-8.99776e-05
0.000368093
-9.36397e-05
0.000362253
-9.65301e-05
0.000354491
-9.88651e-05
0.000344103
-0.000100115
0.000330521
-9.96092e-05
0.000312782
-9.7041e-05
0.000289915
-9.18534e-05
0.000261469
-8.42756e-05
0.000226855
-7.42302e-05
0.000188778
-6.18033e-05
-5.03725e-05
0.000142991
0.000422427
-3.61591e-08
-0.000419849
0.000423805
-5.59224e-06
0.000424214
-1.14482e-05
0.000423911
-1.72327e-05
0.000422948
-2.27741e-05
0.000421319
-2.80048e-05
0.000419043
-3.29344e-05
0.000416181
-3.75937e-05
0.00041282
-4.20241e-05
0.00040905
-4.62742e-05
0.000404966
-5.04135e-05
0.000400647
-5.45102e-05
0.000396146
-5.86255e-05
0.000391444
-6.27762e-05
0.000386433
-6.69336e-05
0.000380956
-7.10603e-05
0.000374765
-7.49958e-05
0.000367494
-7.847e-05
0.000358705
-8.11886e-05
0.000347981
-8.29151e-05
0.000334549
-8.30985e-05
0.000317261
-8.15772e-05
0.0002953
-7.81537e-05
0.000268422
-7.27317e-05
0.000236919
-6.55373e-05
0.000200245
-5.51797e-05
0.000157471
-4.15017e-05
0.000111987
-2.87466e-05
7.0855e-05
-2.06709e-05
-1.72296e-05
3.77121e-05
0.000447618
-2.66045e-07
-0.000447388
0.000448124
-6.09857e-06
0.000447897
-1.12212e-05
0.000446659
-1.59947e-05
0.000444374
-2.04892e-05
0.000441109
-2.47398e-05
0.000436935
-2.87598e-05
0.000431912
-3.25706e-05
0.000426101
-3.62138e-05
0.000419572
-3.97448e-05
0.000412395
-4.32363e-05
0.000404621
-4.67368e-05
0.00039628
-5.02845e-05
0.000387295
-5.37914e-05
0.000377227
-5.68654e-05
0.00036565
-5.94834e-05
0.000352056
-6.14014e-05
0.000335683
-6.20973e-05
0.000315889
-6.13947e-05
0.00029253
-5.95553e-05
0.000266647
-5.72157e-05
0.000236369
-5.1299e-05
0.000200064
-4.18487e-05
0.000158089
-3.0757e-05
0.000113185
-2.06333e-05
7.06482e-05
-1.2643e-05
3.49524e-05
-5.80587e-06
7.91465e-06
-1.70887e-06
-1.04845e-05
-2.27183e-06
-6.01063e-06
-2.17034e-05
0.000481361
-2.78932e-06
-0.000478838
0.000481017
-5.75459e-06
0.00047871
-8.91325e-06
0.000474765
-1.20506e-05
0.000469291
-1.50153e-05
0.000462314
-1.77624e-05
0.000453854
-2.02998e-05
0.000443937
-2.26533e-05
0.000432569
-2.48458e-05
0.000419729
-2.6905e-05
0.00040535
-2.88577e-05
0.000389333
-3.07192e-05
0.000371537
-3.24887e-05
0.000351843
-3.4097e-05
0.000330462
-3.54852e-05
0.000307569
-3.65901e-05
0.000281497
-3.53294e-05
0.000250923
-3.15234e-05
0.000215189
-2.5661e-05
0.000174932
-1.92981e-05
0.000131339
-1.36226e-05
8.92502e-05
-9.21026e-06
5.21614e-05
-4.75991e-06
2.19232e-05
-5.18769e-07
-1.18154e-06
2.47145e-06
-1.68396e-05
3.01498e-06
-2.54355e-05
2.79004e-06
-2.96334e-05
2.48904e-06
-3.33666e-05
1.46141e-06
-4.50765e-07
-3.89265e-05
0.000457504
-0.000460293
0.00045175
0.000442836
0.000430786
0.00041577
0.000398008
0.000377708
0.000355055
0.000330209
0.000303304
0.000274446
0.000243727
0.000211238
0.000177142
0.000141656
0.000105066
6.97369e-05
3.82134e-05
1.25525e-05
-6.74559e-06
-2.03682e-05
-2.95785e-05
-3.43384e-05
-3.48571e-05
-3.23857e-05
-2.93707e-05
-2.65807e-05
-2.40916e-05
-2.26302e-05
-2.3081e-05
0.000397602
0.00037576
0.00035309
0.000328244
0.000301573
0.000275641
0.000250685
0.00022466
0.000197537
0.000169812
0.000139971
0.000111343
7.51038e-05
4.03878e-05
0.000452222
5.78175e-06
0.000443281
8.94126e-06
0.000431201
1.20796e-05
0.000416156
1.50455e-05
0.000398362
1.77939e-05
0.000378029
2.03325e-05
0.000355342
2.26874e-05
0.00033046
2.48817e-05
0.000303517
2.69431e-05
0.000274618
2.88984e-05
0.000243855
3.07633e-05
0.000211318
3.25368e-05
0.000177168
3.41501e-05
0.000141624
3.55444e-05
0.000104971
3.66533e-05
6.95813e-05
3.53892e-05
3.80095e-05
3.15719e-05
1.23176e-05
2.56919e-05
-6.99598e-06
1.93136e-05
-2.0623e-05
1.3627e-05
-2.98303e-05
9.20729e-06
-3.45768e-05
4.74651e-06
-3.50703e-05
4.9351e-07
-3.25578e-05
-2.51246e-06
-2.95039e-05
-3.05392e-06
-2.66821e-05
-2.82177e-06
-2.4175e-05
-2.50716e-06
-2.27196e-05
-1.45542e-06
4.86268e-07
-2.32058e-05
0.000481525
6.14593e-06
0.000479197
1.12693e-05
0.000475232
1.60446e-05
0.000469737
2.05407e-05
0.000462739
2.47926e-05
0.000454257
2.8814e-05
0.000444318
3.26266e-05
0.000432928
3.62721e-05
0.000420065
3.98061e-05
0.000405662
4.33014e-05
0.000389618
4.68068e-05
0.000371795
5.03604e-05
0.00035207
5.38744e-05
0.000330656
5.69591e-05
0.000307731
5.9578e-05
0.000281621
6.14988e-05
0.000250999
6.21946e-05
0.000215202
6.14888e-05
0.000174871
5.96446e-05
0.000131198
5.73001e-05
8.90381e-05
5.13668e-05
5.18944e-05
4.18902e-05
2.1621e-05
3.0767e-05
-1.50754e-06
2.0616e-05
-1.71738e-05
1.26123e-05
-2.5768e-05
5.77249e-06
-2.99775e-05
1.70231e-06
-3.37612e-05
2.32821e-06
6.16755e-06
-3.94424e-05
0.000448595
5.65417e-06
0.000448352
1.15126e-05
0.000447098
1.72984e-05
0.000444798
2.2841e-05
0.000441517
2.80733e-05
0.000437327
3.30046e-05
0.000432287
3.7666e-05
0.000426461
4.20987e-05
0.000419915
4.63518e-05
0.000412721
5.04951e-05
0.000404931
5.45968e-05
0.000396574
5.87181e-05
0.000387572
6.28758e-05
0.000377491
6.70406e-05
0.000365894
7.11745e-05
0.000352276
7.51169e-05
0.000335874
7.85969e-05
0.000316043
8.13196e-05
0.000292639
8.30486e-05
0.000266709
8.32298e-05
0.000236374
8.17016e-05
0.000199996
7.8269e-05
0.000157928
7.28349e-05
0.000112919
6.5625e-05
7.02853e-05
5.52456e-05
3.45199e-05
4.15379e-05
7.44274e-06
2.87795e-05
-1.09841e-05
2.0755e-05
1.74165e-05
-2.2233e-05
0.000424242
4.2942e-06
0.000424636
1.1118e-05
0.00042432
1.7615e-05
0.000423344
2.38165e-05
0.000421702
2.97154e-05
0.000419414
3.52929e-05
0.000416541
4.05391e-05
0.000413167
4.54719e-05
0.000409386
5.01328e-05
0.000405291
5.45903e-05
0.000400961
5.89267e-05
0.000396449
6.32303e-05
0.000391737
6.75874e-05
0.000386717
7.2061e-05
0.000381229
7.66629e-05
0.000375024
8.13212e-05
0.000367738
8.58828e-05
0.00035893
9.01277e-05
0.000348182
9.37966e-05
0.000334721
9.66912e-05
0.000317392
9.90303e-05
0.000295377
0.000100285
0.00026843
9.97821e-05
0.000236839
9.72157e-05
0.00020006
9.20242e-05
0.000157153
8.44449e-05
0.000111541
7.43922e-05
7.03255e-05
6.19701e-05
5.05674e-05
3.71746e-05
0.000407962
3.52134e-06
0.000408451
1.0629e-05
0.000408403
1.76629e-05
0.00040777
2.44499e-05
0.000406647
3.08379e-05
0.00040508
3.68604e-05
0.000403107
4.25114e-05
0.00040079
4.77897e-05
0.000398203
5.27197e-05
0.000395436
5.73566e-05
0.000392579
6.1784e-05
0.000389708
6.61012e-05
0.000386879
7.04162e-05
0.000384124
7.48164e-05
0.000381442
7.9345e-05
0.000378757
8.40062e-05
0.000375906
8.87336e-05
0.000372571
9.34631e-05
0.000368338
9.80292e-05
0.000362479
0.00010255
0.000354691
0.000106818
0.000344269
0.000110707
0.000330642
0.00011341
0.000312844
0.000115013
0.0002899
0.000114968
0.000261358
0.000112987
0.000226627
0.000109123
0.000188418
0.000100179
9.64719e-05
0.000142513
0.000394409
2.73399e-06
0.000394848
1.01895e-05
0.00039502
1.74911e-05
0.000394896
2.45741e-05
0.000394386
3.13473e-05
0.000393498
3.77481e-05
0.000392271
4.37389e-05
0.000390751
4.93098e-05
0.000389002
5.4469e-05
0.000387094
5.92645e-05
0.000385118
6.37591e-05
0.000383155
6.80643e-05
0.000381308
7.22633e-05
0.000379634
7.64912e-05
0.000378208
8.07704e-05
0.000376994
8.52204e-05
0.000375978
8.97496e-05
0.000374948
9.44933e-05
0.000373696
9.92808e-05
0.000371918
0.000104328
0.000369425
0.000109311
0.000365869
0.000114263
0.000360396
0.000118883
0.000352764
0.000122644
0.000341239
0.000126493
0.000327041
0.000127186
0.000305936
0.000130228
0.000282686
0.000123429
0.000129291
0.000249867
0.000384155
2.05297e-06
0.000384675
9.6697e-06
0.000384993
1.71725e-05
0.000385075
2.44928e-05
0.000384892
3.15297e-05
0.000384427
3.82137e-05
0.000383699
4.44663e-05
0.000382731
5.02775e-05
0.000381586
5.56142e-05
0.000380306
6.05452e-05
0.000378986
6.50792e-05
0.000377679
6.93705e-05
0.000376504
7.34387e-05
0.000375502
7.7493e-05
0.000374767
8.15054e-05
0.000374299
8.56891e-05
0.000374094
8.99538e-05
0.00037412
9.44679e-05
0.000374207
9.9194e-05
0.000374471
0.000104063
0.000374438
0.000109345
0.000374486
0.000114214
0.000373297
0.000120072
0.000371871
0.000124071
0.000367763
0.000130601
0.000362952
0.000131998
0.000353711
0.000139469
0.000341858
0.000135282
0.000144538
0.000326611
0.000376019
1.56233e-06
0.000376474
9.21479e-06
0.000376844
1.68028e-05
0.000377073
2.42641e-05
0.000377139
3.14632e-05
0.000377006
3.8347e-05
0.000376688
4.47843e-05
0.000376181
5.07849e-05
0.00037554
5.62548e-05
0.000374791
6.12944e-05
0.000374015
6.58552e-05
0.000373265
7.012e-05
0.000372621
7.40827e-05
0.000372165
7.79489e-05
0.000371912
8.17591e-05
0.000371985
8.56156e-05
0.000372248
8.96904e-05
0.000372941
9.37753e-05
0.000373702
9.84332e-05
0.000375019
0.000102746
0.000376159
0.000108205
0.000377902
0.000112472
0.00037906
0.000118914
0.00038058
0.000122551
0.000381184
0.000129996
0.000381069
0.000132113
0.00038036
0.000140178
0.000375629
0.000140014
0.000147238
0.000372928
0.000367847
9.99697e-07
0.000368411
8.65089e-06
0.000368963
1.62505e-05
0.000369441
2.37863e-05
0.000369818
3.10858e-05
0.000370055
3.81106e-05
0.000370158
4.46813e-05
0.000370122
5.08201e-05
0.000369979
5.63984e-05
0.000369765
6.15081e-05
0.000369515
6.61048e-05
0.000369324
7.03118e-05
0.00036919
7.42159e-05
0.000369275
7.78646e-05
0.000369489
8.15449e-05
0.00037007
8.50347e-05
0.000370795
8.89656e-05
0.000372001
9.25686e-05
0.000373338
9.70971e-05
0.000375208
0.000100875
0.000377219
0.000106194
0.000379637
0.000110053
0.00038238
0.000116171
0.000385006
0.000119925
0.000388522
0.00012648
0.000390582
0.000130053
0.000394684
0.000136075
0.000394782
0.000139916
0.000143438
0.000398582
0.00036127
3.52543e-07
0.000361922
7.99872e-06
0.000362576
1.55963e-05
0.000363186
2.3176e-05
0.000363732
3.05405e-05
0.000364191
3.7651e-05
0.00036456
4.43123e-05
0.000364852
5.05286e-05
0.000365065
5.61851e-05
0.000365261
6.13124e-05
0.000365433
6.59324e-05
0.000365697
7.00479e-05
0.000366023
7.38903e-05
0.000366567
7.73206e-05
0.000367264
8.08479e-05
0.000368277
8.40216e-05
0.000369537
8.77055e-05
0.000371136
9.09693e-05
0.000373116
9.5117e-05
0.000375328
9.86631e-05
0.000378172
0.000103351
0.000380948
0.000107277
0.000384829
0.00011229
0.000388071
0.000116683
0.000393125
0.000121426
0.000396665