/*--------------------------------*- C++ -*----------------------------------*\
| =========                 |                                                 |
| \\      /  F ield         | OpenFOAM: The Open Source CFD Toolbox           |
|  \\    /   O peration     | Version:  2312                                  |
|   \\  /    A nd           | Website:  www.openfoam.com                      |
|    \\/     M anipulation  |                                                 |
\*---------------------------------------------------------------------------*/
FoamFile
{
    version     2.0;
    format      ascii;
    arch        "LSB;label=32;scalar=64";
    class       volVectorField;
    location    "54000";
    object      U;
}
// * * * * * * * * * * * * * * * * * * * * * * * * * * * * * * * * * * * * * //

dimensions      [0 1 -1 0 0 0 0];

internalField   nonuniform List<vector> 
2685
(
(0.000585062 -1.544e-05 0)
(0.000574769 -3.41677e-06 0)
(0.000542139 6.90081e-06 0)
(0.000510779 1.68174e-05 0)
(0.000480063 2.51166e-05 0)
(0.000446998 3.12231e-05 0)
(0.000410584 3.52441e-05 0)
(0.000371402 3.75877e-05 0)
(0.000330613 3.85344e-05 0)
(0.000289092 3.81954e-05 0)
(0.000247436 3.65323e-05 0)
(0.000206127 3.32321e-05 0)
(0.000165968 2.75913e-05 0)
(0.000128093 1.90348e-05 0)
(9.36604e-05 8.02254e-06 0)
(6.35205e-05 -3.93747e-06 0)
(3.80273e-05 -1.51605e-05 0)
(1.71451e-05 -2.43822e-05 0)
(9.40191e-07 -3.10391e-05 0)
(-1.11913e-05 -3.53191e-05 0)
(-1.99536e-05 -3.71956e-05 0)
(-2.60753e-05 -3.67385e-05 0)
(-3.02365e-05 -3.42652e-05 0)
(-3.30859e-05 -3.02507e-05 0)
(-3.51821e-05 -2.52106e-05 0)
(-3.69522e-05 -1.96379e-05 0)
(-3.8694e-05 -1.39735e-05 0)
(-4.06204e-05 -8.58406e-06 0)
(-4.28859e-05 -3.74089e-06 0)
(-4.55866e-05 3.81358e-07 0)
(-4.87876e-05 3.7037e-06 0)
(-5.25057e-05 6.22495e-06 0)
(-5.66362e-05 8.01915e-06 0)
(-6.10206e-05 9.14782e-06 0)
(-6.54992e-05 9.70527e-06 0)
(-6.99125e-05 9.79899e-06 0)
(-7.41054e-05 9.52995e-06 0)
(-7.79317e-05 8.98614e-06 0)
(-8.12568e-05 8.24052e-06 0)
(-8.39582e-05 7.35217e-06 0)
(-8.59277e-05 6.36804e-06 0)
(-8.70757e-05 5.32545e-06 0)
(-8.73524e-05 4.26028e-06 0)
(-8.67599e-05 3.17071e-06 0)
(-8.53159e-05 2.08408e-06 0)
(-8.29979e-05 1.01861e-06 0)
(-7.98006e-05 -1.04753e-08 0)
(-7.57353e-05 -9.90847e-07 0)
(-7.08276e-05 -1.91227e-06 0)
(-6.5114e-05 -2.76655e-06 0)
(-5.86393e-05 -3.54725e-06 0)
(-5.14568e-05 -4.24944e-06 0)
(-4.36276e-05 -4.8694e-06 0)
(-3.52171e-05 -5.40494e-06 0)
(-2.62966e-05 -5.85595e-06 0)
(-1.69365e-05 -6.2217e-06 0)
(-7.21112e-06 -6.50516e-06 0)
(2.83075e-06 -6.70713e-06 0)
(1.31036e-05 -6.84082e-06 0)
(2.35151e-05 -6.90149e-06 0)
(3.40237e-05 -6.89502e-06 0)
(4.45699e-05 -6.82974e-06 0)
(5.50908e-05 -6.71488e-06 0)
(6.55239e-05 -6.55631e-06 0)
(7.58142e-05 -6.35894e-06 0)
(8.59142e-05 -6.12787e-06 0)
(9.57827e-05 -5.86819e-06 0)
(0.000105384 -5.58495e-06 0)
(0.000114687 -5.28312e-06 0)
(0.000123667 -4.96753e-06 0)
(0.000132303 -4.64276e-06 0)
(0.000140579 -4.31315e-06 0)
(0.000148482 -3.98269e-06 0)
(0.000156005 -3.65507e-06 0)
(0.000163142 -3.33361e-06 0)
(0.000169893 -3.02128e-06 0)
(0.00017626 -2.72067e-06 0)
(0.000182246 -2.43397e-06 0)
(0.00018786 -2.16299e-06 0)
(0.000193109 -1.90917e-06 0)
(0.000198005 -1.67355e-06 0)
(0.00020256 -1.45675e-06 0)
(0.000206786 -1.25905e-06 0)
(0.000210699 -1.08031e-06 0)
(0.000214313 -9.20001e-07 0)
(0.000217643 -7.77294e-07 0)
(0.000220704 -6.5122e-07 0)
(0.000223513 -5.40812e-07 0)
(0.000226085 -4.45023e-07 0)
(0.000228434 -3.62691e-07 0)
(0.00120606 7.75444e-05 0)
(0.00118263 8.74047e-05 0)
(0.00116335 9.67214e-05 0)
(0.0011428 0.000105901 0)
(0.00111981 0.000114325 0)
(0.00109453 0.000121659 0)
(0.0010675 0.000127789 0)
(0.00103914 0.000132753 0)
(0.00100969 0.000136546 0)
(0.000979304 0.000139135 0)
(0.000947959 0.000140418 0)
(0.000915707 0.000140277 0)
(0.00088239 0.000138537 0)
(0.000848027 0.000135046 0)
(0.000812273 0.000129742 0)
(0.000774852 0.00012269 0)
(0.000735558 0.000114192 0)
(0.000694173 0.000104407 0)
(0.000651801 9.39012e-05 0)
(0.000608154 8.28781e-05 0)
(0.000564235 7.17437e-05 0)
(0.000521065 6.09825e-05 0)
(0.000479452 5.10459e-05 0)
(0.000439955 4.22159e-05 0)
(0.000402948 3.45895e-05 0)
(0.000368677 2.81471e-05 0)
(0.000337286 2.28374e-05 0)
(0.000308831 1.86079e-05 0)
(0.000283293 1.53998e-05 0)
(0.000260595 1.31249e-05 0)
(0.000240579 1.16059e-05 0)
(0.000223193 1.06033e-05 0)
(0.000208325 9.92331e-06 0)
(0.000195667 9.38118e-06 0)
(0.000185019 8.79953e-06 0)
(0.000176226 8.05063e-06 0)
(0.000169128 7.05714e-06 0)
(0.000163582 5.77269e-06 0)
(0.000159469 4.16865e-06 0)
(0.000156696 2.23219e-06 0)
(0.000155192 -2.43794e-08 0)
(0.000154899 -2.53862e-06 0)
(0.000155691 -5.22132e-06 0)
(0.000157567 -7.99936e-06 0)
(0.000160513 -1.08237e-05 0)
(0.000164488 -1.36826e-05 0)
(0.000169455 -1.65422e-05 0)
(0.000175371 -1.93463e-05 0)
(0.000182189 -2.20508e-05 0)
(0.000189856 -2.4628e-05 0)
(0.000198313 -2.70536e-05 0)
(0.000207496 -2.92999e-05 0)
(0.00021734 -3.13419e-05 0)
(0.000227776 -3.31607e-05 0)
(0.000238733 -3.47448e-05 0)
(0.000250144 -3.60847e-05 0)
(0.000261941 -3.71778e-05 0)
(0.000274059 -3.80268e-05 0)
(0.000286428 -3.86509e-05 0)
(0.000298981 -3.90459e-05 0)
(0.000311649 -3.92152e-05 0)
(0.000324363 -3.91678e-05 0)
(0.000337069 -3.89201e-05 0)
(0.000349725 -3.8491e-05 0)
(0.000362287 -3.78992e-05 0)
(0.00037471 -3.71624e-05 0)
(0.000386956 -3.62972e-05 0)
(0.00039899 -3.53198e-05 0)
(0.000410782 -3.4246e-05 0)
(0.000422305 -3.30912e-05 0)
(0.000433537 -3.18701e-05 0)
(0.00044446 -3.05966e-05 0)
(0.000455059 -2.92839e-05 0)
(0.000465323 -2.79441e-05 0)
(0.000475243 -2.65887e-05 0)
(0.000484813 -2.52282e-05 0)
(0.00049403 -2.38719e-05 0)
(0.000502893 -2.25282e-05 0)
(0.000511402 -2.12047e-05 0)
(0.000519559 -1.99078e-05 0)
(0.00052737 -1.86432e-05 0)
(0.000534838 -1.74156e-05 0)
(0.00054197 -1.6229e-05 0)
(0.000548773 -1.50864e-05 0)
(0.000555254 -1.39906e-05 0)
(0.000561423 -1.29436e-05 0)
(0.000567286 -1.19472e-05 0)
(0.000572853 -1.10023e-05 0)
(0.000578132 -1.01095e-05 0)
(0.000583131 -9.26868e-06 0)
(0.00148436 9.5822e-05 0)
(0.00146833 0.000108337 0)
(0.00145596 0.000120083 0)
(0.00144376 0.000131003 0)
(0.00143024 0.000141176 0)
(0.00141518 0.000150617 0)
(0.00139882 0.000159217 0)
(0.00138156 0.000166817 0)
(0.00136358 0.000173244 0)
(0.00134494 0.000178343 0)
(0.00132555 0.000181984 0)
(0.00130527 0.00018405 0)
(0.00128394 0.000184481 0)
(0.00126143 0.000183232 0)
(0.00123769 0.000180411 0)
(0.00121254 0.000176196 0)
(0.00118617 0.000170954 0)
(0.00115836 0.000165019 0)
(0.00112955 0.000158777 0)
(0.00109961 0.000152469 0)
(0.00106907 0.000146287 0)
(0.00103838 0.000140351 0)
(0.00100764 0.0001346 0)
(0.000976798 0.000128888 0)
(0.000945843 0.000123053 0)
(0.000914921 0.000116975 0)
(0.000884296 0.000110591 0)
(0.000854261 0.000103894 0)
(0.000825081 9.69059e-05 0)
(0.000796977 8.96784e-05 0)
(0.000770153 8.22633e-05 0)
(0.000744776 7.47244e-05 0)
(0.000721015 6.71195e-05 0)
(0.000698899 5.95002e-05 0)
(0.000678479 5.19526e-05 0)
(0.000659837 4.45486e-05 0)
(0.000643023 3.73338e-05 0)
(0.000628053 3.03322e-05 0)
(0.000614898 2.3533e-05 0)
(0.000603511 1.69357e-05 0)
(0.000593837 1.05415e-05 0)
(0.000585684 4.32561e-06 0)
(0.000578965 -1.70609e-06 0)
(0.000573842 -7.5388e-06 0)
(0.000570147 -1.32499e-05 0)
(0.000567702 -1.88081e-05 0)
(0.000566402 -2.41536e-05 0)
(0.000566215 -2.9257e-05 0)
(0.000567061 -3.40696e-05 0)
(0.000568839 -3.85601e-05 0)
(0.000571466 -4.27047e-05 0)
(0.000574868 -4.64764e-05 0)
(0.000578973 -4.98573e-05 0)
(0.000583707 -5.28452e-05 0)
(0.000588995 -5.54464e-05 0)
(0.000594768 -5.76643e-05 0)
(0.000600958 -5.95001e-05 0)
(0.0006075 -6.09581e-05 0)
(0.000614333 -6.20503e-05 0)
(0.000621398 -6.27915e-05 0)
(0.000628642 -6.31986e-05 0)
(0.000636018 -6.32895e-05 0)
(0.000643482 -6.30827e-05 0)
(0.000650996 -6.25999e-05 0)
(0.000658524 -6.18674e-05 0)
(0.000666035 -6.09134e-05 0)
(0.000673501 -5.97657e-05 0)
(0.000680897 -5.84504e-05 0)
(0.000688201 -5.69928e-05 0)
(0.000695393 -5.54165e-05 0)
(0.000702457 -5.37438e-05 0)
(0.000709381 -5.1995e-05 0)
(0.000716155 -5.01886e-05 0)
(0.000722772 -4.83418e-05 0)
(0.000729226 -4.647e-05 0)
(0.000735513 -4.45873e-05 0)
(0.000741632 -4.27063e-05 0)
(0.000747584 -4.08379e-05 0)
(0.000753368 -3.89918e-05 0)
(0.000758987 -3.71763e-05 0)
(0.000764443 -3.53983e-05 0)
(0.000769741 -3.36634e-05 0)
(0.000774883 -3.19763e-05 0)
(0.000779875 -3.03401e-05 0)
(0.00078472 -2.87576e-05 0)
(0.000789422 -2.72302e-05 0)
(0.000793985 -2.57589e-05 0)
(0.000798414 -2.43442e-05 0)
(0.000802712 -2.29857e-05 0)
(0.000806882 -2.16828e-05 0)
(0.00161621 0.000124055 0)
(0.0016053 0.000137612 0)
(0.00159613 0.000150404 0)
(0.00158765 0.000162139 0)
(0.00157909 0.000172904 0)
(0.00157012 0.000182813 0)
(0.00156064 0.000191912 0)
(0.00155073 0.000200138 0)
(0.00154048 0.000207386 0)
(0.00152993 0.000213537 0)
(0.00151907 0.000218507 0)
(0.00150778 0.000222237 0)
(0.00149597 0.000224712 0)
(0.00148349 0.000225943 0)
(0.00147027 0.00022597 0)
(0.00145617 0.000224872 0)
(0.00144118 0.000222738 0)
(0.00142523 0.000219709 0)
(0.00140841 0.000215885 0)
(0.00139078 0.000211388 0)
(0.00137238 0.00020626 0)
(0.0013534 0.000200541 0)
(0.00133377 0.000194231 0)
(0.00131359 0.000187363 0)
(0.00129305 0.000180011 0)
(0.00127237 0.000172271 0)
(0.00125176 0.000164236 0)
(0.00123134 0.000155983 0)
(0.00121122 0.000147562 0)
(0.00119146 0.000139002 0)
(0.00117212 0.000130316 0)
(0.00115328 0.000121503 0)
(0.00113501 0.000112562 0)
(0.0011174 0.00010349 0)
(0.00110052 9.43052e-05 0)
(0.00108445 8.50346e-05 0)
(0.00106918 7.57066e-05 0)
(0.00105474 6.63433e-05 0)
(0.00104115 5.69778e-05 0)
(0.00102841 4.76434e-05 0)
(0.00101657 3.83778e-05 0)
(0.00100559 2.92406e-05 0)
(0.000995502 2.02909e-05 0)
(0.000986313 1.15818e-05 0)
(0.000977872 3.15389e-06 0)
(0.00097024 -4.96512e-06 0)
(0.000963478 -1.27206e-05 0)
(0.000957524 -2.00222e-05 0)
(0.000952342 -2.68447e-05 0)
(0.000947874 -3.32418e-05 0)
(0.000944077 -3.92091e-05 0)
(0.000940907 -4.46924e-05 0)
(0.0009383 -4.96466e-05 0)
(0.000936189 -5.40585e-05 0)
(0.000934527 -5.79346e-05 0)
(0.000933283 -6.12854e-05 0)
(0.000932421 -6.41204e-05 0)
(0.000931898 -6.64527e-05 0)
(0.000931672 -6.83005e-05 0)
(0.000931705 -6.96862e-05 0)
(0.000931966 -7.06351e-05 0)
(0.000932428 -7.11745e-05 0)
(0.000933061 -7.13333e-05 0)
(0.000933838 -7.1142e-05 0)
(0.00093473 -7.06312e-05 0)
(0.000935718 -6.98299e-05 0)
(0.000936785 -6.87681e-05 0)
(0.000937915 -6.74776e-05 0)
(0.000939096 -6.59908e-05 0)
(0.000940316 -6.43399e-05 0)
(0.000941564 -6.25551e-05 0)
(0.00094283 -6.06641e-05 0)
(0.000944108 -5.86925e-05 0)
(0.000945389 -5.66638e-05 0)
(0.000946668 -5.4599e-05 0)
(0.000947941 -5.2517e-05 0)
(0.000949202 -5.04348e-05 0)
(0.00095045 -4.83671e-05 0)
(0.000951682 -4.63267e-05 0)
(0.000952897 -4.43245e-05 0)
(0.000954093 -4.23695e-05 0)
(0.00095527 -4.04686e-05 0)
(0.00095643 -3.86272e-05 0)
(0.000957573 -3.68487e-05 0)
(0.000958702 -3.51354e-05 0)
(0.00095982 -3.34879e-05 0)
(0.00096093 -3.19058e-05 0)
(0.000962036 -3.0388e-05 0)
(0.000963141 -2.89331e-05 0)
(0.000964247 -2.75395e-05 0)
(0.00160489 0.000144845 0)
(0.00159691 0.000155985 0)
(0.00159005 0.000166954 0)
(0.00158396 0.00017751 0)
(0.00157825 0.000187515 0)
(0.00157267 0.000196886 0)
(0.00156711 0.000205564 0)
(0.00156157 0.000213491 0)
(0.00155612 0.000220604 0)
(0.0015508 0.000226832 0)
(0.00154562 0.000232116 0)
(0.00154053 0.000236408 0)
(0.00153545 0.000239681 0)
(0.00153026 0.00024193 0)
(0.00152485 0.000243168 0)
(0.00151912 0.000243426 0)
(0.001513 0.00024275 0)
(0.00150642 0.000241199 0)
(0.00149932 0.000238834 0)
(0.00149168 0.000235701 0)
(0.00148352 0.000231854 0)
(0.00147488 0.000227328 0)
(0.00146582 0.00022219 0)
(0.00145642 0.000216524 0)
(0.00144673 0.000210399 0)
(0.00143684 0.000203858 0)
(0.0014268 0.000196908 0)
(0.00141666 0.000189543 0)
(0.00140643 0.000181755 0)
(0.0013961 0.000173545 0)
(0.00138569 0.000164927 0)
(0.00137521 0.000155922 0)
(0.00136471 0.00014656 0)
(0.00135421 0.000136876 0)
(0.00134377 0.000126902 0)
(0.0013334 0.000116675 0)
(0.00132314 0.000106241 0)
(0.001313 9.5663e-05 0)
(0.00130302 8.49981e-05 0)
(0.00129322 7.43204e-05 0)
(0.00128361 6.36983e-05 0)
(0.00127422 5.3189e-05 0)
(0.00126507 4.28832e-05 0)
(0.00125614 3.28132e-05 0)
(0.00124751 2.307e-05 0)
(0.00123909 1.37133e-05 0)
(0.00123099 4.77658e-06 0)
(0.00122321 -3.6874e-06 0)
(0.00121553 -1.16549e-05 0)
(0.00120793 -1.90748e-05 0)
(0.00120059 -2.59141e-05 0)
(0.00119358 -3.21923e-05 0)
(0.00118688 -3.79212e-05 0)
(0.00118041 -4.30915e-05 0)
(0.00117415 -4.76873e-05 0)
(0.00116811 -5.17067e-05 0)
(0.00116229 -5.51638e-05 0)
(0.00115669 -5.80807e-05 0)
(0.0011513 -6.04795e-05 0)
(0.00114612 -6.23828e-05 0)
(0.00114115 -6.3816e-05 0)
(0.00113638 -6.48087e-05 0)
(0.00113181 -6.5393e-05 0)
(0.00112744 -6.56019e-05 0)
(0.00112326 -6.54682e-05 0)
(0.00111928 -6.50233e-05 0)
(0.00111548 -6.42987e-05 0)
(0.00111187 -6.33272e-05 0)
(0.00110842 -6.21415e-05 0)
(0.00110514 -6.07727e-05 0)
(0.00110203 -5.92504e-05 0)
(0.00109908 -5.76026e-05 0)
(0.00109627 -5.58556e-05 0)
(0.00109362 -5.40332e-05 0)
(0.00109112 -5.21569e-05 0)
(0.00108875 -5.02454e-05 0)
(0.00108651 -4.83153e-05 0)
(0.0010844 -4.63814e-05 0)
(0.00108242 -4.4457e-05 0)
(0.00108055 -4.25542e-05 0)
(0.00107879 -4.06839e-05 0)
(0.00107713 -3.88559e-05 0)
(0.00107556 -3.70791e-05 0)
(0.00107407 -3.53612e-05 0)
(0.00107265 -3.37085e-05 0)
(0.0010713 -3.21252e-05 0)
(0.00107001 -3.06136e-05 0)
(0.00106878 -2.91742e-05 0)
(0.00106759 -2.7806e-05 0)
(0.00106646 -2.65067e-05 0)
(0.00161356 0.000164188 0)
(0.00160279 0.00017477 0)
(0.00159292 0.000185094 0)
(0.00158333 0.00019505 0)
(0.0015737 0.000204463 0)
(0.00156395 0.000213182 0)
(0.00155418 0.000221096 0)
(0.00154453 0.00022814 0)
(0.00153519 0.000234282 0)
(0.00152629 0.000239503 0)
(0.00151791 0.000243795 0)
(0.00151008 0.000247154 0)
(0.00150283 0.000249584 0)
(0.0014961 0.000251101 0)
(0.00148987 0.000251733 0)
(0.00148408 0.000251517 0)
(0.00147865 0.000250497 0)
(0.00147353 0.000248719 0)
(0.00146866 0.000246242 0)
(0.00146399 0.000243126 0)
(0.00145949 0.000239437 0)
(0.00145516 0.00023523 0)
(0.00145101 0.000230547 0)
(0.00144701 0.00022542 0)
(0.00144314 0.000219864 0)
(0.00143934 0.000213883 0)
(0.00143557 0.000207463 0)
(0.00143177 0.000200591 0)
(0.00142792 0.000193259 0)
(0.001424 0.000185474 0)
(0.00141997 0.000177258 0)
(0.00141582 0.000168642 0)
(0.00141153 0.000159663 0)
(0.00140707 0.000150362 0)
(0.00140243 0.000140778 0)
(0.0013976 0.000130958 0)
(0.00139255 0.000120949 0)
(0.00138728 0.000110808 0)
(0.00138177 0.00010059 0)
(0.00137603 9.03511e-05 0)
(0.00137005 8.01497e-05 0)
(0.00136385 7.00398e-05 0)
(0.00135743 6.00785e-05 0)
(0.00135078 5.03193e-05 0)
(0.00134393 4.08156e-05 0)
(0.00133688 3.16093e-05 0)
(0.00132968 2.27528e-05 0)
(0.00132231 1.42679e-05 0)
(0.00131483 6.19062e-06 0)
(0.0013073 -1.37835e-06 0)
(0.00129964 -8.40538e-06 0)
(0.00129179 -1.48823e-05 0)
(0.00128387 -2.08147e-05 0)
(0.00127595 -2.62049e-05 0)
(0.00126808 -3.10422e-05 0)
(0.00126026 -3.53278e-05 0)
(0.00125248 -3.90765e-05 0)
(0.00124477 -4.23076e-05 0)
(0.00123717 -4.50406e-05 0)
(0.0012297 -4.72976e-05 0)
(0.00122238 -4.91042e-05 0)
(0.00121523 -5.04886e-05 0)
(0.00120825 -5.14803e-05 0)
(0.00120147 -5.21094e-05 0)
(0.0011949 -5.2407e-05 0)
(0.00118854 -5.2406e-05 0)
(0.00118242 -5.21382e-05 0)
(0.00117652 -5.16336e-05 0)
(0.00117085 -5.09201e-05 0)
(0.00116542 -5.00246e-05 0)
(0.00116023 -4.89731e-05 0)
(0.00115527 -4.77914e-05 0)
(0.00115053 -4.65041e-05 0)
(0.00114603 -4.51351e-05 0)
(0.00114174 -4.3706e-05 0)
(0.00113768 -4.22364e-05 0)
(0.00113382 -4.07433e-05 0)
(0.00113018 -3.92402e-05 0)
(0.00112675 -3.77375e-05 0)
(0.00112352 -3.62427e-05 0)
(0.00112049 -3.4761e-05 0)
(0.00111765 -3.32959e-05 0)
(0.00111499 -3.18508e-05 0)
(0.00111249 -3.04292e-05 0)
(0.00111014 -2.90358e-05 0)
(0.00110793 -2.76761e-05 0)
(0.00110583 -2.63562e-05 0)
(0.00110384 -2.50826e-05 0)
(0.00110193 -2.3861e-05 0)
(0.0011001 -2.26965e-05 0)
(0.0017335 0.000186486 0)
(0.00171972 0.000199219 0)
(0.00170649 0.00021109 0)
(0.001693 0.000222068 0)
(0.00167881 0.000232098 0)
(0.00166387 0.000241118 0)
(0.0016483 0.000249064 0)
(0.00163235 0.000255889 0)
(0.00161626 0.000261571 0)
(0.00160023 0.000266104 0)
(0.0015844 0.000269504 0)
(0.0015689 0.000271795 0)
(0.00155381 0.000273012 0)
(0.00153918 0.000273198 0)
(0.00152508 0.000272401 0)
(0.00151156 0.000270682 0)
(0.00149866 0.000268109 0)
(0.00148642 0.000264758 0)
(0.00147488 0.000260711 0)
(0.00146407 0.000256052 0)
(0.00145403 0.000250867 0)
(0.00144475 0.000245226 0)
(0.00143623 0.000239182 0)
(0.00142844 0.000232773 0)
(0.00142134 0.000226021 0)
(0.00141486 0.000218945 0)
(0.00140896 0.000211566 0)
(0.00140358 0.000203904 0)
(0.00139866 0.000195981 0)
(0.00139416 0.000187818 0)
(0.00139002 0.000179432 0)
(0.00138617 0.000170843 0)
(0.00138254 0.000162069 0)
(0.00137905 0.000153129 0)
(0.00137565 0.000144046 0)
(0.00137225 0.000134845 0)
(0.00136881 0.000125554 0)
(0.00136526 0.000116205 0)
(0.00136157 0.000106837 0)
(0.00135768 9.74846e-05 0)
(0.00135356 8.81903e-05 0)
(0.00134919 7.89966e-05 0)
(0.00134455 6.99428e-05 0)
(0.00133961 6.10774e-05 0)
(0.0013344 5.2438e-05 0)
(0.0013289 4.4069e-05 0)
(0.00132313 3.60113e-05 0)
(0.0013171 2.82911e-05 0)
(0.00131083 2.09519e-05 0)
(0.00130434 1.39994e-05 0)
(0.00129763 7.44841e-06 0)
(0.00129076 1.34711e-06 0)
(0.00128374 -4.27682e-06 0)
(0.00127659 -9.41776e-06 0)
(0.00126937 -1.40972e-05 0)
(0.00126207 -1.83222e-05 0)
(0.00125473 -2.20912e-05 0)
(0.00124738 -2.54013e-05 0)
(0.00124007 -2.82637e-05 0)
(0.00123281 -3.07008e-05 0)
(0.00122564 -3.27391e-05 0)
(0.00121858 -3.44042e-05 0)
(0.00121164 -3.572e-05 0)
(0.00120486 -3.67112e-05 0)
(0.00119825 -3.74046e-05 0)
(0.00119182 -3.78278e-05 0)
(0.00118558 -3.80089e-05 0)
(0.00117954 -3.79735e-05 0)
(0.00117371 -3.77454e-05 0)
(0.00116808 -3.73474e-05 0)
(0.00116268 -3.68017e-05 0)
(0.00115748 -3.613e-05 0)
(0.00115249 -3.53531e-05 0)
(0.00114772 -3.44916e-05 0)
(0.00114315 -3.35654e-05 0)
(0.00113878 -3.25935e-05 0)
(0.00113462 -3.15925e-05 0)
(0.00113065 -3.05763e-05 0)
(0.00112688 -2.95548e-05 0)
(0.0011233 -2.85335e-05 0)
(0.00111991 -2.75143e-05 0)
(0.0011167 -2.64962e-05 0)
(0.00111366 -2.54768e-05 0)
(0.0011108 -2.44542e-05 0)
(0.00110809 -2.34278e-05 0)
(0.00110553 -2.23996e-05 0)
(0.0011031 -2.13742e-05 0)
(0.00110078 -2.03593e-05 0)
(0.00109856 -1.93645e-05 0)
(0.00109644 -1.84008e-05 0)
(0.00179174 0.000209876 0)
(0.00178243 0.000224881 0)
(0.00177358 0.000238802 0)
(0.00176445 0.000251555 0)
(0.00175456 0.000263114 0)
(0.0017437 0.000273463 0)
(0.00173187 0.000282576 0)
(0.00171922 0.000290421 0)
(0.00170591 0.000296967 0)
(0.00169209 0.000302193 0)
(0.00167786 0.000306093 0)
(0.00166332 0.000308674 0)
(0.00164851 0.000309963 0)
(0.0016335 0.000309998 0)
(0.00161835 0.000308831 0)
(0.00160314 0.00030653 0)
(0.00158797 0.00030317 0)
(0.00157291 0.00029884 0)
(0.00155808 0.000293634 0)
(0.00154356 0.000287648 0)
(0.00152943 0.000280976 0)
(0.00151576 0.000273703 0)
(0.0015026 0.000265908 0)
(0.00148999 0.000257664 0)
(0.00147796 0.00024904 0)
(0.00146654 0.000240099 0)
(0.00145575 0.000230904 0)
(0.00144559 0.000221513 0)
(0.00143606 0.000211975 0)
(0.00142715 0.000202332 0)
(0.00141881 0.000192616 0)
(0.00141103 0.000182856 0)
(0.00140374 0.000173073 0)
(0.00139689 0.00016329 0)
(0.00139043 0.000153528 0)
(0.0013843 0.00014381 0)
(0.00137843 0.000134157 0)
(0.00137278 0.000124593 0)
(0.00136728 0.000115143 0)
(0.00136189 0.000105832 0)
(0.00135656 9.6688e-05 0)
(0.00135125 8.77406e-05 0)
(0.00134592 7.90161e-05 0)
(0.00134054 7.05456e-05 0)
(0.00133509 6.23539e-05 0)
(0.00132956 5.44672e-05 0)
(0.00132392 4.69089e-05 0)
(0.00131817 3.96953e-05 0)
(0.00131231 3.28486e-05 0)
(0.00130634 2.6374e-05 0)
(0.00130025 2.02952e-05 0)
(0.00129406 1.46147e-05 0)
(0.00128777 9.33695e-06 0)
(0.00128139 4.4674e-06 0)
(0.00127493 1.42018e-09 0)
(0.00126846 -4.06543e-06 0)
(0.001262 -7.73212e-06 0)
(0.00125557 -1.10086e-05 0)
(0.00124916 -1.39078e-05 0)
(0.00124277 -1.64436e-05 0)
(0.00123641 -1.86302e-05 0)
(0.00123012 -2.04839e-05 0)
(0.00122392 -2.20248e-05 0)
(0.00121781 -2.32744e-05 0)
(0.00121181 -2.42552e-05 0)
(0.00120592 -2.499e-05 0)
(0.00120015 -2.55022e-05 0)
(0.00119451 -2.58148e-05 0)
(0.00118901 -2.59488e-05 0)
(0.00118364 -2.59236e-05 0)
(0.00117841 -2.57574e-05 0)
(0.00117331 -2.54677e-05 0)
(0.00116836 -2.5072e-05 0)
(0.00116355 -2.45888e-05 0)
(0.00115888 -2.40367e-05 0)
(0.00115433 -2.34346e-05 0)
(0.00114993 -2.27995e-05 0)
(0.00114565 -2.2146e-05 0)
(0.00114149 -2.14842e-05 0)
(0.00113746 -2.08194e-05 0)
(0.00113356 -2.01518e-05 0)
(0.00112977 -1.94777e-05 0)
(0.00112611 -1.87912e-05 0)
(0.00112257 -1.80858e-05 0)
(0.00111915 -1.73569e-05 0)
(0.00111585 -1.6603e-05 0)
(0.00111266 -1.58274e-05 0)
(0.00110957 -1.50382e-05 0)
(0.00110659 -1.42473e-05 0)
(0.0011037 -1.34698e-05 0)
(0.00165963 0.000220395 0)
(0.00165941 0.000236343 0)
(0.00165983 0.000251425 0)
(0.00166032 0.000265457 0)
(0.00166042 0.000278345 0)
(0.00165986 0.000290036 0)
(0.00165854 0.0003005 0)
(0.00165649 0.000309707 0)
(0.00165377 0.000317626 0)
(0.00165045 0.000324223 0)
(0.00164654 0.00032947 0)
(0.00164207 0.00033335 0)
(0.00163701 0.000335865 0)
(0.00163138 0.000337031 0)
(0.00162517 0.000336883 0)
(0.00161841 0.000335471 0)
(0.00161115 0.000332859 0)
(0.00160343 0.000329124 0)
(0.00159533 0.000324344 0)
(0.00158691 0.000318601 0)
(0.00157822 0.000311979 0)
(0.00156933 0.000304562 0)
(0.0015603 0.00029644 0)
(0.00155117 0.0002877 0)
(0.00154203 0.000278433 0)
(0.00153291 0.000268726 0)
(0.00152389 0.000258659 0)
(0.001515 0.00024831 0)
(0.00150629 0.000237746 0)
(0.00149779 0.000227032 0)
(0.0014895 0.000216221 0)
(0.00148145 0.000205364 0)
(0.00147364 0.000194508 0)
(0.00146607 0.000183693 0)
(0.00145873 0.000172958 0)
(0.00145161 0.00016234 0)
(0.00144469 0.000151871 0)
(0.00143796 0.00014158 0)
(0.0014314 0.000131496 0)
(0.00142498 0.000121645 0)
(0.00141867 0.000112051 0)
(0.00141246 0.000102738 0)
(0.00140632 9.37239e-05 0)
(0.00140023 8.50303e-05 0)
(0.00139417 7.66722e-05 0)
(0.00138813 6.86659e-05 0)
(0.00138209 6.10223e-05 0)
(0.00137605 5.37542e-05 0)
(0.00136999 4.68683e-05 0)
(0.0013639 4.03744e-05 0)
(0.0013578 3.42765e-05 0)
(0.00135167 2.8578e-05 0)
(0.00134551 2.32842e-05 0)
(0.00133933 1.83923e-05 0)
(0.00133315 1.39084e-05 0)
(0.00132696 9.82361e-06 0)
(0.00132077 6.12267e-06 0)
(0.00131458 2.78411e-06 0)
(0.00130841 -2.05946e-07 0)
(0.00130227 -2.85762e-06 0)
(0.00129617 -5.18055e-06 0)
(0.00129012 -7.18835e-06 0)
(0.00128411 -8.89828e-06 0)
(0.00127815 -1.03308e-05 0)
(0.00127226 -1.15076e-05 0)
(0.00126642 -1.24498e-05 0)
(0.00126066 -1.31779e-05 0)
(0.00125496 -1.37123e-05 0)
(0.00124933 -1.40723e-05 0)
(0.00124378 -1.42765e-05 0)
(0.0012383 -1.43419e-05 0)
(0.0012329 -1.42844e-05 0)
(0.00122757 -1.41192e-05 0)
(0.00122233 -1.38621e-05 0)
(0.00121716 -1.3529e-05 0)
(0.00121207 -1.31364e-05 0)
(0.00120704 -1.27008e-05 0)
(0.00120209 -1.22374e-05 0)
(0.0011972 -1.17589e-05 0)
(0.00119237 -1.12743e-05 0)
(0.0011876 -1.07885e-05 0)
(0.00118288 -1.03017e-05 0)
(0.00117823 -9.81088e-06 0)
(0.00117364 -9.3106e-06 0)
(0.00116911 -8.79532e-06 0)
(0.00116466 -8.26122e-06 0)
(0.0011603 -7.70806e-06 0)
(0.00115602 -7.14041e-06 0)
(0.00115183 -6.5679e-06 0)
(0.00114773 -6.00422e-06 0)
(0.00136339 0.000209991 0)
(0.00137156 0.0002258 0)
(0.00138077 0.000241011 0)
(0.00139045 0.000255381 0)
(0.00140017 0.000268761 0)
(0.00140969 0.000281067 0)
(0.00141892 0.000292259 0)
(0.00142786 0.000302315 0)
(0.00143652 0.000311207 0)
(0.00144488 0.000318898 0)
(0.00145292 0.000325349 0)
(0.00146056 0.000330526 0)
(0.00146776 0.00033441 0)
(0.00147445 0.000336999 0)
(0.00148058 0.000338306 0)
(0.00148612 0.000338361 0)
(0.00149106 0.000337203 0)
(0.00149537 0.000334882 0)
(0.00149905 0.000331453 0)
(0.0015021 0.000326978 0)
(0.00150453 0.000321528 0)
(0.00150637 0.000315177 0)
(0.00150763 0.000308009 0)
(0.00150835 0.000300111 0)
(0.00150856 0.000291571 0)
(0.00150831 0.000282476 0)
(0.00150764 0.000272909 0)
(0.00150657 0.00026295 0)
(0.00150514 0.000252675 0)
(0.00150339 0.000242154 0)
(0.00150135 0.000231456 0)
(0.00149904 0.000220644 0)
(0.00149649 0.000209777 0)
(0.00149373 0.000198909 0)
(0.00149078 0.00018809 0)
(0.00148764 0.000177367 0)
(0.00148434 0.00016678 0)
(0.00148089 0.000156366 0)
(0.00147728 0.00014616 0)
(0.00147354 0.000136191 0)
(0.00146966 0.000126487 0)
(0.00146564 0.000117072 0)
(0.0014615 0.000107969 0)
(0.00145723 9.91969e-05 0)
(0.00145283 9.07722e-05 0)
(0.00144831 8.27093e-05 0)
(0.00144367 7.50207e-05 0)
(0.00143891 6.7716e-05 0)
(0.00143404 6.0803e-05 0)
(0.00142907 5.42872e-05 0)
(0.00142399 4.81714e-05 0)
(0.00141882 4.24571e-05 0)
(0.00141356 3.71428e-05 0)
(0.00140822 3.22263e-05 0)
(0.00140281 2.77008e-05 0)
(0.00139734 2.35593e-05 0)
(0.00139181 1.97902e-05 0)
(0.00138624 1.63851e-05 0)
(0.00138064 1.33325e-05 0)
(0.00137502 1.06177e-05 0)
(0.00136939 8.22357e-06 0)
(0.00136375 6.13217e-06 0)
(0.00135812 4.3265e-06 0)
(0.00135248 2.78836e-06 0)
(0.00134685 1.49881e-06 0)
(0.00134122 4.38709e-07 0)
(0.00133562 -4.10669e-07 0)
(0.00133005 -1.06765e-06 0)
(0.0013245 -1.55046e-06 0)
(0.00131898 -1.87696e-06 0)
(0.0013135 -2.0643e-06 0)
(0.00130805 -2.12878e-06 0)
(0.00130265 -2.086e-06 0)
(0.00129728 -1.95093e-06 0)
(0.00129195 -1.73819e-06 0)
(0.00128666 -1.46193e-06 0)
(0.0012814 -1.13566e-06 0)
(0.00127618 -7.72049e-07 0)
(0.001271 -3.82589e-07 0)
(0.00126585 2.29023e-08 0)
(0.00126072 4.36833e-07 0)
(0.00125562 8.5418e-07 0)
(0.00125055 1.27235e-06 0)
(0.0012455 1.6905e-06 0)
(0.00124048 2.10843e-06 0)
(0.0012355 2.52549e-06 0)
(0.00123057 2.93955e-06 0)
(0.00122569 3.3462e-06 0)
(0.00122087 3.73823e-06 0)
(0.00121612 4.10553e-06 0)
(0.00097329 0.000184534 0)
(0.000987133 0.00019954 0)
(0.0010023 0.000214042 0)
(0.00101822 0.000227777 0)
(0.00103456 0.000240607 0)
(0.00105118 0.000252482 0)
(0.00106805 0.000263395 0)
(0.00108516 0.000273337 0)
(0.0011025 0.000282281 0)
(0.00112 0.000290189 0)
(0.00113759 0.000297016 0)
(0.00115517 0.000302725 0)
(0.00117264 0.00030729 0)
(0.00118993 0.0003107 0)
(0.00120693 0.000312956 0)
(0.00122357 0.000314071 0)
(0.00123976 0.000314066 0)
(0.00125545 0.000312971 0)
(0.00127058 0.000310827 0)
(0.00128511 0.000307686 0)
(0.001299 0.000303609 0)
(0.00131222 0.00029866 0)
(0.00132476 0.00029291 0)
(0.0013366 0.00028643 0)
(0.00134774 0.000279295 0)
(0.00135816 0.000271578 0)
(0.00136788 0.000263352 0)
(0.00137689 0.000254688 0)
(0.0013852 0.000245658 0)
(0.00139283 0.00023633 0)
(0.0013998 0.000226771 0)
(0.00140611 0.000217043 0)
(0.00141179 0.000207206 0)
(0.00141686 0.000197316 0)
(0.00142133 0.000187424 0)
(0.00142524 0.000177578 0)
(0.00142858 0.000167822 0)
(0.0014314 0.000158196 0)
(0.0014337 0.000148737 0)
(0.0014355 0.000139477 0)
(0.00143683 0.000130448 0)
(0.00143771 0.000121675 0)
(0.00143814 0.000113182 0)
(0.00143816 0.00010499 0)
(0.00143778 9.71178e-05 0)
(0.00143702 8.95797e-05 0)
(0.0014359 8.23886e-05 0)
(0.00143444 7.55547e-05 0)
(0.00143266 6.90853e-05 0)
(0.00143057 6.29855e-05 0)
(0.0014282 5.72581e-05 0)
(0.00142557 5.19037e-05 0)
(0.00142269 4.69209e-05 0)
(0.00141959 4.23064e-05 0)
(0.00141628 3.80549e-05 0)
(0.00141279 3.41597e-05 0)
(0.00140912 3.06123e-05 0)
(0.00140531 2.74021e-05 0)
(0.00140137 2.45166e-05 0)
(0.00139732 2.19412e-05 0)
(0.00139316 1.96601e-05 0)
(0.00138892 1.76568e-05 0)
(0.00138461 1.5915e-05 0)
(0.00138024 1.44188e-05 0)
(0.00137583 1.31528e-05 0)
(0.00137138 1.21008e-05 0)
(0.0013669 1.12463e-05 0)
(0.00136241 1.05726e-05 0)
(0.00135791 1.00627e-05 0)
(0.00135341 9.7002e-06 0)
(0.00134892 9.46909e-06 0)
(0.00134444 9.35406e-06 0)
(0.00133997 9.34049e-06 0)
(0.00133553 9.41458e-06 0)
(0.0013311 9.56328e-06 0)
(0.00132669 9.77442e-06 0)
(0.00132231 1.00365e-05 0)
(0.00131796 1.03386e-05 0)
(0.00131363 1.06706e-05 0)
(0.00130932 1.10236e-05 0)
(0.00130504 1.13902e-05 0)
(0.00130078 1.17643e-05 0)
(0.00129654 1.21411e-05 0)
(0.00129232 1.25163e-05 0)
(0.00128812 1.28859e-05 0)
(0.00128395 1.32451e-05 0)
(0.00127981 1.35881e-05 0)
(0.0012757 1.39075e-05 0)
(0.00127164 1.41942e-05 0)
(0.00126762 1.4438e-05 0)
(0.00053025 0.000151785 0)
(0.000547973 0.000165042 0)
(0.000566931 0.00017781 0)
(0.000586769 0.000189799 0)
(0.000607332 0.000200995 0)
(0.000628662 0.000211402 0)
(0.000650754 0.000221033 0)
(0.000673564 0.000229874 0)
(0.00069701 0.000237892 0)
(0.000720998 0.000245048 0)
(0.000745431 0.000251305 0)
(0.000770205 0.000256632 0)
(0.000795216 0.00026101 0)
(0.000820359 0.000264425 0)
(0.00084553 0.000266873 0)
(0.00087062 0.000268363 0)
(0.000895533 0.000268915 0)
(0.000920178 0.000268554 0)
(0.00094447 0.000267317 0)
(0.000968328 0.000265241 0)
(0.000991678 0.000262372 0)
(0.00101445 0.000258759 0)
(0.00103659 0.000254451 0)
(0.00105804 0.000249502 0)
(0.00107875 0.000243969 0)
(0.00109869 0.000237908 0)
(0.00111781 0.00023138 0)
(0.0011361 0.000224444 0)
(0.00115353 0.00021716 0)
(0.00117009 0.000209585 0)
(0.00118578 0.000201776 0)
(0.00120059 0.000193787 0)
(0.00121452 0.00018567 0)
(0.00122758 0.000177473 0)
(0.00123978 0.000169242 0)
(0.00125113 0.00016102 0)
(0.00126163 0.000152848 0)
(0.00127132 0.000144761 0)
(0.00128021 0.000136795 0)
(0.00128833 0.00012898 0)
(0.00129568 0.000121344 0)
(0.00130231 0.000113912 0)
(0.00130823 0.000106707 0)
(0.00131348 9.97481e-05 0)
(0.00131807 9.3052e-05 0)
(0.00132205 8.66333e-05 0)
(0.00132543 8.05036e-05 0)
(0.00132825 7.46724e-05 0)
(0.00133054 6.91469e-05 0)
(0.00133233 6.3932e-05 0)
(0.00133365 5.90306e-05 0)
(0.00133454 5.44436e-05 0)
(0.00133501 5.01702e-05 0)
(0.00133511 4.62076e-05 0)
(0.00133486 4.25516e-05 0)
(0.0013343 3.91962e-05 0)
(0.00133344 3.61338e-05 0)
(0.00133233 3.33554e-05 0)
(0.00133098 3.08507e-05 0)
(0.00132943 2.86083e-05 0)
(0.00132769 2.66163e-05 0)
(0.0013258 2.48619e-05 0)
(0.00132376 2.33321e-05 0)
(0.00132161 2.20133e-05 0)
(0.00131937 2.08918e-05 0)
(0.00131704 1.99535e-05 0)
(0.00131465 1.91844e-05 0)
(0.00131221 1.85704e-05 0)
(0.00130974 1.80976e-05 0)