/*--------------------------------*- C++ -*----------------------------------*\
| =========                 |                                                 |
| \\      /  F ield         | OpenFOAM: The Open Source CFD Toolbox           |
|  \\    /   O peration     | Version:  2312                                  |
|   \\  /    A nd           | Website:  www.openfoam.com                      |
|    \\/     M anipulation  |                                                 |
\*---------------------------------------------------------------------------*/
FoamFile
{
    version     2.0;
    format      ascii;
    arch        "LSB;label=32;scalar=64";
    class       volVectorField;
    location    "41000";
    object      U;
}
// * * * * * * * * * * * * * * * * * * * * * * * * * * * * * * * * * * * * * //

dimensions      [0 1 -1 0 0 0 0];

internalField   nonuniform List<vector> 
2685
(
(0.00028837 3.71239e-08 0)
(0.000288711 6.09786e-08 0)
(0.000289012 8.41679e-08 0)
(0.000289277 1.06445e-07 0)
(0.000289512 1.27474e-07 0)
(0.000289721 1.46775e-07 0)
(0.000289908 1.63735e-07 0)
(0.000290076 1.77673e-07 0)
(0.000290228 1.87941e-07 0)
(0.000290365 1.94046e-07 0)
(0.00029049 1.95758e-07 0)
(0.000290605 1.93013e-07 0)
(0.000290711 1.85898e-07 0)
(0.000290809 1.74784e-07 0)
(0.000290898 1.60298e-07 0)
(0.000290978 1.4298e-07 0)
(0.000291049 1.23301e-07 0)
(0.00029111 1.01699e-07 0)
(0.000291158 7.85548e-08 0)
(0.000291194 5.42044e-08 0)
(0.000291218 2.90024e-08 0)
(0.00029123 3.40063e-09 0)
(0.000291234 -2.20297e-08 0)
(0.000291229 -4.66301e-08 0)
(0.000291219 -6.92279e-08 0)
(0.000291204 -8.87817e-08 0)
(0.000291187 -1.04626e-07 0)
(0.000291168 -1.1615e-07 0)
(0.000291148 -1.22653e-07 0)
(0.000291126 -1.23648e-07 0)
(0.000291102 -1.19038e-07 0)
(0.000291075 -1.09187e-07 0)
(0.000291044 -9.48224e-08 0)
(0.00029101 -7.65559e-08 0)
(0.000290971 -5.64065e-08 0)
(0.000290928 -3.58546e-08 0)
(0.000290881 -1.62004e-08 0)
(0.000290831 1.44351e-09 0)
(0.00029078 1.62225e-08 0)
(0.000290728 2.76725e-08 0)
(0.000290677 3.57394e-08 0)
(0.000290628 4.07183e-08 0)
(0.000290582 4.30175e-08 0)
(0.00029054 4.29855e-08 0)
(0.000290503 4.10578e-08 0)
(0.000290472 3.77174e-08 0)
(0.000290445 3.34427e-08 0)
(0.000290423 2.86724e-08 0)
(0.000290405 2.37813e-08 0)
(0.000290391 1.90644e-08 0)
(0.000290381 1.47324e-08 0)
(0.000290374 1.09184e-08 0)
(0.000290369 7.68971e-09 0)
(0.000290365 5.05939e-09 0)
(0.000290363 2.99689e-09 0)
(0.000290362 1.43661e-09 0)
(0.000290362 3.24009e-10 0)
(0.000290362 -4.37292e-10 0)
(0.000290363 -9.06307e-10 0)
(0.000290363 -1.15203e-09 0)
(0.000290363 -1.24454e-09 0)
(0.000290364 -1.23395e-09 0)
(0.000290364 -1.1587e-09 0)
(0.000290364 -1.04757e-09 0)
(0.000290364 -9.2058e-10 0)
(0.000290364 -7.89364e-10 0)
(0.000290364 -6.60987e-10 0)
(0.000290364 -5.46193e-10 0)
(0.000290364 -4.48613e-10 0)
(0.000290364 -3.68303e-10 0)
(0.000290364 -3.03895e-10 0)
(0.000290363 -2.53237e-10 0)
(0.000290363 -2.13942e-10 0)
(0.000290363 -1.83679e-10 0)
(0.000290363 -1.60386e-10 0)
(0.000290363 -1.42302e-10 0)
(0.000290363 -1.28016e-10 0)
(0.000290363 -1.16419e-10 0)
(0.000290362 -1.06662e-10 0)
(0.000290362 -9.81486e-11 0)
(0.000290362 -9.03658e-11 0)
(0.000290362 -8.3097e-11 0)
(0.000290362 -7.58851e-11 0)
(0.000290362 -6.89237e-11 0)
(0.000290362 -6.12983e-11 0)
(0.000290362 -5.42323e-11 0)
(0.000290362 -4.45833e-11 0)
(0.000290362 -3.80332e-11 0)
(0.000290362 -2.09979e-11 0)
(0.000713177 -1.57452e-06 0)
(0.000714434 -1.41348e-06 0)
(0.000715596 -1.27359e-06 0)
(0.000716671 -1.15529e-06 0)
(0.000717667 -1.0571e-06 0)
(0.00071859 -9.75767e-07 0)
(0.000719448 -9.07048e-07 0)
(0.000720246 -8.47114e-07 0)
(0.000720993 -7.93603e-07 0)
(0.000721695 -7.45503e-07 0)
(0.000722358 -7.02129e-07 0)
(0.000722987 -6.62064e-07 0)
(0.000723588 -6.22866e-07 0)
(0.000724162 -5.81393e-07 0)
(0.00072471 -5.34443e-07 0)
(0.000725231 -4.79773e-07 0)
(0.000725723 -4.16645e-07 0)
(0.000726181 -3.45847e-07 0)
(0.000726603 -2.69494e-07 0)
(0.000726988 -1.90718e-07 0)
(0.000727334 -1.13249e-07 0)
(0.000727644 -4.08173e-08 0)
(0.000727922 2.35213e-08 0)
(0.000728172 7.80763e-08 0)
(0.0007284 1.22918e-07 0)
(0.000728608 1.58817e-07 0)
(0.000728797 1.86578e-07 0)
(0.000728967 2.07419e-07 0)
(0.000729119 2.22638e-07 0)
(0.000729251 2.33411e-07 0)
(0.000729359 2.40875e-07 0)
(0.000729439 2.46055e-07 0)
(0.000729489 2.49584e-07 0)
(0.000729503 2.51119e-07 0)
(0.00072948 2.50994e-07 0)
(0.000729422 2.48592e-07 0)
(0.000729335 2.43198e-07 0)
(0.000729224 2.34166e-07 0)
(0.000729096 2.21382e-07 0)
(0.000728958 2.05317e-07 0)
(0.00072882 1.86425e-07 0)
(0.000728685 1.65728e-07 0)
(0.000728558 1.44414e-07 0)
(0.000728443 1.23358e-07 0)
(0.000728342 1.03205e-07 0)
(0.000728256 8.44643e-08 0)
(0.000728185 6.7511e-08 0)
(0.000728128 5.2582e-08 0)
(0.000728085 3.97862e-08 0)
(0.000728054 2.91198e-08 0)
(0.000728032 2.04843e-08 0)
(0.000728018 1.37103e-08 0)
(0.00072801 8.58146e-09 0)
(0.000728007 4.85804e-09 0)
(0.000728006 2.29639e-09 0)
(0.000728007 6.68313e-10 0)
(0.00072801 -2.65507e-10 0)
(0.000728013 -6.98873e-10 0)
(0.000728015 -7.74502e-10 0)
(0.000728018 -6.21066e-10 0)
(0.00072802 -3.48389e-10 0)
(0.000728022 -3.24614e-11 0)
(0.000728023 2.76878e-10 0)
(0.000728024 5.50069e-10 0)
(0.000728024 7.73018e-10 0)
(0.000728025 9.42364e-10 0)
(0.000728024 1.05708e-09 0)
(0.000728024 1.12299e-09 0)
(0.000728024 1.14644e-09 0)
(0.000728024 1.13666e-09 0)
(0.000728023 1.10148e-09 0)
(0.000728023 1.04823e-09 0)
(0.000728022 9.83051e-10 0)
(0.000728022 9.1132e-10 0)
(0.000728022 8.3683e-10 0)
(0.000728021 7.63035e-10 0)
(0.000728021 6.91597e-10 0)
(0.000728021 6.24725e-10 0)
(0.00072802 5.62303e-10 0)
(0.00072802 5.06221e-10 0)
(0.00072802 4.54648e-10 0)
(0.00072802 4.10301e-10 0)
(0.00072802 3.69073e-10 0)
(0.000728019 3.36131e-10 0)
(0.000728019 3.03504e-10 0)
(0.000728019 2.81439e-10 0)
(0.000728019 2.54775e-10 0)
(0.000728019 2.43476e-10 0)
(0.000728019 2.18843e-10 0)
(0.000933645 -5.77568e-06 0)
(0.000935468 -5.31494e-06 0)
(0.000937181 -4.88971e-06 0)
(0.000938789 -4.49953e-06 0)
(0.000940295 -4.14263e-06 0)
(0.000941704 -3.81681e-06 0)
(0.000943022 -3.52048e-06 0)
(0.000944254 -3.2534e-06 0)
(0.000945405 -3.01632e-06 0)
(0.000946475 -2.80996e-06 0)
(0.000947469 -2.63398e-06 0)
(0.000948389 -2.4858e-06 0)
(0.00094924 -2.35984e-06 0)
(0.00095003 -2.24803e-06 0)
(0.000950766 -2.14116e-06 0)
(0.000951457 -2.03064e-06 0)
(0.000952111 -1.91049e-06 0)
(0.000952733 -1.77891e-06 0)
(0.000953325 -1.63877e-06 0)
(0.000953888 -1.4968e-06 0)
(0.000954418 -1.36156e-06 0)
(0.000954911 -1.24083e-06 0)
(0.000955365 -1.13928e-06 0)
(0.000955777 -1.05759e-06 0)
(0.000956153 -9.93026e-07 0)
(0.000956499 -9.40035e-07 0)
(0.000956828 -8.90656e-07 0)
(0.000957151 -8.35694e-07 0)
(0.000957476 -7.66404e-07 0)
(0.000957807 -6.75635e-07 0)
(0.000958147 -5.59401e-07 0)
(0.000958491 -4.18225e-07 0)
(0.000958832 -2.57733e-07 0)
(0.000959161 -8.77588e-08 0)
(0.000959471 8.18427e-08 0)
(0.000959748 2.40703e-07 0)
(0.000959981 3.79447e-07 0)
(0.000960164 4.91213e-07 0)
(0.000960295 5.71832e-07 0)
(0.000960372 6.19589e-07 0)
(0.000960397 6.35616e-07 0)
(0.000960377 6.23275e-07 0)
(0.000960319 5.87116e-07 0)
(0.000960234 5.33282e-07 0)
(0.000960129 4.68122e-07 0)
(0.000960015 3.97449e-07 0)
(0.000959898 3.26257e-07 0)
(0.000959786 2.58509e-07 0)
(0.000959681 1.97052e-07 0)
(0.000959588 1.43641e-07 0)
(0.000959508 9.90707e-08 0)
(0.00095944 6.33563e-08 0)
(0.000959386 3.59489e-08 0)
(0.000959343 1.59391e-08 0)
(0.00095931 2.22075e-09 0)
(0.000959286 -6.39627e-09 0)
(0.000959269 -1.11268e-08 0)
(0.000959257 -1.30382e-08 0)
(0.00095925 -1.30412e-08 0)
(0.000959245 -1.18618e-08 0)
(0.000959243 -1.00457e-08 0)
(0.000959242 -7.98801e-09 0)
(0.000959242 -5.95392e-09 0)
(0.000959242 -4.10491e-09 0)
(0.000959242 -2.52679e-09 0)
(0.000959243 -1.25289e-09 0)
(0.000959243 -2.79892e-10 0)
(0.000959244 4.29054e-10 0)
(0.000959244 9.18326e-10 0)
(0.000959244 1.23014e-09 0)
(0.000959244 1.40435e-09 0)
(0.000959244 1.47691e-09 0)
(0.000959244 1.47641e-09 0)
(0.000959244 1.42729e-09 0)
(0.000959244 1.34646e-09 0)
(0.000959244 1.24912e-09 0)
(0.000959244 1.14304e-09 0)
(0.000959244 1.03772e-09 0)
(0.000959243 9.34282e-10 0)
(0.000959243 8.39948e-10 0)
(0.000959243 7.50684e-10 0)
(0.000959243 6.74442e-10 0)
(0.000959243 6.0209e-10 0)
(0.000959243 5.45325e-10 0)
(0.000959242 4.88385e-10 0)
(0.000959242 4.50461e-10 0)
(0.000959242 4.05506e-10 0)
(0.000959242 3.85935e-10 0)
(0.000959242 3.48515e-10 0)
(0.00102841 -9.76303e-06 0)
(0.00102997 -9.10363e-06 0)
(0.00103142 -8.48085e-06 0)
(0.00103279 -7.89948e-06 0)
(0.00103406 -7.36257e-06 0)
(0.00103525 -6.87019e-06 0)
(0.00103636 -6.41888e-06 0)
(0.0010374 -6.00234e-06 0)
(0.00103839 -5.61318e-06 0)
(0.00103931 -5.24511e-06 0)
(0.00104016 -4.89483e-06 0)
(0.00104096 -4.56304e-06 0)
(0.00104169 -4.25357e-06 0)
(0.00104236 -3.97093e-06 0)
(0.00104297 -3.71735e-06 0)
(0.00104354 -3.49067e-06 0)
(0.00104407 -3.2836e-06 0)
(0.00104457 -3.08496e-06 0)
(0.00104505 -2.88264e-06 0)
(0.00104552 -2.66727e-06 0)
(0.00104597 -2.43542e-06 0)
(0.00104638 -2.19108e-06 0)
(0.00104676 -1.94519e-06 0)
(0.00104709 -1.71342e-06 0)
(0.00104737 -1.5125e-06 0)
(0.0010476 -1.35599e-06 0)
(0.00104779 -1.25098e-06 0)
(0.00104795 -1.19651e-06 0)
(0.0010481 -1.1832e-06 0)
(0.00104826 -1.1946e-06 0)
(0.00104844 -1.21054e-06 0)
(0.00104866 -1.21102e-06 0)
(0.00104892 -1.17949e-06 0)
(0.00104922 -1.10504e-06 0)
(0.00104956 -9.85403e-07 0)
(0.00104991 -8.24693e-07 0)
(0.00105026 -6.32257e-07 0)
(0.0010506 -4.20714e-07 0)
(0.00105092 -2.04664e-07 0)
(0.00105119 1.15758e-09 0)
(0.00105142 1.84488e-07 0)
(0.0010516 3.36166e-07 0)
(0.00105172 4.5125e-07 0)
(0.00105179 5.27962e-07 0)
(0.00105182 5.67769e-07 0)
(0.00105182 5.7479e-07 0)
(0.00105178 5.54838e-07 0)
(0.00105173 5.14546e-07 0)
(0.00105166 4.60616e-07 0)
(0.00105158 3.99227e-07 0)
(0.0010515 3.35633e-07 0)
(0.00105143 2.73958e-07 0)
(0.00105136 2.17145e-07 0)
(0.0010513 1.67038e-07 0)
(0.00105124 1.24522e-07 0)
(0.00105119 8.97206e-08 0)
(0.00105115 6.22332e-08 0)
(0.00105112 4.12743e-08 0)
(0.0010511 2.58694e-08 0)
(0.00105108 1.50011e-08 0)
(0.00105106 7.69621e-09 0)
(0.00105105 3.08143e-09 0)
(0.00105104 4.15035e-10 0)
(0.00105104 -9.03981e-10 0)
(0.00105103 -1.3429e-09 0)
(0.00105103 -1.24805e-09 0)
(0.00105102 -8.64626e-10 0)
(0.00105102 -3.6264e-10 0)
(0.00105102 1.49841e-10 0)
(0.00105102 6.09942e-10 0)
(0.00105102 9.85889e-10 0)
(0.00105102 1.27005e-09 0)
(0.00105102 1.46404e-09 0)
(0.00105102 1.58109e-09 0)
(0.00105102 1.63148e-09 0)
(0.00105102 1.63362e-09 0)
(0.00105102 1.59507e-09 0)
(0.00105101 1.53426e-09 0)
(0.00105101 1.45149e-09 0)
(0.00105101 1.36573e-09 0)
(0.00105101 1.26781e-09 0)
(0.00105101 1.18076e-09 0)
(0.00105101 1.08339e-09 0)
(0.00105101 1.00843e-09 0)
(0.00105101 9.18055e-10 0)
(0.00105101 8.62757e-10 0)
(0.00105101 7.79839e-10 0)
(0.00105101 7.49512e-10 0)
(0.00105101 6.70526e-10 0)
(0.0010676 -1.28239e-05 0)
(0.00106855 -1.19444e-05 0)
(0.00106943 -1.11086e-05 0)
(0.00107025 -1.03243e-05 0)
(0.001071 -9.5968e-06 0)
(0.00107169 -8.92822e-06 0)
(0.00107233 -8.31671e-06 0)
(0.00107291 -7.75623e-06 0)
(0.00107344 -7.23772e-06 0)
(0.00107392 -6.75152e-06 0)
(0.00107436 -6.29026e-06 0)
(0.00107477 -5.85115e-06 0)
(0.00107514 -5.43648e-06 0)
(0.00107547 -5.05209e-06 0)
(0.00107577 -4.70419e-06 0)
(0.00107604 -4.39573e-06 0)
(0.00107629 -4.12369e-06 0)
(0.00107651 -3.87844e-06 0)
(0.00107671 -3.64554e-06 0)
(0.00107689 -3.40952e-06 0)
(0.00107707 -3.15846e-06 0)
(0.00107723 -2.88784e-06 0)
(0.00107737 -2.60246e-06 0)
(0.0010775 -2.3158e-06 0)
(0.00107761 -2.04706e-06 0)
(0.0010777 -1.81654e-06 0)
(0.00107778 -1.64047e-06 0)
(0.00107785 -1.52686e-06 0)
(0.00107791 -1.47364e-06 0)
(0.00107797 -1.4694e-06 0)
(0.00107804 -1.49525e-06 0)
(0.00107812 -1.52826e-06 0)
(0.00107823 -1.54563e-06 0)
(0.00107836 -1.52833e-06 0)
(0.00107851 -1.46379e-06 0)
(0.00107868 -1.34713e-06 0)
(0.00107887 -1.18106e-06 0)
(0.00107907 -9.74918e-07 0)
(0.00107927 -7.42222e-07 0)
(0.00107946 -4.98314e-07 0)
(0.00107964 -2.59109e-07 0)
(0.00107981 -3.87986e-08 0)
(0.00107995 1.52213e-07 0)
(0.00108006 3.06822e-07 0)
(0.00108015 4.21615e-07 0)
(0.00108022 4.96827e-07 0)
(0.00108026 5.35658e-07 0)
(0.00108028 5.43286e-07 0)
(0.00108028 5.25993e-07 0)
(0.00108027 4.90385e-07 0)
(0.00108025 4.42769e-07 0)
(0.00108022 3.8871e-07 0)
(0.00108019 3.3278e-07 0)
(0.00108015 2.78466e-07 0)
(0.00108012 2.28191e-07 0)
(0.00108009 1.8343e-07 0)
(0.00108006 1.44875e-07 0)
(0.00108003 1.12615e-07 0)
(0.00108001 8.63195e-08 0)
(0.00107998 6.53931e-08 0)
(0.00107997 4.91061e-08 0)
(0.00107995 3.66922e-08 0)
(0.00107994 2.74128e-08 0)
(0.00107993 2.05998e-08 0)
(0.00107992 1.56764e-08 0)
(0.00107991 1.21655e-08 0)
(0.00107991 9.68361e-09 0)
(0.0010799 7.93362e-09 0)
(0.0010799 6.69027e-09 0)
(0.0010799 5.79339e-09 0)
(0.00107989 5.12552e-09 0)
(0.00107989 4.60865e-09 0)
(0.00107989 4.18656e-09 0)
(0.00107989 3.82841e-09 0)
(0.00107989 3.50835e-09 0)
(0.00107989 3.21997e-09 0)
(0.00107989 2.94866e-09 0)
(0.00107989 2.70117e-09 0)
(0.00107989 2.46288e-09 0)
(0.00107989 2.25033e-09 0)
(0.00107989 2.04133e-09 0)
(0.00107989 1.86449e-09 0)
(0.00107989 1.68253e-09 0)
(0.00107988 1.54335e-09 0)
(0.00107988 1.38399e-09 0)
(0.00107988 1.28504e-09 0)
(0.00107988 1.1405e-09 0)
(0.00107988 1.08638e-09 0)
(0.00107988 9.44674e-10 0)
(0.00108461 -1.39782e-05 0)
(0.00108492 -1.30529e-05 0)
(0.00108524 -1.21482e-05 0)
(0.00108554 -1.12811e-05 0)
(0.00108583 -1.04642e-05 0)
(0.00108608 -9.70502e-06 0)
(0.00108631 -9.00503e-06 0)
(0.00108649 -8.3605e-06 0)
(0.00108664 -7.76403e-06 0)
(0.00108676 -7.20734e-06 0)
(0.00108684 -6.68411e-06 0)
(0.0010869 -6.19202e-06 0)
(0.00108694 -5.73304e-06 0)
(0.00108696 -5.31176e-06 0)
(0.00108696 -4.93238e-06 0)
(0.00108696 -4.59542e-06 0)
(0.00108695 -4.29558e-06 0)
(0.00108693 -4.02157e-06 0)
(0.0010869 -3.75834e-06 0)
(0.00108686 -3.49089e-06 0)
(0.00108682 -3.20857e-06 0)
(0.00108676 -2.90851e-06 0)
(0.00108671 -2.59716e-06 0)
(0.00108665 -2.28935e-06 0)
(0.00108661 -2.00519e-06 0)
(0.00108657 -1.76547e-06 0)
(0.00108655 -1.58694e-06 0)
(0.00108653 -1.47844e-06 0)
(0.00108652 -1.43869e-06 0)
(0.00108652 -1.45629e-06 0)
(0.00108652 -1.51179e-06 0)
(0.00108653 -1.5811e-06 0)
(0.00108654 -1.63958e-06 0)
(0.00108656 -1.66583e-06 0)
(0.00108658 -1.64456e-06 0)
(0.00108661 -1.56799e-06 0)
(0.00108665 -1.43612e-06 0)
(0.0010867 -1.25579e-06 0)
(0.00108676 -1.03898e-06 0)
(0.00108682 -8.00626e-07 0)
(0.0010869 -5.5647e-07 0)
(0.00108697 -3.21123e-07 0)
(0.00108705 -1.07327e-07 0)
(0.00108713 7.60241e-08 0)
(0.00108721 2.23922e-07 0)
(0.00108728 3.34666e-07 0)
(0.00108734 4.09391e-07 0)
(0.00108739 4.51479e-07 0)
(0.00108743 4.65778e-07 0)
(0.00108746 4.57875e-07 0)
(0.00108748 4.33476e-07 0)
(0.0010875 3.97934e-07 0)
(0.0010875 3.5593e-07 0)
(0.00108751 3.11302e-07 0)
(0.0010875 2.66996e-07 0)
(0.0010875 2.25104e-07 0)
(0.00108749 1.86961e-07 0)
(0.00108748 1.53284e-07 0)
(0.00108747 1.24306e-07 0)
(0.00108745 9.99141e-08 0)
(0.00108744 7.97725e-08 0)
(0.00108743 6.34143e-08 0)
(0.00108743 5.03173e-08 0)
(0.00108742 3.99571e-08 0)
(0.00108741 3.18409e-08 0)
(0.0010874 2.55287e-08 0)
(0.0010874 2.06411e-08 0)
(0.0010874 1.68634e-08 0)
(0.00108739 1.39379e-08 0)
(0.00108739 1.16624e-08 0)
(0.00108739 9.87595e-09 0)
(0.00108738 8.45967e-09 0)
(0.00108738 7.3184e-09 0)
(0.00108738 6.38846e-09 0)
(0.00108738 5.61367e-09 0)
(0.00108738 4.96503e-09 0)
(0.00108738 4.40575e-09 0)
(0.00108738 3.92954e-09 0)
(0.00108738 3.50508e-09 0)
(0.00108738 3.14426e-09 0)
(0.00108737 2.8101e-09 0)
(0.00108737 2.53462e-09 0)
(0.00108737 2.26357e-09 0)
(0.00108737 2.05793e-09 0)
(0.00108737 1.83006e-09 0)
(0.00108737 1.68792e-09 0)
(0.00108737 1.4848e-09 0)
(0.00108737 1.4079e-09 0)
(0.00108737 1.20811e-09 0)
(0.00109093 -1.40812e-05 0)
(0.00109116 -1.32605e-05 0)
(0.00109138 -1.2416e-05 0)
(0.00109157 -1.15702e-05 0)
(0.00109174 -1.07421e-05 0)
(0.00109186 -9.94635e-06 0)
(0.00109193 -9.19157e-06 0)
(0.00109195 -8.48127e-06 0)
(0.00109193 -7.81542e-06 0)
(0.00109186 -7.19263e-06 0)
(0.00109176 -6.61217e-06 0)
(0.00109163 -6.07493e-06 0)
(0.00109148 -5.58305e-06 0)
(0.00109131 -5.13852e-06 0)
(0.00109114 -4.74112e-06 0)
(0.00109097 -4.38686e-06 0)
(0.00109078 -4.06743e-06 0)
(0.0010906 -3.77126e-06 0)
(0.0010904 -3.48583e-06 0)
(0.0010902 -3.20078e-06 0)
(0.00108999 -2.9108e-06 0)
(0.00108979 -2.61737e-06 0)
(0.0010896 -2.32893e-06 0)
(0.00108944 -2.0592e-06 0)
(0.00108929 -1.82417e-06 0)
(0.00108918 -1.63839e-06 0)
(0.00108909 -1.51158e-06 0)
(0.00108903 -1.44612e-06 0)
(0.00108899 -1.43621e-06 0)
(0.00108896 -1.46859e-06 0)
(0.00108893 -1.52483e-06 0)
(0.00108889 -1.58424e-06 0)
(0.00108885 -1.62704e-06 0)
(0.00108881 -1.63699e-06 0)
(0.00108875 -1.60328e-06 0)
(0.0010887 -1.52141e-06 0)
(0.00108864 -1.39298e-06 0)
(0.0010886 -1.22481e-06 0)
(0.00108856 -1.02743e-06 0)
(0.00108853 -8.13391e-07 0)
(0.00108852 -5.95577e-07 0)
(0.00108853 -3.85829e-07 0)
(0.00108855 -1.93935e-07 0)
(0.00108858 -2.7078e-08 0)
(0.00108862 1.10543e-07 0)
(0.00108867 2.17472e-07 0)
(0.00108873 2.94336e-07 0)
(0.00108878 3.43594e-07 0)
(0.00108883 3.68894e-07 0)
(0.00108888 3.74516e-07 0)
(0.00108892 3.64904e-07 0)
(0.00108896 3.44303e-07 0)
(0.00108899 3.1651e-07 0)
(0.00108901 2.84724e-07 0)
(0.00108903 2.51494e-07 0)
(0.00108904 2.18728e-07 0)
(0.00108905 1.87758e-07 0)
(0.00108905 1.59419e-07 0)
(0.00108906 1.34152e-07 0)
(0.00108906 1.12097e-07 0)
(0.00108905 9.3181e-08 0)
(0.00108905 7.71923e-08 0)
(0.00108905 6.38384e-08 0)
(0.00108905 5.27919e-08 0)
(0.00108904 4.37209e-08 0)
(0.00108904 3.63115e-08 0)
(0.00108904 3.0278e-08 0)
(0.00108904 2.53714e-08 0)
(0.00108903 2.13771e-08 0)
(0.00108903 1.81188e-08 0)
(0.00108903 1.54482e-08 0)
(0.00108903 1.32499e-08 0)
(0.00108903 1.14255e-08 0)
(0.00108903 9.90532e-09 0)
(0.00108902 8.6231e-09 0)
(0.00108902 7.542e-09 0)
(0.00108902 6.61317e-09 0)
(0.00108902 5.82469e-09 0)
(0.00108902 5.13232e-09 0)
(0.00108902 4.54726e-09 0)
(0.00108902 4.0172e-09 0)
(0.00108902 3.58134e-09 0)
(0.00108902 3.16364e-09 0)
(0.00108902 2.84505e-09 0)
(0.00108902 2.50207e-09 0)
(0.00108902 2.28488e-09 0)
(0.00108902 1.98284e-09 0)
(0.00108902 1.86586e-09 0)
(0.00108902 1.56698e-09 0)
(0.00109175 -1.49688e-05 0)
(0.00109246 -1.40479e-05 0)
(0.00109306 -1.30785e-05 0)
(0.00109354 -1.2089e-05 0)
(0.0010939 -1.11054e-05 0)
(0.00109415 -1.01488e-05 0)
(0.0010943 -9.23503e-06 0)
(0.00109435 -8.37478e-06 0)
(0.00109431 -7.57477e-06 0)
(0.0010942 -6.83921e-06 0)
(0.00109404 -6.17063e-06 0)
(0.00109383 -5.57018e-06 0)
(0.00109359 -5.03709e-06 0)
(0.00109332 -4.56797e-06 0)
(0.00109304 -4.15629e-06 0)
(0.00109275 -3.7925e-06 0)
(0.00109244 -3.46512e-06 0)
(0.00109214 -3.16245e-06 0)
(0.00109183 -2.87479e-06 0)
(0.00109152 -2.59635e-06 0)
(0.00109122 -2.32637e-06 0)
(0.00109094 -2.06927e-06 0)
(0.00109068 -1.83348e-06 0)
(0.00109046 -1.62941e-06 0)
(0.00109027 -1.46686e-06 0)
(0.00109012 -1.35261e-06 0)
(0.00109 -1.28859e-06 0)
(0.0010899 -1.27102e-06 0)
(0.00108982 -1.29067e-06 0)
(0.00108974 -1.33419e-06 0)
(0.00108967 -1.38597e-06 0)
(0.00108959 -1.43037e-06 0)
(0.00108951 -1.45373e-06 0)
(0.00108941 -1.44592e-06 0)
(0.00108931 -1.40127e-06 0)
(0.00108921 -1.31875e-06 0)
(0.00108911 -1.20156e-06 0)
(0.00108901 -1.05618e-06 0)
(0.00108893 -8.91274e-07 0)
(0.00108887 -7.16432e-07 0)
(0.00108883 -5.41077e-07 0)
(0.00108881 -3.73596e-07 0)
(0.0010888 -2.20724e-07 0)
(0.00108881 -8.71583e-08 0)
(0.00108884 2.42297e-08 0)
(0.00108888 1.12458e-07 0)
(0.00108892 1.78237e-07 0)
(0.00108897 2.23375e-07 0)
(0.00108902 2.50469e-07 0)
(0.00108907 2.62531e-07 0)
(0.00108912 2.62677e-07 0)
(0.00108916 2.53889e-07 0)
(0.0010892 2.38851e-07 0)
(0.00108923 2.19862e-07 0)
(0.00108926 1.98791e-07 0)
(0.00108928 1.77089e-07 0)
(0.0010893 1.55819e-07 0)
(0.00108931 1.35708e-07 0)
(0.00108932 1.1721e-07 0)
(0.00108933 1.0056e-07 0)
(0.00108934 8.58316e-08 0)
(0.00108934 7.29873e-08 0)
(0.00108934 6.19131e-08 0)
(0.00108934 5.24524e-08 0)
(0.00108934 4.44274e-08 0)
(0.00108934 3.76574e-08 0)
(0.00108934 3.19667e-08 0)
(0.00108934 2.71949e-08 0)
(0.00108934 2.31963e-08 0)
(0.00108934 1.98462e-08 0)
(0.00108934 1.70337e-08 0)
(0.00108934 1.46702e-08 0)
(0.00108934 1.26744e-08 0)
(0.00108934 1.09883e-08 0)
(0.00108934 9.55212e-09 0)
(0.00108934 8.33251e-09 0)
(0.00108934 7.28144e-09 0)
(0.00108934 6.3873e-09 0)
(0.00108934 5.60398e-09 0)
(0.00108934 4.9423e-09 0)
(0.00108934 4.34667e-09 0)
(0.00108934 3.85696e-09 0)
(0.00108934 3.39218e-09 0)
(0.00108933 3.03673e-09 0)
(0.00108933 2.65889e-09 0)
(0.00108933 2.41774e-09 0)
(0.00108933 2.0875e-09 0)
(0.00108933 1.95777e-09 0)
(0.00108933 1.63181e-09 0)
(0.00109338 -1.73685e-05 0)
(0.00109424 -1.60605e-05 0)
(0.00109493 -1.47133e-05 0)
(0.00109547 -1.33622e-05 0)
(0.00109584 -1.20391e-05 0)
(0.00109608 -1.07703e-05 0)
(0.00109619 -9.57606e-06 0)
(0.00109618 -8.4709e-06 0)
(0.00109608 -7.46404e-06 0)
(0.00109589 -6.56022e-06 0)
(0.00109565 -5.76005e-06 0)
(0.00109535 -5.06032e-06 0)
(0.00109502 -4.45418e-06 0)
(0.00109466 -3.93161e-06 0)
(0.00109428 -3.48031e-06 0)
(0.00109389 -3.08705e-06 0)
(0.00109349 -2.73925e-06 0)
(0.00109309 -2.42663e-06 0)
(0.0010927 -2.14233e-06 0)
(0.00109231 -1.88355e-06 0)
(0.00109195 -1.65125e-06 0)
(0.00109162 -1.44916e-06 0)
(0.00109132 -1.2823e-06 0)
(0.00109105 -1.15524e-06 0)
(0.00109083 -1.0705e-06 0)
(0.00109063 -1.02742e-06 0)
(0.00109047 -1.02169e-06 0)
(0.00109033 -1.04551e-06 0)
(0.0010902 -1.08842e-06 0)
(0.00109008 -1.13855e-06 0)
(0.00108996 -1.18407e-06 0)
(0.00108984 -1.21453e-06 0)
(0.00108972 -1.22195e-06 0)
(0.00108959 -1.20145e-06 0)
(0.00108946 -1.15148e-06 0)
(0.00108934 -1.07357e-06 0)
(0.00108922 -9.71795e-07 0)
(0.00108912 -8.51988e-07 0)
(0.00108904 -7.20928e-07 0)
(0.00108897 -5.85553e-07 0)
(0.00108892 -4.52289e-07 0)
(0.00108889 -3.26578e-07 0)
(0.00108888 -2.12594e-07 0)
(0.00108888 -1.13135e-07 0)
(0.0010889 -2.96706e-08 0)
(0.00108893 3.74522e-08 0)
(0.00108896 8.89694e-08 0)
(0.001089 1.26235e-07 0)
(0.00108905 1.51001e-07 0)
(0.00108909 1.65241e-07 0)
(0.00108913 1.70979e-07 0)
(0.00108917 1.70137e-07 0)
(0.00108921 1.64449e-07 0)
(0.00108924 1.55415e-07 0)
(0.00108927 1.44273e-07 0)
(0.00108929 1.3201e-07 0)
(0.00108931 1.19378e-07 0)
(0.00108933 1.06925e-07 0)
(0.00108934 9.50289e-08 0)
(0.00108935 8.39292e-08 0)
(0.00108936 7.37599e-08 0)
(0.00108937 6.45758e-08 0)
(0.00108937 5.6375e-08 0)
(0.00108938 4.91182e-08 0)
(0.00108938 4.27417e-08 0)
(0.00108938 3.71697e-08 0)
(0.00108938 3.23201e-08 0)
(0.00108938 2.81125e-08 0)
(0.00108939 2.4468e-08 0)
(0.00108939 2.13164e-08 0)
(0.00108939 1.85899e-08 0)
(0.00108939 1.62338e-08 0)
(0.00108939 1.41924e-08 0)
(0.00108939 1.24273e-08 0)
(0.00108939 1.0892e-08 0)
(0.00108939 9.56428e-09 0)
(0.00108939 8.40147e-09 0)
(0.00108939 7.39878e-09 0)
(0.00108939 6.50993e-09 0)
(0.00108939 5.75183e-09 0)
(0.00108939 5.06367e-09 0)
(0.00108939 4.49411e-09 0)
(0.00108939 3.95027e-09 0)
(0.00108939 3.53252e-09 0)
(0.00108939 3.0862e-09 0)
(0.00108939 2.80071e-09 0)
(0.00108939 2.40728e-09 0)
(0.00108939 2.2529e-09 0)
(0.00108939 1.8609e-09 0)
(0.00110018 -1.91088e-05 0)
(0.00110025 -1.74452e-05 0)
(0.00110024 -1.57537e-05 0)
(0.00110014 -1.40758e-05 0)
(0.00109995 -1.24488e-05 0)
(0.00109969 -1.09036e-05 0)
(0.00109937 -9.4643e-06 0)
(0.00109899 -8.14794e-06 0)
(0.00109856 -6.96448e-06 0)
(0.0010981 -5.91744e-06 0)
(0.00109761 -5.00443e-06 0)
(0.0010971 -4.21804e-06 0)
(0.00109658 -3.54689e-06 0)
(0.00109605 -2.9771e-06 0)
(0.00109551 -2.49394e-06 0)
(0.00109498 -2.08331e-06 0)
(0.00109445 -1.73342e-06 0)
(0.00109394 -1.43534e-06 0)
(0.00109344 -1.18326e-06 0)
(0.00109298 -9.74281e-07 0)
(0.00109254 -8.07493e-07 0)
(0.00109214 -6.82883e-07 0)
(0.00109179 -6.00133e-07 0)
(0.00109147 -5.57639e-07 0)
(0.0010912 -5.51831e-07 0)
(0.00109096 -5.76959e-07 0)
(0.00109074 -6.25356e-07 0)
(0.00109055 -6.87997e-07 0)
(0.00109038 -7.55382e-07 0)
(0.00109021 -8.18373e-07 0)
(0.00109006 -8.69031e-07 0)
(0.00108991 -9.01288e-07 0)
(0.00108976 -9.11337e-07 0)
(0.00108962 -8.97732e-07 0)
(0.00108949 -8.61225e-07 0)
(0.00108937 -8.04404e-07 0)
(0.00108926 -7.31182e-07 0)
(0.00108917 -6.46255e-07 0)
(0.00108909 -5.54555e-07 0)
(0.00108903 -4.60791e-07 0)
(0.00108899 -3.69106e-07 0)
(0.00108896 -2.8286e-07 0)
(0.00108895 -2.04508e-07 0)
(0.00108895 -1.35623e-07 0)
(0.00108897 -7.69538e-08 0)
(0.00108899 -2.85678e-08 0)
(0.00108902 9.9411e-09 0)
(0.00108905 3.94192e-08 0)
(0.00108908 6.09481e-08 0)
(0.00108912 7.57062e-08 0)
(0.00108915 8.48758e-08 0)
(0.00108919 8.95619e-08 0)
(0.00108922 9.07642e-08 0)
(0.00108924 8.93562e-08 0)
(0.00108927 8.60731e-08 0)
(0.00108929 8.15162e-08 0)
(0.00108931 7.61646e-08 0)
(0.00108932 7.03896e-08 0)
(0.00108934 6.44706e-08 0)
(0.00108935 5.86116e-08 0)
(0.00108936 5.29557e-08 0)
(0.00108936 4.75986e-08 0)
(0.00108937 4.25985e-08 0)
(0.00108937 3.79865e-08 0)
(0.00108938 3.37723e-08 0)
(0.00108938 2.9952e-08 0)
(0.00108938 2.65103e-08 0)
(0.00108939 2.34271e-08 0)
(0.00108939 2.06759e-08 0)
(0.00108939 1.82313e-08 0)
(0.00108939 1.60635e-08 0)
(0.00108939 1.41484e-08 0)
(0.00108939 1.24561e-08 0)
(0.00108939 1.09676e-08 0)
(0.00108939 9.65354e-09 0)
(0.00108939 8.50274e-09 0)
(0.00108939 7.4843e-09 0)
(0.00108939 6.59836e-09 0)
(0.00108939 5.80788e-09 0)
(0.00108939 5.12965e-09 0)
(0.00108939 4.51215e-09 0)
(0.00108939 3.99882e-09 0)
(0.00108939 3.50888e-09 0)
(0.00108939 3.13086e-09 0)
(0.00108939 2.72858e-09 0)
(0.00108939 2.46965e-09 0)
(0.00108939 2.11548e-09 0)
(0.00108939 1.97516e-09 0)
(0.00108939 1.62262e-09 0)
(0.00111178 -1.78816e-05 0)
(0.00111024 -1.61821e-05 0)
(0.0011088 -1.44496e-05 0)
(0.00110744 -1.27307e-05 0)
(0.00110616 -1.10667e-05 0)
(0.00110496 -9.49136e-06 0)
(0.00110384 -8.0305e-06 0)
(0.00110278 -6.70166e-06 0)
(0.00110177 -5.51428e-06 0)
(0.00110083 -4.4704e-06 0)
(0.00109993 -3.56591e-06 0)
(0.00109907 -2.79226e-06 0)
(0.00109825 -2.13768e-06 0)
(0.00109746 -1.58889e-06 0)
(0.0010967 -1.13285e-06 0)
(0.00109597 -7.57965e-07 0)
(0.00109528 -4.54493e-07 0)
(0.00109463 -2.15036e-07 0)
(0.00109402 -3.4171e-08 0)
(0.00109346 9.22727e-08 0)
(0.00109295 1.68043e-07 0)
(0.00109249 1.97233e-07 0)
(0.00109207 1.84848e-07 0)
(0.00109171 1.37115e-07 0)
(0.00109139 6.14613e-08 0)
(0.00109111 -3.37676e-08 0)
(0.00109086 -1.39786e-07 0)
(0.00109063 -2.47989e-07 0)
(0.00109043 -3.50465e-07 0)
(0.00109025 -4.40579e-07 0)
(0.00109008 -5.13354e-07 0)
(0.00108992 -5.65635e-07 0)
(0.00108978 -5.96103e-07 0)
(0.00108964 -6.05131e-07 0)
(0.00108952 -5.94503e-07 0)
(0.00108942 -5.67046e-07 0)
(0.00108932 -5.26247e-07 0)
(0.00108924 -4.75859e-07 0)
(0.00108918 -4.1957e-07 0)
(0.00108913 -3.60742e-07 0)
(0.0010891 -3.02234e-07 0)
(0.00108907 -2.46301e-07 0)
(0.00108906 -1.94577e-07 0)
(0.00108906 -1.48108e-07 0)
(0.00108907 -1.07423e-07 0)
(0.00108908 -7.26271e-08 0)
(0.0010891 -4.3548e-08 0)
(0.00108912 -1.98012e-08 0)
(0.00108915 -8.41264e-10 0)
(0.00108917 1.39252e-08 0)
(0.0010892 2.50866e-08 0)
(0.00108922 3.322e-08 0)
(0.00108924 3.88509e-08 0)
(0.00108926 4.24428e-08 0)
(0.00108928 4.44e-08 0)
(0.0010893 4.50577e-08 0)
(0.00108931 4.4703e-08 0)
(0.00108932 4.35784e-08 0)
(0.00108933 4.18852e-08 0)
(0.00108934 3.979e-08 0)
(0.00108935 3.74288e-08 0)
(0.00108936 3.49121e-08 0)
(0.00108936 3.23278e-08 0)
(0.00108937 2.97454e-08 0)
(0.00108937 2.72176e-08 0)
(0.00108938 2.47839e-08 0)
(0.00108938 2.24717e-08 0)
(0.00108938 2.03e-08 0)
(0.00108938 1.82783e-08 0)
(0.00108939 1.64126e-08 0)
(0.00108939 1.47004e-08 0)
(0.00108939 1.3141e-08 0)
(0.00108939 1.1724e-08 0)
(0.00108939 1.04468e-08 0)
(0.00108939 9.29316e-09 0)
(0.00108939 8.26299e-09 0)
(0.00108939 7.33397e-09 0)
(0.00108939 6.51349e-09 0)
(0.00108939 5.76958e-09 0)
(0.00108939 5.12419e-09 0)
(0.00108939 4.52804e-09 0)
(0.00108939 4.02899e-09 0)
(0.00108939 3.54579e-09 0)
(0.00108939 3.17216e-09 0)
(0.00108939 2.76809e-09 0)
(0.00108939 2.50905e-09 0)
(0.00108939 2.14775e-09 0)
(0.00108939 2.0063e-09 0)
(0.00108939 1.64245e-09 0)
(0.00111975 -1.22649e-05 0)
(0.00111687 -1.0984e-05 0)
(0.00111424 -9.66593e-06 0)
(0.00111186 -8.34888e-06 0)
(0.00110971 -7.06599e-06 0)
(0.00110778 -5.84448e-06 0)
(0.00110604 -4.70517e-06 0)
(0.00110447 -3.66292e-06 0)
(0.00110305 -2.7262e-06 0)
(0.00110175 -1.89821e-06 0)
(0.00110057 -1.17793e-06 0)
(0.00109947 -5.61042e-07 0)
(0.00109846 -4.16438e-08 0)
(0.00109751 3.86677e-07 0)
(0.00109663 7.30225e-07 0)
(0.00109582 9.94711e-07 0)
(0.00109506 1.18551e-06 0)
(0.00109437 1.30758e-06 0)
(0.00109374 1.36597e-06 0)
(0.00109318 1.36629e-06 0)
(0.00109267 1.31511e-06 0)
(0.00109223 1.22005e-06 0)
(0.00109184 1.08971e-06 0)
(0.0010915 9.3344e-07 0)
(0.0010912 7.60898e-07 0)
(0.00109094 5.81499e-07 0)
(0.00109072 4.03991e-07 0)
(0.00109052 2.35985e-07 0)
(0.00109034 8.36617e-08 0)
(0.00109018 -4.84887e-08 0)
(0.00109004 -1.57718e-07 0)
(0.0010899 -2.42917e-07 0)
(0.00108978 -3.04444e-07 0)
(0.00108968 -3.43878e-07 0)
(0.00108958 -3.63681e-07 0)
(0.00108949 -3.66891e-07 0)
(0.00108942 -3.56813e-07 0)
(0.00108936 -3.36752e-07 0)
(0.0010893 -3.09797e-07 0)
(0.00108926 -2.78671e-07 0)
(0.00108923 -2.45643e-07 0)
(0.00108921 -2.12491e-07 0)
(0.0010892 -1.80522e-07 0)
(0.00108919 -1.50623e-07 0)
(0.00108919 -1.23322e-07 0)
(0.0010892 -9.88718e-08 0)
(0.0010892 -7.73207e-08 0)
(0.00108921 -5.85737e-08 0)
(0.00108923 -4.24715e-08 0)
(0.00108924 -2.88067e-08 0)
(0.00108925 -1.73528e-08 0)
(0.00108926 -7.87089e-09 0)
(0.00108928 -1.36198e-10 0)
(0.00108929 6.05378e-09 0)
(0.0010893 1.08853e-08 0)
(0.00108931 1.45418e-08 0)
(0.00108932 1.71884e-08 0)
(0.00108933 1.89731e-08 0)
(0.00108934 2.00314e-08 0)
(0.00108935 2.04891e-08 0)
(0.00108935 2.04603e-08 0)
(0.00108936 2.00477e-08 0)
(0.00108936 1.93419e-08 0)
(0.00108937 1.84221e-08 0)
(0.00108937 1.73553e-08 0)
(0.00108937 1.61982e-08 0)
(0.00108938 1.49964e-08 0)
(0.00108938 1.3787e-08 0)
(0.00108938 1.25975e-08 0)
(0.00108938 1.14499e-08 0)
(0.00108938 1.03578e-08 0)
(0.00108939 9.3328e-09 0)
(0.00108939 8.37808e-09 0)
(0.00108939 7.49957e-09 0)
(0.00108939 6.69269e-09 0)
(0.00108939 5.96192e-09 0)