/*--------------------------------*- C++ -*----------------------------------*\
| =========                 |                                                 |
| \\      /  F ield         | OpenFOAM: The Open Source CFD Toolbox           |
|  \\    /   O peration     | Version:  2312                                  |
|   \\  /    A nd           | Website:  www.openfoam.com                      |
|    \\/     M anipulation  |                                                 |
\*---------------------------------------------------------------------------*/
FoamFile
{
    version     2.0;
    format      ascii;
    arch        "LSB;label=32;scalar=64";
    class       volScalarField;
    location    "122000";
    object      p;
}
// * * * * * * * * * * * * * * * * * * * * * * * * * * * * * * * * * * * * * //

dimensions      [0 2 -2 0 0 0 0];

internalField   nonuniform List<scalar> 
10800
(
5.34995e-07
5.20873e-07
5.07107e-07
4.96532e-07
4.89112e-07
4.83724e-07
4.79277e-07
4.75203e-07
4.71332e-07
4.67674e-07
4.64264e-07
4.61107e-07
4.58169e-07
4.55401e-07
4.52755e-07
4.50199e-07
4.47712e-07
4.45279e-07
4.42891e-07
4.40538e-07
4.38212e-07
4.35906e-07
4.33613e-07
4.31327e-07
4.29045e-07
4.26761e-07
4.24474e-07
4.22181e-07
4.19879e-07
4.17568e-07
4.15246e-07
4.12912e-07
4.10566e-07
4.08207e-07
4.05835e-07
4.0345e-07
4.01053e-07
3.98644e-07
3.96223e-07
3.93791e-07
3.91349e-07
3.88896e-07
3.86432e-07
3.83959e-07
3.81476e-07
3.78981e-07
3.76477e-07
3.73957e-07
3.71428e-07
3.68873e-07
3.66314e-07
3.637e-07
3.61111e-07
3.58377e-07
3.55798e-07
3.52738e-07
3.50454e-07
3.46124e-07
3.45896e-07
3.3538e-07
4.86947e-07
4.85221e-07
4.82577e-07
4.79453e-07
4.76239e-07
4.73148e-07
4.70229e-07
4.67446e-07
4.6475e-07
4.62109e-07
4.59518e-07
4.56982e-07
4.54507e-07
4.52095e-07
4.49738e-07
4.47427e-07
4.45153e-07
4.42908e-07
4.40686e-07
4.38482e-07
4.36293e-07
4.34114e-07
4.31942e-07
4.29772e-07
4.27603e-07
4.25432e-07
4.23256e-07
4.21073e-07
4.18883e-07
4.16683e-07
4.14474e-07
4.12253e-07
4.10021e-07
4.07777e-07
4.05522e-07
4.03253e-07
4.00974e-07
3.98681e-07
3.9638e-07
3.94063e-07
3.9174e-07
3.89399e-07
3.87058e-07
3.84692e-07
3.82334e-07
3.79942e-07
3.7757e-07
3.75148e-07
3.72772e-07
3.70316e-07
3.67957e-07
3.65469e-07
3.63179e-07
3.60678e-07
3.58593e-07
3.56148e-07
3.54603e-07
3.52293e-07
3.51895e-07
3.49303e-07
4.78195e-07
4.77445e-07
4.76033e-07
4.74083e-07
4.71801e-07
4.69384e-07
4.66958e-07
4.64572e-07
4.62231e-07
4.59922e-07
4.57634e-07
4.55369e-07
4.53132e-07
4.50926e-07
4.48755e-07
4.46615e-07
4.44504e-07
4.42416e-07
4.40347e-07
4.38292e-07
4.36249e-07
4.34215e-07
4.32187e-07
4.30162e-07
4.28139e-07
4.26116e-07
4.2409e-07
4.2206e-07
4.20025e-07
4.17983e-07
4.15934e-07
4.13877e-07
4.11813e-07
4.09738e-07
4.07655e-07
4.05562e-07
4.03461e-07
4.01347e-07
3.99228e-07
3.97095e-07
3.94957e-07
3.92804e-07
3.9065e-07
3.88476e-07
3.86307e-07
3.84112e-07
3.81931e-07
3.79717e-07
3.7753e-07
3.75298e-07
3.73119e-07
3.70875e-07
3.68724e-07
3.66479e-07
3.64393e-07
3.62161e-07
3.60192e-07
3.57979e-07
3.56166e-07
3.53876e-07
4.66447e-07
4.66015e-07
4.6523e-07
4.64141e-07
4.62819e-07
4.61333e-07
4.59742e-07
4.58085e-07
4.56382e-07
4.54645e-07
4.5288e-07
4.51092e-07
4.49288e-07
4.47474e-07
4.45655e-07
4.43833e-07
4.42011e-07
4.40189e-07
4.38366e-07
4.36541e-07
4.34715e-07
4.32887e-07
4.31056e-07
4.29222e-07
4.27384e-07
4.25541e-07
4.23693e-07
4.2184e-07
4.19981e-07
4.18115e-07
4.16243e-07
4.14364e-07
4.12479e-07
4.10586e-07
4.08687e-07
4.0678e-07
4.04867e-07
4.02946e-07
4.0102e-07
3.99085e-07
3.97145e-07
3.95195e-07
3.93241e-07
3.91275e-07
3.89305e-07
3.8732e-07
3.85331e-07
3.83323e-07
3.81309e-07
3.7927e-07
3.77226e-07
3.75147e-07
3.73066e-07
3.70939e-07
3.68816e-07
3.66634e-07
3.64464e-07
3.62216e-07
3.59995e-07
3.57694e-07
4.59727e-07
4.59514e-07
4.59084e-07
4.5844e-07
4.57598e-07
4.56587e-07
4.5544e-07
4.54187e-07
4.52852e-07
4.51453e-07
4.50003e-07
4.48509e-07
4.4698e-07
4.45421e-07
4.4384e-07
4.42239e-07
4.40624e-07
4.38998e-07
4.37361e-07
4.35715e-07
4.34061e-07
4.32401e-07
4.30734e-07
4.29062e-07
4.27384e-07
4.25701e-07
4.24013e-07
4.2232e-07
4.20623e-07
4.18922e-07
4.17216e-07
4.15506e-07
4.13793e-07
4.12077e-07
4.10357e-07
4.08635e-07
4.0691e-07
4.05182e-07
4.03452e-07
4.01719e-07
3.99984e-07
3.98246e-07
3.96505e-07
3.94761e-07
3.93013e-07
3.9126e-07
3.89502e-07
3.87736e-07
3.85962e-07
3.84175e-07
3.82371e-07
3.80543e-07
3.78681e-07
3.76775e-07
3.74805e-07
3.72762e-07
3.70632e-07
3.68425e-07
3.66146e-07
3.63888e-07
4.54185e-07
4.54023e-07
4.53699e-07
4.53216e-07
4.52586e-07
4.51822e-07
4.50944e-07
4.4997e-07
4.48916e-07
4.47793e-07
4.46612e-07
4.45381e-07
4.44106e-07
4.42793e-07
4.41448e-07
4.40074e-07
4.38677e-07
4.37258e-07
4.35822e-07
4.34371e-07
4.32906e-07
4.31429e-07
4.29941e-07
4.28445e-07
4.2694e-07
4.25428e-07
4.2391e-07
4.22387e-07
4.20859e-07
4.19327e-07
4.17792e-07
4.16255e-07
4.14716e-07
4.13176e-07
4.11636e-07
4.10095e-07
4.08555e-07
4.07016e-07
4.05478e-07
4.03941e-07
4.02405e-07
4.00871e-07
3.99336e-07
3.97802e-07
3.96266e-07
3.94727e-07
3.93181e-07
3.91628e-07
3.90062e-07
3.88485e-07
3.86887e-07
3.85275e-07
3.83637e-07
3.81981e-07
3.80282e-07
3.78544e-07
3.76732e-07
3.74869e-07
3.72948e-07
3.71096e-07
4.49812e-07
4.49693e-07
4.49457e-07
4.49102e-07
4.48634e-07
4.48058e-07
4.47385e-07
4.46624e-07
4.45786e-07
4.44879e-07
4.43911e-07
4.4289e-07
4.41821e-07
4.40709e-07
4.39559e-07
4.38375e-07
4.37162e-07
4.35923e-07
4.34661e-07
4.33379e-07
4.3208e-07
4.30765e-07
4.29437e-07
4.28098e-07
4.26749e-07
4.25393e-07
4.2403e-07
4.22661e-07
4.21289e-07
4.19915e-07
4.18539e-07
4.17162e-07
4.15787e-07
4.14414e-07
4.13043e-07
4.11676e-07
4.10314e-07
4.08957e-07
4.07607e-07
4.06263e-07
4.04926e-07
4.03597e-07
4.02275e-07
4.00962e-07
3.99655e-07
3.98356e-07
3.97063e-07
3.95777e-07
3.94491e-07
3.93205e-07
3.91909e-07
3.906e-07
3.89265e-07
3.87908e-07
3.86518e-07
3.85107e-07
3.83654e-07
3.82185e-07
3.80695e-07
3.79295e-07
4.4633e-07
4.46238e-07
4.46054e-07
4.45776e-07
4.45407e-07
4.44949e-07
4.44409e-07
4.43793e-07
4.43106e-07
4.42355e-07
4.41545e-07
4.40681e-07
4.3977e-07
4.38815e-07
4.37821e-07
4.36793e-07
4.35733e-07
4.34646e-07
4.33534e-07
4.32401e-07
4.31248e-07
4.3008e-07
4.28897e-07
4.27702e-07
4.26497e-07
4.25285e-07
4.24066e-07
4.22843e-07
4.21618e-07
4.20391e-07
4.19165e-07
4.17942e-07
4.16722e-07
4.15507e-07
4.14298e-07
4.13098e-07
4.11907e-07
4.10726e-07
4.09557e-07
4.08401e-07
4.07258e-07
4.0613e-07
4.05016e-07
4.03918e-07
4.02835e-07
4.01768e-07
4.00715e-07
3.99677e-07
3.98652e-07
3.97644e-07
3.96647e-07
3.95661e-07
3.94675e-07
3.93689e-07
3.92693e-07
3.91697e-07
3.90689e-07
3.89696e-07
3.88725e-07
3.87879e-07
4.43533e-07
4.43458e-07
4.43307e-07
4.4308e-07
4.42777e-07
4.424e-07
4.41952e-07
4.41439e-07
4.40862e-07
4.40228e-07
4.3954e-07
4.38802e-07
4.38018e-07
4.37193e-07
4.36329e-07
4.35431e-07
4.34503e-07
4.33546e-07
4.32565e-07
4.31561e-07
4.30539e-07
4.295e-07
4.28446e-07
4.27381e-07
4.26307e-07
4.25225e-07
4.24137e-07
4.23047e-07
4.21956e-07
4.20865e-07
4.19778e-07
4.18695e-07
4.17619e-07
4.16552e-07
4.15495e-07
4.14451e-07
4.13421e-07
4.12407e-07
4.1141e-07
4.10433e-07
4.09477e-07
4.08544e-07
4.07635e-07
4.06751e-07
4.05895e-07
4.05067e-07
4.04268e-07
4.035e-07
4.0276e-07
4.02049e-07
4.01363e-07
4.00707e-07
4.00078e-07
3.99481e-07
3.98906e-07
3.98363e-07
3.97845e-07
3.97373e-07
3.96959e-07
3.9669e-07
4.41294e-07
4.41231e-07
4.41104e-07
4.40912e-07
4.40656e-07
4.40336e-07
4.39956e-07
4.39517e-07
4.39024e-07
4.38478e-07
4.37883e-07
4.37243e-07
4.3656e-07
4.35838e-07
4.3508e-07
4.34289e-07
4.33468e-07
4.32619e-07
4.31747e-07
4.30853e-07
4.29941e-07
4.29012e-07
4.2807e-07
4.27116e-07
4.26154e-07
4.25186e-07
4.24214e-07
4.2324e-07
4.22267e-07
4.21297e-07
4.20332e-07
4.19376e-07
4.18429e-07
4.17494e-07
4.16574e-07
4.15671e-07
4.14787e-07
4.13925e-07
4.13087e-07
4.12275e-07
4.11492e-07
4.10741e-07
4.10022e-07
4.0934e-07
4.08696e-07
4.08093e-07
4.07533e-07
4.07018e-07
4.0655e-07
4.0613e-07
4.05758e-07
4.05441e-07
4.05177e-07
4.04974e-07
4.04827e-07
4.04745e-07
4.04727e-07
4.04792e-07
4.04954e-07
4.05286e-07
4.39527e-07
4.39472e-07
4.39362e-07
4.39196e-07
4.38973e-07
4.38695e-07
4.38364e-07
4.37981e-07
4.37548e-07
4.37069e-07
4.36545e-07
4.3598e-07
4.35375e-07
4.34734e-07
4.34058e-07
4.33352e-07
4.32617e-07
4.31856e-07
4.31073e-07
4.30268e-07
4.29447e-07
4.28609e-07
4.2776e-07
4.269e-07
4.26033e-07
4.25161e-07
4.24286e-07
4.23412e-07
4.2254e-07
4.21674e-07
4.20815e-07
4.19967e-07
4.19132e-07
4.18314e-07
4.17513e-07
4.16735e-07
4.1598e-07
4.15253e-07
4.14556e-07
4.13892e-07
4.13265e-07
4.12677e-07
4.12132e-07
4.11634e-07
4.11186e-07
4.10791e-07
4.10453e-07
4.10175e-07
4.09959e-07
4.09812e-07
4.09738e-07
4.09742e-07
4.09828e-07
4.10001e-07
4.10264e-07
4.10626e-07
4.11091e-07
4.11678e-07
4.12401e-07
4.13318e-07
4.38169e-07
4.3812e-07
4.38022e-07
4.37873e-07
4.37675e-07
4.37427e-07
4.37131e-07
4.36788e-07
4.36401e-07
4.35971e-07
4.355e-07
4.3499e-07
4.34444e-07
4.33863e-07
4.33251e-07
4.3261e-07
4.31942e-07
4.31249e-07
4.30535e-07
4.29801e-07
4.29051e-07
4.28287e-07
4.27511e-07
4.26727e-07
4.25936e-07
4.25142e-07
4.24346e-07
4.23553e-07
4.22764e-07
4.21983e-07
4.21211e-07
4.20453e-07
4.19711e-07
4.18988e-07
4.18287e-07
4.17612e-07
4.16966e-07
4.16352e-07
4.15773e-07
4.15234e-07
4.14739e-07
4.1429e-07
4.13893e-07
4.13552e-07
4.13271e-07
4.13055e-07
4.12908e-07
4.12835e-07
4.12843e-07
4.12939e-07
4.13127e-07
4.13416e-07
4.1381e-07
4.14319e-07
4.1495e-07
4.15712e-07
4.16615e-07
4.17675e-07
4.18911e-07
4.20364e-07
4.37174e-07
4.3713e-07
4.3704e-07
4.36904e-07
4.36722e-07
4.36495e-07
4.36223e-07
4.35909e-07
4.35553e-07
4.35157e-07
4.34723e-07
4.34253e-07
4.33749e-07
4.33212e-07
4.32646e-07
4.32052e-07
4.31432e-07
4.3079e-07
4.30126e-07
4.29445e-07
4.28748e-07
4.28038e-07
4.27318e-07
4.26589e-07
4.25856e-07
4.2512e-07
4.24385e-07
4.23652e-07
4.22926e-07
4.22209e-07
4.21504e-07
4.20815e-07
4.20144e-07
4.19494e-07
4.1887e-07
4.18275e-07
4.17712e-07
4.17185e-07
4.16699e-07
4.16257e-07
4.15864e-07
4.15525e-07
4.15244e-07
4.15026e-07
4.14877e-07
4.14803e-07
4.14809e-07
4.14902e-07
4.1509e-07
4.1538e-07
4.1578e-07
4.16298e-07
4.16944e-07
4.17727e-07
4.18659e-07
4.1975e-07
4.21014e-07
4.22467e-07
4.24128e-07
4.26026e-07
4.36513e-07
4.36471e-07
4.36386e-07
4.36258e-07
4.36087e-07
4.35872e-07
4.35616e-07
4.35319e-07
4.34983e-07
4.34609e-07
4.34199e-07
4.33754e-07
4.33277e-07
4.32769e-07
4.32232e-07
4.31668e-07
4.3108e-07
4.3047e-07
4.2984e-07
4.29192e-07
4.2853e-07
4.27856e-07
4.27172e-07
4.2648e-07
4.25785e-07
4.25088e-07
4.24392e-07
4.237e-07
4.23016e-07
4.22341e-07
4.21681e-07
4.21037e-07
4.20413e-07
4.19813e-07
4.1924e-07
4.18698e-07
4.18191e-07
4.17724e-07
4.173e-07
4.16924e-07
4.16601e-07
4.16336e-07
4.16134e-07
4.16001e-07
4.15943e-07
4.15966e-07
4.16077e-07
4.16284e-07
4.16596e-07
4.17021e-07
4.17568e-07
4.18247e-07
4.19069e-07
4.20044e-07
4.21188e-07
4.22511e-07
4.24032e-07
4.25764e-07
4.27728e-07
4.29945e-07
4.36165e-07
4.36124e-07
4.36041e-07
4.35917e-07
4.35751e-07
4.35543e-07
4.35294e-07
4.35006e-07
4.34679e-07
4.34315e-07
4.33916e-07
4.33483e-07
4.33019e-07
4.32524e-07
4.32001e-07
4.31452e-07
4.30879e-07
4.30284e-07
4.2967e-07
4.29039e-07
4.28393e-07
4.27736e-07
4.27069e-07
4.26395e-07
4.25717e-07
4.25039e-07
4.24362e-07
4.23689e-07
4.23024e-07
4.22371e-07
4.21731e-07
4.21109e-07
4.20507e-07
4.19931e-07
4.19382e-07
4.18866e-07
4.18386e-07
4.17947e-07
4.17553e-07
4.17208e-07
4.16919e-07
4.16689e-07
4.16526e-07
4.16434e-07
4.16419e-07
4.16489e-07
4.16652e-07
4.16916e-07
4.17289e-07
4.1778e-07
4.184e-07
4.19159e-07
4.20068e-07
4.2114e-07
4.2239e-07
4.2383e-07
4.2548e-07
4.27353e-07
4.29473e-07
4.31852e-07
4.36121e-07
4.3608e-07
4.35998e-07
4.35873e-07
4.35707e-07
4.35498e-07
4.35249e-07
4.3496e-07
4.34633e-07
4.34268e-07
4.33869e-07
4.33435e-07
4.3297e-07
4.32474e-07
4.3195e-07
4.314e-07
4.30825e-07
4.30229e-07
4.29614e-07
4.28981e-07
4.28334e-07
4.27675e-07
4.27006e-07
4.26331e-07
4.25651e-07
4.2497e-07
4.24291e-07
4.23616e-07
4.22949e-07
4.22293e-07
4.2165e-07
4.21025e-07
4.20421e-07
4.19841e-07
4.19289e-07
4.1877e-07
4.18286e-07
4.17843e-07
4.17445e-07
4.17097e-07
4.16803e-07
4.1657e-07
4.16402e-07
4.16306e-07
4.16288e-07
4.16351e-07
4.16508e-07
4.16765e-07
4.17132e-07
4.17616e-07
4.18229e-07
4.18981e-07
4.19882e-07
4.20947e-07
4.22188e-07
4.23619e-07
4.2526e-07
4.27123e-07
4.29232e-07
4.316e-07
4.36382e-07
4.3634e-07
4.36255e-07
4.36126e-07
4.35954e-07
4.35739e-07
4.35482e-07
4.35183e-07
4.34845e-07
4.3447e-07
4.34057e-07
4.3361e-07
4.3313e-07
4.32619e-07
4.32079e-07
4.31512e-07
4.3092e-07
4.30306e-07
4.29672e-07
4.29021e-07
4.28354e-07
4.27674e-07
4.26985e-07
4.26288e-07
4.25587e-07
4.24883e-07
4.24181e-07
4.23482e-07
4.22791e-07
4.22109e-07
4.2144e-07
4.20788e-07
4.20155e-07
4.19546e-07
4.18963e-07
4.18411e-07
4.17894e-07
4.17415e-07
4.16979e-07
4.16591e-07
4.16255e-07
4.15976e-07
4.1576e-07
4.15611e-07
4.15536e-07
4.15545e-07
4.15641e-07
4.15831e-07
4.16125e-07
4.16531e-07
4.17058e-07
4.17715e-07
4.18515e-07
4.19467e-07
4.20585e-07
4.21883e-07
4.23375e-07
4.25078e-07
4.27013e-07
4.292e-07
4.36959e-07
4.36914e-07
4.36823e-07
4.36686e-07
4.36503e-07
4.36274e-07
4.36001e-07
4.35684e-07
4.35325e-07
4.34926e-07
4.34488e-07
4.34015e-07
4.33506e-07
4.32965e-07
4.32393e-07
4.31794e-07
4.31168e-07
4.30519e-07
4.29849e-07
4.29161e-07
4.28456e-07
4.27738e-07
4.27009e-07
4.26271e-07
4.25528e-07
4.24782e-07
4.24036e-07
4.23292e-07
4.22554e-07
4.21825e-07
4.21107e-07
4.20403e-07
4.19718e-07
4.19053e-07
4.18413e-07
4.17801e-07
4.1722e-07
4.16675e-07
4.1617e-07
4.15708e-07
4.15294e-07
4.14932e-07
4.14628e-07
4.14386e-07
4.14212e-07
4.14112e-07
4.14091e-07
4.14155e-07
4.14313e-07
4.14571e-07
4.14938e-07
4.15421e-07
4.1603e-07
4.16775e-07
4.17666e-07
4.18714e-07
4.19933e-07
4.21339e-07
4.22952e-07
4.24801e-07
4.3787e-07
4.37821e-07
4.37722e-07
4.37572e-07
4.37372e-07
4.37121e-07
4.36823e-07
4.36477e-07
4.36085e-07
4.35651e-07
4.35175e-07
4.3466e-07
4.34108e-07
4.33521e-07
4.32902e-07
4.32253e-07
4.31576e-07
4.30875e-07
4.30152e-07
4.29408e-07
4.28647e-07
4.27872e-07
4.27084e-07
4.26287e-07
4.25483e-07
4.24674e-07
4.23864e-07
4.23055e-07
4.2225e-07
4.21451e-07
4.20661e-07
4.19884e-07
4.19122e-07
4.18378e-07
4.17655e-07
4.16957e-07
4.16286e-07
4.15647e-07
4.15042e-07
4.14475e-07
4.13951e-07
4.13472e-07
4.13043e-07
4.12669e-07
4.12354e-07
4.12101e-07
4.11916e-07
4.11805e-07
4.11771e-07
4.11823e-07
4.11966e-07
4.12206e-07
4.1255e-07
4.13006e-07
4.13581e-07
4.14285e-07
4.15127e-07
4.16123e-07
4.17293e-07
4.18679e-07
4.39149e-07
4.39094e-07
4.38982e-07
4.38814e-07
4.38589e-07
4.38308e-07
4.37973e-07
4.37586e-07
4.37149e-07
4.36664e-07
4.36134e-07
4.35562e-07
4.3495e-07
4.343e-07
4.33616e-07
4.329e-07
4.32155e-07
4.31383e-07
4.30587e-07
4.29771e-07
4.28935e-07
4.28084e-07
4.27219e-07
4.26343e-07
4.25459e-07
4.24569e-07
4.23676e-07
4.22782e-07
4.21889e-07
4.21001e-07
4.20119e-07
4.19247e-07
4.18387e-07
4.17542e-07
4.16714e-07
4.15906e-07
4.15121e-07
4.14361e-07
4.13631e-07
4.12932e-07
4.12268e-07
4.11643e-07
4.11058e-07
4.10518e-07
4.10027e-07
4.09587e-07
4.09201e-07
4.08873e-07
4.08605e-07
4.08404e-07
4.08273e-07
4.08217e-07
4.0824e-07
4.08346e-07
4.0854e-07
4.0883e-07
4.09219e-07
4.09726e-07
4.10368e-07
4.11201e-07
4.40841e-07
4.40777e-07
4.40648e-07
4.40454e-07
4.40195e-07
4.39872e-07
4.39488e-07
4.39044e-07
4.38545e-07
4.37992e-07
4.3739e-07
4.36742e-07
4.3605e-07
4.35318e-07
4.3455e-07
4.33747e-07
4.32914e-07
4.32052e-07
4.31166e-07
4.30257e-07
4.29328e-07
4.28382e-07
4.27422e-07
4.26449e-07
4.25467e-07
4.24477e-07
4.23483e-07
4.22485e-07
4.21487e-07
4.20491e-07
4.19499e-07
4.18513e-07
4.17536e-07
4.1657e-07
4.15616e-07
4.14679e-07
4.13758e-07
4.12858e-07
4.1198e-07
4.11127e-07
4.103e-07
4.09503e-07
4.08737e-07
4.08005e-07
4.07309e-07
4.06652e-07
4.06035e-07
4.05462e-07
4.04931e-07
4.04446e-07
4.04007e-07
4.0362e-07
4.03282e-07
4.03001e-07
4.02772e-07
4.02605e-07
4.02498e-07
4.0247e-07
4.02536e-07
4.02771e-07
4.43009e-07
4.42933e-07
4.42781e-07
4.42551e-07
4.42245e-07
4.41864e-07
4.41412e-07
4.40892e-07
4.40309e-07
4.39667e-07
4.38971e-07
4.38223e-07
4.37429e-07
4.36593e-07
4.35717e-07
4.34806e-07
4.33863e-07
4.32891e-07
4.31894e-07
4.30873e-07
4.29832e-07
4.28773e-07
4.27699e-07
4.26612e-07
4.25514e-07
4.24407e-07
4.23294e-07
4.22176e-07
4.21056e-07
4.19936e-07
4.18816e-07
4.17701e-07
4.1659e-07
4.15486e-07
4.14391e-07
4.13307e-07
4.12234e-07
4.11176e-07
4.10134e-07
4.09109e-07
4.08103e-07
4.07117e-07
4.06154e-07
4.05214e-07
4.04298e-07
4.03408e-07
4.02544e-07
4.01708e-07
4.00898e-07
4.00113e-07
3.9935e-07
3.98614e-07
3.97901e-07
3.97214e-07
3.96548e-07
3.95908e-07
3.95289e-07
3.94713e-07
3.94191e-07
3.93812e-07
4.45742e-07
4.45649e-07
4.45463e-07
4.45182e-07
4.44809e-07
4.44348e-07
4.43802e-07
4.43179e-07
4.42485e-07
4.41725e-07
4.40906e-07
4.40032e-07
4.39109e-07
4.38142e-07
4.37134e-07
4.36091e-07
4.35016e-07
4.33911e-07
4.32781e-07
4.31628e-07
4.30455e-07
4.29264e-07
4.28058e-07
4.26839e-07
4.25608e-07
4.24368e-07
4.2312e-07
4.21867e-07
4.20609e-07
4.19348e-07
4.18087e-07
4.16826e-07
4.15567e-07
4.14311e-07
4.1306e-07
4.11815e-07
4.10577e-07
4.09347e-07
4.08127e-07
4.06917e-07
4.05718e-07
4.04531e-07
4.03357e-07
4.02196e-07
4.01046e-07
3.9991e-07
3.98785e-07
3.97672e-07
3.9657e-07
3.95479e-07
3.94397e-07
3.93322e-07
3.92243e-07
3.91161e-07
3.90064e-07
3.88962e-07
3.87843e-07
3.86735e-07
3.85646e-07
3.8468e-07
4.49165e-07
4.49046e-07
4.48807e-07
4.4845e-07
4.47978e-07
4.47397e-07
4.46718e-07
4.45951e-07
4.45104e-07
4.44188e-07
4.4321e-07
4.42177e-07
4.41096e-07
4.3997e-07
4.38805e-07
4.37605e-07
4.36375e-07
4.35117e-07
4.33835e-07
4.32531e-07
4.31209e-07
4.29871e-07
4.28517e-07
4.27151e-07
4.25774e-07
4.24387e-07
4.22992e-07
4.2159e-07
4.20183e-07
4.18771e-07
4.17356e-07
4.15939e-07
4.14521e-07
4.13102e-07
4.11685e-07
4.10269e-07
4.08855e-07
4.07445e-07
4.06038e-07
4.04636e-07
4.03238e-07
4.01845e-07
4.00457e-07
3.99074e-07
3.97694e-07
3.9632e-07
3.94948e-07
3.9358e-07
3.92209e-07
3.90835e-07
3.89446e-07
3.88042e-07
3.86607e-07
3.85146e-07
3.83648e-07
3.82123e-07
3.80552e-07
3.78959e-07
3.77342e-07
3.75816e-07
4.53487e-07
4.53324e-07
4.52998e-07
4.52513e-07
4.51877e-07
4.51109e-07
4.50224e-07
4.49243e-07
4.4818e-07
4.47047e-07
4.45855e-07
4.44612e-07
4.43324e-07
4.41996e-07
4.40635e-07
4.39244e-07
4.37827e-07
4.36389e-07
4.34932e-07
4.33458e-07
4.31968e-07
4.30465e-07
4.2895e-07
4.27425e-07
4.25889e-07
4.24345e-07
4.22792e-07
4.21233e-07
4.19667e-07
4.18096e-07
4.16519e-07
4.14938e-07
4.13353e-07
4.11765e-07
4.10173e-07
4.0858e-07
4.06985e-07
4.05388e-07
4.03789e-07
4.02189e-07
4.00588e-07
3.98985e-07
3.97379e-07
3.9577e-07
3.94157e-07
3.92537e-07
3.90908e-07
3.89268e-07
3.87611e-07
3.85939e-07
3.84243e-07
3.82527e-07
3.80782e-07
3.79015e-07
3.772e-07
3.75342e-07
3.73406e-07
3.71414e-07
3.69362e-07
3.67377e-07
4.58987e-07
4.58773e-07
4.58341e-07
4.57693e-07
4.56847e-07
4.55831e-07
4.54677e-07
4.53415e-07
4.52072e-07
4.50662e-07
4.492e-07
4.47693e-07
4.4615e-07
4.44576e-07
4.42977e-07
4.41359e-07
4.39724e-07
4.38076e-07
4.36417e-07
4.34747e-07
4.33068e-07
4.3138e-07
4.29684e-07
4.27981e-07
4.26271e-07
4.24553e-07
4.22829e-07
4.21098e-07
4.19361e-07
4.17617e-07
4.15867e-07
4.14111e-07
4.12349e-07
4.10581e-07
4.08808e-07
4.07029e-07
4.05245e-07
4.03456e-07
4.01661e-07
3.99862e-07
3.98057e-07
3.96246e-07
3.9443e-07
3.92607e-07
3.90776e-07
3.88938e-07
3.87091e-07
3.85232e-07
3.83362e-07
3.81475e-07
3.79567e-07
3.77633e-07
3.7566e-07
3.73639e-07
3.7155e-07
3.69383e-07
3.67125e-07
3.64786e-07
3.6237e-07
3.59973e-07
4.6567e-07
4.65237e-07
4.64449e-07
4.63357e-07
4.6203e-07
4.60539e-07
4.58941e-07
4.57275e-07
4.55563e-07
4.53816e-07
4.52038e-07
4.50237e-07
4.48418e-07
4.46588e-07
4.44751e-07
4.42911e-07
4.41069e-07
4.39224e-07
4.37378e-07
4.35528e-07
4.33676e-07
4.31819e-07
4.29958e-07
4.28092e-07
4.2622e-07
4.24342e-07
4.22456e-07
4.20563e-07
4.18662e-07
4.16752e-07
4.14834e-07
4.12906e-07
4.1097e-07
4.09023e-07
4.07068e-07
4.05102e-07
4.03127e-07
4.01142e-07
3.99148e-07
3.97143e-07
3.9513e-07
3.93104e-07
3.91071e-07
3.89022e-07
3.86966e-07
3.84892e-07
3.82811e-07
3.80706e-07
3.78593e-07
3.7645e-07
3.74299e-07
3.72108e-07
3.69912e-07
3.67665e-07
3.65418e-07
3.63107e-07
3.60804e-07
3.58419e-07
3.56058e-07
3.53617e-07
4.77394e-07
4.76643e-07
4.75228e-07
4.73274e-07
4.70987e-07
4.68564e-07
4.6613e-07
4.63736e-07
4.61385e-07
4.59065e-07
4.56765e-07
4.54486e-07
4.52233e-07
4.50011e-07
4.47822e-07
4.45663e-07
4.43531e-07
4.41421e-07
4.39328e-07
4.37247e-07
4.35177e-07
4.33114e-07
4.31055e-07
4.28997e-07
4.2694e-07
4.2488e-07
4.22815e-07
4.20744e-07
4.18666e-07
4.16578e-07
4.14482e-07
4.12374e-07
4.10257e-07
4.08127e-07
4.05986e-07
4.03831e-07
4.01666e-07
3.99486e-07
3.97296e-07
3.9509e-07
3.92877e-07
3.90644e-07
3.88408e-07
3.86148e-07
3.8389e-07
3.81603e-07
3.79325e-07
3.77011e-07
3.74721e-07
3.72381e-07
3.70091e-07
3.67732e-07
3.65463e-07
3.63095e-07
3.60883e-07
3.5852e-07
3.56417e-07
3.54065e-07
3.52112e-07
3.49678e-07
4.86125e-07
4.84397e-07
4.81751e-07
4.78623e-07
4.75405e-07
4.72307e-07
4.69381e-07
4.66589e-07
4.63883e-07
4.61231e-07
4.58627e-07
4.56077e-07
4.53588e-07
4.51159e-07
4.48784e-07
4.46453e-07
4.44158e-07
4.41891e-07
4.39645e-07
4.37416e-07
4.352e-07
4.32992e-07
4.30788e-07
4.28586e-07
4.26382e-07
4.24173e-07
4.21958e-07
4.19734e-07
4.175e-07
4.15253e-07
4.12995e-07
4.10722e-07
4.08437e-07
4.06135e-07
4.0382e-07
4.01488e-07
3.99144e-07
3.96782e-07
3.94408e-07
3.92016e-07
3.89615e-07
3.87193e-07
3.84766e-07
3.82312e-07
3.79862e-07
3.77375e-07
3.74905e-07
3.7238e-07
3.69898e-07
3.67333e-07
3.6486e-07
3.62255e-07
3.59844e-07
3.57218e-07
3.55004e-07
3.52425e-07
3.50742e-07
3.4829e-07
3.4775e-07
3.45009e-07
5.34164e-07
5.20041e-07
5.06272e-07
4.95693e-07
4.88268e-07
4.82874e-07
4.78419e-07
4.74335e-07
4.70455e-07
4.66785e-07
4.63363e-07
4.60192e-07
4.57239e-07
4.54454e-07
4.5179e-07
4.49215e-07
4.46707e-07
4.44252e-07
4.4184e-07
4.39462e-07
4.37109e-07
4.34774e-07
4.3245e-07
4.30131e-07
4.27813e-07
4.25493e-07
4.23166e-07
4.20831e-07
4.18486e-07
4.16128e-07
4.13756e-07
4.11371e-07
4.08969e-07
4.06553e-07
4.0412e-07
4.01672e-07
3.99208e-07
3.96729e-07
3.94236e-07
3.91727e-07
3.89205e-07
3.86669e-07
3.8412e-07
3.81557e-07
3.78981e-07
3.7639e-07
3.73785e-07
3.71162e-07
3.68525e-07
3.65859e-07
3.63185e-07
3.60452e-07
3.57741e-07
3.5488e-07
3.5217e-07
3.48974e-07
3.46551e-07
3.42077e-07
3.41703e-07
3.31025e-07
3.75362e-07
3.25168e-07
3.04509e-07
2.87293e-07
2.70048e-07
2.5274e-07
2.3336e-07
2.1272e-07
1.8853e-07
1.62565e-07
1.32237e-07
1.00557e-07
6.43931e-08
2.81661e-08
-1.20381e-08
-5.0288e-08
-9.19208e-08
-1.29355e-07
-1.6991e-07
-2.04073e-07
-2.41623e-07
-2.70981e-07
-3.04545e-07
-3.28005e-07
-3.5799e-07
-3.73466e-07
-4.04319e-07
-4.07273e-07
-4.45235e-07
-5.50921e-07
3.61591e-07
3.06915e-07
2.93232e-07
2.786e-07
2.62035e-07
2.45129e-07
2.26048e-07
2.05549e-07
1.81542e-07
1.55921e-07
1.26207e-07
9.53648e-08
6.03531e-08
2.54272e-08
-1.32682e-08
-5.0066e-08
-8.99166e-08
-1.25848e-07
-1.6452e-07
-1.97675e-07
-2.3377e-07
-2.62402e-07
-2.95562e-07
-3.18273e-07
-3.48604e-07
-3.64608e-07
-3.91913e-07
-4.08365e-07
-4.17162e-07
-5.69196e-07
3.49493e-07
3.04522e-07
2.91863e-07
2.7772e-07
2.60661e-07
2.4278e-07
2.23181e-07
2.02339e-07
1.78278e-07
1.52526e-07
1.23042e-07
9.22915e-08
5.78373e-08
2.3263e-08
-1.45299e-08
-5.07261e-08
-8.95468e-08
-1.25102e-07
-1.63128e-07
-1.95881e-07
-2.31461e-07
-2.59911e-07
-2.91806e-07
-3.16153e-07
-3.43493e-07
-3.65639e-07
-3.86563e-07
-4.17472e-07
-4.01527e-07
-5.05985e-07
3.39412e-07
3.00539e-07
2.85817e-07
2.72203e-07
2.55832e-07
2.38551e-07
2.19132e-07
1.98119e-07
1.74103e-07
1.48189e-07
1.19023e-07
8.82863e-08
5.45809e-08
2.02143e-08
-1.63605e-08
-5.23273e-08
-8.95855e-08
-1.25029e-07
-1.6084e-07
-1.94076e-07
-2.26767e-07
-2.57334e-07
-2.86002e-07
-3.1378e-07
-3.36606e-07
-3.64914e-07
-3.75938e-07
-4.1651e-07
-3.95678e-07
-4.6615e-07
3.29689e-07
2.98041e-07
2.8245e-07
2.69971e-07
2.5416e-07
2.36089e-07
2.16153e-07
1.94571e-07
1.7051e-07
1.44182e-07
1.15258e-07
8.42487e-08
5.12322e-08
1.67776e-08
-1.86038e-08
-5.4587e-08
-9.01794e-08
-1.25745e-07
-1.59514e-07
-1.93446e-07
-2.23898e-07
-2.55864e-07
-2.81457e-07
-3.12023e-07
-3.3066e-07
-3.6239e-07
-3.70004e-07
-4.07701e-07
-4.00669e-07
-4.37881e-07
3.21189e-07
2.96402e-07
2.80003e-07
2.6706e-07
2.51513e-07
2.33339e-07
2.13215e-07
1.9114e-07
1.66951e-07
1.40185e-07
1.11375e-07
8.00496e-08
4.75529e-08
1.2973e-08
-2.14023e-08
-5.73857e-08
-9.14958e-08
-1.27124e-07
-1.59089e-07
-1.9334e-07
-2.2178e-07
-2.54323e-07
-2.78067e-07
-3.09279e-07
-3.26937e-07
-3.57616e-07
-3.68379e-07
-3.97661e-07
-4.04932e-07
-4.2445e-07
3.14256e-07
2.94979e-07
2.785e-07
2.64691e-07
2.49253e-07
2.31008e-07
2.10633e-07
1.87983e-07
1.63484e-07
1.36237e-07
1.07352e-07
7.57251e-08
4.35021e-08
8.89608e-09
-2.47955e-08
-6.05363e-08
-9.36188e-08
-1.28844e-07
-1.59658e-07
-1.93384e-07
-2.20878e-07
-2.527e-07
-2.76257e-07
-3.06046e-07
-3.25303e-07
-3.5252e-07
-3.68117e-07
-3.90872e-07
-4.05141e-07
-4.20286e-07
3.0912e-07
2.9366e-07
2.77694e-07
2.62921e-07
2.47239e-07
2.28835e-07
2.08141e-07
1.84929e-07
1.59954e-07
1.32244e-07
1.03087e-07
7.12467e-08
3.90334e-08
4.56949e-09
-2.87877e-08
-6.39907e-08
-9.65267e-08
-1.30862e-07
-1.61173e-07
-1.93674e-07
-2.2108e-07
-2.51274e-07
-2.7562e-07
-3.0311e-07
-3.24516e-07
-3.48565e-07
-3.67538e-07
-3.87138e-07
-4.03746e-07
-4.18173e-07
3.05858e-07
2.92437e-07
2.77133e-07
2.61709e-07
2.45477e-07
2.26743e-07
2.05635e-07
1.81888e-07
1.5631e-07
1.2815e-07
9.85576e-08
6.65687e-08
3.41633e-08
-3.94578e-11
-3.33148e-08
-6.77942e-08
-1.0009e-07
-1.33277e-07
-1.63409e-07
-1.94416e-07
-2.21962e-07
-2.50409e-07
-2.7541e-07
-3.01035e-07
-3.23635e-07
-3.46081e-07
-3.66224e-07
-3.85134e-07
-4.02162e-07
-4.17233e-07
3.04219e-07
2.9138e-07
2.76651e-07
2.6086e-07
2.43918e-07
2.24666e-07
2.03023e-07
1.78743e-07
1.52492e-07
1.23867e-07
9.37411e-08
6.1611e-08
2.89168e-08
-5.00115e-09
-3.8292e-08
-7.20232e-08
-1.04145e-07
-1.36194e-07
-1.66118e-07
-1.95749e-07
-2.23212e-07
-2.5025e-07
-2.75364e-07
-2.99806e-07
-3.22643e-07
-3.44404e-07
-3.64739e-07
-3.83615e-07
-4.00937e-07
-4.1663e-07
3.03717e-07
2.90642e-07
2.76127e-07
2.60083e-07
2.42428e-07
2.2252e-07
2.00223e-07
1.75375e-07
1.48424e-07
1.193e-07
8.86051e-08
5.62898e-08
2.32995e-08
-1.0388e-08
-4.36686e-08
-7.67402e-08
-1.08598e-07
-1.39664e-07
-1.6919e-07
-1.97699e-07
-2.24746e-07
-2.50734e-07
-2.75493e-07
-2.99155e-07
-3.21741e-07
-3.43124e-07
-3.63397e-07
-3.82339e-07
-3.99988e-07
-4.16196e-07
3.03768e-07
2.90253e-07
2.75576e-07
2.59183e-07
2.40829e-07
2.20191e-07
1.97157e-07
1.71681e-07
1.44023e-07
1.14353e-07
8.30895e-08
5.0526e-08
1.72709e-08
-1.62645e-08
-4.94629e-08
-8.19894e-08
-1.13462e-07
-1.43701e-07
-1.72649e-07
-2.00221e-07
-2.26625e-07
-2.51746e-07
-2.75918e-07
-2.98926e-07
-3.21092e-07
-3.42135e-07
-3.62269e-07
-3.8124e-07
-3.99142e-07
-4.15827e-07
3.03974e-07
2.90065e-07
2.74951e-07
2.58034e-07
2.38961e-07
2.1756e-07
1.93744e-07
1.67571e-07
1.39191e-07
1.08928e-07
7.71019e-08
4.42309e-08
1.07434e-08
-2.27065e-08
-5.57611e-08
-8.78262e-08
-1.18824e-07
-1.4833e-07
-1.76592e-07
-2.0331e-07
-2.28961e-07
-2.53259e-07
-2.76752e-07
-2.99096e-07
-3.20789e-07
-3.41417e-07
-3.61394e-07
-3.80263e-07
-3.98399e-07
-4.15356e-07
3.04088e-07
2.89866e-07
2.74168e-07
2.56572e-07
2.36734e-07
2.14537e-07
1.89903e-07
1.62959e-07
1.33824e-07
1.02912e-07
7.05191e-08
3.72897e-08
3.5867e-09
-2.98252e-08
-6.26974e-08
-9.43468e-08
-1.24818e-07
-1.53628e-07
-1.81142e-07
-2.07026e-07
-2.31856e-07
-2.55327e-07
-2.78071e-07
-2.99717e-07
-3.20861e-07
-3.41026e-07
-3.6075e-07
-3.79463e-07
-3.97691e-07
-4.14844e-07
3.04026e-07
2.89465e-07
2.73137e-07
2.5478e-07
2.34117e-07
2.11064e-07
1.85549e-07
1.57748e-07
1.27798e-07
9.61718e-08
6.31852e-08
2.9551e-08
-4.3693e-09
-3.77739e-08
-7.04435e-08
-1.01691e-07
-1.31602e-07
-1.59714e-07
-1.86435e-07
-2.11467e-07
-2.3542e-07
-2.58023e-07
-2.79948e-07
-3.0084e-07
-3.21352e-07
-3.40981e-07
-3.60363e-07
-3.78829e-07
-3.97058e-07
-4.14265e-07
3.03849e-07
2.88828e-07
2.71849e-07
2.52682e-07
2.3111e-07
2.07092e-07
1.80587e-07
1.51816e-07
1.20959e-07
8.85379e-08
5.49102e-08
2.08239e-08
-1.33275e-08
-4.67419e-08
-7.91927e-08
-1.10028e-07
-1.39341e-07
-1.66727e-07
-1.92604e-07
-2.1674e-07
-2.39748e-07
-2.61428e-07
-2.82444e-07
-3.02515e-07
-3.22282e-07
-3.41309e-07
-3.60217e-07
-3.78376e-07
-3.96468e-07
-4.13661e-07
3.03742e-07
2.88043e-07
2.7035e-07
2.50301e-07
2.27692e-07
2.02544e-07
1.74886e-07
1.44996e-07
1.13114e-07
7.97996e-08
4.54671e-08
1.08829e-08
-2.3515e-08
-5.69396e-08
-8.91467e-08
-1.19535e-07
-1.48201e-07
-1.74804e-07
-1.99775e-07
-2.22944e-07
-2.44935e-07
-2.65606e-07
-2.85623e-07
-3.04776e-07
-3.23685e-07
-3.42009e-07
-3.60311e-07
-3.7808e-07
-3.9589e-07
-4.13029e-07
3.03954e-07
2.87276e-07
2.68688e-07
2.47591e-07
2.23749e-07
1.97252e-07
1.68235e-07
1.37049e-07
1.04005e-07
6.96931e-08
3.45889e-08
-5.29407e-10
-3.51771e-08
-6.85909e-08
-1.0051e-07
-1.30392e-07
-1.58341e-07
-1.84083e-07
-2.08072e-07
-2.30185e-07
-2.51077e-07
-2.70634e-07
-2.89563e-07
-3.07671e-07
-3.25618e-07
-3.43092e-07
-3.6067e-07
-3.779e-07
-3.95318e-07
-4.12284e-07
3.04608e-07
2.86641e-07
2.66818e-07
2.44361e-07
2.19009e-07
1.90914e-07
1.6032e-07
1.27653e-07
9.33032e-08
5.78934e-08
2.19602e-08
-1.37102e-08
-4.85903e-08
-8.19491e-08
-1.13515e-07
-1.4281e-07
-1.69952e-07
-1.94739e-07
-2.17649e-07
-2.38607e-07
-2.58304e-07
-2.76636e-07
-2.94372e-07
-3.11296e-07
-3.28163e-07
-3.44616e-07
-3.6133e-07
-3.77833e-07
-3.94694e-07
-4.11323e-07
3.05455e-07
2.85928e-07
2.64408e-07
2.40178e-07
2.13004e-07
1.83064e-07
1.50687e-07
1.16365e-07
8.05738e-08
4.39779e-08
7.1765e-09
-2.90415e-08
-6.41131e-08
-9.73495e-08
-1.28474e-07
-1.57086e-07
-1.83314e-07
-2.07037e-07
-2.28749e-07
-2.48437e-07
-2.66817e-07
-2.83797e-07
-3.00212e-07
-3.15794e-07
-3.31445e-07
-3.46665e-07
-3.6237e-07
-3.77858e-07
-3.93992e-07
-4.09928e-07
3.05753e-07
2.84405e-07
2.60822e-07
2.34456e-07
2.05148e-07
1.73109e-07
1.38735e-07
1.02584e-07
6.52251e-08
2.73685e-08
-1.03208e-08
-4.70581e-08
-8.22523e-08
-1.15271e-07
-1.45839e-07
-1.73648e-07
-1.9883e-07
-2.21364e-07
-2.41728e-07