/*--------------------------------*- C++ -*----------------------------------*\
| =========                 |                                                 |
| \\      /  F ield         | OpenFOAM: The Open Source CFD Toolbox           |
|  \\    /   O peration     | Version:  2312                                  |
|   \\  /    A nd           | Website:  www.openfoam.com                      |
|    \\/     M anipulation  |                                                 |
\*---------------------------------------------------------------------------*/
FoamFile
{
    version     2.0;
    format      ascii;
    arch        "LSB;label=32;scalar=64";
    class       volVectorField;
    location    "122000";
    object      U;
}
// * * * * * * * * * * * * * * * * * * * * * * * * * * * * * * * * * * * * * //

dimensions      [0 1 -1 0 0 0 0];

internalField   nonuniform List<vector> 
10800
(
(0.000992484 4.94223e-06 0)
(0.000990038 1.24587e-05 0)
(0.000986871 1.74806e-05 0)
(0.000980497 2.06648e-05 0)
(0.000971082 2.27483e-05 0)
(0.00095979 2.42423e-05 0)
(0.000947687 2.53816e-05 0)
(0.000935309 2.62411e-05 0)
(0.000922797 2.6845e-05 0)
(0.000910129 2.72184e-05 0)
(0.000897263 2.7399e-05 0)
(0.000884192 2.74296e-05 0)
(0.000870955 2.73483e-05 0)
(0.000857606 2.71831e-05 0)
(0.000844196 2.69523e-05 0)
(0.000830765 2.66674e-05 0)
(0.000817338 2.63365e-05 0)
(0.000803933 2.59661e-05 0)
(0.000790567 2.55617e-05 0)
(0.000777253 2.51282e-05 0)
(0.000764007 2.46695e-05 0)
(0.000750844 2.41885e-05 0)
(0.00073778 2.36874e-05 0)
(0.000724827 2.31681e-05 0)
(0.000711999 2.26315e-05 0)
(0.000699308 2.20791e-05 0)
(0.000686768 2.1511e-05 0)
(0.00067439 2.09288e-05 0)
(0.000662188 2.03318e-05 0)
(0.000650173 1.9722e-05 0)
(0.000638359 1.90978e-05 0)
(0.000626756 1.84619e-05 0)
(0.00061538 1.78117e-05 0)
(0.00060424 1.71514e-05 0)
(0.000593352 1.64763e-05 0)
(0.000582723 1.57933e-05 0)
(0.000572373 1.50946e-05 0)
(0.000562306 1.43913e-05 0)
(0.000552545 1.36705e-05 0)
(0.000543085 1.29502e-05 0)
(0.000533964 1.22086e-05 0)
(0.000525157 1.14757e-05 0)
(0.00051673 1.07141e-05 0)
(0.000508612 9.97435e-06 0)
(0.00050094 9.19186e-06 0)
(0.000493534 8.45234e-06 0)
(0.000486703 7.64501e-06 0)
(0.000479986 6.9125e-06 0)
(0.000474155 6.07144e-06 0)
(0.000467986 5.34432e-06 0)
(0.000463536 4.46101e-06 0)
(0.000457404 3.69189e-06 0)
(0.000455395 2.80497e-06 0)
(0.000447659 1.74471e-06 0)
(0.000451226 1.18103e-06 0)
(0.000436808 -1.23477e-06 0)
(0.000455249 1.47015e-07 0)
(0.000419234 -7.69123e-06 0)
(0.000477611 2.07174e-06 0)
(0.000382833 -2.44389e-05 0)
(0.00100003 5.80348e-06 0)
(0.00100172 1.49962e-05 0)
(0.00100422 2.15287e-05 0)
(0.00100705 2.60933e-05 0)
(0.00100978 2.94527e-05 0)
(0.00101218 3.21351e-05 0)
(0.0010142 3.43882e-05 0)
(0.00101587 3.62983e-05 0)
(0.00101724 3.78982e-05 0)
(0.00101835 3.92183e-05 0)
(0.0010192 4.03002e-05 0)
(0.00101978 4.11895e-05 0)
(0.0010201 4.19268e-05 0)
(0.00102016 4.25423e-05 0)
(0.00101996 4.30558e-05 0)
(0.00101953 4.34802e-05 0)
(0.00101887 4.38239e-05 0)
(0.001018 4.40938e-05 0)
(0.00101693 4.42955e-05 0)
(0.00101566 4.44336e-05 0)
(0.00101422 4.45119e-05 0)
(0.0010126 4.45329e-05 0)
(0.00101083 4.44989e-05 0)
(0.0010089 4.44107e-05 0)
(0.00100683 4.42697e-05 0)
(0.00100462 4.40757e-05 0)
(0.00100231 4.38299e-05 0)
(0.000999851 4.35309e-05 0)
(0.000997322 4.31807e-05 0)
(0.000994657 4.27762e-05 0)
(0.000991958 4.2321e-05 0)
(0.000989115 4.18094e-05 0)
(0.000986293 4.12486e-05 0)
(0.0009833 4.06278e-05 0)
(0.000980406 3.99608e-05 0)
(0.000977285 3.92281e-05 0)
(0.000974385 3.84558e-05 0)
(0.000971146 3.76078e-05 0)
(0.000968322 3.67327e-05 0)
(0.000964955 3.57645e-05 0)
(0.00096232 3.47926e-05 0)
(0.000958779 3.36961e-05 0)
(0.000956497 3.26385e-05 0)
(0.000952671 3.13997e-05 0)
(0.000950996 3.02762e-05 0)
(0.00094666 2.88693e-05 0)
(0.000945997 2.77142e-05 0)
(0.000940727 2.60915e-05 0)
(0.000941742 2.49634e-05 0)
(0.000934766 2.30379e-05 0)
(0.000938573 2.20362e-05 0)
(0.000928507 1.96535e-05 0)
(0.000936989 1.89436e-05 0)
(0.000921387 1.58405e-05 0)
(0.000937727 1.56823e-05 0)
(0.000912294 1.14488e-05 0)
(0.00094191 1.21759e-05 0)
(0.000899192 6.3416e-06 0)
(0.000951433 7.97733e-06 0)
(0.00087894 9.35301e-07 0)
(0.000999989 1.96482e-06 0)
(0.00100078 5.77046e-06 0)
(0.00100224 9.2993e-06 0)
(0.00100423 1.24675e-05 0)
(0.00100654 1.52723e-05 0)
(0.00100896 1.77588e-05 0)
(0.00101138 1.99819e-05 0)
(0.00101375 2.19844e-05 0)
(0.00101605 2.37936e-05 0)
(0.00101831 2.54262e-05 0)
(0.00102052 2.68954e-05 0)
(0.00102269 2.82145e-05 0)
(0.0010248 2.9398e-05 0)
(0.00102685 3.04597e-05 0)
(0.00102883 3.1412e-05 0)
(0.00103074 3.22647e-05 0)
(0.00103258 3.30261e-05 0)
(0.00103436 3.37016e-05 0)
(0.00103609 3.4297e-05 0)
(0.00103774 3.48156e-05 0)
(0.00103935 3.52618e-05 0)
(0.00104089 3.5637e-05 0)
(0.00104239 3.59454e-05 0)
(0.00104381 3.61861e-05 0)
(0.0010452 3.63635e-05 0)
(0.00104652 3.64742e-05 0)
(0.00104781 3.65241e-05 0)
(0.00104902 3.65066e-05 0)
(0.00105023 3.64303e-05 0)
(0.00105133 3.62841e-05 0)
(0.00105245 3.60814e-05 0)
(0.00105345 3.58045e-05 0)
(0.00105451 3.54746e-05 0)
(0.0010554 3.50638e-05 0)
(0.00105641 3.46056e-05 0)
(0.00105718 3.40566e-05 0)
(0.00105817 3.34698e-05 0)
(0.00105881 3.27775e-05 0)
(0.00105983 3.20627e-05 0)
(0.0010603 3.12207e-05 0)
(0.0010614 3.03807e-05 0)
(0.00106166 2.93812e-05 0)
(0.00106294 2.84212e-05 0)
(0.00106291 2.72543e-05 0)
(0.00106448 2.61835e-05 0)
(0.00106405 2.48365e-05 0)
(0.00106611 2.36691e-05 0)
(0.00106506 2.21263e-05 0)
(0.0010679 2.0883e-05 0)
(0.0010659 1.91266e-05 0)
(0.00106996 1.78363e-05 0)
(0.0010665 1.58506e-05 0)
(0.00107244 1.45522e-05 0)
(0.00106672 1.23371e-05 0)
(0.00107551 1.10802e-05 0)
(0.0010663 8.68816e-06 0)
(0.00107946 7.53432e-06 0)
(0.00106489 5.16521e-06 0)
(0.0010847 4.14596e-06 0)
(0.00106202 2.30307e-06 0)
(0.00100001 1.74467e-06 0)
(0.00100047 5.16807e-06 0)
(0.00100128 8.4342e-06 0)
(0.00100239 1.14668e-05 0)
(0.00100374 1.42249e-05 0)
(0.00100525 1.67056e-05 0)
(0.00100687 1.89306e-05 0)
(0.00100857 2.09296e-05 0)
(0.00101031 2.27298e-05 0)
(0.0010121 2.43519e-05 0)
(0.00101391 2.58115e-05 0)
(0.00101575 2.71214e-05 0)
(0.00101761 2.82941e-05 0)
(0.00101948 2.93414e-05 0)
(0.00102135 3.0275e-05 0)
(0.00102322 3.11052e-05 0)
(0.0010251 3.1841e-05 0)
(0.00102697 3.24894e-05 0)
(0.00102884 3.30568e-05 0)
(0.0010307 3.35474e-05 0)
(0.00103257 3.39661e-05 0)
(0.00103442 3.4315e-05 0)
(0.00103628 3.45982e-05 0)
(0.00103812 3.48161e-05 0)
(0.00103997 3.49722e-05 0)
(0.0010418 3.50653e-05 0)
(0.00104364 3.50989e-05 0)
(0.00104546 3.50701e-05 0)
(0.00104729 3.49828e-05 0)
(0.0010491 3.48321e-05 0)
(0.00105092 3.46234e-05 0)
(0.00105271 3.43493e-05 0)
(0.00105453 3.40169e-05 0)
(0.00105629 3.36164e-05 0)
(0.0010581 3.31572e-05 0)
(0.00105983 3.26264e-05 0)
(0.00106165 3.20364e-05 0)
(0.00106335 3.1371e-05 0)
(0.00106517 3.06457e-05 0)
(0.00106682 2.98415e-05 0)
(0.00106866 2.89758e-05 0)
(0.00107025 2.80292e-05 0)
(0.00107213 2.70176e-05 0)
(0.00107365 2.59267e-05 0)
(0.00107558 2.47629e-05 0)
(0.00107701 2.35285e-05 0)
(0.00107904 2.22046e-05 0)
(0.00108035 2.0833e-05 0)
(0.00108253 1.93385e-05 0)
(0.00108366 1.7846e-05 0)
(0.00108607 1.61671e-05 0)
(0.00108696 1.45884e-05 0)
(0.00108969 1.27073e-05 0)
(0.00109025 1.1111e-05 0)
(0.00109344 9.00475e-06 0)
(0.00109352 7.51611e-06 0)
(0.00109737 5.14952e-06 0)
(0.00109675 3.97453e-06 0)
(0.00110153 1.2625e-06 0)
(0.00109989 6.87455e-07 0)
(0.001 1.15711e-06 0)
(0.00100023 3.44332e-06 0)
(0.00100067 5.66344e-06 0)
(0.00100133 7.78575e-06 0)
(0.00100219 9.78891e-06 0)
(0.00100323 1.16626e-05 0)
(0.0010044 1.34056e-05 0)
(0.00100567 1.50218e-05 0)
(0.00100703 1.65174e-05 0)
(0.00100846 1.78984e-05 0)
(0.00100994 1.91704e-05 0)
(0.00101146 2.03381e-05 0)
(0.00101302 2.14064e-05 0)
(0.00101461 2.23801e-05 0)
(0.00101622 2.32643e-05 0)
(0.00101786 2.40637e-05 0)
(0.00101951 2.47829e-05 0)
(0.00102117 2.54258e-05 0)
(0.00102284 2.59958e-05 0)
(0.00102453 2.64957e-05 0)
(0.00102622 2.69279e-05 0)
(0.00102792 2.72945e-05 0)
(0.00102962 2.7597e-05 0)
(0.00103133 2.78368e-05 0)
(0.00103304 2.80147e-05 0)
(0.00103476 2.81318e-05 0)
(0.00103649 2.81879e-05 0)
(0.00103821 2.8184e-05 0)
(0.00103994 2.81188e-05 0)
(0.00104167 2.79938e-05 0)
(0.00104341 2.78061e-05 0)
(0.00104515 2.75585e-05 0)
(0.00104689 2.72455e-05 0)
(0.00104862 2.68728e-05 0)
(0.00105036 2.64305e-05 0)
(0.0010521 2.59294e-05 0)
(0.00105384 2.53526e-05 0)
(0.00105557 2.47197e-05 0)
(0.00105731 2.40019e-05 0)
(0.00105904 2.3234e-05 0)
(0.00106078 2.23674e-05 0)
(0.00106251 2.14624e-05 0)
(0.00106424 2.04378e-05 0)
(0.00106596 1.93956e-05 0)
(0.00106768 1.82012e-05 0)
(0.00106941 1.70256e-05 0)
(0.00107112 1.56469e-05 0)
(0.00107287 1.4348e-05 0)
(0.00107456 1.27655e-05 0)
(0.00107634 1.13631e-05 0)
(0.00107801 9.54902e-06 0)
(0.00107985 8.07698e-06 0)
(0.00108151 5.98853e-06 0)
(0.00108349 4.50056e-06 0)
(0.00108513 2.07207e-06 0)
(0.00108734 6.57572e-07 0)
(0.00108896 -2.20277e-06 0)
(0.00109148 -3.39114e-06 0)
(0.00109296 -6.82182e-06 0)
(0.00109581 -7.56711e-06 0)
(0.001 9.31689e-07 0)
(0.00100017 2.78568e-06 0)
(0.00100051 4.61182e-06 0)
(0.001001 6.39122e-06 0)
(0.00100164 8.10644e-06 0)
(0.00100242 9.74361e-06 0)
(0.0010033 1.12935e-05 0)
(0.00100429 1.27511e-05 0)
(0.00100535 1.41151e-05 0)
(0.00100649 1.53858e-05 0)
(0.00100768 1.65647e-05 0)
(0.00100892 1.76538e-05 0)
(0.00101021 1.86554e-05 0)
(0.00101154 1.9572e-05 0)
(0.0010129 2.04064e-05 0)
(0.0010143 2.11617e-05 0)
(0.00101571 2.18408e-05 0)
(0.00101715 2.24465e-05 0)
(0.00101861 2.29813e-05 0)
(0.00102008 2.34478e-05 0)
(0.00102157 2.38478e-05 0)
(0.00102307 2.41834e-05 0)
(0.00102458 2.44556e-05 0)
(0.0010261 2.46665e-05 0)
(0.00102763 2.48159e-05 0)
(0.00102916 2.4906e-05 0)
(0.00103071 2.49355e-05 0)
(0.00103226 2.49069e-05 0)
(0.00103381 2.48175e-05 0)
(0.00103537 2.46707e-05 0)
(0.00103692 2.44617e-05 0)
(0.00103849 2.41958e-05 0)
(0.00104005 2.38649e-05 0)
(0.00104162 2.34776e-05 0)
(0.00104318 2.30211e-05 0)
(0.00104474 2.25094e-05 0)
(0.0010463 2.19221e-05 0)
(0.00104787 2.12825e-05 0)
(0.00104941 2.05579e-05 0)
(0.00105098 1.97863e-05 0)
(0.00105252 1.89162e-05 0)
(0.00105408 1.8009e-05 0)
(0.00105561 1.69835e-05 0)
(0.00105718 1.59377e-05 0)
(0.00105868 1.47442e-05 0)
(0.00106027 1.35589e-05 0)
(0.00106176 1.21813e-05 0)
(0.00106338 1.08584e-05 0)
(0.00106484 9.27583e-06 0)
(0.00106652 7.82318e-06 0)
(0.00106794 6.00863e-06 0)
(0.00106971 4.44439e-06 0)
(0.00107107 2.36178e-06 0)
(0.00107297 7.16983e-07 0)
(0.00107423 -1.69224e-06 0)
(0.00107636 -3.37776e-06 0)
(0.00107751 -6.21501e-06 0)
(0.00107999 -7.88509e-06 0)
(0.0010809 -1.12984e-05 0)
(0.00108372 -1.28518e-05 0)
(0.001 7.38003e-07 0)
(0.00100013 2.20674e-06 0)
(0.00100037 3.65521e-06 0)
(0.00100073 5.07075e-06 0)
(0.00100121 6.44192e-06 0)
(0.00100179 7.75941e-06 0)
(0.00100248 9.0163e-06 0)
(0.00100325 1.02081e-05 0)
(0.00100409 1.13323e-05 0)
(0.00100501 1.23877e-05 0)
(0.00100599 1.33742e-05 0)
(0.00100702 1.42923e-05 0)
(0.0010081 1.51425e-05 0)
(0.00100923 1.59258e-05 0)
(0.00101039 1.66434e-05 0)
(0.00101159 1.72964e-05 0)
(0.00101281 1.7886e-05 0)
(0.00101407 1.84139e-05 0)
(0.00101535 1.88809e-05 0)
(0.00101664 1.92887e-05 0)
(0.00101796 1.9638e-05 0)
(0.00101929 1.993e-05 0)
(0.00102063 2.01651e-05 0)
(0.00102199 2.03445e-05 0)
(0.00102336 2.04678e-05 0)
(0.00102473 2.05363e-05 0)
(0.00102611 2.05488e-05 0)
(0.0010275 2.05071e-05 0)
(0.00102889 2.04085e-05 0)
(0.00103028 2.02557e-05 0)
(0.00103167 2.00443e-05 0)
(0.00103307 1.97784e-05 0)
(0.00103446 1.94511e-05 0)
(0.00103585 1.90691e-05 0)
(0.00103724 1.86215e-05 0)
(0.00103863 1.81192e-05 0)
(0.00104 1.75455e-05 0)
(0.00104138 1.69181e-05 0)
(0.00104274 1.62109e-05 0)
(0.00104411 1.54525e-05 0)
(0.00104545 1.46026e-05 0)
(0.00104681 1.3707e-05 0)
(0.00104812 1.27031e-05 0)
(0.00104947 1.16636e-05 0)
(0.00105076 1.04914e-05 0)
(0.0010521 9.30163e-06 0)
(0.00105335 7.9428e-06 0)
(0.0010547 6.59666e-06 0)
(0.00105591 5.0269e-06 0)
(0.00105729 3.51918e-06 0)
(0.00105846 1.70512e-06 0)
(0.0010599 3.36956e-08 0)
(0.00106103 -2.06664e-06 0)
(0.00106259 -3.89015e-06 0)
(0.00106366 -6.32728e-06 0)
(0.00106537 -8.27619e-06 0)
(0.00106633 -1.1131e-05 0)
(0.00106826 -1.3173e-05 0)
(0.00106899 -1.65781e-05 0)
(0.00107111 -1.86561e-05 0)
(0.001 5.89667e-07 0)
(0.0010001 1.76417e-06 0)
(0.00100029 2.92593e-06 0)
(0.00100057 4.06705e-06 0)
(0.00100095 5.18004e-06 0)
(0.00100141 6.25821e-06 0)
(0.00100196 7.29592e-06 0)
(0.00100258 8.28874e-06 0)
(0.00100328 9.23332e-06 0)
(0.00100403 1.01274e-05 0)
(0.00100485 1.09693e-05 0)
(0.00100572 1.17583e-05 0)
(0.00100664 1.24938e-05 0)
(0.00100761 1.31755e-05 0)
(0.00100861 1.38032e-05 0)
(0.00100965 1.43772e-05 0)
(0.00101071 1.48975e-05 0)
(0.00101181 1.53646e-05 0)
(0.00101293 1.57788e-05 0)
(0.00101408 1.61407e-05 0)
(0.00101524 1.64504e-05 0)
(0.00101642 1.67086e-05 0)
(0.00101761 1.69152e-05 0)
(0.00101882 1.70708e-05 0)
(0.00102003 1.7175e-05 0)
(0.00102126 1.72285e-05 0)
(0.00102249 1.72301e-05 0)
(0.00102372 1.71809e-05 0)
(0.00102496 1.7079e-05 0)
(0.0010262 1.69256e-05 0)
(0.00102744 1.67179e-05 0)
(0.00102867 1.64579e-05 0)
(0.0010299 1.61411e-05 0)
(0.00103113 1.57709e-05 0)
(0.00103235 1.53403e-05 0)
(0.00103357 1.48551e-05 0)
(0.00103477 1.43049e-05 0)
(0.00103597 1.36988e-05 0)
(0.00103714 1.30213e-05 0)
(0.00103832 1.22873e-05 0)
(0.00103947 1.14731e-05 0)
(0.00104062 1.06029e-05 0)
(0.00104173 9.64041e-06 0)
(0.00104286 8.62435e-06 0)
(0.00104393 7.49933e-06 0)
(0.00104504 6.32675e-06 0)
(0.00104606 5.02171e-06 0)
(0.00104715 3.68119e-06 0)
(0.00104813 2.17454e-06 0)
(0.0010492 6.54148e-07 0)
(0.00105012 -1.08186e-06 0)
(0.0010512 -2.79531e-06 0)
(0.00105205 -4.80126e-06 0)
(0.00105318 -6.72645e-06 0)
(0.00105396 -9.05868e-06 0)
(0.00105517 -1.12106e-05 0)
(0.00105583 -1.39375e-05 0)
(0.00105716 -1.63198e-05 0)
(0.00105758 -1.95342e-05 0)
(0.00105894 -2.2138e-05 0)
(0.001 4.72725e-07 0)
(0.00100008 1.41467e-06 0)
(0.00100024 2.3478e-06 0)
(0.00100047 3.26673e-06 0)
(0.00100078 4.16621e-06 0)
(0.00100116 5.04135e-06 0)
(0.00100161 5.88777e-06 0)
(0.00100213 6.70177e-06 0)
(0.00100271 7.48024e-06 0)
(0.00100335 8.22069e-06 0)
(0.00100405 8.92109e-06 0)
(0.00100479 9.57986e-06 0)
(0.00100558 1.01958e-05 0)
(0.00100641 1.0768e-05 0)
(0.00100728 1.1296e-05 0)
(0.00100818 1.17792e-05 0)
(0.00100912 1.22175e-05 0)
(0.00101008 1.26108e-05 0)
(0.00101107 1.2959e-05 0)
(0.00101208 1.32621e-05 0)
(0.00101311 1.352e-05 0)
(0.00101416 1.3733e-05 0)
(0.00101522 1.39007e-05 0)
(0.00101629 1.40234e-05 0)
(0.00101737 1.41006e-05 0)
(0.00101846 1.41323e-05 0)
(0.00101956 1.4118e-05 0)
(0.00102066 1.40576e-05 0)
(0.00102176 1.395e-05 0)
(0.00102286 1.37954e-05 0)
(0.00102395 1.3592e-05 0)
(0.00102505 1.33401e-05 0)
(0.00102613 1.30371e-05 0)
(0.00102721 1.26839e-05 0)
(0.00102827 1.22766e-05 0)
(0.00102933 1.18167e-05 0)
(0.00103037 1.12987e-05 0)
(0.0010314 1.07255e-05 0)
(0.0010324 1.00892e-05 0)
(0.0010334 9.39452e-06 0)
(0.00103436 8.63008e-06 0)
(0.00103531 7.80406e-06 0)
(0.00103623 6.89962e-06 0)
(0.00103713 5.93027e-06 0)
(0.00103799 4.87104e-06 0)
(0.00103885 3.74384e-06 0)
(0.00103964 2.5112e-06 0)
(0.00104045 1.20847e-06 0)
(0.00104116 -2.20608e-07 0)
(0.00104193 -1.71886e-06 0)
(0.00104257 -3.37029e-06 0)
(0.0010433 -5.08474e-06 0)
(0.00104385 -6.99211e-06 0)
(0.00104455 -8.95185e-06 0)
(0.00104499 -1.11634e-05 0)
(0.00104569 -1.34039e-05 0)
(0.00104597 -1.59789e-05 0)
(0.00104668 -1.85347e-05 0)
(0.00104672 -2.15433e-05 0)
(0.00104735 -2.44406e-05 0)
(0.001 3.75932e-07 0)
(0.00100007 1.12499e-06 0)
(0.0010002 1.86749e-06 0)
(0.00100039 2.59961e-06 0)
(0.00100066 3.31759e-06 0)
(0.00100098 4.01784e-06 0)
(0.00100136 4.69703e-06 0)
(0.00100181 5.35219e-06 0)
(0.0010023 5.98072e-06 0)
(0.00100286 6.58039e-06 0)
(0.00100345 7.14928e-06 0)
(0.0010041 7.68581e-06 0)
(0.00100479 8.18867e-06 0)
(0.00100551 8.65682e-06 0)
(0.00100628 9.08945e-06 0)
(0.00100707 9.48591e-06 0)
(0.0010079 9.84569e-06 0)
(0.00100875 1.01684e-05 0)
(0.00100963 1.04537e-05 0)
(0.00101053 1.07013e-05 0)
(0.00101145 1.09111e-05 0)
(0.00101238 1.10826e-05 0)
(0.00101333 1.12158e-05 0)
(0.00101429 1.13102e-05 0)
(0.00101525 1.13657e-05 0)
(0.00101623 1.13818e-05 0)
(0.0010172 1.1358e-05 0)
(0.00101818 1.12938e-05 0)
(0.00101916 1.11886e-05 0)
(0.00102014 1.10417e-05 0)
(0.00102111 1.08523e-05 0)
(0.00102207 1.06194e-05 0)
(0.00102303 1.03418e-05 0)
(0.00102397 1.00185e-05 0)
(0.0010249 9.64798e-06 0)
(0.00102581 9.22867e-06 0)
(0.0010267 8.75899e-06 0)
(0.00102757 8.23677e-06 0)
(0.00102842 7.66024e-06 0)
(0.00102925 7.02649e-06 0)
(0.00103004 6.33366e-06 0)
(0.00103081 5.57775e-06 0)
(0.00103153 4.75706e-06 0)
(0.00103223 3.86592e-06 0)
(0.00103288 2.90337e-06 0)
(0.00103351 1.86097e-06 0)
(0.00103407 7.39767e-07 0)
(0.00103462 -4.73288e-07 0)
(0.00103508 -1.77331e-06 0)
(0.00103555 -3.18056e-06 0)
(0.0010359 -4.68505e-06 0)
(0.00103628 -6.31947e-06 0)
(0.0010365 -8.06118e-06 0)
(0.00103678 -9.96159e-06 0)
(0.00103685 -1.19775e-05 0)
(0.00103705 -1.41915e-05 0)
(0.00103692 -1.65253e-05 0)
(0.00103703 -1.91111e-05 0)
(0.00103662 -2.18104e-05 0)
(0.00103654 -2.48313e-05 0)
(0.001 2.93304e-07 0)
(0.00100006 8.7758e-07 0)
(0.00100017 1.45682e-06 0)
(0.00100034 2.02828e-06 0)
(0.00100057 2.58924e-06 0)
(0.00100085 3.13706e-06 0)
(0.00100119 3.66926e-06 0)
(0.00100157 4.18356e-06 0)
(0.00100201 4.6779e-06 0)
(0.00100249 5.15045e-06 0)
(0.00100302 5.59963e-06 0)
(0.00100359 6.02402e-06 0)
(0.0010042 6.42245e-06 0)
(0.00100484 6.7939e-06 0)
(0.00100552 7.13751e-06 0)
(0.00100623 7.45255e-06 0)
(0.00100697 7.73843e-06 0)
(0.00100773 7.99461e-06 0)
(0.00100852 8.22065e-06 0)
(0.00100933 8.41611e-06 0)
(0.00101015 8.58067e-06 0)
(0.00101099 8.71389e-06 0)
(0.00101185 8.81549e-06 0)
(0.00101271 8.885e-06 0)
(0.00101358 8.92213e-06 0)
(0.00101446 8.92628e-06 0)
(0.00101533 8.89713e-06 0)
(0.00101621 8.83387e-06 0)
(0.00101709 8.7362e-06 0)
(0.00101796 8.60295e-06 0)
(0.00101882 8.43387e-06 0)
(0.00101967 8.22732e-06 0)
(0.00102051 7.98317e-06 0)
(0.00102134 7.69906e-06 0)
(0.00102214 7.37523e-06 0)
(0.00102293 7.00823e-06 0)
(0.00102369 6.59895e-06 0)
(0.00102442 6.14235e-06 0)
(0.00102513 5.6405e-06 0)
(0.0010258 5.08592e-06 0)
(0.00102644 4.48278e-06 0)
(0.00102704 3.81979e-06 0)
(0.00102759 3.10474e-06 0)
(0.00102811 2.32035e-06 0)
(0.00102857 1.48054e-06 0)
(0.00102898 5.58599e-07 0)
(0.00102933 -4.2118e-07 0)
(0.00102964 -1.50065e-06 0)
(0.00102986 -2.63807e-06 0)
(0.00103004 -3.90058e-06 0)
(0.00103012 -5.21899e-06 0)
(0.00103016 -6.6995e-06 0)
(0.00103006 -8.22582e-06 0)
(0.00102995 -9.96693e-06 0)
(0.00102965 -1.17304e-05 0)
(0.00102937 -1.37871e-05 0)
(0.00102883 -1.58202e-05 0)
(0.00102837 -1.82637e-05 0)
(0.0010275 -2.05962e-05 0)
(0.00102676 -2.35119e-05 0)
(0.001 2.20796e-07 0)
(0.00100005 6.60403e-07 0)
(0.00100015 1.0961e-06 0)
(0.00100031 1.52596e-06 0)
(0.00100051 1.94803e-06 0)
(0.00100076 2.36043e-06 0)
(0.00100106 2.76135e-06 0)
(0.0010014 3.14913e-06 0)
(0.00100179 3.52221e-06 0)
(0.00100223 3.87921e-06 0)
(0.0010027 4.21888e-06 0)
(0.00100321 4.54009e-06 0)
(0.00100376 4.84186e-06 0)
(0.00100435 5.12332e-06 0)
(0.00100496 5.38371e-06 0)
(0.00100561 5.62237e-06 0)
(0.00100628 5.83872e-06 0)
(0.00100697 6.03222e-06 0)
(0.00100769 6.20246e-06 0)
(0.00100842 6.34897e-06 0)
(0.00100918 6.47141e-06 0)
(0.00100994 6.56933e-06 0)
(0.00101072 6.64247e-06 0)
(0.0010115 6.69029e-06 0)
(0.0010123 6.71259e-06 0)
(0.00101309 6.7087e-06 0)
(0.00101389 6.67845e-06 0)
(0.00101468 6.62094e-06 0)
(0.00101547 6.53608e-06 0)
(0.00101626 6.4226e-06 0)
(0.00101703 6.28059e-06 0)
(0.00101779 6.1082e-06 0)
(0.00101853 5.90585e-06 0)
(0.00101926 5.67083e-06 0)
(0.00101996 5.40417e-06 0)
(0.00102064 5.10184e-06 0)
(0.00102129 4.76594e-06 0)
(0.00102191 4.39042e-06 0)
(0.0010225 3.97923e-06 0)
(0.00102305 3.52314e-06 0)
(0.00102355 3.02929e-06 0)
(0.00102401 2.48339e-06 0)
(0.00102441 1.89796e-06 0)
(0.00102477 1.25075e-06 0)
(0.00102506 5.63043e-07 0)
(0.0010253 -1.99986e-07 0)
(0.00102546 -1.00305e-06 0)
(0.00102555 -1.90037e-06 0)
(0.00102556 -2.83413e-06 0)
(0.00102549 -3.89118e-06 0)
(0.00102532 -4.97507e-06 0)
(0.00102507 -6.22362e-06 0)
(0.00102468 -7.478e-06 0)
(0.00102422 -8.95921e-06 0)
(0.00102358 -1.04066e-05 0)
(0.00102289 -1.21756e-05 0)
(0.00102195 -1.38388e-05 0)
(0.00102098 -1.59691e-05 0)
(0.00101967 -1.78642e-05 0)
(0.00101833 -2.04481e-05 0)
(0.001 1.55404e-07 0)
(0.00100005 4.64505e-07 0)
(0.00100014 7.70608e-07 0)
(0.00100028 1.07241e-06 0)
(0.00100046 1.36862e-06 0)
(0.00100069 1.65796e-06 0)
(0.00100097 1.93921e-06 0)
(0.00100129 2.2112e-06 0)
(0.00100164 2.4729e-06 0)
(0.00100204 2.7233e-06 0)
(0.00100248 2.96154e-06 0)
(0.00100295 3.18678e-06 0)
(0.00100346 3.39832e-06 0)
(0.001004 3.5955e-06 0)
(0.00100457 3.77775e-06 0)
(0.00100516 3.94454e-06 0)
(0.00100578 4.09544e-06 0)
(0.00100643 4.23e-06 0)
(0.00100709 4.3479e-06 0)
(0.00100777 4.44875e-06 0)
(0.00100847 4.53228e-06 0)
(0.00100918 4.59811e-06 0)
(0.0010099 4.64604e-06 0)
(0.00101063 4.67562e-06 0)
(0.00101136 4.68672e-06 0)
(0.0010121 4.67875e-06 0)
(0.00101283 4.65166e-06 0)
(0.00101357 4.60464e-06 0)
(0.00101429 4.53775e-06 0)
(0.00101501 4.44987e-06 0)
(0.00101571 4.34122e-06 0)
(0.0010164 4.21019e-06 0)
(0.00101707 4.05735e-06 0)
(0.00101772 3.8803e-06 0)
(0.00101835 3.68025e-06 0)
(0.00101894 3.45357e-06 0)
(0.00101951 3.20255e-06 0)
(0.00102004 2.92169e-06 0)
(0.00102053 2.61507e-06 0)
(0.00102097 2.2743e-06 0)
(0.00102137 1.90645e-06 0)
(0.00102172 1.49855e-06 0)
(0.00102201 1.06267e-06 0)
(0.00102224 5.78505e-07 0)
(0.0010224 6.64848e-08 0)
(0.00102249 -5.05582e-07 0)
(0.00102249 -1.10347e-06 0)
(0.00102242 -1.77859e-06 0)
(0.00102225 -2.47474e-06 0)
(0.00102198 -3.27338e-06 0)
(0.0010216 -4.08153e-06 0)
(0.00102112 -5.02942e-06 0)
(0.00102049 -5.96443e-06 0)
(0.00101974 -7.09605e-06 0)
(0.00101882 -8.17394e-06 0)
(0.00101778 -9.53612e-06 0)
(0.00101652 -1.07717e-05 0)
(0.00101513 -1.24279e-05 0)
(0.00101344 -1.38285e-05 0)
(0.00101162 -1.58607e-05 0)
(0.001 9.47322e-08 0)
(0.00100005 2.82735e-07 0)
(0.00100013 4.68524e-07 0)
(0.00100026 6.51351e-07 0)
(0.00100044 8.30467e-07 0)
(0.00100065 1.00513e-06 0)
(0.00100091 1.17463e-06 0)
(0.00100121 1.3383e-06 0)
(0.00100155 1.49551e-06 0)
(0.00100193 1.64569e-06 0)
(0.00100234 1.78831e-06 0)
(0.00100279 1.9229e-06 0)
(0.00100327 2.04903e-06 0)
(0.00100378 2.16629e-06 0)
(0.00100431 2.27436e-06 0)
(0.00100488 2.37291e-06 0)
(0.00100547 2.46167e-06 0)
(0.00100608 2.54039e-06 0)
(0.00100671 2.60886e-06 0)
(0.00100736 2.66684e-06 0)
(0.00100802 2.71419e-06 0)
(0.00100869 2.75066e-06 0)
(0.00100937 2.77615e-06 0)
(0.00101006 2.79038e-06 0)
(0.00101076 2.79327e-06 0)
(0.00101145 2.78447e-06 0)
(0.00101215 2.76397e-06 0)
(0.00101283 2.73125e-06 0)
(0.00101352 2.6864e-06 0)
(0.00101419 2.62867e-06 0)
(0.00101485 2.55829e-06 0)
(0.00101549 2.47417e-06 0)
(0.00101611 2.3768e-06 0)
(0.00101671 2.26454e-06 0)
(0.00101728 2.13834e-06 0)
(0.00101782 1.99571e-06 0)
(0.00101832 1.83839e-06 0)
(0.00101879 1.66256e-06 0)
(0.00101922 1.47126e-06 0)
(0.00101959 1.25863e-06 0)
(0.00101992 1.02987e-06 0)
(0.00102019 7.75888e-07 0)
(0.0010204 5.05438e-07 0)
(0.00102054 2.04331e-07 0)
(0.0010206 -1.12931e-07 0)
(0.00102059 -4.68411e-07 0)
(0.00102049 -8.38133e-07 0)
(0.0010203 -1.25817e-06 0)
(0.00102 -1.68855e-06 0)
(0.0010196 -2.18631e-06 0)
(0.00101907 -2.6855e-06 0)
(0.00101842 -3.2777e-06 0)
(0.00101762 -3.85477e-06 0)
(0.00101667 -4.56435e-06 0)
(0.00101555 -5.22885e-06 0)
(0.00101426 -6.08712e-06 0)
(0.00101276 -6.84724e-06 0)
(0.00101107 -7.89714e-06 0)
(0.00100911 -8.75539e-06 0)
(0.00100694 -1.00536e-05 0)
(0.001 3.67165e-08 0)
(0.00100004 1.08922e-07 0)
(0.00100013 1.79647e-07 0)
(0.00100026 2.48645e-07 0)
(0.00100042 3.15672e-07 0)
(0.00100063 3.8048e-07 0)
(0.00100089 4.42833e-07 0)
(0.00100118 5.02511e-07 0)
(0.00100151 5.59315e-07 0)
(0.00100187 6.13065e-07 0)
(0.00100227 6.63599e-07 0)
(0.00100271 7.10772e-07 0)
(0.00100317 7.5446e-07 0)
(0.00100367 7.94549e-07 0)
(0.00100419 8.30949e-07 0)
(0.00100474 8.63575e-07 0)
(0.00100532 8.92368e-07 0)
(0.00100591 9.17263e-07 0)
(0.00100652 9.38226e-07 0)
(0.00100715 9.55204e-07 0)
(0.0010078 9.68182e-07 0)
(0.00100845 9.77108e-07 0)
(0.00100912 9.81982e-07 0)
(0.00100979 9.82741e-07 0)
(0.00101046 9.79404e-07 0)
(0.00101114 9.71876e-07 0)
(0.00101181 9.60196e-07 0)
(0.00101248 9.44221e-07 0)
(0.00101314 9.2402e-07 0)
(0.00101379 8.9937e-07 0)
(0.00101442 8.70393e-07 0)
(0.00101504 8.36742e-07 0)
(0.00101563 7.98625e-07 0)
(0.00101621 7.55513e-07 0)
(0.00101675 7.07769e-07 0)
(0.00101726 6.54568e-07 0)
(0.00101774 5.96534e-07 0)
(0.00101817 5.3239e-07 0)
(0.00101857 4.63254e-07 0)
(0.00101891 3.87064e-07 0)
(0.0010192 3.05763e-07 0)
(0.00101943 2.16061e-07 0)
(0.00101959 1.21247e-07 0)
(0.00101969 1.61728e-08 0)
(0.00101971 -9.38369e-08 0)
(0.00101964 -2.16596e-07 0)
(0.00101949 -3.43716e-07 0)
(0.00101923 -4.87979e-07 0)
(0.00101887 -6.34933e-07 0)
(0.0010184 -8.04866e-07 0)
(0.00101779 -9.74141e-07 0)
(0.00101705 -1.17552e-06 0)
(0.00101616 -1.37017e-06 0)
(0.00101511 -1.611e-06 0)
(0.00101389 -1.83414e-06 0)
(0.00101247 -2.12539e-06 0)
(0.00101084 -2.37953e-06 0)
(0.00100899 -2.73633e-06 -3.92808e-38)
(0.00100689 -3.0219e-06 0)
(0.00100454 -3.46451e-06 0)
(0.001 -2.04702e-08 0)
(0.00100004 -6.24021e-08 0)
(0.00100013 -1.05101e-07 0)
(0.00100026 -1.48322e-07 0)
(0.00100043 -1.91822e-07 0)
(0.00100064 -2.35366e-07 0)
(0.00100089 -2.78724e-07 0)
(0.00100118 -3.21673e-07 0)
(0.00100151 -3.63994e-07 0)
(0.00100187 -4.05476e-07 0)
(0.00100228 -4.45918e-07 0)
(0.00100271 -4.85126e-07 0)
(0.00100318 -5.2292e-07 0)
(0.00100367 -5.5912e-07 0)
(0.0010042 -5.93567e-07 0)
(0.00100475 -6.26095e-07 0)
(0.00100532 -6.56559e-07 0)
(0.00100592 -6.84805e-07 0)
(0.00100653 -7.10701e-07 0)
(0.00100716 -7.34094e-07 0)
(0.00100781 -7.54866e-07 0)
(0.00100846 -7.72857e-07 0)
(0.00100913 -7.87962e-07 0)
(0.0010098 -8.00003e-07 0)
(0.00101047 -8.08884e-07 0)
(0.00101115 -8.14399e-07 0)
(0.00101182 -8.16472e-07 0)
(0.00101249 -8.14843e-07 0)
(0.00101315 -8.09469e-07 0)
(0.0010138 -8.00009e-07 0)
(0.00101443 -7.86479e-07 0)
(0.00101505 -7.68415e-07 0)
(0.00101565 -7.4593e-07 0)
(0.00101622 -7.18367e-07 0)
(0.00101676 -6.86007e-07 0)
(0.00101728 -6.47899e-07 0)
(0.00101775 -6.04624e-07 0)
(0.00101819 -5.5474e-07 0)
(0.00101858 -4.99308e-07 0)
(0.00101892 -4.36143e-07 0)
(0.00101921 -3.67152e-07 0)
(0.00101944 -2.88906e-07 0)
(0.00101961 -2.04704e-07 0)
(0.0010197 -1.09203e-07 0)
(0.00101972 -7.78612e-09 0)
(0.00101966 1.07522e-07 0)
(0.0010195 2.28119e-07 0)
(0.00101925 3.67068e-07 0)
(0.00101889 5.09818e-07 0)
(0.00101841 6.77142e-07 0)
(0.00101781 8.45086e-07 0)
(0.00101707 1.04675e-06 0)
(0.00101618 1.24297e-06 0)
(0.00101513 1.48707e-06 0)
(0.0010139 1.71494e-06 0)
(0.00101249 2.01263e-06 0)
(0.00101086 2.27496e-06 0)
(0.00100901 2.64148e-06 3.92808e-38)
(0.00100692 2.93895e-06 0)
(0.00100456 3.3943e-06 0)
(0.001 -7.86386e-08 0)
(0.00100005 -2.36654e-07 0)
(0.00100013 -3.94692e-07 0)
(0.00100026 -5.52008e-07 0)
(0.00100044 -7.07855e-07 0)
(0.00100066 -8.61499e-07 0)
(0.00100092 -1.01224e-06 0)
(0.00100122 -1.15939e-06 0)
(0.00100156 -1.30231e-06 0)
(0.00100193 -1.4404e-06 0)
(0.00100235 -1.57309e-06 0)
(0.0010028 -1.69986e-06 0)
(0.00100328 -1.82021e-06 0)
(0.00100379 -1.93369e-06 0)
(0.00100433 -2.03988e-06 0)
(0.0010049 -2.13839e-06 0)
(0.00100549 -2.22887e-06 0)
(0.0010061 -2.31096e-06 0)
(0.00100673 -2.38437e-06 0)
(0.00100738 -2.44876e-06 0)
(0.00100804 -2.50389e-06 0)
(0.00100872 -2.54939e-06 0)
(0.0010094 -2.58507e-06 0)
(0.00101009 -2.61051e-06 0)
(0.00101079 -2.62556e-06 0)
(0.00101148 -2.62973e-06 0)
(0.00101218 -2.6229e-06 0)
(0.00101287 -2.60443e-06 0)
(0.00101355 -2.57431e-06 0)
(0.00101423 -2.53167e-06 0)
(0.00101488 -2.47664e-06 0)
(0.00101553 -2.408e-06 0)
(0.00101615 -2.32615e-06 0)
(0.00101675 -2.22932e-06 0)
(0.00101732 -2.11838e-06 0)
(0.00101786 -1.99073e-06 0)
(0.00101837 -1.848e-06 0)
(0.00101884 -1.68628e-06 0)
(0.00101926 -1.50857e-06 0)
(0.00101964 -1.30887e-06 0)
(0.00101997 -1.09235e-06 0)
(0.00102024 -8.4977e-07 0)
(0.00102044 -5.8991e-07 0)
(0.00102058 -2.9836e-07 0)
(0.00102065 1.01668e-08 0)
(0.00102064 3.58184e-07 0)
(0.00102054 7.21511e-07 0)
(0.00102035 1.13654e-06 0)
(0.00102005 1.5629e-06 0)
(0.00101965 2.05814e-06 0)
(0.00101912 2.55587e-06 0)
(0.00101847 3.14833e-06 0)
(0.00101767 3.72678e-06 0)
(0.00101672 4.43954e-06 0)
(0.00101561 5.10841e-06 0)
(0.00101431 5.97286e-06 0)
(0.00101282 6.74061e-06 0)
(0.00101112 7.79971e-06 0)
(0.00100918 8.66913e-06 0)
(0.00100699 9.9791e-06 0)
(0.001 -1.39681e-07 0)
(0.00100005 -4.19492e-07 0)
(0.00100014 -6.98495e-07 0)
(0.00100028 -9.75393e-07 0)
(0.00100047 -1.24889e-06 0)
(0.0010007 -1.51772e-06 0)
(0.00100097 -1.78066e-06 0)
(0.00100129 -2.03655e-06 0)
(0.00100165 -2.28432e-06 0)
(0.00100206 -2.52296e-06 0)
(0.00100249 -2.75153e-06 0)
(0.00100297 -2.96918e-06 0)
(0.00100348 -3.17513e-06 0)
(0.00100402 -3.36867e-06 0)
(0.00100459 -3.54915e-06 0)
(0.00100519 -3.71597e-06 0)
(0.00100581 -3.86861e-06 0)
(0.00100646 -4.00654e-06 0)
(0.00100713 -4.12935e-06 0)
(0.00100781 -4.23653e-06 0)
(0.00100851 -4.32775e-06 0)
(0.00100923 -4.40249e-06 0)
(0.00100995 -4.46046e-06 0)
(0.00101068 -4.5011e-06 0)
(0.00101142 -4.52416e-06 0)
(0.00101215 -4.52896e-06 0)
(0.00101289 -4.51531e-06 0)
(0.00101362 -4.48232e-06 0)
(0.00101435 -4.42993e-06 0)
(0.00101507 -4.35688e-06 0)
(0.00101578 -4.26333e-06 0)
(0.00101647 -4.14752e-06 0)
(0.00101714 -4.00995e-06 0)
(0.00101779 -3.84808e-06 0)
(0.00101842 -3.66306e-06 0)
(0.00101902 -3.4511e-06 0)
(0.00101958 -3.21449e-06 0)
(0.00102011 -2.94752e-06 0)
(0.0010206 -2.65434e-06 0)
(0.00102105 -2.32626e-06 0)
(0.00102145 -1.97055e-06 0)
(0.0010218 -1.57384e-06 0)
(0.00102209 -1.1485e-06 0)
(0.00102232 -6.73778e-07 0)
(0.00102248 -1.70424e-07 0)
(0.00102257 3.94195e-07 0)
(0.00102257 9.85625e-07 0)
(0.0010225 1.65579e-06 0)
(0.00102233 2.34759e-06 0)
(0.00102207 3.14337e-06 0)
(0.00102169 3.94938e-06 0)
(0.0010212 4.89712e-06 0)
(0.00102058 5.83274e-06 0)
(0.00101983 6.96705e-06 0)