/*--------------------------------*- C++ -*----------------------------------*\
| =========                 |                                                 |
| \\      /  F ield         | OpenFOAM: The Open Source CFD Toolbox           |
|  \\    /   O peration     | Version:  2312                                  |
|   \\  /    A nd           | Website:  www.openfoam.com                      |
|    \\/     M anipulation  |                                                 |
\*---------------------------------------------------------------------------*/
FoamFile
{
    version     2.0;
    format      ascii;
    arch        "LSB;label=32;scalar=64";
    class       surfaceScalarField;
    location    "6000";
    object      phi;
}
// * * * * * * * * * * * * * * * * * * * * * * * * * * * * * * * * * * * * * //

dimensions      [0 3 -1 0 0 0 0];

oriented        oriented;

internalField   nonuniform List<scalar> 
21240
(
0.000664981
1.68553e-06
0.000661097
3.88377e-06
0.000655807
5.29066e-06
0.00064962
6.18686e-06
0.000642815
6.80439e-06
0.000635523
7.29243e-06
0.000627835
7.68794e-06
0.000619857
7.97855e-06
0.000611673
8.18339e-06
0.000603327
8.34632e-06
0.000594853
8.47338e-06
0.000586318
8.53571e-06
0.000577792
8.52548e-06
0.000569329
8.46355e-06
0.000560949
8.37985e-06
0.000552639
8.30986e-06
0.000544366
8.27294e-06
0.000536139
8.22714e-06
0.000528062
8.07699e-06
0.000520323
7.73895e-06
0.000513133
7.18995e-06
0.000506671
6.46243e-06
0.000501053
5.61772e-06
0.000496326
4.72705e-06
0.000492467
3.8586e-06
0.000489402
3.06564e-06
0.000487022
2.37989e-06
0.000485209
1.8124e-06
0.00048385
1.35921e-06
0.000482843
1.00718e-06
0.000482103
7.39456e-07
0.000481566
5.37893e-07
0.000481178
3.87509e-07
0.000480905
2.7345e-07
0.000480717
1.87936e-07
0.000480597
1.19382e-07
0.00048053
6.68211e-08
0.000480509
2.10213e-08
0.000480526
-1.60873e-08
0.00048057
-4.40656e-08
0.000480647
-7.76576e-08
0.000480742
-9.51886e-08
0.000480865
-1.22605e-07
0.000481012
-1.46717e-07
0.000481151
-1.39584e-07
0.000481353
-2.01182e-07
0.000481496
-1.43566e-07
0.000481715
-2.18548e-07
0.000481877
-1.62775e-07
0.000482073
-1.96025e-07
0.000482186
-1.1252e-07
0.000482412
-2.26167e-07
0.000482326
8.5803e-08
0.000482534
-2.07603e-07
0.000482187
3.47287e-07
0.000482276
-8.93635e-08
0.000481304
9.71567e-07
0.000481362
-5.75258e-08
0.000479168
2.19422e-06
2.79704e-08
0.00047914
0.000667559
7.93202e-07
0.000669136
2.30711e-06
0.000670891
3.53494e-06
0.000672593
4.48476e-06
0.000674166
5.23141e-06
0.000675604
5.85499e-06
0.000676897
6.39479e-06
0.000678026
6.84915e-06
0.000678988
7.2214e-06
0.000679797
7.53811e-06
0.000680453
7.81683e-06
0.000680943
8.04637e-06
0.000681259
8.20865e-06
0.000681426
8.29688e-06
0.000681488
8.31822e-06
0.000681495
8.3021e-06
0.000681477
8.29184e-06
0.000681402
8.30206e-06
0.00068119
8.28824e-06
0.00068076
8.16946e-06
0.000680073
7.87721e-06
0.00067915
7.38527e-06
0.000678055
6.71259e-06
0.000676869
5.91248e-06
0.000675672
5.05581e-06
0.000674526
4.21206e-06
0.000673471
3.43468e-06
0.000672528
2.75502e-06
0.000671703
2.18437e-06
0.000670991
1.71909e-06
0.000670383
1.34734e-06
0.000669869
1.05262e-06
0.000669436
8.20064e-07
0.000669076
6.3329e-07
0.00066878
4.83943e-07
0.000668542
3.57706e-07
0.000668354
2.54858e-07
0.000668213
1.61897e-07
0.000668113
8.38596e-08
0.000668055
1.3749e-08
0.000668037
-5.94789e-08
0.000668059
-1.17204e-07
0.000668117
-1.80603e-07
0.000668205
-2.34138e-07
0.000668335
-2.70206e-07
0.000668476
-3.41506e-07
0.000668671
-3.39189e-07
0.000668862
-4.09535e-07
0.000669113
-4.14132e-07
0.000669349
-4.31688e-07
0.000669672
-4.35169e-07
0.000669906
-4.60475e-07
0.000670346
-3.53683e-07
0.000670552
-4.14195e-07
0.000671141
-2.41952e-07
0.000671258
-2.06284e-07
0.000672223
6.82363e-09
0.000672016
1.4914e-07
0.000673755
4.56036e-07
8.43623e-07
0.000672939
0.000666954
5.05798e-07
0.000667831
1.43024e-06
0.000669086
2.27952e-06
0.000670532
3.0393e-06
0.000672058
3.70533e-06
0.000673622
4.29136e-06
0.000675208
4.80856e-06
0.000676799
5.25775e-06
0.000678378
5.64254e-06
0.000679939
5.97759e-06
0.000681478
6.27732e-06
0.000682984
6.54033e-06
0.000684442
6.75043e-06
0.000685845
6.89409e-06
0.000687187
6.97627e-06
0.000688467
7.02199e-06
0.000689697
7.06215e-06
0.000690888
7.11078e-06
0.000692027
7.14973e-06
0.000693062
7.1342e-06
0.000693924
7.0151e-06
0.000694548
6.76122e-06
0.000694891
6.36942e-06
0.000694941
5.86244e-06
0.000694718
5.2794e-06
0.000694265
4.66428e-06
0.000693644
4.05616e-06
0.000692915
3.48363e-06
0.000692136
2.96359e-06
0.000691352
2.50289e-06
0.000690598
2.10132e-06
0.000689897
1.75407e-06
0.000689262
1.45466e-06
0.0006887
1.19542e-06
0.000688214
9.70151e-07
0.0006878
7.7176e-07
0.000687458
5.96464e-07
0.000687182
4.38382e-07
0.00068697
2.95333e-07
0.00068682
1.64163e-07
0.000686721
3.957e-08
0.000686671
-6.72337e-08
0.000686667
-1.7626e-07
0.0006867
-2.6762e-07
0.000686799
-3.68903e-07
0.000686906
-4.48427e-07
0.000687107
-5.40529e-07
0.000687305
-6.07732e-07
0.000687587
-6.96343e-07
0.000687893
-7.37131e-07
0.000688291
-8.33753e-07
0.000688665
-8.3442e-07
0.000689249
-9.37312e-07
0.000689726
-8.90779e-07
0.000690487
-1.00311e-06
0.000691161
-8.8046e-07
0.000692199
-1.03106e-06
0.000693134
-7.86309e-07
0.000694623
-1.03272e-06
-5.5881e-07
0.000696025
0.000666855
3.17157e-07
0.000667314
9.71119e-07
0.000667986
1.60823e-06
0.00066882
2.20519e-06
0.000669773
2.75265e-06
0.000670813
3.25122e-06
0.000671919
3.70194e-06
0.000673075
4.10234e-06
0.000674264
4.45288e-06
0.00067548
4.76202e-06
0.000676716
5.04102e-06
0.000677965
5.29167e-06
0.000679214
5.50179e-06
0.00068045
5.65794e-06
0.000681663
5.76286e-06
0.000682847
5.83777e-06
0.000684001
5.9084e-06
0.000685124
5.98828e-06
0.000686204
6.06946e-06
0.000687214
6.12373e-06
0.000688116
6.11368e-06
0.000688869
6.00812e-06
0.000689445
5.7934e-06
0.000689831
5.47583e-06
0.000690034
5.07682e-06
0.000690073
4.6253e-06
0.000689979
4.15062e-06
0.000689785
3.67757e-06
0.000689524
3.22414e-06
0.000689226
2.8013e-06
0.000688913
2.41421e-06
0.000688603
2.06383e-06
0.000688309
1.74843e-06
0.00068804
1.46489e-06
0.000687801
1.20929e-06
0.000687594
9.78155e-07
0.000687424
7.67117e-07
0.000687287
5.74499e-07
0.000687188
3.94736e-07
0.000687122
2.30346e-07
0.000687089
7.23981e-08
0.000687097
-7.52906e-08
0.000687146
-2.24853e-07
0.000687235
-3.56715e-07
0.000687365
-4.98939e-07
0.000687533
-6.16877e-07
0.000687754
-7.61078e-07
0.000688009
-8.62641e-07
0.000688329
-1.01642e-06
0.000688694
-1.10264e-06
0.000689126
-1.26503e-06
0.00068963
-1.33838e-06
0.000690216
-1.52358e-06
0.000690879
-1.55409e-06
0.000691681
-1.80472e-06
0.000692567
-1.76703e-06
0.000693625
-2.08888e-06
0.000694836
-1.99725e-06
0.000696223
-2.42006e-06
-2.23065e-06
0.000697895
0.000666738
2.45956e-07
0.00066697
7.39405e-07
0.000667357
1.22037e-06
0.000667882
1.68016e-06
0.000668522
2.11294e-06
0.000669256
2.51763e-06
0.000670066
2.89208e-06
0.000670936
3.23181e-06
0.000671853
3.5356e-06
0.000672807
3.8089e-06
0.000673788
4.05931e-06
0.000674792
4.28764e-06
0.00067581
4.48441e-06
0.000676829
4.6391e-06
0.000677837
4.75408e-06
0.000678828
4.84675e-06
0.000679799
4.93776e-06
0.00068075
5.0375e-06
0.00068168
5.13963e-06
0.000682581
5.22266e-06
0.000683437
5.25779e-06
0.000684225
5.21978e-06
0.000684923
5.09556e-06
0.000685512
4.88668e-06
0.000685982
4.60637e-06
0.000686333
4.27424e-06
0.000686573
3.91125e-06
0.000686714
3.53615e-06
0.000686775
3.16353e-06
0.000686773
2.80339e-06
0.000686725
2.46164e-06
0.000686648
2.14109e-06
0.000686554
1.84232e-06
0.000686454
1.56465e-06
0.000686357
1.30631e-06
0.00068627
1.06577e-06
0.000686197
8.40133e-07
0.000686143
6.28621e-07
0.000686111
4.26743e-07
0.000686105
2.36156e-07
0.000686129
4.81676e-08
0.000686179
-1.25185e-07
0.000686258
-3.03666e-07
0.00068637
-4.68529e-07
0.000686515
-6.44812e-07
0.000686702
-8.03141e-07
0.000686925
-9.8457e-07
0.000687201
-1.1381e-06
0.000687518
-1.33371e-06
0.000687897
-1.48175e-06
0.000688334
-1.70182e-06
0.00068884
-1.845e-06
0.000689414
-2.09753e-06
0.000690098
-2.23793e-06
0.000690835
-2.54107e-06
0.000691728
-2.66065e-06
0.000692703
-3.06414e-06
0.000693842
-3.13595e-06
0.000695099
-3.67715e-06
-3.71117e-06
0.00069658
0.000666725
1.8793e-07
0.000666899
5.64687e-07
0.000667183
9.37271e-07
0.000667565
1.29779e-06
0.000668035
1.64289e-06
0.000668581
1.9716e-06
0.000669192
2.28119e-06
0.000669857
2.56693e-06
0.000670565
2.82699e-06
0.000671309
3.06494e-06
0.000672083
3.28589e-06
0.00067288
3.48985e-06
0.000673696
3.66934e-06
0.000674518
3.81663e-06
0.000675338
3.93411e-06
0.000676149
4.03571e-06
0.000676949
4.13743e-06
0.00067774
4.24649e-06
0.000678523
4.35662e-06
0.000679296
4.45001e-06
0.00068005
4.50376e-06
0.000680772
4.49796e-06
0.000681446
4.42191e-06
0.000682056
4.27598e-06
0.000682593
4.06941e-06
0.000683051
3.81637e-06
0.00068343
3.53237e-06
0.000683735
3.23157e-06
0.000683973
2.92534e-06
0.000684154
2.62192e-06
0.000684289
2.32666e-06
0.000684388
2.0426e-06
0.000684459
1.77111e-06
0.000684511
1.5125e-06
0.000684551
1.26614e-06
0.000684586
1.03137e-06
0.000684619
8.06428e-07
0.000684657
5.91066e-07
0.000684701
3.82267e-07
0.000684756
1.81736e-07
0.000684821
-1.69964e-08
0.000684908
-2.12107e-07
0.000685013
-4.09254e-07
0.000685144
-5.9911e-07
0.000685298
-7.99137e-07
0.000685485
-9.89572e-07
0.0006857
-1.20006e-06
0.000685957
-1.39501e-06
0.000686248
-1.62413e-06
0.000686594
-1.82781e-06
0.000686977
-2.08485e-06
0.000687431
-2.29951e-06
0.000687934
-2.60032e-06
0.00068852
-2.82421e-06
0.000689166
-3.18645e-06
0.000689932
-3.42696e-06
0.000690734
-3.86582e-06
0.000691717
-4.11905e-06
0.000692731
-4.69121e-06
-4.9197e-06
0.000693939
0.000666707
1.47276e-07
0.000666829
4.4276e-07
0.00066703
7.36115e-07
0.000667306
1.02176e-06
0.000667652
1.2976e-06
0.00066806
1.56314e-06
0.000668525
1.81604e-06
0.00066904
2.0524e-06
0.000669596
2.27102e-06
0.000670187
2.47387e-06
0.000670808
2.6643e-06
0.000671457
2.8418e-06
0.000672126
3.00011e-06
0.000672809
3.13348e-06
0.000673498
3.24459e-06
0.000674189
3.34492e-06
0.00067488
3.44691e-06
0.000675571
3.55527e-06
0.000676264
3.66362e-06
0.000676957
3.75664e-06
0.000677645
3.81564e-06
0.000678319
3.82488e-06
0.000678964
3.77612e-06
0.000679571
3.66974e-06
0.000680127
3.51284e-06
0.000680627
3.31623e-06
0.000681068
3.09163e-06
0.00068145
2.84973e-06
0.000681776
2.5992e-06
0.000682052
2.34642e-06
0.000682282
2.09569e-06
0.000682475
1.84966e-06
0.000682637
1.60976e-06
0.000682773
1.37654e-06
0.000682889
1.14998e-06
0.00068299
9.29819e-07
0.000683082
7.15122e-07
0.000683167
5.05656e-07
0.00068325
2.99423e-07
0.000683335
9.68673e-08
0.000683426
-1.07814e-07
0.000683523
-3.09764e-07
0.00068363
-5.15825e-07
0.000683751
-7.20364e-07
0.000683886
-9.34026e-07
0.000684043
-1.14647e-06
0.000684218
-1.37507e-06
0.000684423
-1.60009e-06
0.000684651
-1.85224e-06
0.000684919
-2.09548e-06
0.000685214
-2.37998e-06
0.000685563
-2.64852e-06
0.00068594
-2.97716e-06
0.000686391
-3.27546e-06
0.000686872
-3.66712e-06
0.000687442
-3.997e-06
0.00068805
-4.47409e-06
0.000688774
-4.84286e-06
0.000689506
-5.42359e-06
-5.83888e-06
0.000690425
0.000666697
1.16638e-07
0.00066679
3.50288e-07
0.000666943
5.82583e-07
0.000667155
8.09583e-07
0.000667423
1.03007e-06
0.000667742
1.24383e-06
0.000668109
1.44891e-06
0.00066852
1.64202e-06
0.000668969
1.82202e-06
0.000669452
1.9912e-06
0.000669964
2.15208e-06
0.000670502
2.30339e-06
0.000671062
2.4398e-06
0.000671639
2.55701e-06
0.000672226
2.65772e-06
0.000672819
2.75138e-06
0.000673419
2.84752e-06
0.000674025
2.94902e-06
0.000674639
3.04963e-06
0.000675259
3.1362e-06
0.000675882
3.19341e-06
0.000676498
3.20883e-06
0.000677098
3.17622e-06
0.000677671
3.09617e-06
0.00067821
2.97439e-06
0.000678707
2.81932e-06
0.000679158
2.63997e-06
0.000679563
2.44447e-06
0.000679923
2.23938e-06
0.00068024
2.02956e-06
0.000680517
1.81841e-06
0.000680759
1.608e-06
0.000680969
1.3996e-06
0.000681152
1.19377e-06
0.000681311
9.90663e-07
0.000681451
7.90127e-07
0.000681574
5.9162e-07
0.000681685
3.94889e-07
0.000681786
1.98777e-07
0.000681878
4.26817e-09
0.000681968
-1.97482e-07
0.000682057
-3.98153e-07
0.000682144
-6.03716e-07
0.000682237
-8.12569e-07
0.000682332
-1.02957e-06
0.000682438
-1.25201e-06
0.00068255
-1.48733e-06
0.000682679
-1.72878e-06
0.000682817
-1.99058e-06
0.00068298
-2.25799e-06
0.000683154
-2.55461e-06
0.000683362
-2.85663e-06
0.000683584
-3.19901e-06
0.000683852
-3.54359e-06
0.000684131
-3.94586e-06
0.000684477
-4.34315e-06
0.000684825
-4.82172e-06
0.000685261
-5.27886e-06
0.000685697
-5.86023e-06
-6.38309e-06
0.000686242
0.000666691
9.20871e-08
0.000666765
2.7645e-07
0.000666888
4.59891e-07
0.000667058
6.39536e-07
0.000667273
8.14688e-07
0.000667532
9.85299e-07
0.000667831
1.14977e-06
0.000668167
1.30545e-06
0.000668538
1.45166e-06
0.000668939
1.59046e-06
0.000669367
1.72371e-06
0.00066982
1.84994e-06
0.000670296
1.96459e-06
0.000670788
2.06447e-06
0.000671294
2.15217e-06
0.00067181
2.23534e-06
0.000672336
2.32133e-06
0.000672873
2.41172e-06
0.000673422
2.50068e-06
0.000673981
2.57705e-06
0.000674546
2.62839e-06
0.00067511
2.64492e-06
0.000675664
2.62201e-06
0.0006762
2.56041e-06
0.00067671
2.46479e-06
0.000677187
2.34179e-06
0.000677629
2.19838e-06
0.000678033
2.04075e-06
0.000678398
1.87386e-06
0.000678726
1.70135e-06
0.000679019
1.52577e-06
0.000679278
1.3487e-06
0.000679507
1.17114e-06
0.000679707
9.9349e-07
0.000679882
8.15989e-07
0.000680033
6.38412e-07
0.000680164
4.60598e-07
0.000680277
2.82122e-07
0.000680373
1.02581e-07
0.000680459
-8.11233e-08
0.00068053
-2.68346e-07
0.000680591
-4.59344e-07
0.000680643
-6.55425e-07
0.000680688
-8.58347e-07
0.000680727
-1.06832e-06
0.000680764
-1.28861e-06
0.000680795
-1.51881e-06
0.000680829
-1.76217e-06
0.000680858
-2.02013e-06
0.000680894
-2.29425e-06
0.000680927
-2.58728e-06
0.000680973
-2.90227e-06
0.000681013
-3.23975e-06
0.000681075
-3.60549e-06
0.000681129
-4e-06
0.000681215
-4.4291e-06
0.000681287
-4.89285e-06
0.000681409
-5.4012e-06
0.000681497
-5.94882e-06
-6.55126e-06
0.000681666
0.000666687
7.17651e-08
0.000666748
2.15401e-07
0.00066685
3.58397e-07
0.00066699
4.98639e-07
0.000667169
6.35744e-07
0.000667385
7.69749e-07
0.000667635
8.99371e-07
0.000667918
1.02256e-06
0.000668231
1.13893e-06
0.000668571
1.25022e-06
0.000668937
1.35779e-06
0.000669327
1.46018e-06
0.000669738
1.55366e-06
0.000670166
1.63586e-06
0.000670609
1.70915e-06
0.000671065
1.77969e-06
0.000671533
1.85303e-06
0.000672015
1.92987e-06
0.000672511
2.00505e-06
0.000673019
2.06933e-06
0.000673534
2.11279e-06
0.000674051
2.12788e-06
0.000674562
2.1112e-06
0.000675059
2.06356e-06
0.000675535
1.98872e-06
0.000675985
1.89188e-06
0.000676405
1.77837e-06
0.000676793
1.65285e-06
0.000677148
1.51905e-06
0.000677469
1.37968e-06
0.000677758
1.23658e-06
0.000678016
1.09088e-06
0.000678244
9.43331e-07
0.000678443
7.94187e-07
0.000678616
6.43663e-07
0.000678763
4.915e-07
0.000678885
3.37732e-07
0.000678986
1.81775e-07
0.000679064
2.40159e-08
0.000679124
-1.40928e-07
0.000679164
-3.08431e-07
0.000679187
-4.81635e-07
0.000679191
-6.59777e-07
0.000679179
-8.46884e-07
0.000679151
-1.03987e-06
0.000679108
-1.24599e-06
0.000679049
-1.45943e-06
0.000678977
-1.69019e-06
0.000678888
-1.93073e-06
0.000678787
-2.19393e-06
0.000678668
-2.46789e-06
0.00067854
-2.77407e-06
0.000678389
-3.08928e-06
0.000678233
-3.44963e-06
0.00067805
-3.81626e-06
0.000677866
-4.24538e-06
0.000677646
-4.67291e-06
0.000677434
-5.1892e-06
0.000677173
-5.68806e-06
-6.31334e-06
0.000676935
0.000666684
5.44255e-08
0.000666736
1.63342e-07
0.000666823
2.71817e-07
0.000666943
3.78319e-07
0.000667096
4.82649e-07
0.000667281
5.8487e-07
0.000667496
6.83978e-07
0.00066774
7.78438e-07
0.000668011
8.68052e-07
0.000668307
9.54223e-07
0.000668627
1.03792e-06
0.00066897
1.11783e-06
0.000669332
1.19103e-06
0.000669712
1.25585e-06
0.000670107
1.3143e-06
0.000670516
1.37116e-06
0.000670938
1.4305e-06
0.000671375
1.49251e-06
0.000671828
1.55285e-06
0.000672293
1.6042e-06
0.000672767
1.63892e-06
0.000673243
1.65133e-06
0.000673715
1.63903e-06
0.000674176
1.60274e-06
0.00067462
1.54543e-06
0.00067504
1.47104e-06
0.000675435
1.38352e-06
0.000675802
1.28638e-06
0.000676138
1.1823e-06
0.000676445
1.07322e-06
0.000676721
9.60457e-07
0.000676967
8.44797e-07
0.000677184
7.26774e-07
0.000677371
6.06528e-07
0.000677531
4.84258e-07
0.000677663
3.5967e-07
0.000677767
2.32912e-07
0.000677846
1.03355e-07
0.0006779
-2.99783e-08
0.000677927
-1.6857e-07
0.00067793
-3.10577e-07
0.000677907
-4.58877e-07
0.000677859
-6.11548e-07
0.000677785
-7.73765e-07
0.000677686
-9.40624e-07
0.000677562
-1.12132e-06
0.000677409
-1.30711e-06
0.00067723
-1.51144e-06
0.000677022
-1.72179e-06
0.000676785
-1.95705e-06
0.000676514
-2.19716e-06
0.000676213
-2.47343e-06
0.000675874
-2.74962e-06
0.000675502
-3.07805e-06
0.000675084
-3.39841e-06
0.000674633
-3.79393e-06
0.000674125
-4.16526e-06
0.000673584
-4.6477e-06
0.000672972
-5.07627e-06
-5.66981e-06
0.000672328
0.000666682
3.91858e-08
0.000666728
1.17599e-07
0.000666804
1.95718e-07
0.00066691
2.7248e-07
0.000667044
3.47787e-07
0.000667208
4.21692e-07
0.000667398
4.93453e-07
0.000667615
5.61991e-07
0.000667855
6.27228e-07
0.000668119
6.90198e-07
0.000668406
7.51542e-07
0.000668713
8.10223e-07
0.00066904
8.64108e-07
0.000669384
9.12092e-07
0.000669743
9.5572e-07
0.000670115
9.98463e-07
0.000670503
1.04313e-06
0.000670906
1.08965e-06
0.000671324
1.13467e-06
0.000671755
1.17282e-06
0.000672196
1.19855e-06
0.000672639
1.20784e-06
0.000673079
1.19903e-06
0.000673509
1.17274e-06
0.000673923
1.13109e-06
0.000674317
1.07691e-06
0.000674688
1.01303e-06
0.000675032
9.41879e-07
0.000675349
8.65335e-07
0.000675638
7.84726e-07
0.000675897
7.00972e-07
0.000676128
6.14588e-07
0.000676328
5.25944e-07
0.0006765
4.35091e-07
0.000676642
3.42181e-07
0.000676755
2.46952e-07
0.000676838
1.49571e-07
0.000676892
4.95219e-08
0.000676917
-5.46296e-08
0.000676911
-1.62864e-07
0.000676874
-2.74206e-07
0.000676807
-3.91366e-07
0.000676707
-5.12046e-07
0.000676575
-6.41395e-07
0.000676409
-7.74161e-07
0.000676207
-9.19428e-07
0.000675968
-1.06801e-06
0.00067569
-1.2335e-06
0.00067537
-1.40231e-06
0.000675007
-1.59419e-06
0.000674597
-1.78726e-06
0.000674138
-2.01417e-06
0.000673625
-2.23629e-06
0.000673055
-2.5081e-06
0.000672422
-2.76531e-06
0.000671723
-3.09544e-06
0.00067095
-3.39244e-06
0.000670102
-3.79917e-06
0.000669165
-4.13937e-06
-4.64595e-06
0.000668141
0.00066668
2.53795e-08
0.000666722
7.61615e-08
0.000666791
1.26761e-07
0.000666887
1.76518e-07
0.000667009
2.25381e-07
0.000667158
2.7337e-07
0.000667331
3.20006e-07
0.000667528
3.64624e-07
0.000667748
4.07208e-07
0.00066799
4.48406e-07
0.000668253
4.88575e-07
0.000668536
5.27019e-07
0.000668838
5.62404e-07
0.000669156
5.94087e-07
0.000669489
6.23094e-07
0.000669836
6.51599e-07
0.000670197
6.81303e-07
0.000670575
7.12055e-07
0.000670968
7.41652e-07
0.000671374
7.66626e-07
0.000671789
7.8345e-07
0.000672208
7.89572e-07
0.000672623
7.83942e-07
0.000673028
7.66944e-07
0.00067342
7.39932e-07
0.000673792
7.0469e-07
0.000674142
6.62999e-07
0.000674467
6.16397e-07
0.000674767
5.66076e-07
0.000675038
5.12881e-07
0.000675282
4.57388e-07
0.000675497
3.99918e-07
0.000675682
3.40705e-07
0.000675837
2.79766e-07
0.000675962
2.17201e-07
0.000676056
1.52805e-07
0.000676119
8.67238e-08
0.00067615
1.86431e-08
0.000676148
-5.28719e-08
0.000676113
-1.27173e-07
0.000676042
-2.03776e-07
0.000675936
-2.84809e-07
0.000675792
-3.68305e-07
0.000675609
-4.58345e-07
0.000675385
-5.50619e-07
0.000675118
-6.5231e-07
0.000674806
-7.55937e-07
0.000674445
-8.72385e-07
0.000674033
-9.9041e-07
0.000673565
-1.12608e-06
0.000673039
-1.26127e-06
0.000672447
-1.42249e-06
0.000671789
-1.57807e-06
0.000671053
-1.77223e-06
0.00067024
-1.95222e-06
0.000669334
-2.18947e-06
0.000668339
-2.39681e-06
0.000667231
-2.6912e-06
0.000666019
-2.9275e-06
-3.29728e-06
0.00066467
0.00066668
1.24691e-08
0.000666718
3.74114e-08
0.000666783
6.2264e-08
0.000666873
8.67266e-08
0.000666987
1.10764e-07
0.000667126
1.34352e-07
0.000667289
1.57273e-07
0.000667474
1.79257e-07
0.000667681
2.0031e-07
0.000667909
2.20676e-07
0.000668157
2.40461e-07
0.000668425
2.59355e-07
0.00066871
2.76822e-07
0.000669012
2.92626e-07
0.000669328
3.07215e-07
0.000669658
3.21494e-07
0.000670003
3.36144e-07
0.000670364
3.51059e-07
0.00067074
3.65249e-07
0.00067113
3.77179e-07
0.000671528
3.85263e-07
0.000671929
3.88312e-07
0.000672327
3.85785e-07
0.000672717
3.77789e-07
0.000673092
3.6489e-07
0.000673448
3.47884e-07
0.000673784
3.27595e-07
0.000674095
3.04751e-07
0.000674382
2.79939e-07
0.000674641
2.5358e-07
0.000674872
2.25971e-07
0.000675075
1.97282e-07
0.000675248
1.67633e-07
0.000675391
1.37036e-07
0.000675502
1.05548e-07
0.000675582
7.30605e-08
0.000675629
3.96536e-08
0.000675643
5.16982e-09
0.000675621
-3.12217e-08
0.000675563
-6.9043e-08
0.000675467
-1.08079e-07
0.000675332
-1.49501e-07
0.000675156
-1.92185e-07
0.000674936
-2.38376e-07
0.000674671
-2.85671e-07
0.000674357
-3.38008e-07
0.000673992
-3.91225e-07
0.000673571
-4.51338e-07
0.000673092
-5.12032e-07
0.000672549
-5.82263e-07
0.000671939
-6.5185e-07
0.000671252
-7.35536e-07
0.00067049
-8.15633e-07
0.000669634
-9.16753e-07
0.000668691
-1.00936e-06
0.000667635
-1.13337e-06
0.000666478
-1.23992e-06
0.000665182
-1.39445e-06
0.00066377
-1.51554e-06
-1.71066e-06
0.000662183
0.000666679
-9.71673e-12
0.000666717
-4.5243e-11
0.000666779
-8.67064e-11
0.000666866
-9.38955e-11
0.000666977
-1.01949e-10
0.000667111
-1.80309e-10
0.000667269
-2.89363e-10
0.000667448
-3.10176e-10
0.000667649
-2.38659e-10
0.00066787
-2.38388e-10
0.000668111
-4.39435e-10
0.000668371
-7.42117e-10
0.000668648
-8.88885e-10
0.000668942
-7.38129e-10
0.000669249
-4.43376e-10
0.000669571
-3.60791e-10
0.000669908
-7.79672e-10
0.000670261
-1.71072e-09
0.000670629
-2.87931e-09
0.00067101
-3.88988e-09
0.0006714
-4.42558e-09
0.000671793
-4.36661e-09
0.000672182
-3.79033e-09
0.000672563
-2.89258e-09
0.00067293
-1.89317e-09
0.000673278
-9.64523e-10
0.000673606
-2.04491e-10
0.000673911
3.56316e-10
0.00067419
7.33725e-10
0.000674443
9.64489e-10
0.000674667
1.09e-09
0.000674864
1.14695e-09
0.00067503
1.16215e-09
0.000675166
1.15499e-09
0.00067527
1.13643e-09
0.000675342
1.11421e-09
0.000675381
1.09017e-09
0.000675385
1.06483e-09
0.000675353
1.04896e-09
0.000675283
1.02983e-09
0.000675173
1.02038e-09
0.000675023
1.0092e-09
0.00067483
1.0059e-09
0.00067459
1.00745e-09
0.000674304
1.00945e-09
0.000673965
1.02347e-09
0.000673572
1.0406e-09
0.00067312
1.05902e-09
0.000672607
1.09825e-09
0.000672023
1.13168e-09
0.00067137
1.17833e-09
0.000670634
1.24274e-09
0.000669817
1.30759e-09
0.000668899
1.38159e-09
0.000667888
1.4822e-09
0.000666753
1.5778e-09
0.000665511
1.67968e-09
0.000664115
1.78802e-09
0.000662598
1.89181e-09
1.96428e-09
0.000660885
0.000666679
-1.24885e-08
0.000666717
-3.75012e-08
0.000666779
-6.24364e-08
0.000666866
-8.69135e-08
0.000666977
-1.10967e-07
0.000667111
-1.34711e-07
0.000667269
-1.57847e-07
0.000667448
-1.79873e-07
0.000667649
-2.00783e-07
0.00066787
-2.21148e-07
0.000668111
-2.41333e-07
0.000668371
-2.60832e-07
0.000668648
-2.78592e-07
0.000668942
-2.94098e-07
0.000669249
-3.08101e-07
0.000669571
-3.22214e-07
0.000669908
-3.37696e-07
0.000670261
-3.54457e-07
0.000670629
-3.70969e-07
0.00067101
-3.84909e-07
0.0006714
-3.9406e-07
0.000671792
-3.96993e-07
0.000672182
-3.93322e-07
0.000672563
-3.83546e-07
0.000672929
-3.68662e-07
0.000673278
-3.49808e-07
0.000673606
-3.28007e-07
0.00067391
-3.04045e-07
0.00067419
-2.78484e-07
0.000674442
-2.51668e-07
0.000674667
-2.2381e-07
0.000674863
-1.95008e-07
0.00067503
-1.6533e-07
0.000675166
-1.34748e-07
0.00067527
-1.03302e-07
0.000675342
-7.08625e-08
0.000675381
-3.75129e-08
0.000675385
-3.09145e-09
0.000675353
3.33126e-08
0.000675282
7.10863e-08
0.000675173
1.10098e-07
0.000675023
1.51491e-07
0.00067483
1.94166e-07
0.00067459
2.40355e-07
0.000674304
2.87652e-07
0.000673965
3.4001e-07
0.000673573
3.93259e-07
0.00067312
4.53401e-07
0.000672607
5.14169e-07
0.000672024
5.84458e-07
0.000671371
6.54134e-07
0.000670634
7.37936e-07
0.000669817
8.18158e-07
0.000668899
9.19409e-07
0.000667889
1.01222e-06
0.000666754
1.1364e-06
0.000665512
1.24316e-06
0.000664116
1.39789e-06
0.000662599
1.5192e-06
1.71446e-06
0.000660886
0.00066668
-2.53986e-08
0.000666718
-7.62498e-08
0.000666783
-1.2693e-07
0.000666873
-1.76702e-07
0.000666987
-2.2558e-07
0.000667126
-2.73722e-07
0.000667289
-3.2057e-07
0.000667474
-3.6523e-07
0.000667681
-4.07674e-07
0.000667909
-4.48871e-07
0.000668157
-4.89431e-07
0.000668425
-5.28467e-07
0.00066871
-5.64142e-07
0.000669012
-5.95533e-07
0.000669328
-6.23966e-07
0.000669658
-6.52309e-07
0.000670003
-6.82823e-07
0.000670364
-7.15393e-07
0.00067074
-7.47272e-07
0.000671129
-7.7422e-07
0.000671527
-7.92094e-07
0.000671928
-7.98106e-07
0.000672326
-7.91356e-07
0.000672716
-7.72614e-07
0.000673091
-7.43652e-07
0.000673447
-7.06596e-07
0.000673783
-6.63422e-07
0.000674094
-6.15724e-07
0.000674381
-5.64666e-07
0.00067464
-5.1102e-07
0.000674871
-4.55282e-07
0.000675074
-3.97702e-07
0.000675247
-3.38464e-07
0.00067539
-2.77541e-07
0.000675502
-2.15016e-07
0.000675582
-1.50677e-07
0.000675629
-8.46444e-08
0.000675642
-1.66348e-08
0.000675621
5.4883e-08
0.000675563
1.2913e-07
0.000675467
2.05708e-07
0.000675332
2.86704e-07
0.000675156
3.7019e-07
0.000674936
4.6021e-07
0.000674671
5.52486e-07
0.000674357
6.54177e-07
0.000673992
7.57833e-07
0.000673571
8.74287e-07
0.000673093
9.92378e-07
0.00067255
1.12808e-06
0.00067194
1.26335e-06
0.000671254
1.42464e-06
0.000670492
1.58033e-06
0.000669636
1.77459e-06
0.000668694
1.95476e-06
0.000667638
2.19213e-06
0.000666482
2.39966e-06
0.000665185
2.6942e-06
0.000663774
2.93071e-06
3.30059e-06
0.000662188
0.00066668
-3.92044e-08
0.000666722
-1.17685e-07
0.000666791
-1.95882e-07
0.000666887
-2.72658e-07
0.000667009
-3.47981e-07
0.000667158
-4.22033e-07
0.000667331
-4.94001e-07
0.000667528
-5.62579e-07
0.000667748
-6.2768e-07
0.00066799
-6.90649e-07
0.000668253
-7.52373e-07
0.000668536
-8.11628e-07
0.000668838
-8.65797e-07
0.000669156
-9.13497e-07
0.000669488
-9.56571e-07
0.000669835
-9.99154e-07
0.000670197
-1.0446e-06
0.000670575
-1.09287e-06
0.000670967
-1.14011e-06
0.000671373
-1.18019e-06
0.000671788
-1.20694e-06
0.000672206
-1.21614e-06
0.000672621
-1.20625e-06
0.000673027
-1.17826e-06
0.000673418
-1.13472e-06
0.00067379
-1.07879e-06
0.00067414
-1.01347e-06
0.000674466
-9.41252e-07
0.000674765
-8.63996e-07
0.000675037
-7.82951e-07
0.000675281
-6.9896e-07
0.000675495
-6.1247e-07
0.000675681
-5.23802e-07
0.000675836
-4.32973e-07
0.000675961
-3.40111e-07
0.000676055
-2.44933e-07
0.000676118
-1.476e-07
0.000676149
-4.75992e-08
0.000676148
5.65179e-08
0.000676112
1.64689e-07
0.000676042
2.76004e-07
0.000675935
3.93109e-07
0.000675792
5.13779e-07
0.000675609
6.43085e-07
0.000675386
7.75851e-07
0.000675119
9.21086e-07
0.000674807
1.06969e-06
0.000674446
1.23515e-06
0.000674034
1.40401e-06
0.000673567
1.59588e-06
0.000673041
1.78901e-06
0.00067245
2.01594e-06
0.000671792
2.23815e-06
0.000671056
2.50998e-06
0.000670244
2.76734e-06
0.000669338
3.0975e-06
0.000668343
3.39467e-06
0.000667236
3.80144e-06
0.000666025
4.14184e-06
4.64841e-06
0.000664677
0.000666682
-5.44434e-08
0.000666728
-1.63424e-07
0.000666804
-2.71975e-07
0.00066691
-3.7849e-07
0.000667044
-4.82835e-07
0.000667208
-5.85198e-07
0.000667398
-6.84504e-07
0.000667615
-7.79002e-07
0.000667855
-8.68486e-07
0.000668119
-9.54653e-07
0.000668406
-1.03871e-06
0.000668713
-1.11917e-06
0.00066904
-1.19264e-06
0.000669384
-1.2572e-06
0.000669742
-1.31511e-06
0.000670115
-1.37181e-06
0.000670502
-1.4319e-06
0.000670905
-1.4956e-06
0.000671323
-1.55805e-06
0.000671754
-1.61125e-06
0.000672194
-1.64696e-06
0.000672637
-1.65929e-06
0.000673077
-1.64597e-06
0.000673507
-1.60807e-06
0.000673921
-1.54895e-06
0.000674315
-1.47287e-06
0.000674686
-1.38399e-06
0.00067503
-1.28582e-06
0.000675347
-1.18105e-06
0.000675636
-1.07155e-06
0.000675895
-9.58563e-07
0.000676126
-8.42807e-07
0.000676327
-7.24762e-07
0.000676498
-6.04544e-07
0.00067664
-4.82316e-07
0.000676753
-3.57784e-07
0.000676837
-2.31089e-07
0.000676891
-1.01625e-07
0.000676916
3.17143e-08
0.00067691
1.70225e-07
0.000676874
3.12204e-07
0.000676807
4.60431e-07
0.000676707
6.13089e-07
0.000676575
7.75232e-07
0.000676409
9.42091e-07
0.000676207
1.12271e-06
0.000675968
1.30852e-06
0.000675691
1.51278e-06
0.000675372
1.72315e-06
0.000675009
1.95835e-06
0.0006746
2.19849e-06
0.000674141
2.47471e-06
0.000673628
2.75097e-06
0.000673059
3.07931e-06
0.000672426
3.39979e-06
0.000671729
3.79521e-06
0.000670957
4.16666e-06
0.000670109
4.649e-06
0.000669173
5.07771e-06
5.6711e-06
0.00066815
0.000666684
-7.17822e-08
0.000666736
-2.15479e-07
0.000666823
-3.58547e-07
0.000666943
-4.98802e-07
0.000667096
-6.3592e-07
0.000667281
-7.7006e-07
0.000667496
-8.99868e-07
0.00066774
-1.0231e-06
0.000668011
-1.13934e-06
0.000668307
-1.25063e-06
0.000668627
-1.35855e-06
0.000668969
-1.46145e-06
0.000669332
-1.55518e-06
0.000669712
-1.63713e-06
0.000670107
-1.70991e-06
0.000670515
-1.78031e-06
0.000670938
-1.85433e-06
0.000671375
-1.93277e-06
0.000671827
-2.00994e-06
0.000672291
-2.07599e-06
0.000672765
-2.1204e-06
0.000673241
-2.13542e-06
0.000673713
-2.11779e-06
0.000674173
-2.06864e-06
0.000674616
-1.9921e-06
0.000675037
-1.89367e-06
0.000675432
-1.77885e-06
0.000675799
-1.65236e-06
0.000676135
-1.51792e-06
0.000676442
-1.37815e-06
0.000676718
-1.23482e-06
0.000676965
-1.08904e-06
0.000677181
-9.41475e-07
0.000677369
-7.92361e-07
0.000677529
-6.41879e-07
0.000677661
-4.89773e-07
0.000677766
-3.36071e-07
0.000677844
-1.80212e-07
0.000677898
-2.25267e-08
0.000677926
1.42409e-07
0.000677929
3.09872e-07
0.000677906
4.8298e-07
0.000677858
6.61102e-07
0.000677785
8.48107e-07
0.000677686
1.04109e-06
0.000677562
1.2471e-06
0.00067741
1.46054e-06
0.000677231
1.69118e-06
0.000677023
1.93173e-06
0.000676786
2.19481e-06
0.000676516
2.46876e-06
0.000676216
2.77482e-06
0.000675877
3.09006e-06
0.000675506
3.45021e-06
0.000675089
3.8169e-06
0.000674638
4.2458e-06
0.000674132
4.67336e-06
0.000673591
5.18939e-06
0.000672981
5.68827e-06
6.31322e-06
0.000672338
0.000666687
-9.21032e-08
0.000666748
-2.76523e-07