/*--------------------------------*- C++ -*----------------------------------*\
| =========                 |                                                 |
| \\      /  F ield         | OpenFOAM: The Open Source CFD Toolbox           |
|  \\    /   O peration     | Version:  2312                                  |
|   \\  /    A nd           | Website:  www.openfoam.com                      |
|    \\/     M anipulation  |                                                 |
\*---------------------------------------------------------------------------*/
FoamFile
{
    version     2.0;
    format      ascii;
    arch        "LSB;label=32;scalar=64";
    class       volVectorField;
    location    "6000";
    object      U;
}
// * * * * * * * * * * * * * * * * * * * * * * * * * * * * * * * * * * * * * //

dimensions      [0 1 -1 0 0 0 0];

internalField   nonuniform List<vector> 
10800
(
(0.000992486 4.92896e-06 0)
(0.000990052 1.24256e-05 0)
(0.000986945 1.74282e-05 0)
(0.000980606 2.05611e-05 0)
(0.000971284 2.26006e-05 0)
(0.000960167 2.41101e-05 0)
(0.000948123 2.52423e-05 0)
(0.000935844 2.598e-05 0)
(0.00092364 2.64482e-05 0)
(0.000911187 2.68354e-05 0)
(0.000898482 2.71026e-05 0)
(0.000885942 2.70313e-05 0)
(0.00087342 2.65898e-05 0)
(0.000860528 2.60253e-05 0)
(0.00084755 2.56096e-05 0)
(0.000834984 2.54291e-05 0)
(0.00082273 2.53299e-05 0)
(0.000810413 2.49399e-05 0)
(0.000798062 2.38411e-05 0)
(0.000786069 2.18468e-05 0)
(0.00077482 1.91172e-05 0)
(0.000764566 1.60195e-05 0)
(0.000755497 1.29222e-05 0)
(0.000747742 1.00886e-05 0)
(0.000741326 7.66438e-06 0)
(0.000736169 5.69701e-06 0)
(0.000732125 4.1632e-06 0)
(0.000729018 3.00122e-06 0)
(0.000726672 2.13807e-06 0)
(0.000724925 1.50506e-06 0)
(0.000723637 1.04389e-06 0)
(0.000722696 7.08176e-07 0)
(0.000722017 4.6228e-07 0)
(0.000721527 2.80619e-07 0)
(0.000721195 1.4331e-07 0)
(0.000720957 3.97483e-08 0)
(0.000720844 -4.54999e-08 0)
(0.00072074 -1.06864e-07 0)
(0.000720805 -1.72844e-07 0)
(0.000720744 -2.04219e-07 0)
(0.000721004 -2.73101e-07 0)
(0.000720885 -2.81699e-07 0)
(0.000721404 -3.38443e-07 0)
(0.000721114 -3.67401e-07 0)
(0.000721997 -3.19826e-07 0)
(0.000721356 -4.83214e-07 0)
(0.000722815 -2.30521e-07 0)
(0.000721469 -5.22389e-07 0)
(0.000723951 -1.89756e-07 0)
(0.00072121 -4.05785e-07 0)
(0.000725605 2.94219e-08 0)
(0.000720055 -5.25316e-07 0)
(0.000728293 9.27387e-07 0)
(0.000716974 -8.05009e-07 0)
(0.000732933 2.25549e-06 0)
(0.000710127 -9.7029e-07 0)
(0.000741597 5.21725e-06 0)
(0.000695389 -2.38177e-06 0)
(0.000759379 1.1685e-05 0)
(0.000666214 -5.53893e-06 0)
(0.00100003 5.76595e-06 0)
(0.00100172 1.4883e-05 0)
(0.0010043 2.13404e-05 0)
(0.00100714 2.58017e-05 0)
(0.00100993 2.90339e-05 0)
(0.00101251 3.16272e-05 0)
(0.00101459 3.38122e-05 0)
(0.00101631 3.55648e-05 0)
(0.00101793 3.69108e-05 0)
(0.00101917 3.80092e-05 0)
(0.00101994 3.8945e-05 0)
(0.00102083 3.96547e-05 0)
(0.00102192 4.00751e-05 0)
(0.00102246 4.0193e-05 0)
(0.00102223 4.00361e-05 0)
(0.00102195 3.97558e-05 0)
(0.00102206 3.95916e-05 0)
(0.00102226 3.96052e-05 0)
(0.0010221 3.95162e-05 0)
(0.00102153 3.88629e-05 0)
(0.00102067 3.72842e-05 0)
(0.0010195 3.4664e-05 0)
(0.00101801 3.11264e-05 0)
(0.00101626 2.69706e-05 0)
(0.00101443 2.2581e-05 0)
(0.00101265 1.83244e-05 0)
(0.00101099 1.44737e-05 0)
(0.00100948 1.11791e-05 0)
(0.00100815 8.48363e-06 0)
(0.00100699 6.35301e-06 0)
(0.001006 4.71341e-06 0)
(0.00100516 3.46873e-06 0)
(0.00100446 2.5369e-06 0)
(0.00100386 1.82651e-06 0)
(0.00100338 1.29652e-06 0)
(0.00100296 8.66486e-07 0)
(0.00100267 5.44901e-07 0)
(0.00100239 2.5599e-07 0)
(0.00100227 2.87272e-08 0)
(0.00100206 -1.70558e-07 0)
(0.00100214 -3.73216e-07 0)
(0.00100195 -5.03629e-07 0)
(0.00100226 -6.68006e-07 0)
(0.00100205 -8.3498e-07 0)
(0.00100262 -8.25068e-07 0)
(0.0010023 -1.16746e-06 0)
(0.00100328 -9.51184e-07 0)
(0.0010025 -1.27955e-06 0)
(0.00100442 -1.16131e-06 0)
(0.00100253 -1.22286e-06 0)
(0.00100599 -9.88469e-07 0)
(0.00100251 -1.37351e-06 0)
(0.00100797 -3.08453e-07 0)
(0.00100204 -9.84012e-07 0)
(0.00101126 3.2717e-07 0)
(0.00100012 1.44606e-07 0)
(0.00101657 2.08238e-06 0)
(0.000996773 1.79544e-06 0)
(0.00102459 4.8348e-06 0)
(0.000991089 5.64129e-06 0)
(0.000999991 1.91532e-06 0)
(0.00100078 5.6183e-06 0)
(0.0010023 9.04273e-06 0)
(0.00100429 1.20835e-05 0)
(0.00100663 1.47375e-05 0)
(0.00100921 1.7081e-05 0)
(0.00101164 1.91632e-05 0)
(0.001014 2.0975e-05 0)
(0.00101653 2.25258e-05 0)
(0.00101883 2.3881e-05 0)
(0.00102077 2.51008e-05 0)
(0.00102302 2.61729e-05 0)
(0.00102575 2.70236e-05 0)
(0.00102815 2.75895e-05 0)
(0.00102985 2.78843e-05 0)
(0.00103146 2.8015e-05 0)
(0.00103346 2.8117e-05 0)
(0.00103556 2.82384e-05 0)
(0.00103735 2.82744e-05 0)
(0.00103886 2.80145e-05 0)
(0.00104025 2.72569e-05 0)
(0.00104144 2.58997e-05 0)
(0.00104222 2.39703e-05 0)
(0.00104251 2.16049e-05 0)
(0.00104235 1.90003e-05 0)
(0.00104182 1.63594e-05 0)
(0.001041 1.38475e-05 0)
(0.00103997 1.15724e-05 0)
(0.00103881 9.585e-06 0)
(0.00103762 7.89187e-06 0)
(0.00103646 6.47148e-06 0)
(0.00103536 5.28648e-06 0)
(0.00103435 4.29798e-06 0)
(0.00103345 3.46418e-06 0)
(0.00103266 2.75758e-06 0)
(0.00103199 2.14164e-06 0)
(0.00103142 1.60924e-06 0)
(0.00103096 1.12485e-06 0)
(0.0010306 6.99173e-07 0)
(0.00103032 3.0131e-07 0)
(0.00103015 -6.40381e-08 0)
(0.00103002 -3.9007e-07 0)
(0.00103001 -7.3306e-07 0)
(0.00102999 -9.99044e-07 0)
(0.00103014 -1.31119e-06 0)
(0.00103025 -1.5538e-06 0)
(0.00103053 -1.78599e-06 0)
(0.00103075 -2.02465e-06 0)
(0.00103128 -2.20517e-06 0)
(0.00103142 -2.29739e-06 0)
(0.0010324 -2.57128e-06 0)
(0.00103241 -2.40414e-06 0)
(0.00103378 -2.62507e-06 0)
(0.00103385 -2.43263e-06 0)
(0.00103571 -2.36375e-06 0)
(0.00103553 -1.88889e-06 0)
(0.0010386 -2.04789e-06 0)
(0.00103775 -6.80856e-07 0)
(0.00104256 -1.18195e-06 0)
(0.00104103 1.11204e-06 0)
(0.00100001 1.68718e-06 0)
(0.00100046 4.99029e-06 0)
(0.00100132 8.13108e-06 0)
(0.00100241 1.10205e-05 0)
(0.00100378 1.36167e-05 0)
(0.00100542 1.59335e-05 0)
(0.00100702 1.79903e-05 0)
(0.00100866 1.97886e-05 0)
(0.0010106 2.13392e-05 0)
(0.00101239 2.26871e-05 0)
(0.00101386 2.38879e-05 0)
(0.00101568 2.49516e-05 0)
(0.00101804 2.58242e-05 0)
(0.00102015 2.64484e-05 0)
(0.00102164 2.68387e-05 0)
(0.0010231 2.70908e-05 0)
(0.00102497 2.73194e-05 0)
(0.00102695 2.75836e-05 0)
(0.00102864 2.78425e-05 0)
(0.00103009 2.79614e-05 0)
(0.00103148 2.77663e-05 0)
(0.00103278 2.71176e-05 0)
(0.00103383 2.59619e-05 0)
(0.00103455 2.43403e-05 0)
(0.00103497 2.23631e-05 0)
(0.00103514 2.01733e-05 0)
(0.00103509 1.79118e-05 0)
(0.00103486 1.56948e-05 0)
(0.00103451 1.36038e-05 0)
(0.00103408 1.16856e-05 0)
(0.00103361 9.95921e-06 0)
(0.00103314 8.42397e-06 0)
(0.00103268 7.06727e-06 0)
(0.00103226 5.87028e-06 0)
(0.00103187 4.8118e-06 0)
(0.00103154 3.87253e-06 0)
(0.00103126 3.03057e-06 0)
(0.00103102 2.27566e-06 0)
(0.00103085 1.58136e-06 0)
(0.00103073 9.5569e-07 0)
(0.00103065 3.5733e-07 0)
(0.00103064 -1.78604e-07 0)
(0.00103067 -7.14757e-07 0)
(0.00103078 -1.1815e-06 0)
(0.00103094 -1.68252e-06 0)
(0.00103117 -2.07786e-06 0)
(0.00103145 -2.58406e-06 0)
(0.00103182 -2.88731e-06 0)
(0.00103225 -3.41476e-06 0)
(0.00103277 -3.65405e-06 0)
(0.00103337 -4.1518e-06 0)
(0.00103405 -4.32663e-06 0)
(0.00103491 -4.9191e-06 0)
(0.0010358 -4.75089e-06 0)
(0.00103694 -5.67513e-06 0)
(0.00103819 -5.19142e-06 0)
(0.00103964 -6.12106e-06 0)
(0.00104134 -5.55224e-06 0)
(0.00104328 -6.89129e-06 0)
(0.00104533 -5.48139e-06 0)
(0.001 1.09221e-06 0)
(0.00100021 3.24395e-06 0)
(0.0010007 5.32473e-06 0)
(0.00100133 7.29333e-06 0)
(0.00100219 9.1284e-06 0)
(0.00100334 1.08313e-05 0)
(0.00100445 1.2398e-05 0)
(0.00100565 1.38115e-05 0)
(0.00100717 1.50676e-05 0)
(0.00100857 1.61904e-05 0)
(0.00100966 1.72148e-05 0)
(0.00101111 1.81456e-05 0)
(0.0010131 1.89406e-05 0)
(0.00101486 1.95518e-05 0)
(0.00101604 1.99869e-05 0)
(0.00101721 2.03214e-05 0)
(0.00101881 2.0648e-05 0)
(0.00102052 2.10158e-05 0)
(0.00102196 2.13999e-05 0)
(0.0010232 2.17061e-05 0)
(0.00102447 2.18064e-05 0)
(0.00102576 2.15895e-05 0)
(0.00102692 2.09993e-05 0)
(0.00102789 2.00459e-05 0)
(0.00102867 1.87919e-05 0)
(0.00102928 1.73277e-05 0)
(0.00102972 1.57483e-05 0)
(0.00103001 1.41376e-05 0)
(0.00103015 1.25588e-05 0)
(0.00103019 1.10537e-05 0)
(0.00103014 9.64496e-06 0)
(0.00103004 8.3415e-06 0)
(0.00102991 7.14232e-06 0)
(0.00102976 6.04135e-06 0)
(0.00102961 5.02846e-06 0)
(0.00102947 4.09483e-06 0)
(0.00102935 3.22693e-06 0)
(0.00102925 2.42076e-06 0)
(0.00102919 1.65699e-06 0)
(0.00102916 9.45445e-07 0)
(0.00102917 2.50258e-07 0)
(0.00102923 -3.91839e-07 0)
(0.00102932 -1.04614e-06 0)
(0.00102947 -1.63646e-06 0)
(0.00102965 -2.27701e-06 0)
(0.00102992 -2.8319e-06 0)
(0.00103021 -3.48328e-06 0)
(0.0010306 -4.00036e-06 0)
(0.00103104 -4.70276e-06 0)
(0.00103155 -5.15971e-06 0)
(0.00103217 -5.95347e-06 0)
(0.00103288 -6.36096e-06 0)
(0.00103368 -7.23019e-06 0)
(0.00103464 -7.62706e-06 0)
(0.0010357 -8.66978e-06 0)
(0.00103689 -8.83367e-06 0)
(0.00103833 -1.0426e-05 0)
(0.00103985 -1.02357e-05 0)
(0.00104158 -1.22218e-05 0)
(0.00104349 -1.21066e-05 0)
(0.001 8.68638e-07 0)
(0.00100016 2.59252e-06 0)
(0.00100054 4.28398e-06 0)
(0.00100099 5.9173e-06 0)
(0.00100162 7.47587e-06 0)
(0.00100249 8.9543e-06 0)
(0.00100331 1.03405e-05 0)
(0.0010042 1.16141e-05 0)
(0.0010054 1.27668e-05 0)
(0.00100648 1.38148e-05 0)
(0.00100726 1.47816e-05 0)
(0.0010084 1.56686e-05 0)
(0.00101009 1.64433e-05 0)
(0.00101154 1.70697e-05 0)
(0.00101242 1.75567e-05 0)
(0.00101333 1.79653e-05 0)
(0.00101467 1.83674e-05 0)
(0.00101612 1.87979e-05 0)
(0.00101732 1.92321e-05 0)
(0.00101836 1.95932e-05 0)
(0.00101945 1.97801e-05 0)
(0.00102061 1.97042e-05 0)
(0.0010217 1.93175e-05 0)
(0.00102267 1.86221e-05 0)
(0.00102351 1.76606e-05 0)
(0.00102426 1.64982e-05 0)
(0.00102489 1.52063e-05 0)
(0.0010254 1.38499e-05 0)
(0.00102581 1.24814e-05 0)
(0.00102612 1.1138e-05 0)
(0.00102635 9.84363e-06 0)
(0.00102652 8.61153e-06 0)
(0.00102665 7.44677e-06 0)
(0.00102674 6.34977e-06 0)
(0.00102681 5.31646e-06 0)
(0.00102686 4.34314e-06 0)
(0.00102691 3.42072e-06 0)
(0.00102696 2.54744e-06 0)
(0.00102702 1.70811e-06 0)
(0.00102709 9.09033e-07 0)
(0.00102719 1.23461e-07 0)
(0.00102729 -6.25738e-07 0)
(0.00102744 -1.38687e-06 0)
(0.00102762 -2.10647e-06 0)
(0.00102782 -2.86873e-06 0)
(0.00102809 -3.5737e-06 0)
(0.00102838 -4.36648e-06 0)
(0.00102875 -5.07069e-06 0)
(0.00102915 -5.92364e-06 0)
(0.00102963 -6.64115e-06 0)
(0.00103018 -7.5939e-06 0)
(0.0010308 -8.31741e-06 0)
(0.00103152 -9.44947e-06 0)
(0.00103234 -1.01578e-05 0)
(0.00103324 -1.15169e-05 0)
(0.00103432 -1.22903e-05 0)
(0.00103547 -1.38967e-05 0)
(0.00103674 -1.46433e-05 0)
(0.00103823 -1.6951e-05 0)
(0.00103962 -1.73276e-05 0)
(0.001 6.76156e-07 0)
(0.00100011 2.01759e-06 0)
(0.00100039 3.33432e-06 0)
(0.0010007 4.60852e-06 0)
(0.00100116 5.83042e-06 0)
(0.00100183 6.99773e-06 0)
(0.00100243 8.10092e-06 0)
(0.00100309 9.12322e-06 0)
(0.00100406 1.00587e-05 0)
(0.00100491 1.09206e-05 0)
(0.00100546 1.17267e-05 0)
(0.00100638 1.2475e-05 0)
(0.00100785 1.31384e-05 0)
(0.00100908 1.36909e-05 0)
(0.00100976 1.41429e-05 0)
(0.00101047 1.45448e-05 0)
(0.00101165 1.49525e-05 0)
(0.00101294 1.53893e-05 0)
(0.001014 1.58299e-05 0)
(0.00101491 1.62084e-05 0)
(0.00101589 1.64427e-05 0)
(0.00101696 1.64625e-05 0)
(0.00101799 1.62303e-05 0)
(0.00101893 1.57471e-05 0)
(0.00101979 1.50444e-05 0)
(0.00102058 1.41708e-05 0)
(0.00102129 1.31791e-05 0)
(0.00102191 1.21176e-05 0)
(0.00102244 1.10254e-05 0)
(0.00102289 9.93119e-06 0)
(0.00102327 8.85397e-06 0)
(0.00102358 7.80519e-06 0)
(0.00102385 6.7906e-06 0)
(0.00102407 5.81226e-06 0)
(0.00102426 4.86902e-06 0)
(0.00102442 3.95936e-06 0)
(0.00102456 3.07789e-06 0)
(0.00102469 2.22375e-06 0)
(0.00102482 1.38674e-06 0)
(0.00102494 5.71004e-07 0)
(0.00102508 -2.42989e-07 0)
(0.00102521 -1.03754e-06 0)
(0.00102537 -1.84772e-06 0)
(0.00102554 -2.64189e-06 0)
(0.00102572 -3.47448e-06 0)
(0.00102595 -4.28738e-06 0)
(0.00102619 -5.17163e-06 0)
(0.00102649 -6.0194e-06 0)
(0.0010268 -6.99022e-06 0)
(0.00102718 -7.89229e-06 0)
(0.0010276 -8.98419e-06 0)
(0.00102808 -9.96622e-06 0)
(0.00102863 -1.12264e-05 0)
(0.00102924 -1.22957e-05 0)
(0.00102994 -1.38174e-05 0)
(0.00103072 -1.49524e-05 0)
(0.00103158 -1.68376e-05 0)
(0.00103255 -1.81001e-05 0)
(0.00103355 -2.03495e-05 0)
(0.00103456 -2.17947e-05 0)
(0.001 5.32154e-07 0)
(0.00100008 1.58919e-06 0)
(0.00100031 2.63032e-06 0)
(0.00100054 3.6438e-06 0)
(0.00100089 4.62411e-06 0)
(0.00100144 5.57027e-06 0)
(0.00100189 6.47403e-06 0)
(0.0010024 7.32113e-06 0)
(0.00100321 8.10673e-06 0)
(0.00100389 8.84155e-06 0)
(0.00100428 9.53794e-06 0)
(0.00100504 1.01914e-05 0)
(0.00100634 1.07788e-05 0)
(0.0010074 1.12806e-05 0)
(0.00100792 1.17076e-05 0)
(0.00100849 1.21009e-05 0)
(0.00100952 1.25032e-05 0)
(0.00101069 1.29291e-05 0)
(0.00101162 1.33529e-05 0)
(0.00101241 1.37181e-05 0)
(0.00101329 1.3957e-05 0)
(0.00101427 1.40141e-05 0)
(0.00101522 1.38608e-05 0)
(0.0010161 1.34991e-05 0)
(0.00101692 1.29539e-05 0)
(0.0010177 1.22632e-05 0)
(0.00101841 1.14675e-05 0)
(0.00101906 1.06037e-05 0)
(0.00101963 9.70191e-06 0)
(0.00102014 8.78423e-06 0)
(0.00102058 7.86587e-06 0)
(0.00102097 6.95637e-06 0)
(0.00102131 6.0612e-06 0)
(0.0010216 5.18281e-06 0)
(0.00102186 4.32149e-06 0)
(0.00102208 3.47651e-06 0)
(0.00102228 2.64488e-06 0)
(0.00102245 1.82566e-06 0)
(0.00102261 1.012e-06 0)
(0.00102275 2.05358e-07 0)
(0.00102289 -6.05782e-07 0)
(0.00102302 -1.41569e-06 0)
(0.00102316 -2.24476e-06 0)
(0.00102329 -3.07848e-06 0)
(0.00102343 -3.94665e-06 0)
(0.00102358 -4.82467e-06 0)
(0.00102374 -5.75999e-06 0)
(0.00102393 -6.70285e-06 0)
(0.00102412 -7.73886e-06 0)
(0.00102435 -8.77199e-06 0)
(0.0010246 -9.94404e-06 0)
(0.00102488 -1.10979e-05 0)
(0.00102521 -1.24527e-05 0)
(0.00102558 -1.37555e-05 0)
(0.00102598 -1.53506e-05 0)
(0.00102644 -1.6839e-05 0)
(0.00102695 -1.87525e-05 0)
(0.00102748 -2.04247e-05 0)
(0.00102807 -2.2804e-05 0)
(0.00102859 -2.46717e-05 0)
(0.001 4.20776e-07 0)
(0.00100006 1.25722e-06 0)
(0.00100025 2.08253e-06 0)
(0.00100043 2.88847e-06 0)
(0.00100071 3.67191e-06 0)
(0.00100117 4.43266e-06 0)
(0.00100153 5.16385e-06 0)
(0.00100193 5.85393e-06 0)
(0.00100263 6.49957e-06 0)
(0.00100319 7.10971e-06 0)
(0.00100345 7.69304e-06 0)
(0.00100408 8.24369e-06 0)
(0.00100525 8.74191e-06 0)
(0.00100619 9.17322e-06 0)
(0.00100658 9.54855e-06 0)
(0.00100703 9.90193e-06 0)
(0.00100795 1.02667e-05 0)
(0.00100901 1.06513e-05 0)
(0.00100984 1.10313e-05 0)
(0.00101054 1.13582e-05 0)
(0.00101133 1.1577e-05 0)
(0.00101222 1.16437e-05 0)
(0.0010131 1.15369e-05 0)
(0.00101392 1.12595e-05 0)
(0.00101469 1.0832e-05 0)
(0.00101543 1.02842e-05 0)
(0.00101612 9.64739e-06 0)
(0.00101676 8.94982e-06 0)
(0.00101734 8.21411e-06 0)
(0.00101786 7.45689e-06 0)
(0.00101832 6.6896e-06 0)
(0.00101873 5.91943e-06 0)
(0.0010191 5.15072e-06 0)
(0.00101942 4.38536e-06 0)
(0.0010197 3.62408e-06 0)
(0.00101994 2.86612e-06 0)
(0.00102016 2.1101e-06 0)
(0.00102034 1.3543e-06 0)
(0.0010205 5.94791e-07 0)
(0.00102063 -1.69743e-07 0)
(0.00102075 -9.44924e-07 0)
(0.00102084 -1.73196e-06 0)
(0.00102093 -2.53974e-06 0)
(0.001021 -3.36923e-06 0)
(0.00102106 -4.22908e-06 0)
(0.00102113 -5.12228e-06 0)
(0.00102117 -6.06047e-06 0)
(0.00102122 -7.03968e-06 0)
(0.00102127 -8.08758e-06 0)
(0.00102132 -9.18257e-06 0)
(0.00102137 -1.03712e-05 0)
(0.00102142 -1.16205e-05 0)
(0.00102149 -1.29906e-05 0)
(0.00102157 -1.44298e-05 0)
(0.00102165 -1.60368e-05 0)
(0.00102175 -1.77107e-05 0)
(0.00102185 -1.96085e-05 0)
(0.00102196 -2.15769e-05 0)
(0.00102206 -2.38311e-05 0)
(0.00102203 -2.61339e-05 0)
(0.001 3.30247e-07 0)
(0.00100005 9.8706e-07 0)
(0.00100021 1.63581e-06 0)
(0.00100035 2.27056e-06 0)
(0.00100059 2.88965e-06 0)
(0.00100099 3.49327e-06 0)
(0.00100128 4.07581e-06 0)
(0.0010016 4.6281e-06 0)
(0.00100221 5.14813e-06 0)
(0.00100268 5.64357e-06 0)
(0.00100285 6.12085e-06 0)
(0.00100339 6.57395e-06 0)
(0.00100447 6.98641e-06 0)
(0.00100531 7.34756e-06 0)
(0.0010056 7.66756e-06 0)
(0.00100596 7.97412e-06 0)
(0.00100679 8.29269e-06 0)
(0.00100776 8.62751e-06 0)
(0.00100851 8.95629e-06 0)
(0.00100913 9.23829e-06 0)
(0.00100985 9.42898e-06 0)
(0.00101067 9.49406e-06 0)
(0.00101148 9.41777e-06 0)
(0.00101223 9.20328e-06 0)
(0.00101295 8.86737e-06 0)
(0.00101364 8.43345e-06 0)
(0.0010143 7.92573e-06 0)
(0.00101491 7.36562e-06 0)
(0.00101547 6.77014e-06 0)
(0.00101597 6.15162e-06 0)
(0.00101643 5.51858e-06 0)
(0.00101684 4.87628e-06 0)
(0.00101721 4.22809e-06 0)
(0.00101752 3.57529e-06 0)
(0.0010178 2.91872e-06 0)
(0.00101804 2.25736e-06 0)
(0.00101825 1.59081e-06 0)
(0.00101841 9.16493e-07 0)
(0.00101855 2.32856e-07 0)
(0.00101864 -4.62982e-07 0)
(0.00101873 -1.17401e-06 0)
(0.00101877 -1.90608e-06 0)
(0.00101879 -2.65876e-06 0)
(0.00101878 -3.44451e-06 0)
(0.00101875 -4.25605e-06 0)
(0.0010187 -5.11636e-06 0)
(0.00101862 -6.0105e-06 0)
(0.00101853 -6.96816e-06 0)
(0.0010184 -7.97326e-06 0)
(0.00101826 -9.05968e-06 0)
(0.0010181 -1.02029e-05 0)
(0.00101791 -1.14602e-05 0)
(0.0010177 -1.27758e-05 0)
(0.00101747 -1.42473e-05 0)
(0.00101721 -1.578e-05 0)
(0.00101693 -1.75215e-05 0)
(0.00101662 -1.93154e-05 0)
(0.00101626 -2.13944e-05 0)
(0.00101585 -2.3501e-05 0)
(0.0010153 -2.5999e-05 0)
(0.001 2.54285e-07 0)
(0.00100004 7.60244e-07 0)
(0.00100019 1.26036e-06 0)
(0.0010003 1.75037e-06 0)
(0.0010005 2.22946e-06 0)
(0.00100086 2.69796e-06 0)
(0.0010011 3.1514e-06 0)
(0.00100136 3.58274e-06 0)
(0.00100192 3.99094e-06 0)
(0.00100232 4.38235e-06 0)
(0.00100242 4.76165e-06 0)
(0.00100289 5.12321e-06 0)
(0.0010039 5.45377e-06 0)
(0.00100466 5.74556e-06 0)
(0.00100488 6.00749e-06 0)
(0.00100517 6.26146e-06 0)
(0.00100594 6.52647e-06 0)
(0.00100684 6.80409e-06 0)
(0.00100752 7.07504e-06 0)
(0.00100807 7.3063e-06 0)
(0.00100873 7.46284e-06 0)
(0.00100949 7.51851e-06 0)
(0.00101024 7.46191e-06 0)
(0.00101093 7.29625e-06 0)
(0.0010116 7.03494e-06 0)
(0.00101225 6.69606e-06 0)
(0.00101286 6.298e-06 0)
(0.00101344 5.85675e-06 0)
(0.00101396 5.38489e-06 0)
(0.00101445 4.89142e-06 0)
(0.00101488 4.38251e-06 0)
(0.00101527 3.86188e-06 0)
(0.00101562 3.33198e-06 0)
(0.00101592 2.7935e-06 0)
(0.00101619 2.2472e-06 0)
(0.0010164 1.69179e-06 0)
(0.00101658 1.12746e-06 0)
(0.00101672 5.51045e-07 0)
(0.00101682 -3.71863e-08 0)
(0.00101687 -6.42079e-07 0)
(0.0010169 -1.26284e-06 0)
(0.00101688 -1.90912e-06 0)
(0.00101683 -2.57439e-06 0)
(0.00101674 -3.27809e-06 0)
(0.00101661 -4.0027e-06 0)
(0.00101644 -4.7831e-06 0)
(0.00101623 -5.58766e-06 0)
(0.00101599 -6.4665e-06 0)
(0.00101569 -7.37556e-06 0)
(0.00101536 -8.38349e-06 0)
(0.00101498 -9.41996e-06 0)
(0.00101455 -1.0599e-05 0)
(0.00101407 -1.1791e-05 0)
(0.00101354 -1.31868e-05 0)
(0.00101294 -1.45706e-05 0)
(0.00101229 -1.62436e-05 0)
(0.00101156 -1.78507e-05 0)
(0.00101075 -1.98805e-05 0)
(0.00100985 -2.17426e-05 0)
(0.00100876 -2.42236e-05 0)
(0.001 1.88602e-07 0)
(0.00100004 5.64003e-07 0)
(0.00100017 9.35271e-07 0)
(0.00100026 1.29942e-06 0)
(0.00100044 1.65609e-06 0)
(0.00100077 2.00562e-06 0)
(0.00100097 2.34457e-06 0)
(0.0010012 2.66779e-06 0)
(0.00100171 2.97484e-06 0)
(0.00100207 3.27067e-06 0)
(0.00100212 3.55846e-06 0)
(0.00100254 3.83348e-06 0)
(0.00100349 4.08564e-06 0)
(0.0010042 4.30956e-06 0)
(0.00100436 4.51248e-06 0)
(0.0010046 4.71089e-06 0)
(0.00100531 4.91839e-06 0)
(0.00100616 5.13507e-06 0)
(0.00100679 5.34541e-06 0)
(0.00100729 5.52403e-06 0)
(0.0010079 5.64468e-06 0)
(0.00100861 5.68819e-06 0)
(0.00100931 5.64658e-06 0)
(0.00100996 5.52263e-06 0)
(0.00101057 5.32652e-06 0)
(0.00101118 5.07164e-06 0)
(0.00101176 4.77143e-06 0)
(0.0010123 4.43744e-06 0)
(0.00101279 4.07868e-06 0)
(0.00101325 3.7015e-06 0)
(0.00101366 3.31026e-06 0)
(0.00101403 2.90745e-06 0)
(0.00101435 2.49479e-06 0)
(0.00101463 2.07256e-06 0)
(0.00101486 1.64134e-06 0)
(0.00101505 1.19985e-06 0)
(0.0010152 7.48523e-07 0)
(0.0010153 2.84212e-07 0)
(0.00101536 -1.9175e-07 0)
(0.00101538 -6.85495e-07 0)
(0.00101535 -1.19383e-06 0)
(0.00101527 -1.72756e-06 0)
(0.00101514 -2.2773e-06 0)
(0.00101497 -2.86471e-06 0)
(0.00101474 -3.46805e-06 0)
(0.00101447 -4.12574e-06 0)
(0.00101414 -4.79958e-06 0)
(0.00101375 -5.54669e-06 0)
(0.0010133 -6.31111e-06 0)
(0.00101279 -7.17497e-06 0)
(0.00101221 -8.04835e-06 0)
(0.00101156 -9.06711e-06 0)
(0.00101083 -1.00715e-05 0)
(0.00101002 -1.12882e-05 0)
(0.00100912 -1.24514e-05 0)
(0.00100811 -1.39242e-05 0)
(0.00100701 -1.52687e-05 0)
(0.00100577 -1.70762e-05 0)
(0.00100441 -1.862e-05 0)
(0.00100285 -2.08616e-05 0)
(0.001 1.30066e-07 0)
(0.00100003 3.89015e-07 0)
(0.00100015 6.45206e-07 0)
(0.00100024 8.96691e-07 0)
(0.00100039 1.14333e-06 0)
(0.0010007 1.38534e-06 0)
(0.00100088 1.6203e-06 0)
(0.00100108 1.84479e-06 0)
(0.00100156 2.05868e-06 0)
(0.00100189 2.26538e-06 0)
(0.00100191 2.46687e-06 0)
(0.00100229 2.65965e-06 0)
(0.0010032 2.83681e-06 0)
(0.00100388 2.99495e-06 0)
(0.001004 3.13932e-06 0)
(0.0010042 3.28119e-06 0)
(0.00100487 3.42948e-06 0)
(0.00100568 3.58365e-06 0)
(0.00100627 3.73251e-06 0)
(0.00100674 3.85836e-06 0)
(0.00100731 3.94315e-06 0)
(0.00100798 3.97389e-06 0)
(0.00100864 3.94526e-06 0)
(0.00100925 3.8593e-06 0)
(0.00100984 3.723e-06 0)
(0.00101041 3.54549e-06 0)
(0.00101096 3.33586e-06 0)
(0.00101146 3.10191e-06 0)
(0.00101193 2.84968e-06 0)
(0.00101236 2.5834e-06 0)
(0.00101275 2.30595e-06 0)
(0.00101309 2.01895e-06 0)
(0.00101339 1.72351e-06 0)
(0.00101365 1.41968e-06 0)
(0.00101386 1.10793e-06 0)
(0.00101402 7.8711e-07 0)
(0.00101414 4.5767e-07 0)
(0.00101421 1.17014e-07 0)
(0.00101423 -2.33406e-07 0)
(0.0010142 -5.98956e-07 0)
(0.00101412 -9.76133e-07 0)
(0.00101399 -1.37466e-06 0)
(0.0010138 -1.7853e-06 0)
(0.00101356 -2.22733e-06 0)
(0.00101325 -2.68049e-06 0)
(0.00101289 -3.17882e-06 0)
(0.00101245 -3.68709e-06 0)
(0.00101195 -4.25672e-06 0)
(0.00101137 -4.83502e-06 0)
(0.00101071 -5.49756e-06 0)
(0.00100996 -6.15943e-06 0)
(0.00100912 -6.9454e-06 0)
(0.00100819 -7.70667e-06 0)
(0.00100714 -8.65149e-06 0)
(0.00100598 -9.53203e-06 0)
(0.00100469 -1.06841e-05 0)
(0.00100326 -1.16986e-05 0)
(0.00100168 -1.31247e-05 0)
(0.000999927 -1.42822e-05 0)
(0.000997957 -1.6069e-05 0)
(0.001 7.62392e-08 0)
(0.00100003 2.28031e-07 0)
(0.00100015 3.78234e-07 0)
(0.00100022 5.25795e-07 0)
(0.00100037 6.70633e-07 0)
(0.00100067 8.12778e-07 0)
(0.00100083 9.50849e-07 0)
(0.00100101 1.08301e-06 0)
(0.00100147 1.20928e-06 0)
(0.00100178 1.33148e-06 0)
(0.00100177 1.4505e-06 0)
(0.00100214 1.56432e-06 0)
(0.00100303 1.66922e-06 0)
(0.00100367 1.76349e-06 0)
(0.00100377 1.85013e-06 0)
(0.00100395 1.93531e-06 0)
(0.00100459 2.02373e-06 0)
(0.00100538 2.11481e-06 0)
(0.00100594 2.20212e-06 0)
(0.00100639 2.27564e-06 0)
(0.00100693 2.32521e-06 0)
(0.00100757 2.34342e-06 0)
(0.00100821 2.32717e-06 0)
(0.0010088 2.27746e-06 0)
(0.00100936 2.19815e-06 0)
(0.0010099 2.09433e-06 0)
(0.00101043 1.97115e-06 0)
(0.00101092 1.83309e-06 0)
(0.00101136 1.68362e-06 0)
(0.00101177 1.52521e-06 0)
(0.00101214 1.35955e-06 0)
(0.00101247 1.18756e-06 0)
(0.00101275 1.00992e-06 0)
(0.00101299 8.26624e-07 0)
(0.00101318 6.37951e-07 0)
(0.00101332 4.43141e-07 0)
(0.00101342 2.42512e-07 0)
(0.00101346 3.43842e-08 0)
(0.00101346 -1.80169e-07 0)
(0.0010134 -4.04842e-07 0)
(0.00101328 -6.36957e-07 0)
(0.00101311 -8.83225e-07 0)
(0.00101287 -1.13701e-06 0)
(0.00101258 -1.41152e-06 0)
(0.00101221 -1.69257e-06 0)
(0.00101178 -2.00341e-06 0)
(0.00101127 -2.3195e-06 0)
(0.00101068 -2.67625e-06 0)
(0.00101001 -3.03659e-06 0)
(0.00100924 -3.45311e-06 0)
(0.00100838 -3.86602e-06 0)
(0.0010074 -4.36203e-06 0)
(0.00100632 -4.83708e-06 0)
(0.0010051 -5.43592e-06 0)
(0.00100376 -5.98499e-06 0)
(0.00100226 -6.71873e-06 0)
(0.0010006 -7.35016e-06 0)
(0.000998757 -8.2637e-06 0)
(0.000996725 -8.98116e-06 0)
(0.000994462 -1.01337e-05 0)
(0.001 2.50964e-08 0)
(0.00100003 7.50254e-08 0)
(0.00100014 1.24421e-07 0)
(0.00100021 1.73047e-07 0)
(0.00100036 2.20794e-07 0)
(0.00100065 2.67487e-07 0)
(0.0010008 3.12771e-07 0)
(0.00100098 3.5636e-07 0)
(0.00100143 3.98282e-07 0)
(0.00100173 4.3871e-07 0)
(0.00100171 4.77585e-07 0)
(0.00100206 5.14485e-07 0)
(0.00100294 5.48856e-07 0)
(0.00100357 5.80532e-07 0)
(0.00100366 6.1012e-07 0)
(0.00100382 6.38717e-07 0)
(0.00100446 6.67083e-07 0)
(0.00100523 6.94957e-07 0)
(0.00100578 7.209e-07 0)
(0.00100621 7.42634e-07 0)
(0.00100674 7.57636e-07 0)
(0.00100737 7.63797e-07 0)
(0.001008 7.59906e-07 0)
(0.00100857 7.45791e-07 0)
(0.00100912 7.2215e-07 0)
(0.00100965 6.9021e-07 0)
(0.00101017 6.514e-07 0)
(0.00101064 6.07095e-07 0)
(0.00101108 5.58472e-07 0)
(0.00101148 5.06431e-07 0)
(0.00101184 4.51628e-07 0)
(0.00101215 3.94457e-07 0)
(0.00101243 3.35204e-07 0)
(0.00101265 2.73904e-07 0)
(0.00101283 2.10682e-07 0)
(0.00101297 1.45291e-07 0)
(0.00101305 7.78479e-08 0)
(0.00101308 7.78519e-09 0)
(0.00101306 -6.44922e-08 0)
(0.00101298 -1.40331e-07 0)
(0.00101285 -2.18708e-07 0)
(0.00101265 -3.02035e-07 0)
(0.0010124 -3.87893e-07 0)
(0.00101207 -4.80967e-07 0)
(0.00101168 -5.76202e-07 0)
(0.00101121 -6.81791e-07 0)
(0.00101066 -7.89006e-07 0)
(0.00101003 -9.10433e-07 0)
(0.0010093 -1.03273e-06 0)
(0.00100848 -1.17473e-06 0)
(0.00100756 -1.31495e-06 0)
(0.00100651 -1.48432e-06 0)
(0.00100535 -1.64565e-06 0)
(0.00100405 -1.85058e-06 0)
(0.0010026 -2.03692e-06 0)
(0.00100099 -2.28862e-06 0)
(0.000999215 -2.50275e-06 0)
(0.000997238 -2.81706e-06 -4.79116e-38)
(0.000995056 -3.05991e-06 0)
(0.00099264 -3.45797e-06 0)
(0.001 -2.51741e-08 0)
(0.00100003 -7.53871e-08 0)
(0.00100014 -1.25114e-07 0)
(0.00100021 -1.73798e-07 0)
(0.00100036 -2.21608e-07 0)
(0.00100065 -2.68927e-07 0)
(0.0010008 -3.15082e-07 0)
(0.00100098 -3.58836e-07 0)
(0.00100143 -4.00185e-07 0)
(0.00100173 -4.40609e-07 0)
(0.00100171 -4.81095e-07 0)
(0.00100206 -5.20422e-07 0)
(0.00100294 -5.55973e-07 0)
(0.00100357 -5.86446e-07 0)
(0.00100366 -6.13677e-07 0)
(0.00100382 -6.41608e-07 0)
(0.00100446 -6.73318e-07 0)
(0.00100523 -7.08634e-07 0)
(0.00100578 -7.43922e-07 0)
(0.00100621 -7.73738e-07 0)
(0.00100674 -7.93025e-07 0)
(0.00100737 -7.98713e-07 0)
(0.001008 -7.90213e-07 0)
(0.00100857 -7.68926e-07 0)
(0.00100912 -7.37297e-07 0)
(0.00100965 -6.97926e-07 0)
(0.00101017 -6.5303e-07 0)
(0.00101064 -6.04232e-07 0)
(0.00101108 -5.5259e-07 0)
(0.00101148 -4.98704e-07 0)
(0.00101184 -4.42899e-07 0)
(0.00101215 -3.85274e-07 0)
(0.00101243 -3.25903e-07 0)
(0.00101265 -2.64664e-07 0)
(0.00101283 -2.01597e-07 0)
(0.00101297 -1.36392e-07 0)
(0.00101305 -6.91418e-08 0)
(0.00101308 7.37579e-10 0)
(0.00101306 7.28865e-08 0)
(0.00101298 1.48577e-07 0)
(0.00101285 2.26878e-07 0)
(0.00101265 3.10113e-07 0)
(0.0010124 3.95945e-07 0)
(0.00101207 4.89032e-07 0)
(0.00101168 5.84283e-07 0)
(0.00101121 6.89985e-07 0)
(0.00101066 7.97337e-07 0)
(0.00101003 9.18911e-07 0)
(0.00100931 1.04152e-06 0)
(0.00100848 1.1838e-06 0)
(0.00100756 1.32439e-06 0)
(0.00100651 1.49428e-06 0)
(0.00100535 1.65612e-06 0)
(0.00100405 1.86165e-06 0)
(0.0010026 2.0488e-06 0)
(0.001001 2.30128e-06 0)
(0.000999216 2.51626e-06 0)
(0.000997239 2.83147e-06 4.79116e-38)
(0.000995057 3.07522e-06 0)
(0.000992641 3.4739e-06 0)
(0.001 -7.63164e-08 0)
(0.00100003 -2.2839e-07 0)
(0.00100015 -3.7892e-07 0)
(0.00100022 -5.26539e-07 0)
(0.00100037 -6.7144e-07 0)
(0.00100067 -8.14204e-07 0)
(0.00100083 -9.53135e-07 0)
(0.00100101 -1.08546e-06 0)
(0.00100147 -1.21117e-06 0)
(0.00100178 -1.33336e-06 0)
(0.00100177 -1.45397e-06 0)
(0.00100214 -1.57019e-06 0)
(0.00100303 -1.67624e-06 0)
(0.00100367 -1.76932e-06 0)
(0.00100377 -1.85364e-06 0)
(0.00100395 -1.93817e-06 0)
(0.00100459 -2.0299e-06 0)
(0.00100538 -2.12833e-06 0)
(0.00100594 -2.22486e-06 0)
(0.00100638 -2.30637e-06 0)
(0.00100693 -2.36018e-06 0)
(0.00100757 -2.37793e-06 0)
(0.00100821 -2.35713e-06 0)
(0.00100879 -2.30035e-06 0)
(0.00100935 -2.21314e-06 0)
(0.0010099 -2.10198e-06 0)
(0.00101043 -1.9728e-06 0)
(0.00101091 -1.83029e-06 0)
(0.00101136 -1.67784e-06 0)
(0.00101177 -1.51761e-06 0)
(0.00101214 -1.35095e-06 0)
(0.00101247 -1.17852e-06 0)
(0.00101275 -1.00076e-06 0)
(0.00101298 -8.17525e-07 0)
(0.00101318 -6.29003e-07 0)
(0.00101332 -4.34384e-07 0)
(0.00101342 -2.33944e-07 0)
(0.00101346 -2.60123e-08 0)
(0.00101345 1.88368e-07 0)
(0.00101339 4.12858e-07 0)
(0.00101328 6.44882e-07 0)
(0.00101311 8.91023e-07 0)
(0.00101287 1.14477e-06 0)
(0.00101258 1.41925e-06 0)
(0.00101221 1.70031e-06 0)
(0.00101178 2.0112e-06 0)
(0.00101127 2.32741e-06 0)
(0.00101068 2.68425e-06 0)
(0.00101001 3.04487e-06 0)
(0.00100924 3.46159e-06 0)
(0.00100838 3.87484e-06 0)
(0.00100741 4.37126e-06 0)
(0.00100632 4.84679e-06 0)
(0.00100511 5.44611e-06 0)
(0.00100376 5.99594e-06 0)
(0.00100226 6.73031e-06 0)
(0.0010006 7.36255e-06 0)
(0.00099876 8.27685e-06 0)
(0.000996728 8.9952e-06 0)
(0.000994465 1.01482e-05 0)
(0.001 -1.30141e-07 0)
(0.00100003 -3.89366e-07 0)
(0.00100015 -6.45877e-07 0)
(0.00100024 -8.97419e-07 0)
(0.00100039 -1.14412e-06 0)
(0.0010007 -1.38673e-06 0)
(0.00100088 -1.62253e-06 0)
(0.00100108 -1.84718e-06 0)
(0.00100156 -2.06051e-06 0)
(0.00100189 -2.26721e-06 0)
(0.00100191 -2.47025e-06 0)
(0.00100229 -2.66537e-06 0)
(0.0010032 -2.84367e-06 0)
(0.00100388 -3.00065e-06 0)
(0.001004 -3.14275e-06 0)
(0.0010042 -3.28397e-06 0)
(0.00100487 -3.43548e-06 0)
(0.00100568 -3.59683e-06 0)
(0.00100627 -3.75471e-06 0)
(0.00100674 -3.88837e-06 0)
(0.0010073 -3.97733e-06 0)
(0.00100798 -4.00764e-06 0)
(0.00100864 -3.97459e-06 0)
(0.00100925 -3.88174e-06 0)
(0.00100983 -3.73774e-06 0)
(0.00101041 -3.55306e-06 0)
(0.00101095 -3.33756e-06 0)
(0.00101146 -3.09927e-06 0)
(0.00101193 -2.84412e-06 0)
(0.00101236 -2.57606e-06 0)
(0.00101275 -2.29765e-06 0)
(0.00101309 -2.01022e-06 0)
(0.00101339 -1.71467e-06 0)
(0.00101364 -1.41093e-06 0)
(0.00101386 -1.09934e-06 0)
(0.00101402 -7.78743e-07 0)
(0.00101414 -4.49507e-07 0)
(0.00101421 -1.09078e-07 0)
(0.00101423 2.4118e-07 0)
(0.0010142 6.06529e-07 0)
(0.00101412 9.83616e-07 0)
(0.00101399 1.38197e-06 0)
(0.0010138 1.79257e-06 0)
(0.00101356 2.23449e-06 0)
(0.00101325 2.68765e-06 0)
(0.00101289 3.18593e-06 0)
(0.00101245 3.6943e-06 0)
(0.00101195 4.2639e-06 0)
(0.00101137 4.84244e-06 0)
(0.00101071 5.50503e-06 0)