/*--------------------------------*- C++ -*----------------------------------*\
| =========                 |                                                 |
| \\      /  F ield         | OpenFOAM: The Open Source CFD Toolbox           |
|  \\    /   O peration     | Version:  2312                                  |
|   \\  /    A nd           | Website:  www.openfoam.com                      |
|    \\/     M anipulation  |                                                 |
\*---------------------------------------------------------------------------*/
FoamFile
{
    version     2.0;
    format      ascii;
    arch        "LSB;label=32;scalar=64";
    class       volScalarField;
    location    "53000";
    object      p;
}
// * * * * * * * * * * * * * * * * * * * * * * * * * * * * * * * * * * * * * //

dimensions      [0 2 -2 0 0 0 0];

internalField   nonuniform List<scalar> 
10800
(
4.87545e-07
4.73422e-07
4.59655e-07
4.49078e-07
4.41655e-07
4.36264e-07
4.31813e-07
4.27734e-07
4.23859e-07
4.20194e-07
4.16778e-07
4.13614e-07
4.10668e-07
4.07891e-07
4.05237e-07
4.02671e-07
4.00173e-07
3.97729e-07
3.95328e-07
3.92962e-07
3.90623e-07
3.88302e-07
3.85993e-07
3.8369e-07
3.81389e-07
3.79087e-07
3.76779e-07
3.74465e-07
3.7214e-07
3.69805e-07
3.67458e-07
3.65097e-07
3.62722e-07
3.60333e-07
3.5793e-07
3.55512e-07
3.53081e-07
3.50636e-07
3.48177e-07
3.45705e-07
3.43221e-07
3.40725e-07
3.38216e-07
3.35696e-07
3.33164e-07
3.30619e-07
3.28062e-07
3.25488e-07
3.22902e-07
3.20288e-07
3.17668e-07
3.1499e-07
3.12336e-07
3.09534e-07
3.06885e-07
3.03751e-07
3.01392e-07
2.96983e-07
2.96674e-07
2.86074e-07
4.39501e-07
4.37774e-07
4.35129e-07
4.32003e-07
4.28787e-07
4.25693e-07
4.2277e-07
4.19983e-07
4.17282e-07
4.14635e-07
4.12037e-07
4.09494e-07
4.07012e-07
4.04591e-07
4.02225e-07
3.99904e-07
3.97619e-07
3.95363e-07
3.93129e-07
3.90913e-07
3.8871e-07
3.86516e-07
3.84327e-07
3.82141e-07
3.79954e-07
3.77763e-07
3.75567e-07
3.73363e-07
3.71151e-07
3.68927e-07
3.66693e-07
3.64445e-07
3.62185e-07
3.59912e-07
3.57626e-07
3.55324e-07
3.53012e-07
3.50683e-07
3.48344e-07
3.45988e-07
3.43625e-07
3.41242e-07
3.38856e-07
3.36444e-07
3.34038e-07
3.31596e-07
3.29173e-07
3.26697e-07
3.24265e-07
3.21751e-07
3.19331e-07
3.1678e-07
3.14425e-07
3.11858e-07
3.09702e-07
3.07184e-07
3.05563e-07
3.03174e-07
3.02696e-07
3.0002e-07
4.3076e-07
4.30009e-07
4.28596e-07
4.26644e-07
4.2436e-07
4.21939e-07
4.19509e-07
4.1712e-07
4.14774e-07
4.12458e-07
4.10165e-07
4.07893e-07
4.05647e-07
4.03434e-07
4.01253e-07
3.99104e-07
3.96983e-07
3.94883e-07
3.92802e-07
3.90734e-07
3.88678e-07
3.86628e-07
3.84585e-07
3.82544e-07
3.80503e-07
3.78461e-07
3.76415e-07
3.74364e-07
3.72307e-07
3.70243e-07
3.6817e-07
3.66087e-07
3.63995e-07
3.61892e-07
3.5978e-07
3.57655e-07
3.55521e-07
3.53374e-07
3.51219e-07
3.49048e-07
3.46872e-07
3.44678e-07
3.42481e-07
3.40263e-07
3.38047e-07
3.35805e-07
3.33574e-07
3.31307e-07
3.29067e-07
3.26779e-07
3.24541e-07
3.22237e-07
3.20023e-07
3.17713e-07
3.15559e-07
3.13256e-07
3.11214e-07
3.08925e-07
3.07034e-07
3.04664e-07
4.19024e-07
4.18592e-07
4.17805e-07
4.16715e-07
4.1539e-07
4.13902e-07
4.12307e-07
4.10646e-07
4.08938e-07
4.07196e-07
4.05425e-07
4.0363e-07
4.01819e-07
3.99997e-07
3.98169e-07
3.96338e-07
3.94506e-07
3.92672e-07
3.90837e-07
3.89e-07
3.87161e-07
3.85319e-07
3.83473e-07
3.81622e-07
3.79767e-07
3.77907e-07
3.7604e-07
3.74167e-07
3.72287e-07
3.70399e-07
3.68504e-07
3.666e-07
3.64689e-07
3.62769e-07
3.60841e-07
3.58905e-07
3.56961e-07
3.55007e-07
3.53047e-07
3.51076e-07
3.49099e-07
3.47111e-07
3.45116e-07
3.43108e-07
3.41094e-07
3.39064e-07
3.37027e-07
3.34969e-07
3.32904e-07
3.30811e-07
3.28711e-07
3.26573e-07
3.24432e-07
3.22242e-07
3.20054e-07
3.17803e-07
3.15563e-07
3.13243e-07
3.1095e-07
3.08576e-07
4.12323e-07
4.12109e-07
4.11678e-07
4.11032e-07
4.10188e-07
4.09175e-07
4.08024e-07
4.06767e-07
4.05428e-07
4.04024e-07
4.02567e-07
4.01067e-07
3.99531e-07
3.97965e-07
3.96375e-07
3.94766e-07
3.93141e-07
3.91504e-07
3.89855e-07
3.88198e-07
3.86532e-07
3.84858e-07
3.83177e-07
3.81489e-07
3.79795e-07
3.78095e-07
3.76389e-07
3.74677e-07
3.7296e-07
3.71238e-07
3.6951e-07
3.67777e-07
3.6604e-07
3.64298e-07
3.62552e-07
3.60801e-07
3.59047e-07
3.57288e-07
3.55526e-07
3.5376e-07
3.5199e-07
3.50216e-07
3.48437e-07
3.46654e-07
3.44865e-07
3.43069e-07
3.41266e-07
3.39454e-07
3.37631e-07
3.35794e-07
3.33938e-07
3.32057e-07
3.30139e-07
3.28174e-07
3.26143e-07
3.24035e-07
3.21838e-07
3.19563e-07
3.17213e-07
3.14883e-07
4.06802e-07
4.06639e-07
4.06314e-07
4.0583e-07
4.05197e-07
4.04431e-07
4.0355e-07
4.02573e-07
4.01514e-07
4.00386e-07
3.992e-07
3.97963e-07
3.96682e-07
3.95362e-07
3.94008e-07
3.92626e-07
3.91219e-07
3.89791e-07
3.88345e-07
3.86882e-07
3.85405e-07
3.83916e-07
3.82415e-07
3.80904e-07
3.79384e-07
3.77856e-07
3.76321e-07
3.7478e-07
3.73234e-07
3.71683e-07
3.70128e-07
3.68569e-07
3.67007e-07
3.65444e-07
3.63879e-07
3.62312e-07
3.60745e-07
3.59177e-07
3.5761e-07
3.56042e-07
3.54474e-07
3.52906e-07
3.51336e-07
3.49766e-07
3.48191e-07
3.46612e-07
3.45025e-07
3.43429e-07
3.41819e-07
3.40194e-07
3.38547e-07
3.36883e-07
3.35193e-07
3.33482e-07
3.31727e-07
3.2993e-07
3.28056e-07
3.26128e-07
3.24142e-07
3.22224e-07
4.02454e-07
4.02335e-07
4.02098e-07
4.01742e-07
4.01272e-07
4.00694e-07
4.00018e-07
3.99254e-07
3.98411e-07
3.975e-07
3.96527e-07
3.95501e-07
3.94425e-07
3.93307e-07
3.9215e-07
3.90958e-07
3.89737e-07
3.88488e-07
3.87217e-07
3.85924e-07
3.84614e-07
3.83288e-07
3.81948e-07
3.80596e-07
3.79233e-07
3.77862e-07
3.76483e-07
3.75099e-07
3.7371e-07
3.72317e-07
3.70923e-07
3.69527e-07
3.68131e-07
3.66736e-07
3.65343e-07
3.63952e-07
3.62565e-07
3.61183e-07
3.59805e-07
3.58434e-07
3.57068e-07
3.55708e-07
3.54354e-07
3.53007e-07
3.51666e-07
3.50331e-07
3.49e-07
3.47674e-07
3.46348e-07
3.4502e-07
3.4368e-07
3.42324e-07
3.40942e-07
3.39534e-07
3.38091e-07
3.36626e-07
3.35117e-07
3.33588e-07
3.32037e-07
3.30578e-07
3.99001e-07
3.98909e-07
3.98724e-07
3.98445e-07
3.98074e-07
3.97614e-07
3.97072e-07
3.96452e-07
3.95762e-07
3.95006e-07
3.94192e-07
3.93324e-07
3.92407e-07
3.91446e-07
3.90446e-07
3.8941e-07
3.88343e-07
3.87248e-07
3.86127e-07
3.84984e-07
3.83822e-07
3.82643e-07
3.81449e-07
3.80243e-07
3.79026e-07
3.778e-07
3.76568e-07
3.7533e-07
3.7409e-07
3.72847e-07
3.71604e-07
3.70363e-07
3.69125e-07
3.67891e-07
3.66662e-07
3.65441e-07
3.64228e-07
3.63024e-07
3.61831e-07
3.60649e-07
3.5948e-07
3.58325e-07
3.57183e-07
3.56055e-07
3.54941e-07
3.53842e-07
3.52756e-07
3.51683e-07
3.50622e-07
3.49575e-07
3.48539e-07
3.47512e-07
3.46482e-07
3.45452e-07
3.44409e-07
3.43364e-07
3.42305e-07
3.41259e-07
3.40234e-07
3.39334e-07
3.96236e-07
3.96161e-07
3.96009e-07
3.95781e-07
3.95476e-07
3.95098e-07
3.94648e-07
3.94131e-07
3.93552e-07
3.92914e-07
3.92222e-07
3.91479e-07
3.90691e-07
3.8986e-07
3.88991e-07
3.88087e-07
3.87152e-07
3.86188e-07
3.85199e-07
3.84188e-07
3.83157e-07
3.82108e-07
3.81045e-07
3.7997e-07
3.78884e-07
3.77791e-07
3.76692e-07
3.75589e-07
3.74484e-07
3.7338e-07
3.72278e-07
3.7118e-07
3.70088e-07
3.69004e-07
3.6793e-07
3.66867e-07
3.65818e-07
3.64784e-07
3.63766e-07
3.62768e-07
3.61789e-07
3.60832e-07
3.59898e-07
3.58989e-07
3.58106e-07
3.5725e-07
3.56422e-07
3.55624e-07
3.54852e-07
3.54108e-07
3.53388e-07
3.52696e-07
3.5203e-07
3.51393e-07
3.50778e-07
3.50192e-07
3.4963e-07
3.49112e-07
3.48651e-07
3.48335e-07
3.94032e-07
3.93969e-07
3.93841e-07
3.93648e-07
3.93391e-07
3.9307e-07
3.92687e-07
3.92246e-07
3.9175e-07
3.91201e-07
3.90603e-07
3.89959e-07
3.89272e-07
3.88546e-07
3.87783e-07
3.86986e-07
3.8616e-07
3.85305e-07
3.84427e-07
3.83526e-07
3.82606e-07
3.8167e-07
3.80719e-07
3.79757e-07
3.78786e-07
3.77808e-07
3.76826e-07
3.75841e-07
3.74857e-07
3.73875e-07
3.72898e-07
3.71929e-07
3.70968e-07
3.7002e-07
3.69085e-07
3.68166e-07
3.67267e-07
3.66388e-07
3.65532e-07
3.64702e-07
3.639e-07
3.63129e-07
3.6239e-07
3.61686e-07
3.6102e-07
3.60393e-07
3.59809e-07
3.5927e-07
3.58774e-07
3.58326e-07
3.57926e-07
3.57579e-07
3.57285e-07
3.57049e-07
3.56868e-07
3.5675e-07
3.56695e-07
3.56721e-07
3.56844e-07
3.57137e-07
3.92302e-07
3.92247e-07
3.92136e-07
3.91969e-07
3.91745e-07
3.91466e-07
3.91133e-07
3.90748e-07
3.90314e-07
3.89832e-07
3.89306e-07
3.88737e-07
3.88129e-07
3.87484e-07
3.86805e-07
3.86094e-07
3.85355e-07
3.84589e-07
3.838e-07
3.8299e-07
3.82163e-07
3.81319e-07
3.80463e-07
3.79596e-07
3.78721e-07
3.77842e-07
3.76959e-07
3.76076e-07
3.75195e-07
3.74319e-07
3.73451e-07
3.72593e-07
3.71747e-07
3.70917e-07
3.70105e-07
3.69314e-07
3.68547e-07
3.67806e-07
3.67095e-07
3.66417e-07
3.65775e-07
3.65171e-07
3.6461e-07
3.64095e-07
3.63629e-07
3.63216e-07
3.62859e-07
3.6256e-07
3.62324e-07
3.62156e-07
3.62059e-07
3.6204e-07
3.621e-07
3.62247e-07
3.62483e-07
3.62817e-07
3.63253e-07
3.63809e-07
3.64502e-07
3.65388e-07
3.90983e-07
3.90934e-07
3.90835e-07
3.90686e-07
3.90487e-07
3.90238e-07
3.89941e-07
3.89597e-07
3.89208e-07
3.88775e-07
3.88302e-07
3.8779e-07
3.87242e-07
3.86659e-07
3.86043e-07
3.85399e-07
3.84727e-07
3.84031e-07
3.83313e-07
3.82575e-07
3.8182e-07
3.81051e-07
3.80271e-07
3.79481e-07
3.78685e-07
3.77884e-07
3.77083e-07
3.76283e-07
3.75488e-07
3.74699e-07
3.73921e-07
3.73155e-07
3.72405e-07
3.71673e-07
3.70964e-07
3.7028e-07
3.69624e-07
3.69e-07
3.68411e-07
3.67862e-07
3.67355e-07
3.66895e-07
3.66487e-07
3.66133e-07
3.65839e-07
3.6561e-07
3.65449e-07
3.65362e-07
3.65355e-07
3.65435e-07
3.65607e-07
3.65878e-07
3.66255e-07
3.66745e-07
3.67356e-07
3.68098e-07
3.68981e-07
3.70019e-07
3.71233e-07
3.72664e-07
3.90029e-07
3.89984e-07
3.89894e-07
3.89757e-07
3.89575e-07
3.89347e-07
3.89075e-07
3.88759e-07
3.88402e-07
3.88005e-07
3.8757e-07
3.87098e-07
3.86592e-07
3.86054e-07
3.85486e-07
3.84889e-07
3.84267e-07
3.83622e-07
3.82956e-07
3.82272e-07
3.81572e-07
3.80859e-07
3.80135e-07
3.79404e-07
3.78667e-07
3.77927e-07
3.77188e-07
3.76451e-07
3.75721e-07
3.74999e-07
3.74289e-07
3.73595e-07
3.72918e-07
3.72264e-07
3.71634e-07
3.71033e-07
3.70464e-07
3.69931e-07
3.69438e-07
3.6899e-07
3.6859e-07
3.68244e-07
3.67955e-07
3.6773e-07
3.67573e-07
3.67491e-07
3.67489e-07
3.67573e-07
3.67752e-07
3.68032e-07
3.68423e-07
3.68931e-07
3.69566e-07
3.70339e-07
3.71259e-07
3.72338e-07
3.7359e-07
3.7503e-07
3.76678e-07
3.78564e-07
3.89408e-07
3.89366e-07
3.89281e-07
3.89153e-07
3.88982e-07
3.88767e-07
3.8851e-07
3.88213e-07
3.87876e-07
3.87502e-07
3.87091e-07
3.86645e-07
3.86167e-07
3.85658e-07
3.8512e-07
3.84555e-07
3.83966e-07
3.83354e-07
3.82723e-07
3.82075e-07
3.81411e-07
3.80735e-07
3.80049e-07
3.79356e-07
3.78659e-07
3.7796e-07
3.77262e-07
3.76569e-07
3.75882e-07
3.75206e-07
3.74543e-07
3.73897e-07
3.73271e-07
3.72668e-07
3.72093e-07
3.71549e-07
3.71039e-07
3.70569e-07
3.70142e-07
3.69764e-07
3.69438e-07
3.6917e-07
3.68965e-07
3.6883e-07
3.68768e-07
3.68788e-07
3.68897e-07
3.69101e-07
3.6941e-07
3.69832e-07
3.70376e-07
3.71052e-07
3.71871e-07
3.72844e-07
3.73984e-07
3.75304e-07
3.76821e-07
3.78549e-07
3.80511e-07
3.82725e-07
3.89102e-07
3.89061e-07
3.88979e-07
3.88855e-07
3.88688e-07
3.8848e-07
3.88231e-07
3.87943e-07
3.87616e-07
3.87252e-07
3.86853e-07
3.86421e-07
3.85956e-07
3.85461e-07
3.84938e-07
3.84389e-07
3.83816e-07
3.83221e-07
3.82607e-07
3.81976e-07
3.81331e-07
3.80673e-07
3.80006e-07
3.79333e-07
3.78655e-07
3.77977e-07
3.773e-07
3.76628e-07
3.75964e-07
3.7531e-07
3.74671e-07
3.74049e-07
3.73448e-07
3.72872e-07
3.72325e-07
3.71809e-07
3.7133e-07
3.70892e-07
3.70499e-07
3.70156e-07
3.69867e-07
3.6964e-07
3.69478e-07
3.69387e-07
3.69375e-07
3.69448e-07
3.69614e-07
3.6988e-07
3.70256e-07
3.70751e-07
3.71375e-07
3.72137e-07
3.73051e-07
3.74128e-07
3.75382e-07
3.76828e-07
3.78483e-07
3.80362e-07
3.82488e-07
3.84874e-07
3.891e-07
3.89059e-07
3.88977e-07
3.88853e-07
3.88686e-07
3.88478e-07
3.8823e-07
3.87941e-07
3.87614e-07
3.87251e-07
3.86852e-07
3.86419e-07
3.85954e-07
3.85459e-07
3.84936e-07
3.84387e-07
3.83814e-07
3.83219e-07
3.82605e-07
3.81974e-07
3.81328e-07
3.80671e-07
3.80004e-07
3.7933e-07
3.78653e-07
3.77974e-07
3.77297e-07
3.76625e-07
3.75961e-07
3.75307e-07
3.74668e-07
3.74046e-07
3.73445e-07
3.72869e-07
3.72321e-07
3.71805e-07
3.71326e-07
3.70888e-07
3.70495e-07
3.70151e-07
3.69863e-07
3.69635e-07
3.69473e-07
3.69382e-07
3.6937e-07
3.69442e-07
3.69608e-07
3.69874e-07
3.7025e-07
3.70745e-07
3.71368e-07
3.7213e-07
3.73044e-07
3.7412e-07
3.75374e-07
3.76819e-07
3.78474e-07
3.80353e-07
3.82478e-07
3.84864e-07
3.89403e-07
3.89361e-07
3.89276e-07
3.89148e-07
3.88976e-07
3.88762e-07
3.88505e-07
3.88208e-07
3.87871e-07
3.87496e-07
3.87085e-07
3.86639e-07
3.86161e-07
3.85652e-07
3.85114e-07
3.84549e-07
3.83959e-07
3.83348e-07
3.82716e-07
3.82068e-07
3.81404e-07
3.80728e-07
3.80042e-07
3.79348e-07
3.78651e-07
3.77952e-07
3.77254e-07
3.7656e-07
3.75873e-07
3.75197e-07
3.74533e-07
3.73887e-07
3.7326e-07
3.72657e-07
3.72082e-07
3.71537e-07
3.71027e-07
3.70557e-07
3.7013e-07
3.69751e-07
3.69424e-07
3.69156e-07
3.68951e-07
3.68814e-07
3.68753e-07
3.68772e-07
3.6888e-07
3.69083e-07
3.69392e-07
3.69813e-07
3.70356e-07
3.71031e-07
3.71849e-07
3.7282e-07
3.7396e-07
3.75279e-07
3.76794e-07
3.78522e-07
3.80482e-07
3.82695e-07
3.9002e-07
3.89975e-07
3.89885e-07
3.89748e-07
3.89566e-07
3.89338e-07
3.89066e-07
3.8875e-07
3.88393e-07
3.87996e-07
3.8756e-07
3.87089e-07
3.86582e-07
3.86044e-07
3.85475e-07
3.84879e-07
3.84257e-07
3.83611e-07
3.82945e-07
3.82261e-07
3.81561e-07
3.80847e-07
3.80123e-07
3.79391e-07
3.78653e-07
3.77913e-07
3.77174e-07
3.76437e-07
3.75706e-07
3.74984e-07
3.74273e-07
3.73578e-07
3.72901e-07
3.72246e-07
3.71616e-07
3.71014e-07
3.70444e-07
3.69911e-07
3.69417e-07
3.68968e-07
3.68568e-07
3.6822e-07
3.67931e-07
3.67705e-07
3.67547e-07
3.67464e-07
3.6746e-07
3.67544e-07
3.67721e-07
3.68e-07
3.68389e-07
3.68896e-07
3.6953e-07
3.70301e-07
3.71219e-07
3.72296e-07
3.73546e-07
3.74984e-07
3.76631e-07
3.78514e-07
3.90971e-07
3.90922e-07
3.90823e-07
3.90674e-07
3.90475e-07
3.90226e-07
3.89928e-07
3.89584e-07
3.89195e-07
3.88762e-07
3.88289e-07
3.87777e-07
3.87228e-07
3.86645e-07
3.86029e-07
3.85384e-07
3.84712e-07
3.84016e-07
3.83297e-07
3.82559e-07
3.81804e-07
3.81035e-07
3.80254e-07
3.79463e-07
3.78666e-07
3.77866e-07
3.77064e-07
3.76263e-07
3.75467e-07
3.74678e-07
3.73899e-07
3.73132e-07
3.72381e-07
3.71649e-07
3.70939e-07
3.70254e-07
3.69597e-07
3.68972e-07
3.68382e-07
3.67832e-07
3.67324e-07
3.66863e-07
3.66453e-07
3.66098e-07
3.65803e-07
3.65572e-07
3.65409e-07
3.65321e-07
3.65312e-07
3.6539e-07
3.6556e-07
3.6583e-07
3.66205e-07
3.66693e-07
3.67302e-07
3.68041e-07
3.68921e-07
3.69957e-07
3.71168e-07
3.72596e-07
3.92287e-07
3.92232e-07
3.92121e-07
3.91953e-07
3.9173e-07
3.9145e-07
3.91117e-07
3.90732e-07
3.90297e-07
3.89816e-07
3.89289e-07
3.8872e-07
3.88112e-07
3.87466e-07
3.86787e-07
3.86076e-07
3.85336e-07
3.8457e-07
3.8378e-07
3.8297e-07
3.82142e-07
3.81298e-07
3.80441e-07
3.79574e-07
3.78698e-07
3.77818e-07
3.76934e-07
3.76051e-07
3.75169e-07
3.74292e-07
3.73423e-07
3.72564e-07
3.71717e-07
3.70886e-07
3.70073e-07
3.69281e-07
3.68513e-07
3.67771e-07
3.67058e-07
3.66379e-07
3.65735e-07
3.6513e-07
3.64568e-07
3.64051e-07
3.63583e-07
3.63168e-07
3.62809e-07
3.62508e-07
3.6227e-07
3.62099e-07
3.62001e-07
3.61979e-07
3.62037e-07
3.62181e-07
3.62414e-07
3.62745e-07
3.63178e-07
3.63731e-07
3.6442e-07
3.65303e-07
3.94014e-07
3.9395e-07
3.93822e-07
3.93629e-07
3.93372e-07
3.9305e-07
3.92668e-07
3.92227e-07
3.9173e-07
3.91181e-07
3.90583e-07
3.89938e-07
3.89251e-07
3.88524e-07
3.87761e-07
3.86964e-07
3.86137e-07
3.85282e-07
3.84403e-07
3.83502e-07
3.82581e-07
3.81644e-07
3.80693e-07
3.7973e-07
3.78758e-07
3.77779e-07
3.76796e-07
3.75811e-07
3.74826e-07
3.73843e-07
3.72865e-07
3.71894e-07
3.70933e-07
3.69983e-07
3.69047e-07
3.68127e-07
3.67226e-07
3.66345e-07
3.65488e-07
3.64656e-07
3.63853e-07
3.63079e-07
3.62339e-07
3.61633e-07
3.60964e-07
3.60336e-07
3.59749e-07
3.59208e-07
3.5871e-07
3.58259e-07
3.57857e-07
3.57507e-07
3.57209e-07
3.5697e-07
3.56785e-07
3.56665e-07
3.56605e-07
3.56628e-07
3.56747e-07
3.57036e-07
3.96214e-07
3.96139e-07
3.95987e-07
3.95759e-07
3.95454e-07
3.95075e-07
3.94626e-07
3.94109e-07
3.93529e-07
3.92891e-07
3.92198e-07
3.91456e-07
3.90667e-07
3.89836e-07
3.88966e-07
3.88062e-07
3.87126e-07
3.86162e-07
3.85172e-07
3.8416e-07
3.83128e-07
3.82079e-07
3.81015e-07
3.79939e-07
3.78852e-07
3.77758e-07
3.76658e-07
3.75554e-07
3.74448e-07
3.73343e-07
3.72239e-07
3.7114e-07
3.70047e-07
3.68961e-07
3.67886e-07
3.66821e-07
3.6577e-07
3.64735e-07
3.63715e-07
3.62715e-07
3.61734e-07
3.60775e-07
3.59839e-07
3.58928e-07
3.58042e-07
3.57184e-07
3.56354e-07
3.55552e-07
3.54778e-07
3.54031e-07
3.53308e-07
3.52613e-07
3.51943e-07
3.51302e-07
3.50683e-07
3.50094e-07
3.49527e-07
3.49006e-07
3.4854e-07
3.48219e-07
3.98977e-07
3.98885e-07
3.98699e-07
3.9842e-07
3.98049e-07
3.97589e-07
3.97047e-07
3.96427e-07
3.95736e-07
3.9498e-07
3.94166e-07
3.93297e-07
3.9238e-07
3.91418e-07
3.90418e-07
3.89382e-07
3.88314e-07
3.87218e-07
3.86096e-07
3.84953e-07
3.8379e-07
3.8261e-07
3.81415e-07
3.80208e-07
3.7899e-07
3.77763e-07
3.76529e-07
3.75291e-07
3.74049e-07
3.72805e-07
3.71561e-07
3.70318e-07
3.69078e-07
3.67843e-07
3.66613e-07
3.65389e-07
3.64174e-07
3.62969e-07
3.61774e-07
3.6059e-07
3.59419e-07
3.58261e-07
3.57117e-07
3.55987e-07
3.5487e-07
3.53768e-07
3.52679e-07
3.51603e-07
3.50539e-07
3.49489e-07
3.48449e-07
3.47418e-07
3.46385e-07
3.45351e-07
3.44303e-07
3.43254e-07
3.42191e-07
3.4114e-07
3.40111e-07
3.39205e-07
4.02427e-07
4.02309e-07
4.02071e-07
4.01715e-07
4.01244e-07
4.00666e-07
3.9999e-07
3.99226e-07
3.98383e-07
3.97471e-07
3.96498e-07
3.95471e-07
3.94395e-07
3.93276e-07
3.92118e-07
3.90926e-07
3.89704e-07
3.88455e-07
3.87183e-07
3.8589e-07
3.84578e-07
3.83251e-07
3.8191e-07
3.80557e-07
3.79193e-07
3.77821e-07
3.76441e-07
3.75056e-07
3.73665e-07
3.72271e-07
3.70875e-07
3.69477e-07
3.6808e-07
3.66683e-07
3.65288e-07
3.63896e-07
3.62507e-07
3.61122e-07
3.59743e-07
3.58369e-07
3.57e-07
3.55638e-07
3.54281e-07
3.52932e-07
3.51587e-07
3.5025e-07
3.48916e-07
3.47587e-07
3.46257e-07
3.44926e-07
3.43582e-07
3.42223e-07
3.40835e-07
3.39423e-07
3.37976e-07
3.36506e-07
3.34993e-07
3.33459e-07
3.31903e-07
3.30438e-07
4.06773e-07
4.0661e-07
4.06285e-07
4.05801e-07
4.05168e-07
4.04402e-07
4.03521e-07
4.02543e-07
4.01483e-07
4.00355e-07
3.99169e-07
3.97931e-07
3.96649e-07
3.95329e-07
3.93975e-07
3.92592e-07
3.91184e-07
3.89756e-07
3.88308e-07
3.86845e-07
3.85367e-07
3.83876e-07
3.82374e-07
3.80862e-07
3.79341e-07
3.77812e-07
3.76276e-07
3.74733e-07
3.73186e-07
3.71633e-07
3.70076e-07
3.68516e-07
3.66952e-07
3.65387e-07
3.6382e-07
3.62251e-07
3.60682e-07
3.59112e-07
3.57542e-07
3.55972e-07
3.54401e-07
3.5283e-07
3.51258e-07
3.49684e-07
3.48107e-07
3.46525e-07
3.44934e-07
3.43335e-07
3.4172e-07
3.40091e-07
3.38441e-07
3.36773e-07
3.35078e-07
3.33363e-07
3.31603e-07
3.29802e-07
3.27923e-07
3.2599e-07
3.23998e-07
3.22075e-07
4.12292e-07
4.12078e-07
4.11647e-07
4.11001e-07
4.10157e-07
4.09143e-07
4.07992e-07
4.06735e-07
4.05395e-07
4.03991e-07
4.02534e-07
4.01033e-07
3.99497e-07
3.9793e-07
3.96339e-07
3.94729e-07
3.93104e-07
3.91465e-07
3.89816e-07
3.88158e-07
3.86491e-07
3.84816e-07
3.83134e-07
3.81445e-07
3.79749e-07
3.78048e-07
3.76341e-07
3.74627e-07
3.72909e-07
3.71184e-07
3.69455e-07
3.67721e-07
3.65981e-07
3.64237e-07
3.62489e-07
3.60736e-07
3.5898e-07
3.57219e-07
3.55454e-07
3.53685e-07
3.51913e-07
3.50136e-07
3.48354e-07
3.46567e-07
3.44775e-07
3.42976e-07
3.4117e-07
3.39354e-07
3.37527e-07
3.35687e-07
3.33826e-07
3.31941e-07
3.30018e-07
3.28049e-07
3.26013e-07
3.239e-07
3.21697e-07
3.19417e-07
3.17061e-07
3.14726e-07
4.18992e-07
4.18559e-07
4.17772e-07
4.16682e-07
4.15357e-07
4.13868e-07
4.12274e-07
4.10612e-07
4.08904e-07
4.07161e-07
4.0539e-07
4.03595e-07
4.01783e-07
3.9996e-07
3.98131e-07
3.96299e-07
3.94466e-07
3.92632e-07
3.90796e-07
3.88958e-07
3.87118e-07
3.85274e-07
3.83427e-07
3.81576e-07
3.79719e-07
3.77857e-07
3.75989e-07
3.74114e-07
3.72232e-07
3.70343e-07
3.68446e-07
3.6654e-07
3.64627e-07
3.62705e-07
3.60775e-07
3.58837e-07
3.5689e-07
3.54934e-07
3.52971e-07
3.50998e-07
3.49018e-07
3.47026e-07
3.45029e-07
3.43018e-07
3.41e-07
3.38966e-07
3.36926e-07
3.34864e-07
3.32795e-07
3.30698e-07
3.28594e-07
3.26451e-07
3.24305e-07
3.2211e-07
3.19917e-07
3.17661e-07
3.15415e-07
3.1309e-07
3.10791e-07
3.08412e-07
4.30726e-07
4.29976e-07
4.28562e-07
4.2661e-07
4.24325e-07
4.21905e-07
4.19475e-07
4.17085e-07
4.14738e-07
4.12422e-07
4.10129e-07
4.07856e-07
4.0561e-07
4.03395e-07
4.01214e-07
3.99064e-07
3.96942e-07
3.94842e-07
3.92759e-07
3.90691e-07
3.88633e-07
3.86582e-07
3.84537e-07
3.82495e-07
3.80453e-07
3.78409e-07
3.76362e-07
3.7431e-07
3.72251e-07
3.70184e-07
3.6811e-07
3.66025e-07
3.63931e-07
3.61826e-07
3.59712e-07
3.57584e-07
3.55448e-07
3.53298e-07
3.5114e-07
3.48967e-07
3.46787e-07
3.4459e-07
3.4239e-07
3.40169e-07
3.3795e-07
3.35704e-07
3.33469e-07
3.31199e-07
3.28954e-07
3.26662e-07
3.2442e-07
3.22111e-07
3.19893e-07
3.17578e-07
3.15419e-07
3.13111e-07
3.11063e-07
3.08768e-07
3.06871e-07
3.04495e-07
4.39467e-07
4.37739e-07
4.35094e-07
4.31969e-07
4.28752e-07
4.25658e-07
4.22734e-07
4.19947e-07
4.17245e-07
4.14598e-07
4.12e-07
4.09456e-07
4.06974e-07
4.04552e-07
4.02185e-07
3.99863e-07
3.97577e-07
3.9532e-07
3.93085e-07
3.90868e-07
3.88663e-07
3.86468e-07
3.84279e-07
3.82091e-07
3.79903e-07
3.77711e-07
3.75513e-07
3.73307e-07
3.71093e-07
3.68867e-07
3.66631e-07
3.64382e-07
3.6212e-07
3.59844e-07
3.57555e-07
3.55252e-07
3.52937e-07
3.50605e-07
3.48264e-07
3.45905e-07
3.43539e-07
3.41152e-07
3.38763e-07
3.36348e-07
3.33938e-07
3.31492e-07
3.29065e-07
3.26585e-07
3.24149e-07
3.21631e-07
3.19207e-07
3.16652e-07
3.14292e-07
3.11719e-07
3.09559e-07
3.07035e-07
3.05408e-07
3.03014e-07
3.0253e-07
2.99847e-07
4.8751e-07
4.73387e-07
4.5962e-07
4.49042e-07
4.4162e-07
4.36228e-07
4.31777e-07
4.27697e-07
4.23822e-07
4.20157e-07
4.1674e-07
4.13575e-07
4.10629e-07
4.07851e-07
4.05196e-07
4.02629e-07
4.0013e-07
3.97685e-07
3.95284e-07
3.92917e-07
3.90576e-07
3.88254e-07
3.85943e-07
3.83639e-07
3.81337e-07
3.79033e-07
3.76724e-07
3.74408e-07
3.72082e-07
3.69745e-07
3.67395e-07
3.65032e-07
3.62656e-07
3.60264e-07
3.57859e-07
3.55439e-07
3.53005e-07
3.50557e-07
3.48095e-07
3.45621e-07
3.43134e-07
3.40634e-07
3.38123e-07
3.35599e-07
3.33063e-07
3.30515e-07
3.27954e-07
3.25375e-07
3.22785e-07
3.20167e-07
3.17542e-07
3.1486e-07
3.12201e-07
3.09394e-07
3.0674e-07
3.03601e-07
3.01237e-07
2.96822e-07
2.96507e-07
2.85901e-07
3.25987e-07
2.75416e-07
2.54553e-07
2.36982e-07
2.194e-07
2.01639e-07
1.81839e-07
1.60654e-07
1.35953e-07
1.09341e-07
7.83879e-08
4.59594e-08
9.06879e-09
-2.79666e-08
-6.89116e-08
-1.07894e-07
-1.50046e-07
-1.87815e-07
-2.28132e-07
-2.61733e-07
-2.97444e-07
-3.24567e-07
-3.53674e-07
-3.7224e-07
-3.94373e-07
-4.0263e-07
-4.21517e-07
-4.16091e-07
-4.40471e-07
-5.22879e-07
3.12106e-07
2.56975e-07
2.43112e-07
2.2811e-07
2.11198e-07
1.93847e-07
1.74355e-07
1.53316e-07
1.28809e-07
1.02552e-07
7.22307e-08
4.06586e-08
4.94467e-09
-3.07637e-08
-7.01746e-08
-1.07686e-07
-1.48037e-07
-1.84355e-07
-2.22884e-07
-2.55592e-07
-2.90327e-07
-3.16802e-07
-3.46614e-07
-3.64648e-07
-3.88741e-07
-3.96717e-07
-4.15245e-07
-4.1853e-07
-4.19362e-07
-5.61542e-07
2.99925e-07
2.54516e-07
2.41702e-07
2.27167e-07
2.0976e-07
1.91423e-07
1.71412e-07
1.5003e-07
1.25477e-07
9.90854e-08
6.90022e-08
3.75237e-08
2.37269e-09
-3.29816e-08
-7.1504e-08
-1.08419e-07
-1.47834e-07
-1.83787e-07
-2.21903e-07
-2.54126e-07
-2.88641e-07
-3.15156e-07
-3.44163e-07
-3.63829e-07
-3.86044e-07
-3.99786e-07
-4.13678e-07
-4.32303e-07
-4.08395e-07
-5.09848e-07
2.8976e-07
2.50426e-07
2.3554e-07
2.21516e-07
2.04818e-07
1.87068e-07
1.67254e-07
1.45701e-07
1.21207e-07
9.46513e-08
6.49012e-08
3.34308e-08
-9.60149e-10
-3.61185e-08
-7.34399e-08
-1.10155e-07
-1.48096e-07
-1.83994e-07
-2.20141e-07
-2.53027e-07
-2.8531e-07
-3.14003e-07
-3.40701e-07
-3.64139e-07
-3.83171e-07
-4.03776e-07
-4.09272e-07
-4.40011e-07
-4.07768e-07
-4.78303e-07
2.7995e-07
2.47849e-07
2.32083e-07
2.1918e-07
2.03039e-07
1.84518e-07
1.64189e-07
1.42064e-07
1.17531e-07
9.05575e-08
6.10613e-08
2.93028e-08
-4.38418e-09
-3.967e-08
-7.57993e-08
-1.12618e-07
-1.48945e-07
-1.85152e-07
-2.19422e-07
-2.53411e-07
-2.83709e-07
-3.14451e-07
-3.38574e-07
-3.66046e-07
-3.80935e-07
-4.07306e-07
-4.07675e-07
-4.3963e-07
-4.17637e-07
-4.52756e-07
2.71366e-07
2.46135e-07
2.2952e-07
2.16167e-07
2.003e-07
1.81677e-07
1.61164e-07
1.38546e-07
1.13894e-07
8.64733e-08
5.71112e-08
2.50058e-08
-8.13465e-09
-4.36175e-08
-7.87136e-08
-1.15684e-07
-1.50524e-07
-1.87097e-07
-2.19601e-07
-2.54467e-07
-2.8278e-07
-3.15137e-07
-3.37323e-07
-3.67114e-07
-3.80734e-07
-4.08319e-07
-4.10677e-07
-4.36477e-07
-4.31731e-07
-4.46585e-07
2.6434e-07
2.44636e-07
2.27883e-07
2.13704e-07
1.97961e-07
1.79264e-07
1.58498e-07
1.35306e-07
1.10355e-07
8.24431e-08
5.30221e-08
2.05853e-08
-1.22589e-08
-4.78417e-08
-8.22325e-08
-1.1912e-07
-1.52927e-07
-1.89413e-07
-2.20793e-07
-2.55701e-07
-2.83163e-07
-3.15717e-07
-3.37921e-07
-3.67547e-07
-3.83144e-07
-4.08598e-07
-4.17575e-07
-4.36165e-07
-4.42046e-07
-4.51013e-07
2.59091e-07
2.43236e-07
2.26983e-07
2.11848e-07
1.9586e-07
1.77013e-07
1.55922e-07
1.32176e-07
1.06748e-07
7.838e-08
4.86845e-08
1.60253e-08
-1.68165e-08
-5.22969e-08
-8.63794e-08
-1.22834e-07
-1.56158e-07
-1.91976e-07
-2.23004e-07
-2.57083e-07
-2.84796e-07
-3.16316e-07
-3.39979e-07
-3.67915e-07
-3.86936e-07
-4.09574e-07
-4.23969e-07
-4.39324e-07
-4.49994e-07
-4.58911e-07
2.55702e-07
2.41941e-07
2.26338e-07
2.10557e-07
1.94007e-07
1.7485e-07
1.53336e-07
1.29071e-07
1.03026e-07
7.42294e-08
4.4074e-08
1.12858e-08
-2.17929e-08
-5.7006e-08
-9.10901e-08
-1.26849e-07
-1.60095e-07
-1.94856e-07
-2.26018e-07
-2.5879e-07
-2.87231e-07
-3.17279e-07
-3.42578e-07
-3.68941e-07
-3.90619e-07
-4.12004e-07
-4.29444e-07
-4.44851e-07
-4.57418e-07
-4.67878e-07
2.5394e-07
2.40813e-07
2.25769e-07
2.09634e-07
1.92362e-07
1.72709e-07
1.50649e-07
1.25875e-07
9.913e-08
6.99021e-08
3.91747e-08
6.28416e-09
-2.71509e-08
-6.20417e-08
-9.62596e-08
-1.31248e-07
-1.64532e-07
-1.9817e-07
-2.29501e-07
-2.6099e-07
-2.89968e-07
-3.18826e-07
-3.45171e-07
-3.70774e-07
-3.93918e-07
-4.15361e-07
-4.34323e-07
-4.5082e-07
-4.64925e-07
-4.77173e-07
2.53333e-07
2.39998e-07
2.25171e-07
2.08794e-07
1.90795e-07
1.70506e-07
1.47782e-07
1.22464e-07
9.4994e-08
6.52983e-08
3.39649e-08
9.29801e-10
-3.28665e-08
-6.74853e-08
-1.01805e-07
-1.36105e-07
-1.69319e-07
-2.01989e-07
-2.33247e-07
-2.63728e-07
-2.9281e-07
-3.20919e-07
-3.47674e-07
-3.73078e-07
-3.96968e-07
-4.18949e-07
-4.39037e-07
-4.56814e-07
-4.72551e-07
-4.8655e-07
2.53304e-07
2.39536e-07
2.24551e-07
2.07838e-07
1.8913e-07
1.68125e-07
1.44658e-07
1.1873e-07
9.05371e-08
6.03207e-08
2.83932e-08
-4.85984e-09
-3.89664e-08
-7.34058e-08
-1.07723e-07
-1.41469e-07
-1.74436e-07
-2.06322e-07
-2.37242e-07
-2.66943e-07
-2.95783e-07
-3.23384e-07
-3.50179e-07
-3.75578e-07
-3.99943e-07
-4.22558e-07
-4.43673e-07
-4.62726e-07
-4.80069e-07
-4.9588e-07
2.53448e-07
2.39287e-07
2.23867e-07
2.06639e-07
1.87209e-07
1.65449e-07
1.41197e-07
1.14586e-07
8.56647e-08
5.48716e-08
2.23698e-08
-1.11709e-08
-4.55339e-08
-7.98739e-08
-1.14094e-07
-1.47383e-07
-1.79966e-07
-2.11172e-07
-2.41578e-07
-2.70589e-07
-2.98994e-07
-3.26133e-07
-3.52798e-07
-3.78176e-07
-4.02922e-07
-4.26097e-07
-4.48233e-07
-4.68438e-07
-4.87417e-07
-5.04883e-07
2.53518e-07
2.39039e-07
2.23034e-07
2.05132e-07
1.84938e-07
1.62388e-07
1.37318e-07
1.09945e-07
8.02719e-08
4.88418e-08
1.57731e-08
-1.81135e-08
-5.26975e-08
-8.69921e-08
-1.21049e-07
-1.53929e-07
-1.86036e-07
-2.16595e-07
-2.46372e-07
-2.74697e-07
-3.02535e-07
-3.29176e-07
-3.55578e-07
-3.8087e-07
-4.05883e-07
-4.2955e-07
-4.52613e-07
-4.73931e-07
-4.94462e-07
-5.13563e-07
2.53418e-07
2.38598e-07
2.21963e-07
2.033e-07
1.82285e-07
1.58881e-07
1.32937e-07
1.04715e-07
7.42354e-08
4.20999e-08
8.44853e-09
-2.5833e-08
-6.06247e-08
-9.49037e-08
-1.28755e-07
-1.61233e-07
-1.92797e-07
-2.2269e-07
-2.51747e-07
-2.79332e-07
-3.06485e-07
-3.32541e-07
-3.58541e-07
-3.83643e-07
-4.08778e-07
-4.32847e-07
-4.56717e-07
-4.79101e-07
-5.01116e-07
-5.21816e-07
2.53205e-07
2.37924e-07
2.20639e-07
2.01165e-07
1.79247e-07
1.54882e-07
1.2796e-07
9.87741e-08
6.74047e-08
3.44816e-08
2.08944e-10
-3.45137e-08
-6.95137e-08
-1.03789e-07
-1.37399e-07
-1.69451e-07
-2.00406e-07
-2.29575e-07
-2.57815e-07
-2.84567e-07
-3.10906e-07
-3.3625e-07
-3.61681e-07
-3.8645e-07
-4.1152e-07
-4.35873e-07
-4.60384e-07
-4.83786e-07
-5.07188e-07
-5.295e-07
2.5306e-07
2.37103e-07
2.19109e-07
1.98755e-07
1.75809e-07
1.50317e-07
1.22258e-07
9.196e-08
5.95871e-08
2.57805e-08
-9.16864e-09
-4.43754e-08
-7.95851e-08
-1.13849e-07
-1.47172e-07
-1.78748e-07
-2.0901e-07
-2.37368e-07
-2.64678e-07
-2.90469e-07
-3.15846e-07
-3.40304e-07
-3.64982e-07
-3.89214e-07
-4.14006e-07
-4.38457e-07
-4.63405e-07
-4.87736e-07
-5.12375e-07
-5.3636e-07
2.53235e-07
2.36301e-07
2.17423e-07
1.96026e-07
1.71858e-07
1.45023e-07
1.15623e-07
8.40387e-08
5.05293e-08
1.57376e-08
-1.9947e-08
-5.56692e-08
-9.10782e-08
-1.25301e-07
-1.5827e-07
-1.89293e-07
-2.18756e-07
-2.46189e-07
-2.72434e-07
-2.97109e-07
-3.21358e-07
-3.44721e-07
-3.68441e-07
-3.91867e-07
-4.16154e-07
-4.40404e-07
-4.65582e-07
-4.90594e-07
-5.16347e-07
-5.4188e-07
2.53857e-07
2.35633e-07
2.15536e-07
1.92788e-07
1.67123e-07
1.38699e-07
1.07743e-07
7.46907e-08
3.99052e-08
4.03259e-09
-3.24377e-08
-6.86861e-08
-1.04265e-07
-1.3839e-07
-1.70916e-07
-2.01288e-07
-2.29821e-07
-2.562e-07
-2.81213e-07
-3.0461e-07
-3.27524e-07
-3.49573e-07
-3.72082e-07
-3.944e-07
-4.17891e-07
-4.41563e-07
-4.66681e-07
-4.9199e-07
-5.18622e-07
-5.45383e-07
2.54703e-07
2.3493e-07
2.13127e-07
1.88608e-07
1.61136e-07
1.30883e-07
9.81655e-08
6.34752e-08
2.72817e-08
-9.75215e-09
-4.70421e-08
-8.38014e-08
-1.19499e-07
-1.53445e-07
-1.85421e-07
-2.1502e-07
-2.42476e-07
-2.67653e-07
-2.91239e-07
-3.13177e-07
-3.34501e-07
-3.54998e-07
-3.7597e-07
-3.96854e-07
-4.19161e-07
-4.41815e-07
-4.66461e-07
-4.91495e-07
-5.1862e-07
-5.45937e-07
2.54992e-07
2.33391e-07
2.09546e-07
1.82908e-07
1.5332e-07
1.20983e-07
8.62932e-08
4.97973e-08
1.20714e-08
-2.61887e-08
-6.43141e-08
-1.01543e-07
-1.37284e-07
-1.70937e-07
-2.02235e-07
-2.30912e-07