/*--------------------------------*- C++ -*----------------------------------*\
| =========                 |                                                 |
| \\      /  F ield         | OpenFOAM: The Open Source CFD Toolbox           |
|  \\    /   O peration     | Version:  2312                                  |
|   \\  /    A nd           | Website:  www.openfoam.com                      |
|    \\/     M anipulation  |                                                 |
\*---------------------------------------------------------------------------*/
FoamFile
{
    version     2.0;
    format      ascii;
    arch        "LSB;label=32;scalar=64";
    class       surfaceScalarField;
    location    "79000";
    object      phi;
}
// * * * * * * * * * * * * * * * * * * * * * * * * * * * * * * * * * * * * * //

dimensions      [0 3 -1 0 0 0 0];

oriented        oriented;

internalField   nonuniform List<scalar> 
5309
(
7.45976e-05
2.77351e-05
6.92046e-05
5.39305e-06
6.29176e-05
6.28695e-06
5.97181e-05
3.19959e-06
5.86215e-05
1.09656e-06
5.93692e-05
-7.47735e-07
6.06009e-05
-1.23162e-06
6.31364e-05
-2.53552e-06
6.55626e-05
-2.42622e-06
6.91089e-05
-3.54629e-06
7.19976e-05
-2.88869e-06
7.59043e-05
-3.90674e-06
7.86039e-05
-2.69957e-06
8.22893e-05
-3.6854e-06
8.42399e-05
-1.95062e-06
8.73628e-05
-3.12294e-06
8.82119e-05
-8.49043e-07
9.05996e-05
-2.38774e-06
9.01478e-05
4.51813e-07
9.18536e-05
-1.70577e-06
9.00487e-05
1.80488e-06
9.11775e-05
-1.12881e-06
8.79484e-05
3.22915e-06
8.85783e-05
-6.29949e-07
8.37258e-05
4.85248e-06
8.40871e-05
-3.61285e-07
7.53147e-05
8.77241e-06
8.32049e-05
-7.89021e-06
3.39045e-05
4.93004e-05
-3.40842e-05
6.79887e-05
0.000148659
3.36214e-05
0.000146361
7.6919e-06
0.00014409
8.55714e-06
0.000142807
4.48312e-06
0.000142622
1.28139e-06
0.000144351
-2.47684e-06
0.000146876
-3.75612e-06
0.00015114
-6.79996e-06
0.000155572
-6.85799e-06
0.000161658
-9.63269e-06
0.000167194
-8.42455e-06
0.000174313
-1.10253e-05
0.000180056
-8.44291e-06
0.000187406
-1.10353e-05
0.000192519
-7.06408e-06
0.000199426
-1.00299e-05
0.000203207
-4.62933e-06
0.000209335
-8.5162e-06
0.000211444
-1.65696e-06
0.000216871
-7.13325e-06
0.000216749
1.92767e-06
0.000221971
-6.35166e-06
0.000218625
6.57598e-06
0.000224758
-6.76296e-06
0.000215718
1.38923e-05
0.000226204
-1.08474e-05
0.000203037
3.19388e-05
0.000222607
-2.74602e-05
0.000200961
7.09468e-05
-3.51975e-05
0.000202074
0.000197847
3.15183e-05
0.000198593
6.94564e-06
0.000200083
7.06764e-06
0.000201012
3.55422e-06
0.00020235
-5.70667e-08
0.000204762
-4.88824e-06
0.000207793
-6.78727e-06
0.000212286
-1.12935e-05
0.000216973
-1.15446e-05
0.000223269
-1.59288e-05
0.000229158
-1.43139e-05
0.000236752
-1.86189e-05
0.000243155
-1.4846e-05
0.000251469
-1.93496e-05
0.000257676
-1.32706e-05
0.000266232
-1.85863e-05
0.000271652
-1.00494e-05
0.000280329
-1.7193e-05
0.000284308
-5.63544e-06
0.0002932
-1.60254e-05
0.000295008
1.19895e-07
0.000304407
-1.57514e-05
0.000303383
7.6006e-06
0.000313915
-1.72955e-05
0.000308785
1.90232e-05
0.000320116
-2.2179e-05
0.000315263
3.67915e-05
0.000319894
-3.20907e-05
0.000334079
5.6762e-05
-1.71851e-05
0.000316066
0.000234785
2.68888e-05
0.00023483
6.90084e-06
0.000236991
4.9061e-06
0.000239109
1.43593e-06
0.000241018
-1.96551e-06
0.000244253
-8.12334e-06
0.000247729
-1.02636e-05
0.000252392
-1.59564e-05
0.000257093
-1.62456e-05
0.00026315
-2.19855e-05
0.000268865
-2.00295e-05
0.00027606
-2.58139e-05
0.000282383
-2.11682e-05
0.000290363
-2.73305e-05
0.000296832
-1.97388e-05
0.00030531
-2.70641e-05
0.000311525
-1.62653e-05
0.000320293
-2.59605e-05
0.000325908
-1.12502e-05
0.000334777
-2.48951e-05
0.000339844
-4.94722e-06
0.000348625
-2.45321e-05
0.000353288
2.93745e-06
0.000361175
-2.51819e-05
0.000367084
1.31141e-05
0.00037178
-2.68754e-05
0.000383449
2.51223e-05
0.000378692
-2.73336e-05
0.000405533
2.99207e-05
-6.16863e-06
0.000394517
0.000263542
2.21174e-05
0.000263157
7.2861e-06
0.000265098
2.96541e-06
0.00026774
-1.20671e-06
0.000270248
-4.47333e-06
0.000273122
-1.09972e-05
0.000276491
-1.36324e-05
0.000280598
-2.00632e-05
0.000285105
-2.07525e-05
0.000290302
-2.71828e-05
0.000295784
-2.55113e-05
0.000301881
-3.19115e-05
0.000308118
-2.74046e-05
0.000314857
-3.40702e-05
0.000321617
-2.64984e-05
0.00032874
-3.41871e-05
0.000335877
-2.34027e-05
0.000343095
-3.31779e-05
0.000350674
-1.88297e-05
0.000357681
-3.19014e-05
0.000366011
-1.32774e-05
0.000372243
-3.07644e-05
0.000381949
-6.7687e-06
0.00038653
-2.97624e-05
0.000399093
5.51101e-07
0.000400041
-2.78232e-05
0.000418355
6.80846e-06
0.000412507
-2.14857e-05
0.000436908
5.519e-06
-4.5332e-06
0.000435273
0.000286334
1.80958e-05
0.000285907
7.71316e-06
0.000287307
1.56542e-06
0.000289429
-3.32871e-06
0.000291817
-6.86083e-06
0.000294299
-1.34792e-05
0.00029754
-1.68735e-05
0.000300964
-2.34874e-05
0.000305278
-2.5067e-05
0.000309488
-3.13921e-05
0.000314752
-3.07756e-05
0.000319616
-3.67752e-05
0.000325748
-3.3537e-05
0.00033108
-3.94021e-05
0.000338008
-3.34259e-05
0.000343588
-3.97679e-05
0.000351316
-3.11303e-05
0.000356889
-3.87507e-05
0.000365587
-2.7528e-05
0.000370819
-3.71339e-05
0.000380817
-2.32748e-05
0.00038523
-3.51776e-05
0.000397151
-1.86901e-05
0.000399962
-3.25735e-05
0.000414775
-1.42616e-05
0.000415008
-2.80561e-05
0.000433215
-1.1398e-05
0.000431443
-1.97144e-05
0.000449286
-1.23239e-05
-9.37714e-06
0.00045413
0.000304099
1.50959e-05
0.000304083
7.72965e-06
0.000304808
8.40659e-07
0.000306343
-4.86412e-06
0.000308605
-9.12242e-06
0.000310629
-1.5503e-05
0.000313603
-1.98475e-05
0.000316294
-2.61789e-05
0.000320249
-2.90224e-05
0.000323561
-3.4704e-05
0.000328435
-3.56496e-05
0.000332255
-4.0595e-05
0.000338034
-3.93164e-05
0.000342238
-4.3606e-05
0.000348928
-4.01153e-05
0.000353348
-4.41884e-05
0.000361019
-3.8801e-05
0.000365465
-4.31967e-05
0.000374278
-3.63409e-05
0.000378513
-4.13689e-05
0.000388715
-3.34767e-05
0.000392469
-3.89313e-05
0.000404388
-3.06097e-05
0.000407359
-3.5544e-05
0.000421155
-2.8058e-05
0.000423495
-3.03961e-05
0.000438297
-2.61998e-05
0.000441782
-2.31992e-05
0.00045419
-2.47325e-05
-1.66314e-05
0.000461445
0.000317337
1.31045e-05
0.000317694
7.37257e-06
0.000318142
3.93248e-07
0.000319155
-5.87722e-06
0.000321145
-1.11126e-05
0.000322804
-1.71618e-05
0.000325415
-2.2459e-05
0.000327554
-2.8317e-05
0.000331018
-3.24869e-05
0.000333673
-3.73588e-05
0.000337983
-3.99599e-05
0.000341067
-4.36793e-05
0.000346247
-4.44956e-05
0.000349694
-4.70533e-05
0.000355787
-4.62085e-05
0.000359503
-4.79046e-05
0.000366593
-4.58905e-05
0.000370481
-4.70853e-05
0.000378676
-4.45352e-05
0.000382648
-4.53408e-05
0.000392057
-4.28863e-05
0.000396081
-4.2955e-05
0.000406732
-4.12613e-05
0.000410919
-3.97303e-05
0.00042252
-3.9659e-05
0.000427493
-3.53697e-05
0.000439031
-3.77379e-05
0.000446055
-3.02226e-05
0.000455894
-3.45717e-05
-2.50533e-05
0.000464316
0.000326478
1.19734e-05
0.000327063
6.78747e-06
0.000327566
-1.09546e-07
0.000328272
-6.5836e-06
0.000329909
-1.2749e-05
0.000331322
-1.85753e-05
0.00033353
-2.4667e-05
0.00033531
-3.00965e-05
0.000338205
-3.53826e-05
0.000340441
-3.95945e-05
0.000344072
-4.35907e-05
0.000346717
-4.63244e-05
0.000351123
-4.89017e-05
0.000354165
-5.0095e-05
0.00035941
-5.14536e-05
0.000362837
-5.13314e-05
0.000368987
-5.20411e-05
0.000372804
-5.0902e-05
0.000379911
-5.16422e-05
0.000384163
-4.95926e-05
0.000392229
-5.09529e-05
0.000397045
-4.7771e-05
0.000405954
-5.01698e-05
0.000411622
-4.53986e-05
0.000421047
-4.90837e-05
0.000428042
-4.23648e-05
0.000437496
-4.71921e-05
0.000445961
-3.86878e-05
0.0004554
-4.40105e-05
-3.39918e-05
0.000464338
0.000332025
1.14396e-05
0.00033276
6.05261e-06
0.000333415
-7.64552e-07
0.000334038
-7.20665e-06
0.000335341
-1.40514e-05
0.000336603
-1.98379e-05
0.000338424
-2.64878e-05
0.000340005
-3.16773e-05
0.000342346
-3.77241e-05
0.000344347
-4.15949e-05
0.000347296
-4.65403e-05
0.000349721
-4.87486e-05
0.000353326
-5.25067e-05
0.000356207
-5.29765e-05
0.000360542
-5.57885e-05
0.000363937
-5.47267e-05
0.000369059
-5.71625e-05
0.000373045
-5.4888e-05
0.000378984
-5.75812e-05
0.000383672
-5.4281e-05
0.000390417
-5.76975e-05
0.000395966
-5.33201e-05
0.000403451
-5.76547e-05
0.000410055
-5.20025e-05
0.000418179
-5.72079e-05
0.000425918
-5.01037e-05
0.000434697
-5.5971e-05
0.00044329
-4.72803e-05
0.000453
-5.3721e-05
-4.29724e-05
0.000461981
0.000334692
1.11824e-05
0.000335424
5.32132e-06
0.000336209
-1.54977e-06
0.00033693
-7.92797e-06
0.000338009
-1.51298e-05
0.000339188
-2.10174e-05
0.000340698
-2.7998e-05
0.000342192
-3.31713e-05
0.000344092
-3.9624e-05
0.000345977
-4.348e-05
0.000348365
-4.89282e-05
0.000350695
-5.10779e-05
0.000353626
-5.54377e-05
0.000356467
-5.58176e-05
0.000360024
-5.93457e-05
0.000363475
-5.81783e-05
0.000367726
-6.14133e-05
0.000371898
-5.90602e-05
0.000376891
-6.25743e-05
0.000381905
-5.92945e-05
0.000387676
-6.34687e-05
0.000393644
-5.92885e-05
0.000400236
-6.42462e-05
0.00040722
-5.89868e-05
0.000414703
-6.46909e-05
0.00042265
-5.80503e-05
0.000431151
-6.44728e-05
0.000439918
-5.60473e-05
0.000449519
-6.33215e-05
-5.24315e-05
0.000458978
0.000335265
1.0837e-05
0.000335987
4.59877e-06
0.000336834
-2.39609e-06
0.000337697
-8.79138e-06
0.00033868
-1.6113e-05
0.000339844
-2.21808e-05
0.000341163
-2.93175e-05
0.000342642
-3.46497e-05
0.000344273
-4.12549e-05
0.000346113
-4.53202e-05
0.00034814
-5.09552e-05
0.000350423
-5.33615e-05
0.000352915
-5.79288e-05
0.000355734
-5.86369e-05
0.000358776
-6.23882e-05
0.000362249
-6.16506e-05
0.000365929
-6.5094e-05
0.000370174
-6.33043e-05
0.000374577
-6.6978e-05
0.000379698
-6.44155e-05
0.000384912
-6.86825e-05
0.000390989
-6.53651e-05
0.000397114
-7.03714e-05
0.000404184
-6.60563e-05
0.00041133
-7.18377e-05
0.000419376
-6.60955e-05
0.000427643
-7.27399e-05
0.000436611
-6.50159e-05
0.00044604
-7.27499e-05
-6.22912e-05
0.000455899
0.000334692
1.02537e-05
0.000335488
3.80275e-06
0.000336369
-3.27687e-06
0.000337356
-9.77771e-06
0.00033835
-1.71071e-05
0.000339562
-2.33937e-05
0.000340822
-3.05772e-05
0.000342337
-3.61648e-05
0.000343867
-4.27848e-05
0.000345713
-4.71662e-05
0.000347575
-5.28174e-05
0.000349838
-5.56242e-05
0.00035211
-6.02011e-05
0.00035489
-6.14163e-05
0.000357667
-6.51655e-05
0.000361086
-6.50699e-05
0.000364475
-6.84823e-05
0.000368654
-6.74836e-05
0.000372757
-7.10815e-05
0.000377804
-6.94621e-05
0.000382727
-7.36052e-05
0.000388732
-7.13701e-05
0.000394582
-7.62215e-05
0.000401615
-7.30893e-05
0.000408495
-7.87176e-05
0.000416596
-7.41966e-05
0.000424579
-8.07232e-05
0.00043375
-7.4187e-05
0.000442879
-8.18782e-05
-7.25049e-05
0.000453092
0.000334333
9.4909e-06
0.000335194
2.94221e-06
0.000336081
-4.16433e-06
0.00033714
-1.08366e-05
0.00033819
-1.8157e-05
0.000339482
-2.46852e-05
0.000340768
-3.18635e-05
0.000342345
-3.77423e-05
0.000343876
-4.4315e-05
0.000345751
-4.90421e-05
0.000347564
-5.46302e-05
0.00034981
-5.78695e-05
0.000351982
-6.23741e-05
0.000354694
-6.41274e-05
0.000357327
-6.77993e-05
0.000360626
-6.83687e-05
0.000363838
-7.16945e-05
0.000367852
-7.14973e-05
0.000371756
-7.49859e-05
0.000376607
-7.43123e-05
0.000381311
-7.83092e-05
0.000387115
-7.71742e-05
0.000392721
-8.18275e-05
0.000399592
-7.99601e-05
0.00040619
-8.53156e-05
0.000414221
-8.22277e-05
0.000421871
-8.83737e-05
0.000431112
-8.34282e-05
0.000439851
-9.06168e-05
-8.29781e-05
0.000450324
0.000335292
8.69079e-06
0.000336155
2.07923e-06
0.000337026
-5.0353e-06
0.000338108
-1.19185e-05
0.000339208
-1.92573e-05
0.000340561
-2.60377e-05
0.000341892
-3.3195e-05
0.000343509
-3.93589e-05
0.000345051
-4.58575e-05
0.000346924
-5.09147e-05
0.000348693
-5.63993e-05
0.00035087
-6.00467e-05
0.000352936
-6.44397e-05
0.000355508
-6.66992e-05
0.000357977
-7.02688e-05
0.000361066
-7.14574e-05
0.00036407
-7.46988e-05
0.000367811
-7.52379e-05
0.000371479
-7.8654e-05
0.000376005
-7.88378e-05
0.000380455
-8.27593e-05
0.0003859
-8.26201e-05
0.000391241
-8.71678e-05
0.000397751
-8.64706e-05
0.000404075
-9.16392e-05
0.000411788
-8.99413e-05
0.000419157
-9.57428e-05
0.000428178
-9.24484e-05
0.000436619
-9.90583e-05
-9.33638e-05
0.000447005
0.000338383
8.06562e-06
-0.000337758
0.000339135
1.3279e-06
0.000339926
-5.82684e-06
0.000340945
-1.29376e-05
0.000342022
-2.0334e-05
0.000343341
-2.73566e-05
0.000344644
-3.44986e-05
0.000346196
-4.091e-05
0.000347664
-4.73257e-05
0.000349415
-5.26663e-05
0.000351042
-5.80256e-05
0.000353026
-6.2031e-05
0.000354873
-6.62863e-05
0.000357181
-6.90074e-05
0.000359366
-7.2454e-05
0.000362131
-7.42221e-05
0.000364804
-7.73726e-05
0.000368171
-7.86044e-05
0.000371483
-8.19665e-05
0.000375591
-8.29454e-05
0.00037968
-8.68487e-05
0.00038467
-8.76097e-05
0.000389666
-9.21637e-05
0.000395695
-9.24996e-05
0.000401711
-9.76554e-05
0.000408949
-9.71795e-05
0.00041606
-0.000102854
0.000424667
-0.000101055
0.000432889
-0.00010728
-0.000103473
0.000442998
0.000343393
7.73005e-06
-0.000343058
0.00034394
7.81691e-07
0.000344597
-6.48423e-06
0.000345465
-1.38059e-05
0.000346417
-2.1286e-05
0.000347569
-2.85084e-05
0.00034872
-3.56492e-05
0.000350052
-4.22423e-05
0.000351309
-4.85824e-05
0.000352774
-5.41316e-05
0.000354117
-5.93686e-05
0.000355748
-6.36619e-05
0.000357242
-6.77804e-05
0.000359148
-7.09134e-05
0.000360929
-7.42345e-05
0.000363266
-7.65599e-05
0.000365503
-7.96094e-05
0.000368435
-8.15363e-05
0.000371296
-8.48278e-05
0.000374965
-8.66135e-05
0.000378608
-9.04924e-05
0.000383144
-9.21457e-05
0.000387729
-9.6748e-05
0.000393276
-9.80466e-05
0.000398955
-0.000103335
0.000405676
-0.000103901
0.000412565
-0.000109742
0.000420636
-0.000109127
0.000428757
-0.000115401
-0.000113073
0.000438358
0.000349012
7.57841e-06
-0.00034886
0.000349391
4.0219e-07
0.000349937
-7.02962e-06
0.00035064
-1.45094e-05
0.000351414
-2.20594e-05
0.000352308
-2.94029e-05
0.000353206
-3.65473e-05
0.0003542
-4.32357e-05
0.000355136
-4.95189e-05
0.000356188
-5.51834e-05
0.000357154
-6.03343e-05
0.00035832
-6.48281e-05
0.000359401
-6.88611e-05
0.000360826
-7.23388e-05
0.000362177
-7.55856e-05
0.000364052
-7.84345e-05
0.000365853
-8.14103e-05
0.00036836
-8.40436e-05
0.000370776
-8.72439e-05
0.000374062
-8.98997e-05
0.000377246
-9.36765e-05
0.000381429
-9.63288e-05
0.000385551
-0.000100869
0.00039074
-0.000103236
0.000395994
-0.000108588
0.000402301
-0.000110208
0.000408873
-0.000116315
0.000416421
-0.000116674
0.000424409
-0.000123389
-0.000122034
0.00043337
0.000354247
7.50578e-06
-0.000354175
0.000354504
1.451e-07
0.000354932
-7.45681e-06
0.000355447
-1.50252e-05
0.000356001
-2.26129e-05
0.000356601
-3.00027e-05
0.000357202
-3.71487e-05
0.000357825
-4.38586e-05
0.000358419
-5.0113e-05
0.000359048
-5.58122e-05
0.000359654
-6.09401e-05
0.000360373
-6.55471e-05
0.000361103
-6.95909e-05
0.000362084
-7.33198e-05
0.000363105
-7.66068e-05
0.000364559
-7.98885e-05
0.000366042
-8.28935e-05
0.000368166
-8.61681e-05
0.000370248
-8.93254e-05
0.000373198
-9.28499e-05
0.000375986
-9.64646e-05
0.000379883
-0.000100225
0.000383507
-0.000104494
0.000388448
-0.000108177
0.000393099
-0.000113239
0.000399139
-0.000116249
0.000405068
-0.000122244
0.00041221
-0.000123816
0.000419667
-0.000130846
-0.000130261
0.000427893
0.000357319
7.183e-06
-0.000356997
0.000357762
-2.97915e-07
0.000358253
-7.94729e-06
0.000358776
-1.55484e-05
0.000359295
-2.31319e-05
0.000359796
-3.05036e-05
0.000360268
-3.76207e-05
0.000360702
-4.42927e-05
0.000361108
-5.05187e-05
0.000361485
-5.61898e-05
0.000361875
-6.13299e-05
0.000362297
-6.59694e-05
0.000362807
-7.01005e-05
0.000363455
-7.39684e-05
0.000364265
-7.74163e-05
0.000365353
-8.0977e-05
0.000366629
-8.41687e-05
0.000368358
-8.78973e-05
0.00037021
-9.11772e-05
0.000372745
-9.53856e-05
0.000375224
-9.8943e-05
0.00037871
-0.000103712
0.000381858
-0.000107642
0.000386437
-0.000112755
0.000390346
-0.000117148
0.000396092
-0.000121995
0.000400938
-0.00012709
0.000407749
-0.000130627
0.000413833
-0.00013693
-0.000137745
0.000421318
0.000360354
6.5651e-06
-0.000359737
0.000361002
-9.45806e-07
0.000361654
-8.5994e-06
0.000362309
-1.62027e-05
0.000362919
-2.37422e-05
0.000363464
-3.10485e-05
0.000363923
-3.80799e-05
0.000364291
-4.46606e-05
0.000364582
-5.08091e-05
0.000364792
-5.64008e-05
0.000364986
-6.15234e-05
0.000365154
-6.6137e-05
0.000365414
-7.03608e-05
0.000365731
-7.42856e-05
0.00036627
-7.79547e-05
0.000366953
-8.16603e-05
0.000367958
-8.51736e-05
0.000369197
-8.91369e-05
0.000370785
-9.27651e-05
0.000372738
-9.73382e-05
0.000374934
-0.000101139
0.000377747
-0.000106524
0.000380501
-0.000110396
0.000384357
-0.000116612
0.000387564
-0.000120355
0.000392614
-0.000127045
0.000396097
-0.000130573
0.000402223
-0.000136752
0.000405819
-0.000140526
-0.000144166
0.000412239
0.000366992
6.01145e-06
-0.000366438
0.000367555
-1.50949e-06
0.00036812
-9.16439e-06
0.000368673
-1.67558e-05
0.000369152
-2.42209e-05
0.00036953
-3.14263e-05
0.000369766
-3.83165e-05
0.000369869
-4.47632e-05
0.000369833
-5.07729e-05
0.000369687
-5.62553e-05
0.000369471
-6.13071e-05
0.000369217
-6.58833e-05
0.00036902
-7.01637e-05
0.000368879
-7.41447e-05
0.000368955
-7.80303e-05
0.000369156
-8.18611e-05
0.000369724
-8.57418e-05
0.000370427
-8.984e-05
0.000371617
-9.39551e-05
0.00037292
-9.86412e-05
0.00037477
-0.00010299
0.000376734
-0.000108488
0.00037913
-0.000112792
0.000381813
-0.000119295
0.000384408
-0.00012295
0.000387858
-0.000130495
0.000389859
-0.000132575
0.000393907
-0.000140799
0.000393868
-0.000140487
-0.000147937
0.000397639
0.000375214
5.48583e-06
-0.000374689
0.000375706
-2.00108e-06
0.000376162
-9.62059e-06
0.000376533
-1.71267e-05
0.000376763
-2.44508e-05
0.00037683
-3.14934e-05
0.000376697
-3.81838e-05
0.000376379
-4.44448e-05
0.000375871
-5.02647e-05
0.000375228
-5.56126e-05
0.000374476
-6.05548e-05
0.000373695
-6.51029e-05
0.00037294
-6.94081e-05
0.000372288
-7.34929e-05
0.000371821
-7.75635e-05
0.000371555
-8.15946e-05
0.000371611
-8.57978e-05
0.000371853
-9.00828e-05
0.000372521
-9.46224e-05
0.000373249
-9.93699e-05
0.000374533
-0.000104273
0.000375622
-0.000109577
0.000377322
-0.000114491
0.000378399
-0.000120371
0.000379867
-0.000124419
0.000380346
-0.000130974
0.000380155
-0.000132385
0.000379265
-0.000139909
0.00037438
-0.000135603
-0.000145026
0.000371469
0.000383132
4.64085e-06
-0.000382287
0.000383815
-2.68379e-06
0.000384337
-1.01424e-05
0.000384657
-1.7447e-05
0.00038474
-2.45338e-05
0.000384558
-3.13121e-05
0.000384094
-3.7719e-05
0.000383366
-4.37172e-05
0.000382398
-4.92965e-05
0.000381251
-5.44654e-05
0.000379967
-5.92714e-05
0.000378642
-6.37781e-05
0.00037733
-6.80957e-05
0.000376146
-7.23091e-05
0.000375134
-7.65507e-05
0.000374385
-8.08458e-05
0.000373897
-8.53102e-05
0.000373671
-8.98565e-05
0.000373665
-9.46165e-05
0.000373717
-9.94225e-05
0.000373933
-0.000104489
0.000373845
-0.000109489
0.000373819
-0.000114465
0.000372536
-0.000119089
0.000371001
-0.000122883
0.000366734
-0.000126706
0.000361772
-0.000127423
0.000352252
-0.000130388
0.000340205
-0.000123556
-0.000129354
0.000324534
0.000393242
3.72502e-06
-0.000392326
0.000394034
-3.47625e-06
0.000394477
-1.05851e-05
0.000394652
-1.76215e-05
0.00039453
-2.44123e-05
0.000394023
-3.08049e-05
0.000393137
-3.68329e-05
0.00039191
-4.24905e-05
0.00039039
-4.77763e-05
0.000388639
-5.27147e-05
0.000386729
-5.73609e-05
0.000384749
-6.17984e-05
0.00038278
-6.61266e-05
0.000380924
-7.04531e-05
0.000379238
-7.48647e-05
0.000377797
-7.94048e-05
0.000376563
-8.40764e-05
0.000375521
-8.88142e-05
0.000374456
-9.35511e-05
0.000373159
-9.81261e-05
0.000371323
-0.000102652
0.000368759
-0.000106926
0.000365102
-0.000110807
0.000359507
-0.000113495
0.000351705
-0.000115081
0.000339994
-0.000114996
0.000325544
-0.000112973
0.000304139
-0.000108983
0.000280598
-0.000100016
-9.60781e-05
0.000247322
0.000406776
2.51173e-06
-0.000405563
0.00040755
-4.25037e-06
0.000408043
-1.10777e-05
0.000407999
-1.75776e-05
0.000407369
-2.37827e-05
0.00040625
-2.96857e-05
0.000404685
-3.52682e-05
0.000402715
-4.052e-05
0.000400398
-4.54592e-05
0.00039781
-5.01273e-05
0.000395042
-5.45926e-05
0.00039218
-5.89371e-05
0.000389303
-6.3249e-05
0.000386464
-6.76146e-05
0.000383696
-7.20964e-05
0.000380996
-7.6705e-05
0.000378288
-8.13683e-05
0.000375406
-8.59316e-05
0.000372029
-9.01741e-05
0.000367737
-9.38343e-05
0.000361806
-9.67217e-05
0.000353926
-9.9046e-05
0.000343386
-0.000100267
0.000329609
-9.97176e-05
0.000311615
-9.70867e-05
0.000288441
-9.18223e-05
0.000259635
-8.41667e-05
0.000224651
-7.39988e-05
0.000186139
-6.15034e-05
-5.01814e-05
0.000140242
0.000422415
-6.18014e-08
-0.000419842
0.000423785
-5.61978e-06
0.000424186
-1.14794e-05
0.000423876
-1.72673e-05
0.000422906
-2.28126e-05
0.000421268
-2.80481e-05
0.000418983
-3.29833e-05
0.000416113
-3.76492e-05
0.000412741
-4.20873e-05
0.000408959
-4.6346e-05
0.000404862
-5.04953e-05
0.000400528
-5.46027e-05
0.000396008
-5.87292e-05
0.000391284
-6.28907e-05
0.000386246
-6.70579e-05
0.000380734
-7.11932e-05
0.000374498
-7.51329e-05
0.000367173
-7.86059e-05
0.000358314
-8.13157e-05
0.000347501
-8.30215e-05
0.000333953
-8.31729e-05
0.000316518
-8.16113e-05
0.000294381
-7.81306e-05
0.000267302
-7.26379e-05
0.000235569
-6.53542e-05
0.000198595
-5.4848e-05
0.000155504
-4.10761e-05
0.000109903
-2.83976e-05
6.8938e-05
-2.05384e-05
-1.75486e-05
3.63051e-05
0.000447577
-3.01613e-07
-0.000447337
0.000448078
-6.12078e-06
0.000447844
-1.12453e-05
0.000446598
-1.60218e-05
0.000444305
-2.05197e-05
0.000441031
-2.4774e-05
0.000436846
-2.87984e-05
0.000431812
-3.26143e-05
0.000425988
-3.62636e-05
0.000419443
-3.98013e-05
0.000412248
-4.33004e-05
0.000404454
-4.68087e-05
0.000396089
-5.0364e-05
0.000387075
-5.38763e-05
0.000376964
-5.69473e-05
0.000365337
-5.95659e-05
0.000351676
-6.14726e-05
0.000335221
-6.2151e-05
0.000315331
-6.14252e-05
0.000291876
-5.95668e-05
0.000265891
-5.71877e-05
0.000235465
-5.11852e-05
0.000198993
-4.16582e-05
0.000156888
-3.05329e-05
0.000111917
-2.03831e-05
6.94325e-05
-1.23638e-05
3.38592e-05
-5.50273e-06
6.99086e-06
-1.52929e-06
-1.1221e-05
-2.32656e-06
-6.40888e-06
-2.23606e-05
0.0004813
-2.80054e-06
-0.000478801
0.000480947
-5.76749e-06
0.000478629
-8.92755e-06
0.000474674
-1.20664e-05
0.000469187
-1.50328e-05
0.000462195
-1.77819e-05
0.000453718
-2.03215e-05
0.000443781
-2.26776e-05
0.000432391
-2.48732e-05
0.000419525
-2.69356e-05
0.000405116
-2.88916e-05
0.000389064
-3.07563e-05
0.000371228
-3.25282e-05
0.000351489
-3.41374e-05
0.000330067
-3.5525e-05
0.000307115
-3.66138e-05
0.000280961
-3.53193e-05
0.000250283
-3.1473e-05
0.000214443
-2.55843e-05
0.000174086
-1.92098e-05
0.000130455
-1.35571e-05
8.84119e-05
-9.14205e-06
5.14287e-05
-4.67504e-06
2.13292e-05
-4.33415e-07
-1.61092e-06
2.55701e-06
-1.70921e-05
3.11734e-06
-2.55263e-05
2.93143e-06
-2.96819e-05
2.62636e-06
-3.35246e-05
1.51609e-06
-5.29293e-07
-3.94041e-05
0.000457386
-0.000460186
0.000451618
0.000442691
0.000430625
0.000415592
0.00039781
0.000377488
0.000354811
0.000329937
0.000303002
0.00027411
0.000243354
0.000210826
0.000176688
0.000141163
0.00010455
6.92303e-05
3.77573e-05
1.21729e-05
-7.0369e-06
-2.0594e-05
-2.97361e-05
-3.44111e-05
-3.48445e-05
-3.22875e-05
-2.91702e-05
-2.62388e-05
-2.36124e-05
-2.20963e-05
-2.26256e-05
0.00039761
0.000375764
0.000353089
0.000328235
0.00030156
0.000275626
0.000250666
0.000224636
0.00019751
0.000169781
0.000139942
0.000111309
7.50825e-05
4.03683e-05
0.000452173
5.78172e-06
0.000443232
8.94125e-06
0.000431152
1.20796e-05
0.000416107
1.50455e-05
0.000398313
1.77939e-05
0.00037798
2.03325e-05
0.000355293
2.26875e-05
0.000330411
2.48818e-05
0.000303468
2.6943e-05
0.00027457
2.88982e-05
0.000243807
3.07626e-05
0.000211272
3.25353e-05
0.000177125
3.41471e-05
0.000141586
3.55389e-05
0.000104943
3.66434e-05
6.95688e-05
3.53739e-05
3.80165e-05
3.15523e-05
1.23434e-05
2.56731e-05
-6.95489e-06
1.92983e-05
-2.05736e-05
1.36187e-05
-2.97721e-05
9.19852e-06
-3.4505e-05
4.73292e-06
-3.49793e-05
4.74267e-07
-3.2432e-05
-2.54725e-06
-2.93155e-05
-3.11653e-06
-2.64088e-05
-2.90669e-06
-2.38332e-05
-2.5756e-06
-2.23823e-05
-1.45091e-06
5.95872e-07
-2.29782e-05
0.000481471
6.14605e-06
0.000479143
1.12695e-05
0.000475178
1.60449e-05
0.000469682
2.05411e-05
0.000462683
2.47932e-05
0.000454201
2.88149e-05
0.00044426
3.26277e-05
0.000432869
3.62736e-05
0.000420004
3.98079e-05
0.000405598
4.33034e-05
0.000389552
4.68088e-05
0.000371725
5.03621e-05
0.000351997
5.38751e-05
0.00033058
5.69562e-05
0.000307649
5.95748e-05
0.00028153
6.14925e-05
0.000250898
6.21847e-05
0.000215096
6.14747e-05
0.000174768
5.9626e-05
0.000131116
5.72709e-05
8.89917e-05
5.13229e-05
5.18901e-05
4.18345e-05
2.16602e-05
3.07041e-05
-1.42042e-06
2.05334e-05
-1.70436e-05
1.25067e-05
-2.56041e-05
5.6538e-06
-2.98371e-05
1.65743e-06
-3.3726e-05
2.43798e-06
6.53198e-06
-3.96621e-05
0.00044855
5.65424e-06
0.000448307
1.15129e-05
0.000447053
1.72989e-05
0.000444752
2.28419e-05
0.00044147
2.80746e-05
0.000437279
3.30063e-05
0.000432239
3.76681e-05
0.000426411
4.21015e-05
0.000419863
4.63552e-05
0.000412668
5.04991e-05
0.000404875
5.46015e-05
0.000396514
5.87233e-05
0.000387508
6.28813e-05
0.000377418
6.70461e-05
0.000365813
7.11799e-05
0.000352184
7.51216e-05
0.000335768
7.86e-05
0.000315923
8.13198e-05
0.000292506
8.30429e-05
0.00026656
8.32175e-05
0.000236202
8.16808e-05
0.000199801
7.82351e-05
0.000157724
7.27817e-05
0.000112714
6.55435e-05
7.00943e-05
5.5126e-05
3.43516e-05
4.13965e-05
7.31599e-06
2.8693e-05
-1.10551e-05
2.08091e-05
1.77785e-05
-2.23017e-05
0.000424201
4.29446e-06
0.000424596
1.11184e-05
0.000424279
1.76158e-05
0.000423303
2.38177e-05
0.000421661
2.97171e-05
0.000419372
3.52953e-05
0.000416497
4.05422e-05
0.000413123
4.54759e-05
0.000409341
5.01378e-05
0.000405243
5.45965e-05
0.000400911
5.89341e-05
0.000396395
6.32391e-05
0.000391678
6.75977e-05
0.000386651
7.2073e-05
0.000381155
7.66762e-05
0.000374941
8.13361e-05
0.000367642
8.58988e-05
0.000358817
9.01445e-05
0.000348047
9.38134e-05
0.000334555
9.67089e-05
0.000317189
9.90471e-05
0.000295127
0.000100297
0.00026812
9.97887e-05
0.00023645
9.72135e-05
0.000199562
9.20137e-05
0.000156531
8.44282e-05
0.000110879
7.4345e-05
6.97627e-05
6.19251e-05
5.064e-05
3.69013e-05
0.000407926
3.52158e-06
0.000408415
1.06296e-05
0.000408367
1.76639e-05
0.000407733
2.44514e-05
0.00040661
3.084e-05
0.000405042
3.68633e-05
0.000403069
4.25153e-05
0.00040075
4.77948e-05
0.000398162
5.27262e-05
0.000395393
5.73646e-05
0.000392534
6.17938e-05
0.00038966
6.61132e-05
0.000386827
7.04306e-05
0.000384066
7.48335e-05
0.000381377
7.93654e-05
0.000378683
8.403e-05
0.00037582
8.8762e-05
0.000372469
9.34958e-05
0.000368213
9.80691e-05
0.000362326
0.000102596
0.000354498
0.000106874
0.000344023
0.000110772
0.000330325
0.000113487
0.000312432
0.000115107
0.000289373
0.000115072
0.000260696
0.000113105
0.000225823
0.000109218
0.000187446
0.000100302
9.65311e-05
0.000141555
0.000394376
2.73411e-06
0.000394815
1.01901e-05
0.000394987
1.74923e-05
0.000394863
2.45759e-05
0.000394353
3.13498e-05
0.000393465
3.77515e-05
0.000392236
4.37435e-05
0.000390715
4.93158e-05
0.000388965
5.44768e-05
0.000387055
5.92741e-05
0.000385078
6.37711e-05
0.000383112
6.80788e-05
0.000381262
7.22814e-05
0.000379582
7.65127e-05
0.000378151
8.0797e-05
0.000376929
8.52519e-05
0.000375902
8.97886e-05
0.000374858
9.45404e-05
0.000373588
9.93391e-05
0.000371784
0.000104399
0.000369259
0.0001094
0.000365657
0.000114374
0.000360129
0.000119015
0.000352422
0.000122814
0.000340815
0.000126679
0.00032651
0.00012741
0.00030527
0.000130459
0.000281905
0.000123667
0.000129557
0.000248879
0.000384126
2.05309e-06
0.000384646
9.67028e-06
0.000384964
1.71738e-05
0.000385045
2.44947e-05
0.000384863
3.15326e-05
0.000384397
3.82175e-05
0.000383668
4.44717e-05
0.0003827
5.02842e-05
0.000381554
5.56231e-05
0.000380272
6.0556e-05
0.00037895
6.50932e-05
0.000377641
6.93872e-05
0.000376463
7.34598e-05
0.000375457
7.75183e-05
0.000374717
8.15369e-05
0.000374242
8.57275e-05
0.000374029
9.0001e-05
0.000374043
9.4527e-05
0.000374116
9.92659e-05
0.000374361
0.000104155
0.000374304
0.000109456
0.000374323
0.000114355
0.000373097
0.000120241
0.000371635
0.000124276
0.000367468
0.000130845
0.000362616
0.000132262
0.000353279
0.000139796
0.000341382
0.000135564
0.000144938
0.000326001
0.000375993
1.56244e-06
0.000376448
9.21529e-06
0.000376817
1.68042e-05
0.000377046
2.4266e-05
0.000377112
3.14664e-05
0.000376979
3.83509e-05
0.00037666
4.47902e-05
0.000376152
5.0792e-05
0.000375511
5.62647e-05
0.000374761
6.13062e-05
0.000373983
6.58706e-05
0.000373232
7.01385e-05
0.000372586
7.41061e-05
0.000372127
7.79774e-05
0.000371869
8.17945e-05
0.000371937
8.56592e-05
0.000372194
8.97443e-05
0.000372879
9.3842e-05
0.000373629
9.85164e-05
0.000374937
0.000102847
0.000376059
0.000108333
0.000377793
0.000112621
0.000378927
0.000119107
0.000380445
0.000122758
0.000381022
0.000130268
0.00038091
0.000132375
0.00038018
0.000140526
0.000375434
0.000140311
0.000147624
0.000372747
0.00036782
9.99506e-07
0.000368385
8.65107e-06
0.000368937
1.62519e-05
0.000369415
2.3788e-05
0.000369792
3.10891e-05
0.000370029
3.81145e-05
0.000370131
4.46874e-05
0.000370096
5.08275e-05
0.000369952
5.64088e-05
0.000369738
6.15204e-05
0.000369487
6.61211e-05
0.000369294
7.03313e-05
0.000369159
7.42412e-05
0.000369242
7.78945e-05
0.000369453
8.15837e-05
0.000370032
8.50802e-05
0.000370751
8.90253e-05
0.000371956
9.26372e-05
0.000373283
9.71888e-05
0.000375153
0.000100977
0.000377155
0.000106332
0.000379578
0.000110199
0.000382318
0.000116367
0.000384955
0.000120121
0.000388488
0.000126735
0.000390562
0.0001303
0.000394723
0.000136365
0.000394826
0.000140208
0.000143707
0.000398743
0.000361247
3.52067e-07
0.0003619
7.99876e-06
0.000362554
1.55976e-05
0.000363164
2.31778e-05
0.000363709
3.0544e-05
0.000364168
3.76551e-05
0.000364537
4.43188e-05
0.000364828
5.05362e-05
0.000365041
5.61961e-05
0.000365237
6.13249e-05
0.000365408
6.59499e-05
0.000365672
7.00674e-05
0.000365995
7.39174e-05
0.00036654
7.73504e-05
0.000367234
8.08894e-05
0.000368247
8.40667e-05
0.000369504
8.77684e-05
0.000371105
9.10368e-05
0.000373083
9.52103e-05
0.000375298
9.87621e-05
0.000378147
0.000103483
0.00038093
0.000107416
0.000384834
0.000112462
0.000388088
0.000116867
0.0003932
0.000121624
0.000396762
0.000126738