/*--------------------------------*- C++ -*----------------------------------*\
| =========                 |                                                 |
| \\      /  F ield         | OpenFOAM: The Open Source CFD Toolbox           |
|  \\    /   O peration     | Version:  2312                                  |
|   \\  /    A nd           | Website:  www.openfoam.com                      |
|    \\/     M anipulation  |                                                 |
\*---------------------------------------------------------------------------*/
FoamFile
{
    version     2.0;
    format      ascii;
    arch        "LSB;label=32;scalar=64";
    class       volScalarField;
    location    "125000";
    object      p;
}
// * * * * * * * * * * * * * * * * * * * * * * * * * * * * * * * * * * * * * //

dimensions      [0 2 -2 0 0 0 0];

internalField   nonuniform List<scalar> 
2685
(
-2.6255e-07
-2.91953e-07
-2.96725e-07
-2.97848e-07
-3.00093e-07
-3.03186e-07
-3.05795e-07
-3.07324e-07
-3.07835e-07
-3.07719e-07
-3.07355e-07
-3.06971e-07
-3.06679e-07
-3.06551e-07
-3.06653e-07
-3.07051e-07
-3.07799e-07
-3.08928e-07
-3.10445e-07
-3.12327e-07
-3.14531e-07
-3.16986e-07
-3.19606e-07
-3.22278e-07
-3.24873e-07
-3.27224e-07
-3.2911e-07
-3.3027e-07
-3.30438e-07
-3.29416e-07
-3.27061e-07
-3.23369e-07
-3.18392e-07
-3.12234e-07
-3.05139e-07
-2.97395e-07
-2.89209e-07
-2.80793e-07
-2.72392e-07
-2.64213e-07
-2.56421e-07
-2.49129e-07
-2.42397e-07
-2.36244e-07
-2.30655e-07
-2.2559e-07
-2.2099e-07
-2.16791e-07
-2.1293e-07
-2.09359e-07
-2.06028e-07
-2.0289e-07
-1.99896e-07
-1.97016e-07
-1.94245e-07
-1.91592e-07
-1.89072e-07
-1.867e-07
-1.84495e-07
-1.82472e-07
-1.80649e-07
-1.79047e-07
-1.77684e-07
-1.76551e-07
-1.75634e-07
-1.74924e-07
-1.74411e-07
-1.74082e-07
-1.73906e-07
-1.73877e-07
-1.7397e-07
-1.74161e-07
-1.74424e-07
-1.74736e-07
-1.75072e-07
-1.7541e-07
-1.75727e-07
-1.76003e-07
-1.76219e-07
-1.76354e-07
-1.76393e-07
-1.76321e-07
-1.76123e-07
-1.75788e-07
-1.75307e-07
-1.74673e-07
-1.7388e-07
-1.72929e-07
-1.71822e-07
-1.70571e-07
-3.33585e-07
-3.24515e-07
-3.228e-07
-3.23266e-07
-3.23677e-07
-3.2355e-07
-3.22972e-07
-3.22152e-07
-3.21237e-07
-3.20307e-07
-3.1941e-07
-3.18585e-07
-3.17871e-07
-3.17317e-07
-3.16972e-07
-3.16889e-07
-3.1711e-07
-3.1766e-07
-3.18545e-07
-3.19744e-07
-3.21221e-07
-3.22916e-07
-3.24754e-07
-3.26644e-07
-3.2847e-07
-3.30082e-07
-3.3127e-07
-3.31746e-07
-3.3119e-07
-3.2933e-07
-3.26021e-07
-3.21261e-07
-3.15189e-07
-3.08033e-07
-3.00034e-07
-2.91487e-07
-2.82694e-07
-2.73906e-07
-2.65326e-07
-2.57141e-07
-2.49504e-07
-2.42524e-07
-2.36259e-07
-2.30713e-07
-2.25843e-07
-2.21577e-07
-2.17825e-07
-2.14488e-07
-2.11471e-07
-2.08695e-07
-2.06082e-07
-2.0352e-07
-2.01002e-07
-1.98496e-07
-1.9599e-07
-1.93498e-07
-1.91048e-07
-1.88669e-07
-1.86386e-07
-1.84225e-07
-1.82206e-07
-1.80342e-07
-1.78644e-07
-1.7714e-07
-1.7586e-07
-1.74819e-07
-1.74025e-07
-1.73479e-07
-1.73198e-07
-1.73117e-07
-1.73203e-07
-1.73424e-07
-1.73748e-07
-1.74142e-07
-1.74577e-07
-1.75024e-07
-1.75458e-07
-1.75855e-07
-1.76193e-07
-1.76449e-07
-1.76605e-07
-1.76642e-07
-1.76544e-07
-1.76296e-07
-1.75881e-07
-1.75287e-07
-1.74506e-07
-1.73587e-07
-1.72505e-07
-1.71255e-07
-3.57163e-07
-3.49136e-07
-3.47323e-07
-3.47858e-07
-3.48364e-07
-3.48062e-07
-3.46962e-07
-3.45379e-07
-3.43628e-07
-3.41889e-07
-3.40222e-07
-3.38629e-07
-3.37103e-07
-3.35652e-07
-3.343e-07
-3.33081e-07
-3.32025e-07
-3.31153e-07
-3.30472e-07
-3.29974e-07
-3.29632e-07
-3.29402e-07
-3.29223e-07
-3.29015e-07
-3.28677e-07
-3.28091e-07
-3.27122e-07
-3.2563e-07
-3.23483e-07
-3.20577e-07
-3.16857e-07
-3.12314e-07
-3.06994e-07
-3.00998e-07
-2.9448e-07
-2.87662e-07
-2.807e-07
-2.73701e-07
-2.66729e-07
-2.59834e-07
-2.53083e-07
-2.46569e-07
-2.40387e-07
-2.34602e-07
-2.29236e-07
-2.24267e-07
-2.19644e-07
-2.1532e-07
-2.11241e-07
-2.07385e-07
-2.03746e-07
-2.00287e-07
-1.96886e-07
-1.93567e-07
-1.9041e-07
-1.87458e-07
-1.84726e-07
-1.82233e-07
-1.80003e-07
-1.78051e-07
-1.7638e-07
-1.74988e-07
-1.73865e-07
-1.73003e-07
-1.72389e-07
-1.72011e-07
-1.71857e-07
-1.71911e-07
-1.72131e-07
-1.72496e-07
-1.72965e-07
-1.73505e-07
-1.74088e-07
-1.74692e-07
-1.75298e-07
-1.75884e-07
-1.7643e-07
-1.76917e-07
-1.77322e-07
-1.77627e-07
-1.77816e-07
-1.77872e-07
-1.77784e-07
-1.77539e-07
-1.77124e-07
-1.76529e-07
-1.75751e-07
-1.74741e-07
-1.73573e-07
-1.72245e-07
-4.01203e-07
-3.94561e-07
-3.90241e-07
-3.87573e-07
-3.85674e-07
-3.83861e-07
-3.81789e-07
-3.79384e-07
-3.76716e-07
-3.73904e-07
-3.71033e-07
-3.68149e-07
-3.65267e-07
-3.6239e-07
-3.59521e-07
-3.5667e-07
-3.53853e-07
-3.51087e-07
-3.48384e-07
-3.45747e-07
-3.43163e-07
-3.40611e-07
-3.38054e-07
-3.35448e-07
-3.32735e-07
-3.29854e-07
-3.26738e-07
-3.23322e-07
-3.19548e-07
-3.1537e-07
-3.10745e-07
-3.05651e-07
-3.00087e-07
-2.9409e-07
-2.87725e-07
-2.81075e-07
-2.74213e-07
-2.67179e-07
-2.60045e-07
-2.52937e-07
-2.46006e-07
-2.39382e-07
-2.33149e-07
-2.27329e-07
-2.21939e-07
-2.16985e-07
-2.12452e-07
-2.08303e-07
-2.04487e-07
-2.00961e-07
-1.97683e-07
-1.94617e-07
-1.91816e-07
-1.89301e-07
-1.8703e-07
-1.84935e-07
-1.8295e-07
-1.81048e-07
-1.7924e-07
-1.77547e-07
-1.7599e-07
-1.74581e-07
-1.73337e-07
-1.72278e-07
-1.71423e-07
-1.70789e-07
-1.7039e-07
-1.70229e-07
-1.7029e-07
-1.70545e-07
-1.70962e-07
-1.71507e-07
-1.72139e-07
-1.72826e-07
-1.73542e-07
-1.74265e-07
-1.74968e-07
-1.75629e-07
-1.76222e-07
-1.76722e-07
-1.77105e-07
-1.77348e-07
-1.77434e-07
-1.77344e-07
-1.7706e-07
-1.76564e-07
-1.75848e-07
-1.74929e-07
-1.73805e-07
-1.72499e-07
-4.34768e-07
-4.2984e-07
-4.25894e-07
-4.22845e-07
-4.20344e-07
-4.17973e-07
-4.1541e-07
-4.12501e-07
-4.09234e-07
-4.05675e-07
-4.01913e-07
-3.98011e-07
-3.93994e-07
-3.89859e-07
-3.85603e-07
-3.81223e-07
-3.76732e-07
-3.72147e-07
-3.67486e-07
-3.62764e-07
-3.57987e-07
-3.53151e-07
-3.48247e-07
-3.43266e-07
-3.38193e-07
-3.33009e-07
-3.27693e-07
-3.22216e-07
-3.16549e-07
-3.10655e-07
-3.04513e-07
-2.9812e-07
-2.91491e-07
-2.84662e-07
-2.77683e-07
-2.70613e-07
-2.63515e-07
-2.56452e-07
-2.49493e-07
-2.42706e-07
-2.3616e-07
-2.29913e-07
-2.24023e-07
-2.18551e-07
-2.13506e-07
-2.08857e-07
-2.04555e-07
-2.0056e-07
-1.96838e-07
-1.93366e-07
-1.90134e-07
-1.87137e-07
-1.84377e-07
-1.81835e-07
-1.79426e-07
-1.77082e-07
-1.74824e-07
-1.72726e-07
-1.7085e-07
-1.69225e-07
-1.67847e-07
-1.66706e-07
-1.65796e-07
-1.6512e-07
-1.64679e-07
-1.64469e-07
-1.64481e-07
-1.64698e-07
-1.65094e-07
-1.65642e-07
-1.66315e-07
-1.67093e-07
-1.67962e-07
-1.68882e-07
-1.69811e-07
-1.70713e-07
-1.71563e-07
-1.72338e-07
-1.73018e-07
-1.73584e-07
-1.74016e-07
-1.74299e-07
-1.74419e-07
-1.74363e-07
-1.74119e-07
-1.73674e-07
-1.73025e-07
-1.72184e-07
-1.71161e-07
-1.69963e-07
-4.59482e-07
-4.5724e-07
-4.56146e-07
-4.55201e-07
-4.53799e-07
-4.51709e-07
-4.48922e-07
-4.45531e-07
-4.41656e-07
-4.37396e-07
-4.32815e-07
-4.27947e-07
-4.22803e-07
-4.17383e-07
-4.1169e-07
-4.05733e-07
-3.99531e-07
-3.93111e-07
-3.86502e-07
-3.79736e-07
-3.72841e-07
-3.65842e-07
-3.58755e-07
-3.5159e-07
-3.44349e-07
-3.37037e-07
-3.29651e-07
-3.22189e-07
-3.14642e-07
-3.07004e-07
-2.99283e-07
-2.91502e-07
-2.83693e-07
-2.75892e-07
-2.68141e-07
-2.60486e-07
-2.52975e-07
-2.45658e-07
-2.38578e-07
-2.3177e-07
-2.25266e-07
-2.19093e-07
-2.13276e-07
-2.0783e-07
-2.02743e-07
-1.97993e-07
-1.93561e-07
-1.89431e-07
-1.85596e-07
-1.82049e-07
-1.78785e-07
-1.75793e-07
-1.73056e-07
-1.7055e-07
-1.68251e-07
-1.66143e-07
-1.64232e-07
-1.62539e-07
-1.61083e-07
-1.59872e-07
-1.58901e-07
-1.58162e-07
-1.57641e-07
-1.57321e-07
-1.57189e-07
-1.5723e-07
-1.57428e-07
-1.57769e-07
-1.5824e-07
-1.58829e-07
-1.59521e-07
-1.60297e-07
-1.61136e-07
-1.62012e-07
-1.62897e-07
-1.63769e-07
-1.64606e-07
-1.65391e-07
-1.66105e-07
-1.66728e-07
-1.67243e-07
-1.67633e-07
-1.67882e-07
-1.67976e-07
-1.67906e-07
-1.67663e-07
-1.67244e-07
-1.66649e-07
-1.65881e-07
-1.64946e-07
-4.9669e-07
-4.95307e-07
-4.95145e-07
-4.94933e-07
-4.93906e-07
-4.9178e-07
-4.88568e-07
-4.84431e-07
-4.7956e-07
-4.74108e-07
-4.68167e-07
-4.6178e-07
-4.54964e-07
-4.47728e-07
-4.40087e-07
-4.32071e-07
-4.2372e-07
-4.15082e-07
-4.06211e-07
-3.97153e-07
-3.87955e-07
-3.78653e-07
-3.69281e-07
-3.59864e-07
-3.50426e-07
-3.40986e-07
-3.31563e-07
-3.22174e-07
-3.1284e-07
-3.03586e-07
-2.94432e-07
-2.85395e-07
-2.76495e-07
-2.67757e-07
-2.59212e-07
-2.50893e-07
-2.42831e-07
-2.35059e-07
-2.27602e-07
-2.20484e-07
-2.13721e-07
-2.07328e-07
-2.01311e-07
-1.95672e-07
-1.90408e-07
-1.85508e-07
-1.80961e-07
-1.76761e-07
-1.72902e-07
-1.69377e-07
-1.66175e-07
-1.6328e-07
-1.60672e-07
-1.58339e-07
-1.56273e-07
-1.54469e-07
-1.52913e-07
-1.51596e-07
-1.50508e-07
-1.4964e-07
-1.48979e-07
-1.4851e-07
-1.48219e-07
-1.48095e-07
-1.48133e-07
-1.48323e-07
-1.48658e-07
-1.49129e-07
-1.49723e-07
-1.50426e-07
-1.5122e-07
-1.52087e-07
-1.53006e-07
-1.53955e-07
-1.54915e-07
-1.55863e-07
-1.56781e-07
-1.57648e-07
-1.58446e-07
-1.59157e-07
-1.59765e-07
-1.60255e-07
-1.60614e-07
-1.60833e-07
-1.60902e-07
-1.60817e-07
-1.60574e-07
-1.60172e-07
-1.59614e-07
-1.58907e-07
-5.49116e-07
-5.47339e-07
-5.46189e-07
-5.45203e-07
-5.43757e-07
-5.41375e-07
-5.37832e-07
-5.33115e-07
-5.27346e-07
-5.20678e-07
-5.13236e-07
-5.05096e-07
-4.96297e-07
-4.86865e-07
-4.76835e-07
-4.66256e-07
-4.55196e-07
-4.43732e-07
-4.31948e-07
-4.19924e-07
-4.07732e-07
-3.95441e-07
-3.83111e-07
-3.708e-07
-3.58563e-07
-3.46452e-07
-3.34522e-07
-3.2282e-07
-3.11382e-07
-3.00228e-07
-2.89371e-07
-2.78822e-07
-2.68598e-07
-2.58712e-07
-2.49182e-07
-2.40023e-07
-2.31253e-07
-2.22886e-07
-2.14934e-07
-2.07407e-07
-2.00313e-07
-1.93654e-07
-1.8743e-07
-1.81639e-07
-1.76275e-07
-1.7133e-07
-1.66793e-07
-1.62653e-07
-1.58896e-07
-1.55507e-07
-1.5247e-07
-1.49768e-07
-1.47384e-07
-1.45301e-07
-1.43507e-07
-1.41987e-07
-1.40725e-07
-1.39703e-07
-1.38907e-07
-1.38325e-07
-1.37942e-07
-1.37748e-07
-1.37732e-07
-1.37883e-07
-1.38193e-07
-1.38653e-07
-1.3925e-07
-1.3997e-07
-1.40798e-07
-1.41716e-07
-1.42706e-07
-1.43751e-07
-1.44833e-07
-1.45932e-07
-1.4703e-07
-1.48109e-07
-1.4915e-07
-1.50135e-07
-1.5105e-07
-1.51878e-07
-1.52607e-07
-1.53224e-07
-1.53719e-07
-1.54085e-07
-1.54313e-07
-1.54399e-07
-1.54342e-07
-1.5414e-07
-1.53796e-07
-1.53314e-07
-5.93237e-07
-5.93211e-07
-5.93271e-07
-5.932e-07
-5.92439e-07
-5.90532e-07
-5.87256e-07
-5.82573e-07
-5.76558e-07
-5.69324e-07
-5.60974e-07
-5.51582e-07
-5.412e-07
-5.29876e-07
-5.17666e-07
-5.04647e-07
-4.90913e-07
-4.76574e-07
-4.61745e-07
-4.46543e-07
-4.3108e-07
-4.15464e-07
-3.99801e-07
-3.84188e-07
-3.68723e-07
-3.53495e-07
-3.38593e-07
-3.24092e-07
-3.10043e-07
-2.9647e-07
-2.8339e-07
-2.7082e-07
-2.58778e-07
-2.47283e-07
-2.36348e-07
-2.2598e-07
-2.16186e-07
-2.06966e-07
-1.9832e-07
-1.90244e-07
-1.82731e-07
-1.7577e-07
-1.69351e-07
-1.6346e-07
-1.5808e-07
-1.53196e-07
-1.48789e-07
-1.44838e-07
-1.41321e-07
-1.38216e-07
-1.35502e-07
-1.33157e-07
-1.31159e-07
-1.29488e-07
-1.28123e-07
-1.27043e-07
-1.26227e-07
-1.25655e-07
-1.2531e-07
-1.25176e-07
-1.2524e-07
-1.25491e-07
-1.25914e-07
-1.26497e-07
-1.27224e-07
-1.28082e-07
-1.29052e-07
-1.30121e-07
-1.3127e-07
-1.32485e-07
-1.33748e-07
-1.35045e-07
-1.36359e-07
-1.37673e-07
-1.38972e-07
-1.40239e-07
-1.41459e-07
-1.42618e-07
-1.43701e-07
-1.44696e-07
-1.45592e-07
-1.46379e-07
-1.47048e-07
-1.47591e-07
-1.48002e-07
-1.48278e-07
-1.48417e-07
-1.48417e-07
-1.48281e-07
-1.4801e-07
-6.20093e-07
-6.22745e-07
-6.25071e-07
-6.26578e-07
-6.26912e-07
-6.25846e-07
-6.2327e-07
-6.19173e-07
-6.13595e-07
-6.06586e-07
-5.98185e-07
-5.88438e-07
-5.77388e-07
-5.65092e-07
-5.51619e-07
-5.3706e-07
-5.21525e-07
-5.05139e-07
-4.88035e-07
-4.70355e-07
-4.5224e-07
-4.33834e-07
-4.15278e-07
-3.96712e-07
-3.78268e-07
-3.60075e-07
-3.42246e-07
-3.24865e-07
-3.07995e-07
-2.91702e-07
-2.76051e-07
-2.61093e-07
-2.46869e-07
-2.33407e-07
-2.20725e-07
-2.08831e-07
-1.97729e-07
-1.8741e-07
-1.77866e-07
-1.69079e-07
-1.61028e-07
-1.53692e-07
-1.47043e-07
-1.41053e-07
-1.35693e-07
-1.30933e-07
-1.2674e-07
-1.23083e-07
-1.19931e-07
-1.17251e-07
-1.15013e-07
-1.13187e-07
-1.11744e-07
-1.10655e-07
-1.09893e-07
-1.09431e-07
-1.09244e-07
-1.0931e-07
-1.09605e-07
-1.10111e-07
-1.10806e-07
-1.11672e-07
-1.12692e-07
-1.13846e-07
-1.15117e-07
-1.16488e-07
-1.17944e-07
-1.19467e-07
-1.21044e-07
-1.22658e-07
-1.24295e-07
-1.2594e-07
-1.27578e-07
-1.29194e-07
-1.30774e-07
-1.32305e-07
-1.33773e-07
-1.35166e-07
-1.36472e-07
-1.3768e-07
-1.38781e-07
-1.39766e-07
-1.40629e-07
-1.41364e-07
-1.41965e-07
-1.4243e-07
-1.42757e-07
-1.42945e-07
-1.42996e-07
-1.42912e-07
-6.34558e-07
-6.39118e-07
-6.42872e-07
-6.45291e-07
-6.46227e-07
-6.45659e-07
-6.43585e-07
-6.39998e-07
-6.34886e-07
-6.28249e-07
-6.20095e-07
-6.10439e-07
-5.99308e-07
-5.86751e-07
-5.72834e-07
-5.57646e-07
-5.4129e-07
-5.23886e-07
-5.05565e-07
-4.86471e-07
-4.66756e-07
-4.46582e-07
-4.26113e-07
-4.05511e-07
-3.8493e-07
-3.64513e-07
-3.4438e-07
-3.24647e-07
-3.05431e-07
-2.86842e-07
-2.68976e-07
-2.51909e-07
-2.357e-07
-2.20394e-07
-2.06022e-07
-1.92605e-07
-1.80149e-07
-1.68652e-07
-1.58102e-07
-1.48481e-07
-1.39762e-07
-1.31914e-07
-1.24903e-07
-1.18691e-07
-1.13239e-07
-1.08504e-07
-1.04444e-07
-1.01018e-07
-9.81816e-08
-9.58937e-08
-9.41133e-08
-9.28002e-08
-9.1916e-08
-9.14234e-08
-9.12868e-08
-9.14723e-08
-9.19472e-08
-9.26808e-08
-9.36436e-08
-9.48085e-08
-9.61501e-08
-9.76452e-08
-9.92725e-08
-1.01012e-07
-1.02845e-07
-1.04754e-07
-1.06723e-07
-1.08737e-07
-1.10779e-07
-1.12835e-07
-1.1489e-07
-1.16931e-07
-1.18943e-07
-1.20913e-07
-1.22829e-07
-1.24677e-07
-1.26444e-07
-1.2812e-07
-1.29691e-07
-1.3115e-07
-1.32488e-07
-1.33699e-07
-1.34777e-07
-1.35718e-07
-1.36517e-07
-1.37172e-07
-1.37681e-07
-1.38046e-07
-1.38267e-07
-1.38347e-07
-6.40526e-07
-6.45047e-07
-6.48488e-07
-6.50712e-07
-6.5162e-07
-6.51193e-07
-6.49329e-07
-6.46006e-07
-6.41173e-07
-6.34798e-07
-6.26871e-07
-6.174e-07
-6.06409e-07
-5.9394e-07
-5.8005e-07
-5.64816e-07
-5.48329e-07
-5.30698e-07
-5.12045e-07
-4.92508e-07
-4.72233e-07
-4.51382e-07
-4.30114e-07
-4.08595e-07
-3.86983e-07
-3.65434e-07
-3.441e-07
-3.23127e-07
-3.02651e-07
-2.82795e-07
-2.63662e-07
-2.45341e-07
-2.27907e-07
-2.11419e-07
-1.95922e-07
-1.81449e-07
-1.68018e-07
-1.55636e-07
-1.44298e-07
-1.33988e-07
-1.24682e-07
-1.16348e-07
-1.0895e-07
-1.02446e-07
-9.6791e-08
-9.19379e-08
-8.78378e-08
-8.44415e-08
-8.16994e-08
-7.95627e-08
-7.79835e-08
-7.69151e-08
-7.63127e-08
-7.61336e-08
-7.63378e-08
-7.68876e-08
-7.77473e-08
-7.88822e-08
-8.02586e-08
-8.1845e-08
-8.36108e-08
-8.55291e-08
-8.75755e-08
-8.97274e-08
-9.19699e-08
-9.42847e-08
-9.66512e-08
-9.90491e-08
-1.01461e-07
-1.03873e-07
-1.06271e-07
-1.08641e-07
-1.10969e-07
-1.13243e-07
-1.15451e-07
-1.17583e-07
-1.19628e-07
-1.21574e-07
-1.23411e-07
-1.25128e-07
-1.26717e-07
-1.28172e-07
-1.29487e-07
-1.30656e-07
-1.31676e-07
-1.32543e-07
-1.33253e-07
-1.33811e-07
-1.34216e-07
-1.3447e-07
-6.36348e-07
-6.41261e-07
-6.43802e-07
-6.45366e-07
-6.45769e-07
-6.44885e-07
-6.42725e-07
-6.39192e-07
-6.34238e-07
-6.27813e-07
-6.19919e-07
-6.10561e-07
-5.9977e-07
-5.87556e-07
-5.73966e-07
-5.59066e-07
-5.42936e-07
-5.25671e-07
-5.07384e-07
-4.88201e-07
-4.6826e-07
-4.47708e-07
-4.267e-07
-4.05391e-07
-3.83937e-07
-3.62491e-07
-3.41205e-07
-3.20222e-07
-2.99674e-07
-2.79683e-07
-2.60357e-07
-2.41792e-07
-2.2407e-07
-2.0726e-07
-1.91419e-07
-1.76587e-07
-1.62791e-07
-1.50045e-07
-1.38348e-07
-1.2769e-07
-1.18054e-07
-1.09413e-07
-1.01735e-07
-9.49832e-08
-8.91146e-08
-8.40835e-08
-7.98416e-08
-7.6339e-08
-7.35248e-08
-7.13476e-08
-6.97566e-08
-6.87012e-08
-6.81314e-08
-6.79995e-08
-6.82638e-08
-6.88832e-08
-6.98188e-08
-7.10312e-08
-7.24767e-08
-7.41304e-08
-7.5959e-08
-7.79391e-08
-8.00429e-08
-8.22353e-08
-8.45259e-08
-8.68957e-08
-8.93297e-08
-9.18024e-08
-9.4298e-08
-9.68044e-08
-9.93087e-08
-1.01797e-07
-1.04257e-07
-1.06675e-07
-1.09037e-07
-1.1133e-07
-1.13541e-07
-1.15658e-07
-1.1767e-07
-1.19569e-07
-1.21347e-07
-1.22995e-07
-1.24505e-07
-1.25872e-07
-1.2709e-07
-1.28153e-07
-1.29033e-07
-1.29794e-07
-1.30399e-07
-1.30847e-07
-6.28256e-07
-6.30593e-07
-6.31876e-07
-6.3221e-07
-6.31422e-07
-6.29502e-07
-6.26369e-07
-6.21999e-07
-6.16349e-07
-6.09422e-07
-6.01182e-07
-5.91627e-07
-5.80952e-07
-5.68906e-07
-5.55631e-07
-5.41237e-07
-5.25759e-07
-5.09264e-07
-4.91846e-07
-4.73614e-07
-4.54686e-07
-4.35194e-07
-4.15271e-07
-3.95064e-07
-3.74704e-07
-3.5433e-07
-3.34082e-07
-3.14091e-07
-2.94484e-07
-2.75377e-07
-2.56879e-07
-2.39086e-07
-2.22077e-07
-2.05921e-07
-1.90673e-07
-1.76376e-07
-1.6306e-07
-1.50743e-07
-1.39431e-07
-1.29118e-07
-1.19791e-07
-1.11426e-07
-1.03991e-07
-9.7449e-08
-9.17565e-08
-8.68663e-08
-8.27278e-08
-7.92893e-08
-7.64985e-08
-7.43032e-08
-7.2652e-08
-7.14935e-08
-7.0772e-08
-7.04194e-08
-7.04214e-08
-7.07455e-08
-7.13593e-08
-7.22246e-08
-7.3222e-08
-7.45145e-08
-7.59889e-08
-7.76126e-08
-7.93654e-08
-8.12275e-08
-8.31668e-08
-8.51893e-08
-8.72715e-08
-8.94023e-08
-9.15699e-08
-9.37622e-08
-9.59682e-08
-9.81771e-08
-1.00378e-07
-1.0256e-07
-1.04712e-07
-1.06824e-07
-1.08886e-07
-1.10888e-07
-1.1282e-07
-1.14672e-07
-1.16435e-07
-1.18099e-07
-1.19657e-07
-1.21102e-07
-1.22427e-07
-1.23632e-07
-1.24731e-07
-1.25645e-07
-1.26413e-07
-1.27035e-07
-6.17643e-07
-6.17287e-07
-6.16026e-07
-6.13898e-07
-6.1081e-07
-6.0676e-07
-6.01697e-07
-5.95615e-07
-5.88483e-07
-5.80302e-07
-5.71055e-07
-5.60757e-07
-5.49342e-07
-5.37211e-07
-5.24275e-07
-5.10667e-07
-4.95945e-07
-4.80318e-07
-4.6395e-07
-4.46977e-07
-4.29494e-07
-4.11607e-07
-3.93427e-07
-3.75061e-07
-3.56629e-07
-3.38251e-07
-3.20042e-07
-3.02111e-07
-2.84561e-07
-2.6749e-07
-2.50988e-07
-2.35146e-07
-2.20046e-07
-2.0575e-07
-1.92288e-07
-1.79686e-07
-1.67961e-07
-1.57124e-07
-1.47171e-07
-1.38094e-07
-1.29875e-07
-1.22485e-07
-1.15891e-07
-1.10058e-07
-1.04943e-07
-1.00502e-07
-9.66821e-08
-9.3433e-08
-9.07065e-08
-8.84552e-08
-8.66339e-08
-8.52026e-08
-8.41207e-08
-8.31969e-08
-8.27175e-08
-8.25434e-08
-8.26161e-08
-8.29064e-08
-8.34589e-08
-8.40389e-08
-8.47206e-08
-8.55119e-08
-8.64078e-08
-8.74009e-08
-8.84803e-08
-8.96418e-08
-9.08786e-08
-9.21834e-08
-9.35487e-08
-9.49673e-08
-9.64326e-08
-9.7938e-08
-9.94769e-08
-1.01042e-07
-1.02623e-07
-1.04212e-07
-1.05799e-07
-1.07372e-07
-1.08921e-07
-1.10435e-07
-1.11906e-07
-1.13323e-07
-1.14677e-07
-1.15961e-07
-1.17166e-07
-1.18286e-07
-1.19312e-07
-1.20233e-07
-1.21043e-07
-1.2174e-07
-6.09333e-07
-6.05858e-07
-6.01497e-07
-5.96311e-07
-5.90248e-07
-5.83345e-07
-5.75597e-07
-5.67047e-07
-5.57706e-07
-5.47602e-07
-5.36745e-07
-5.25155e-07
-5.12839e-07
-4.99857e-07
-4.86232e-07
-4.71853e-07
-4.57268e-07
-4.42413e-07
-4.27287e-07
-4.11938e-07
-3.9626e-07
-3.80391e-07
-3.64437e-07
-3.48494e-07
-3.32649e-07
-3.16987e-07
-3.0159e-07
-2.86534e-07
-2.71888e-07
-2.57715e-07
-2.44064e-07
-2.30983e-07
-2.18516e-07
-2.06712e-07
-1.95615e-07
-1.85244e-07
-1.756e-07
-1.66675e-07
-1.58454e-07
-1.50919e-07
-1.44045e-07
-1.37803e-07
-1.32164e-07
-1.27096e-07
-1.22569e-07
-1.18551e-07
-1.14953e-07
-1.11762e-07
-1.08944e-07
-1.06467e-07
-1.04295e-07
-1.02392e-07
-1.0072e-07
-9.94457e-08
-9.82508e-08
-9.72127e-08
-9.63398e-08
-9.56328e-08
-9.50921e-08
-9.46962e-08
-9.4436e-08
-9.43041e-08
-9.42934e-08
-9.43979e-08
-9.46121e-08
-9.49305e-08
-9.53476e-08
-9.5858e-08
-9.64561e-08
-9.71362e-08
-9.7892e-08
-9.87166e-08
-9.9602e-08
-1.0054e-07
-1.01521e-07
-1.02537e-07
-1.03578e-07
-1.04635e-07
-1.05697e-07
-1.06755e-07
-1.07801e-07
-1.08825e-07
-1.0982e-07
-1.10778e-07
-1.11691e-07
-1.12553e-07
-1.13357e-07
-1.14096e-07
-1.14765e-07
-6.04554e-07
-5.98529e-07
-5.91551e-07
-5.838e-07
-5.75232e-07
-5.65952e-07
-5.5599e-07
-5.4541e-07
-5.34249e-07
-5.22559e-07
-5.10381e-07
-4.9776e-07
-4.84735e-07
-4.71344e-07
-4.57625e-07
-4.43622e-07
-4.29431e-07
-4.15109e-07
-4.007e-07
-3.86208e-07
-3.7183e-07
-3.57566e-07
-3.43448e-07
-3.29524e-07
-3.15845e-07
-3.02461e-07
-2.89423e-07
-2.76775e-07
-2.64559e-07
-2.52812e-07
-2.41562e-07
-2.30825e-07
-2.20629e-07
-2.10978e-07
-2.0188e-07
-1.93339e-07
-1.85344e-07
-1.77875e-07
-1.70904e-07
-1.64411e-07
-1.58383e-07
-1.52798e-07
-1.4763e-07
-1.42852e-07
-1.38438e-07
-1.3434e-07
-1.30577e-07
-1.27108e-07
-1.23911e-07
-1.20964e-07
-1.1825e-07
-1.15755e-07
-1.13473e-07
-1.11415e-07
-1.09549e-07
-1.07861e-07
-1.06342e-07
-1.04983e-07
-1.03781e-07
-1.0273e-07
-1.01825e-07
-1.01063e-07
-1.00438e-07
-9.99445e-08
-9.95759e-08
-9.93259e-08
-9.91874e-08
-9.91533e-08
-9.92169e-08
-9.9371e-08
-9.96088e-08
-9.99226e-08
-1.00304e-07
-1.00743e-07
-1.01233e-07
-1.01768e-07
-1.02343e-07
-1.02952e-07
-1.03589e-07
-1.04249e-07
-1.04924e-07
-1.05608e-07
-1.06293e-07
-1.06971e-07
-1.07633e-07
-1.08272e-07
-1.0888e-07
-1.09449e-07
-1.09974e-07
-6.0035e-07
-5.92752e-07
-5.84064e-07
-5.74633e-07
-5.64532e-07
-5.53824e-07
-5.42582e-07
-5.30865e-07
-5.18736e-07
-5.06251e-07
-4.93468e-07
-4.80442e-07
-4.67214e-07
-4.53857e-07
-4.40413e-07
-4.26929e-07
-4.13454e-07
-4.0003e-07
-3.86695e-07
-3.7348e-07
-3.60437e-07
-3.47606e-07
-3.35025e-07
-3.22725e-07
-3.10739e-07
-2.99095e-07
-2.87815e-07
-2.7692e-07
-2.66426e-07
-2.56344e-07
-2.46684e-07
-2.37452e-07
-2.28647e-07
-2.20268e-07
-2.1231e-07
-2.04764e-07
-1.97618e-07
-1.90859e-07
-1.84469e-07
-1.78429e-07
-1.72714e-07
-1.6731e-07
-1.62202e-07
-1.57378e-07
-1.52822e-07
-1.48521e-07
-1.44465e-07
-1.40644e-07
-1.3705e-07
-1.33675e-07
-1.30512e-07
-1.27556e-07
-1.24805e-07
-1.22253e-07
-1.19898e-07
-1.17734e-07
-1.15756e-07
-1.13961e-07
-1.12343e-07
-1.10897e-07
-1.09618e-07
-1.085e-07
-1.07536e-07
-1.06719e-07
-1.0604e-07
-1.05492e-07
-1.05065e-07
-1.0475e-07
-1.0454e-07
-1.04426e-07
-1.04403e-07
-1.04463e-07
-1.04597e-07
-1.04796e-07
-1.0505e-07
-1.05348e-07
-1.0568e-07
-1.06038e-07
-1.06413e-07
-1.06796e-07
-1.07182e-07
-1.07564e-07
-1.07936e-07
-1.08295e-07
-1.08635e-07
-1.08955e-07
-1.09251e-07
-1.09521e-07
-1.09764e-07
-5.91935e-07
-5.83687e-07
-5.74615e-07
-5.64699e-07
-5.54092e-07
-5.42952e-07
-5.31381e-07
-5.19453e-07
-5.0723e-07
-4.94773e-07
-4.82142e-07
-4.69392e-07
-4.56577e-07
-4.43748e-07
-4.30953e-07
-4.18234e-07
-4.05628e-07
-3.9317e-07
-3.80893e-07
-3.68823e-07
-3.56987e-07
-3.45407e-07
-3.34107e-07
-3.23104e-07
-3.12416e-07
-3.02054e-07
-2.9203e-07
-2.8235e-07
-2.73018e-07
-2.64033e-07
-2.55395e-07
-2.47103e-07
-2.39151e-07
-2.3153e-07
-2.24231e-07
-2.17245e-07
-2.1056e-07
-2.04166e-07
-1.98047e-07
-1.92191e-07
-1.86587e-07
-1.81227e-07
-1.76106e-07
-1.71222e-07
-1.66569e-07
-1.62143e-07
-1.57942e-07
-1.53962e-07
-1.50204e-07
-1.46664e-07
-1.4334e-07
-1.40229e-07
-1.3733e-07
-1.34639e-07
-1.32152e-07
-1.29865e-07
-1.2777e-07
-1.25861e-07
-1.24128e-07
-1.22564e-07
-1.21159e-07
-1.19905e-07
-1.18791e-07
-1.17808e-07
-1.16946e-07
-1.16196e-07
-1.15548e-07
-1.14995e-07
-1.14528e-07
-1.14139e-07
-1.1382e-07
-1.13564e-07
-1.13363e-07
-1.1321e-07
-1.13098e-07
-1.13023e-07
-1.12978e-07
-1.12961e-07
-1.12967e-07
-1.12993e-07
-1.13037e-07
-1.13093e-07
-1.13161e-07
-1.13235e-07
-1.13313e-07
-1.13391e-07
-1.13465e-07
-1.13532e-07
-1.13589e-07
-5.78151e-07
-5.69742e-07
-5.60924e-07
-5.51347e-07
-5.41014e-07
-5.30095e-07
-5.18778e-07
-5.07196e-07
-4.95429e-07
-4.8353e-07
-4.71547e-07
-4.59528e-07
-4.4752e-07
-4.35569e-07
-4.23714e-07
-4.11989e-07
-4.00425e-07
-3.89045e-07
-3.77871e-07
-3.66922e-07
-3.56213e-07
-3.45756e-07
-3.35563e-07
-3.25643e-07
-3.16002e-07
-3.06643e-07
-2.9757e-07
-2.88782e-07
-2.80277e-07
-2.72054e-07
-2.64109e-07
-2.5644e-07
-2.4904e-07
-2.41905e-07
-2.35029e-07
-2.28406e-07
-2.22031e-07
-2.15902e-07
-2.10012e-07
-2.04356e-07
-1.98929e-07
-1.93725e-07
-1.88742e-07
-1.83982e-07
-1.7945e-07
-1.7515e-07
-1.71081e-07
-1.67242e-07
-1.63632e-07
-1.6025e-07
-1.57093e-07
-1.54155e-07
-1.51431e-07
-1.48911e-07
-1.46589e-07
-1.44452e-07
-1.42492e-07
-1.40697e-07
-1.39054e-07
-1.37551e-07
-1.36177e-07
-1.3492e-07
-1.33767e-07
-1.3271e-07
-1.31736e-07
-1.30836e-07
-1.30003e-07
-1.29227e-07
-1.28502e-07
-1.27823e-07
-1.27184e-07
-1.2658e-07
-1.26009e-07
-1.25467e-07
-1.2495e-07
-1.24457e-07
-1.23985e-07
-1.23532e-07
-1.23098e-07
-1.22679e-07
-1.22276e-07
-1.21887e-07
-1.2151e-07
-1.21145e-07
-1.2079e-07
-1.20446e-07
-1.20112e-07
-1.19787e-07
-1.19474e-07
-5.59834e-07
-5.5083e-07
-5.41878e-07
-5.32632e-07
-5.22922e-07
-5.12755e-07
-5.02228e-07
-4.91449e-07
-4.8051e-07
-4.69476e-07
-4.58402e-07
-4.47338e-07
-4.36326e-07
-4.25407e-07
-4.14613e-07
-4.03968e-07
-3.93494e-07
-3.83205e-07
-3.73117e-07
-3.63242e-07
-3.53589e-07
-3.44167e-07
-3.34982e-07
-3.26038e-07
-3.17336e-07
-3.08875e-07
-3.00653e-07
-2.92666e-07
-2.84909e-07
-2.77378e-07
-2.70067e-07
-2.62974e-07
-2.56097e-07
-2.49434e-07
-2.42988e-07
-2.3676e-07
-2.30754e-07
-2.24974e-07
-2.19424e-07
-2.14109e-07
-2.09033e-07
-2.04203e-07
-1.99619e-07
-1.95281e-07
-1.91188e-07
-1.87341e-07
-1.83737e-07
-1.80369e-07
-1.77229e-07
-1.74308e-07
-1.716e-07
-1.69092e-07
-1.66774e-07
-1.64629e-07
-1.62642e-07
-1.60798e-07
-1.59081e-07
-1.57477e-07
-1.5597e-07
-1.54547e-07
-1.53195e-07
-1.51903e-07
-1.50661e-07
-1.49459e-07
-1.48291e-07
-1.4715e-07
-1.4603e-07
-1.44929e-07
-1.43844e-07
-1.42772e-07
-1.41714e-07
-1.4067e-07
-1.3964e-07
-1.38625e-07
-1.37626e-07
-1.36644e-07
-1.3568e-07
-1.34736e-07
-1.33815e-07
-1.32918e-07
-1.32047e-07
-1.31203e-07
-1.30387e-07
-1.296e-07
-1.28842e-07
-1.28115e-07
-1.27416e-07
-1.26747e-07
-1.26105e-07
-5.33906e-07
-5.24783e-07
-5.15862e-07
-5.06986e-07
-4.97973e-07
-4.88717e-07
-4.79204e-07
-4.69483e-07
-4.59625e-07
-4.49698e-07
-4.39761e-07
-4.29862e-07
-4.20041e-07
-4.10326e-07
-4.0074e-07
-3.91299e-07
-3.82018e-07
-3.7291e-07
-3.63984e-07
-3.55246e-07
-3.46705e-07
-3.38366e-07
-3.30233e-07
-3.22305e-07
-3.1458e-07
-3.07053e-07
-2.99719e-07
-2.92573e-07
-2.85612e-07
-2.78833e-07
-2.72236e-07
-2.6582e-07
-2.5959e-07
-2.53547e-07
-2.47698e-07
-2.4205e-07
-2.36613e-07
-2.31396e-07
-2.2641e-07
-2.21664e-07
-2.17165e-07
-2.12916e-07
-2.08919e-07
-2.05178e-07
-2.01695e-07
-1.98465e-07
-1.95477e-07
-1.92714e-07
-1.90157e-07
-1.87787e-07
-1.85587e-07
-1.83542e-07
-1.81633e-07
-1.79843e-07
-1.78152e-07
-1.76543e-07
-1.74998e-07
-1.73503e-07
-1.72044e-07
-1.70608e-07
-1.69184e-07
-1.67764e-07
-1.66341e-07
-1.64911e-07
-1.63472e-07
-1.62021e-07
-1.60559e-07
-1.59086e-07
-1.57605e-07
-1.56117e-07
-1.54626e-07
-1.53136e-07
-1.51652e-07
-1.50181e-07
-1.48725e-07
-1.4729e-07
-1.45879e-07
-1.44496e-07
-1.43145e-07
-1.4183e-07
-1.40553e-07
-1.39317e-07
-1.38123e-07
-1.36972e-07
-1.35864e-07
-1.348e-07
-1.3378e-07
-1.32806e-07
-1.31874e-07
-4.97542e-07
-4.89276e-07
-4.81572e-07
-4.74002e-07
-4.66267e-07
-4.5825e-07
-4.49965e-07
-4.4148e-07
-4.32879e-07
-4.2423e-07
-4.15589e-07
-4.06997e-07
-3.98488e-07
-3.90085e-07
-3.81809e-07
-3.73674e-07
-3.65692e-07
-3.57872e-07
-3.50221e-07
-3.42746e-07
-3.35452e-07
-3.28343e-07
-3.21418e-07
-3.14675e-07
-3.08109e-07
-3.01709e-07
-2.95469e-07
-2.8938e-07
-2.83434e-07
-2.77626e-07
-2.71953e-07
-2.66416e-07
-2.61019e-07
-2.55772e-07
-2.50684e-07
-2.4577e-07
-2.41041e-07
-2.36515e-07
-2.32207e-07
-2.28132e-07
-2.243e-07
-2.20712e-07
-2.17366e-07
-2.14254e-07
-2.11371e-07
-2.08715e-07
-2.06278e-07
-2.04046e-07
-2.01996e-07
-2.00103e-07
-1.98342e-07
-1.96689e-07
-1.95122e-07
-1.93619e-07
-1.92158e-07
-1.9072e-07
-1.89289e-07
-1.87848e-07
-1.86384e-07
-1.84887e-07
-1.83348e-07
-1.81762e-07
-1.80127e-07
-1.78441e-07
-1.76706e-07
-1.74926e-07
-1.73107e-07
-1.71253e-07
-1.69372e-07
-1.67473e-07
-1.65561e-07
-1.63646e-07
-1.61733e-07
-1.59833e-07
-1.57953e-07
-1.56102e-07
-1.54286e-07
-1.52512e-07
-1.50784e-07
-1.49106e-07
-1.47483e-07
-1.45918e-07
-1.44415e-07
-1.42974e-07
-1.41593e-07
-1.40273e-07
-1.39015e-07
-1.37819e-07
-1.36685e-07
-4.58576e-07
-4.51688e-07
-4.45801e-07
-4.4002e-07
-4.33868e-07
-4.27232e-07
-4.20194e-07
-4.12905e-07
-4.05505e-07
-3.98094e-07
-3.90729e-07
-3.83445e-07
-3.76262e-07
-3.69195e-07
-3.62257e-07
-3.55461e-07
-3.48818e-07
-3.42337e-07
-3.36026e-07
-3.29891e-07
-3.23934e-07
-3.18153e-07
-3.12541e-07
-3.07088e-07
-3.01781e-07
-2.96603e-07
-2.91539e-07
-2.8657e-07
-2.81681e-07
-2.76859e-07
-2.72098e-07
-2.67397e-07
-2.62763e-07
-2.58215e-07
-2.53778e-07
-2.49483e-07
-2.45359e-07
-2.41433e-07
-2.37722e-07
-2.3424e-07
-2.30996e-07
-2.27994e-07
-2.25227e-07
-2.22682e-07
-2.20342e-07
-2.18193e-07
-2.16228e-07
-2.1444e-07
-2.12816e-07
-2.11331e-07
-2.0996e-07
-2.08674e-07
-2.07445e-07
-2.06247e-07
-2.05053e-07
-2.03841e-07
-2.02588e-07
-2.01275e-07
-1.99887e-07
-1.98411e-07
-1.96838e-07
-1.95165e-07
-1.93388e-07
-1.9151e-07
-1.89534e-07
-1.87465e-07
-1.85312e-07
-1.83087e-07
-1.80803e-07
-1.78474e-07
-1.76115e-07
-1.73744e-07
-1.71375e-07
-1.69016e-07
-1.66676e-07
-1.64367e-07
-1.62104e-07
-1.59899e-07
-1.57762e-07
-1.55697e-07
-1.53709e-07
-1.51801e-07
-1.49974e-07
-1.48231e-07
-1.46577e-07
-1.45014e-07
-1.4354e-07
-1.4215e-07
-1.40841e-07
-4.30513e-07
-4.23616e-07
-4.1769e-07
-4.12093e-07
-4.06416e-07
-4.00502e-07
-3.94352e-07
-3.8804e-07
-3.81656e-07
-3.7528e-07
-3.68968e-07
-3.62759e-07
-3.56677e-07
-3.50736e-07
-3.44948e-07
-3.39323e-07
-3.3387e-07
-3.28601e-07
-3.23523e-07
-3.18641e-07
-3.13952e-07
-3.09449e-07
-3.05113e-07
-3.00922e-07
-2.96848e-07
-2.92863e-07
-2.88933e-07
-2.85028e-07
-2.81121e-07
-2.77191e-07
-2.73224e-07
-2.69218e-07
-2.6518e-07
-2.61133e-07
-2.57116e-07
-2.53183e-07
-2.49392e-07
-2.45795e-07
-2.42429e-07
-2.39324e-07
-2.36497e-07
-2.33956e-07
-2.31697e-07
-2.29705e-07
-2.27949e-07
-2.26401e-07
-2.25043e-07
-2.23864e-07
-2.22843e-07
-2.21953e-07
-2.21158e-07
-2.20422e-07
-2.1971e-07
-2.18986e-07
-2.1822e-07
-2.17378e-07
-2.16433e-07
-2.15358e-07
-2.14131e-07
-2.12736e-07
-2.11166e-07
-2.0942e-07
-2.07501e-07
-2.05414e-07
-2.03168e-07
-2.00773e-07
-1.98244e-07
-1.95596e-07
-1.92849e-07
-1.90025e-07
-1.87143e-07
-1.84231e-07
-1.81321e-07
-1.78434e-07
-1.75579e-07
-1.72764e-07
-1.70005e-07
-1.67321e-07
-1.64726e-07
-1.62229e-07
-1.59845e-07
-1.57576e-07
-1.55405e-07
-1.53321e-07
-1.51343e-07
-1.49485e-07
-1.47748e-07
-1.46125e-07
-1.44612e-07
-4.08514e-07
-4.00376e-07
-3.93145e-07
-3.86709e-07
-3.80828e-07
-3.75234e-07
-3.69725e-07
-3.64201e-07
-3.5865e-07
-3.53111e-07
-3.47643e-07
-3.42296e-07
-3.37108e-07
-3.32101e-07
-3.27288e-07
-3.22681e-07
-3.18291e-07
-3.14128e-07
-3.10202e-07