/*--------------------------------*- C++ -*----------------------------------*\
| =========                 |                                                 |
| \\      /  F ield         | OpenFOAM: The Open Source CFD Toolbox           |
|  \\    /   O peration     | Version:  2312                                  |
|   \\  /    A nd           | Website:  www.openfoam.com                      |
|    \\/     M anipulation  |                                                 |
\*---------------------------------------------------------------------------*/
FoamFile
{
    version     2.0;
    format      ascii;
    arch        "LSB;label=32;scalar=64";
    class       surfaceScalarField;
    location    "110000";
    object      phi;
}
// * * * * * * * * * * * * * * * * * * * * * * * * * * * * * * * * * * * * * //

dimensions      [0 3 -1 0 0 0 0];

oriented        oriented;

internalField   nonuniform List<scalar> 
5309
(
7.45417e-05
2.77267e-05
6.91646e-05
5.37716e-06
6.28757e-05
6.28885e-06
5.96782e-05
3.19756e-06
5.85593e-05
1.1189e-06
5.9297e-05
-7.3775e-07
6.04961e-05
-1.19909e-06
6.30071e-05
-2.511e-06
6.53847e-05
-2.37764e-06
6.88852e-05
-3.50048e-06
7.17054e-05
-2.82021e-06
7.55396e-05
-3.83413e-06
7.81486e-05
-2.60902e-06
8.17334e-05
-3.58479e-06
8.35773e-05
-1.84389e-06
8.65837e-05
-3.00646e-06
8.73338e-05
-7.50108e-07
8.96327e-05
-2.29882e-06
8.9155e-05
4.77647e-07
9.08849e-05
-1.72992e-06
8.92171e-05
1.66787e-06
9.06218e-05
-1.40474e-06
8.78127e-05
2.80912e-06
8.91169e-05
-1.30418e-06
8.5024e-05
4.09285e-06
8.67223e-05
-1.69831e-06
7.84955e-05
8.2268e-06
8.89244e-05
-1.04289e-05
4.0045e-05
4.88794e-05
-3.62559e-05
7.63009e-05
0.00014854
3.36323e-05
0.000146232
7.68461e-06
0.000143936
8.58494e-06
0.00014264
4.4943e-06
0.000142422
1.33627e-06
0.000144124
-2.43921e-06
0.000146593
-3.66793e-06
0.000150815
-6.73384e-06
0.000155169
-6.73159e-06
0.000161187
-9.5181e-06
0.000166616
-8.24942e-06
0.000173629
-1.08473e-05
0.000179232
-8.21191e-06
0.000186435
-1.07873e-05
0.000191376
-6.78506e-06
0.000198104
-9.73462e-06
0.000201704
-4.34975e-06
0.00020767
-8.26498e-06
0.000209635
-1.4875e-06
0.000215015
-7.1103e-06
0.000214887
1.79671e-06
0.000220344
-6.86213e-06
0.000217276
5.87723e-06
0.000224156
-8.18409e-06
0.000215821
1.24275e-05
0.000227802
-1.36792e-05
0.000206645
2.93834e-05
0.000227538
-3.13215e-05
0.000211354
6.50637e-05
-3.80983e-05
0.000213196
0.000197701
3.15531e-05
0.000198432
6.95404e-06
0.000199886
7.13126e-06
0.000200792
3.58753e-06
0.000202092
3.67289e-08
0.000204475
-4.82224e-06
0.000207449
-6.64177e-06
0.000211894
-1.11793e-05
0.000216503
-1.13402e-05
0.000222728
-1.57434e-05
0.000228514
-1.40356e-05
0.000236005
-1.83377e-05
0.000242275
-1.44821e-05
0.000250447
-1.89591e-05
0.00025649
-1.28286e-05
0.000264867
-1.81112e-05
0.000270106
-9.58946e-06
0.000278582
-1.67408e-05
0.000282397
-5.30271e-06
0.000291119
-1.5832e-05
0.000292859
5.64573e-08
0.000302205
-1.62074e-05
0.000301391
6.6904e-06
0.000312017
-1.88092e-05
0.000307866
1.65779e-05
0.00031924
-2.50527e-05
0.000316791
3.18321e-05
0.000321626
-3.61571e-05
0.0003392
4.74901e-05
-2.22901e-05
0.000323392
0.000234629
2.69497e-05
0.000234654
6.92951e-06
0.000236786
4.99889e-06
0.000238888
1.48595e-06
0.000240746
-1.82211e-06
0.000243958
-8.03377e-06
0.000247378
-1.00616e-05
0.000251999
-1.5801e-05
0.000256629
-1.59692e-05
0.000262624
-2.17384e-05
0.000268247
-1.96596e-05
0.000275352
-2.54421e-05
0.00028156
-2.06904e-05
0.000289413
-2.68118e-05
0.000295747
-1.91624e-05
0.000304052
-2.64162e-05
0.000310123
-1.56604e-05
0.000318664
-2.52821e-05
0.000324162
-1.08008e-05
0.000332738
-2.44075e-05
0.000337805
-5.0107e-06
0.000346194
-2.45965e-05
0.000351113
1.77159e-06
0.000358586
-2.62822e-05
0.000365052
1.01119e-05
0.000369454
-2.94554e-05
0.000381968
1.93189e-05
0.000377514
-3.17031e-05
0.000404401
2.06025e-05
-1.39867e-05
0.000396098
0.000263392
2.22058e-05
0.000262989
7.33191e-06
0.000264898
3.09038e-06
0.000267524
-1.1405e-06
0.000269994
-4.29171e-06
0.000272846
-1.08858e-05
0.000276159
-1.33753e-05
0.000280237
-1.98782e-05
0.00028467
-2.04024e-05
0.000289823
-2.68914e-05
0.000295213
-2.50493e-05
0.000301245
-3.14748e-05
0.000307368
-2.68129e-05
0.000314014
-3.3458e-05
0.000320636
-2.57845e-05
0.000327626
-3.34066e-05
0.000334607
-2.26409e-05
0.000341642
-3.2317e-05
0.000349055
-1.82142e-05
0.000355822
-3.11746e-05
0.000363989
-1.31776e-05
0.000369945
-3.05525e-05
0.000379477
-7.76018e-06
0.00038378
-3.05854e-05
0.000396154
-2.26167e-06
0.000396975
-3.02762e-05
0.000414869
1.42427e-06
0.000409641
-2.64748e-05
0.000432876
-2.63246e-06
-1.36952e-05
0.000432584
0.000286199
1.82139e-05
0.00028576
7.77119e-06
0.000287127
1.72305e-06
0.000289243
-3.25595e-06
0.000291579
-6.62833e-06
0.000294048
-1.3355e-05
0.00029723
-1.65565e-05
0.000300638
-2.3287e-05
0.000304878
-2.46421e-05
0.000309063
-3.10759e-05
0.00031423
-3.02171e-05
0.000319056
-3.63004e-05
0.000325065
-3.28218e-05
0.000330341
-3.87344e-05
0.000337113
-3.25557e-05
0.000342616
-3.89097e-05
0.000350145
-3.01708e-05
0.000355614
-3.77856e-05
0.000364057
-2.66573e-05
0.000369161
-3.62783e-05
0.000378817
-2.28337e-05
0.000383091
-3.48265e-05
0.000394534
-1.92032e-05
0.000397256
-3.33072e-05
0.000411345
-1.63514e-05
0.000411728
-3.06583e-05
0.000428752
-1.56003e-05
0.000427465
-2.51879e-05
0.000443735
-1.89023e-05
-1.90555e-05
0.000449095
0.000303984
1.52431e-05
0.000303964
7.79174e-06
0.000304651
1.03599e-06
0.000306176
-4.78119e-06
0.000308392
-8.84457e-06
0.00031041
-1.53723e-05
0.000313324
-1.94712e-05
0.000316008
-2.5971e-05
0.000319887
-2.85207e-05
0.000323189
-3.43781e-05
0.000327962
-3.49897e-05
0.000331767
-4.01061e-05
0.000337414
-3.84682e-05
0.000341598
-4.29187e-05
0.000348113
-3.90703e-05
0.000352506
-4.3303e-05
0.000359944
-3.76086e-05
0.000364353
-4.21946e-05
0.000372847
-3.51515e-05
0.000377036
-4.04673e-05
0.00038679
-3.25872e-05
0.000390496
-3.85328e-05
0.000401768
-3.04751e-05
0.000404723
-3.6262e-05
0.000417599
-2.92281e-05
0.00041999
-3.30492e-05
0.000433567
-2.91776e-05
0.000437136
-2.87565e-05
0.00044833
-3.0096e-05
-2.60205e-05
0.000455295
0.000317239
1.32774e-05
0.000317587
7.44357e-06
0.000318003
6.20133e-07
0.000319008
-5.78621e-06
0.000320958
-1.07949e-05
0.000322611
-1.70253e-05
0.00032517
-2.20296e-05
0.000327302
-2.81035e-05
0.000330695
-3.19137e-05
0.000333346
-3.7029e-05
0.00033756
-3.92037e-05
0.000340642
-4.3188e-05
0.000345692
-4.35179e-05
0.000349138
-4.63646e-05
0.000355056
-4.49887e-05
0.000358771
-4.7018e-05
0.00036562
-4.44578e-05
0.000369504
-4.60789e-05
0.000377361
-4.30078e-05
0.000381318
-4.44246e-05
0.000390246
-4.15155e-05
0.000394234
-4.252e-05
0.000404207
-4.0449e-05
0.00040832
-4.03742e-05
0.000419021
-3.99294e-05
0.000423833
-3.78612e-05
0.000434325
-3.96694e-05
0.000440943
-3.53753e-05
0.000449794
-3.89465e-05
-3.36758e-05
0.000457449
0.000326392
1.21653e-05
0.000326966
6.8689e-06
0.000327444
1.42906e-07
0.00032814
-6.48285e-06
0.000329747
-1.24014e-05
0.000331149
-1.84276e-05
0.000333317
-2.41972e-05
0.000335085
-2.98715e-05
0.000337924
-3.4753e-05
0.00034015
-3.92549e-05
0.000343702
-4.27563e-05
0.00034634
-4.58255e-05
0.000350638
-4.78155e-05
0.000353673
-4.94005e-05
0.000358768
-5.00832e-05
0.000362188
-5.04378e-05
0.000368125
-5.03954e-05
0.000371925
-4.98788e-05
0.000378727
-4.98102e-05
0.000382933
-4.86297e-05
0.000390565
-4.91476e-05
0.00039527
-4.72258e-05
0.000403581
-4.876e-05
0.000409022
-4.58148e-05
0.000417681
-4.85879e-05
0.000424238
-4.44182e-05
0.000432821
-4.82527e-05
0.000440552
-4.31062e-05
0.000449012
-4.74066e-05
-4.16379e-05
0.000456974
0.000331948
1.16418e-05
0.00033267
6.1476e-06
0.000333308
-4.95692e-07
0.000333916
-7.0903e-06
0.000335201
-1.36868e-05
0.000336443
-1.967e-05
0.00033824
-2.59937e-05
0.000339798
-3.14298e-05
0.000342105
-3.70596e-05
0.000344081
-4.12309e-05
0.00034698
-4.56556e-05
0.000349378
-4.82237e-05
0.00035291
-5.13476e-05
0.000355762
-5.22522e-05
0.000359991
-5.43122e-05
0.000363346
-5.37929e-05
0.000368312
-5.53614e-05
0.000372231
-5.3798e-05
0.000377941
-5.55199e-05
0.000382505
-5.31931e-05
0.000388916
-5.55591e-05
0.000394233
-5.25426e-05
0.000401253
-5.57802e-05
0.000407448
-5.20099e-05
0.000414963
-5.61023e-05
0.000422055
-5.15105e-05
0.000430073
-5.62711e-05
0.000437768
-5.08005e-05
0.000446493
-5.61319e-05
-4.9468e-05
0.000454323
0.00033462
1.1386e-05
0.000335335
5.43298e-06
0.000336114
-1.27431e-06
0.000336813
-7.78917e-06
0.000337885
-1.47597e-05
0.000339037
-2.08212e-05
0.000340538
-2.7495e-05
0.000341998
-3.28899e-05
0.000343885
-3.89461e-05
0.000345729
-4.30755e-05
0.000348095
-4.80219e-05
0.000350376
-5.05046e-05
0.000353273
-5.42441e-05
0.000356053
-5.5033e-05
0.000359555
-5.78137e-05
0.000362924
-5.71624e-05
0.000367085
-5.9522e-05
0.000371132
-5.7845e-05
0.000375979
-6.0367e-05
0.000380788
-5.80023e-05
0.000386327
-6.10976e-05
0.000391962
-5.81778e-05
0.000398196
-6.20144e-05
0.000404667
-5.84807e-05
0.000411625
-6.30606e-05
0.000418843
-5.8728e-05
0.000426602
-6.40309e-05
0.000434407
-5.86051e-05
0.000442998
-6.47232e-05
-5.77061e-05
0.000451236
0.000335194
1.10384e-05
0.000335898
4.72937e-06
0.000336745
-2.12131e-06
0.000337582
-8.62614e-06
0.000338568
-1.57457e-05
0.000339698
-2.19514e-05
0.00034102
-2.88173e-05
0.000342457
-3.43268e-05
0.00034409
-4.0579e-05
0.000345879
-4.48645e-05
0.000347905
-5.0048e-05
0.000350125
-5.27245e-05
0.00035261
-5.67285e-05
0.000355347
-5.77705e-05
0.000358372
-6.0838e-05
0.000361733
-6.05232e-05
0.000365373
-6.31621e-05
0.000369452
-6.19248e-05
0.00037377
-6.4685e-05
0.000378642
-6.28734e-05
0.00038369
-6.61464e-05
0.000389387
-6.38743e-05
0.00039522
-6.78477e-05
0.00040173
-6.4991e-05
0.000408406
-6.9736e-05
0.000415671
-6.59936e-05
0.000423239
-7.15984e-05
0.000431176
-6.65417e-05
0.000439641
-7.31886e-05
-6.62194e-05
0.000448154
0.000334622
1.04515e-05
0.000335398
3.95339e-06
0.000336283
-3.0067e-06
0.000337242
-9.58478e-06
0.000338243
-1.67471e-05
0.000339421
-2.31293e-05
0.00034069
-3.00862e-05
0.000342161
-3.57977e-05
0.000343701
-4.21191e-05
0.000345492
-4.66555e-05
0.000347364
-5.19202e-05
0.000349558
-5.49186e-05
0.000351838
-5.90083e-05
0.000354529
-6.04621e-05
0.000357307
-6.36153e-05
0.000360607
-6.3824e-05
0.000363976
-6.65309e-05
0.000367987
-6.59357e-05
0.000372031
-6.87292e-05
0.000376827
-6.76689e-05
0.000381616
-7.09351e-05
0.000387241
-6.94998e-05
0.000392835
-7.34412e-05
0.000399306
-7.14628e-05
0.000405753
-7.61828e-05
0.000413058
-7.32982e-05
0.000420384
-7.89248e-05
0.000428478
-7.46357e-05
0.000436689
-8.13999e-05
-7.503e-05
0.0004455
0.00033426
9.68421e-06
0.000335101
3.11267e-06
0.000335995
-3.90049e-06
0.000337026
-1.06166e-05
0.000338085
-1.78059e-05
0.000339342
-2.43864e-05
0.00034064
-3.13843e-05
0.000342174
-3.73313e-05
0.000343718
-4.36634e-05
0.00034554
-4.84768e-05
0.000347368
-5.37485e-05
0.000349546
-5.70963e-05
0.000351733
-6.11957e-05
0.00035436
-6.30888e-05
0.000357002
-6.62574e-05
0.000360191
-6.70127e-05
0.000363394
-6.97344e-05
0.000367254
-6.97962e-05
0.000371113
-7.2588e-05
0.000375736
-7.22919e-05
0.000380325
-7.55233e-05
0.00038578
-7.49555e-05
0.000391153
-7.8814e-05
0.000397493
-7.78031e-05
0.000403687
-8.23768e-05
0.000410941
-8.05517e-05
0.000417968
-8.59523e-05
0.000426128
-8.27948e-05
0.000433987
-8.92592e-05
-8.40609e-05
0.000443018
0.000335219
8.8829e-06
0.000336062
2.26885e-06
0.000336939
-4.77688e-06
0.000337996
-1.16733e-05
0.000339104
-1.89142e-05
0.000340424
-2.57066e-05
0.000341767
-3.27276e-05
0.000343343
-3.89068e-05
0.000344901
-4.52215e-05
0.000346723
-5.02982e-05
0.000348511
-5.55367e-05
0.000350626
-5.92113e-05
0.000352712
-6.32821e-05
0.000355208
-6.55846e-05
0.000357695
-6.87444e-05
0.000360688
-7.00058e-05
0.000363696
-7.27426e-05
0.000367308
-7.34076e-05
0.000370946
-7.62263e-05
0.000375281
-7.66274e-05
0.000379634
-7.98756e-05
0.000384783
-8.01045e-05
0.000389909
-8.39404e-05
0.000395951
-8.38446e-05
0.000401889
-8.8315e-05
0.000408886
-8.75486e-05
0.000415647
-9.27139e-05
0.00042363
-9.07773e-05
0.000431204
-9.68335e-05
-9.30215e-05
0.000440165
0.000338307
8.25772e-06
-0.000337682
0.000339042
1.53375e-06
0.000339837
-5.57192e-06
0.000340835
-1.26715e-05
0.000341918
-1.99967e-05
0.00034321
-2.69987e-05
0.000344524
-3.40416e-05
0.000346041
-4.04239e-05
0.000347525
-4.67053e-05
0.000349234
-5.20072e-05
0.000350882
-5.71849e-05
0.000352814
-6.11435e-05
0.000354689
-6.51568e-05
0.000356934
-6.78293e-05
0.000359149
-7.09602e-05
0.000361835
-7.26913e-05
0.000364532
-7.544e-05
0.000367794
-7.66692e-05
0.000371103
-7.9535e-05
0.000375057
-8.0582e-05
0.000379079
-8.38973e-05
0.000383827
-8.48524e-05
0.000388637
-8.87502e-05
0.000394273
-8.94812e-05
0.000399921
-9.39624e-05
0.000406538
-9.41663e-05
0.000413038
-9.92136e-05
0.000420713
-9.84521e-05
0.000428038
-0.000104159
-0.000101803
0.000436819
0.000343321
7.92301e-06
-0.000342987
0.000343857
9.9855e-07
0.000344514
-6.22958e-06
0.000345367
-1.35245e-05
0.000346322
-2.09516e-05
0.000347456
-2.81321e-05
0.000348614
-3.51997e-05
0.000349923
-4.17336e-05
0.000351194
-4.79756e-05
0.000352631
-5.34444e-05
0.000353996
-5.85502e-05
0.000355592
-6.27392e-05
0.000357119
-6.66837e-05
0.00035898
-6.96905e-05
0.000360803
-7.27831e-05
0.000363082
-7.49701e-05
0.000365364
-7.77227e-05
0.000368214
-7.95184e-05
0.000371107
-8.2428e-05
0.000374649
-8.41246e-05
0.000378274
-8.75221e-05
0.000382608
-8.91859e-05
0.000387063
-9.32052e-05
0.000392277
-9.46961e-05
0.000397638
-9.9323e-05
0.00040383
-0.000100358
0.00041013
-0.000105514
0.000417395
-0.000105717
0.0004246
-0.000111363
-0.000110223
0.00043302
0.000348949
7.77134e-06
-0.000348798
0.000349325
6.22549e-07
0.000349869
-6.77357e-06
0.000350564
-1.42196e-05
0.00035134
-2.17269e-05
0.000352226
-2.90188e-05
0.00035313
-3.61036e-05
0.000354115
-4.27185e-05
0.000355063
-4.89232e-05
0.000356105
-5.44865e-05
0.00035709
-5.95352e-05
0.000358243
-6.38929e-05
0.000359355
-6.77951e-05
0.000360762
-7.10972e-05
0.000362157
-7.41789e-05
0.000364001
-7.68138e-05
0.00036586
-7.95813e-05
0.000368313
-8.19713e-05
0.00037079
-8.49054e-05
0.000373978
-8.73132e-05
0.0003772
-9.07432e-05
0.000381209
-9.31956e-05
0.000385287
-9.72829e-05
0.000390182
-9.95915e-05
0.000395224
-0.000104364
0.000401063
-0.000106197
0.000407146
-0.000111598
0.000413994
-0.000112565
0.000421116
-0.000118485
-0.00011817
0.000429063
0.000354205
7.69998e-06
-0.000354134
0.000354466
3.61998e-07
0.000354892
-7.20003e-06
0.000355408
-1.47349e-05
0.000355965
-2.22846e-05
0.000356567
-2.962e-05
0.000357174
-3.67111e-05
0.0003578
-4.33447e-05
0.000358404
-4.95269e-05
0.000359039
-5.51214e-05
0.00035966
-6.01562e-05
0.000360388
-6.46206e-05
0.000361141
-6.85484e-05
0.000362132
-7.2088e-05
0.000363189
-7.52366e-05
0.000364649
-7.82733e-05
0.000366186
-8.11183e-05
0.0003683
-8.40859e-05
0.000370454
-8.70589e-05
0.000373356
-9.02153e-05
0.000376223
-9.361e-05
0.000379995
-9.69677e-05
0.000383669
-0.000100957
0.000388358
-0.00010428
0.000392954
-0.000108961
0.000398564
-0.000111806
0.000404213
-0.000117247
0.000410709
-0.000119062
0.000417502
-0.000125278
-0.000125511
0.000424843
0.000357337
7.37138e-06
-0.000357008
0.000357765
-6.61455e-08
0.000358264
-7.69871e-06
0.000358791
-1.52617e-05
0.000359313
-2.28071e-05
0.000359818
-3.01253e-05
0.000360297
-3.71894e-05
0.00036074
-4.37876e-05
0.000361155
-4.99421e-05
0.000361547
-5.55136e-05
0.00036195
-6.05595e-05
0.000362395
-6.50656e-05
0.000362925
-6.90779e-05
0.000363607
-7.27699e-05
0.000364446
-7.6076e-05
0.000365579
-7.94064e-05
0.0003669
-8.2439e-05
0.000368679
-8.58653e-05
0.000370598
-8.89775e-05
0.00037317
-9.27876e-05
0.00037574
-9.61795e-05
0.000379207
-0.000100435
0.000382462
-0.000104212
0.000386897
-0.000108716
0.000390895
-0.000112959
0.000396293
-0.000117204
0.000401133
-0.000122087
0.00040734
-0.000125268
0.000413169
-0.000131107
-0.000132176
0.000419834
0.000360385
6.75267e-06
-0.000359766
0.000361042
-7.23398e-07
0.000361697
-8.35367e-06
0.000362356
-1.59211e-05
0.000362973
-2.34239e-05
0.000363526
-3.06783e-05
0.000363995
-3.76582e-05
0.000364376
-4.41684e-05
0.000364681
-5.02469e-05
0.000364912
-5.57448e-05
0.000365126
-6.07736e-05
0.000365325
-6.5265e-05
0.000365614
-6.93669e-05
0.000365981
-7.31363e-05
0.000366559
-7.66539e-05
0.000367316
-8.01639e-05
0.000368375
-8.34976e-05
0.000369719
-8.72095e-05
0.000371378
-9.06367e-05
0.000373463
-9.4872e-05
0.000375751
-9.84682e-05
0.000378695
-0.000103379
0.000381565
-0.000107082
0.000385484
-0.000112634
0.000388842
-0.000116317
0.000393777
-0.000122139
0.000397466
-0.000125776
0.000403191
-0.000130993
0.000407052
-0.000134969
-0.000137923
0.000412799
0.000367048
6.19268e-06
-0.000366488
0.00036762
-1.29557e-06
0.000368192
-8.92636e-06
0.000368755
-1.64839e-05
0.000369245
-2.39135e-05
0.000369637
-3.107e-05
0.000369889
-3.79106e-05
0.000370011
-4.42907e-05
0.000369998
-5.02334e-05
0.00036988
-5.56273e-05
0.000369696
-6.05893e-05
0.000369482
-6.50512e-05
0.00036933
-6.92144e-05
0.000369247
-7.30538e-05
0.000369384
-7.67911e-05
0.000369673
-8.04525e-05
0.000370324
-8.41488e-05
0.000371159
-8.80445e-05
0.000372455
-9.19327e-05
0.00037395
-9.6367e-05
0.000375927
-0.000100446
0.000378152
-0.000105603
0.00038069
-0.000109621
0.000383682
-0.000115626
0.000386455
-0.00011909
0.000390198
-0.000125882
0.000392509
-0.000128086
0.000396705
-0.000135189
0.000397369
-0.000135633
-0.000141574
0.000401021
0.000375336
5.6595e-06
-0.000374803
0.000375837
-1.79622e-06
0.000376303
-9.39252e-06
0.000376687
-1.6868e-05
0.000376931
-2.41577e-05
0.000377017
-3.11558e-05
0.000376905
-3.77982e-05
0.000376612
-4.39984e-05
0.000376133
-4.97539e-05
0.000375526
-5.502e-05
0.000374813
-5.98772e-05
0.000374081
-6.43189e-05
0.000373382
-6.85153e-05
0.000372796
-7.2468e-05
0.00037241
-7.64045e-05
0.000372237
-8.02801e-05
0.000372409
-8.43202e-05
0.000372792
-8.84278e-05
0.000373621
-9.27615e-05
0.000374562
-9.7308e-05
0.000376061
-0.000101945
0.000377478
-0.00010702
0.00037945
-0.000111593
0.000381028
-0.000117204
0.00038283
-0.000120892
0.000384054
-0.000127107
0.000384348
-0.00012838
0.000384483
-0.000135324
0.000380568
-0.000131719
-0.000139781
0.000378774
0.000383329
4.80245e-06
-0.000382472
0.000384023
-2.4908e-06
0.000384559
-9.92842e-06
0.000384896
-1.72046e-05
0.000384996
-2.42582e-05
0.000384838
-3.09971e-05
0.000384398
-3.73585e-05
0.000383701
-4.33021e-05
0.000382767
-4.88196e-05
0.000381662
-5.39151e-05
0.000380425
-5.86401e-05
0.000379157
-6.30509e-05
0.000377909
-6.72668e-05
0.000376802
-7.13609e-05
0.000375879
-7.54821e-05
0.000375237
-7.96382e-05
0.000374885
-8.3968e-05
0.000374818
-8.83601e-05
0.000375023
-9.29667e-05
0.000375318
-9.76031e-05
0.000375858
-0.000102485
0.000376153
-0.000107314
0.000376623
-0.000112063
0.000375988
-0.000116569
0.000375174
-0.000120078
0.000371988
-0.000123922
0.000368028
-0.000124419
0.000360356
-0.000127652
0.000349644
-0.000121006
-0.000126822
0.000336685
0.000393504
3.87893e-06
-0.000392581
0.000394322
-3.30843e-06
0.000394783
-1.03899e-05
0.000394976
-1.73978e-05
0.000394878
-2.41603e-05
0.0003944
-3.05187e-05
0.000393546
-3.65041e-05
0.000392356
-4.21121e-05
0.000390876
-4.73404e-05
0.000389174
-5.22129e-05
0.000387318
-5.67838e-05
0.000385404
-6.11365e-05
0.000383507
-6.53707e-05
0.00038174
-6.95935e-05
0.000380155
-7.38968e-05
0.000378839
-7.83229e-05
0.000377756
-8.28851e-05
0.000376908
-8.75115e-05
0.000376096
-9.21544e-05
0.000375119
-9.66269e-05
0.000373704
-0.00010107
0.000371652
-0.000105262
0.00036871
-0.000109122
0.000363986
-0.000111844
0.00035738
-0.000113471
0.000347039
-0.000113581
0.000334346
-0.000111727
0.000315163
-0.000108468
0.000293737
-9.95809e-05
-9.695e-05
0.000263865
0.000407176
2.63986e-06
-0.000405937
0.000407955
-4.0871e-06
0.000408466
-1.09008e-05
0.000408448
-1.73799e-05
0.000407846
-2.35583e-05
0.000406756
-2.94295e-05
0.000405227
-3.49743e-05
0.000403297
-4.01822e-05
0.000401026
-4.50699e-05
0.000398492
-4.96789e-05
0.000395786
-5.40773e-05
0.000392997
-5.83477e-05
0.000390205
-6.25789e-05
0.00038747
-6.68586e-05
0.000384825
-7.12514e-05
0.000382277
-7.57752e-05
0.000379755
-8.03633e-05
0.000377117
-8.48731e-05
0.000374054
-8.90918e-05
0.000370199
-9.27713e-05
0.000364814
-9.56847e-05
0.00035763
-9.80782e-05
0.000347989
-9.94813e-05
0.00033535
-9.9205e-05
0.00031884
-9.69613e-05
0.000297427
-9.21681e-05
0.000270722
-8.5022e-05
0.000237821
-7.55674e-05
0.00020184
-6.35994e-05
-5.19788e-05
0.000156869
0.000422878
4.88357e-08
-0.000420287
0.000424288
-5.49698e-06
0.000424722
-1.13357e-05
0.000424445
-1.71029e-05
0.000423512
-2.26247e-05
0.000421915
-2.78326e-05
0.000419675
-3.27348e-05
0.000416855
-3.73622e-05
0.000413541
-4.17552e-05
0.000409825
-4.59632e-05
0.000405803
-5.00552e-05
0.000401557
-5.41016e-05
0.000397143
-5.81651e-05
0.000392552
-6.22672e-05
0.000387682
-6.63817e-05
0.000382378
-7.04717e-05
0.000376408
-7.43927e-05
0.000369414
-7.78795e-05
0.000360971
-8.06481e-05
0.000350683
-8.24838e-05
0.00033783
-8.28319e-05
0.000321265
-8.15122e-05
0.000300156
-7.83725e-05
0.000274254
-7.33032e-05
0.000243822
-6.65299e-05
0.000208551
-5.68971e-05
0.00016724
-4.37106e-05
0.00012232
-3.06479e-05
8.0363e-05
-2.16418e-05
-1.63067e-05
4.46909e-05
0.000448262
-1.87232e-07
-0.000448026
0.000448778
-6.01326e-06
0.000448571
-1.11285e-05
0.000447358
-1.58905e-05
0.000445104
-2.037e-05
0.000441874
-2.46029e-05
0.000437741
-2.86016e-05
0.000432766
-3.23878e-05
0.000427013
-3.60021e-05
0.000420551
-3.95013e-05
0.000413453
-4.29574e-05
0.000405775
-4.64228e-05
0.000397547
-4.99371e-05
0.000388703
-5.34234e-05
0.000378848
-5.65273e-05
0.000367518
-5.91413e-05
0.000354247
-6.11221e-05
0.000338278
-6.19107e-05
0.000318956
-6.1326e-05
0.000296055
-5.95829e-05
0.000270652
-5.74283e-05
0.000241088
-5.19482e-05
0.000205589
-4.28741e-05
0.000164209
-3.19233e-05
0.000119617
-2.19373e-05
7.66881e-05
-1.39683e-05
4.02508e-05
-7.27327e-06
1.22604e-05
-2.65749e-06
-7.31843e-06
-2.06305e-06
-4.39661e-06
-1.92286e-05
0.000482112
-2.75236e-06
-0.000479547
0.000481809
-5.70949e-06
0.000479541
-8.86107e-06
0.000475642
-1.19915e-05
0.00047022
-1.49484e-05
0.000463304
-1.76865e-05
0.000454916
-2.02133e-05
0.000445083
-2.25548e-05
0.000433814
-2.47338e-05
0.000421092
-2.67786e-05
0.000406851
-2.87165e-05
0.000390993
-3.05652e-05
0.000373383
-3.23264e-05
0.000353895
-3.3936e-05
0.000332703
-3.53352e-05
0.000310086
-3.65245e-05
0.000284402
-3.54382e-05
0.000254327
-3.1835e-05
0.0002191
-2.6099e-05
0.000179291
-1.97739e-05
0.000135844
-1.39814e-05
9.34627e-05
-9.5671e-06
5.57785e-05
-5.1899e-06
2.47911e-05
-9.35949e-07
7.44814e-07
2.109e-06
-1.58235e-05
2.60002e-06
-2.52788e-05
2.18205e-06
-2.97937e-05
1.85743e-06
-3.30339e-05
1.17713e-06
-1.37535e-07
-3.7293e-05
0.000458541
-0.000461293
0.000452832
0.000443971
0.000431979
0.000417031
0.000399344
0.000379131
0.000356576
0.000331842
0.000305064
0.000276347
0.000245782
0.000213456
0.00017952
0.000144184
0.00010766
7.22217e-05
4.03867e-05
1.42877e-05
-5.48619e-06
-1.94675e-05
-2.90346e-05
-3.42245e-05
-3.51605e-05
-3.30515e-05
-3.04515e-05
-2.82694e-05
-2.6412e-05
-2.52349e-05
-2.53724e-05
0.000397708
0.000375881
0.000353231
0.000328413
0.00030176
0.000275836
0.000250893
0.000224884
0.000197767
0.000170049
0.000140188
0.000111561
7.52602e-05
4.05069e-05
0.0004522
5.7528e-06
0.000443289
8.91083e-06
0.000431241
1.20476e-05
0.000416229
1.50117e-05
0.000398471
1.7758e-05
0.000378177
2.02943e-05
0.00035553
2.26467e-05
0.000330692
2.48382e-05
0.000303796
2.68967e-05
0.000274946
2.88493e-05
0.000244234
3.07125e-05
0.000211748
3.24861e-05
0.000177645
3.41031e-05
0.000142139
3.55059e-05
0.000105495
3.66438e-05
7.00655e-05
3.54295e-05
3.83993e-05
3.16661e-05
1.25882e-05
2.58112e-05
-6.84473e-06
1.94329e-05
-2.05511e-05
1.37064e-05
-2.98439e-05
9.29274e-06
-3.47118e-05
4.86791e-06
-3.53527e-05
6.40958e-07
-3.30506e-05
-2.30213e-06
-3.03301e-05
-2.72055e-06
-2.79622e-05
-2.36787e-06
-2.58402e-05
-2.12201e-06
-2.44012e-05
-1.43902e-06
-3.79166e-08
-2.43633e-05
0.000481463
6.09447e-06
0.000479158
1.1216e-05
0.000475218
1.59879e-05
0.000469749
2.04801e-05
0.000462779
2.47281e-05
0.000454329
2.87447e-05
0.000444424
3.25517e-05
0.000433072
3.61904e-05
0.000420251
3.97171e-05
0.000405896
4.32043e-05
0.000389907
4.67021e-05
0.000372144
5.02489e-05
0.000352486
5.37604e-05
0.000331134
5.6858e-05
0.0003083
5.94778e-05
0.00028231
6.14194e-05
0.000251832
6.2144e-05
0.000216168
6.14753e-05
0.000175934
5.96669e-05
0.000132243
5.73978e-05
8.99377e-05
5.15979e-05
5.25668e-05
4.22389e-05
2.20263e-05
3.11815e-05
-1.42812e-06
2.11523e-05
-1.74007e-05
1.3252e-05
-2.62648e-05
6.49626e-06
-3.043e-05
2.04321e-06
-3.36175e-05
1.74845e-06
4.32579e-06
-3.79812e-05
0.0004485
5.58798e-06
0.000448275
1.14412e-05
0.00044704
1.72229e-05
0.000444759
2.27609e-05
0.000441499
2.79878e-05
0.000437332
3.29124e-05
0.000432317
3.75661e-05
0.000426518
4.19898e-05
0.000420002
4.62327e-05
0.000412842
5.03643e-05
0.000405091
5.44536e-05
0.000396778
5.85621e-05
0.00038783
6.27078e-05
0.000377826
6.68623e-05
0.000366316
7.09875e-05
0.000352808
7.49272e-05
0.000336539
7.84128e-05
0.000316862
8.11527e-05
0.000293608
8.29215e-05
0.00026785
8.31551e-05
0.000237753
8.16957e-05
0.000201627
7.83644e-05
0.000159739
7.30694e-05
0.000114843
6.60485e-05
7.21537e-05
5.59411e-05
3.62365e-05
4.24135e-05
8.88887e-06
2.93908e-05
-9.99651e-06
2.06338e-05
1.57075e-05
-2.13783e-05
0.00042413
4.20638e-06
0.000424542
1.10295e-05
0.000424242
1.75229e-05
0.000423283
2.37193e-05
0.000421659
2.9612e-05
0.00041939
3.51819e-05
0.000416537
4.0419e-05
0.000413186
4.53409e-05
0.000409429
4.99892e-05
0.000405361
5.44321e-05
0.000401063
5.87521e-05
0.000396588
6.30372e-05
0.000391921
6.73744e-05
0.000386957
7.18263e-05
0.000381537
7.64074e-05
0.000375419
8.10456e-05
0.00036824
8.55917e-05
0.000359566
8.98262e-05
0.000348994
9.34937e-05
0.000335764
9.63855e-05
0.000318725
9.87341e-05
0.000297063
0.000100026
0.000270555
9.95779e-05
0.000239512
9.70915e-05
0.00020346
9.19925e-05
0.000161366
8.45084e-05
0.0001161
7.46562e-05
7.44265e-05
6.23075e-05
5.04218e-05
3.97122e-05
0.00040785
3.43155e-06
0.000408348
1.05314e-05
0.000408312
1.75586e-05
0.000407692
2.434e-05
0.000406582
3.07211e-05
0.00040503
3.67344e-05
0.000403074
4.23748e-05
0.000400775
4.76404e-05
0.000398208
5.25558e-05
0.000395465
5.71753e-05
0.000392634
6.15828e-05
0.000389794
6.58772e-05
0.000387003
7.01659e-05
0.000384291
7.45378e-05
0.000381664
7.90343e-05
0.000379047
8.36634e-05
0.000376285
8.83528e-05
0.000373065
9.30468e-05
0.000368994
9.7565e-05
0.000363336
0.000102043
0.000355816
0.000106254
0.000345751
0.000110091
0.000332589
0.00011274
0.00031541
0.00011427
0.000293207
0.000114195
0.000265554
0.000112162
0.00023174
0.00010847
0.000194645
9.94028e-05
9.60932e-05
0.000148974
0.000394285
2.63264e-06
0.000394733
1.00836e-05
0.000394913
1.73783e-05
0.000394799
2.44538e-05
0.000394302
3.12184e-05
0.000393427
3.76094e-05
0.000392214
4.35879e-05
0.000390709
4.91451e-05
0.000388978
5.42869e-05
0.000387089
5.90638e-05
0.000385138
6.35342e-05
0.000383201
6.78144e-05
0.000381386
7.19808e-05
0.000379747
7.61764e-05
0.000378369
8.04128e-05
0.000377211
8.4821e-05
0.00037627
8.92942e-05
0.000375338
9.3979e-05
0.00037421
9.86924e-05
0.000372601
0.000103652
0.000370318
0.000108537
0.000367058
0.000113351
0.00036194
0.000117858
0.000354793
0.000121418
0.000343815
0.000125174
0.000330304
0.000125672
0.000310095
0.000128679
0.000287631
0.000121867
0.00012755
0.000256174
0.000384026
1.94658e-06
0.000384551
9.55792e-06
0.000384877
1.70526e-05
0.000384966
2.43652e-05
0.000384793
3.13913e-05
0.000384337
3.80653e-05
0.000383622
4.43032e-05
0.000382666
5.01005e-05
0.000381537
5.54166e-05
0.000380272
6.03283e-05
0.000378972
6.48341e-05
0.000377688
6.90987e-05
0.00037654
7.31292e-05
0.00037557
7.71462e-05
0.000374873
8.11094e-05
0.000374454
8.52397e-05
0.000374309
8.94394e-05
0.000374415
9.38731e-05
0.000374596
9.85114e-05
0.000374989
0.000103259
0.000375108
0.000108418
0.000375348
0.000113112
0.000374409
0.000118797
0.000373231
0.000122596
0.000369518
0.000128887
0.00036501
0.00013018
0.000356414
0.000137275
0.000344925
0.000133356
0.000141908
0.000330567
0.000375885
1.45238e-06
0.000376344
9.09915e-06
0.000376719
1.66773e-05
0.000376953
2.41311e-05
0.000377027
3.13175e-05
0.000376901
3.81913e-05
0.000376593
4.46116e-05
0.000376095
5.05981e-05
0.000375467
5.6045e-05
0.000374731
6.10643e-05
0.00037397
6.55942e-05
0.000373239
6.98298e-05
0.000372617
7.37516e-05
0.000372187
7.75758e-05
0.000371965
8.13315e-05
0.000372077
8.51277e-05
0.00037239
8.91267e-05
0.000373137
9.31262e-05
0.000373975
9.76733e-05
0.000375363
0.000101871
0.000376621
0.00010716
0.000378437
0.000111295
0.000379756
0.000117477
0.000381333
0.000121019
0.000382136
0.000128084
0.000382075
0.000130241
0.000381555
0.000137795
0.000377
0.00013791
0.000144577
0.000374331
0.000367714
8.87471e-07
0.00036828
8.53327e-06
0.000368835
1.61216e-05
0.000369317
2.36498e-05
0.000369699
3.09352e-05
0.00036994
3.79499e-05
0.00037005
4.45019e-05
0.000370022
5.06264e-05
0.000369887
5.61796e-05
0.000369683
6.12687e-05
0.000369446
6.58314e-05
0.000369266
7.00093e-05
0.000369151
7.38667e-05
0.000369251
7.74753e-05
0.000369493
8.10894e-05
0.000370095
8.45258e-05
0.000370863
8.83595e-05
0.000372093
9.18954e-05
0.000373489
9.62777e-05
0.000375381
9.99795e-05
0.000377459
0.000105082
0.000379882
0.000108872
0.000382665
0.000114694
0.000385269
0.000118416
0.000388729
0.000124624
0.000390755
0.000128214
0.000394596
0.000133954
0.000394723
0.000137783
0.000141345
0.000397955
0.000361135
2.38584e-07
0.000361788
7.88056e-06
0.000362444
1.54653e-05
0.000363057
2.30372e-05
0.000363605
3.03865e-05
0.000364068
3.7487e-05
0.000364442
4.41278e-05
0.000364738
5.03306e-05
0.000364959
5.59591e-05
0.00036516
6.10679e-05
0.000365342
6.56488e-05
0.000365612
6.97396e-05
0.000365952
7.35262e-05
0.000366503
7.69246e-05
0.000367221
8.03716e-05
0.000368242
8.35051e-05
0.000369527
8.70742e-05
0.000371134
9.02887e-05
0.000373134
9.42776e-05
0.000375349
9.77647e-05
0.000378178
0.000102252
0.000380942
0.000106108
0.000384721
0.000110915
0.000387919
0.000115218
0.000392702
0.000119841
0.000396144
0.000124773
0.000401719
0.000128379