/*--------------------------------*- C++ -*----------------------------------*\
| =========                 |                                                 |
| \\      /  F ield         | OpenFOAM: The Open Source CFD Toolbox           |
|  \\    /   O peration     | Version:  2312                                  |
|   \\  /    A nd           | Website:  www.openfoam.com                      |
|    \\/     M anipulation  |                                                 |
\*---------------------------------------------------------------------------*/
FoamFile
{
    version     2.0;
    format      ascii;
    arch        "LSB;label=32;scalar=64";
    class       surfaceScalarField;
    location    "162000";
    object      phi;
}
// * * * * * * * * * * * * * * * * * * * * * * * * * * * * * * * * * * * * * //

dimensions      [0 3 -1 0 0 0 0];

oriented        oriented;

internalField   nonuniform List<scalar> 
5309
(
7.60656e-05
2.79678e-05
7.0628e-05
5.43761e-06
6.43353e-05
6.29274e-06
6.11345e-05
3.20073e-06
6.00429e-05
1.09162e-06
6.0813e-05
-7.70104e-07
6.20439e-05
-1.23093e-06
6.4534e-05
-2.49011e-06
6.68893e-05
-2.35525e-06
7.02561e-05
-3.36678e-06
7.29597e-05
-2.70362e-06
7.64821e-05
-3.52235e-06
7.88268e-05
-2.34473e-06
8.18416e-05
-3.01484e-06
8.3206e-05
-1.36438e-06
8.52812e-05
-2.0752e-06
8.52237e-05
5.75358e-08
8.60847e-05
-8.60997e-07
8.44778e-05
1.60683e-06
8.40592e-05
4.18644e-07
8.08831e-05
3.17609e-06
7.93909e-05
1.49223e-06
7.4598e-05
4.79284e-06
7.22542e-05
2.34386e-06
6.59244e-05
6.3298e-06
6.32078e-05
2.71654e-06
5.44383e-05
8.76956e-06
5.6765e-05
-2.32668e-06
1.95438e-05
3.72212e-05
-2.26262e-05
4.217e-05
0.000150969
3.37236e-05
0.000148772
7.63482e-06
0.000146617
8.4481e-06
0.000145432
4.38543e-06
0.000145306
1.21744e-06
0.000147096
-2.55969e-06
0.000149616
-3.75137e-06
0.000153816
-6.69042e-06
0.000158122
-6.66088e-06
0.00016395
-9.19491e-06
0.000169184
-7.93798e-06
0.000175753
-1.00907e-05
0.000180947
-7.53852e-06
0.000187324
-9.3925e-06
0.000191548
-5.58786e-06
0.000196868
-7.39507e-06
0.000199362
-2.43685e-06
0.000203155
-4.65392e-06
0.000203364
1.39802e-06
0.000205568
-1.78532e-06
0.000202929
5.81438e-06
0.000203651
7.71059e-07
0.000197591
1.08528e-05
0.00019753
2.40436e-06
0.000186448
1.7412e-05
0.000188725
4.39733e-07
0.000166009
3.14858e-05
0.000177211
-1.35294e-05
0.000149315
6.51175e-05
-2.59508e-05
0.00015264
0.000200426
3.14451e-05
0.000201309
6.7525e-06
0.000202947
6.80961e-06
0.000204034
3.29868e-06
0.000205445
-1.93395e-07
0.000207902
-5.01673e-06
0.000210938
-6.78782e-06
0.000215354
-1.11061e-05
0.000219936
-1.12425e-05
0.000225973
-1.52323e-05
0.000231609
-1.35744e-05
0.000238684
-1.71655e-05
0.000244639
-1.34933e-05
0.000252061
-1.68149e-05
0.000257553
-1.10798e-05
0.000264716
-1.4558e-05
0.000269084
-6.80518e-06
0.000275648
-1.12179e-05
0.000278115
-1.06806e-06
0.000283805
-7.47573e-06
0.00028383
5.7897e-06
0.000288662
-4.06141e-06
0.00028512
1.4395e-05
0.000289866
-2.34134e-06
0.000280884
2.63932e-05
0.000286166
-4.84158e-06
0.000273423
4.42283e-05
0.000275138
-1.52447e-05
0.000273
6.72562e-05
-9.70396e-06
0.000256753
0.000237538
2.66342e-05
0.000237695
6.59582e-06
0.00023996
4.54413e-06
0.000242163
1.09585e-06
0.000244175
-2.20566e-06
0.000247433
-8.27496e-06
0.000250918
-1.02722e-05
0.000255522
-1.57105e-05
0.000260144
-1.58643e-05
0.000266011
-2.10996e-05
0.000271527
-1.90902e-05
0.00027835
-2.39881e-05
0.000284309
-1.94526e-05
0.000291668
-2.4174e-05
0.000297556
-1.69682e-05
0.000305092
-2.20934e-05
0.0003104
-1.21129e-05
0.000317801
-1.86193e-05
0.000322078
-5.34472e-06
0.000329259
-1.46571e-05
0.00033198
3.06839e-06
0.000338874
-1.09547e-05
0.000339685
1.35839e-05
0.000345621
-8.27784e-06
0.000345353
2.66612e-05
0.000348427
-7.91581e-06
0.000350331
4.23244e-05
0.000344823
-9.73579e-06
0.000360246
5.18327e-05
6.09334e-06
0.000344449
0.000266435
2.17032e-05
0.000266142
6.88861e-06
0.00026817
2.51572e-06
0.000270931
-1.6645e-06
0.000273479
-4.75392e-06
0.000276397
-1.11926e-05
0.00027974
-1.36159e-05
0.000283851
-1.98216e-05
0.000288233
-2.02464e-05
0.000293376
-2.62419e-05
0.000298602
-2.43165e-05
0.000304572
-2.9958e-05
0.000310369
-2.52501e-05
0.000316899
-3.07033e-05
0.000322956
-2.30251e-05
0.000329798
-2.89355e-05
0.000335834
-1.81497e-05
0.000342736
-2.55207e-05
0.000348676
-1.1285e-05
0.000355353
-2.13341e-05
0.000361153
-2.73112e-06
0.000367165
-1.69676e-05
0.000373188
7.5617e-06
0.000377631
-1.2721e-05
0.000384831
1.94611e-05
0.00038561
-8.69509e-06
0.000396807
3.11276e-05
0.000389535
-2.46342e-06
0.000406991
3.43765e-05
1.43404e-05
0.000398744
0.000289363
1.75574e-05
0.000289043
7.20774e-06
0.000290493
1.0664e-06
0.000292726
-3.89748e-06
0.000295114
-7.14268e-06
0.000297677
-1.37549e-05
0.000300842
-1.67815e-05
0.000304351
-2.33298e-05
0.000308495
-2.43909e-05
0.000312791
-3.05381e-05
0.00031774
-2.92652e-05
0.000322694
-3.49122e-05
0.000328319
-3.08744e-05
0.000333753
-3.61377e-05
0.000339918
-2.919e-05
0.000345637
-3.46551e-05
0.000352275
-2.47873e-05
0.00035807
-3.1316e-05
0.00036523
-1.84443e-05
0.000370802
-2.69063e-05
0.000378701
-1.06303e-05
0.000383565
-2.18315e-05
0.000392726
-1.59939e-06
0.000395953
-1.59479e-05
0.000407313
8.10102e-06
0.000407209
-8.59099e-06
0.00042188
1.64562e-05
0.000417333
2.08377e-06
0.000432979
1.87309e-05
1.62848e-05
0.000431034
0.000307267
1.44634e-05
0.000307398
7.07651e-06
0.000308117
3.48221e-07
0.000309745
-5.52575e-06
0.000312001
-9.39869e-06
0.000314134
-1.58881e-05
0.00031702
-1.96671e-05
0.000319831
-2.61407e-05
0.000323614
-2.81745e-05
0.000327072
-3.39963e-05
0.000331652
-3.38445e-05
0.000335653
-3.89131e-05
0.000340978
-3.61999e-05
0.000345413
-4.05725e-05
0.000351454
-3.52315e-05
0.000356178
-3.93789e-05
0.00036298
-3.15895e-05
0.00036782
-3.61553e-05
0.000375508
-2.61326e-05
0.000380224
-3.16225e-05
0.000389073
-1.94793e-05
0.000393282
-2.60402e-05
0.000403693
-1.20107e-05
0.000406798
-1.90527e-05
0.000419171
-4.27177e-06
0.000420542
-9.96208e-06
0.000434427
2.57114e-06
0.000434943
1.56741e-06
0.000446464
7.20992e-06
1.32459e-05
0.000449503
0.000320632
1.24031e-05
0.0003211
6.60875e-06
0.000321566
-1.18132e-07
0.000322666
-6.62571e-06
0.000324657
-1.13896e-05
0.000326422
-1.76535e-05
0.000328979
-2.22233e-05
0.000331225
-2.83868e-05
0.000334574
-3.15243e-05
0.000337363
-3.67853e-05
0.00034148
-3.79612e-05
0.000344731
-4.21643e-05
0.000349617
-4.10853e-05
0.000353276
-4.42316e-05
0.000358967
-4.0923e-05
0.000362952
-4.3364e-05
0.000369541
-3.81782e-05
0.000373749
-4.03632e-05
0.000381376
-3.37599e-05
0.000385678
-3.59238e-05
0.000394548
-2.83494e-05
0.000398764
-3.02563e-05
0.000409049
-2.22956e-05
0.000413044
-2.30481e-05
0.000424588
-1.58156e-05
0.000428501
-1.38756e-05
0.000440225
-9.15202e-06
0.000445027
-3.23491e-06
0.000454262
-2.02463e-06
7.46076e-06
0.000460047
0.000329895
1.12143e-05
0.000330568
5.93523e-06
0.000331114
-6.63524e-07
0.000331887
-7.39876e-06
0.00033355
-1.30523e-05
0.000335043
-1.91466e-05
0.000337257
-2.44374e-05
0.000339104
-3.02342e-05
0.000341981
-3.44012e-05
0.000344291
-3.90954e-05
0.000347878
-4.15484e-05
0.000350608
-4.48942e-05
0.000354941
-4.54175e-05
0.000358085
-4.73761e-05
0.000363238
-4.60763e-05
0.000366786
-4.69118e-05
0.00037286
-4.42518e-05
0.0003768
-4.43031e-05
0.000383908
-4.08687e-05
0.000388238
-4.02531e-05
0.000396484
-3.6596e-05
0.000401233
-3.50055e-05
0.000410604
-3.16666e-05
0.000415924
-2.83679e-05
0.000426073
-2.59644e-05
0.000432327
-2.01296e-05
0.000442427
-1.9252e-05
0.000449772
-1.05802e-05
0.000458857
-1.11088e-05
3.48599e-08
0.000466282
0.000335572
1.06173e-05
0.00033638
5.12649e-06
0.000337091
-1.37441e-06
0.000337761
-8.06873e-06
0.000339125
-1.44155e-05
0.000340429
-2.04515e-05
0.000342322
-2.63304e-05
0.000343925
-3.18368e-05
0.00034635
-3.68259e-05
0.000348355
-4.11007e-05
0.000351412
-4.46056e-05
0.000353825
-4.73072e-05
0.000357572
-4.91642e-05
0.000360428
-5.02325e-05
0.000364962
-5.06103e-05
0.000368315
-5.02646e-05
0.000373734
-4.96712e-05
0.000377651
-4.82194e-05
0.000384045
-4.72631e-05
0.000388619
-4.48265e-05
0.000396038
-4.40155e-05
0.000401415
-4.03825e-05
0.000409809
-4.00604e-05
0.000416204
-3.47633e-05
0.000425358
-3.51175e-05
0.000432943
-2.77148e-05
0.000442468
-2.87778e-05
0.00045094
-1.90521e-05
0.000460632
-2.08007e-05
-8.34934e-06
0.000469016
0.000338373
1.02739e-05
0.00033917
4.33011e-06
0.000340033
-2.23824e-06
0.000340777
-8.81196e-06
0.000341945
-1.55834e-05
0.000343139
-2.1646e-05
0.000344773
-2.79645e-05
0.000346257
-3.33202e-05
0.000348317
-3.88863e-05
0.00035016
-4.29433e-05
0.000352765
-4.72108e-05
0.000355018
-4.95601e-05
0.000358243
-5.23894e-05
0.000360973
-5.2963e-05
0.00036493
-5.45663e-05
0.000368237
-5.35716e-05
0.000373028
-5.44626e-05
0.000377027
-5.22186e-05
0.000382743
-5.29785e-05
0.000387573
-4.96573e-05
0.000394272
-5.07142e-05
0.000400103
-4.62136e-05
0.0004078
-4.77574e-05
0.000414794
-4.1757e-05
0.000423456
-4.37795e-05
0.00043163
-3.58894e-05
0.000441177
-3.83239e-05
0.000450256
-2.81318e-05
0.0004605
-3.10443e-05
-1.77321e-05
0.000469883
0.000339103
9.84773e-06
0.000339867
3.56657e-06
0.000340812
-3.18296e-06
0.000341693
-9.69286e-06
0.000342785
-1.66761e-05
0.000343952
-2.28122e-05
0.000345423
-2.94354e-05
0.000346882
-3.47793e-05
0.000348709
-4.07139e-05
0.000350499
-4.47326e-05
0.000352787
-4.94997e-05
0.000354987
-5.17599e-05
0.000357828
-5.52303e-05
0.000360529
-5.56636e-05
0.000364039
-5.80764e-05
0.000367365
-5.68977e-05
0.000371664
-5.87616e-05
0.000375753
-5.63073e-05
0.00038095
-5.81757e-05
0.00038595
-5.46577e-05
0.000392146
-5.69101e-05
0.000398212
-5.2279e-05
0.000405502
-5.50477e-05
0.000412752
-4.9007e-05
0.000421227
-5.22545e-05
0.000429676
-4.43386e-05
0.000439384
-4.8032e-05
0.000448881
-3.76282e-05
0.000459683
-4.18469e-05
-2.79628e-05
0.000469914
0.000338725
9.17589e-06
0.000339553
2.7385e-06
0.000340535
-4.16499e-06
0.000341541
-1.06984e-05
0.000342652
-1.77879e-05
0.000343869
-2.40284e-05
0.000345283
-3.08499e-05
0.000346788
-3.62844e-05
0.000348514
-4.24395e-05
0.000350328
-4.6547e-05
0.000352443
-5.16141e-05
0.000354655
-5.39721e-05
0.000357257
-5.78326e-05
0.000359972
-5.83781e-05
0.000363183
-6.12875e-05
0.000366535
-6.02503e-05
0.000370491
-6.27171e-05
0.000374629
-6.04457e-05
0.000379465
-6.30114e-05
0.000384539
-5.97318e-05
0.000390395
-6.27667e-05
0.00039655
-5.84339e-05
0.00040358
-6.20771e-05
0.000410938
-5.63658e-05
0.000419294
-6.06105e-05
0.00042793
-5.29743e-05
0.000437717
-5.78186e-05
0.00044761
-4.75211e-05
0.000458795
-5.30319e-05
-3.897e-05
0.000469802
0.000338612
8.31445e-06
0.000339508
1.84328e-06
0.00034049
-5.14743e-06
0.000341568
-1.17761e-05
0.00034273
-1.89499e-05
0.000344031
-2.53292e-05
0.000345458
-3.22772e-05
0.000347039
-3.78656e-05
0.000348743
-4.41432e-05
0.000350614
-4.84185e-05
0.000352643
-5.36429e-05
0.000354884
-5.62133e-05
0.000357334
-6.02825e-05
0.000360055
-6.10994e-05
0.000363051
-6.42827e-05
0.000366395
-6.35949e-05
0.000370084
-6.64062e-05
0.00037421
-6.45713e-05
0.00037875
-6.75513e-05
0.000383816
-6.4798e-05
0.000389372
-6.83232e-05
0.000395536
-6.45975e-05
0.00040229
-6.8831e-05
0.000409705
-6.37805e-05
0.000417843
-6.87489e-05
0.000426645
-6.17764e-05
0.000436322
-6.74953e-05
0.000446602
-5.7801e-05
0.000457903
-6.43331e-05
-5.07954e-05
0.000469728
0.000339871
7.44537e-06
0.000340772
9.42497e-07
0.000341724
-6.10009e-06
0.000342826
-1.28781e-05
0.000344022
-2.01457e-05
0.000345391
-2.66976e-05
0.000346839
-3.37256e-05
0.000348473
-3.9499e-05
0.000350157
-4.5828e-05
0.000352051
-5.0312e-05
0.000353996
-5.55878e-05
0.000356214
-5.84313e-05
0.000358506
-6.25746e-05
0.000361162
-6.37557e-05
0.000363931
-6.70517e-05
0.00036718
-6.68436e-05
0.000370588
-6.9814e-05
0.000374603
-6.85859e-05
0.000378823
-7.17719e-05
0.000383777
-6.97523e-05
0.00038899
-7.35356e-05
0.000395061
-7.06688e-05
0.00040146
-7.52303e-05
0.000408838
-7.11581e-05
0.000416634
-7.65446e-05
0.00042551
-7.06524e-05
0.000434901
-7.68861e-05
0.000445453
-6.83539e-05
0.00045663
-7.55101e-05
-6.32355e-05
0.000469071
0.00034331
6.77013e-06
-0.000342635
0.00034409
1.62548e-07
0.000344945
-6.95476e-06
0.000345987
-1.39203e-05
0.000347134
-2.1293e-05
0.000348477
-2.80403e-05
0.000349867
-3.51162e-05
0.00035145
-4.10818e-05
0.000353028
-4.74056e-05
0.000354827
-5.2111e-05
0.000356596
-5.73568e-05
0.000358664
-6.04995e-05
0.000360706
-6.4617e-05
0.000363166
-6.62152e-05
0.000365623
-6.95087e-05
0.000368645
-6.98662e-05
0.000371695
-7.28641e-05
0.000375473
-7.2364e-05
0.000379303
-7.5601e-05
0.000384027
-7.44762e-05
0.000388819
-7.83284e-05
0.000394685
-7.65345e-05
0.00040064
-8.11852e-05
0.000407866
-7.83845e-05
0.000415204
-8.38825e-05
0.000424033
-7.94818e-05
0.000432987
-8.58395e-05
0.000443673
-7.90404e-05
0.000454489
-8.63254e-05
-7.60891e-05
0.000467342
0.000348651
6.39699e-06
-0.000348278
0.000349226
-4.12967e-07
0.000349931
-7.65929e-06
0.000350831
-1.48207e-05
0.000351829
-2.22906e-05
0.000353017
-2.92288e-05
0.000354225
-3.63242e-05
0.000355611
-4.24677e-05
0.000356948
-4.87422e-05
0.000358495
-5.36581e-05
0.000359957
-5.88185e-05
0.000361719
-6.22623e-05
0.000363396
-6.62932e-05
0.000365515
-6.83341e-05
0.000367567
-7.15611e-05
0.000370237
-7.25367e-05
0.000372864
-7.54905e-05
0.000376296
-7.57958e-05
0.000379691
-7.89959e-05
0.000384083
-7.88688e-05
0.00038843
-8.26757e-05
0.000393986
-8.209e-05
0.000399481
-8.66805e-05
0.000406431
-8.53346e-05
0.000413299
-9.07504e-05
0.000421917
-8.80995e-05
0.000430409
-9.43317e-05
0.000441001
-8.96324e-05
0.000451392
-9.6716e-05
-8.90322e-05
0.000464335
0.000354584
6.22565e-06
-0.000354412
0.000354999
-8.28108e-07
0.000355576
-8.23695e-06
0.000356319
-1.55637e-05
0.00035712
-2.30907e-05
0.000358066
-3.01754e-05
0.000359001
-3.72587e-05
0.000360074
-4.35413e-05
0.00036107
-4.97382e-05
0.000362245
-5.48326e-05
0.000363312
-5.98862e-05
0.000364664
-6.36141e-05
0.000365917
-6.75458e-05
0.000367615
-7.00327e-05
0.00036924
-7.3186e-05
0.000371505
-7.48011e-05
0.000373714
-7.76997e-05
0.000376764
-7.88459e-05
0.000379753
-8.19849e-05
0.000383784
-8.28996e-05
0.000387728
-8.662e-05
0.000392929
-8.72909e-05
0.000398016
-9.17673e-05
0.000404607
-9.19257e-05
0.00041106
-9.72038e-05
0.000419315
-9.63538e-05
0.000427398
-0.000102415
0.000437646
-9.98806e-05
0.000447646
-0.000106716
-0.000101683
0.000460296
0.00036013
6.14689e-06
-0.000360051
0.000360434
-1.13253e-06
0.000360879
-8.68171e-06
0.000361439
-1.61236e-05
0.000362015
-2.36672e-05
0.00036268
-3.08404e-05
0.000363314
-3.7892e-05
0.000364038
-4.42663e-05
0.000364687
-5.03868e-05
0.000365472
-5.56176e-05
0.000366171
-6.05851e-05
0.000367119
-6.45623e-05
0.000368006
-6.84326e-05
0.000369311
-7.13381e-05
0.000370588
-7.44623e-05
0.000372483
-7.66965e-05
0.000374361
-7.95777e-05
0.000377067
-8.15517e-05
0.000379729
-8.46472e-05
0.000383428
-8.65983e-05
0.000387029
-9.02209e-05
0.000391886
-9.21479e-05
0.000396594
-9.64752e-05
0.000402799
-9.81307e-05
0.000408832
-0.000103237
0.000416621
-0.000104142
0.000424257
-0.000110051
0.000433927
-0.000109551
0.000443482
-0.000116271
-0.000113622
0.000455422
0.000363552
5.79551e-06
-0.000363201
0.000364027
-1.60785e-06
0.000364549
-9.20337e-06
0.000365125
-1.66993e-05
0.000365677
-2.42193e-05
0.000366249
-3.1412e-05
0.000366762
-3.84058e-05
0.000367303
-4.48069e-05
0.00036777
-5.08541e-05
0.00036831
-5.61567e-05
0.000368793
-6.10689e-05
0.000369455
-6.52244e-05
0.000370112
-6.90895e-05
0.000371108
-7.2334e-05
0.00037215
-7.5504e-05
0.000373723
-7.82694e-05
0.000375357
-8.12119e-05
0.000377731
-8.39251e-05
0.000380122
-8.70388e-05
0.000383476
-8.99519e-05
0.000386746
-9.34912e-05
0.00039123
-9.66323e-05
0.000395506
-0.000100751
0.000401287
-0.000103911
0.000406754
-0.000108705
0.000414012
-0.000111401
0.000420935
-0.000116973
0.00042986
-0.000118476
0.000438592
-0.000125003
-0.000124435
0.000449404
0.000367206
5.17784e-06
-0.000366588
0.000367858
-2.25959e-06
0.00036852
-9.8652e-06
0.000369201
-1.73803e-05
0.00036983
-2.48492e-05
0.000370421
-3.20025e-05
0.000370915
-3.89004e-05
0.000371363
-4.52541e-05
0.000371715
-5.12067e-05
0.000372058
-5.64999e-05
0.000372354
-6.13642e-05
0.000372734
-6.56049e-05
0.000373155
-6.951e-05
0.000373803
-7.29827e-05
0.000374585
-7.62862e-05
0.000375762
-7.94465e-05
0.000377124
-8.25736e-05
0.00037906
-8.58605e-05
0.000381153
-8.91327e-05
0.000384031
-9.28296e-05
0.000386941
-9.64013e-05
0.000390911
-0.000100602
0.000394684
-0.000104524
0.000399903
-0.00010913
0.000404608
-0.00011341
0.000411222
-0.000118015
0.000416961
-0.000122712
0.000425007
-0.000126522
0.000431985
-0.000131981
-0.000133745
0.000441295
0.000374506
4.65054e-06
-0.000373978
0.000375055
-2.80922e-06
0.000375606
-1.04162e-05
0.000376158
-1.79316e-05
0.000376634
-2.53259e-05
0.00037703
-3.23977e-05
0.000377288
-3.91585e-05
0.000377441
-4.54072e-05
0.000377464
-5.12301e-05
0.000377421
-5.64562e-05
0.000377319
-6.12629e-05
0.000377245
-6.55305e-05
0.00037724
-6.95049e-05
0.000377393
-7.31358e-05
0.000377762
-7.66552e-05
0.000378421
-8.01051e-05
0.000379405
-8.35581e-05
0.000380785
-8.72399e-05
0.000382524
-9.08721e-05
0.000384777
-9.50824e-05
0.000387325
-9.89494e-05
0.000390572
-0.00010385
0.000393867
-0.000107819
0.000398202
-0.000113465
0.000402068
-0.000117276
0.000407563
-0.00012351
0.000411656
-0.000126804
0.000418179
-0.000133045
0.000421957
-0.000135759
-0.000140682
0.000428894
0.000383248
4.15759e-06
-0.000382755
0.00038373
-3.29195e-06
0.000384171
-1.08573e-05
0.000384536
-1.82958e-05
0.000384758
-2.55484e-05
0.000384836
-3.24757e-05
0.000384721
-3.90432e-05
0.000384446
-4.5132e-05
0.000383997
-5.07812e-05
0.000383447
-5.59063e-05
0.000382818
-6.06335e-05
0.000382201
-6.49143e-05
0.000381659
-6.89621e-05
0.000381272
-7.27492e-05
0.00038114
-7.65228e-05
0.000381281
-8.02465e-05
0.000381827
-8.41041e-05
0.000382676
-8.80884e-05
0.000384006
-9.2202e-05
0.000385597
-9.66738e-05
0.000387714
-0.000101067
0.000390047
-0.000106182
0.000392784
-0.000110556
0.000395683
-0.000116364
0.000398486
-0.00012008
0.000401636
-0.00012666
0.000403467
-0.000128635
0.000406394
-0.000135972
0.000405229
-0.000134594
-0.000142583
0.000407129
0.000391859
3.36734e-06
-0.000391069
0.000392511
-3.94359e-06
0.000392996
-1.13423e-05
0.000393292
-1.85922e-05
0.000393355
-2.5611e-05
0.000393171
-3.22919e-05
0.000392711
-3.85828e-05
0.000392014
-4.44357e-05
0.000391093
-4.98594e-05
0.000390029
-5.48424e-05
0.000388856
-5.94606e-05
0.000387687
-6.37454e-05
0.000386576
-6.78513e-05
0.000385645
-7.18186e-05
0.000384963
-7.58405e-05
0.000384602
-7.98857e-05
0.000384628
-8.41298e-05
0.000384976
-8.84361e-05
0.000385729
-9.29557e-05
0.0003866
-9.7545e-05
0.000387862
-0.000102328
0.000388943
-0.000107264
0.000390376
-0.000111989
0.000390965
-0.000116953
0.000391449
-0.000120563
0.00039018
-0.000125392
0.00038796
-0.000126414
0.000383436
-0.000131448
0.000375114
-0.000126271
-0.000133934
0.000366465
0.000402919
2.49581e-06
-0.000402047
0.000403593
-4.61806e-06
0.000403964
-1.17127e-05
0.000404085
-1.87132e-05
0.000403911
-2.54367e-05
0.000403366
-3.17469e-05
0.000402456
-3.76726e-05
0.000401231
-4.32107e-05
0.000399733
-4.83615e-05
0.000398041
-5.31508e-05
0.000396219
-5.76384e-05
0.000394378
-6.19051e-05
0.00039259
-6.60629e-05
0.000390981
-7.02092e-05
0.000389603
-7.44625e-05
0.000388561
-7.88436e-05
0.000387831
-8.34001e-05
0.00038741
-8.80149e-05
0.000387156
-9.27021e-05
0.000386824
-9.72128e-05
0.000386214
-0.000101719
0.000384991
-0.000106041
0.000383205
-0.000110203
0.000379745
-0.000113493
0.000374887
-0.000115705
0.000366329
-0.000116834
0.000355844
-0.000115929
0.000339329
-0.000114934
0.000320212
-0.000107155
-0.00010772
0.000293998
0.000417265
1.49205e-06
-0.000416261
0.000418015
-5.36772e-06
0.000418435
-1.21327e-05
0.000418305
-1.85833e-05
0.000417597
-2.47287e-05
0.000416409
-3.05592e-05
0.00041479
-3.60537e-05
0.000412787
-4.12071e-05
0.000410461
-4.60359e-05
0.000407897
-5.05872e-05
0.00040519
-5.49311e-05
0.000402441
-5.91561e-05
0.000399734
-6.33561e-05
0.000397142
-6.76171e-05
0.000394694
-7.20138e-05
0.000392421
-7.65711e-05
0.000390254
-8.12325e-05
0.000388087
-8.58479e-05
0.000385616
-9.02311e-05
0.000382526
-9.41234e-05
0.000378072
-9.72643e-05
0.000371905
-9.98739e-05
0.000363492
-0.00010179
0.000352228
-0.000102228
0.000337495
-0.000100973
0.000317841
-9.71795e-05
0.00029314
-9.12282e-05
0.000261213
-8.30064e-05
0.000226634
-7.25753e-05
-6.21838e-05
0.000181098
0.00043418
-8.78228e-07
-0.000431809
0.000435351
-6.53875e-06
0.000435595
-1.23769e-05
0.00043514
-1.81283e-05
0.000434039
-2.36282e-05
0.000432292
-2.88122e-05
0.000429922
-3.36829e-05
0.00042699
-3.82756e-05
0.000423584
-4.263e-05
0.000419803
-4.68058e-05
0.000415746
-5.08739e-05
0.000411507
-5.49177e-05
0.000407156
-5.90045e-05
0.000402705
-6.31667e-05
0.000398068
-6.73764e-05
0.000393072
-7.15752e-05
0.000387504
-7.56644e-05
0.000381015
-7.93597e-05
0.000373189
-8.24048e-05
0.000363642
-8.45763e-05
0.000351755
-8.53768e-05
0.000336336
-8.44553e-05
0.000316409
-8.18631e-05
0.000291544
-7.73628e-05
0.000261735
-7.11637e-05
0.000227515
-6.29594e-05
0.000186674
-5.03871e-05
0.000139915
-3.62473e-05
9.30194e-05
-2.56801e-05
-1.93216e-05
5.01572e-05
0.00046083
-1.19185e-06
-0.000460516
0.000461103
-6.81202e-06
0.000460643
-1.19169e-05
0.000459192
-1.6677e-05
0.000456711
-2.11472e-05
0.000453264
-2.53651e-05
0.000448924
-2.93432e-05
0.000443759
-3.31108e-05
0.000437837
-3.67076e-05
0.000431232
-4.02013e-05
0.000424023
-4.36643e-05
0.000416273
-4.7168e-05
0.000408024
-5.07556e-05
0.000399246
-5.43884e-05
0.000389713
-5.78429e-05
0.0003787
-6.0563e-05
0.000365848
-6.2812e-05
0.000350381
-6.38931e-05
0.000331575
-6.35987e-05
0.000309025
-6.20263e-05
0.000283713
-6.0065e-05
0.000254918
-5.56601e-05
0.000220129
-4.70739e-05
0.000178495
-3.57286e-05
0.000132116
-2.47849e-05
8.512e-05
-1.59634e-05
4.37984e-05
-9.06553e-06
1.10169e-05
-3.46568e-06
-1.29912e-05
-1.67203e-06
-3.99321e-06
-2.83196e-05
0.000496255
-3.18247e-06
-0.000494264
0.000495592
-6.14919e-06
0.000492984
-9.30894e-06
0.000488758
-1.24503e-05
0.000483028
-1.54174e-05
0.000475826
-1.81631e-05
0.000467177
-2.06949e-05
0.000457109
-2.30428e-05
0.000445634
-2.52321e-05
0.00043273
-2.72973e-05
0.000418335
-2.92697e-05
0.000402345
-3.11781e-05
0.000384622
-3.30322e-05
0.000365021
-3.47877e-05
0.000343575
-3.63961e-05
0.000320971
-3.79596e-05
0.000295499
-3.73396e-05
0.000265701
-3.40959e-05
0.000230429
-2.83259e-05
0.000190034
-2.16313e-05
0.000145216
-1.52476e-05
0.000100136
-1.05796e-05
5.92183e-05
-6.15651e-06
2.50062e-05
-1.51645e-06
-2.23803e-06
2.45931e-06
-2.17402e-05
3.53875e-06
-3.36927e-05
2.88702e-06
-3.93585e-05
2.20003e-06
-4.25697e-05
1.53917e-06
3.81141e-07
-4.6944e-05
0.000472545
-0.000475727
0.000466395
0.000457086
0.000444636
0.000429219
0.000411056
0.000390361
0.000367318
0.000342086
0.000314788
0.000285519
0.000254341
0.000221308
0.000186521
0.000150125
0.000112165
7.48254e-05
4.07295e-05
1.24036e-05
-9.22767e-06
-2.44752e-05
-3.50549e-05
-4.12114e-05
-4.27278e-05
-4.02685e-05
-3.67298e-05
-3.38427e-05
-3.16427e-05
-3.01035e-05
-2.97224e-05
0.000402015
0.000380073
0.000357263
0.000332239
0.000305455
0.000279482
0.000254338
0.000228036
0.000200681
0.000172666
0.00014246
0.000113418
7.66237e-05
4.13249e-05
0.000445754
4.82755e-06
0.000437837
7.9171e-06
0.000426845
1.09923e-05
0.000412952
1.3893e-05
0.000396383
1.65691e-05
0.000377358
1.90252e-05
0.000356073
2.12853e-05
0.000332703
2.33698e-05
0.000307397
2.53061e-05
0.000280275
2.71215e-05
0.000251435
2.88398e-05
0.000220965
3.047e-05
0.000188996
3.19696e-05
0.000155715
3.32806e-05
0.000121151
3.4564e-05
8.69271e-05
3.42241e-05
5.53069e-05
3.16202e-05
2.84661e-05
2.68408e-05
7.40472e-06
2.10614e-05
-7.84044e-06
1.52452e-05
-1.87222e-05
1.08818e-05
-2.56061e-05
6.88394e-06
-2.83966e-05
2.79051e-06
-2.78471e-05
-5.49519e-07
-2.60581e-05
-1.78907e-06
-2.45208e-05
-1.53724e-06
-2.32073e-05
-1.3135e-06
-2.16237e-05
-1.58362e-06
-1.83578e-06
-1.97879e-05
0.00047252
4.26316e-06
0.000471044
9.39276e-06
0.000467926
1.4111e-05
0.000463304
1.8515e-05
0.000457222
2.26504e-05
0.000449715
2.65319e-05
0.000440823
3.01782e-05
0.000430568
3.36246e-05
0.000418949
3.6925e-05
0.000405922
4.01483e-05
0.000391407
4.33544e-05
0.000375288
4.65898e-05
0.000357443
4.98142e-05
0.000337998
5.27253e-05
0.000317284
5.52783e-05
0.00029411
5.73983e-05
0.000267216
5.85135e-05
0.000235637
5.84206e-05
0.000199527
5.71707e-05
0.000159359
5.54139e-05
0.0001182
5.20407e-05
8.01001e-05
4.49834e-05
4.75417e-05
3.53489e-05
2.12173e-05
2.57749e-05
1.70527e-06
1.77229e-05
-1.10578e-05
1.12259e-05
-1.76507e-05
5.27939e-06
-2.04983e-05
1.26391e-06
-4.45763e-07
-2.18883e-05
0.000440345
3.53995e-06
0.000440519
9.21888e-06
0.000439781
1.48489e-05
0.00043805
2.02456e-05
0.000435377
2.53235e-05
0.000431833
3.00757e-05
0.000427487
3.45242e-05
0.000422408
3.87044e-05
0.000416671
4.26613e-05
0.000410359
4.64609e-05
0.000403538
5.01748e-05
0.000396256
5.38721e-05
0.00038848
5.759e-05
0.000379877
6.13282e-05
0.000370086
6.50693e-05
0.000358757
6.87276e-05
0.000345202
7.20687e-05
0.000328762
7.48607e-05
0.000309028
7.69049e-05
0.000286639
7.78031e-05
0.000261338
7.73416e-05
0.000230943
7.53782e-05
0.000194625
7.1667e-05
0.000153921
6.64785e-05
0.000112009
5.96351e-05
7.40784e-05
4.91563e-05
4.28629e-05
3.64949e-05
1.86439e-05
2.54829e-05
1.67348e-05
1.46337e-06
0.000415704
1.47388e-06
0.000416623
8.3e-06
0.000416786
1.46854e-05
0.000416299
2.07334e-05
0.000415169
2.64534e-05
0.000413418
3.18262e-05
0.000411109
3.68336e-05
0.000408328
4.1485e-05
0.000405175
4.58148e-05
0.000401749
4.98868e-05
0.000398142
5.37817e-05
0.000394424
5.75906e-05
0.000390609
6.14041e-05
0.000386638
6.52994e-05
0.000382402
6.93058e-05
0.000377729
7.34004e-05
0.000372324
7.74731e-05
0.000365819
8.13667e-05
0.000357876
8.48472e-05
0.000347979
8.77007e-05
0.000335187
9.01335e-05
0.000318613
9.19522e-05
0.000297881
9.23988e-05
0.000273012
9.13474e-05
0.000244478
8.81689e-05
0.000210693
8.29421e-05
0.00017157
7.56176e-05
0.000131122
6.59305e-05
5.73454e-05
9.05116e-05
0.000399732
6.33484e-07
0.000400533
7.49828e-06
0.000400868
1.43509e-05
0.000400623
2.09783e-05
0.000399895
2.71813e-05
0.00039875
3.29714e-05
0.000397229
3.83538e-05
0.000395391
4.3323e-05
0.000393316
4.78907e-05
0.000391093
5.21093e-05
0.000388824
5.6051e-05
0.000386591
5.98232e-05
0.000384476
6.35195e-05
0.000382518
6.7257e-05
0.000380761
7.10635e-05
0.000379151
7.50097e-05
0.000377627
7.89976e-05
0.000375934
8.30595e-05
0.000373847
8.69341e-05
0.000370692
9.08554e-05
0.000366277
9.45485e-05
0.000360146
9.80834e-05
0.0003518
0.000100745
0.000340764
0.000102383
0.000325836
0.000103097
0.000307203
0.000101576
0.00028253
0.00010029
0.000256314
9.21473e-05
9.21149e-05
0.000221544
0.000386285
-5.55283e-07
0.000386996
6.78729e-06
0.000387435
1.39126e-05
0.000387617
2.07955e-05
0.00038745
2.73485e-05
0.000386918
3.35037e-05
0.000386068
3.92033e-05
0.000384948
4.44429e-05
0.000383633
4.92059e-05
0.000382186
5.35569e-05
0.000380716
5.7521e-05
0.000379292
6.12467e-05
0.000378048
6.47638e-05
0.000377028
6.82764e-05
0.000376356
7.17363e-05
0.000376001
7.53644e-05
0.000376022
7.89763e-05
0.000376275
8.28062e-05
0.000376604
8.66058e-05
0.000376837
9.06221e-05
0.000376779
9.46066e-05
0.000376452
9.84106e-05
0.000374981
0.000102216
0.000372582
0.000104782
0.000367536
0.000108143
0.000361081
0.00010803
0.000350488
0.000110883
0.000337243
0.000105392
0.000108614
0.000320744
0.000376253
-1.35626e-06
0.000376971
6.0687e-06
0.0003775
1.33835e-05
0.000377804
2.04915e-05
0.000377873
2.72798e-05
0.000377682
3.36951e-05
0.000377258
3.96268e-05
0.000376615
4.50864e-05
0.000375829
4.9992e-05
0.000374931
5.44544e-05
0.000374038
5.84145e-05
0.00037319
6.20939e-05
0.000372528
6.5426e-05
0.000372092
6.87125e-05
0.000371998
7.18309e-05
0.000372272
7.50904e-05
0.000372931
7.83171e-05
0.000374003
8.17337e-05
0.000375332
8.52772e-05
0.000377113
8.88407e-05
0.000378959
9.27605e-05
0.000381247
9.61228e-05
0.000383128
0.000100336
0.000385035
0.000102875
0.000386005
0.000107173
0.000386034
0.000108001
0.000385087
0.00011183
0.000380403
0.000110076
0.000112198
0.00037682
0.000368174
-1.95727e-06
0.000368764
5.47876e-06
0.000369295
1.28529e-05
0.000369703
2.00827e-05
0.000369971
2.70116e-05
0.000370058
3.36082e-05
0.000369986
3.96991e-05
0.000369745
4.53276e-05
0.000369399
5.03377e-05
0.00036897
5.48835e-05
0.000368549
5.88359e-05
0.000368189
6.24536e-05
0.000367979
6.56361e-05
0.000368008
6.86831e-05
0.000368308
7.15309e-05
0.00036901
7.43885e-05
0.000370024
7.73031e-05
0.000371548
8.02097e-05
0.000373373
8.34521e-05
0.000375788
8.64261e-05
0.000378489
9.00589e-05
0.00038168
9.29324e-05
0.000385167
9.68491e-05
0.00038866
9.93813e-05
0.000392665
0.000103169
0.000395497
0.000105168
0.000399361
0.000107966
0.000399833
0.000109604
0.000109744
0.000402287
0.000360058
-2.60976e-06
0.000360731
4.80615e-06
0.000361402
1.21812e-05
0.000362013
1.94716e-05
0.000362539
2.64861e-05
0.000362941
3.32058e-05
0.000363228
3.94125e-05
0.000363398
4.51577e-05
0.000363481
5.0255e-05
0.00036352
5.48441e-05
0.000363551
5.88044e-05
0.000363673
6.23326e-05
0.000363896
6.54126e-05
0.000364371
6.82076e-05
0.000365057
7.08456e-05
0.000366134
7.3311e-05
0.000367503
7.59342e-05
0.000369341
7.83715e-05
0.000371566
8.12278e-05
0.000374234
8.37581e-05
0.000377432
8.6861e-05
0.000380858
8.95057e-05
0.000385064
9.26433e-05
0.000389024
9.54216e-05
0.00039409
9.81019e-05
0.000398109
0.000101149
0.000403446
0.00010263
0.000406799
0.000106251
0.000105318
0.000411225
0.000353897
-3.28442e-06
0.0003546
4.1031e-06
0.000355306
1.14757e-05
0.00035598
1.87972e-05
0.000356599
2.58667e-05
0.000357153
3.26521e-05
0.000357627
3.89383e-05
0.000358047
4.47379e-05
0.000358403
4.98992e-05
0.000358768
5.44787e-05
0.000359133
5.84401e-05
0.000359617
6.18481e-05
0.000360202
6.48276e-05
0.000361031
6.73789e-05
0.000362081
6.97955e-05
0.000363463
7.1929e-05
0.000365197
7.41998e-05
0.000367276
7.62924e-05
0.000369859
7.86452e-05
0.000372692
8.09251e-05
0.000376204
8.33487e-05
0.000379765
8.5945e-05
0.000384188
8.822e-05
0.000388379
9.12314e-05
0.000393494
9.29869e-05
0.000398085
9.65579e-05
0.000403357