/*--------------------------------*- C++ -*----------------------------------*\
| =========                 |                                                 |
| \\      /  F ield         | OpenFOAM: The Open Source CFD Toolbox           |
|  \\    /   O peration     | Version:  2312                                  |
|   \\  /    A nd           | Website:  www.openfoam.com                      |
|    \\/     M anipulation  |                                                 |
\*---------------------------------------------------------------------------*/
FoamFile
{
    version     2.0;
    format      ascii;
    arch        "LSB;label=32;scalar=64";
    class       volScalarField;
    location    "59000";
    object      p;
}
// * * * * * * * * * * * * * * * * * * * * * * * * * * * * * * * * * * * * * //

dimensions      [0 2 -2 0 0 0 0];

internalField   nonuniform List<scalar> 
10800
(
4.87397e-07
4.73275e-07
4.59507e-07
4.4893e-07
4.41507e-07
4.36116e-07
4.31665e-07
4.27586e-07
4.2371e-07
4.20046e-07
4.16629e-07
4.13465e-07
4.10519e-07
4.07742e-07
4.05087e-07
4.02521e-07
4.00023e-07
3.97578e-07
3.95177e-07
3.92811e-07
3.90471e-07
3.8815e-07
3.8584e-07
3.83537e-07
3.81235e-07
3.78932e-07
3.76624e-07
3.74308e-07
3.71983e-07
3.69647e-07
3.67299e-07
3.64937e-07
3.62562e-07
3.60172e-07
3.57767e-07
3.55349e-07
3.52916e-07
3.5047e-07
3.4801e-07
3.45537e-07
3.43051e-07
3.40554e-07
3.38044e-07
3.35522e-07
3.32989e-07
3.30442e-07
3.27883e-07
3.25307e-07
3.22719e-07
3.20104e-07
3.17482e-07
3.14803e-07
3.12147e-07
3.09342e-07
3.06691e-07
3.03555e-07
3.01195e-07
2.96784e-07
2.96472e-07
2.85869e-07
4.39354e-07
4.37627e-07
4.34982e-07
4.31856e-07
4.2864e-07
4.25545e-07
4.22622e-07
4.19835e-07
4.17134e-07
4.14487e-07
4.11889e-07
4.09346e-07
4.06863e-07
4.04442e-07
4.02075e-07
3.99754e-07
3.97469e-07
3.95213e-07
3.92978e-07
3.90761e-07
3.88558e-07
3.86363e-07
3.84174e-07
3.81988e-07
3.798e-07
3.77609e-07
3.75412e-07
3.73207e-07
3.70994e-07
3.68769e-07
3.66534e-07
3.64286e-07
3.62025e-07
3.5975e-07
3.57463e-07
3.55161e-07
3.52847e-07
3.50517e-07
3.48177e-07
3.4582e-07
3.43456e-07
3.41071e-07
3.38684e-07
3.3627e-07
3.33863e-07
3.31419e-07
3.28994e-07
3.26517e-07
3.24083e-07
3.21567e-07
3.19146e-07
3.16593e-07
3.14236e-07
3.11667e-07
3.0951e-07
3.06989e-07
3.05366e-07
3.02975e-07
3.02496e-07
2.99817e-07
4.30613e-07
4.29862e-07
4.28449e-07
4.26497e-07
4.24212e-07
4.21792e-07
4.19362e-07
4.16972e-07
4.14626e-07
4.1231e-07
4.10017e-07
4.07745e-07
4.05499e-07
4.03285e-07
4.01104e-07
3.98955e-07
3.96833e-07
3.94733e-07
3.92651e-07
3.90583e-07
3.88526e-07
3.86476e-07
3.84432e-07
3.8239e-07
3.80349e-07
3.78306e-07
3.7626e-07
3.74208e-07
3.72151e-07
3.70085e-07
3.68011e-07
3.65928e-07
3.63835e-07
3.61731e-07
3.59618e-07
3.57492e-07
3.55357e-07
3.53209e-07
3.51052e-07
3.4888e-07
3.46703e-07
3.44507e-07
3.42309e-07
3.4009e-07
3.37873e-07
3.35629e-07
3.33396e-07
3.31128e-07
3.28886e-07
3.26596e-07
3.24357e-07
3.2205e-07
3.19835e-07
3.17523e-07
3.15367e-07
3.13062e-07
3.11018e-07
3.08727e-07
3.06833e-07
3.04462e-07
4.18878e-07
4.18445e-07
4.17658e-07
4.16568e-07
4.15243e-07
4.13755e-07
4.1216e-07
4.10499e-07
4.08791e-07
4.07049e-07
4.05277e-07
4.03482e-07
4.01671e-07
3.99848e-07
3.9802e-07
3.96189e-07
3.94356e-07
3.92522e-07
3.90687e-07
3.8885e-07
3.8701e-07
3.85167e-07
3.83321e-07
3.8147e-07
3.79614e-07
3.77753e-07
3.75886e-07
3.74012e-07
3.72131e-07
3.70242e-07
3.68346e-07
3.66441e-07
3.64529e-07
3.62608e-07
3.6068e-07
3.58742e-07
3.56797e-07
3.54843e-07
3.52881e-07
3.50909e-07
3.48931e-07
3.46941e-07
3.44945e-07
3.42936e-07
3.4092e-07
3.38889e-07
3.3685e-07
3.34791e-07
3.32724e-07
3.30629e-07
3.28528e-07
3.26388e-07
3.24245e-07
3.22053e-07
3.19863e-07
3.1761e-07
3.15368e-07
3.13046e-07
3.1075e-07
3.08374e-07
4.12177e-07
4.11963e-07
4.11532e-07
4.10886e-07
4.10042e-07
4.09028e-07
4.07878e-07
4.0662e-07
4.05281e-07
4.03877e-07
4.0242e-07
4.0092e-07
3.99383e-07
3.97817e-07
3.96227e-07
3.94617e-07
3.92992e-07
3.91354e-07
3.89706e-07
3.88048e-07
3.86381e-07
3.84707e-07
3.83025e-07
3.81337e-07
3.79642e-07
3.77942e-07
3.76235e-07
3.74523e-07
3.72805e-07
3.71082e-07
3.69353e-07
3.6762e-07
3.65881e-07
3.64139e-07
3.62391e-07
3.6064e-07
3.58884e-07
3.57125e-07
3.55362e-07
3.53594e-07
3.51823e-07
3.50048e-07
3.48268e-07
3.46483e-07
3.44692e-07
3.42895e-07
3.41091e-07
3.39277e-07
3.37453e-07
3.35614e-07
3.33756e-07
3.31873e-07
3.29953e-07
3.27986e-07
3.25953e-07
3.23844e-07
3.21645e-07
3.19368e-07
3.17015e-07
3.14684e-07
4.06657e-07
4.06494e-07
4.06169e-07
4.05685e-07
4.05052e-07
4.04286e-07
4.03405e-07
4.02427e-07
4.01368e-07
4.0024e-07
3.99054e-07
3.97817e-07
3.96535e-07
3.95214e-07
3.93861e-07
3.92478e-07
3.91071e-07
3.89643e-07
3.88196e-07
3.86733e-07
3.85256e-07
3.83766e-07
3.82264e-07
3.80753e-07
3.79232e-07
3.77704e-07
3.76169e-07
3.74627e-07
3.7308e-07
3.71528e-07
3.69972e-07
3.68412e-07
3.6685e-07
3.65286e-07
3.6372e-07
3.62152e-07
3.60584e-07
3.59015e-07
3.57447e-07
3.55878e-07
3.54309e-07
3.52739e-07
3.51168e-07
3.49596e-07
3.48021e-07
3.46441e-07
3.44852e-07
3.43255e-07
3.41642e-07
3.40016e-07
3.38368e-07
3.36702e-07
3.35009e-07
3.33297e-07
3.31539e-07
3.2974e-07
3.27865e-07
3.25935e-07
3.23947e-07
3.22027e-07
4.0231e-07
4.02191e-07
4.01953e-07
4.01597e-07
4.01127e-07
4.00549e-07
3.99873e-07
3.99109e-07
3.98266e-07
3.97355e-07
3.96382e-07
3.95355e-07
3.9428e-07
3.93161e-07
3.92003e-07
3.90811e-07
3.8959e-07
3.88341e-07
3.87069e-07
3.85776e-07
3.84465e-07
3.83139e-07
3.81798e-07
3.80446e-07
3.79083e-07
3.77711e-07
3.76332e-07
3.74947e-07
3.73557e-07
3.72164e-07
3.70768e-07
3.69372e-07
3.67975e-07
3.66579e-07
3.65185e-07
3.63794e-07
3.62406e-07
3.61023e-07
3.59644e-07
3.58271e-07
3.56904e-07
3.55543e-07
3.54188e-07
3.5284e-07
3.51497e-07
3.50161e-07
3.48829e-07
3.47502e-07
3.46174e-07
3.44844e-07
3.43502e-07
3.42145e-07
3.40761e-07
3.39351e-07
3.37907e-07
3.3644e-07
3.34929e-07
3.33398e-07
3.31845e-07
3.30383e-07
3.98858e-07
3.98766e-07
3.9858e-07
3.98301e-07
3.9793e-07
3.97471e-07
3.96928e-07
3.96308e-07
3.95618e-07
3.94862e-07
3.94048e-07
3.93179e-07
3.92262e-07
3.91301e-07
3.90301e-07
3.89265e-07
3.88197e-07
3.87102e-07
3.85981e-07
3.84838e-07
3.83675e-07
3.82495e-07
3.81301e-07
3.80094e-07
3.78877e-07
3.77651e-07
3.76418e-07
3.7518e-07
3.73938e-07
3.72695e-07
3.71452e-07
3.7021e-07
3.68971e-07
3.67736e-07
3.66507e-07
3.65284e-07
3.6407e-07
3.62866e-07
3.61672e-07
3.60489e-07
3.59319e-07
3.58163e-07
3.57019e-07
3.55891e-07
3.54776e-07
3.53675e-07
3.52587e-07
3.51513e-07
3.50451e-07
3.49403e-07
3.48364e-07
3.47336e-07
3.46305e-07
3.45272e-07
3.44228e-07
3.43181e-07
3.4212e-07
3.41072e-07
3.40045e-07
3.39142e-07
3.96094e-07
3.96018e-07
3.95867e-07
3.95638e-07
3.95334e-07
3.94955e-07
3.94505e-07
3.93989e-07
3.93409e-07
3.92771e-07
3.92079e-07
3.91336e-07
3.90547e-07
3.89717e-07
3.88847e-07
3.87943e-07
3.87007e-07
3.86044e-07
3.85054e-07
3.84042e-07
3.83011e-07
3.81962e-07
3.80899e-07
3.79823e-07
3.78737e-07
3.77643e-07
3.76543e-07
3.7544e-07
3.74335e-07
3.7323e-07
3.72127e-07
3.71029e-07
3.69936e-07
3.68852e-07
3.67777e-07
3.66713e-07
3.65663e-07
3.64628e-07
3.6361e-07
3.6261e-07
3.6163e-07
3.60672e-07
3.59737e-07
3.58827e-07
3.57943e-07
3.57086e-07
3.56257e-07
3.55457e-07
3.54684e-07
3.53939e-07
3.53217e-07
3.52524e-07
3.51856e-07
3.51217e-07
3.506e-07
3.50013e-07
3.49448e-07
3.48929e-07
3.48466e-07
3.48147e-07
3.93891e-07
3.93828e-07
3.937e-07
3.93507e-07
3.93249e-07
3.92928e-07
3.92546e-07
3.92105e-07
3.91608e-07
3.91059e-07
3.90461e-07
3.89817e-07
3.8913e-07
3.88403e-07
3.8764e-07
3.86844e-07
3.86017e-07
3.85162e-07
3.84283e-07
3.83382e-07
3.82462e-07
3.81525e-07
3.80574e-07
3.79612e-07
3.7864e-07
3.77662e-07
3.76679e-07
3.75694e-07
3.7471e-07
3.73727e-07
3.7275e-07
3.7178e-07
3.70819e-07
3.69869e-07
3.68934e-07
3.68015e-07
3.67114e-07
3.66235e-07
3.65378e-07
3.64548e-07
3.63745e-07
3.62972e-07
3.62232e-07
3.61528e-07
3.6086e-07
3.60233e-07
3.59647e-07
3.59107e-07
3.5861e-07
3.58161e-07
3.5776e-07
3.57411e-07
3.57115e-07
3.56877e-07
3.56695e-07
3.56575e-07
3.56518e-07
3.56543e-07
3.56664e-07
3.56954e-07
3.92163e-07
3.92108e-07
3.91997e-07
3.91829e-07
3.91606e-07
3.91326e-07
3.90993e-07
3.90608e-07
3.90174e-07
3.89692e-07
3.89165e-07
3.88597e-07
3.87988e-07
3.87343e-07
3.86664e-07
3.85953e-07
3.85213e-07
3.84447e-07
3.83658e-07
3.82848e-07
3.8202e-07
3.81176e-07
3.8032e-07
3.79453e-07
3.78578e-07
3.77698e-07
3.76814e-07
3.75931e-07
3.7505e-07
3.74174e-07
3.73305e-07
3.72446e-07
3.716e-07
3.70769e-07
3.69957e-07
3.69165e-07
3.68397e-07
3.67656e-07
3.66944e-07
3.66265e-07
3.65622e-07
3.65018e-07
3.64456e-07
3.6394e-07
3.63473e-07
3.63059e-07
3.62701e-07
3.62401e-07
3.62164e-07
3.61995e-07
3.61897e-07
3.61876e-07
3.61935e-07
3.62081e-07
3.62315e-07
3.62648e-07
3.63082e-07
3.63636e-07
3.64327e-07
3.65211e-07
3.90845e-07
3.90796e-07
3.90697e-07
3.90548e-07
3.90349e-07
3.901e-07
3.89802e-07
3.89458e-07
3.89069e-07
3.88637e-07
3.88163e-07
3.87651e-07
3.87102e-07
3.86519e-07
3.85904e-07
3.85259e-07
3.84588e-07
3.83891e-07
3.83173e-07
3.82435e-07
3.8168e-07
3.80911e-07
3.8013e-07
3.7934e-07
3.78543e-07
3.77743e-07
3.76941e-07
3.76141e-07
3.75345e-07
3.74556e-07
3.73777e-07
3.73011e-07
3.7226e-07
3.71529e-07
3.70819e-07
3.70134e-07
3.69478e-07
3.68853e-07
3.68264e-07
3.67714e-07
3.67206e-07
3.66746e-07
3.66336e-07
3.65982e-07
3.65687e-07
3.65457e-07
3.65295e-07
3.65208e-07
3.652e-07
3.65278e-07
3.65449e-07
3.65719e-07
3.66095e-07
3.66584e-07
3.67194e-07
3.67935e-07
3.68815e-07
3.69852e-07
3.71064e-07
3.72493e-07
3.89892e-07
3.89847e-07
3.89757e-07
3.89621e-07
3.89438e-07
3.8921e-07
3.88938e-07
3.88622e-07
3.88265e-07
3.87868e-07
3.87433e-07
3.86961e-07
3.86455e-07
3.85916e-07
3.85348e-07
3.84752e-07
3.84129e-07
3.83484e-07
3.82818e-07
3.82134e-07
3.81434e-07
3.80721e-07
3.79997e-07
3.79265e-07
3.78527e-07
3.77787e-07
3.77048e-07
3.76311e-07
3.7558e-07
3.74858e-07
3.74149e-07
3.73454e-07
3.72777e-07
3.72122e-07
3.71492e-07
3.7089e-07
3.70321e-07
3.69788e-07
3.69294e-07
3.68845e-07
3.68445e-07
3.68098e-07
3.67809e-07
3.67583e-07
3.67426e-07
3.67343e-07
3.6734e-07
3.67424e-07
3.67602e-07
3.67881e-07
3.68271e-07
3.68778e-07
3.69412e-07
3.70183e-07
3.71102e-07
3.7218e-07
3.73431e-07
3.74869e-07
3.76517e-07
3.78401e-07
3.89273e-07
3.89231e-07
3.89146e-07
3.89018e-07
3.88846e-07
3.88632e-07
3.88375e-07
3.88078e-07
3.87741e-07
3.87366e-07
3.86955e-07
3.8651e-07
3.86031e-07
3.85522e-07
3.84984e-07
3.84419e-07
3.8383e-07
3.83218e-07
3.82587e-07
3.81938e-07
3.81275e-07
3.80598e-07
3.79912e-07
3.79219e-07
3.78522e-07
3.77823e-07
3.77125e-07
3.76431e-07
3.75744e-07
3.75068e-07
3.74405e-07
3.73758e-07
3.73132e-07
3.72529e-07
3.71954e-07
3.71409e-07
3.709e-07
3.70429e-07
3.70002e-07
3.69623e-07
3.69297e-07
3.69029e-07
3.68824e-07
3.68687e-07
3.68626e-07
3.68645e-07
3.68753e-07
3.68957e-07
3.69266e-07
3.69687e-07
3.7023e-07
3.70905e-07
3.71723e-07
3.72695e-07
3.73834e-07
3.75153e-07
3.76669e-07
3.78396e-07
3.80357e-07
3.8257e-07
3.88968e-07
3.88927e-07
3.88845e-07
3.88721e-07
3.88554e-07
3.88346e-07
3.88098e-07
3.87809e-07
3.87482e-07
3.87119e-07
3.8672e-07
3.86287e-07
3.85822e-07
3.85327e-07
3.84804e-07
3.84255e-07
3.83682e-07
3.83087e-07
3.82473e-07
3.81842e-07
3.81196e-07
3.80539e-07
3.79872e-07
3.79198e-07
3.78521e-07
3.77842e-07
3.77165e-07
3.76493e-07
3.75829e-07
3.75175e-07
3.74536e-07
3.73914e-07
3.73313e-07
3.72737e-07
3.72189e-07
3.71673e-07
3.71194e-07
3.70756e-07
3.70362e-07
3.70019e-07
3.69731e-07
3.69502e-07
3.6934e-07
3.6925e-07
3.69237e-07
3.6931e-07
3.69475e-07
3.69741e-07
3.70117e-07
3.70611e-07
3.71235e-07
3.71997e-07
3.7291e-07
3.73986e-07
3.7524e-07
3.76685e-07
3.78339e-07
3.80218e-07
3.82343e-07
3.84728e-07
3.88968e-07
3.88927e-07
3.88845e-07
3.88721e-07
3.88554e-07
3.88346e-07
3.88097e-07
3.87809e-07
3.87482e-07
3.87118e-07
3.86719e-07
3.86287e-07
3.85822e-07
3.85327e-07
3.84804e-07
3.84255e-07
3.83682e-07
3.83087e-07
3.82473e-07
3.81842e-07
3.81196e-07
3.80539e-07
3.79872e-07
3.79198e-07
3.78521e-07
3.77842e-07
3.77165e-07
3.76493e-07
3.75828e-07
3.75175e-07
3.74535e-07
3.73914e-07
3.73313e-07
3.72736e-07
3.72189e-07
3.71673e-07
3.71194e-07
3.70755e-07
3.70362e-07
3.70019e-07
3.6973e-07
3.69502e-07
3.6934e-07
3.69249e-07
3.69237e-07
3.69309e-07
3.69474e-07
3.69741e-07
3.70117e-07
3.70611e-07
3.71234e-07
3.71996e-07
3.72909e-07
3.73985e-07
3.75239e-07
3.76684e-07
3.78339e-07
3.80217e-07
3.82342e-07
3.84727e-07
3.89272e-07
3.8923e-07
3.89145e-07
3.89017e-07
3.88846e-07
3.88631e-07
3.88374e-07
3.88077e-07
3.8774e-07
3.87366e-07
3.86955e-07
3.86509e-07
3.86031e-07
3.85521e-07
3.84983e-07
3.84419e-07
3.83829e-07
3.83218e-07
3.82586e-07
3.81938e-07
3.81274e-07
3.80598e-07
3.79912e-07
3.79219e-07
3.78521e-07
3.77822e-07
3.77124e-07
3.7643e-07
3.75744e-07
3.75067e-07
3.74404e-07
3.73758e-07
3.73131e-07
3.72529e-07
3.71953e-07
3.71408e-07
3.70899e-07
3.70428e-07
3.70001e-07
3.69622e-07
3.69296e-07
3.69028e-07
3.68823e-07
3.68686e-07
3.68625e-07
3.68644e-07
3.68752e-07
3.68956e-07
3.69264e-07
3.69685e-07
3.70229e-07
3.70904e-07
3.71722e-07
3.72693e-07
3.73832e-07
3.75151e-07
3.76667e-07
3.78394e-07
3.80355e-07
3.82567e-07
3.89891e-07
3.89846e-07
3.89756e-07
3.89619e-07
3.89437e-07
3.89209e-07
3.88937e-07
3.88621e-07
3.88264e-07
3.87867e-07
3.87432e-07
3.8696e-07
3.86454e-07
3.85915e-07
3.85347e-07
3.8475e-07
3.84128e-07
3.83483e-07
3.82817e-07
3.82133e-07
3.81433e-07
3.80719e-07
3.79995e-07
3.79263e-07
3.78526e-07
3.77786e-07
3.77047e-07
3.7631e-07
3.75579e-07
3.74857e-07
3.74147e-07
3.73452e-07
3.72776e-07
3.72121e-07
3.7149e-07
3.70889e-07
3.70319e-07
3.69786e-07
3.69293e-07
3.68844e-07
3.68444e-07
3.68097e-07
3.67808e-07
3.67582e-07
3.67424e-07
3.67341e-07
3.67338e-07
3.67422e-07
3.67599e-07
3.67879e-07
3.68268e-07
3.68775e-07
3.6941e-07
3.70181e-07
3.71099e-07
3.72177e-07
3.73427e-07
3.74866e-07
3.76513e-07
3.78397e-07
3.90843e-07
3.90794e-07
3.90695e-07
3.90546e-07
3.90347e-07
3.90098e-07
3.89801e-07
3.89457e-07
3.89067e-07
3.88635e-07
3.88162e-07
3.8765e-07
3.87101e-07
3.86518e-07
3.85903e-07
3.85258e-07
3.84586e-07
3.8389e-07
3.83171e-07
3.82433e-07
3.81678e-07
3.80909e-07
3.80128e-07
3.79338e-07
3.78542e-07
3.77741e-07
3.76939e-07
3.76139e-07
3.75343e-07
3.74554e-07
3.73775e-07
3.73009e-07
3.72258e-07
3.71527e-07
3.70817e-07
3.70132e-07
3.69476e-07
3.68851e-07
3.68262e-07
3.67712e-07
3.67204e-07
3.66744e-07
3.66334e-07
3.6598e-07
3.65685e-07
3.65455e-07
3.65293e-07
3.65205e-07
3.65197e-07
3.65275e-07
3.65446e-07
3.65716e-07
3.66091e-07
3.6658e-07
3.6719e-07
3.6793e-07
3.6881e-07
3.69847e-07
3.71059e-07
3.72488e-07
3.92161e-07
3.92106e-07
3.91995e-07
3.91827e-07
3.91604e-07
3.91325e-07
3.90991e-07
3.90606e-07
3.90172e-07
3.8969e-07
3.89163e-07
3.88595e-07
3.87986e-07
3.87341e-07
3.86662e-07
3.85951e-07
3.85211e-07
3.84445e-07
3.83656e-07
3.82846e-07
3.82018e-07
3.81174e-07
3.80318e-07
3.79451e-07
3.78576e-07
3.77695e-07
3.76812e-07
3.75929e-07
3.75048e-07
3.74172e-07
3.73303e-07
3.72444e-07
3.71598e-07
3.70767e-07
3.69955e-07
3.69163e-07
3.68395e-07
3.67654e-07
3.66942e-07
3.66263e-07
3.65619e-07
3.65015e-07
3.64453e-07
3.63937e-07
3.6347e-07
3.63056e-07
3.62698e-07
3.62398e-07
3.6216e-07
3.6199e-07
3.61892e-07
3.61872e-07
3.61931e-07
3.62076e-07
3.6231e-07
3.62642e-07
3.63076e-07
3.6363e-07
3.6432e-07
3.65204e-07
3.93889e-07
3.93825e-07
3.93697e-07
3.93505e-07
3.93247e-07
3.92926e-07
3.92544e-07
3.92103e-07
3.91606e-07
3.91057e-07
3.90459e-07
3.89815e-07
3.89128e-07
3.88401e-07
3.87638e-07
3.86841e-07
3.86014e-07
3.8516e-07
3.84281e-07
3.8338e-07
3.82459e-07
3.81523e-07
3.80572e-07
3.79609e-07
3.78638e-07
3.77659e-07
3.76676e-07
3.75692e-07
3.74707e-07
3.73725e-07
3.72747e-07
3.71777e-07
3.70816e-07
3.69866e-07
3.68931e-07
3.68012e-07
3.67111e-07
3.66232e-07
3.65375e-07
3.64544e-07
3.63741e-07
3.62969e-07
3.62229e-07
3.61524e-07
3.60856e-07
3.60229e-07
3.59643e-07
3.59102e-07
3.58606e-07
3.58156e-07
3.57755e-07
3.57406e-07
3.5711e-07
3.56871e-07
3.56688e-07
3.56569e-07
3.56511e-07
3.56535e-07
3.56656e-07
3.56946e-07
3.96091e-07
3.96015e-07
3.95864e-07
3.95636e-07
3.95331e-07
3.94952e-07
3.94503e-07
3.93986e-07
3.93406e-07
3.92768e-07
3.92076e-07
3.91333e-07
3.90545e-07
3.89714e-07
3.88844e-07
3.8794e-07
3.87005e-07
3.86041e-07
3.85051e-07
3.8404e-07
3.83008e-07
3.81959e-07
3.80896e-07
3.7982e-07
3.78734e-07
3.7764e-07
3.7654e-07
3.75437e-07
3.74332e-07
3.73227e-07
3.72124e-07
3.71025e-07
3.69933e-07
3.68848e-07
3.67773e-07
3.6671e-07
3.65659e-07
3.64624e-07
3.63606e-07
3.62606e-07
3.61626e-07
3.60668e-07
3.59733e-07
3.58823e-07
3.57939e-07
3.57082e-07
3.56252e-07
3.55452e-07
3.54679e-07
3.53933e-07
3.53211e-07
3.52518e-07
3.5185e-07
3.51211e-07
3.50593e-07
3.50006e-07
3.4944e-07
3.48921e-07
3.48457e-07
3.48138e-07
3.98855e-07
3.98762e-07
3.98577e-07
3.98298e-07
3.97927e-07
3.97468e-07
3.96925e-07
3.96305e-07
3.95614e-07
3.94859e-07
3.94044e-07
3.93176e-07
3.92259e-07
3.91298e-07
3.90297e-07
3.89261e-07
3.88194e-07
3.87098e-07
3.85977e-07
3.84834e-07
3.83672e-07
3.82492e-07
3.81298e-07
3.80091e-07
3.78873e-07
3.77647e-07
3.76414e-07
3.75176e-07
3.73935e-07
3.72691e-07
3.71448e-07
3.70206e-07
3.68967e-07
3.67732e-07
3.66503e-07
3.6528e-07
3.64066e-07
3.62862e-07
3.61667e-07
3.60485e-07
3.59315e-07
3.58158e-07
3.57015e-07
3.55886e-07
3.54771e-07
3.5367e-07
3.52582e-07
3.51507e-07
3.50445e-07
3.49397e-07
3.48358e-07
3.47329e-07
3.46297e-07
3.45265e-07
3.4422e-07
3.43172e-07
3.42111e-07
3.41063e-07
3.40035e-07
3.39132e-07
4.02306e-07
4.02187e-07
4.0195e-07
4.01594e-07
4.01123e-07
4.00546e-07
3.99869e-07
3.99105e-07
3.98263e-07
3.97351e-07
3.96378e-07
3.95351e-07
3.94276e-07
3.93157e-07
3.91999e-07
3.90808e-07
3.89586e-07
3.88337e-07
3.87065e-07
3.85772e-07
3.84462e-07
3.83135e-07
3.81794e-07
3.80442e-07
3.79079e-07
3.77707e-07
3.76328e-07
3.74943e-07
3.73553e-07
3.7216e-07
3.70764e-07
3.69367e-07
3.6797e-07
3.66575e-07
3.6518e-07
3.63789e-07
3.62401e-07
3.61018e-07
3.59639e-07
3.58266e-07
3.56899e-07
3.55538e-07
3.54183e-07
3.52835e-07
3.51492e-07
3.50155e-07
3.48823e-07
3.47496e-07
3.46168e-07
3.44838e-07
3.43496e-07
3.42139e-07
3.40753e-07
3.39343e-07
3.37898e-07
3.3643e-07
3.34919e-07
3.33387e-07
3.31834e-07
3.30371e-07
4.06653e-07
4.0649e-07
4.06165e-07
4.05681e-07
4.05048e-07
4.04282e-07
4.03401e-07
4.02423e-07
4.01364e-07
4.00236e-07
3.9905e-07
3.97812e-07
3.96531e-07
3.9521e-07
3.93857e-07
3.92474e-07
3.91067e-07
3.89639e-07
3.88192e-07
3.86729e-07
3.85251e-07
3.83761e-07
3.8226e-07
3.80748e-07
3.79228e-07
3.77699e-07
3.76164e-07
3.74622e-07
3.73075e-07
3.71523e-07
3.69967e-07
3.68407e-07
3.66845e-07
3.6528e-07
3.63714e-07
3.62147e-07
3.60579e-07
3.5901e-07
3.57441e-07
3.55872e-07
3.54303e-07
3.52733e-07
3.51162e-07
3.4959e-07
3.48014e-07
3.46434e-07
3.44845e-07
3.43247e-07
3.41634e-07
3.40008e-07
3.38359e-07
3.36693e-07
3.35e-07
3.33288e-07
3.3153e-07
3.29731e-07
3.27855e-07
3.25924e-07
3.23935e-07
3.22014e-07
4.12173e-07
4.11959e-07
4.11528e-07
4.10882e-07
4.10038e-07
4.09024e-07
4.07873e-07
4.06616e-07
4.05277e-07
4.03873e-07
4.02416e-07
4.00915e-07
3.99379e-07
3.97812e-07
3.96222e-07
3.94612e-07
3.92987e-07
3.91349e-07
3.89701e-07
3.88043e-07
3.86376e-07
3.84702e-07
3.8302e-07
3.81332e-07
3.79637e-07
3.77936e-07
3.7623e-07
3.74517e-07
3.72799e-07
3.71076e-07
3.69347e-07
3.67614e-07
3.65876e-07
3.64133e-07
3.62385e-07
3.60634e-07
3.58878e-07
3.57119e-07
3.55355e-07
3.53588e-07
3.51817e-07
3.50041e-07
3.48261e-07
3.46476e-07
3.44685e-07
3.42888e-07
3.41083e-07
3.3927e-07
3.37445e-07
3.35607e-07
3.33749e-07
3.31865e-07
3.29945e-07
3.27978e-07
3.25944e-07
3.23834e-07
3.21634e-07
3.19356e-07
3.17003e-07
3.14671e-07
4.18873e-07
4.1844e-07
4.17653e-07
4.16563e-07
4.15238e-07
4.1375e-07
4.12155e-07
4.10494e-07
4.08786e-07
4.07044e-07
4.05272e-07
4.03477e-07
4.01666e-07
3.99843e-07
3.98015e-07
3.96183e-07
3.94351e-07
3.92517e-07
3.90681e-07
3.88844e-07
3.87004e-07
3.85161e-07
3.83315e-07
3.81464e-07
3.79608e-07
3.77747e-07
3.75879e-07
3.74005e-07
3.72124e-07
3.70235e-07
3.68339e-07
3.66435e-07
3.64523e-07
3.62602e-07
3.60673e-07
3.58735e-07
3.5679e-07
3.54836e-07
3.52874e-07
3.50902e-07
3.48924e-07
3.46934e-07
3.44938e-07
3.42928e-07
3.40913e-07
3.38881e-07
3.36842e-07
3.34782e-07
3.32716e-07
3.3062e-07
3.28519e-07
3.26379e-07
3.24235e-07
3.22042e-07
3.19852e-07
3.17599e-07
3.15356e-07
3.13034e-07
3.10738e-07
3.08361e-07
4.30608e-07
4.29858e-07
4.28444e-07
4.26492e-07
4.24207e-07
4.21787e-07
4.19357e-07
4.16967e-07
4.14621e-07
4.12305e-07
4.10011e-07
4.07739e-07
4.05493e-07
4.03279e-07
4.01098e-07
3.98949e-07
3.96827e-07
3.94727e-07
3.92645e-07
3.90577e-07
3.88519e-07
3.8647e-07
3.84425e-07
3.82384e-07
3.80342e-07
3.78299e-07
3.76253e-07
3.74201e-07
3.72143e-07
3.70078e-07
3.68004e-07
3.6592e-07
3.63828e-07
3.61724e-07
3.5961e-07
3.57484e-07
3.55349e-07
3.53201e-07
3.51044e-07
3.48872e-07
3.46695e-07
3.44499e-07
3.42301e-07
3.40081e-07
3.37864e-07
3.3562e-07
3.33388e-07
3.3112e-07
3.28877e-07
3.26587e-07
3.24348e-07
3.22041e-07
3.19826e-07
3.17513e-07
3.15357e-07
3.13052e-07
3.11007e-07
3.08715e-07
3.06821e-07
3.04448e-07
4.39349e-07
4.37622e-07
4.34976e-07
4.31851e-07
4.28635e-07
4.2554e-07
4.22617e-07
4.1983e-07
4.17128e-07
4.14481e-07
4.11883e-07
4.0934e-07
4.06857e-07
4.04436e-07
4.02069e-07
3.99748e-07
3.97463e-07
3.95206e-07
3.92971e-07
3.90754e-07
3.8855e-07
3.86356e-07
3.84167e-07
3.8198e-07
3.79792e-07
3.77601e-07
3.75404e-07
3.73199e-07
3.70986e-07
3.68761e-07
3.66526e-07
3.64277e-07
3.62017e-07
3.59742e-07
3.57455e-07
3.55152e-07
3.52838e-07
3.50508e-07
3.48169e-07
3.45811e-07
3.43447e-07
3.41062e-07
3.38675e-07
3.36262e-07
3.33854e-07
3.3141e-07
3.28985e-07
3.26507e-07
3.24074e-07
3.21558e-07
3.19136e-07
3.16583e-07
3.14226e-07
3.11656e-07
3.09499e-07
3.06978e-07
3.05355e-07
3.02963e-07
3.02483e-07
2.99804e-07
4.87392e-07
4.73269e-07
4.59502e-07
4.48925e-07
4.41502e-07
4.36111e-07
4.3166e-07
4.2758e-07
4.23705e-07
4.2004e-07
4.16623e-07
4.13459e-07
4.10513e-07
4.07735e-07
4.0508e-07
4.02514e-07
4.00016e-07
3.97571e-07
3.9517e-07
3.92803e-07
3.90463e-07
3.88142e-07
3.85832e-07
3.83528e-07
3.81227e-07
3.78923e-07
3.76615e-07
3.743e-07
3.71975e-07
3.69638e-07
3.6729e-07
3.64928e-07
3.62552e-07
3.60162e-07
3.57758e-07
3.5534e-07
3.52907e-07
3.5046e-07
3.48e-07
3.45527e-07
3.43042e-07
3.40544e-07
3.38035e-07
3.35513e-07
3.32979e-07
3.30433e-07
3.27874e-07
3.25298e-07
3.2271e-07
3.20094e-07
3.17473e-07
3.14793e-07
3.12137e-07
3.09332e-07
3.06682e-07
3.03545e-07
3.01185e-07
2.96774e-07
2.96462e-07
2.8586e-07
3.2577e-07
2.75205e-07
2.54331e-07
2.36758e-07
2.19167e-07
2.01406e-07
1.81598e-07
1.60416e-07
1.35708e-07
1.09102e-07
7.81442e-08
4.57262e-08
8.82899e-09
-2.81996e-08
-6.91709e-08
-1.08173e-07
-1.50414e-07
-1.88283e-07
-2.28852e-07
-2.62701e-07
-2.98973e-07
-3.26586e-07
-3.56729e-07
-3.76277e-07
-3.99917e-07
-4.0931e-07
-4.30419e-07
-4.25565e-07
-4.52818e-07
-5.39702e-07
3.11887e-07
2.56764e-07
2.42887e-07
2.27883e-07
2.10963e-07
1.93613e-07
1.74113e-07
1.53077e-07
1.28563e-07
1.02313e-07
7.19872e-08
4.04259e-08
4.70519e-09
-3.09965e-08
-7.04332e-08
-1.07963e-07
-1.48403e-07
-1.84803e-07
-2.23562e-07
-2.56499e-07
-2.91697e-07
-3.18686e-07
-3.49273e-07
-3.68205e-07
-3.9368e-07
-4.02908e-07
-4.23193e-07
-4.28381e-07
-4.30675e-07
-5.75145e-07
2.99704e-07
2.54303e-07
2.41472e-07
2.26939e-07
2.09522e-07
1.91189e-07
1.71169e-07
1.49791e-07
1.2523e-07
9.88474e-08
6.87595e-08
3.72914e-08
2.13731e-09
-3.32123e-08
-7.17488e-08
-1.08685e-07
-1.48154e-07
-1.84197e-07
-2.22474e-07
-2.54969e-07
-2.89873e-07
-3.16865e-07
-3.46561e-07
-3.67216e-07
-3.90493e-07
-4.05805e-07
-4.20948e-07
-4.41729e-07
-4.18685e-07
-5.20213e-07
2.89537e-07
2.50211e-07
2.35307e-07
2.21289e-07
2.04581e-07
1.86832e-07
1.67009e-07
1.45462e-07
1.2096e-07
9.44145e-08
6.46619e-08
3.32021e-08
-1.18575e-09
-3.63407e-08
-7.36595e-08
-1.10397e-07
-1.48357e-07
-1.84349e-07
-2.20586e-07
-2.53728e-07
-2.86219e-07
-3.15468e-07
-3.42626e-07
-3.67043e-07
-3.86838e-07
-4.09022e-07
-4.15278e-07
-4.47804e-07
-4.17152e-07
-4.87165e-07
2.79722e-07
2.4763e-07
2.31847e-07
2.18951e-07
2.02798e-07
1.84281e-07
1.63943e-07
1.41826e-07
1.17285e-07
9.03236e-08
6.08255e-08
2.90821e-08
-4.59933e-09
-3.98733e-08
-7.59917e-08
-1.12817e-07
-1.49141e-07
-1.85409e-07
-2.19718e-07
-2.53893e-07
-2.84334e-07
-3.15526e-07
-3.39967e-07
-3.68237e-07
-3.83817e-07
-4.11394e-07
-4.12973e-07
-4.45906e-07
-4.26292e-07
-4.61218e-07
2.71133e-07
2.45912e-07
2.29282e-07
2.15938e-07
2.00059e-07
1.81441e-07
1.60917e-07
1.38309e-07
1.13648e-07
8.62444e-08
5.68775e-08
2.47979e-08
-8.34077e-09
-4.37916e-08
-7.888e-08
-1.1582e-07
-1.50655e-07
-1.87222e-07
-2.19755e-07
-2.54692e-07
-2.83149e-07
-3.15737e-07
-3.38312e-07
-3.68512e-07
-3.82938e-07
-4.11221e-07
-4.15179e-07
-4.41586e-07
-4.39059e-07
-4.54217e-07
2.64102e-07
2.44411e-07
2.27647e-07
2.13474e-07
1.97716e-07
1.79026e-07
1.58248e-07
1.35071e-07
1.10107e-07
8.22205e-08
5.27898e-08
2.0393e-08
-1.24568e-08
-4.7981e-08
-8.23737e-08
-1.19183e-07
-1.52995e-07
-1.89392e-07
-2.20813e-07
-2.55652e-07
-2.83269e-07
-3.15834e-07
-3.3844e-07
-3.6819e-07
-3.84611e-07
-4.10416e-07
-4.20747e-07
-4.40099e-07
-4.47509e-07
-4.57472e-07
2.58852e-07
2.4301e-07
2.26746e-07
2.11617e-07
1.95612e-07
1.76774e-07
1.55672e-07
1.31943e-07
1.06501e-07
7.81631e-08
4.84555e-08
1.58478e-08
-1.70028e-08
-5.24031e-08
-8.64897e-08
-1.22827e-07
-1.56157e-07
-1.91817e-07
-2.22876e-07
-2.56779e-07
-2.84613e-07
-3.15993e-07
-3.39968e-07
-3.6789e-07
-3.87531e-07
-4.10463e-07
-4.25851e-07
-4.42008e-07
-4.53809e-07
-4.63647e-07
2.55465e-07
2.41714e-07
2.26101e-07
2.10323e-07
1.93758e-07
1.74609e-07
1.53087e-07
1.28839e-07
1.02781e-07
7.40161e-08
4.38521e-08
1.11196e-08
-2.19615e-08
-5.70848e-08
-9.11606e-08
-1.26783e-07
-1.60009e-07
-1.94579e-07
-2.2572e-07
-2.58263e-07
-2.86719e-07
-3.16564e-07
-3.4199e-07
-3.68298e-07
-3.90311e-07
-4.11968e-07
-4.30022e-07
-4.46137e-07
-4.59582e-07
-4.70895e-07
2.53707e-07
2.40584e-07
2.25532e-07
2.09398e-07
1.92114e-07
1.72467e-07
1.50401e-07
1.25642e-07
9.88898e-08
6.969e-08
3.89632e-08
6.1252e-09
-2.72966e-08
-6.20997e-08
-9.62831e-08
-1.31134e-07
-1.64352e-07
-1.97792e-07
-2.29021e-07
-2.60264e-07
-2.89126e-07
-3.17749e-07
-3.44028e-07
-3.6952e-07
-3.9275e-07
-4.14351e-07
-4.33679e-07
-4.507e-07
-4.65482e-07
-4.78427e-07
2.53105e-07
2.39767e-07
2.24932e-07
2.08554e-07
1.90547e-07
1.70261e-07
1.47534e-07
1.22227e-07
9.47587e-08
6.50858e-08
3.37649e-08
7.75284e-10
-3.29886e-08
-6.75272e-08
-1.01782e-07
-1.3595e-07
-1.69049e-07
-2.01521e-07
-2.326e-07
-2.62819e-07
-2.91669e-07
-3.19495e-07
-3.46024e-07
-3.7122e-07
-3.95003e-07
-4.16984e-07
-4.37226e-07
-4.55317e-07
-4.71512e-07
-4.86014e-07
2.53076e-07
2.39304e-07
2.24311e-07
2.07594e-07
1.88881e-07
1.67877e-07
1.4441e-07
1.1849e-07
9.03054e-08
6.01072e-08
2.82027e-08
-5.0109e-09
-3.90685e-08
-7.34337e-08
-1.0766e-07
-1.41278e-07
-1.7409e-07
-2.05772e-07
-2.36453e-07
-2.65866e-07
-2.94385e-07
-3.21638e-07
-3.4808e-07
-3.73152e-07
-3.97242e-07
-4.19681e-07
-4.40741e-07
-4.59887e-07
-4.77452e-07
-4.9354e-07
2.53219e-07
2.39052e-07
2.23624e-07
2.0639e-07
1.86957e-07
1.65196e-07
1.40949e-07
1.14342e-07
8.54348e-08
5.46564e-08
2.21859e-08
-1.13197e-08
-4.56213e-08
-7.98902e-08
-1.14001e-07
-1.47162e-07
-1.79561e-07
-2.10553e-07
-2.40676e-07
-2.69368e-07
-2.97381e-07
-3.24103e-07
-3.50305e-07
-3.75235e-07
-3.99544e-07
-4.22364e-07
-4.4423e-07
-4.64302e-07
-4.83255e-07
-5.00752e-07
2.53283e-07
2.38798e-07
2.22787e-07
2.04878e-07
1.84683e-07
1.6213e-07
1.37067e-07
1.09697e-07
8.00413e-08
4.8624e-08
1.55918e-08
-1.82616e-08
-5.27761e-08
-8.70005e-08
-1.20936e-07
-1.53685e-07
-1.85589e-07
-2.15924e-07
-2.45385e-07
-2.73361e-07
-3.0075e-07
-3.2691e-07
-3.52748e-07
-3.77478e-07
-4.01895e-07
-4.2503e-07
-4.47601e-07
-4.68558e-07
-4.88795e-07
-5.0767e-07
2.53176e-07
2.3835e-07
2.2171e-07
2.0304e-07
1.82024e-07
1.58618e-07
1.32682e-07
1.04462e-07
7.40016e-08
4.18781e-08
8.26596e-09
-2.59828e-08
-6.07009e-08
-9.49092e-08
-1.28633e-07
-1.60977e-07
-1.92327e-07
-2.21987e-07
-2.50705e-07
-2.77916e-07
-3.04575e-07
-3.30094e-07
-3.55442e-07
-3.79872e-07
-4.04263e-07
-4.27624e-07
-4.50784e-07
-4.72564e-07
-4.9401e-07
-5.14199e-07
2.52954e-07
2.37669e-07
2.20379e-07
2.00899e-07
1.78981e-07
1.54613e-07
1.27699e-07
9.85156e-08
6.71649e-08
3.4254e-08
2.06534e-11
-3.46689e-08
-6.95946e-08
-1.03798e-07
-1.37278e-07
-1.69196e-07
-1.99932e-07
-2.28863e-07
-2.56751e-07
-2.83113e-07
-3.08923e-07
-3.33685e-07
-3.58392e-07
-3.82392e-07
-4.06581e-07
-4.30056e-07
-4.53642e-07
-4.76191e-07
-4.98734e-07
-5.20228e-07
2.52801e-07
2.36839e-07
2.18842e-07
1.98482e-07
1.75535e-07
1.50042e-07
1.21989e-07
9.16938e-08
5.93381e-08
2.55443e-08
-9.36757e-09
-4.45407e-08
-7.96786e-08
-1.13871e-07
-1.47067e-07
-1.78509e-07
-2.08554e-07
-2.36673e-07
-2.63629e-07
-2.89021e-07
-3.13852e-07
-3.37698e-07
-3.61596e-07
-3.84981e-07
-4.08773e-07
-4.32189e-07
-4.56007e-07
-4.79229e-07
-5.02717e-07
-5.25548e-07
2.5297e-07
2.36031e-07
2.17148e-07
1.95746e-07
1.71576e-07
1.44739e-07
1.15344e-07
8.37623e-08
5.02674e-08
1.5489e-08
-2.01621e-08
-5.58505e-08
-9.11932e-08
-1.25345e-07
-1.58194e-07
-1.89087e-07
-2.18343e-07
-2.45542e-07
-2.71441e-07
-2.95722e-07
-3.19422e-07
-3.42162e-07
-3.65068e-07
-3.87593e-07
-4.10784e-07
-4.33866e-07
-4.57723e-07
-4.81387e-07
-5.05692e-07
-5.29724e-07
2.53584e-07
2.35356e-07
2.15253e-07
1.92499e-07
1.66831e-07
1.38404e-07
1.0745e-07
7.44008e-08
3.96265e-08
3.76698e-09
-3.26751e-08
-6.88904e-08
-1.04411e-07
-1.38469e-07
-1.70887e-07
-2.01133e-07
-2.29477e-07
-2.55633e-07
-2.80323e-07
-3.03341e-07
-3.25723e-07
-3.47157e-07
-3.68847e-07
-3.9024e-07
-4.12569e-07
-4.3498e-07
-4.58609e-07
-4.82364e-07
-5.07257e-07
-5.32203e-07
2.5442e-07
2.34641e-07
2.12833e-07
1.88308e-07
1.60831e-07
1.30574e-07
9.78565e-08
6.31679e-08
2.69817e-08
-1.00405e-08
-4.73083e-08
-8.40373e-08
-1.19686e-07
-1.5357e-07
-1.85454e-07
-2.14938e-07
-2.42229e-07
-2.67202e-07
-2.90501e-07
-3.12086e-07
-3.32922e-07
-3.52832e-07
-3.73016e-07
-3.92982e-07
-4.14109e-07
-4.35449e-07
-4.58487e-07
-4.81813e-07
-5.06942e-07
-5.32186e-07
2.54699e-07
2.33092e-07
2.0924e-07
1.82594e-07
1.52999e-07
1.20657e-07
8.5964e-08
4.94677e-08
1.17449e-08
-2.65067e-08
-6.46166e-08
-1.0182e-07
-1.37524e-07
-1.71123e-07