/*--------------------------------*- C++ -*----------------------------------*\
| =========                 |                                                 |
| \\      /  F ield         | OpenFOAM: The Open Source CFD Toolbox           |
|  \\    /   O peration     | Version:  2312                                  |
|   \\  /    A nd           | Website:  www.openfoam.com                      |
|    \\/     M anipulation  |                                                 |
\*---------------------------------------------------------------------------*/
FoamFile
{
    version     2.0;
    format      ascii;
    arch        "LSB;label=32;scalar=64";
    class       volVectorField;
    location    "59000";
    object      U;
}
// * * * * * * * * * * * * * * * * * * * * * * * * * * * * * * * * * * * * * //

dimensions      [0 1 -1 0 0 0 0];

internalField   nonuniform List<vector> 
10800
(
(0.000992484 4.94183e-06 0)
(0.000990038 1.24575e-05 0)
(0.000986873 1.74788e-05 0)
(0.000980501 2.06624e-05 0)
(0.000971089 2.27453e-05 0)
(0.000959799 2.42388e-05 0)
(0.0009477 2.53777e-05 0)
(0.000935324 2.62368e-05 0)
(0.000922816 2.68405e-05 0)
(0.000910153 2.72136e-05 0)
(0.00089729 2.73941e-05 0)
(0.000884224 2.74247e-05 0)
(0.000870991 2.73435e-05 0)
(0.000857646 2.71785e-05 0)
(0.00084424 2.69479e-05 0)
(0.000830813 2.66634e-05 0)
(0.000817389 2.63329e-05 0)
(0.000803988 2.59631e-05 0)
(0.000790624 2.55593e-05 0)
(0.000777312 2.51266e-05 0)
(0.000764068 2.46685e-05 0)
(0.000750907 2.41884e-05 0)
(0.000737843 2.36881e-05 0)
(0.00072489 2.31696e-05 0)
(0.000712062 2.26338e-05 0)
(0.00069937 2.20823e-05 0)
(0.000686828 2.1515e-05 0)
(0.000674448 2.09335e-05 0)
(0.000662242 2.03372e-05 0)
(0.000650223 1.97278e-05 0)
(0.000638405 1.91041e-05 0)
(0.000626798 1.84685e-05 0)
(0.000615416 1.78184e-05 0)
(0.00060427 1.7158e-05 0)
(0.000593376 1.64827e-05 0)
(0.000582742 1.57992e-05 0)
(0.000572386 1.50999e-05 0)
(0.000562312 1.43958e-05 0)
(0.000552545 1.36739e-05 0)
(0.000543079 1.29524e-05 0)
(0.000533953 1.22094e-05 0)
(0.000525141 1.14749e-05 0)
(0.00051671 1.07115e-05 0)
(0.000508589 9.9698e-06 0)
(0.000500914 9.18532e-06 0)
(0.000493506 8.44359e-06 0)
(0.000486673 7.63408e-06 0)
(0.000479958 6.89922e-06 0)
(0.000474127 6.05581e-06 0)
(0.000467963 5.32633e-06 0)
(0.000463514 4.44043e-06 0)
(0.000457393 3.6692e-06 0)
(0.000455382 2.77914e-06 0)
(0.000447667 1.71744e-06 0)
(0.000451229 1.14969e-06 0)
(0.000436843 -1.2669e-06 0)
(0.000455273 1.11132e-07 0)
(0.000419301 -7.73049e-06 0)
(0.00047767 2.03375e-06 0)
(0.000382935 -2.44897e-05 0)
(0.00100003 5.80204e-06 0)
(0.00100172 1.49921e-05 0)
(0.00100423 2.15223e-05 0)
(0.00100706 2.60847e-05 0)
(0.00100979 2.94422e-05 0)
(0.00101219 3.21229e-05 0)
(0.00101421 3.43745e-05 0)
(0.00101589 3.62834e-05 0)
(0.00101726 3.78824e-05 0)
(0.00101837 3.92018e-05 0)
(0.00101923 4.02832e-05 0)
(0.00101981 4.11724e-05 0)
(0.00102014 4.19098e-05 0)
(0.0010202 4.25256e-05 0)
(0.00102001 4.30398e-05 0)
(0.00101957 4.34649e-05 0)
(0.00101892 4.38098e-05 0)
(0.00101805 4.4081e-05 0)
(0.00101699 4.42843e-05 0)
(0.00101573 4.44242e-05 0)
(0.00101429 4.45044e-05 0)
(0.00101267 4.45276e-05 0)
(0.0010109 4.44959e-05 0)
(0.00100897 4.44102e-05 0)
(0.00100691 4.42717e-05 0)
(0.0010047 4.40803e-05 0)
(0.00100239 4.38371e-05 0)
(0.000999931 4.35407e-05 0)
(0.000997402 4.31931e-05 0)
(0.000994737 4.2791e-05 0)
(0.000992038 4.23382e-05 0)
(0.000989194 4.18289e-05 0)
(0.000986369 4.127e-05 0)
(0.000983374 4.06509e-05 0)
(0.000980478 3.99854e-05 0)
(0.000977354 3.92539e-05 0)
(0.00097445 3.84823e-05 0)
(0.000971209 3.76348e-05 0)
(0.000968379 3.67597e-05 0)
(0.00096501 3.57911e-05 0)
(0.000962368 3.48183e-05 0)
(0.000958825 3.37206e-05 0)
(0.000956536 3.26612e-05 0)
(0.000952708 3.14203e-05 0)
(0.000951025 3.02941e-05 0)
(0.000946688 2.88842e-05 0)
(0.000946016 2.77255e-05 0)
(0.000940748 2.60988e-05 0)
(0.000941752 2.49665e-05 0)
(0.00093478 2.3036e-05 0)
(0.000938577 2.20295e-05 0)
(0.000928517 1.96409e-05 0)
(0.000936988 1.89259e-05 0)
(0.000921394 1.58156e-05 0)
(0.000937728 1.56522e-05 0)
(0.000912302 1.14103e-05 0)
(0.000941917 1.21319e-05 0)
(0.000899203 6.28881e-06 0)
(0.000951454 7.91667e-06 0)
(0.000878951 8.67712e-07 0)
(0.000999989 1.96261e-06 0)
(0.00100078 5.76418e-06 0)
(0.00100224 9.2893e-06 0)
(0.00100423 1.24541e-05 0)
(0.00100654 1.52559e-05 0)
(0.00100897 1.77398e-05 0)
(0.00101139 1.99604e-05 0)
(0.00101376 2.19609e-05 0)
(0.00101607 2.37685e-05 0)
(0.00101833 2.53999e-05 0)
(0.00102055 2.68681e-05 0)
(0.00102272 2.81867e-05 0)
(0.00102483 2.937e-05 0)
(0.00102688 3.04318e-05 0)
(0.00102887 3.13846e-05 0)
(0.00103078 3.22382e-05 0)
(0.00103264 3.30007e-05 0)
(0.00103442 3.36776e-05 0)
(0.00103615 3.42748e-05 0)
(0.00103781 3.47954e-05 0)
(0.00103942 3.52439e-05 0)
(0.00104096 3.56217e-05 0)
(0.00104246 3.59328e-05 0)
(0.00104389 3.61764e-05 0)
(0.00104529 3.63568e-05 0)
(0.00104661 3.64707e-05 0)
(0.00104791 3.65238e-05 0)
(0.00104912 3.65095e-05 0)
(0.00105032 3.64364e-05 0)
(0.00105143 3.62934e-05 0)
(0.00105256 3.60937e-05 0)
(0.00105356 3.58197e-05 0)
(0.00105462 3.54924e-05 0)
(0.00105551 3.50841e-05 0)
(0.00105652 3.46281e-05 0)
(0.00105729 3.40809e-05 0)
(0.00105829 3.34956e-05 0)
(0.00105892 3.28043e-05 0)
(0.00105994 3.20903e-05 0)
(0.00106042 3.12483e-05 0)
(0.00106152 3.04081e-05 0)
(0.00106178 2.94076e-05 0)
(0.00106305 2.84466e-05 0)
(0.00106303 2.72774e-05 0)
(0.0010646 2.62048e-05 0)
(0.00106416 2.48542e-05 0)
(0.00106623 2.36841e-05 0)
(0.00106517 2.21363e-05 0)
(0.00106801 2.08896e-05 0)
(0.00106601 1.91265e-05 0)
(0.00107007 1.78324e-05 0)
(0.00106661 1.58383e-05 0)
(0.00107255 1.45357e-05 0)
(0.00106682 1.23105e-05 0)
(0.00107562 1.1049e-05 0)
(0.0010664 8.64534e-06 0)
(0.00107957 7.48586e-06 0)
(0.00106499 5.1042e-06 0)
(0.00108482 4.07632e-06 0)
(0.00106211 2.22142e-06 0)
(0.00100001 1.74169e-06 0)
(0.00100047 5.15954e-06 0)
(0.00100128 8.42058e-06 0)
(0.00100239 1.14485e-05 0)
(0.00100374 1.42024e-05 0)
(0.00100526 1.66794e-05 0)
(0.00100689 1.89011e-05 0)
(0.00100858 2.08974e-05 0)
(0.00101033 2.26952e-05 0)
(0.00101212 2.43154e-05 0)
(0.00101394 2.57736e-05 0)
(0.00101578 2.70825e-05 0)
(0.00101764 2.82546e-05 0)
(0.00101951 2.93018e-05 0)
(0.00102139 3.02358e-05 0)
(0.00102327 3.10666e-05 0)
(0.00102515 3.18035e-05 0)
(0.00102702 3.24533e-05 0)
(0.0010289 3.30225e-05 0)
(0.00103077 3.35152e-05 0)
(0.00103263 3.39363e-05 0)
(0.00103449 3.42878e-05 0)
(0.00103635 3.45739e-05 0)
(0.0010382 3.47948e-05 0)
(0.00104005 3.49542e-05 0)
(0.00104189 3.50507e-05 0)
(0.00104374 3.50877e-05 0)
(0.00104556 3.50624e-05 0)
(0.0010474 3.49786e-05 0)
(0.0010492 3.48314e-05 0)
(0.00105103 3.4626e-05 0)
(0.00105282 3.43552e-05 0)
(0.00105464 3.4026e-05 0)
(0.00105641 3.36283e-05 0)
(0.00105822 3.31719e-05 0)
(0.00105996 3.26433e-05 0)
(0.00106178 3.20555e-05 0)
(0.00106348 3.13916e-05 0)
(0.0010653 3.06677e-05 0)
(0.00106695 2.98641e-05 0)
(0.0010688 2.8999e-05 0)
(0.00107039 2.80519e-05 0)
(0.00107227 2.70402e-05 0)
(0.00107379 2.59474e-05 0)
(0.00107573 2.47827e-05 0)
(0.00107716 2.3545e-05 0)
(0.00107919 2.22193e-05 0)
(0.00108049 2.08429e-05 0)
(0.00108268 1.93459e-05 0)
(0.00108381 1.78468e-05 0)
(0.00108622 1.61648e-05 0)
(0.0010871 1.45775e-05 0)
(0.00108984 1.26927e-05 0)
(0.00109039 1.10858e-05 0)
(0.0010936 8.9751e-06 0)
(0.00109366 7.47412e-06 0)
(0.00109753 5.10238e-06 0)
(0.00109689 3.91368e-06 0)
(0.00110169 1.19417e-06 0)
(0.00110001 6.0555e-07 0)
(0.001 1.15322e-06 0)
(0.00100023 3.43226e-06 0)
(0.00100067 5.64582e-06 0)
(0.00100134 7.76218e-06 0)
(0.0010022 9.75999e-06 0)
(0.00100323 1.16289e-05 0)
(0.00100441 1.33677e-05 0)
(0.00100569 1.49803e-05 0)
(0.00100705 1.64729e-05 0)
(0.00100848 1.78515e-05 0)
(0.00100996 1.91216e-05 0)
(0.00101149 2.02879e-05 0)
(0.00101305 2.13554e-05 0)
(0.00101465 2.23288e-05 0)
(0.00101627 2.32131e-05 0)
(0.0010179 2.40132e-05 0)
(0.00101956 2.47334e-05 0)
(0.00102123 2.53778e-05 0)
(0.0010229 2.59496e-05 0)
(0.00102459 2.64518e-05 0)
(0.00102628 2.68865e-05 0)
(0.00102799 2.72559e-05 0)
(0.0010297 2.75615e-05 0)
(0.00103141 2.78046e-05 0)
(0.00103313 2.7986e-05 0)
(0.00103485 2.81068e-05 0)
(0.00103658 2.81666e-05 0)
(0.00103831 2.81665e-05 0)
(0.00104004 2.81051e-05 0)
(0.00104178 2.79839e-05 0)
(0.00104352 2.77999e-05 0)
(0.00104525 2.7556e-05 0)
(0.001047 2.72465e-05 0)
(0.00104874 2.6877e-05 0)
(0.00105048 2.64378e-05 0)
(0.00105222 2.59393e-05 0)
(0.00105396 2.5365e-05 0)
(0.0010557 2.4734e-05 0)
(0.00105744 2.40181e-05 0)
(0.00105917 2.32512e-05 0)
(0.00106091 2.23857e-05 0)
(0.00106264 2.14806e-05 0)
(0.00106437 2.04561e-05 0)
(0.0010661 1.94126e-05 0)
(0.00106782 1.82175e-05 0)
(0.00106955 1.70391e-05 0)
(0.00107126 1.56588e-05 0)
(0.00107301 1.43555e-05 0)
(0.0010747 1.27705e-05 0)
(0.00107648 1.1362e-05 0)
(0.00107815 9.5447e-06 0)
(0.00107999 8.06451e-06 0)
(0.00108165 5.97228e-06 0)
(0.00108362 4.47399e-06 0)
(0.00108528 2.04051e-06 0)
(0.00108747 6.14151e-07 0)
(0.0010891 -2.25234e-06 0)
(0.00109161 -3.45375e-06 0)
(0.00109311 -6.892e-06 0)
(0.00109593 -7.6496e-06 0)
(0.001 9.27163e-07 0)
(0.00100017 2.77277e-06 0)
(0.00100051 4.59122e-06 0)
(0.001001 6.3636e-06 0)
(0.00100165 8.07247e-06 0)
(0.00100242 9.70395e-06 0)
(0.00100331 1.12488e-05 0)
(0.0010043 1.27021e-05 0)
(0.00100537 1.40623e-05 0)
(0.00100651 1.533e-05 0)
(0.0010077 1.65064e-05 0)
(0.00100895 1.75937e-05 0)
(0.00101024 1.8594e-05 0)
(0.00101158 1.951e-05 0)
(0.00101294 2.03443e-05 0)
(0.00101434 2.11001e-05 0)
(0.00101576 2.178e-05 0)
(0.0010172 2.23871e-05 0)
(0.00101866 2.29238e-05 0)
(0.00102014 2.33925e-05 0)
(0.00102163 2.37951e-05 0)
(0.00102313 2.41337e-05 0)
(0.00102465 2.44092e-05 0)
(0.00102617 2.46235e-05 0)
(0.00102771 2.47766e-05 0)
(0.00102925 2.48705e-05 0)
(0.00103079 2.4904e-05 0)
(0.00103234 2.48795e-05 0)
(0.0010339 2.47942e-05 0)
(0.00103546 2.46515e-05 0)
(0.00103702 2.44466e-05 0)
(0.00103859 2.41846e-05 0)
(0.00104015 2.38575e-05 0)
(0.00104172 2.34738e-05 0)
(0.00104328 2.30207e-05 0)
(0.00104485 2.25121e-05 0)
(0.00104641 2.19277e-05 0)
(0.00104798 2.12904e-05 0)
(0.00104953 2.0568e-05 0)
(0.0010511 1.97979e-05 0)
(0.00105263 1.89293e-05 0)
(0.0010542 1.80224e-05 0)
(0.00105572 1.69975e-05 0)
(0.0010573 1.59509e-05 0)
(0.0010588 1.4757e-05 0)
(0.00106039 1.35695e-05 0)
(0.00106188 1.21906e-05 0)
(0.0010635 1.08639e-05 0)
(0.00106496 9.2792e-06 0)
(0.00106663 7.821e-06 0)
(0.00106806 6.00338e-06 0)
(0.00106982 4.43177e-06 0)
(0.00107118 2.34528e-06 0)
(0.00107308 6.91267e-07 0)
(0.00107435 -1.72257e-06 0)
(0.00107647 -3.41978e-06 0)
(0.00107763 -6.26354e-06 0)
(0.00108009 -7.94665e-06 0)
(0.00108101 -1.13678e-05 0)
(0.00108381 -1.29347e-05 0)
(0.001 7.3275e-07 0)
(0.00100013 2.19173e-06 0)
(0.00100037 3.63123e-06 0)
(0.00100074 5.03856e-06 0)
(0.00100121 6.4023e-06 0)
(0.0010018 7.71312e-06 0)
(0.00100248 8.96414e-06 0)
(0.00100326 1.01508e-05 0)
(0.00100411 1.12706e-05 0)
(0.00100503 1.23225e-05 0)
(0.00100601 1.33061e-05 0)
(0.00100705 1.4222e-05 0)
(0.00100813 1.50707e-05 0)
(0.00100926 1.58532e-05 0)
(0.00101043 1.65706e-05 0)
(0.00101163 1.7224e-05 0)
(0.00101286 1.78146e-05 0)
(0.00101412 1.83439e-05 0)
(0.0010154 1.8813e-05 0)
(0.0010167 1.92232e-05 0)
(0.00101802 1.95753e-05 0)
(0.00101935 1.98706e-05 0)
(0.0010207 2.01093e-05 0)
(0.00102206 2.02925e-05 0)
(0.00102343 2.04199e-05 0)
(0.00102481 2.04928e-05 0)
(0.00102619 2.05097e-05 0)
(0.00102758 2.04725e-05 0)
(0.00102897 2.03785e-05 0)
(0.00103037 2.02303e-05 0)
(0.00103176 2.00234e-05 0)
(0.00103316 1.9762e-05 0)
(0.00103455 1.94391e-05 0)
(0.00103595 1.90612e-05 0)
(0.00103733 1.86176e-05 0)
(0.00103872 1.81189e-05 0)
(0.0010401 1.75487e-05 0)
(0.00104148 1.69241e-05 0)
(0.00104284 1.62197e-05 0)
(0.00104421 1.54633e-05 0)
(0.00104555 1.46154e-05 0)
(0.00104691 1.37207e-05 0)
(0.00104822 1.27179e-05 0)
(0.00104957 1.16782e-05 0)
(0.00105086 1.05061e-05 0)
(0.0010522 9.3146e-06 0)
(0.00105345 7.95495e-06 0)
(0.0010548 6.60549e-06 0)
(0.00105601 5.03395e-06 0)
(0.00105738 3.52112e-06 0)
(0.00105855 1.70427e-06 0)
(0.00105999 2.59467e-08 0)
(0.00106113 -2.07833e-06 0)
(0.00106267 -3.91054e-06 0)
(0.00106375 -6.35226e-06 0)
(0.00106545 -8.31227e-06 0)
(0.00106641 -1.11728e-05 0)
(0.00106833 -1.32276e-05 0)
(0.00106907 -1.66403e-05 0)
(0.00107117 -1.87321e-05 0)
(0.001 5.83787e-07 0)
(0.0010001 1.74738e-06 0)
(0.00100029 2.8991e-06 0)
(0.00100057 4.03104e-06 0)
(0.00100095 5.13571e-06 0)
(0.00100142 6.20642e-06 0)
(0.00100197 7.23753e-06 0)
(0.00100259 8.22458e-06 0)
(0.00100329 9.16424e-06 0)
(0.00100405 1.00542e-05 0)
(0.00100487 1.08928e-05 0)
(0.00100575 1.16793e-05 0)
(0.00100667 1.2413e-05 0)
(0.00100763 1.30936e-05 0)
(0.00100864 1.3721e-05 0)
(0.00100968 1.42952e-05 0)
(0.00101075 1.48164e-05 0)
(0.00101185 1.52851e-05 0)
(0.00101298 1.57013e-05 0)
(0.00101413 1.60658e-05 0)
(0.00101529 1.63785e-05 0)
(0.00101647 1.66401e-05 0)
(0.00101767 1.68505e-05 0)
(0.00101888 1.70103e-05 0)
(0.0010201 1.71189e-05 0)
(0.00102132 1.71769e-05 0)
(0.00102256 1.71834e-05 0)
(0.00102379 1.71391e-05 0)
(0.00102503 1.70422e-05 0)
(0.00102627 1.68939e-05 0)
(0.00102751 1.66912e-05 0)
(0.00102875 1.64362e-05 0)
(0.00102998 1.61242e-05 0)
(0.00103121 1.57586e-05 0)
(0.00103243 1.53326e-05 0)
(0.00103365 1.48515e-05 0)
(0.00103485 1.43052e-05 0)
(0.00103605 1.37026e-05 0)
(0.00103723 1.30284e-05 0)
(0.00103841 1.2297e-05 0)
(0.00103955 1.14853e-05 0)
(0.0010407 1.06166e-05 0)
(0.00104181 9.65561e-06 0)
(0.00104294 8.63987e-06 0)
(0.00104401 7.51534e-06 0)
(0.00104511 6.34166e-06 0)
(0.00104614 5.03601e-06 0)
(0.00104723 3.6928e-06 0)
(0.0010482 2.18439e-06 0)
(0.00104927 6.59551e-07 0)
(0.00105019 -1.07927e-06 0)
(0.00105127 -2.79935e-06 0)
(0.00105212 -4.80919e-06 0)
(0.00105324 -6.74318e-06 0)
(0.00105402 -9.08042e-06 0)
(0.00105522 -1.12427e-05 0)
(0.00105589 -1.39755e-05 0)
(0.0010572 -1.63701e-05 0)
(0.00105763 -1.95923e-05 0)
(0.00105897 -2.22099e-05 0)
(0.001 4.66282e-07 0)
(0.00100008 1.39627e-06 0)
(0.00100024 2.31838e-06 0)
(0.00100047 3.22722e-06 0)
(0.00100078 4.11755e-06 0)
(0.00100116 4.98447e-06 0)
(0.00100162 5.8236e-06 0)
(0.00100214 6.63123e-06 0)
(0.00100272 7.40424e-06 0)
(0.00100337 8.14013e-06 0)
(0.00100406 8.83685e-06 0)
(0.00100481 9.49278e-06 0)
(0.0010056 1.01067e-05 0)
(0.00100644 1.06777e-05 0)
(0.00100731 1.12052e-05 0)
(0.00100822 1.16887e-05 0)
(0.00100915 1.2128e-05 0)
(0.00101012 1.25228e-05 0)
(0.00101111 1.28732e-05 0)
(0.00101212 1.31791e-05 0)
(0.00101316 1.34403e-05 0)
(0.00101421 1.3657e-05 0)
(0.00101527 1.38289e-05 0)
(0.00101634 1.3956e-05 0)
(0.00101743 1.4038e-05 0)
(0.00101852 1.40748e-05 0)
(0.00101962 1.40658e-05 0)
(0.00102072 1.40108e-05 0)
(0.00102182 1.39088e-05 0)
(0.00102292 1.37597e-05 0)
(0.00102402 1.35619e-05 0)
(0.00102511 1.33155e-05 0)
(0.0010262 1.3018e-05 0)
(0.00102728 1.267e-05 0)
(0.00102834 1.22678e-05 0)
(0.0010294 1.18127e-05 0)
(0.00103044 1.12993e-05 0)
(0.00103147 1.07302e-05 0)
(0.00103247 1.00978e-05 0)
(0.00103346 9.40635e-06 0)
(0.00103443 8.64496e-06 0)
(0.00103538 7.82116e-06 0)
(0.00103629 6.9188e-06 0)
(0.0010372 5.95046e-06 0)
(0.00103805 4.89225e-06 0)
(0.00103891 3.76467e-06 0)
(0.00103969 2.53197e-06 0)
(0.0010405 1.22722e-06 0)
(0.00104121 -2.03087e-07 0)
(0.00104198 -1.70483e-06 0)
(0.00104261 -3.35858e-06 0)
(0.00104334 -5.07866e-06 0)
(0.00104388 -6.98963e-06 0)
(0.00104458 -8.95717e-06 0)
(0.00104502 -1.11735e-05 0)
(0.00104571 -1.34239e-05 0)
(0.001046 -1.6005e-05 0)
(0.00104669 -1.85729e-05 0)
(0.00104674 -2.15892e-05 0)
(0.00104734 -2.45003e-05 0)
(0.001 3.68996e-07 0)
(0.00100007 1.10518e-06 0)
(0.0010002 1.8358e-06 0)
(0.0010004 2.55705e-06 0)
(0.00100066 3.26517e-06 0)
(0.00100098 3.95654e-06 0)
(0.00100137 4.62786e-06 0)
(0.00100181 5.27614e-06 0)
(0.00100231 5.89878e-06 0)
(0.00100287 6.4935e-06 0)
(0.00100347 7.05839e-06 0)
(0.00100412 7.59184e-06 0)
(0.00100481 8.0925e-06 0)
(0.00100554 8.55931e-06 0)
(0.0010063 8.99142e-06 0)
(0.0010071 9.38814e-06 0)
(0.00100793 9.74892e-06 0)
(0.00100878 1.00733e-05 0)
(0.00100966 1.0361e-05 0)
(0.00101056 1.06116e-05 0)
(0.00101148 1.08248e-05 0)
(0.00101242 1.10004e-05 0)
(0.00101337 1.1138e-05 0)
(0.00101433 1.12373e-05 0)
(0.0010153 1.12979e-05 0)
(0.00101627 1.13195e-05 0)
(0.00101725 1.13014e-05 0)
(0.00101823 1.12431e-05 0)
(0.00101921 1.1144e-05 0)
(0.00102019 1.10032e-05 0)
(0.00102116 1.08199e-05 0)
(0.00102213 1.0593e-05 0)
(0.00102308 1.03215e-05 0)
(0.00102402 1.00039e-05 0)
(0.00102495 9.63911e-06 0)
(0.00102586 9.22518e-06 0)
(0.00102675 8.76066e-06 0)
(0.00102763 8.24317e-06 0)
(0.00102847 7.67113e-06 0)
(0.0010293 7.04127e-06 0)
(0.00103009 6.35209e-06 0)
(0.00103085 5.59904e-06 0)
(0.00103158 4.78103e-06 0)
(0.00103228 3.89155e-06 0)
(0.00103292 2.93058e-06 0)
(0.00103355 1.88851e-06 0)
(0.00103411 7.67579e-07 0)
(0.00103465 -4.46653e-07 0)
(0.00103511 -1.74744e-06 0)
(0.00103557 -3.15779e-06 0)
(0.00103592 -4.66452e-06 0)
(0.00103629 -6.30388e-06 0)
(0.00103651 -8.04899e-06 0)
(0.00103679 -9.95638e-06 0)
(0.00103685 -1.1977e-05 0)
(0.00103704 -1.42002e-05 0)
(0.00103692 -1.65401e-05 0)
(0.001037 -1.91373e-05 0)
(0.00103661 -2.18442e-05 0)
(0.0010365 -2.48783e-05 0)
(0.001 2.85957e-07 0)
(0.00100006 8.56588e-07 0)
(0.00100017 1.42324e-06 0)
(0.00100034 1.98318e-06 0)
(0.00100057 2.53368e-06 0)
(0.00100085 3.0721e-06 0)
(0.00100119 3.59595e-06 0)
(0.00100158 4.10294e-06 0)
(0.00100202 4.59102e-06 0)
(0.0010025 5.05833e-06 0)
(0.00100303 5.50326e-06 0)
(0.0010036 5.92438e-06 0)
(0.00100421 6.32047e-06 0)
(0.00100486 6.69049e-06 0)
(0.00100554 7.03354e-06 0)
(0.00100625 7.34886e-06 0)
(0.00100699 7.63581e-06 0)
(0.00100776 7.89378e-06 0)
(0.00100855 8.12232e-06 0)
(0.00100936 8.32093e-06 0)
(0.00101018 8.48922e-06 0)
(0.00101103 8.62672e-06 0)
(0.00101188 8.73308e-06 0)
(0.00101274 8.80779e-06 0)
(0.00101362 8.85049e-06 0)
(0.00101449 8.86053e-06 0)
(0.00101537 8.83754e-06 0)
(0.00101625 8.78064e-06 0)
(0.00101713 8.68949e-06 0)
(0.001018 8.56285e-06 0)
(0.00101886 8.40042e-06 0)
(0.00101971 8.20048e-06 0)
(0.00102055 7.9629e-06 0)
(0.00102137 7.68522e-06 0)
(0.00102218 7.36766e-06 0)
(0.00102296 7.00668e-06 0)
(0.00102372 6.60318e-06 0)
(0.00102446 6.15197e-06 0)
(0.00102516 5.65524e-06 0)
(0.00102583 5.10525e-06 0)
(0.00102647 4.50639e-06 0)
(0.00102707 3.84699e-06 0)
(0.00102762 3.13525e-06 0)
(0.00102813 2.35326e-06 0)
(0.00102859 1.51566e-06 0)
(0.001029 5.94757e-07 0)
(0.00102934 -3.84044e-07 0)
(0.00102965 -1.46381e-06 0)
(0.00102986 -2.60165e-06 0)
(0.00103004 -3.86651e-06 0)
(0.00103011 -5.18676e-06 0)
(0.00103015 -6.67127e-06 0)
(0.00103005 -8.20058e-06 0)
(0.00102993 -9.94767e-06 0)
(0.00102963 -1.17156e-05 0)
(0.00102934 -1.37805e-05 0)
(0.0010288 -1.58194e-05 0)
(0.00102832 -1.82735e-05 0)
(0.00102746 -2.06133e-05 0)
(0.00102668 -2.35415e-05 0)
(0.001 2.13123e-07 0)
(0.00100005 6.38477e-07 0)
(0.00100015 1.06103e-06 0)
(0.00100031 1.47885e-06 0)
(0.00100051 1.89e-06 0)
(0.00100076 2.29257e-06 0)
(0.00100106 2.68477e-06 0)
(0.00100141 3.06492e-06 0)
(0.0010018 3.43147e-06 0)
(0.00100223 3.783e-06 0)
(0.00100271 4.11824e-06 0)
(0.00100322 4.43603e-06 0)
(0.00100377 4.73538e-06 0)
(0.00100436 5.01537e-06 0)
(0.00100498 5.27521e-06 0)
(0.00100562 5.51417e-06 0)
(0.00100629 5.73167e-06 0)
(0.00100699 5.9271e-06 0)
(0.00100771 6.1e-06 0)
(0.00100844 6.24985e-06 0)
(0.0010092 6.37627e-06 0)
(0.00100996 6.47873e-06 0)
(0.00101074 6.55694e-06 0)
(0.00101153 6.6103e-06 0)
(0.00101232 6.63854e-06 0)
(0.00101312 6.64094e-06 0)
(0.00101392 6.61727e-06 0)
(0.00101471 6.56657e-06 0)
(0.0010155 6.48871e-06 0)
(0.00101628 6.38232e-06 0)
(0.00101706 6.24748e-06 0)
(0.00101782 6.08225e-06 0)
(0.00101856 5.88703e-06 0)
(0.00101929 5.659e-06 0)
(0.00101999 5.39921e-06 0)
(0.00102067 5.10349e-06 0)
(0.00102132 4.77399e-06 0)
(0.00102193 4.4045e-06 0)
(0.00102252 3.99906e-06 0)
(0.00102306 3.54823e-06 0)
(0.00102356 3.05927e-06 0)
(0.00102402 2.51771e-06 0)
(0.00102442 1.93617e-06 0)
(0.00102477 1.29217e-06 0)
(0.00102506 6.07197e-07 0)
(0.00102529 -1.53948e-07 0)
(0.00102545 -9.55265e-07 0)
(0.00102554 -1.85232e-06 0)
(0.00102554 -2.78603e-06 0)
(0.00102547 -3.84435e-06 0)
(0.00102529 -4.92932e-06 0)
(0.00102503 -6.18081e-06 0)
(0.00102464 -7.43771e-06 0)
(0.00102417 -8.92388e-06 0)
(0.00102353 -1.03753e-05 0)
(0.00102282 -1.21515e-05 0)
(0.00102189 -1.38202e-05 0)
(0.0010209 -1.59597e-05 0)
(0.0010196 -1.7862e-05 0)
(0.00101823 -2.04572e-05 0)
(0.001 1.47493e-07 0)
(0.00100005 4.419e-07 0)
(0.00100014 7.34454e-07 0)
(0.00100028 1.02386e-06 0)
(0.00100047 1.30881e-06 0)
(0.0010007 1.58802e-06 0)
(0.00100097 1.86029e-06 0)
(0.00100129 2.12444e-06 0)
(0.00100165 2.37941e-06 0)
(0.00100205 2.6242e-06 0)
(0.00100249 2.85789e-06 0)
(0.00100296 3.07965e-06 0)
(0.00100347 3.28873e-06 0)
(0.00100401 3.48443e-06 0)
(0.00100458 3.66616e-06 0)
(0.00100517 3.83333e-06 0)
(0.00100579 3.98548e-06 0)
(0.00100644 4.1221e-06 0)
(0.0010071 4.24283e-06 0)
(0.00100779 4.34721e-06 0)
(0.00100849 4.43494e-06 0)
(0.0010092 4.50558e-06 0)
(0.00100992 4.55886e-06 0)
(0.00101065 4.59429e-06 0)
(0.00101138 4.61167e-06 0)
(0.00101211 4.61035e-06 0)
(0.00101285 4.59023e-06 0)
(0.00101358 4.55044e-06 0)
(0.00101431 4.49097e-06 0)
(0.00101502 4.41065e-06 0)
(0.00101572 4.30965e-06 0)
(0.00101641 4.18628e-06 0)
(0.00101708 4.04109e-06 0)
(0.00101773 3.87158e-06 0)
(0.00101836 3.67894e-06 0)
(0.00101895 3.45946e-06 0)
(0.00101951 3.21542e-06 0)
(0.00102004 2.94121e-06 0)
(0.00102053 2.64096e-06 0)
(0.00102097 2.30608e-06 0)
(0.00102137 1.9438e-06 0)
(0.00102171 1.54085e-06 0)
(0.001022 1.10957e-06 0)
(0.00102222 6.29278e-07 0)
(0.00102238 1.20715e-07 0)
(0.00102246 -4.48635e-07 0)
(0.00102247 -1.04431e-06 0)
(0.00102239 -1.71823e-06 0)
(0.00102221 -2.41344e-06 0)
(0.00102194 -3.21228e-06 0)
(0.00102155 -4.02082e-06 0)
(0.00102106 -4.97063e-06 0)
(0.00102043 -5.90758e-06 0)
(0.00101967 -7.043e-06 0)
(0.00101875 -8.12437e-06 0)
(0.0010177 -9.49231e-06 0)
(0.00101643 -1.07329e-05 0)
(0.00101502 -1.23969e-05 0)
(0.00101334 -1.38041e-05 0)
(0.00101149 -1.58462e-05 0)
(0.001 8.66722e-08 0)
(0.00100005 2.59707e-07 0)
(0.00100013 4.31699e-07 0)
(0.00100026 6.01899e-07 0)
(0.00100044 7.69554e-07 0)
(0.00100065 9.33925e-07 0)
(0.00100091 1.0943e-06 0)
(0.00100121 1.25e-06 0)
(0.00100155 1.4004e-06 0)
(0.00100193 1.54489e-06 0)
(0.00100234 1.68294e-06 0)
(0.00100279 1.81404e-06 0)
(0.00100327 1.93771e-06 0)
(0.00100378 2.05355e-06 0)
(0.00100432 2.16116e-06 0)
(0.00100488 2.26018e-06 0)
(0.00100547 2.35031e-06 0)
(0.00100608 2.43123e-06 0)
(0.00100671 2.5027e-06 0)
(0.00100736 2.56441e-06 0)
(0.00100802 2.61618e-06 0)
(0.0010087 2.65769e-06 0)
(0.00100938 2.6888e-06 0)
(0.00101007 2.70915e-06 0)
(0.00101076 2.71863e-06 0)
(0.00101146 2.71681e-06 0)
(0.00101215 2.70363e-06 0)
(0.00101284 2.67851e-06 0)
(0.00101352 2.64147e-06 0)
(0.00101419 2.59172e-06 0)
(0.00101485 2.52942e-06 0)
(0.00101549 2.45342e-06 0)
(0.00101611 2.36417e-06 0)
(0.0010167 2.25995e-06 0)
(0.00101727 2.14168e-06 0)
(0.00101781 2.0068e-06 0)
(0.00101831 1.857e-06 0)
(0.00101878 1.68842e-06 0)
(0.0010192 1.50407e-06 0)
(0.00101958 1.29801e-06 0)
(0.0010199 1.07544e-06 0)
(0.00102016 8.27166e-07 0)
(0.00102037 5.62002e-07 0)
(0.0010205 2.65573e-07 0)
(0.00102057 -4.73713e-08 0)
(0.00102055 -3.99486e-07 0)
(0.00102045 -7.6637e-07 0)
(0.00102025 -1.1843e-06 0)
(0.00101995 -1.61291e-06 0)
(0.00101954 -2.10986e-06 0)
(0.001019 -2.60868e-06 0)
(0.00101834 -3.20174e-06 0)
(0.00101754 -3.77999e-06 0)
(0.00101658 -4.49211e-06 0)
(0.00101545 -5.15932e-06 0)
(0.00101416 -6.02192e-06 0)
(0.00101265 -6.78635e-06 0)
(0.00101094 -7.8425e-06 0)
(0.00100898 -8.70666e-06 0)
(0.00100679 -1.00129e-05 0)
(0.001 2.86175e-08 0)
(0.00100004 8.57878e-08 0)
(0.00100013 1.42654e-07 0)
(0.00100026 1.98969e-07 0)
(0.00100042 2.54487e-07 0)
(0.00100064 3.08961e-07 0)
(0.00100089 3.62158e-07 0)
(0.00100118 4.13852e-07 0)
(0.00100151 4.63834e-07 0)
(0.00100187 5.11905e-07 0)
(0.00100227 5.57882e-07 0)
(0.00100271 6.01592e-07 0)
(0.00100317 6.42881e-07 0)
(0.00100367 6.81601e-07 0)
(0.00100419 7.17624e-07 0)
(0.00100474 7.50823e-07 0)
(0.00100531 7.81093e-07 0)
(0.00100591 8.08322e-07 0)
(0.00100652 8.32426e-07 0)
(0.00100715 8.53298e-07 0)
(0.00100779 8.70872e-07 0)
(0.00100845 8.85038e-07 0)
(0.00100911 8.95742e-07 0)
(0.00100978 9.02862e-07 0)
(0.00101046 9.06358e-07 0)
(0.00101113 9.06078e-07 0)
(0.0010118 9.02003e-07 0)
(0.00101247 8.93928e-07 0)
(0.00101313 8.81867e-07 0)
(0.00101378 8.65535e-07 0)
(0.00101441 8.45003e-07 0)
(0.00101502 8.19858e-07 0)
(0.00101562 7.90271e-07 0)
(0.00101619 7.55634e-07 0)
(0.00101673 7.16285e-07 0)
(0.00101724 6.71317e-07 0)
(0.00101771 6.21351e-07 0)
(0.00101815 5.6501e-07 0)
(0.00101854 5.03395e-07 0)
(0.00101887 4.34386e-07 0)
(0.00101916 3.59885e-07 0)
(0.00101939 2.766e-07 0)
(0.00101955 1.87749e-07 0)
(0.00101964 8.81743e-08 0)
(0.00101965 -1.67604e-08 0)
(0.00101959 -1.35245e-07 0)
(0.00101943 -2.58506e-07 0)
(0.00101917 -3.99493e-07 0)
(0.0010188 -5.43674e-07 0)
(0.00101832 -7.11681e-07 0)
(0.00101771 -8.79616e-07 0)
(0.00101696 -1.08057e-06 0)
(0.00101606 -1.27535e-06 0)
(0.00101501 -1.51729e-06 0)
(0.00101377 -1.74207e-06 0)
(0.00101235 -2.03603e-06 0)
(0.00101071 -2.29345e-06 0)
(0.00100885 -2.65464e-06 -3.49577e-38)
(0.00100674 -2.9452e-06 0)
(0.00100437 -3.3938e-06 0)
(0.001 -2.8534e-08 0)
(0.00100004 -8.54296e-08 0)
(0.00100013 -1.41913e-07 0)
(0.00100026 -1.97741e-07 0)
(0.00100042 -2.52673e-07 0)
(0.00100064 -3.06469e-07 0)
(0.00100089 -3.58901e-07 0)
(0.00100118 -4.09747e-07 0)
(0.00100151 -4.58801e-07 0)
(0.00100187 -5.05869e-07 0)
(0.00100227 -5.50771e-07 0)
(0.00100271 -5.93341e-07 0)
(0.00100317 -6.33427e-07 0)
(0.00100367 -6.70886e-07 0)
(0.00100419 -7.05593e-07 0)
(0.00100474 -7.37426e-07 0)
(0.00100531 -7.66283e-07 0)
(0.00100591 -7.92058e-07 0)
(0.00100652 -8.14668e-07 0)
(0.00100715 -8.34012e-07 0)
(0.00100779 -8.50026e-07 0)
(0.00100845 -8.62603e-07 0)
(0.00100911 -8.71694e-07 0)
(0.00100978 -8.77177e-07 0)
(0.00101046 -8.79015e-07 0)
(0.00101113 -8.77059e-07 0)
(0.0010118 -8.7129e-07 0)
(0.00101247 -8.61507e-07 0)
(0.00101313 -8.47724e-07 0)
(0.00101378 -8.29656e-07 0)
(0.00101441 -8.07376e-07 0)
(0.00101502 -7.80472e-07 0)
(0.00101562 -7.49113e-07 0)
(0.00101619 -7.12693e-07 0)
(0.00101673 -6.71549e-07 0)
(0.00101724 -6.24772e-07 0)
(0.00101771 -5.72983e-07 0)
(0.00101815 -5.14804e-07 0)
(0.00101854 -4.51334e-07 0)
(0.00101888 -3.80454e-07 0)
(0.00101916 -3.04061e-07 0)
(0.00101939 -2.18863e-07 0)
(0.00101955 -1.28069e-07 0)
(0.00101964 -2.65148e-08 0)
(0.00101966 8.04546e-08 0)
(0.00101959 2.01036e-07 0)
(0.00101943 3.26464e-07 0)
(0.00101917 4.69659e-07 0)
(0.0010188 6.16108e-07 0)
(0.00101832 7.8642e-07 0)
(0.00101771 9.5674e-07 0)
(0.00101696 1.16013e-06 0)
(0.00101607 1.35745e-06 0)
(0.00101501 1.60199e-06 0)
(0.00101378 1.82951e-06 0)
(0.00101235 2.12626e-06 0)
(0.00101072 2.38664e-06 0)
(0.00100886 2.75087e-06 3.49577e-38)
(0.00100675 3.04465e-06 0)
(0.00100438 3.49656e-06 0)
(0.001 -8.65887e-08 0)
(0.00100005 -2.5935e-07 0)
(0.00100013 -4.30961e-07 0)
(0.00100026 -6.00676e-07 0)
(0.00100044 -7.67749e-07 0)
(0.00100065 -9.31447e-07 0)
(0.00100091 -1.09106e-06 0)
(0.00100121 -1.24592e-06 0)
(0.00100155 -1.3954e-06 0)
(0.00100193 -1.5389e-06 0)
(0.00100234 -1.67588e-06 0)
(0.00100279 -1.80585e-06 0)
(0.00100327 -1.92833e-06 0)
(0.00100378 -2.04292e-06 0)
(0.00100432 -2.14922e-06 0)
(0.00100488 -2.24689e-06 0)
(0.00100547 -2.33563e-06 0)
(0.00100608 -2.41511e-06 0)
(0.00100671 -2.48509e-06 0)
(0.00100736 -2.5453e-06 0)
(0.00100802 -2.59552e-06 0)
(0.0010087 -2.63546e-06 0)
(0.00100938 -2.66497e-06 0)
(0.00101007 -2.6837e-06 0)
(0.00101076 -2.69154e-06 0)
(0.00101146 -2.68807e-06 0)
(0.00101215 -2.67321e-06 0)
(0.00101284 -2.6464e-06 0)
(0.00101352 -2.60766e-06 0)
(0.00101419 -2.55618e-06 0)
(0.00101485 -2.49216e-06 0)
(0.00101549 -2.41442e-06 0)
(0.00101611 -2.32341e-06 0)
(0.0010167 -2.21742e-06 0)
(0.00101727 -2.09737e-06 0)
(0.00101781 -1.9607e-06 0)
(0.00101832 -1.80909e-06 0)
(0.00101878 -1.63869e-06 0)
(0.0010192 -1.4525e-06 0)
(0.00101958 -1.24457e-06 0)
(0.0010199 -1.02011e-06 0)
(0.00102017 -7.69926e-07 0)
(0.00102037 -5.02824e-07 0)
(0.00102051 -2.0443e-07 0)
(0.00102057 1.10495e-07 0)
(0.00102056 4.64621e-07 0)
(0.00102045 8.33585e-07 0)
(0.00102026 1.25364e-06 0)
(0.00101996 1.68446e-06 0)
(0.00101954 2.18366e-06 0)
(0.00101901 2.68483e-06 0)
(0.00101835 3.28026e-06 0)
(0.00101755 3.86101e-06 0)
(0.00101659 4.57567e-06 0)
(0.00101547 5.24557e-06 0)
(0.00101417 6.11091e-06 0)
(0.00101266 6.87826e-06 0)
(0.00101096 7.93735e-06 0)
(0.001009 8.80471e-06 0)
(0.0010068 1.01142e-05 0)
(0.001 -1.47409e-07 0)
(0.00100005 -4.41546e-07 0)
(0.00100014 -7.33725e-07 0)
(0.00100028 -1.02265e-06 0)
(0.00100047 -1.30703e-06 0)
(0.0010007 -1.58558e-06 0)
(0.00100097 -1.8571e-06 0)
(0.00100129 -2.12043e-06 0)
(0.00100165 -2.3745e-06 0)
(0.00100205 -2.61831e-06 0)
(0.00100249 -2.85096e-06 0)
(0.00100296 -3.07161e-06 0)
(0.00100347 -3.27952e-06 0)
(0.00100401 -3.474e-06 0)
(0.00100458 -3.65445e-06 0)
(0.00100517 -3.8203e-06 0)
(0.00100579 -3.97107e-06 0)
(0.00100644 -4.10628e-06 0)
(0.00100711 -4.22556e-06 0)
(0.00100779 -4.32846e-06 0)
(0.00100849 -4.41468e-06 0)
(0.0010092 -4.48377e-06 0)
(0.00100992 -4.5355e-06 0)
(0.00101065 -4.56934e-06 0)
(0.00101138 -4.58511e-06 0)
(0.00101212 -4.58217e-06 0)
(0.00101285 -4.5604e-06 0)
(0.00101358 -4.51896e-06 0)
(0.00101431 -4.45783e-06 0)
(0.00101502 -4.37582e-06 0)
(0.00101573 -4.27313e-06 0)
(0.00101642 -4.14806e-06 0)
(0.00101709 -4.00115e-06 0)
(0.00101774 -3.82991e-06 0)
(0.00101836 -3.63554e-06 0)
(0.00101896 -3.41431e-06 0)
(0.00101952 -3.1685e-06 0)
(0.00102005 -2.89251e-06 0)
(0.00102054 -2.59046e-06 0)
(0.00102098 -2.25377e-06 0)
(0.00102138 -1.88965e-06 0)
(0.00102172 -1.48485e-06 0)
(0.00102201 -1.05167e-06 0)
(0.00102223 -5.69479e-07 0)
(0.00102239 -5.8957e-08 0)
(0.00102248 5.12341e-07 0)
(0.00102248 1.11003e-06 0)
(0.0010224 1.78601e-06 0)
(0.00102223 2.48338e-06 0)
(0.00102196 3.28441e-06 0)
(0.00102157 4.09525e-06 0)
(0.00102108 5.04736e-06 0)
(0.00102044 5.98675e-06 0)
(0.00101969 7.1246e-06 0)
(0.00101877 8.20861e-06 0)