/*--------------------------------*- C++ -*----------------------------------*\
| =========                 |                                                 |
| \\      /  F ield         | OpenFOAM: The Open Source CFD Toolbox           |
|  \\    /   O peration     | Version:  2312                                  |
|   \\  /    A nd           | Website:  www.openfoam.com                      |
|    \\/     M anipulation  |                                                 |
\*---------------------------------------------------------------------------*/
FoamFile
{
    version     2.0;
    format      ascii;
    arch        "LSB;label=32;scalar=64";
    class       volScalarField;
    location    "144000";
    object      p;
}
// * * * * * * * * * * * * * * * * * * * * * * * * * * * * * * * * * * * * * //

dimensions      [0 2 -2 0 0 0 0];

internalField   nonuniform List<scalar> 
10800
(
5.7655e-07
5.62429e-07
5.48666e-07
5.38094e-07
5.30679e-07
5.25297e-07
5.20857e-07
5.16791e-07
5.1293e-07
5.09282e-07
5.05884e-07
5.0274e-07
4.99817e-07
4.97064e-07
4.94435e-07
4.91897e-07
4.8943e-07
4.87018e-07
4.84652e-07
4.82324e-07
4.80025e-07
4.77747e-07
4.75484e-07
4.7323e-07
4.70981e-07
4.68734e-07
4.66486e-07
4.64233e-07
4.61976e-07
4.59711e-07
4.57437e-07
4.55155e-07
4.52863e-07
4.50561e-07
4.4825e-07
4.45929e-07
4.43598e-07
4.41258e-07
4.3891e-07
4.36554e-07
4.3419e-07
4.31819e-07
4.29441e-07
4.27057e-07
4.24666e-07
4.22267e-07
4.19862e-07
4.17445e-07
4.15023e-07
4.12578e-07
4.10133e-07
4.07637e-07
4.05172e-07
4.02563e-07
4.00117e-07
3.9719e-07
3.95048e-07
3.90862e-07
3.90782e-07
3.8043e-07
5.28495e-07
5.26769e-07
5.24127e-07
5.21007e-07
5.17798e-07
5.14712e-07
5.118e-07
5.09026e-07
5.06339e-07
5.03708e-07
5.01129e-07
4.98606e-07
4.96146e-07
4.93749e-07
4.91409e-07
4.89116e-07
4.86862e-07
4.84639e-07
4.8244e-07
4.80261e-07
4.78098e-07
4.75948e-07
4.73805e-07
4.71668e-07
4.69533e-07
4.67398e-07
4.6526e-07
4.63119e-07
4.60972e-07
4.58818e-07
4.56657e-07
4.54487e-07
4.52309e-07
4.50121e-07
4.47926e-07
4.45719e-07
4.43506e-07
4.41281e-07
4.39051e-07
4.36808e-07
4.34564e-07
4.32303e-07
4.30046e-07
4.27767e-07
4.255e-07
4.23202e-07
4.20928e-07
4.18607e-07
4.16336e-07
4.13989e-07
4.11742e-07
4.0937e-07
4.07201e-07
4.04825e-07
4.02868e-07
4.00557e-07
3.99148e-07
3.96979e-07
3.96723e-07
3.9428e-07
5.19723e-07
5.18974e-07
5.17564e-07
5.15618e-07
5.1334e-07
5.10929e-07
5.0851e-07
5.06133e-07
5.03801e-07
5.01502e-07
4.99227e-07
4.96975e-07
4.94752e-07
4.92562e-07
4.90408e-07
4.88287e-07
4.86196e-07
4.8413e-07
4.82084e-07
4.80054e-07
4.78037e-07
4.76031e-07
4.74033e-07
4.7204e-07
4.70051e-07
4.68063e-07
4.66075e-07
4.64085e-07
4.62093e-07
4.60096e-07
4.58094e-07
4.56087e-07
4.54075e-07
4.52055e-07
4.5003e-07
4.47996e-07
4.45958e-07
4.43911e-07
4.4186e-07
4.39799e-07
4.37737e-07
4.35662e-07
4.33589e-07
4.315e-07
4.29418e-07
4.27315e-07
4.25229e-07
4.23113e-07
4.21029e-07
4.18903e-07
4.16833e-07
4.14703e-07
4.12669e-07
4.10546e-07
4.08585e-07
4.06482e-07
4.04645e-07
4.0257e-07
4.00895e-07
3.98747e-07
5.07952e-07
5.07521e-07
5.06738e-07
5.05652e-07
5.04334e-07
5.02854e-07
5.0127e-07
4.99621e-07
4.97927e-07
4.962e-07
4.94447e-07
4.92672e-07
4.90882e-07
4.89083e-07
4.87281e-07
4.85478e-07
4.83675e-07
4.81874e-07
4.80073e-07
4.78273e-07
4.76473e-07
4.74672e-07
4.72871e-07
4.71068e-07
4.69263e-07
4.67455e-07
4.65644e-07
4.6383e-07
4.62011e-07
4.60189e-07
4.58363e-07
4.56532e-07
4.54696e-07
4.52856e-07
4.51012e-07
4.49163e-07
4.47311e-07
4.45453e-07
4.43593e-07
4.41727e-07
4.39859e-07
4.37984e-07
4.36107e-07
4.34223e-07
4.32337e-07
4.30439e-07
4.28541e-07
4.26627e-07
4.24711e-07
4.22773e-07
4.20835e-07
4.18865e-07
4.16897e-07
4.14888e-07
4.12887e-07
4.10831e-07
4.08792e-07
4.06682e-07
4.046e-07
4.02439e-07
5.01197e-07
5.00985e-07
5.00557e-07
4.99916e-07
4.99078e-07
4.98073e-07
4.96932e-07
4.95687e-07
4.94361e-07
4.92972e-07
4.91533e-07
4.90052e-07
4.88536e-07
4.86993e-07
4.85427e-07
4.83845e-07
4.82249e-07
4.80643e-07
4.79028e-07
4.77405e-07
4.75777e-07
4.74143e-07
4.72505e-07
4.70862e-07
4.69216e-07
4.67566e-07
4.65914e-07
4.64258e-07
4.626e-07
4.6094e-07
4.59278e-07
4.57614e-07
4.55949e-07
4.54283e-07
4.52615e-07
4.50948e-07
4.4928e-07
4.47612e-07
4.45945e-07
4.44277e-07
4.4261e-07
4.40944e-07
4.39277e-07
4.3761e-07
4.35942e-07
4.34273e-07
4.32601e-07
4.30926e-07
4.29245e-07
4.27556e-07
4.25853e-07
4.2413e-07
4.22377e-07
4.20584e-07
4.18732e-07
4.16805e-07
4.14797e-07
4.1272e-07
4.10573e-07
4.0845e-07
4.95614e-07
4.95453e-07
4.95132e-07
4.94652e-07
4.94025e-07
4.93267e-07
4.92395e-07
4.91429e-07
4.90383e-07
4.89269e-07
4.88099e-07
4.8688e-07
4.85618e-07
4.84319e-07
4.82989e-07
4.81632e-07
4.80253e-07
4.78854e-07
4.77439e-07
4.76009e-07
4.74568e-07
4.73116e-07
4.71655e-07
4.70187e-07
4.68712e-07
4.67231e-07
4.65747e-07
4.64258e-07
4.62767e-07
4.61274e-07
4.5978e-07
4.58286e-07
4.56792e-07
4.55299e-07
4.53808e-07
4.52319e-07
4.50832e-07
4.49349e-07
4.4787e-07
4.46394e-07
4.44922e-07
4.43454e-07
4.41989e-07
4.40527e-07
4.39065e-07
4.37604e-07
4.3614e-07
4.34671e-07
4.33194e-07
4.31707e-07
4.30204e-07
4.2869e-07
4.27154e-07
4.25606e-07
4.24017e-07
4.22397e-07
4.20704e-07
4.18963e-07
4.17168e-07
4.15445e-07
4.91193e-07
4.91075e-07
4.9084e-07
4.90489e-07
4.90024e-07
4.89453e-07
4.88786e-07
4.88032e-07
4.87201e-07
4.86303e-07
4.85346e-07
4.84336e-07
4.83279e-07
4.8218e-07
4.81044e-07
4.79876e-07
4.7868e-07
4.77459e-07
4.76216e-07
4.74955e-07
4.73677e-07
4.72386e-07
4.71083e-07
4.6977e-07
4.68449e-07
4.67122e-07
4.6579e-07
4.64454e-07
4.63116e-07
4.61777e-07
4.60439e-07
4.59102e-07
4.57768e-07
4.56438e-07
4.55113e-07
4.53794e-07
4.52481e-07
4.51176e-07
4.4988e-07
4.48593e-07
4.47315e-07
4.46047e-07
4.4479e-07
4.43543e-07
4.42306e-07
4.4108e-07
4.39863e-07
4.38656e-07
4.37452e-07
4.36253e-07
4.35046e-07
4.33826e-07
4.32586e-07
4.31327e-07
4.30041e-07
4.28741e-07
4.27402e-07
4.26049e-07
4.24678e-07
4.23399e-07
4.87656e-07
4.87565e-07
4.87382e-07
4.87107e-07
4.86741e-07
4.86288e-07
4.85753e-07
4.85143e-07
4.84463e-07
4.8372e-07
4.82919e-07
4.82066e-07
4.81166e-07
4.80223e-07
4.79243e-07
4.78228e-07
4.77184e-07
4.76113e-07
4.75019e-07
4.73904e-07
4.72772e-07
4.71624e-07
4.70464e-07
4.69293e-07
4.68114e-07
4.66928e-07
4.65737e-07
4.64544e-07
4.63349e-07
4.62155e-07
4.60963e-07
4.59776e-07
4.58593e-07
4.57418e-07
4.5625e-07
4.55093e-07
4.53947e-07
4.52813e-07
4.51693e-07
4.50588e-07
4.49498e-07
4.48426e-07
4.4737e-07
4.46333e-07
4.45313e-07
4.44311e-07
4.43326e-07
4.4236e-07
4.4141e-07
4.40478e-07
4.39562e-07
4.38664e-07
4.37766e-07
4.36872e-07
4.35971e-07
4.35075e-07
4.34172e-07
4.33288e-07
4.32428e-07
4.31694e-07
4.84797e-07
4.84723e-07
4.84573e-07
4.84349e-07
4.84049e-07
4.83676e-07
4.83233e-07
4.82725e-07
4.82155e-07
4.81528e-07
4.80848e-07
4.80119e-07
4.79345e-07
4.7853e-07
4.77678e-07
4.76793e-07
4.75878e-07
4.74936e-07
4.73971e-07
4.72984e-07
4.71979e-07
4.70959e-07
4.69926e-07
4.68882e-07
4.6783e-07
4.66771e-07
4.65709e-07
4.64645e-07
4.63581e-07
4.62519e-07
4.61462e-07
4.60411e-07
4.59369e-07
4.58336e-07
4.57316e-07
4.5631e-07
4.5532e-07
4.54347e-07
4.53394e-07
4.52462e-07
4.51553e-07
4.5067e-07
4.49812e-07
4.48983e-07
4.48182e-07
4.47413e-07
4.46674e-07
4.45968e-07
4.45296e-07
4.44654e-07
4.4404e-07
4.4346e-07
4.4291e-07
4.42396e-07
4.41908e-07
4.41455e-07
4.41031e-07
4.40658e-07
4.40344e-07
4.40176e-07
4.82492e-07
4.82429e-07
4.82303e-07
4.82113e-07
4.8186e-07
4.81544e-07
4.81167e-07
4.80734e-07
4.80245e-07
4.79706e-07
4.79118e-07
4.78486e-07
4.77811e-07
4.77099e-07
4.76351e-07
4.75571e-07
4.74761e-07
4.73926e-07
4.73067e-07
4.72188e-07
4.7129e-07
4.70378e-07
4.69453e-07
4.68518e-07
4.67575e-07
4.66627e-07
4.65676e-07
4.64725e-07
4.63776e-07
4.6283e-07
4.61892e-07
4.60962e-07
4.60044e-07
4.5914e-07
4.58251e-07
4.57381e-07
4.56531e-07
4.55705e-07
4.54904e-07
4.54131e-07
4.53389e-07
4.5268e-07
4.52006e-07
4.5137e-07
4.50775e-07
4.50222e-07
4.49715e-07
4.49257e-07
4.48844e-07
4.48482e-07
4.48173e-07
4.47922e-07
4.47728e-07
4.47597e-07
4.47525e-07
4.47522e-07
4.47586e-07
4.47737e-07
4.47987e-07
4.48407e-07
4.80653e-07
4.80599e-07
4.80489e-07
4.80324e-07
4.80104e-07
4.79829e-07
4.79501e-07
4.79122e-07
4.78694e-07
4.7822e-07
4.77702e-07
4.77143e-07
4.76546e-07
4.75912e-07
4.75245e-07
4.74548e-07
4.73822e-07
4.73072e-07
4.723e-07
4.71508e-07
4.70698e-07
4.69875e-07
4.69039e-07
4.68195e-07
4.67343e-07
4.66488e-07
4.65631e-07
4.64775e-07
4.63923e-07
4.63077e-07
4.62241e-07
4.61415e-07
4.60604e-07
4.5981e-07
4.59036e-07
4.58284e-07
4.57558e-07
4.5686e-07
4.56194e-07
4.55562e-07
4.54969e-07
4.54416e-07
4.53908e-07
4.53449e-07
4.5304e-07
4.52687e-07
4.52393e-07
4.5216e-07
4.51991e-07
4.51894e-07
4.51872e-07
4.51932e-07
4.52074e-07
4.52307e-07
4.52632e-07
4.5306e-07
4.53594e-07
4.54252e-07
4.55049e-07
4.56041e-07
4.79219e-07
4.7917e-07
4.79073e-07
4.78926e-07
4.78729e-07
4.78483e-07
4.7819e-07
4.7785e-07
4.77466e-07
4.7704e-07
4.76574e-07
4.76069e-07
4.75528e-07
4.74954e-07
4.74349e-07
4.73714e-07
4.73054e-07
4.7237e-07
4.71664e-07
4.7094e-07
4.702e-07
4.69446e-07
4.68681e-07
4.67909e-07
4.6713e-07
4.66349e-07
4.65568e-07
4.64789e-07
4.64015e-07
4.6325e-07
4.62495e-07
4.61754e-07
4.61031e-07
4.60327e-07
4.59647e-07
4.58992e-07
4.58368e-07
4.57777e-07
4.57222e-07
4.56709e-07
4.56239e-07
4.55818e-07
4.55449e-07
4.55138e-07
4.54888e-07
4.54705e-07
4.54591e-07
4.54553e-07
4.54598e-07
4.54733e-07
4.54962e-07
4.55293e-07
4.55732e-07
4.56288e-07
4.56967e-07
4.5778e-07
4.58737e-07
4.59853e-07
4.61147e-07
4.62658e-07
4.78145e-07
4.78101e-07
4.78011e-07
4.77876e-07
4.77696e-07
4.7747e-07
4.77201e-07
4.76888e-07
4.76535e-07
4.76142e-07
4.75711e-07
4.75245e-07
4.74744e-07
4.74212e-07
4.73651e-07
4.73061e-07
4.72447e-07
4.7181e-07
4.71153e-07
4.70479e-07
4.69789e-07
4.69086e-07
4.68374e-07
4.67654e-07
4.66929e-07
4.66202e-07
4.65477e-07
4.64755e-07
4.64039e-07
4.63334e-07
4.62641e-07
4.61963e-07
4.61305e-07
4.60669e-07
4.60059e-07
4.59479e-07
4.58931e-07
4.58421e-07
4.57951e-07
4.57527e-07
4.57152e-07
4.56832e-07
4.56571e-07
4.56374e-07
4.56248e-07
4.56195e-07
4.56224e-07
4.56342e-07
4.56556e-07
4.56873e-07
4.57302e-07
4.5785e-07
4.58526e-07
4.59342e-07
4.60307e-07
4.61434e-07
4.62736e-07
4.64228e-07
4.65929e-07
4.67868e-07
4.77402e-07
4.7736e-07
4.77276e-07
4.77148e-07
4.76978e-07
4.76764e-07
4.76509e-07
4.76214e-07
4.75879e-07
4.75507e-07
4.75099e-07
4.74656e-07
4.74181e-07
4.73675e-07
4.73141e-07
4.7258e-07
4.71995e-07
4.71388e-07
4.70762e-07
4.70118e-07
4.6946e-07
4.6879e-07
4.6811e-07
4.67424e-07
4.66733e-07
4.66042e-07
4.65351e-07
4.64665e-07
4.63987e-07
4.63319e-07
4.62665e-07
4.62028e-07
4.61412e-07
4.60819e-07
4.60254e-07
4.59721e-07
4.59223e-07
4.58764e-07
4.5835e-07
4.57984e-07
4.57671e-07
4.57417e-07
4.57227e-07
4.57105e-07
4.57057e-07
4.57092e-07
4.57217e-07
4.57439e-07
4.57765e-07
4.58205e-07
4.58767e-07
4.59462e-07
4.603e-07
4.61294e-07
4.62456e-07
4.63799e-07
4.65339e-07
4.67092e-07
4.69079e-07
4.71318e-07
4.76971e-07
4.7693e-07
4.76848e-07
4.76724e-07
4.76558e-07
4.7635e-07
4.76102e-07
4.75814e-07
4.75487e-07
4.75124e-07
4.74726e-07
4.74294e-07
4.73829e-07
4.73335e-07
4.72813e-07
4.72264e-07
4.71692e-07
4.71098e-07
4.70485e-07
4.69855e-07
4.69211e-07
4.68554e-07
4.67888e-07
4.67216e-07
4.66539e-07
4.65862e-07
4.65186e-07
4.64515e-07
4.63852e-07
4.632e-07
4.62562e-07
4.61941e-07
4.61341e-07
4.60766e-07
4.60219e-07
4.59705e-07
4.59227e-07
4.58789e-07
4.58397e-07
4.58055e-07
4.57767e-07
4.57539e-07
4.57378e-07
4.57287e-07
4.57276e-07
4.57349e-07
4.57515e-07
4.57781e-07
4.58156e-07
4.58649e-07
4.59271e-07
4.60032e-07
4.60943e-07
4.62018e-07
4.6327e-07
4.64713e-07
4.66365e-07
4.68241e-07
4.70363e-07
4.72745e-07
4.76845e-07
4.76804e-07
4.76722e-07
4.76597e-07
4.7643e-07
4.76221e-07
4.75971e-07
4.75682e-07
4.75354e-07
4.74989e-07
4.74588e-07
4.74153e-07
4.73687e-07
4.7319e-07
4.72664e-07
4.72113e-07
4.71537e-07
4.70939e-07
4.70322e-07
4.69688e-07
4.69039e-07
4.68377e-07
4.67706e-07
4.67028e-07
4.66346e-07
4.65663e-07
4.6498e-07
4.64303e-07
4.63632e-07
4.62973e-07
4.62327e-07
4.61698e-07
4.61089e-07
4.60505e-07
4.59949e-07
4.59425e-07
4.58936e-07
4.58488e-07
4.58084e-07
4.5773e-07
4.5743e-07
4.57189e-07
4.57015e-07
4.56911e-07
4.56885e-07
4.56944e-07
4.57094e-07
4.5734e-07
4.57696e-07
4.5817e-07
4.58772e-07
4.59512e-07
4.60402e-07
4.61453e-07
4.62681e-07
4.64099e-07
4.65725e-07
4.67572e-07
4.69665e-07
4.72016e-07
4.77024e-07
4.76981e-07
4.76896e-07
4.76766e-07
4.76593e-07
4.76377e-07
4.76119e-07
4.75819e-07
4.75479e-07
4.75101e-07
4.74687e-07
4.74237e-07
4.73754e-07
4.7324e-07
4.72697e-07
4.72126e-07
4.71531e-07
4.70913e-07
4.70274e-07
4.69618e-07
4.68946e-07
4.68262e-07
4.67567e-07
4.66864e-07
4.66156e-07
4.65446e-07
4.64736e-07
4.64031e-07
4.63331e-07
4.62641e-07
4.61964e-07
4.61302e-07
4.6066e-07
4.6004e-07
4.59447e-07
4.58884e-07
4.58355e-07
4.57864e-07
4.57415e-07
4.57014e-07
4.56664e-07
4.56371e-07
4.56139e-07
4.55975e-07
4.55884e-07
4.55871e-07
4.55945e-07
4.56116e-07
4.56389e-07
4.56773e-07
4.57276e-07
4.57909e-07
4.58682e-07
4.59607e-07
4.60697e-07
4.61964e-07
4.63425e-07
4.65094e-07
4.66994e-07
4.69144e-07
4.77519e-07
4.77474e-07
4.77383e-07
4.77245e-07
4.7706e-07
4.7683e-07
4.76554e-07
4.76235e-07
4.75873e-07
4.75471e-07
4.7503e-07
4.74552e-07
4.74039e-07
4.73493e-07
4.72917e-07
4.72311e-07
4.7168e-07
4.71024e-07
4.70347e-07
4.69651e-07
4.68939e-07
4.68212e-07
4.67474e-07
4.66727e-07
4.65974e-07
4.65218e-07
4.6446e-07
4.63705e-07
4.62955e-07
4.62212e-07
4.6148e-07
4.60763e-07
4.60062e-07
4.59381e-07
4.58725e-07
4.58095e-07
4.57497e-07
4.56933e-07
4.56407e-07
4.55924e-07
4.55488e-07
4.55103e-07
4.54775e-07
4.54508e-07
4.54307e-07
4.54178e-07
4.54127e-07
4.54161e-07
4.54287e-07
4.54511e-07
4.54842e-07
4.55288e-07
4.55857e-07
4.5656e-07
4.57408e-07
4.5841e-07
4.59581e-07
4.60935e-07
4.62495e-07
4.6429e-07
4.78353e-07
4.78303e-07
4.78203e-07
4.78052e-07
4.77849e-07
4.77597e-07
4.77295e-07
4.76946e-07
4.76551e-07
4.76112e-07
4.75631e-07
4.75111e-07
4.74553e-07
4.73959e-07
4.73333e-07
4.72677e-07
4.71992e-07
4.71282e-07
4.70549e-07
4.69795e-07
4.69024e-07
4.68237e-07
4.67437e-07
4.66627e-07
4.6581e-07
4.64987e-07
4.64162e-07
4.63337e-07
4.62515e-07
4.61698e-07
4.60891e-07
4.60094e-07
4.59312e-07
4.58546e-07
4.57801e-07
4.5708e-07
4.56384e-07
4.55719e-07
4.55087e-07
4.54493e-07
4.53938e-07
4.53429e-07
4.52968e-07
4.52559e-07
4.52208e-07
4.51918e-07
4.51695e-07
4.51542e-07
4.51466e-07
4.51473e-07
4.51569e-07
4.51759e-07
4.52051e-07
4.52453e-07
4.5297e-07
4.53613e-07
4.54391e-07
4.55321e-07
4.56421e-07
4.57736e-07
4.79556e-07
4.795e-07
4.79388e-07
4.79218e-07
4.78991e-07
4.78707e-07
4.78368e-07
4.77977e-07
4.77535e-07
4.77045e-07
4.76509e-07
4.7593e-07
4.7531e-07
4.74653e-07
4.7396e-07
4.73234e-07
4.72479e-07
4.71696e-07
4.70889e-07
4.70059e-07
4.69211e-07
4.68345e-07
4.67465e-07
4.66574e-07
4.65673e-07
4.64765e-07
4.63853e-07
4.62939e-07
4.62025e-07
4.61115e-07
4.60211e-07
4.59315e-07
4.58429e-07
4.57558e-07
4.56702e-07
4.55865e-07
4.55049e-07
4.54258e-07
4.53494e-07
4.52761e-07
4.5206e-07
4.51396e-07
4.50771e-07
4.5019e-07
4.49654e-07
4.49168e-07
4.48735e-07
4.48357e-07
4.48038e-07
4.47781e-07
4.47592e-07
4.47475e-07
4.47434e-07
4.47474e-07
4.47597e-07
4.47813e-07
4.48125e-07
4.48551e-07
4.49109e-07
4.49858e-07
4.81177e-07
4.81113e-07
4.80983e-07
4.80787e-07
4.80525e-07
4.80198e-07
4.7981e-07
4.79361e-07
4.78856e-07
4.78297e-07
4.77688e-07
4.77032e-07
4.76331e-07
4.7559e-07
4.74811e-07
4.73997e-07
4.73151e-07
4.72277e-07
4.71376e-07
4.70453e-07
4.69508e-07
4.68546e-07
4.67567e-07
4.66576e-07
4.65574e-07
4.64563e-07
4.63546e-07
4.62525e-07
4.61503e-07
4.60481e-07
4.59461e-07
4.58447e-07
4.5744e-07
4.56442e-07
4.55456e-07
4.54484e-07
4.53528e-07
4.5259e-07
4.51673e-07
4.50778e-07
4.49909e-07
4.49066e-07
4.48253e-07
4.47473e-07
4.46725e-07
4.46015e-07
4.45342e-07
4.44711e-07
4.44119e-07
4.4357e-07
4.43064e-07
4.42605e-07
4.42194e-07
4.41835e-07
4.41525e-07
4.41272e-07
4.41076e-07
4.40955e-07
4.40925e-07
4.41061e-07
4.83279e-07
4.83203e-07
4.83049e-07
4.82817e-07
4.82508e-07
4.82123e-07
4.81666e-07
4.81141e-07
4.80551e-07
4.79902e-07
4.79197e-07
4.78441e-07
4.77637e-07
4.76789e-07
4.75902e-07
4.74978e-07
4.74021e-07
4.73034e-07
4.72021e-07
4.70983e-07
4.69924e-07
4.68846e-07
4.67751e-07
4.66642e-07
4.65522e-07
4.64391e-07
4.63252e-07
4.62108e-07
4.6096e-07
4.5981e-07
4.58659e-07
4.57511e-07
4.56366e-07
4.55226e-07
4.54094e-07
4.5297e-07
4.51857e-07
4.50756e-07
4.49669e-07
4.48597e-07
4.47542e-07
4.46506e-07
4.45488e-07
4.44492e-07
4.43518e-07
4.42568e-07
4.41641e-07
4.4074e-07
4.39861e-07
4.39006e-07
4.38166e-07
4.3735e-07
4.36554e-07
4.35782e-07
4.35024e-07
4.3429e-07
4.33572e-07
4.32892e-07
4.32264e-07
4.31776e-07
4.85952e-07
4.85859e-07
4.85671e-07
4.85388e-07
4.85011e-07
4.84545e-07
4.83994e-07
4.83365e-07
4.82663e-07
4.81896e-07
4.81067e-07
4.80183e-07
4.79249e-07
4.7827e-07
4.77249e-07
4.76192e-07
4.75101e-07
4.7398e-07
4.72832e-07
4.7166e-07
4.70467e-07
4.69255e-07
4.68026e-07
4.66782e-07
4.65526e-07
4.64259e-07
4.62983e-07
4.617e-07
4.60411e-07
4.59118e-07
4.57822e-07
4.56525e-07
4.55228e-07
4.53932e-07
4.52639e-07
4.51351e-07
4.50067e-07
4.4879e-07
4.47519e-07
4.46258e-07
4.45005e-07
4.43761e-07
4.42528e-07
4.41305e-07
4.40092e-07
4.38889e-07
4.37693e-07
4.36507e-07
4.35327e-07
4.34156e-07
4.32993e-07
4.31833e-07
4.30664e-07
4.29488e-07
4.28295e-07
4.27091e-07
4.25866e-07
4.24646e-07
4.23442e-07
4.22359e-07
4.89322e-07
4.89202e-07
4.88961e-07
4.88601e-07
4.88125e-07
4.8754e-07
4.86855e-07
4.86081e-07
4.85226e-07
4.84301e-07
4.83314e-07
4.8227e-07
4.81176e-07
4.80037e-07
4.78858e-07
4.77642e-07
4.76395e-07
4.75119e-07
4.73818e-07
4.72494e-07
4.7115e-07
4.69788e-07
4.6841e-07
4.67018e-07
4.65613e-07
4.64197e-07
4.62771e-07
4.61337e-07
4.59895e-07
4.58447e-07
4.56995e-07
4.55538e-07
4.54079e-07
4.52617e-07
4.51154e-07
4.49691e-07
4.48227e-07
4.46765e-07
4.45305e-07
4.43846e-07
4.42389e-07
4.40934e-07
4.39482e-07
4.38032e-07
4.36582e-07
4.35135e-07
4.33687e-07
4.32239e-07
4.30786e-07
4.29327e-07
4.27851e-07
4.26356e-07
4.24828e-07
4.23268e-07
4.21666e-07
4.20033e-07
4.18349e-07
4.16638e-07
4.14901e-07
4.13252e-07
4.93597e-07
4.93433e-07
4.93105e-07
4.92616e-07
4.91977e-07
4.91203e-07
4.90313e-07
4.89324e-07
4.88252e-07
4.8711e-07
4.85908e-07
4.84653e-07
4.83352e-07
4.8201e-07
4.80633e-07
4.79226e-07
4.77792e-07
4.76334e-07
4.74857e-07
4.7336e-07
4.71848e-07
4.7032e-07
4.68779e-07
4.67225e-07
4.6566e-07
4.64084e-07
4.62499e-07
4.60905e-07
4.59303e-07
4.57693e-07
4.56076e-07
4.54452e-07
4.52823e-07
4.51188e-07
4.49549e-07
4.47905e-07
4.46256e-07
4.44604e-07
4.42947e-07
4.41287e-07
4.39623e-07
4.37954e-07
4.3628e-07
4.34601e-07
4.32913e-07
4.31217e-07
4.29508e-07
4.27786e-07
4.26044e-07
4.24282e-07
4.22493e-07
4.20679e-07
4.18832e-07
4.16958e-07
4.15032e-07
4.13059e-07
4.11007e-07
4.08897e-07
4.06724e-07
4.04613e-07
4.99058e-07
4.98842e-07
4.98408e-07
4.97758e-07
4.96907e-07
4.95885e-07
4.94725e-07
4.93456e-07
4.92103e-07
4.90684e-07
4.89211e-07
4.87692e-07
4.86135e-07
4.84546e-07
4.82932e-07
4.81296e-07
4.79642e-07
4.77974e-07
4.76293e-07
4.746e-07
4.72897e-07
4.71183e-07
4.69459e-07
4.67727e-07
4.65985e-07
4.64235e-07
4.62476e-07
4.60709e-07
4.58933e-07
4.57148e-07
4.55356e-07
4.53555e-07
4.51746e-07
4.49929e-07
4.48105e-07
4.46272e-07
4.44432e-07
4.42584e-07
4.40729e-07
4.38865e-07
4.36994e-07
4.35114e-07
4.33225e-07
4.31327e-07
4.29419e-07
4.27499e-07
4.25567e-07
4.23621e-07
4.21659e-07
4.19678e-07
4.17673e-07
4.15637e-07
4.13561e-07
4.11432e-07
4.09234e-07
4.06953e-07
4.04578e-07
4.02117e-07
3.99574e-07
3.97046e-07
5.05706e-07
5.05272e-07
5.04482e-07
5.03387e-07
5.02056e-07
5.00559e-07
4.98955e-07
4.97281e-07
4.95561e-07
4.93803e-07
4.92014e-07
4.902e-07
4.88368e-07
4.86523e-07
4.84669e-07
4.82811e-07
4.8095e-07
4.79084e-07
4.77216e-07
4.75343e-07
4.73465e-07
4.71582e-07
4.69692e-07
4.67796e-07
4.65892e-07
4.63979e-07
4.62058e-07
4.60127e-07
4.58186e-07
4.56234e-07
4.54271e-07
4.52297e-07
4.50312e-07
4.48314e-07
4.46305e-07
4.44283e-07
4.4225e-07
4.40204e-07
4.38146e-07
4.36074e-07
4.33992e-07
4.31894e-07
4.29785e-07
4.27659e-07
4.25522e-07
4.23364e-07
4.21196e-07
4.19001e-07
4.16795e-07
4.14556e-07
4.12306e-07
4.10012e-07
4.07709e-07
4.05351e-07
4.0299e-07
4.00559e-07
3.98133e-07
3.95621e-07
3.93131e-07
3.90558e-07
5.17408e-07
5.16656e-07
5.15239e-07
5.13281e-07
5.1099e-07
5.08561e-07
5.06121e-07
5.03719e-07
5.01358e-07
4.99027e-07
4.96716e-07
4.94424e-07
4.92157e-07
4.8992e-07
4.87714e-07
4.85537e-07
4.83386e-07
4.81255e-07
4.79139e-07
4.77035e-07
4.74939e-07
4.72848e-07
4.7076e-07
4.68672e-07
4.66582e-07
4.64487e-07
4.62385e-07
4.60276e-07
4.58156e-07
4.56026e-07
4.53884e-07
4.51728e-07
4.4956e-07
4.47377e-07
4.45181e-07
4.42968e-07
4.40742e-07
4.38499e-07
4.36243e-07
4.33968e-07
4.31683e-07
4.29376e-07
4.27061e-07
4.24721e-07
4.22378e-07
4.20004e-07
4.17636e-07
4.15228e-07
4.12842e-07
4.10402e-07
4.08008e-07
4.05542e-07
4.03163e-07
4.00682e-07
3.98354e-07
3.95872e-07
3.93648e-07
3.91172e-07
3.89093e-07
3.8653e-07
5.2612e-07
5.24391e-07
5.21743e-07
5.18612e-07
5.15389e-07
5.12286e-07
5.09353e-07
5.06554e-07
5.03838e-07
5.01176e-07
4.98561e-07
4.95998e-07
4.93495e-07
4.91051e-07
4.88659e-07
4.86311e-07
4.83997e-07
4.81709e-07
4.79441e-07
4.77188e-07
4.74946e-07
4.72711e-07
4.70479e-07
4.68245e-07
4.66008e-07
4.63765e-07
4.61513e-07
4.59249e-07
4.56973e-07
4.54683e-07
4.52378e-07
4.50057e-07
4.47719e-07
4.45364e-07
4.42992e-07
4.406e-07
4.38193e-07
4.35766e-07
4.33325e-07
4.30861e-07
4.28387e-07
4.25887e-07
4.23381e-07
4.20844e-07
4.18308e-07
4.15732e-07
4.1317e-07
4.1055e-07
4.0797e-07
4.05303e-07
4.02724e-07
4.00011e-07
3.97487e-07
3.94746e-07
3.92413e-07
3.89713e-07
3.87906e-07
3.85325e-07
3.84657e-07
3.81783e-07
5.74152e-07
5.60028e-07
5.46257e-07
5.35674e-07
5.28244e-07
5.22844e-07
5.18383e-07
5.14291e-07
5.10402e-07
5.06722e-07
5.03288e-07
5.00104e-07
4.97138e-07
4.94338e-07
4.91658e-07
4.89066e-07
4.86538e-07
4.84063e-07
4.81629e-07
4.79227e-07
4.7685e-07
4.74488e-07
4.72135e-07
4.69786e-07
4.67435e-07
4.6508e-07
4.62716e-07
4.60342e-07
4.57954e-07
4.55552e-07
4.53134e-07
4.50699e-07
4.48246e-07
4.45774e-07
4.43284e-07
4.40775e-07
4.38248e-07
4.35703e-07
4.3314e-07
4.3056e-07
4.27963e-07
4.25349e-07
4.22718e-07
4.20071e-07
4.17408e-07
4.14726e-07
4.12028e-07
4.09308e-07
4.06571e-07
4.03802e-07
4.01021e-07
3.98178e-07
3.95352e-07
3.92374e-07
3.89542e-07
3.86222e-07
3.83669e-07
3.79064e-07
3.78555e-07
3.67724e-07
4.207e-07
3.70894e-07
3.50667e-07
3.33969e-07
3.17304e-07
3.00637e-07
2.81933e-07
2.62003e-07
2.38546e-07
2.13316e-07
1.83724e-07
1.52734e-07
1.17226e-07
8.15456e-08
4.17987e-08
3.82208e-09
-3.76966e-08
-7.52911e-08
-1.16261e-07
-1.5115e-07
-1.89778e-07
-2.20603e-07
-2.55982e-07
-2.817e-07
-3.1413e-07
-3.32683e-07
-3.66243e-07
-3.7287e-07
-4.13747e-07
-5.2212e-07
4.07092e-07
3.52895e-07
3.39652e-07
3.25561e-07
3.09586e-07
2.93304e-07
2.74877e-07
2.55062e-07
2.3176e-07
2.06842e-07
1.77831e-07
1.47643e-07
1.13255e-07
7.88472e-08
4.05879e-08
4.05569e-09
-3.56796e-08
-7.17248e-08
-1.10733e-07
-1.44544e-07
-1.81533e-07
-2.1151e-07
-2.4626e-07
-2.70987e-07
-3.0361e-07
-3.22207e-07
-3.52383e-07
-3.71699e-07
-3.83955e-07
-5.41103e-07
3.95124e-07
3.50629e-07
3.38398e-07
3.2479e-07
3.08308e-07
2.91056e-07
2.7211e-07
2.5195e-07
2.28584e-07
2.03526e-07
1.74731e-07
1.44628e-07
1.10781e-07
7.67241e-08
3.93562e-08
3.44032e-09
-3.52602e-08
-7.08941e-08
-1.09262e-07
-1.42609e-07
-1.79132e-07
-2.08751e-07
-2.42307e-07
-2.68469e-07
-2.98154e-07
-3.22718e-07
-3.46603e-07
-3.80358e-07
-3.67444e-07
-4.77446e-07
3.85185e-07
3.46831e-07
3.32552e-07
3.19491e-07
3.03703e-07
2.87031e-07
2.68241e-07
2.47891e-07
2.24551e-07
1.99316e-07
1.70816e-07
1.40713e-07
1.07594e-07
7.37428e-08
3.75783e-08
1.90832e-09
-3.52324e-08
-7.07177e-08
-1.06848e-07
-1.40596e-07
-1.7416e-07
-2.05819e-07
-2.35996e-07
-2.65581e-07
-2.90648e-07
-3.21414e-07
-3.35188e-07
-3.78938e-07
-3.60535e-07
-4.36077e-07
3.75618e-07
3.44501e-07
3.29357e-07
3.17419e-07
3.02178e-07
2.84717e-07
2.65407e-07
2.44482e-07
2.21084e-07
1.95424e-07
1.67151e-07
1.36767e-07
1.04325e-07
7.03808e-08
3.54109e-08
-2.71205e-10
-3.57231e-08
-7.13145e-08
-1.05339e-07
-1.39761e-07
-1.70988e-07
-2.04048e-07
-2.31028e-07
-2.63433e-07
-2.84059e-07
-3.1845e-07
-3.28427e-07
-3.69613e-07
-3.64388e-07
-4.06086e-07
3.67277e-07
3.43024e-07
3.27094e-07
3.14687e-07
2.99705e-07
2.82134e-07
2.62627e-07
2.41194e-07
2.17657e-07
1.91546e-07
1.63379e-07
1.32665e-07
1.00743e-07
6.66621e-08
3.27146e-08
-2.97511e-09
-3.69005e-08
-7.25573e-08
-1.04689e-07
-1.39436e-07
-1.68504e-07
-2.02167e-07
-2.27086e-07
-2.60197e-07
-2.79577e-07
-3.13015e-07
-3.25888e-07
-3.58796e-07
-3.68656e-07
-3.91525e-07
3.60511e-07
3.41761e-07
3.25779e-07
3.12491e-07
2.97609e-07
2.79961e-07
2.602e-07
2.38181e-07
2.14328e-07
1.8772e-07
1.59478e-07
1.28446e-07
9.68073e-08
6.26837e-08
2.94484e-08
-6.01268e-09
-3.88528e-08
-7.41133e-08
-1.04998e-07
-1.39216e-07
-1.67201e-07
-2.0012e-07
-2.24704e-07
-2.56352e-07
-2.77234e-07
-3.07093e-07
-3.2497e-07
-3.50963e-07
-3.68173e-07
-3.86503e-07
3.55555e-07
3.406e-07
3.25145e-07
3.10893e-07
2.95763e-07
2.77945e-07
2.57865e-07
2.35272e-07
2.10941e-07
1.83856e-07
1.55344e-07
1.24084e-07
9.24677e-08
5.84734e-08
2.56006e-08
-9.32662e-09
-4.1569e-08
-7.59268e-08
-1.06232e-07
-1.39178e-07
-1.66985e-07
-1.98187e-07
-2.23492e-07
-2.52679e-07
-2.75739e-07
-3.02193e-07
-3.23597e-07
-3.46165e-07
-3.65908e-07
-3.83543e-07
3.5248e-07
3.39531e-07
3.2475e-07
3.09856e-07
2.94172e-07
2.76012e-07
2.55516e-07
2.32378e-07
2.07445e-07
1.79897e-07
1.50953e-07
1.19536e-07
8.7736e-08
5.40018e-08
2.12293e-08
-1.29588e-08
-4.493e-08
-7.80947e-08
-1.08178e-07
-1.39538e-07
-1.67446e-07
-1.96747e-07
-2.22681e-07
-2.49788e-07
-2.74057e-07
-2.98681e-07
-3.21305e-07
-3.43067e-07
-3.63239e-07
-3.81571e-07
3.51027e-07
3.38635e-07
3.24443e-07
3.09178e-07
2.92784e-07
2.74096e-07
2.53061e-07
2.29385e-07
2.03776e-07
1.75759e-07
1.4628e-07
1.14722e-07
8.26348e-08
4.91982e-08
1.6416e-08
-1.69895e-08
-4.87742e-08
-8.07307e-08
-1.10586e-07
-1.40453e-07
-1.68245e-07
-1.9597e-07
-2.21971e-07
-2.47695e-07
-2.72142e-07
-2.9591e-07
-3.18652e-07
-3.40292e-07
-3.60716e-07
-3.7968e-07
3.50706e-07
3.38061e-07
3.24079e-07
3.0857e-07
2.91463e-07
2.72112e-07
2.50418e-07
2.26172e-07
1.99861e-07
1.71346e-07
1.41293e-07
1.09558e-07
7.71701e-08
4.39867e-08
1.12134e-08
-2.14881e-08
-5.30027e-08
-8.39002e-08
-1.13334e-07
-1.41963e-07
-1.69287e-07
-1.95808e-07
-2.21365e-07
-2.46134e-07
-2.70203e-07
-2.93429e-07
-3.15978e-07
-3.37564e-07
-3.58242e-07
-3.77664e-07
3.50927e-07
3.37839e-07
3.23691e-07
3.07836e-07
2.9003e-07
2.69947e-07
2.47511e-07
2.22638e-07
1.95615e-07
1.66561e-07
1.35932e-07
1.03962e-07
7.13042e-08
3.82981e-08
5.60636e-09
-2.65056e-08
-5.76233e-08
-8.76227e-08
-1.16443e-07
-1.44031e-07
-1.70638e-07
-1.96151e-07
-2.20997e-07
-2.44941e-07
-2.68426e-07
-2.91122e-07
-3.1337e-07
-3.34815e-07
-3.55628e-07
-3.75395e-07
3.51297e-07
3.37818e-07
3.23231e-07
3.06851e-07
2.88327e-07
2.67482e-07
2.44259e-07
2.18692e-07
1.90944e-07
1.61303e-07
1.30108e-07
9.78437e-08
6.495e-08
3.20539e-08
-4.90229e-10
-3.21009e-08
-6.2725e-08
-9.19283e-08
-1.20015e-07
-1.46654e-07
-1.72416e-07
-1.9697e-07
-2.20996e-07
-2.44092e-07
-2.66919e-07
-2.88984e-07
-3.10873e-07
-3.31999e-07
-3.52865e-07
-3.72707e-07
3.51572e-07
3.37785e-07
3.22611e-07
3.05555e-07
2.86266e-07
2.64629e-07
2.40584e-07
2.1425e-07
1.85743e-07
1.55462e-07
1.23697e-07
9.10868e-08
5.79784e-08
2.51413e-08
-7.21085e-09
-3.83717e-08
-6.84425e-08
-9.68945e-08
-1.24177e-07
-1.49894e-07
-1.74735e-07
-1.98325e-07
-2.21447e-07
-2.43654e-07
-2.65722e-07
-2.87085e-07
-3.08476e-07
-3.29185e-07
-3.49895e-07
-3.6967e-07
3.51669e-07
3.3755e-07
3.21746e-07
3.03933e-07
2.83819e-07
2.61329e-07
2.36401e-07
2.09214e-07
1.79891e-07
1.48903e-07
1.16545e-07
8.35403e-08
5.02202e-08
1.7407e-08
-1.47271e-08
-4.54582e-08
-7.49351e-08
-1.02641e-07
-1.29069e-07
-1.53851e-07
-1.77708e-07
-2.00298e-07
-2.22433e-07
-2.43691e-07
-2.64892e-07
-2.85463e-07
-3.06222e-07
-3.26387e-07
-3.46777e-07
-3.66288e-07
3.51654e-07
3.37081e-07
3.20628e-07
3.02007e-07
2.80987e-07
2.57535e-07
2.31617e-07
2.03463e-07
1.73236e-07
1.41458e-07
1.08464e-07
7.50151e-08
4.14736e-08
8.66368e-09
-2.3232e-08
-5.35282e-08
-8.23707e-08
-1.09309e-07
-1.34827e-07
-1.58638e-07
-1.81439e-07
-2.02979e-07
-2.2403e-07
-2.44269e-07
-2.64471e-07
-2.84167e-07
-3.04122e-07
-3.23645e-07
-3.43514e-07
-3.6264e-07
3.51713e-07
3.36466e-07
3.19303e-07
2.99805e-07
2.77751e-07
2.53172e-07
2.26103e-07
1.96832e-07
1.65585e-07
1.32919e-07
9.92277e-08
6.52883e-08
3.15129e-08
-1.29611e-09
-3.29267e-08
-6.27561e-08
-9.09147e-08
-1.17034e-07
-1.41583e-07
-1.64358e-07
-1.86034e-07
-2.06442e-07
-2.26319e-07
-2.45441e-07
-2.6452e-07
-2.83223e-07
-3.02211e-07
-3.20971e-07
-3.40117e-07
-3.58761e-07
3.52101e-07
3.3588e-07
3.17823e-07
2.97281e-07
2.73997e-07
2.48071e-07
2.19649e-07
1.89087e-07
1.56682e-07
1.23025e-07
8.85715e-08
5.41057e-08
2.00943e-08
-1.26935e-08
-4.40159e-08
-7.33213e-08
-1.0073e-07
-1.25956e-07
-1.49466e-07
-1.71123e-07
-1.91601e-07
-2.1078e-07
-2.294e-07
-2.47278e-07
-2.65131e-07
-2.82678e-07
-3.00564e-07
-3.1837e-07
-3.36635e-07
-3.54611e-07
3.52934e-07
3.35429e-07
3.16139e-07
2.94239e-07
2.69448e-07
2.41931e-07
2.1194e-07
1.79904e-07
1.46202e-07
1.11453e-07
7.61816e-08
4.11724e-08
6.94209e-09
-2.57802e-08
-5.67309e-08
-8.54347e-08
-1.1201e-07
-1.36253e-07
-1.58638e-07
-1.79086e-07
-1.98285e-07
-2.16131e-07
-2.33406e-07
-2.49908e-07
-2.66426e-07
-2.82639e-07
-2.99275e-07
-3.159e-07
-3.33087e-07
-3.50156e-07
3.53968e-07
3.34906e-07
3.13913e-07
2.9024e-07
2.63639e-07
2.34291e-07
2.02527e-07
1.68843e-07
1.33709e-07
9.77827e-08
6.16549e-08
2.61078e-08
-8.30126e-09
-4.08911e-08
-7.13862e-08
-9.93944e-08
-1.25035e-07
-1.48195e-07
-1.69346e-07
-1.88484e-07
-2.06295e-07
-2.22703e-07
-2.38521e-07
-2.53509e-07
-2.68572e-07
-2.83253e-07
-2.98494e-07
-3.13636e-07
-3.29547e-07
-3.45298e-07
3.54435e-07
3.3356e-07
3.10518e-07
2.84721e-07
2.55998e-07
2.2456e-07
1.90809e-07
1.55305e-07
1.18615e-07
8.14384e-08
4.44351e-08
8.37978e-09
-2.614e-08
-5.85024e-08
-8.84306e-08
-1.15627e-07
-1.40211e-07
-1.62168e-07
-1.8195e-07