/*--------------------------------*- C++ -*----------------------------------*\
| =========                 |                                                 |
| \\      /  F ield         | OpenFOAM: The Open Source CFD Toolbox           |
|  \\    /   O peration     | Version:  2312                                  |
|   \\  /    A nd           | Website:  www.openfoam.com                      |
|    \\/     M anipulation  |                                                 |
\*---------------------------------------------------------------------------*/
FoamFile
{
    version     2.0;
    format      ascii;
    arch        "LSB;label=32;scalar=64";
    class       volVectorField;
    location    "144000";
    object      U;
}
// * * * * * * * * * * * * * * * * * * * * * * * * * * * * * * * * * * * * * //

dimensions      [0 1 -1 0 0 0 0];

internalField   nonuniform List<vector> 
10800
(
(0.000992484 4.94292e-06 0)
(0.000990036 1.24606e-05 0)
(0.000986867 1.74836e-05 0)
(0.00098049 2.06688e-05 0)
(0.000971072 2.27531e-05 0)
(0.000959775 2.42477e-05 0)
(0.000947668 2.53875e-05 0)
(0.000935283 2.62473e-05 0)
(0.000922766 2.68512e-05 0)
(0.000910093 2.72245e-05 0)
(0.000897221 2.74047e-05 0)
(0.000884146 2.74348e-05 0)
(0.000870904 2.73527e-05 0)
(0.000857551 2.71865e-05 0)
(0.000844139 2.69544e-05 0)
(0.000830706 2.6668e-05 0)
(0.000817278 2.63354e-05 0)
(0.000803874 2.59632e-05 0)
(0.000790509 2.55568e-05 0)
(0.000777198 2.51213e-05 0)
(0.000763957 2.46602e-05 0)
(0.000750801 2.4177e-05 0)
(0.000737745 2.36735e-05 0)
(0.000724802 2.31519e-05 0)
(0.000711986 2.26129e-05 0)
(0.000699309 2.20583e-05 0)
(0.000686785 2.14881e-05 0)
(0.000674425 2.09039e-05 0)
(0.000662242 2.03052e-05 0)
(0.000650248 1.96939e-05 0)
(0.000638457 1.90684e-05 0)
(0.000626878 1.84316e-05 0)
(0.000615528 1.77808e-05 0)
(0.000604414 1.71202e-05 0)
(0.000593554 1.64453e-05 0)
(0.000582954 1.57628e-05 0)
(0.000572634 1.5065e-05 0)
(0.000562595 1.4363e-05 0)
(0.000552865 1.36438e-05 0)
(0.000543434 1.29255e-05 0)
(0.000534344 1.21861e-05 0)
(0.000525565 1.14559e-05 0)
(0.000517168 1.06969e-05 0)
(0.000509077 9.96032e-06 0)
(0.000501434 9.18083e-06 0)
(0.000494052 8.44479e-06 0)
(0.000487248 7.64064e-06 0)
(0.000480551 6.91177e-06 0)
(0.000474748 6.0741e-06 0)
(0.000468589 5.3504e-06 0)
(0.000464173 4.47124e-06 0)
(0.000458037 3.70438e-06 0)
(0.000456073 2.82416e-06 0)
(0.000448306 1.76271e-06 0)
(0.000451947 1.21235e-06 0)
(0.00043745 -1.21147e-06 0)
(0.000456008 1.94819e-07 0)
(0.000419861 -7.65457e-06 0)
(0.000478384 2.13587e-06 0)
(0.000383453 -2.43586e-05 0)
(0.00100003 5.80602e-06 0)
(0.00100172 1.50032e-05 0)
(0.00100422 2.15397e-05 0)
(0.00100705 2.61077e-05 0)
(0.00100977 2.94698e-05 0)
(0.00101217 3.21544e-05 0)
(0.00101418 3.4409e-05 0)
(0.00101585 3.63201e-05 0)
(0.00101721 3.79203e-05 0)
(0.00101832 3.92402e-05 0)
(0.00101916 4.03212e-05 0)
(0.00101974 4.1209e-05 0)
(0.00102005 4.19442e-05 0)
(0.0010201 4.25569e-05 0)
(0.0010199 4.30671e-05 0)
(0.00101946 4.34875e-05 0)
(0.0010188 4.38267e-05 0)
(0.00101793 4.40916e-05 0)
(0.00101685 4.42877e-05 0)
(0.00101559 4.44198e-05 0)
(0.00101415 4.44917e-05 0)
(0.00101253 4.4506e-05 0)
(0.00101076 4.44649e-05 0)
(0.00100883 4.43694e-05 0)
(0.00100677 4.42209e-05 0)
(0.00100457 4.40192e-05 0)
(0.00100226 4.37658e-05 0)
(0.000999814 4.34592e-05 0)
(0.000997296 4.31016e-05 0)
(0.000994644 4.26898e-05 0)
(0.000991959 4.22277e-05 0)
(0.000989131 4.17095e-05 0)
(0.000986326 4.11425e-05 0)
(0.000983351 4.0516e-05 0)
(0.000980478 3.98441e-05 0)
(0.000977378 3.91069e-05 0)
(0.000974502 3.83308e-05 0)
(0.000971285 3.74797e-05 0)
(0.000968489 3.66023e-05 0)
(0.000965146 3.56324e-05 0)
(0.000962543 3.46598e-05 0)
(0.000959026 3.35632e-05 0)
(0.000956781 3.25063e-05 0)
(0.000952978 3.12689e-05 0)
(0.000951344 3.01475e-05 0)
(0.000947029 2.87434e-05 0)
(0.000946413 2.75915e-05 0)
(0.000941159 2.5973e-05 0)
(0.000942229 2.48486e-05 0)
(0.000935262 2.29293e-05 0)
(0.000939132 2.1931e-05 0)
(0.000929067 1.95573e-05 0)
(0.000937619 1.88492e-05 0)
(0.00092201 1.57598e-05 0)
(0.000938426 1.56e-05 0)
(0.000912985 1.13878e-05 0)
(0.00094267 1.21074e-05 0)
(0.00089996 6.30672e-06 0)
(0.000952243 7.92691e-06 0)
(0.000879809 9.32767e-07 0)
(0.000999989 1.96877e-06 0)
(0.00100078 5.78148e-06 0)
(0.00100223 9.31654e-06 0)
(0.00100422 1.24901e-05 0)
(0.00100653 1.52994e-05 0)
(0.00100895 1.77896e-05 0)
(0.00101136 2.00154e-05 0)
(0.00101372 2.20198e-05 0)
(0.00101602 2.38301e-05 0)
(0.00101827 2.54629e-05 0)
(0.00102048 2.69314e-05 0)
(0.00102264 2.82489e-05 0)
(0.00102475 2.94301e-05 0)
(0.00102679 3.04885e-05 0)
(0.00102876 3.14369e-05 0)
(0.00103067 3.22848e-05 0)
(0.00103251 3.30406e-05 0)
(0.00103428 3.37098e-05 0)
(0.001036 3.42983e-05 0)
(0.00103766 3.48093e-05 0)
(0.00103926 3.52474e-05 0)
(0.0010408 3.5614e-05 0)
(0.00104229 3.59133e-05 0)
(0.00104371 3.61445e-05 0)
(0.0010451 3.63121e-05 0)
(0.00104642 3.64129e-05 0)
(0.00104771 3.64527e-05 0)
(0.00104892 3.6425e-05 0)
(0.00105013 3.63386e-05 0)
(0.00105124 3.61824e-05 0)
(0.00105237 3.597e-05 0)
(0.00105337 3.56837e-05 0)
(0.00105443 3.53446e-05 0)
(0.00105532 3.49252e-05 0)
(0.00105635 3.4459e-05 0)
(0.00105712 3.39026e-05 0)
(0.00105813 3.33089e-05 0)
(0.00105877 3.26106e-05 0)
(0.00105981 3.18902e-05 0)
(0.00106029 3.10439e-05 0)
(0.00106141 3.01996e-05 0)
(0.00106169 2.91977e-05 0)
(0.00106297 2.82347e-05 0)
(0.00106297 2.70676e-05 0)
(0.00106456 2.59947e-05 0)
(0.00106414 2.465e-05 0)
(0.00106623 2.3481e-05 0)
(0.00106519 2.19433e-05 0)
(0.00106806 2.06982e-05 0)
(0.00106608 1.89504e-05 0)
(0.00107017 1.76573e-05 0)
(0.00106673 1.56846e-05 0)
(0.00107269 1.43809e-05 0)
(0.00106701 1.21844e-05 0)
(0.00107581 1.09184e-05 0)
(0.00106666 8.55141e-06 0)
(0.00107981 7.38328e-06 0)
(0.00106533 5.04622e-06 0)
(0.0010851 4.00625e-06 0)
(0.00106255 2.19879e-06 0)
(0.00100001 1.75006e-06 0)
(0.00100047 5.18316e-06 0)
(0.00100127 8.45791e-06 0)
(0.00100238 1.1498e-05 0)
(0.00100373 1.42625e-05 0)
(0.00100524 1.67484e-05 0)
(0.00100686 1.89775e-05 0)
(0.00100855 2.09795e-05 0)
(0.00101028 2.27816e-05 0)
(0.00101206 2.44044e-05 0)
(0.00101387 2.58637e-05 0)
(0.0010157 2.71722e-05 0)
(0.00101755 2.83425e-05 0)
(0.00101942 2.93863e-05 0)
(0.00102128 3.03156e-05 0)
(0.00102315 3.11405e-05 0)
(0.00102502 3.18701e-05 0)
(0.00102689 3.25115e-05 0)
(0.00102875 3.30711e-05 0)
(0.00103061 3.35532e-05 0)
(0.00103247 3.39627e-05 0)
(0.00103432 3.43019e-05 0)
(0.00103617 3.45748e-05 0)
(0.00103801 3.4782e-05 0)
(0.00103986 3.49271e-05 0)
(0.00104169 3.50088e-05 0)
(0.00104353 3.50309e-05 0)
(0.00104535 3.49903e-05 0)
(0.00104718 3.48913e-05 0)
(0.00104898 3.4729e-05 0)
(0.00105081 3.45087e-05 0)
(0.00105259 3.42233e-05 0)
(0.00105441 3.38798e-05 0)
(0.00105618 3.34687e-05 0)
(0.00105799 3.29991e-05 0)
(0.00105973 3.24588e-05 0)
(0.00106155 3.18593e-05 0)
(0.00106325 3.11857e-05 0)
(0.00106508 3.04519e-05 0)
(0.00106674 2.96411e-05 0)
(0.00106858 2.87681e-05 0)
(0.00107019 2.78168e-05 0)
(0.00107207 2.67989e-05 0)
(0.00107361 2.57054e-05 0)
(0.00107555 2.4536e-05 0)
(0.00107699 2.33015e-05 0)
(0.00107904 2.19724e-05 0)
(0.00108036 2.06035e-05 0)
(0.00108255 1.91036e-05 0)
(0.0010837 1.76171e-05 0)
(0.00108612 1.59318e-05 0)
(0.00108704 1.43632e-05 0)
(0.00108978 1.24739e-05 0)
(0.00109037 1.08922e-05 0)
(0.00109357 8.77492e-06 0)
(0.00109369 7.30632e-06 0)
(0.00109753 4.92669e-06 0)
(0.00109698 3.77603e-06 0)
(0.00110173 1.0461e-06 0)
(0.00110018 4.99198e-07 0)
(0.001 1.16416e-06 0)
(0.00100022 3.46305e-06 0)
(0.00100067 5.69437e-06 0)
(0.00100133 7.82642e-06 0)
(0.00100219 9.83784e-06 0)
(0.00100321 1.17184e-05 0)
(0.00100438 1.34667e-05 0)
(0.00100565 1.50869e-05 0)
(0.001007 1.65851e-05 0)
(0.00100842 1.79675e-05 0)
(0.0010099 1.92394e-05 0)
(0.00101141 2.04058e-05 0)
(0.00101297 2.14716e-05 0)
(0.00101455 2.24416e-05 0)
(0.00101616 2.3321e-05 0)
(0.00101779 2.41145e-05 0)
(0.00101943 2.48269e-05 0)
(0.00102109 2.54619e-05 0)
(0.00102276 2.60231e-05 0)
(0.00102443 2.65135e-05 0)
(0.00102612 2.69355e-05 0)
(0.00102781 2.72911e-05 0)
(0.00102951 2.75821e-05 0)
(0.00103122 2.78099e-05 0)
(0.00103293 2.79754e-05 0)
(0.00103465 2.80798e-05 0)
(0.00103637 2.81229e-05 0)
(0.00103809 2.81059e-05 0)
(0.00103983 2.80274e-05 0)
(0.00104156 2.78893e-05 0)
(0.00104329 2.76883e-05 0)
(0.00104503 2.74279e-05 0)
(0.00104677 2.71021e-05 0)
(0.00104851 2.67171e-05 0)
(0.00105025 2.62627e-05 0)
(0.00105199 2.57503e-05 0)
(0.00105374 2.51621e-05 0)
(0.00105547 2.45192e-05 0)
(0.00105722 2.3791e-05 0)
(0.00105896 2.30146e-05 0)
(0.0010607 2.21388e-05 0)
(0.00106243 2.1227e-05 0)
(0.00106417 2.01941e-05 0)
(0.0010659 1.91472e-05 0)
(0.00106763 1.79453e-05 0)
(0.00106937 1.67674e-05 0)
(0.00107109 1.53817e-05 0)
(0.00107285 1.4083e-05 0)
(0.00107455 1.24935e-05 0)
(0.00107634 1.10941e-05 0)
(0.00107803 9.2723e-06 0)
(0.00107989 7.80594e-06 0)
(0.00108156 5.70842e-06 0)
(0.00108356 4.22868e-06 0)
(0.00108521 1.78812e-06 0)
(0.00108746 3.85129e-07 0)
(0.00108907 -2.49029e-06 0)
(0.00109165 -3.66355e-06 0)
(0.00109312 -7.10965e-06 0)
(0.00109604 -7.83526e-06 0)
(0.001 9.39969e-07 0)
(0.00100017 2.80889e-06 0)
(0.0010005 4.64832e-06 0)
(0.001001 6.43936e-06 0)
(0.00100163 8.16457e-06 0)
(0.0010024 9.81009e-06 0)
(0.00100329 1.13667e-05 0)
(0.00100426 1.28295e-05 0)
(0.00100532 1.4197e-05 0)
(0.00100645 1.54698e-05 0)
(0.00100764 1.66493e-05 0)
(0.00100888 1.77375e-05 0)
(0.00101016 1.87367e-05 0)
(0.00101149 1.96497e-05 0)
(0.00101284 2.04792e-05 0)
(0.00101423 2.12284e-05 0)
(0.00101564 2.19001e-05 0)
(0.00101707 2.24975e-05 0)
(0.00101852 2.30229e-05 0)
(0.00101999 2.34792e-05 0)
(0.00102147 2.38681e-05 0)
(0.00102297 2.41919e-05 0)
(0.00102448 2.44516e-05 0)
(0.00102599 2.46494e-05 0)
(0.00102752 2.47853e-05 0)
(0.00102905 2.48615e-05 0)
(0.0010306 2.48768e-05 0)
(0.00103214 2.48338e-05 0)
(0.0010337 2.47299e-05 0)
(0.00103525 2.45686e-05 0)
(0.00103681 2.4345e-05 0)
(0.00103838 2.40648e-05 0)
(0.00103994 2.37197e-05 0)
(0.00104151 2.33187e-05 0)
(0.00104307 2.28485e-05 0)
(0.00104464 2.2324e-05 0)
(0.0010462 2.17238e-05 0)
(0.00104777 2.10724e-05 0)
(0.00104933 2.0336e-05 0)
(0.0010509 1.95541e-05 0)
(0.00105244 1.86733e-05 0)
(0.00105402 1.77573e-05 0)
(0.00105555 1.67222e-05 0)
(0.00105713 1.56696e-05 0)
(0.00105864 1.44673e-05 0)
(0.00106024 1.32772e-05 0)
(0.00106174 1.18916e-05 0)
(0.00106337 1.05662e-05 0)
(0.00106484 8.9759e-06 0)
(0.00106653 7.5235e-06 0)
(0.00106796 5.7012e-06 0)
(0.00106975 4.14078e-06 0)
(0.00107112 2.05087e-06 0)
(0.00107304 4.13501e-07 0)
(0.00107431 -2.00381e-06 0)
(0.00107647 -3.68065e-06 0)
(0.00107762 -6.53067e-06 0)
(0.00108014 -8.19014e-06 0)
(0.00108104 -1.16169e-05 0)
(0.00108392 -1.31597e-05 0)
(0.001 7.47665e-07 0)
(0.00100013 2.23388e-06 0)
(0.00100037 3.69797e-06 0)
(0.00100073 5.12722e-06 0)
(0.0010012 6.5102e-06 0)
(0.00100178 7.83758e-06 0)
(0.00100246 9.10249e-06 0)
(0.00100322 1.03005e-05 0)
(0.00100407 1.1429e-05 0)
(0.00100498 1.2487e-05 0)
(0.00100595 1.34744e-05 0)
(0.00100698 1.43917e-05 0)
(0.00100805 1.52395e-05 0)
(0.00100917 1.6019e-05 0)
(0.00101033 1.67311e-05 0)
(0.00101152 1.73774e-05 0)
(0.00101274 1.7959e-05 0)
(0.00101399 1.84776e-05 0)
(0.00101527 1.89344e-05 0)
(0.00101656 1.93308e-05 0)
(0.00101787 1.96678e-05 0)
(0.0010192 1.99467e-05 0)
(0.00102054 2.01679e-05 0)
(0.00102189 2.03329e-05 0)
(0.00102325 2.04412e-05 0)
(0.00102463 2.04943e-05 0)
(0.00102601 2.04911e-05 0)
(0.00102739 2.04334e-05 0)
(0.00102878 2.03186e-05 0)
(0.00103017 2.01496e-05 0)
(0.00103157 1.99219e-05 0)
(0.00103296 1.964e-05 0)
(0.00103436 1.92968e-05 0)
(0.00103575 1.88993e-05 0)
(0.00103714 1.84363e-05 0)
(0.00103853 1.79194e-05 0)
(0.00103991 1.73312e-05 0)
(0.0010413 1.66901e-05 0)
(0.00104266 1.59694e-05 0)
(0.00104404 1.51988e-05 0)
(0.00104538 1.43365e-05 0)
(0.00104675 1.34302e-05 0)
(0.00104807 1.2415e-05 0)
(0.00104943 1.13667e-05 0)
(0.00105072 1.01843e-05 0)
(0.00105208 8.98767e-06 0)
(0.00105334 7.61959e-06 0)
(0.0010547 6.26879e-06 0)
(0.00105592 4.69026e-06 0)
(0.00105731 3.18028e-06 0)
(0.00105849 1.35772e-06 0)
(0.00105995 -3.13622e-07 0)
(0.0010611 -2.42386e-06 0)
(0.00106267 -4.24344e-06 0)
(0.00106375 -6.68969e-06 0)
(0.00106549 -8.63122e-06 0)
(0.00106644 -1.14958e-05 0)
(0.00106841 -1.35286e-05 0)
(0.00106913 -1.69458e-05 0)
(0.00107132 -1.90145e-05 0)
(0.001 6.00542e-07 0)
(0.0010001 1.79473e-06 0)
(0.00100029 2.97408e-06 0)
(0.00100057 4.13068e-06 0)
(0.00100094 5.25703e-06 0)
(0.0010014 6.34645e-06 0)
(0.00100194 7.39335e-06 0)
(0.00100256 8.39331e-06 0)
(0.00100325 9.34306e-06 0)
(0.00100401 1.02403e-05 0)
(0.00100482 1.10836e-05 0)
(0.00100568 1.18722e-05 0)
(0.0010066 1.26054e-05 0)
(0.00100756 1.32832e-05 0)
(0.00100855 1.39054e-05 0)
(0.00100959 1.44724e-05 0)
(0.00101065 1.49842e-05 0)
(0.00101174 1.54416e-05 0)
(0.00101286 1.58449e-05 0)
(0.001014 1.61946e-05 0)
(0.00101516 1.64913e-05 0)
(0.00101633 1.67354e-05 0)
(0.00101752 1.69272e-05 0)
(0.00101873 1.70673e-05 0)
(0.00101994 1.71553e-05 0)
(0.00102116 1.71921e-05 0)
(0.00102239 1.71767e-05 0)
(0.00102363 1.71102e-05 0)
(0.00102486 1.69907e-05 0)
(0.0010261 1.68197e-05 0)
(0.00102734 1.65944e-05 0)
(0.00102858 1.63169e-05 0)
(0.00102981 1.59827e-05 0)
(0.00103104 1.55954e-05 0)
(0.00103227 1.5148e-05 0)
(0.00103349 1.46466e-05 0)
(0.00103469 1.40803e-05 0)
(0.0010359 1.34591e-05 0)
(0.00103708 1.27666e-05 0)
(0.00103826 1.20188e-05 0)
(0.00103942 1.11907e-05 0)
(0.00104057 1.03083e-05 0)
(0.00104169 9.33318e-06 0)
(0.00104283 8.3067e-06 0)
(0.00104391 7.17031e-06 0)
(0.00104503 5.98937e-06 0)
(0.00104606 4.67421e-06 0)
(0.00104716 3.32765e-06 0)
(0.00104815 1.81186e-06 0)
(0.00104924 2.87506e-07 0)
(0.00105016 -1.45698e-06 0)
(0.00105126 -3.17223e-06 0)
(0.00105211 -5.18728e-06 0)
(0.00105327 -7.11261e-06 0)
(0.00105404 -9.455e-06 0)
(0.00105529 -1.16036e-05 0)
(0.00105594 -1.434e-05 0)
(0.00105731 -1.67164e-05 0)
(0.00105771 -1.9941e-05 0)
(0.00105914 -2.25384e-05 0)
(0.001 4.84702e-07 0)
(0.00100008 1.44836e-06 0)
(0.00100023 2.40092e-06 0)
(0.00100046 3.33699e-06 0)
(0.00100077 4.25129e-06 0)
(0.00100115 5.13897e-06 0)
(0.0010016 5.99568e-06 0)
(0.00100211 6.81775e-06 0)
(0.00100269 7.60212e-06 0)
(0.00100333 8.34636e-06 0)
(0.00100401 9.0485e-06 0)
(0.00100475 9.707e-06 0)
(0.00100554 1.03208e-05 0)
(0.00100637 1.0889e-05 0)
(0.00100723 1.14111e-05 0)
(0.00100813 1.1887e-05 0)
(0.00100906 1.23163e-05 0)
(0.00101002 1.26992e-05 0)
(0.00101101 1.30356e-05 0)
(0.00101201 1.33257e-05 0)
(0.00101304 1.35696e-05 0)
(0.00101408 1.37674e-05 0)
(0.00101514 1.39191e-05 0)
(0.00101621 1.4025e-05 0)
(0.00101729 1.40847e-05 0)
(0.00101838 1.40985e-05 0)
(0.00101947 1.40657e-05 0)
(0.00102057 1.39865e-05 0)
(0.00102167 1.38599e-05 0)
(0.00102277 1.36862e-05 0)
(0.00102387 1.34636e-05 0)
(0.00102496 1.31927e-05 0)
(0.00102605 1.28708e-05 0)
(0.00102713 1.24989e-05 0)
(0.0010282 1.20732e-05 0)
(0.00102926 1.15955e-05 0)
(0.0010303 1.106e-05 0)
(0.00103134 1.047e-05 0)
(0.00103235 9.81718e-06 0)
(0.00103335 9.10711e-06 0)
(0.00103432 8.32742e-06 0)
(0.00103528 7.48756e-06 0)
(0.0010362 6.56917e-06 0)
(0.00103711 5.58767e-06 0)
(0.00103798 4.51577e-06 0)
(0.00103885 3.37817e-06 0)
(0.00103964 2.13409e-06 0)
(0.00104046 8.22806e-07 0)
(0.00104119 -6.16493e-07 0)
(0.00104197 -2.12031e-06 0)
(0.00104262 -3.78078e-06 0)
(0.00104336 -5.49756e-06 0)
(0.00104391 -7.41247e-06 0)
(0.00104464 -9.3725e-06 0)
(0.00104507 -1.15924e-05 0)
(0.0010458 -1.38312e-05 0)
(0.00104608 -1.64145e-05 0)
(0.00104683 -1.89663e-05 0)
(0.00104685 -2.1983e-05 0)
(0.00104755 -2.48755e-05 0)
(0.001 3.88885e-07 0)
(0.00100007 1.16144e-06 0)
(0.0010002 1.925e-06 0)
(0.00100039 2.67571e-06 0)
(0.00100065 3.40981e-06 0)
(0.00100097 4.12372e-06 0)
(0.00100135 4.81415e-06 0)
(0.00100179 5.47818e-06 0)
(0.00100229 6.11325e-06 0)
(0.00100283 6.71718e-06 0)
(0.00100343 7.28812e-06 0)
(0.00100407 7.82456e-06 0)
(0.00100475 8.32527e-06 0)
(0.00100548 8.7893e-06 0)
(0.00100623 9.21593e-06 0)
(0.00100703 9.60463e-06 0)
(0.00100785 9.95498e-06 0)
(0.0010087 1.02667e-05 0)
(0.00100957 1.05396e-05 0)
(0.00101047 1.07735e-05 0)
(0.00101138 1.09682e-05 0)
(0.00101231 1.11238e-05 0)
(0.00101326 1.12399e-05 0)
(0.00101422 1.13166e-05 0)
(0.00101518 1.13535e-05 0)
(0.00101615 1.13504e-05 0)
(0.00101713 1.1307e-05 0)
(0.00101811 1.12228e-05 0)
(0.00101909 1.10974e-05 0)
(0.00102007 1.09301e-05 0)
(0.00102104 1.07202e-05 0)
(0.001022 1.04669e-05 0)
(0.00102296 1.01691e-05 0)
(0.00102391 9.82576e-06 0)
(0.00102484 9.43554e-06 0)
(0.00102575 8.99703e-06 0)
(0.00102665 8.50853e-06 0)
(0.00102753 7.96819e-06 0)
(0.00102838 7.37399e-06 0)
(0.00102921 6.72344e-06 0)
(0.00103 6.01429e-06 0)
(0.00103078 5.24314e-06 0)
(0.00103151 4.40759e-06 0)
(0.00103222 3.50305e-06 0)
(0.00103288 2.52711e-06 0)
(0.00103352 1.47347e-06 0)
(0.00103409 3.40246e-07 0)
(0.00103464 -8.82031e-07 0)
(0.00103512 -2.19207e-06 0)
(0.00103559 -3.60577e-06 0)
(0.00103595 -5.1193e-06 0)
(0.00103634 -6.75861e-06 0)
(0.00103657 -8.50897e-06 0)
(0.00103687 -1.04119e-05 0)
(0.00103693 -1.24355e-05 0)
(0.00103716 -1.46496e-05 0)
(0.00103703 -1.69907e-05 0)
(0.00103716 -1.95744e-05 0)
(0.00103674 -2.22802e-05 0)
(0.00103672 -2.52979e-05 0)
(0.001 3.07086e-07 0)
(0.00100006 9.16378e-07 0)
(0.00100017 1.51805e-06 0)
(0.00100034 2.10934e-06 0)
(0.00100056 2.68752e-06 0)
(0.00100084 3.24995e-06 0)
(0.00100118 3.7942e-06 0)
(0.00100156 4.31804e-06 0)
(0.00100199 4.81946e-06 0)
(0.00100247 5.29668e-06 0)
(0.001003 5.74818e-06 0)
(0.00100356 6.17264e-06 0)
(0.00100417 6.56895e-06 0)
(0.00100481 6.9362e-06 0)
(0.00100549 7.27362e-06 0)
(0.00100619 7.58061e-06 0)
(0.00100693 7.85666e-06 0)
(0.00100769 8.10136e-06 0)
(0.00100847 8.3144e-06 0)
(0.00100928 8.49546e-06 0)
(0.0010101 8.64433e-06 0)
(0.00101094 8.76071e-06 0)
(0.00101179 8.84445e-06 0)
(0.00101265 8.8952e-06 0)
(0.00101352 8.9128e-06 0)
(0.0010144 8.89676e-06 0)
(0.00101527 8.84691e-06 0)
(0.00101615 8.76253e-06 0)
(0.00101703 8.64345e-06 0)
(0.0010179 8.48862e-06 0)
(0.00101876 8.29787e-06 0)
(0.00101962 8.0697e-06 0)
(0.00102046 7.80406e-06 0)
(0.00102128 7.49873e-06 0)
(0.00102209 7.15395e-06 0)
(0.00102288 6.76649e-06 0)
(0.00102365 6.33715e-06 0)
(0.00102439 5.86119e-06 0)
(0.0010251 5.34045e-06 0)
(0.00102578 4.76792e-06 0)
(0.00102642 4.1473e-06 0)
(0.00102702 3.46799e-06 0)
(0.00102758 2.73705e-06 0)
(0.00102811 1.93809e-06 0)
(0.00102857 1.08424e-06 0)
(0.001029 1.49612e-07 0)
(0.00102935 -8.42829e-07 0)
(0.00102967 -1.93218e-06 0)
(0.0010299 -3.08029e-06 0)
(0.00103009 -4.35112e-06 0)
(0.00103017 -5.6793e-06 0)
(0.00103022 -7.16605e-06 0)
(0.00103013 -8.70063e-06 0)
(0.00103003 -1.04452e-05 0)
(0.00102974 -1.22155e-05 0)
(0.00102948 -1.42733e-05 0)
(0.00102893 -1.63121e-05 0)
(0.0010285 -1.87547e-05 0)
(0.00102762 -2.10918e-05 0)
(0.00102692 -2.40054e-05 0)
(0.001 2.35249e-07 0)
(0.00100005 7.01102e-07 0)
(0.00100015 1.16036e-06 0)
(0.0010003 1.61104e-06 0)
(0.0010005 2.05121e-06 0)
(0.00100075 2.47899e-06 0)
(0.00100105 2.89262e-06 0)
(0.00100139 3.29048e-06 0)
(0.00100178 3.67107e-06 0)
(0.00100221 4.03307e-06 0)
(0.00100268 4.37528e-06 0)
(0.00100319 4.69667e-06 0)
(0.00100374 4.99635e-06 0)
(0.00100432 5.27352e-06 0)
(0.00100493 5.52756e-06 0)
(0.00100558 5.75789e-06 0)
(0.00100624 5.96407e-06 0)
(0.00100694 6.14567e-06 0)
(0.00100765 6.30241e-06 0)
(0.00100838 6.43393e-06 0)
(0.00100913 6.54005e-06 0)
(0.0010099 6.62043e-06 0)
(0.00101068 6.67494e-06 0)
(0.00101146 6.7032e-06 0)
(0.00101225 6.70511e-06 0)
(0.00101305 6.68014e-06 0)
(0.00101384 6.62825e-06 0)
(0.00101464 6.54866e-06 0)
(0.00101543 6.4414e-06 0)
(0.00101621 6.30532e-06 0)
(0.00101699 6.14063e-06 0)
(0.00101775 5.94558e-06 0)
(0.0010185 5.7207e-06 0)
(0.00101922 5.46341e-06 0)
(0.00101993 5.17476e-06 0)
(0.00102061 4.85093e-06 0)
(0.00102127 4.49394e-06 0)
(0.00102189 4.09802e-06 0)
(0.00102248 3.66694e-06 0)
(0.00102303 3.19181e-06 0)
(0.00102354 2.67954e-06 0)
(0.001024 2.11629e-06 0)
(0.00102441 1.51409e-06 0)
(0.00102478 8.51606e-07 0)
(0.00102507 1.48576e-07 0)
(0.00102531 -6.28138e-07 0)
(0.00102548 -1.44372e-06 0)
(0.00102559 -2.35199e-06 0)
(0.0010256 -3.29717e-06 0)
(0.00102554 -4.36364e-06 0)
(0.00102537 -5.45727e-06 0)
(0.00102513 -6.7127e-06 0)
(0.00102475 -7.97492e-06 0)
(0.0010243 -9.46061e-06 0)
(0.00102367 -1.09143e-05 0)
(0.00102299 -1.26856e-05 0)
(0.00102205 -1.43536e-05 0)
(0.0010211 -1.6484e-05 0)
(0.00101978 -1.83826e-05 0)
(0.00101848 -2.09652e-05 0)
(0.001 1.70363e-07 0)
(0.00100005 5.06635e-07 0)
(0.00100014 8.37133e-07 0)
(0.00100028 1.16052e-06 0)
(0.00100046 1.47548e-06 0)
(0.00100069 1.78077e-06 0)
(0.00100096 2.07521e-06 0)
(0.00100128 2.35769e-06 0)
(0.00100164 2.62721e-06 0)
(0.00100203 2.88285e-06 0)
(0.00100247 3.12378e-06 0)
(0.00100294 3.34928e-06 0)
(0.00100344 3.55872e-06 0)
(0.00100398 3.75154e-06 0)
(0.00100455 3.92728e-06 0)
(0.00100514 4.08553e-06 0)
(0.00100576 4.22597e-06 0)
(0.0010064 4.34829e-06 0)
(0.00100707 4.45228e-06 0)
(0.00100775 4.53769e-06 0)
(0.00100844 4.60438e-06 0)
(0.00100915 4.65211e-06 0)
(0.00100987 4.68082e-06 0)
(0.0010106 4.69019e-06 0)
(0.00101133 4.68022e-06 0)
(0.00101207 4.65047e-06 0)
(0.0010128 4.60099e-06 0)
(0.00101354 4.53114e-06 0)
(0.00101426 4.44106e-06 0)
(0.00101498 4.32977e-06 0)
(0.00101568 4.19762e-06 0)
(0.00101638 4.0431e-06 0)
(0.00101705 3.86689e-06 0)
(0.0010177 3.66671e-06 0)
(0.00101833 3.44383e-06 0)
(0.00101893 3.19477e-06 0)
(0.00101949 2.92188e-06 0)
(0.00102003 2.61974e-06 0)
(0.00102052 2.29253e-06 0)
(0.00102097 1.9319e-06 0)
(0.00102137 1.54492e-06 0)
(0.00102172 1.11871e-06 0)
(0.00102202 6.65157e-07 0)
(0.00102225 1.64358e-07 0)
(0.00102241 -3.6332e-07 0)
(0.00102251 -9.49032e-07 0)
(0.00102252 -1.56024e-06 0)
(0.00102246 -2.24767e-06 0)
(0.00102229 -2.95588e-06 0)
(0.00102203 -3.76471e-06 0)
(0.00102166 -4.58269e-06 0)
(0.00102118 -5.53825e-06 0)
(0.00102055 -6.48109e-06 0)
(0.00101982 -7.6181e-06 0)
(0.0010189 -8.70199e-06 0)
(0.00101787 -1.00673e-05 0)
(0.00101661 -1.1307e-05 0)
(0.00101524 -1.29642e-05 0)
(0.00101355 -1.43671e-05 0)
(0.00101175 -1.63989e-05 0)
(0.001 1.1002e-07 0)
(0.00100004 3.25802e-07 0)
(0.00100013 5.36538e-07 0)
(0.00100026 7.4144e-07 0)
(0.00100044 9.39746e-07 0)
(0.00100065 1.13073e-06 0)
(0.00100091 1.31374e-06 0)
(0.00100121 1.48814e-06 0)
(0.00100155 1.65337e-06 0)
(0.00100192 1.80891e-06 0)
(0.00100233 1.95432e-06 0)
(0.00100278 2.08918e-06 0)
(0.00100326 2.21318e-06 0)
(0.00100377 2.326e-06 0)
(0.0010043 2.42743e-06 0)
(0.00100487 2.51725e-06 0)
(0.00100545 2.59533e-06 0)
(0.00100606 2.66153e-06 0)
(0.00100669 2.71578e-06 0)
(0.00100734 2.75797e-06 0)
(0.001008 2.7881e-06 0)
(0.00100867 2.80605e-06 0)
(0.00100936 2.81186e-06 0)
(0.00101005 2.80539e-06 0)
(0.00101074 2.78672e-06 0)
(0.00101144 2.7556e-06 0)
(0.00101213 2.71218e-06 0)
(0.00101282 2.65606e-06 0)
(0.0010135 2.58745e-06 0)
(0.00101417 2.50573e-06 0)
(0.00101483 2.41123e-06 0)
(0.00101548 2.30299e-06 0)
(0.0010161 2.18161e-06 0)
(0.0010167 2.04556e-06 0)
(0.00101727 1.89589e-06 0)
(0.00101781 1.7302e-06 0)
(0.00101832 1.5503e-06 0)
(0.00101879 1.35252e-06 0)
(0.00101922 1.13984e-06 0)
(0.0010196 9.06682e-07 0)
(0.00101993 6.58039e-07 0)
(0.0010202 3.85312e-07 0)
(0.00102041 9.70166e-08 0)
(0.00102056 -2.20946e-07 0)
(0.00102063 -5.53554e-07 0)
(0.00102062 -9.23788e-07 0)
(0.00102053 -1.30815e-06 0)
(0.00102034 -1.74161e-06 0)
(0.00102004 -2.18446e-06 0)
(0.00101965 -2.693e-06 0)
(0.00101912 -3.2023e-06 0)
(0.00101847 -3.80298e-06 0)
(0.00101768 -4.38811e-06 0)
(0.00101674 -5.1039e-06 0)
(0.00101562 -5.77437e-06 0)
(0.00101434 -6.63659e-06 0)
(0.00101284 -7.40055e-06 0)
(0.00101117 -8.45226e-06 0)
(0.00100921 -9.31226e-06 0)
(0.00100706 -1.06107e-05 0)
(0.001 5.21319e-08 0)
(0.00100004 1.52349e-07 0)
(0.00100013 2.48235e-07 0)
(0.00100026 3.39508e-07 0)
(0.00100042 4.25908e-07 0)
(0.00100063 5.07206e-07 0)
(0.00100089 5.83207e-07 0)
(0.00100118 6.53738e-07 0)
(0.0010015 7.18654e-07 0)
(0.00100187 7.77832e-07 0)
(0.00100227 8.31183e-07 0)
(0.00100271 8.78645e-07 0)
(0.00100317 9.20183e-07 0)
(0.00100367 9.55787e-07 0)
(0.00100419 9.85478e-07 0)
(0.00100474 1.00929e-06 0)
(0.00100531 1.02727e-06 0)
(0.00100591 1.03951e-06 0)
(0.00100652 1.04608e-06 0)
(0.00100715 1.04707e-06 0)
(0.00100779 1.04262e-06 0)
(0.00100845 1.03279e-06 0)
(0.00100912 1.01773e-06 0)
(0.00100979 9.9752e-07 0)
(0.00101046 9.72308e-07 0)
(0.00101114 9.42138e-07 0)
(0.00101181 9.07174e-07 0)
(0.00101248 8.67395e-07 0)
(0.00101314 8.23021e-07 0)
(0.00101379 7.73957e-07 0)
(0.00101442 7.20441e-07 0)
(0.00101504 6.6225e-07 0)
(0.00101564 5.99699e-07 0)
(0.00101621 5.32371e-07 0)
(0.00101676 4.60726e-07 0)
(0.00101727 3.8405e-07 0)
(0.00101775 3.03039e-07 0)
(0.00101819 2.1655e-07 0)
(0.00101858 1.2569e-07 0)
(0.00101892 2.85855e-08 0)
(0.00101922 -7.2808e-08 0)
(0.00101945 -1.81616e-07 0)
(0.00101962 -2.94607e-07 0)
(0.00101972 -4.16783e-07 0)
(0.00101974 -5.43659e-07 0)
(0.00101968 -6.82768e-07 0)
(0.00101952 -8.25361e-07 0)
(0.00101927 -9.83487e-07 0)
(0.00101891 -1.14327e-06 0)
(0.00101844 -1.32465e-06 0)
(0.00101784 -1.50457e-06 0)
(0.00101711 -1.71523e-06 0)
(0.00101622 -1.91843e-06 0)
(0.00101518 -2.16634e-06 0)
(0.00101395 -2.39586e-06 0)
(0.00101254 -2.69208e-06 0)
(0.00101092 -2.95044e-06 0)
(0.00100908 -3.31022e-06 -4.30199e-38)
(0.00100698 -3.59781e-06 0)
(0.00100464 -4.04188e-06 0)
(0.001 -5.05419e-09 0)
(0.00100004 -1.8984e-08 0)
(0.00100013 -3.65425e-08 0)
(0.00100026 -5.75218e-08 0)
(0.00100043 -8.16912e-08 0)
(0.00100064 -1.08793e-07 0)
(0.00100089 -1.38556e-07 0)
(0.00100118 -1.70706e-07 0)
(0.00100151 -2.04974e-07 0)
(0.00100188 -2.41087e-07 0)
(0.00100228 -2.78773e-07 0)
(0.00100271 -3.17754e-07 0)
(0.00100318 -3.57759e-07 0)
(0.00100368 -3.98509e-07 0)
(0.0010042 -4.3973e-07 0)
(0.00100476 -4.81143e-07 0)
(0.00100533 -5.22481e-07 0)
(0.00100593 -5.6346e-07 0)
(0.00100654 -6.03821e-07 0)
(0.00100717 -6.43275e-07 0)
(0.00100782 -6.81566e-07 0)
(0.00100847 -7.18398e-07 0)
(0.00100914 -7.53528e-07 0)
(0.00100981 -7.86637e-07 0)
(0.00101049 -8.17497e-07 0)
(0.00101116 -8.45765e-07 0)
(0.00101184 -8.71243e-07 0)
(0.0010125 -8.93542e-07 0)
(0.00101317 -9.12477e-07 0)
(0.00101382 -9.27574e-07 0)
(0.00101445 -9.38736e-07 0)
(0.00101507 -9.45371e-07 0)
(0.00101567 -9.47494e-07 0)
(0.00101624 -9.44321e-07 0)
(0.00101679 -9.36061e-07 0)
(0.0010173 -9.21617e-07 0)
(0.00101778 -9.01518e-07 0)
(0.00101821 -8.74204e-07 0)
(0.00101861 -8.40713e-07 0)
(0.00101895 -7.98756e-07 0)
(0.00101924 -7.50274e-07 0)
(0.00101947 -6.91862e-07 0)
(0.00101964 -6.2687e-07 0)
(0.00101974 -5.498e-07 0)
(0.00101976 -4.66063e-07 0)
(0.00101969 -3.66981e-07 0)
(0.00101954 -2.61471e-07 0)
(0.00101929 -1.36414e-07 0)
(0.00101893 -6.68209e-09 0)
(0.00101845 1.48718e-07 0)
(0.00101786 3.05483e-07 0)
(0.00101712 4.97308e-07 0)
(0.00101623 6.84499e-07 0)
(0.00101518 9.20848e-07 0)
(0.00101396 1.14177e-06 0)
(0.00101255 1.43366e-06 0)
(0.00101093 1.69111e-06 0)
(0.00100908 2.05355e-06 4.30199e-38)
(0.001007 2.34831e-06 0)
(0.00100464 2.80084e-06 0)
(0.001 -6.33935e-08 0)
(0.00100005 -1.93725e-07 0)
(0.00100013 -3.26924e-07 0)
(0.00100027 -4.62284e-07 0)
(0.00100044 -5.99071e-07 0)
(0.00100066 -7.36525e-07 0)
(0.00100092 -8.73899e-07 0)
(0.00100122 -1.01046e-06 0)
(0.00100156 -1.14552e-06 0)
(0.00100194 -1.27841e-06 0)
(0.00100236 -1.40849e-06 0)
(0.00100281 -1.53515e-06 0)
(0.00100329 -1.6578e-06 0)
(0.0010038 -1.7759e-06 0)
(0.00100434 -1.88893e-06 0)
(0.00100491 -1.99636e-06 0)
(0.0010055 -2.09773e-06 0)
(0.00100612 -2.19256e-06 0)
(0.00100675 -2.28043e-06 0)
(0.0010074 -2.36085e-06 0)
(0.00100806 -2.43345e-06 0)
(0.00100874 -2.49775e-06 0)
(0.00100943 -2.55338e-06 0)
(0.00101012 -2.59982e-06 0)
(0.00101082 -2.63676e-06 0)
(0.00101151 -2.66359e-06 0)
(0.00101221 -2.68005e-06 0)
(0.0010129 -2.68536e-06 0)
(0.00101358 -2.67942e-06 0)
(0.00101426 -2.66121e-06 0)
(0.00101492 -2.63077e-06 0)
(0.00101556 -2.58674e-06 0)
(0.00101618 -2.52943e-06 0)
(0.00101678 -2.45696e-06 0)
(0.00101735 -2.37011e-06 0)
(0.0010179 -2.26616e-06 0)
(0.0010184 -2.14673e-06 0)
(0.00101887 -2.00778e-06 0)
(0.0010193 -1.85229e-06 0)
(0.00101967 -1.67415e-06 0)
(0.00102 -1.47859e-06 0)
(0.00102027 -1.25607e-06 0)
(0.00102048 -1.01555e-06 0)
(0.00102062 -7.42164e-07 0)
(0.00102069 -4.50971e-07 0)
(0.00102068 -1.18764e-07 0)
(0.00102058 2.29638e-07 0)
(0.00102039 6.30525e-07 0)
(0.00102009 1.0433e-06 0)
(0.00101969 1.52621e-06 0)
(0.00101916 2.01215e-06 0)
(0.00101851 2.5942e-06 0)
(0.00101771 3.16283e-06 0)
(0.00101677 3.86709e-06 0)
(0.00101566 4.52797e-06 0)
(0.00101436 5.38567e-06 0)
(0.00101288 6.14742e-06 0)
(0.00101118 7.20131e-06 0)
(0.00100925 8.06681e-06 0)
(0.00100705 9.37242e-06 0)
(0.001 -1.24831e-07 0)
(0.00100005 -3.77683e-07 0)
(0.00100014 -6.32504e-07 0)
(0.00100028 -8.88034e-07 0)
(0.00100047 -1.14299e-06 0)
(0.0010007 -1.39608e-06 0)
(0.00100098 -1.64605e-06 0)
(0.0010013 -1.89169e-06 0)
(0.00100166 -2.13188e-06 0)
(0.00100207 -2.36553e-06 0)
(0.00100251 -2.59165e-06 0)
(0.00100299 -2.80931e-06 0)
(0.0010035 -3.01764e-06 0)
(0.00100404 -3.21583e-06 0)
(0.00100461 -3.40312e-06 0)
(0.00100521 -3.5788e-06 0)
(0.00100584 -3.74223e-06 0)
(0.00100649 -3.89277e-06 0)
(0.00100716 -4.02985e-06 0)
(0.00100785 -4.15287e-06 0)
(0.00100855 -4.26134e-06 0)
(0.00100926 -4.35462e-06 0)
(0.00100999 -4.43229e-06 0)
(0.00101072 -4.49364e-06 0)
(0.00101146 -4.5383e-06 0)
(0.0010122 -4.56545e-06 0)
(0.00101293 -4.57479e-06 0)
(0.00101367 -4.56529e-06 0)
(0.0010144 -4.53677e-06 0)
(0.00101512 -4.48785e-06 0)
(0.00101582 -4.4186e-06 0)
(0.00101651 -4.32711e-06 0)
(0.00101719 -4.21382e-06 0)
(0.00101784 -4.07605e-06 0)
(0.00101846 -3.91489e-06 0)
(0.00101906 -3.72644e-06 0)
(0.00101963 -3.51293e-06 0)
(0.00102016 -3.26853e-06 0)
(0.00102065 -2.99738e-06 0)
(0.00102109 -2.69062e-06 0)
(0.00102149 -2.35557e-06 0)
(0.00102184 -1.97865e-06 0)
(0.00102213 -1.5724e-06 0)
(0.00102236 -1.11572e-06 0)
(0.00102252 -6.29792e-07 0)
(0.0010226 -8.14703e-08 0)
(0.00102261 4.93707e-07 0)
(0.00102254 1.14924e-06 0)
(0.00102237 1.8269e-06 0)
(0.0010221 2.60991e-06 0)
(0.00102172 3.40338e-06 0)
(0.00102123 4.34006e-06 0)
(0.00102061 5.26467e-06 0)
(0.00101986 6.38964e-06 0)