/*--------------------------------*- C++ -*----------------------------------*\
| =========                 |                                                 |
| \\      /  F ield         | OpenFOAM: The Open Source CFD Toolbox           |
|  \\    /   O peration     | Version:  2312                                  |
|   \\  /    A nd           | Website:  www.openfoam.com                      |
|    \\/     M anipulation  |                                                 |
\*---------------------------------------------------------------------------*/
FoamFile
{
    version     2.0;
    format      ascii;
    arch        "LSB;label=32;scalar=64";
    class       volScalarField;
    location    "174000";
    object      p;
}
// * * * * * * * * * * * * * * * * * * * * * * * * * * * * * * * * * * * * * //

dimensions      [0 2 -2 0 0 0 0];

internalField   nonuniform List<scalar> 
10800
(
5.90632e-07
5.76504e-07
5.62725e-07
5.5213e-07
5.44685e-07
5.39265e-07
5.3478e-07
5.30661e-07
5.2674e-07
5.23025e-07
5.19553e-07
5.16326e-07
5.13312e-07
5.10461e-07
5.07725e-07
5.05072e-07
5.02479e-07
4.99932e-07
4.97421e-07
4.94937e-07
4.9247e-07
4.90012e-07
4.87556e-07
4.85097e-07
4.82629e-07
4.80147e-07
4.7765e-07
4.75133e-07
4.72594e-07
4.70032e-07
4.67445e-07
4.64832e-07
4.62191e-07
4.59523e-07
4.56828e-07
4.54104e-07
4.51354e-07
4.48576e-07
4.45771e-07
4.42941e-07
4.40084e-07
4.37202e-07
4.34295e-07
4.31363e-07
4.28405e-07
4.2542e-07
4.22409e-07
4.19367e-07
4.16298e-07
4.13188e-07
4.10054e-07
4.06849e-07
4.03647e-07
4.00287e-07
3.97053e-07
3.93332e-07
3.90348e-07
3.85324e-07
3.84376e-07
3.73044e-07
5.42624e-07
5.40892e-07
5.38237e-07
5.35095e-07
5.31857e-07
5.28734e-07
5.25777e-07
5.22951e-07
5.20204e-07
5.17506e-07
5.14851e-07
5.12244e-07
5.09692e-07
5.07195e-07
5.04746e-07
5.02335e-07
4.99954e-07
4.97593e-07
4.95246e-07
4.92909e-07
4.90576e-07
4.88243e-07
4.85907e-07
4.83563e-07
4.81207e-07
4.78837e-07
4.76451e-07
4.74045e-07
4.71619e-07
4.6917e-07
4.66697e-07
4.642e-07
4.61677e-07
4.59128e-07
4.56553e-07
4.5395e-07
4.51323e-07
4.48667e-07
4.45988e-07
4.43279e-07
4.40549e-07
4.37786e-07
4.35007e-07
4.3219e-07
4.29364e-07
4.26489e-07
4.23619e-07
4.20682e-07
4.17774e-07
4.1477e-07
4.11844e-07
4.08774e-07
4.05881e-07
4.02763e-07
4.00042e-07
3.96948e-07
3.94737e-07
3.91738e-07
3.90652e-07
3.87347e-07
5.33979e-07
5.33223e-07
5.31797e-07
5.29828e-07
5.27521e-07
5.25072e-07
5.22607e-07
5.20176e-07
5.17784e-07
5.15416e-07
5.13063e-07
5.10726e-07
5.08409e-07
5.06117e-07
5.03851e-07
5.0161e-07
4.99389e-07
4.97183e-07
4.94987e-07
4.92797e-07
4.90609e-07
4.8842e-07
4.86227e-07
4.84028e-07
4.81819e-07
4.79599e-07
4.77365e-07
4.75114e-07
4.72847e-07
4.70561e-07
4.68255e-07
4.65928e-07
4.63579e-07
4.61207e-07
4.58814e-07
4.56395e-07
4.53954e-07
4.51488e-07
4.49e-07
4.46483e-07
4.43948e-07
4.41381e-07
4.38798e-07
4.36179e-07
4.33549e-07
4.30878e-07
4.28203e-07
4.25478e-07
4.22763e-07
4.19986e-07
4.17244e-07
4.1442e-07
4.11675e-07
4.08817e-07
4.06107e-07
4.03233e-07
4.00616e-07
3.97734e-07
3.95252e-07
3.92266e-07
5.22353e-07
5.21915e-07
5.21118e-07
5.20012e-07
5.18665e-07
5.17149e-07
5.15522e-07
5.13821e-07
5.12068e-07
5.10273e-07
5.08444e-07
5.06585e-07
5.04703e-07
5.02803e-07
5.00891e-07
4.98968e-07
4.97037e-07
4.95097e-07
4.93149e-07
4.9119e-07
4.89221e-07
4.8724e-07
4.85247e-07
4.83241e-07
4.8122e-07
4.79185e-07
4.77134e-07
4.75065e-07
4.7298e-07
4.70876e-07
4.68754e-07
4.66613e-07
4.64452e-07
4.62271e-07
4.60071e-07
4.57849e-07
4.55608e-07
4.53345e-07
4.51062e-07
4.48756e-07
4.46431e-07
4.4408e-07
4.4171e-07
4.39313e-07
4.36897e-07
4.34449e-07
4.31982e-07
4.29479e-07
4.26955e-07
4.24388e-07
4.218e-07
4.19156e-07
4.16494e-07
4.13761e-07
4.11013e-07
4.08179e-07
4.05339e-07
4.02397e-07
3.99483e-07
3.96465e-07
5.15824e-07
5.15606e-07
5.15165e-07
5.14503e-07
5.13637e-07
5.12596e-07
5.11411e-07
5.10115e-07
5.0873e-07
5.07275e-07
5.05761e-07
5.04198e-07
5.02591e-07
5.00949e-07
4.99275e-07
4.97576e-07
4.95854e-07
4.94113e-07
4.92353e-07
4.90576e-07
4.88783e-07
4.86974e-07
4.85149e-07
4.8331e-07
4.81455e-07
4.79585e-07
4.777e-07
4.75799e-07
4.73884e-07
4.71953e-07
4.70006e-07
4.68044e-07
4.66066e-07
4.64072e-07
4.62063e-07
4.60038e-07
4.57997e-07
4.5594e-07
4.53866e-07
4.51776e-07
4.49669e-07
4.47544e-07
4.45401e-07
4.43238e-07
4.41056e-07
4.38851e-07
4.36623e-07
4.34369e-07
4.32088e-07
4.29775e-07
4.27428e-07
4.2504e-07
4.22603e-07
4.20105e-07
4.17531e-07
4.14864e-07
4.12086e-07
4.09201e-07
4.06211e-07
4.03233e-07
5.10502e-07
5.10334e-07
5.09999e-07
5.09499e-07
5.08845e-07
5.08052e-07
5.0714e-07
5.06124e-07
5.05022e-07
5.03846e-07
5.02605e-07
5.01307e-07
4.99958e-07
4.98565e-07
4.97132e-07
4.95663e-07
4.94164e-07
4.92636e-07
4.91083e-07
4.89506e-07
4.87907e-07
4.86288e-07
4.8465e-07
4.82994e-07
4.8132e-07
4.7963e-07
4.77925e-07
4.76204e-07
4.74468e-07
4.72718e-07
4.70954e-07
4.69177e-07
4.67387e-07
4.65584e-07
4.63768e-07
4.61941e-07
4.601e-07
4.58248e-07
4.56384e-07
4.54507e-07
4.52617e-07
4.50713e-07
4.48795e-07
4.46863e-07
4.44912e-07
4.42943e-07
4.40952e-07
4.38937e-07
4.36891e-07
4.34813e-07
4.32694e-07
4.30534e-07
4.28323e-07
4.26066e-07
4.23748e-07
4.2137e-07
4.18907e-07
4.16371e-07
4.13765e-07
4.1121e-07
5.06395e-07
5.06272e-07
5.06025e-07
5.05654e-07
5.05164e-07
5.04561e-07
5.03855e-07
5.03055e-07
5.02172e-07
5.01214e-07
5.00189e-07
4.99105e-07
4.97966e-07
4.96778e-07
4.95545e-07
4.94272e-07
4.92962e-07
4.9162e-07
4.90247e-07
4.88847e-07
4.87421e-07
4.85973e-07
4.84503e-07
4.83014e-07
4.81507e-07
4.79983e-07
4.78444e-07
4.7689e-07
4.75322e-07
4.73743e-07
4.72152e-07
4.7055e-07
4.68939e-07
4.67318e-07
4.65689e-07
4.64052e-07
4.62408e-07
4.60757e-07
4.59099e-07
4.57434e-07
4.55763e-07
4.54085e-07
4.524e-07
4.50707e-07
4.49004e-07
4.47293e-07
4.45569e-07
4.43833e-07
4.4208e-07
4.40311e-07
4.38517e-07
4.36695e-07
4.34826e-07
4.32912e-07
4.30937e-07
4.2891e-07
4.26815e-07
4.24677e-07
4.22503e-07
4.20406e-07
5.03218e-07
5.03122e-07
5.02927e-07
5.02635e-07
5.02245e-07
5.01762e-07
5.01192e-07
5.00539e-07
4.9981e-07
4.99012e-07
4.98149e-07
4.97228e-07
4.96252e-07
4.95227e-07
4.94157e-07
4.93046e-07
4.91897e-07
4.90714e-07
4.895e-07
4.88257e-07
4.86989e-07
4.85697e-07
4.84383e-07
4.8305e-07
4.81699e-07
4.80332e-07
4.78951e-07
4.77556e-07
4.76151e-07
4.74735e-07
4.73311e-07
4.71879e-07
4.70441e-07
4.68998e-07
4.67551e-07
4.66101e-07
4.64649e-07
4.63195e-07
4.61741e-07
4.60287e-07
4.58833e-07
4.57381e-07
4.55929e-07
4.54479e-07
4.53028e-07
4.51578e-07
4.50126e-07
4.48672e-07
4.47212e-07
4.45747e-07
4.44272e-07
4.42791e-07
4.41294e-07
4.39773e-07
4.38219e-07
4.36635e-07
4.35016e-07
4.33382e-07
4.3175e-07
4.30227e-07
5.00762e-07
5.00682e-07
5.00523e-07
5.00282e-07
4.9996e-07
4.99561e-07
4.99086e-07
4.98539e-07
4.97925e-07
4.97248e-07
4.96512e-07
4.95721e-07
4.9488e-07
4.93991e-07
4.93058e-07
4.92086e-07
4.91076e-07
4.90033e-07
4.88959e-07
4.87857e-07
4.86729e-07
4.85579e-07
4.84407e-07
4.83216e-07
4.82009e-07
4.80788e-07
4.79553e-07
4.78308e-07
4.77054e-07
4.75792e-07
4.74525e-07
4.73254e-07
4.71981e-07
4.70707e-07
4.69433e-07
4.68162e-07
4.66895e-07
4.65632e-07
4.64376e-07
4.63128e-07
4.61888e-07
4.60659e-07
4.5944e-07
4.58233e-07
4.57038e-07
4.55856e-07
4.54687e-07
4.53532e-07
4.52391e-07
4.51263e-07
4.50146e-07
4.49034e-07
4.47927e-07
4.46827e-07
4.45728e-07
4.44633e-07
4.43539e-07
4.42463e-07
4.41426e-07
4.40519e-07
4.98897e-07
4.9883e-07
4.98695e-07
4.98491e-07
4.98219e-07
4.97879e-07
4.97474e-07
4.97007e-07
4.9648e-07
4.95897e-07
4.9526e-07
4.94573e-07
4.93839e-07
4.93061e-07
4.92242e-07
4.91385e-07
4.90493e-07
4.89568e-07
4.88615e-07
4.87634e-07
4.86629e-07
4.85602e-07
4.84555e-07
4.83491e-07
4.82413e-07
4.81321e-07
4.80219e-07
4.79109e-07
4.77992e-07
4.76871e-07
4.75748e-07
4.74625e-07
4.73503e-07
4.72386e-07
4.71274e-07
4.7017e-07
4.69076e-07
4.67994e-07
4.66925e-07
4.65873e-07
4.64837e-07
4.63821e-07
4.62827e-07
4.61856e-07
4.60909e-07
4.59989e-07
4.59096e-07
4.58234e-07
4.57401e-07
4.566e-07
4.55842e-07
4.55113e-07
4.54417e-07
4.53756e-07
4.5313e-07
4.52544e-07
4.52e-07
4.51511e-07
4.51102e-07
4.50848e-07
4.97533e-07
4.97475e-07
4.97358e-07
4.97181e-07
4.96945e-07
4.9665e-07
4.96297e-07
4.9589e-07
4.95429e-07
4.94918e-07
4.94359e-07
4.93754e-07
4.93105e-07
4.92416e-07
4.91689e-07
4.90927e-07
4.90131e-07
4.89306e-07
4.88453e-07
4.87575e-07
4.86674e-07
4.85753e-07
4.84814e-07
4.83861e-07
4.82894e-07
4.81917e-07
4.80932e-07
4.79941e-07
4.78947e-07
4.77951e-07
4.76957e-07
4.75967e-07
4.74983e-07
4.74007e-07
4.73043e-07
4.72092e-07
4.71157e-07
4.7024e-07
4.69345e-07
4.68473e-07
4.67628e-07
4.66813e-07
4.66029e-07
4.65281e-07
4.6457e-07
4.63901e-07
4.63276e-07
4.62699e-07
4.62173e-07
4.61704e-07
4.61279e-07
4.60916e-07
4.60617e-07
4.60386e-07
4.60226e-07
4.60143e-07
4.60142e-07
4.60238e-07
4.60455e-07
4.60852e-07
4.96602e-07
4.96551e-07
4.96447e-07
4.9629e-07
4.96081e-07
4.95819e-07
4.95506e-07
4.95143e-07
4.94733e-07
4.94277e-07
4.93777e-07
4.93235e-07
4.92654e-07
4.92035e-07
4.91381e-07
4.90694e-07
4.89977e-07
4.89232e-07
4.88461e-07
4.87668e-07
4.86854e-07
4.86021e-07
4.85173e-07
4.84313e-07
4.83441e-07
4.82561e-07
4.81676e-07
4.80788e-07
4.79899e-07
4.79012e-07
4.7813e-07
4.77256e-07
4.76391e-07
4.7554e-07
4.74705e-07
4.73889e-07
4.73094e-07
4.72324e-07
4.71583e-07
4.70873e-07
4.70198e-07
4.69562e-07
4.68968e-07
4.6842e-07
4.67922e-07
4.67477e-07
4.67091e-07
4.66768e-07
4.66511e-07
4.66325e-07
4.66226e-07
4.66211e-07
4.66286e-07
4.66457e-07
4.66732e-07
4.67118e-07
4.67627e-07
4.68272e-07
4.69078e-07
4.7009e-07
4.96055e-07
4.96008e-07
4.95914e-07
4.95772e-07
4.95582e-07
4.95345e-07
4.9506e-07
4.94731e-07
4.94358e-07
4.93942e-07
4.93487e-07
4.92993e-07
4.92462e-07
4.91897e-07
4.91299e-07
4.9067e-07
4.90014e-07
4.89332e-07
4.88626e-07
4.879e-07
4.87155e-07
4.86393e-07
4.85618e-07
4.84832e-07
4.84038e-07
4.83237e-07
4.82434e-07
4.8163e-07
4.80828e-07
4.80031e-07
4.79242e-07
4.78463e-07
4.77699e-07
4.76952e-07
4.76225e-07
4.75521e-07
4.74845e-07
4.74199e-07
4.73588e-07
4.73015e-07
4.72484e-07
4.72e-07
4.71567e-07
4.7119e-07
4.70873e-07
4.70623e-07
4.70444e-07
4.70342e-07
4.70324e-07
4.70394e-07
4.70557e-07
4.70834e-07
4.71227e-07
4.71743e-07
4.72395e-07
4.7319e-07
4.74144e-07
4.75269e-07
4.76589e-07
4.78136e-07
4.95857e-07
4.95813e-07
4.95725e-07
4.95593e-07
4.95416e-07
4.95195e-07
4.9493e-07
4.94623e-07
4.94276e-07
4.9389e-07
4.93466e-07
4.93005e-07
4.92511e-07
4.91984e-07
4.91426e-07
4.9084e-07
4.90228e-07
4.89592e-07
4.88934e-07
4.88257e-07
4.87563e-07
4.86855e-07
4.86135e-07
4.85405e-07
4.84669e-07
4.83929e-07
4.83188e-07
4.82448e-07
4.81713e-07
4.80986e-07
4.80269e-07
4.79565e-07
4.78879e-07
4.78213e-07
4.7757e-07
4.76955e-07
4.76371e-07
4.75823e-07
4.75313e-07
4.74848e-07
4.7443e-07
4.74066e-07
4.73759e-07
4.73517e-07
4.73344e-07
4.73246e-07
4.7323e-07
4.73303e-07
4.73472e-07
4.73744e-07
4.74128e-07
4.74628e-07
4.75263e-07
4.76043e-07
4.76984e-07
4.78102e-07
4.79404e-07
4.80904e-07
4.82627e-07
4.84593e-07
4.95981e-07
4.9594e-07
4.95856e-07
4.9573e-07
4.95561e-07
4.95351e-07
4.95099e-07
4.94806e-07
4.94474e-07
4.94104e-07
4.93698e-07
4.93258e-07
4.92786e-07
4.92282e-07
4.9175e-07
4.9119e-07
4.90606e-07
4.89999e-07
4.89372e-07
4.88728e-07
4.88067e-07
4.87394e-07
4.8671e-07
4.86018e-07
4.85322e-07
4.84622e-07
4.83924e-07
4.83228e-07
4.82539e-07
4.81859e-07
4.81192e-07
4.8054e-07
4.79908e-07
4.79298e-07
4.78715e-07
4.78161e-07
4.77642e-07
4.77161e-07
4.76723e-07
4.76332e-07
4.75993e-07
4.75712e-07
4.75493e-07
4.75343e-07
4.75268e-07
4.75274e-07
4.75368e-07
4.75559e-07
4.75854e-07
4.76262e-07
4.76793e-07
4.77457e-07
4.78267e-07
4.79235e-07
4.80373e-07
4.81687e-07
4.83206e-07
4.84943e-07
4.86921e-07
4.89154e-07
4.96413e-07
4.96372e-07
4.9629e-07
4.96166e-07
4.96e-07
4.95793e-07
4.95544e-07
4.95257e-07
4.94931e-07
4.94568e-07
4.9417e-07
4.93738e-07
4.93274e-07
4.9278e-07
4.92258e-07
4.9171e-07
4.91138e-07
4.90544e-07
4.89931e-07
4.89301e-07
4.88657e-07
4.88e-07
4.87334e-07
4.86661e-07
4.85984e-07
4.85306e-07
4.84629e-07
4.83956e-07
4.83291e-07
4.82637e-07
4.81996e-07
4.81373e-07
4.8077e-07
4.80191e-07
4.79639e-07
4.7912e-07
4.78636e-07
4.78192e-07
4.77792e-07
4.77441e-07
4.77144e-07
4.76907e-07
4.76734e-07
4.76631e-07
4.76606e-07
4.76665e-07
4.76814e-07
4.77062e-07
4.77418e-07
4.7789e-07
4.78488e-07
4.79223e-07
4.80106e-07
4.8115e-07
4.82368e-07
4.83773e-07
4.85385e-07
4.87218e-07
4.89295e-07
4.91628e-07
4.97149e-07
4.97108e-07
4.97024e-07
4.96899e-07
4.9673e-07
4.9652e-07
4.96268e-07
4.95976e-07
4.95646e-07
4.95279e-07
4.94876e-07
4.9444e-07
4.93971e-07
4.93473e-07
4.92946e-07
4.92394e-07
4.91818e-07
4.91221e-07
4.90604e-07
4.89972e-07
4.89325e-07
4.88667e-07
4.87999e-07
4.87326e-07
4.86649e-07
4.85971e-07
4.85295e-07
4.84625e-07
4.83962e-07
4.83311e-07
4.82673e-07
4.82054e-07
4.81455e-07
4.8088e-07
4.80334e-07
4.7982e-07
4.79341e-07
4.78903e-07
4.78508e-07
4.78163e-07
4.77871e-07
4.77638e-07
4.77469e-07
4.77369e-07
4.77346e-07
4.77404e-07
4.77552e-07
4.77798e-07
4.78148e-07
4.78611e-07
4.79198e-07
4.79917e-07
4.8078e-07
4.81798e-07
4.82985e-07
4.84353e-07
4.85919e-07
4.87699e-07
4.89711e-07
4.91973e-07
4.98194e-07
4.9815e-07
4.98063e-07
4.97931e-07
4.97755e-07
4.97535e-07
4.97271e-07
4.96966e-07
4.96621e-07
4.96238e-07
4.95818e-07
4.95364e-07
4.94876e-07
4.94358e-07
4.93812e-07
4.93239e-07
4.92643e-07
4.92025e-07
4.91388e-07
4.90735e-07
4.90067e-07
4.89389e-07
4.88701e-07
4.88008e-07
4.87311e-07
4.86613e-07
4.85918e-07
4.85228e-07
4.84546e-07
4.83874e-07
4.83217e-07
4.82577e-07
4.81958e-07
4.81363e-07
4.80795e-07
4.80257e-07
4.79755e-07
4.79291e-07
4.7887e-07
4.78497e-07
4.78175e-07
4.77907e-07
4.77701e-07
4.7756e-07
4.77491e-07
4.775e-07
4.77592e-07
4.77776e-07
4.78057e-07
4.78444e-07
4.78944e-07
4.79567e-07
4.80321e-07
4.81217e-07
4.82266e-07
4.8348e-07
4.84871e-07
4.86458e-07
4.88254e-07
4.90285e-07
4.99562e-07
4.99515e-07
4.9942e-07
4.99278e-07
4.99087e-07
4.98849e-07
4.98565e-07
4.98236e-07
4.97865e-07
4.97453e-07
4.97002e-07
4.96515e-07
4.95994e-07
4.9544e-07
4.94858e-07
4.94248e-07
4.93613e-07
4.92957e-07
4.92282e-07
4.91589e-07
4.90883e-07
4.90165e-07
4.89438e-07
4.88705e-07
4.87968e-07
4.87231e-07
4.86496e-07
4.85765e-07
4.85042e-07
4.84329e-07
4.83629e-07
4.82946e-07
4.82282e-07
4.8164e-07
4.81025e-07
4.80438e-07
4.79883e-07
4.79365e-07
4.78887e-07
4.78454e-07
4.78067e-07
4.77735e-07
4.77461e-07
4.77232e-07
4.77072e-07
4.76984e-07
4.76972e-07
4.77042e-07
4.77199e-07
4.77448e-07
4.77797e-07
4.78252e-07
4.78821e-07
4.79511e-07
4.80331e-07
4.81292e-07
4.82401e-07
4.83677e-07
4.85131e-07
4.86802e-07
5.01279e-07
5.01227e-07
5.01121e-07
5.00962e-07
5.0075e-07
5.00485e-07
5.00169e-07
4.99805e-07
4.99393e-07
4.98938e-07
4.9844e-07
4.97904e-07
4.97332e-07
4.96726e-07
4.96089e-07
4.95423e-07
4.94733e-07
4.9402e-07
4.93287e-07
4.92536e-07
4.91772e-07
4.90995e-07
4.9021e-07
4.89418e-07
4.88622e-07
4.87825e-07
4.87029e-07
4.86238e-07
4.85453e-07
4.84677e-07
4.83914e-07
4.83165e-07
4.82434e-07
4.81723e-07
4.81036e-07
4.80375e-07
4.79743e-07
4.79143e-07
4.78579e-07
4.78052e-07
4.77567e-07
4.77127e-07
4.76732e-07
4.76406e-07
4.7613e-07
4.7591e-07
4.75755e-07
4.75669e-07
4.75656e-07
4.7572e-07
4.75864e-07
4.76097e-07
4.76419e-07
4.76839e-07
4.77359e-07
4.77992e-07
4.78737e-07
4.79617e-07
4.80639e-07
4.81854e-07
5.03387e-07
5.03326e-07
5.03205e-07
5.03023e-07
5.02779e-07
5.02475e-07
5.02114e-07
5.01698e-07
5.01229e-07
5.00713e-07
5.0015e-07
4.99546e-07
4.98902e-07
4.98223e-07
4.97512e-07
4.96771e-07
4.96005e-07
4.95215e-07
4.94405e-07
4.93577e-07
4.92735e-07
4.91881e-07
4.91017e-07
4.90147e-07
4.89273e-07
4.88397e-07
4.87522e-07
4.8665e-07
4.85784e-07
4.84926e-07
4.84079e-07
4.83245e-07
4.82427e-07
4.81626e-07
4.80846e-07
4.80089e-07
4.79357e-07
4.78654e-07
4.77981e-07
4.77341e-07
4.76737e-07
4.76172e-07
4.75648e-07
4.7517e-07
4.74739e-07
4.74359e-07
4.74027e-07
4.73749e-07
4.73528e-07
4.73369e-07
4.73271e-07
4.7324e-07
4.73274e-07
4.7338e-07
4.73554e-07
4.73809e-07
4.7414e-07
4.74571e-07
4.75105e-07
4.75809e-07
5.05943e-07
5.05872e-07
5.05728e-07
5.05512e-07
5.05223e-07
5.04865e-07
5.0444e-07
5.03952e-07
5.03405e-07
5.02805e-07
5.02154e-07
5.01458e-07
5.0072e-07
4.99945e-07
4.99137e-07
4.98298e-07
4.97433e-07
4.96545e-07
4.95636e-07
4.9471e-07
4.9377e-07
4.92819e-07
4.91858e-07
4.90891e-07
4.8992e-07
4.88947e-07
4.87974e-07
4.87004e-07
4.86039e-07
4.85081e-07
4.84132e-07
4.83195e-07
4.82271e-07
4.81362e-07
4.80471e-07
4.79599e-07
4.7875e-07
4.77924e-07
4.77123e-07
4.76351e-07
4.75608e-07
4.74898e-07
4.74221e-07
4.7358e-07
4.72976e-07
4.72411e-07
4.71885e-07
4.714e-07
4.70952e-07
4.70546e-07
4.70182e-07
4.69866e-07
4.69588e-07
4.69357e-07
4.69162e-07
4.69018e-07
4.68913e-07
4.68873e-07
4.68898e-07
4.69068e-07
5.09032e-07
5.08945e-07
5.08768e-07
5.08503e-07
5.0815e-07
5.07713e-07
5.07198e-07
5.06611e-07
5.05958e-07
5.05245e-07
5.04478e-07
5.03662e-07
5.02803e-07
5.01905e-07
5.00973e-07
5.00012e-07
4.99024e-07
4.98014e-07
4.96985e-07
4.95939e-07
4.94881e-07
4.93812e-07
4.92734e-07
4.91651e-07
4.90564e-07
4.89475e-07
4.88387e-07
4.87302e-07
4.8622e-07
4.85145e-07
4.84077e-07
4.8302e-07
4.81973e-07
4.8094e-07
4.79921e-07
4.78919e-07
4.77935e-07
4.7697e-07
4.76026e-07
4.75104e-07
4.74205e-07
4.73332e-07
4.72484e-07
4.71662e-07
4.70867e-07
4.701e-07
4.69359e-07
4.6865e-07
4.67968e-07
4.67318e-07
4.66689e-07
4.66085e-07
4.65493e-07
4.64921e-07
4.64358e-07
4.63817e-07
4.63281e-07
4.62779e-07
4.62306e-07
4.6196e-07
5.12777e-07
5.12663e-07
5.12435e-07
5.12094e-07
5.11643e-07
5.11091e-07
5.10445e-07
5.09716e-07
5.08915e-07
5.0805e-07
5.0713e-07
5.06161e-07
5.0515e-07
5.04101e-07
5.03019e-07
5.0191e-07
5.00776e-07
4.99623e-07
4.98452e-07
4.97268e-07
4.96072e-07
4.94868e-07
4.93657e-07
4.92442e-07
4.91224e-07
4.90006e-07
4.88788e-07
4.87572e-07
4.86361e-07
4.85154e-07
4.83955e-07
4.82764e-07
4.81582e-07
4.80411e-07
4.79253e-07
4.78107e-07
4.76976e-07
4.75861e-07
4.74762e-07
4.73681e-07
4.72618e-07
4.71574e-07
4.7055e-07
4.69547e-07
4.68564e-07
4.67602e-07
4.66659e-07
4.65735e-07
4.64825e-07
4.63927e-07
4.63033e-07
4.62145e-07
4.61253e-07
4.60361e-07
4.59457e-07
4.58555e-07
4.57626e-07
4.56698e-07
4.55758e-07
4.54912e-07
5.17381e-07
5.17224e-07
5.1691e-07
5.16443e-07
5.15831e-07
5.15092e-07
5.14244e-07
5.13304e-07
5.1229e-07
5.11213e-07
5.10082e-07
5.08908e-07
5.07695e-07
5.0645e-07
5.05178e-07
5.03884e-07
5.02572e-07
5.01247e-07
4.99909e-07
4.98564e-07
4.97211e-07
4.95854e-07
4.94493e-07
4.93131e-07
4.91768e-07
4.90406e-07
4.89046e-07
4.87689e-07
4.86336e-07
4.84988e-07
4.83647e-07
4.82312e-07
4.80985e-07
4.79667e-07
4.78358e-07
4.7706e-07
4.75773e-07
4.74497e-07
4.73235e-07
4.71985e-07
4.70748e-07
4.69526e-07
4.68316e-07
4.67119e-07
4.65934e-07
4.6476e-07
4.63595e-07
4.62439e-07
4.61287e-07
4.60142e-07
4.58997e-07
4.57856e-07
4.56707e-07
4.5556e-07
4.5438e-07
4.53182e-07
4.51929e-07
4.50646e-07
4.49319e-07
4.48068e-07
5.23116e-07
5.22907e-07
5.22487e-07
5.21858e-07
5.21036e-07
5.20052e-07
5.18936e-07
5.1772e-07
5.16428e-07
5.15077e-07
5.1368e-07
5.12247e-07
5.10783e-07
5.09297e-07
5.07794e-07
5.06278e-07
5.04755e-07
5.03226e-07
5.01694e-07
5.00161e-07
4.98627e-07
4.97095e-07
4.95563e-07
4.94035e-07
4.92509e-07
4.90986e-07
4.89467e-07
4.87953e-07
4.86444e-07
4.8494e-07
4.83442e-07
4.8195e-07
4.80465e-07
4.78988e-07
4.77518e-07
4.76057e-07
4.74605e-07
4.73162e-07
4.71729e-07
4.70306e-07
4.68894e-07
4.67492e-07
4.66102e-07
4.64723e-07
4.63355e-07
4.61998e-07
4.6065e-07
4.59312e-07
4.57981e-07
4.56655e-07
4.55327e-07
4.53993e-07
4.52644e-07
4.51272e-07
4.49859e-07
4.48396e-07
4.4687e-07
4.45296e-07
4.43652e-07
4.42037e-07
5.30004e-07
5.29577e-07
5.28801e-07
5.27728e-07
5.26426e-07
5.24967e-07
5.23408e-07
5.21788e-07
5.20129e-07
5.18442e-07
5.16732e-07
5.15006e-07
5.1327e-07
5.1153e-07
5.09792e-07
5.08058e-07
5.06331e-07
5.0461e-07
5.02896e-07
5.01189e-07
4.99487e-07
4.97792e-07
4.96103e-07
4.94419e-07
4.9274e-07
4.91066e-07
4.89397e-07
4.87731e-07
4.86071e-07
4.84414e-07
4.82762e-07
4.81113e-07
4.7947e-07
4.77831e-07
4.76197e-07
4.74568e-07
4.72946e-07
4.71328e-07
4.69717e-07
4.68112e-07
4.66515e-07
4.64923e-07
4.6334e-07
4.61761e-07
4.60192e-07
4.58625e-07
4.57069e-07
4.55512e-07
4.53967e-07
4.52414e-07
4.50877e-07
4.49326e-07
4.47795e-07
4.4624e-07
4.4471e-07
4.43144e-07
4.41606e-07
4.40013e-07
4.38469e-07
4.36845e-07
5.41859e-07
5.41115e-07
5.39714e-07
5.37781e-07
5.35521e-07
5.33132e-07
5.30739e-07
5.28393e-07
5.26097e-07
5.23839e-07
5.21609e-07
5.19407e-07
5.17239e-07
5.15109e-07
5.13021e-07
5.10971e-07
5.08957e-07
5.06973e-07
5.05016e-07
5.03081e-07
5.01166e-07
4.99268e-07
4.97386e-07
4.95517e-07
4.93659e-07
4.9181e-07
4.89969e-07
4.88135e-07
4.86307e-07
4.84483e-07
4.82664e-07
4.80849e-07
4.79038e-07
4.7723e-07
4.75426e-07
4.73625e-07
4.71829e-07
4.70035e-07
4.68248e-07
4.66461e-07
4.64684e-07
4.62907e-07
4.61143e-07
4.59376e-07
4.57629e-07
4.55873e-07
4.54147e-07
4.52406e-07
4.50711e-07
4.48989e-07
4.47338e-07
4.45643e-07
4.4406e-07
4.42405e-07
4.4093e-07
4.39333e-07
4.3802e-07
4.36491e-07
4.35375e-07
4.33798e-07
5.50706e-07
5.48984e-07
5.4635e-07
5.43242e-07
5.4005e-07
5.36986e-07
5.341e-07
5.31357e-07
5.28705e-07
5.26115e-07
5.2358e-07
5.21106e-07
5.18701e-07
5.16364e-07
5.14088e-07
5.11866e-07
5.09688e-07
5.07547e-07
5.05437e-07
5.03353e-07
5.01293e-07
4.99252e-07
4.97227e-07
4.95215e-07
4.93214e-07
4.91221e-07
4.89235e-07
4.87254e-07
4.85278e-07
4.83304e-07
4.81333e-07
4.79363e-07
4.77396e-07
4.75429e-07
4.73465e-07
4.71501e-07
4.69541e-07
4.6758e-07
4.65625e-07
4.63668e-07
4.61721e-07
4.59769e-07
4.57832e-07
4.55887e-07
4.53964e-07
4.52024e-07
4.50122e-07
4.48186e-07
4.46315e-07
4.44382e-07
4.42567e-07
4.40643e-07
4.38939e-07
4.37047e-07
4.35593e-07
4.33805e-07
4.3294e-07
4.31338e-07
4.31658e-07
4.2982e-07
5.98789e-07
5.84672e-07
5.70918e-07
5.6036e-07
5.52962e-07
5.47603e-07
5.4319e-07
5.39155e-07
5.35329e-07
5.31721e-07
5.28367e-07
5.25272e-07
5.22402e-07
5.19708e-07
5.17144e-07
5.14675e-07
5.12283e-07
5.09953e-07
5.07675e-07
5.05441e-07
5.03244e-07
5.01075e-07
4.98929e-07
4.96801e-07
4.94687e-07
4.92584e-07
4.90488e-07
4.88399e-07
4.86313e-07
4.84231e-07
4.82151e-07
4.80073e-07
4.77996e-07
4.75919e-07
4.73844e-07
4.71771e-07
4.69699e-07
4.67629e-07
4.65562e-07
4.63498e-07
4.61438e-07
4.59383e-07
4.57333e-07
4.55288e-07
4.53249e-07
4.51215e-07
4.49188e-07
4.47163e-07
4.45147e-07
4.43124e-07
4.41117e-07
4.39075e-07
4.37081e-07
4.34961e-07
4.33025e-07
4.30624e-07
4.29032e-07
4.25412e-07
4.25923e-07
4.16205e-07
4.1153e-07
3.59888e-07
3.37529e-07
3.18167e-07
2.98644e-07
2.78924e-07
2.57341e-07
2.34608e-07
2.0897e-07
1.8202e-07
1.51942e-07
1.21506e-07
8.86321e-08
5.734e-08
2.50818e-08
-2.93539e-09
-3.02024e-08
-5.07223e-08
-6.92602e-08
-7.91256e-08
-8.6859e-08
-8.47077e-08
-8.1678e-08
-6.76133e-08
-5.57025e-08
-3.07801e-08
-1.69478e-08
1.66898e-08
2.52954e-08
-2.23026e-08
3.97149e-07
3.40682e-07
3.25274e-07
3.08401e-07
2.8952e-07
2.70213e-07
2.49143e-07
2.26805e-07
2.01571e-07
1.75206e-07
1.4594e-07
1.16515e-07
8.48517e-08
5.48382e-08
2.39174e-08
-3.02021e-09
-2.93351e-08
-4.93507e-08
-6.78256e-08
-7.80638e-08
-8.66891e-08
-8.56545e-08
-8.4404e-08
-7.25322e-08
-6.27354e-08
-4.0646e-08
-2.48702e-08
-1.90773e-09
2.96981e-08
-5.6213e-08
3.84499e-07
3.37622e-07
3.23269e-07
3.06886e-07
2.87647e-07
2.67671e-07
2.46084e-07
2.23384e-07
1.98153e-07
1.71736e-07
1.42732e-07
1.13446e-07
8.22663e-08
5.25474e-08
2.22195e-08
-4.399e-09
-3.02569e-08
-5.01726e-08
-6.83609e-08
-7.88702e-08
-8.75242e-08
-8.74445e-08
-8.61959e-08
-7.57988e-08
-6.54514e-08
-4.82237e-08
-2.9127e-08
-1.78747e-08
3.33598e-08
-1.8048e-08
3.73785e-07
3.32829e-07
3.16441e-07
3.00549e-07
2.81886e-07
2.62424e-07
2.41145e-07
2.18489e-07
1.93391e-07
1.66945e-07
1.38248e-07
1.09061e-07
7.84611e-08
4.89311e-08
1.93778e-08
-7.15502e-09
-3.22046e-08
-5.23697e-08
-6.98563e-08
-8.12589e-08
-8.92884e-08
-9.10832e-08
-8.88068e-08
-8.17646e-08
-6.92732e-08
-5.76127e-08
-3.16776e-08
-2.84509e-08
2.60175e-08
9.28137e-10
3.63363e-07
3.29509e-07
3.12143e-07
2.97467e-07
2.79556e-07
2.593e-07
2.37518e-07
2.14342e-07
1.89199e-07
1.62383e-07
1.33859e-07
1.04395e-07
7.42682e-08
4.4543e-08
1.5701e-08
-1.10957e-08
-3.53005e-08
-5.60547e-08
-7.26754e-08
-8.52031e-08
-9.2291e-08
-9.58776e-08
-9.23405e-08
-8.79636e-08
-7.31664e-08
-6.47244e-08
-3.65448e-08
-3.13439e-08
1.07003e-08
1.42524e-08
3.54099e-07
3.27007e-07
3.08726e-07
2.93628e-07
2.75917e-07
2.55658e-07
2.33726e-07
2.10115e-07
1.84834e-07
1.57587e-07
1.29087e-07
9.92392e-08
6.93898e-08
3.93403e-08
1.10336e-08
-1.61323e-08
-3.96366e-08
-6.09819e-08
-7.68509e-08
-9.03367e-08
-9.66592e-08
-1.01551e-07
-9.73136e-08
-9.42514e-08
-7.91467e-08
-7.04165e-08
-4.50071e-08
-3.30901e-08
-3.30988e-09
1.50053e-08
3.46302e-07
3.24696e-07
3.06178e-07
2.90278e-07
2.7273e-07
2.52402e-07
2.30199e-07
2.06008e-07
1.80383e-07
1.5261e-07
1.2392e-07
9.36304e-08
6.37986e-08
3.34291e-08
5.35849e-09
-2.20725e-08
-4.52226e-08
-6.68944e-08
-8.24756e-08
-9.6407e-08
-1.0269e-07
-1.07978e-07
-1.04205e-07
-1.00949e-07
-8.74555e-08
-7.65965e-08
-5.55441e-08
-3.79925e-08
-1.39238e-08
8.2337e-09
3.40181e-07
3.22439e-07
3.04311e-07
2.87442e-07
2.69664e-07
2.4918e-07
2.26623e-07
2.01836e-07
1.75674e-07
1.47355e-07
1.18249e-07
8.75434e-08
5.74501e-08
2.68474e-08
-1.32833e-09
-2.8835e-08
-5.20603e-08
-7.37227e-08
-8.95745e-08
-1.03436e-07
-1.10439e-07
-1.15427e-07
-1.13067e-07
-1.08829e-07
-9.75917e-08
-8.47607e-08
-6.64563e-08
-4.65484e-08
-2.39713e-08
-6.90285e-10
3.35814e-07
3.2024e-07
3.02657e-07
2.85068e-07
2.66737e-07
2.45926e-07
2.22901e-07
1.97513e-07
1.70651e-07
1.4176e-07
1.12041e-07
8.09396e-08
5.03558e-08
1.95812e-08
-8.973e-09
-3.64284e-08
-6.0046e-08
-8.15126e-08
-9.79665e-08
-1.11564e-07
-1.19528e-07
-1.24175e-07
-1.23125e-07
-1.18476e-07
-1.08698e-07
-9.5385e-08
-7.80231e-08
-5.77759e-08
-3.51818e-08
-1.18445e-08
3.32976e-07
3.18138e-07
3.0102e-07
2.82971e-07
2.63901e-07
2.42562e-07
2.18932e-07
1.92917e-07
1.65247e-07
1.35737e-07
1.05274e-07
7.37487e-08
4.25425e-08
1.1581e-08
-1.74827e-08
-4.48985e-08
-6.90151e-08
-9.03312e-08
-1.07418e-07
-1.20904e-07
-1.29716e-07
-1.34408e-07
-1.34361e-07
-1.29964e-07
-1.21076e-07
-1.08032e-07
-9.11978e-08
-7.10871e-08
-4.85354e-08
-2.51162e-08
3.31209e-07
3.16243e-07
2.99288e-07
2.80881e-07
2.61026e-07
2.38994e-07
2.14626e-07
1.87926e-07
1.59394e-07
1.29193e-07
9.79223e-08
6.58948e-08
3.40257e-08
2.79377e-09
-2.67865e-08
-5.42826e-08
-7.88539e-08
-1.00205e-07
-1.17811e-07
-1.31468e-07
-1.40951e-07
-1.46068e-07
-1.46827e-07
-1.43057e-07
-1.34971e-07
-1.2257e-07
-1.06318e-07
-8.66081e-08
-6.42565e-08
-4.08726e-08
3.29986e-07
3.14591e-07
2.97434e-07
2.78592e-07
2.57942e-07
2.35108e-07
2.09902e-07
1.82433e-07
1.5301e-07
1.22036e-07
8.99331e-08
5.73059e-08
2.47782e-08
-6.83204e-09
-3.68901e-08
-6.46036e-08
-8.9558e-08
-1.11122e-07
-1.29157e-07
-1.43192e-07
-1.53279e-07
-1.59044e-07
-1.60607e-07
-1.57714e-07
-1.50527e-07
-1.39044e-07
-1.23546e-07
-1.04499e-07
-8.25364e-08
-5.9501e-08
3.28881e-07
3.13055e-07
2.95419e-07
2.75967e-07
2.54486e-07
2.30779e-07
2.04672e-07
1.76341e-07
1.45997e-07
1.14168e-07
8.12156e-08
4.78956e-08
1.4719e-08
-1.73683e-08
-4.7872e-08
-7.59105e-08
-1.01206e-07
-1.23096e-07
-1.41534e-07
-1.5607e-07
-1.66776e-07
-1.73328e-07
-1.75791e-07
-1.7395e-07
-1.67856e-07
-1.57502e-07
-1.43034e-07
-1.24888e-07
-1.03645e-07
-8.11311e-08
3.27642e-07
3.11433e-07
2.9315e-07
2.72914e-07
2.50545e-07
2.25909e-07
1.98842e-07
1.69553e-07
1.38236e-07
1.05468e-07
7.16367e-08
3.75435e-08
3.70828e-09
-2.893e-08
-5.98746e-08
-8.83075e-08
-1.13937e-07
-1.36217e-07
-1.55066e-07
-1.70173e-07
-1.81545e-07
-1.88985e-07
-1.92459e-07
-1.91836e-07
-1.87026e-07
-1.78054e-07
-1.64891e-07
-1.47984e-07
-1.27768e-07
-1.06214e-07
3.26164e-07
3.09529e-07
2.90518e-07
2.69392e-07
2.46062e-07
2.20416e-07
1.9231e-07
1.61953e-07
1.29581e-07
9.57829e-08
6.10161e-08
2.60772e-08
-8.45166e-09
-4.16935e-08
-7.30983e-08
-1.0196e-07
-1.27938e-07
-1.50633e-07
-1.69915e-07
-1.85626e-07
-1.97716e-07
-2.06113e-07
-2.1071e-07
-2.11449e-07
-2.08133e-07
-2.00794e-07
-1.8927e-07
-1.73955e-07
-1.55196e-07
-1.34961e-07
3.24466e-07
3.07263e-07
2.87482e-07
2.65402e-07
2.41011e-07
2.14227e-07
1.84948e-07
1.53387e-07
1.19842e-07
8.49078e-08
4.9123e-08
1.32662e-08
-2.20099e-08
-5.58933e-08
-8.77851e-08
-1.17085e-07
-1.43422e-07
-1.66528e-07
-1.86254e-07
-2.02575e-07
-2.15414e-07
-2.24816e-07
-2.30627e-07
-2.32861e-07
-2.31244e-07
-2.25807e-07
-2.16278e-07
-2.02976e-07
-1.8617e-07
-1.67759e-07
3.2269e-07
3.04701e-07
2.84063e-07
2.60938e-07
2.3534e-07
2.07233e-07
1.7659e-07
1.4365e-07
1.0878e-07
7.25864e-08
3.56793e-08
-1.16878e-09
-3.72508e-08
-7.17997e-08
-1.04195e-07
-1.33918e-07
-1.60604e-07
-1.84088e-07
-2.04243e-07
-2.21148e-07
-2.34741e-07
-2.45165e-07
-2.52254e-07
-2.56098e-07
-2.56365e-07
-2.53109e-07
-2.45948e-07
-2.35155e-07
-2.20874e-07
-2.04966e-07
3.21036e-07
3.01961e-07
2.80277e-07
2.55932e-07
2.28907e-07
1.99235e-07
1.66987e-07
1.32465e-07
9.60931e-08
5.85054e-08
2.03649e-08
-1.75418e-08
-5.44771e-08
-8.9695e-08
-1.22588e-07
-1.5269e-07
-1.79685e-07
-2.03481e-07
-2.24013e-07
-2.41439e-07
-2.55758e-07
-2.67182e-07
-2.75588e-07
-2.81111e-07
-2.83438e-07
-2.82611e-07
-2.78224e-07
-2.70452e-07
-2.59399e-07
-2.4675e-07
3.19611e-07
2.99129e-07
2.7607e-07
2.50188e-07
2.21432e-07
1.89909e-07
1.55796e-07
1.19472e-07
8.14129e-08
4.22954e-08
2.81851e-09
-3.61978e-08
-7.40111e-08
-1.09876e-07
-1.43232e-07
-1.7364e-07
-2.00875e-07
-2.2488e-07
-2.45704e-07
-2.63544e-07
-2.7852e-07
-2.90874e-07
-3.00594e-07
-3.07821e-07
-3.12335e-07
-3.14152e-07
-3.12917e-07
-3.08704e-07
-3.01626e-07
-2.93183e-07
3.18215e-07
2.96026e-07
2.71138e-07
2.43289e-07
2.12447e-07
1.78782e-07
1.42548e-07
1.04204e-07
6.4276e-08
2.35008e-08
-1.73989e-08
-5.75546e-08
-9.62446e-08
-1.32707e-07
-1.66462e-07
-1.97078e-07
-2.24456e-07
-2.48537e-07
-2.69539e-07
-2.87636e-07
-3.03155e-07
-3.16292e-07
-3.27266e-07
-3.36136e-07
-3.42911e-07
-3.47486e-07
-3.49729e-07
-3.49534e-07
-3.47197e-07
-3.43906e-07
3.16161e-07
2.91961e-07
2.64814e-07
2.34589e-07
2.01316e-07
1.65216e-07
1.26604e-07
8.60192e-08
4.40437e-08
1.48895e-09
-4.09022e-08
-8.22074e-08
-1.21743e-07
-1.58726e-07
-1.92784e-07
-2.23477e-07
-2.50867e-07
-2.74862e-07
-2.95888e-07