/*--------------------------------*- C++ -*----------------------------------*\
| =========                 |                                                 |
| \\      /  F ield         | OpenFOAM: The Open Source CFD Toolbox           |
|  \\    /   O peration     | Version:  2312                                  |
|   \\  /    A nd           | Website:  www.openfoam.com                      |
|    \\/     M anipulation  |                                                 |
\*---------------------------------------------------------------------------*/
FoamFile
{
    version     2.0;
    format      ascii;
    arch        "LSB;label=32;scalar=64";
    class       volScalarField;
    location    "42000";
    object      p;
}
// * * * * * * * * * * * * * * * * * * * * * * * * * * * * * * * * * * * * * //

dimensions      [0 2 -2 0 0 0 0];

internalField   nonuniform List<scalar> 
10800
(
4.89823e-07
4.757e-07
4.61933e-07
4.51355e-07
4.43933e-07
4.38541e-07
4.3409e-07
4.30011e-07
4.26135e-07
4.22471e-07
4.19054e-07
4.1589e-07
4.12944e-07
4.10166e-07
4.07511e-07
4.04945e-07
4.02446e-07
4.00001e-07
3.976e-07
3.95234e-07
3.92894e-07
3.90572e-07
3.88262e-07
3.85959e-07
3.83657e-07
3.81354e-07
3.79046e-07
3.7673e-07
3.74405e-07
3.72069e-07
3.6972e-07
3.67358e-07
3.64982e-07
3.62592e-07
3.60188e-07
3.57769e-07
3.55336e-07
3.5289e-07
3.5043e-07
3.47957e-07
3.45471e-07
3.42974e-07
3.40464e-07
3.37943e-07
3.35409e-07
3.32863e-07
3.30304e-07
3.27729e-07
3.25142e-07
3.22527e-07
3.19906e-07
3.17227e-07
3.14572e-07
3.11768e-07
3.09119e-07
3.05984e-07
3.03625e-07
2.99216e-07
2.98906e-07
2.88305e-07
4.41779e-07
4.40052e-07
4.37407e-07
4.34281e-07
4.31065e-07
4.27971e-07
4.25047e-07
4.2226e-07
4.19559e-07
4.16912e-07
4.14314e-07
4.1177e-07
4.09288e-07
4.06867e-07
4.045e-07
4.02178e-07
3.99893e-07
3.97636e-07
3.95402e-07
3.93185e-07
3.90981e-07
3.88786e-07
3.86597e-07
3.8441e-07
3.82222e-07
3.80031e-07
3.77834e-07
3.75629e-07
3.73416e-07
3.71191e-07
3.68955e-07
3.66707e-07
3.64446e-07
3.62171e-07
3.59884e-07
3.57582e-07
3.55268e-07
3.52938e-07
3.50598e-07
3.4824e-07
3.45876e-07
3.43491e-07
3.41104e-07
3.38691e-07
3.36283e-07
3.3384e-07
3.31415e-07
3.28938e-07
3.26505e-07
3.23989e-07
3.21568e-07
3.19017e-07
3.16661e-07
3.14092e-07
3.11935e-07
3.09416e-07
3.07794e-07
3.05404e-07
3.04926e-07
3.02248e-07
4.33039e-07
4.32288e-07
4.30874e-07
4.28922e-07
4.26638e-07
4.24218e-07
4.21787e-07
4.19397e-07
4.17051e-07
4.14736e-07
4.12442e-07
4.1017e-07
4.07924e-07
4.05709e-07
4.03528e-07
4.01379e-07
3.99257e-07
3.97157e-07
3.95075e-07
3.93007e-07
3.9095e-07
3.889e-07
3.86855e-07
3.84814e-07
3.82772e-07
3.80729e-07
3.78683e-07
3.76631e-07
3.74573e-07
3.72507e-07
3.70433e-07
3.6835e-07
3.66257e-07
3.64153e-07
3.62039e-07
3.59913e-07
3.57778e-07
3.55629e-07
3.53473e-07
3.51301e-07
3.49123e-07
3.46928e-07
3.44729e-07
3.4251e-07
3.40293e-07
3.38049e-07
3.35817e-07
3.33549e-07
3.31307e-07
3.29017e-07
3.26778e-07
3.24472e-07
3.22257e-07
3.19945e-07
3.1779e-07
3.15486e-07
3.13441e-07
3.11151e-07
3.09258e-07
3.06887e-07
4.21304e-07
4.20871e-07
4.20084e-07
4.18994e-07
4.17669e-07
4.1618e-07
4.14586e-07
4.12924e-07
4.11217e-07
4.09474e-07
4.07703e-07
4.05908e-07
4.04096e-07
4.02274e-07
4.00445e-07
3.98614e-07
3.96781e-07
3.94947e-07
3.93111e-07
3.91274e-07
3.89434e-07
3.87591e-07
3.85744e-07
3.83893e-07
3.82037e-07
3.80176e-07
3.78309e-07
3.76434e-07
3.74553e-07
3.72664e-07
3.70768e-07
3.68864e-07
3.66951e-07
3.6503e-07
3.63101e-07
3.61164e-07
3.59218e-07
3.57264e-07
3.55302e-07
3.5333e-07
3.51351e-07
3.49361e-07
3.47365e-07
3.45356e-07
3.4334e-07
3.41308e-07
3.3927e-07
3.3721e-07
3.35144e-07
3.33049e-07
3.30947e-07
3.28808e-07
3.26664e-07
3.24472e-07
3.22282e-07
3.2003e-07
3.17787e-07
3.15465e-07
3.1317e-07
3.10793e-07
4.14603e-07
4.1439e-07
4.13958e-07
4.13312e-07
4.12469e-07
4.11455e-07
4.10304e-07
4.09047e-07
4.07707e-07
4.06303e-07
4.04846e-07
4.03346e-07
4.01809e-07
4.00243e-07
3.98652e-07
3.97042e-07
3.95417e-07
3.93779e-07
3.92131e-07
3.90472e-07
3.88806e-07
3.87131e-07
3.8545e-07
3.83761e-07
3.82066e-07
3.80365e-07
3.78659e-07
3.76946e-07
3.75228e-07
3.73505e-07
3.71776e-07
3.70042e-07
3.68304e-07
3.66561e-07
3.64813e-07
3.63061e-07
3.61306e-07
3.59546e-07
3.57782e-07
3.56015e-07
3.54244e-07
3.52468e-07
3.50688e-07
3.48902e-07
3.47111e-07
3.45314e-07
3.43509e-07
3.41695e-07
3.39871e-07
3.38032e-07
3.36174e-07
3.3429e-07
3.3237e-07
3.30402e-07
3.28369e-07
3.26259e-07
3.24059e-07
3.21782e-07
3.19428e-07
3.17096e-07
4.09083e-07
4.08921e-07
4.08596e-07
4.08112e-07
4.07479e-07
4.06712e-07
4.05831e-07
4.04853e-07
4.03794e-07
4.02667e-07
4.0148e-07
4.00243e-07
3.98961e-07
3.97641e-07
3.96287e-07
3.94904e-07
3.93497e-07
3.92069e-07
3.90622e-07
3.89158e-07
3.87681e-07
3.86191e-07
3.84689e-07
3.83177e-07
3.81657e-07
3.80128e-07
3.78593e-07
3.77051e-07
3.75503e-07
3.73951e-07
3.72395e-07
3.70835e-07
3.69273e-07
3.67708e-07
3.66142e-07
3.64574e-07
3.63005e-07
3.61437e-07
3.59867e-07
3.58298e-07
3.56729e-07
3.55159e-07
3.53588e-07
3.52015e-07
3.50439e-07
3.48859e-07
3.4727e-07
3.45672e-07
3.44059e-07
3.42432e-07
3.40783e-07
3.39117e-07
3.37424e-07
3.35711e-07
3.33952e-07
3.32152e-07
3.30276e-07
3.28345e-07
3.26355e-07
3.24434e-07
4.04737e-07
4.04618e-07
4.04381e-07
4.04025e-07
4.03554e-07
4.02976e-07
4.023e-07
4.01536e-07
4.00693e-07
3.99782e-07
3.98809e-07
3.97782e-07
3.96706e-07
3.95587e-07
3.9443e-07
3.93238e-07
3.92016e-07
3.90767e-07
3.89495e-07
3.88202e-07
3.86891e-07
3.85564e-07
3.84224e-07
3.82871e-07
3.81508e-07
3.80136e-07
3.78756e-07
3.77371e-07
3.75981e-07
3.74588e-07
3.73192e-07
3.71795e-07
3.70398e-07
3.69002e-07
3.67608e-07
3.66216e-07
3.64828e-07
3.63444e-07
3.62065e-07
3.60692e-07
3.59324e-07
3.57963e-07
3.56608e-07
3.55259e-07
3.53916e-07
3.52579e-07
3.51246e-07
3.49918e-07
3.4859e-07
3.4726e-07
3.45917e-07
3.44559e-07
3.43173e-07
3.41763e-07
3.40317e-07
3.38849e-07
3.37336e-07
3.35804e-07
3.34249e-07
3.32786e-07
4.01286e-07
4.01193e-07
4.01008e-07
4.00729e-07
4.00358e-07
3.99898e-07
3.99356e-07
3.98736e-07
3.98045e-07
3.9729e-07
3.96475e-07
3.95606e-07
3.94689e-07
3.93728e-07
3.92728e-07
3.91692e-07
3.90624e-07
3.89528e-07
3.88407e-07
3.87264e-07
3.86101e-07
3.84922e-07
3.83727e-07
3.8252e-07
3.81302e-07
3.80076e-07
3.78843e-07
3.77604e-07
3.76363e-07
3.7512e-07
3.73876e-07
3.72634e-07
3.71394e-07
3.70159e-07
3.6893e-07
3.67707e-07
3.66492e-07
3.65288e-07
3.64093e-07
3.6291e-07
3.61739e-07
3.60582e-07
3.59439e-07
3.58309e-07
3.57194e-07
3.56093e-07
3.55004e-07
3.53929e-07
3.52866e-07
3.51817e-07
3.50778e-07
3.49748e-07
3.48716e-07
3.47683e-07
3.46636e-07
3.45588e-07
3.44526e-07
3.43476e-07
3.42447e-07
3.41543e-07
3.98522e-07
3.98447e-07
3.98295e-07
3.98067e-07
3.97762e-07
3.97383e-07
3.96934e-07
3.96417e-07
3.95837e-07
3.95199e-07
3.94507e-07
3.93764e-07
3.92975e-07
3.92144e-07
3.91275e-07
3.90371e-07
3.89435e-07
3.88471e-07
3.87481e-07
3.86469e-07
3.85438e-07
3.84389e-07
3.83325e-07
3.82249e-07
3.81163e-07
3.80069e-07
3.78969e-07
3.77866e-07
3.7676e-07
3.75655e-07
3.74552e-07
3.73453e-07
3.7236e-07
3.71275e-07
3.702e-07
3.69136e-07
3.68086e-07
3.6705e-07
3.66031e-07
3.65031e-07
3.64051e-07
3.63093e-07
3.62157e-07
3.61246e-07
3.60361e-07
3.59504e-07
3.58674e-07
3.57873e-07
3.57099e-07
3.56353e-07
3.5563e-07
3.54936e-07
3.54267e-07
3.53627e-07
3.53008e-07
3.5242e-07
3.51853e-07
3.51332e-07
3.50867e-07
3.50547e-07
3.9632e-07
3.96257e-07
3.96129e-07
3.95936e-07
3.95678e-07
3.95357e-07
3.94975e-07
3.94534e-07
3.94037e-07
3.93488e-07
3.9289e-07
3.92246e-07
3.91559e-07
3.90832e-07
3.90068e-07
3.89272e-07
3.88445e-07
3.8759e-07
3.86711e-07
3.8581e-07
3.8489e-07
3.83953e-07
3.83002e-07
3.82039e-07
3.81067e-07
3.80089e-07
3.79106e-07
3.7812e-07
3.77135e-07
3.76153e-07
3.75175e-07
3.74205e-07
3.73243e-07
3.72294e-07
3.71358e-07
3.70439e-07
3.69538e-07
3.68657e-07
3.67801e-07
3.66969e-07
3.66166e-07
3.65393e-07
3.64652e-07
3.63947e-07
3.63279e-07
3.62651e-07
3.62065e-07
3.61523e-07
3.61026e-07
3.60575e-07
3.60173e-07
3.59824e-07
3.59526e-07
3.59287e-07
3.59103e-07
3.58982e-07
3.58923e-07
3.58947e-07
3.59066e-07
3.59354e-07
3.94592e-07
3.94537e-07
3.94426e-07
3.94259e-07
3.94035e-07
3.93756e-07
3.93423e-07
3.93038e-07
3.92603e-07
3.92121e-07
3.91595e-07
3.91026e-07
3.90418e-07
3.89772e-07
3.89093e-07
3.88382e-07
3.87642e-07
3.86876e-07
3.86087e-07
3.85277e-07
3.84448e-07
3.83605e-07
3.82748e-07
3.81881e-07
3.81005e-07
3.80125e-07
3.79242e-07
3.78358e-07
3.77477e-07
3.766e-07
3.75731e-07
3.74872e-07
3.74026e-07
3.73195e-07
3.72382e-07
3.7159e-07
3.70821e-07
3.7008e-07
3.69368e-07
3.68688e-07
3.68044e-07
3.6744e-07
3.66877e-07
3.66361e-07
3.65893e-07
3.65478e-07
3.65119e-07
3.64819e-07
3.6458e-07
3.6441e-07
3.64311e-07
3.64289e-07
3.64347e-07
3.64492e-07
3.64725e-07
3.65056e-07
3.65489e-07
3.66041e-07
3.66731e-07
3.67613e-07
3.93275e-07
3.93226e-07
3.93127e-07
3.92978e-07
3.92779e-07
3.9253e-07
3.92233e-07
3.91888e-07
3.91499e-07
3.91067e-07
3.90594e-07
3.90081e-07
3.89532e-07
3.88949e-07
3.88334e-07
3.87689e-07
3.87017e-07
3.86321e-07
3.85602e-07
3.84864e-07
3.84109e-07
3.8334e-07
3.82559e-07
3.81768e-07
3.80972e-07
3.80171e-07
3.79369e-07
3.78569e-07
3.77773e-07
3.76983e-07
3.76204e-07
3.75438e-07
3.74687e-07
3.73955e-07
3.73245e-07
3.72559e-07
3.71903e-07
3.71278e-07
3.70688e-07
3.70137e-07
3.6963e-07
3.69169e-07
3.68759e-07
3.68404e-07
3.68108e-07
3.67877e-07
3.67715e-07
3.67626e-07
3.67617e-07
3.67695e-07
3.67865e-07
3.68134e-07
3.68509e-07
3.68997e-07
3.69605e-07
3.70345e-07
3.71224e-07
3.72259e-07
3.7347e-07
3.74898e-07
3.92323e-07
3.92278e-07
3.92188e-07
3.92052e-07
3.91869e-07
3.91641e-07
3.91369e-07
3.91053e-07
3.90696e-07
3.90299e-07
3.89864e-07
3.89392e-07
3.88886e-07
3.88347e-07
3.87779e-07
3.87182e-07
3.8656e-07
3.85915e-07
3.85249e-07
3.84564e-07
3.83864e-07
3.8315e-07
3.82426e-07
3.81694e-07
3.80957e-07
3.80217e-07
3.79477e-07
3.7874e-07
3.78009e-07
3.77287e-07
3.76577e-07
3.75881e-07
3.75205e-07
3.74549e-07
3.73919e-07
3.73317e-07
3.72747e-07
3.72213e-07
3.7172e-07
3.7127e-07
3.7087e-07
3.70522e-07
3.70233e-07
3.70006e-07
3.69848e-07
3.69765e-07
3.69761e-07
3.69844e-07
3.70021e-07
3.703e-07
3.70688e-07
3.71195e-07
3.71828e-07
3.72598e-07
3.73516e-07
3.74593e-07
3.75842e-07
3.7728e-07
3.78925e-07
3.80808e-07
3.91705e-07
3.91663e-07
3.91578e-07
3.9145e-07
3.91278e-07
3.91064e-07
3.90807e-07
3.9051e-07
3.90173e-07
3.89798e-07
3.89387e-07
3.88941e-07
3.88463e-07
3.87954e-07
3.87416e-07
3.86851e-07
3.86261e-07
3.8565e-07
3.85018e-07
3.84369e-07
3.83706e-07
3.83029e-07
3.82343e-07
3.8165e-07
3.80952e-07
3.80253e-07
3.79555e-07
3.78861e-07
3.78174e-07
3.77498e-07
3.76834e-07
3.76188e-07
3.75561e-07
3.74958e-07
3.74382e-07
3.73837e-07
3.73327e-07
3.72856e-07
3.72429e-07
3.7205e-07
3.71723e-07
3.71454e-07
3.71249e-07
3.71112e-07
3.7105e-07
3.71069e-07
3.71176e-07
3.71379e-07
3.71687e-07
3.72107e-07
3.7265e-07
3.73324e-07
3.74141e-07
3.75112e-07
3.76251e-07
3.77569e-07
3.79084e-07
3.8081e-07
3.82769e-07
3.84981e-07
3.91401e-07
3.9136e-07
3.91278e-07
3.91154e-07
3.90987e-07
3.90779e-07
3.9053e-07
3.90242e-07
3.89915e-07
3.89551e-07
3.89152e-07
3.88719e-07
3.88255e-07
3.8776e-07
3.87237e-07
3.86687e-07
3.86114e-07
3.85519e-07
3.84905e-07
3.84274e-07
3.83628e-07
3.82971e-07
3.82304e-07
3.8163e-07
3.80952e-07
3.80274e-07
3.79597e-07
3.78924e-07
3.7826e-07
3.77606e-07
3.76966e-07
3.76344e-07
3.75743e-07
3.75167e-07
3.74619e-07
3.74103e-07
3.73623e-07
3.73184e-07
3.72791e-07
3.72447e-07
3.72158e-07
3.7193e-07
3.71767e-07
3.71676e-07
3.71663e-07
3.71735e-07
3.719e-07
3.72165e-07
3.72541e-07
3.73034e-07
3.73657e-07
3.74418e-07
3.75331e-07
3.76406e-07
3.77659e-07
3.79104e-07
3.80757e-07
3.82635e-07
3.84759e-07
3.87143e-07
3.91402e-07
3.91361e-07
3.91279e-07
3.91154e-07
3.90988e-07
3.9078e-07
3.90531e-07
3.90243e-07
3.89916e-07
3.89552e-07
3.89153e-07
3.8872e-07
3.88255e-07
3.8776e-07
3.87237e-07
3.86688e-07
3.86115e-07
3.8552e-07
3.84906e-07
3.84275e-07
3.83629e-07
3.82972e-07
3.82305e-07
3.81631e-07
3.80953e-07
3.80275e-07
3.79598e-07
3.78925e-07
3.78261e-07
3.77607e-07
3.76967e-07
3.76345e-07
3.75744e-07
3.75168e-07
3.7462e-07
3.74104e-07
3.73625e-07
3.73186e-07
3.72792e-07
3.72449e-07
3.7216e-07
3.71931e-07
3.71769e-07
3.71678e-07
3.71665e-07
3.71737e-07
3.71902e-07
3.72167e-07
3.72543e-07
3.73037e-07
3.73659e-07
3.74421e-07
3.75333e-07
3.76409e-07
3.77662e-07
3.79106e-07
3.8076e-07
3.82638e-07
3.84762e-07
3.87146e-07
3.91707e-07
3.91665e-07
3.9158e-07
3.91452e-07
3.9128e-07
3.91066e-07
3.90809e-07
3.90512e-07
3.90175e-07
3.898e-07
3.89389e-07
3.88944e-07
3.88465e-07
3.87956e-07
3.87418e-07
3.86853e-07
3.86264e-07
3.85652e-07
3.85021e-07
3.84372e-07
3.83708e-07
3.83032e-07
3.82346e-07
3.81653e-07
3.80955e-07
3.80256e-07
3.79558e-07
3.78864e-07
3.78177e-07
3.77501e-07
3.76838e-07
3.76191e-07
3.75564e-07
3.74962e-07
3.74386e-07
3.73841e-07
3.73331e-07
3.72861e-07
3.72433e-07
3.72054e-07
3.71728e-07
3.71459e-07
3.71254e-07
3.71117e-07
3.71055e-07
3.71074e-07
3.71182e-07
3.71385e-07
3.71693e-07
3.72114e-07
3.72657e-07
3.73331e-07
3.74149e-07
3.7512e-07
3.76259e-07
3.77577e-07
3.79093e-07
3.80819e-07
3.82779e-07
3.84991e-07
3.92326e-07
3.92282e-07
3.92191e-07
3.92055e-07
3.91873e-07
3.91645e-07
3.91372e-07
3.91057e-07
3.907e-07
3.90302e-07
3.89867e-07
3.89395e-07
3.88889e-07
3.88351e-07
3.87782e-07
3.87186e-07
3.86564e-07
3.85919e-07
3.85253e-07
3.84568e-07
3.83868e-07
3.83155e-07
3.82431e-07
3.81699e-07
3.80961e-07
3.80221e-07
3.79482e-07
3.78745e-07
3.78014e-07
3.77292e-07
3.76582e-07
3.75887e-07
3.7521e-07
3.74555e-07
3.73925e-07
3.73323e-07
3.72754e-07
3.7222e-07
3.71727e-07
3.71278e-07
3.70877e-07
3.7053e-07
3.70241e-07
3.70015e-07
3.69857e-07
3.69774e-07
3.69771e-07
3.69854e-07
3.70031e-07
3.70311e-07
3.70699e-07
3.71206e-07
3.7184e-07
3.72611e-07
3.73529e-07
3.74607e-07
3.75857e-07
3.77295e-07
3.78941e-07
3.80825e-07
3.9328e-07
3.93231e-07
3.93132e-07
3.92983e-07
3.92784e-07
3.92535e-07
3.92237e-07
3.91893e-07
3.91504e-07
3.91072e-07
3.90598e-07
3.90086e-07
3.89537e-07
3.88954e-07
3.88339e-07
3.87694e-07
3.87022e-07
3.86326e-07
3.85608e-07
3.8487e-07
3.84115e-07
3.83346e-07
3.82565e-07
3.81775e-07
3.80978e-07
3.80178e-07
3.79376e-07
3.78576e-07
3.7778e-07
3.76991e-07
3.76212e-07
3.75445e-07
3.74695e-07
3.73963e-07
3.73253e-07
3.72568e-07
3.71912e-07
3.71287e-07
3.70698e-07
3.70148e-07
3.6964e-07
3.6918e-07
3.6877e-07
3.68415e-07
3.68121e-07
3.6789e-07
3.67728e-07
3.6764e-07
3.67632e-07
3.6771e-07
3.6788e-07
3.6815e-07
3.68526e-07
3.69014e-07
3.69624e-07
3.70364e-07
3.71244e-07
3.7228e-07
3.73492e-07
3.7492e-07
3.94598e-07
3.94543e-07
3.94432e-07
3.94265e-07
3.94041e-07
3.93762e-07
3.93429e-07
3.93044e-07
3.92609e-07
3.92127e-07
3.91601e-07
3.91032e-07
3.90424e-07
3.89779e-07
3.89099e-07
3.88389e-07
3.87649e-07
3.86883e-07
3.86094e-07
3.85284e-07
3.84456e-07
3.83612e-07
3.82756e-07
3.81889e-07
3.81014e-07
3.80133e-07
3.7925e-07
3.78367e-07
3.77486e-07
3.7661e-07
3.75741e-07
3.74882e-07
3.74036e-07
3.73205e-07
3.72393e-07
3.71601e-07
3.70833e-07
3.70092e-07
3.6938e-07
3.68701e-07
3.68058e-07
3.67454e-07
3.66892e-07
3.66376e-07
3.65908e-07
3.65494e-07
3.65136e-07
3.64836e-07
3.64598e-07
3.64429e-07
3.64331e-07
3.6431e-07
3.64368e-07
3.64514e-07
3.64748e-07
3.6508e-07
3.65514e-07
3.66067e-07
3.66758e-07
3.67641e-07
3.96327e-07
3.96264e-07
3.96136e-07
3.95943e-07
3.95685e-07
3.95364e-07
3.94982e-07
3.94541e-07
3.94044e-07
3.93495e-07
3.92897e-07
3.92253e-07
3.91566e-07
3.90839e-07
3.90076e-07
3.8928e-07
3.88453e-07
3.87598e-07
3.86719e-07
3.85819e-07
3.84898e-07
3.83962e-07
3.83011e-07
3.82048e-07
3.81077e-07
3.80099e-07
3.79116e-07
3.78131e-07
3.77146e-07
3.76164e-07
3.75187e-07
3.74217e-07
3.73256e-07
3.72306e-07
3.71371e-07
3.70452e-07
3.69552e-07
3.68672e-07
3.67816e-07
3.66985e-07
3.66182e-07
3.6541e-07
3.6467e-07
3.63965e-07
3.63297e-07
3.6267e-07
3.62084e-07
3.61544e-07
3.61047e-07
3.60598e-07
3.60196e-07
3.59848e-07
3.59552e-07
3.59313e-07
3.5913e-07
3.59011e-07
3.58953e-07
3.58977e-07
3.59098e-07
3.59388e-07
3.9853e-07
3.98455e-07
3.98303e-07
3.98075e-07
3.9777e-07
3.97391e-07
3.96942e-07
3.96425e-07
3.95846e-07
3.95208e-07
3.94515e-07
3.93773e-07
3.92984e-07
3.92153e-07
3.91284e-07
3.9038e-07
3.89444e-07
3.8848e-07
3.87491e-07
3.8648e-07
3.85448e-07
3.84399e-07
3.83336e-07
3.8226e-07
3.81175e-07
3.80081e-07
3.78981e-07
3.77878e-07
3.76773e-07
3.75668e-07
3.74565e-07
3.73467e-07
3.72375e-07
3.7129e-07
3.70215e-07
3.69152e-07
3.68102e-07
3.67067e-07
3.66049e-07
3.65049e-07
3.6407e-07
3.63112e-07
3.62177e-07
3.61267e-07
3.60383e-07
3.59526e-07
3.58697e-07
3.57897e-07
3.57124e-07
3.56379e-07
3.55657e-07
3.54964e-07
3.54296e-07
3.53657e-07
3.5304e-07
3.52452e-07
3.51887e-07
3.51367e-07
3.50904e-07
3.50585e-07
4.01295e-07
4.01202e-07
4.01017e-07
4.00738e-07
4.00367e-07
3.99908e-07
3.99365e-07
3.98745e-07
3.98054e-07
3.97299e-07
3.96485e-07
3.95616e-07
3.94699e-07
3.93738e-07
3.92738e-07
3.91702e-07
3.90635e-07
3.89539e-07
3.88418e-07
3.87275e-07
3.86113e-07
3.84933e-07
3.83739e-07
3.82532e-07
3.81315e-07
3.80089e-07
3.78856e-07
3.77618e-07
3.76377e-07
3.75134e-07
3.73891e-07
3.72649e-07
3.7141e-07
3.70176e-07
3.68947e-07
3.67725e-07
3.66511e-07
3.65306e-07
3.64112e-07
3.6293e-07
3.6176e-07
3.60604e-07
3.59461e-07
3.58333e-07
3.57218e-07
3.56117e-07
3.5503e-07
3.53956e-07
3.52894e-07
3.51846e-07
3.50807e-07
3.49779e-07
3.48748e-07
3.47716e-07
3.46671e-07
3.45624e-07
3.44563e-07
3.43515e-07
3.42488e-07
3.41584e-07
4.04747e-07
4.04628e-07
4.0439e-07
4.04035e-07
4.03564e-07
4.02986e-07
4.0231e-07
4.01546e-07
4.00704e-07
3.99792e-07
3.98819e-07
3.97793e-07
3.96717e-07
3.95598e-07
3.94441e-07
3.93249e-07
3.92027e-07
3.90779e-07
3.89507e-07
3.88215e-07
3.86904e-07
3.85577e-07
3.84237e-07
3.82884e-07
3.81522e-07
3.8015e-07
3.78771e-07
3.77386e-07
3.75997e-07
3.74604e-07
3.73209e-07
3.71812e-07
3.70416e-07
3.6902e-07
3.67626e-07
3.66235e-07
3.64848e-07
3.63465e-07
3.62087e-07
3.60714e-07
3.59347e-07
3.57987e-07
3.56632e-07
3.55284e-07
3.53942e-07
3.52606e-07
3.51274e-07
3.49947e-07
3.4862e-07
3.47291e-07
3.45949e-07
3.44593e-07
3.43208e-07
3.41799e-07
3.40355e-07
3.38888e-07
3.37377e-07
3.35846e-07
3.34293e-07
3.32831e-07
4.09094e-07
4.08932e-07
4.08607e-07
4.08122e-07
4.07489e-07
4.06723e-07
4.05842e-07
4.04865e-07
4.03806e-07
4.02678e-07
4.01492e-07
4.00254e-07
3.98973e-07
3.97653e-07
3.96299e-07
3.94917e-07
3.9351e-07
3.92082e-07
3.90635e-07
3.89172e-07
3.87695e-07
3.86205e-07
3.84704e-07
3.83192e-07
3.81672e-07
3.80144e-07
3.78609e-07
3.77067e-07
3.7552e-07
3.73969e-07
3.72413e-07
3.70854e-07
3.69292e-07
3.67728e-07
3.66162e-07
3.64595e-07
3.63027e-07
3.61459e-07
3.59891e-07
3.58322e-07
3.56753e-07
3.55185e-07
3.53614e-07
3.52043e-07
3.50468e-07
3.48888e-07
3.473e-07
3.45703e-07
3.44092e-07
3.42466e-07
3.40818e-07
3.39153e-07
3.37461e-07
3.3575e-07
3.33993e-07
3.32194e-07
3.30319e-07
3.2839e-07
3.26402e-07
3.24482e-07
4.14615e-07
4.14401e-07
4.1397e-07
4.13324e-07
4.1248e-07
4.11466e-07
4.10315e-07
4.09058e-07
4.07719e-07
4.06315e-07
4.04859e-07
4.03358e-07
4.01822e-07
4.00255e-07
3.98665e-07
3.97056e-07
3.95431e-07
3.93793e-07
3.92145e-07
3.90487e-07
3.88821e-07
3.87146e-07
3.85465e-07
3.83777e-07
3.82083e-07
3.80382e-07
3.78676e-07
3.76964e-07
3.75246e-07
3.73523e-07
3.71795e-07
3.70062e-07
3.68324e-07
3.66582e-07
3.64835e-07
3.63084e-07
3.61329e-07
3.5957e-07
3.57807e-07
3.5604e-07
3.5427e-07
3.52495e-07
3.50716e-07
3.48931e-07
3.47142e-07
3.45345e-07
3.43541e-07
3.41729e-07
3.39905e-07
3.38067e-07
3.3621e-07
3.34328e-07
3.32409e-07
3.30443e-07
3.28412e-07
3.26303e-07
3.24105e-07
3.21829e-07
3.19478e-07
3.17147e-07
4.21316e-07
4.20883e-07
4.20096e-07
4.19006e-07
4.17681e-07
4.16193e-07
4.14598e-07
4.12937e-07
4.11229e-07
4.09487e-07
4.07715e-07
4.05921e-07
4.04109e-07
4.02287e-07
4.00459e-07
3.98628e-07
3.96795e-07
3.94962e-07
3.93126e-07
3.91289e-07
3.8945e-07
3.87607e-07
3.85761e-07
3.8391e-07
3.82055e-07
3.80194e-07
3.78327e-07
3.76453e-07
3.74572e-07
3.72684e-07
3.70788e-07
3.68884e-07
3.66973e-07
3.65052e-07
3.63124e-07
3.61187e-07
3.59243e-07
3.57289e-07
3.55328e-07
3.53357e-07
3.51379e-07
3.4939e-07
3.47395e-07
3.45386e-07
3.43372e-07
3.41341e-07
3.39304e-07
3.37245e-07
3.3518e-07
3.33086e-07
3.30986e-07
3.28848e-07
3.26706e-07
3.24516e-07
3.22327e-07
3.20076e-07
3.17835e-07
3.15515e-07
3.13221e-07
3.10846e-07
4.33051e-07
4.32301e-07
4.30887e-07
4.28935e-07
4.26651e-07
4.2423e-07
4.218e-07
4.1941e-07
4.17064e-07
4.14749e-07
4.12455e-07
4.10183e-07
4.07937e-07
4.05723e-07
4.03543e-07
4.01394e-07
3.99272e-07
3.97173e-07
3.95091e-07
3.93023e-07
3.90966e-07
3.88917e-07
3.86872e-07
3.84831e-07
3.8279e-07
3.80748e-07
3.78702e-07
3.7665e-07
3.74593e-07
3.72528e-07
3.70454e-07
3.68371e-07
3.66279e-07
3.64176e-07
3.62063e-07
3.59938e-07
3.57803e-07
3.55655e-07
3.535e-07
3.51329e-07
3.49152e-07
3.46957e-07
3.4476e-07
3.42542e-07
3.40326e-07
3.38083e-07
3.35852e-07
3.33585e-07
3.31344e-07
3.29056e-07
3.26818e-07
3.24513e-07
3.223e-07
3.19989e-07
3.17835e-07
3.15533e-07
3.1349e-07
3.11202e-07
3.09311e-07
3.06941e-07
4.41792e-07
4.40065e-07
4.3742e-07
4.34294e-07
4.31078e-07
4.27984e-07
4.2506e-07
4.22274e-07
4.19572e-07
4.16925e-07
4.14327e-07
4.11784e-07
4.09302e-07
4.06881e-07
4.04515e-07
4.02194e-07
3.99909e-07
3.97652e-07
3.95418e-07
3.93201e-07
3.90998e-07
3.88804e-07
3.86615e-07
3.84428e-07
3.82241e-07
3.8005e-07
3.77854e-07
3.75649e-07
3.73436e-07
3.71212e-07
3.68977e-07
3.66729e-07
3.64469e-07
3.62195e-07
3.59909e-07
3.57607e-07
3.55294e-07
3.52965e-07
3.50626e-07
3.48269e-07
3.45906e-07
3.43522e-07
3.41135e-07
3.38724e-07
3.36317e-07
3.33875e-07
3.31451e-07
3.28975e-07
3.26543e-07
3.24029e-07
3.21609e-07
3.19059e-07
3.16704e-07
3.14137e-07
3.11982e-07
3.09465e-07
3.07844e-07
3.05456e-07
3.04979e-07
3.02303e-07
4.89836e-07
4.75713e-07
4.61946e-07
4.51368e-07
4.43946e-07
4.38555e-07
4.34104e-07
4.30024e-07
4.26149e-07
4.22484e-07
4.19068e-07
4.15904e-07
4.12958e-07
4.10181e-07
4.07526e-07
4.0496e-07
4.02462e-07
4.00018e-07
3.97617e-07
3.95251e-07
3.92911e-07
3.9059e-07
3.88281e-07
3.85978e-07
3.83676e-07
3.81374e-07
3.79066e-07
3.76751e-07
3.74426e-07
3.7209e-07
3.69742e-07
3.67381e-07
3.65006e-07
3.62617e-07
3.60213e-07
3.57795e-07
3.55363e-07
3.52917e-07
3.50458e-07
3.47986e-07
3.45501e-07
3.43005e-07
3.40496e-07
3.37976e-07
3.35443e-07
3.32898e-07
3.30341e-07
3.27766e-07
3.25181e-07
3.22567e-07
3.19947e-07
3.1727e-07
3.14616e-07
3.11814e-07
3.09166e-07
3.06033e-07
3.03675e-07
2.99267e-07
2.98959e-07
2.8836e-07
3.28196e-07
2.77649e-07
2.56765e-07
2.39199e-07
2.21615e-07
2.0386e-07
1.84063e-07
1.62891e-07
1.38214e-07
1.11637e-07
8.07544e-08
4.84123e-08
1.16884e-08
-2.51564e-08
-6.57462e-08
-1.04341e-07
-1.45797e-07
-1.82818e-07
-2.21834e-07
-2.54198e-07
-2.87646e-07
-3.12629e-07
-3.38566e-07
-3.54247e-07
-3.721e-07
-3.7734e-07
-3.90543e-07
-3.84358e-07
-4.00886e-07
-4.72226e-07
3.14313e-07
2.5921e-07
2.45321e-07
2.30322e-07
2.13412e-07
1.96066e-07
1.76582e-07
1.55557e-07
1.31079e-07
1.04858e-07
7.46111e-08
4.31272e-08
7.57955e-09
-2.79403e-08
-6.70045e-08
-1.04137e-07
-1.43811e-07
-1.79449e-07
-2.16753e-07
-2.48303e-07
-2.81213e-07
-3.05723e-07
-3.32501e-07
-3.47996e-07
-3.67941e-07
-3.72791e-07
-3.864e-07
-3.8582e-07
-3.82115e-07
-5.16107e-07
3.02132e-07
2.56749e-07
2.43909e-07
2.29386e-07
2.11986e-07
1.93645e-07
1.73644e-07
1.52272e-07
1.2775e-07
1.01396e-07
7.13844e-08
3.99984e-08
4.9978e-09
-3.01601e-08
-6.83807e-08
-1.04915e-07
-1.43771e-07
-1.79035e-07
-2.16149e-07
-2.47042e-07
-2.79837e-07
-3.04412e-07
-3.30791e-07
-3.47515e-07
-3.66497e-07
-3.76014e-07
-3.86342e-07
-3.9947e-07
-3.73778e-07
-4.74076e-07
2.91965e-07
2.52654e-07
2.37743e-07
2.23716e-07
2.0702e-07
1.89286e-07
1.69483e-07
1.47939e-07
1.23472e-07
9.69573e-08
6.72668e-08
3.58968e-08
1.62428e-09
-3.3323e-08
-7.04155e-08
-1.06727e-07
-1.44243e-07
-1.79402e-07
-2.14775e-07
-2.46333e-07
-2.77403e-07
-3.03911e-07
-3.2874e-07
-3.4899e-07
-3.65561e-07
-3.81594e-07
-3.85092e-07
-4.10567e-07
-3.75331e-07
-4.46714e-07
2.82155e-07
2.50071e-07
2.34289e-07
2.21388e-07
2.05257e-07
1.86729e-07
1.66411e-07
1.44291e-07
1.19785e-07
9.28474e-08
6.34049e-08
3.17377e-08
-1.85066e-09
-3.69406e-08
-7.28907e-08
-1.09335e-07
-1.45336e-07
-1.80865e-07
-2.14574e-07
-2.47386e-07
-2.76759e-07
-3.05405e-07
-3.2804e-07
-3.52568e-07
-3.65407e-07
-3.87929e-07
-3.85356e-07
-4.1383e-07
-3.86305e-07
-4.21575e-07
2.73575e-07
2.4835e-07
2.31729e-07
2.18362e-07
2.02502e-07
1.83872e-07
1.63376e-07
1.40755e-07
1.16136e-07
8.87336e-08
5.94292e-08
2.73859e-08
-5.6568e-09
-4.0996e-08
-7.59269e-08
-1.12612e-07
-1.47173e-07
-1.83228e-07
-2.15253e-07
-2.49199e-07
-2.76629e-07
-3.07459e-07
-3.28129e-07
-3.557e-07
-3.66874e-07
-3.91761e-07
-3.90235e-07
-4.13416e-07
-4.03088e-07
-4.16724e-07
2.66556e-07
2.46841e-07
2.30089e-07
2.15885e-07
2.00157e-07
1.81443e-07
1.60699e-07
1.3749e-07
1.12582e-07
8.46617e-08
5.53128e-08
2.28906e-08
-9.83834e-09
-4.53617e-08
-7.95676e-08
-1.16315e-07
-1.49826e-07
-1.86032e-07
-2.16911e-07
-2.51283e-07
-2.77831e-07
-3.09466e-07
-3.30022e-07
-3.58173e-07
-3.71014e-07
-3.94503e-07
-3.9923e-07
-4.15862e-07
-4.17427e-07
-4.23547e-07
2.6131e-07
2.45426e-07
2.29178e-07
2.14015e-07
1.98049e-07
1.79173e-07
1.58107e-07
1.34328e-07
1.08954e-07
8.05503e-08
5.09397e-08
1.82455e-08
-1.44645e-08
-4.99712e-08
-8.38519e-08
-1.20309e-07
-1.53324e-07
-1.8909e-07
-2.19609e-07
-2.53507e-07
-2.8033e-07
-3.11399e-07
-3.33497e-07
-3.60489e-07
-3.77047e-07
-3.97977e-07
-4.09036e-07
-4.21711e-07
-4.28778e-07
-4.34689e-07
2.57915e-07
2.44117e-07
2.28517e-07
2.12707e-07
1.96181e-07
1.76988e-07
1.555e-07
1.31189e-07
1.052e-07
7.6349e-08
4.62787e-08
1.34194e-08
-1.95314e-08
-5.48314e-08
-8.87296e-08
-1.24592e-07
-1.57567e-07
-1.92434e-07
-2.2318e-07
-2.55993e-07
-2.83743e-07
-3.13594e-07
-3.37713e-07
-3.63345e-07
-3.83158e-07
-4.02919e-07
-4.17774e-07
-4.30492e-07
-4.399e-07
-4.47336e-07
2.56131e-07
2.42975e-07
2.27932e-07
2.11767e-07
1.94514e-07
1.74823e-07
1.52783e-07
1.2796e-07
1.0126e-07
7.19715e-08
4.13111e-08
8.33535e-09
-2.50044e-08
-6.00087e-08
-9.40988e-08
-1.29238e-07
-1.62357e-07
-1.96177e-07
-2.27278e-07
-2.58916e-07
-2.87515e-07
-3.16311e-07
-3.41953e-07
-3.66982e-07
-3.88865e-07
-4.08905e-07
-4.25835e-07
-4.39951e-07
-4.51259e-07
-4.60699e-07
2.55493e-07
2.42142e-07
2.27313e-07
2.10907e-07
1.92918e-07
1.72594e-07
1.4988e-07
1.24516e-07
9.7071e-08
6.73186e-08
3.60194e-08
2.90226e-09
-3.0852e-08
-6.55858e-08
-9.98627e-08
-1.34327e-07
-1.67512e-07
-2.00397e-07
-2.31641e-07
-2.62343e-07
-2.91365e-07
-3.19554e-07
-3.46034e-07
-3.71114e-07
-3.94232e-07
-4.15173e-07
-4.33702e-07
-4.49538e-07
-4.62886e-07
-4.74398e-07
2.55434e-07
2.41658e-07
2.2667e-07
2.09932e-07
1.91222e-07
1.70188e-07
1.46716e-07
1.2075e-07
9.25566e-08
6.22902e-08
3.03602e-08
-2.96714e-09
-3.70874e-08
-7.16379e-08
-1.05998e-07
-1.39914e-07
-1.72983e-07
-2.05117e-07
-2.36213e-07
-2.66226e-07
-2.95273e-07
-3.23143e-07
-3.50017e-07
-3.75406e-07
-3.99433e-07
-4.21441e-07
-4.41481e-07
-4.59087e-07
-4.74528e-07
-4.883e-07
2.55552e-07
2.41386e-07
2.25962e-07
2.08713e-07
1.8927e-07
1.67485e-07
1.43215e-07
1.1657e-07
8.76255e-08
5.67877e-08
2.42493e-08
-9.36009e-09
-4.37871e-08
-7.82378e-08
-1.12574e-07
-1.46047e-07
-1.78835e-07
-2.10335e-07
-2.41071e-07
-2.705e-07
-2.99336e-07
-3.26948e-07
-3.54012e-07
-3.79715e-07
-4.04552e-07
-4.2758e-07
-4.49158e-07
-4.68453e-07
-4.86087e-07
-5.0206e-07
2.55602e-07
2.41119e-07
2.25105e-07
2.07187e-07
1.8697e-07
1.64395e-07
1.39295e-07
1.11891e-07
8.21742e-08
5.07016e-08
1.75674e-08
-1.63871e-08
-5.10764e-08
-8.54869e-08
-1.19718e-07
-1.52801e-07
-1.85198e-07
-2.16099e-07
-2.46332e-07
-2.75179e-07
-3.03647e-07
-3.30959e-07
-3.58066e-07
-3.84011e-07
-4.09557e-07
-4.3354e-07
-4.56613e-07
-4.77581e-07
-4.97403e-07
-5.15618e-07
2.55489e-07
2.40663e-07
2.24013e-07
2.05333e-07
1.84287e-07
1.60858e-07
1.34872e-07
1.06618e-07
7.60801e-08
4.38999e-08
1.01607e-08
-2.41932e-08
-5.91222e-08
-9.35271e-08
-1.27598e-07
-1.60299e-07
-1.9222e-07
-2.225e-07
-2.52116e-07
-2.80318e-07
-3.08275e-07
-3.35187e-07
-3.62181e-07
-3.88254e-07
-4.14362e-07
-4.39223e-07
-4.63697e-07
-4.86341e-07
-5.08342e-07
-5.28845e-07
2.55266e-07
2.39975e-07
2.22669e-07
2.03174e-07
1.8122e-07
1.56825e-07
1.29854e-07
1.00632e-07
6.91925e-08
3.62187e-08
1.84202e-09
-3.2962e-08
-6.81221e-08
-1.02536e-07
-1.36398e-07
-1.68695e-07
-2.00054e-07
-2.29649e-07
-2.58529e-07
-2.85979e-07
-3.13266e-07
-3.39631e-07
-3.66316e-07
-3.92361e-07
-4.18829e-07
-4.44458e-07
-4.70182e-07
-4.94502e-07
-5.18652e-07
-5.41542e-07
2.55109e-07
2.39138e-07
2.21117e-07
2.00736e-07
1.77749e-07
1.52223e-07
1.24109e-07
9.37683e-08
6.13182e-08
2.74518e-08
-7.61199e-09
-4.29118e-08
-7.8296e-08
-1.12714e-07
-1.46309e-07
-1.78148e-07
-2.08844e-07
-2.37658e-07
-2.65662e-07
-2.92212e-07
-3.18647e-07
-3.44265e-07
-3.70414e-07
-3.96202e-07
-4.22784e-07
-4.48994e-07
-4.75763e-07
-5.01716e-07
-5.27922e-07
-5.53376e-07
2.55269e-07
2.38318e-07
2.19406e-07
1.97976e-07
1.73762e-07
1.46888e-07
1.1743e-07
8.5795e-08
5.22034e-08
1.73407e-08
-1.84641e-08
-5.42925e-08
-8.98824e-08
-1.24274e-07
-1.57522e-07
-1.88823e-07
-2.18732e-07
-2.46638e-07
-2.73603e-07
-2.99074e-07
-3.24451e-07
-3.49069e-07
-3.74432e-07
-3.99641e-07
-4.26069e-07
-4.52526e-07
-4.80121e-07
-5.07482e-07
-5.35655e-07
-5.63649e-07
2.55869e-07
2.37627e-07
2.17492e-07
1.94705e-07
1.68992e-07
1.40522e-07
1.09505e-07
7.63928e-08
4.15222e-08
5.56691e-09
-3.10256e-08
-6.7393e-08
-1.03152e-07
-1.37459e-07
-1.70259e-07
-2.00918e-07
-2.29887e-07
-2.56744e-07
-2.8247e-07
-3.06672e-07
-3.30735e-07
-3.54087e-07
-3.78347e-07
-4.02606e-07
-4.28528e-07
-4.54779e-07
-4.82886e-07
-5.11226e-07
-5.41168e-07
-5.71379e-07
2.56684e-07
2.36888e-07
2.15052e-07
1.90493e-07
1.62971e-07
1.32664e-07
9.98816e-08
6.51222e-08
2.88412e-08
-8.28585e-09
-4.56976e-08
-8.25868e-08
-1.18459e-07
-1.52594e-07
-1.84829e-07
-2.14717e-07
-2.42579e-07
-2.68222e-07
-2.92477e-07
-3.15199e-07
-3.37633e-07
-3.59431e-07
-3.82176e-07
-4.05084e-07
-4.30007e-07
-4.55517e-07
-4.83637e-07
-5.12291e-07
-5.43599e-07
-5.7528e-07
2.56952e-07
2.35327e-07
2.11445e-07
1.84761e-07
1.55118e-07
1.22721e-07
8.7961e-08
5.13882e-08
1.35722e-08
-2.4789e-08
-6.3035e-08
-1.004e-07
-1.36307e-07
-1.7015e-07
-2.01684e-07