/*--------------------------------*- C++ -*----------------------------------*\
| =========                 |                                                 |
| \\      /  F ield         | OpenFOAM: The Open Source CFD Toolbox           |
|  \\    /   O peration     | Version:  2312                                  |
|   \\  /    A nd           | Website:  www.openfoam.com                      |
|    \\/     M anipulation  |                                                 |
\*---------------------------------------------------------------------------*/
FoamFile
{
    version     2.0;
    format      ascii;
    arch        "LSB;label=32;scalar=64";
    class       volScalarField;
    location    "171000";
    object      p;
}
// * * * * * * * * * * * * * * * * * * * * * * * * * * * * * * * * * * * * * //

dimensions      [0 2 -2 0 0 0 0];

internalField   nonuniform List<scalar> 
10800
(
5.94851e-07
5.80732e-07
5.66971e-07
5.56403e-07
5.48993e-07
5.43618e-07
5.39185e-07
5.35127e-07
5.31276e-07
5.27638e-07
5.24251e-07
5.21118e-07
5.18206e-07
5.15464e-07
5.12847e-07
5.10319e-07
5.07861e-07
5.05458e-07
5.031e-07
5.00777e-07
4.98482e-07
4.96206e-07
4.93943e-07
4.91687e-07
4.89434e-07
4.87181e-07
4.84924e-07
4.82661e-07
4.80391e-07
4.78112e-07
4.75823e-07
4.73523e-07
4.71213e-07
4.68892e-07
4.66561e-07
4.6422e-07
4.61869e-07
4.59511e-07
4.57144e-07
4.54769e-07
4.52389e-07
4.50002e-07
4.4761e-07
4.45212e-07
4.42809e-07
4.404e-07
4.37984e-07
4.35559e-07
4.33128e-07
4.30676e-07
4.28223e-07
4.25722e-07
4.23245e-07
4.20637e-07
4.18171e-07
4.15251e-07
4.13072e-07
4.08907e-07
4.08816e-07
3.98383e-07
5.46787e-07
5.45062e-07
5.42422e-07
5.39304e-07
5.36098e-07
5.33016e-07
5.30109e-07
5.2734e-07
5.24659e-07
5.22036e-07
5.19463e-07
5.16947e-07
5.14495e-07
5.12105e-07
5.09772e-07
5.07486e-07
5.05237e-07
5.03019e-07
5.00824e-07
4.98648e-07
4.96486e-07
4.94335e-07
4.92191e-07
4.9005e-07
4.87909e-07
4.85767e-07
4.83621e-07
4.81468e-07
4.79309e-07
4.77142e-07
4.74966e-07
4.72781e-07
4.70587e-07
4.68382e-07
4.66169e-07
4.63946e-07
4.61715e-07
4.59474e-07
4.57228e-07
4.54971e-07
4.52713e-07
4.5044e-07
4.48171e-07
4.45884e-07
4.43607e-07
4.41303e-07
4.39023e-07
4.36699e-07
4.34424e-07
4.32077e-07
4.29828e-07
4.27461e-07
4.25292e-07
4.22927e-07
4.2098e-07
4.187e-07
4.17321e-07
4.15191e-07
4.14981e-07
4.126e-07
5.37995e-07
5.37247e-07
5.35838e-07
5.33892e-07
5.31616e-07
5.29207e-07
5.2679e-07
5.24415e-07
5.22086e-07
5.1979e-07
5.17517e-07
5.15268e-07
5.13047e-07
5.1086e-07
5.08708e-07
5.06589e-07
5.045e-07
5.02434e-07
5.00387e-07
4.98356e-07
4.96337e-07
4.94327e-07
4.92324e-07
4.90326e-07
4.8833e-07
4.86333e-07
4.84336e-07
4.82335e-07
4.8033e-07
4.7832e-07
4.76304e-07
4.74282e-07
4.72254e-07
4.70217e-07
4.68175e-07
4.66125e-07
4.6407e-07
4.62005e-07
4.59937e-07
4.5786e-07
4.55781e-07
4.5369e-07
4.51602e-07
4.495e-07
4.47405e-07
4.4529e-07
4.43192e-07
4.41066e-07
4.38973e-07
4.3684e-07
4.34765e-07
4.32634e-07
4.30605e-07
4.28491e-07
4.26551e-07
4.24478e-07
4.22688e-07
4.20664e-07
4.19065e-07
4.16979e-07
5.26211e-07
5.2578e-07
5.24996e-07
5.23911e-07
5.22593e-07
5.21114e-07
5.1953e-07
5.1788e-07
5.16187e-07
5.1446e-07
5.12706e-07
5.10931e-07
5.09141e-07
5.07341e-07
5.05537e-07
5.03732e-07
5.01928e-07
5.00123e-07
4.98319e-07
4.96515e-07
4.94709e-07
4.92903e-07
4.91094e-07
4.89283e-07
4.87469e-07
4.85651e-07
4.83829e-07
4.82003e-07
4.80172e-07
4.78336e-07
4.76495e-07
4.74649e-07
4.72798e-07
4.70941e-07
4.69081e-07
4.67215e-07
4.65346e-07
4.63471e-07
4.61594e-07
4.59712e-07
4.57828e-07
4.55938e-07
4.54047e-07
4.5215e-07
4.50252e-07
4.48345e-07
4.4644e-07
4.44521e-07
4.42604e-07
4.40669e-07
4.38737e-07
4.36777e-07
4.34824e-07
4.32829e-07
4.30844e-07
4.288e-07
4.26772e-07
4.24662e-07
4.22586e-07
4.20435e-07
5.19433e-07
5.19221e-07
5.18792e-07
5.1815e-07
5.17312e-07
5.16305e-07
5.15163e-07
5.13916e-07
5.12589e-07
5.11198e-07
5.09757e-07
5.08273e-07
5.06754e-07
5.05208e-07
5.03638e-07
5.02052e-07
5.00451e-07
4.98839e-07
4.97218e-07
4.95588e-07
4.93952e-07
4.9231e-07
4.90663e-07
4.8901e-07
4.87353e-07
4.85692e-07
4.84027e-07
4.82358e-07
4.80686e-07
4.79011e-07
4.77333e-07
4.75653e-07
4.73971e-07
4.72287e-07
4.70602e-07
4.68916e-07
4.6723e-07
4.65544e-07
4.63857e-07
4.62171e-07
4.60485e-07
4.588e-07
4.57114e-07
4.55429e-07
4.53742e-07
4.52054e-07
4.50364e-07
4.48669e-07
4.46968e-07
4.45259e-07
4.43539e-07
4.41803e-07
4.40044e-07
4.38254e-07
4.3642e-07
4.3453e-07
4.32563e-07
4.30514e-07
4.28387e-07
4.2626e-07
5.13835e-07
5.13674e-07
5.13352e-07
5.12872e-07
5.12244e-07
5.11485e-07
5.10611e-07
5.09642e-07
5.08593e-07
5.07477e-07
5.06303e-07
5.0508e-07
5.03813e-07
5.0251e-07
5.01174e-07
4.99811e-07
4.98425e-07
4.97019e-07
4.95596e-07
4.94158e-07
4.92708e-07
4.91246e-07
4.89774e-07
4.88295e-07
4.86808e-07
4.85314e-07
4.83816e-07
4.82314e-07
4.80808e-07
4.79299e-07
4.77789e-07
4.76278e-07
4.74767e-07
4.73256e-07
4.71746e-07
4.70238e-07
4.68733e-07
4.67231e-07
4.65731e-07
4.64236e-07
4.62744e-07
4.61257e-07
4.59773e-07
4.58292e-07
4.56813e-07
4.55336e-07
4.53858e-07
4.52377e-07
4.50889e-07
4.49394e-07
4.47881e-07
4.46352e-07
4.44794e-07
4.4321e-07
4.41587e-07
4.39936e-07
4.3824e-07
4.36514e-07
4.34743e-07
4.33026e-07
5.09398e-07
5.0928e-07
5.09045e-07
5.08692e-07
5.08225e-07
5.07652e-07
5.06982e-07
5.06225e-07
5.05391e-07
5.04489e-07
5.03526e-07
5.02511e-07
5.01448e-07
5.00343e-07
4.99201e-07
4.98026e-07
4.96822e-07
4.95592e-07
4.9434e-07
4.93069e-07
4.91782e-07
4.9048e-07
4.89165e-07
4.8784e-07
4.86506e-07
4.85165e-07
4.83818e-07
4.82468e-07
4.81114e-07
4.79759e-07
4.78404e-07
4.77049e-07
4.75697e-07
4.74348e-07
4.73003e-07
4.71664e-07
4.70331e-07
4.69005e-07
4.67687e-07
4.66378e-07
4.65078e-07
4.63787e-07
4.62506e-07
4.61235e-07
4.59973e-07
4.5872e-07
4.57475e-07
4.56237e-07
4.55003e-07
4.53775e-07
4.52545e-07
4.51315e-07
4.50074e-07
4.48818e-07
4.4753e-07
4.46211e-07
4.4484e-07
4.43453e-07
4.42057e-07
4.40752e-07
5.05849e-07
5.05758e-07
5.05574e-07
5.05298e-07
5.0493e-07
5.04474e-07
5.03937e-07
5.03323e-07
5.02639e-07
5.01892e-07
5.01086e-07
5.00227e-07
4.99321e-07
4.98372e-07
4.97384e-07
4.96362e-07
4.9531e-07
4.9423e-07
4.93126e-07
4.92001e-07
4.90858e-07
4.89699e-07
4.88527e-07
4.87343e-07
4.8615e-07
4.8495e-07
4.83745e-07
4.82536e-07
4.81325e-07
4.80115e-07
4.78905e-07
4.77699e-07
4.76498e-07
4.75303e-07
4.74115e-07
4.72937e-07
4.71769e-07
4.70614e-07
4.69471e-07
4.68342e-07
4.67228e-07
4.66131e-07
4.6505e-07
4.63988e-07
4.62942e-07
4.61915e-07
4.60905e-07
4.59913e-07
4.58935e-07
4.57973e-07
4.57021e-07
4.56082e-07
4.55148e-07
4.54226e-07
4.53305e-07
4.52387e-07
4.51458e-07
4.50537e-07
4.49639e-07
4.48859e-07
5.02982e-07
5.02907e-07
5.02757e-07
5.02531e-07
5.02229e-07
5.01853e-07
5.01408e-07
5.00896e-07
5.00322e-07
4.9969e-07
4.99005e-07
4.9827e-07
4.9749e-07
4.96669e-07
4.9581e-07
4.94917e-07
4.93993e-07
4.93042e-07
4.92066e-07
4.91069e-07
4.90053e-07
4.89021e-07
4.87976e-07
4.86919e-07
4.85853e-07
4.8478e-07
4.83702e-07
4.82623e-07
4.81542e-07
4.80464e-07
4.79389e-07
4.78319e-07
4.77257e-07
4.76205e-07
4.75163e-07
4.74135e-07
4.73123e-07
4.72127e-07
4.71149e-07
4.70193e-07
4.69258e-07
4.68347e-07
4.67461e-07
4.66602e-07
4.65771e-07
4.6497e-07
4.64198e-07
4.63458e-07
4.6275e-07
4.62074e-07
4.61431e-07
4.60821e-07
4.6024e-07
4.59691e-07
4.59165e-07
4.58669e-07
4.582e-07
4.57778e-07
4.57417e-07
4.57191e-07
5.00671e-07
5.00608e-07
5.00481e-07
5.0029e-07
5.00035e-07
4.99716e-07
4.99337e-07
4.989e-07
4.98408e-07
4.97863e-07
4.97271e-07
4.96632e-07
4.95952e-07
4.95232e-07
4.94477e-07
4.93689e-07
4.92871e-07
4.92027e-07
4.91158e-07
4.90268e-07
4.8936e-07
4.88436e-07
4.87499e-07
4.86551e-07
4.85595e-07
4.84633e-07
4.83667e-07
4.827e-07
4.81734e-07
4.80772e-07
4.79816e-07
4.78868e-07
4.7793e-07
4.77005e-07
4.76095e-07
4.75203e-07
4.7433e-07
4.7348e-07
4.72654e-07
4.71856e-07
4.71086e-07
4.70349e-07
4.69645e-07
4.68979e-07
4.68351e-07
4.67764e-07
4.67221e-07
4.66725e-07
4.66275e-07
4.65877e-07
4.6553e-07
4.65238e-07
4.65001e-07
4.64825e-07
4.64707e-07
4.64654e-07
4.64666e-07
4.6476e-07
4.64954e-07
4.65308e-07
4.98831e-07
4.98776e-07
4.98666e-07
4.985e-07
4.98278e-07
4.98e-07
4.97669e-07
4.97287e-07
4.96856e-07
4.96377e-07
4.95854e-07
4.9529e-07
4.94686e-07
4.94046e-07
4.93372e-07
4.92667e-07
4.91934e-07
4.91175e-07
4.90394e-07
4.89592e-07
4.88772e-07
4.87937e-07
4.8709e-07
4.86233e-07
4.85369e-07
4.845e-07
4.83628e-07
4.82757e-07
4.81889e-07
4.81027e-07
4.80172e-07
4.79329e-07
4.78498e-07
4.77684e-07
4.76889e-07
4.76115e-07
4.75365e-07
4.74643e-07
4.73952e-07
4.73294e-07
4.72672e-07
4.7209e-07
4.71551e-07
4.71059e-07
4.70617e-07
4.70228e-07
4.69896e-07
4.69626e-07
4.6942e-07
4.69283e-07
4.69218e-07
4.69231e-07
4.69324e-07
4.69505e-07
4.69777e-07
4.7015e-07
4.70627e-07
4.71222e-07
4.71953e-07
4.7287e-07
4.97398e-07
4.97349e-07
4.97251e-07
4.97103e-07
4.96904e-07
4.96657e-07
4.96361e-07
4.96018e-07
4.95631e-07
4.95201e-07
4.9473e-07
4.9422e-07
4.93674e-07
4.93094e-07
4.92482e-07
4.91841e-07
4.91173e-07
4.90481e-07
4.89766e-07
4.89033e-07
4.88283e-07
4.87519e-07
4.86744e-07
4.85959e-07
4.85169e-07
4.84374e-07
4.83579e-07
4.82786e-07
4.81997e-07
4.81216e-07
4.80444e-07
4.79686e-07
4.78944e-07
4.7822e-07
4.77519e-07
4.76843e-07
4.76196e-07
4.75581e-07
4.75001e-07
4.74461e-07
4.73964e-07
4.73513e-07
4.73114e-07
4.7277e-07
4.72487e-07
4.72267e-07
4.72118e-07
4.72043e-07
4.72048e-07
4.72139e-07
4.72321e-07
4.72601e-07
4.72985e-07
4.73482e-07
4.74101e-07
4.74855e-07
4.75753e-07
4.76804e-07
4.78028e-07
4.7946e-07
4.96329e-07
4.96284e-07
4.96194e-07
4.96058e-07
4.95876e-07
4.95649e-07
4.95377e-07
4.95062e-07
4.94706e-07
4.94309e-07
4.93875e-07
4.93404e-07
4.92899e-07
4.92362e-07
4.91794e-07
4.91199e-07
4.90578e-07
4.89934e-07
4.8927e-07
4.88587e-07
4.87888e-07
4.87176e-07
4.86454e-07
4.85723e-07
4.84988e-07
4.84249e-07
4.83511e-07
4.82775e-07
4.82046e-07
4.81325e-07
4.80616e-07
4.79923e-07
4.79247e-07
4.78592e-07
4.77962e-07
4.77361e-07
4.76792e-07
4.76258e-07
4.75764e-07
4.75314e-07
4.74912e-07
4.74564e-07
4.74273e-07
4.74044e-07
4.73884e-07
4.73798e-07
4.73792e-07
4.73872e-07
4.74045e-07
4.74318e-07
4.747e-07
4.75198e-07
4.75821e-07
4.76577e-07
4.77478e-07
4.78535e-07
4.79765e-07
4.81185e-07
4.82816e-07
4.84679e-07
4.95593e-07
4.95551e-07
4.95466e-07
4.95338e-07
4.95166e-07
4.94951e-07
4.94695e-07
4.94397e-07
4.9406e-07
4.93685e-07
4.93273e-07
4.92827e-07
4.92348e-07
4.91838e-07
4.91299e-07
4.90733e-07
4.90142e-07
4.8953e-07
4.88897e-07
4.88246e-07
4.87581e-07
4.86903e-07
4.86214e-07
4.85519e-07
4.84818e-07
4.84116e-07
4.83415e-07
4.82717e-07
4.82026e-07
4.81345e-07
4.80676e-07
4.80024e-07
4.79391e-07
4.78782e-07
4.78198e-07
4.77645e-07
4.77127e-07
4.76646e-07
4.76208e-07
4.75818e-07
4.75479e-07
4.75197e-07
4.74978e-07
4.74826e-07
4.74748e-07
4.7475e-07
4.7484e-07
4.75024e-07
4.7531e-07
4.75707e-07
4.76224e-07
4.7687e-07
4.77657e-07
4.78595e-07
4.79698e-07
4.80977e-07
4.82451e-07
4.84129e-07
4.86035e-07
4.88186e-07
4.95172e-07
4.95131e-07
4.95048e-07
4.94923e-07
4.94756e-07
4.94547e-07
4.94297e-07
4.94008e-07
4.9368e-07
4.93314e-07
4.92914e-07
4.92479e-07
4.92012e-07
4.91514e-07
4.90988e-07
4.90436e-07
4.89859e-07
4.89261e-07
4.88643e-07
4.88007e-07
4.87356e-07
4.86693e-07
4.86021e-07
4.85341e-07
4.84656e-07
4.8397e-07
4.83285e-07
4.82604e-07
4.8193e-07
4.81266e-07
4.80615e-07
4.79981e-07
4.79367e-07
4.78777e-07
4.78214e-07
4.77682e-07
4.77185e-07
4.76727e-07
4.76314e-07
4.75949e-07
4.75637e-07
4.75384e-07
4.75196e-07
4.75077e-07
4.75036e-07
4.75077e-07
4.75209e-07
4.75439e-07
4.75775e-07
4.76227e-07
4.76805e-07
4.77518e-07
4.78379e-07
4.79399e-07
4.80593e-07
4.81974e-07
4.83559e-07
4.85362e-07
4.87408e-07
4.89709e-07
4.95057e-07
4.95016e-07
4.94933e-07
4.94808e-07
4.9464e-07
4.9443e-07
4.9418e-07
4.93889e-07
4.9356e-07
4.93194e-07
4.92792e-07
4.92355e-07
4.91887e-07
4.91387e-07
4.9086e-07
4.90305e-07
4.89727e-07
4.89126e-07
4.88505e-07
4.87867e-07
4.87213e-07
4.86547e-07
4.85871e-07
4.85187e-07
4.84499e-07
4.83809e-07
4.8312e-07
4.82434e-07
4.81755e-07
4.81086e-07
4.8043e-07
4.7979e-07
4.7917e-07
4.78573e-07
4.78003e-07
4.77463e-07
4.76959e-07
4.76493e-07
4.76071e-07
4.75697e-07
4.75375e-07
4.75112e-07
4.74912e-07
4.74782e-07
4.74728e-07
4.74757e-07
4.74875e-07
4.7509e-07
4.75412e-07
4.75848e-07
4.76408e-07
4.77103e-07
4.77945e-07
4.78944e-07
4.80117e-07
4.81475e-07
4.83037e-07
4.84818e-07
4.8684e-07
4.89117e-07
4.95247e-07
4.95205e-07
4.95119e-07
4.9499e-07
4.94816e-07
4.946e-07
4.94341e-07
4.94041e-07
4.93701e-07
4.93322e-07
4.92907e-07
4.92457e-07
4.91973e-07
4.91458e-07
4.90914e-07
4.90342e-07
4.89745e-07
4.89125e-07
4.88485e-07
4.87827e-07
4.87153e-07
4.86466e-07
4.85767e-07
4.85061e-07
4.84349e-07
4.83635e-07
4.82921e-07
4.8221e-07
4.81504e-07
4.80808e-07
4.80123e-07
4.79453e-07
4.78802e-07
4.78172e-07
4.77568e-07
4.76993e-07
4.7645e-07
4.75945e-07
4.75481e-07
4.75063e-07
4.74695e-07
4.74383e-07
4.7413e-07
4.73944e-07
4.7383e-07
4.73793e-07
4.73842e-07
4.73983e-07
4.74223e-07
4.74572e-07
4.75037e-07
4.75629e-07
4.76358e-07
4.77236e-07
4.78274e-07
4.79487e-07
4.80889e-07
4.82496e-07
4.84329e-07
4.86409e-07
4.95755e-07
4.9571e-07
4.95619e-07
4.95481e-07
4.95297e-07
4.95066e-07
4.94791e-07
4.94472e-07
4.9411e-07
4.93709e-07
4.93268e-07
4.9279e-07
4.92278e-07
4.91732e-07
4.91156e-07
4.90551e-07
4.8992e-07
4.89264e-07
4.88587e-07
4.87891e-07
4.87178e-07
4.86451e-07
4.85712e-07
4.84964e-07
4.8421e-07
4.83452e-07
4.82693e-07
4.81935e-07
4.81182e-07
4.80436e-07
4.797e-07
4.78978e-07
4.78271e-07
4.77584e-07
4.7692e-07
4.76282e-07
4.75673e-07
4.75098e-07
4.74561e-07
4.74065e-07
4.73615e-07
4.73216e-07
4.72871e-07
4.72586e-07
4.72366e-07
4.72217e-07
4.72143e-07
4.72153e-07
4.72251e-07
4.72446e-07
4.72744e-07
4.73155e-07
4.73686e-07
4.74347e-07
4.75149e-07
4.76102e-07
4.7722e-07
4.78519e-07
4.80018e-07
4.81749e-07
4.966e-07
4.96551e-07
4.96451e-07
4.963e-07
4.96099e-07
4.95847e-07
4.95546e-07
4.95197e-07
4.94803e-07
4.94366e-07
4.93886e-07
4.93367e-07
4.92811e-07
4.92219e-07
4.91595e-07
4.9094e-07
4.90257e-07
4.89549e-07
4.88818e-07
4.88066e-07
4.87296e-07
4.86511e-07
4.85713e-07
4.84904e-07
4.84087e-07
4.83266e-07
4.82441e-07
4.81616e-07
4.80794e-07
4.79977e-07
4.79168e-07
4.78371e-07
4.77587e-07
4.7682e-07
4.76073e-07
4.75348e-07
4.74648e-07
4.73977e-07
4.73338e-07
4.72734e-07
4.7217e-07
4.71649e-07
4.71175e-07
4.70754e-07
4.70388e-07
4.70082e-07
4.69841e-07
4.6967e-07
4.69573e-07
4.69557e-07
4.69627e-07
4.6979e-07
4.7005e-07
4.70417e-07
4.70896e-07
4.71498e-07
4.7223e-07
4.73113e-07
4.7416e-07
4.75419e-07
4.97815e-07
4.97759e-07
4.97647e-07
4.97478e-07
4.97251e-07
4.96969e-07
4.96632e-07
4.96242e-07
4.95802e-07
4.95314e-07
4.9478e-07
4.94204e-07
4.93587e-07
4.92932e-07
4.92242e-07
4.9152e-07
4.90768e-07
4.89989e-07
4.89185e-07
4.88359e-07
4.87514e-07
4.86653e-07
4.85776e-07
4.84888e-07
4.83991e-07
4.83087e-07
4.82178e-07
4.81267e-07
4.80357e-07
4.7945e-07
4.78548e-07
4.77654e-07
4.76771e-07
4.75901e-07
4.75046e-07
4.7421e-07
4.73395e-07
4.72604e-07
4.71841e-07
4.71106e-07
4.70402e-07
4.69732e-07
4.69099e-07
4.68509e-07
4.67963e-07
4.67466e-07
4.67019e-07
4.66628e-07
4.66295e-07
4.66023e-07
4.65817e-07
4.6568e-07
4.65616e-07
4.6563e-07
4.65724e-07
4.65908e-07
4.66183e-07
4.66572e-07
4.67085e-07
4.67788e-07
4.99445e-07
4.99381e-07
4.99251e-07
4.99056e-07
4.98796e-07
4.98471e-07
4.98084e-07
4.97638e-07
4.97135e-07
4.96579e-07
4.95973e-07
4.9532e-07
4.94624e-07
4.93887e-07
4.93112e-07
4.92303e-07
4.91462e-07
4.90593e-07
4.89698e-07
4.8878e-07
4.87841e-07
4.86884e-07
4.85912e-07
4.84927e-07
4.83931e-07
4.82926e-07
4.81915e-07
4.80901e-07
4.79885e-07
4.78869e-07
4.77856e-07
4.76847e-07
4.75846e-07
4.74854e-07
4.73873e-07
4.72906e-07
4.71955e-07
4.71022e-07
4.70108e-07
4.69217e-07
4.68352e-07
4.67513e-07
4.66702e-07
4.65921e-07
4.6517e-07
4.64454e-07
4.63774e-07
4.63134e-07
4.62534e-07
4.61976e-07
4.61461e-07
4.60993e-07
4.60568e-07
4.60193e-07
4.59864e-07
4.5959e-07
4.59368e-07
4.59221e-07
4.59158e-07
4.5926e-07
5.01554e-07
5.01478e-07
5.01325e-07
5.01094e-07
5.00786e-07
5.00403e-07
4.99949e-07
4.99426e-07
4.9884e-07
4.98194e-07
4.97493e-07
4.96741e-07
4.95942e-07
4.951e-07
4.94218e-07
4.933e-07
4.92349e-07
4.91369e-07
4.90363e-07
4.89333e-07
4.88281e-07
4.87211e-07
4.86125e-07
4.85024e-07
4.83912e-07
4.82791e-07
4.81661e-07
4.80526e-07
4.79388e-07
4.78247e-07
4.77107e-07
4.75968e-07
4.74833e-07
4.73704e-07
4.72581e-07
4.71467e-07
4.70364e-07
4.69273e-07
4.68195e-07
4.67133e-07
4.66088e-07
4.65061e-07
4.64053e-07
4.63066e-07
4.62098e-07
4.61151e-07
4.60223e-07
4.59318e-07
4.58435e-07
4.57577e-07
4.56739e-07
4.55923e-07
4.55123e-07
4.54345e-07
4.53579e-07
4.52836e-07
4.52105e-07
4.51413e-07
4.50765e-07
4.50257e-07
5.04231e-07
5.04138e-07
5.03951e-07
5.0367e-07
5.03295e-07
5.02831e-07
5.02283e-07
5.01657e-07
5.00959e-07
5.00195e-07
4.99371e-07
4.98492e-07
4.97563e-07
4.9659e-07
4.95576e-07
4.94525e-07
4.93441e-07
4.92328e-07
4.91189e-07
4.90026e-07
4.88842e-07
4.87639e-07
4.86421e-07
4.85188e-07
4.83943e-07
4.82687e-07
4.81423e-07
4.80152e-07
4.78876e-07
4.77596e-07
4.76313e-07
4.7503e-07
4.73746e-07
4.72465e-07
4.71187e-07
4.69912e-07
4.68643e-07
4.6738e-07
4.66125e-07
4.64877e-07
4.63638e-07
4.62409e-07
4.61188e-07
4.59977e-07
4.58777e-07
4.57588e-07
4.5641e-07
4.55242e-07
4.5408e-07
4.52923e-07
4.51763e-07
4.50603e-07
4.49433e-07
4.4826e-07
4.47069e-07
4.4587e-07
4.44646e-07
4.43428e-07
4.42219e-07
4.41128e-07
5.07602e-07
5.07482e-07
5.07243e-07
5.06884e-07
5.0641e-07
5.05827e-07
5.05146e-07
5.04375e-07
5.03524e-07
5.02604e-07
5.01621e-07
5.00583e-07
4.99495e-07
4.98363e-07
4.97191e-07
4.95984e-07
4.94744e-07
4.93478e-07
4.92186e-07
4.90872e-07
4.89539e-07
4.88188e-07
4.86822e-07
4.85443e-07
4.84051e-07
4.82649e-07
4.81238e-07
4.79819e-07
4.78393e-07
4.76962e-07
4.75526e-07
4.74087e-07
4.72645e-07
4.71202e-07
4.69758e-07
4.68314e-07
4.66871e-07
4.65429e-07
4.63989e-07
4.62552e-07
4.61116e-07
4.59685e-07
4.58256e-07
4.56831e-07
4.55408e-07
4.53987e-07
4.52564e-07
4.51137e-07
4.49697e-07
4.48246e-07
4.46775e-07
4.45283e-07
4.43765e-07
4.42227e-07
4.4065e-07
4.39039e-07
4.3737e-07
4.35673e-07
4.33944e-07
4.32303e-07
5.11875e-07
5.11711e-07
5.11383e-07
5.10895e-07
5.10257e-07
5.09486e-07
5.08598e-07
5.07612e-07
5.06545e-07
5.05407e-07
5.04209e-07
5.0296e-07
5.01664e-07
5.00329e-07
4.9896e-07
4.9756e-07
4.96135e-07
4.94687e-07
4.93219e-07
4.91734e-07
4.90233e-07
4.88718e-07
4.8719e-07
4.8565e-07
4.841e-07
4.82541e-07
4.80972e-07
4.79396e-07
4.77812e-07
4.76222e-07
4.74625e-07
4.73023e-07
4.71415e-07
4.69803e-07
4.68187e-07
4.66566e-07
4.64942e-07
4.63315e-07
4.61684e-07
4.6005e-07
4.58412e-07
4.5677e-07
4.55122e-07
4.53468e-07
4.51805e-07
4.50133e-07
4.48447e-07
4.46749e-07
4.45034e-07
4.43306e-07
4.41559e-07
4.39798e-07
4.38e-07
4.36167e-07
4.34271e-07
4.32317e-07
4.30276e-07
4.28182e-07
4.26025e-07
4.23937e-07
5.17331e-07
5.17117e-07
5.16684e-07
5.16035e-07
5.15186e-07
5.14166e-07
5.13008e-07
5.11742e-07
5.10393e-07
5.08978e-07
5.07509e-07
5.05995e-07
5.04443e-07
5.0286e-07
5.01252e-07
4.99624e-07
4.97979e-07
4.9632e-07
4.94649e-07
4.92968e-07
4.91276e-07
4.89576e-07
4.87867e-07
4.8615e-07
4.84425e-07
4.82693e-07
4.80953e-07
4.79205e-07
4.77451e-07
4.75689e-07
4.7392e-07
4.72145e-07
4.70362e-07
4.68572e-07
4.66776e-07
4.64972e-07
4.63162e-07
4.61346e-07
4.59522e-07
4.57692e-07
4.55855e-07
4.5401e-07
4.52158e-07
4.50298e-07
4.48429e-07
4.46551e-07
4.44662e-07
4.42761e-07
4.40844e-07
4.38906e-07
4.3694e-07
4.34938e-07
4.32887e-07
4.30777e-07
4.28594e-07
4.26343e-07
4.24004e-07
4.21591e-07
4.19102e-07
4.1663e-07
5.23969e-07
5.23535e-07
5.22745e-07
5.21651e-07
5.20321e-07
5.18825e-07
5.17222e-07
5.15551e-07
5.13832e-07
5.12077e-07
5.10291e-07
5.08481e-07
5.06652e-07
5.04812e-07
5.02964e-07
5.01112e-07
4.99258e-07
4.97401e-07
4.95541e-07
4.93679e-07
4.91813e-07
4.89942e-07
4.88067e-07
4.86187e-07
4.843e-07
4.82407e-07
4.80506e-07
4.78597e-07
4.76679e-07
4.74753e-07
4.72816e-07
4.7087e-07
4.68914e-07
4.66947e-07
4.64971e-07
4.62982e-07
4.60983e-07
4.58973e-07
4.56952e-07
4.54918e-07
4.52874e-07
4.50815e-07
4.48747e-07
4.46661e-07
4.44566e-07
4.4245e-07
4.40323e-07
4.3817e-07
4.36006e-07
4.33809e-07
4.31603e-07
4.29357e-07
4.27105e-07
4.24805e-07
4.22506e-07
4.20146e-07
4.1779e-07
4.15346e-07
4.12908e-07
4.10385e-07
5.35665e-07
5.34912e-07
5.33495e-07
5.31538e-07
5.29247e-07
5.26818e-07
5.24377e-07
5.21975e-07
5.19616e-07
5.17285e-07
5.14975e-07
5.12684e-07
5.10419e-07
5.08184e-07
5.05981e-07
5.03808e-07
5.01662e-07
4.99537e-07
4.97429e-07
4.95334e-07
4.93248e-07
4.9117e-07
4.89096e-07
4.87024e-07
4.84952e-07
4.82876e-07
4.80797e-07
4.78711e-07
4.76618e-07
4.74515e-07
4.72403e-07
4.7028e-07
4.68145e-07
4.65997e-07
4.63838e-07
4.61664e-07
4.59478e-07
4.57276e-07
4.55064e-07
4.52833e-07
4.50593e-07
4.48333e-07
4.46067e-07
4.43777e-07
4.41487e-07
4.39166e-07
4.36855e-07
4.34505e-07
4.32179e-07
4.29802e-07
4.27473e-07
4.25073e-07
4.2276e-07
4.20345e-07
4.18081e-07
4.15663e-07
4.13497e-07
4.11082e-07
4.09053e-07
4.06547e-07
5.44364e-07
5.42635e-07
5.39986e-07
5.36854e-07
5.3363e-07
5.30525e-07
5.27589e-07
5.24787e-07
5.22069e-07
5.19404e-07
5.16786e-07
5.14221e-07
5.11715e-07
5.0927e-07
5.06877e-07
5.04529e-07
5.02217e-07
4.99932e-07
4.97669e-07
4.95423e-07
4.9319e-07
4.90965e-07
4.88746e-07
4.86528e-07
4.8431e-07
4.82087e-07
4.79858e-07
4.77621e-07
4.75374e-07
4.73115e-07
4.70844e-07
4.68558e-07
4.66258e-07
4.63942e-07
4.61611e-07
4.59263e-07
4.569e-07
4.54518e-07
4.52124e-07
4.49708e-07
4.47282e-07
4.44832e-07
4.42378e-07
4.39893e-07
4.37411e-07
4.3489e-07
4.32386e-07
4.29825e-07
4.27309e-07
4.24706e-07
4.22198e-07
4.19555e-07
4.17111e-07
4.14448e-07
4.12203e-07
4.09584e-07
4.07868e-07
4.05375e-07
4.04792e-07
4.02003e-07
5.9239e-07
5.78265e-07
5.64493e-07
5.53907e-07
5.46474e-07
5.4107e-07
5.36604e-07
5.32507e-07
5.28612e-07
5.24926e-07
5.21486e-07
5.18297e-07
5.15324e-07
5.12519e-07
5.09836e-07
5.0724e-07
5.04712e-07
5.02236e-07
4.99805e-07
4.97407e-07
4.95036e-07
4.92684e-07
4.90343e-07
4.88009e-07
4.85677e-07
4.83343e-07
4.81003e-07
4.78656e-07
4.76299e-07
4.73931e-07
4.71549e-07
4.69152e-07
4.6674e-07
4.64312e-07
4.61867e-07
4.59406e-07
4.56928e-07
4.54433e-07
4.51922e-07
4.49395e-07
4.46852e-07
4.44293e-07
4.41719e-07
4.39131e-07
4.36527e-07
4.33908e-07
4.31275e-07
4.28622e-07
4.25956e-07
4.2326e-07
4.20559e-07
4.17797e-07
4.15064e-07
4.12175e-07
4.09454e-07
4.06231e-07
4.03814e-07
3.99311e-07
3.9894e-07
3.88307e-07
4.38449e-07
3.89876e-07
3.70605e-07
3.54503e-07
3.38561e-07
3.22763e-07
3.05332e-07
2.8701e-07
2.65906e-07
2.43608e-07
2.18057e-07
1.92042e-07
1.63085e-07
1.35338e-07
1.05659e-07
7.95739e-08
5.26689e-08
3.18036e-08
1.07642e-08
-2.36307e-09
-1.60225e-08
-2.06133e-08
-2.76706e-08
-2.47531e-08
-2.8402e-08
-1.95738e-08
-2.67123e-08
-1.31288e-08
-3.2001e-08
-1.16998e-07
4.25395e-07
3.72606e-07
3.60222e-07
3.46612e-07
3.31301e-07
3.1579e-07
2.98756e-07
2.80677e-07
2.59811e-07
2.37889e-07
2.12937e-07
1.87691e-07
1.59733e-07
1.33049e-07
1.04519e-07
7.94286e-08
5.35726e-08
3.33149e-08
1.27782e-08
-2.93073e-10
-1.43101e-08
-1.92152e-08
-2.71635e-08
-2.44951e-08
-2.86981e-08
-2.07753e-08
-2.41991e-08
-2.03774e-08
-1.1447e-08
-1.41013e-07
4.13739e-07
3.70202e-07
3.58787e-07
3.45594e-07
3.29901e-07
3.13818e-07
2.96284e-07
2.77835e-07
2.56919e-07
2.34883e-07
2.10118e-07
1.84933e-07
1.57398e-07
1.30945e-07
1.03017e-07
7.8242e-08
5.29364e-08
3.2815e-08
1.2606e-08
-5.19225e-10
-1.41493e-08
-1.98304e-08
-2.69828e-08
-2.64066e-08
-2.84245e-08
-2.59159e-08
-2.39571e-08
-3.38176e-08
-1.28069e-09
-8.79502e-08
4.04053e-07
3.66628e-07
3.53371e-07
3.40775e-07
3.25673e-07
3.09912e-07
2.92582e-07
2.74056e-07
2.53184e-07
2.30985e-07
2.06446e-07
1.81204e-07
1.54208e-07
1.27792e-07
1.00706e-07
7.5887e-08
5.16026e-08
3.1179e-08
1.22669e-08
-1.91772e-09
-1.40045e-08
-2.17087e-08
-2.67329e-08
-2.95586e-08
-2.79456e-08
-3.14217e-08
-1.96748e-08
-3.85516e-08
2.7386e-10
-5.36282e-08
3.94763e-07
3.64383e-07
3.50098e-07
3.3857e-07
3.24145e-07
3.0773e-07
2.89929e-07
2.70859e-07
2.49903e-07
2.27252e-07
2.02848e-07
1.77227e-07
1.50709e-07
1.23991e-07
9.77339e-08
7.25533e-08
4.94113e-08
2.83622e-08
1.08212e-08
-4.56013e-09
-1.49202e-08
-2.45832e-08
-2.71266e-08
-3.30038e-08
-2.73012e-08
-3.44263e-08
-1.87162e-08
-3.49065e-08
-9.10801e-09
-2.9775e-08
3.86643e-07
3.62907e-07
3.47809e-07
3.35966e-07
3.21773e-07
3.05279e-07
2.87283e-07
2.677e-07
2.46568e-07
2.23404e-07
1.99008e-07
1.72903e-07
1.467e-07
1.19561e-07
9.39854e-08
6.83685e-08
4.62449e-08
2.45704e-08
8.31168e-09
-7.9883e-09
-1.68324e-08
-2.76996e-08
-2.86472e-08
-3.56437e-08
-2.88881e-08
-3.50482e-08
-2.22459e-08
-2.9324e-08
-1.75459e-08
-1.99531e-08
3.80027e-07
3.61648e-07
3.46427e-07
3.33807e-07
3.19755e-07
3.03167e-07
2.849e-07
2.64704e-07
2.43216e-07
2.19463e-07
1.94879e-07
1.68263e-07
1.42126e-07
1.14616e-07
8.94068e-08
6.35405e-08
4.20135e-08
2.01297e-08
4.52924e-09
-1.19142e-08
-2.03167e-08
-3.10292e-08
-3.21426e-08
-3.79754e-08
-3.29642e-08
-3.52998e-08
-2.74131e-08
-2.70175e-08
-2.17752e-08
-1.87861e-08
3.75139e-07
3.60465e-07
3.45697e-07
3.32184e-07
3.17926e-07
3.01157e-07
2.82535e-07
2.61715e-07
2.39689e-07
2.15348e-07
1.9035e-07
1.63292e-07
1.36922e-07
1.09204e-07
8.39651e-08
5.81502e-08
3.66885e-08
1.5096e-08
-5.67673e-10
-1.64255e-08
-2.53168e-08
-3.49036e-08
-3.72612e-08
-4.09484e-08
-3.82813e-08
-3.71445e-08
-3.23027e-08
-2.80655e-08
-2.3895e-08
-1.91991e-08
3.72046e-07
3.59362e-07
3.452e-07
3.31063e-07
3.1629e-07
2.99172e-07
2.80078e-07
2.58645e-07
2.35919e-07
2.10999e-07
1.85381e-07
1.57951e-07
1.31089e-07
1.03297e-07
7.77046e-08
5.21545e-08
3.03604e-08
9.35662e-09
-6.80663e-09
-2.17579e-08
-3.14757e-08
-3.97936e-08
-4.33137e-08
-4.53563e-08
-4.39729e-08
-4.10502e-08
-3.6765e-08
-3.11994e-08
-2.6163e-08
-2.07152e-08
3.70507e-07
3.58406e-07
3.4474e-07
3.30246e-07
3.14789e-07
2.97138e-07
2.77427e-07
2.55376e-07
2.31842e-07
2.06329e-07
1.7995e-07
1.52159e-07
1.24657e-07
9.68185e-08
7.07173e-08
4.54615e-08
2.32049e-08
2.77579e-09
-1.3914e-08
-2.81108e-08
-3.84586e-08
-4.59462e-08
-5.00807e-08
-5.1307e-08
-5.01823e-08
-4.65158e-08
-4.18182e-08
-3.548e-08
-2.94523e-08
-2.30682e-08
3.70051e-07
3.57738e-07
3.44233e-07
3.29464e-07
3.13285e-07
2.94959e-07
2.745e-07
2.51787e-07
2.2739e-07
2.01238e-07
1.74036e-07
1.45826e-07
1.17646e-07
8.96863e-08
6.30777e-08
3.79911e-08
1.53448e-08
-4.7297e-09
-2.17615e-08
-3.55618e-08
-4.62185e-08
-5.33661e-08
-5.76752e-08
-5.85934e-08
-5.73363e-08
-5.32762e-08
-4.8009e-08
-4.09755e-08
-3.39653e-08
-2.65279e-08
3.70102e-07
3.57369e-07
3.43678e-07
3.2853e-07
3.11607e-07
2.92517e-07
2.7122e-07
2.47772e-07
2.2249e-07
1.95626e-07
1.6759e-07
1.38866e-07
1.10033e-07
8.18289e-08
5.47797e-08
2.96906e-08
6.77435e-09
-1.31814e-08
-3.0391e-08
-4.40787e-08
-5.48646e-08
-6.19581e-08
-6.6302e-08
-6.71591e-08
-6.57155e-08
-6.1407e-08
-5.55824e-08
-4.79074e-08
-3.98786e-08
-3.14413e-08
3.70291e-07
3.57165e-07
3.43015e-07
3.27307e-07
3.09602e-07
2.89692e-07
2.67507e-07
2.43239e-07
2.17051e-07
1.89396e-07
1.60526e-07
1.31189e-07
1.01733e-07
7.31698e-08
4.57395e-08
2.05036e-08
-2.60462e-09
-2.2605e-08
-3.99191e-08
-5.36657e-08
-6.45387e-08
-7.17419e-08
-7.6139e-08
-7.70664e-08
-7.55199e-08
-7.10391e-08
-6.47756e-08
-5.64724e-08
-4.75347e-08
-3.80229e-08
3.70389e-07
3.56923e-07
3.42154e-07
3.25722e-07
3.0718e-07
2.86397e-07
2.6328e-07
2.38101e-07
2.10967e-07
1.82434e-07
1.52719e-07
1.22682e-07
9.26148e-08
6.35983e-08
3.58149e-08
1.03332e-08
-1.29372e-08
-3.30859e-08
-5.04906e-08
-6.44032e-08
-7.5385e-08
-8.28094e-08
-8.73286e-08
-8.84445e-08
-8.69019e-08
-8.23802e-08
-7.57792e-08
-6.69874e-08
-5.71882e-08
-4.67562e-08
3.70298e-07
3.56461e-07
3.41011e-07
3.23751e-07
3.04302e-07
2.82568e-07
2.58453e-07
2.32256e-07
2.04108e-07
1.74604e-07
1.44006e-07
1.1319e-07
8.2495e-08
5.29578e-08
2.48188e-08
-9.66632e-10
-2.44031e-08
-4.47545e-08
-6.22707e-08
-7.64082e-08
-8.75541e-08
-9.52764e-08
-1.00018e-07
-1.01431e-07
-1.0004e-07
-9.56149e-08
-8.88554e-08
-7.97135e-08
-6.92452e-08
-5.79787e-08
3.70065e-07
3.55732e-07
3.39563e-07
3.21403e-07
3.00958e-07
2.78153e-07
2.52923e-07
2.25578e-07
1.96314e-07
1.65733e-07
1.34185e-07
1.02514e-07
7.11533e-08
4.10485e-08
1.25351e-08
-1.35781e-08
-3.71959e-08
-5.77664e-08
-7.54233e-08
-8.9814e-08
-1.01185e-07
-1.09268e-07
-1.1434e-07
-1.1617e-07
-1.15094e-07
-1.10949e-07
-1.04245e-07
-9.49746e-08
-8.40722e-08
-7.21942e-08
3.69858e-07
3.54811e-07
3.37841e-07
3.18701e-07
2.97124e-07
2.73075e-07
2.46554e-07
2.17896e-07
1.87377e-07
1.55604e-07
1.23015e-07
9.04198e-08
5.83421e-08
2.76447e-08
-1.26124e-09
-2.76955e-08
-5.15017e-08
-7.2277e-08
-9.00947e-08
-1.04744e-07
-1.16394e-07
-1.24894e-07
-1.30409e-07
-1.32788e-07
-1.32217e-07
-1.28576e-07
-1.2219e-07
-1.13093e-07
-1.0206e-07
-8.99142e-08
3.69904e-07
3.5385e-07
3.35897e-07
3.15606e-07
2.92691e-07
2.67166e-07
2.39134e-07
2.08973e-07
1.77038e-07
1.43947e-07
1.10215e-07
7.66371e-08
4.38e-08
1.25078e-08
-1.67915e-08
-4.35136e-08
-6.7493e-08
-8.84339e-08
-1.06411e-07
-1.21308e-07
-1.33282e-07
-1.42247e-07
-1.48324e-07
-1.51395e-07
-1.51551e-07
-1.48668e-07
-1.42943e-07
-1.34374e-07
-1.23648e-07
-1.11614e-07
3.70321e-07
3.5295e-07
3.33703e-07
3.11955e-07
2.8741e-07
2.60141e-07
2.30356e-07
1.9849e-07
1.64969e-07
1.30436e-07
9.54681e-08
6.08634e-08
2.7244e-08
-4.62149e-09
-3.42905e-08
-6.12447e-08
-8.53562e-08
-1.06403e-07
-1.24515e-07
-1.39631e-07
-1.51956e-07
-1.61429e-07
-1.68185e-07
-1.72101e-07
-1.73226e-07
-1.71405e-07
-1.66725e-07
-1.5915e-07
-1.49246e-07
-1.3791e-07
3.70917e-07
3.51946e-07
3.30977e-07
3.0736e-07
2.80849e-07
2.51565e-07
2.19791e-07
1.86019e-07
1.50746e-07
1.14656e-07
7.83757e-08
4.27208e-08
8.32124e-09
-2.40746e-08
-5.40643e-08
-8.11753e-08
-1.05355e-07
-1.26427e-07
-1.44621e-07
-1.599e-07
-1.72576e-07
-1.82571e-07
-1.90114e-07
-1.95009e-07
-1.97368e-07
-1.96918e-07
-1.93746e-07
-1.87686e-07
-1.79277e-07
-1.69346e-07
3.7103e-07
3.50174e-07
3.27075e-07
3.0122e-07
2.72428e-07
2.40857e-07
2.06855e-07
1.70974e-07
1.33788e-07
9.60339e-08
5.83839e-08
2.1673e-08
-1.34756e-08
-4.63348e-08
-7.65637e-08
-1.03732e-07
-1.27884e-07
-1.48876e-07
-1.67059e-07
-1.82399e-07
-1.9537e-07
-2.05842e-07
-2.1423e-07
-2.20196e-07
-2.24043e-07
-2.25261e-07
-2.24107e-07