/*--------------------------------*- C++ -*----------------------------------*\
| =========                 |                                                 |
| \\      /  F ield         | OpenFOAM: The Open Source CFD Toolbox           |
|  \\    /   O peration     | Version:  2312                                  |
|   \\  /    A nd           | Website:  www.openfoam.com                      |
|    \\/     M anipulation  |                                                 |
\*---------------------------------------------------------------------------*/
FoamFile
{
    version     2.0;
    format      ascii;
    arch        "LSB;label=32;scalar=64";
    class       volScalarField;
    location    "31000";
    object      p;
}
// * * * * * * * * * * * * * * * * * * * * * * * * * * * * * * * * * * * * * //

dimensions      [0 2 -2 0 0 0 0];

internalField   nonuniform List<scalar> 
2715
(
3.3601e-07
2.85594e-07
2.6471e-07
2.47285e-07
2.29857e-07
2.12329e-07
1.92776e-07
1.71901e-07
1.47595e-07
1.21434e-07
9.11315e-08
5.93923e-08
2.35775e-08
-1.2344e-08
-5.14898e-08
-8.86394e-08
-1.27845e-07
-1.62627e-07
-1.98135e-07
-2.27272e-07
-2.55977e-07
-2.76638e-07
-2.96733e-07
-3.07659e-07
-3.19072e-07
-3.20283e-07
-3.26526e-07
-3.20002e-07
-3.26876e-07
-3.8433e-07
3.22118e-07
2.67205e-07
2.53302e-07
2.3848e-07
2.21753e-07
2.04636e-07
1.85391e-07
1.64668e-07
1.4056e-07
1.14759e-07
8.50858e-08
5.42027e-08
1.95434e-08
-1.50673e-08
-5.27319e-08
-8.84396e-08
-1.25922e-07
-1.595e-07
-1.93716e-07
-2.22065e-07
-2.50688e-07
-2.71258e-07
-2.92204e-07
-3.03425e-07
-3.16651e-07
-3.17813e-07
-3.24525e-07
-3.20916e-07
-3.11032e-07
-4.28484e-07
3.09937e-07
2.64791e-07
2.51914e-07
2.37586e-07
2.20356e-07
2.02248e-07
1.82482e-07
1.61416e-07
1.37253e-07
1.1133e-07
8.1866e-08
5.11002e-08
1.69328e-08
-1.72906e-08
-5.42238e-08
-8.93226e-08
-1.26242e-07
-1.59311e-07
-1.9346e-07
-2.21324e-07
-2.49776e-07
-2.70314e-07
-2.91557e-07
-3.03223e-07
-3.16591e-07
-3.20427e-07
-3.25762e-07
-3.32092e-07
-3.05007e-07
-4.01343e-07
2.99775e-07
2.60728e-07
2.45774e-07
2.31967e-07
2.15451e-07
1.97953e-07
1.78357e-07
1.57122e-07
1.32984e-07
1.06916e-07
7.77125e-08
4.69943e-08
1.34433e-08
-2.05124e-08
-5.65171e-08
-9.13081e-08
-1.27182e-07
-1.6002e-07
-1.92967e-07
-2.21275e-07
-2.49087e-07
-2.70829e-07
-2.91614e-07
-3.0598e-07
-3.17927e-07
-3.26762e-07
-3.27514e-07
-3.45403e-07
-3.08493e-07
-3.79162e-07
2.89971e-07
2.58158e-07
2.42361e-07
2.29689e-07
2.13707e-07
1.954e-07
1.75283e-07
1.53474e-07
1.2927e-07
1.02783e-07
7.37701e-08
4.27702e-08
9.7986e-09
-2.4274e-08
-5.9314e-08
-9.42082e-08
-1.28849e-07
-1.62089e-07
-1.93807e-07
-2.23281e-07
-2.49821e-07
-2.73853e-07
-2.93043e-07
-3.11369e-07
-3.20626e-07
-3.36218e-07
-3.29926e-07
-3.5168e-07
-3.19611e-07
-3.54554e-07
2.81397e-07
2.56441e-07
2.3985e-07
2.26677e-07
2.10951e-07
1.92537e-07
1.72233e-07
1.49909e-07
1.25569e-07
9.86013e-08
6.96856e-08
3.82886e-08
5.79186e-09
-2.85663e-08
-6.27064e-08
-9.79125e-08
-1.31316e-07
-1.65206e-07
-1.95539e-07
-2.26323e-07
-2.51387e-07
-2.77892e-07
-2.95413e-07
-3.17304e-07
-3.24462e-07
-3.43137e-07
-3.36583e-07
-3.54417e-07
-3.36503e-07
-3.48456e-07
2.74398e-07
2.54927e-07
2.38267e-07
2.24196e-07
2.08587e-07
1.90072e-07
1.69524e-07
1.46583e-07
1.21944e-07
9.44162e-08
6.54443e-08
3.36002e-08
1.39707e-09
-3.32627e-08
-6.67106e-08
-1.0218e-07
-1.34589e-07
-1.68946e-07
-1.98198e-07
-2.29925e-07
-2.54102e-07
-2.82134e-07
-2.99214e-07
-3.22736e-07
-3.30707e-07
-3.49093e-07
-3.47515e-07
-3.593e-07
-3.53238e-07
-3.55152e-07
2.69197e-07
2.53505e-07
2.37358e-07
2.22304e-07
2.06457e-07
1.87749e-07
1.66884e-07
1.43332e-07
1.18234e-07
9.01547e-08
6.09347e-08
2.87126e-08
-3.45084e-09
-3.82671e-08
-7.13625e-08
-1.06817e-07
-1.38698e-07
-1.73028e-07
-2.01881e-07
-2.3374e-07
-2.58082e-07
-2.86339e-07
-3.04764e-07
-3.28014e-07
-3.39367e-07
-3.55652e-07
-3.6035e-07
-3.67738e-07
-3.68186e-07
-3.6813e-07
2.65851e-07
2.5217e-07
2.36675e-07
2.20958e-07
2.04559e-07
1.85493e-07
1.64209e-07
1.40077e-07
1.14377e-07
8.57768e-08
5.6116e-08
2.36131e-08
-8.76321e-09
-4.35508e-08
-7.66356e-08
-1.11765e-07
-1.43583e-07
-1.77405e-07
-2.06488e-07
-2.37789e-07
-2.63107e-07
-2.90749e-07
-3.11363e-07
-3.33746e-07
-3.4873e-07
-3.63891e-07
-3.72791e-07
-3.79601e-07
-3.82647e-07
-3.836e-07
2.64088e-07
2.50998e-07
2.36055e-07
2.19958e-07
2.02838e-07
1.8324e-07
1.61403e-07
1.36713e-07
1.10309e-07
8.12071e-08
5.09595e-08
1.8243e-08
-1.45216e-08
-4.91578e-08
-8.24513e-08
-1.17068e-07
-1.49088e-07
-1.82153e-07
-2.11733e-07
-2.42221e-07
-2.68668e-07
-2.95626e-07
-3.18215e-07
-3.40283e-07
-3.57936e-07
-3.73525e-07
-3.8496e-07
-3.93148e-07
-3.97917e-07
-4.00671e-07
2.63424e-07
2.50124e-07
2.35379e-07
2.1902e-07
2.01161e-07
1.80908e-07
1.58388e-07
1.33126e-07
1.05963e-07
7.63537e-08
4.54449e-08
1.25216e-08
-2.06979e-08
-5.516e-08
-8.87174e-08
-1.22799e-07
-1.55032e-07
-1.87353e-07
-2.17329e-07
-2.47128e-07
-2.74396e-07
-3.01041e-07
-3.25001e-07
-3.47466e-07
-3.66932e-07
-3.83785e-07
-3.97224e-07
-4.07382e-07
-4.14228e-07
-4.19078e-07
2.63301e-07
2.49578e-07
2.34664e-07
2.17954e-07
1.99362e-07
1.78386e-07
1.55091e-07
1.29209e-07
1.01268e-07
7.11199e-08
3.95344e-08
6.36305e-09
-2.72961e-08
-6.1633e-08
-9.53954e-08
-1.29017e-07
-1.6133e-07
-1.93039e-07
-2.23164e-07
-2.5249e-07
-2.80201e-07
-3.06848e-07
-3.31718e-07
-3.54938e-07
-3.75851e-07
-3.94296e-07
-4.0971e-07
-4.22098e-07
-4.3133e-07
-4.38703e-07
2.63326e-07
2.49223e-07
2.33867e-07
2.16637e-07
1.97292e-07
1.75559e-07
1.5144e-07
1.24873e-07
9.61413e-08
6.54066e-08
3.31534e-08
-3.23459e-10
-3.43787e-08
-6.86559e-08
-1.02531e-07
-1.3578e-07
-1.68017e-07
-1.9922e-07
-2.29275e-07
-2.58242e-07
-2.86137e-07
-3.1289e-07
-3.38448e-07
-3.62497e-07
-3.84793e-07
-4.04878e-07
-4.22403e-07
-4.37095e-07
-4.49018e-07
-4.59069e-07
2.63269e-07
2.48857e-07
2.32909e-07
2.15008e-07
1.94867e-07
1.72341e-07
1.47361e-07
1.20033e-07
9.04821e-08
5.91041e-08
2.61867e-08
-7.64972e-09
-4.20663e-08
-7.63334e-08
-1.10244e-07
-1.43167e-07
-1.75208e-07
-2.05936e-07
-2.35765e-07
-2.64373e-07
-2.92288e-07
-3.1911e-07
-3.45237e-07
-3.70064e-07
-3.93726e-07
-4.15433e-07
-4.35175e-07
-4.52258e-07
-4.67092e-07
-4.80051e-07
2.63057e-07
2.48299e-07
2.31706e-07
2.13048e-07
1.92055e-07
1.6867e-07
1.42774e-07
1.1459e-07
8.41695e-08
5.20763e-08
1.84829e-08
-1.57668e-08
-5.05229e-08
-8.48135e-08
-1.18701e-07
-1.51301e-07
-1.83053e-07
-2.13272e-07
-2.4275e-07
-2.70919e-07
-2.9871e-07
-3.25491e-07
-3.52059e-07
-3.77561e-07
-4.02525e-07
-4.25826e-07
-4.47846e-07
-4.67418e-07
-4.85351e-07
-5.01429e-07
2.62745e-07
2.47512e-07
2.30249e-07
2.10777e-07
1.88854e-07
1.64497e-07
1.37582e-07
1.08421e-07
7.70526e-08
4.41532e-08
9.85504e-09
-2.48653e-08
-5.99453e-08
-9.42804e-08
-1.28083e-07
-1.60338e-07
-1.91697e-07
-2.21337e-07
-2.50321e-07
-2.77934e-07
-3.05422e-07
-3.32005e-07
-3.58823e-07
-3.84858e-07
-4.10975e-07
-4.35826e-07
-4.60106e-07
-4.82292e-07
-5.03483e-07
-5.22956e-07
2.62508e-07
2.46581e-07
2.28583e-07
2.08217e-07
1.85242e-07
1.59743e-07
1.31654e-07
1.01359e-07
6.89363e-08
3.51232e-08
7.85505e-11
-3.51681e-08
-7.0553e-08
-1.04936e-07
-1.38576e-07
-1.70437e-07
-2.01276e-07
-2.30236e-07
-2.58551e-07
-2.8545e-07
-3.1241e-07
-3.38588e-07
-3.65396e-07
-3.91756e-07
-4.18789e-07
-4.45089e-07
-4.71507e-07
-4.96433e-07
-5.20989e-07
-5.44282e-07
2.62585e-07
2.45664e-07
2.26752e-07
2.05322e-07
1.81102e-07
1.54238e-07
1.24778e-07
9.31653e-08
5.95644e-08
2.47255e-08
-1.11106e-08
-4.69254e-08
-8.25833e-08
-1.16991e-07
-1.50371e-07
-1.81758e-07
-2.11923e-07
-2.4007e-07
-2.67512e-07
-2.93495e-07
-3.19669e-07
-3.45157e-07
-3.7165e-07
-3.98006e-07
-4.25664e-07
-4.53149e-07
-4.81533e-07
-5.09175e-07
-5.37182e-07
-5.64654e-07
2.63087e-07
2.4487e-07
2.2471e-07
2.01903e-07
1.76163e-07
1.47683e-07
1.16639e-07
8.35218e-08
4.861e-08
1.26419e-08
-2.40239e-08
-6.04245e-08
-9.63052e-08
-1.30685e-07
-1.63683e-07
-1.94491e-07
-2.23803e-07
-2.50978e-07
-2.77307e-07
-3.02145e-07
-3.27223e-07
-3.51688e-07
-3.77489e-07
-4.03397e-07
-4.31296e-07
-4.595e-07
-4.89586e-07
-5.19645e-07
-5.51084e-07
-5.82766e-07
2.63757e-07
2.43967e-07
2.22114e-07
1.97526e-07
1.69958e-07
1.39615e-07
1.06784e-07
7.19892e-08
3.56387e-08
-1.54289e-09
-3.90638e-08
-7.6038e-08
-1.12074e-07
-1.46341e-07
-1.78821e-07
-2.08919e-07
-2.37176e-07
-2.63202e-07
-2.88133e-07
-3.11572e-07
-3.35165e-07
-3.58241e-07
-3.82845e-07
-4.07785e-07
-4.35358e-07
-4.63628e-07
-4.94944e-07
-5.26752e-07
-5.61381e-07
-5.96642e-07
2.63883e-07
2.42265e-07
2.18342e-07
1.91604e-07
1.61898e-07
1.29443e-07
9.46141e-08
5.79726e-08
2.0059e-08
-1.8402e-08
-5.67906e-08
-9.42952e-08
-1.304e-07
-1.64432e-07
-1.9624e-07
-2.25464e-07
-2.52452e-07
-2.77115e-07
-3.00328e-07
-3.22068e-07
-3.43689e-07
-3.64954e-07
-3.87682e-07
-4.11078e-07
-4.37458e-07
-4.65034e-07
-4.96672e-07
-5.29254e-07
-5.6636e-07
-6.0387e-07
2.63031e-07
2.39264e-07
2.12931e-07
1.83661e-07
1.5143e-07
1.16524e-07
7.94155e-08
4.07218e-08
1.10076e-09
-3.86992e-08
-7.79558e-08
-1.15908e-07
-1.51962e-07
-1.85578e-07
-2.16527e-07
-2.44651e-07
-2.70156e-07
-2.93202e-07
-3.14386e-07
-3.34046e-07
-3.53159e-07
-3.72054e-07
-3.92085e-07
-4.13206e-07
-4.37225e-07
-4.63184e-07
-4.93631e-07
-5.25832e-07
-5.63721e-07
-6.01569e-07
2.60916e-07
2.34484e-07
2.05252e-07
1.72942e-07
1.37678e-07
9.98807e-08
6.0143e-08
1.91627e-08
-2.2306e-08
-6.34702e-08
-1.03543e-07
-1.41787e-07
-1.77588e-07
-2.10511e-07
-2.40339e-07
-2.67063e-07
-2.90855e-07
-3.12014e-07
-3.30939e-07
-3.48123e-07
-3.64233e-07
-3.80023e-07
-3.96465e-07
-4.14258e-07
-4.34561e-07
-4.57526e-07
-4.84773e-07
-5.15007e-07
-5.51056e-07
-5.87374e-07
2.57094e-07
2.27238e-07
1.94264e-07
1.58144e-07
1.19208e-07
7.80229e-08
3.52958e-08
-8.18351e-09
-5.15824e-08
-9.40587e-08
-1.34797e-07
-1.73068e-07
-2.08296e-07
-2.40125e-07
-2.68439e-07
-2.93353e-07
-3.15129e-07
-3.34119e-07
-3.50646e-07
-3.6509e-07
-3.77879e-07
-3.89799e-07
-4.01748e-07
-4.14833e-07
-4.29896e-07
-4.47849e-07
-4.69639e-07
-4.95441e-07
-5.26576e-07
-5.59486e-07
2.49744e-07
2.15672e-07
1.7797e-07
1.37143e-07
9.38312e-08
4.87314e-08
2.67344e-09
-4.34555e-08
-8.87653e-08
-1.32382e-07
-1.73484e-07
-2.11367e-07
-2.45523e-07
-2.75694e-07
-3.019e-07
-3.24409e-07
-3.43646e-07
-3.60051e-07
-3.73965e-07
-3.85577e-07
-3.95012e-07
-4.02656e-07
-4.09382e-07
-4.16385e-07
-4.2463e-07
-4.3519e-07
-4.49044e-07
-4.67216e-07
-4.90442e-07
-5.17463e-07
2.34746e-07
1.94835e-07
1.5159e-07
1.05329e-07
5.69398e-08
7.53296e-09
-4.19058e-08
-9.04845e-08
-1.37323e-07
-1.81547e-07
-2.22352e-07
-2.59101e-07
-2.91398e-07
-3.1912e-07
-3.42421e-07
-3.61702e-07
-3.77548e-07
-3.90572e-07
-4.01248e-07
-4.09761e-07
-4.1601e-07
-4.19749e-07
-4.21313e-07
-4.216e-07
-4.21903e-07
-4.23481e-07
-4.2746e-07
-4.35019e-07
-4.47833e-07
-4.66269e-07
2.17825e-07
1.71224e-07
1.18561e-07
6.34206e-08
7.9644e-09
-4.67756e-08
-1.00144e-07
-1.51427e-07
-1.99767e-07
-2.44276e-07
-2.84197e-07
-3.1904e-07
-3.48645e-07
-3.73159e-07
-3.92938e-07
-4.08405e-07
-4.20057e-07
-4.28468e-07
-4.34258e-07
-4.38085e-07
-4.40512e-07
-4.4139e-07
-4.39557e-07
-4.34282e-07
-4.26698e-07
-4.19956e-07
-4.15158e-07
-4.11833e-07
-4.14497e-07
-4.26067e-07
1.55634e-07
9.91315e-08
4.12693e-08
-1.81617e-08
-7.80987e-08
-1.36931e-07
-1.9316e-07
-2.45576e-07
-2.9318e-07
-3.35173e-07
-3.71028e-07
-4.0064e-07
-4.24408e-07
-4.43194e-07
-4.57975e-07
-4.69156e-07
-4.76561e-07
-4.79744e-07
-4.78304e-07
-4.72932e-07
-4.6669e-07
-4.63864e-07
-4.62629e-07
-4.55921e-07
-4.41991e-07
-4.27788e-07
-4.19722e-07
-4.16615e-07
-4.15618e-07
-4.1736e-07
1.25809e-07
5.64057e-08
-1.85768e-08
-9.2271e-08
-1.61539e-07
-2.25772e-07
-2.84813e-07
-3.38058e-07
-3.84534e-07
-4.23321e-07
-4.53884e-07
-4.76354e-07
-4.91632e-07
-5.0152e-07
-5.08576e-07
-5.15917e-07
-5.25144e-07
-5.32184e-07
-5.29585e-07
-5.14026e-07
-4.90604e-07
-4.71157e-07
-4.63108e-07
-4.62767e-07
-4.60754e-07
-4.54148e-07
-4.46171e-07
-4.39925e-07
-4.37398e-07
-4.38763e-07
-1.15105e-07
-1.91997e-07
-2.69384e-07
-3.4535e-07
-4.15416e-07
-4.76252e-07
-5.26169e-07
-5.64379e-07
-5.90472e-07
-6.04402e-07
-6.06749e-07
-5.98985e-07
-5.83537e-07
-5.63982e-07
-5.44745e-07
-5.30572e-07
-5.24122e-07
-5.25221e-07
-5.29091e-07
-5.29219e-07
-5.22927e-07
-5.12377e-07
-4.98932e-07
-4.84168e-07
-4.70472e-07
-4.60784e-07
-4.55247e-07
-4.53184e-07
-4.53845e-07
-4.56024e-07
2.76401e-07
2.77082e-07
2.78448e-07
2.8038e-07
2.82399e-07
2.83921e-07
2.84828e-07
2.85116e-07
2.84201e-07
2.80232e-07
2.71144e-07
2.55705e-07
2.11363e-07
1.80792e-07
-3.39282e-08
-1.92158e-07
-2.69552e-07
-3.45523e-07
-4.15595e-07
-4.76436e-07
-5.26356e-07
-5.64569e-07
-5.90661e-07
-6.04591e-07
-6.06935e-07
-5.99167e-07
-5.83714e-07
-5.64152e-07
-5.44908e-07
-5.30728e-07
-5.24273e-07
-5.25371e-07
-5.29243e-07
-5.29374e-07
-5.23084e-07
-5.12533e-07
-4.99087e-07
-4.84319e-07
-4.70617e-07
-4.60923e-07
-4.55384e-07
-4.53321e-07
-4.53983e-07
-4.56165e-07
5.62889e-08
-1.87007e-08
-9.24018e-08
-1.61676e-07
-2.25915e-07
-2.8496e-07
-3.38209e-07
-3.84689e-07
-4.23478e-07
-4.54042e-07
-4.76512e-07
-4.9179e-07
-5.01677e-07
-5.0873e-07
-5.16069e-07
-5.25297e-07
-5.32342e-07
-5.29747e-07
-5.14191e-07
-4.90764e-07
-4.71307e-07
-4.6325e-07
-4.62907e-07
-4.60893e-07
-4.54285e-07
-4.46305e-07
-4.40054e-07
-4.37525e-07
-4.38889e-07
9.90273e-08
4.11591e-08
-1.82781e-08
-7.82211e-08
-1.37059e-07
-1.93293e-07
-2.45713e-07
-2.93321e-07
-3.35317e-07
-3.71174e-07
-4.00788e-07
-4.24556e-07
-4.43343e-07
-4.58124e-07
-4.69306e-07
-4.76713e-07
-4.79896e-07
-4.78457e-07
-4.73083e-07
-4.66837e-07
-4.64007e-07
-4.62771e-07
-4.56062e-07
-4.42127e-07
-4.27912e-07
-4.19836e-07
-4.16725e-07
-4.15725e-07
-4.17465e-07
1.71136e-07
1.18467e-07
6.33206e-08
7.85854e-09
-4.6887e-08
-1.00261e-07
-1.51548e-07
-1.99892e-07
-2.44405e-07
-2.84329e-07
-3.19175e-07
-3.48781e-07
-3.73297e-07
-3.93078e-07
-4.08546e-07
-4.20199e-07
-4.2861e-07
-4.344e-07
-4.38226e-07
-4.40653e-07
-4.4153e-07
-4.39694e-07
-4.34416e-07
-4.26826e-07
-4.20078e-07
-4.15274e-07
-4.11945e-07
-4.14606e-07
-4.26178e-07
1.94757e-07
1.51506e-07
1.05239e-07
5.68447e-08
7.43249e-09
-4.20112e-08
-9.05946e-08
-1.37438e-07
-1.81665e-07
-2.22474e-07
-2.59226e-07
-2.91526e-07
-3.1925e-07
-3.42553e-07
-3.61835e-07
-3.77682e-07
-3.90707e-07
-4.01384e-07
-4.09897e-07
-4.16146e-07
-4.19884e-07
-4.21446e-07
-4.21732e-07
-4.22033e-07
-4.23609e-07
-4.27588e-07
-4.35149e-07
-4.47968e-07
-4.66413e-07
2.15601e-07
1.77894e-07
1.37062e-07
9.37447e-08
4.86398e-08
2.57696e-09
-4.35567e-08
-8.88709e-08
-1.32491e-07
-1.73597e-07
-2.11484e-07
-2.45643e-07
-2.75817e-07
-3.02025e-07
-3.24536e-07
-3.43774e-07
-3.6018e-07
-3.74095e-07
-3.85708e-07
-3.95144e-07
-4.02789e-07
-4.09515e-07
-4.16518e-07
-4.24765e-07
-4.35329e-07
-4.49188e-07
-4.67368e-07
-4.90605e-07
-5.1764e-07
2.27173e-07
1.94195e-07
1.5807e-07
1.19129e-07
7.79384e-08
3.52065e-08
-8.27746e-09
-5.16808e-08
-9.41614e-08
-1.34903e-07
-1.73178e-07
-2.08409e-07
-2.40242e-07
-2.68558e-07
-2.93474e-07
-3.15252e-07
-3.34244e-07
-3.50772e-07
-3.65218e-07
-3.78008e-07
-3.8993e-07
-4.01881e-07
-4.14969e-07
-4.30036e-07
-4.47995e-07
-4.69795e-07
-4.95608e-07
-5.26758e-07
-5.59686e-07
2.34424e-07
2.05187e-07
1.72873e-07
1.37604e-07
9.98019e-08
6.00596e-08
1.90747e-08
-2.23985e-08
-6.35669e-08
-1.03644e-07
-1.41891e-07
-1.77697e-07
-2.10622e-07
-2.40453e-07
-2.67179e-07
-2.90974e-07
-3.12135e-07
-3.31062e-07
-3.48248e-07
-3.64361e-07
-3.80153e-07
-3.96599e-07
-4.14396e-07
-4.34706e-07
-4.57678e-07
-4.84935e-07
-5.15182e-07
-5.51247e-07
-5.87584e-07
2.39208e-07
2.12871e-07
1.83597e-07
1.51361e-07
1.1645e-07
7.93371e-08
4.06389e-08
1.01338e-09
-3.87909e-08
-7.80517e-08
-1.16008e-07
-1.52065e-07
-1.85685e-07
-2.16637e-07
-2.44764e-07
-2.70271e-07
-2.9332e-07
-3.14506e-07
-3.34169e-07
-3.53285e-07
-3.72183e-07
-3.92218e-07
-4.13344e-07
-4.3737e-07
-4.63338e-07
-4.93795e-07
-5.26008e-07
-5.63912e-07
-6.01776e-07
2.42212e-07
2.18285e-07
1.91543e-07
1.61833e-07
1.29374e-07
9.45398e-08
5.78939e-08
1.99759e-08
-1.84894e-08
-5.68822e-08
-9.43908e-08
-1.30499e-07
-1.64535e-07
-1.96347e-07
-2.25573e-07
-2.52564e-07
-2.7723e-07
-3.00445e-07
-3.22188e-07
-3.43813e-07
-3.65081e-07
-3.87814e-07
-4.11216e-07
-4.37603e-07
-4.65187e-07
-4.96834e-07
-5.29426e-07
-5.66543e-07
-6.04066e-07
2.43917e-07
2.2206e-07
1.97468e-07
1.69895e-07
1.39549e-07
1.06713e-07
7.19142e-08
3.55594e-08
-1.62646e-09
-3.91516e-08
-7.61298e-08
-1.1217e-07
-1.4644e-07
-1.78924e-07
-2.09025e-07
-2.37285e-07
-2.63313e-07
-2.88248e-07
-3.1169e-07
-3.35287e-07
-3.58366e-07
-3.82975e-07
-4.07921e-07
-4.355e-07
-4.63777e-07
-4.951e-07
-5.26916e-07
-5.61553e-07
-5.96822e-07
2.44822e-07
2.24659e-07
2.01848e-07
1.76103e-07
1.47619e-07
1.16571e-07
8.34501e-08
4.8534e-08
1.25617e-08
-2.41084e-08
-6.0513e-08
-9.63977e-08
-1.30781e-07
-1.63783e-07
-1.94594e-07
-2.23909e-07
-2.51087e-07
-2.77419e-07
-3.0226e-07
-3.27342e-07
-3.51811e-07
-3.77617e-07
-4.03529e-07
-4.31434e-07
-4.59643e-07
-4.89734e-07
-5.19799e-07
-5.51241e-07
-5.82928e-07
2.45619e-07
2.26703e-07
2.05269e-07
1.81045e-07
1.54178e-07
1.24713e-07
9.30964e-08
5.94914e-08
2.46482e-08
-1.11921e-08
-4.7011e-08
-8.26728e-08
-1.17084e-07
-1.50468e-07
-1.81858e-07
-2.12027e-07
-2.40177e-07
-2.67622e-07
-2.93609e-07
-3.19785e-07
-3.45278e-07
-3.71775e-07
-3.98135e-07
-4.25797e-07
-4.53286e-07
-4.81673e-07
-5.09318e-07
-5.37326e-07
-5.64798e-07
2.46538e-07
2.28536e-07
2.08167e-07
1.85188e-07
1.59685e-07
1.31592e-07
1.01292e-07
6.88659e-08
3.50486e-08
-2.3286e-13
-3.5251e-08
-7.06399e-08
-1.05027e-07
-1.38671e-07
-1.70534e-07
-2.01377e-07
-2.30341e-07
-2.58658e-07
-2.85561e-07
-3.12524e-07
-3.38705e-07
-3.65517e-07
-3.9188e-07
-4.18916e-07
-4.45218e-07
-4.71638e-07
-4.96564e-07
-5.21119e-07
-5.44409e-07
2.47471e-07
2.30204e-07
2.10728e-07
1.88802e-07
1.64441e-07
1.37522e-07
1.08357e-07
7.69846e-08
4.40809e-08
9.77869e-09
-2.49458e-08
-6.00297e-08
-9.43687e-08
-1.28175e-07
-1.60433e-07
-1.91795e-07
-2.21439e-07
-2.50425e-07
-2.78042e-07
-3.05532e-07
-3.3212e-07
-3.5894e-07
-3.84977e-07
-4.11095e-07
-4.35948e-07
-4.60228e-07
-4.82412e-07
-5.03599e-07
-5.23068e-07
2.48259e-07
2.31663e-07
2.13002e-07
1.92004e-07
1.68616e-07
1.42716e-07
1.14528e-07
8.41037e-08
5.20062e-08
1.84088e-08
-1.58451e-08
-5.06051e-08
-8.48997e-08
-1.1879e-07
-1.51395e-07
-1.83149e-07
-2.13372e-07
-2.42852e-07
-2.71025e-07
-2.98818e-07
-3.25602e-07
-3.52172e-07
-3.77675e-07
-4.02639e-07
-4.2594e-07
-4.47958e-07
-4.67527e-07
-4.85455e-07
-5.01527e-07
2.48819e-07
2.32867e-07
2.14963e-07
1.94818e-07
1.72289e-07
1.47305e-07
1.19973e-07
9.04182e-08
5.9036e-08
2.61145e-08
-7.72606e-09
-4.21465e-08
-7.64176e-08
-1.10332e-07
-1.43258e-07
-1.75303e-07
-2.06034e-07
-2.35866e-07
-2.64476e-07
-2.92393e-07
-3.19217e-07
-3.45345e-07
-3.70173e-07
-3.93835e-07
-4.1554e-07
-4.35279e-07
-4.52357e-07
-4.67184e-07
-4.80137e-07
2.49186e-07
2.33827e-07
2.16594e-07
1.97245e-07
1.75509e-07
1.51386e-07
1.24815e-07
9.60792e-08
6.53403e-08
3.30831e-08
-3.97923e-10
-3.4457e-08
-6.87382e-08
-1.02616e-07
-1.3587e-07
-1.68109e-07
-1.99315e-07
-2.29373e-07
-2.58343e-07
-2.86239e-07
-3.12994e-07
-3.38552e-07
-3.62601e-07
-3.84895e-07
-4.04978e-07
-4.22498e-07
-4.37185e-07
-4.49099e-07
-4.59142e-07
2.49542e-07
2.34626e-07
2.17912e-07
1.99317e-07
1.78337e-07
1.55038e-07
1.29153e-07
1.01208e-07
7.10554e-08
3.94658e-08
6.29034e-09
-2.73727e-08
-6.17135e-08
-9.54794e-08
-1.29105e-07
-1.6142e-07
-1.93133e-07
-2.2326e-07
-2.52588e-07
-2.803e-07
-3.06948e-07
-3.31817e-07
-3.55037e-07
-3.75948e-07
-3.94389e-07
-4.09798e-07
-4.22179e-07
-4.31402e-07
-4.38766e-07
2.5009e-07
2.35342e-07
2.18979e-07
2.01117e-07
1.80861e-07
1.58337e-07
1.33071e-07
1.05904e-07
7.62908e-08
4.5378e-08
1.24505e-08
-2.07729e-08
-5.52389e-08
-8.87998e-08
-1.22884e-07
-1.5512e-07
-1.87445e-07
-2.17422e-07
-2.47223e-07
-2.74492e-07
-3.01137e-07
-3.25097e-07
-3.47561e-07
-3.67023e-07
-3.83871e-07
-3.97304e-07
-4.07455e-07
-4.14292e-07
-4.19132e-07
2.50965e-07
2.36019e-07
2.19919e-07
2.02795e-07
1.83194e-07
1.61354e-07
1.3666e-07
1.10252e-07
8.11457e-08
5.0894e-08
1.81735e-08
-1.45951e-08
-4.92351e-08
-8.25322e-08
-1.17153e-07
-1.49175e-07
-1.82243e-07
-2.11824e-07
-2.42313e-07
-2.68761e-07
-2.9572e-07
-3.18307e-07
-3.40373e-07
-3.58022e-07
-3.73606e-07
-3.85034e-07
-3.93213e-07
-3.97974e-07
-4.00718e-07
2.52138e-07
2.3664e-07
2.20919e-07
2.04518e-07
1.85448e-07
1.64161e-07
1.40025e-07
1.14321e-07
8.57169e-08
5.60519e-08
2.3545e-08
-8.83536e-09
-4.36266e-08
-7.67151e-08
-1.11848e-07
-1.43669e-07
-1.77493e-07
-2.06577e-07
-2.3788e-07
-2.63198e-07
-2.90839e-07
-3.11451e-07
-3.33831e-07
-3.48811e-07
-3.63967e-07
-3.7286e-07
-3.79661e-07
-3.82698e-07
-3.83642e-07
2.53474e-07
2.37324e-07
2.22267e-07
2.06417e-07
1.87706e-07
1.66837e-07
1.43281e-07
1.18179e-07
9.0096e-08
6.08719e-08
2.86458e-08
-3.52175e-09
-3.83416e-08
-7.14407e-08
-1.06898e-07
-1.38782e-07
-1.73114e-07
-2.01969e-07
-2.33828e-07
-2.58171e-07
-2.86425e-07
-3.04849e-07
-3.28095e-07
-3.39443e-07
-3.55724e-07
-3.60413e-07
-3.67794e-07
-3.68232e-07
-3.68168e-07
2.54897e-07
2.38234e-07
2.2416e-07
2.08548e-07
1.9003e-07
1.69478e-07
1.46533e-07
1.21891e-07
9.43587e-08
6.53827e-08
3.35346e-08
1.3273e-09
-3.3336e-08
-6.67877e-08
-1.0226e-07
-1.34672e-07
-1.6903e-07
-1.98284e-07
-2.30011e-07
-2.54188e-07
-2.82218e-07
-2.99296e-07
-3.22813e-07
-3.3078e-07
-3.49159e-07
-3.47573e-07
-3.59352e-07
-3.53279e-07
-3.55188e-07
2.56412e-07
2.39818e-07
2.26642e-07
2.10913e-07
1.92495e-07
1.72189e-07
1.49861e-07
1.25517e-07
9.8545e-08
6.9625e-08
3.82241e-08
5.72312e-09
-2.86386e-08
-6.27825e-08
-9.79912e-08
-1.31398e-07
-1.65289e-07
-1.95624e-07
-2.26407e-07
-2.51472e-07
-2.77973e-07
-2.95492e-07
-3.17377e-07
-3.24531e-07
-3.43197e-07
-3.36639e-07
-3.54466e-07
-3.36542e-07
-3.48492e-07
2.58129e-07
2.4233e-07
2.29655e-07
2.1367e-07
1.9536e-07
1.7524e-07
1.53427e-07
1.29219e-07
1.02728e-07
7.37105e-08
4.27066e-08
9.73076e-09
-2.43455e-08
-5.93891e-08
-9.42861e-08
-1.28929e-07
-1.62171e-07
-1.9389e-07
-2.23364e-07
-2.49903e-07
-2.73932e-07
-2.93119e-07
-3.1144e-07
-3.2069e-07
-3.36269e-07
-3.2998e-07
-3.51724e-07
-3.19649e-07
-3.54591e-07
2.60701e-07
2.45743e-07
2.31933e-07
2.15415e-07
1.97914e-07
1.78315e-07
1.57076e-07
1.32933e-07
1.06861e-07
7.76537e-08
4.69314e-08
1.33762e-08
-2.05833e-08
-5.65915e-08
-9.13855e-08
-1.27261e-07
-1.60101e-07
-1.93049e-07
-2.21357e-07
-2.49167e-07
-2.70906e-07
-2.91687e-07
-3.06048e-07
-3.17989e-07
-3.26819e-07
-3.27565e-07
-3.45443e-07
-3.0853e-07
-3.79194e-07
2.64764e-07
2.51885e-07
2.37554e-07
2.20321e-07
2.02209e-07
1.8244e-07
1.6137e-07
1.37203e-07
1.11276e-07
8.1808e-08
5.1038e-08
1.68664e-08
-1.7361e-08
-5.42977e-08
-8.93997e-08
-1.26321e-07
-1.59391e-07
-1.93541e-07
-2.21405e-07
-2.49854e-07
-2.70391e-07
-2.91628e-07
-3.0329e-07
-3.16652e-07
-3.20482e-07
-3.2581e-07
-3.32131e-07
-3.05041e-07
-4.01365e-07
2.67179e-07
2.53273e-07
2.38448e-07
2.21718e-07
2.04599e-07
1.8535e-07
1.64623e-07
1.40511e-07
1.14706e-07
8.50283e-08
5.41408e-08
1.94773e-08
-1.51375e-08
-5.28055e-08
-8.85165e-08
-1.26001e-07
-1.59581e-07
-1.93797e-07
-2.22145e-07
-2.50766e-07
-2.71334e-07
-2.92275e-07
-3.03492e-07
-3.16711e-07
-3.17868e-07
-3.24571e-07
-3.20957e-07
-3.11064e-07
-4.28489e-07
2.8557e-07
2.64683e-07
2.47255e-07
2.29824e-07
2.12293e-07
1.92736e-07
1.71857e-07
1.47548e-07
1.21382e-07
9.10749e-08
5.93311e-08
2.35119e-08
-1.24139e-08
-5.15633e-08
-8.87164e-08
-1.27924e-07
-1.62708e-07
-1.98216e-07
-2.27352e-07
-2.56054e-07
-2.76713e-07
-2.96803e-07
-3.07723e-07
-3.1913e-07
-3.20335e-07
-3.26569e-07
-3.2004e-07
-3.26902e-07
-3.84334e-07
-4.58832e-07
-4.44577e-07
-4.2979e-07
-4.48972e-07
-4.94021e-07
-5.50975e-07
-5.98265e-07
-6.2949e-07
-6.44596e-07
-6.4553e-07
-6.35555e-07
-6.17836e-07
-5.9552e-07
-5.70983e-07
-5.45632e-07
-5.20159e-07
-4.95026e-07
-4.70584e-07
-4.4718e-07
-4.25211e-07
-4.04868e-07
-3.86505e-07
-3.70425e-07
-3.57056e-07
-3.46941e-07
-3.37612e-07
-3.22508e-07
-2.90455e-07
-2.42852e-07
-2.11875e-07
-4.62509e-07
-4.53278e-07
-4.46002e-07
-4.63046e-07
-5.0695e-07
-5.64211e-07
-6.19766e-07
-6.61039e-07
-6.84645e-07
-6.91705e-07
-6.84387e-07
-6.66465e-07
-6.4217e-07
-6.14732e-07
-5.86252e-07
-5.57844e-07
-5.29948e-07
-5.02891e-07
-4.7678e-07
-4.51969e-07
-4.28802e-07
-4.07375e-07
-3.88136e-07
-3.70405e-07
-3.54208e-07
-3.39098e-07
-3.2666e-07
-3.19596e-07
-3.14133e-07
-3.05266e-07
-4.66623e-07
-4.63526e-07
-4.67119e-07
-4.90735e-07
-5.32134e-07
-5.84251e-07
-6.38601e-07
-6.85972e-07
-7.19577e-07
-7.36824e-07
-7.38409e-07
-7.26232e-07
-7.03872e-07
-6.75291e-07
-6.43788e-07
-6.11766e-07
-5.80335e-07
-5.50075e-07
-5.2131e-07
-4.93766e-07
-4.67715e-07
-4.42736e-07
-4.19136e-07
-3.9685e-07
-3.76168e-07
-3.58074e-07
-3.41774e-07
-3.27684e-07
-3.08354e-07
-2.84957e-07
-4.71366e-07
-4.74602e-07
-4.89915e-07
-5.21207e-07
-5.65021e-07
-6.14485e-07
-6.65782e-07
-7.13436e-07
-7.5212e-07
-7.78111e-07
-7.89627e-07
-7.87053e-07
-7.71858e-07
-7.46859e-07
-7.15212e-07
-6.80116e-07
-6.44157e-07
-6.08626e-07
-5.7462e-07
-5.42294e-07
-5.11918e-07
-4.83323e-07
-4.56108e-07
-4.30813e-07
-4.06573e-07
-3.84304e-07
-3.62177e-07
-3.40618e-07
-3.1792e-07
-2.97053e-07
-4.76542e-07
-4.85447e-07
-5.11554e-07
-5.51067e-07
-5.99329e-07
-6.50638e-07
-7.00562e-07
-7.47079e-07
-7.8685e-07
-8.17144e-07
-8.3575e-07
-8.41849e-07
-8.3544e-07
-8.17776e-07
-7.90975e-07
-7.57177e-07
-7.19379e-07
-6.79524e-07
-6.39615e-07
-6.00765e-07
-5.63492e-07
-5.28905e-07
-4.96488e-07
-4.671e-07
-4.39133e-07
-4.13056e-07
-3.87867e-07
-3.6434e-07
-3.42615e-07
-3.23158e-07
-4.81049e-07
-4.9431e-07
-5.29337e-07
-5.76219e-07
-6.29842e-07
-6.8464e-07
-7.37054e-07
-7.84198e-07
-8.2479e-07
-8.56878e-07
-8.79328e-07
-8.90888e-07
-8.91562e-07
-8.81288e-07
-8.61365e-07
-8.32874e-07
-7.97856e-07
-7.58149e-07
-7.15634e-07
-6.72314e-07
-6.2923e-07
-5.87984e-07
-5.48666e-07
-5.12083e-07
-4.77932e-07
-4.46584e-07
-4.17916e-07
-3.91901e-07
-3.68524e-07
-3.47477e-07
-4.82723e-07
-4.98893e-07
-5.40805e-07
-5.9376e-07
-6.52735e-07
-7.1208e-07
-7.68503e-07
-8.19051e-07
-8.61967e-07
-8.96428e-07
-9.21629e-07
-9.36668e-07
-9.41917e-07
-9.37253e-07
-9.23294e-07
-9.00834e-07
-8.70953e-07
-8.3504e-07
-7.94416e-07
-7.50765e-07
-7.05426e-07
-6.59858e-07
-6.15087e-07
-5.72024e-07
-5.31321e-07
-4.9337e-07
-4.58328e-07
-4.26152e-07
-3.96714e-07
-3.70375e-07
-4.78896e-07
-4.96975e-07
-5.43993e-07
-6.01694e-07
-6.65463e-07
-7.29355e-07
-7.90198e-07
-8.45271e-07
-8.92514e-07
-9.30754e-07
-9.59232e-07
-9.78e-07
-9.86849e-07
-9.86322e-07
-9.76826e-07
-9.59289e-07
-9.34374e-07
-9.03033e-07
-8.66287e-07
-8.25186e-07
-7.80994e-07
-7.34818e-07
-6.87887e-07
-6.41199e-07
-5.95636e-07
-5.51906e-07
-5.10394e-07
-4.71558e-07
-4.35537e-07
-4.02956e-07
-4.67345e-07
-4.87405e-07
-5.37752e-07
-5.99157e-07
-6.66781e-07
-7.34606e-07
-7.99526e-07
-8.58769e-07
-9.10248e-07
-9.53362e-07
-9.86075e-07
-1.00928e-06
-1.02213e-06
-1.02566e-06
-1.02007e-06
-1.00647e-06
-9.85565e-07
-9.58176e-07
-9.25159e-07
-8.87335e-07
-8.45648e-07
-8.01047e-07
-7.54479e-07
-7.0692e-07
-6.5922e-07
-6.12207e-07
-5.66585e-07
-5.22915e-07
-4.81839e-07
-4.43715e-07
-4.47228e-07
-4.69867e-07
-5.22179e-07
-5.86386e-07
-6.56866e-07
-7.27788e-07
-7.95881e-07
-8.58456e-07
-9.13616e-07
-9.60501e-07
-9.97203e-07
-1.0248e-06
-1.04165e-06
-1.04928e-06
-1.04746e-06
-1.03764e-06
-1.02018e-06
-9.96251e-07
-9.66417e-07
-9.31598e-07
-8.92533e-07
-8.50041e-07
-8.04983e-07
-7.5805e-07
-7.1025e-07
-6.62087e-07
-6.14674e-07
-5.68245e-07
-5.23923e-07
-4.81605e-07
-4.19792e-07
-4.45139e-07
-4.98786e-07
-5.64906e-07
-6.37288e-07
-7.10272e-07
-7.80484e-07
-8.45302e-07
-9.02972e-07
-9.52273e-07
-9.92234e-07
-1.02264e-06
-1.04292e-06
-1.05401e-06
-1.05533e-06
-1.04883e-06
-1.03417e-06
-1.01317e-06
-9.85913e-07
-9.53552e-07
-9.16826e-07
-8.76175e-07
-8.32848e-07
-7.86885e-07
-7.39822e-07
-6.91505e-07
-6.43546e-07
-5.95673e-07
-5.49361e-07
-5.0409e-07
-3.88276e-07
-4.15868e-07
-4.7057e-07
-5.3782e-07
-6.11225e-07
-6.8527e-07
-7.56564e-07
-8.2253e-07
-8.8144e-07
-9.3204e-07
-9.73546e-07
-1.00556e-06
-1.02788e-06
-1.04075e-06
-1.04441e-06
-1.03981e-06
-1.02756e-06
-1.00877e-06
-9.83318e-07
-9.52745e-07
-9.17636e-07
-8.78262e-07
-8.36299e-07
-7.91061e-07
-7.44719e-07
-6.96367e-07
-6.48218e-07
-5.99352e-07
-5.51741e-07
-5.04395e-07
-3.57416e-07
-3.86517e-07
-4.4196e-07
-5.09693e-07
-5.83383e-07
-6.5766e-07
-7.29163e-07
-7.95346e-07
-8.54499e-07
-9.05398e-07
-9.47291e-07
-9.79783e-07
-1.00279e-06
-1.01645e-06
-1.02112e-06
-1.01736e-06
-1.00583e-06
-9.87421e-07
-9.63075e-07
-9.33536e-07
-8.99028e-07
-8.60546e-07
-8.18809e-07
-7.74153e-07
-7.28019e-07
-6.79267e-07
-6.31408e-07
-5.81318e-07
-5.33206e-07
-4.84327e-07
-3.32554e-07
-3.62538e-07
-4.18302e-07
-4.86044e-07
-5.59534e-07
-6.33532e-07
-7.04712e-07
-7.70546e-07
-8.29341e-07
-8.79898e-07
-9.21494e-07
-9.53749e-07
-9.76604e-07
-9.90244e-07
-9.95044e-07
-9.91513e-07
-9.80263e-07
-9.61983e-07
-9.37388e-07
-9.07268e-07
-8.72654e-07
-8.34163e-07
-7.92237e-07
-7.4756e-07
-7.00804e-07
-6.52492e-07
-6.03433e-07
-5.53831e-07
-5.04415e-07
-4.54995e-07
-3.1861e-07
-3.48944e-07
-4.0471e-07
-4.72235e-07
-5.4536e-07
-6.18923e-07
-6.89628e-07
-7.54958e-07
-8.13228e-07
-8.63252e-07
-9.04322e-07
-9.36074e-07
-9.58458e-07
-9.7166e-07
-9.76062e-07
-9.7219e-07
-9.60672e-07
-9.42164e-07
-9.17346e-07
-8.86957e-07
-8.51745e-07
-8.12442e-07
-7.69952e-07
-7.24952e-07
-6.78037e-07
-6.2977e-07
-5.80685e-07
-5.3129e-07
-4.82211e-07
-4.33996e-07
-3.18642e-07
-3.48976e-07
-4.04747e-07
-4.72277e-07
-5.4541e-07
-6.18982e-07
-6.89695e-07
-7.55033e-07
-8.1331e-07
-8.63341e-07
-9.04416e-07
-9.36172e-07
-9.5856e-07
-9.71766e-07
-9.76168e-07
-9.72293e-07
-9.60772e-07
-9.42256e-07
-9.17426e-07
-8.87023e-07
-8.51802e-07
-8.12497e-07
-7.70001e-07
-7.24995e-07
-6.78072e-07
-6.29798e-07
-5.80706e-07
-5.31303e-07
-4.82217e-07
-4.33995e-07
-3.32647e-07
-3.62632e-07
-4.18406e-07
-4.86166e-07
-5.59678e-07
-6.33699e-07
-7.04902e-07
-7.70757e-07
-8.2957e-07
-8.80143e-07
-9.2175e-07
-9.54014e-07
-9.76877e-07
-9.90521e-07
-9.95323e-07
-9.91789e-07
-9.8053e-07
-9.62234e-07
-9.37618e-07
-9.07467e-07
-8.72817e-07
-8.34293e-07
-7.92342e-07
-7.47645e-07
-7.00871e-07
-6.52542e-07
-6.03465e-07
-5.53846e-07
-5.04414e-07
-4.54976e-07
-3.57563e-07
-3.86664e-07
-4.42123e-07
-5.09881e-07
-5.83603e-07