/*--------------------------------*- C++ -*----------------------------------*\
| =========                 |                                                 |
| \\      /  F ield         | OpenFOAM: The Open Source CFD Toolbox           |
|  \\    /   O peration     | Version:  2312                                  |
|   \\  /    A nd           | Website:  www.openfoam.com                      |
|    \\/     M anipulation  |                                                 |
\*---------------------------------------------------------------------------*/
FoamFile
{
    version     2.0;
    format      ascii;
    arch        "LSB;label=32;scalar=64";
    class       surfaceScalarField;
    location    "31000";
    object      phi;
}
// * * * * * * * * * * * * * * * * * * * * * * * * * * * * * * * * * * * * * //

dimensions      [0 3 -1 0 0 0 0];

oriented        oriented;

internalField   nonuniform List<scalar> 
5309
(
7.4928e-05
2.77938e-05
6.94992e-05
5.42886e-06
6.31804e-05
6.31875e-06
5.99584e-05
3.22201e-06
5.88275e-05
1.13094e-06
5.95695e-05
-7.42035e-07
6.07809e-05
-1.21138e-06
6.32951e-05
-2.51424e-06
6.56825e-05
-2.38733e-06
6.91493e-05
-3.46684e-06
7.19408e-05
-2.79149e-06
7.56406e-05
-3.69981e-06
7.81127e-05
-2.47207e-06
8.13487e-05
-3.236e-06
8.28293e-05
-1.48065e-06
8.50778e-05
-2.24849e-06
8.50064e-05
7.14561e-08
8.58046e-05
-7.98241e-07
8.3883e-05
1.92158e-06
8.29421e-05
9.40991e-07
7.89225e-05
4.01959e-06
7.62206e-05
2.70185e-06
7.00152e-05
6.20537e-06
6.57879e-05
4.22734e-06
5.7782e-05
8.00587e-06
5.3065e-05
4.71705e-06
4.36222e-05
9.44278e-06
4.3902e-05
-2.79802e-07
1.33437e-05
3.05583e-05
-1.08878e-05
2.42315e-05
0.000149174
3.36244e-05
0.000146924
7.67843e-06
0.000144674
8.56867e-06
0.000143448
4.44834e-06
0.000143253
1.32557e-06
0.000145033
-2.5217e-06
0.000147526
-3.70483e-06
0.000151814
-6.80231e-06
0.000156174
-6.74704e-06
0.000162197
-9.49006e-06
0.000167578
-8.17185e-06
0.000174449
-1.0571e-05
0.000179873
-7.89605e-06
0.000186634
-9.99702e-06
0.00019113
-5.97672e-06
0.000196833
-7.95136e-06
0.000199535
-2.63073e-06
0.000203518
-4.78135e-06
0.000203675
1.7647e-06
0.000205542
-9.26404e-07
0.000202327
7.23471e-06
0.000201564
3.46499e-06
0.000194152
1.36174e-05
0.000190869
7.51077e-06
0.000177515
2.13592e-05
0.000173942
8.29051e-06
0.000148052
3.53329e-05
0.00015182
-4.04799e-06
0.000111918
7.04604e-05
-1.57844e-05
0.000116814
0.000198331
3.14619e-05
0.000199161
6.84808e-06
0.000200669
7.06107e-06
0.000201723
3.39391e-06
0.00020306
-1.0958e-08
0.000205566
-5.02831e-06
0.000208557
-6.69538e-06
0.000213111
-1.13563e-05
0.000217708
-1.13446e-05
0.000223978
-1.57595e-05
0.000229709
-1.39033e-05
0.000237106
-1.79674e-05
0.000243234
-1.40241e-05
0.000251058
-1.78216e-05
0.000256782
-1.17007e-05
0.000264391
-1.55602e-05
0.000268972
-7.21108e-06
0.000275908
-1.17177e-05
0.000278473
-8.00626e-07
0.000284224
-6.67709e-06
0.000283935
7.52366e-06
0.000288304
-9.03986e-07
0.000283533
1.83887e-05
0.000286916
4.12697e-06
0.000274758
3.3518e-05
0.00027842
4.62805e-06
0.000257526
5.62265e-05
0.000257725
-4.24686e-06
0.00024022
8.79658e-05
2.19967e-06
0.000222236
0.000235171
2.68124e-05
0.000235309
6.71013e-06
0.000237458
4.9124e-06
0.000239696
1.15549e-06
0.000241563
-1.87734e-06
0.000244932
-8.39736e-06
0.0002483
-1.00639e-05
0.000253063
-1.61194e-05
0.0002576
-1.58812e-05
0.000263697
-2.18563e-05
0.000269165
-1.93713e-05
0.000276296
-2.50989e-05
0.000282245
-1.99732e-05
0.000290014
-2.55902e-05
0.000295909
-1.75953e-05
0.000303968
-2.36199e-05
0.000309244
-1.24871e-05
0.000317298
-1.97716e-05
0.000321345
-4.84723e-06
0.00032932
-1.46521e-05
0.000331326
5.51713e-06
0.000339228
-8.80567e-06
0.000338221
1.93954e-05
0.000345584
-3.23564e-06
0.00034158
3.75218e-05
0.000345792
4.16253e-07
0.000342592
5.94267e-05
0.000336733
1.61219e-06
0.000348151
7.65478e-05
2.42567e-05
0.000326094
0.000263832
2.207e-05
0.000263538
7.00378e-06
0.00026541
3.04087e-06
0.000268179
-1.61332e-06
0.000270579
-4.27747e-06
0.000273581
-1.13995e-05
0.000276769
-1.32523e-05
0.000281012
-2.03619e-05
0.000285242
-2.01114e-05
0.000290571
-2.71856e-05
0.000295648
-2.44485e-05
0.000301878
-3.13287e-05
0.000307523
-2.5618e-05
0.000314423
-3.24903e-05
0.000320304
-2.34764e-05
0.000327677
-3.09921e-05
0.000333482
-1.82922e-05
0.000341138
-2.74281e-05
0.000346671
-1.038e-05
0.000354345
-2.23264e-05
0.000359497
3.65487e-07
0.000366691
-1.59998e-05
0.000371847
1.4239e-05
0.000377385
-8.77288e-06
0.00038387
3.10367e-05
0.000385106
-8.20098e-07
0.000396021
4.85115e-05
0.000387515
1.01189e-05
0.000407073
5.69889e-05
3.65061e-05
0.000394824
0.000286542
1.81087e-05
0.000286196
7.34992e-06
0.000287503
1.73398e-06
0.000289713
-3.82425e-06
0.000291959
-6.52323e-06
0.000294538
-1.39785e-05
0.000297577
-1.62913e-05
0.000301105
-2.38895e-05
0.000305128
-2.41346e-05
0.000309462
-3.1519e-05
0.000314308
-2.92948e-05
0.000319332
-3.63526e-05
0.000324876
-3.11623e-05
0.000330432
-3.80462e-05
0.000336554
-2.95984e-05
0.000342469
-3.69068e-05
0.000349129
-2.49527e-05
0.000355199
-3.34981e-05
0.000362473
-1.76534e-05
0.000368383
-2.82373e-05
0.000376559
-7.81019e-06
0.000381766
-2.12064e-05
0.000391513
4.49207e-06
0.00039488
-1.214e-05
0.000407495
1.84212e-05
0.000406876
-2.01004e-07
0.000423945
3.14424e-05
0.000417688
1.63762e-05
0.000437142
3.75349e-05
3.9344e-05
0.000434304
0.000304228
1.51627e-05
0.000304261
7.31739e-06
0.000304913
1.0819e-06
0.000306446
-5.35743e-06
0.000308624
-8.70143e-06
0.000310642
-1.59968e-05
0.000313495
-1.91441e-05
0.000316164
-2.65582e-05
0.000319937
-2.79073e-05
0.000323228
-3.48109e-05
0.00032784
-3.39064e-05
0.000331661
-4.01737e-05
0.000337081
-3.65826e-05
0.000341322
-4.22872e-05
0.000347558
-3.58342e-05
0.000352083
-4.14312e-05
0.000359236
-3.21061e-05
0.000363872
-3.8134e-05
0.000372149
-2.59301e-05
0.00037663
-3.27186e-05
0.000386408
-1.75886e-05
0.00039027
-2.50677e-05
0.000402114
-7.35243e-06
0.000404635
-1.46607e-05
0.0004191
3.95587e-06
0.000419559
-6.60185e-07
0.000436298
1.47035e-05
0.000435726
1.69488e-05
0.000450469
2.27919e-05
3.54782e-05
0.000454334
0.000317378
1.31931e-05
0.000317704
6.99063e-06
0.000318155
6.31212e-07
0.000319079
-6.28178e-06
0.000321069
-1.06913e-05
0.000322595
-1.75229e-05
0.000325207
-2.17554e-05
0.000327168
-2.852e-05
0.000330613
-3.13517e-05
0.000333061
-3.7259e-05
0.00033733
-3.81756e-05
0.000340197
-4.30404e-05
0.00034532
-4.1706e-05
0.000348548
-4.55145e-05
0.000354602
-4.18885e-05
0.000358111
-4.49406e-05
0.000365254
-3.92484e-05
0.000368954
-4.18347e-05
0.000377414
-3.43901e-05
0.000381173
-3.64773e-05
0.000391244
-2.766e-05
0.000394864
-2.86875e-05
0.000406788
-1.92764e-05
0.000410103
-1.79756e-05
0.000423679
-9.6204e-06
0.000427077
-4.05844e-06
0.000441019
7.61976e-07
0.000445899
1.20686e-05
0.000456875
1.18165e-05
2.79625e-05
0.00046439
0.000326434
1.20432e-05
0.000326928
6.49694e-06
0.000327488
7.11865e-08
0.00032803
-6.82418e-06
0.00032974
-1.24014e-05
0.000330919
-1.87011e-05
0.000333227
-2.40635e-05
0.00033471
-3.00035e-05
0.000337729
-3.43704e-05
0.000339609
-3.91394e-05
0.000343396
-4.19618e-05
0.000345643
-4.52878e-05
0.000350261
-4.63241e-05
0.000352873
-4.81268e-05
0.000358436
-4.74507e-05
0.000361409
-4.7914e-05
0.000368076
-4.59151e-05
0.00037143
-4.51892e-05
0.000379391
-4.23512e-05
0.00038317
-4.02562e-05
0.000392586
-3.70752e-05
0.000396873
-3.29749e-05
0.000407699
-3.01027e-05
0.000412731
-2.30077e-05
0.000424474
-2.13635e-05
0.000430864
-1.0448e-05
0.000442398
-1.07723e-05
0.000450677
3.78965e-06
0.000460962
1.5323e-06
1.90182e-05
0.000469906
0.000331912
1.14578e-05
0.000332501
5.90735e-06
0.00033324
-6.66882e-07
0.000333657
-7.24209e-06
0.000335069
-1.38133e-05
0.000336053
-1.96846e-05
0.000338021
-2.60315e-05
0.000339256
-3.12389e-05
0.000341798
-3.69126e-05
0.000343383
-4.07241e-05
0.000346603
-4.51811e-05
0.000348552
-4.72374e-05
0.000352534
-5.03055e-05
0.000354898
-5.04915e-05
0.00035977
-5.23224e-05
0.000362623
-5.07677e-05
0.000368531
-5.18223e-05
0.000371995
-4.86534e-05
0.000379083
-4.94397e-05
0.00038334
-4.45132e-05
0.000391692
-4.54267e-05
0.000396991
-3.82736e-05
0.000406499
-3.96112e-05
0.000413159
-2.96678e-05
0.00042347
-3.16743e-05
0.000431708
-1.86864e-05
0.000442371
-2.14351e-05
0.000451836
-5.67511e-06
0.00046277
-9.40131e-06
9.40542e-06
0.000472382
0.000334505
1.11405e-05
0.00033508
5.33224e-06
0.000335932
-1.51888e-06
0.000336452
-7.76238e-06
0.00033763
-1.4991e-05
0.00033855
-2.06045e-05
0.000340198
-2.76801e-05
0.000341373
-3.24132e-05
0.000343474
-3.9014e-05
0.000344979
-4.22293e-05
0.000347653
-4.7855e-05
0.000349549
-4.91328e-05
0.000352893
-5.36502e-05
0.00035527
-5.28684e-05
0.000359422
-5.64745e-05
0.000362414
-5.37591e-05
0.000367515
-5.69233e-05
0.000371303
-5.2442e-05
0.000377492
-5.56286e-05
0.00038232
-4.9341e-05
0.000389698
-5.28043e-05
0.000395835
-4.44112e-05
0.00040441
-4.81854e-05
0.000412054
-3.73121e-05
0.000421727
-4.13471e-05
0.000430785
-2.7745e-05
0.000441495
-3.21454e-05
0.0004515
-1.56801e-05
0.000463058
-2.09587e-05
-9.25519e-07
0.000473389
0.000335004
1.07704e-05
0.000335595
4.74032e-06
0.000336471
-2.39475e-06
0.000337168
-8.45906e-06
0.000338211
-1.60337e-05
0.000339176
-2.15697e-05
0.000340588
-2.90917e-05
0.000341829
-3.36546e-05
0.000343604
-4.07894e-05
0.000345174
-4.37993e-05
0.000347423
-5.01039e-05
0.000349411
-5.11201e-05
0.00035224
-5.64797e-05
0.000354761
-5.53897e-05
0.000358314
-6.00271e-05
0.000361534
-5.69793e-05
0.000365966
-6.13548e-05
0.000370088
-5.65647e-05
0.000375568
-6.11085e-05
0.000380835
-5.46079e-05
0.000387536
-5.95048e-05
0.000394178
-5.10535e-05
0.000402242
-5.62494e-05
0.000410367
-4.54367e-05
0.000419869
-5.08491e-05
0.000429363
-3.72394e-05
0.000440283
-4.3065e-05
0.000450828
-2.62257e-05
0.000462893
-3.3023e-05
-1.20591e-05
0.000474026
0.000334372
1.01962e-05
0.000335071
4.04132e-06
0.000335948
-3.27155e-06
0.00033682
-9.33114e-06
0.000337827
-1.70409e-05
0.000338917
-2.266e-05
0.000340212
-3.03861e-05
0.000341594
-3.50371e-05
0.000343192
-4.23872e-05
0.000344903
-4.551e-05
0.000346891
-5.20916e-05
0.000349026
-5.32555e-05
0.000351515
-5.89688e-05
0.000354202
-5.80767e-05
0.000357341
-6.31656e-05
0.000360753
-6.03913e-05
0.000364717
-6.53197e-05
0.000369063
-6.09102e-05
0.000374062
-6.6108e-05
0.000379573
-6.01181e-05
0.000385843
-6.57747e-05
0.000392734
-5.79455e-05
0.000400501
-6.40155e-05
0.000408902
-5.3838e-05
0.000418308
-6.02552e-05
0.000428195
-4.71261e-05
0.000439207
-5.4077e-05
0.000450374
-3.73927e-05
0.000462722
-4.53716e-05
-2.41452e-05
0.000474808
0.000333982
9.46152e-06
0.000334782
3.24094e-06
0.000335642
-4.13097e-06
0.000336639
-1.03282e-05
0.000337663
-1.80657e-05
0.000338902
-2.38988e-05
0.000340174
-3.16575e-05
0.00034171
-3.65733e-05
0.000343244
-4.39215e-05
0.000345099
-4.73652e-05
0.000346955
-5.39474e-05
0.000349216
-5.55162e-05
0.0003515
-6.12528e-05
0.000354293
-6.08699e-05
0.000357154
-6.60262e-05
0.000360654
-6.38918e-05
0.000364284
-6.89501e-05
0.000368706
-6.5332e-05
0.000373342
-7.07437e-05
0.000378927
-6.57027e-05
0.000384838
-7.16866e-05
0.000391832
-6.49392e-05
0.000399291
-7.14739e-05
0.000407895
-6.2442e-05
0.000417081
-6.94412e-05
0.000427369
-5.74146e-05
0.000438277
-6.49852e-05
0.00045013
-4.92455e-05
0.000462563
-5.78042e-05
-3.73252e-05
0.000475743
0.00033495
8.71207e-06
0.000335783
2.40843e-06
0.000336609
-4.95715e-06
0.000337674
-1.13931e-05
0.000338723
-1.91143e-05
0.000340077
-2.52531e-05
0.000341358
-3.29385e-05
0.000343002
-3.82175e-05
0.000344503
-4.5423e-05
0.00034644
-4.93017e-05
0.000348194
-5.5701e-05
0.00035049
-5.78124e-05
0.000352592
-6.33555e-05
0.000355371
-6.36484e-05
0.000357975
-6.86305e-05
0.000361415
-6.73318e-05
0.00036473
-7.22647e-05
0.000369055
-6.96568e-05
0.000373331
-7.50204e-05
0.000378805
-7.11767e-05
0.000384336
-7.72173e-05
0.000391255
-7.18581e-05
0.000398341
-7.856e-05
0.000406988
-7.10888e-05
0.00041586
-7.83136e-05
0.000426413
-6.79672e-05
0.00043713
-7.57022e-05
0.000449572
-6.1687e-05
0.000461988
-7.02209e-05
-5.14834e-05
0.000476146
0.000338087
8.14512e-06
-0.00033752
0.00033883
1.66511e-06
0.000339565
-5.69173e-06
0.000340599
-1.24274e-05
0.000341606
-2.01219e-05
0.000342966
-2.66122e-05
0.000344195
-3.41675e-05
0.000345822
-3.98446e-05
0.000347218
-4.68194e-05
0.000349093
-5.11763e-05
0.000350665
-5.72731e-05
0.000352839
-5.99868e-05
0.000354677
-6.51929e-05
0.000357275
-6.62471e-05
0.000359543
-7.08979e-05
0.000362754
-7.05428e-05
0.000365677
-7.51874e-05
0.000369736
-7.3716e-05
0.000373585
-7.88697e-05
0.000378774
-7.63653e-05
0.000383866
-8.23096e-05
0.000390513
-7.85057e-05
0.000397189
-8.52355e-05
0.000405644
-7.95435e-05
0.000414196
-8.68661e-05
0.000424747
-7.85182e-05
0.000435316
-8.62712e-05
0.000448082
-7.4453e-05
0.000460552
-8.26912e-05
-6.63477e-05
0.000475417
0.000343134
7.86291e-06
-0.000342852
0.000343692
1.10752e-06
0.000344288
-6.28821e-06
0.000345192
-1.33306e-05
0.00034607
-2.09999e-05
0.000347286
-2.78282e-05
0.000348353
-3.52346e-05
0.000349791
-4.12829e-05
0.000350962
-4.79903e-05
0.000352589
-5.28031e-05
0.000353858
-5.85422e-05
0.000355727
-6.18556e-05
0.000357186
-6.66525e-05
0.00035944
-6.85006e-05
0.000361271
-7.27288e-05
0.000364117
-7.33896e-05
0.000366562
-7.76322e-05
0.00037025
-7.74037e-05
0.000373597
-8.22165e-05
0.000378407
-8.11759e-05
0.000382998
-8.69003e-05
0.000389264
-8.47719e-05
0.000395493
-9.14642e-05
0.000403587
-8.76382e-05
0.000411837
-9.51157e-05
0.000422122
-8.8803e-05
0.000432635
-9.6784e-05
0.000445358
-8.71766e-05
0.000458101
-9.54338e-05
-8.15471e-05
0.0004733
0.000348778
7.75066e-06
-0.000348666
0.000349179
7.06259e-07
0.000349671
-6.77977e-06
0.000350414
-1.40738e-05
0.000351123
-2.17092e-05
0.000352089
-2.87933e-05
0.000352913
-3.60593e-05
0.000354021
-4.23909e-05
0.000354881
-4.88502e-05
0.000356109
-5.40307e-05
0.000357006
-5.94396e-05
0.000358433
-6.32827e-05
0.000359477
-6.76961e-05
0.000361282
-7.03055e-05
0.000362666
-7.4113e-05
0.000365087
-7.58108e-05
0.000367056
-7.96012e-05
0.000370354
-8.0702e-05
0.000373188
-8.50501e-05
0.000377638
-8.5626e-05
0.000381678
-9.09401e-05
0.000387595
-9.06889e-05
0.000393279
-9.71479e-05
0.000401018
-9.5378e-05
0.000408846
-0.000102944
0.000418767
-9.87235e-05
0.000429157
-0.000107174
0.000441565
-9.95847e-05
0.000454676
-0.000108544
-9.66776e-05
0.000469806
0.000354013
7.70577e-06
-0.000353968
0.000354295
4.24176e-07
0.000354684
-7.16878e-06
0.000355236
-1.46256e-05
0.00035575
-2.22236e-05
0.000356414
-2.94569e-05
0.000356973
-3.6618e-05
0.000357701
-4.3119e-05
0.000358254
-4.94036e-05
0.000359049
-5.48254e-05
0.000359624
-6.00145e-05
0.000360595
-6.42536e-05
0.000361317
-6.84183e-05
0.000362671
-7.16598e-05
0.000363735
-7.51765e-05
0.000365732
-7.78079e-05
0.000367354
-8.12237e-05
0.000370268
-8.36155e-05
0.00037268
-8.74619e-05
0.000376789
-8.97357e-05
0.000380273
-9.44245e-05
0.000385894
-9.63094e-05
0.000390865
-0.000102119
0.000398352
-0.000102865
0.000405389
-0.00010998
0.000415064
-0.000108399
0.000424823
-0.000116934
0.000436916
-0.000111678
0.000449934
-0.000121561
-0.000111464
0.00046472
0.000357098
7.38523e-06
-0.000356777
0.000357539
-1.63899e-08
0.000358024
-7.65455e-06
0.00035858
-1.51811e-05
0.00035909
-2.27339e-05
0.000359646
-3.00124e-05
0.000360117
-3.7089e-05
0.00036064
-4.36422e-05
0.000361055
-4.98192e-05
0.000361572
-5.53424e-05
0.000361989
-6.04306e-05
0.000362623
-6.48881e-05
0.000363183
-6.89785e-05
0.00036415
-7.26265e-05
0.000365048
-7.60747e-05
0.000366609
-7.93692e-05
0.000368039
-8.26534e-05
0.000370474
-8.60501e-05
0.000372606
-8.95942e-05
0.000376211
-9.33409e-05
0.000379228
-9.7441e-05
0.000384359
-0.000101441
0.000388552
-0.000106312
0.000395651
-0.000109964
0.000401507
-0.000115836
0.000410975
-0.000117866
0.000419231
-0.000125189
0.000431239
-0.000123686
0.000442804
-0.000133127
-0.000125893
0.000457234
0.000360203
6.7752e-06
-0.000359593
0.000360872
-6.84854e-07
0.000361525
-8.3074e-06
0.000362205
-1.58616e-05
0.000362829
-2.33579e-05
0.000363418
-3.06018e-05
0.000363905
-3.75759e-05
0.000364344
-4.40807e-05
0.000364682
-5.0157e-05
0.000365
-5.56606e-05
0.000365267
-6.06974e-05
0.000365595
-6.5216e-05
0.000365962
-6.93462e-05
0.000366516
-7.31806e-05
0.000367206
-7.67641e-05
0.00036824
-8.04039e-05
0.000369457
-8.38696e-05
0.000371227
-8.78205e-05
0.000373122
-9.14888e-05
0.000375908
-9.61269e-05
0.000378587
-0.00010012
0.000382758
-0.000105612
0.000386347
-0.000109901
0.000392448
-0.000116065
0.000397155
-0.000120543
0.000405807
-0.000126519
0.000411971
-0.000131353
0.000423541
-0.000135256
0.000431869
-0.000141455
-0.000140015
0.000445991
0.000366962
6.21959e-06
-0.000366407
0.000367538
-1.26097e-06
0.000368115
-8.88378e-06
0.00036869
-1.64372e-05
0.000369192
-2.386e-05
0.000369608
-3.10177e-05
0.000369885
-3.7853e-05
0.000370047
-4.42423e-05
0.000370075
-5.01846e-05
0.000370017
-5.56026e-05
0.000369895
-6.05762e-05
0.000369767
-6.50877e-05
0.000369706
-6.92852e-05
0.000369741
-7.32158e-05
0.000370004
-7.70271e-05
0.000370449
-8.08489e-05
0.000371269
-8.46894e-05
0.000372317
-8.8868e-05
0.000373847
-9.30185e-05
0.000375667
-9.79477e-05
0.000378005
-0.000102458
0.00038084
-0.000108447
0.000384003
-0.000113064
0.00038827
-0.000120332
0.000392147
-0.000124419
0.000398482
-0.000132854
0.000402622
-0.000135493
0.000411629
-0.000144263
0.000415181
-0.000145007
-0.000151576
0.000426741
0.00037525
5.6825e-06
-0.000374713
0.000375759
-1.76971e-06
0.000376236
-9.36067e-06
0.000376634
-1.68351e-05
0.000376896
-2.41219e-05
0.000377003
-3.11251e-05
0.000376919
-3.77688e-05
0.000376659
-4.3983e-05
0.000376222
-4.97474e-05
0.000375663
-5.50433e-05
0.000375011
-5.99243e-05
0.000374345
-6.44214e-05
0.000373726
-6.86669e-05
0.000373225
-7.27141e-05
0.00037294
-7.67421e-05
0.000372863
-8.07718e-05
0.00037315
-8.49768e-05
0.000373622
-8.93397e-05
0.000374579
-9.3976e-05
0.000375586
-9.89545e-05
0.000377259
-0.000104131
0.000378753
-0.00010994
0.000381075
-0.000115386
0.000382922
-0.00012218
0.000385501
-0.000126998
0.000387614
-0.000134967
0.000389292
-0.000137171
0.000391702
-0.000146673
0.000389568
-0.000142873
-0.000154694
0.000392687
0.000383247
4.8178e-06
-0.000382382
0.000383951
-2.47371e-06
0.0003845
-9.90973e-06
0.000384851
-1.71868e-05
0.000384972
-2.42423e-05
0.000384834
-3.09878e-05
0.000384423
-3.73575e-05
0.000383757
-4.33168e-05
0.000382862
-4.88525e-05
0.000381798
-5.39789e-05
0.000380612
-5.87386e-05
0.000379395
-6.32048e-05
0.000378209
-6.74806e-05
0.000377161
-7.16664e-05
0.000376304
-7.58847e-05
0.000375717
-8.01849e-05
0.000375409
-8.46688e-05
0.000375355
-8.92862e-05
0.000375538
-9.41582e-05
0.000375742
-9.91592e-05
0.000376133
-0.000104521
0.000376166
-0.000109974
0.000376374
-0.000115594
0.000375265
-0.00012107
0.000374271
-0.000126004
0.000370429
-0.000131125
0.000366647
-0.000133389
0.00035813
-0.000138156
0.000348024
-0.000132767
-0.000141107
0.000334437
0.000393456
3.88836e-06
-0.000392527
0.000394283
-3.30023e-06
0.000394756
-1.03826e-05
0.000394962
-1.7393e-05
0.000394881
-2.41613e-05
0.000394422
-3.05286e-05
0.000393591
-3.65266e-05
0.000392425
-4.21515e-05
0.000390976
-4.74036e-05
0.000389305
-5.23072e-05
0.000387486
-5.69193e-05
0.000385605
-6.13246e-05
0.00038375
-6.56247e-05
0.000382014
-6.99305e-05
0.000380461
-7.4332e-05
0.000379158
-7.88815e-05
0.000378069
-8.35805e-05
0.000377165
-8.83817e-05
0.000376222
-9.32156e-05
0.000375027
-9.7964e-05
0.000373202
-0.000102697
0.000370571
-0.000107342
0.00036673
-0.000111754
0.000360871
-0.000115211
0.00035271
-0.000117844
0.000340548
-0.000118963
0.000325625
-0.000118466
0.000303278
-0.000115809
0.000279416
-0.000108906
-0.000106175
0.000244485
0.000407149
2.64309e-06
-0.000405904
0.000407935
-4.08615e-06
0.000408456
-1.09032e-05
0.00040845
-1.73871e-05
0.000407861
-2.35725e-05
0.000406786
-2.94539e-05
0.000405272
-3.50127e-05
0.00040336
-4.02391e-05
0.000401108
-4.51517e-05
0.000398593
-4.97925e-05
0.000395907
-5.42325e-05
0.000393136
-5.85537e-05
0.000390361
-6.28496e-05
0.000387634
-6.72035e-05
0.000384989
-7.16872e-05
0.000382418
-7.6311e-05
0.000379852
-8.10139e-05
0.000377107
-8.56371e-05
0.000373867
-8.9975e-05
0.000369671
-9.37688e-05
0.000363781
-9.68068e-05
0.000355758
-9.93183e-05
0.000344856
-0.000100852
0.000330428
-0.000100783
0.000311331
-9.87477e-05
0.000286681
-9.43121e-05
0.00025569
-8.74746e-05
0.000217791
-7.79101e-05
0.000176031
-6.71459e-05
-6.11195e-05
0.000130975
0.000422858
4.66608e-08
-0.000420262
0.000424274
-5.50226e-06
0.000424716
-1.1345e-05
0.000424447
-1.71178e-05
0.000423522
-2.26474e-05
0.000421934
-2.7866e-05
0.000419703
-3.27819e-05
0.000416891
-3.74277e-05
0.000413584
-4.18441e-05
0.000409874
-4.60825e-05
0.000405854
-5.02126e-05
0.000401606
-5.43064e-05
0.000397184
-5.84275e-05
0.000392577
-6.25964e-05
0.000387677
-6.67866e-05
0.000382319
-7.09533e-05
0.000376258
-7.49534e-05
0.000369125
-7.85037e-05
0.000360464
-8.13144e-05
0.000349815
-8.31197e-05
0.000336414
-8.34056e-05
0.000319034
-8.19386e-05
0.000296736
-7.85538e-05
0.00026898
-7.30268e-05
0.000235816
-6.55838e-05
0.000196524
-5.50196e-05
0.000149791
-4.07419e-05
0.000100907
-2.9026e-05
5.94875e-05
-2.57266e-05
-3.2678e-05
3.10459e-05
0.000448237
-1.92304e-07
-0.000447998
0.000448757
-6.02233e-06
0.000448554
-1.11414e-05
0.000447345
-1.59087e-05
0.000445092
-2.03951e-05
0.000441864
-2.46373e-05
0.00043773
-2.86479e-05
0.000432752
-3.24498e-05
0.000426992
-3.60839e-05
0.000420518
-3.96083e-05
0.000413401
-4.30955e-05
0.000405694
-4.65995e-05
0.000397426
-5.01593e-05
0.000388528
-5.3699e-05
0.000378617
-5.68756e-05
0.000367185
-5.95208e-05
0.000353766
-6.15353e-05
0.000337598
-6.23356e-05
0.000318018
-6.17344e-05
0.000294818
-5.99197e-05
0.000268993
-5.75804e-05
0.000238923
-5.18681e-05
0.000202776
-4.24074e-05
0.000160446
-3.06967e-05
0.000114097
-1.92345e-05
6.8964e-05
-9.88666e-06
3.04538e-05
-2.23169e-06
1.52751e-06
-9.97341e-08
-1.78041e-05
-6.39493e-06
-1.85641e-05
-3.1918e-05
0.000482092
-2.75683e-06
-0.000479528
0.000481787
-5.71646e-06
0.000479516
-8.87096e-06
0.000475612
-1.2005e-05
0.000470184
-1.49665e-05
0.000463257
-1.77105e-05
0.000454854
-2.02446e-05
0.000445
-2.25955e-05
0.000433702
-2.47863e-05
0.00042094
-2.68459e-05
0.000406646
-2.8802e-05
0.000390719
-3.0673e-05
0.000373021
-3.24606e-05
0.000353424
-3.41019e-05
0.000332089
-3.55407e-05
0.000309318
-3.67505e-05
0.000283427
-3.56442e-05
0.000253087
-3.19947e-05
0.000217561
-2.6209e-05
0.000177518
-1.98771e-05
0.000134002
-1.40637e-05
9.1695e-05
-9.56127e-06
5.42019e-05
-4.9143e-06
2.35934e-05
-8.828e-08
1.23838e-07
4.23507e-06
-1.6016e-05
6.25322e-06
-2.4973e-05
6.72526e-06
-3.0747e-05
5.67427e-06
-3.92295e-05
2.08757e-06
-3.50362e-06
-5.429e-05
0.000458452
-0.000461209
0.000452735
0.000443864
0.000431859
0.000416893
0.000399182
0.000378938
0.000356342
0.000331556
0.00030471
0.000275908
0.000245235
0.000212774
0.000178672
0.000143132
0.000106381
7.0737e-05
3.87422e-05
1.25332e-05
-7.34387e-06
-2.14076e-05
-3.09688e-05
-3.58831e-05
-3.59714e-05
-3.17363e-05
-2.54831e-05
-1.87579e-05
-1.30836e-05
-1.0996e-05
-1.44996e-05
0.000397505
0.000375734
0.000353097
0.000328262
0.000301622
0.000275765
0.000250858
0.00022485
0.000197745
0.00017004
0.00014018
0.000111555
7.5253e-05
4.04985e-05
0.00045277
5.71774e-06
0.000443898
8.87226e-06
0.000431892
1.20063e-05
0.000416924
1.49678e-05
0.000399212
1.77118e-05
0.000378966
2.02459e-05
0.000356369
2.25968e-05
0.000331582
2.47876e-05
0.000304734
2.68472e-05
0.000275931
2.88033e-05
0.000245257
3.06744e-05
0.000212795
3.24622e-05
0.000178691
3.41037e-05
0.000143148
3.55429e-05
0.000106395
3.67534e-05
7.07465e-05
3.56481e-05
3.87472e-05
3.19993e-05
1.25336e-05
2.62136e-05
-7.34754e-06
1.98811e-05
-2.14141e-05
1.40665e-05
-3.09777e-05
9.56366e-06
-3.58943e-05
4.91652e-06
-3.59836e-05
8.93218e-08
-3.17471e-05
-4.2365e-06
-2.54908e-05
-6.25624e-06
-1.87619e-05
-6.72892e-06
-1.30838e-05
-5.67814e-06
-1.09925e-05
-2.09124e-06
3.50134e-06
-1.44939e-05
0.000481822
6.02482e-06
0.00047955
1.11438e-05
0.000475646
1.5911e-05
0.000470216
2.03974e-05
0.000463289
2.46395e-05
0.000454885
2.865e-05
0.00044503
3.24518e-05
0.000433731
3.60858e-05
0.000420968
3.96102e-05
0.000406674
4.30974e-05
0.000390747
4.66014e-05
0.000373048
5.01612e-05
0.000353451
5.37011e-05
0.000332115
5.68784e-05
0.000309345
5.95236e-05
0.000283455
6.15386e-05
0.000253115
6.23394e-05
0.000217589
6.17388e-05
0.000177546
5.99244e-05
0.000134027
5.75856e-05
9.17152e-05
5.18754e-05
5.42161e-05
4.24157e-05
2.36014e-05
3.0704e-05
1.25436e-07
1.92394e-05
-1.60206e-05
9.88979e-06
-2.49823e-05
2.23282e-06
-3.07587e-05
9.81873e-08
-3.92427e-05
6.39283e-06
1.85664e-05
-5.43078e-05
0.000448789
5.50531e-06
0.000448585
1.1348e-05
0.000447375
1.71209e-05
0.000445122
2.26503e-05
0.000441893
2.78689e-05
0.000437758
3.27846e-05
0.00043278
3.74303e-05
0.000427019
4.18466e-05
0.000420544
4.60848e-05
0.000413427
5.02148e-05
0.00040572
5.43086e-05
0.000397451
5.84296e-05
0.000388554
6.25986e-05
0.000378643
6.67888e-05
0.000367211
7.09556e-05
0.000353794
7.49559e-05
0.000337627
7.85065e-05
0.000318048
8.13176e-05
0.000294849
8.31235e-05
0.000269025
8.34102e-05
0.000238956
8.1944e-05
0.000202811
7.85603e-05
0.000160481
7.30344e-05
0.000114127
6.55928e-05
6.89855e-05
5.50317e-05
3.04642e-05
4.07541e-05
1.52734e-06
2.90351e-05
-1.78139e-05
2.57341e-05
3.26861e-05
-3.19336e-05
0.000424303
4.09002e-06
0.000424744
1.09069e-05
0.000424474
1.73907e-05
0.000423549
2.35761e-05
0.00042196
2.94573e-05
0.000419729
3.50159e-05
0.000416917
4.02422e-05
0.000413609
4.51546e-05
0.000409899
4.97952e-05
0.000405878
5.4235e-05
0.000401631
5.8556e-05
0.000397209
6.28517e-05
0.000392602
6.72055e-05
0.000387702
7.16891e-05
0.000382344
7.63128e-05
0.000376284
8.10157e-05
0.000369152
8.5639e-05
0.000360493
8.99771e-05
0.000349845
9.37712e-05
0.000336446
9.68095e-05
0.000319068
9.93215e-05
0.000296772
0.000100856
0.000269018
0.000100789
0.000235855
9.87558e-05
0.000196564
9.4323e-05
0.000149829
8.74886e-05
0.000100936
7.79278e-05
5.95045e-05
6.71659e-05
6.11396e-05
3.1051e-05
0.000407961
3.30427e-06
0.000408482
1.03867e-05
0.000408475
1.7397e-05
0.000407886
2.41652e-05
0.000406811
3.05324e-05
0.000405297
3.65302e-05
0.000403384
4.21549e-05
0.000401132
4.74067e-05
0.000398617
5.23101e-05
0.00039593
5.6922e-05
0.000393159
6.1327e-05
0.000390384
6.56268e-05
0.000387657
6.99323e-05
0.000385012
7.43337e-05
0.000382442
7.8883e-05
0.000379876
8.35817e-05
0.000377132
8.83828e-05
0.000373893
9.32167e-05
0.000369699
9.7965e-05
0.000363811
0.000102698
0.000355789
0.000107343
0.000344889
0.000111756
0.000330464
0.000115214
0.00031137
0.000117849
0.000286723
0.00011897
0.000255735
0.000118477
0.000217838
0.000115825
0.000176079
0.000108924
0.000106202
0.000131017
0.000394307
2.47825e-06
0.00039478
9.91415e-06
0.000394985
1.71911e-05
0.000394904
2.42466e-05
0.000394445
3.09919e-05
0.000393613
3.73614e-05
0.000392448
4.33204e-05
0.000390999
4.88558e-05
0.000389327
5.39819e-05
0.000387508
5.87413e-05
0.000385627
6.32072e-05
0.000383772
6.74826e-05
0.000382036
7.16682e-05
0.000380483
7.58861e-05
0.00037918
8.01859e-05
0.000378093
8.46695e-05
0.000377189
8.92866e-05
0.000376247
9.41584e-05
0.000375053
9.91592e-05
0.00037323
0.000104521
0.000370599
0.000109974
0.000366761
0.000115595
0.000360904
0.000121071
0.000352747
0.000126006
0.000340588
0.000131129
0.000325671
0.000133394
0.000303329
0.000138166
0.000279475
0.000132779
0.000141125
0.000244552
0.000383973
1.77445e-06
0.000384522
9.36531e-06
0.000384873
1.68397e-05
0.000384993
2.41264e-05
0.000384856
3.11294e-05
0.000384445
3.77729e-05
0.000383778
4.39868e-05
0.000382883
4.97509e-05
0.000381819
5.50465e-05
0.000380633
5.9927e-05
0.000379416
6.44237e-05
0.00037823
6.86689e-05
0.000377183
7.27157e-05
0.000376326
7.67432e-05
0.000375739
8.07725e-05
0.000375431
8.4977e-05
0.000375379
8.93395e-05
0.000375562
9.39753e-05
0.000375767
9.89535e-05
0.000376159
0.00010413
0.000376193
0.000109939
0.000376404
0.000115384
0.000375296
0.000122179
0.000374306
0.000126996
0.000370468
0.000134967
0.000366691
0.000137171
0.000358183
0.000146675
0.000348083
0.000142878
0.000154698
0.000334511
0.00037578
1.26585e-06
0.000376256
8.88857e-06
0.000376654
1.64419e-05
0.000376916
2.38646e-05
0.000377023
3.10221e-05
0.000376939
3.78572e-05
0.000376679
4.42462e-05
0.000376242
5.01882e-05
0.000375683
5.56057e-05
0.000375031
6.05789e-05
0.000374365
6.509e-05
0.000373747
6.9287e-05
0.000373245
7.32171e-05
0.000372961
7.70278e-05
0.000372884
8.08492e-05
0.000373172
8.4689e-05
0.000373644
8.88672e-05
0.000374602
9.30169e-05
0.00037561
9.79458e-05
0.000377284
0.000102455
0.00037878
0.000108444
0.000381103
0.000113061
0.000382954
0.000120328
0.000385534
0.000124416
0.000387653
0.000132849
0.000389334
0.00013549
0.000391753
0.000144256
0.000389626
0.000145006
0.000151566
0.000392758
0.000367558
6.89849e-07
0.000368134
8.31229e-06
0.00036871
1.58664e-05
0.000369212
2.33627e-05
0.000369628
3.06063e-05
0.000369905
3.75802e-05
0.000370066
4.40846e-05
0.000370094
5.01606e-05
0.000370036
5.56638e-05
0.000369915
6.07001e-05
0.000369786
6.52182e-05
0.000369726
6.93478e-05
0.000369761
7.31816e-05
0.000370024
7.67645e-05
0.00037047
8.04036e-05
0.00037129
8.38687e-05
0.000372339
8.78188e-05
0.000373869
9.14866e-05
0.000375691
9.61235e-05
0.00037803
0.000100117
0.000380866
0.000105607
0.000384031
0.000109896
0.000388302
0.000116057
0.00039218
0.000120538
0.00039852
0.000126508
0.000402664
0.000131346
0.000411678
0.000135241
0.000415238
0.000141446
0.000139997
0.000426807
0.00036089
2.19121e-08
0.000361543
7.6594e-06
0.000362223
1.51859e-05
0.000362847
2.27386e-05
0.000363437
3.00169e-05
0.000363923
3.70933e-05
0.000364362
4.36461e-05
0.0003647
4.98229e-05
0.000365018
5.53454e-05
0.000365285
6.04333e-05
0.000365613
6.489e-05
0.000365981
6.898e-05
0.000366535
7.2627e-05
0.000367225
7.60749e-05
0.00036826
7.93682e-05
0.000369477
8.26522e-05
0.000371248
8.60473e-05
0.000373143
8.95915e-05
0.000375931
9.33359e-05
0.000378611
9.74368e-05
0.000382784
0.000101433
0.000386375
0.000106306
0.000392478
0.000109953
0.000397188
0.000115828
0.000405845
0.000117852
0.000412013
0.000125177
0.000423587
0.000123668
0.000431924
0.00013311
0.000125869