/*--------------------------------*- C++ -*----------------------------------*\
| =========                 |                                                 |
| \\      /  F ield         | OpenFOAM: The Open Source CFD Toolbox           |
|  \\    /   O peration     | Version:  2312                                  |
|   \\  /    A nd           | Website:  www.openfoam.com                      |
|    \\/     M anipulation  |                                                 |
\*---------------------------------------------------------------------------*/
FoamFile
{
    version     2.0;
    format      ascii;
    arch        "LSB;label=32;scalar=64";
    class       volVectorField;
    location    "31000";
    object      U;
}
// * * * * * * * * * * * * * * * * * * * * * * * * * * * * * * * * * * * * * //

dimensions      [0 1 -1 0 0 0 0];

internalField   nonuniform List<vector> 
2715
(
(0.000268685 2.91225e-05 9.85114e-25)
(0.000279502 -3.53536e-06 0)
(0.000244424 -2.62781e-06 0)
(0.000229079 -3.35729e-06 0)
(0.00022127 -3.39312e-06 -2.2044e-23)
(0.000225834 -4.25016e-06 2.15754e-23)
(0.000227864 -4.39123e-06 0)
(0.00024119 -5.27186e-06 5.36563e-25)
(0.000247851 -4.85342e-06 0)
(0.000266636 -5.40405e-06 0)
(0.000274866 -4.47223e-06 -1.42726e-25)
(0.00029581 -4.64502e-06 0)
(0.000302623 -3.12478e-06 -1.75697e-26)
(0.000322377 -2.88482e-06 0)
(0.000324755 -8.31283e-07 3.91085e-24)
(0.00034043 -1.48308e-07 -3.91131e-24)
(0.000336115 1.75484e-06 0)
(0.000345255 2.10601e-06 -1.31301e-25)
(0.00033303 4.14761e-06 0)
(0.000334561 3.65132e-06 0)
(0.000313723 5.9759e-06 0)
(0.000307367 4.8001e-06 0)
(0.000278549 6.73539e-06 9.38944e-25)
(0.000265138 4.19367e-06 0)
(0.000230717 5.6355e-06 -3.31432e-23)
(0.000213308 2.40552e-06 3.18748e-23)
(0.000179825 9.62961e-08 0)
(0.000154997 2.89042e-06 0)
(0.000164417 1.89256e-05 0)
(-7.89657e-05 -2.65444e-05 1.21703e-24)
(0.000532252 4.85531e-05 5.69746e-23)
(0.000584338 1.31948e-05 -6.0292e-23)
(0.000557944 1.6028e-05 1.58794e-24)
(0.000552018 8.53035e-06 0)
(0.000543336 3.18047e-06 0)
(0.000557491 -1.31854e-06 2.08472e-23)
(0.000558491 -2.54799e-06 -2.08394e-24)
(0.000586424 -5.88564e-06 -1.89356e-23)
(0.000593863 -5.61857e-06 -4.58851e-25)
(0.0006321 -8.39568e-06 0)
(0.000642551 -6.76639e-06 -3.29289e-24)
(0.000686594 -9.18473e-06 3.73254e-24)
(0.000696245 -6.24588e-06 -4.19008e-26)
(0.000741125 -8.38576e-06 5.16598e-25)
(0.000745857 -4.2006e-06 1.16995e-23)
(0.000786748 -6.15025e-06 -1.35873e-23)
(0.000782691 -7.98216e-07 -2.39981e-24)
(0.000815496 -2.98572e-06 3.97082e-24)
(0.000799988 4.14424e-06 -1.11427e-23)
(0.000821572 1.81399e-06 1.18406e-23)
(0.000792885 9.99739e-06 0)
(0.000799865 7.25196e-06 -8.94516e-25)
(0.000757209 1.67126e-05 3.03137e-23)
(0.000745558 1.31448e-05 1.27446e-24)
(0.00069361 2.33389e-05 -3.10449e-23)
(0.000651292 1.65461e-05 0)
(0.000618716 3.3505e-05 0)
(0.000472265 -7.75851e-07 2.05258e-24)
(0.000627004 8.52835e-05 7.16557e-23)
(6.11198e-05 -1.57415e-05 -7.40042e-23)
(0.000708023 4.79785e-05 3.84645e-24)
(0.000759161 1.83613e-06 -5.10607e-23)
(0.000751069 2.87543e-06 5.1708e-23)
(0.000761008 -2.86381e-06 3.06084e-24)
(0.000759302 -7.46862e-06 0)
(0.000782049 -1.44559e-05 0)
(0.000785031 -1.60562e-05 -1.20817e-24)
(0.000818221 -2.1666e-05 0)
(0.000826781 -2.09302e-05 -7.19844e-24)
(0.000869444 -2.60036e-05 1.51332e-24)
(0.00088219 -2.2674e-05 8.94123e-24)
(0.00093063 -2.6959e-05 -3.66446e-24)
(0.000944596 -2.06779e-05 0)
(0.00099428 -2.42002e-05 0)
(0.00100589 -1.49464e-05 2.12545e-23)
(0.00105219 -1.82184e-05 -2.12721e-23)
(0.00105822 -6.03236e-06 -2.19371e-25)
(0.00109683 -9.42777e-06 0)
(0.00109529 5.52443e-06 1.14323e-23)
(0.00112126 1.07336e-06 -2.43225e-23)
(0.00111175 1.905e-05 -1.33866e-24)
(0.00111868 1.18145e-05 1.32101e-23)
(0.00110487 3.47004e-05 0)
(0.00107977 2.09227e-05 -2.03983e-24)
(0.00107608 5.49422e-05 0)
(0.00098705 2.09178e-05 0)
(0.00104233 8.94455e-05 4.25859e-24)
(0.000798129 -2.74831e-06 -6.78771e-23)
(0.00104672 0.000156481 6.70228e-23)
(0.000505664 -2.11758e-05 4.9235e-24)
(0.000839964 3.45593e-05 5.4119e-23)
(0.000882444 -3.4464e-06 -1.11855e-22)
(0.00088425 -2.79638e-06 3.16088e-23)
(0.000899337 -7.42181e-06 2.24514e-23)
(0.000903058 -1.12835e-05 0)
(0.00092689 -2.04407e-05 2.68564e-24)
(0.000935955 -2.25675e-05 -1.19279e-24)
(0.000966914 -3.09875e-05 0)
(0.000982139 -2.99249e-05 9.44006e-25)
(0.0010187 -3.7814e-05 -5.19009e-24)
(0.00103976 -3.3124e-05 4.9344e-24)
(0.00107893 -4.02496e-05 0)
(0.00110408 -3.14332e-05 1.00759e-25)
(0.00114194 -3.79893e-05 4.48227e-25)
(0.0011689 -2.48135e-05 3.09636e-23)
(0.00120113 -3.1496e-05 -3.30758e-23)
(0.00122818 -1.3655e-05 -2.31135e-24)
(0.00125003 -2.17003e-05 4.08633e-24)
(0.00127703 1.37879e-06 0)
(0.00128252 -1.0123e-05 -1.40712e-23)
(0.00131225 2.08453e-05 1.32231e-23)
(0.00129212 2.71118e-06 1.89043e-24)
(0.00133212 4.58235e-05 0)
(0.00127017 1.39823e-05 -2.15365e-24)
(0.0013377 7.87828e-05 0)
(0.00120377 1.8322e-05 -4.4849e-24)
(0.00133694 0.000123971 -4.04267e-23)
(0.00108434 1.17708e-05 -2.90443e-23)
(0.00133716 0.00016676 1.40636e-22)
(0.000935434 4.82045e-05 -7.62858e-23)
(0.000943713 2.05071e-05 0)
(0.000975204 -9.29186e-06 4.69844e-23)
(0.000982131 -1.33767e-05 -8.35851e-23)
(0.00099602 -1.97239e-05 2.28608e-23)
(0.00100503 -2.36637e-05 0)
(0.00102602 -3.42422e-05 -2.76296e-24)
(0.00104181 -3.55729e-05 2.50595e-24)
(0.00106634 -4.54094e-05 0)
(0.00108915 -4.31129e-05 1.83316e-24)
(0.00111601 -5.28463e-05 0)
(0.00114634 -4.63691e-05 5.21822e-25)
(0.0011728 -5.56895e-05 0)
(0.00120968 -4.41008e-05 0)
(0.00123203 -5.32972e-05 0)
(0.00127421 -3.59814e-05 4.33583e-23)
(0.00128824 -4.6127e-05 -4.33626e-23)
(0.00133515 -2.24026e-05 0)
(0.00133618 -3.53014e-05 0)
(0.00138877 -3.77513e-06 0)
(0.00137116 -2.18062e-05 1.63568e-24)
(0.00143263 2.01425e-05 0)
(0.00138855 -6.89324e-06 3.96917e-24)
(0.00146527 5.02588e-05 0)
(0.00138375 8.09368e-06 4.37472e-24)
(0.00148613 8.70083e-05 0)
(0.00135317 2.20064e-05 4.61259e-24)
(0.00149432 0.00012742 -4.21338e-23)
(0.00129848 3.6814e-05 1.05542e-22)
(0.00149009 0.000147615 -8.115e-23)
(0.00122479 8.27868e-05 0)
(0.00102517 5.74797e-06 5.12294e-23)
(0.00104709 -1.59633e-05 -1.14491e-22)
(0.00105758 -2.33709e-05 8.17731e-23)
(0.00106946 -3.06908e-05 -2.32098e-23)
(0.00108182 -3.31963e-05 -2.31142e-23)
(0.00109872 -4.44643e-05 2.0577e-23)
(0.00111839 -4.60888e-05 1.88079e-23)
(0.00113773 -5.74316e-05 -3.51802e-23)
(0.0011645 -5.50994e-05 1.44469e-23)
(0.00118498 -6.60692e-05 0)
(0.00121928 -5.90383e-05 -5.37968e-25)
(0.00123855 -6.94689e-05 2.7071e-25)
(0.00127964 -5.67208e-05 3.44501e-25)
(0.00129436 -6.69718e-05 3.46226e-25)
(0.00134124 -4.78263e-05 5.64899e-23)
(0.00134779 -5.90833e-05 -5.89259e-23)
(0.00139998 -3.2896e-05 -2.75591e-24)
(0.00139473 -4.69533e-05 4.4824e-24)
(0.00145263 -1.25985e-05 1.48321e-24)
(0.00143186 -3.15819e-05 -1.68628e-24)
(0.00149679 1.27363e-05 0)
(0.00145661 -1.35472e-05 -3.80881e-23)
(0.00153056 4.32709e-05 6.98181e-23)
(0.00146713 7.14389e-06 -3.57721e-23)
(0.00155188 7.75458e-05 -4.33618e-23)
(0.00146287 3.11921e-05 3.82422e-23)
(0.00155828 0.000108788 4.38865e-23)
(0.00144441 6.35952e-05 -1.26168e-22)
(0.00154968 0.000123438 1.61473e-22)
(0.00141145 0.000110597 -8.45435e-23)
(0.00108707 -8.48286e-06 -5.1742e-23)
(0.00110222 -2.35724e-05 1.14035e-23)
(0.00111438 -3.26711e-05 5.6908e-23)
(0.00112515 -4.16596e-05 -6.516e-24)
(0.0011388 -4.46255e-05 2.35271e-23)
(0.00115341 -5.58714e-05 -1.52856e-23)
(0.00117375 -5.82616e-05 0)
(0.00119116 -6.96453e-05 0)
(0.00121747 -6.81968e-05 0)
(0.00123648 -7.86961e-05 1.42056e-24)
(0.0012688 -7.25589e-05 4.89037e-25)
(0.00128762 -8.20313e-05 -2.794e-25)
(0.00132503 -7.02641e-05 0)
(0.00134097 -7.89686e-05 -1.399e-25)
(0.00138225 -6.10586e-05 7.33599e-23)
(0.00139251 -6.99876e-05 -7.33664e-23)
(0.00143676 -4.56937e-05 5.34337e-25)
(0.00143889 -5.61924e-05 0)
(0.0014857 -2.5163e-05 -1.53082e-24)
(0.0014777 -3.84328e-05 1.79455e-24)
(0.0015269 -1.24154e-07 3.94252e-24)
(0.00150721 -1.6746e-05 0)
(0.00155846 2.87726e-05 0)
(0.00152604 9.6089e-06 0)
(0.00157842 5.95043e-05 5.5402e-23)
(0.00153305 4.18793e-05 -4.01166e-23)
(0.00158544 8.69959e-05 0)
(0.00152702 8.1575e-05 -7.19225e-23)
(0.00158016 0.000107205 4.74657e-25)
(0.00150826 0.000123315 8.96068e-23)
(0.00113102 -2.15598e-05 0)
(0.00114223 -3.23726e-05 -7.42049e-24)
(0.00115462 -4.18868e-05 2.73241e-23)
(0.00116536 -5.20261e-05 -2.09396e-23)
(0.00117905 -5.64101e-05 0)
(0.001193 -6.6848e-05 -5.80945e-24)
(0.00121221 -7.06521e-05 0)
(0.00122965 -8.09537e-05 0)
(0.00125349 -8.14405e-05 0)
(0.0012734 -9.01562e-05 3.33634e-24)
(0.00130141 -8.63289e-05 -8.20298e-24)
(0.00132254 -9.31963e-05 3.07537e-24)
(0.00135358 -8.42944e-05 -4.06996e-25)
(0.00137386 -8.93907e-05 1.44573e-25)
(0.00140641 -7.51909e-05 9.25139e-23)
(0.00142374 -7.92043e-05 -9.26285e-23)
(0.00145655 -5.99869e-05 -5.52182e-25)
(0.00146932 -6.37164e-05 6.04477e-24)
(0.00150153 -3.99298e-05 -2.16608e-23)
(0.0015087 -4.36378e-05 2.78063e-23)
(0.0015396 -1.58877e-05 -1.97091e-23)
(0.00154051 -1.8789e-05 0)
(0.00156916 1.13834e-05 0)
(0.00156333 1.16544e-05 0)
(0.00158848 4.04751e-05 -1.03033e-23)
(0.00157555 4.81176e-05 0)
(0.00159629 6.92467e-05 4.38035e-23)
(0.00157649 8.88795e-05 -4.32779e-23)
(0.00159195 9.716e-05 -1.1018e-23)
(0.00156873 0.00012839 0)
(0.00115862 -3.34897e-05 7.90752e-24)
(0.00116812 -4.21393e-05 5.91933e-23)
(0.00118016 -5.1581e-05 -3.18815e-23)
(0.00119118 -6.1936e-05 -1.99368e-24)
(0.00120466 -6.8337e-05 -2.67259e-23)
(0.00121858 -7.75867e-05 0)
(0.00123654 -8.32485e-05 1.95187e-23)
(0.00125427 -9.17668e-05 -3.22638e-24)
(0.00127595 -9.47782e-05 -1.47753e-23)
(0.00129661 -0.000100942 -4.66365e-24)
(0.00132127 -0.000100197 4.69194e-24)
(0.00134394 -0.000103547 2.17273e-25)
(0.00137026 -9.84909e-05 -9.72386e-26)
(0.00139334 -9.89291e-05 1.93847e-25)
(0.00141964 -8.96363e-05 1.14357e-22)
(0.00144151 -8.7586e-05 -1.14328e-22)
(0.00146636 -7.47721e-05 -6.11796e-25)
(0.0014859 -7.06415e-05 1.49943e-24)
(0.00150838 -5.5287e-05 1.69665e-24)
(0.00152499 -4.883e-05 -1.65651e-23)
(0.00154441 -3.2059e-05 1.6465e-23)
(0.00155765 -2.20484e-05 4.40864e-23)
(0.00157321 -5.52139e-06 2.78331e-24)
(0.00158251 1.01445e-05 -4.13802e-23)
(0.00159317 2.39249e-05 0)
(0.00159794 4.74637e-05 4.62672e-23)
(0.00160265 5.60105e-05 9.75409e-25)
(0.00160323 8.74829e-05 4.73306e-23)
(0.00160072 9.00463e-05 -9.26841e-23)
(0.00160024 0.000127435 1.17034e-23)
(0.00117166 -4.44125e-05 -7.15686e-23)
(0.00118087 -5.24071e-05 7.21694e-23)
(0.00119258 -6.19838e-05 -2.13988e-23)
(0.00120387 -7.17772e-05 4.93007e-23)
(0.00121743 -8.02194e-05 -2.74362e-23)
(0.00123141 -8.82762e-05 -1.66448e-23)
(0.0012488 -9.58574e-05 1.75566e-23)
(0.00126642 -0.000102434 0)
(0.00128717 -0.000107963 -3.72288e-24)
(0.00130769 -0.000111495 1.34009e-24)
(0.00133093 -0.000113835 0)
(0.00135354 -0.000113654 -6.36319e-26)
(0.00137794 -0.000112406 1.23186e-26)
(0.0014013 -0.000108306 2.51415e-26)
(0.00142515 -0.00010376 1.40114e-22)
(0.00144792 -9.60346e-05 -1.40048e-22)
(0.00146979 -8.91533e-05 -2.47933e-26)
(0.00149112 -7.80958e-05 -6.76084e-24)
(0.00151013 -7.00378e-05 6.77752e-24)
(0.00152969 -5.53794e-05 0)
(0.00154528 -4.71869e-05 4.61966e-24)
(0.00156279 -2.79513e-05 -9.98883e-24)
(0.00157431 -2.06173e-05 0)
(0.00158923 4.4603e-06 -5.77158e-23)
(0.00159567 9.94721e-06 5.77202e-23)
(0.00160739 4.1555e-05 4.92166e-23)
(0.00160746 4.43058e-05 -1.11033e-22)
(0.00161597 8.1824e-05 4.9237e-23)
(0.00160869 8.11415e-05 -8.75228e-23)
(0.00161596 0.000124595 7.36271e-23)
(0.00117247 -5.46687e-05 -6.52704e-23)
(0.00118216 -6.2921e-05 1.20789e-22)
(0.00119388 -7.30157e-05 -7.88911e-23)
(0.00120544 -8.19693e-05 4.23619e-23)
(0.00121942 -9.20329e-05 -2.82022e-23)
(0.00123355 -9.91505e-05 -6.18352e-24)
(0.00125107 -0.000108379 2.55058e-23)
(0.00126844 -0.000113333 -2.02162e-23)
(0.00128929 -0.000120906 1.89161e-24)
(0.00130925 -0.000122286 -1.38874e-24)
(0.00133259 -0.00012711 0)
(0.0013543 -0.000124084 -1.46335e-25)
(0.00137888 -0.000125843 -1.05442e-24)
(0.00140105 -0.000118172 1.39094e-24)
(0.00142526 -0.00011728 1.70695e-22)
(0.00144665 -0.000105264 -1.70498e-22)
(0.00146915 -0.000102766 6.12218e-24)
(0.00148903 -8.67959e-05 -5.39086e-25)
(0.00150908 -8.38074e-05 -7.21958e-24)
(0.00152727 -6.38315e-05 0)
(0.00154442 -6.11035e-05 -4.78735e-24)
(0.00156085 -3.65095e-05 5.21911e-24)
(0.00157452 -3.44176e-05 4.66344e-23)
(0.00158881 -4.42718e-06 -3.43653e-23)
(0.00159793 -3.24885e-06 -1.23085e-23)
(0.00160945 3.25063e-05 5.24166e-23)
(0.00161266 3.21395e-05 -2.54259e-23)
(0.00162106 7.36947e-05 9.38864e-23)
(0.00161753 7.05964e-05 -2.13408e-22)
(0.00162404 0.000119252 1.05304e-22)
(0.00116427 -6.49454e-05 -5.00717e-23)
(0.0011747 -7.36914e-05 1.21492e-23)
(0.00118676 -8.45238e-05 7.3469e-23)
(0.0011988 -9.2866e-05 -1.49477e-23)
(0.00121341 -0.000103984 0)
(0.001228 -0.000110534 6.22674e-24)
(0.00124605 -0.000120933 5.45424e-24)
(0.00126357 -0.000124855 2.11408e-23)
(0.00128499 -0.000133772 -1.04719e-23)
(0.00130484 -0.000133763 -5.0576e-24)
(0.0013289 -0.00014018 -1.68969e-24)
(0.00135009 -0.000135309 2.14291e-24)
(0.00137564 -0.000138947 -3.89905e-25)
(0.00139679 -0.000128989 -2.72439e-25)
(0.00142237 -0.000130334 2.05775e-22)
(0.00144216 -0.000115667 -2.06079e-22)
(0.00146666 -0.000115786 7.37779e-25)
(0.00148432 -9.69606e-05 -7.74151e-24)
(0.00150723 -9.69085e-05 -9.91099e-24)
(0.00152257 -7.40734e-05 1.75219e-23)
(0.00154373 -7.44216e-05 2.66578e-23)
(0.00155667 -4.71364e-05 2.50428e-23)
(0.0015758 -4.79887e-05 -3.38687e-23)
(0.00158586 -1.54967e-05 1.27658e-23)
(0.00160222 -1.69336e-05 1.33812e-23)
(0.00160843 2.14451e-05 0)
(0.00162107 1.87879e-05 -2.81088e-23)
(0.00162232 6.36633e-05 -1.01429e-22)
(0.00163101 5.8398e-05 -2.21466e-24)
(0.00162737 0.000111618 1.28358e-22)
(0.00115094 -7.59605e-05 3.38678e-23)
(0.00116217 -8.50937e-05 -7.93468e-23)
(0.0011748 -9.65736e-05 -8.17709e-24)
(0.00118768 -0.000104724 7.72393e-24)
(0.001203 -0.000116417 0)
(0.00121855 -0.000122809 -6.45944e-24)
(0.00123725 -0.000133867 -5.6608e-24)
(0.00125567 -0.000137396 -4.74313e-24)
(0.00127773 -0.000146958 6.08893e-24)
(0.00129843 -0.000146335 -7.43814e-24)
(0.00132315 -0.000153454 0)
(0.001345 -0.000147703 -8.03929e-25)
(0.00137123 -0.000152127 6.71878e-25)
(0.0013927 -0.000141049 -3.5177e-25)
(0.00141911 -0.000143336 2.47056e-22)
(0.00143876 -0.000127399 -2.47068e-22)
(0.00146442 -0.000128665 8.32516e-25)
(0.0014814 -0.000108542 8.28839e-24)
(0.00150607 -0.00010987 -3.77331e-24)
(0.00152012 -8.58129e-05 0)
(0.00154401 -8.77666e-05 1.73896e-23)
(0.001555 -5.9325e-05 -2.25807e-23)
(0.00157817 -6.19584e-05 -1.25109e-23)
(0.00158558 -2.81678e-05 -1.3249e-23)
(0.00160761 -3.1504e-05 -1.38811e-23)
(0.00161032 8.72696e-06 0)
(0.00163042 4.04741e-06 1.4788e-23)
(0.00162708 5.17642e-05 -1.55789e-23)
(0.00164499 4.43175e-05 1.09526e-22)
(0.00163542 0.000101725 -1.55304e-22)
(0.00113742 -8.83543e-05 -3.50323e-23)
(0.00114931 -9.76799e-05 1.51103e-22)
(0.00116249 -0.000109537 -6.15337e-23)
(0.00117645 -0.000117878 3.02326e-23)
(0.00119244 -0.00012982 -3.06665e-23)
(0.00120936 -0.000136433 6.4648e-24)
(0.00122871 -0.000147712 -5.5687e-24)
(0.00124869 -0.000151373 1.63432e-23)
(0.0012713 -0.000161005 -1.99339e-23)
(0.00129374 -0.000160372 -3.37323e-24)
(0.00131883 -0.000167453 2.66118e-24)
(0.00134244 -0.000161546 -1.7534e-25)
(0.00136873 -0.000165862 -1.38375e-24)
(0.00139188 -0.000154517 2.76e-24)
(0.00141801 -0.000156716 2.95594e-22)
(0.0014392 -0.000140484 -2.95607e-22)
(0.00146433 -0.000141786 6.83588e-24)
(0.00148269 -0.000121429 1.21998e-24)
(0.00150681 -0.000123021 -3.35812e-23)
(0.00152208 -9.884e-05 -2.25308e-24)
(0.00154573 -0.000101369 1.61774e-23)
(0.00155777 -7.28574e-05 3.94637e-23)
(0.00158147 -7.63864e-05 -5.15784e-23)
(0.00158969 -4.23652e-05 -1.43497e-23)
(0.00161345 -4.68412e-05 1.50946e-23)
(0.00161656 -5.89105e-06 4.78985e-23)
(0.00163989 -1.18198e-05 -6.27331e-23)
(0.00163625 3.74416e-05 1.49742e-22)
(0.00165904 2.88038e-05 -2.50609e-22)
(0.00164812 8.87754e-05 2.00906e-22)
(0.00112755 -0.000102398 -3.84036e-23)
(0.00113999 -0.00011188 -5.28636e-23)
(0.00115362 -0.000123855 1.06001e-22)
(0.00116873 -0.00013267 -3.4089e-23)
(0.00118536 -0.000144677 0)
(0.00120379 -0.00015182 -1.32968e-23)
(0.00122381 -0.000162997 2.63621e-23)
(0.00124561 -0.000167138 -2.08101e-23)
(0.00126878 -0.000176397 3.56817e-24)
(0.00129323 -0.000176137 2.90857e-24)
(0.00131853 -0.000182599 -2.93157e-24)
(0.00134424 -0.000176979 0)
(0.00137019 -0.000180493 0)
(0.00139544 -0.0001694 0)
(0.00142053 -0.000170731 3.53366e-22)
(0.00144389 -0.000154805 -3.53466e-22)
(0.00146724 -0.000155324 0)
(0.00148799 -0.000135414 -2.28449e-24)
(0.00150965 -0.00013646 0)
(0.00152777 -0.000112913 2.36798e-23)
(0.00154847 -0.000115246 -1.73988e-23)
(0.00156406 -8.75191e-05 1.31716e-23)
(0.00158458 -9.12352e-05 5.8996e-23)
(0.00159724 -5.79759e-05 -4.33641e-23)
(0.00161791 -6.29321e-05 -3.17475e-23)
(0.00162637 -2.24178e-05 1.63612e-23)
(0.001647 -2.89192e-05 7.01405e-23)
(0.00164946 2.06168e-05 -2.12815e-22)
(0.00166999 1.15025e-05 1.78141e-22)
(0.00166564 7.27499e-05 -7.32167e-23)
(0.00112414 -0.00011829 -5.74343e-23)
(0.00113691 -0.000128063 1.52395e-22)
(0.00115077 -0.000139995 -8.3988e-23)
(0.00116679 -0.000149454 3.1876e-23)
(0.00118394 -0.000161402 -6.09996e-23)
(0.00120369 -0.000169269 1.77269e-23)
(0.00122434 -0.000180089 4.67342e-24)
(0.0012477 -0.000184882 3.63967e-23)
(0.00127138 -0.000193391 -1.58198e-23)
(0.00129747 -0.000193689 8.5308e-25)
(0.00132293 -0.000199039 6.54034e-25)
(0.00135019 -0.000193927 -2.51368e-24)
(0.00137572 -0.000196063 -1.52531e-24)
(0.00140238 -0.000185506 4.50044e-24)
(0.00142634 -0.000185348 4.21555e-22)
(0.00145106 -0.000170094 -4.21568e-22)
(0.00147254 -0.0001692 6.94089e-24)
(0.00149488 -0.000150192 3.67619e-24)
(0.0015139 -0.000150075 -3.3409e-23)
(0.00153427 -0.000127728 2.29422e-23)
(0.00155154 -0.000129279 0)
(0.00157059 -0.00010305 5.89301e-23)
(0.00158689 -0.000106405 -1.21011e-22)
(0.00160478 -7.48365e-05 1.18336e-23)
(0.00162045 -7.97217e-05 2.95813e-23)
(0.00163641 -4.08547e-05 1.4116e-22)
(0.00165115 -4.72595e-05 -5.28736e-23)
(0.00166368 9.90455e-07 1.35487e-22)
(0.00167713 -7.63212e-06 -3.09062e-22)
(0.00168555 5.2977e-05 1.94448e-22)
(0.00112633 -0.000135735 0)
(0.0011393 -0.0001461 -1.98419e-23)
(0.00115321 -0.000157998 9.37756e-24)
(0.00116982 -0.000168194 3.27144e-23)
(0.00118733 -0.000180016 -3.32504e-23)
(0.00120805 -0.000188675 -3.19595e-23)
(0.00122916 -0.000198949 2.53615e-23)
(0.00125365 -0.000204415 0)
(0.00127763 -0.000211866 -1.77481e-24)
(0.00130477 -0.000212746 3.79511e-24)
(0.00133017 -0.000216575 1.26437e-25)
(0.00135822 -0.000212047 3.36267e-24)
(0.00138322 -0.000212324 -2.43473e-24)
(0.00141033 -0.000202471 -1.15119e-24)
(0.0014333 -0.000200305 5.03776e-22)
(0.00145819 -0.000186002 -5.03787e-22)
(0.00147831 -0.000183169 -1.16896e-25)
(0.00150073 -0.000165451 -1.1251e-23)
(0.00151813 -0.000163677 5.16726e-24)
(0.00153885 -0.000142999 -6.58142e-24)
(0.00155424 -0.000143362 -2.93386e-23)
(0.00157448 -0.000119167 4.42905e-23)
(0.00158855 -0.000121909 0)
(0.00160925 -9.26377e-05 -8.74402e-23)
(0.00162207 -9.73906e-05 5.17416e-23)
(0.00164334 -6.08796e-05 7.7446e-23)
(0.00165419 -6.72616e-05 -9.55608e-23)
(0.00167525 -2.11765e-05 2e-23)
(0.00168319 -2.93031e-05 -4.11343e-23)
(0.00170373 2.95628e-05 0)
(0.00112922 -0.000154383 -8.35013e-23)
(0.00114263 -0.000165711 1.43684e-22)
(0.00115674 -0.000177756 -9.98449e-23)
(0.00117391 -0.000188701 0)
(0.00119181 -0.000200365 -2.96151e-23)
(0.00121334 -0.000209719 2.33205e-23)
(0.00123483 -0.000219336 5.49795e-24)
(0.00126015 -0.000225327 1.41012e-23)
(0.00128421 -0.000231532 -1.47517e-23)
(0.00131204 -0.000232854 0)
(0.00133709 -0.000234905 -1.32648e-25)
(0.00136561 -0.000230898 -4.10099e-24)
(0.00138981 -0.000228996 -2.77469e-24)
(0.00141713 -0.000219932 3.33967e-24)
(0.00143896 -0.000215372 6.03101e-22)
(0.00146379 -0.00020229 -6.0311e-22)
(0.00148265 -0.000197053 1.61148e-23)
(0.00150477 -0.000181083 4.31053e-24)
(0.0015211 -0.000177121 -5.87475e-24)
(0.0015413 -0.000158717 6.90458e-24)
(0.00155612 -0.000157376 0)
(0.00157581 -0.000135879 6.73237e-23)
(0.00158996 -0.000137674 -6.61946e-23)
(0.0016106 -0.000111298 0)
(0.00162404 -0.000116003 -9.80847e-23)
(0.00164669 -8.22324e-05 7.75997e-23)
(0.00165803 -8.92813e-05 0)
(0.00168323 -4.54392e-05 1.34578e-22)
(0.00169029 -5.43434e-05 -4.05189e-22)
(0.00171899 2.90295e-06 1.80994e-22)
(0.001129 -0.000174423 -8.70893e-23)
(0.00114298 -0.000186828 1.10299e-22)
(0.00115755 -0.000199183 2.01299e-23)
(0.00117527 -0.000210736 3.43453e-23)
(0.00119375 -0.000222222 -3.49656e-23)
(0.00121598 -0.000231993 7.10026e-24)
(0.00123798 -0.000240949 -5.76699e-24)
(0.00126398 -0.000247165 0)
(0.00128828 -0.000252147 -2.65456e-24)
(0.00131675 -0.000253608 -1.36314e-25)
(0.00134161 -0.000253914 4.23977e-24)
(0.00137077 -0.000250187 -6.51045e-24)
(0.00139424 -0.00024612 3.80017e-24)
(0.00142225 -0.000237743 1.58216e-24)
(0.0014428 -0.000230706 7.24438e-22)
(0.00146842 -0.000218955 -7.24539e-22)
(0.00148559 -0.000211036 -2.78259e-24)
(0.00150854 -0.000197208 1.3583e-23)
(0.00152308 -0.000190496 -4.97995e-23)
(0.00154398 -0.000175113 2.90642e-23)
(0.00155743 -0.000171202 -8.22677e-24)
(0.0015773 -0.000153505 -1.71117e-23)
(0.00159132 -0.000153325 0)
(0.00161127 -0.000131161 0)
(0.00162669 -0.000135008 2.0151e-23)
(0.00164769 -0.000105152 8.77578e-23)
(0.00166353 -0.000112871 -8.61996e-23)
(0.00168676 -7.17944e-05 4.58621e-23)
(0.00169997 -8.28589e-05 -1.50675e-22)
(0.0017279 -2.69199e-05 1.94362e-22)
(0.00111937 -0.000195411 -1.14662e-22)
(0.00113466 -0.00020884 7.06846e-23)
(0.00115074 -0.00022174 0)
(0.00116971 -0.000233846 0)
(0.00118974 -0.000245331 -3.00463e-23)
(0.00121317 -0.000255321 3.05867e-23)
(0.00123672 -0.000263833 1.79552e-23)
(0.00126381 -0.000269994 -2.15439e-23)
(0.00128947 -0.000274034 0)
(0.00131888 -0.000275255 -1.19472e-25)
(0.00134472 -0.000274156 6.09249e-24)
(0.0013747 -0.000270249 -7.96574e-24)
(0.00139852 -0.000264393 3.0279e-24)
(0.00142737 -0.000256212 0)
(0.00144737 -0.000247048 8.72754e-22)
(0.00147412 -0.000236196 -8.72848e-22)
(0.00148962 -0.000225778 0)
(0.00151427 -0.000213875 -7.07775e-24)
(0.00152591 -0.000204234 -2.44444e-23)
(0.00154925 -0.000192125 4.00967e-23)
(0.00155875 -0.000184876 1.75542e-23)
(0.00158166 -0.000172033 0)
(0.00159147 -0.000168337 6.09932e-23)
(0.00161432 -0.000152469 -7.94192e-23)
(0.001627 -0.000153235 -8.881e-23)
(0.00164927 -0.000130242 8.72396e-23)
(0.00166636 -0.000136411 0)
(0.00168718 -0.000101014 0)
(0.00170761 -0.000113502 -2.63491e-22)
(0.0017279 -6.03723e-05 1.53741e-22)
(0.001106 -0.000220318 4.95195e-23)
(0.001123 -0.000234369 2.33393e-23)
(0.00114135 -0.000247768 1.05738e-23)
(0.00116222 -0.000260272 -9.39272e-24)
(0.00118473 -0.000271815 7.99908e-24)
(0.00120997 -0.000281763 -1.69123e-23)
(0.00123609 -0.000289884 2.37242e-23)
(0.00126468 -0.000295591 8.42681e-25)
(0.00129281 -0.000298791 -4.87942e-25)
(0.00132317 -0.000299215 3.56496e-24)
(0.00135113 -0.000296907 -4.21164e-24)
(0.0013814 -0.000292077 -6.34337e-24)
(0.00140676 -0.000284781 -1.70889e-24)
(0.00143533 -0.000275863 8.41759e-24)
(0.00145609 -0.000265112 1.05609e-21)
(0.00148233 -0.000254053 -1.05607e-21)
(0.00149746 -0.000241835 1.51157e-23)
(0.00152201 -0.000230648 1.14673e-24)
(0.00153161 -0.000218779 -1.62941e-23)
(0.00155611 -0.000208885 -4.60972e-23)
(0.00156117 -0.000198689 7.62762e-23)
(0.00158752 -0.000190349 -5.88231e-23)
(0.00158988 -0.000182651 -2.4859e-25)
(0.00161917 -0.000174296 -8.98503e-23)
(0.00162169 -0.000169828 1.11031e-22)
(0.00165268 -0.0001574 2.36932e-23)
(0.00165918 -0.000157703 0)
(0.00168714 -0.000134327 2.58586e-23)
(0.00170138 -0.000142667 5.41107e-23)
(0.0017194 -9.95231e-05 1.12948e-22)
(0.00110144 -0.000250671 -2.59809e-23)
(0.00111958 -0.00026507 0)
(0.00113967 -0.000278785 2.9799e-23)
(0.00116212 -0.000291481 -3.19371e-23)
(0.00118679 -0.000302936 -1.62236e-23)
(0.00121361 -0.000312525 -2.82822e-23)
(0.00124201 -0.00032 3.9276e-23)
(0.00127181 -0.000324785 -1.2568e-23)
(0.0013021 -0.000326861 6.06962e-25)
(0.00133292 -0.000325904 -6.00942e-24)
(0.00136277 -0.000322177 1.57457e-23)
(0.00139246 -0.00031572 -3.59453e-24)
(0.00141943 -0.000306978 -2.28978e-23)
(0.00144629 -0.00029646 1.02393e-23)
(0.00146849 -0.000284465 1.28726e-21)
(0.00149203 -0.00027208 -1.28722e-21)
(0.00150847 -0.000258877 1.70854e-23)
(0.00152971 -0.000246857 -2.64647e-23)
(0.00154012 -0.000234101 -3.03181e-23)
(0.00156142 -0.000224303 8.93824e-23)
(0.00156576 -0.000213015 -5.05226e-23)
(0.00159052 -0.000206683 2.13201e-23)
(0.00158865 -0.000197038 9.14715e-23)
(0.00162047 -0.000194129 -1.62195e-22)
(0.00161211 -0.000185528 6.94095e-23)
(0.00165262 -0.000183822 -4.97836e-23)
(0.00163824 -0.000176205 1.07502e-22)
(0.00168299 -0.000169942 -1.32386e-22)
(0.00166622 -0.000166527 0)
(0.0016995 -0.000144821 -5.94182e-23)
(0.00109802 -0.000285651 -2.68854e-23)
(0.00111777 -0.000300517 1.22771e-23)
(0.00113979 -0.000314489 -1.08784e-23)
(0.00116417 -0.000327212 0)
(0.00119097 -0.00033832 -1.88314e-23)
(0.00121967 -0.000347236 2.76499e-23)
(0.00125008 -0.000353651 -4.13961e-24)
(0.00128133 -0.000357096 1.80515e-24)
(0.00131327 -0.000357556 0)
(0.00134479 -0.000354789 0)
(0.00137584 -0.000349173 2.87285e-24)
(0.00140521 -0.000340706 1.02011e-23)
(0.00143308 -0.00033016 -7.62703e-24)
(0.00145844 -0.000317709 0)
(0.00148159 -0.000304338 1.58232e-21)
(0.00150234 -0.000290247 -1.58235e-21)
(0.00152031 -0.000276283 0)
(0.00153724 -0.00026271 -2.55587e-23)
(0.00155008 -0.0002498 1.99467e-23)
(0.00156515 -0.000238506 -1.07805e-23)
(0.00157256 -0.000227687 0)
(0.00158906 -0.000220332 0)
(0.00158953 -0.000211711 2.38467e-23)
(0.00161227 -0.000209416 -2.45657e-23)
(0.00160123 -0.000201188 -1.03833e-22)
(0.00163566 -0.000204144 1.27877e-22)
(0.00160386 -0.000192965 0)
(0.00165341 -0.000199888 -2.74997e-23)
(0.00158882 -0.00018331 2.86362e-23)
(0.00164602 -0.000188864 -5.94927e-23)
(0.0010888 -0.000324694 1.44962e-23)
(0.00111129 -0.000340262 -1.29774e-23)
(0.00113624 -0.000354616 1.15154e-23)
(0.00116367 -0.000367301 -3.27631e-23)
(0.00119339 -0.000377855 3.35516e-23)
(0.0012249 -0.0003858 1.40089e-23)
(0.00125779 -0.000390763 -1.43105e-23)
(0.00129131 -0.00039247 1.67848e-24)
(0.00132502 -0.000390843 0)
(0.00135802 -0.000385893 0)
(0.00139001 -0.000377904 0)
(0.00141995 -0.00036717 1.3037e-23)
(0.00144797 -0.000354347 -1.31469e-23)
(0.00147296 -0.000339874 0)
(0.00149582 -0.000324659 1.95848e-21)
(0.00151522 -0.000308959 -1.95825e-21)
(0.00153298 -0.000293744 0)
(0.00154724 -0.000278797 -2.3596e-23)
(0.00156042 -0.000265178 3.50453e-23)
(0.00157018 -0.00025224 0)
(0.00157856 -0.00024131 0)
(0.00158453 -0.000231653 0)
(0.00158644 -0.000224189 -2.61478e-23)
(0.00159028 -0.000218866 1.06777e-22)
(0.00157971 -0.00021357 -1.04524e-22)
(0.00158437 -0.000213213 -1.10978e-22)
(0.00154518 -0.000205626 1.0837e-22)
(0.00155901 -0.000212369 2.91085e-23)
(0.00145636 -0.00019287 -3.02682e-23)
(0.00150208 -0.000213859 3.33159e-23)
(0.00107843 -0.000373624 1.22646e-22)
(0.00110455 -0.000388802 -1.10951e-22)
(0.00113344 -0.000402742 0)
(0.0011648 -0.000414706 0)
(0.00119821 -0.000424045 -1.83617e-23)
(0.00123319 -0.000430306 1.69699e-23)
(0.00126908 -0.000433161 0)
(0.00130526 -0.00043245 -1.79698e-24)
(0.00134099 -0.000428128 0)
(0.00137566 -0.000420358 0)
(0.00140854 -0.000409425 7.20125e-24)
(0.00143913 -0.000395846 0)
(0.00146689 -0.000380198 -1.43519e-23)
(0.00149161 -0.000363218 1.94559e-23)
(0.00151315 -0.000345569 2.45471e-21)
(0.0015315 -0.0003279 -2.4546e-21)
(0.00154697 -0.000310698 2.62604e-23)
(0.00155917 -0.000294236 -3.3061e-23)
(0.00156874 -0.000278816 0)
(0.00157397 -0.000264294 -1.44452e-23)
(0.00157605 -0.000251279 0)
(0.00157127 -0.000239227 -1.44685e-23)
(0.00156237 -0.000229554 2.79915e-23)
(0.00154332 -0.000220405 0)
(0.00151711 -0.000214144 -1.1355e-22)
(0.0014781 -0.000207611 1.10826e-22)
(0.00142048 -0.000203184 0)
(0.00136067 -0.000199545 0)
(0.00123658 -0.000189008 2.4018e-22)
(0.0011965 -0.000200524 -2.02525e-22)
(0.00106883 -0.000433987 0)
(0.0010989 -0.000450567 0)
(0.00113198 -0.000464636 0)
(0.00116792 -0.000475544 0)
(0.00120596 -0.000482836 0)
(0.0012452 -0.000486214 1.97592e-24)
(0.00128481 -0.000485567 0)
(0.00132409 -0.000480892 -2.48638e-23)
(0.00136229 -0.000472329 1.0391e-23)
(0.00139871 -0.000460162 5.58723e-23)
(0.00143258 -0.000444874 -7.73022e-23)
(0.00146337 -0.00042709 3.82964e-23)
(0.00149051 -0.000407541 -5.39665e-24)
(0.00151384 -0.000386964 0)
(0.00153301 -0.000366027 3.1104e-21)
(0.00154819 -0.000345282 -3.1081e-21)
(0.00155897 -0.000325134 0)
(0.00156539 -0.000305859 7.53769e-24)
(0.00156639 -0.000287479 6.44671e-23)
(0.00156123 -0.000270037 -1.12813e-22)
(0.0015478 -0.000253359 1.28305e-22)
(0.00152426 -0.000237514 6.3424e-23)
(0.00148813 -0.000222199 -1.56848e-22)
(0.00143651 -0.000207514 0)
(0.00136836 -0.000194231 0)
(0.00127833 -0.000182133 0)
(0.001168 -0.000172006 0)
(0.00103033 -0.000160061 0)
(0.000868948 -0.000154858 0)
(0.000720342 -0.000148039 0)
(0.00105965 -0.000500952 1.22463e-23)
(0.00109782 -0.000513846 0)
(0.00113983 -0.000525702 0)
(0.00118346 -0.000534338 8.65094e-24)
(0.0012275 -0.000538734 -1.63569e-23)
(0.00127129 -0.000538608 2.84519e-23)
(0.00131437 -0.000534032 -2.30872e-23)
(0.00135607 -0.000525173 -9.7563e-24)
(0.00139566 -0.000512334 0)
(0.00143229 -0.000495929 -1.21836e-23)
(0.00146521 -0.000476572 0)
(0.00149372 -0.000454968 0)
(0.00151733 -0.00043189 0)
(0.00153561 -0.000407979 0)
(0.00154814 -0.000383689 4.01571e-21)
(0.00155441 -0.000359227 -4.0174e-21)
(0.00155353 -0.000334842 0)
(0.00154439 -0.000310483 0)
(0.0015254 -0.000286419 0)
(0.00149474 -0.00026285 0)
(0.00145039 -0.000240508 1.90245e-23)
(0.0013896 -0.000218496 1.76959e-23)
(0.00130905 -0.000195506 3.45848e-23)
(0.00120545 -0.00017148 -1.34928e-22)
(0.00107742 -0.000149399 2.60561e-22)
(0.000923119 -0.000129673 -1.7134e-24)
(0.000746258 -0.000108853 -1.50368e-22)
(0.000550943 -9.1619e-05 0)
(0.00035945 -8.4925e-05 0)
(0.000263696 -0.000108471 2.77e-23)