/*--------------------------------*- C++ -*----------------------------------*\
| =========                 |                                                 |
| \\      /  F ield         | OpenFOAM: The Open Source CFD Toolbox           |
|  \\    /   O peration     | Version:  2312                                  |
|   \\  /    A nd           | Website:  www.openfoam.com                      |
|    \\/     M anipulation  |                                                 |
\*---------------------------------------------------------------------------*/
FoamFile
{
    version     2.0;
    format      ascii;
    arch        "LSB;label=32;scalar=64";
    class       volScalarField;
    location    "94000";
    object      p;
}
// * * * * * * * * * * * * * * * * * * * * * * * * * * * * * * * * * * * * * //

dimensions      [0 2 -2 0 0 0 0];

internalField   nonuniform List<scalar> 
10800
(
5.18244e-07
5.04121e-07
4.90354e-07
4.79776e-07
4.72353e-07
4.66962e-07
4.6251e-07
4.5843e-07
4.54554e-07
4.50888e-07
4.47471e-07
4.44305e-07
4.41359e-07
4.3858e-07
4.35924e-07
4.33357e-07
4.30857e-07
4.28411e-07
4.26009e-07
4.23641e-07
4.213e-07
4.18977e-07
4.16665e-07
4.14361e-07
4.12058e-07
4.09753e-07
4.07443e-07
4.05126e-07
4.02799e-07
4.00461e-07
3.98111e-07
3.95748e-07
3.9337e-07
3.90978e-07
3.88572e-07
3.86151e-07
3.83717e-07
3.81268e-07
3.78806e-07
3.76331e-07
3.73843e-07
3.71343e-07
3.6883e-07
3.66306e-07
3.6377e-07
3.6122e-07
3.58659e-07
3.5608e-07
3.53489e-07
3.5087e-07
3.48245e-07
3.45563e-07
3.42904e-07
3.40096e-07
3.37442e-07
3.34303e-07
3.3194e-07
3.27525e-07
3.27212e-07
3.16606e-07
4.70202e-07
4.68474e-07
4.65829e-07
4.62703e-07
4.59486e-07
4.56391e-07
4.53468e-07
4.5068e-07
4.47978e-07
4.4533e-07
4.42731e-07
4.40187e-07
4.37704e-07
4.35282e-07
4.32914e-07
4.30592e-07
4.28305e-07
4.26047e-07
4.23812e-07
4.21593e-07
4.19388e-07
4.17192e-07
4.15002e-07
4.12814e-07
4.10624e-07
4.08431e-07
4.06233e-07
4.04027e-07
4.01811e-07
3.99585e-07
3.97348e-07
3.95098e-07
3.92835e-07
3.90558e-07
3.88269e-07
3.85965e-07
3.83649e-07
3.81317e-07
3.78974e-07
3.76615e-07
3.74248e-07
3.7186e-07
3.6947e-07
3.67054e-07
3.64644e-07
3.62197e-07
3.59769e-07
3.57288e-07
3.54851e-07
3.52332e-07
3.49907e-07
3.47352e-07
3.44991e-07
3.42418e-07
3.40258e-07
3.37734e-07
3.36108e-07
3.33714e-07
3.33231e-07
3.30549e-07
4.61462e-07
4.60711e-07
4.59298e-07
4.57345e-07
4.55061e-07
4.5264e-07
4.50209e-07
4.47819e-07
4.45472e-07
4.43156e-07
4.40862e-07
4.38589e-07
4.36342e-07
4.34127e-07
4.31945e-07
4.29795e-07
4.27671e-07
4.25571e-07
4.23487e-07
4.21418e-07
4.19359e-07
4.17308e-07
4.15263e-07
4.13219e-07
4.11177e-07
4.09132e-07
4.07084e-07
4.05031e-07
4.02971e-07
4.00903e-07
3.98828e-07
3.96742e-07
3.94648e-07
3.92541e-07
3.90426e-07
3.88298e-07
3.8616e-07
3.84009e-07
3.8185e-07
3.79676e-07
3.77495e-07
3.75297e-07
3.73096e-07
3.70873e-07
3.68653e-07
3.66406e-07
3.6417e-07
3.61899e-07
3.59653e-07
3.57359e-07
3.55116e-07
3.52806e-07
3.50587e-07
3.48271e-07
3.46111e-07
3.43802e-07
3.41753e-07
3.39458e-07
3.3756e-07
3.35184e-07
4.49728e-07
4.49296e-07
4.48509e-07
4.47418e-07
4.46093e-07
4.44604e-07
4.4301e-07
4.41348e-07
4.39639e-07
4.37896e-07
4.36124e-07
4.34329e-07
4.32516e-07
4.30693e-07
4.28864e-07
4.27031e-07
4.25197e-07
4.23362e-07
4.21526e-07
4.19687e-07
4.17846e-07
4.16002e-07
4.14154e-07
4.12302e-07
4.10444e-07
4.08581e-07
4.06712e-07
4.04836e-07
4.02954e-07
4.01063e-07
3.99165e-07
3.97258e-07
3.95344e-07
3.93421e-07
3.9149e-07
3.8955e-07
3.87602e-07
3.85645e-07
3.83681e-07
3.81706e-07
3.79724e-07
3.77732e-07
3.75732e-07
3.7372e-07
3.71701e-07
3.69665e-07
3.67623e-07
3.65559e-07
3.63489e-07
3.61389e-07
3.59284e-07
3.57139e-07
3.54991e-07
3.52795e-07
3.50599e-07
3.48342e-07
3.46094e-07
3.43768e-07
3.41467e-07
3.39085e-07
4.4303e-07
4.42817e-07
4.42385e-07
4.41739e-07
4.40895e-07
4.39881e-07
4.3873e-07
4.37472e-07
4.36132e-07
4.34728e-07
4.3327e-07
4.31769e-07
4.30232e-07
4.28665e-07
4.27073e-07
4.25463e-07
4.23837e-07
4.22198e-07
4.20548e-07
4.18889e-07
4.17221e-07
4.15545e-07
4.13862e-07
4.12172e-07
4.10476e-07
4.08774e-07
4.07065e-07
4.05351e-07
4.03631e-07
4.01906e-07
4.00175e-07
3.9844e-07
3.96699e-07
3.94954e-07
3.93204e-07
3.9145e-07
3.89692e-07
3.8793e-07
3.86163e-07
3.84393e-07
3.82619e-07
3.8084e-07
3.79056e-07
3.77268e-07
3.75473e-07
3.73672e-07
3.71864e-07
3.70046e-07
3.68217e-07
3.66374e-07
3.64512e-07
3.62624e-07
3.60699e-07
3.58726e-07
3.56688e-07
3.54571e-07
3.52365e-07
3.50082e-07
3.47722e-07
3.45384e-07
4.37513e-07
4.3735e-07
4.37025e-07
4.36541e-07
4.35908e-07
4.35141e-07
4.3426e-07
4.33282e-07
4.32222e-07
4.31094e-07
4.29907e-07
4.28669e-07
4.27386e-07
4.26065e-07
4.24711e-07
4.23327e-07
4.21919e-07
4.2049e-07
4.19042e-07
4.17578e-07
4.16099e-07
4.14607e-07
4.13105e-07
4.11592e-07
4.1007e-07
4.08539e-07
4.07002e-07
4.05459e-07
4.0391e-07
4.02356e-07
4.00797e-07
3.99236e-07
3.97671e-07
3.96104e-07
3.94535e-07
3.92965e-07
3.91394e-07
3.89823e-07
3.88251e-07
3.86679e-07
3.85106e-07
3.83533e-07
3.81959e-07
3.80383e-07
3.78802e-07
3.77218e-07
3.75625e-07
3.74022e-07
3.72405e-07
3.70773e-07
3.69119e-07
3.67447e-07
3.65749e-07
3.64032e-07
3.62269e-07
3.60464e-07
3.58581e-07
3.56644e-07
3.54647e-07
3.52718e-07
4.33169e-07
4.33051e-07
4.32813e-07
4.32457e-07
4.31986e-07
4.31408e-07
4.30732e-07
4.29967e-07
4.29124e-07
4.28212e-07
4.27239e-07
4.26211e-07
4.25135e-07
4.24015e-07
4.22857e-07
4.21664e-07
4.20441e-07
4.19192e-07
4.17918e-07
4.16625e-07
4.15313e-07
4.13985e-07
4.12643e-07
4.11288e-07
4.09924e-07
4.0855e-07
4.0717e-07
4.05783e-07
4.04391e-07
4.02996e-07
4.01598e-07
4.00199e-07
3.988e-07
3.97402e-07
3.96005e-07
3.94611e-07
3.9322e-07
3.91834e-07
3.90452e-07
3.89076e-07
3.87705e-07
3.8634e-07
3.84981e-07
3.83629e-07
3.82282e-07
3.80942e-07
3.79605e-07
3.78273e-07
3.7694e-07
3.75605e-07
3.74258e-07
3.72894e-07
3.71502e-07
3.70085e-07
3.68633e-07
3.67159e-07
3.6564e-07
3.64101e-07
3.62539e-07
3.61069e-07
4.29721e-07
4.29629e-07
4.29444e-07
4.29164e-07
4.28793e-07
4.28333e-07
4.2779e-07
4.2717e-07
4.26479e-07
4.25723e-07
4.24908e-07
4.24039e-07
4.23121e-07
4.22159e-07
4.21158e-07
4.20122e-07
4.19053e-07
4.17956e-07
4.16834e-07
4.1569e-07
4.14526e-07
4.13345e-07
4.1215e-07
4.10941e-07
4.09722e-07
4.08494e-07
4.0726e-07
4.0602e-07
4.04777e-07
4.03532e-07
4.02286e-07
4.01042e-07
3.998e-07
3.98563e-07
3.97331e-07
3.96106e-07
3.94889e-07
3.93681e-07
3.92484e-07
3.91298e-07
3.90124e-07
3.88963e-07
3.87816e-07
3.86683e-07
3.85564e-07
3.84458e-07
3.83365e-07
3.82286e-07
3.81218e-07
3.80165e-07
3.7912e-07
3.78085e-07
3.77047e-07
3.76007e-07
3.74955e-07
3.739e-07
3.7283e-07
3.71774e-07
3.70738e-07
3.69825e-07
4.26961e-07
4.26886e-07
4.26734e-07
4.26506e-07
4.26201e-07
4.25822e-07
4.25372e-07
4.24855e-07
4.24275e-07
4.23636e-07
4.22943e-07
4.222e-07
4.21411e-07
4.20579e-07
4.19709e-07
4.18804e-07
4.17868e-07
4.16903e-07
4.15913e-07
4.149e-07
4.13867e-07
4.12817e-07
4.11752e-07
4.10675e-07
4.09588e-07
4.08492e-07
4.07391e-07
4.06286e-07
4.05178e-07
4.04072e-07
4.02967e-07
4.01866e-07
4.00771e-07
3.99684e-07
3.98606e-07
3.9754e-07
3.96487e-07
3.95449e-07
3.94427e-07
3.93424e-07
3.9244e-07
3.91479e-07
3.9054e-07
3.89625e-07
3.88736e-07
3.87875e-07
3.87041e-07
3.86235e-07
3.85457e-07
3.84705e-07
3.83977e-07
3.83277e-07
3.82602e-07
3.81956e-07
3.81331e-07
3.80735e-07
3.80161e-07
3.79633e-07
3.7916e-07
3.7883e-07
4.24763e-07
4.247e-07
4.24572e-07
4.24379e-07
4.24121e-07
4.238e-07
4.23417e-07
4.22976e-07
4.22479e-07
4.21929e-07
4.21331e-07
4.20686e-07
4.19998e-07
4.19271e-07
4.18507e-07
4.1771e-07
4.16882e-07
4.16027e-07
4.15147e-07
4.14245e-07
4.13323e-07
4.12385e-07
4.11433e-07
4.10469e-07
4.09496e-07
4.08516e-07
4.07532e-07
4.06545e-07
4.05559e-07
4.04575e-07
4.03595e-07
4.02623e-07
4.01659e-07
4.00708e-07
3.9977e-07
3.98848e-07
3.97944e-07
3.97062e-07
3.96202e-07
3.95368e-07
3.94561e-07
3.93785e-07
3.93041e-07
3.92332e-07
3.9166e-07
3.91027e-07
3.90437e-07
3.89891e-07
3.89389e-07
3.88934e-07
3.88526e-07
3.8817e-07
3.87867e-07
3.87622e-07
3.87431e-07
3.87303e-07
3.87236e-07
3.87252e-07
3.87362e-07
3.87642e-07
4.2304e-07
4.22984e-07
4.22873e-07
4.22706e-07
4.22482e-07
4.22203e-07
4.21869e-07
4.21484e-07
4.21049e-07
4.20567e-07
4.2004e-07
4.19471e-07
4.18862e-07
4.18216e-07
4.17536e-07
4.16824e-07
4.16084e-07
4.15317e-07
4.14527e-07
4.13716e-07
4.12887e-07
4.12042e-07
4.11185e-07
4.10316e-07
4.0944e-07
4.08558e-07
4.07674e-07
4.06789e-07
4.05906e-07
4.05028e-07
4.04157e-07
4.03296e-07
4.02448e-07
4.01615e-07
4.008e-07
4.00005e-07
3.99235e-07
3.9849e-07
3.97776e-07
3.97093e-07
3.96447e-07
3.95839e-07
3.95273e-07
3.94753e-07
3.94282e-07
3.93863e-07
3.935e-07
3.93195e-07
3.92951e-07
3.92776e-07
3.92671e-07
3.92644e-07
3.92696e-07
3.92834e-07
3.93061e-07
3.93385e-07
3.9381e-07
3.94354e-07
3.95035e-07
3.95909e-07
4.21727e-07
4.21678e-07
4.21579e-07
4.2143e-07
4.2123e-07
4.20981e-07
4.20684e-07
4.20339e-07
4.1995e-07
4.19517e-07
4.19043e-07
4.18531e-07
4.17981e-07
4.17398e-07
4.16782e-07
4.16137e-07
4.15464e-07
4.14767e-07
4.14048e-07
4.13309e-07
4.12553e-07
4.11783e-07
4.11001e-07
4.1021e-07
4.09412e-07
4.0861e-07
4.07807e-07
4.07005e-07
4.06208e-07
4.05417e-07
4.04636e-07
4.03868e-07
4.03116e-07
4.02382e-07
4.01669e-07
4.00982e-07
4.00323e-07
3.99696e-07
3.99104e-07
3.98551e-07
3.9804e-07
3.97576e-07
3.97163e-07
3.96805e-07
3.96506e-07
3.96271e-07
3.96104e-07
3.96011e-07
3.95997e-07
3.9607e-07
3.96235e-07
3.96499e-07
3.96868e-07
3.9735e-07
3.97952e-07
3.98684e-07
3.99556e-07
4.00584e-07
4.01786e-07
4.03205e-07
4.20779e-07
4.20735e-07
4.20644e-07
4.20508e-07
4.20325e-07
4.20097e-07
4.19825e-07
4.19509e-07
4.19151e-07
4.18754e-07
4.18318e-07
4.17846e-07
4.1734e-07
4.16801e-07
4.16232e-07
4.15635e-07
4.15012e-07
4.14366e-07
4.137e-07
4.13014e-07
4.12314e-07
4.11599e-07
4.10874e-07
4.10141e-07
4.09403e-07
4.08662e-07
4.07921e-07
4.07183e-07
4.06451e-07
4.05727e-07
4.05016e-07
4.04319e-07
4.03641e-07
4.02984e-07
4.02351e-07
4.01748e-07
4.01176e-07
4.0064e-07
4.00144e-07
3.99693e-07
3.99289e-07
3.98939e-07
3.98647e-07
3.98418e-07
3.98256e-07
3.98169e-07
3.98161e-07
3.9824e-07
3.98413e-07
3.98687e-07
3.99071e-07
3.99572e-07
4.002e-07
4.00965e-07
4.01876e-07
4.02946e-07
4.04189e-07
4.05619e-07
4.07257e-07
4.09131e-07
4.20166e-07
4.20124e-07
4.20039e-07
4.19911e-07
4.19739e-07
4.19524e-07
4.19268e-07
4.1897e-07
4.18633e-07
4.18258e-07
4.17847e-07
4.17401e-07
4.16922e-07
4.16413e-07
4.15874e-07
4.15309e-07
4.14719e-07
4.14107e-07
4.13475e-07
4.12826e-07
4.12161e-07
4.11484e-07
4.10798e-07
4.10104e-07
4.09405e-07
4.08705e-07
4.08006e-07
4.07311e-07
4.06623e-07
4.05945e-07
4.05281e-07
4.04633e-07
4.04005e-07
4.03401e-07
4.02823e-07
4.02277e-07
4.01765e-07
4.01292e-07
4.00863e-07
4.00481e-07
4.00153e-07
3.99881e-07
3.99673e-07
3.99534e-07
3.99468e-07
3.99484e-07
3.99588e-07
3.99788e-07
4.00092e-07
4.00509e-07
4.01047e-07
4.01717e-07
4.02529e-07
4.03494e-07
4.04627e-07
4.05939e-07
4.07448e-07
4.09168e-07
4.1112e-07
4.13324e-07
4.19867e-07
4.19826e-07
4.19744e-07
4.1962e-07
4.19453e-07
4.19245e-07
4.18996e-07
4.18708e-07
4.18381e-07
4.18017e-07
4.17617e-07
4.17184e-07
4.16719e-07
4.16224e-07
4.15701e-07
4.15151e-07
4.14578e-07
4.13983e-07
4.13368e-07
4.12736e-07
4.1209e-07
4.11432e-07
4.10765e-07
4.1009e-07
4.09412e-07
4.08733e-07
4.08055e-07
4.07382e-07
4.06716e-07
4.06062e-07
4.05421e-07
4.04798e-07
4.04196e-07
4.03618e-07
4.03069e-07
4.02552e-07
4.02071e-07
4.01631e-07
4.01235e-07
4.0089e-07
4.00599e-07
4.00369e-07
4.00204e-07
4.0011e-07
4.00095e-07
4.00164e-07
4.00326e-07
4.00589e-07
4.00961e-07
4.01451e-07
4.0207e-07
4.02827e-07
4.03736e-07
4.04807e-07
4.06055e-07
4.07494e-07
4.09142e-07
4.11014e-07
4.13132e-07
4.15509e-07
4.19873e-07
4.19832e-07
4.1975e-07
4.19626e-07
4.19459e-07
4.19251e-07
4.19002e-07
4.18713e-07
4.18387e-07
4.18023e-07
4.17624e-07
4.17191e-07
4.16726e-07
4.16231e-07
4.15707e-07
4.15158e-07
4.14585e-07
4.13989e-07
4.13375e-07
4.12744e-07
4.12098e-07
4.1144e-07
4.10772e-07
4.10098e-07
4.0942e-07
4.08741e-07
4.08063e-07
4.07391e-07
4.06725e-07
4.06071e-07
4.05431e-07
4.04808e-07
4.04206e-07
4.03629e-07
4.0308e-07
4.02563e-07
4.02083e-07
4.01643e-07
4.01248e-07
4.00903e-07
4.00613e-07
4.00383e-07
4.00218e-07
4.00126e-07
4.00111e-07
4.00181e-07
4.00344e-07
4.00607e-07
4.0098e-07
4.01471e-07
4.02091e-07
4.02849e-07
4.03758e-07
4.0483e-07
4.06079e-07
4.07519e-07
4.09169e-07
4.11042e-07
4.13161e-07
4.1554e-07
4.20184e-07
4.20141e-07
4.20056e-07
4.19928e-07
4.19757e-07
4.19542e-07
4.19285e-07
4.18988e-07
4.18651e-07
4.18276e-07
4.17865e-07
4.1742e-07
4.16941e-07
4.16432e-07
4.15894e-07
4.15329e-07
4.14739e-07
4.14128e-07
4.13496e-07
4.12847e-07
4.12183e-07
4.11507e-07
4.10821e-07
4.10127e-07
4.0943e-07
4.0873e-07
4.08032e-07
4.07338e-07
4.06651e-07
4.05974e-07
4.0531e-07
4.04663e-07
4.04036e-07
4.03433e-07
4.02856e-07
4.02311e-07
4.018e-07
4.01329e-07
4.00901e-07
4.00521e-07
4.00193e-07
3.99924e-07
3.99717e-07
3.99579e-07
3.99516e-07
3.99534e-07
3.9964e-07
3.99842e-07
4.00148e-07
4.00567e-07
4.01108e-07
4.0178e-07
4.02595e-07
4.03564e-07
4.04699e-07
4.06015e-07
4.07527e-07
4.0925e-07
4.11206e-07
4.13414e-07
4.20808e-07
4.20763e-07
4.20673e-07
4.20537e-07
4.20354e-07
4.20126e-07
4.19854e-07
4.19538e-07
4.19181e-07
4.18784e-07
4.18349e-07
4.17877e-07
4.17371e-07
4.16833e-07
4.16264e-07
4.15668e-07
4.15046e-07
4.14401e-07
4.13735e-07
4.1305e-07
4.1235e-07
4.11637e-07
4.10913e-07
4.10181e-07
4.09444e-07
4.08704e-07
4.07964e-07
4.07227e-07
4.06496e-07
4.05774e-07
4.05064e-07
4.04369e-07
4.03692e-07
4.03037e-07
4.02406e-07
4.01804e-07
4.01234e-07
4.00701e-07
4.00207e-07
3.99758e-07
3.99357e-07
3.99009e-07
3.98719e-07
3.98493e-07
3.98335e-07
3.98251e-07
3.98246e-07
3.98329e-07
3.98505e-07
3.98783e-07
3.99171e-07
3.99677e-07
4.00309e-07
4.01079e-07
4.01995e-07
4.03071e-07
4.04319e-07
4.05755e-07
4.07399e-07
4.0928e-07
4.21766e-07
4.21717e-07
4.21619e-07
4.2147e-07
4.2127e-07
4.21022e-07
4.20724e-07
4.2038e-07
4.19991e-07
4.19559e-07
4.19086e-07
4.18574e-07
4.18025e-07
4.17442e-07
4.16827e-07
4.16182e-07
4.15511e-07
4.14815e-07
4.14096e-07
4.13359e-07
4.12604e-07
4.11835e-07
4.11054e-07
4.10264e-07
4.09468e-07
4.08668e-07
4.07866e-07
4.07066e-07
4.06271e-07
4.05482e-07
4.04703e-07
4.03937e-07
4.03187e-07
4.02455e-07
4.01745e-07
4.01061e-07
4.00404e-07
3.9978e-07
3.99191e-07
3.98641e-07
3.98133e-07
3.97673e-07
3.97263e-07
3.96909e-07
3.96614e-07
3.96383e-07
3.96222e-07
3.96134e-07
3.96126e-07
3.96204e-07
3.96374e-07
3.96644e-07
3.97019e-07
3.97507e-07
3.98116e-07
3.98856e-07
3.99736e-07
4.00771e-07
4.01982e-07
4.0341e-07
4.2309e-07
4.23035e-07
4.22924e-07
4.22757e-07
4.22533e-07
4.22254e-07
4.21921e-07
4.21536e-07
4.21102e-07
4.2062e-07
4.20094e-07
4.19525e-07
4.18917e-07
4.18272e-07
4.17593e-07
4.16883e-07
4.16143e-07
4.15378e-07
4.14589e-07
4.1378e-07
4.12952e-07
4.12109e-07
4.11252e-07
4.10386e-07
4.09511e-07
4.08631e-07
4.07749e-07
4.06866e-07
4.05986e-07
4.0511e-07
4.04242e-07
4.03384e-07
4.02538e-07
4.01708e-07
4.00896e-07
4.00105e-07
3.99338e-07
3.98597e-07
3.97886e-07
3.97208e-07
3.96565e-07
3.95962e-07
3.954e-07
3.94885e-07
3.94419e-07
3.94005e-07
3.93648e-07
3.93349e-07
3.93113e-07
3.92944e-07
3.92847e-07
3.92827e-07
3.92887e-07
3.93033e-07
3.93268e-07
3.93601e-07
3.94036e-07
3.94591e-07
3.95282e-07
3.96166e-07
4.24824e-07
4.24761e-07
4.24633e-07
4.2444e-07
4.24182e-07
4.23861e-07
4.23479e-07
4.23039e-07
4.22542e-07
4.21994e-07
4.21396e-07
4.20752e-07
4.20065e-07
4.19339e-07
4.18576e-07
4.1778e-07
4.16954e-07
4.161e-07
4.15221e-07
4.14321e-07
4.13401e-07
4.12465e-07
4.11515e-07
4.10553e-07
4.09582e-07
4.08605e-07
4.07623e-07
4.06639e-07
4.05655e-07
4.04674e-07
4.03697e-07
4.02728e-07
4.01768e-07
4.0082e-07
3.99886e-07
3.98968e-07
3.98068e-07
3.9719e-07
3.96335e-07
3.95505e-07
3.94704e-07
3.93933e-07
3.93194e-07
3.92491e-07
3.91825e-07
3.91199e-07
3.90615e-07
3.90076e-07
3.89582e-07
3.89134e-07
3.88735e-07
3.88389e-07
3.88095e-07
3.87859e-07
3.87678e-07
3.87561e-07
3.87506e-07
3.87533e-07
3.87656e-07
3.87949e-07
4.27032e-07
4.26956e-07
4.26805e-07
4.26577e-07
4.26272e-07
4.25894e-07
4.25444e-07
4.24928e-07
4.24349e-07
4.23711e-07
4.23019e-07
4.22277e-07
4.21489e-07
4.20658e-07
4.19789e-07
4.18886e-07
4.17951e-07
4.16988e-07
4.15999e-07
4.14988e-07
4.13958e-07
4.1291e-07
4.11847e-07
4.10772e-07
4.09687e-07
4.08595e-07
4.07496e-07
4.06394e-07
4.0529e-07
4.04186e-07
4.03085e-07
4.01988e-07
4.00897e-07
3.99814e-07
3.9874e-07
3.97679e-07
3.9663e-07
3.95597e-07
3.94581e-07
3.93583e-07
3.92605e-07
3.9165e-07
3.90717e-07
3.89809e-07
3.88927e-07
3.88073e-07
3.87246e-07
3.86449e-07
3.85679e-07
3.84937e-07
3.84218e-07
3.83529e-07
3.82864e-07
3.82229e-07
3.81615e-07
3.81032e-07
3.80471e-07
3.79956e-07
3.79497e-07
3.79182e-07
4.29801e-07
4.29709e-07
4.29523e-07
4.29245e-07
4.28874e-07
4.28414e-07
4.27872e-07
4.27252e-07
4.26562e-07
4.25807e-07
4.24993e-07
4.24125e-07
4.23209e-07
4.22249e-07
4.21249e-07
4.20214e-07
4.19147e-07
4.18052e-07
4.16932e-07
4.1579e-07
4.14629e-07
4.1345e-07
4.12257e-07
4.11051e-07
4.09835e-07
4.08611e-07
4.07379e-07
4.06143e-07
4.04903e-07
4.03661e-07
4.0242e-07
4.0118e-07
3.99943e-07
3.9871e-07
3.97483e-07
3.96263e-07
3.95051e-07
3.93849e-07
3.92657e-07
3.91477e-07
3.9031e-07
3.89156e-07
3.88016e-07
3.86891e-07
3.85779e-07
3.84682e-07
3.83597e-07
3.82527e-07
3.81468e-07
3.80424e-07
3.7939e-07
3.78366e-07
3.7734e-07
3.76313e-07
3.75274e-07
3.74233e-07
3.73177e-07
3.72135e-07
3.71114e-07
3.70216e-07
4.33257e-07
4.33139e-07
4.32901e-07
4.32545e-07
4.32075e-07
4.31498e-07
4.30822e-07
4.30058e-07
4.29216e-07
4.28305e-07
4.27333e-07
4.26306e-07
4.25232e-07
4.24114e-07
4.22957e-07
4.21766e-07
4.20545e-07
4.19298e-07
4.18027e-07
4.16735e-07
4.15426e-07
4.14101e-07
4.12761e-07
4.1141e-07
4.10049e-07
4.08679e-07
4.07302e-07
4.05918e-07
4.04531e-07
4.03139e-07
4.01746e-07
4.00352e-07
3.98957e-07
3.97564e-07
3.96172e-07
3.94784e-07
3.93399e-07
3.92019e-07
3.90643e-07
3.89274e-07
3.8791e-07
3.86552e-07
3.85201e-07
3.83857e-07
3.82518e-07
3.81186e-07
3.79858e-07
3.78535e-07
3.77212e-07
3.75887e-07
3.74551e-07
3.73201e-07
3.71823e-07
3.70421e-07
3.68984e-07
3.67523e-07
3.66019e-07
3.64495e-07
3.6295e-07
3.61496e-07
4.37608e-07
4.37446e-07
4.37121e-07
4.36637e-07
4.36004e-07
4.35239e-07
4.34358e-07
4.33381e-07
4.32322e-07
4.31195e-07
4.3001e-07
4.28773e-07
4.27492e-07
4.26173e-07
4.2482e-07
4.23439e-07
4.22033e-07
4.20606e-07
4.1916e-07
4.17699e-07
4.16223e-07
4.14734e-07
4.13234e-07
4.11725e-07
4.10206e-07
4.0868e-07
4.07146e-07
4.05607e-07
4.04062e-07
4.02512e-07
4.00959e-07
3.99402e-07
3.97843e-07
3.96281e-07
3.94718e-07
3.93154e-07
3.91589e-07
3.90024e-07
3.88459e-07
3.86894e-07
3.85329e-07
3.83764e-07
3.82197e-07
3.8063e-07
3.79059e-07
3.77485e-07
3.75902e-07
3.74311e-07
3.72705e-07
3.71085e-07
3.69444e-07
3.67786e-07
3.661e-07
3.64394e-07
3.62643e-07
3.60851e-07
3.58985e-07
3.57065e-07
3.55088e-07
3.53177e-07
4.43132e-07
4.42919e-07
4.42488e-07
4.41842e-07
4.40998e-07
4.39985e-07
4.38835e-07
4.37578e-07
4.36239e-07
4.34836e-07
4.3338e-07
4.31881e-07
4.30345e-07
4.2878e-07
4.2719e-07
4.25582e-07
4.23958e-07
4.22322e-07
4.20675e-07
4.19019e-07
4.17354e-07
4.15681e-07
4.14002e-07
4.12315e-07
4.10623e-07
4.08924e-07
4.0722e-07
4.0551e-07
4.03795e-07
4.02074e-07
4.00349e-07
3.98618e-07
3.96883e-07
3.95143e-07
3.934e-07
3.91652e-07
3.899e-07
3.88145e-07
3.86386e-07
3.84623e-07
3.82856e-07
3.81085e-07
3.79311e-07
3.77531e-07
3.75746e-07
3.73954e-07
3.72156e-07
3.70349e-07
3.68531e-07
3.66699e-07
3.64848e-07
3.62973e-07
3.61061e-07
3.59103e-07
3.57081e-07
3.54983e-07
3.52795e-07
3.5053e-07
3.4819e-07
3.45869e-07
4.49836e-07
4.49404e-07
4.48617e-07
4.47527e-07
4.46203e-07
4.44715e-07
4.43121e-07
4.4146e-07
4.39753e-07
4.38011e-07
4.36241e-07
4.34447e-07
4.32637e-07
4.30815e-07
4.28988e-07
4.27158e-07
4.25327e-07
4.23495e-07
4.21661e-07
4.19826e-07
4.17988e-07
4.16147e-07
4.14303e-07
4.12454e-07
4.10601e-07
4.08742e-07
4.06877e-07
4.05006e-07
4.03128e-07
4.01242e-07
3.99349e-07
3.97448e-07
3.9554e-07
3.93623e-07
3.91698e-07
3.89764e-07
3.87823e-07
3.85873e-07
3.83916e-07
3.8195e-07
3.79976e-07
3.77992e-07
3.76002e-07
3.73999e-07
3.7199e-07
3.69964e-07
3.67934e-07
3.65881e-07
3.63823e-07
3.61737e-07
3.59645e-07
3.57515e-07
3.55382e-07
3.53201e-07
3.51022e-07
3.48781e-07
3.4655e-07
3.44239e-07
3.41954e-07
3.3959e-07
4.61574e-07
4.60823e-07
4.5941e-07
4.57458e-07
4.55174e-07
4.52754e-07
4.50325e-07
4.47936e-07
4.4559e-07
4.43276e-07
4.40983e-07
4.38712e-07
4.36468e-07
4.34255e-07
4.32076e-07
4.29928e-07
4.27808e-07
4.2571e-07
4.2363e-07
4.21564e-07
4.19509e-07
4.17461e-07
4.15419e-07
4.1338e-07
4.11341e-07
4.09301e-07
4.07258e-07
4.05209e-07
4.03155e-07
4.01092e-07
3.99022e-07
3.96942e-07
3.94853e-07
3.92753e-07
3.90644e-07
3.88522e-07
3.86392e-07
3.84248e-07
3.82097e-07
3.7993e-07
3.77758e-07
3.75568e-07
3.73376e-07
3.71163e-07
3.68953e-07
3.66717e-07
3.64491e-07
3.62231e-07
3.59997e-07
3.57716e-07
3.55486e-07
3.53189e-07
3.50984e-07
3.48683e-07
3.46539e-07
3.44247e-07
3.42216e-07
3.3994e-07
3.38062e-07
3.35707e-07
4.70317e-07
4.6859e-07
4.65945e-07
4.6282e-07
4.59604e-07
4.5651e-07
4.53587e-07
4.50801e-07
4.48101e-07
4.45455e-07
4.42858e-07
4.40316e-07
4.37835e-07
4.35416e-07
4.33051e-07
4.30731e-07
4.28448e-07
4.26193e-07
4.23961e-07
4.21746e-07
4.19545e-07
4.17353e-07
4.15166e-07
4.12982e-07
4.10797e-07
4.08609e-07
4.06415e-07
4.04214e-07
4.02003e-07
3.99782e-07
3.97551e-07
3.95306e-07
3.9305e-07
3.90779e-07
3.88496e-07
3.86199e-07
3.8389e-07
3.81565e-07
3.7923e-07
3.76879e-07
3.7452e-07
3.72142e-07
3.69761e-07
3.67355e-07
3.64954e-07
3.62518e-07
3.60102e-07
3.57632e-07
3.55208e-07
3.52701e-07
3.5029e-07
3.47748e-07
3.45402e-07
3.42844e-07
3.40699e-07
3.38192e-07
3.36583e-07
3.34207e-07
3.33743e-07
3.31082e-07
5.18361e-07
5.04239e-07
4.90472e-07
4.79895e-07
4.72473e-07
4.67082e-07
4.62632e-07
4.58553e-07
4.54679e-07
4.51015e-07
4.476e-07
4.44437e-07
4.41493e-07
4.38717e-07
4.36064e-07
4.335e-07
4.31003e-07
4.28561e-07
4.26162e-07
4.23798e-07
4.21461e-07
4.19142e-07
4.16835e-07
4.14534e-07
4.12236e-07
4.09935e-07
4.0763e-07
4.05318e-07
4.02997e-07
4.00664e-07
3.98319e-07
3.95961e-07
3.9359e-07
3.91204e-07
3.88804e-07
3.8639e-07
3.83963e-07
3.81521e-07
3.79067e-07
3.766e-07
3.7412e-07
3.71629e-07
3.69126e-07
3.66611e-07
3.64085e-07
3.61546e-07
3.58995e-07
3.56428e-07
3.53849e-07
3.51242e-07
3.4863e-07
3.45961e-07
3.43316e-07
3.40523e-07
3.37883e-07
3.3476e-07
3.32411e-07
3.28015e-07
3.27718e-07
3.17126e-07
3.56447e-07
3.05942e-07
2.85005e-07
2.67454e-07
2.49853e-07
2.32134e-07
2.1233e-07
1.91213e-07
1.66537e-07
1.40038e-07
1.09173e-07
7.69269e-08
4.02092e-08
3.42586e-09
-3.7289e-08
-7.60092e-08
-1.1801e-07
-1.55704e-07
-1.96312e-07
-2.30362e-07
-2.67424e-07
-2.96033e-07
-3.28281e-07
-3.50155e-07
-3.7775e-07
-3.90712e-07
-4.18038e-07
-4.1737e-07
-4.51369e-07
-5.5085e-07
3.42555e-07
2.87503e-07
2.73549e-07
2.58576e-07
2.41653e-07
2.24348e-07
2.04853e-07
1.83889e-07
1.59408e-07
1.33271e-07
1.0304e-07
7.1652e-08
3.61089e-08
6.49521e-10
-3.85363e-08
-7.57887e-08
-1.15994e-07
-1.52201e-07
-1.90959e-07
-2.24043e-07
-2.59782e-07
-2.87738e-07
-3.19879e-07
-3.41107e-07
-3.69551e-07
-3.82965e-07
-4.07576e-07
-4.19982e-07
-4.25729e-07
-5.73983e-07
3.30365e-07
2.85043e-07
2.72125e-07
2.57641e-07
2.40224e-07
2.21933e-07
2.01916e-07
1.80612e-07
1.56082e-07
1.29818e-07
9.98239e-08
6.85341e-08
3.35575e-08
-1.54615e-09
-3.98233e-08
-7.6476e-08
-1.15665e-07
-1.51508e-07
-1.89659e-07
-2.22359e-07
-2.57669e-07
-2.85496e-07
-3.16434e-07
-3.39405e-07
-3.65033e-07
-3.84722e-07
-4.03174e-07
-4.30463e-07
-4.11271e-07
-5.12883e-07
3.20187e-07
2.80943e-07
2.65946e-07
2.51982e-07
2.3526e-07
2.17578e-07
1.97755e-07
1.76286e-07
1.51812e-07
1.25393e-07
9.57304e-08
6.44618e-08
3.02472e-08
-4.64411e-09
-4.16965e-08
-7.81248e-08
-1.15763e-07
-1.51509e-07
-1.87492e-07
-2.20705e-07
-2.53203e-07
-2.83316e-07
-3.11268e-07
-3.37743e-07
-3.59181e-07
-3.85215e-07
-3.94089e-07
-4.31492e-07
-4.07018e-07
-4.75396e-07
3.10361e-07
2.78347e-07
2.62481e-07
2.49656e-07
2.33493e-07
2.15024e-07
1.94682e-07
1.72647e-07
1.48134e-07
1.21308e-07
9.18946e-08
6.03597e-08
2.6842e-08
-8.13558e-09
-4.39936e-08
-8.0447e-08
-1.16435e-07
-1.52334e-07
-1.86326e-07
-2.20328e-07
-2.50709e-07
-2.8231e-07
-3.07314e-07
-3.36835e-07
-3.54185e-07
-3.84087e-07
-3.89458e-07
-4.24665e-07
-4.13531e-07
-4.48566e-07
3.01756e-07
2.76613e-07
2.59922e-07
2.46636e-07
2.3074e-07
2.12171e-07
1.91645e-07
1.69123e-07
1.44486e-07
1.1723e-07
8.79371e-08
5.60917e-08
2.3099e-08
-1.20038e-08
-4.68564e-08
-8.33246e-08
-1.17845e-07
-1.53854e-07
-1.86082e-07
-2.20505e-07
-2.48928e-07
-2.81282e-07
-3.04531e-07
-3.34992e-07
-3.51401e-07
-3.80681e-07
-3.89111e-07
-4.16533e-07
-4.20476e-07
-4.37347e-07
2.94714e-07
2.75097e-07
2.58303e-07
2.44161e-07
2.28379e-07
2.09742e-07
1.88964e-07
1.65875e-07
1.4093e-07
1.132e-07
8.38351e-08
5.16958e-08
1.89775e-08
-1.61498e-08
-5.03251e-08
-8.65644e-08
-1.20078e-07
-1.55729e-07
-1.8685e-07
-2.20847e-07
-2.48395e-07
-2.80201e-07
-3.0338e-07
-3.32684e-07
-3.50857e-07
-3.76952e-07
-3.90584e-07
-4.11473e-07
-4.22981e-07
-4.35562e-07
2.89463e-07
2.73684e-07
2.57397e-07
2.42289e-07
2.2626e-07
2.0747e-07
1.86373e-07
1.62729e-07
1.37308e-07
1.09126e-07
7.94875e-08
4.71439e-08
1.4431e-08
-2.05496e-08
-5.44029e-08
-9.01141e-08
-1.23109e-07
-1.57909e-07
-1.88582e-07
-2.21437e-07
-2.49e-07
-2.79319e-07
-3.0345e-07
-3.30644e-07
-3.51233e-07
-3.74339e-07
-3.91734e-07
-4.09565e-07
-4.23934e-07
-4.36079e-07
2.86084e-07
2.72369e-07
2.56737e-07
2.40975e-07
2.24392e-07
2.0528e-07
1.83769e-07
1.59597e-07
1.33572e-07
1.04948e-07
7.48724e-08
4.23904e-08
9.47826e-09
-2.52351e-08
-5.90231e-08
-9.40162e-08
-1.26806e-07
-1.60486e-07
-1.91048e-07
-2.22473e-07
-2.50302e-07
-2.78981e-07
-3.03965e-07
-3.29445e-07
-3.51522e-07
-3.73213e-07
-3.92153e-07
-4.09535e-07
-4.24697e-07
-4.37788e-07
2.84331e-07
2.71219e-07
2.56158e-07
2.40024e-07
2.22728e-07
2.03105e-07
1.81059e-07
1.56361e-07
1.2966e-07
1.00581e-07
6.99689e-08
3.73541e-08
4.14704e-09
-3.02768e-08
-6.40958e-08
-9.83459e-08
-1.30996e-07
-1.63562e-07
-1.93986e-07
-2.24094e-07
-2.51961e-07
-2.79338e-07
-3.04627e-07
-3.29091e-07
-3.51677e-07
-3.72916e-07
-3.92371e-07
-4.10022e-07
-4.25812e-07
-4.39857e-07
2.83721e-07
2.70382e-07
2.55536e-07
2.39148e-07
2.21135e-07
2.0086e-07
1.78162e-07
1.529e-07
1.25501e-07
9.59262e-08
6.47459e-08
3.19513e-08
-1.55482e-09
-3.57465e-08
-6.95661e-08
-1.03165e-07
-1.35579e-07
-1.6719e-07
-1.97274e-07
-2.2632e-07
-2.5388e-07
-2.80319e-07
-3.05429e-07
-3.29295e-07
-3.5188e-07
-3.73001e-07
-3.92704e-07
-4.10749e-07
-4.27213e-07
-4.42117e-07
2.83672e-07
2.69893e-07
2.54886e-07
2.38149e-07
2.19435e-07
1.98432e-07
1.74999e-07
1.49112e-07
1.21007e-07
9.08905e-08
5.91438e-08
2.61037e-08
-7.6668e-09
-4.17072e-08
-7.54507e-08
-1.08514e-07
-1.40562e-07
-1.71374e-07
-2.00929e-07
-2.291e-07
-2.56112e-07
-2.81798e-07
-3.06483e-07
-3.29884e-07
-3.52287e-07
-3.7334e-07
-3.93217e-07
-4.11634e-07
-4.28712e-07
-4.44467e-07
2.83781e-07
2.69606e-07
2.54162e-07
2.36901e-07
2.17468e-07
1.95701e-07
1.71489e-07
1.44906e-07
1.16083e-07
8.53749e-08
5.30697e-08
1.97237e-08
-1.42765e-08
-4.82328e-08
-8.18347e-08
-1.14445e-07
-1.46034e-07
-1.76137e-07
-2.05046e-07
-2.32419e-07
-2.58762e-07
-2.83737e-07
-3.07893e-07
-3.30816e-07
-3.52982e-07
-3.73894e-07
-3.93936e-07
-4.12601e-07
-4.30293e-07
-4.46709e-07
2.838e-07
2.69308e-07
2.5328e-07
2.35339e-07
2.15141e-07
1.92579e-07
1.6755e-07
1.40198e-07
1.10624e-07
7.9268e-08
4.64002e-08
1.26972e-08
-2.1514e-08
-5.54328e-08
-8.88519e-08
-1.21053e-07
-1.52125e-07
-1.81552e-07
-2.09746e-07
-2.36334e-07
-2.6193e-07
-2.86178e-07
-3.09726e-07
-3.3213e-07
-3.53976e-07
-3.74699e-07
-3.94813e-07
-4.13681e-07
-4.31868e-07
-4.48891e-07
2.83641e-07
2.68808e-07
2.5215e-07
2.33446e-07
2.12423e-07
1.89004e-07
1.63096e-07
1.34889e-07
1.04503e-07
7.24349e-08
3.89788e-08
4.87342e-09
-2.95498e-08
-6.34592e-08
-9.66732e-08
-1.28474e-07
-1.58991e-07
-1.87733e-07
-2.15159e-07
-2.40934e-07
-2.65715e-07
-2.89184e-07
-3.12041e-07
-3.33857e-07
-3.55293e-07
-3.75747e-07
-3.95849e-07
-4.14837e-07
-4.33444e-07
-4.50953e-07
2.83365e-07
2.68069e-07
2.5076e-07
2.31244e-07
2.09312e-07
1.84927e-07
1.58032e-07
1.28856e-07
9.7568e-08
6.47068e-08
3.06151e-08
-3.93844e-09
-3.85864e-08
-7.25008e-08
-1.05491e-07
-1.36876e-07
-1.66796e-07
-1.94817e-07
-2.21414e-07
-2.46318e-07
-2.70205e-07
-2.92821e-07
-3.14881e-07
-3.36026e-07
-3.56924e-07
-3.77032e-07
-3.96986e-07
-4.16038e-07
-4.34943e-07
-4.52886e-07
2.83154e-07
2.67178e-07
2.49155e-07
2.28756e-07
2.05788e-07
1.80272e-07
1.52225e-07
1.21932e-07
8.9623e-08
5.58722e-08
2.10818e-08
-1.39645e-08
-4.88507e-08
-8.27678e-08
-1.15505e-07
-1.46435e-07
-1.75701e-07
-2.02935e-07
-2.2863e-07
-2.52579e-07
-2.7548e-07
-2.97138e-07
-3.18288e-07
-3.38642e-07
-3.58867e-07
-3.78512e-07
-3.98172e-07
-4.17207e-07
-4.36267e-07
-4.54626e-07
2.83259e-07
2.663e-07
2.47384e-07
2.25937e-07
2.01735e-07
1.74868e-07
1.45465e-07
1.13877e-07
8.04105e-08
4.56662e-08
1.01113e-08
-2.54627e-08
-6.05878e-08
-9.44843e-08
-1.2692e-07
-1.5733e-07
-1.85864e-07
-2.12223e-07
-2.36925e-07
-2.59813e-07
-2.81626e-07
-3.02197e-07
-3.2232e-07
-3.41724e-07
-3.61141e-07
-3.80147e-07
-3.99372e-07
-4.18228e-07
-4.37332e-07
-4.55993e-07
2.838e-07
2.65549e-07
2.45399e-07
2.22592e-07
1.96879e-07
1.68414e-07
1.37436e-07
1.04369e-07
6.96012e-08
3.37631e-08
-2.61219e-09
-3.87304e-08
-7.40743e-08
-1.07903e-07
-1.39965e-07
-1.69771e-07
-1.97473e-07
-2.22853e-07
-2.46448e-07
-2.6816e-07
-2.88761e-07
-3.08105e-07
-3.27061e-07
-3.45337e-07
-3.63788e-07
-3.81939e-07
-4.00554e-07
-4.19009e-07
-4.37973e-07
-4.56761e-07
2.84541e-07
2.64729e-07
2.42871e-07
2.18287e-07
1.90752e-07
1.60442e-07
1.27682e-07
9.29615e-08
5.67582e-08
1.97395e-08
-1.74941e-08
-5.41499e-08
-8.96691e-08
-1.23359e-07
-1.54955e-07
-1.84053e-07
-2.10805e-07
-2.35087e-07
-2.57438e-07
-2.77838e-07
-2.97075e-07
-3.15035e-07
-3.32649e-07
-3.49594e-07
-3.66884e-07
-3.83914e-07
-4.01713e-07
-4.19421e-07
-4.38031e-07
-4.56539e-07
2.84717e-07
2.63074e-07
2.39156e-07
2.12437e-07
1.82767e-07
1.50357e-07
1.15601e-07
7.90538e-08
4.12884e-08
3.0159e-09
-3.50946e-08
-7.22573e-08
-1.0788e-07
-1.41332e-07
-1.72342e-07
-2.00606e-07
-2.26267e-07