/*--------------------------------*- C++ -*----------------------------------*\
| =========                 |                                                 |
| \\      /  F ield         | OpenFOAM: The Open Source CFD Toolbox           |
|  \\    /   O peration     | Version:  2312                                  |
|   \\  /    A nd           | Website:  www.openfoam.com                      |
|    \\/     M anipulation  |                                                 |
\*---------------------------------------------------------------------------*/
FoamFile
{
    version     2.0;
    format      ascii;
    arch        "LSB;label=32;scalar=64";
    class       volVectorField;
    location    "94000";
    object      U;
}
// * * * * * * * * * * * * * * * * * * * * * * * * * * * * * * * * * * * * * //

dimensions      [0 1 -1 0 0 0 0];

internalField   nonuniform List<vector> 
10800
(
(0.000992484 4.94177e-06 0)
(0.000990038 1.24573e-05 0)
(0.000986873 1.74784e-05 0)
(0.000980501 2.06619e-05 0)
(0.00097109 2.27446e-05 0)
(0.000959801 2.42379e-05 0)
(0.000947703 2.53765e-05 0)
(0.000935328 2.62354e-05 0)
(0.000922821 2.68388e-05 0)
(0.00091016 2.72117e-05 0)
(0.000897299 2.73918e-05 0)
(0.000884234 2.74221e-05 0)
(0.000871003 2.73406e-05 0)
(0.000857661 2.71753e-05 0)
(0.000844258 2.69444e-05 0)
(0.000830834 2.66595e-05 0)
(0.000817414 2.63287e-05 0)
(0.000804015 2.59586e-05 0)
(0.000790655 2.55545e-05 0)
(0.000777347 2.51215e-05 0)
(0.000764108 2.46632e-05 0)
(0.000750951 2.41828e-05 0)
(0.000737892 2.36822e-05 0)
(0.000724944 2.31636e-05 0)
(0.000712121 2.26277e-05 0)
(0.000699434 2.2076e-05 0)
(0.000686897 2.15086e-05 0)
(0.000674523 2.09271e-05 0)
(0.000662323 2.03308e-05 0)
(0.00065031 1.97215e-05 0)
(0.000638497 1.90979e-05 0)
(0.000626896 1.84624e-05 0)
(0.00061552 1.78126e-05 0)
(0.00060438 1.71523e-05 0)
(0.000593492 1.64774e-05 0)
(0.000582863 1.57942e-05 0)
(0.000572512 1.50953e-05 0)
(0.000562444 1.43915e-05 0)
(0.000552682 1.367e-05 0)
(0.000543221 1.29489e-05 0)
(0.0005341 1.22063e-05 0)
(0.000525292 1.14722e-05 0)
(0.000516865 1.07093e-05 0)
(0.000508748 9.96804e-06 0)
(0.000501077 9.18397e-06 0)
(0.000493673 8.44268e-06 0)
(0.000486843 7.63355e-06 0)
(0.000480131 6.89913e-06 0)
(0.000474302 6.05607e-06 0)
(0.00046814 5.32703e-06 0)
(0.000463694 4.44148e-06 0)
(0.000457573 3.67067e-06 0)
(0.000455566 2.78109e-06 0)
(0.000447847 1.71964e-06 0)
(0.000451416 1.15284e-06 0)
(0.000437018 -1.26394e-06 0)
(0.000455465 1.15731e-07 0)
(0.000419468 -7.72549e-06 0)
(0.000477867 2.03714e-06 0)
(0.000383088 -2.44738e-05 0)
(0.00100003 5.80182e-06 0)
(0.00100172 1.49914e-05 0)
(0.00100423 2.1521e-05 0)
(0.00100706 2.60828e-05 0)
(0.00100979 2.94397e-05 0)
(0.00101219 3.21197e-05 0)
(0.00101422 3.43705e-05 0)
(0.00101589 3.62787e-05 0)
(0.00101727 3.78768e-05 0)
(0.00101838 3.91953e-05 0)
(0.00101923 4.02758e-05 0)
(0.00101982 4.1164e-05 0)
(0.00102015 4.19004e-05 0)
(0.00102021 4.25152e-05 0)
(0.00102002 4.30283e-05 0)
(0.00101959 4.34525e-05 0)
(0.00101894 4.37963e-05 0)
(0.00101808 4.40665e-05 0)
(0.00101701 4.42687e-05 0)
(0.00101576 4.44076e-05 0)
(0.00101432 4.44868e-05 0)
(0.00101271 4.45091e-05 0)
(0.00101094 4.44765e-05 0)
(0.00100902 4.43899e-05 0)
(0.00100696 4.42506e-05 0)
(0.00100476 4.40584e-05 0)
(0.00100244 4.38146e-05 0)
(0.000999995 4.35176e-05 0)
(0.000997472 4.31695e-05 0)
(0.000994812 4.27671e-05 0)
(0.000992118 4.23139e-05 0)
(0.00098928 4.18044e-05 0)
(0.000986461 4.12454e-05 0)
(0.000983472 4.06263e-05 0)
(0.000980582 3.9961e-05 0)
(0.000977465 3.92296e-05 0)
(0.000974567 3.84584e-05 0)
(0.000971332 3.76113e-05 0)
(0.000968509 3.67368e-05 0)
(0.000965146 3.57688e-05 0)
(0.000962511 3.47968e-05 0)
(0.000958973 3.36998e-05 0)
(0.000956691 3.26414e-05 0)
(0.000952869 3.14014e-05 0)
(0.000951193 3.02764e-05 0)
(0.000946861 2.88674e-05 0)
(0.000946197 2.77102e-05 0)
(0.000940932 2.60845e-05 0)
(0.000941945 2.49538e-05 0)
(0.000934975 2.30244e-05 0)
(0.000938781 2.20198e-05 0)
(0.000928721 1.96322e-05 0)
(0.000937204 1.89194e-05 0)
(0.000921606 1.58102e-05 0)
(0.000937953 1.56493e-05 0)
(0.00091252 1.14089e-05 0)
(0.000942151 1.21328e-05 0)
(0.000899425 6.2926e-06 0)
(0.000951694 7.92215e-06 0)
(0.000879178 8.78249e-07 0)
(0.000999989 1.96229e-06 0)
(0.00100078 5.76314e-06 0)
(0.00100224 9.28747e-06 0)
(0.00100423 1.24514e-05 0)
(0.00100654 1.52522e-05 0)
(0.00100897 1.77351e-05 0)
(0.00101139 1.99546e-05 0)
(0.00101376 2.1954e-05 0)
(0.00101607 2.37604e-05 0)
(0.00101834 2.53904e-05 0)
(0.00102055 2.68573e-05 0)
(0.00102273 2.81745e-05 0)
(0.00102484 2.93563e-05 0)
(0.0010269 3.04167e-05 0)
(0.00102888 3.13681e-05 0)
(0.0010308 3.22201e-05 0)
(0.00103265 3.29811e-05 0)
(0.00103444 3.36565e-05 0)
(0.00103617 3.42522e-05 0)
(0.00103783 3.47713e-05 0)
(0.00103945 3.52183e-05 0)
(0.00104099 3.55946e-05 0)
(0.0010425 3.59044e-05 0)
(0.00104393 3.61466e-05 0)
(0.00104533 3.63257e-05 0)
(0.00104665 3.64384e-05 0)
(0.00104795 3.64903e-05 0)
(0.00104917 3.6475e-05 0)
(0.00105038 3.64009e-05 0)
(0.00105149 3.6257e-05 0)
(0.00105262 3.60566e-05 0)
(0.00105363 3.5782e-05 0)
(0.00105469 3.54542e-05 0)
(0.00105559 3.50455e-05 0)
(0.00105661 3.45892e-05 0)
(0.00105738 3.40419e-05 0)
(0.00105839 3.34566e-05 0)
(0.00105903 3.27653e-05 0)
(0.00106005 3.20516e-05 0)
(0.00106053 3.12099e-05 0)
(0.00106164 3.03703e-05 0)
(0.00106191 2.93702e-05 0)
(0.00106319 2.841e-05 0)
(0.00106317 2.72416e-05 0)
(0.00106475 2.617e-05 0)
(0.00106432 2.48204e-05 0)
(0.00106639 2.36516e-05 0)
(0.00106533 2.21051e-05 0)
(0.00106819 2.08599e-05 0)
(0.00106619 1.90985e-05 0)
(0.00107026 1.7806e-05 0)
(0.0010668 1.58142e-05 0)
(0.00107275 1.45133e-05 0)
(0.00106703 1.22911e-05 0)
(0.00107584 1.10312e-05 0)
(0.00106662 8.63163e-06 0)
(0.0010798 7.47327e-06 0)
(0.00106522 5.09727e-06 0)
(0.00108506 4.06957e-06 0)
(0.00106235 2.22242e-06 0)
(0.00100001 1.74128e-06 0)
(0.00100047 5.1582e-06 0)
(0.00100128 8.41819e-06 0)
(0.00100239 1.14449e-05 0)
(0.00100374 1.41976e-05 0)
(0.00100526 1.66732e-05 0)
(0.00100689 1.88935e-05 0)
(0.00100859 2.08882e-05 0)
(0.00101033 2.26845e-05 0)
(0.00101212 2.4303e-05 0)
(0.00101394 2.57594e-05 0)
(0.00101579 2.70666e-05 0)
(0.00101765 2.82369e-05 0)
(0.00101952 2.92822e-05 0)
(0.0010214 3.02143e-05 0)
(0.00102328 3.10432e-05 0)
(0.00102516 3.17782e-05 0)
(0.00102704 3.24261e-05 0)
(0.00102892 3.29934e-05 0)
(0.00103079 3.34842e-05 0)
(0.00103266 3.39033e-05 0)
(0.00103452 3.4253e-05 0)
(0.00103638 3.45373e-05 0)
(0.00103824 3.47565e-05 0)
(0.00104009 3.49141e-05 0)
(0.00104193 3.5009e-05 0)
(0.00104378 3.50445e-05 0)
(0.00104561 3.50176e-05 0)
(0.00104745 3.49324e-05 0)
(0.00104926 3.47839e-05 0)
(0.00105109 3.45774e-05 0)
(0.00105288 3.43054e-05 0)
(0.00105471 3.39752e-05 0)
(0.00105648 3.35767e-05 0)
(0.0010583 3.31195e-05 0)
(0.00106004 3.25903e-05 0)
(0.00106187 3.2002e-05 0)
(0.00106357 3.13377e-05 0)
(0.0010654 3.06136e-05 0)
(0.00106706 2.98098e-05 0)
(0.00106891 2.89448e-05 0)
(0.00107051 2.79979e-05 0)
(0.00107239 2.69864e-05 0)
(0.00107392 2.58941e-05 0)
(0.00107587 2.47298e-05 0)
(0.0010773 2.3493e-05 0)
(0.00107934 2.21679e-05 0)
(0.00108065 2.07927e-05 0)
(0.00108284 1.92965e-05 0)
(0.00108398 1.7799e-05 0)
(0.0010864 1.61179e-05 0)
(0.00108729 1.45329e-05 0)
(0.00109004 1.26487e-05 0)
(0.0010906 1.10451e-05 0)
(0.00109381 8.93483e-06 0)
(0.00109388 7.43876e-06 0)
(0.00109775 5.06714e-06 0)
(0.00109712 3.88548e-06 0)
(0.00110193 1.16509e-06 0)
(0.00110027 5.86116e-07 0)
(0.001 1.1527e-06 0)
(0.00100023 3.43056e-06 0)
(0.00100067 5.64279e-06 0)
(0.00100134 7.7577e-06 0)
(0.0010022 9.75394e-06 0)
(0.00100324 1.16212e-05 0)
(0.00100441 1.33582e-05 0)
(0.00100569 1.4969e-05 0)
(0.00100705 1.64596e-05 0)
(0.00100848 1.78361e-05 0)
(0.00100997 1.91041e-05 0)
(0.00101149 2.02682e-05 0)
(0.00101306 2.13335e-05 0)
(0.00101466 2.23046e-05 0)
(0.00101628 2.31867e-05 0)
(0.00101792 2.39844e-05 0)
(0.00101957 2.47023e-05 0)
(0.00102124 2.53444e-05 0)
(0.00102292 2.59139e-05 0)
(0.00102461 2.64137e-05 0)
(0.00102631 2.68462e-05 0)
(0.00102801 2.72133e-05 0)
(0.00102972 2.75166e-05 0)
(0.00103144 2.77576e-05 0)
(0.00103316 2.79369e-05 0)
(0.00103489 2.80556e-05 0)
(0.00103662 2.81134e-05 0)
(0.00103835 2.81115e-05 0)
(0.00104009 2.80483e-05 0)
(0.00104183 2.79254e-05 0)
(0.00104357 2.77397e-05 0)
(0.00104532 2.74942e-05 0)
(0.00104706 2.71833e-05 0)
(0.00104881 2.68125e-05 0)
(0.00105056 2.63721e-05 0)
(0.0010523 2.58726e-05 0)
(0.00105405 2.52973e-05 0)
(0.00105579 2.46655e-05 0)
(0.00105754 2.39488e-05 0)
(0.00105928 2.31813e-05 0)
(0.00106102 2.23154e-05 0)
(0.00106275 2.141e-05 0)
(0.00106449 2.03853e-05 0)
(0.00106623 1.93418e-05 0)
(0.00106795 1.81467e-05 0)
(0.00106969 1.69688e-05 0)
(0.00107141 1.55886e-05 0)
(0.00107316 1.42863e-05 0)
(0.00107486 1.27017e-05 0)
(0.00107665 1.12947e-05 0)
(0.00107833 9.47794e-06 0)
(0.00108018 8.00014e-06 0)
(0.00108185 5.90831e-06 0)
(0.00108383 4.41321e-06 0)
(0.00108549 1.97936e-06 0)
(0.00108769 5.57251e-07 0)
(0.00108933 -2.3104e-06 0)
(0.00109185 -3.50545e-06 0)
(0.00109336 -6.94553e-06 0)
(0.00109619 -7.69376e-06 0)
(0.001 9.26576e-07 0)
(0.00100017 2.77084e-06 0)
(0.00100051 4.58778e-06 0)
(0.001001 6.3585e-06 0)
(0.00100165 8.06557e-06 0)
(0.00100242 9.69511e-06 0)
(0.00100331 1.12379e-05 0)
(0.0010043 1.2689e-05 0)
(0.00100537 1.4047e-05 0)
(0.00100651 1.53122e-05 0)
(0.00100771 1.64863e-05 0)
(0.00100896 1.7571e-05 0)
(0.00101025 1.85688e-05 0)
(0.00101159 1.94821e-05 0)
(0.00101295 2.03138e-05 0)
(0.00101435 2.10668e-05 0)
(0.00101577 2.1744e-05 0)
(0.00101722 2.23484e-05 0)
(0.00101868 2.28823e-05 0)
(0.00102016 2.33484e-05 0)
(0.00102165 2.37482e-05 0)
(0.00102316 2.40842e-05 0)
(0.00102468 2.4357e-05 0)
(0.0010262 2.45687e-05 0)
(0.00102774 2.47193e-05 0)
(0.00102928 2.48108e-05 0)
(0.00103083 2.48419e-05 0)
(0.00103239 2.4815e-05 0)
(0.00103395 2.47275e-05 0)
(0.00103551 2.45827e-05 0)
(0.00103708 2.43757e-05 0)
(0.00103865 2.41117e-05 0)
(0.00104022 2.37827e-05 0)
(0.00104179 2.33973e-05 0)
(0.00104336 2.29425e-05 0)
(0.00104493 2.24324e-05 0)
(0.0010465 2.18466e-05 0)
(0.00104807 2.12079e-05 0)
(0.00104962 2.04843e-05 0)
(0.0010512 1.97131e-05 0)
(0.00105274 1.88435e-05 0)
(0.00105432 1.79358e-05 0)
(0.00105584 1.69101e-05 0)
(0.00105743 1.5863e-05 0)
(0.00105894 1.46686e-05 0)
(0.00106053 1.34808e-05 0)
(0.00106202 1.21015e-05 0)
(0.00106365 1.0775e-05 0)
(0.00106512 9.1898e-06 0)
(0.00106681 7.73234e-06 0)
(0.00106824 5.91429e-06 0)
(0.00107001 4.3443e-06 0)
(0.00107138 2.25751e-06 0)
(0.00107328 6.06398e-07 0)
(0.00107456 -1.80774e-06 0)
(0.00107669 -3.50073e-06 0)
(0.00107786 -6.34585e-06 0)
(0.00108033 -8.02316e-06 0)
(0.00108127 -1.14469e-05 0)
(0.00108407 -1.30055e-05 0)
(0.001 7.32076e-07 0)
(0.00100013 2.18951e-06 0)
(0.00100037 3.62726e-06 0)
(0.00100074 5.03266e-06 0)
(0.00100121 6.39431e-06 0)
(0.0010018 7.70289e-06 0)
(0.00100249 8.95151e-06 0)
(0.00100326 1.01357e-05 0)
(0.00100411 1.12529e-05 0)
(0.00100503 1.23019e-05 0)
(0.00100601 1.32827e-05 0)
(0.00100705 1.41957e-05 0)
(0.00100814 1.50414e-05 0)
(0.00100927 1.58209e-05 0)
(0.00101044 1.65352e-05 0)
(0.00101164 1.71855e-05 0)
(0.00101287 1.7773e-05 0)
(0.00101413 1.82992e-05 0)
(0.00101541 1.87651e-05 0)
(0.00101672 1.91722e-05 0)
(0.00101804 1.95212e-05 0)
(0.00101938 1.98134e-05 0)
(0.00102073 2.0049e-05 0)
(0.00102209 2.02292e-05 0)
(0.00102346 2.03536e-05 0)
(0.00102484 2.04236e-05 0)
(0.00102623 2.04377e-05 0)
(0.00102762 2.03977e-05 0)
(0.00102902 2.03011e-05 0)
(0.00103042 2.01502e-05 0)
(0.00103182 1.99409e-05 0)
(0.00103322 1.9677e-05 0)
(0.00103462 1.93518e-05 0)
(0.00103602 1.89716e-05 0)
(0.00103741 1.85259e-05 0)
(0.0010388 1.80253e-05 0)
(0.00104018 1.74531e-05 0)
(0.00104157 1.68267e-05 0)
(0.00104293 1.61205e-05 0)
(0.00104431 1.53626e-05 0)
(0.00104565 1.45132e-05 0)
(0.00104702 1.36172e-05 0)
(0.00104834 1.2613e-05 0)
(0.00104969 1.15722e-05 0)
(0.00105099 1.03989e-05 0)
(0.00105234 9.20668e-06 0)
(0.00105359 7.84593e-06 0)
(0.00105495 6.49604e-06 0)
(0.00105617 4.92338e-06 0)
(0.00105755 3.41043e-06 0)
(0.00105873 1.59224e-06 0)
(0.00106017 -8.56563e-08 0)
(0.00106132 -2.19145e-06 0)
(0.00106288 -4.02205e-06 0)
(0.00106396 -6.46507e-06 0)
(0.00106567 -8.42173e-06 0)
(0.00106665 -1.1284e-05 0)
(0.00106858 -1.33337e-05 0)
(0.00106933 -1.67496e-05 0)
(0.00107144 -1.8834e-05 0)
(0.001 5.83039e-07 0)
(0.0010001 1.74491e-06 0)
(0.00100029 2.89469e-06 0)
(0.00100057 4.0245e-06 0)
(0.00100095 5.12686e-06 0)
(0.00100142 6.19507e-06 0)
(0.00100197 7.22353e-06 0)
(0.00100259 8.20779e-06 0)
(0.00100329 9.14453e-06 0)
(0.00100405 1.00314e-05 0)
(0.00100488 1.08669e-05 0)
(0.00100575 1.16502e-05 0)
(0.00100667 1.23806e-05 0)
(0.00100764 1.30578e-05 0)
(0.00100865 1.36817e-05 0)
(0.00100969 1.42525e-05 0)
(0.00101077 1.47702e-05 0)
(0.00101187 1.52353e-05 0)
(0.00101299 1.5648e-05 0)
(0.00101414 1.6009e-05 0)
(0.00101531 1.63182e-05 0)
(0.0010165 1.65763e-05 0)
(0.0010177 1.67833e-05 0)
(0.00101891 1.69396e-05 0)
(0.00102013 1.70448e-05 0)
(0.00102136 1.70996e-05 0)
(0.00102259 1.71028e-05 0)
(0.00102383 1.70553e-05 0)
(0.00102508 1.69553e-05 0)
(0.00102632 1.68039e-05 0)
(0.00102757 1.65983e-05 0)
(0.00102881 1.63403e-05 0)
(0.00103004 1.60256e-05 0)
(0.00103128 1.56573e-05 0)
(0.0010325 1.52286e-05 0)
(0.00103373 1.4745e-05 0)
(0.00103493 1.41963e-05 0)
(0.00103614 1.35914e-05 0)
(0.00103732 1.29149e-05 0)
(0.0010385 1.21814e-05 0)
(0.00103965 1.13676e-05 0)
(0.00104081 1.0497e-05 0)
(0.00104193 9.53408e-06 0)
(0.00104306 8.51668e-06 0)
(0.00104414 7.39037e-06 0)
(0.00104525 6.21531e-06 0)
(0.00104628 4.90801e-06 0)
(0.00104737 3.56379e-06 0)
(0.00104836 2.05388e-06 0)
(0.00104944 5.28531e-07 0)
(0.00105036 -1.21167e-06 0)
(0.00105145 -2.93173e-06 0)
(0.00105231 -4.9433e-06 0)
(0.00105344 -6.87678e-06 0)
(0.00105423 -9.21653e-06 0)
(0.00105544 -1.13773e-05 0)
(0.00105612 -1.41132e-05 0)
(0.00105744 -1.65046e-05 0)
(0.00105788 -1.9731e-05 0)
(0.00105923 -2.2343e-05 0)
(0.001 4.65464e-07 0)
(0.00100008 1.39357e-06 0)
(0.00100024 2.31356e-06 0)
(0.00100047 3.22006e-06 0)
(0.00100078 4.10785e-06 0)
(0.00100116 4.97203e-06 0)
(0.00100162 5.80826e-06 0)
(0.00100214 6.61282e-06 0)
(0.00100273 7.38261e-06 0)
(0.00100337 8.11516e-06 0)
(0.00100407 8.80841e-06 0)
(0.00100481 9.46078e-06 0)
(0.00100561 1.0071e-05 0)
(0.00100644 1.06383e-05 0)
(0.00100732 1.1162e-05 0)
(0.00100823 1.16417e-05 0)
(0.00100917 1.20771e-05 0)
(0.00101013 1.2468e-05 0)
(0.00101113 1.28145e-05 0)
(0.00101214 1.31164e-05 0)
(0.00101318 1.33737e-05 0)
(0.00101423 1.35865e-05 0)
(0.00101529 1.37545e-05 0)
(0.00101637 1.38779e-05 0)
(0.00101746 1.39561e-05 0)
(0.00101855 1.39892e-05 0)
(0.00101965 1.39764e-05 0)
(0.00102076 1.39178e-05 0)
(0.00102186 1.38122e-05 0)
(0.00102297 1.36597e-05 0)
(0.00102407 1.34584e-05 0)
(0.00102517 1.32087e-05 0)
(0.00102626 1.2908e-05 0)
(0.00102734 1.25568e-05 0)
(0.00102841 1.21515e-05 0)
(0.00102947 1.16933e-05 0)
(0.00103051 1.1177e-05 0)
(0.00103155 1.0605e-05 0)
(0.00103256 9.96977e-06 0)
(0.00103355 9.27566e-06 0)
(0.00103452 8.51161e-06 0)
(0.00103548 7.68529e-06 0)
(0.0010364 6.7804e-06 0)
(0.00103731 5.80973e-06 0)
(0.00103817 4.7491e-06 0)
(0.00103903 3.61938e-06 0)
(0.00103983 2.38431e-06 0)
(0.00104064 1.07757e-06 0)
(0.00104136 -3.55286e-07 0)
(0.00104213 -1.85868e-06 0)
(0.00104278 -3.51494e-06 0)
(0.00104351 -5.23617e-06 0)
(0.00104407 -7.14982e-06 0)
(0.00104477 -9.11797e-06 0)
(0.00104522 -1.13375e-05 0)
(0.00104592 -1.35878e-05 0)
(0.00104622 -1.61728e-05 0)
(0.00104693 -1.87391e-05 0)
(0.00104699 -2.17605e-05 0)
(0.0010476 -2.4668e-05 0)
(0.001 3.68112e-07 0)
(0.00100007 1.10226e-06 0)
(0.0010002 1.83059e-06 0)
(0.0010004 2.54932e-06 0)
(0.00100066 3.25468e-06 0)
(0.00100098 3.9431e-06 0)
(0.00100137 4.61127e-06 0)
(0.00100182 5.25623e-06 0)
(0.00100232 5.87539e-06 0)
(0.00100287 6.46649e-06 0)
(0.00100347 7.02763e-06 0)
(0.00100412 7.5572e-06 0)
(0.00100481 8.0539e-06 0)
(0.00100554 8.51667e-06 0)
(0.00100631 8.94465e-06 0)
(0.00100711 9.3372e-06 0)
(0.00100794 9.69376e-06 0)
(0.0010088 1.00139e-05 0)
(0.00100968 1.02973e-05 0)
(0.00101058 1.05436e-05 0)
(0.0010115 1.07525e-05 0)
(0.00101244 1.09239e-05 0)
(0.00101339 1.10572e-05 0)
(0.00101435 1.11523e-05 0)
(0.00101533 1.12088e-05 0)
(0.0010163 1.12262e-05 0)
(0.00101729 1.1204e-05 0)
(0.00101827 1.11417e-05 0)
(0.00101925 1.10386e-05 0)
(0.00102023 1.08939e-05 0)
(0.00102121 1.07068e-05 0)
(0.00102218 1.04761e-05 0)
(0.00102313 1.02009e-05 0)
(0.00102408 9.87969e-06 0)
(0.00102501 9.51127e-06 0)
(0.00102593 9.09382e-06 0)
(0.00102682 8.62584e-06 0)
(0.0010277 8.10497e-06 0)
(0.00102855 7.52957e-06 0)
(0.00102938 6.89645e-06 0)
(0.00103017 6.204e-06 0)
(0.00103095 5.44781e-06 0)
(0.00103168 4.62659e-06 0)
(0.00103238 3.73407e-06 0)
(0.00103304 2.76988e-06 0)
(0.00103367 1.72488e-06 0)
(0.00103423 6.00681e-07 0)
(0.00103478 -6.16373e-07 0)
(0.00103525 -1.92026e-06 0)
(0.00103572 -3.3331e-06 0)
(0.00103608 -4.84312e-06 0)
(0.00103645 -6.48477e-06 0)
(0.00103668 -8.2335e-06 0)
(0.00103697 -1.01428e-05 0)
(0.00103704 -1.21676e-05 0)
(0.00103724 -1.43921e-05 0)
(0.00103713 -1.6737e-05 0)
(0.00103723 -1.93345e-05 0)
(0.00103684 -2.20475e-05 0)
(0.00103675 -2.50805e-05 0)
(0.001 2.85012e-07 0)
(0.00100006 8.53469e-07 0)
(0.00100017 1.41768e-06 0)
(0.00100034 1.97492e-06 0)
(0.00100057 2.52249e-06 0)
(0.00100085 3.05775e-06 0)
(0.00100119 3.57824e-06 0)
(0.00100158 4.08169e-06 0)
(0.00100202 4.56605e-06 0)
(0.0010025 5.02949e-06 0)
(0.00100303 5.47041e-06 0)
(0.00100361 5.88739e-06 0)
(0.00100422 6.27925e-06 0)
(0.00100486 6.64493e-06 0)
(0.00100555 6.98358e-06 0)
(0.00100626 7.29442e-06 0)
(0.001007 7.57684e-06 0)
(0.00100777 7.83025e-06 0)
(0.00100856 8.0542e-06 0)
(0.00100937 8.24819e-06 0)
(0.0010102 8.41187e-06 0)
(0.00101104 8.54477e-06 0)
(0.0010119 8.64655e-06 0)
(0.00101277 8.71668e-06 0)
(0.00101364 8.75484e-06 0)
(0.00101452 8.76037e-06 0)
(0.0010154 8.73292e-06 0)
(0.00101628 8.67161e-06 0)
(0.00101716 8.57608e-06 0)
(0.00101803 8.44512e-06 0)
(0.0010189 8.27843e-06 0)
(0.00101976 8.07428e-06 0)
(0.0010206 7.83254e-06 0)
(0.00102143 7.55076e-06 0)
(0.00102223 7.22915e-06 0)
(0.00102302 6.86416e-06 0)
(0.00102379 6.4567e-06 0)
(0.00102452 6.00159e-06 0)
(0.00102523 5.50096e-06 0)
(0.00102591 4.94712e-06 0)
(0.00102655 4.3444e-06 0)
(0.00102715 3.6812e-06 0)
(0.00102771 2.96558e-06 0)
(0.00102823 2.17978e-06 0)
(0.00102869 1.33824e-06 0)
(0.00102911 4.13496e-07 0)
(0.00102946 -5.69306e-07 0)
(0.00102977 -1.65258e-06 0)
(0.00102999 -2.79422e-06 0)
(0.00103018 -4.06248e-06 0)
(0.00103026 -5.38687e-06 0)
(0.0010303 -6.87485e-06 0)
(0.00103021 -8.40876e-06 0)
(0.0010301 -1.01592e-05 0)
(0.00102981 -1.19323e-05 0)
(0.00102953 -1.40003e-05 0)
(0.001029 -1.60451e-05 0)
(0.00102853 -1.85017e-05 0)
(0.00102768 -2.08487e-05 0)
(0.00102692 -2.37784e-05 0)
(0.001 2.12123e-07 0)
(0.00100005 6.35181e-07 0)
(0.00100015 1.05516e-06 0)
(0.00100031 1.47013e-06 0)
(0.00100051 1.87818e-06 0)
(0.00100076 2.27742e-06 0)
(0.00100106 2.66608e-06 0)
(0.00100141 3.04249e-06 0)
(0.0010018 3.40512e-06 0)
(0.00100224 3.75256e-06 0)
(0.00100271 4.08356e-06 0)
(0.00100323 4.39699e-06 0)
(0.00100378 4.69186e-06 0)
(0.00100436 4.96727e-06 0)
(0.00100498 5.22244e-06 0)
(0.00100563 5.45666e-06 0)
(0.0010063 5.66936e-06 0)
(0.001007 5.85995e-06 0)
(0.00100772 6.02797e-06 0)
(0.00100846 6.17292e-06 0)
(0.00100921 6.29443e-06 0)
(0.00100998 6.39198e-06 0)
(0.00101076 6.46529e-06 0)
(0.00101155 6.51375e-06 0)
(0.00101234 6.53713e-06 0)
(0.00101314 6.53468e-06 0)
(0.00101394 6.50621e-06 0)
(0.00101474 6.45073e-06 0)
(0.00101553 6.36813e-06 0)
(0.00101632 6.25706e-06 0)
(0.00101709 6.11757e-06 0)
(0.00101785 5.94773e-06 0)
(0.0010186 5.74794e-06 0)
(0.00101933 5.5154e-06 0)
(0.00102004 5.25111e-06 0)
(0.00102072 4.95095e-06 0)
(0.00102137 4.61702e-06 0)
(0.00102199 4.24314e-06 0)
(0.00102258 3.8333e-06 0)
(0.00102313 3.3781e-06 0)
(0.00102363 2.88474e-06 0)
(0.00102409 2.3388e-06 0)
(0.0010245 1.7528e-06 0)
(0.00102486 1.10437e-06 0)
(0.00102515 4.14863e-07 0)
(0.00102539 -3.50699e-07 0)
(0.00102555 -1.15641e-06 0)
(0.00102565 -2.05778e-06 0)
(0.00102566 -2.99626e-06 0)
(0.00102559 -4.0592e-06 0)
(0.00102542 -5.14937e-06 0)
(0.00102517 -6.4056e-06 0)
(0.00102478 -7.66811e-06 0)
(0.00102432 -9.15906e-06 0)
(0.00102369 -1.06167e-05 0)
(0.00102299 -1.23976e-05 0)
(0.00102207 -1.40734e-05 0)
(0.00102109 -1.62176e-05 0)
(0.0010198 -1.81281e-05 0)
(0.00101844 -2.07275e-05 0)
(0.001 1.46444e-07 0)
(0.00100005 4.38448e-07 0)
(0.00100014 7.28306e-07 0)
(0.00100028 1.01473e-06 0)
(0.00100047 1.29645e-06 0)
(0.0010007 1.5722e-06 0)
(0.00100097 1.84076e-06 0)
(0.00100129 2.10102e-06 0)
(0.00100165 2.35189e-06 0)
(0.00100205 2.59242e-06 0)
(0.00100249 2.82169e-06 0)
(0.00100296 3.03889e-06 0)
(0.00100347 3.24329e-06 0)
(0.00100401 3.4342e-06 0)
(0.00100458 3.61104e-06 0)
(0.00100518 3.77325e-06 0)
(0.0010058 3.92037e-06 0)
(0.00100645 4.05192e-06 0)
(0.00100711 4.16752e-06 0)
(0.0010078 4.26676e-06 0)
(0.0010085 4.34933e-06 0)
(0.00100921 4.41479e-06 0)
(0.00100993 4.4629e-06 0)
(0.00101066 4.49316e-06 0)
(0.0010114 4.50538e-06 0)
(0.00101213 4.49893e-06 0)
(0.00101287 4.4737e-06 0)
(0.0010136 4.42882e-06 0)
(0.00101433 4.36431e-06 0)
(0.00101505 4.27896e-06 0)
(0.00101575 4.17297e-06 0)
(0.00101644 4.04464e-06 0)
(0.00101712 3.89451e-06 0)
(0.00101777 3.7201e-06 0)
(0.00101839 3.52257e-06 0)
(0.00101899 3.29823e-06 0)
(0.00101956 3.04933e-06 0)
(0.00102009 2.77028e-06 0)
(0.00102058 2.46517e-06 0)
(0.00102103 2.12546e-06 0)
(0.00102143 1.75831e-06 0)
(0.00102177 1.35051e-06 0)
(0.00102206 9.14306e-07 0)
(0.00102229 4.29125e-07 0)
(0.00102245 -8.4469e-08 0)
(0.00102254 -6.58778e-07 0)
(0.00102255 -1.25972e-06 0)
(0.00102248 -1.93902e-06 0)
(0.00102231 -2.63999e-06 0)
(0.00102204 -3.44452e-06 0)
(0.00102166 -4.25916e-06 0)
(0.00102118 -5.21483e-06 0)
(0.00102055 -6.15833e-06 0)
(0.0010198 -7.29988e-06 0)
(0.00101889 -8.38845e-06 0)
(0.00101784 -9.76284e-06 0)
(0.00101659 -1.10115e-05 0)
(0.00101519 -1.26822e-05 0)
(0.00101352 -1.40987e-05 0)
(0.00101168 -1.61476e-05 0)
(0.001 8.55831e-08 0)
(0.00100005 2.56126e-07 0)
(0.00100013 4.25324e-07 0)
(0.00100026 5.92446e-07 0)
(0.00100044 7.56759e-07 0)
(0.00100066 9.17539e-07 0)
(0.00100091 1.07409e-06 0)
(0.00100121 1.22577e-06 0)
(0.00100155 1.37193e-06 0)
(0.00100193 1.51202e-06 0)
(0.00100234 1.64551e-06 0)
(0.00100279 1.77189e-06 0)
(0.00100327 1.89073e-06 0)
(0.00100378 2.0016e-06 0)
(0.00100432 2.10416e-06 0)
(0.00100489 2.19805e-06 0)
(0.00100548 2.28297e-06 0)
(0.00100609 2.35863e-06 0)
(0.00100672 2.42478e-06 0)
(0.00100737 2.48115e-06 0)
(0.00100803 2.52755e-06 0)
(0.00100871 2.56368e-06 0)
(0.00100939 2.58939e-06 0)
(0.00101008 2.60435e-06 0)
(0.00101077 2.60845e-06 0)
(0.00101147 2.60125e-06 0)
(0.00101216 2.5827e-06 0)
(0.00101285 2.55224e-06 0)
(0.00101354 2.50988e-06 0)
(0.00101421 2.45481e-06 0)
(0.00101487 2.38723e-06 0)
(0.00101551 2.30596e-06 0)
(0.00101613 2.21146e-06 0)
(0.00101673 2.10199e-06 0)
(0.0010173 1.97848e-06 0)
(0.00101784 1.83836e-06 0)
(0.00101835 1.68333e-06 0)
(0.00101882 1.50949e-06 0)
(0.00101924 1.31985e-06 0)
(0.00101962 1.10848e-06 0)
(0.00101994 8.80556e-07 0)
(0.00102021 6.26878e-07 0)
(0.00102042 3.56278e-07 0)
(0.00102056 5.43495e-08 0)
(0.00102063 -2.64115e-07 0)
(0.00102061 -6.21906e-07 0)
(0.00102052 -9.94791e-07 0)
(0.00102032 -1.41886e-06 0)
(0.00102002 -1.85389e-06 0)
(0.00101962 -2.35731e-06 0)
(0.00101909 -2.86298e-06 0)
(0.00101844 -3.46287e-06 0)
(0.00101764 -4.04852e-06 0)
(0.00101669 -4.76798e-06 0)
(0.00101557 -5.44332e-06 0)
(0.00101428 -6.31383e-06 0)
(0.00101278 -7.0873e-06 0)
(0.00101108 -8.15195e-06 0)
(0.00100913 -9.02629e-06 0)
(0.00100694 -1.03417e-05 0)
(0.001 2.74989e-08 0)
(0.00100004 8.21147e-08 0)
(0.00100013 1.36122e-07 0)
(0.00100026 1.89292e-07 0)
(0.00100042 2.41393e-07 0)
(0.00100064 2.922e-07 0)
(0.00100089 3.41495e-07 0)
(0.00100118 3.89071e-07 0)
(0.00100151 4.34735e-07 0)
(0.00100187 4.78305e-07 0)
(0.00100227 5.19615e-07 0)
(0.00100271 5.58509e-07 0)
(0.00100317 5.94848e-07 0)
(0.00100367 6.28501e-07 0)
(0.00100419 6.59352e-07 0)
(0.00100474 6.8729e-07 0)
(0.00100532 7.12223e-07 0)
(0.00100591 7.34052e-07 0)
(0.00100653 7.52704e-07 0)
(0.00100716 7.68084e-07 0)
(0.0010078 7.80135e-07 0)
(0.00100846 7.88756e-07 0)
(0.00100912 7.93902e-07 0)
(0.00100979 7.95456e-07 0)
(0.00101046 7.93385e-07 0)
(0.00101114 7.8754e-07 0)
(0.00101181 7.77906e-07 0)
(0.00101248 7.64282e-07 0)
(0.00101314 7.46682e-07 0)
(0.00101379 7.2482e-07 0)
(0.00101442 6.98768e-07 0)
(0.00101504 6.68109e-07 0)
(0.00101564 6.3301e-07 0)
(0.00101621 5.92861e-07 0)
(0.00101675 5.47992e-07 0)
(0.00101726 4.97489e-07 0)
(0.00101774 4.41965e-07 0)
(0.00101817 3.80038e-07 0)
(0.00101856 3.1279e-07 0)
(0.0010189 2.38104e-07 0)
(0.00101919 1.57848e-07 0)
(0.00101942 6.87383e-08 0)
(0.00101959 -2.60584e-08 0)
(0.00101968 -1.31702e-07 0)
(0.0010197 -2.42912e-07 0)
(0.00101963 -3.67885e-07 0)
(0.00101948 -4.97863e-07 0)
(0.00101922 -6.45686e-07 0)
(0.00101886 -7.96928e-07 0)
(0.00101838 -9.72144e-07 0)
(0.00101777 -1.14763e-06 0)
(0.00101703 -1.35633e-06 0)
(0.00101614 -1.55931e-06 0)
(0.00101508 -1.80964e-06 0)
(0.00101386 -2.04341e-06 0)
(0.00101244 -2.34652e-06 0)
(0.00101081 -2.61386e-06 0)
(0.00100896 -2.9851e-06 -3.77904e-38)
(0.00100685 -3.28665e-06 0)
(0.00100449 -3.74628e-06 0)
(0.001 -2.9675e-08 0)
(0.00100004 -8.91696e-08 0)
(0.00100013 -1.48556e-07 0)
(0.00100026 -2.07576e-07 0)
(0.00100042 -2.65969e-07 0)
(0.00100064 -3.2348e-07 0)
(0.00100089 -3.79861e-07 0)
(0.00100118 -4.34874e-07 0)
(0.00100151 -4.88297e-07 0)
(0.00100187 -5.39919e-07 0)
(0.00100227 -5.89544e-07 0)
(0.00100271 -6.36987e-07 0)
(0.00100317 -6.82083e-07 0)
(0.00100367 -7.24673e-07 0)
(0.00100419 -7.64617e-07 0)
(0.00100474 -8.01781e-07 0)
(0.00100532 -8.3605e-07 0)
(0.00100591 -8.67303e-07 0)
(0.00100652 -8.95447e-07 0)
(0.00100715 -9.20372e-07 0)
(0.0010078 -9.42001e-07 0)
(0.00100845 -9.60222e-07 0)
(0.00100912 -9.74977e-07 0)
(0.00100979 -9.86138e-07 0)
(0.00101046 -9.93664e-07 0)
(0.00101113 -9.974e-07 0)
(0.00101181 -9.97326e-07 0)
(0.00101247 -9.93237e-07 0)
(0.00101313 -9.85147e-07 0)
(0.00101378 -9.72774e-07 0)
(0.00101442 -9.56191e-07 0)
(0.00101503 -9.34989e-07 0)
(0.00101563 -9.09343e-07 0)
(0.0010162 -8.7865e-07 0)
(0.00101674 -8.43256e-07 0)
(0.00101725 -8.02258e-07 0)
(0.00101773 -7.56289e-07 0)
(0.00101816 -7.03979e-07 0)
(0.00101855 -6.46437e-07 0)
(0.00101889 -5.81558e-07 0)
(0.00101918 -5.11247e-07 0)
(0.00101941 -4.32233e-07 0)
(0.00101957 -3.47744e-07 0)
(0.00101966 -2.52648e-07 0)
(0.00101968 -1.52337e-07 0)
(0.00101961 -3.86424e-08 0)
(0.00101946 7.96616e-08 0)
(0.0010192 2.15514e-07 0)
(0.00101884 3.54355e-07 0)
(0.00101836 5.16799e-07 0)
(0.00101775 6.78925e-07 0)
(0.00101701 8.73808e-07 0)
(0.00101611 1.06222e-06 0)
(0.00101506 1.29748e-06 0)
(0.00101383 1.51525e-06 0)
(0.00101241 1.80181e-06 0)
(0.00101078 2.05149e-06 0)
(0.00100892 2.40444e-06 3.77904e-38)
(0.00100682 2.68645e-06 0)
(0.00100446 3.12583e-06 0)
(0.001 -8.7744e-08 0)
(0.00100005 -2.6313e-07 0)
(0.00100013 -4.37667e-07 0)
(0.00100026 -6.10594e-07 0)
(0.00100044 -7.81147e-07 0)
(0.00100065 -9.48573e-07 0)
(0.00100091 -1.11215e-06 0)
(0.00100121 -1.27119e-06 0)
(0.00100155 -1.42504e-06 0)
(0.00100193 -1.57311e-06 0)
(0.00100234 -1.71482e-06 0)
(0.00100279 -1.84967e-06 0)
(0.00100327 -1.97717e-06 0)
(0.00100378 -2.09689e-06 0)
(0.00100432 -2.20845e-06 0)
(0.00100488 -2.31146e-06 0)
(0.00100547 -2.40562e-06 0)
(0.00100608 -2.4906e-06 0)
(0.00100671 -2.56615e-06 0)
(0.00100736 -2.63195e-06 0)
(0.00100802 -2.68782e-06 0)
(0.0010087 -2.73345e-06 0)
(0.00100938 -2.76866e-06 0)
(0.00101007 -2.79312e-06 0)
(0.00101076 -2.80671e-06 0)
(0.00101146 -2.80899e-06 0)
(0.00101215 -2.79989e-06 0)
(0.00101284 -2.77886e-06 0)
(0.00101352 -2.7459e-06 0)
(0.00101419 -2.70022e-06 0)
(0.00101485 -2.64201e-06 0)
(0.00101549 -2.5701e-06 0)
(0.00101611 -2.48494e-06 0)
(0.0010167 -2.38484e-06 0)
(0.00101727 -2.2707e-06 0)
(0.00101781 -2.14e-06 0)
(0.00101832 -1.99442e-06 0)
(0.00101878 -1.83012e-06 0)
(0.00101921 -1.6501e-06 0)
(0.00101958 -1.44847e-06 0)
(0.0010199 -1.23042e-06 0)
(0.00102017 -9.86784e-07 0)
(0.00102038 -7.26394e-07 0)
(0.00102051 -4.34879e-07 0)
(0.00102058 -1.26992e-07 0)
(0.00102056 2.1996e-07 0)
(0.00102046 5.81575e-07 0)
(0.00102026 9.94009e-07 0)
(0.00101997 1.4169e-06 0)
(0.00101956 1.90782e-06 0)
(0.00101902 2.40036e-06 0)
(0.00101837 2.98676e-06 0)
(0.00101756 3.5581e-06 0)
(0.00101661 4.26286e-06 0)
(0.00101549 4.92246e-06 0)
(0.00101419 5.77686e-06 0)
(0.00101269 6.53289e-06 0)
(0.00101099 7.57984e-06 0)
(0.00100903 8.43476e-06 0)
(0.00100684 9.73069e-06 0)
(0.001 -1.48565e-07 0)
(0.00100005 -4.4532e-07 0)
(0.00100014 -7.40413e-07 0)
(0.00100028 -1.03253e-06 0)
(0.00100047 -1.32036e-06 0)
(0.0010007 -1.60262e-06 0)
(0.00100097 -1.87807e-06 0)
(0.00100129 -2.14554e-06 0)
(0.00100165 -2.40394e-06 0)
(0.00100205 -2.65227e-06 0)
(0.00100248 -2.88961e-06 0)
(0.00100296 -3.1151e-06 0)
(0.00100347 -3.32798e-06 0)
(0.00100401 -3.52755e-06 0)
(0.00100457 -3.7132e-06 0)
(0.00100517 -3.88435e-06 0)
(0.00100579 -4.04051e-06 0)
(0.00100644 -4.18117e-06 0)
(0.0010071 -4.30597e-06 0)
(0.00100778 -4.41444e-06 0)
(0.00100848 -4.50628e-06 0)
(0.00100919 -4.58103e-06 0)
(0.00100991 -4.63844e-06 0)
(0.00101064 -4.67799e-06 0)
(0.00101138 -4.69949e-06 0)
(0.00101211 -4.70231e-06 0)
(0.00101284 -4.68631e-06 0)
(0.00101358 -4.65065e-06 0)
(0.0010143 -4.59533e-06 0)
(0.00101502 -4.51914e-06 0)
(0.00101572 -4.4223e-06 0)
(0.00101641 -4.3031e-06 0)
(0.00101708 -4.1621e-06 0)
(0.00101773 -3.99681e-06 0)
(0.00101835 -3.80844e-06 0)
(0.00101894 -3.59326e-06 0)
(0.00101951 -3.35359e-06 0)
(0.00102004 -3.0838e-06 0)
(0.00102052 -2.78806e-06 0)
(0.00102097 -2.45778e-06 0)
(0.00102136 -2.10021e-06 0)
(0.00102171 -1.70207e-06 0)
(0.00102199 -1.27574e-06 0)
(0.00102222 -8.00514e-07 0)
(0.00102237 -2.97196e-07 0)
(0.00102246 2.66784e-07 0)
(0.00102246 8.56846e-07 0)
(0.00102239 1.5248e-06 0)
(0.00102221 2.21379e-06 0)
(0.00102194 3.00608e-06 0)
(0.00102156 3.80784e-06 0)
(0.00102106 4.75047e-06 0)
(0.00102043 5.68001e-06 0)