/*--------------------------------*- C++ -*----------------------------------*\
| =========                 |                                                 |
| \\      /  F ield         | OpenFOAM: The Open Source CFD Toolbox           |
|  \\    /   O peration     | Version:  2312                                  |
|   \\  /    A nd           | Website:  www.openfoam.com                      |
|    \\/     M anipulation  |                                                 |
\*---------------------------------------------------------------------------*/
FoamFile
{
    version     2.0;
    format      ascii;
    arch        "LSB;label=32;scalar=64";
    class       volVectorField;
    location    "197000";
    object      U;
}
// * * * * * * * * * * * * * * * * * * * * * * * * * * * * * * * * * * * * * //

dimensions      [0 1 -1 0 0 0 0];

internalField   nonuniform List<vector> 
10800
(
(0.000992484 4.93656e-06 0)
(0.000990048 1.24406e-05 0)
(0.000986903 1.7449e-05 0)
(0.000980563 2.06185e-05 0)
(0.000971195 2.26859e-05 0)
(0.000959964 2.41626e-05 0)
(0.000947936 2.52835e-05 0)
(0.000935648 2.61237e-05 0)
(0.000923242 2.67076e-05 0)
(0.000910697 2.70604e-05 0)
(0.000897969 2.722e-05 0)
(0.000885055 2.72297e-05 0)
(0.00087199 2.71276e-05 0)
(0.00085883 2.69422e-05 0)
(0.000845626 2.66919e-05 0)
(0.000832417 2.63887e-05 0)
(0.000819226 2.6041e-05 0)
(0.000806071 2.56556e-05 0)
(0.000792968 2.52384e-05 0)
(0.000779929 2.47944e-05 0)
(0.00076697 2.43276e-05 0)
(0.000754102 2.38415e-05 0)
(0.000741339 2.33381e-05 0)
(0.000728693 2.28195e-05 0)
(0.000716175 2.22867e-05 0)
(0.000703797 2.17409e-05 0)
(0.000691569 2.11823e-05 0)
(0.000679501 2.06121e-05 0)
(0.000667604 2.00295e-05 0)
(0.00065589 1.94358e-05 0)
(0.000644369 1.88292e-05 0)
(0.000633051 1.82118e-05 0)
(0.00062195 1.75805e-05 0)
(0.000611074 1.69386e-05 0)
(0.00060044 1.62813e-05 0)
(0.000590054 1.56143e-05 0)
(0.000579935 1.49296e-05 0)
(0.000570088 1.42376e-05 0)
(0.000560537 1.35248e-05 0)
(0.000551279 1.2809e-05 0)
(0.000542349 1.20677e-05 0)
(0.000533728 1.13314e-05 0)
(0.000525479 1.05618e-05 0)
(0.00051754 9.81085e-06 0)
(0.000510039 9.01248e-06 0)
(0.00050281 8.25539e-06 0)
(0.000496151 7.42585e-06 0)
(0.000489614 6.67229e-06 0)
(0.000483965 5.80551e-06 0)
(0.000477975 5.05742e-06 0)
(0.000473738 4.14977e-06 0)
(0.000467759 3.3611e-06 0)
(0.000466042 2.46322e-06 0)
(0.000458348 1.37479e-06 0)
(0.000462416 8.48157e-07 0)
(0.000447715 -1.6412e-06 0)
(0.000467115 -1.01213e-07 0)
(0.000430216 -8.08527e-06 0)
(0.000490248 1.91514e-06 0)
(0.000393852 -2.44765e-05 0)
(0.00100003 5.78317e-06 0)
(0.00100173 1.49317e-05 0)
(0.00100425 2.14165e-05 0)
(0.00100711 2.59301e-05 0)
(0.00100988 2.92353e-05 0)
(0.00101233 3.18605e-05 0)
(0.00101441 3.40536e-05 0)
(0.00101616 3.59015e-05 0)
(0.00101762 3.74372e-05 0)
(0.00101884 3.86917e-05 0)
(0.00101981 3.97069e-05 0)
(0.00102052 4.05291e-05 0)
(0.00102099 4.11995e-05 0)
(0.00102121 4.17488e-05 0)
(0.00102119 4.21975e-05 0)
(0.00102095 4.2559e-05 0)
(0.0010205 4.28427e-05 0)
(0.00101985 4.30559e-05 0)
(0.00101901 4.32049e-05 0)
(0.00101799 4.32949e-05 0)
(0.00101681 4.33302e-05 0)
(0.00101547 4.3314e-05 0)
(0.00101397 4.32488e-05 0)
(0.00101233 4.3136e-05 0)
(0.00101057 4.29772e-05 0)
(0.00100867 4.27722e-05 0)
(0.00100667 4.25225e-05 0)
(0.00100454 4.22265e-05 0)
(0.00100234 4.1886e-05 0)
(0.00100001 4.14977e-05 0)
(0.000997647 4.10647e-05 0)
(0.000995147 4.05806e-05 0)
(0.000992664 4.00523e-05 0)
(0.000990015 3.94676e-05 0)
(0.000987462 3.88405e-05 0)
(0.000984684 3.8149e-05 0)
(0.00098212 3.74202e-05 0)
(0.000979219 3.66144e-05 0)
(0.000976725 3.57829e-05 0)
(0.000973686 3.48535e-05 0)
(0.000971374 3.39216e-05 0)
(0.000968145 3.28565e-05 0)
(0.000966183 3.18329e-05 0)
(0.000962645 3.06144e-05 0)
(0.000961292 2.95174e-05 0)
(0.000957211 2.81168e-05 0)
(0.000956885 2.69812e-05 0)
(0.000951817 2.53492e-05 0)
(0.000953209 2.42354e-05 0)
(0.000946354 2.22857e-05 0)
(0.000950612 2.1296e-05 0)
(0.000940548 1.88789e-05 0)
(0.000949602 1.81802e-05 0)
(0.000933836 1.50461e-05 0)
(0.000950925 1.48932e-05 0)
(0.000925125 1.06628e-05 0)
(0.0009557 1.13656e-05 0)
(0.000912422 5.63076e-06 0)
(0.00096578 7.15829e-06 0)
(0.000892692 3.86827e-07 0)
(0.000999989 1.93505e-06 0)
(0.00100079 5.67548e-06 0)
(0.00100226 9.13376e-06 0)
(0.00100428 1.22264e-05 0)
(0.00100663 1.49509e-05 0)
(0.0010091 1.73527e-05 0)
(0.00101158 1.94871e-05 0)
(0.00101401 2.13976e-05 0)
(0.0010164 2.31119e-05 0)
(0.00101875 2.46474e-05 0)
(0.00102107 2.60179e-05 0)
(0.00102335 2.72376e-05 0)
(0.00102559 2.83215e-05 0)
(0.00102777 2.92842e-05 0)
(0.00102991 3.0139e-05 0)
(0.00103198 3.08962e-05 0)
(0.001034 3.15651e-05 0)
(0.00103597 3.2152e-05 0)
(0.00103789 3.26632e-05 0)
(0.00103976 3.31027e-05 0)
(0.00104159 3.34758e-05 0)
(0.00104336 3.37843e-05 0)
(0.0010451 3.40331e-05 0)
(0.00104678 3.42214e-05 0)
(0.00104843 3.43544e-05 0)
(0.00105003 3.44285e-05 0)
(0.0010516 3.44501e-05 0)
(0.00105311 3.44121e-05 0)
(0.00105461 3.43236e-05 0)
(0.00105603 3.41724e-05 0)
(0.00105747 3.39728e-05 0)
(0.0010588 3.37045e-05 0)
(0.00106019 3.3391e-05 0)
(0.00106142 3.29999e-05 0)
(0.00106279 3.25688e-05 0)
(0.00106391 3.20472e-05 0)
(0.00106527 3.14947e-05 0)
(0.00106626 3.08333e-05 0)
(0.00106766 3.01568e-05 0)
(0.00106849 2.93452e-05 0)
(0.00106998 2.85441e-05 0)
(0.0010706 2.75707e-05 0)
(0.00107227 2.66475e-05 0)
(0.0010726 2.54995e-05 0)
(0.00107458 2.44615e-05 0)
(0.00107447 2.31252e-05 0)
(0.00107697 2.19853e-05 0)
(0.0010762 2.04465e-05 0)
(0.00107952 1.92244e-05 0)
(0.00107776 1.747e-05 0)
(0.00108234 1.61922e-05 0)
(0.00107906 1.42155e-05 0)
(0.00108558 1.29135e-05 0)
(0.00107996 1.07284e-05 0)
(0.00108941 9.43668e-06 0)
(0.00108023 7.11574e-06 0)
(0.00109412 5.86817e-06 0)
(0.00107953 3.64119e-06 0)
(0.00110011 2.43869e-06 0)
(0.00107739 8.61245e-07 0)
(0.00100001 1.70564e-06 0)
(0.00100047 5.04292e-06 0)
(0.0010013 8.21531e-06 0)
(0.00100243 1.1147e-05 0)
(0.00100382 1.37979e-05 0)
(0.00100537 1.61657e-05 0)
(0.00100705 1.82729e-05 0)
(0.00100881 2.015e-05 0)
(0.00101063 2.18248e-05 0)
(0.0010125 2.3319e-05 0)
(0.00101441 2.4649e-05 0)
(0.00101636 2.58285e-05 0)
(0.00101834 2.68706e-05 0)
(0.00102034 2.77882e-05 0)
(0.00102235 2.85938e-05 0)
(0.00102438 2.92984e-05 0)
(0.00102642 2.9912e-05 0)
(0.00102847 3.04422e-05 0)
(0.00103053 3.08964e-05 0)
(0.00103259 3.12792e-05 0)
(0.00103466 3.15964e-05 0)
(0.00103674 3.18505e-05 0)
(0.00103883 3.20463e-05 0)
(0.00104091 3.21843e-05 0)
(0.00104301 3.22688e-05 0)
(0.0010451 3.22983e-05 0)
(0.00104721 3.22771e-05 0)
(0.00104931 3.22012e-05 0)
(0.00105143 3.2076e-05 0)
(0.00105353 3.18947e-05 0)
(0.00105567 3.16643e-05 0)
(0.00105777 3.13746e-05 0)
(0.00105991 3.10356e-05 0)
(0.001062 3.06324e-05 0)
(0.00106416 3.01793e-05 0)
(0.00106624 2.96561e-05 0)
(0.00106841 2.90822e-05 0)
(0.00107047 2.84315e-05 0)
(0.00107266 2.77293e-05 0)
(0.00107468 2.69435e-05 0)
(0.00107691 2.61046e-05 0)
(0.00107888 2.51771e-05 0)
(0.00108117 2.41927e-05 0)
(0.00108306 2.31188e-05 0)
(0.00108543 2.19789e-05 0)
(0.00108723 2.07581e-05 0)
(0.0010897 1.94508e-05 0)
(0.00109137 1.80901e-05 0)
(0.00109402 1.66011e-05 0)
(0.00109551 1.51216e-05 0)
(0.00109841 1.34332e-05 0)
(0.00109963 1.18816e-05 0)
(0.00110288 9.97261e-06 0)
(0.00110374 8.43594e-06 0)
(0.00110747 6.27509e-06 0)
(0.00110781 4.89835e-06 0)
(0.00111222 2.42037e-06 0)
(0.00111187 1.43057e-06 0)
(0.00111725 -1.48879e-06 0)
(0.00111587 -1.77465e-06 0)
(0.001 1.10732e-06 0)
(0.00100023 3.28412e-06 0)
(0.00100069 5.38583e-06 0)
(0.00100137 7.38153e-06 0)
(0.00100227 9.25067e-06 0)
(0.00100334 1.09837e-05 0)
(0.00100456 1.25802e-05 0)
(0.0010059 1.4045e-05 0)
(0.00100733 1.53853e-05 0)
(0.00100884 1.6608e-05 0)
(0.00101041 1.77196e-05 0)
(0.00101204 1.8726e-05 0)
(0.00101372 1.9633e-05 0)
(0.00101544 2.04464e-05 0)
(0.00101719 2.11722e-05 0)
(0.00101898 2.1816e-05 0)
(0.00102079 2.23835e-05 0)
(0.00102263 2.28791e-05 0)
(0.00102448 2.33073e-05 0)
(0.00102636 2.36714e-05 0)
(0.00102825 2.39748e-05 0)
(0.00103017 2.42196e-05 0)
(0.0010321 2.44085e-05 0)
(0.00103404 2.45427e-05 0)
(0.001036 2.46239e-05 0)
(0.00103797 2.46527e-05 0)
(0.00103996 2.46298e-05 0)
(0.00104196 2.45554e-05 0)
(0.00104397 2.44291e-05 0)
(0.00104599 2.4251e-05 0)
(0.00104802 2.40194e-05 0)
(0.00105006 2.37348e-05 0)
(0.00105211 2.33938e-05 0)
(0.00105417 2.29983e-05 0)
(0.00105624 2.25416e-05 0)
(0.00105831 2.20294e-05 0)
(0.0010604 2.14492e-05 0)
(0.00106248 2.0814e-05 0)
(0.00106458 2.01006e-05 0)
(0.00106667 1.93362e-05 0)
(0.00106878 1.84787e-05 0)
(0.00107087 1.75801e-05 0)
(0.00107299 1.65657e-05 0)
(0.00107509 1.55312e-05 0)
(0.00107721 1.43451e-05 0)
(0.00107932 1.3178e-05 0)
(0.00108145 1.18017e-05 0)
(0.00108357 1.05127e-05 0)
(0.00108571 8.92005e-06 0)
(0.00108787 7.52942e-06 0)
(0.00109001 5.68058e-06 0)
(0.00109225 4.22297e-06 0)
(0.00109442 2.0667e-06 0)
(0.00109681 6.15336e-07 0)
(0.00109899 -1.92047e-06 0)
(0.00110158 -3.24352e-06 0)
(0.00110375 -6.25625e-06 0)
(0.00110664 -7.26077e-06 0)
(0.00110866 -1.09271e-05 0)
(0.00111187 -1.13676e-05 0)
(0.001 8.75116e-07 0)
(0.00100018 2.60422e-06 0)
(0.00100053 4.29464e-06 0)
(0.00100105 5.92833e-06 0)
(0.00100172 7.48869e-06 0)
(0.00100253 8.96277e-06 0)
(0.00100347 1.03423e-05 0)
(0.00100451 1.16235e-05 0)
(0.00100564 1.28059e-05 0)
(0.00100685 1.38912e-05 0)
(0.00100813 1.4882e-05 0)
(0.00100948 1.57813e-05 0)
(0.00101088 1.65927e-05 0)
(0.00101233 1.73198e-05 0)
(0.00101382 1.79666e-05 0)
(0.00101536 1.8537e-05 0)
(0.00101693 1.9035e-05 0)
(0.00101853 1.94644e-05 0)
(0.00102017 1.98287e-05 0)
(0.00102183 2.01312e-05 0)
(0.00102351 2.03743e-05 0)
(0.00102522 2.05608e-05 0)
(0.00102694 2.06924e-05 0)
(0.00102869 2.07712e-05 0)
(0.00103046 2.0798e-05 0)
(0.00103224 2.07744e-05 0)
(0.00103403 2.07001e-05 0)
(0.00103585 2.05768e-05 0)
(0.00103767 2.04026e-05 0)
(0.00103951 2.01797e-05 0)
(0.00104135 1.99041e-05 0)
(0.00104321 1.95793e-05 0)
(0.00104507 1.91986e-05 0)
(0.00104695 1.87679e-05 0)
(0.00104883 1.82762e-05 0)
(0.00105072 1.7734e-05 0)
(0.0010526 1.71235e-05 0)
(0.00105451 1.64633e-05 0)
(0.0010564 1.57242e-05 0)
(0.00105831 1.49389e-05 0)
(0.00106021 1.40594e-05 0)
(0.00106214 1.31422e-05 0)
(0.00106404 1.21081e-05 0)
(0.00106598 1.10532e-05 0)
(0.00106788 9.84756e-06 0)
(0.00106984 8.65279e-06 0)
(0.00107174 7.25657e-06 0)
(0.00107375 5.92778e-06 0)
(0.00107563 4.31979e-06 0)
(0.00107768 2.86909e-06 0)
(0.00107954 1.01662e-06 0)
(0.00108168 -5.32323e-07 0)
(0.00108352 -2.68477e-06 0)
(0.00108581 -4.30299e-06 0)
(0.00108761 -6.83801e-06 0)
(0.00109016 -8.46766e-06 0)
(0.00109188 -1.14952e-05 0)
(0.00109479 -1.30399e-05 0)
(0.00109628 -1.67257e-05 0)
(0.00109953 -1.80344e-05 0)
(0.001 6.72937e-07 0)
(0.00100013 1.99742e-06 0)
(0.00100039 3.28851e-06 0)
(0.00100077 4.5346e-06 0)
(0.00100127 5.72545e-06 0)
(0.00100189 6.85297e-06 0)
(0.00100262 7.91156e-06 0)
(0.00100344 8.89805e-06 0)
(0.00100435 9.81122e-06 0)
(0.00100534 1.06513e-05 0)
(0.00100641 1.14196e-05 0)
(0.00100753 1.21177e-05 0)
(0.00100872 1.27476e-05 0)
(0.00100996 1.33114e-05 0)
(0.00101125 1.38115e-05 0)
(0.00101258 1.42503e-05 0)
(0.00101395 1.463e-05 0)
(0.00101536 1.49532e-05 0)
(0.00101681 1.5222e-05 0)
(0.00101828 1.54386e-05 0)
(0.00101979 1.56046e-05 0)
(0.00102131 1.57219e-05 0)
(0.00102287 1.57914e-05 0)
(0.00102444 1.58147e-05 0)
(0.00102603 1.5792e-05 0)
(0.00102764 1.57245e-05 0)
(0.00102926 1.56113e-05 0)
(0.00103089 1.54539e-05 0)
(0.00103254 1.52501e-05 0)
(0.0010342 1.50016e-05 0)
(0.00103587 1.47045e-05 0)
(0.00103754 1.43615e-05 0)
(0.00103922 1.39665e-05 0)
(0.00104091 1.3524e-05 0)
(0.0010426 1.30242e-05 0)
(0.00104429 1.24753e-05 0)
(0.00104598 1.1862e-05 0)
(0.00104768 1.11985e-05 0)
(0.00104937 1.04609e-05 0)
(0.00105106 9.67379e-06 0)
(0.00105275 8.79871e-06 0)
(0.00105444 7.87839e-06 0)
(0.00105611 6.85023e-06 0)
(0.00105781 5.78665e-06 0)
(0.00105947 4.58446e-06 0)
(0.00106117 3.36591e-06 0)
(0.00106282 1.96581e-06 0)
(0.00106454 5.84628e-07 0)
(0.00106619 -1.04393e-06 0)
(0.00106795 -2.58641e-06 0)
(0.0010696 -4.47463e-06 0)
(0.00107142 -6.16513e-06 0)
(0.00107304 -8.36205e-06 0)
(0.00107498 -1.01834e-05 0)
(0.00107657 -1.27588e-05 0)
(0.00107868 -1.46774e-05 0)
(0.00108022 -1.77442e-05 0)
(0.00108258 -1.97042e-05 0)
(0.00108391 -2.34196e-05 0)
(0.00108647 -2.53174e-05 0)
(0.001 5.17525e-07 0)
(0.0010001 1.5321e-06 0)
(0.00100031 2.51947e-06 0)
(0.00100061 3.47294e-06 0)
(0.00100101 4.38626e-06 0)
(0.0010015 5.25404e-06 0)
(0.00100209 6.07201e-06 0)
(0.00100277 6.83713e-06 0)
(0.00100352 7.54751e-06 0)
(0.00100434 8.20231e-06 0)
(0.00100524 8.80147e-06 0)
(0.0010062 9.34548e-06 0)
(0.00100721 9.83513e-06 0)
(0.00100828 1.02715e-05 0)
(0.0010094 1.06557e-05 0)
(0.00101056 1.09893e-05 0)
(0.00101177 1.12735e-05 0)
(0.00101301 1.15099e-05 0)
(0.00101429 1.16999e-05 0)
(0.0010156 1.18448e-05 0)
(0.00101693 1.19459e-05 0)
(0.00101829 1.20044e-05 0)
(0.00101968 1.20208e-05 0)
(0.00102109 1.19963e-05 0)
(0.00102251 1.19308e-05 0)
(0.00102395 1.18252e-05 0)
(0.00102541 1.16787e-05 0)
(0.00102688 1.1492e-05 0)
(0.00102835 1.12635e-05 0)
(0.00102984 1.09937e-05 0)
(0.00103133 1.06801e-05 0)
(0.00103283 1.03234e-05 0)
(0.00103433 9.91958e-06 0)
(0.00103584 9.47018e-06 0)
(0.00103734 8.96892e-06 0)
(0.00103884 8.41905e-06 0)
(0.00104034 7.81094e-06 0)
(0.00104183 7.15115e-06 0)
(0.00104332 6.42487e-06 0)
(0.00104481 5.64437e-06 0)
(0.00104628 4.7862e-06 0)
(0.00104775 3.8726e-06 0)
(0.00104921 2.86632e-06 0)
(0.00105066 1.80725e-06 0)
(0.00105209 6.36209e-07 0)
(0.00105353 -5.79551e-07 0)
(0.00105493 -1.93941e-06 0)
(0.00105636 -3.32897e-06 0)
(0.00105775 -4.91023e-06 0)
(0.00105919 -6.48756e-06 0)
(0.00106055 -8.32921e-06 0)
(0.00106202 -1.01088e-05 0)
(0.00106336 -1.22576e-05 0)
(0.00106487 -1.42422e-05 0)
(0.00106618 -1.67627e-05 0)
(0.0010678 -1.89505e-05 0)
(0.00106904 -2.1933e-05 0)
(0.00107079 -2.4308e-05 0)
(0.00107183 -2.78769e-05 0)
(0.00107365 -3.03934e-05 0)
(0.001 3.94084e-07 0)
(0.00100009 1.16147e-06 0)
(0.00100025 1.90403e-06 0)
(0.0010005 2.61765e-06 0)
(0.00100083 3.29843e-06 0)
(0.00100124 3.94288e-06 0)
(0.00100173 4.54813e-06 0)
(0.0010023 5.11201e-06 0)
(0.00100293 5.63301e-06 0)
(0.00100363 6.11019e-06 0)
(0.0010044 6.54305e-06 0)
(0.00100522 6.93154e-06 0)
(0.00100609 7.27595e-06 0)
(0.00100702 7.57695e-06 0)
(0.001008 7.83538e-06 0)
(0.00100901 8.05226e-06 0)
(0.00101007 8.22864e-06 0)
(0.00101117 8.36567e-06 0)
(0.0010123 8.46438e-06 0)
(0.00101346 8.52585e-06 0)
(0.00101464 8.55094e-06 0)
(0.00101586 8.54051e-06 0)
(0.00101709 8.49511e-06 0)
(0.00101835 8.41529e-06 0)
(0.00101962 8.30116e-06 0)
(0.00102091 8.15291e-06 0)
(0.00102221 7.97015e-06 0)
(0.00102352 7.75266e-06 0)
(0.00102484 7.49947e-06 0)
(0.00102617 7.21003e-06 0)
(0.0010275 6.88273e-06 0)
(0.00102883 6.51681e-06 0)
(0.00103016 6.10983e-06 0)
(0.00103149 5.66098e-06 0)
(0.00103282 5.16666e-06 0)
(0.00103414 4.6263e-06 0)
(0.00103545 4.03411e-06 0)
(0.00103675 3.39075e-06 0)
(0.00103804 2.68846e-06 0)
(0.00103932 1.92979e-06 0)
(0.00104058 1.10293e-06 0)
(0.00104182 2.1474e-07 0)
(0.00104305 -7.53469e-07 0)
(0.00104427 -1.78739e-06 0)
(0.00104547 -2.91589e-06 0)
(0.00104665 -4.11193e-06 0)
(0.0010478 -5.42579e-06 0)
(0.00104894 -6.80419e-06 0)
(0.00105005 -8.33178e-06 0)
(0.00105116 -9.91626e-06 0)
(0.00105223 -1.16966e-05 0)
(0.00105331 -1.35115e-05 0)
(0.00105433 -1.55912e-05 0)
(0.0010554 -1.766e-05 0)
(0.00105636 -2.00983e-05 0)
(0.00105745 -2.24427e-05 0)
(0.00105832 -2.53166e-05 0)
(0.00105944 -2.79519e-05 0)
(0.0010601 -3.13602e-05 0)
(0.00106118 -3.42823e-05 0)
(0.001 2.91415e-07 0)
(0.00100007 8.5273e-07 0)
(0.00100021 1.39011e-06 0)
(0.00100042 1.9011e-06 0)
(0.0010007 2.38335e-06 0)
(0.00100105 2.83478e-06 0)
(0.00100147 3.25366e-06 0)
(0.00100195 3.6387e-06 0)
(0.0010025 3.98899e-06 0)
(0.0010031 4.30401e-06 0)
(0.00100376 4.58351e-06 0)
(0.00100448 4.82756e-06 0)
(0.00100524 5.03651e-06 0)
(0.00100605 5.21091e-06 0)
(0.00100691 5.3515e-06 0)
(0.0010078 5.4591e-06 0)
(0.00100874 5.53461e-06 0)
(0.00100971 5.57891e-06 0)
(0.00101071 5.5929e-06 0)
(0.00101174 5.57738e-06 0)
(0.0010128 5.53306e-06 0)
(0.00101388 5.46051e-06 0)
(0.00101498 5.36022e-06 0)
(0.0010161 5.23239e-06 0)
(0.00101724 5.0772e-06 0)
(0.00101839 4.89444e-06 0)
(0.00101955 4.68391e-06 0)
(0.00102072 4.44487e-06 0)
(0.00102189 4.17673e-06 0)
(0.00102307 3.87801e-06 0)
(0.00102425 3.5478e-06 0)
(0.00102543 3.18424e-06 0)
(0.0010266 2.78603e-06 0)
(0.00102777 2.35055e-06 0)
(0.00102893 1.87627e-06 0)
(0.00103008 1.35988e-06 0)
(0.00103121 8.00068e-07 0)
(0.00103233 1.92364e-07 0)
(0.00103343 -4.65502e-07 0)
(0.00103452 -1.17836e-06 0)
(0.00103558 -1.94888e-06 0)
(0.00103662 -2.78225e-06 0)
(0.00103763 -3.68242e-06 0)
(0.00103862 -4.65491e-06 0)
(0.00103958 -5.70718e-06 0)
(0.0010405 -6.84234e-06 0)
(0.0010414 -8.07057e-06 0)
(0.00104225 -9.39193e-06 0)
(0.00104307 -1.08248e-05 0)
(0.00104386 -1.23607e-05 0)
(0.0010446 -1.40331e-05 0)
(0.00104531 -1.58164e-05 0)
(0.00104598 -1.77702e-05 0)
(0.00104661 -1.98377e-05 0)
(0.00104718 -2.21241e-05 0)
(0.00104775 -2.45171e-05 0)
(0.00104818 -2.71983e-05 0)
(0.00104869 -2.99608e-05 0)
(0.00104888 -3.31104e-05 0)
(0.00104923 -3.6281e-05 0)
(0.001 2.03661e-07 0)
(0.00100006 5.88717e-07 0)
(0.00100018 9.50212e-07 0)
(0.00100037 1.28684e-06 0)
(0.00100061 1.59738e-06 0)
(0.00100091 1.88078e-06 0)
(0.00100128 2.13626e-06 0)
(0.0010017 2.3633e-06 0)
(0.00100217 2.56165e-06 0)
(0.0010027 2.73129e-06 0)
(0.00100328 2.87238e-06 0)
(0.00100391 2.98527e-06 0)
(0.00100458 3.07049e-06 0)
(0.0010053 3.12869e-06 0)
(0.00100606 3.16065e-06 0)
(0.00100686 3.16718e-06 0)
(0.00100769 3.14918e-06 0)
(0.00100855 3.10725e-06 0)
(0.00100944 3.04233e-06 0)
(0.00101037 2.95517e-06 0)
(0.00101131 2.84648e-06 0)
(0.00101228 2.71666e-06 0)
(0.00101326 2.56618e-06 0)
(0.00101426 2.39506e-06 0)
(0.00101528 2.20351e-06 0)
(0.00101631 1.99109e-06 0)
(0.00101734 1.7577e-06 0)
(0.00101838 1.50242e-06 0)
(0.00101943 1.22495e-06 0)
(0.00102047 9.2382e-07 0)
(0.00102151 5.9844e-07 0)
(0.00102255 2.46203e-07 0)
(0.00102358 -1.33452e-07 0)
(0.00102459 -5.44156e-07 0)
(0.0010256 -9.86218e-07 0)
(0.00102659 -1.46454e-06 0)
(0.00102757 -1.97837e-06 0)
(0.00102852 -2.53476e-06 0)
(0.00102945 -3.13262e-06 0)
(0.00103035 -3.78136e-06 0)
(0.00103123 -4.4783e-06 0)
(0.00103207 -5.23644e-06 0)
(0.00103288 -6.05049e-06 0)
(0.00103364 -6.93786e-06 0)
(0.00103437 -7.8894e-06 0)
(0.00103505 -8.92885e-06 0)
(0.0010357 -1.00411e-05 0)
(0.00103628 -1.1259e-05 0)
(0.00103682 -1.2559e-05 0)
(0.00103729 -1.39866e-05 0)
(0.00103773 -1.55062e-05 0)
(0.00103807 -1.71808e-05 0)
(0.00103838 -1.89572e-05 0)
(0.00103859 -2.09235e-05 0)
(0.00103875 -2.30003e-05 0)
(0.00103882 -2.53118e-05 0)
(0.00103879 -2.77387e-05 0)
(0.0010387 -3.04588e-05 0)
(0.00103839 -3.32892e-05 0)
(0.00103805 -3.64858e-05 0)
(0.001 1.26856e-07 0)
(0.00100006 3.57735e-07 0)
(0.00100016 5.65214e-07 0)
(0.00100032 7.48766e-07 0)
(0.00100054 9.07966e-07 0)
(0.00100081 1.0425e-06 0)
(0.00100113 1.15253e-06 0)
(0.00100151 1.23823e-06 0)
(0.00100193 1.29997e-06 0)
(0.0010024 1.33823e-06 0)
(0.00100292 1.35361e-06 0)
(0.00100348 1.3468e-06 0)
(0.00100408 1.31863e-06 0)
(0.00100472 1.26994e-06 0)
(0.0010054 1.20173e-06 0)
(0.00100612 1.11492e-06 0)
(0.00100686 1.01048e-06 0)
(0.00100764 8.89481e-07 0)
(0.00100844 7.52659e-07 0)
(0.00100927 6.00594e-07 0)
(0.00101012 4.3401e-07 0)
(0.00101099 2.53324e-07 0)
(0.00101187 5.90478e-08 0)
(0.00101277 -1.48783e-07 0)
(0.00101368 -3.69923e-07 0)
(0.0010146 -6.04823e-07 0)
(0.00101553 -8.53458e-07 0)
(0.00101645 -1.11682e-06 0)
(0.00101738 -1.39502e-06 0)
(0.00101831 -1.6896e-06 0)
(0.00101923 -2.00087e-06 0)
(0.00102015 -2.33154e-06 0)
(0.00102105 -2.68176e-06 0)
(0.00102194 -3.05539e-06 0)
(0.00102281 -3.45221e-06 0)
(0.00102366 -3.87774e-06 0)
(0.00102449 -4.3314e-06 0)
(0.00102529 -4.82069e-06 0)
(0.00102606 -5.34294e-06 0)
(0.0010268 -5.90915e-06 0)
(0.00102751 -6.51407e-06 0)
(0.00102817 -7.17332e-06 0)
(0.00102879 -7.87727e-06 0)
(0.00102936 -8.64843e-06 0)
(0.00102988 -9.47026e-06 0)
(0.00103034 -1.03755e-05 0)
(0.00103076 -1.13368e-05 0)
(0.00103109 -1.24024e-05 0)
(0.00103137 -1.35278e-05 0)
(0.00103156 -1.4785e-05 0)
(0.0010317 -1.61029e-05 0)
(0.00103171 -1.75898e-05 0)
(0.00103168 -1.91323e-05 0)
(0.00103151 -2.08953e-05 0)
(0.00103127 -2.26986e-05 0)
(0.00103088 -2.47955e-05 0)
(0.0010304 -2.68983e-05 0)
(0.00102977 -2.94008e-05 0)
(0.00102895 -3.18396e-05 0)
(0.00102798 -3.48308e-05 0)
(0.001 5.77122e-08 0)
(0.00100005 1.49488e-07 0)
(0.00100015 2.18124e-07 0)
(0.00100029 2.64009e-07 0)
(0.00100049 2.87508e-07 0)
(0.00100073 2.89107e-07 0)
(0.00100103 2.6916e-07 0)
(0.00100136 2.28329e-07 0)
(0.00100175 1.67449e-07 0)
(0.00100217 8.7466e-08 0)
(0.00100264 -1.0584e-08 0)
(0.00100315 -1.25633e-07 0)
(0.0010037 -2.56567e-07 0)
(0.00100428 -4.02285e-07 0)
(0.0010049 -5.61611e-07 0)
(0.00100555 -7.3343e-07 0)
(0.00100623 -9.16576e-07 0)
(0.00100693 -1.1098e-06 0)
(0.00100766 -1.31218e-06 0)
(0.00100842 -1.52298e-06 0)
(0.00100919 -1.74135e-06 0)
(0.00100997 -1.96676e-06 0)
(0.00101078 -2.19861e-06 0)
(0.00101159 -2.43675e-06 0)
(0.00101242 -2.68086e-06 0)
(0.00101325 -2.93127e-06 0)
(0.00101408 -3.18787e-06 0)
(0.00101491 -3.45159e-06 0)
(0.00101575 -3.72256e-06 0)
(0.00101657 -4.00255e-06 0)
(0.00101739 -4.29169e-06 0)
(0.0010182 -4.59238e-06 0)
(0.00101899 -4.90473e-06 0)
(0.00101977 -5.23229e-06 0)
(0.00102053 -5.57486e-06 0)
(0.00102126 -5.93753e-06 0)
(0.00102196 -6.31935e-06 0)
(0.00102263 -6.72748e-06 0)
(0.00102327 -7.15933e-06 0)
(0.00102387 -7.62511e-06 0)
(0.00102443 -8.11961e-06 0)
(0.00102494 -8.65754e-06 0)
(0.0010254 -9.22937e-06 0)
(0.0010258 -9.85654e-06 0)
(0.00102615 -1.05224e-05 0)
(0.00102642 -1.12589e-05 0)
(0.00102663 -1.2038e-05 0)
(0.00102675 -1.29074e-05 0)
(0.00102681 -1.38211e-05 0)
(0.00102675 -1.48518e-05 0)
(0.00102663 -1.59243e-05 0)
(0.00102637 -1.71505e-05 0)
(0.00102603 -1.84084e-05 0)
(0.00102553 -1.98725e-05 0)
(0.00102494 -2.13448e-05 0)
(0.00102416 -2.30999e-05 0)
(0.00102327 -2.48162e-05 0)
(0.00102217 -2.69299e-05 0)
(0.0010209 -2.89145e-05 0)
(0.00101938 -3.14675e-05 0)
(0.001 -5.38333e-09 0)
(0.00100005 -3.99949e-08 0)
(0.00100014 -9.73529e-08 0)
(0.00100027 -1.76503e-07 0)
(0.00100046 -2.76534e-07 0)
(0.00100068 -3.96419e-07 0)
(0.00100095 -5.35274e-07 0)
(0.00100127 -6.91926e-07 0)
(0.00100162 -8.65064e-07 0)
(0.00100202 -1.05331e-06 0)
(0.00100245 -1.25523e-06 0)
(0.00100292 -1.46943e-06 0)
(0.00100343 -1.69448e-06 0)
(0.00100397 -1.92898e-06 0)
(0.00100454 -2.17152e-06 0)
(0.00100514 -2.42071e-06 0)
(0.00100576 -2.67518e-06 0)
(0.00100642 -2.9339e-06 0)
(0.00100709 -3.19554e-06 0)
(0.00100778 -3.45902e-06 0)
(0.00100849 -3.72337e-06 0)
(0.00100922 -3.98788e-06 0)
(0.00100996 -4.25185e-06 0)
(0.0010107 -4.51497e-06 0)
(0.00101146 -4.77683e-06 0)
(0.00101222 -5.03755e-06 0)
(0.00101298 -5.29705e-06 0)
(0.00101374 -5.55597e-06 0)
(0.00101449 -5.81447e-06 0)
(0.00101524 -6.07379e-06 0)
(0.00101597 -6.33422e-06 0)
(0.0010167 -6.59765e-06 0)
(0.0010174 -6.86441e-06 0)
(0.00101809 -7.13728e-06 0)
(0.00101875 -7.41643e-06 0)
(0.00101939 -7.7058e-06 0)
(0.00101999 -8.00505e-06 0)
(0.00102056 -8.31965e-06 0)
(0.00102109 -8.64827e-06 0)
(0.00102158 -8.99857e-06 0)
(0.00102202 -9.36741e-06 0)
(0.00102241 -9.76567e-06 0)
(0.00102274 -1.01872e-05 0)
(0.00102301 -1.06477e-05 0)
(0.00102321 -1.11359e-05 0)
(0.00102334 -1.16751e-05 0)
(0.00102339 -1.22459e-05 0)
(0.00102334 -1.28829e-05 0)
(0.00102322 -1.35536e-05 0)
(0.00102297 -1.43109e-05 0)
(0.00102264 -1.51008e-05 0)
(0.00102216 -1.60052e-05 0)
(0.00102158 -1.69352e-05 0)
(0.00102082 -1.80193e-05 0)
(0.00101995 -1.91113e-05 0)
(0.00101887 -2.04161e-05 0)
(0.00101765 -2.16919e-05 0)
(0.00101619 -2.32688e-05 0)
(0.00101455 -2.47449e-05 0)
(0.00101263 -2.6656e-05 0)
(0.001 -6.44252e-08 0)
(0.00100004 -2.16787e-07 0)
(0.00100013 -3.91526e-07 0)
(0.00100026 -5.87444e-07 0)
(0.00100043 -8.03231e-07 0)
(0.00100065 -1.03747e-06 0)
(0.00100091 -1.28835e-06 0)
(0.0010012 -1.55409e-06 0)
(0.00100154 -1.8329e-06 0)
(0.00100192 -2.12297e-06 0)
(0.00100233 -2.42252e-06 0)
(0.00100277 -2.72977e-06 0)
(0.00100325 -3.043e-06 0)
(0.00100376 -3.36045e-06 0)
(0.0010043 -3.68042e-06 0)
(0.00100487 -4.00127e-06 0)
(0.00100546 -4.32144e-06 0)
(0.00100607 -4.63954e-06 0)
(0.00100671 -4.95422e-06 0)
(0.00100736 -5.2643e-06 0)
(0.00100803 -5.56874e-06 0)
(0.00100871 -5.86662e-06 0)
(0.0010094 -6.15717e-06 0)
(0.0010101 -6.43982e-06 0)
(0.0010108 -6.7141e-06 0)
(0.00101151 -6.97987e-06 0)
(0.00101221 -7.23699e-06 0)
(0.00101292 -7.48574e-06 0)
(0.00101361 -7.72627e-06 0)
(0.0010143 -7.95931e-06 0)
(0.00101498 -8.18529e-06 0)
(0.00101564 -8.40541e-06 0)
(0.00101628 -8.62031e-06 0)
(0.0010169 -8.83173e-06 0)
(0.0010175 -9.04043e-06 0)
(0.00101806 -9.24875e-06 0)
(0.00101859 -9.45745e-06 0)
(0.00101909 -9.6696e-06 0)
(0.00101954 -9.88579e-06 0)
(0.00101995 -1.011e-05 0)
(0.00102031 -1.03423e-05 0)
(0.00102061 -1.05881e-05 0)
(0.00102085 -1.08464e-05 0)
(0.00102102 -1.11243e-05 0)
(0.00102112 -1.14195e-05 0)
(0.00102115 -1.17415e-05 0)
(0.00102109 -1.20854e-05 0)
(0.00102093 -1.24646e-05 0)
(0.00102067 -1.28701e-05 0)
(0.0010203 -1.33213e-05 0)
(0.00101982 -1.38022e-05 0)
(0.0010192 -1.43418e-05 0)
(0.00101845 -1.49127e-05 0)
(0.00101754 -1.55599e-05 0)
(0.00101647 -1.62361e-05 0)
(0.0010152 -1.70131e-05 0)
(0.00101376 -1.78095e-05 0)
(0.00101208 -1.87429e-05 -5.42076e-38)
(0.00101018 -1.96718e-05 0)
(0.00100801 -2.07915e-05 0)
(0.001 -1.2221e-07 0)
(0.00100004 -3.90045e-07 0)
(0.00100013 -6.79593e-07 0)
(0.00100026 -9.89086e-07 0)
(0.00100042 -1.31664e-06 0)
(0.00100064 -1.66028e-06 0)
(0.00100089 -2.01788e-06 0)
(0.00100118 -2.3873e-06 0)
(0.00100151 -2.76633e-06 0)
(0.00100187 -3.15278e-06 0)
(0.00100227 -3.54453e-06 0)
(0.0010027 -3.93947e-06 0)
(0.00100317 -4.33554e-06 0)
(0.00100366 -4.73074e-06 0)
(0.00100419 -5.12309e-06 0)
(0.00100473 -5.51074e-06 0)
(0.0010053 -5.89192e-06 0)
(0.0010059 -6.265e-06 0)
(0.00100651 -6.62848e-06 0)
(0.00100714 -6.98099e-06 0)
(0.00100778 -7.32132e-06 0)
(0.00100843 -7.64838e-06 0)
(0.0010091 -7.96131e-06 0)
(0.00100977 -8.25934e-06 0)
(0.00101044 -8.54197e-06 0)
(0.00101111 -8.80877e-06 0)
(0.00101179 -9.05956e-06 0)
(0.00101246 -9.2942e-06 0)
(0.00101312 -9.5129e-06 0)
(0.00101377 -9.71582e-06 0)
(0.00101441 -9.90356e-06 0)
(0.00101503 -1.00765e-05 0)
(0.00101563 -1.02357e-05 0)
(0.00101621 -1.03817e-05 0)
(0.00101676 -1.05159e-05 0)
(0.00101728 -1.0639e-05 0)
(0.00101777 -1.07528e-05 0)
(0.00101822 -1.08578e-05 0)
(0.00101863 -1.09567e-05 0)
(0.00101899 -1.10495e-05 0)
(0.0010193 -1.11398e-05 0)
(0.00101955 -1.12267e-05 0)
(0.00101974 -1.13153e-05 0)
(0.00101986 -1.14028e-05 0)
(0.00101991 -1.14971e-05 0)
(0.00101988 -1.15922e-05 0)
(0.00101976 -1.16999e-05 0)
(0.00101955 -1.18091e-05 0)
(0.00101923 -1.19382e-05 0)
(0.00101881 -1.20676e-05 0)
(0.00101825 -1.22263e-05 0)
(0.00101757 -1.2381e-05 0)
(0.00101674 -1.25777e-05 0)
(0.00101576 -1.27609e-05 0)
(0.0010146 -1.30042e-05 0)
(0.00101327 -1.32169e-05 0)
(0.00101172 -1.35157e-05 0)
(0.00100997 -1.37545e-05 5.42076e-38)
(0.00100796 -1.41177e-05 0)
(0.00100572 -1.43728e-05 0)
(0.001 -1.80126e-07 0)
(0.00100004 -5.63299e-07 0)
(0.00100013 -9.67137e-07 0)
(0.00100026 -1.38935e-06 0)
(0.00100043 -1.82757e-06 0)
(0.00100064 -2.27935e-06 0)
(0.00100089 -2.74217e-06 0)
(0.00100119 -3.21346e-06 0)
(0.00100152 -3.69064e-06 0)
(0.00100188 -4.17118e-06 0)
(0.00100228 -4.65258e-06 0)
(0.00100272 -5.13245e-06 0)
(0.00100318 -5.60845e-06 0)
(0.00100368 -6.07831e-06 0)
(0.0010042 -6.53985e-06 0)
(0.00100474 -6.99099e-06 0)
(0.00100531 -7.42982e-06 0)
(0.0010059 -7.85451e-06 0)
(0.0010065 -8.26344e-06 0)
(0.00100713 -8.65506e-06 0)
(0.00100776 -9.02805e-06 0)
(0.0010084 -9.38119e-06 0)
(0.00100906 -9.7135e-06 0)
(0.00100972 -1.00241e-05 0)
(0.00101038 -1.03123e-05 0)
(0.00101104 -1.05774e-05 0)
(0.0010117 -1.08193e-05 0)
(0.00101236 -1.10375e-05 0)
(0.00101301 -1.12322e-05 0)
(0.00101364 -1.14031e-05 0)
(0.00101427 -1.15508e-05 0)
(0.00101487 -1.16751e-05 0)
(0.00101546 -1.17772e-05 0)
(0.00101602 -1.18566e-05 0)
(0.00101656 -1.19153e-05 0)
(0.00101707 -1.19522e-05 0)
(0.00101754 -1.19703e-05 0)
(0.00101798 -1.19678e-05 0)
(0.00101837 -1.19489e-05 0)
(0.00101872 -1.19102e-05 0)
(0.00101901 -1.18583e-05 0)
(0.00101926 -1.17867e-05 0)
(0.00101944 -1.17058e-05 0)
(0.00101956 -1.16039e-05 0)
(0.00101959 -1.14977e-05 0)
(0.00101956 -1.13673e-05 0)
(0.00101944 -1.12392e-05 0)
(0.00101923 -1.10802e-05 0)
(0.00101891 -1.09334e-05 0)
(0.0010185 -1.07432e-05 0)
(0.00101794 -1.05802e-05 0)
(0.00101729 -1.03527e-05 0)
(0.00101646 -1.01756e-05 0)
(0.00101553 -9.89874e-06 0)
(0.00101438 -9.70982e-06 0)
(0.00101311 -9.36366e-06 0)
(0.00101158 -9.16625e-06 0)
(0.00100992 -8.71855e-06 0)
(0.00100794 -8.51953e-06 0)
(0.00100581 -7.92242e-06 0)
(0.001 -2.39762e-07 0)
(0.00100005 -7.41416e-07 0)
(0.00100014 -1.26243e-06 0)
(0.00100027 -1.79998e-06 0)
(0.00100045 -2.35116e-06 0)
(0.00100067 -2.91303e-06 0)
(0.00100093 -3.48261e-06 0)
(0.00100124 -4.05689e-06 0)
(0.00100158 -4.63293e-06 0)
(0.00100196 -5.20781e-06 0)
(0.00100237 -5.77874e-06 0)
(0.00100282 -6.34302e-06 0)
(0.0010033 -6.89809e-06 0)
(0.00100381 -7.44145e-06 0)
(0.00100434 -7.97077e-06 0)
(0.0010049 -8.4838e-06 0)
(0.00100548 -8.97849e-06 0)
(0.00100608 -9.45289e-06 0)
(0.0010067 -9.90529e-06 0)
(0.00100733 -1.0334e-05 0)
(0.00100798 -1.07377e-05 0)
(0.00100863 -1.1115e-05 0)
(0.0010093 -1.14648e-05 0)
(0.00100996 -1.17862e-05 0)
(0.00101063 -1.20784e-05 0)
(0.00101131 -1.23405e-05 0)
(0.00101197 -1.25724e-05 0)
(0.00101264 -1.27733e-05 0)
(0.00101329 -1.29434e-05 0)
(0.00101394 -1.30821e-05 0)
(0.00101457 -1.31899e-05 0)
(0.00101518 -1.32661e-05 0)
(0.00101578 -1.3312e-05 0)
(0.00101635 -1.33263e-05 0)
(0.0010169 -1.33112e-05 0)
(0.00101742 -1.32646e-05 0)
(0.00101791 -1.31898e-05 0)
(0.00101836 -1.30835e-05 0)
(0.00101877 -1.29508e-05 0)
(0.00101914 -1.27858e-05 0)
(0.00101946 -1.25967e-05 0)
(0.00101973 -1.23733e-05 0)
(0.00101994 -1.2129e-05 0)
(0.0010201 -1.18465e-05 0)
(0.00102017 -1.15475e-05 0)
(0.00102019 -1.12029e-05 0)