/*--------------------------------*- C++ -*----------------------------------*\
| =========                 |                                                 |
| \\      /  F ield         | OpenFOAM: The Open Source CFD Toolbox           |
|  \\    /   O peration     | Version:  2312                                  |
|   \\  /    A nd           | Website:  www.openfoam.com                      |
|    \\/     M anipulation  |                                                 |
\*---------------------------------------------------------------------------*/
FoamFile
{
    version     2.0;
    format      ascii;
    arch        "LSB;label=32;scalar=64";
    class       surfaceScalarField;
    location    "108000";
    object      phi;
}
// * * * * * * * * * * * * * * * * * * * * * * * * * * * * * * * * * * * * * //

dimensions      [0 3 -1 0 0 0 0];

oriented        oriented;

internalField   nonuniform List<scalar> 
5250
(
-2.49265e-05
1.57134e-06
-2.66271e-05
1.70055e-06
-2.84462e-05
1.81914e-06
-3.03691e-05
1.92286e-06
-3.23773e-05
2.00825e-06
-3.44527e-05
2.07532e-06
-3.65677e-05
2.11505e-06
-3.86847e-05
2.11695e-06
-4.07675e-05
2.08281e-06
-4.27797e-05
2.01225e-06
-4.46844e-05
1.90469e-06
-4.64442e-05
1.7598e-06
-4.80218e-05
1.57761e-06
-4.93804e-05
1.35861e-06
-5.04857e-05
1.10527e-06
-5.13031e-05
8.17396e-07
-5.17986e-05
4.95466e-07
-5.19365e-05
1.37918e-07
-5.17113e-05
-2.25145e-07
-5.11085e-05
-6.0285e-07
-5.01091e-05
-9.99348e-07
-4.8702e-05
-1.40718e-06
-4.68815e-05
-1.82041e-06
-4.4648e-05
-2.23358e-06
-4.20064e-05
-2.64158e-06
-3.89668e-05
-3.03956e-06
-3.55438e-05
-3.42299e-06
-3.17561e-05
-3.78769e-06
-2.76263e-05
-4.12987e-06
-2.31801e-05
-4.44614e-06
-1.84465e-05
-4.73362e-06
-1.34567e-05
-4.98981e-06
-8.24384e-06
-5.21285e-06
-2.84288e-06
-5.40096e-06
2.71023e-06
-5.5531e-06
8.38579e-06
-5.67556e-06
1.41533e-05
-5.7675e-06
1.99797e-05
-5.82636e-06
2.5828e-05
-5.84834e-06
3.16638e-05
-5.83583e-06
3.7455e-05
-5.79121e-06
4.31716e-05
-5.7166e-06
4.87859e-05
-5.61424e-06
5.42724e-05
-5.48648e-06
5.96081e-05
-5.33578e-06
6.47728e-05
-5.16466e-06
6.97485e-05
-4.97568e-06
7.45199e-05
-4.77141e-06
7.90742e-05
-4.55437e-06
8.34013e-05
-4.32703e-06
8.74931e-05
-4.09178e-06
9.1344e-05
-3.85092e-06
9.49506e-05
-3.6066e-06
9.83114e-05
-3.36084e-06
0.000101427
-3.11553e-06
0.000104299
-2.87238e-06
0.000106932
-2.63295e-06
0.000109331
-2.39862e-06
0.000111501
-2.1706e-06
0.000113451
-1.94994e-06
0.000115189
-1.73753e-06
0.000116723
-1.53406e-06
0.000118063
-1.34006e-06
0.000119219
-1.15591e-06
0.000120201
-9.81979e-07
0.000121019
-8.18397e-07
0.000121684
-6.65023e-07
0.000122206
-5.21613e-07
0.000122594
-3.88237e-07
0.000122859
-2.64982e-07
0.000123011
-1.51458e-07
0.000123056
-4.58228e-08
0.00012301
4.69893e-08
0.00012288
1.29784e-07
0.000122674
2.05239e-07
0.000122401
2.7303e-07
0.000122068
3.33332e-07
0.000121682
3.86548e-07
0.000121249
4.32725e-07
0.000120776
4.7258e-07
0.00012027
5.05843e-07
0.000119737
5.33864e-07
0.000119181
5.55389e-07
0.000118608
5.73416e-07
0.000118023
5.84539e-07
0.000117428
5.94946e-07
0.000116831
5.97699e-07
0.000116229
6.01555e-07
6.03041e-07
4.48538e-05
1.73732e-06
4.46713e-05
1.8831e-06
4.44804e-05
2.01001e-06
4.42922e-05
2.11108e-06
4.41241e-05
2.17631e-06
4.40072e-05
2.1922e-06
4.39739e-05
2.14838e-06
4.40493e-05
2.04156e-06
4.42614e-05
1.87072e-06
4.46387e-05
1.63494e-06
4.52098e-05
1.33362e-06
4.60024e-05
9.67115e-07
4.70448e-05
5.35283e-07
4.83747e-05
2.86895e-08
4.99795e-05
-4.99497e-07
5.18949e-05
-1.09805e-06
5.41439e-05
-1.75353e-06
5.67398e-05
-2.458e-06
5.97169e-05
-3.20221e-06
6.30894e-05
-3.97534e-06
6.68585e-05
-4.76848e-06
7.1024e-05
-5.57263e-06
7.55824e-05
-6.37884e-06
8.0527e-05
-7.17822e-06
8.58475e-05
-7.96205e-06
9.15298e-05
-8.72191e-06
9.75567e-05
-9.44985e-06
0.000103907
-1.01385e-05
0.000110559
-1.0781e-05
0.000117484
-1.13714e-05
0.000124655
-1.19044e-05
0.00013204
-1.23756e-05
0.000139609
-1.27816e-05
0.000147328
-1.31202e-05
0.000155166
-1.33912e-05
0.000163087
-1.35964e-05
0.000171057
-1.37371e-05
0.000179045
-1.38143e-05
0.000187025
-1.38282e-05
0.000194967
-1.37786e-05
0.000202842
-1.36656e-05
0.000210618
-1.34929e-05
0.000218269
-1.32651e-05
0.000225769
-1.29866e-05
0.000233095
-1.2662e-05
0.000240227
-1.22961e-05
0.000247144
-1.18934e-05
0.000253832
-1.14586e-05
0.000260273
-1.09963e-05
0.000266457
-1.0511e-05
0.000272373
-1.00071e-05
0.00027801
-9.48864e-06
0.000283364
-8.95973e-06
0.000288427
-8.42406e-06
0.000293196
-7.88519e-06
0.00029767
-7.34638e-06
0.000301848
-6.81066e-06
0.00030573
-6.28079e-06
0.000309319
-5.7593e-06
0.000312618
-5.24839e-06
0.00031563
-4.75011e-06
0.000318362
-4.26617e-06
0.00032082
-3.79808e-06
0.000323011
-3.34696e-06
0.000324944
-2.91419e-06
0.000326626
-2.50057e-06
0.000328067
-2.10666e-06
0.000329278
-1.73261e-06
0.00033027
-1.37957e-06
0.000331053
-1.04784e-06
0.000331639
-7.37831e-07
0.000332041
-4.48237e-07
0.000332267
-1.78837e-07
0.000332329
6.76155e-08
0.000332246
2.8804e-07
0.000332027
4.92312e-07
0.000331685
6.7588e-07
0.000331229
8.42531e-07
0.000330674
9.87613e-07
0.000330028
1.11814e-06
0.000329308
1.226e-06
0.000328519
1.32328e-06
0.000327678
1.39591e-06
0.000326787
1.46416e-06
0.000325867
1.50444e-06
0.000324913
1.54929e-06
0.000323951
1.56009e-06
0.000322968
1.58467e-06
1.57053e-06
0.00021139
3.37665e-07
0.000212917
3.56204e-07
0.000214569
3.57966e-07
0.000216348
3.31384e-07
0.000218259
2.65902e-07
0.000220309
1.42169e-07
0.000222504
-4.68278e-08
0.000224831
-2.8502e-07
0.000227294
-5.92662e-07
0.000229899
-9.70307e-07
0.000232652
-1.41957e-06
0.000235559
-1.93919e-06
0.000238622
-2.52792e-06
0.000241837
-3.18679e-06
0.000245253
-3.91472e-06
0.000248865
-4.71052e-06
0.00025268
-5.5686e-06
0.000256703
-6.4804e-06
0.000260935
-7.43504e-06
0.000265382
-8.42178e-06
0.000270043
-9.42998e-06
0.000274919
-1.04488e-05
0.000280008
-1.1467e-05
0.000285303
-1.24735e-05
0.000290798
-1.34572e-05
0.000296484
-1.44075e-05
0.000302348
-1.53141e-05
0.000308377
-1.61676e-05
0.000314556
-1.69594e-05
0.000320866
-1.76818e-05
0.00032729
-1.83283e-05
0.000333808
-1.88935e-05
0.0003404
-1.93739e-05
0.000347047
-1.97676e-05
0.00035373
-2.00734e-05
0.000360425
-2.02913e-05
0.000367109
-2.04219e-05
0.000373761
-2.04662e-05
0.000380359
-2.04257e-05
0.000386883
-2.03025e-05
0.000393317
-2.01002e-05
0.000399647
-1.98228e-05
0.000405858
-1.94755e-05
0.000411935
-1.90635e-05
0.000417865
-1.85924e-05
0.000423637
-1.80679e-05
0.000429239
-1.7496e-05
0.000434663
-1.68823e-05
0.000439899
-1.62326e-05
0.000444941
-1.55527e-05
0.000449782
-1.48479e-05
0.000454417
-1.41234e-05
0.000458841
-1.33843e-05
0.000463052
-1.26351e-05
0.000467048
-1.18805e-05
0.000470825
-1.11243e-05
0.000474385
-1.03704e-05
0.000477727
-9.62216e-06
0.00048085
-8.88301e-06
0.000483757
-8.15548e-06
0.00048645
-7.44246e-06
0.00048893
-6.74603e-06
0.0004912
-6.06866e-06
0.000493265
-5.41137e-06
0.000495127
-4.77654e-06
0.000496791
-4.16451e-06
0.000498261
-3.57728e-06
0.000499543
-3.01454e-06
0.000500643
-2.4791e-06
0.000501564
-1.96895e-06
0.000502313
-1.48724e-06
0.000502896
-1.03104e-06
0.000503322
-6.04671e-07
0.000503591
-2.00843e-07
0.000503712
1.66262e-07
0.000503695
5.09717e-07
0.00050355
8.20303e-07
0.000503283
1.11038e-06
0.000502905
1.36509e-06
0.000502421
1.60278e-06
0.000501844
1.80222e-06
0.000501178
1.98966e-06
0.000500438
2.13605e-06
0.000499626
2.27613e-06
0.000498757
2.37354e-06
0.000497837
2.46902e-06
0.000496872
2.52499e-06
0.00049588
2.5772e-06
2.61063e-06
0.000449117
8.10225e-07
0.000448971
5.0212e-07
0.000449161
1.68221e-07
0.000449667
-1.7487e-07
0.000450477
-5.43881e-07
0.000451583
-9.64098e-07
0.000452969
-1.43242e-06
0.000454632
-1.94774e-06
0.000456555
-2.51643e-06
0.000458729
-3.14409e-06
0.000461142
-3.83204e-06
0.000463783
-4.58069e-06
0.000466645
-5.38949e-06
0.000469712
-6.25419e-06
0.00047297
-7.17228e-06
0.000476399
-8.1399e-06
0.000479982
-9.15179e-06
0.000483703
-1.02011e-05
0.000487548
-1.12797e-05
0.000491504
-1.23782e-05
0.000495561
-1.34865e-05
0.000499706
-1.45941e-05
0.000503929
-1.569e-05
0.000508219
-1.67632e-05
0.000512564
-1.78028e-05
0.000516955
-1.87983e-05
0.000521381
-1.97396e-05
0.00052583
-2.06174e-05
0.000530294
-2.14233e-05
0.000534762
-2.21498e-05
0.000539224
-2.27902e-05
0.00054367
-2.33389e-05
0.000548087
-2.37916e-05
0.000552466
-2.41459e-05
0.000556794
-2.44021e-05
0.000561065
-2.45619e-05
0.000565269
-2.46265e-05
0.000569401
-2.45977e-05
0.000573453
-2.44778e-05
0.00057742
-2.42696e-05
0.000581297
-2.39769e-05
0.000585078
-2.36043e-05
0.00058876
-2.31572e-05
0.000592338
-2.26412e-05
0.000595807
-2.20622e-05
0.000599166
-2.14265e-05
0.00060241
-2.07403e-05
0.000605538
-2.00097e-05
0.000608546
-1.92412e-05
0.000611434
-1.84404e-05
0.000614199
-1.76134e-05
0.000616842
-1.67654e-05
0.000619359
-1.59021e-05
0.000621752
-1.50279e-05
0.00062402
-1.41479e-05
0.000626161
-1.3266e-05
0.000628178
-1.23866e-05
0.000630068
-1.15126e-05
0.000631833
-1.06483e-05
0.000633473
-9.79552e-06
0.000634989
-8.95819e-06
0.00063638
-8.13745e-06
0.000637649
-7.33691e-06
0.000638794
-6.55648e-06
0.000639818
-5.80037e-06
0.00064072
-5.06705e-06
0.000641504
-4.36115e-06
0.000642169
-3.67999e-06
0.00064272
-3.02926e-06
0.000643155
-2.40385e-06
0.000643479
-1.81194e-06
0.000643694
-1.24616e-06
0.000643806
-7.16473e-07
0.00064382
-2.14644e-07
0.000643727
2.59405e-07
0.000643528
7.08506e-07
0.000643233
1.11543e-06
0.000642843
1.50052e-06
0.000642366
1.84221e-06
0.000641804
2.16481e-06
0.000641162
2.44345e-06
0.000640447
2.70471e-06
0.00063966
2.92306e-06
0.000638813
3.12305e-06
0.000637901
3.28612e-06
0.000636946
3.42389e-06
0.00063593
3.54058e-06
0.000634894
3.61313e-06
3.69931e-06
0.000696144
2.15112e-06
0.00069499
1.65572e-06
0.000694021
1.13765e-06
0.00069325
5.95613e-07
0.000692673
3.36244e-08
0.000692326
-6.17314e-07
0.000692186
-1.29268e-06
0.00069225
-2.01109e-06
0.00069251
-2.7766e-06
0.000692956
-3.59001e-06
0.000693575
-4.4517e-06
0.000694356
-5.36146e-06
0.000695284
-6.31751e-06
0.000696346
-7.31655e-06
0.000697529
-8.35472e-06
0.000698817
-9.42755e-06
0.000700194
-1.05293e-05
0.000701646
-1.16528e-05
0.000703156
-1.27901e-05
0.00070471
-1.39322e-05
0.000706294
-1.507e-05
0.000707893
-1.61935e-05
0.000709496
-1.7293e-05
0.000711091
-1.83586e-05
0.000712669
-1.93804e-05
0.00071422
-2.03492e-05
0.000715737
-2.12564e-05
0.000717213
-2.20937e-05
0.000718644
-2.28541e-05
0.000720025
-2.35311e-05
0.000721354
-2.41194e-05
0.00072263
-2.46147e-05
0.000723853
-2.50144e-05
0.000725024
-2.53168e-05
0.000726143
-2.55215e-05
0.00072721
-2.56288e-05
0.000728224
-2.56404e-05
0.000729186
-2.55601e-05
0.000730101
-2.5392e-05
0.00073097
-2.51392e-05
0.000731799
-2.48059e-05
0.000732591
-2.43963e-05
0.00073335
-2.39155e-05
0.000734077
-2.3369e-05
0.000734778
-2.27626e-05
0.000735453
-2.2102e-05
0.000736106
-2.13933e-05
0.000736739
-2.06422e-05
0.000737353
-1.98547e-05
0.000737948
-1.90362e-05
0.000738527
-1.81924e-05
0.00073909
-1.7328e-05
0.000739636
-1.64484e-05
0.000740166
-1.55576e-05
0.000740679
-1.46606e-05
0.000741173
-1.37605e-05
0.000741648
-1.28619e-05
0.000742103
-1.1967e-05
0.000742535
-1.10803e-05
0.000742942
-1.02028e-05
0.000743323
-9.33917e-06
0.000743675
-8.48912e-06
0.000743996
-7.65774e-06
0.000744282
-6.8433e-06
0.000744534
-6.05163e-06
0.000744746
-5.27926e-06
0.000744918
-4.53325e-06
0.000745046
-3.80826e-06
0.00074513
-3.11281e-06
0.000745166
-2.4396e-06
0.000745153
-1.79903e-06
0.000745088
-1.18145e-06
0.000744971
-5.999e-07
0.000744804
-4.69787e-08
0.000744572
4.91344e-07
0.000744283
9.97268e-07
0.000743935
1.46326e-06
0.000743531
1.90522e-06
0.000743065
2.30794e-06
0.000742544
2.68546e-06
0.000741961
3.02698e-06
0.000741327
3.33851e-06
0.000740628
3.62151e-06
0.000739887
3.86438e-06
0.000739079
4.09418e-06
0.000738239
4.26416e-06
0.00073733
4.44911e-06
0.000736405
4.53804e-06
4.68771e-06
0.000851065
2.83774e-06
0.000850461
2.26007e-06
0.000849938
1.65998e-06
0.0008495
1.03412e-06
0.000849151
3.82677e-07
0.000848843
-3.10082e-07
0.0008486
-1.0497e-06
0.00084841
-1.82108e-06
0.000848263
-2.62892e-06
0.000848149
-3.47645e-06
0.000848061
-4.36383e-06
0.000847989
-5.2889e-06
0.00084792
-6.24882e-06
0.000847844
-7.24052e-06
0.00084775
-8.2604e-06
0.000847626
-9.3039e-06
0.000847462
-1.03653e-05
0.000847247
-1.14379e-05
0.000846972
-1.25144e-05
0.000846626
-1.35872e-05
0.000846205
-1.46481e-05
0.0008457
-1.56888e-05
0.000845108
-1.67009e-05
0.000844425
-1.76761e-05
0.000843651
-1.86061e-05
0.000842785
-1.94832e-05
0.000841829
-2.03004e-05
0.000840786
-2.10511e-05
0.000839661
-2.17293e-05
0.000838461
-2.23303e-05
0.000837191
-2.28499e-05
0.000835861
-2.3285e-05
0.00083448
-2.36334e-05
0.000833058
-2.38939e-05
0.000831602
-2.40662e-05
0.000830125
-2.41515e-05
0.000828637
-2.41521e-05
0.000827148
-2.40712e-05
0.000825667
-2.39117e-05
0.000824205
-2.36764e-05
0.000822768
-2.33688e-05
0.000821364
-2.29929e-05
0.000820002
-2.25534e-05
0.000818688
-2.20548e-05
0.000817428
-2.15024e-05
0.000816226
-2.09007e-05
0.000815088
-2.02553e-05
0.000814017
-1.95706e-05
0.000813014
-1.88521e-05
0.000812082
-1.81039e-05
0.000811221
-1.73312e-05
0.00081043
-1.65375e-05
0.00080971
-1.57281e-05
0.000809058
-1.49055e-05
0.000808472
-1.40749e-05
0.000807949
-1.32379e-05
0.000807487
-1.23997e-05
0.000807081
-1.1561e-05
0.000806728
-1.07269e-05
0.000806422
-9.89723e-06
0.00080616
-9.07721e-06
0.000805937
-8.2655e-06
0.000805747
-7.46797e-06
0.000805586
-6.68199e-06
0.000805448
-5.91411e-06
0.000805329
-5.1603e-06
0.000805224
-4.42802e-06
0.000805127
-3.71167e-06
0.000805034
-3.01965e-06
0.00080494
-2.34529e-06
0.000804839
-1.69796e-06
0.000804728
-1.07028e-06
0.000804599
-4.71353e-07
0.000804444
1.08576e-07
0.000804274
6.6071e-07
0.000804084
1.18734e-06
0.000803863
1.68435e-06
0.000803616
2.15241e-06
0.000803329
2.59519e-06
0.000803012
3.00158e-06
0.000802649
3.39058e-06
0.000802256
3.73093e-06
0.000801809
4.06868e-06
0.000801336
4.33771e-06
0.000800801
4.62923e-06
0.000800245
4.81986e-06
0.000799621
5.07342e-06
0.000798983
5.17543e-06
5.40164e-06
0.000913793
2.69822e-06
0.000913945
2.10747e-06
0.000914104
1.50127e-06
0.000914262
8.76813e-07
0.00091441
2.34596e-07
0.000914549
-4.49525e-07
0.000914661
-1.16199e-06
0.000914741
-1.90055e-06
0.00091478
-2.66812e-06
0.000914768
-3.46469e-06
0.000914694
-4.28988e-06
0.000914548
-5.14264e-06
0.00091432
-6.02083e-06
0.000914001
-6.92146e-06
0.000913582
-7.84105e-06
0.000913053
-8.77555e-06
0.000912408
-9.72029e-06
0.00091164
-1.06701e-05
0.000910745
-1.1619e-05
0.000909719
-1.2561e-05
0.00090856
-1.34895e-05
0.000907269
-1.43979e-05
0.000905848
-1.52795e-05
0.000904299
-1.61275e-05
0.000902629
-1.69355e-05
0.000900843
-1.76976e-05
0.000898951
-1.8408e-05
0.000896961
-1.90615e-05
0.000894885
-1.96536e-05
0.000892736
-2.01803e-05
0.000890524
-2.06385e-05
0.000888265
-2.10255e-05
0.000885971
-2.13397e-05
0.000883657
-2.15801e-05
0.000881338
-2.17468e-05
0.000879027
-2.18406e-05
0.000876738
-2.18628e-05
0.000874481
-2.18148e-05
0.000872268
-2.16988e-05
0.000870109
-2.1517e-05
0.000868013
-2.12724e-05
0.000865988
-2.09679e-05
0.000864041
-2.06072e-05
0.00086218
-2.01936e-05
0.000860409
-1.97314e-05
0.000858732
-1.92239e-05
0.000857153
-1.86757e-05
0.000855672
-1.809e-05
0.000854291
-1.74714e-05
0.00085301
-1.68228e-05
0.000851828
-1.6149e-05
0.000850743
-1.54523e-05
0.000849752
-1.47374e-05
0.000848853
-1.4006e-05
0.000848041
-1.3263e-05
0.000847312
-1.25094e-05
0.000846663
-1.17501e-05
0.000846087
-1.09852e-05
0.00084558
-1.02199e-05
0.000845136
-9.45365e-06
0.000844751
-8.69167e-06
0.000844418
-7.93254e-06
0.000844132
-7.1819e-06
0.000843887
-6.43736e-06
0.000843678
-5.7051e-06
0.0008435
-4.98198e-06
0.000843346
-4.27425e-06
0.000843213
-3.57867e-06
0.000843094
-2.90109e-06
0.000842987
-2.23807e-06
0.000842884
-1.59437e-06
0.000842781
-9.6773e-07
0.00084267
-3.60343e-07
0.000842556
2.22833e-07
0.00084243
7.86891e-07
0.000842295
1.32232e-06
0.000842137
1.84215e-06
0.000841965
2.32477e-06
0.000841761
2.79881e-06
0.00084154
3.22249e-06
0.00084128
3.65072e-06
0.000841001
4.0093e-06
0.000840676
4.39382e-06
0.000840334
4.67967e-06
0.000839939
5.02488e-06
0.00083953
5.22867e-06
0.000839061
5.54279e-06
0.000838582
5.65375e-06
5.95451e-06
0.000941766
2.14356e-06
0.000942308
1.56557e-06
0.000942834
9.74397e-07
0.000943346
3.65041e-07
0.000943837
-2.55998e-07
0.000944275
-8.87363e-07
0.000944659
-1.54677e-06
0.000944989
-2.22992e-06
0.000945252
-2.93176e-06
0.00094544
-3.6521e-06
0.000945542
-4.39234e-06
0.000945552
-5.15266e-06
0.000945463
-5.93154e-06
0.000945268
-6.72624e-06
0.00094496
-7.53354e-06
0.000944535
-8.35011e-06
0.000943987
-9.1725e-06
0.000943314
-9.99679e-06
0.000942513
-1.08185e-05
0.000941585
-1.16326e-05
0.000940529
-1.24341e-05
0.000939349
-1.32176e-05
0.000938048
-1.3978e-05
0.00093663
-1.47102e-05
0.000935104
-1.5409e-05
0.000933476
-1.60696e-05
0.000931755
-1.66876e-05
0.000929953
-1.72587e-05
0.000928078
-1.77792e-05
0.000926144
-1.82459e-05
0.000924161
-1.8656e-05
0.000922143
-1.90072e-05
0.000920101
-1.92981e-05
0.000918049
-1.95275e-05
0.000915997
-1.96951e-05
0.000913957
-1.98005e-05
0.000911938
-1.98443e-05
0.000909951
-1.98272e-05
0.000908003
-1.97509e-05
0.000906103
-1.96169e-05
0.000904258
-1.94275e-05
0.000902475
-1.91846e-05
0.000900758
-1.88912e-05
0.000899114
-1.85493e-05
0.000897545
-1.81624e-05
0.000896054
-1.77326e-05
0.000894642
-1.72639e-05
0.00089331
-1.67583e-05
0.000892059
-1.62198e-05
0.000890886
-1.56505e-05
0.000889792
-1.50546e-05
0.000888774
-1.44338e-05
0.000887829
-1.37925e-05
0.000886954
-1.31316e-05
0.000886147
-1.24559e-05
0.000885404
-1.17659e-05
0.00088472
-1.10665e-05
0.000884092
-1.03575e-05
0.000883516
-9.64406e-06
0.000882988
-8.92542e-06
0.000882503
-8.20695e-06
0.000882058
-7.48728e-06
0.000881648
-6.77182e-06
0.00088127
-6.0589e-06
0.000880918
-5.35348e-06
0.00088059
-4.65397e-06
0.000880281
-3.96506e-06
0.000879987
-3.28529e-06
0.000879704
-2.61801e-06
0.000879432
-1.96568e-06
0.000879164
-1.32659e-06
0.000878902
-7.05575e-07
0.000878641
-9.95064e-08
0.000878372
4.92437e-07
0.00087809
1.06871e-06
0.000877801
1.61148e-06
0.000877493
2.1497e-06
0.000877176
2.64127e-06
0.000876836
3.13963e-06
0.000876484
3.57452e-06
0.000876101
4.03368e-06
0.000875706
4.40431e-06
0.000875273
4.82602e-06
0.00087483
5.12337e-06
0.000874343
5.51151e-06
0.000873847
5.72433e-06
0.000873304
6.08578e-06
0.000872758
6.20051e-06
6.54497e-06
0.000981834
1.68819e-06
0.000982268
1.13097e-06
0.000982672
5.70439e-07
0.000983026
1.14295e-08
0.000983355
-5.85435e-07
0.000983652
-1.18452e-06
0.000983899
-1.79329e-06
0.000984085
-2.41544e-06
0.000984206
-3.05307e-06
0.000984259
-3.70558e-06
0.000984239
-4.37165e-06
0.000984137
-5.05053e-06
0.000983947
-5.74153e-06
0.000983663
-6.44319e-06
0.000983283
-7.15316e-06
0.000982802
-7.86872e-06
0.000982216
-8.587e-06
0.000981524
-9.30493e-06
0.000980725
-1.0019e-05
0.000979818
-1.07254e-05
0.000978803
-1.14199e-05
0.000977684
-1.20983e-05
0.000976463
-1.27566e-05
0.000975143
-1.33906e-05
0.000973731
-1.39964e-05
0.000972231
-1.45699e-05
0.000970651
-1.51074e-05
0.000968998
-1.56054e-05
0.000967279
-1.60609e-05
0.000965504
-1.64709e-05
0.000963681
-1.68332e-05
0.00096182
-1.71456e-05
0.000959928
-1.74067e-05
0.000958016
-1.76148e-05
0.00095609
-1.77694e-05
0.000954159
-1.78696e-05
0.000952231
-1.79158e-05
0.000950312
-1.79082e-05
0.000948409
-1.78482e-05
0.000946529
-1.77369e-05
0.000944678
-1.75762e-05
0.000942861
-1.73674e-05
0.000941082
-1.71126e-05
0.000939346
-1.68132e-05
0.000937656
-1.64721e-05
0.000936014
-1.60907e-05
0.000934422
-1.56724e-05
0.000932882
-1.52185e-05
0.000931396
-1.47329e-05
0.000929962
-1.42167e-05
0.000928581
-1.36739e-05
0.000927253
-1.31058e-05
0.000925977
-1.25165e-05
0.000924752
-1.19067e-05
0.000923577
-1.1281e-05
0.000922451
-1.06394e-05
0.000921371
-9.98685e-06
0.000920337
-9.323e-06
0.000919345
-8.65285e-06
0.000918395
-7.97563e-06
0.000917485
-7.29657e-06
0.000916612
-6.61443e-06
0.000915775
-5.93433e-06
0.000914972
-5.25562e-06
0.0009142
-4.58224e-06
0.00091346
-3.91357e-06
0.000912747
-3.25264e-06
0.000912063
-2.6009e-06
0.000911403
-1.95807e-06
0.000910766
-1.32875e-06
0.000910149
-7.09646e-07
0.00090956
-1.16815e-07
0.000908971
4.90366e-07
0.000908401
1.06254e-06
0.000907838
1.63138e-06
0.000907288
2.1609e-06
0.000906743
2.69508e-06
0.000906208
3.17636e-06
0.000905671
3.67689e-06
0.000905141
4.1044e-06
0.000904603
4.57177e-06
0.000904069
4.93775e-06
0.000903521
5.37422e-06
0.000902975
5.66944e-06
0.000902408
6.07865e-06
0.000901841
6.29086e-06
0.000901249
6.67771e-06
0.00090066
6.78979e-06
7.15358e-06
0.00102033
1.50157e-06
0.00102048
9.7596e-07
0.0010206
4.53243e-07
0.00102068
-6.75951e-08
0.00102071
-6.21797e-07
0.0010207
-1.17292e-06
0.00102064
-1.72835e-06
0.00102051
-2.29049e-06
0.00102032
-2.86065e-06
0.00102005
-3.43959e-06
0.00101971
-4.02734e-06
0.00101928
-4.62335e-06
0.00101877
-5.2267e-06
0.00101816
-5.83608e-06
0.00101746
-6.4498e-06
0.00101665
-7.06584e-06
0.00101575
-7.68196e-06
0.00101474
-8.29571e-06
0.00101362
-8.90438e-06
0.0010124
-9.50493e-06
0.00101108
-1.00941e-05
0.00100965
-1.06684e-05
0.00100812
-1.12246e-05
0.00100649
-1.17593e-05
0.00100476
-1.22695e-05
0.00100294
-1.27517e-05
0.00100104
-1.32028e-05
0.00099905
-1.36201e-05
0.00099699
-1.40009e-05
0.000994862
-1.43427e-05
0.000992672
-1.46437e-05
0.000990429
-1.49018e-05
0.000988137
-1.51155e-05
0.000985806
-1.52836e-05
0.000983442
-1.54052e-05
0.000981052
-1.54796e-05
0.000978643
-1.55066e-05
0.000976221
-1.54861e-05
0.000973792
-1.54195e-05
0.000971363
-1.5308e-05
0.00096894
-1.51532e-05
0.000966528
-1.49557e-05
0.000964133
-1.47175e-05
0.000961759
-1.44394e-05
0.000959411
-1.41236e-05
0.000957092
-1.37714e-05
0.000954805
-1.33855e-05
0.000952553
-1.29672e-05
0.00095034
-1.25199e-05
0.000948168
-1.20445e-05
0.000946039
-1.15447e-05
0.000943955
-1.10214e-05
0.000941917
-1.04786e-05
0.000939927
-9.9168e-06
0.000937987
-9.34073e-06
0.000936098
-8.75046e-06
0.000934261
-8.15015e-06
0.000932478
-7.53989e-06
0.000930749
-6.92413e-06
0.000929076
-6.30254e-06
0.000927459
-5.67982e-06
0.0009259
-5.0547e-06
0.000924397
-4.43172e-06
0.000922953
-3.81131e-06
0.000921566
-3.19602e-06
0.000920239
-2.58647e-06
0.00091897
-1.98367e-06
0.000917761
-1.39159e-06
0.000916612
-8.09292e-07
0.00091553
-2.46166e-07
0.000914497
3.23234e-07
0.000913509
8.71031e-07
0.000912584
1.41525e-06
0.000911717
1.9295e-06
0.000910905
2.44378e-06
0.000910148
2.91766e-06
0.00090944
3.40312e-06
0.000908783
3.83374e-06
0.000908169
4.29067e-06
0.000907601
4.67223e-06
0.00090707
5.10252e-06
0.000906579
5.42892e-06
0.000906117
5.83577e-06
0.000905688
6.09908e-06
0.000905279
6.48704e-06
0.000904894
6.67645e-06
0.000904521
7.05052e-06
0.000904161
7.14962e-06
7.50366e-06
0.00101163
1.38082e-06
0.00101172
8.93061e-07
0.00101176
4.11902e-07
0.00101175
-6.26997e-08
0.00101169
-5.58432e-07
0.00101156
-1.0483e-06
0.00101137
-1.53805e-06
0.00101111
-2.02935e-06
0.00101077
-2.5229e-06
0.00101035
-3.01915e-06
0.00100985
-3.51844e-06
0.00100924
-4.02075e-06
0.00100854
-4.52556e-06
0.00100774
-5.03193e-06
0.00100683
-5.53851e-06
0.0010058
-6.04373e-06
0.00100467
-6.54592e-06
0.00100342
-7.04329e-06
0.00100204
-7.53385e-06
0.00100056
-8.01533e-06
0.000998946
-8.48522e-06
0.000997219
-8.94085e-06
0.000995374
-9.37962e-06
0.000993413
-9.79893e-06
0.00099134
-1.01963e-05
0.000989158
-1.05691e-05
0.00098687
-1.0915e-05
0.000984482
-1.12318e-05
0.000981998
-1.15173e-05
0.000979425
-1.17696e-05
0.000976768
-1.1987e-05
0.000974034
-1.21679e-05
0.00097123
-1.23111e-05
0.000968362
-1.24156e-05
0.000965437
-1.24805e-05
0.000962463
-1.2505e-05
0.000959445
-1.24891e-05
0.000956393
-1.24338e-05
0.000953313
-1.23394e-05
0.000950211
-1.22068e-05
0.000947095
-1.20369e-05
0.00094397
-1.18306e-05
0.000940842
-1.15893e-05
0.000937716
-1.13139e-05
0.000934599
-1.10065e-05
0.000931496
-1.06683e-05
0.000928413
-1.03016e-05
0.000925353
-9.90786e-06
0.000922323
-9.48967e-06
0.000919327
-9.04842e-06
0.000916369
-8.58732e-06
0.000913456
-8.10764e-06
0.000910589
-7.61231e-06
0.000907775
-7.10222e-06
0.000905015
-6.58131e-06
0.000902316
-6.05064e-06
0.000899679
-5.51384e-06
0.000897111
-4.97142e-06
0.000894614
-4.4273e-06
0.000892193
-3.88199e-06
0.000889852
-3.33873e-06
0.000887597
-2.799e-06
0.000885431
-2.26637e-06
0.000883359
-1.73952e-06
0.000881383
-1.21983e-06
0.000879507
-7.10445e-07
0.000877735
-2.11797e-07
0.000876063
2.81072e-07
0.000874491
7.62013e-07
0.000873017
1.2279e-06
0.000871653
1.68742e-06
0.000870402
2.12204e-06
0.000869266
2.55124e-06
0.000868243
2.9522e-06
0.000867332
3.35534e-06
0.00086653
3.71999e-06
0.000865837
4.09611e-06
0.000865249
4.42153e-06
0.000864766
4.77313e-06
0.000864382
5.05674e-06
0.000864097
5.38729e-06
0.0008639
5.62587e-06
0.000863796
5.94033e-06
0.000863765
6.12986e-06
0.000863817
6.43471e-06
0.000863924
6.56958e-06
0.000864102
6.87264e-06
0.000864307
6.94416e-06
7.24974e-06
0.000930671
1.05596e-06
0.000930953
6.1043e-07
0.000931189
1.76707e-07
0.000931386
-2.60257e-07
0.000931523
-6.94921e-07
0.000931596
-1.12177e-06
0.000931601
-1.54304e-06
0.000931532
-1.96008e-06
0.000931383
-2.37375e-06
0.000931148
-2.78413e-06
0.00093082
-3.19099e-06
0.000930394
-3.59426e-06
0.000929862
-3.9938e-06
0.000929219
-4.38909e-06
0.00092846
-4.77924e-06
0.000927579
-5.16317e-06
0.000926573
-5.53989e-06
0.000925438
-5.90839e-06
0.000924172
-6.26725e-06
0.000922771
-6.61491e-06
0.000921236
-6.9497e-06
0.000919565
-7.2698e-06
0.000917758
-7.57328e-06
0.000915818
-7.85821e-06
0.000913744
-8.12275e-06
0.00091154
-8.36517e-06
0.000909209
-8.58383e-06
0.000906754
-8.77711e-06
0.000904181
-8.94345e-06
0.000901492
-9.08143e-06
0.000898695
-9.18986e-06
0.000895795
-9.26774e-06
0.000892798
-9.31423e-06
0.000889711
-9.32856e-06
0.000886541
-9.31025e-06
0.000883295
-9.25896e-06
0.000879981
-9.17493e-06
0.000876605
-9.0585e-06
0.000873176
-8.91021e-06
0.0008697
-8.73067e-06
0.000866184
-8.52078e-06
0.000862635
-8.28148e-06
0.00085906
-8.01398e-06
0.000855465
-7.71937e-06
0.000851858
-7.3994e-06
0.000848245
-7.05554e-06
0.000844634
-6.69023e-06
0.000841031
-6.30534e-06
0.000837444
-5.90277e-06
0.00083388
-5.48427e-06
0.000830346
-5.05274e-06
0.000826848
-4.61022e-06
0.000823396
-4.16027e-06
0.000819998
-3.7045e-06
0.000816662
-3.24472e-06
0.000813393
-2.78185e-06
0.000810198
-2.31917e-06
0.000807085
-1.8584e-06
0.00080406
-1.40248e-06
0.000801131
-9.52319e-07
0.000798301
-5.09004e-07
0.000795573
-7.12046e-08
0.000792969
3.38129e-07
0.000790489
7.39916e-07
0.000788141
1.12891e-06
0.000785929
1.50107e-06
0.000783858
1.85958e-06
0.000781938
2.20078e-06
0.000780172
2.52804e-06
0.000778567
2.83245e-06
0.00077713
3.12525e-06
0.000775857
3.39438e-06
0.000774752
3.6565e-06
0.000773814
3.88985e-06
0.000773048
4.12207e-06
0.000772448
4.3196e-06
0.000772018
4.52574e-06
0.000771751
4.68906e-06
0.00077165
4.87402e-06
0.000771702
5.0045e-06
0.000771916
5.17389e-06
0.000772268
5.27312e-06
0.000772775
5.43343e-06
0.000773402
5.50329e-06
0.000774175
5.66183e-06
0.000775039
5.70493e-06
0.000776041
5.87064e-06
0.000777093
5.89291e-06
6.08915e-06
0.000784027
1.59612e-07
0.000784895
-2.57918e-07
0.000785734
-6.61878e-07
0.000786528
-1.05491e-06
0.000787269
-1.43568e-06
0.000787952
-1.80438e-06
0.00078857
-2.16129e-06
0.000789116
-2.50658e-06
0.000789583
-2.84052e-06
0.000789962
-3.16343e-06
0.000790247
-3.47534e-06
0.000790429
-3.77609e-06
0.0007905
-4.06552e-06
0.000790455
-4.3435e-06
0.000790285
-4.60984e-06
0.000789986
-4.86422e-06
0.000789553
-5.10615e-06
0.000788979
-5.33494e-06
0.000788262
-5.54978e-06
0.000787397
-5.7499e-06
0.000786381
-5.93449e-06
0.000785214
-6.10261e-06
0.000783894
-6.25314e-06
0.000782421
-6.38489e-06
0.000780795
-6.49676e-06
0.000779017
-6.58782e-06
0.000777091
-6.65716e-06
0.000775018
-6.70386e-06
0.000772801
-6.72702e-06
0.000770446
-6.72586e-06
0.000767955
-6.69977e-06
0.000765336
-6.6483e-06
0.000762593
-6.57113e-06
0.000759732
-6.468e-06
0.000756761
-6.33885e-06
0.000753686
-6.18371e-06
0.000750513
-6.0027e-06
0.000747251
-5.79612e-06
0.000743906
-5.56472e-06
0.000740485
-5.30972e-06
0.000736997
-5.03289e-06
0.000733451
-4.73574e-06
0.000729856
-4.41944e-06
0.000726222
-4.08487e-06
0.000722556
-3.73375e-06
0.000718869
-3.36783e-06
0.000715168
-2.98959e-06
0.000711463
-2.60072e-06
0.000707764
-2.2034e-06
0.00070408
-1.79984e-06
0.000700419
-1.39246e-06
0.000696793
-9.83486e-07
0.000693207
-5.75089e-07
0.00068967
-1.67231e-07
0.000686201
2.23936e-07
0.000682814
6.05991e-07
0.000679517
9.77104e-07
0.000676324
1.33496e-06
0.000673244
1.67715e-06
0.00067029
2.00168e-06
0.000667474
2.30716e-06
0.000664812
2.59102e-06
0.000662298
2.85234e-06
0.000659946
3.09186e-06
0.000657764
3.31108e-06
0.000655758
3.50663e-06
0.000653937
3.68061e-06
0.000652307
3.83039e-06
0.000650874
3.96172e-06
0.000649638
4.06868e-06
0.000648602
4.1605e-06
0.00064777
4.22688e-06
0.000647143
4.28295e-06
0.000646721
4.31217e-06
0.000646504
4.33861e-06
0.000646488
4.33564e-06
0.000646675
4.33956e-06
0.000647054
4.30972e-06
0.000647629
4.29882e-06
0.000648386
4.24759e-06
0.000649331
4.22911e-06
0.000650442
4.16241e-06
0.000651732
4.14301e-06
0.000653166
4.06885e-06
0.000654775
4.05336e-06
0.000656497
3.98254e-06
0.000658395
3.97272e-06
0.000660362
3.92573e-06
3.93118e-06
0.000610225
-1.92704e-06
0.000612251
-2.2838e-06
0.00061421
-2.62064e-06
0.000616094
-2.93847e-06
0.000617896
-3.23754e-06
0.000619609
-3.51778e-06
0.000621227
-3.77934e-06
0.000622743
-4.02249e-06
0.00062415
-4.24741e-06
0.000625441
-4.45426e-06
0.000626609
-4.64328e-06
0.000627647
-4.81482e-06
0.000628551
-4.96909e-06
0.000629313
-5.10611e-06
0.00062993
-5.2259e-06
0.000630394
-5.32855e-06
0.000630702
-5.41428e-06
0.00063085
-5.48327e-06
0.000630836
-5.53555e-06
0.000630657
-5.57104e-06
0.000630312
-5.58944e-06
0.0006298
-5.59025e-06
0.00062912
-5.57282e-06
0.000628271
-5.53658e-06
0.000627256
-5.48116e-06
0.000626074
-5.40649e-06
0.00062473
-5.31264e-06
0.000623226
-5.19964e-06
0.000621566
-5.06745e-06
0.000619756
-4.91598e-06
0.000617802
-4.74521e-06
0.000615708
-4.55521e-06
0.000613484
-4.34632e-06
0.000611134
-4.11886e-06
0.000608669
-3.87312e-06
0.000606095
-3.60991e-06