/*--------------------------------*- C++ -*----------------------------------*\
| =========                 |                                                 |
| \\      /  F ield         | OpenFOAM: The Open Source CFD Toolbox           |
|  \\    /   O peration     | Version:  2312                                  |
|   \\  /    A nd           | Website:  www.openfoam.com                      |
|    \\/     M anipulation  |                                                 |
\*---------------------------------------------------------------------------*/
FoamFile
{
    version     2.0;
    format      ascii;
    arch        "LSB;label=32;scalar=64";
    class       volVectorField;
    location    "135000";
    object      U;
}
// * * * * * * * * * * * * * * * * * * * * * * * * * * * * * * * * * * * * * //

dimensions      [0 1 -1 0 0 0 0];

internalField   nonuniform List<vector> 
2685
(
(6.17778e-07 -1.34416e-06 0)
(5.80806e-07 -1.02346e-06 0)
(4.12742e-07 -6.97386e-07 0)
(1.21021e-07 -3.80588e-07 0)
(-2.78653e-07 -8.13274e-08 0)
(-7.65695e-07 1.9267e-07 0)
(-1.32301e-06 4.35805e-07 0)
(-1.93138e-06 6.43933e-07 0)
(-2.57021e-06 8.14049e-07 0)
(-3.21789e-06 9.44195e-07 0)
(-3.8525e-06 1.03357e-06 0)
(-4.45298e-06 1.08288e-06 0)
(-5.00068e-06 1.0951e-06 0)
(-5.47565e-06 1.07641e-06 0)
(-5.85731e-06 1.0311e-06 0)
(-6.12886e-06 9.59521e-07 0)
(-6.27637e-06 8.63532e-07 0)
(-6.29146e-06 7.45402e-07 0)
(-6.17182e-06 6.09157e-07 0)
(-5.91685e-06 4.61693e-07 0)
(-5.52532e-06 3.08864e-07 0)
(-4.99994e-06 1.56251e-07 0)
(-4.34692e-06 9.01228e-09 0)
(-3.57591e-06 -1.28218e-07 0)
(-2.69974e-06 -2.51243e-07 0)
(-1.73415e-06 -3.56281e-07 0)
(-6.98223e-07 -4.4001e-07 0)
(3.8917e-07 -4.98784e-07 0)
(1.51348e-06 -5.30333e-07 0)
(2.65175e-06 -5.36457e-07 0)
(3.77549e-06 -5.17046e-07 0)
(4.86238e-06 -4.71944e-07 0)
(5.89009e-06 -4.01405e-07 0)
(6.83738e-06 -3.06066e-07 0)
(7.68593e-06 -1.86837e-07 0)
(8.4197e-06 -4.58286e-08 0)
(9.02452e-06 1.1468e-07 0)
(9.48965e-06 2.91874e-07 0)
(9.80739e-06 4.82603e-07 0)
(9.97345e-06 6.83432e-07 0)
(9.9902e-06 8.9104e-07 0)
(9.86619e-06 1.10029e-06 0)
(9.61258e-06 1.30426e-06 0)
(9.24118e-06 1.49721e-06 0)
(8.76839e-06 1.6744e-06 0)
(8.21406e-06 1.8313e-06 0)
(7.5996e-06 1.9645e-06 0)
(6.95133e-06 2.07235e-06 0)
(6.30133e-06 2.15259e-06 0)
(5.68143e-06 2.20206e-06 0)
(5.12375e-06 2.21927e-06 0)
(4.66584e-06 2.20251e-06 0)
(4.34103e-06 2.14909e-06 0)
(4.18439e-06 2.05892e-06 0)
(4.22434e-06 1.92926e-06 0)
(4.48645e-06 1.76428e-06 0)
(5.00031e-06 1.56668e-06 0)
(5.79038e-06 1.33946e-06 0)
(6.87879e-06 1.08639e-06 0)
(8.28503e-06 8.11139e-07 0)
(1.00248e-05 5.17632e-07 0)
(1.21102e-05 2.09767e-07 0)
(1.45492e-05 -1.08266e-07 0)
(1.73463e-05 -4.32551e-07 0)
(2.05016e-05 -7.58895e-07 0)
(2.40122e-05 -1.08368e-06 0)
(2.78708e-05 -1.40295e-06 0)
(3.20679e-05 -1.71369e-06 0)
(3.65896e-05 -2.0124e-06 0)
(4.14212e-05 -2.29696e-06 0)
(4.65433e-05 -2.56443e-06 0)
(5.19374e-05 -2.81378e-06 0)
(5.75804e-05 -3.04271e-06 0)
(6.34512e-05 -3.25126e-06 0)
(6.95247e-05 -3.43765e-06 0)
(7.57785e-05 -3.60283e-06 0)
(8.21878e-05 -3.74568e-06 0)
(8.87284e-05 -3.86747e-06 0)
(9.53809e-05 -3.96874e-06 0)
(0.000102115 -4.04941e-06 0)
(0.000108926 -4.1147e-06 0)
(0.000115762 -4.15796e-06 0)
(0.000122663 -4.19719e-06 0)
(0.000129501 -4.20271e-06 0)
(0.000136461 -4.23205e-06 0)
(0.000143135 -4.17588e-06 0)
(0.000150345 -4.23651e-06 0)
(0.000156135 -4.01746e-06 0)
(0.000165543 -4.12957e-06 0)
(0.00010572 1.22929e-06 0)
(0.000105892 1.56734e-06 0)
(0.000105977 1.83335e-06 0)
(0.000105978 2.03362e-06 0)
(0.000105922 2.17326e-06 0)
(0.000105833 2.25353e-06 0)
(0.000105733 2.27493e-06 0)
(0.000105643 2.23727e-06 0)
(0.000105583 2.13998e-06 0)
(0.000105576 1.98249e-06 0)
(0.000105645 1.76497e-06 0)
(0.000105812 1.4894e-06 0)
(0.000106103 1.16021e-06 0)
(0.000106533 7.84638e-07 0)
(0.000107108 3.70803e-07 0)
(0.000107832 -7.03704e-08 0)
(0.000108716 -5.30166e-07 0)
(0.00010977 -1.00119e-06 0)
(0.000111001 -1.47565e-06 0)
(0.000112412 -1.94426e-06 0)
(0.000113998 -2.39816e-06 0)
(0.000115752 -2.82845e-06 0)
(0.000117664 -3.22568e-06 0)
(0.00011972 -3.58017e-06 0)
(0.000121906 -3.88296e-06 0)
(0.000124205 -4.1264e-06 0)
(0.000126599 -4.30413e-06 0)
(0.000129067 -4.41096e-06 0)
(0.000131587 -4.44328e-06 0)
(0.000134137 -4.40214e-06 0)
(0.000136693 -4.2892e-06 0)
(0.000139236 -4.10805e-06 0)
(0.000141747 -3.86349e-06 0)
(0.00014421 -3.56195e-06 0)
(0.000146608 -3.21055e-06 0)
(0.000148928 -2.81808e-06 0)
(0.00015116 -2.39461e-06 0)
(0.000153298 -1.9516e-06 0)
(0.000155338 -1.50133e-06 0)
(0.000157282 -1.05662e-06 0)
(0.000159133 -6.29935e-07 0)
(0.000160896 -2.3496e-07 0)
(0.000162583 1.13709e-07 0)
(0.000164214 4.02349e-07 0)
(0.00016581 6.18747e-07 0)
(0.000167395 7.51993e-07 0)
(0.000168997 7.93366e-07 0)
(0.000170645 7.36566e-07 0)
(0.000172366 5.76973e-07 0)
(0.000174189 3.10247e-07 0)
(0.000176144 -6.54453e-08 0)
(0.000178264 -5.49847e-07 0)
(0.000180577 -1.14319e-06 0)
(0.000183111 -1.84293e-06 0)
(0.000185896 -2.6473e-06 0)
(0.000188967 -3.54735e-06 0)
(0.000192345 -4.53194e-06 0)
(0.000196049 -5.59095e-06 0)
(0.000200096 -6.71327e-06 0)
(0.000204501 -7.88801e-06 0)
(0.000209271 -9.10249e-06 0)
(0.000214416 -1.03447e-05 0)
(0.000219937 -1.16007e-05 0)
(0.000225837 -1.28586e-05 0)
(0.000232109 -1.41045e-05 0)
(0.000238749 -1.53279e-05 0)
(0.000245744 -1.65154e-05 0)
(0.000253085 -1.76592e-05 0)
(0.000260751 -1.87466e-05 0)
(0.00026873 -1.97732e-05 0)
(0.000276994 -2.07275e-05 0)
(0.00028553 -2.16095e-05 0)
(0.000294307 -2.24078e-05 0)
(0.000303306 -2.31274e-05 0)
(0.000312505 -2.37563e-05 0)
(0.000321864 -2.43056e-05 0)
(0.000331394 -2.47602e-05 0)
(0.000341002 -2.514e-05 0)
(0.000350789 -2.54235e-05 0)
(0.000360513 -2.56447e-05 0)
(0.00037052 -2.57671e-05 0)
(0.000380178 -2.58534e-05 0)
(0.000390469 -2.58285e-05 0)
(0.000399749 -2.58187e-05 0)
(0.000410624 -2.56518e-05 0)
(0.000418883 -2.56033e-05 0)
(0.000431202 -2.52741e-05 0)
(0.000437011 -2.52648e-05 0)
(0.000452904 -2.47545e-05 0)
(0.00035037 -2.46347e-06 0)
(0.0003494 -1.77989e-06 0)
(0.000348578 -1.16823e-06 0)
(0.000347914 -6.33193e-07 0)
(0.000347391 -1.8224e-07 0)
(0.000346993 1.75622e-07 0)
(0.000346712 4.31516e-07 0)
(0.000346541 5.77359e-07 0)
(0.000346477 6.06073e-07 0)
(0.000346521 5.10991e-07 0)
(0.000346676 2.8593e-07 0)
(0.000346946 -6.98196e-08 0)
(0.000347335 -5.47342e-07 0)
(0.000347849 -1.13586e-06 0)
(0.00034851 -1.82279e-06 0)
(0.00034933 -2.58878e-06 0)
(0.000350304 -3.41204e-06 0)
(0.000351424 -4.2691e-06 0)
(0.000352691 -5.14187e-06 0)
(0.000354101 -6.0167e-06 0)
(0.000355656 -6.87887e-06 0)
(0.000357354 -7.71255e-06 0)
(0.000359192 -8.50108e-06 0)
(0.000361167 -9.2276e-06 0)
(0.000363275 -9.87644e-06 0)
(0.000365508 -1.04343e-05 0)
(0.000367858 -1.08905e-05 0)
(0.000370317 -1.12365e-05 0)
(0.000372872 -1.14663e-05 0)
(0.000375514 -1.15766e-05 0)
(0.000378228 -1.15672e-05 0)
(0.000381003 -1.14417e-05 0)
(0.000383828 -1.12071e-05 0)
(0.000386694 -1.08728e-05 0)
(0.00038959 -1.0451e-05 0)
(0.000392509 -9.95593e-06 0)
(0.000395443 -9.40396e-06 0)
(0.000398385 -8.8133e-06 0)
(0.000401332 -8.20397e-06 0)
(0.000404282 -7.59795e-06 0)
(0.000407235 -7.01841e-06 0)
(0.000410194 -6.48713e-06 0)
(0.000413163 -6.02321e-06 0)
(0.000416148 -5.64557e-06 0)
(0.000419158 -5.37195e-06 0)
(0.000422204 -5.21894e-06 0)
(0.000425298 -5.20178e-06 0)
(0.000428455 -5.33524e-06 0)
(0.000431691 -5.63065e-06 0)
(0.000435022 -6.09658e-06 0)
(0.000438465 -6.7376e-06 0)
(0.000442036 -7.55544e-06 0)
(0.000445753 -8.54653e-06 0)
(0.000449632 -9.70323e-06 0)
(0.000453686 -1.10109e-05 0)
(0.000457935 -1.2458e-05 0)
(0.000462388 -1.403e-05 0)
(0.000467063 -1.57137e-05 0)
(0.000471967 -1.74903e-05 0)
(0.000477116 -1.93442e-05 0)
(0.000482508 -2.12532e-05 0)
(0.000488157 -2.32017e-05 0)
(0.000494055 -2.51651e-05 0)
(0.000500213 -2.713e-05 0)
(0.000506616 -2.90695e-05 0)
(0.000513274 -3.09751e-05 0)
(0.000520163 -3.28176e-05 0)
(0.000527291 -3.4596e-05 0)
(0.000534633 -3.62775e-05 0)
(0.000542186 -3.78726e-05 0)
(0.000549936 -3.93418e-05 0)
(0.000557854 -4.07139e-05 0)
(0.000565961 -4.19373e-05 0)
(0.000574169 -4.30664e-05 0)
(0.000582588 -4.4026e-05 0)
(0.000590994 -4.49079e-05 0)
(0.000599689 -4.55959e-05 0)
(0.000608177 -4.62394e-05 0)
(0.000617147 -4.66555e-05 0)
(0.000625555 -4.70833e-05 0)
(0.000634863 -4.72333e-05 0)
(0.000642959 -4.74817e-05 0)
(0.000652779 -4.7378e-05 0)
(0.000660201 -4.74978e-05 0)
(0.000670906 -4.71636e-05 0)
(0.000677064 -4.72147e-05 0)
(0.000689359 -4.66981e-05 0)
(0.000693269 -4.67283e-05 0)
(0.000708392 -4.61496e-05 0)
(0.000740694 6.25868e-06 0)
(0.000736677 5.94278e-06 0)
(0.000732765 5.5914e-06 0)
(0.000728976 5.20309e-06 0)
(0.000725333 4.77822e-06 0)
(0.000721853 4.31563e-06 0)
(0.000718553 3.80753e-06 0)
(0.000715448 3.24358e-06 0)
(0.000712549 2.61326e-06 0)
(0.000709868 1.90105e-06 0)
(0.000707416 1.09814e-06 0)
(0.000705188 2.13019e-07 0)
(0.000703177 -7.52597e-07 0)
(0.000701396 -1.80615e-06 0)
(0.000699835 -2.93139e-06 0)
(0.000698479 -4.09235e-06 0)
(0.000697317 -5.26504e-06 0)
(0.00069635 -6.44125e-06 0)
(0.00069557 -7.61285e-06 0)
(0.000694969 -8.77269e-06 0)
(0.000694535 -9.90656e-06 0)
(0.000694255 -1.09976e-05 0)
(0.000694119 -1.20306e-05 0)
(0.000694117 -1.29899e-05 0)
(0.00069424 -1.38605e-05 0)
(0.000694482 -1.46319e-05 0)
(0.000694834 -1.52959e-05 0)
(0.000695287 -1.58422e-05 0)
(0.000695834 -1.62607e-05 0)
(0.000696466 -1.65471e-05 0)
(0.000697179 -1.67041e-05 0)
(0.000697972 -1.67376e-05 0)
(0.000698848 -1.66558e-05 0)
(0.00069981 -1.64692e-05 0)
(0.00070086 -1.61906e-05 0)
(0.000702002 -1.58359e-05 0)
(0.000703239 -1.54232e-05 0)
(0.000704577 -1.49727e-05 0)
(0.000706018 -1.45061e-05 0)
(0.00070757 -1.40463e-05 0)
(0.000709234 -1.36163e-05 0)
(0.000711014 -1.324e-05 0)
(0.000712912 -1.294e-05 0)
(0.000714932 -1.27386e-05 0)
(0.000717074 -1.26548e-05 0)
(0.000719344 -1.27068e-05 0)
(0.000721742 -1.29091e-05 0)
(0.000724274 -1.32753e-05 0)
(0.000726938 -1.38138e-05 0)
(0.000729742 -1.45317e-05 0)
(0.000732683 -1.54296e-05 0)
(0.00073577 -1.65092e-05 0)
(0.000739 -1.77667e-05 0)
(0.000742385 -1.92017e-05 0)
(0.000745917 -2.08039e-05 0)
(0.00074961 -2.25676e-05 0)
(0.000753451 -2.44726e-05 0)
(0.000757456 -2.65091e-05 0)
(0.000761608 -2.86491e-05 0)
(0.000765925 -3.08825e-05 0)
(0.000770384 -3.31743e-05 0)
(0.000775009 -3.5518e-05 0)
(0.000779772 -3.78706e-05 0)
(0.000784694 -4.02337e-05 0)
(0.000789748 -4.25553e-05 0)
(0.000794952 -4.48502e-05 0)
(0.000800282 -4.70541e-05 0)
(0.000805743 -4.92027e-05 0)
(0.000811329 -5.12135e-05 0)
(0.000817015 -5.31518e-05 0)
(0.000822839 -5.49081e-05 0)
(0.000828705 -5.6589e-05 0)
(0.000834748 -5.80444e-05 0)
(0.000840739 -5.94378e-05 0)
(0.000846993 -6.05602e-05 0)
(0.000853042 -6.16556e-05 0)
(0.00085952 -6.24316e-05 0)
(0.000865538 -6.32402e-05 0)
(0.000872282 -6.36726e-05 0)
(0.000878143 -6.42229e-05 0)
(0.00088524 -6.43254e-05 0)
(0.000890766 -6.46575e-05 0)
(0.000898371 -6.4455e-05 0)
(0.000903301 -6.46196e-05 0)
(0.000911678 -6.41529e-05 0)
(0.000915625 -6.42074e-05 0)
(0.000925191 -6.3545e-05 0)
(0.000927582 -6.35488e-05 0)
(0.000938973 -6.28094e-05 0)
(0.00108015 1.40757e-05 0)
(0.00107923 1.43268e-05 0)
(0.00107829 1.44469e-05 0)
(0.00107733 1.44276e-05 0)
(0.00107634 1.42616e-05 0)
(0.00107532 1.39466e-05 0)
(0.00107427 1.34796e-05 0)
(0.00107318 1.28596e-05 0)
(0.00107204 1.2089e-05 0)
(0.00107087 1.11683e-05 0)
(0.00106964 1.0105e-05 0)
(0.00106834 8.91238e-06 0)
(0.00106698 7.60082e-06 0)
(0.00106554 6.19299e-06 0)
(0.001064 4.71541e-06 0)
(0.00106239 3.18389e-06 0)
(0.0010607 1.62095e-06 0)
(0.00105892 4.72596e-08 0)
(0.00105705 -1.5232e-06 0)
(0.00105511 -3.0681e-06 0)
(0.0010531 -4.56743e-06 0)
(0.00105104 -6.01003e-06 0)
(0.00104891 -7.38411e-06 0)
(0.00104672 -8.67429e-06 0)
(0.00104448 -9.86643e-06 0)
(0.00104219 -1.09494e-05 0)
(0.00103987 -1.19142e-05 0)
(0.00103753 -1.27544e-05 0)
(0.00103519 -1.34664e-05 0)
(0.00103287 -1.40504e-05 0)
(0.00103057 -1.45101e-05 0)
(0.00102833 -1.48529e-05 0)
(0.00102616 -1.5088e-05 0)
(0.00102407 -1.52264e-05 0)
(0.00102209 -1.52805e-05 0)
(0.00102021 -1.52653e-05 0)
(0.00101847 -1.51973e-05 0)
(0.00101687 -1.50954e-05 0)
(0.00101543 -1.49793e-05 0)
(0.00101415 -1.48704e-05 0)
(0.00101305 -1.47901e-05 0)
(0.00101213 -1.47615e-05 0)
(0.00101139 -1.48053e-05 0)
(0.00101084 -1.49432e-05 0)
(0.00101047 -1.51926e-05 0)
(0.00101028 -1.55722e-05 0)
(0.00101028 -1.60954e-05 0)
(0.00101046 -1.67783e-05 0)
(0.00101082 -1.76284e-05 0)
(0.00101135 -1.86569e-05 0)
(0.00101203 -1.98625e-05 0)
(0.00101288 -2.12518e-05 0)
(0.00101387 -2.2815e-05 0)
(0.00101501 -2.4555e-05 0)
(0.00101627 -2.64521e-05 0)
(0.00101766 -2.8507e-05 0)
(0.00101916 -3.06901e-05 0)
(0.00102078 -3.30029e-05 0)
(0.0010225 -3.54046e-05 0)
(0.00102433 -3.79012e-05 0)
(0.00102623 -4.04392e-05 0)
(0.00102825 -4.30341e-05 0)
(0.00103033 -4.56172e-05 0)
(0.00103251 -4.82202e-05 0)
(0.00103475 -5.07557e-05 0)
(0.00103708 -5.32797e-05 0)
(0.00103947 -5.56802e-05 0)
(0.00104194 -5.80474e-05 0)
(0.00104449 -6.02363e-05 0)
(0.00104708 -6.23836e-05 0)
(0.0010498 -6.42987e-05 0)
(0.00105251 -6.61798e-05 0)
(0.00105541 -6.77744e-05 0)
(0.00105822 -6.93611e-05 0)
(0.00106132 -7.06046e-05 0)
(0.00106421 -7.18873e-05 0)
(0.00106756 -7.27651e-05 0)
(0.00107047 -7.37507e-05 0)
(0.00107413 -7.42607e-05 0)
(0.00107701 -7.49703e-05 0)
(0.00108104 -7.51243e-05 0)
(0.00108379 -7.55925e-05 0)
(0.0010883 -7.5416e-05 0)
(0.00109078 -7.56878e-05 0)
(0.00109592 -7.52218e-05 0)
(0.00109791 -7.53494e-05 0)
(0.00110388 -7.46561e-05 0)
(0.00110509 -7.46949e-05 0)
(0.00111215 -7.38664e-05 0)
(0.00125748 1.17348e-05 0)
(0.00125935 1.14998e-05 0)
(0.00126137 1.12397e-05 0)
(0.00126351 1.09479e-05 0)
(0.00126574 1.06178e-05 0)
(0.00126802 1.0243e-05 0)
(0.00127033 9.81644e-06 0)
(0.00127263 9.33305e-06 0)
(0.00127489 8.78913e-06 0)
(0.00127708 8.1817e-06 0)
(0.00127916 7.51044e-06 0)
(0.00128112 6.77826e-06 0)
(0.00128292 5.99033e-06 0)
(0.00128456 5.15012e-06 0)
(0.00128599 4.26858e-06 0)
(0.0012872 3.35811e-06 0)
(0.00128818 2.42829e-06 0)
(0.0012889 1.49533e-06 0)
(0.00128935 5.73086e-07 0)
(0.00128955 -3.26853e-07 0)
(0.00128947 -1.19738e-06 0)
(0.0012891 -2.03167e-06 0)
(0.00128845 -2.82224e-06 0)
(0.00128751 -3.56151e-06 0)
(0.00128632 -4.24159e-06 0)
(0.00128486 -4.85675e-06 0)
(0.00128315 -5.40414e-06 0)
(0.0012812 -5.88254e-06 0)
(0.00127903 -6.29238e-06 0)
(0.00127667 -6.63728e-06 0)
(0.00127412 -6.92298e-06 0)
(0.00127142 -7.15709e-06 0)
(0.00126857 -7.34834e-06 0)
(0.00126562 -7.50844e-06 0)
(0.00126257 -7.64932e-06 0)
(0.00125946 -7.78288e-06 0)
(0.0012563 -7.92154e-06 0)
(0.00125313 -8.08028e-06 0)
(0.00124996 -8.27261e-06 0)
(0.00124682 -8.51473e-06 0)
(0.00124373 -8.82036e-06 0)
(0.00124071 -9.20572e-06 0)
(0.00123777 -9.68215e-06 0)
(0.00123493 -1.02655e-05 0)
(0.0012322 -1.09665e-05 0)
(0.00122959 -1.1803e-05 0)
(0.0012271 -1.27788e-05 0)
(0.00122474 -1.39051e-05 0)
(0.00122251 -1.51805e-05 0)
(0.00122041 -1.66161e-05 0)
(0.00121843 -1.8204e-05 0)
(0.00121659 -1.99547e-05 0)
(0.00121484 -2.18513e-05 0)
(0.00121322 -2.39034e-05 0)
(0.00121169 -2.60827e-05 0)
(0.00121026 -2.84003e-05 0)
(0.00120891 -3.08158e-05 0)
(0.00120766 -3.33461e-05 0)
(0.00120646 -3.59361e-05 0)
(0.00120535 -3.86119e-05 0)
(0.00120429 -4.13015e-05 0)
(0.0012033 -4.40467e-05 0)
(0.00120236 -4.6755e-05 0)
(0.00120149 -4.94913e-05 0)
(0.00120067 -5.2137e-05 0)
(0.00119992 -5.47892e-05 0)
(0.00119924 -5.72959e-05 0)
(0.00119861 -5.97971e-05 0)
(0.00119809 -6.20976e-05 0)
(0.0011976 -6.43931e-05 0)
(0.00119727 -6.64324e-05 0)
(0.00119695 -6.84825e-05 0)
(0.00119686 -7.02206e-05 0)
(0.00119672 -7.20022e-05 0)
(0.00119692 -7.34132e-05 0)
(0.00119698 -7.49169e-05 0)
(0.00119753 -7.59858e-05 0)
(0.00119778 -7.72129e-05 0)
(0.00119874 -7.79349e-05 0)
(0.00119917 -7.88969e-05 0)
(0.0012006 -7.9279e-05 0)
(0.00120118 -7.99967e-05 0)
(0.00120314 -8.00578e-05 0)
(0.00120378 -8.05576e-05 0)
(0.00120634 -8.033e-05 0)
(0.00120693 -8.06413e-05 0)
(0.00121014 -8.01737e-05 0)
(0.00121054 -8.03228e-05 0)
(0.00121446 -7.96837e-05 0)
(0.00131851 5.54941e-06 0)
(0.00132228 4.95278e-06 0)
(0.00132627 4.40535e-06 0)
(0.00133042 3.8941e-06 0)
(0.0013347 3.4078e-06 0)
(0.00133907 2.93796e-06 0)
(0.0013435 2.47678e-06 0)
(0.00134795 2.01774e-06 0)
(0.00135238 1.55628e-06 0)
(0.00135676 1.08935e-06 0)
(0.00136107 6.1628e-07 0)
(0.00136526 1.38726e-07 0)
(0.0013693 -3.40736e-07 0)
(0.00137317 -8.18147e-07 0)
(0.00137682 -1.28926e-06 0)
(0.00138026 -1.74695e-06 0)
(0.00138346 -2.18224e-06 0)
(0.00138639 -2.58636e-06 0)
(0.00138905 -2.94997e-06 0)
(0.0013914 -3.26851e-06 0)
(0.00139344 -3.53671e-06 0)
(0.00139515 -3.74575e-06 0)
(0.00139653 -3.88875e-06 0)
(0.00139758 -3.9644e-06 0)
(0.00139829 -3.97343e-06 0)
(0.00139866 -3.91805e-06 0)
(0.0013987 -3.80135e-06 0)
(0.0013984 -3.62814e-06 0)
(0.00139778 -3.40498e-06 0)
(0.00139684 -3.1426e-06 0)
(0.00139561 -2.85342e-06 0)
(0.00139409 -2.55215e-06 0)
(0.00139229 -2.24774e-06 0)
(0.00139024 -1.9531e-06 0)
(0.00138796 -1.68247e-06 0)
(0.00138546 -1.45351e-06 0)
(0.00138277 -1.28005e-06 0)
(0.00137991 -1.17798e-06 0)
(0.0013769 -1.16033e-06 0)
(0.00137376 -1.24333e-06 0)
(0.00137051 -1.43749e-06 0)
(0.00136717 -1.75741e-06 0)
(0.00136376 -2.21105e-06 0)
(0.0013603 -2.81294e-06 0)
(0.00135679 -3.56556e-06 0)
(0.00135326 -4.47834e-06 0)
(0.00134972 -5.55088e-06 0)
(0.0013462 -6.7971e-06 0)
(0.00134268 -8.20878e-06 0)
(0.00133919 -9.79667e-06 0)
(0.00133572 -1.15428e-05 0)
(0.00133228 -1.3456e-05 0)
(0.00132886 -1.55096e-05 0)
(0.0013255 -1.77195e-05 0)
(0.00132215 -2.00474e-05 0)
(0.00131886 -2.25129e-05 0)
(0.0013156 -2.50639e-05 0)
(0.00131239 -2.773e-05 0)
(0.00130922 -3.04437e-05 0)
(0.00130611 -3.32502e-05 0)
(0.00130303 -3.60614e-05 0)
(0.00130003 -3.89425e-05 0)
(0.00129708 -4.17794e-05 0)
(0.00129421 -4.46659e-05 0)
(0.00129141 -4.74563e-05 0)
(0.0012887 -5.0283e-05 0)
(0.0012861 -5.29603e-05 0)
(0.00128359 -5.567e-05 0)
(0.00128123 -5.81761e-05 0)
(0.00127895 -6.07225e-05 0)
(0.00127689 -6.30098e-05 0)
(0.0012749 -6.53586e-05 0)
(0.0012732 -6.73908e-05 0)
(0.00127153 -6.95187e-05 0)
(0.00127025 -7.12686e-05 0)
(0.00126893 -7.31604e-05 0)
(0.00126813 -7.46092e-05 0)
(0.00126717 -7.62572e-05 0)
(0.0012669 -7.73944e-05 0)
(0.00126629 -7.87942e-05 0)
(0.00126658 -7.96156e-05 0)
(0.00126627 -8.07621e-05 0)
(0.00126716 -8.12711e-05 0)
(0.00126709 -8.21575e-05 0)
(0.00126859 -8.2371e-05 0)
(0.00126866 -8.29869e-05 0)
(0.00127075 -8.29414e-05 0)
(0.00127085 -8.32685e-05 0)
(0.00127351 -8.30255e-05 0)
(0.00135348 -4.09895e-06 0)
(0.00135851 -5.22478e-06 0)
(0.00136371 -6.22281e-06 0)
(0.00136903 -7.1044e-06 0)
(0.00137443 -7.87931e-06 0)
(0.0013799 -8.55514e-06 0)
(0.00138539 -9.13944e-06 0)
(0.00139087 -9.63984e-06 0)
(0.00139632 -1.0063e-05 0)
(0.00140171 -1.04138e-05 0)
(0.001407 -1.06954e-05 0)
(0.00141218 -1.091e-05 0)
(0.00141722 -1.10573e-05 0)
(0.00142208 -1.11345e-05 0)
(0.00142676 -1.11378e-05 0)
(0.00143122 -1.10638e-05 0)
(0.00143545 -1.09112e-05 0)
(0.00143942 -1.06795e-05 0)
(0.00144312 -1.03671e-05 0)
(0.00144653 -9.97224e-06 0)
(0.00144964 -9.49339e-06 0)
(0.00145242 -8.93149e-06 0)
(0.00145487 -8.28892e-06 0)
(0.00145696 -7.5701e-06 0)
(0.0014587 -6.78156e-06 0)
(0.00146009 -5.93101e-06 0)
(0.0014611 -5.02643e-06 0)
(0.00146176 -4.07805e-06 0)
(0.00146204 -3.0973e-06 0)
(0.00146196 -2.09758e-06 0)
(0.00146152 -1.09059e-06 0)
(0.00146075 -8.86942e-08 0)
(0.00145964 8.82124e-07 0)
(0.00145822 1.80196e-06 0)
(0.00145649 2.65628e-06 0)
(0.00145447 3.42657e-06 0)
(0.00145216 4.09843e-06 0)
(0.00144961 4.65463e-06 0)
(0.00144681 5.08275e-06 0)
(0.0014438 5.36639e-06 0)
(0.00144059 5.49588e-06 0)
(0.00143721 5.45621e-06 0)
(0.00143367 5.24325e-06 0)
(0.00143 4.84391e-06 0)
(0.00142621 4.25943e-06 0)
(0.00142233 3.48128e-06 0)
(0.00141836 2.51632e-06 0)
(0.00141432 1.35199e-06 0)
(0.00141022 4.13213e-09 0)
(0.00140609 -1.53932e-06 0)
(0.00140194 -3.25632e-06 0)
(0.00139779 -5.16539e-06 0)
(0.00139362 -7.23238e-06 0)
(0.00138947 -9.47596e-06 0)
(0.00138533 -1.18493e-05 0)
(0.00138123 -1.43814e-05 0)
(0.00137716 -1.70103e-05 0)
(0.00137314 -1.9779e-05 0)
(0.00136917 -2.26041e-05 0)
(0.00136527 -2.5544e-05 0)
(0.00136144 -2.84932e-05 0)
(0.00135772 -3.15384e-05 0)
(0.00135407 -3.45469e-05 0)
(0.00135056 -3.76395e-05 0)
(0.00134715 -4.06452e-05 0)
(0.00134391 -4.37282e-05 0)
(0.00134079 -4.66707e-05 0)
(0.00133785 -4.96931e-05 0)
(0.00133506 -5.2518e-05 0)
(0.00133247 -5.54354e-05 0)
(0.00133006 -5.80944e-05 0)
(0.00132786 -6.08701e-05 0)
(0.00132586 -6.33212e-05 0)
(0.00132408 -6.59245e-05 0)
(0.00132253 -6.81317e-05 0)
(0.00132117 -7.05376e-05 0)
(0.00132009 -7.24707e-05 0)
(0.00131916 -7.46561e-05 0)
(0.00131856 -7.62885e-05 0)
(0.00131801 -7.82273e-05 0)
(0.00131789 -7.95356e-05 0)
(0.00131767 -8.11954e-05 0)
(0.00131803 -8.21627e-05 0)
(0.00131805 -8.35011e-05 0)
(0.00131887 -8.41232e-05 0)
(0.00131901 -8.50871e-05 0)
(0.00132023 -8.53854e-05 0)
(0.00132037 -8.59097e-05 0)
(0.00132196 -8.59446e-05 0)
(0.0014113 -1.57727e-05 0)
(0.00141629 -1.72171e-05 0)
(0.00142136 -1.84592e-05 0)
(0.00142647 -1.95112e-05 0)
(0.00143162 -2.03845e-05 0)
(0.00143679 -2.10914e-05 0)
(0.00144195 -2.16436e-05 0)
(0.00144708 -2.20519e-05 0)
(0.00145218 -2.23253e-05 0)
(0.00145723 -2.24714e-05 0)
(0.00146221 -2.24958e-05 0)
(0.00146711 -2.2402e-05 0)
(0.00147191 -2.21916e-05 0)
(0.00147661 -2.18654e-05 0)
(0.00148118 -2.14232e-05 0)
(0.0014856 -2.08644e-05 0)
(0.00148986 -2.01887e-05 0)
(0.00149395 -1.93955e-05 0)
(0.00149783 -1.84845e-05 0)
(0.0015015 -1.74563e-05 0)
(0.00150494 -1.63126e-05 0)
(0.00150812 -1.50575e-05 0)
(0.00151103 -1.36952e-05 0)
(0.00151365 -1.22318e-05 0)
(0.00151596 -1.06757e-05 0)
(0.00151796 -9.03833e-06 0)
(0.00151962 -7.33224e-06 0)
(0.00152094 -5.57342e-06 0)
(0.0015219 -3.77909e-06 0)
(0.00152251 -1.96739e-06 0)
(0.00152277 -1.57304e-07 0)
(0.00152265 1.62948e-06 0)
(0.00152213 3.37827e-06 0)
(0.00152123 5.06345e-06 0)
(0.00151997 6.65471e-06 0)
(0.00151836 8.1275e-06 0)
(0.0015164 9.46173e-06 0)
(0.00151413 1.06345e-05 0)
(0.00151153 1.16307e-05 0)
(0.00150865 1.2432e-05 0)
(0.00150548 1.30295e-05 0)
(0.00150207 1.34083e-05 0)
(0.00149842 1.35659e-05 0)
(0.00149456 1.34901e-05 0)
(0.00149052 1.31848e-05 0)
(0.00148632 1.26354e-05 0)
(0.00148198 1.18541e-05 0)
(0.00147753 1.08317e-05 0)
(0.00147299 9.58756e-06 0)
(0.00146838 8.10882e-06 0)
(0.00146371 6.42473e-06 0)
(0.00145902 4.51844e-06 0)
(0.0014543 2.43173e-06 0)
(0.00144961 1.44136e-07 0)
(0.00144493 -2.29205e-06 0)
(0.00144031 -4.90978e-06 0)
(0.00143572 -7.6406e-06 0)
(0.00143123 -1.05325e-05 0)
(0.00142681 -1.35043e-05 0)
(0.00142253 -1.66332e-05 0)
(0.00141832 -1.98043e-05 0)
(0.00141428 -2.3105e-05 0)
(0.00141032 -2.63917e-05 0)
(0.00140656 -2.97925e-05 0)
(0.00140288 -3.31255e-05 0)
(0.00139944 -3.65652e-05 0)
(0.00139606 -3.98797e-05 0)
(0.00139297 -4.33018e-05 0)
(0.00138991 -4.65366e-05 0)
(0.0013872 -4.98909e-05 0)
(0.00138445 -5.29893e-05 0)
(0.00138213 -5.62308e-05 0)
(0.00137968 -5.91396e-05 0)
(0.00137775 -6.22278e-05 0)
(0.00137557 -6.4896e-05 0)
(0.00137403 -6.77924e-05 0)
(0.00137208 -7.01701e-05 0)
(0.0013709 -7.28353e-05 0)
(0.00136914 -7.4874e-05 0)
(0.00136831 -7.72656e-05 0)
(0.00136666 -7.89195e-05 0)
(0.00136613 -8.0988e-05 0)
(0.00136454 -8.22176e-05 0)
(0.00136427 -8.39021e-05 0)
(0.00136266 -8.46805e-05 0)
(0.00136256 -8.59036e-05 0)
(0.00136086 -8.62287e-05 0)
(0.00136086 -8.68945e-05 0)
(0.00135898 -8.68124e-05 0)
(0.001453 -2.58262e-05 0)
(0.00145534 -2.73347e-05 0)
(0.00145774 -2.85967e-05 0)
(0.00146022 -2.96368e-05 0)
(0.00146277 -3.04787e-05 0)
(0.00146539 -3.11445e-05 0)
(0.0014681 -3.16525e-05 0)
(0.0014709 -3.20164e-05 0)
(0.00147379 -3.22456e-05 0)
(0.00147678 -3.23459e-05 0)
(0.00147988 -3.23192e-05 0)
(0.00148308 -3.21652e-05 0)
(0.0014864 -3.18811e-05 0)
(0.00148982 -3.14622e-05 0)
(0.00149334 -3.09027e-05 0)
(0.00149696 -3.01962e-05 0)
(0.00150065 -2.9336e-05 0)
(0.00150442 -2.8316e-05 0)
(0.00150823 -2.71307e-05 0)
(0.00151206 -2.57766e-05 0)
(0.0015159 -2.42523e-05 0)
(0.00151973 -2.25593e-05 0)
(0.0015235 -2.07016e-05 0)
(0.0015272 -1.86873e-05 0)
(0.00153079 -1.65268e-05 0)
(0.00153424 -1.42347e-05 0)
(0.00153752 -1.18277e-05 0)
(0.0015406 -9.32574e-06 0)
(0.00154344 -6.75147e-06 0)
(0.00154603 -4.13077e-06 0)
(0.00154832 -1.49346e-06 0)
(0.00155032 1.12354e-06 0)
(0.00155202 3.69608e-06 0)
(0.00155335 6.19799e-06 0)
(0.00155428 8.61154e-06 0)
(0.00155482 1.09115e-05 0)
(0.00155496 1.30777e-05 0)
(0.0015547 1.50735e-05 0)
(0.00155404 1.68722e-05 0)
(0.001553 1.84469e-05 0)
(0.00155158 1.978e-05 0)
(0.00154978 2.08477e-05 0)
(0.00154764 2.16401e-05 0)
(0.00154515 2.21384e-05 0)
(0.00154235 2.23422e-05 0)
(0.00153924 2.22381e-05 0)
(0.00153586 2.1837e-05 0)
(0.00153222 2.11291e-05 0)
(0.00152835 2.01343e-05 0)
(0.00152429 1.88431e-05 0)
(0.00152005 1.72869e-05 0)
(0.00151568 1.5457e-05 0)
(0.00151119 1.33929e-05 0)
(0.00150661 1.10759e-05 0)
(0.00150196 8.55868e-06 0)
(0.00149728 5.81815e-06 0)
(0.00149255 2.91889e-06 0)
(0.00148784 -1.7331e-07 0)
(0.00148308 -3.37444e-06 0)
(0.00147836 -6.72731e-06 0)
(0.00147368 -1.01376e-05 0)
(0.00146911 -1.36883e-05 0)
(0.00146456 -1.72637e-05 0)
(0.00146018 -2.09596e-05 0)
(0.00145577 -2.46158e-05 0)
(0.00145158 -2.83673e-05 0)
(0.00144731 -3.20197e-05 0)
(0.00144334 -3.57546e-05 0)
(0.00143918 -3.93258e-05 0)
(0.00143543 -4.29767e-05 0)
(0.00143133 -4.63936e-05 0)
(0.0014278 -4.99013e-05 0)
(0.00142369 -5.30966e-05 0)
(0.00142038 -5.64114e-05 0)
(0.00141618 -5.93239e-05 0)
(0.00141309 -6.24058e-05 0)
(0.00140868 -6.49794e-05 0)
(0.00140584 -6.77955e-05 0)
(0.00140109 -6.9976e-05 0)
(0.00139853 -7.24944e-05 0)
(0.00139331 -7.42259e-05 0)
(0.00139109 -7.6407e-05 0)
(0.00138524 -7.76299e-05 0)
(0.00138343 -7.94169e-05 0)
(0.00137679 -8.00741e-05 0)
(0.0013755 -8.13868e-05 0)
(0.00136788 -8.144e-05 0)
(0.00136721 -8.21692e-05 0)
(0.00135841 -8.16241e-05 0)
(0.0014101 -2.51042e-05 0)
(0.00140706 -2.69201e-05 0)
(0.00140415 -2.85517e-05 0)
(0.00140142 -2.99999e-05 0)
(0.0013989 -3.12748e-05 0)
(0.00139666 -3.23945e-05 0)
(0.00139475 -3.33757e-05 0)
(0.00139322 -3.42319e-05 0)
(0.00139212 -3.49723e-05 0)
(0.00139148 -3.56017e-05 0)
(0.00139133 -3.61206e-05 0)
(0.00139171 -3.65253e-05 0)
(0.00139261 -3.68086e-05 0)
(0.00139406 -3.69604e-05 0)
(0.00139604 -3.69682e-05 0)
(0.00139856 -3.68181e-05 0)
(0.00140158 -3.64949e-05 0)
(0.00140511 -3.59841e-05 0)
(0.0014091 -3.52711e-05 0)
(0.00141352 -3.43436e-05 0)
(0.00141834 -3.31915e-05 0)
(0.00142351 -3.18078e-05 0)
(0.00142898 -3.01891e-05 0)
(0.00143472 -2.83349e-05 0)
(0.00144067 -2.62492e-05 0)
(0.00144677 -2.39406e-05 0)
(0.00145298 -2.14226e-05 0)
(0.00145925 -1.87135e-05 0)
(0.00146551 -1.58353e-05 0)
(0.00147173 -1.28158e-05 0)
(0.00147784 -9.68419e-06 0)
(0.00148378 -6.47195e-06 0)
(0.00148951 -3.22373e-06 0)
(0.00149502 2.16078e-08 0)
(0.00150028 3.23423e-06 0)
(0.00150524 6.37182e-06 0)
(0.00150983 9.3905e-06 0)
(0.00151401 1.22603e-05 0)
(0.00151774 1.4957e-05 0)
(0.00152103 1.74492e-05 0)
(0.00152384 1.97144e-05 0)
(0.00152617 2.17274e-05 0)
(0.00152801 2.34649e-05 0)
(0.00152936 2.48951e-05 0)
(0.00153022 2.60058e-05 0)
(0.00153061 2.67761e-05 0)
(0.00153053 2.72049e-05 0)
(0.00153 2.72788e-05 0)
(0.00152904 2.70083e-05 0)
(0.00152765 2.63838e-05 0)
(0.00152587 2.54266e-05 0)
(0.00152371 2.41308e-05 0)
(0.0015212 2.25277e-05 0)
(0.00151835 2.06113e-05 0)
(0.0015152 1.84238e-05 0)
(0.00151177 1.596e-05 0)
(0.0015081 1.32706e-05 0)
(0.0015042 1.03413e-05 0)
(0.00150012 7.23655e-06 0)
(0.00149587 3.94866e-06 0)
(0.0014914 5.43916e-07 0)
(0.00148676 -3.01001e-06 0)
(0.00148192 -6.62254e-06 0)
(0.00147702 -1.03344e-05 0)
(0.00147192 -1.40555e-05 0)
(0.00146681 -1.78366e-05 0)
(0.00146141 -2.15642e-05 0)
(0.0014561 -2.53108e-05 0)
(0.00145038 -2.89489e-05 0)
(0.00144487 -3.25738e-05 0)
(0.00143877 -3.60323e-05 0)
(0.00143306 -3.94546e-05 0)
(0.00142647 -4.26498e-05 0)
(0.00142058 -4.57981e-05 0)
(0.00141337 -4.86491e-05 0)
(0.00140733 -5.14625e-05 0)
(0.00139932 -5.38974e-05 0)
(0.00139321 -5.63384e-05 0)
(0.00138422 -5.82998e-05 0)
(0.00137818 -6.0355e-05 0)
(0.00136801 -6.17956e-05 0)
(0.00136228 -6.3471e-05 0)
(0.00135066 -6.4349e-05 0)
(0.0013456 -6.56588e-05 0)
(0.00133224 -6.5934e-05 0)
(0.0013283 -6.688e-05 0)
(0.00131282 -6.65127e-05 0)
(0.00131057 -6.70506e-05 0)
(0.00129256 -6.60011e-05 0)
(0.0012428 -1.25169e-05 0)
(0.00123269 -1.42583e-05 0)
(0.00122317 -1.59502e-05 0)
(0.00121445 -1.76615e-05 0)
(0.00120656 -1.94368e-05 0)
(0.00119956 -2.12891e-05 0)
(0.00119351 -2.3236e-05 0)
(0.00118845 -2.52764e-05 0)
(0.00118441 -2.73901e-05 0)
(0.00118141 -2.95475e-05 0)
(0.00117944 -3.17123e-05 0)
(0.00117852 -3.38449e-05 0)
(0.00117861 -3.59042e-05 0)
(0.00117969 -3.78498e-05 0)
(0.00118174 -3.96424e-05 0)
(0.0011847 -4.12448e-05 0)
(0.00118855 -4.26223e-05 0)
(0.00119323 -4.37426e-05 0)
(0.0011987 -4.45763e-05 0)
(0.0012049 -4.50974e-05 0)
(0.0012118 -4.52841e-05 0)
(0.00121932 -4.51194e-05 0)
(0.00122742 -4.45917e-05 0)
(0.00123604 -4.36954e-05 0)
(0.00124512 -4.24305e-05 0)
(0.00125459 -4.0804e-05 0)
(0.00126438 -3.8828e-05 0)
(0.00127444 -3.65204e-05 0)
(0.0012847 -3.39036e-05 0)
(0.00129509 -3.10055e-05 0)
(0.00130555 -2.7857e-05 0)
(0.00131602 -2.44926e-05 0)
(0.00132643 -2.09475e-05 0)
(0.00133673 -1.72655e-05 0)
(0.00134686 -1.34961e-05 0)
(0.00135673 -9.68698e-06 0)
(0.00136634 -5.88686e-06 0)
(0.00137563 -2.13557e-06 0)
(0.00138457 1.52545e-06 0)
(0.00139309 5.04913e-06 0)
(0.00140116 8.39182e-06 0)
(0.00140873 1.15048e-05 0)
(0.00141574 1.43586e-05 0)
(0.00142216 1.6928e-05 0)
(0.00142799 1.91941e-05 0)
(0.00143321 2.11337e-05 0)
(0.00143781 2.27379e-05 0)
(0.00144177 2.39967e-05 0)
(0.00144511 2.4904e-05 0)
(0.00144781 2.54392e-05 0)
(0.00144989 2.5608e-05 0)
(0.00145135 2.54045e-05 0)
(0.00145222 2.48492e-05 0)
(0.00145248 2.39426e-05 0)
(0.00145218 2.2713e-05 0)
(0.0014513 2.11654e-05 0)
(0.00144988 1.93404e-05 0)
(0.0014479 1.72444e-05 0)
(0.00144542 1.49172e-05 0)
(0.0014424 1.23566e-05 0)
(0.00143893 9.62025e-06 0)
(0.00143499 6.72886e-06 0)
(0.00143061 3.74465e-06 0)
(0.00142576 6.72207e-07 0)