/*--------------------------------*- C++ -*----------------------------------*\
| =========                 |                                                 |
| \\      /  F ield         | OpenFOAM: The Open Source CFD Toolbox           |
|  \\    /   O peration     | Version:  2312                                  |
|   \\  /    A nd           | Website:  www.openfoam.com                      |
|    \\/     M anipulation  |                                                 |
\*---------------------------------------------------------------------------*/
FoamFile
{
    version     2.0;
    format      ascii;
    arch        "LSB;label=32;scalar=64";
    class       surfaceScalarField;
    location    "140000";
    object      phi;
}
// * * * * * * * * * * * * * * * * * * * * * * * * * * * * * * * * * * * * * //

dimensions      [0 3 -1 0 0 0 0];

oriented        oriented;

internalField   nonuniform List<scalar> 
5309
(
7.52025e-05
2.78186e-05
6.98172e-05
5.38529e-06
6.35386e-05
6.27854e-06
6.03586e-05
3.18007e-06
5.92644e-05
1.09417e-06
6.00445e-05
-7.80083e-07
6.128e-05
-1.23549e-06
6.38303e-05
-2.55027e-06
6.6238e-05
-2.40778e-06
6.97609e-05
-3.52286e-06
7.25988e-05
-2.83789e-06
7.64266e-05
-3.82785e-06
7.90327e-05
-2.60606e-06
8.25688e-05
-3.53608e-06
8.43784e-05
-1.80962e-06
8.72768e-05
-2.89838e-06
8.79415e-05
-6.64777e-07
9.00502e-05
-2.10861e-06
8.94245e-05
6.25616e-07
9.08254e-05
-1.40083e-06
8.89415e-05
1.88391e-06
8.98394e-05
-8.9791e-07
8.66975e-05
3.14189e-06
8.73091e-05
-6.1158e-07
8.27964e-05
4.5127e-06
8.35961e-05
-7.99787e-07
7.52136e-05
8.38258e-06
8.40786e-05
-8.865e-06
3.70949e-05
4.69837e-05
-3.39995e-05
7.10944e-05
0.000149578
3.36524e-05
0.000147331
7.63165e-06
0.000145109
8.50069e-06
0.000143882
4.40718e-06
0.000143724
1.25225e-06
0.000145508
-2.564e-06
0.000148037
-3.76458e-06
0.000152321
-6.83403e-06
0.000156718
-6.80559e-06
0.00016277
-9.57404e-06
0.000168219
-8.28722e-06
0.000175222
-1.08312e-05
0.000180811
-8.19513e-06
0.000187938
-1.06629e-05
0.000192816
-6.68769e-06
0.000199365
-9.44666e-06
0.000202831
-4.13091e-06
0.000208464
-7.74163e-06
0.0002102
-1.1104e-06
0.00021503
-6.23135e-06
0.000214508
2.40626e-06
0.000219112
-5.50182e-06
0.000215499
6.75451e-06
0.000221108
-6.22058e-06
0.000212189
1.3432e-05
0.000222358
-1.09687e-05
0.000200723
3.0017e-05
0.000219848
-2.79891e-05
0.000201132
6.56991e-05
-3.62353e-05
0.000203368
0.000198861
3.14791e-05
0.000199674
6.81922e-06
0.000201222
6.95286e-06
0.000202237
3.39133e-06
0.000203609
-1.19431e-07
0.000206067
-5.02171e-06
0.000209107
-6.80464e-06
0.000213611
-1.13378e-05
0.000218269
-1.14641e-05
0.000224526
-1.58311e-05
0.000230342
-1.41027e-05
0.000237826
-1.83159e-05
0.0002441
-1.44691e-05
0.000252212
-1.87741e-05
0.000258222
-1.26984e-05
0.000266459
-1.7683e-05
0.000271617
-9.28941e-06
0.000279841
-1.59653e-05
0.000283474
-4.74389e-06
0.00029174
-1.44974e-05
0.000293252
8.94994e-07
0.000301861
-1.41109e-05
0.000300572
8.04284e-06
0.000310219
-1.58669e-05
0.000305106
1.85442e-05
0.000315444
-2.13066e-05
0.00031085
3.46113e-05
0.000315148
-3.22874e-05
0.000329039
5.18086e-05
-2.00849e-05
0.000312888
0.000235868
2.67773e-05
0.000235966
6.72159e-06
0.000238171
4.7478e-06
0.000240339
1.22297e-06
0.000242294
-2.07388e-06
0.000245571
-8.2988e-06
0.000249053
-1.02872e-05
0.000253736
-1.60208e-05
0.000258415
-1.61427e-05
0.000264457
-2.1873e-05
0.000270112
-1.97582e-05
0.000277244
-2.54476e-05
0.000283459
-2.06842e-05
0.000291312
-2.66271e-05
0.000297619
-1.90054e-05
0.000305889
-2.59524e-05
0.000311879
-1.52794e-05
0.000320334
-2.44209e-05
0.000325647
-1.00572e-05
0.000334141
-2.29915e-05
0.000338772
-3.73553e-06
0.000347097
-2.24361e-05
0.000351228
3.9118e-06
0.000358603
-2.32415e-05
0.00036378
1.33666e-05
0.000368092
-2.56182e-05
0.000378584
2.41196e-05
0.000373954
-2.76578e-05
0.00039868
2.70832e-05
-1.01774e-05
0.000388772
0.000264691
2.19441e-05
0.000264353
7.05994e-06
0.000266328
2.77244e-06
0.000269044
-1.49227e-06
0.000271566
-4.59663e-06
0.000274488
-1.12206e-05
0.000277849
-1.36483e-05
0.000281999
-2.01705e-05
0.000286461
-2.06049e-05
0.00029169
-2.71017e-05
0.000297086
-2.51536e-05
0.000303201
-3.15625e-05
0.000309296
-2.67797e-05
0.000316035
-3.33658e-05
0.000322581
-2.55514e-05
0.000329684
-3.30552e-05
0.000336511
-2.21065e-05
0.000343684
-3.15937e-05
0.000350848
-1.72211e-05
0.00035779
-2.99343e-05
0.000365536
-1.14813e-05
0.00037171
-2.86104e-05
0.000380626
-5.00381e-06
0.000385156
-2.77717e-05
0.000396618
1.9044e-06
0.000397585
-2.65845e-05
0.000414312
7.3918e-06
0.000408689
-2.2034e-05
0.000430968
4.80348e-06
-8.37321e-06
0.000429164
0.000287556
1.78777e-05
0.000287185
7.43008e-06
0.000288602
1.35561e-06
0.000290795
-3.68519e-06
0.000293177
-6.97861e-06
0.000295721
-1.37641e-05
0.000298931
-1.68591e-05
0.000302426
-2.36654e-05
0.000306681
-2.48599e-05
0.000310966
-3.1387e-05
0.000316125
-3.03117e-05
0.000321069
-3.65068e-05
0.000327035
-3.27463e-05
0.000332454
-3.87843e-05
0.000339141
-3.22386e-05
0.000344818
-3.87322e-05
0.000352212
-2.95005e-05
0.000357898
-3.72797e-05
0.000366144
-2.5467e-05
0.000371507
-3.52978e-05
0.000380896
-2.08695e-05
0.000385462
-3.3177e-05
0.00039658
-1.61217e-05
0.000399564
-3.07555e-05
0.000413279
-1.18108e-05
0.000413677
-2.69827e-05
0.000430456
-9.38678e-06
0.00042864
-2.02184e-05
0.000444766
-1.13228e-05
-1.24818e-05
0.000448875
0.000305397
1.48448e-05
0.000305458
7.36873e-06
0.000306173
6.40748e-07
0.000307765
-5.27686e-06
0.000310023
-9.23661e-06
0.000312116
-1.58574e-05
0.000315057
-1.97998e-05
0.000317826
-2.64348e-05
0.000321721
-2.87547e-05
0.000325124
-3.47901e-05
0.000329896
-3.50841e-05
0.000333822
-4.0432e-05
0.000339447
-3.83713e-05
0.000343774
-4.31119e-05
0.000350244
-3.87086e-05
0.000354811
-4.32987e-05
0.000362184
-3.68731e-05
0.000366801
-4.1897e-05
0.000375216
-3.38825e-05
0.000379644
-3.9725e-05
0.000389326
-3.05517e-05
0.00039328
-3.71311e-05
0.000404529
-2.73711e-05
0.00040767
-3.38966e-05
0.000420607
-2.47478e-05
0.000422984
-2.93594e-05
0.000436754
-2.31568e-05
0.000439869
-2.33335e-05
0.000451167
-2.26207e-05
-1.86669e-05
0.000457352
0.0003187
1.28285e-05
0.000319115
6.95322e-06
0.000319568
1.88227e-07
0.000320633
-6.34176e-06
0.000322624
-1.1228e-05
0.000324347
-1.75798e-05
0.00032694
-2.23929e-05
0.000329145
-2.86403e-05
0.00033257
-3.21793e-05
0.000335305
-3.75253e-05
0.000339547
-3.93256e-05
0.000342725
-4.36107e-05
0.000347798
-4.34437e-05
0.000351357
-4.66709e-05
0.000357296
-4.46484e-05
0.000361144
-4.71467e-05
0.000368024
-4.37526e-05
0.000372062
-4.5935e-05
0.000379975
-4.1796e-05
0.000384103
-4.38522e-05
0.000393148
-3.95974e-05
0.000397301
-4.1284e-05
0.000407494
-3.7564e-05
0.000411726
-3.81285e-05
0.000422766
-3.57881e-05
0.000427577
-3.41706e-05
0.000438463
-3.40419e-05
0.000444923
-2.97942e-05
0.000453967
-3.16644e-05
-2.60005e-05
0.000461301
0.000327897
1.1673e-05
0.000328527
6.32345e-06
0.000329052
-3.36939e-07
0.000329797
-7.08635e-06
0.000331449
-1.28802e-05
0.000332908
-1.9039e-05
0.000335125
-2.46093e-05
0.000336948
-3.04639e-05
0.000339841
-3.50726e-05
0.000342127
-3.98105e-05
0.000345743
-4.29416e-05
0.000348444
-4.63115e-05
0.000352816
-4.78164e-05
0.000355921
-4.97761e-05
0.00036111
-4.98371e-05
0.000364607
-5.06438e-05
0.000370672
-4.98172e-05
0.000374558
-4.98211e-05
0.000381541
-4.87796e-05
0.000385843
-4.8154e-05
0.00039374
-4.74942e-05
0.000398549
-4.60936e-05
0.000407235
-4.62496e-05
0.000412783
-4.36769e-05
0.000421923
-4.49276e-05
0.000428594
-4.08415e-05
0.000437666
-4.31142e-05
0.000445528
-3.76558e-05
0.00045429
-4.04263e-05
-3.39645e-05
0.000462253
0.0003335
1.11066e-05
0.00033427
5.5529e-06
0.000334956
-1.02254e-06
0.000335604
-7.7343e-06
0.000336941
-1.42171e-05
0.000338226
-2.03245e-05
0.000340085
-2.64684e-05
0.000341683
-3.20616e-05
0.000344065
-3.74544e-05
0.000346077
-4.18228e-05
0.000349071
-4.59353e-05
0.000351502
-4.87428e-05
0.000355153
-5.14677e-05
0.000358035
-5.26581e-05
0.000362418
-5.42194e-05
0.000365802
-5.40282e-05
0.00037097
-5.49846e-05
0.000374922
-5.3773e-05
0.0003809
-5.47575e-05
0.000385509
-5.27637e-05
0.000392275
-5.42602e-05
0.00039767
-5.14878e-05
0.000405143
-5.37229e-05
0.000411479
-5.00136e-05
0.000419528
-5.29766e-05
0.000426859
-4.81724e-05
0.000435421
-5.16754e-05
0.000443434
-4.5669e-05
0.000452619
-4.96115e-05
-4.20455e-05
0.0004607
0.00033622
1.0802e-05
0.000336979
4.79473e-06
0.000337808
-1.85189e-06
0.000338538
-8.46439e-06
0.000339666
-1.53455e-05
0.00034085
-2.15085e-05
0.000342423
-2.80411e-05
0.000343912
-3.35502e-05
0.000345886
-3.94288e-05
0.000347753
-4.36898e-05
0.000350231
-4.84135e-05
0.000352528
-5.10393e-05
0.000355567
-5.4507e-05
0.000358357
-5.5448e-05
0.000362042
-5.79042e-05
0.000365417
-5.74034e-05
0.000369813
-5.9381e-05
0.00037387
-5.78301e-05
0.00037902
-5.99076e-05
0.000383861
-5.76039e-05
0.000389784
-6.01832e-05
0.000395501
-5.7205e-05
0.000402211
-6.04326e-05
0.000408857
-5.666e-05
0.000416378
-6.04979e-05
0.000423894
-5.56876e-05
0.000432286
-6.00678e-05
0.000440485
-5.38685e-05
0.000449735
-5.88614e-05
-5.0685e-05
0.000458375
0.000336852
1.04093e-05
0.000337589
4.0581e-06
0.000338489
-2.75225e-06
0.000339355
-9.32988e-06
0.000340399
-1.63894e-05
0.000341556
-2.26658e-05
0.000342952
-2.94372e-05
0.000344414
-3.50123e-05
0.000346137
-4.11513e-05
0.000347946
-4.54993e-05
0.000350084
-5.05509e-05
0.00035232
-5.32755e-05
0.000354944
-5.71311e-05
0.000357693
-5.81974e-05
0.000360894
-6.11053e-05
0.000364266
-6.07755e-05
0.000368132
-6.32468e-05
0.000372232
-6.19301e-05
0.000376837
-6.45122e-05
0.000381757
-6.25245e-05
0.000387169
-6.55947e-05
0.000392975
-6.30115e-05
0.000399268
-6.67254e-05
0.000405982
-6.33742e-05
0.000413237
-6.77521e-05
0.000420824
-6.32752e-05
0.000429107
-6.83505e-05
0.000437488
-6.22494e-05
0.000446786
-6.81592e-05
-5.97463e-05
0.000455847
0.000336354
9.77632e-06
0.000337159
3.25357e-06
0.000338095
-3.68848e-06
0.000339081
-1.03154e-05
0.00034014
-1.74483e-05
0.000341343
-2.38689e-05
0.000342682
-3.07763e-05
0.000344178
-3.6509e-05
0.000345801
-4.27742e-05
0.000347617
-4.73148e-05
0.000349588
-5.25218e-05
0.000351807
-5.54946e-05
0.000354206
-5.95306e-05
0.000356926
-6.09165e-05
0.00035985
-6.40301e-05
0.000363187
-6.41116e-05
0.00036674
-6.68006e-05
0.000370805
-6.59946e-05
0.000375086
-6.87933e-05
0.000379971
-6.74098e-05
0.000385072
-7.06958e-05
0.000390848
-6.8787e-05
0.000396861
-7.27386e-05
0.000403573
-7.00866e-05
0.000410586
-7.47647e-05
0.000418256
-7.09448e-05
0.000426328
-7.64224e-05
0.000434941
-7.08629e-05
0.000444091
-7.73094e-05
-6.92555e-05
0.0004536
0.000336092
8.96101e-06
0.000336961
2.38436e-06
0.000337901
-4.62813e-06
0.000338957
-1.13714e-05
0.000340069
-1.85602e-05
0.00034135
-2.51504e-05
0.000342711
-3.21369e-05
0.000344271
-3.80689e-05
0.000345886
-4.43899e-05
0.000347736
-4.91643e-05
0.000349646
-5.44316e-05
0.000351857
-5.77056e-05
0.000354139
-6.18129e-05
0.000356808
-6.35861e-05
0.000359564
-6.67857e-05
0.000362812
-6.73598e-05
0.000366157
-7.01452e-05
0.000370105
-6.99428e-05
0.00037415
-7.28378e-05
0.000378904
-7.21644e-05
0.000383749
-7.55401e-05
0.000389402
-7.44408e-05
0.000395139
-7.84755e-05
0.000401776
-7.67232e-05
0.000408491
-8.14799e-05
0.000416179
-7.86327e-05
0.000423936
-8.41795e-05
0.000432714
-7.96406e-05
0.000441559
-8.61547e-05
-7.91532e-05
0.000451457
0.000337173
8.1236e-06
0.000338044
1.51266e-06
0.00033896
-5.54399e-06
0.000340039
-1.24505e-05
0.000341193
-1.97135e-05
0.000342536
-2.64939e-05
0.000343931
-3.35317e-05
0.000345532
-3.967e-05
0.000347148
-4.60056e-05
0.000348998
-5.10146e-05
0.00035085
-5.62837e-05
0.000353002
-5.98571e-05
0.000355161
-6.39722e-05
0.000357708
-6.61333e-05
0.000360281
-6.93588e-05
0.00036335
-7.04289e-05
0.000366466
-7.32609e-05
0.000370191
-7.36679e-05
0.000373973
-7.66196e-05
0.000378477
-7.66688e-05
0.000383033
-8.00959e-05
0.00038843
-7.9838e-05
0.000393857
-8.39026e-05
0.000400261
-8.31264e-05
0.000406649
-8.78687e-05
0.000414167
-8.61501e-05
0.000421593
-9.16058e-05
0.000430311
-8.83583e-05
0.000438836
-9.46802e-05
-8.91414e-05
0.000448825
0.000340404
7.47215e-06
-0.000339752
0.00034116
7.55717e-07
0.000341986
-6.36979e-06
0.000343005
-1.3469e-05
0.000344121
-2.08295e-05
0.000345434
-2.78072e-05
0.000346785
-3.48827e-05
0.000348326
-4.12104e-05
0.000349851
-4.75311e-05
0.000351587
-5.27509e-05
0.000353283
-5.79794e-05
0.000355252
-6.18256e-05
0.000357183
-6.59033e-05
0.000359481
-6.84313e-05
0.000361766
-7.16444e-05
0.000364533
-7.31961e-05
0.000367321
-7.60481e-05
0.000370707
-7.70542e-05
0.000374136
-8.00488e-05
0.000378278
-8.08109e-05
0.000382469
-8.42867e-05
0.000387494
-8.48631e-05
0.000392553
-8.89616e-05
0.000398594
-8.91674e-05
0.000404621
-9.38953e-05
0.000411819
-9.3349e-05
0.000418898
-9.86844e-05
0.000427392
-9.68525e-05
0.000435583
-0.000102871
-9.90631e-05
0.000445505
0.000345545
7.11968e-06
-0.000345192
0.000346098
2.02592e-07
0.000346779
-7.05081e-06
0.000347652
-1.43422e-05
0.000348628
-2.1806e-05
0.000349781
-2.896e-05
0.000350962
-3.60632e-05
0.000352294
-4.25423e-05
0.00035359
-4.88271e-05
0.000355054
-5.4215e-05
0.000356451
-5.93767e-05
0.000358083
-6.34577e-05
0.000359654
-6.74739e-05
0.000361568
-7.03458e-05
0.000363452
-7.35282e-05
0.000365811
-7.55549e-05
0.000368177
-7.84148e-05
0.000371147
-8.0024e-05
0.000374155
-8.30563e-05
0.000377879
-8.45345e-05
0.00038166
-8.80681e-05
0.000386264
-8.94668e-05
0.000390939
-9.36373e-05
0.000396555
-9.47829e-05
0.000402241
-9.95809e-05
0.000409019
-0.000100127
0.000415815
-0.00010548
0.000423922
-0.000104959
0.000431888
-0.000110837
-0.000108667
0.000441492
0.000351288
6.95504e-06
-0.000351123
0.000351672
-1.81024e-07
0.000352235
-7.6138e-06
0.000352947
-1.50541e-05
0.000353732
-2.2591e-05
0.000354634
-2.98627e-05
0.000355548
-3.69767e-05
0.000356554
-4.35482e-05
0.000357514
-4.97871e-05
0.000358584
-5.52852e-05
0.000359588
-6.03809e-05
0.000360781
-6.46507e-05
0.000361925
-6.86174e-05
0.000363387
-7.18081e-05
0.000364835
-7.49761e-05
0.000366757
-7.74767e-05
0.000368694
-8.03526e-05
0.000371257
-8.2587e-05
0.000373848
-8.56471e-05
0.000377194
-8.78803e-05
0.000380571
-9.14457e-05
0.000384812
-9.37071e-05
0.000389104
-9.79294e-05
0.000394346
-0.000100025
0.000399688
-0.000104923
0.000406055
-0.000106494
0.000412578
-0.000112003
0.000420217
-0.000112599
0.000428004
-0.000118624
-0.000117765
0.000437102
0.00035663
6.8818e-06
-0.000356557
0.00035691
-4.60791e-07
0.000357341
-8.04513e-06
0.000357867
-1.55797e-05
0.000358428
-2.31518e-05
0.000359042
-3.04769e-05
0.000359652
-3.75871e-05
0.000360298
-4.41939e-05
0.000360907
-5.03961e-05
0.000361571
-5.59492e-05
0.000362203
-6.10126e-05
0.000362973
-6.54205e-05
0.000363748
-6.93923e-05
0.000364797
-7.28579e-05
0.000365894
-7.60729e-05
0.000367433
-7.90155e-05
0.000369035
-8.19545e-05
0.000371253
-8.48054e-05
0.000373507
-8.7901e-05
0.000376545
-9.09186e-05
0.00037956
-9.44603e-05
0.000383518
-9.76648e-05
0.000387402
-0.000101814
0.000392362
-0.000104985
0.000397255
-0.000109816
0.000403284
-0.000112523
0.000409355
-0.000118074
0.000416516
-0.000119761
0.000423923
-0.000126031
-0.000126139
0.000432297
0.000359839
6.54906e-06
-0.000359506
0.000360292
-9.13773e-07
0.000360791
-8.54448e-06
0.000361327
-1.61154e-05
0.000361854
-2.36793e-05
0.000362371
-3.09941e-05
0.000362853
-3.80687e-05
0.000363312
-4.46528e-05
0.000363731
-5.08153e-05
0.000364148
-5.63659e-05
0.000364558
-6.14229e-05
0.00036504
-6.59028e-05
0.000365583
-6.99352e-05
0.00036632
-7.35948e-05
0.000367185
-7.69376e-05
0.000368395
-8.02258e-05
0.00036976
-8.33196e-05
0.000371642
-8.6687e-05
0.000373634
-8.98931e-05
0.000376336
-9.36208e-05
0.000379023
-9.71472e-05
0.000382654
-0.000101296
0.00038609
-0.00010525
0.000390741
-0.000109635
0.000395012
-0.000114087
0.000400722
-0.000118233
0.000405966
-0.000123318
0.000412675
-0.000126469
0.000419094
-0.00013245
-0.000133643
0.000426598
0.000363108
5.93334e-06
-0.000362492
0.000363751
-1.55696e-06
0.000364403
-9.19645e-06
0.00036506
-1.67724e-05
0.000365671
-2.42905e-05
0.000366223
-3.15455e-05
0.000366686
-3.85324e-05
0.000367069
-4.50354e-05
0.00036737
-5.11167e-05
0.00036761
-5.66056e-05
0.000367824
-6.16373e-05
0.000368044
-6.61222e-05
0.00036834
-7.02311e-05
0.000368744
-7.39995e-05
0.000369339
-7.75326e-05
0.00037016
-8.10466e-05
0.00037125
-8.44091e-05
0.000372687
-8.81246e-05
0.000374396
-9.16021e-05
0.000376607
-9.58317e-05
0.000378974
-9.95143e-05
0.000382078
-0.000104399
0.000385074
-0.000108246
0.000389188
-0.000113749
0.000392752
-0.000117651
0.000397936
-0.000123417
0.00040196
-0.000127343
0.000408049
-0.000132558
0.000412451
-0.000136851
-0.00014001
0.000418817
0.000369996
5.39521e-06
-0.000369458
0.000370548
-2.10884e-06
0.000371101
-9.74936e-06
0.000371645
-1.73165e-05
0.000372114
-2.47594e-05
0.000372487
-3.19187e-05
0.00037272
-3.87655e-05
0.000372827
-4.51421e-05
0.000372798
-5.10878e-05
0.000372671
-5.64782e-05
0.000372478
-6.14447e-05
0.000372265
-6.5909e-05
0.000372115
-7.0081e-05
0.000372049
-7.39341e-05
0.000372203
-7.7686e-05
0.000372532
-8.13758e-05
0.000373215
-8.50917e-05
0.00037412
-8.90298e-05
0.00037546
-9.29424e-05
0.00037706
-9.74314e-05
0.000379094
-0.000101549
0.000381463
-0.000106768
0.000384078
-0.000110861
0.000387255
-0.000116926
0.000390146
-0.000120542
0.000394119
-0.00012739
0.000396649
-0.000129872
0.00040114
-0.00013705
0.000402225
-0.000137936
-0.000144101
0.000406317
0.000378416
4.88857e-06
-0.00037791
0.000378897
-2.5898e-06
0.000379339
-1.01912e-05
0.000379698
-1.76753e-05
0.000379914
-2.49755e-05
0.000379973
-3.1978e-05
0.000379833
-3.86253e-05
0.000379516
-4.48248e-05
0.000379012
-5.05844e-05
0.000378385
-5.58512e-05
0.000377658
-6.07169e-05
0.000376914
-6.51657e-05
0.000376212
-6.93788e-05
0.000375629
-7.33506e-05
0.000375257
-7.73138e-05
0.000375105
-8.1224e-05
0.000375311
-8.52974e-05
0.000375737
-8.94559e-05
0.000376616
-9.3822e-05
0.000377624
-9.84389e-05
0.000379183
-0.000103108
0.0003807
-0.000108286
0.000382737
-0.000112898
0.00038446
-0.00011865
0.000386333
-0.000122415
0.000387764
-0.000128821
0.000388169
-0.000130277
0.000388582
-0.000137463
0.000384898
-0.000134252
-0.000142642
0.000383438
0.000386591
4.07282e-06
-0.000385776
0.000387254
-3.2527e-06
0.000387753
-1.06894e-05
0.000388053
-1.79761e-05
0.000388117
-2.50392e-05
0.000387922
-3.17829e-05
0.000387444
-3.81476e-05
0.000386713
-4.40933e-05
0.000385744
-4.96155e-05
0.000384609
-5.47164e-05
0.000383345
-5.94528e-05
0.000382056
-6.38768e-05
0.000380792
-6.81153e-05
0.000379677
-7.22349e-05
0.000378757
-7.63939e-05
0.000378123
-8.059e-05
0.000377796
-8.49703e-05
0.000377753
-8.94132e-05
0.000378006
-9.40746e-05
0.000378338
-9.87716e-05
0.000378941
-0.000103711
0.000379286
-0.00010863
0.000379833
-0.000113445
0.000379279
-0.000118095
0.000378544
-0.00012168
0.000375481
-0.000125757
0.000371591
-0.000126388
0.00036412
-0.000129992
0.000353453
-0.000123585
-0.000129885
0.000340696
0.000397065
3.18164e-06
-0.000396174
0.000397799
-3.9859e-06
0.000398203
-1.10939e-05
0.000398345
-1.81185e-05
0.000398191
-2.48844e-05
0.000397655
-3.12468e-05
0.000396744
-3.72372e-05
0.000395502
-4.28506e-05
0.000393972
-4.80858e-05
0.000392224
-5.29686e-05
0.000390326
-5.75543e-05
0.000388376
-6.19274e-05
0.00038645
-6.61891e-05
0.000384661
-7.04464e-05
0.000383062
-7.47944e-05
0.000381744
-7.92721e-05
0.000380668
-8.38947e-05
0.000379836
-8.85807e-05
0.000379054
-9.32922e-05
0.000378109
-9.78267e-05
0.000376734
-0.000102336
0.000374704
-0.000106601
0.000371819
-0.00011056
0.000367126
-0.000113402
0.00036059
-0.000115144
0.000350246
-0.000115414
0.000337577
-0.000113719
0.000318366
-0.000110781
0.000296815
-0.000102034
-9.9856e-05
0.000266786
0.000410891
2.05869e-06
-0.000409768
0.000411652
-4.74636e-06
0.000412106
-1.1548e-05
0.000412017
-1.80294e-05
0.000411344
-2.42119e-05
0.000410184
-3.00872e-05
0.000408583
-3.56362e-05
0.000406583
-4.08506e-05
0.000404245
-4.57476e-05
0.000401647
-5.03708e-05
0.000398882
-5.47889e-05
0.000396041
-5.90866e-05
0.000393205
-6.33531e-05
0.000390435
-6.7676e-05
0.00038776
-7.21199e-05
0.000385194
-7.67061e-05
0.000382661
-8.13613e-05
0.000380023
-8.59423e-05
0.000376964
-9.02333e-05
0.000373124
-9.39873e-05
0.000367743
-9.69542e-05
0.000360543
-9.94011e-05
0.000350875
-0.000100893
0.000338191
-0.000100717
0.000321637
-9.85897e-05
0.000300087
-9.38645e-05
0.000273183
-8.68147e-05
0.000239862
-7.7459e-05
0.000203459
-6.56312e-05
-5.39663e-05
0.000157569
0.000427029
-4.00209e-07
-0.00042457
0.000428306
-6.02341e-06
0.000428633
-1.18756e-05
0.000428253
-1.76487e-05
0.000427217
-2.31763e-05
0.000425522
-2.83921e-05
0.000423188
-3.33025e-05
0.000420278
-3.79399e-05
0.000416875
-4.2345e-05
0.000413075
-4.65708e-05
0.000408973
-5.06869e-05
0.000404654
-5.47676e-05
0.000400176
-5.8875e-05
0.000395533
-6.30329e-05
0.000390623
-6.72097e-05
0.000385278
-7.13614e-05
0.000379265
-7.53487e-05
0.000372226
-7.89024e-05
0.000363726
-8.17342e-05
0.000353381
-8.36413e-05
0.000340463
-8.40362e-05
0.000323783
-8.27212e-05
0.00030249
-7.95999e-05
0.000276322
-7.45488e-05
0.000245516
-6.77844e-05
0.00020988
-5.82281e-05
0.000168008
-4.49429e-05
0.000122158
-3.16091e-05
7.89509e-05
-2.24239e-05
-1.68815e-05
4.18661e-05
0.000452772
-7.16485e-07
-0.000452455
0.000453167
-6.41883e-06
0.000452828
-1.15363e-05
0.000451486
-1.63075e-05
0.000449105
-2.07948e-05
0.000445748
-2.50347e-05
0.000441486
-2.90406e-05
0.000436383
-3.28372e-05
0.000430503
-3.64651e-05
0.000423917
-3.99845e-05
0.000416697
-4.34671e-05
0.0004089
-4.69703e-05
0.000400557
-5.05322e-05
0.000391607
-5.40834e-05
0.000381706
-5.73083e-05
0.000370278
-5.99338e-05
0.000356897
-6.19673e-05
0.000340786
-6.27917e-05
0.000321274
-6.22221e-05
0.000298105
-6.04726e-05
0.000272411
-5.83421e-05
0.000242559
-5.28692e-05
0.000206646
-4.36866e-05
0.000164595
-3.24984e-05
0.00011912
-2.23088e-05
7.51357e-05
-1.42442e-05
3.77643e-05
-7.57153e-06
9.03085e-06
-2.87569e-06
-1.11964e-05
-2.19665e-06
-4.56597e-06
-2.35119e-05
0.000487105
-2.9651e-06
-0.000484857
0.000486619
-5.93236e-06
0.000484175
-9.09213e-06
0.000480099
-1.22318e-05
0.000474502
-1.51982e-05
0.000467413
-1.79456e-05
0.000458854
-2.04814e-05
0.00044885
-2.28334e-05
0.00043741
-2.50251e-05
0.000424513
-2.70869e-05
0.000410092
-2.90469e-05
0.000394047
-3.09253e-05
0.00037624
-3.27247e-05
0.000356541
-3.43847e-05
0.000335082
-3.58492e-05
0.000312261
-3.71124e-05
0.000286352
-3.60585e-05
0.000255983
-3.24227e-05
0.000220323
-2.65623e-05
0.000179939
-2.00882e-05
0.000135743
-1.41459e-05
9.25353e-05
-9.66191e-06
5.40752e-05
-5.22654e-06
2.24472e-05
-8.70312e-07
-2.17321e-06
2.31156e-06
-1.91641e-05
2.74666e-06
-2.89043e-05
2.16871e-06
-3.35173e-05
1.7373e-06
-3.6784e-05
1.07004e-06
-1.49549e-07
-4.12004e-05
0.000463298
-0.000466263
0.000457366
0.000448274
0.000436042
0.000420844
0.000402898
0.000382417
0.000359583
0.000334558
0.000307471
0.000278424
0.000247499
0.000214774
0.00018039
0.00014454
0.000107428
7.13695e-05
3.89469e-05
1.23846e-05
-7.70363e-06
-2.18496e-05
-3.15115e-05
-3.6738e-05
-3.76083e-05
-3.52968e-05
-3.25501e-05
-3.03814e-05
-2.86441e-05
-2.75741e-05
-2.77236e-05
0.000399346
0.000377457
0.000354716
0.000329787
0.000303061
0.000277102
0.000252066
0.000225924
0.000198706
0.00017086
0.00014089
0.000112083
7.56636e-05
4.07223e-05
0.000448925
5.43996e-06
0.000440346
8.5789e-06
0.000428648
1.16982e-05
0.000414004
1.46439e-05
0.000396634
1.737e-05
0.000376751
1.98834e-05
0.000354541
2.22095e-05
0.000330171
2.43702e-05
0.000303778
2.63929e-05
0.000275474
2.83045e-05
0.000245351
3.01226e-05
0.000213502
3.18495e-05
0.000180079
3.34226e-05
0.000145296
3.47832e-05
0.000109326
3.59698e-05
7.43529e-05
3.49731e-05
4.28255e-05
3.15273e-05
1.68545e-05
2.59711e-05
-2.92667e-06
1.97812e-05
-1.69714e-05
1.40448e-05
-2.66587e-05
9.68731e-06
-3.20714e-05
5.41264e-06
-3.33198e-05
1.24843e-06
-3.15986e-05
-1.72117e-06
-2.9396e-05
-2.20261e-06
-2.7585e-05
-1.81099e-06
-2.59307e-05
-1.65432e-06
-2.45082e-05
-1.42254e-06
-7.97265e-07
-2.37109e-05
0.000477496
5.49586e-06
0.000475456
1.06183e-05
0.000471781
1.53737e-05
0.000466584
1.98405e-05
0.000459896
2.40575e-05
0.000451742
2.8038e-05
0.00044215
3.18018e-05
0.000431131
3.53885e-05
0.000418672
3.88524e-05
0.000404711
4.22658e-05
0.000389154
4.56793e-05
0.000371868
4.9135e-05
0.000352734
5.2557e-05
0.000331937
5.55805e-05
0.000309718
5.81883e-05
0.000284523
6.01683e-05
0.00025506
6.09902e-05
0.000220557
6.04738e-05
0.000181529
5.88097e-05
0.000138806
5.67679e-05
9.6909e-05
5.15839e-05
5.9464e-05
4.28577e-05
2.85054e-05
3.2207e-05
4.29558e-06
2.24886e-05
-1.25135e-05
1.46065e-05
-2.22912e-05
7.96676e-06
-2.68352e-05
2.8896e-06
-2.93736e-05
1.11593e-06
1.93248e-06
-3.21034e-05
0.000444893
4.90195e-06
0.000444807
1.07043e-05
0.00044374
1.64415e-05
0.00044164
2.19403e-05
0.00043857
2.71275e-05
0.000434601
3.20069e-05
0.000429796
3.66065e-05
0.000424219
4.09656e-05
0.00041794
4.51315e-05
0.000411033
4.91729e-05
0.000403554
5.31582e-05
0.000395537
5.71516e-05
0.000386919
6.1175e-05
0.000377291
6.5209e-05
0.000366256
6.92233e-05
0.000353345
7.30785e-05
0.000337819
7.65164e-05
0.000319029
7.92638e-05
0.000296728
8.1111e-05
0.000271966
8.15299e-05
0.000243208
8.0342e-05
0.000208678
7.73876e-05
0.000168334
7.2551e-05
0.00012474
6.60821e-05
8.24471e-05
5.68998e-05
4.62718e-05
4.4142e-05
1.81423e-05
3.10191e-05
-1.97973e-06
2.1238e-05
1.43242e-05
-1.43714e-05
0.00042055
3.29549e-06
0.000421136
1.01182e-05
0.000420991
1.65864e-05
0.000420186
2.27458e-05
0.000418719
2.8594e-05
0.000416613
3.41131e-05
0.000413929
3.9291e-05
0.000410751
4.41429e-05
0.000407175
4.8708e-05
0.000403295
5.30527e-05
0.000399195
5.72587e-05
0.000394932
6.14144e-05
0.000390499
6.56081e-05
0.000385802
6.99054e-05
0.0003807
7.43252e-05
0.00037497
7.88091e-05
0.000368266
8.32203e-05
0.000360175
8.73541e-05
0.000350322
9.09641e-05
0.000338018
9.38339e-05
0.000322159
9.62015e-05
0.000301927
9.76192e-05
0.000277091
9.7387e-05
0.00024792
9.52533e-05
0.00021418
9.06397e-05
0.000174626
8.36962e-05
0.000131132
7.45134e-05
8.95906e-05
6.27792e-05
5.11072e-05
5.28075e-05
0.000404474
2.48003e-06
0.000405071
9.52134e-06
0.000405157
1.6501e-05
0.000404657
2.3245e-05
0.000403669
2.95818e-05
0.000402243
3.55391e-05
0.00040042
4.11144e-05
0.000398258
4.63045e-05
0.000395836
5.11308e-05
0.000393242
5.56462e-05
0.000390569
5.99318e-05
0.000387896
6.40873e-05
0.000385287
6.82174e-05
0.000382776
7.24161e-05
0.000380378
7.67237e-05
0.000378025
8.11623e-05
0.000375589
8.56562e-05
0.000372775
9.0168e-05
0.000369241
9.44982e-05
0.000364267
9.88079e-05
0.000357618
0.000102851
0.000348673
0.000106564
0.000336913
0.000109146
0.000321525
0.000110642
0.000301478
0.000110687
0.000276488
0.000108687
0.000245433
0.000105568
0.000211675
9.65366e-05
9.42406e-05
0.000168542
0.000391034
1.56076e-06
0.000391565
8.99007e-06
0.000391826
1.62395e-05
0.000391806
2.32655e-05
0.00039141
2.99772e-05
0.00039064
3.63096e-05
0.000389535
4.22189e-05
0.000388143
4.76965e-05
0.000386531
5.2743e-05
0.000384766
5.74111e-05
0.000382947
6.17514e-05
0.000381147
6.58867e-05
0.000379482
6.98823e-05
0.000378004
7.38946e-05
0.000376806
7.79217e-05
0.000375853
8.21154e-05
0.000375159
8.63496e-05
0.000374536
9.07918e-05
0.000373794
9.524e-05
0.000372682
9.99194e-05
0.000371015
0.000104518
0.000368578
0.000109001
0.000364483
0.000113242
0.00035869
0.000116434
0.000349381
0.000119996
0.000337906
0.000120161
0.000320383
0.000123092
0.00030052
0.000116399
0.000121494
0.000273267
0.000380917
8.24356e-07
0.000381502
8.40532e-06
0.00038189
1.58512e-05
0.000382045
2.311e-05
0.000381947
3.00761e-05
0.00038157
3.66863e-05
0.00038094
4.28491e-05
0.000380073
4.85631e-05
0.000379039
5.37772e-05
0.000377874
5.85761e-05
0.000376681
6.29437e-05
0.00037551
6.70582e-05
0.000374485
7.09073e-05
0.000373647
7.47323e-05
0.000373099
7.84698e-05
0.000372849
8.23652e-05
0.000372903
8.62958e-05
0.000373249
9.04457e-05
0.000373722
9.47675e-05
0.000374475
9.91663e-05
0.000375045
0.000103948
0.000375829
0.000108217
0.00037563
0.000113441
0.000375277
0.000116787
0.000372799
0.000122474
0.000369472
0.000123487
0.000362923
0.000129641
0.000353106
0.000126216
0.000132861
0.000341738
0.000372857
2.945e-07
0.000373356
7.90645e-06
0.000373779
1.54284e-05
0.000374065
2.28233e-05
0.000374197
2.99447e-05
0.000374133
3.67504e-05
0.000373892
4.30903e-05
0.000373465
4.89899e-05
0.000372913
5.43293e-05
0.000372257
5.92322e-05
0.000371583
6.36171e-05
0.000370943
6.76981e-05
0.000370421
7.14293e-05
0.000370099
7.50547e-05
0.00037
7.85691e-05
0.000370247
8.21183e-05
0.000370723
8.58195e-05
0.000371649
8.95198e-05
0.00037272
9.36959e-05
0.000374348
9.75385e-05
0.000375952
0.000102345
0.000378084
0.000106084
0.000379921
0.000111604
0.000381916
0.000114791
0.00038348
0.000120911
0.000384021
0.000122947
0.00038453
0.000129132
0.00038108
0.000129666
0.000134403
0.000379538
0.000364743
-2.93759e-07
0.000365344
7.30591e-06
0.000365936
1.48364e-05
0.000366457
2.23026e-05
0.000366881
2.95203e-05
0.000367168
3.64631e-05
0.000367327
4.29313e-05
0.000367352
4.8965e-05
0.000367274
5.4407e-05
0.000367131
5.93758e-05
0.000366959
6.37887e-05
0.000366849
6.78079e-05
0.000366812
7.1467e-05
0.000366994
7.48723e-05
0.000367332
7.82307e-05
0.000368034
8.14167e-05
0.000368929
8.49247e-05
0.000370284
8.81648e-05
0.000371853
9.21269e-05
0.000373897
9.54947e-05
0.000376202
0.000100039
0.000378804
0.000103482
0.000381852
0.000108556
0.000384668
0.000111975
0.000388365
0.000117213
0.000390691
0.000120621
0.0003946
0.000125223
0.000395295
0.000128971
0.000131442
0.000398256
0.00035834
-9.34426e-07
0.000359012
6.63339e-06
0.000359685
1.41639e-05
0.000360315
2.16723e-05
0.000360882
2.89533e-05
0.000361368
3.59768e-05
0.000361767
4.2533e-05
0.000362092
4.86393e-05
0.000362343
5.41562e-05
0.000362581
5.91381e-05
0.000362801
6.35688e-05
0.000363115
6.74933e-05
0.000363502
7.10805e-05
0.000364107
7.42671e-05
0.000364883
7.74546e-05
0.000365971
8.03291e-05
0.00036733
8.35655e-05
0.000369019
8.64758e-05
0.000371105
9.00406e-05
0.000373417
9.31832e-05
0.000376321
9.71355e-05
0.000379187
0.000100616
0.000382962
0.000104781
0.000386249
0.000108689
0.000390832
0.000112631
0.000394316
0.000117136