/*--------------------------------*- C++ -*----------------------------------*\
| =========                 |                                                 |
| \\      /  F ield         | OpenFOAM: The Open Source CFD Toolbox           |
|  \\    /   O peration     | Version:  2312                                  |
|   \\  /    A nd           | Website:  www.openfoam.com                      |
|    \\/     M anipulation  |                                                 |
\*---------------------------------------------------------------------------*/
FoamFile
{
    version     2.0;
    format      ascii;
    arch        "LSB;label=32;scalar=64";
    class       volVectorField;
    location    "16000";
    object      U;
}
// * * * * * * * * * * * * * * * * * * * * * * * * * * * * * * * * * * * * * //

dimensions      [0 1 -1 0 0 0 0];

internalField   nonuniform List<vector> 
10800
(
(0.000992484 4.9408e-06 0)
(0.00099004 1.24543e-05 0)
(0.000986879 1.74731e-05 0)
(0.000980512 2.0654e-05 0)
(0.000971108 2.27338e-05 0)
(0.00095983 2.42238e-05 0)
(0.000947744 2.53587e-05 0)
(0.000935386 2.62132e-05 0)
(0.000922898 2.68116e-05 0)
(0.00091026 2.71788e-05 0)
(0.000897427 2.73523e-05 0)
(0.000884395 2.7375e-05 0)
(0.000871203 2.72849e-05 0)
(0.000857906 2.71096e-05 0)
(0.000844557 2.68669e-05 0)
(0.000831195 2.65689e-05 0)
(0.000817846 2.62235e-05 0)
(0.00080453 2.58359e-05 0)
(0.000791264 2.5412e-05 0)
(0.000778066 2.49572e-05 0)
(0.00076495 2.44745e-05 0)
(0.000751936 2.39652e-05 0)
(0.000739039 2.34317e-05 0)
(0.000726276 2.28774e-05 0)
(0.000713662 2.23025e-05 0)
(0.000701213 2.17048e-05 0)
(0.000688944 2.10839e-05 0)
(0.000676872 2.04454e-05 0)
(0.000665013 1.97905e-05 0)
(0.000653383 1.91147e-05 0)
(0.000642 1.84093e-05 0)
(0.000630879 1.76803e-05 0)
(0.000620043 1.69376e-05 0)
(0.000609501 1.61893e-05 0)
(0.000599279 1.54173e-05 0)
(0.000589383 1.46075e-05 0)
(0.000579857 1.37494e-05 0)
(0.000570695 1.28781e-05 0)
(0.000561949 1.20191e-05 0)
(0.000553575 1.12109e-05 0)
(0.00054566 1.04164e-05 0)
(0.000538107 9.61001e-06 0)
(0.000531107 8.6898e-06 0)
(0.000524461 7.64745e-06 0)
(0.000518566 6.41143e-06 0)
(0.000512955 5.07518e-06 0)
(0.000508442 3.60901e-06 0)
(0.000503905 2.17833e-06 0)
(0.000501108 7.39217e-07 0)
(0.000497381 -5.51423e-07 0)
(0.000496814 -1.72689e-06 0)
(0.000492984 -2.80415e-06 0)
(0.000495855 -3.50241e-06 0)
(0.000489581 -4.62475e-06 0)
(0.000499249 -4.3788e-06 0)
(0.000484675 -6.58049e-06 0)
(0.000510278 -3.7123e-06 0)
(0.000472662 -1.03189e-05 0)
(0.000537425 6.29063e-07 0)
(0.000442486 -2.05768e-05 0)
(0.00100003 5.7985e-06 0)
(0.00100172 1.4981e-05 0)
(0.00100423 2.1503e-05 0)
(0.00100707 2.60566e-05 0)
(0.0010098 2.94042e-05 0)
(0.00101222 3.2074e-05 0)
(0.00101425 3.43134e-05 0)
(0.00101593 3.62087e-05 0)
(0.00101732 3.77922e-05 0)
(0.00101845 3.90942e-05 0)
(0.00101933 4.01561e-05 0)
(0.00101994 4.10232e-05 0)
(0.00102029 4.17357e-05 0)
(0.00102039 4.23233e-05 0)
(0.00102024 4.28055e-05 0)
(0.00101985 4.31949e-05 0)
(0.00101925 4.34996e-05 0)
(0.00101844 4.37254e-05 0)
(0.00101744 4.38774e-05 0)
(0.00101625 4.39598e-05 0)
(0.0010149 4.39762e-05 0)
(0.00101338 4.3928e-05 0)
(0.00101172 4.3816e-05 0)
(0.00100991 4.36398e-05 0)
(0.00100798 4.3401e-05 0)
(0.00100592 4.30986e-05 0)
(0.00100377 4.27332e-05 0)
(0.00100151 4.23002e-05 0)
(0.000999187 4.18006e-05 0)
(0.000996758 4.123e-05 0)
(0.000994314 4.05936e-05 0)
(0.000991761 3.98834e-05 0)
(0.000989245 3.91049e-05 0)
(0.000986606 3.82426e-05 0)
(0.000984086 3.73095e-05 0)
(0.000981404 3.62857e-05 0)
(0.000978953 3.51997e-05 0)
(0.00097624 3.40161e-05 0)
(0.000973933 3.27769e-05 0)
(0.000971201 3.14137e-05 0)
(0.000969192 3.00031e-05 0)
(0.000966474 2.84398e-05 0)
(0.00096497 2.68702e-05 0)
(0.000962177 2.51098e-05 0)
(0.000961356 2.33997e-05 0)
(0.0009582 2.14015e-05 0)
(0.000958319 1.95368e-05 0)
(0.00095433 1.72443e-05 0)
(0.000955924 1.53003e-05 0)
(0.000950399 1.27683e-05 0)
(0.000954488 1.10018e-05 0)
(0.000946238 8.33539e-06 0)
(0.000954569 7.03231e-06 0)
(0.000941457 4.14844e-06 0)
(0.000956937 3.46045e-06 0)
(0.000935174 1.86289e-08 0)
(0.0009628 6.65083e-08 0)
(0.000925831 -4.22583e-06 0)
(0.000974102 -3.53746e-06 0)
(0.000910962 -7.97861e-06 0)
(0.000999989 1.95766e-06 0)
(0.00100078 5.74869e-06 0)
(0.00100224 9.26245e-06 0)
(0.00100424 1.24149e-05 0)
(0.00100655 1.52031e-05 0)
(0.00100899 1.7672e-05 0)
(0.00101142 1.9876e-05 0)
(0.00101379 2.1858e-05 0)
(0.00101611 2.36449e-05 0)
(0.00101839 2.52531e-05 0)
(0.00102062 2.66954e-05 0)
(0.0010228 2.7985e-05 0)
(0.00102494 2.91358e-05 0)
(0.00102701 3.0161e-05 0)
(0.00102901 3.10728e-05 0)
(0.00103095 3.18806e-05 0)
(0.00103283 3.25919e-05 0)
(0.00103464 3.32116e-05 0)
(0.0010364 3.37443e-05 0)
(0.0010381 3.41931e-05 0)
(0.00103974 3.45617e-05 0)
(0.00104133 3.48512e-05 0)
(0.00104287 3.50635e-05 0)
(0.00104435 3.51974e-05 0)
(0.00104579 3.52549e-05 0)
(0.00104717 3.52344e-05 0)
(0.00104851 3.51385e-05 0)
(0.00104979 3.49623e-05 0)
(0.00105104 3.47076e-05 0)
(0.00105223 3.43669e-05 0)
(0.0010534 3.3946e-05 0)
(0.00105449 3.34365e-05 0)
(0.00105558 3.28489e-05 0)
(0.00105658 3.21657e-05 0)
(0.00105761 3.13998e-05 0)
(0.0010585 3.05241e-05 0)
(0.00105948 2.9567e-05 0)
(0.00106027 2.84966e-05 0)
(0.00106123 2.73617e-05 0)
(0.00106189 2.61028e-05 0)
(0.00106284 2.47819e-05 0)
(0.00106334 2.32981e-05 0)
(0.00106432 2.1757e-05 0)
(0.0010646 2.00183e-05 0)
(0.00106569 1.8272e-05 0)
(0.00106567 1.63062e-05 0)
(0.00106698 1.4422e-05 0)
(0.00106649 1.22726e-05 0)
(0.00106818 1.03282e-05 0)
(0.001067 8.03368e-06 0)
(0.0010694 6.14205e-06 0)
(0.00106719 3.78235e-06 0)
(0.00107087 2.13007e-06 0)
(0.00106712 -1.86718e-07 0)
(0.00107292 -1.40827e-06 0)
(0.00106669 -3.60551e-06 0)
(0.00107575 -4.3158e-06 0)
(0.00106528 -6.28042e-06 0)
(0.00107949 -6.54831e-06 0)
(0.00106252 -7.92145e-06 0)
(0.00100001 1.73573e-06 0)
(0.00100047 5.14085e-06 0)
(0.00100128 8.38814e-06 0)
(0.0010024 1.14011e-05 0)
(0.00100375 1.41388e-05 0)
(0.00100527 1.65979e-05 0)
(0.0010069 1.88e-05 0)
(0.0010086 2.07746e-05 0)
(0.00101036 2.25485e-05 0)
(0.00101215 2.41422e-05 0)
(0.00101398 2.55711e-05 0)
(0.00101583 2.68477e-05 0)
(0.0010177 2.79839e-05 0)
(0.00101959 2.89912e-05 0)
(0.00102147 2.98809e-05 0)
(0.00102337 3.06629e-05 0)
(0.00102526 3.13456e-05 0)
(0.00102715 3.19358e-05 0)
(0.00102903 3.24384e-05 0)
(0.00103092 3.28578e-05 0)
(0.0010328 3.31979e-05 0)
(0.00103467 3.34612e-05 0)
(0.00103654 3.36493e-05 0)
(0.00103841 3.3763e-05 0)
(0.00104026 3.38032e-05 0)
(0.00104211 3.37709e-05 0)
(0.00104396 3.36664e-05 0)
(0.00104579 3.3489e-05 0)
(0.00104761 3.32367e-05 0)
(0.00104942 3.2908e-05 0)
(0.00105122 3.2502e-05 0)
(0.001053 3.20198e-05 0)
(0.00105477 3.14595e-05 0)
(0.00105651 3.08204e-05 0)
(0.00105825 3.00964e-05 0)
(0.00105994 2.92875e-05 0)
(0.00106163 2.83894e-05 0)
(0.00106326 2.74093e-05 0)
(0.00106491 2.63427e-05 0)
(0.00106647 2.5198e-05 0)
(0.00106806 2.39591e-05 0)
(0.00106953 2.26363e-05 0)
(0.00107107 2.12081e-05 0)
(0.00107243 1.97033e-05 0)
(0.0010739 1.8103e-05 0)
(0.00107511 1.6455e-05 0)
(0.0010765 1.47288e-05 0)
(0.00107751 1.29771e-05 0)
(0.0010788 1.11472e-05 0)
(0.00107956 9.29887e-06 0)
(0.00108078 7.37293e-06 0)
(0.00108125 5.45843e-06 0)
(0.00108246 3.50494e-06 0)
(0.00108265 1.64035e-06 0)
(0.00108399 -2.23635e-07 0)
(0.00108391 -1.8862e-06 0)
(0.00108562 -3.6225e-06 0)
(0.00108533 -4.9147e-06 0)
(0.00108758 -6.59086e-06 0)
(0.00108684 -7.34963e-06 0)
(0.001 1.14631e-06 0)
(0.00100023 3.41067e-06 0)
(0.00100067 5.60854e-06 0)
(0.00100134 7.70805e-06 0)
(0.0010022 9.68763e-06 0)
(0.00100324 1.15368e-05 0)
(0.00100441 1.3254e-05 0)
(0.0010057 1.48431e-05 0)
(0.00100706 1.63099e-05 0)
(0.0010085 1.76602e-05 0)
(0.00100998 1.88991e-05 0)
(0.00101151 2.00314e-05 0)
(0.00101308 2.10614e-05 0)
(0.00101468 2.19936e-05 0)
(0.0010163 2.28325e-05 0)
(0.00101794 2.3583e-05 0)
(0.0010196 2.42488e-05 0)
(0.00102127 2.48334e-05 0)
(0.00102295 2.53395e-05 0)
(0.00102464 2.57698e-05 0)
(0.00102633 2.6126e-05 0)
(0.00102803 2.641e-05 0)
(0.00102973 2.66222e-05 0)
(0.00103144 2.67635e-05 0)
(0.00103314 2.68336e-05 0)
(0.00103485 2.68341e-05 0)
(0.00103656 2.67639e-05 0)
(0.00103826 2.66241e-05 0)
(0.00103996 2.64107e-05 0)
(0.00104165 2.61256e-05 0)
(0.00104334 2.57645e-05 0)
(0.00104501 2.53325e-05 0)
(0.00104668 2.48231e-05 0)
(0.00104833 2.42421e-05 0)
(0.00104997 2.35763e-05 0)
(0.00105159 2.28359e-05 0)
(0.00105318 2.20048e-05 0)
(0.00105475 2.11047e-05 0)
(0.0010563 2.01128e-05 0)
(0.00105781 1.90598e-05 0)
(0.00105929 1.79035e-05 0)
(0.00106072 1.66873e-05 0)
(0.00106212 1.53482e-05 0)
(0.00106346 1.39647e-05 0)
(0.00106476 1.24527e-05 0)
(0.001066 1.09395e-05 0)
(0.0010672 9.29321e-06 0)
(0.00106835 7.69188e-06 0)
(0.00106945 5.91992e-06 0)
(0.00107054 4.23531e-06 0)
(0.00107158 2.31462e-06 0)
(0.00107266 5.69545e-07 0)
(0.00107367 -1.48099e-06 0)
(0.00107481 -3.17065e-06 0)
(0.00107574 -5.25311e-06 0)
(0.00107699 -6.68398e-06 0)
(0.00107779 -8.7562e-06 0)
(0.00107931 -9.81694e-06 0)
(0.00107988 -1.2061e-05 0)
(0.00108179 -1.27315e-05 0)
(0.001 9.20231e-07 0)
(0.00100017 2.7511e-06 0)
(0.00100051 4.55378e-06 0)
(0.001001 6.30922e-06 0)
(0.00100165 7.9998e-06 0)
(0.00100242 9.61145e-06 0)
(0.00100332 1.11347e-05 0)
(0.0010043 1.25646e-05 0)
(0.00100537 1.38993e-05 0)
(0.00100651 1.5139e-05 0)
(0.00100771 1.6285e-05 0)
(0.00100895 1.73391e-05 0)
(0.00101025 1.83031e-05 0)
(0.00101158 1.91794e-05 0)
(0.00101294 1.99704e-05 0)
(0.00101433 2.0679e-05 0)
(0.00101575 2.13077e-05 0)
(0.00101719 2.18589e-05 0)
(0.00101864 2.23347e-05 0)
(0.00102011 2.27373e-05 0)
(0.00102159 2.30683e-05 0)
(0.00102308 2.33296e-05 0)
(0.00102458 2.35213e-05 0)
(0.00102608 2.36449e-05 0)
(0.00102759 2.37002e-05 0)
(0.0010291 2.36892e-05 0)
(0.00103061 2.36106e-05 0)
(0.00103212 2.34661e-05 0)
(0.00103362 2.32525e-05 0)
(0.00103512 2.29722e-05 0)
(0.00103662 2.26214e-05 0)
(0.0010381 2.22055e-05 0)
(0.00103958 2.17181e-05 0)
(0.00104104 2.11653e-05 0)
(0.00104249 2.05356e-05 0)
(0.00104392 1.98394e-05 0)
(0.00104533 1.90626e-05 0)
(0.00104672 1.82254e-05 0)
(0.00104809 1.73066e-05 0)
(0.00104943 1.63341e-05 0)
(0.00105075 1.527e-05 0)
(0.00105204 1.41549e-05 0)
(0.00105329 1.29341e-05 0)
(0.00105453 1.16779e-05 0)
(0.00105572 1.03111e-05 0)
(0.00105688 8.94409e-06 0)
(0.001058 7.45478e-06 0)
(0.0010591 5.99998e-06 0)
(0.00106012 4.37794e-06 0)
(0.00106116 2.8258e-06 0)
(0.00106207 1.03549e-06 0)
(0.00106305 -6.07541e-07 0)
(0.00106385 -2.57425e-06 0)
(0.00106489 -4.24929e-06 0)
(0.00106564 -6.36339e-06 0)
(0.00106684 -7.95408e-06 0)
(0.0010675 -1.02067e-05 0)
(0.00106899 -1.16429e-05 0)
(0.00106945 -1.41666e-05 0)
(0.00107126 -1.54817e-05 0)
(0.001 7.25773e-07 0)
(0.00100013 2.16988e-06 0)
(0.00100037 3.59344e-06 0)
(0.00100073 4.98365e-06 0)
(0.00100121 6.32894e-06 0)
(0.0010018 7.61985e-06 0)
(0.00100248 8.84932e-06 0)
(0.00100325 1.00127e-05 0)
(0.0010041 1.11073e-05 0)
(0.00100502 1.21317e-05 0)
(0.001006 1.30856e-05 0)
(0.00100703 1.39693e-05 0)
(0.00100811 1.47831e-05 0)
(0.00100923 1.55278e-05 0)
(0.00101039 1.62041e-05 0)
(0.00101158 1.68132e-05 0)
(0.0010128 1.73559e-05 0)
(0.00101405 1.78334e-05 0)
(0.00101532 1.82465e-05 0)
(0.0010166 1.85964e-05 0)
(0.0010179 1.88837e-05 0)
(0.00101921 1.91094e-05 0)
(0.00102054 1.92734e-05 0)
(0.00102186 1.93764e-05 0)
(0.0010232 1.9418e-05 0)
(0.00102454 1.93995e-05 0)
(0.00102588 1.93199e-05 0)
(0.00102721 1.918e-05 0)
(0.00102855 1.89772e-05 0)
(0.00102987 1.87132e-05 0)
(0.00103119 1.83855e-05 0)
(0.0010325 1.79974e-05 0)
(0.0010338 1.75443e-05 0)
(0.00103509 1.70298e-05 0)
(0.00103636 1.64456e-05 0)
(0.00103761 1.57986e-05 0)
(0.00103883 1.50793e-05 0)
(0.00104004 1.43012e-05 0)
(0.00104122 1.34489e-05 0)
(0.00104238 1.25404e-05 0)
(0.0010435 1.15479e-05 0)
(0.0010446 1.04985e-05 0)
(0.00104566 9.35344e-06 0)
(0.00104668 8.1616e-06 0)
(0.00104766 6.86943e-06 0)
(0.00104862 5.55371e-06 0)
(0.00104953 4.1232e-06 0)
(0.00105043 2.68945e-06 0)
(0.00105128 1.09708e-06 0)
(0.00105217 -4.75587e-07 0)
(0.00105299 -2.26292e-06 0)
(0.00105389 -3.96131e-06 0)
(0.00105465 -5.92647e-06 0)
(0.00105556 -7.66719e-06 0)
(0.00105625 -9.78518e-06 0)
(0.00105725 -1.15014e-05 0)
(0.00105788 -1.38084e-05 0)
(0.00105905 -1.54856e-05 0)
(0.00105955 -1.81334e-05 0)
(0.00106089 -1.98369e-05 0)
(0.001 5.77153e-07 0)
(0.0010001 1.72663e-06 0)
(0.00100029 2.86328e-06 0)
(0.00100057 3.97909e-06 0)
(0.00100095 5.06645e-06 0)
(0.00100141 6.11854e-06 0)
(0.00100196 7.1296e-06 0)
(0.00100258 8.09505e-06 0)
(0.00100327 9.01139e-06 0)
(0.00100403 9.87614e-06 0)
(0.00100485 1.06876e-05 0)
(0.00100571 1.14448e-05 0)
(0.00100663 1.21469e-05 0)
(0.00100759 1.27934e-05 0)
(0.00100858 1.33841e-05 0)
(0.00100961 1.39188e-05 0)
(0.00101067 1.43976e-05 0)
(0.00101175 1.48206e-05 0)
(0.00101286 1.51879e-05 0)
(0.00101398 1.54998e-05 0)
(0.00101513 1.57566e-05 0)
(0.00101628 1.59585e-05 0)
(0.00101745 1.61052e-05 0)
(0.00101862 1.6197e-05 0)
(0.0010198 1.62336e-05 0)
(0.00102098 1.62157e-05 0)
(0.00102216 1.61424e-05 0)
(0.00102334 1.60138e-05 0)
(0.00102452 1.58286e-05 0)
(0.00102569 1.55872e-05 0)
(0.00102685 1.52884e-05 0)
(0.001028 1.49339e-05 0)
(0.00102914 1.45208e-05 0)
(0.00103026 1.40502e-05 0)
(0.00103137 1.35174e-05 0)
(0.00103245 1.29256e-05 0)
(0.00103351 1.227e-05 0)
(0.00103455 1.15577e-05 0)
(0.00103557 1.07803e-05 0)
(0.00103656 9.94591e-06 0)
(0.00103751 9.03922e-06 0)
(0.00103844 8.07334e-06 0)
(0.00103934 7.02856e-06 0)
(0.00104021 5.93144e-06 0)
(0.00104105 4.75471e-06 0)
(0.00104186 3.53868e-06 0)
(0.00104262 2.23311e-06 0)
(0.00104336 8.92548e-07 0)
(0.00104403 -5.68766e-07 0)
(0.00104471 -2.06163e-06 0)
(0.00104532 -3.71922e-06 0)
(0.00104597 -5.38038e-06 0)
(0.00104652 -7.24383e-06 0)
(0.00104718 -9.0342e-06 0)
(0.00104766 -1.10819e-05 0)
(0.00104836 -1.29614e-05 0)
(0.00104877 -1.52288e-05 0)
(0.00104955 -1.72265e-05 0)
(0.00104983 -1.98425e-05 0)
(0.00105064 -2.2059e-05 0)
(0.001 4.60202e-07 0)
(0.00100008 1.37725e-06 0)
(0.00100024 2.28554e-06 0)
(0.00100047 3.17962e-06 0)
(0.00100077 4.05412e-06 0)
(0.00100115 4.90405e-06 0)
(0.00100161 5.72495e-06 0)
(0.00100212 6.51299e-06 0)
(0.0010027 7.26492e-06 0)
(0.00100334 7.97814e-06 0)
(0.00100403 8.65049e-06 0)
(0.00100477 9.28024e-06 0)
(0.00100555 9.86602e-06 0)
(0.00100637 1.04068e-05 0)
(0.00100723 1.09019e-05 0)
(0.00100812 1.13507e-05 0)
(0.00100904 1.17529e-05 0)
(0.00100999 1.21081e-05 0)
(0.00101096 1.24161e-05 0)
(0.00101195 1.26769e-05 0)
(0.00101295 1.28903e-05 0)
(0.00101397 1.30563e-05 0)
(0.001015 1.31744e-05 0)
(0.00101604 1.32446e-05 0)
(0.00101708 1.32667e-05 0)
(0.00101813 1.32408e-05 0)
(0.00101917 1.31663e-05 0)
(0.00102021 1.30429e-05 0)
(0.00102125 1.28695e-05 0)
(0.00102228 1.26462e-05 0)
(0.0010233 1.23724e-05 0)
(0.00102431 1.20483e-05 0)
(0.0010253 1.16725e-05 0)
(0.00102628 1.12444e-05 0)
(0.00102724 1.07614e-05 0)
(0.00102818 1.02242e-05 0)
(0.00102909 9.63124e-06 0)
(0.00102997 8.9844e-06 0)
(0.00103083 8.28056e-06 0)
(0.00103166 7.51981e-06 0)
(0.00103246 6.69571e-06 0)
(0.00103322 5.80929e-06 0)
(0.00103395 4.85432e-06 0)
(0.00103464 3.83734e-06 0)
(0.00103528 2.75085e-06 0)
(0.00103589 1.60439e-06 0)
(0.00103645 3.80833e-07 0)
(0.00103699 -9.09376e-07 0)
(0.00103748 -2.2946e-06 0)
(0.00103795 -3.75173e-06 0)
(0.00103836 -5.32332e-06 0)
(0.00103877 -6.95654e-06 0)
(0.00103908 -8.72038e-06 0)
(0.00103945 -1.05169e-05 0)
(0.00103968 -1.24705e-05 0)
(0.00104002 -1.44268e-05 0)
(0.00104015 -1.66126e-05 0)
(0.00104049 -1.87865e-05 0)
(0.00104047 -2.13176e-05 0)
(0.00104074 -2.38221e-05 0)
(0.001 3.63626e-07 0)
(0.00100007 1.08837e-06 0)
(0.0010002 1.8068e-06 0)
(0.00100039 2.51502e-06 0)
(0.00100065 3.20918e-06 0)
(0.00100097 3.88562e-06 0)
(0.00100136 4.54093e-06 0)
(0.0010018 5.17205e-06 0)
(0.00100229 5.77628e-06 0)
(0.00100283 6.35128e-06 0)
(0.00100343 6.89504e-06 0)
(0.00100406 7.40586e-06 0)
(0.00100474 7.88232e-06 0)
(0.00100546 8.32325e-06 0)
(0.00100621 8.72773e-06 0)
(0.00100699 9.09502e-06 0)
(0.0010078 9.4245e-06 0)
(0.00100864 9.71559e-06 0)
(0.00100949 9.96787e-06 0)
(0.00101037 1.0181e-05 0)
(0.00101126 1.03547e-05 0)
(0.00101216 1.04886e-05 0)
(0.00101307 1.05824e-05 0)
(0.001014 1.06355e-05 0)
(0.00101492 1.06479e-05 0)
(0.00101585 1.06193e-05 0)
(0.00101678 1.05493e-05 0)
(0.0010177 1.04371e-05 0)
(0.00101862 1.02822e-05 0)
(0.00101953 1.00839e-05 0)
(0.00102042 9.84243e-06 0)
(0.00102131 9.55679e-06 0)
(0.00102218 9.22665e-06 0)
(0.00102303 8.84992e-06 0)
(0.00102386 8.42618e-06 0)
(0.00102466 7.95348e-06 0)
(0.00102543 7.43316e-06 0)
(0.00102618 6.86279e-06 0)
(0.0010269 6.24352e-06 0)
(0.00102758 5.56949e-06 0)
(0.00102823 4.84169e-06 0)
(0.00102884 4.05252e-06 0)
(0.0010294 3.20741e-06 0)
(0.00102993 2.29837e-06 0)
(0.00103041 1.33588e-06 0)
(0.00103084 3.05372e-07 0)
(0.00103122 -7.81648e-07 0)
(0.00103157 -1.95191e-06 0)
(0.00103185 -3.19163e-06 0)
(0.0010321 -4.53753e-06 0)
(0.00103227 -5.95742e-06 0)
(0.00103242 -7.49565e-06 0)
(0.00103247 -9.09859e-06 0)
(0.00103252 -1.08292e-05 0)
(0.00103244 -1.26156e-05 0)
(0.0010324 -1.45612e-05 0)
(0.00103218 -1.65698e-05 0)
(0.00103205 -1.88125e-05 0)
(0.00103164 -2.11334e-05 0)
(0.00103134 -2.38082e-05 0)
(0.001 2.81421e-07 0)
(0.00100006 8.42387e-07 0)
(0.00100017 1.39873e-06 0)
(0.00100034 1.94766e-06 0)
(0.00100056 2.48639e-06 0)
(0.00100084 3.01221e-06 0)
(0.00100117 3.5226e-06 0)
(0.00100156 4.0152e-06 0)
(0.00100199 4.48787e-06 0)
(0.00100246 4.93871e-06 0)
(0.00100298 5.36605e-06 0)
(0.00100354 5.76842e-06 0)
(0.00100414 6.14451e-06 0)
(0.00100477 6.49322e-06 0)
(0.00100544 6.81363e-06 0)
(0.00100613 7.10494e-06 0)
(0.00100685 7.36644e-06 0)
(0.0010076 7.59746e-06 0)
(0.00100836 7.79751e-06 0)
(0.00100915 7.9661e-06 0)
(0.00100994 8.10289e-06 0)
(0.00101075 8.20735e-06 0)
(0.00101157 8.27908e-06 0)
(0.00101239 8.31755e-06 0)
(0.00101322 8.32264e-06 0)
(0.00101405 8.29381e-06 0)
(0.00101488 8.23084e-06 0)
(0.00101571 8.13269e-06 0)
(0.00101652 7.9992e-06 0)
(0.00101733 7.82934e-06 0)
(0.00101812 7.62353e-06 0)
(0.0010189 7.38029e-06 0)
(0.00101966 7.09989e-06 0)
(0.0010204 6.77947e-06 0)
(0.00102111 6.41981e-06 0)
(0.0010218 6.01763e-06 0)
(0.00102246 5.57575e-06 0)
(0.00102308 5.0894e-06 0)
(0.00102368 4.56228e-06 0)
(0.00102423 3.98529e-06 0)
(0.00102474 3.36409e-06 0)
(0.00102521 2.68576e-06 0)
(0.00102563 1.96255e-06 0)
(0.001026 1.17691e-06 0)
(0.00102632 3.49325e-07 0)
(0.00102658 -5.49796e-07 0)
(0.00102679 -1.49153e-06 0)
(0.00102694 -2.52545e-06 0)
(0.00102702 -3.60661e-06 0)
(0.00102704 -4.80805e-06 0)
(0.00102697 -6.05129e-06 0)
(0.00102686 -7.44073e-06 0)
(0.00102664 -8.84819e-06 0)
(0.00102637 -1.04363e-05 0)
(0.00102598 -1.20104e-05 0)
(0.00102555 -1.38339e-05 0)
(0.00102497 -1.56092e-05 0)
(0.00102438 -1.77606e-05 0)
(0.00102355 -1.98069e-05 0)
(0.0010227 -2.24272e-05 0)
(0.001 2.09508e-07 0)
(0.00100005 6.27152e-07 0)
(0.00100015 1.04148e-06 0)
(0.0010003 1.45051e-06 0)
(0.0010005 1.85226e-06 0)
(0.00100075 2.2448e-06 0)
(0.00100104 2.62628e-06 0)
(0.00100138 2.99499e-06 0)
(0.00100177 3.34931e-06 0)
(0.0010022 3.68781e-06 0)
(0.00100266 4.00917e-06 0)
(0.00100316 4.3122e-06 0)
(0.0010037 4.59585e-06 0)
(0.00100427 4.85917e-06 0)
(0.00100487 5.10135e-06 0)
(0.0010055 5.32166e-06 0)
(0.00100615 5.51946e-06 0)
(0.00100682 5.6941e-06 0)
(0.00100752 5.84511e-06 0)
(0.00100823 5.972e-06 0)
(0.00100895 6.07442e-06 0)
(0.00100968 6.15182e-06 0)
(0.00101042 6.20386e-06 0)
(0.00101117 6.22999e-06 0)
(0.00101192 6.2301e-06 0)
(0.00101267 6.20359e-06 0)
(0.00101342 6.15031e-06 0)
(0.00101417 6.06924e-06 0)
(0.0010149 5.96037e-06 0)
(0.00101562 5.82258e-06 0)
(0.00101633 5.65643e-06 0)
(0.00101702 5.46024e-06 0)
(0.00101769 5.23463e-06 0)
(0.00101834 4.97661e-06 0)
(0.00101896 4.68757e-06 0)
(0.00101955 4.36382e-06 0)
(0.00102011 4.00876e-06 0)
(0.00102063 3.61676e-06 0)
(0.00102112 3.19261e-06 0)
(0.00102156 2.72626e-06 0)
(0.00102196 2.22537e-06 0)
(0.0010223 1.67527e-06 0)
(0.0010226 1.09085e-06 0)
(0.00102283 4.51027e-07 0)
(0.00102301 -2.19901e-07 0)
(0.00102312 -9.56826e-07 0)
(0.00102317 -1.72368e-06 0)
(0.00102315 -2.57844e-06 0)
(0.00102304 -3.46261e-06 0)
(0.00102286 -4.46365e-06 0)
(0.00102258 -5.48219e-06 0)
(0.00102222 -6.64987e-06 0)
(0.00102175 -7.80532e-06 0)
(0.0010212 -9.15732e-06 0)
(0.00102051 -1.04535e-05 0)
(0.00101973 -1.20331e-05 0)
(0.0010188 -1.34981e-05 0)
(0.00101777 -1.53967e-05 0)
(0.00101653 -1.7081e-05 0)
(0.00101518 -1.94326e-05 0)
(0.001 1.44858e-07 0)
(0.00100005 4.33631e-07 0)
(0.00100014 7.20163e-07 0)
(0.00100028 1.00313e-06 0)
(0.00100046 1.28119e-06 0)
(0.00100068 1.55306e-06 0)
(0.00100095 1.81747e-06 0)
(0.00100126 2.07325e-06 0)
(0.00100162 2.31929e-06 0)
(0.00100201 2.55457e-06 0)
(0.00100243 2.77816e-06 0)
(0.0010029 2.98919e-06 0)
(0.00100339 3.18689e-06 0)
(0.00100391 3.37054e-06 0)
(0.00100447 3.53953e-06 0)
(0.00100504 3.69328e-06 0)
(0.00100565 3.8313e-06 0)
(0.00100627 3.95305e-06 0)
(0.00100691 4.05818e-06 0)
(0.00100756 4.14625e-06 0)
(0.00100823 4.21699e-06 0)
(0.00100891 4.26993e-06 0)
(0.0010096 4.30481e-06 0)
(0.00101029 4.32114e-06 0)
(0.00101098 4.31886e-06 0)
(0.00101167 4.29743e-06 0)
(0.00101236 4.25677e-06 0)
(0.00101304 4.19602e-06 0)
(0.00101371 4.11526e-06 0)
(0.00101437 4.01349e-06 0)
(0.00101501 3.89127e-06 0)
(0.00101563 3.74707e-06 0)
(0.00101624 3.58159e-06 0)
(0.00101682 3.39227e-06 0)
(0.00101736 3.18056e-06 0)
(0.00101788 2.94308e-06 0)
(0.00101836 2.68302e-06 0)
(0.0010188 2.39511e-06 0)
(0.00101921 2.08399e-06 0)
(0.00101956 1.74063e-06 0)
(0.00101986 1.37252e-06 0)
(0.00102011 9.66414e-07 0)
(0.00102031 5.3618e-07 0)
(0.00102044 6.22256e-08 0)
(0.0010205 -4.32851e-07 0)
(0.00102049 -9.81458e-07 0)
(0.00102041 -1.54975e-06 0)
(0.00102024 -2.19026e-06 0)
(0.00101998 -2.84768e-06 0)
(0.00101963 -3.60222e-06 0)
(0.00101918 -4.36081e-06 0)
(0.00101862 -5.24686e-06 0)
(0.00101793 -6.10925e-06 0)
(0.00101713 -7.14518e-06 0)
(0.00101619 -8.11537e-06 0)
(0.00101512 -9.34045e-06 0)
(0.00101388 -1.04386e-05 0)
(0.00101249 -1.19297e-05 0)
(0.00101089 -1.31885e-05 0)
(0.00100911 -1.50556e-05 0)
(0.001 8.50531e-08 0)
(0.00100004 2.54608e-07 0)
(0.00100013 4.22863e-07 0)
(0.00100026 5.89053e-07 0)
(0.00100043 7.52413e-07 0)
(0.00100064 9.12187e-07 0)
(0.0010009 1.06765e-06 0)
(0.00100119 1.21812e-06 0)
(0.00100152 1.36293e-06 0)
(0.00100189 1.50148e-06 0)
(0.00100229 1.63322e-06 0)
(0.00100272 1.75763e-06 0)
(0.00100319 1.87422e-06 0)
(0.00100369 1.98257e-06 0)
(0.00100421 2.08229e-06 0)
(0.00100475 2.17301e-06 0)
(0.00100532 2.25443e-06 0)
(0.00100591 2.3262e-06 0)
(0.00100652 2.38808e-06 0)
(0.00100714 2.43981e-06 0)
(0.00100777 2.48118e-06 0)
(0.00100841 2.51191e-06 0)
(0.00100906 2.53182e-06 0)
(0.00100971 2.5406e-06 0)
(0.00101036 2.53821e-06 0)
(0.00101101 2.52427e-06 0)
(0.00101166 2.49875e-06 0)
(0.0010123 2.46109e-06 0)
(0.00101293 2.41138e-06 0)
(0.00101354 2.34892e-06 0)
(0.00101414 2.27409e-06 0)
(0.00101472 2.18586e-06 0)
(0.00101528 2.08474e-06 0)
(0.00101581 1.96901e-06 0)
(0.00101631 1.83972e-06 0)
(0.00101677 1.69457e-06 0)
(0.0010172 1.5357e-06 0)
(0.00101759 1.35951e-06 0)
(0.00101793 1.16921e-06 0)
(0.00101823 9.58715e-07 0)
(0.00101847 7.33322e-07 0)
(0.00101865 4.83978e-07 0)
(0.00101877 2.20274e-07 0)
(0.00101883 -7.1448e-08 0)
(0.00101881 -3.75525e-07 0)
(0.00101871 -7.14436e-07 0)
(0.00101854 -1.06437e-06 0)
(0.00101827 -1.46152e-06 0)
(0.0010179 -1.86684e-06 0)
(0.00101743 -2.33618e-06 0)
(0.00101685 -2.80427e-06 0)
(0.00101614 -3.35787e-06 0)
(0.00101531 -3.89081e-06 0)
(0.00101433 -4.54233e-06 0)
(0.0010132 -5.14317e-06 0)
(0.00101192 -5.92e-06 0)
(0.00101045 -6.60084e-06 0)
(0.00100881 -7.55388e-06 0)
(0.00100694 -8.33251e-06 0)
(0.00100485 -9.53442e-06 0)
(0.001 2.8034e-08 0)
(0.00100004 8.39191e-08 0)
(0.00100013 1.39377e-07 0)
(0.00100025 1.94158e-07 0)
(0.00100042 2.48011e-07 0)
(0.00100062 3.00689e-07 0)
(0.00100087 3.51954e-07 0)
(0.00100115 4.01578e-07 0)
(0.00100147 4.49348e-07 0)
(0.00100183 4.95061e-07 0)
(0.00100222 5.38535e-07 0)
(0.00100264 5.79593e-07 0)
(0.00100309 6.18079e-07 0)
(0.00100357 6.53845e-07 0)
(0.00100408 6.86761e-07 0)
(0.00100461 7.16701e-07 0)
(0.00100516 7.43559e-07 0)
(0.00100573 7.67221e-07 0)
(0.00100632 7.87605e-07 0)
(0.00100692 8.04609e-07 0)
(0.00100754 8.18169e-07 0)
(0.00100816 8.28181e-07 0)
(0.00100879 8.34596e-07 0)
(0.00100942 8.37304e-07 0)
(0.00101006 8.36284e-07 0)
(0.00101069 8.31401e-07 0)
(0.00101132 8.22649e-07 0)
(0.00101193 8.09836e-07 0)
(0.00101254 7.93002e-07 0)
(0.00101314 7.71897e-07 0)
(0.00101371 7.46637e-07 0)
(0.00101427 7.16845e-07 0)
(0.0010148 6.82724e-07 0)
(0.00101531 6.43692e-07 0)
(0.00101578 6.00136e-07 0)
(0.00101622 5.51228e-07 0)
(0.00101662 4.97692e-07 0)
(0.00101698 4.3824e-07 0)
(0.00101729 3.74021e-07 0)
(0.00101756 3.02953e-07 0)
(0.00101776 2.26974e-07 0)
(0.00101791 1.42911e-07 0)
(0.001018 5.41145e-08 0)
(0.00101802 -4.43112e-08 0)
(0.00101796 -1.47015e-07 0)
(0.00101782 -2.6196e-07 0)
(0.00101759 -3.80506e-07 0)
(0.00101727 -5.15405e-07 0)
(0.00101685 -6.52547e-07 0)
(0.00101631 -8.11843e-07 0)
(0.00101566 -9.70003e-07 0)
(0.00101488 -1.15829e-06 0)
(0.00101397 -1.33885e-06 0)
(0.0010129 -1.56182e-06 0)
(0.00101167 -1.7664e-06 0)
(0.00101028 -2.03401e-06 0)
(0.00100869 -2.26637e-06 0)
(0.00100691 -2.59581e-06 -3.96063e-38)
(0.0010049 -2.86073e-06 0)
(0.00100265 -3.27653e-06 0)
(0.001 -2.80757e-08 0)
(0.00100004 -8.4048e-08 0)
(0.00100013 -1.39596e-07 0)
(0.00100025 -1.9447e-07 0)
(0.00100042 -2.48421e-07 0)
(0.00100062 -3.012e-07 0)
(0.00100087 -3.52573e-07 0)
(0.00100115 -4.02309e-07 0)
(0.00100147 -4.50194e-07 0)
(0.00100183 -4.96026e-07 0)
(0.00100222 -5.39624e-07 0)
(0.00100264 -5.8081e-07 0)
(0.00100309 -6.19424e-07 0)
(0.00100357 -6.55317e-07 0)
(0.00100408 -6.88362e-07 0)
(0.00100461 -7.18436e-07 0)
(0.00100516 -7.4543e-07 0)
(0.00100573 -7.69225e-07 0)
(0.00100632 -7.8974e-07 0)
(0.00100692 -8.06885e-07 0)
(0.00100754 -8.206e-07 0)
(0.00100816 -8.30774e-07 0)
(0.00100879 -8.37344e-07 0)
(0.00100942 -8.40201e-07 0)
(0.00101006 -8.39343e-07 0)
(0.00101069 -8.34651e-07 0)
(0.00101132 -8.26109e-07 0)
(0.00101193 -8.13495e-07 0)
(0.00101254 -7.96832e-07 0)
(0.00101314 -7.75894e-07 0)
(0.00101371 -7.50843e-07 0)
(0.00101427 -7.21325e-07 0)
(0.0010148 -6.87503e-07 0)
(0.00101531 -6.48728e-07 0)
(0.00101578 -6.05356e-07 0)
(0.00101622 -5.56611e-07 0)
(0.00101662 -5.03317e-07 0)
(0.00101698 -4.44258e-07 0)
(0.00101729 -3.80538e-07 0)
(0.00101756 -3.09948e-07 0)
(0.00101776 -2.34278e-07 0)
(0.00101791 -1.50343e-07 0)
(0.001018 -6.16327e-08 0)
(0.00101802 3.65069e-08 0)
(0.00101796 1.38543e-07 0)
(0.00101782 2.5246e-07 0)
(0.00101759 3.69849e-07 0)
(0.00101727 5.03822e-07 0)
(0.00101685 6.40553e-07 0)
(0.00101631 8.00011e-07 0)
(0.00101566 9.58638e-07 0)
(0.00101488 1.14718e-06 0)
(0.00101397 1.32715e-06 0)
(0.0010129 1.54827e-06 0)
(0.00101167 1.74957e-06 0)
(0.00101027 2.01274e-06 0)
(0.00100869 2.24006e-06 0)
(0.00100691 2.56458e-06 3.96063e-38)
(0.0010049 2.82543e-06 0)
(0.00100265 3.23854e-06 0)
(0.001 -8.50946e-08 0)
(0.00100004 -2.54736e-07 0)
(0.00100013 -4.2308e-07 0)
(0.00100026 -5.89363e-07 0)
(0.00100043 -7.5282e-07 0)
(0.00100064 -9.12695e-07 0)
(0.0010009 -1.06827e-06 0)
(0.00100119 -1.21884e-06 0)
(0.00100152 -1.36377e-06 0)
(0.00100189 -1.50244e-06 0)
(0.00100229 -1.6343e-06 0)
(0.00100272 -1.75884e-06 0)
(0.00100319 -1.87556e-06 0)
(0.00100369 -1.98403e-06 0)
(0.00100421 -2.08388e-06 0)
(0.00100475 -2.17473e-06 0)
(0.00100532 -2.25628e-06 0)
(0.00100591 -2.32818e-06 0)
(0.00100652 -2.3902e-06 0)
(0.00100714 -2.44206e-06 0)
(0.00100777 -2.48359e-06 0)
(0.00100841 -2.51448e-06 0)
(0.00100906 -2.53454e-06 0)
(0.00100971 -2.54347e-06 0)
(0.00101036 -2.54124e-06 0)
(0.00101101 -2.52749e-06 0)
(0.00101166 -2.50218e-06 0)
(0.0010123 -2.46472e-06 0)
(0.00101293 -2.41517e-06 0)
(0.00101354 -2.35288e-06 0)
(0.00101414 -2.27826e-06 0)
(0.00101472 -2.1903e-06 0)
(0.00101528 -2.08947e-06 0)
(0.00101581 -1.974e-06 0)
(0.00101631 -1.8449e-06 0)
(0.00101677 -1.6999e-06 0)
(0.0010172 -1.54128e-06 0)
(0.00101759 -1.36546e-06 0)
(0.00101793 -1.17566e-06 0)
(0.00101822 -9.65629e-07 0)
(0.00101847 -7.40537e-07 0)
(0.00101865 -4.91302e-07 0)
(0.00101877 -2.27663e-07 0)
(0.00101883 6.38081e-08 0)
(0.00101881 3.67253e-07 0)
(0.00101871 7.05149e-07 0)
(0.00101853 1.05392e-06 0)
(0.00101827 1.45011e-06 0)
(0.0010179 1.85501e-06 0)
(0.00101743 2.3245e-06 0)
(0.00101685 2.79306e-06 0)
(0.00101614 3.34692e-06 0)
(0.0010153 3.87931e-06 0)
(0.00101433 4.52904e-06 0)
(0.0010132 5.12669e-06 0)
(0.00101192 5.89917e-06 0)
(0.00101045 6.57502e-06 0)
(0.0010088 7.52322e-06 0)
(0.00100694 8.29778e-06 0)
(0.00100485 9.49702e-06 0)
(0.001 -1.44898e-07 0)
(0.00100005 -4.33757e-07 0)
(0.00100014 -7.20377e-07 0)
(0.00100028 -1.00343e-06 0)
(0.00100046 -1.28159e-06 0)
(0.00100068 -1.55355e-06 0)
(0.00100095 -1.81807e-06 0)
(0.00100126 -2.07396e-06 0)
(0.00100162 -2.32012e-06 0)
(0.00100201 -2.55551e-06 0)
(0.00100243 -2.77922e-06 0)
(0.0010029 -2.99038e-06 0)
(0.00100339 -3.1882e-06 0)
(0.00100391 -3.37197e-06 0)
(0.00100447 -3.54109e-06 0)
(0.00100504 -3.69497e-06 0)
(0.00100565 -3.83312e-06 0)
(0.00100627 -3.95501e-06 0)
(0.00100691 -4.06026e-06 0)
(0.00100756 -4.14847e-06 0)
(0.00100823 -4.21936e-06 0)
(0.00100891 -4.27246e-06 0)
(0.0010096 -4.30748e-06 0)
(0.00101029 -4.32396e-06 0)
(0.00101098 -4.32184e-06 0)
(0.00101167 -4.3006e-06 0)
(0.00101236 -4.26014e-06 0)
(0.00101304 -4.19958e-06 0)
(0.00101371 -4.11899e-06 0)
(0.00101437 -4.01739e-06 0)
(0.00101501 -3.89536e-06 0)
(0.00101563 -3.75142e-06 0)
(0.00101624 -3.58624e-06 0)
(0.00101681 -3.39717e-06 0)
(0.00101736 -3.18564e-06 0)
(0.00101788 -2.94832e-06 0)
(0.00101836 -2.68849e-06 0)
(0.0010188 -2.40095e-06 0)
(0.0010192 -2.09031e-06 0)
(0.00101956 -1.7474e-06 0)
(0.00101986 -1.37959e-06 0)
(0.00102011 -9.73596e-07 0)
(0.00102031 -5.43419e-07 0)
(0.00102044 -6.97e-08 0)
(0.0010205 4.24778e-07 0)
(0.00102049 9.72415e-07 0)
(0.00102041 1.53957e-06 0)
(0.00102024 2.17915e-06 0)
(0.00101998 2.83614e-06 0)
(0.00101963 3.59081e-06 0)
(0.00101918 4.34985e-06 0)
(0.00101861 5.23617e-06 0)
(0.00101793 6.09807e-06 0)
(0.00101713 7.13232e-06 0)