/*--------------------------------*- C++ -*----------------------------------*\
| =========                 |                                                 |
| \\      /  F ield         | OpenFOAM: The Open Source CFD Toolbox           |
|  \\    /   O peration     | Version:  2312                                  |
|   \\  /    A nd           | Website:  www.openfoam.com                      |
|    \\/     M anipulation  |                                                 |
\*---------------------------------------------------------------------------*/
FoamFile
{
    version     2.0;
    format      ascii;
    arch        "LSB;label=32;scalar=64";
    class       surfaceScalarField;
    location    "164000";
    object      phi;
}
// * * * * * * * * * * * * * * * * * * * * * * * * * * * * * * * * * * * * * //

dimensions      [0 3 -1 0 0 0 0];

oriented        oriented;

internalField   nonuniform List<scalar> 
21240
(
0.000664973
1.69344e-06
0.000661068
3.90544e-06
0.000655743
5.32529e-06
0.000649501
6.24181e-06
0.00064262
6.88108e-06
0.000635242
7.3778e-06
0.000627459
7.78241e-06
0.000619351
8.10798e-06
0.000610991
8.36049e-06
0.000602442
8.54894e-06
0.000593756
8.68563e-06
0.000584973
8.78287e-06
0.000576123
8.8503e-06
0.000567229
8.89426e-06
0.00055831
8.91858e-06
0.000549385
8.92574e-06
0.000540467
8.91763e-06
0.000531571
8.89583e-06
0.000522709
8.8617e-06
0.000513893
8.8164e-06
0.000505132
8.76076e-06
0.000496437
8.69545e-06
0.000487816
8.62093e-06
0.000479278
8.53758e-06
0.000470833
8.44566e-06
0.000462487
8.34537e-06
0.00045425
8.2369e-06
0.00044613
8.12031e-06
0.000438134
7.9958e-06
0.000430271
7.86326e-06
0.000422548
7.72297e-06
0.000414973
7.5746e-06
0.000407555
7.41872e-06
0.0004003
7.25454e-06
0.000393217
7.08323e-06
0.000386314
6.9032e-06
0.000379597
6.71671e-06
0.000373076
6.5207e-06
0.000366757
6.31948e-06
0.00036065
6.10723e-06
0.000354758
5.89205e-06
0.000349095
5.66301e-06
0.000343659
5.43515e-06
0.000338471
5.18815e-06
0.000333522
4.94971e-06
0.000328839
4.68227e-06
0.000324403
4.43658e-06
0.000320259
4.14343e-06
0.000316363
3.89607e-06
0.000312797
3.56576e-06
0.00030947
3.327e-06
0.000306537
2.93311e-06
0.000303811
2.72645e-06
0.00030161
2.20102e-06
0.00029952
2.08986e-06
0.000298302
1.21826e-06
0.000296841
1.46122e-06
0.000297062
-2.2122e-07
0.000295902
1.15989e-06
-3.16852e-06
0.00029907
0.000667555
8.05063e-07
0.000669117
2.34366e-06
0.000670846
3.59618e-06
0.000672511
4.57637e-06
0.000674034
5.3586e-06
0.0006754
6.01164e-06
0.000676605
6.57714e-06
0.00067764
7.07351e-06
0.000678492
7.50779e-06
0.000679157
7.88443e-06
0.000679634
8.20906e-06
0.000679928
8.48864e-06
0.000680048
8.7302e-06
0.000680003
8.93961e-06
0.0006798
9.12125e-06
0.000679448
9.27808e-06
0.000678953
9.4123e-06
0.000678323
9.52552e-06
0.000677566
9.61928e-06
0.000676687
9.69468e-06
0.000675695
9.75293e-06
0.000674596
9.79464e-06
0.000673396
9.82074e-06
0.000672102
9.83136e-06
0.000670721
9.82735e-06
0.000669258
9.80835e-06
0.000667719
9.77538e-06
0.000666112
9.72754e-06
0.000664441
9.66626e-06
0.000662715
9.58985e-06
0.000660937
9.50056e-06
0.000659116
9.39548e-06
0.000657257
9.27828e-06
0.000655367
9.14414e-06
0.000653451
8.99911e-06
0.000651519
8.83524e-06
0.000649573
8.66257e-06
0.000647626
8.46802e-06
0.000645677
8.26818e-06
0.000643743
8.04161e-06
0.000641819
7.81563e-06
0.000639927
7.55504e-06
0.000638058
7.30484e-06
0.000636239
7.0072e-06
0.000634452
6.73614e-06
0.000632738
6.39664e-06
0.000631064
6.11039e-06
0.000629486
5.72129e-06
0.000627953
5.42933e-06
0.000626541
4.97822e-06
0.000625171
4.69615e-06
0.000623941
4.16349e-06
0.000622751
3.9166e-06
0.000621679
3.27316e-06
0.000620668
3.10055e-06
0.000619577
2.30904e-06
0.000618775
2.26313e-06
0.000617246
1.30837e-06
0.000616972
1.43383e-06
3.82953e-07
0.00061342
0.00066695
5.22011e-07
0.000667814
1.47916e-06
0.00066905
2.36084e-06
0.000670469
3.15716e-06
0.000671963
3.86397e-06
0.000673486
4.4889e-06
0.000675019
5.0442e-06
0.000676552
5.541e-06
0.000678072
5.98712e-06
0.000679569
6.38748e-06
0.000681033
6.74567e-06
0.000682456
7.06498e-06
0.000683837
7.34897e-06
0.000685176
7.60116e-06
0.000686472
7.82487e-06
0.000687728
8.02278e-06
0.000688943
8.19718e-06
0.000690119
8.34968e-06
0.000691256
8.48185e-06
0.000692356
8.59465e-06
0.00069342
8.68934e-06
0.000694448
8.76639e-06
0.000695442
8.82694e-06
0.000696402
8.87095e-06
0.00069733
8.89952e-06
0.000698226
8.91208e-06
0.000699092
8.90992e-06
0.000699927
8.89183e-06
0.000700734
8.85952e-06
0.000701513
8.81097e-06
0.000702265
8.74863e-06
0.000702991
8.66936e-06
0.000703693
8.5768e-06
0.00070437
8.46621e-06
0.000705027
8.34304e-06
0.000705662
8.20023e-06
0.000706278
8.04596e-06
0.000706876
7.86985e-06
0.000707461
7.68398e-06
0.000708029
7.47333e-06
0.000708589
7.25548e-06
0.000709135
7.00895e-06
0.000709681
6.75896e-06
0.000710213
6.47523e-06
0.000710756
6.19324e-06
0.000711281
5.8712e-06
0.000711834
5.55772e-06
0.000712358
5.19673e-06
0.000712935
4.85255e-06
0.00071346
4.45301e-06
0.000714078
4.0789e-06
0.000714598
3.64368e-06
0.000715274
3.24017e-06
0.000715769
2.77797e-06
0.000716525
2.3451e-06
0.000716956
1.87788e-06
0.000717805
1.41356e-06
0.000718122
9.92076e-07
0.000719073
4.82678e-07
2.07931e-07
0.000719248
0.000666853
3.35863e-07
0.000667305
1.02717e-06
0.000667964
1.70186e-06
0.000668782
2.33917e-06
0.000669716
2.92989e-06
0.000670734
3.47111e-06
0.000671813
3.96442e-06
0.000672941
4.41349e-06
0.000674106
4.82228e-06
0.000675299
5.19404e-06
0.000676514
5.53133e-06
0.000677742
5.83626e-06
0.00067898
6.11087e-06
0.000680224
6.35718e-06
0.000681472
6.57729e-06
0.000682722
6.77308e-06
0.000683973
6.94633e-06
0.000685224
7.09842e-06
0.000686475
7.23066e-06
0.000687726
7.34396e-06
0.000688976
7.43931e-06
0.000690225
7.51732e-06
0.000691473
7.57876e-06
0.00069272
7.62394e-06
0.000693966
7.6535e-06
0.000695211
7.6675e-06
0.000696454
7.66643e-06
0.000697696
7.65014e-06
0.000698936
7.61904e-06
0.000700174
7.57281e-06
0.000701411
7.51175e-06
0.000702645
7.43549e-06
0.000703878
7.34414e-06
0.000705107
7.23741e-06
0.000706335
7.11507e-06
0.000707558
6.97725e-06
0.000708781
6.8229e-06
0.000709997
6.6532e-06
0.000711216
6.46553e-06
0.000712426
6.26322e-06
0.000713641
6.04059e-06
0.000714845
5.80508e-06
0.000716058
5.54543e-06
0.000717257
5.27657e-06
0.000718473
4.97725e-06
0.000719668
4.67575e-06
0.000720892
4.33344e-06
0.000722087
4.00168e-06
0.000723328
3.61229e-06
0.000724525
3.2557e-06
0.00072579
2.81413e-06
0.000726991
2.44299e-06
0.000728288
1.94234e-06
0.000729493
1.57377e-06
0.000730834
1.00394e-06
0.000732044
6.67489e-07
0.000733433
2.45665e-08
0.000734685
-2.59368e-07
0.000736234
-1.06631e-06
-1.19776e-06
0.000737639
0.000666737
2.65092e-07
0.000666966
7.98798e-07
0.000667348
1.32005e-06
0.000667865
1.82178e-06
0.000668497
2.2981e-06
0.000669222
2.74543e-06
0.000670025
3.16235e-06
0.000670889
3.54897e-06
0.000671805
3.90622e-06
0.000672764
4.23529e-06
0.000673758
4.53732e-06
0.000674781
4.81335e-06
0.000675827
5.0644e-06
0.000676893
5.29153e-06
0.000677974
5.49583e-06
0.000679069
5.67842e-06
0.000680175
5.84039e-06
0.000681291
5.98274e-06
0.000682415
6.10633e-06
0.000683547
6.21197e-06
0.000684686
6.30029e-06
0.000685831
6.37195e-06
0.000686983
6.42736e-06
0.00068814
6.46706e-06
0.000689302
6.49124e-06
0.000690469
6.50041e-06
0.000691641
6.49448e-06
0.000692817
6.47398e-06
0.000693998
6.43848e-06
0.000695182
6.38871e-06
0.00069637
6.32369e-06
0.000697561
6.24464e-06
0.000698755
6.14975e-06
0.000699951
6.04109e-06
0.000701151
5.91554e-06
0.000702351
5.77671e-06
0.000703555
5.61934e-06
0.000704759
5.44962e-06
0.000705965
5.25885e-06
0.000707171
5.05753e-06
0.00070838
4.83137e-06
0.000709587
4.59791e-06
0.000710799
4.33389e-06
0.000712007
4.06823e-06
0.000713221
3.7632e-06
0.000714431
3.46593e-06
0.000715649
3.11553e-06
0.000716863
2.78803e-06
0.000718089
2.38579e-06
0.000719314
2.03062e-06
0.000720561
1.56701e-06
0.000721815
1.18917e-06
0.000723107
6.50115e-07
0.000724424
2.57153e-07
0.000725785
-3.57177e-07
0.000727179
-7.26499e-07
0.000728654
-1.45046e-06
0.000730188
-1.79276e-06
0.000731798
-2.67688e-06
-2.96234e-06
0.000733563
0.000666723
2.0891e-07
0.000666895
6.26566e-07
0.000667176
1.03962e-06
0.000667556
1.44146e-06
0.000668026
1.82841e-06
0.000668573
2.19754e-06
0.000669189
2.54684e-06
0.000669863
2.87512e-06
0.000670587
3.18187e-06
0.000671355
3.467e-06
0.000672162
3.73069e-06
0.000673002
3.97326e-06
0.000673871
4.19517e-06
0.000674766
4.39695e-06
0.000675683
4.57916e-06
0.000676619
4.74242e-06
0.000677572
4.88733e-06
0.00067854
5.01456e-06
0.000679522
5.12463e-06
0.000680515
5.21816e-06
0.00068152
5.29555e-06
0.000682535
5.35733e-06
0.000683558
5.40375e-06
0.00068459
5.43532e-06
0.000685629
5.45205e-06
0.000686675
5.4545e-06
0.000687727
5.4424e-06
0.000688785
5.4164e-06
0.000689847
5.37588e-06
0.000690914
5.32172e-06
0.000691985
5.25276e-06
0.00069306
5.17035e-06
0.000694137
5.07254e-06
0.000695216
4.96147e-06
0.000696298
4.83396e-06
0.000697381
4.69355e-06
0.000698465
4.53512e-06
0.000699551
4.36444e-06
0.000700636
4.17339e-06
0.000701722
3.97135e-06
0.000702808
3.74545e-06
0.000703895
3.51081e-06
0.000704982
3.24711e-06
0.000706072
2.9786e-06
0.000707161
2.67341e-06
0.000708257
2.37025e-06
0.000709353
2.01936e-06
0.000710459
1.68199e-06
0.000711564
1.28072e-06
0.000712684
9.11486e-07
0.000713795
4.55075e-07
0.000714922
6.30897e-08
0.000716053
-4.80985e-07
0.000717224
-9.13699e-07
0.000718403
-1.53618e-06
0.00071966
-1.98395e-06
0.000720925
-2.71521e-06
0.0007223
-3.16821e-06
0.000723668
-4.04471e-06
-4.48003e-06
0.000725186
0.000666707
1.68124e-07
0.00066683
5.03933e-07
0.000667033
8.36753e-07
0.000667312
1.16195e-06
0.000667664
1.477e-06
0.000668082
1.77977e-06
0.00066856
2.06859e-06
0.000669093
2.34228e-06
0.000669674
2.60016e-06
0.0006703
2.84189e-06
0.000670964
3.06613e-06
0.000671664
3.27319e-06
0.000672396
3.46328e-06
0.000673156
3.6366e-06
0.000673942
3.79337e-06
0.000674751
3.9339e-06
0.00067558
4.0585e-06
0.000676427
4.16755e-06
0.00067729
4.26136e-06
0.000678168
4.34033e-06
0.000679059
4.40471e-06
0.000679961
4.45487e-06
0.000680874
4.49096e-06
0.000681796
4.51334e-06
0.000682726
4.52201e-06
0.000683663
4.51735e-06
0.000684606
4.49917e-06
0.000685555
4.46791e-06
0.000686507
4.42309e-06
0.000687464
4.36533e-06
0.000688423
4.29374e-06
0.000689384
4.20925e-06
0.000690346
4.11038e-06
0.000691309
3.99861e-06
0.000692271
3.87157e-06
0.000693233
3.73164e-06
0.000694193
3.57511e-06
0.000695152
3.40585e-06
0.000696107
3.21807e-06
0.00069706
3.01808e-06
0.000698009
2.79683e-06
0.000698955
2.56456e-06
0.000699895
2.30711e-06
0.000700833
2.04082e-06
0.000701763
1.74338e-06
0.000702693
1.44065e-06
0.000703614
1.09768e-06
0.000704541
7.55183e-07
0.000705464
3.57798e-07
0.000706405
-2.93949e-08
0.000707337
-4.77016e-07
0.0007083
-9.00251e-07
0.000709245
-1.42501e-06
0.000710224
-1.89363e-06
0.000711193
-2.50437e-06
0.000712223
-3.01433e-06
0.000713239
-3.73163e-06
0.000714352
-4.28088e-06
0.000715442
-5.13419e-06
-5.7131e-06
0.000716675
0.000666698
1.36969e-07
0.000666792
4.09509e-07
0.00066695
6.79384e-07
0.000667168
9.4333e-07
0.000667446
1.19961e-06
0.000667779
1.44672e-06
0.000668164
1.68337e-06
0.000668598
1.90851e-06
0.000669077
2.12133e-06
0.000669597
2.32118e-06
0.000670156
2.50751e-06
0.000670749
2.68005e-06
0.000671374
2.83866e-06
0.000672027
2.98337e-06
0.000672706
3.11422e-06
0.000673409
3.2313e-06
0.000674132
3.33475e-06
0.000674875
3.42474e-06
0.000675635
3.50143e-06
0.00067641
3.56506e-06
0.000677199
3.61575e-06
0.000678
3.65375e-06
0.000678812
3.67915e-06
0.000679633
3.69218e-06
0.000680463
3.69283e-06
0.000681299
3.68133e-06
0.00068214
3.65756e-06
0.000682986
3.62176e-06
0.000683836
3.57362e-06
0.000684688
3.51345e-06
0.000685541
3.4407e-06
0.000686394
3.3558e-06
0.000687247
3.25786e-06
0.000688098
3.14755e-06
0.000688946
3.02347e-06
0.000689791
2.88672e-06
0.000690631
2.73512e-06
0.000691466
2.57055e-06
0.000692295
2.3896e-06
0.000693117
2.1954e-06
0.000693931
1.98271e-06
0.000694739
1.75667e-06
0.000695537
1.50921e-06
0.000696329
1.24878e-06
0.000697109
9.63148e-07
0.000697884
6.65804e-07
0.000698644
3.38366e-07
0.000699392
6.25749e-09
0.000700131
-3.80485e-07
0.000700868
-7.66385e-07
0.000701593
-1.20265e-06
0.00070233
-1.63713e-06
0.000703046
-2.14075e-06
0.000703784
-2.63118e-06
0.000704495
-3.21605e-06
0.000705248
-3.76722e-06
0.000705966
-4.44928e-06
0.00070675
-5.06508e-06
0.000707481
-5.86523e-06
-6.54639e-06
0.000708314
0.000666692
1.11579e-07
0.000666769
3.3278e-07
0.000666897
5.51336e-07
0.000667075
7.64847e-07
0.000667303
9.72091e-07
0.000667578
1.17197e-06
0.000667897
1.36352e-06
0.00066826
1.5459e-06
0.000668663
1.71842e-06
0.000669104
1.88053e-06
0.000669579
2.03179e-06
0.000670087
2.17189e-06
0.000670626
2.3006e-06
0.000671191
2.4178e-06
0.000671782
2.52343e-06
0.000672396
2.61747e-06
0.000673031
2.69996e-06
0.000673684
2.77095e-06
0.000674355
2.83052e-06
0.000675041
2.87878e-06
0.000675741
2.91583e-06
0.000676453
2.94177e-06
0.000677176
2.95669e-06
0.000677907
2.96069e-06
0.000678646
2.95381e-06
0.000679392
2.93613e-06
0.000680142
2.90761e-06
0.000680895
2.86832e-06
0.00068165
2.81812e-06
0.000682407
2.75705e-06
0.000683163
2.68485e-06
0.000683917
2.60156e-06
0.000684668
2.50673e-06
0.000685415
2.40045e-06
0.000686157
2.28204e-06
0.000686892
2.15167e-06
0.000687618
2.00832e-06
0.000688337
1.85236e-06
0.000689044
1.68228e-06
0.000689741
1.49881e-06
0.000690424
1.29966e-06
0.000691094
1.08627e-06
0.000691748
8.55299e-07
0.000692388
6.08915e-07
0.000693009
3.4223e-07
0.000693614
6.00539e-08
0.000694202
-2.49277e-07
0.000694783
-5.74895e-07
0.000695333
-9.30336e-07
0.000695871
-1.30438e-06
0.000696382
-1.71327e-06
0.000696885
-2.14077e-06
0.000697356
-2.61186e-06
0.000697827
-3.10174e-06
0.000698258
-3.64688e-06
0.0006987
-4.20918e-06
0.000699092
-4.8418e-06
0.000699515
-5.48772e-06
0.000699873
-6.22372e-06
-6.9646e-06
0.000700292
0.000666688
9.01811e-08
0.000666753
2.68199e-07
0.00066686
4.43495e-07
0.000667011
6.1427e-07
0.000667204
7.79643e-07
0.000667437
9.38822e-07
0.000667709
1.09109e-06
0.000668019
1.23583e-06
0.000668365
1.3725e-06
0.000668745
1.50067e-06
0.000669157
1.61998e-06
0.000669598
1.73015e-06
0.000670068
1.83096e-06
0.000670564
1.92225e-06
0.000671083
2.00393e-06
0.000671625
2.07594e-06
0.000672186
2.13828e-06
0.000672766
2.19095e-06
0.000673363
2.23399e-06
0.000673974
2.26745e-06
0.000674599
2.2914e-06
0.000675235
2.30588e-06
0.00067588
2.31098e-06
0.000676534
2.30672e-06
0.000677195
2.29317e-06
0.000677861
2.27032e-06
0.00067853
2.23821e-06
0.000679202
2.19676e-06
0.000679874
2.14599e-06
0.000680545
2.08576e-06
0.000681214
2.01601e-06
0.000681879
1.93654e-06
0.000682538
1.84722e-06
0.000683191
1.74774e-06
0.000683835
1.63792e-06
0.00068447
1.5173e-06
0.000685092
1.38571e-06
0.000685702
1.24246e-06
0.000686297
1.08742e-06
0.000686876
9.19673e-07
0.000687437
7.39098e-07
0.000687979
5.44298e-07
0.000688498
3.35608e-07
0.000688995
1.11864e-07
0.000689468
-1.30757e-07
0.00068992
-3.91904e-07
0.000690342
-6.70518e-07
0.000690738
-9.71185e-07
0.000691099
-1.29153e-06
0.000691433
-1.63841e-06
0.000691727
-2.0071e-06
0.000691994
-2.40828e-06
0.000692216
-2.83289e-06
0.000692412
-3.29852e-06
0.000692554
-3.78832e-06
0.000692676
-4.33143e-06
0.000692731
-4.89682e-06
0.000692777
-5.53342e-06
0.000692738
-6.18481e-06
-6.93315e-06
0.000692706
0.000666685
7.16052e-08
0.000666741
2.12181e-07
0.000666835
3.4993e-07
0.000666966
4.83512e-07
0.000667133
6.12296e-07
0.000667336
7.35715e-07
0.000667574
8.53259e-07
0.000667845
9.64479e-07
0.000668149
1.06899e-06
0.000668483
1.16647e-06
0.000668846
1.25664e-06
0.000669237
1.3393e-06
0.000669654
1.41426e-06
0.000670095
1.48142e-06
0.000670558
1.54068e-06
0.000671042
1.59199e-06
0.000671545
1.63534e-06
0.000672065
1.67074e-06
0.000672601
1.69822e-06
0.00067315
1.7178e-06
0.000673712
1.72955e-06
0.000674285
1.73351e-06
0.000674866
1.72974e-06
0.000675454
1.71826e-06
0.000676048
1.69915e-06
0.000676646
1.67236e-06
0.000677247
1.63798e-06
0.000677847
1.5959e-06
0.000678447
1.54618e-06
0.000679044
1.48862e-06
0.000679637
1.4233e-06
0.000680224
1.34988e-06
0.000680802
1.26847e-06
0.000681372
1.17856e-06
0.000681929
1.08029e-06
0.000682474
9.72875e-07
0.000683003
8.56632e-07
0.000683515
7.30358e-07
0.000684008
5.94651e-07
0.00068448
4.47688e-07
0.000684928
2.90804e-07
0.000685351
1.21608e-07
0.000685746
-6.01632e-08
0.000686116
-2.57525e-07
0.000686452
-4.66627e-07
0.000686754
-6.94301e-07
0.000687018
-9.34339e-07
0.000687244
-1.19719e-06
0.000687425
-1.47283e-06
0.000687564
-1.77764e-06
0.000687652
-2.09456e-06
0.000687693
-2.4496e-06
0.000687674
-2.81412e-06
0.000687606
-3.23002e-06
0.000687467
-3.64937e-06
0.000687276
-4.14013e-06
0.000687001
-4.62201e-06
0.000686673
-5.20584e-06
0.000686245
-5.75682e-06
-6.45603e-06
0.000685768
0.000666683
5.50084e-08
0.000666733
1.62172e-07
0.000666817
2.66405e-07
0.000666934
3.66743e-07
0.000667083
4.6275e-07
0.000667265
5.54038e-07
0.000667478
6.40263e-07
0.000667721
7.21121e-07
0.000667994
7.9636e-07
0.000668294
8.65767e-07
0.000668622
9.2917e-07
0.000668975
9.8643e-07
0.000669352
1.03745e-06
0.000669751
1.08215e-06
0.000670171
1.1205e-06
0.000670611
1.15248e-06
0.000671068
1.17811e-06
0.000671541
1.1974e-06
0.000672029
1.2104e-06
0.00067253
1.21716e-06
0.000673041
1.21775e-06
0.000673563
1.21222e-06
0.000674092
1.20065e-06
0.000674627
1.18306e-06
0.000675167
1.15955e-06
0.000675709
1.13009e-06
0.000676252
1.09479e-06
0.000676794
1.05355e-06
0.000677334
1.00648e-06
0.000677869
9.53395e-07
0.000678398
8.9443e-07
0.000678919
8.29243e-07
0.000679429
7.58018e-07
0.000679928
6.80198e-07
0.000680412
5.96132e-07
0.00068088
5.04991e-07
0.000681329
4.07329e-07
0.000681758
3.0183e-07
0.000682163
1.89573e-07
0.000682542
6.87112e-08
0.000682894
-6.12145e-08
0.000683217
-2.01413e-07
0.000683506
-3.49645e-07
0.000683759
-5.10705e-07
0.000683973
-6.7988e-07
0.000684143
-8.65051e-07
0.000684268
-1.05859e-06
0.000684343
-1.27257e-06
0.000684364
-1.49419e-06
0.000684329
-1.74266e-06
0.000684231
-1.99672e-06
0.000684069
-2.28711e-06
0.000683833
-2.57859e-06
0.000683524
-2.92065e-06
0.00068313
-3.25497e-06
0.000682651
-3.66174e-06
0.000682074
-4.04427e-06
0.000681401
-4.53313e-06
0.000680612
-4.96752e-06
-5.5606e-06
0.000679716
0.000666682
3.97406e-08
0.000666728
1.16201e-07
0.000666805
1.89645e-07
0.000666912
2.59431e-07
0.000667049
3.25288e-07
0.000667217
3.86978e-07
0.000667412
4.44298e-07
0.000667637
4.97076e-07
0.000667888
5.45177e-07
0.000668165
5.88497e-07
0.000668467
6.26962e-07
0.000668793
6.60518e-07
0.000669141
6.89141e-07
0.000669511
7.12821e-07
0.0006699
7.31576e-07
0.000670307
7.45436e-07
0.00067073
7.54456e-07
0.000671169
7.58694e-07
0.000671621
7.58238e-07
0.000672085
7.53162e-07
0.000672559
7.43573e-07
0.000673042
7.29542e-07
0.000673532
7.11175e-07
0.000674026
6.88527e-07
0.000674524
6.61713e-07
0.000675023
6.30748e-07
0.000675522
5.95749e-07
0.000676019
5.56669e-07
0.000676512
5.13642e-07
0.000676999
4.66555e-07
0.000677478
4.15555e-07
0.000677947
3.6041e-07
0.000678403
3.01384e-07
0.000678845
2.38056e-07
0.000679271
1.70695e-07
0.000679677
9.87486e-08
0.000680062
2.26738e-08
0.000680423
-5.97927e-08
0.000680759
-1.46135e-07
0.000681066
-2.38698e-07
0.000681341
-3.36087e-07
0.000681581
-4.40738e-07
0.000681781
-5.50318e-07
0.00068194
-6.69058e-07
0.000682053
-7.92949e-07
0.000682116
-9.2843e-07
0.000682126
-1.06883e-06
0.000682078
-1.22434e-06
0.000681968
-1.38389e-06
0.000681789
-1.56375e-06
0.000681538
-1.74555e-06
0.000681206
-1.95541e-06
0.00068079
-2.16296e-06
0.00068028
-2.41034e-06
0.000679672
-2.64733e-06
0.000678953
-2.94237e-06
0.000678121
-3.21224e-06
0.000677157
-3.56868e-06
0.000676062
-3.87327e-06
-4.309e-06
0.000674811
0.000666681
2.52667e-08
0.000666725
7.26517e-08
0.000666797
1.16946e-07
0.000666899
1.57819e-07
0.000667029
1.95143e-07
0.000667187
2.28818e-07
0.000667373
2.58764e-07
0.000667585
2.84929e-07
0.000667823
3.07289e-07
0.000668086
3.25847e-07
0.000668372
3.40621e-07
0.000668681
3.51649e-07
0.000669011
3.58978e-07
0.000669361
3.6267e-07
0.00066973
3.62807e-07
0.000670116
3.59482e-07
0.000670517
3.52791e-07
0.000670933
3.42862e-07
0.000671362
3.2978e-07
0.000671801
3.13696e-07
0.00067225
2.94756e-07
0.000672706
2.73079e-07
0.000673169
2.48744e-07
0.000673636
2.21904e-07
0.000674105
1.92695e-07
0.000674574
1.61152e-07
0.000675042
1.27513e-07
0.000675507
9.16907e-08
0.000675967
5.37915e-08
0.00067642
1.39709e-08
0.000676863
-2.77501e-08
0.000677295
-7.13789e-08
0.000677713
-1.16818e-07
0.000678115
-1.64269e-07
0.0006785
-2.13514e-07
0.000678863
-2.64866e-07
0.000679204
-3.18025e-07
0.000679518
-3.73615e-07
0.000679803
-4.31046e-07
0.000680055
-4.91236e-07
0.000680273
-5.53457e-07
0.000680451
-6.19155e-07
0.000680588
-6.86993e-07
0.000680678
-7.59255e-07
0.000680719
-8.33728e-07
0.000680704
-9.13969e-07
0.000680632
-9.96271e-07
0.000680494
-1.08631e-06
0.000680288
-1.17792e-06
0.000680004
-1.28019e-06
0.000679641
-1.38284e-06
0.000679186
-1.50054e-06
0.00067864
-1.61618e-06
0.000677983
-1.75355e-06
0.00067722
-1.88416e-06
0.000676324
-2.04684e-06
0.000675306
-2.19417e-06
0.000674127
-2.3899e-06
0.000672809
-2.55483e-06
-2.79407e-06
0.000671294
0.000666681
1.10725e-08
0.000666723
3.0084e-08
0.000666794
4.59246e-08
0.000666894
5.86039e-08
0.000667021
6.81182e-08
0.000667175
7.44992e-08
0.000667356
7.77862e-08
0.000667563
7.80442e-08
0.000667795
7.53343e-08
0.000668051
6.98234e-08
0.00066833
6.1519e-08
0.000668631
5.067e-08
0.000668953
3.73094e-08
0.000669294
2.15958e-08
0.000669653
3.59722e-09
0.000670029
-1.62082e-08
0.000670419
-3.80606e-08
0.000670824
-6.16387e-08
0.00067124
-8.67751e-08
0.000671667
-1.13298e-07
0.000672103
-1.41037e-07
0.000672546
-1.69827e-07
0.000672994
-1.99509e-07
0.000673446
-2.29923e-07
0.0006739
-2.60913e-07
0.000674353
-2.92335e-07
0.000674805
-3.24047e-07
0.000675253
-3.55921e-07
0.000675694
-3.8783e-07
0.000676128
-4.19642e-07
0.000676551
-4.51258e-07
0.000676962
-4.82569e-07
0.000677359
-5.13478e-07
0.000677739
-5.43877e-07
0.000678099
-5.7371e-07
0.000678437
-6.02904e-07
0.00067875
-6.31442e-07
0.000679036
-6.5925e-07
0.000679291
-6.86335e-07
0.000679513
-7.12628e-07
0.000679697
-7.38218e-07
0.000679841
-7.63005e-07
0.000679941
-7.87118e-07
0.000679993
-8.10424e-07
0.000679992
-8.33153e-07
0.000679933
-8.55108e-07
0.000679814
-8.7663e-07
0.000679625
-8.97426e-07
0.000679365
-9.17978e-07
0.000679022
-9.37843e-07
0.000678597
-9.57662e-07
0.000678073
-9.7684e-07
0.000677454
-9.96279e-07
0.000676715
-1.01532e-06
0.000675866
-1.035e-06
0.000674874
-1.05449e-06
0.000673754
-1.0745e-06
0.000672458
-1.09395e-06
0.000671017
-1.11364e-06
-1.13381e-06
0.000669357
0.000666681
-3.24697e-09
0.000666724
-1.2953e-08
0.000666796
-2.57263e-08
0.000666896
-4.13906e-08
0.000667024
-5.9801e-08
0.000667179
-8.08035e-08
0.000667361
-1.04235e-07
0.000667569
-1.29917e-07
0.000667802
-1.57658e-07
0.000668059
-1.87256e-07
0.000668339
-2.18509e-07
0.000668641
-2.51206e-07
0.000668963
-2.85145e-07
0.000669305
-3.20113e-07
0.000669665
-3.55899e-07
0.000670041
-3.92276e-07
0.000670432
-4.29055e-07
0.000670836
-4.66016e-07
0.000671252
-5.02953e-07
0.000671678
-5.39647e-07
0.000672113
-5.75902e-07
0.000672555
-6.11501e-07
0.000673002
-6.46257e-07
0.000673452
-6.79957e-07
0.000673903
-7.12428e-07
0.000674354
-7.43452e-07
0.000674803
-7.72879e-07
0.000675248
-8.00476e-07
0.000675686
-8.26125e-07
0.000676116
-8.49566e-07
0.000676535
-8.7072e-07
0.000676942
-8.89281e-07
0.000677334
-9.05243e-07
0.000677708
-9.18233e-07
0.000678063
-9.28355e-07
0.000678395
-9.35098e-07
0.000678702
-9.38722e-07
0.000678982
-9.38501e-07
0.00067923
-9.34967e-07
0.000679445
-9.27038e-07
0.000679622
-9.15668e-07
0.000679758
-8.99203e-07
0.000679851
-8.79279e-07
0.000679893
-8.53321e-07
0.000679884
-8.24067e-07
0.000679817
-7.87468e-07
0.000679688
-7.48027e-07
0.00067949
-6.99339e-07
0.000679221
-6.48754e-07
0.000678869
-5.86087e-07
0.000678435
-5.23227e-07
0.000677901
-4.43698e-07
0.000677272
-3.66405e-07
0.000676522
-2.66154e-07
0.000675662
-1.74541e-07
0.000674659
-5.12088e-08
0.00067353
5.37248e-08
0.000672224
2.12381e-07
0.000670774
3.36473e-07
5.34165e-07
0.000669106
0.000666682
-1.81294e-08
0.000666726
-5.76159e-08
0.000666801
-1.00134e-07
0.000666904
-1.45205e-07
0.000667037
-1.92543e-07
0.000667198
-2.4186e-07
0.000667387
-2.92866e-07
0.000667602
-3.45262e-07
0.000667843
-3.98751e-07
0.000668109
-4.53031e-07
0.000668398
-5.07808e-07
0.00066871
-5.62788e-07
0.000669043
-6.17691e-07
0.000669395
-6.72237e-07
0.000669765
-7.26159e-07
0.000670152
-7.79188e-07
0.000670554
-8.31072e-07
0.000670969
-8.81551e-07
0.000671397
-9.30384e-07
0.000671834
-9.77315e-07
0.000672281
-1.02212e-06
0.000672734
-1.06454e-06
0.000673192
-1.10437e-06
0.000673653
-1.14135e-06
0.000674116
-1.1753e-06
0.000674579
-1.20593e-06
0.000675039
-1.23308e-06
0.000675495
-1.25645e-06
0.000675945
-1.27591e-06
0.000676386
-1.2911e-06
0.000676817
-1.30196e-06
0.000677236
-1.30803e-06
0.00067764
-1.30937e-06
0.000678027
-1.30535e-06
0.000678395
-1.29619e-06
0.000678741
-1.28102e-06
0.000679063
-1.26032e-06
0.000679357
-1.23284e-06
0.000679621
-1.19948e-06
0.000679853
-1.15836e-06
0.000680048
-1.11111e-06
0.000680204
-1.0548e-06
0.000680317
-9.92256e-07
0.000680382
-9.18912e-07
0.000680398
-8.39501e-07
0.000680357
-7.4683e-07
0.000680258
-6.48738e-07
0.000680092
-5.33825e-07
0.000679859
-4.14932e-07
0.000679547
-2.74086e-07
0.000679156
-1.32444e-07
0.000678676
3.65052e-08
0.000678102
2.07386e-07
0.000677416
4.19438e-07
0.000676624
6.17526e-07
0.000675697
8.76422e-07
0.000674644
1.106e-06
0.000673431
1.42564e-06
0.000672079
1.68826e-06
2.08459e-06
0.000670529
0.000666683
-3.40543e-08
0.00066673
-1.05401e-07
0.00066681
-1.79703e-07
0.000666921
-2.56151e-07
0.000667063
-3.34299e-07
0.000667234
-4.13708e-07
0.000667436
-4.93951e-07
0.000667665
-5.74602e-07
0.000667921
-6.55249e-07
0.000668204
-7.35487e-07
0.000668511
-8.1493e-07
0.000668841
-8.93206e-07
0.000669194
-9.69966e-07
0.000669566
-1.04487e-06
0.000669958
-1.1176e-06
0.000670366
-1.18785e-06
0.000670791
-1.25532e-06
0.000671229
-1.31974e-06
0.000671679
-1.38082e-06
0.00067214
-1.4383e-06
0.00067261
-1.49194e-06
0.000673087
-1.54144e-06
0.000673569
-1.5866e-06
0.000674055
-1.62713e-06
0.000674543
-1.66282e-06
0.00067503
-1.69337e-06
0.000675516
-1.7186e-06
0.000675997
-1.73816e-06
0.000676473
-1.75192e-06
0.000676942
-1.75944e-06
0.0006774
-1.76066e-06
0.000677847
-1.75503e-06
0.00067828
-1.74259e-06
0.000678698
-1.72259e-06
0.000679097
-1.69527e-06
0.000679475
-1.65955e-06
0.000679831
-1.616e-06
0.000680161
-1.56304e-06
0.000680463
-1.50175e-06
0.000680735
-1.42976e-06
0.000680973
-1.34901e-06
0.000681174
-1.25588e-06
0.000681335
-1.15373e-06
0.000681453
-1.0369e-06
0.000681525
-9.11098e-07
0.000681546
-7.67434e-07
0.000681512
-6.15451e-07
0.00068142
-4.4116e-07
0.000681265
-2.60382e-07
0.000681043
-5.17044e-08
0.000680748
1.62667e-07
0.000680365
4.18971e-07
0.0006799
6.72687e-07
0.000679338
9.81133e-07
0.000678679
1.27637e-06
0.000677906
1.64952e-06
0.000677021
1.99089e-06
0.000676001
2.44561e-06
0.000674853
2.83604e-06
3.39314e-06
0.000673545
0.000666684
-5.15631e-08
0.000666737
-1.57914e-07
0.000666824
-2.67098e-07
0.000666946
-3.77927e-07
0.000667101
-4.8976e-07
0.00066729
-6.01982e-07
0.00066751
-7.14004e-07
0.00066776
-8.25257e-07
0.00066804
-9.35201e-07
0.000668348
-1.04333e-06
0.000668682
-1.14916e-06
0.000669041
-1.25226e-06
0.000669424
-1.35221e-06
0.000669827
-1.44863e-06
0.000670251
-1.54118e-06
0.000670693
-1.62951e-06
0.000671151
-1.71332e-06
0.000671623
-1.79232e-06
0.000672109
-1.86623e-06
0.000672605
-1.93477e-06
0.000673111
-1.99771e-06
0.000673624
-2.05476e-06
0.000674143
-2.10569e-06
0.000674666
-2.15024e-06
0.000675192
-2.18818e-06
0.000675718
-2.21921e-06
0.000676242
-2.24313e-06
0.000676764
-2.25959e-06
0.00067728
-2.26843e-06
0.00067779
-2.26922e-06
0.000678291
-2.26183e-06
0.000678782
-2.24571e-06
0.00067926
-2.22083e-06
0.000679724
-2.18644e-06
0.000680171
-2.14268e-06
0.0006806
-2.08848e-06
0.000681008
-2.02426e-06
0.000681394
-1.94847e-06
0.000681754
-1.86198e-06
0.000682087
-1.7625e-06
0.000682389
-1.6517e-06
0.00068266
-1.52604e-06
0.000682894
-1.38854e-06
0.000683091
-1.23371e-06
0.000683247
-1.06676e-06
0.000683359
-8.79139e-07
0.000683423
-6.79655e-07
0.000683436
-4.54853e-07
0.000683396
-2.19647e-07
0.000683299
4.55219e-08
0.000683134
3.27153e-07
0.000682903
6.50321e-07
0.000682598
9.77032e-07
0.000682218
1.36193e-06
0.000681752
1.74161e-06
0.0006812
2.20214e-06
0.000680549
2.64148e-06
0.000679799
3.19535e-06
0.000678935
3.69996e-06
4.36829e-06
0.00067796
0.000666686
-7.12894e-08
0.000666746
-2.17085e-07
0.000666844
-3.65534e-07
0.000666981
-5.14985e-07
0.000667156
-6.64547e-07
0.000667367
-8.13383e-07
0.000667614
-9.60705e-07
0.000667894
-1.10577e-06
0.000668207
-1.24791e-06
0.00066855
-1.3865e-06
0.000668922
-1.52099e-06
0.000669321
-1.65088e-06
0.000669744
-1.77572e-06
0.000670191
-1.8951e-06
0.000670658
-2.00869e-06
0.000671145
-2.11614e-06
0.000671649
-2.21718e-06
0.000672168
-2.31152e-06
0.000672701
-2.39892e-06
0.000673245
-2.47912e-06
0.000673799
-2.55191e-06
0.000674362
-2.61704e-06
0.00067493
-2.67429e-06
0.000675503
-2.72344e-06
0.000676079
-2.76424e-06
0.000676657
-2.79645e-06
0.000677233
-2.81984e-06
0.000677808
-2.83412e-06
0.000678378
-2.83905e-06
0.000678944
-2.83428e-06
0.000679501
-2.81958e-06
0.00068005
-2.79451e-06
0.000680588
-2.75888e-06
0.000681114
-2.71211e-06
0.000681625
-2.65405e-06
0.000682121
-2.58392e-06
0.000682598
-2.50173e-06
0.000683056
-2.40636e-06
0.000683492
-2.29807e-06
0.000683905
-2.17521e-06
0.000684292
-2.03853e-06
0.000684651
-1.88553e-06
0.00068498
-1.71779e-06
0.000685278
-1.53148e-06
0.000685541
-1.32956e-06
0.000685768
-1.10613e-06
0.000685955
-8.66449e-07
0.000686101
-6.01389e-07
0.000686202
-3.2029e-07
0.000686258
-1.10427e-08
0.000686263
3.22827e-07
0.000686217
6.95646e-07
0.000686112
1.08283e-06
0.000685952
1.52115e-06
0.000685723
1.97073e-06
0.000685437
2.48807e-06
0.00068507
3.00928e-06
0.000684644
3.62129e-06
0.00068412
4.22348e-06
4.94753e-06
0.000683541
0.000666689
-9.40585e-08
0.000666758