/*--------------------------------*- C++ -*----------------------------------*\
| =========                 |                                                 |
| \\      /  F ield         | OpenFOAM: The Open Source CFD Toolbox           |
|  \\    /   O peration     | Version:  2312                                  |
|   \\  /    A nd           | Website:  www.openfoam.com                      |
|    \\/     M anipulation  |                                                 |
\*---------------------------------------------------------------------------*/
FoamFile
{
    version     2.0;
    format      ascii;
    arch        "LSB;label=32;scalar=64";
    class       surfaceScalarField;
    location    "62000";
    object      phi;
}
// * * * * * * * * * * * * * * * * * * * * * * * * * * * * * * * * * * * * * //

dimensions      [0 3 -1 0 0 0 0];

oriented        oriented;

internalField   nonuniform List<scalar> 
5250
(
0.000121825
-3.04572e-06
0.000124643
-2.81807e-06
0.000127244
-2.60126e-06
0.00012964
-2.39574e-06
0.000131841
-2.20184e-06
0.000133861
-2.01971e-06
0.000135711
-1.84938e-06
0.000137401
-1.69074e-06
0.000138945
-1.54359e-06
0.000140352
-1.40761e-06
0.000141635
-1.28242e-06
0.000142803
-1.16759e-06
0.000143865
-1.0626e-06
0.000144832
-9.66927e-07
0.000145712
-8.80002e-07
0.000146513
-8.01247e-07
0.000147243
-7.30073e-07
0.000147909
-6.65896e-07
0.000148517
-6.08138e-07
0.000149074
-5.56235e-07
0.000149583
-5.09646e-07
0.000150051
-4.67853e-07
0.000150481
-4.30368e-07
0.000150878
-3.96738e-07
0.000151245
-3.66542e-07
0.000151584
-3.39402e-07
0.000151899
-3.1498e-07
0.000152192
-2.92978e-07
0.000152465
-2.73141e-07
0.000152721
-2.55254e-07
0.00015296
-2.39135e-07
0.000153184
-2.24636e-07
0.000153396
-2.11631e-07
0.000153596
-2.00017e-07
0.000153786
-1.89705e-07
0.000153966
-1.80617e-07
0.000154139
-1.72682e-07
0.000154305
-1.65838e-07
0.000154465
-1.60024e-07
0.00015462
-1.55185e-07
0.000154771
-1.51262e-07
0.000154919
-1.48189e-07
0.000155065
-1.45891e-07
0.00015521
-1.44281e-07
0.000155353
-1.43272e-07
0.000155496
-1.42776e-07
0.000155638
-1.42706e-07
0.000155781
-1.42978e-07
0.000155925
-1.43512e-07
0.000156069
-1.44238e-07
0.000156214
-1.45092e-07
0.00015636
-1.46019e-07
0.000156507
-1.46962e-07
0.000156655
-1.47854e-07
0.000156804
-1.48619e-07
0.000156953
-1.49162e-07
0.000157102
-1.49383e-07
0.000157251
-1.49176e-07
0.0001574
-1.48439e-07
0.000157547
-1.47088e-07
0.000157692
-1.45057e-07
0.000157834
-1.42309e-07
0.000157973
-1.38835e-07
0.000158108
-1.34651e-07
0.000158238
-1.29797e-07
0.000158362
-1.24331e-07
0.00015848
-1.18319e-07
0.000158592
-1.11842e-07
0.000158697
-1.04971e-07
0.000158795
-9.77925e-08
0.000158885
-9.03858e-08
0.000158968
-8.28312e-08
0.000159043
-7.5228e-08
0.000159111
-6.76344e-08
0.000159171
-6.01772e-08
0.000159224
-5.28785e-08
0.00015927
-4.59013e-08
0.000159309
-3.92259e-08
0.000159342
-3.30479e-08
0.000159369
-2.72795e-08
0.000159392
-2.21569e-08
0.000159409
-1.74158e-08
0.000159422
-1.34502e-08
0.000159432
-9.5957e-09
0.000159439
-6.60924e-09
0.000159442
-3.32836e-09
0.000159443
-5.78754e-10
0.000159441
1.91313e-09
6.00588e-09
0.000331655
-7.92117e-06
0.000336287
-7.44964e-06
0.000340682
-6.9965e-06
0.000344849
-6.56278e-06
0.000348796
-6.14919e-06
0.000352533
-5.75622e-06
0.000356068
-5.38408e-06
0.00035941
-5.03279e-06
0.000362568
-4.70215e-06
0.000365552
-4.39181e-06
0.000368371
-4.10126e-06
0.000371033
-3.82986e-06
0.000373548
-3.57689e-06
0.000375922
-3.34153e-06
0.000378165
-3.12291e-06
0.000380284
-2.92009e-06
0.000382286
-2.73212e-06
0.000384178
-2.55805e-06
0.000385967
-2.39689e-06
0.000387659
-2.2477e-06
0.000389258
-2.10954e-06
0.000390772
-1.98153e-06
0.000392205
-1.86283e-06
0.00039356
-1.75265e-06
0.000394844
-1.65028e-06
0.00039606
-1.55506e-06
0.000397211
-1.46643e-06
0.000398302
-1.38388e-06
0.000399336
-1.30699e-06
0.000400316
-1.23541e-06
0.000401246
-1.16888e-06
0.000402129
-1.10717e-06
0.000402967
-1.05011e-06
0.000403765
-9.97575e-07
0.000404524
-9.49455e-07
0.000405249
-9.05645e-07
0.000405943
-8.66036e-07
0.000406607
-8.30508e-07
0.000407246
-7.98914e-07
0.000407862
-7.71084e-07
0.000408458
-7.46807e-07
0.000409035
-7.25833e-07
0.000409597
-7.07865e-07
0.000410146
-6.92566e-07
0.000410682
-6.79569e-07
0.000411208
-6.68497e-07
0.000411724
-6.58978e-07
0.000412232
-6.50666e-07
0.000412731
-6.43253e-07
0.000413224
-6.36476e-07
0.000413709
-6.30112e-07
0.000414187
-6.23964e-07
0.000414657
-6.17843e-07
0.000415121
-6.11537e-07
0.000415577
-6.04815e-07
0.000416026
-5.97413e-07
0.000416465
-5.89058e-07
0.000416896
-5.79476e-07
0.000417316
-5.68422e-07
0.000417724
-5.55686e-07
0.00041812
-5.41126e-07
0.000418503
-5.24667e-07
0.00041887
-5.06318e-07
0.000419222
-4.8617e-07
0.000419556
-4.64383e-07
0.000419873
-4.41179e-07
0.000420171
-4.16812e-07
0.000420451
-3.91549e-07
0.000420712
-3.65644e-07
0.000420953
-3.39332e-07
0.000421176
-3.12844e-07
0.000421379
-2.86366e-07
0.000421564
-2.60151e-07
0.000421731
-2.34316e-07
0.00042188
-2.09194e-07
0.000422012
-1.84792e-07
0.000422128
-1.61608e-07
0.000422228
-1.39479e-07
0.000422314
-1.19128e-07
0.000422387
-1.00116e-07
0.000422448
-8.33251e-08
0.000422499
-6.79857e-08
0.00042254
-5.48434e-08
0.000422574
-4.32013e-08
0.0004226
-3.28435e-08
0.000422621
-2.46716e-08
0.000422636
-1.54166e-08
0.000422649
-1.08402e-08
-2.22617e-10
0.000494935
-1.14096e-05
0.000498281
-1.07948e-05
0.000501487
-1.02034e-05
0.000504561
-9.63646e-06
0.000507507
-9.09506e-06
0.000510331
-8.57978e-06
0.000513037
-8.09093e-06
0.000515633
-7.62857e-06
0.000518124
-7.19249e-06
0.000520514
-6.7823e-06
0.00052281
-6.39743e-06
0.000525017
-6.03714e-06
0.000527141
-5.70058e-06
0.000529186
-5.38678e-06
0.000531158
-5.09467e-06
0.000533061
-4.82313e-06
0.0005349
-4.57095e-06
0.000536679
-4.33687e-06
0.000538402
-4.1196e-06
0.000540072
-3.91783e-06
0.000541692
-3.73023e-06
0.000543266
-3.55553e-06
0.000544796
-3.39251e-06
0.000546283
-3.24002e-06
0.00054773
-3.097e-06
0.000549138
-2.96251e-06
0.000550507
-2.83569e-06
0.000551839
-2.71581e-06
0.000553134
-2.60222e-06
0.000554393
-2.49441e-06
0.000555616
-2.392e-06
0.000556804
-2.29471e-06
0.000557956
-2.20237e-06
0.000559073
-2.11496e-06
0.000560156
-2.0325e-06
0.000561206
-1.95516e-06
0.000562223
-1.88315e-06
0.000563209
-1.8167e-06
0.000564166
-1.75605e-06
0.000565097
-1.70138e-06
0.000566003
-1.65275e-06
0.000566887
-1.61006e-06
0.000567752
-1.57305e-06
0.000568601
-1.5413e-06
0.000569435
-1.51429e-06
0.000570258
-1.49143e-06
0.000571072
-1.47215e-06
0.000571877
-1.45593e-06
0.000572676
-1.44233e-06
0.00057347
-1.43098e-06
0.000574262
-1.42153e-06
0.000575051
-1.41364e-06
0.000575841
-1.40689e-06
0.00057663
-1.40077e-06
0.00057742
-1.39467e-06
0.00057821
-1.38786e-06
0.000579001
-1.37955e-06
0.00057979
-1.36888e-06
0.000580577
-1.35505e-06
0.000581358
-1.33729e-06
0.000582132
-1.31499e-06
0.000582895
-1.28768e-06
0.000583644
-1.25511e-06
0.000584375
-1.21726e-06
0.000585085
-1.17427e-06
0.00058577
-1.12665e-06
0.000586428
-1.0748e-06
0.000587056
-1.0197e-06
0.000587653
-9.61786e-07
0.000588216
-9.02301e-07
0.000588744
-8.41496e-07
0.000589239
-7.80686e-07
0.000589698
-7.19908e-07
0.000590124
-6.60277e-07
0.000590517
-6.0188e-07
0.000590877
-5.45311e-07
0.000591207
-4.91184e-07
0.000591507
-4.39315e-07
0.000591779
-3.91149e-07
0.000592025
-3.45815e-07
0.000592246
-3.04956e-07
0.000592446
-2.67982e-07
0.000592626
-2.34383e-07
0.000592789
-2.06833e-07
0.000592935
-1.7825e-07
0.00059307
-1.60084e-07
0.000593187
-1.32649e-07
0.0005933
-1.23238e-07
-9.27433e-08
0.000631499
-1.23134e-05
0.00063236
-1.16554e-05
0.000633179
-1.10226e-05
0.000633959
-1.04163e-05
0.000634701
-9.83752e-06
0.000635408
-9.28699e-06
0.000636082
-8.76508e-06
0.000636726
-8.27186e-06
0.00063734
-7.80719e-06
0.000637929
-7.37072e-06
0.000638493
-6.9619e-06
0.000639036
-6.58003e-06
0.00063956
-6.22426e-06
0.000640067
-5.89359e-06
0.000640559
-5.58695e-06
0.000641039
-5.30312e-06
0.000641509
-5.04086e-06
0.000641971
-4.79885e-06
0.000642427
-4.57572e-06
0.000642879
-4.37007e-06
0.000643329
-4.18048e-06
0.000643779
-4.00555e-06
0.000644231
-3.84393e-06
0.000644685
-3.69433e-06
0.000645144
-3.55552e-06
0.000645607
-3.42631e-06
0.000646077
-3.30558e-06
0.000646554
-3.19226e-06
0.000647037
-3.08535e-06
0.000647527
-2.98402e-06
0.000648022
-2.88762e-06
0.000648523
-2.79565e-06
0.000649029
-2.70781e-06
0.000649538
-2.62392e-06
0.000650049
-2.54391e-06
0.000650562
-2.46781e-06
0.000651074
-2.39581e-06
0.000651586
-2.32824e-06
0.000652095
-2.26563e-06
0.000652603
-2.20863e-06
0.000653108
-2.15794e-06
0.000653612
-2.1142e-06
0.000654117
-2.07783e-06
0.000654624
-2.04896e-06
0.000655137
-2.02737e-06
0.000655659
-2.01256e-06
0.00065619
-2.00378e-06
0.000656734
-2.00023e-06
0.000657293
-2.00113e-06
0.000657868
-2.00584e-06
0.000658461
-2.0139e-06
0.000659072
-2.02496e-06
0.000659704
-2.03875e-06
0.000660358
-2.05489e-06
0.000661036
-2.07287e-06
0.00066174
-2.09185e-06
0.000662471
-2.11076e-06
0.000663231
-2.1282e-06
0.000664018
-2.14257e-06
0.000664833
-2.15218e-06
0.000665673
-2.15528e-06
0.000666536
-2.15039e-06
0.000667417
-2.13599e-06
0.000668311
-2.11131e-06
0.000669212
-2.07528e-06
0.000670114
-2.02828e-06
0.000671008
-1.96968e-06
0.00067189
-1.90116e-06
0.000672751
-1.82253e-06
0.000673585
-1.73653e-06
0.000674387
-1.64332e-06
0.000675152
-1.54599e-06
0.000675877
-1.44514e-06
0.00067656
-1.3431e-06
0.000677199
-1.24125e-06
0.000677794
-1.14025e-06
0.000678346
-1.04255e-06
0.000678854
-9.47213e-07
0.00067932
-8.57152e-07
0.000679746
-7.71767e-07
0.000680132
-6.91434e-07
0.000680484
-6.20325e-07
0.0006808
-5.50236e-07
0.00068109
-4.96817e-07
0.000681347
-4.35304e-07
0.000681588
-4.00607e-07
0.000681799
-3.4368e-07
0.000682002
-3.26527e-07
-2.69025e-07
0.000719912
-1.12288e-05
0.000718873
-1.06168e-05
0.000717878
-1.0028e-05
0.000716926
-9.46386e-06
0.000716014
-8.92551e-06
0.00071514
-8.41362e-06
0.000714304
-7.92854e-06
0.000713502
-7.47037e-06
0.000712734
-7.03902e-06
0.000711998
-6.63426e-06
0.000711292
-6.25579e-06
0.000710615
-5.90319e-06
0.000709967
-5.57598e-06
0.000709346
-5.27346e-06
0.000708754
-4.99473e-06
0.00070819
-4.73865e-06
0.000707653
-4.50382e-06
0.000707143
-4.28866e-06
0.000706658
-4.09143e-06
0.000706199
-3.91035e-06
0.000705762
-3.74365e-06
0.000705346
-3.58973e-06
0.000704949
-3.44718e-06
0.00070457
-3.31488e-06
0.000704206
-3.19192e-06
0.000703857
-3.07757e-06
0.000703523
-2.97117e-06
0.000703203
-2.87213e-06
0.000702897
-2.77983e-06
0.000702607
-2.69377e-06
0.000702333
-2.61353e-06
0.000702076
-2.5388e-06
0.000701838
-2.46933e-06
0.000701619
-2.4049e-06
0.00070142
-2.3452e-06
0.000701242
-2.28987e-06
0.000701085
-2.23854e-06
0.000700947
-2.19102e-06
0.000700829
-2.14738e-06
0.000700729
-2.10805e-06
0.000700645
-2.07386e-06
0.000700576
-2.04587e-06
0.000700524
-2.02518e-06
0.000700487
-2.01275e-06
0.000700469
-2.00914e-06
0.000700471
-2.01448e-06
0.000700496
-2.02842e-06
0.000700546
-2.05027e-06
0.000700624
-2.07913e-06
0.000700732
-2.1141e-06
0.000700873
-2.15439e-06
0.000701047
-2.19939e-06
0.000701257
-2.24869e-06
0.000701504
-2.3019e-06
0.00070179
-2.35864e-06
0.000702116
-2.41827e-06
0.000702485
-2.47987e-06
0.000702899
-2.54213e-06
0.00070336
-2.60327e-06
0.000703869
-2.66135e-06
0.000704427
-2.71381e-06
0.000705036
-2.75853e-06
0.000705692
-2.79249e-06
0.000706395
-2.81403e-06
0.00070714
-2.82003e-06
0.000707921
-2.80996e-06
0.000708733
-2.78108e-06
0.000709566
-2.73445e-06
0.000710412
-2.66832e-06
0.000711261
-2.58529e-06
0.000712103
-2.48533e-06
0.000712928
-2.37166e-06
0.00071373
-2.24652e-06
0.000714499
-2.11208e-06
0.00071523
-1.97299e-06
0.000715919
-1.82913e-06
0.000716563
-1.68653e-06
0.00071716
-1.54382e-06
0.000717708
-1.4054e-06
0.000718209
-1.27318e-06
0.000718662
-1.14383e-06
0.000719072
-1.03051e-06
0.000719435
-9.1325e-07
0.000719764
-8.25579e-07
0.00072005
-7.21435e-07
0.000720312
-6.62751e-07
0.000720537
-5.69124e-07
0.00072075
-5.39278e-07
-4.47048e-07
0.000753363
-9.21371e-06
0.000751442
-8.69607e-06
0.000749612
-8.19719e-06
0.000747866
-7.71869e-06
0.000746203
-7.26181e-06
0.000744616
-6.82738e-06
0.000743104
-6.41583e-06
0.000741661
-6.0273e-06
0.000740283
-5.66174e-06
0.000738968
-5.31907e-06
0.000737712
-4.99928e-06
0.000736511
-4.70244e-06
0.000735364
-4.42873e-06
0.000734268
-4.17822e-06
0.000733224
-3.9507e-06
0.000732231
-3.74557e-06
0.000731289
-3.56164e-06
0.000730398
-3.39715e-06
0.000729556
-3.24982e-06
0.000728763
-3.11698e-06
0.000728015
-2.99582e-06
0.000727309
-2.88368e-06
0.00072664
-2.77829e-06
0.000726003
-2.67797e-06
0.000725393
-2.5817e-06
0.000724804
-2.48907e-06
0.000724233
-2.40012e-06
0.000723676
-2.31526e-06
0.000723132
-2.23511e-06
0.000722598
-2.16041e-06
0.000722077
-2.09195e-06
0.000721568
-2.03053e-06
0.000721076
-1.97678e-06
0.000720602
-1.93111e-06
0.00072015
-1.89361e-06
0.000719725
-1.86401e-06
0.000719328
-1.84176e-06
0.000718963
-1.82624e-06
0.000718633
-1.81692e-06
0.000718338
-1.81354e-06
0.00071808
-1.81619e-06
0.00071786
-1.8253e-06
0.000717676
-1.84145e-06
0.000717529
-1.86527e-06
0.000717417
-1.89719e-06
0.00071734
-1.93737e-06
0.000717297
-1.98566e-06
0.000717288
-2.04156e-06
0.000717313
-2.10445e-06
0.000717373
-2.17357e-06
0.000717467
-2.24827e-06
0.000717595
-2.32794e-06
0.000717759
-2.41211e-06
0.000717957
-2.50038e-06
0.000718191
-2.59236e-06
0.00071846
-2.68757e-06
0.000718766
-2.7853e-06
0.000719108
-2.8847e-06
0.000719489
-2.98435e-06
0.000719911
-3.08281e-06
0.000720375
-3.17765e-06
0.000720883
-3.26688e-06
0.000721437
-3.34688e-06
0.000722039
-3.41538e-06
0.000722686
-3.46781e-06
0.000723379
-3.50226e-06
0.000724112
-3.51397e-06
0.000724879
-3.5022e-06
0.000725675
-3.46344e-06
0.000726488
-3.39851e-06
0.000727309
-3.30676e-06
0.000728128
-3.19003e-06
0.000728933
-3.05166e-06
0.000729714
-2.89303e-06
0.000730462
-2.72134e-06
0.000731169
-2.53644e-06
0.00073183
-2.34727e-06
0.00073244
-2.15356e-06
0.000732996
-1.96117e-06
0.000733498
-1.77521e-06
0.000733944
-1.59043e-06
0.00073434
-1.42656e-06
0.000734684
-1.25675e-06
0.000734984
-1.12598e-06
0.000735237
-9.74639e-07
0.000735458
-8.83406e-07
0.000735637
-7.47905e-07
0.000735797
-6.99251e-07
-5.67627e-07
0.000763276
-6.96905e-06
0.000761118
-6.53805e-06
0.000759042
-6.12159e-06
0.000757045
-5.72152e-06
0.000755123
-5.33932e-06
0.000753271
-4.97618e-06
0.000751488
-4.63281e-06
0.000749771
-4.30946e-06
0.000748115
-4.00623e-06
0.000746519
-3.72305e-06
0.00074498
-3.45992e-06
0.000743494
-3.21703e-06
0.00074206
-2.99482e-06
0.000740676
-2.79383e-06
0.00073934
-2.61459e-06
0.000738052
-2.45725e-06
0.000736811
-2.32136e-06
0.00073562
-2.20566e-06
0.000734478
-2.10797e-06
0.000733386
-2.02528e-06
0.000732344
-1.95401e-06
0.000731351
-1.8904e-06
0.000730404
-1.83099e-06
0.000729499
-1.773e-06
0.000728632
-1.71457e-06
0.000727798
-1.65486e-06
0.000726991
-1.59398e-06
0.000726209
-1.53279e-06
0.000725447
-1.47276e-06
0.000724702
-1.41579e-06
0.000723974
-1.36405e-06
0.000723263
-1.31976e-06
0.000722572
-1.28502e-06
0.000721902
-1.26155e-06
0.000721259
-1.25051e-06
0.000720647
-1.25241e-06
0.000720073
-1.26717e-06
0.000719541
-1.29428e-06
0.000719057
-1.33304e-06
0.000718626
-1.38272e-06
0.000718253
-1.44277e-06
0.00071794
-1.5128e-06
0.000717691
-1.59253e-06
0.000717508
-1.68159e-06
0.00071739
-1.7796e-06
0.000717339
-1.88604e-06
0.000717353
-2.00007e-06
0.000717432
-2.12061e-06
0.000717574
-2.24652e-06
0.000717777
-2.37662e-06
0.000718039
-2.50991e-06
0.000718356
-2.64553e-06
0.000718727
-2.78288e-06
0.000719148
-2.92151e-06
0.000719617
-3.06113e-06
0.000720131
-3.20153e-06
0.000720688
-3.34242e-06
0.000721287
-3.48351e-06
0.000721927
-3.62399e-06
0.000722607
-3.763e-06
0.000723328
-3.8985e-06
0.000724089
-4.02863e-06
0.000724892
-4.14952e-06
0.000725735
-4.25821e-06
0.000726616
-4.34906e-06
0.000727532
-4.41862e-06
0.000728479
-4.46062e-06
0.000729449
-4.47227e-06
0.000730434
-4.44871e-06
0.000731425
-4.3889e-06
0.00073241
-4.29163e-06
0.000733377
-4.15755e-06
0.000734316
-3.99069e-06
0.000735215
-3.79221e-06
0.000736065
-3.57122e-06
0.000736857
-3.32826e-06
0.000737585
-3.07507e-06
0.000738244
-2.81251e-06
0.000738832
-2.54956e-06
0.000739349
-2.29241e-06
0.000739797
-2.0384e-06
0.000740179
-1.80843e-06
0.000740499
-1.5761e-06
0.000740762
-1.3897e-06
0.000740972
-1.18428e-06
0.00074114
-1.05173e-06
0.000741261
-8.68566e-07
0.000741358
-7.96622e-07
-6.17336e-07
0.000785613
-4.52688e-06
0.000783224
-4.14869e-06
0.000780885
-3.78277e-06
0.000778594
-3.43104e-06
0.00077635
-3.09511e-06
0.00077415
-2.77624e-06
0.000771993
-2.47539e-06
0.000769877
-2.19348e-06
0.000767802
-1.93093e-06
0.000765766
-1.68774e-06
0.00076377
-1.46384e-06
0.000761812
-1.25924e-06
0.000759892
-1.07408e-06
0.000758007
-9.08689e-07
0.000756156
-7.63555e-07
0.000754337
-6.3911e-07
0.000752552
-5.35493e-07
0.000750798
-4.52262e-07
0.000749078
-3.88135e-07
0.000747394
-3.4087e-07
0.000745747
-3.0732e-07
0.000744141
-2.8372e-07
0.000742576
-2.66127e-07
0.000741054
-2.50934e-07
0.000739574
-2.3532e-07
0.000738137
-2.17523e-07
0.00073674
-1.96941e-07
0.000735381
-1.74089e-07
0.000734059
-1.50544e-07
0.000732772
-1.28772e-07
0.00073152
-1.11518e-07
0.000730301
-1.01751e-07
0.000729119
-1.02474e-07
0.000727974
-1.16412e-07
0.000726869
-1.4575e-07
0.000725809
-1.91956e-07
0.000724797
-2.55722e-07
0.00072384
-3.3706e-07
0.000722942
-4.35524e-07
0.00072211
-5.50461e-07
0.000721349
-6.81196e-07
0.000720663
-8.27076e-07
0.000720058
-9.87445e-07
0.000719538
-1.16135e-06
0.000719106
-1.34763e-06
0.000718765
-1.54497e-06
0.000718516
-1.75146e-06
0.00071836
-1.96494e-06
0.000718297
-2.18328e-06
0.000718325
-2.40432e-06
0.000718441
-2.62624e-06
0.000718643
-2.84773e-06
0.000718928
-3.06798e-06
0.000719293
-3.28654e-06
0.000719736
-3.50331e-06
0.000720252
-3.71836e-06
0.000720842
-3.93168e-06
0.000721501
-4.14317e-06
0.000722229
-4.35206e-06
0.000723024
-4.55732e-06
0.000723882
-4.75652e-06
0.0007248
-4.94705e-06
0.000725775
-5.12423e-06
0.0007268
-5.28372e-06
0.00072787
-5.41878e-06
0.000728976
-5.5242e-06
0.000730108
-5.59262e-06
0.000731255
-5.61954e-06
0.000732406
-5.59947e-06
0.000733547
-5.53016e-06
0.000734666
-5.41055e-06
0.000735749
-5.24101e-06
0.000736785
-5.0266e-06
0.000737762
-4.76922e-06
0.000738671
-4.48004e-06
0.000739504
-4.16083e-06
0.000740255
-3.82665e-06
0.000740922
-3.47902e-06
0.000741504
-3.13171e-06
0.000742001
-2.78966e-06
0.000742419
-2.45648e-06
0.00074276
-2.14934e-06
0.000743032
-1.8483e-06
0.00074324
-1.59773e-06
0.000743391
-1.33481e-06
0.000743494
-1.15468e-06
0.000743547
-9.21713e-07
0.000743573
-8.22584e-07
-5.94329e-07
0.000829949
-1.73748e-06
0.000827188
-1.38783e-06
0.000824455
-1.04956e-06
0.000821749
-7.24613e-07
0.000819069
-4.15044e-07
0.000816415
-1.22598e-07
0.000813785
1.55005e-07
0.000811177
4.13771e-07
0.000808593
6.5332e-07
0.000806032
8.73498e-07
0.000803494
1.07419e-06
0.000800979
1.2555e-06
0.000798488
1.41761e-06
0.000796018
1.56067e-06
0.00079357
1.68474e-06
0.000791141
1.78983e-06
0.000788729
1.87594e-06
0.000786334
1.94328e-06
0.000783953
1.99242e-06
0.000781588
2.02448e-06
0.000779239
2.04127e-06
0.00077691
2.04523e-06
0.000774605
2.03922e-06
0.000772328
2.02622e-06
0.000770084
2.00892e-06
0.000767877
1.98931e-06
0.000765711
1.96848e-06
0.000763591
1.94648e-06
0.000761518
1.92238e-06
0.000759495
1.89443e-06
0.000757523
1.86029e-06
0.000755604
1.8172e-06
0.000753739
1.76225e-06
0.00075193
1.6926e-06
0.000750179
1.60581e-06
0.000748487
1.50013e-06
0.000746856
1.37461e-06
0.00074529
1.22896e-06
0.000743791
1.06366e-06
0.000742361
8.79273e-07
0.000741004
6.76437e-07
0.000739721
4.55655e-07
0.000738516
2.17166e-07
0.000737391
-3.54541e-08
0.000736345
-3.02441e-07
0.000735386
-5.85599e-07
0.000734516
-8.81931e-07
0.00073374
-1.18885e-06
0.000733061
-1.50367e-06
0.00073248
-1.8233e-06
0.000731999
-2.14522e-06
0.000731618
-2.4674e-06
0.000731339
-2.78848e-06
0.00073116
-3.10746e-06
0.00073108
-3.42349e-06
0.000731098
-3.73609e-06
0.000731211
-4.04475e-06
0.000731416
-4.34873e-06
0.000731711
-4.64657e-06
0.00073209
-4.93637e-06
0.000732548
-5.2149e-06
0.00073308
-5.47849e-06
0.000733677
-5.72166e-06
0.000734332
-5.93889e-06
0.000735036
-6.12282e-06
0.000735779
-6.26703e-06
0.00073655
-6.36387e-06
0.000737339
-6.4078e-06
0.000738133
-6.3935e-06
0.000738921
-6.31807e-06
0.000739691
-6.18121e-06
0.000740434
-5.98323e-06
0.000741138
-5.73063e-06
0.000741794
-5.42578e-06
0.000742396
-5.08211e-06
0.000742937
-4.70191e-06
0.000743414
-4.30377e-06
0.000743824
-3.88851e-06
0.000744168
-3.47555e-06
0.000744444
-3.06614e-06
0.00074466
-2.67244e-06
0.000744815
-2.3038e-06
0.000744918
-1.95143e-06
0.000744969
-1.64913e-06
0.000744979
-1.34454e-06
0.00074495
-1.12546e-06
0.000744886
-8.57657e-07
0.000744799
-7.36171e-07
-4.74917e-07
0.000875311
1.14908e-06
0.00087245
1.47304e-06
0.000869614
1.78638e-06
0.000866802
2.08743e-06
0.000864013
2.37467e-06
0.000861243
2.6469e-06
0.000858495
2.90317e-06
0.000855766
3.14241e-06
0.000853056
3.36389e-06
0.000850362
3.5672e-06
0.000847684
3.7521e-06
0.000845021
3.91851e-06
0.000842372
4.06649e-06
0.000839737
4.19625e-06
0.000837113
4.30805e-06
0.000834501
4.40223e-06
0.000831898
4.47916e-06
0.000829302
4.53927e-06
0.000826711
4.58316e-06
0.000824124
4.6116e-06
0.000821539
4.62562e-06
0.000818958
4.62652e-06
0.000816382
4.6158e-06
0.000813813
4.59506e-06
0.000811256
4.56574e-06
0.000808716
4.52895e-06
0.0008062
4.48518e-06
0.000803712
4.43427e-06
0.000801259
4.37532e-06
0.000798846
4.3069e-06
0.00079648
4.22712e-06
0.000794163
4.13391e-06
0.0007919
4.02524e-06
0.000789693
3.89918e-06
0.000787545
3.75425e-06
0.000785455
3.58951e-06
0.000783425
3.40456e-06
0.000781455
3.19972e-06
0.000779543
2.97584e-06
0.000777688
2.73409e-06
0.000775889
2.47564e-06
0.000774143
2.20144e-06
0.000772448
1.91212e-06
0.000770804
1.60795e-06
0.000769213
1.28886e-06
0.000767672
9.55148e-07
0.000766183
6.0786e-07
0.000764746
2.4766e-07
0.00076337
-1.27845e-07
0.000762058
-5.11044e-07
0.000760813
-9.00755e-07
0.000759641
-1.29481e-06
0.000758543
-1.6911e-06
0.000757524
-2.08772e-06
0.000756583
-2.48236e-06
0.00075572
-2.87344e-06
0.000754934
-3.25917e-06
0.000754223
-3.63755e-06
0.000753583
-4.00591e-06
0.000753007
-4.36127e-06
0.000752492
-4.69989e-06
0.000752032
-5.01767e-06
0.000751619
-5.30922e-06
0.000751249
-5.56895e-06
0.000750917
-5.79009e-06
0.000750616
-5.96623e-06
0.000750342
-6.09056e-06
0.000750092
-6.1574e-06
0.000749861
-6.16237e-06
0.000749645
-6.10219e-06
0.000749441
-5.97752e-06
0.000749246
-5.78807e-06
0.000749057
-5.54143e-06
0.00074887
-5.23909e-06
0.000748684
-4.89618e-06
0.000748496
-4.51335e-06
0.000748304
-4.11233e-06
0.000748106
-3.69046e-06
0.000747904
-3.27309e-06
0.000747692
-2.85431e-06
0.000747476
-2.45676e-06
0.00074725
-2.07703e-06
0.000747021
-1.72277e-06
0.00074678
-1.40861e-06
0.00074654
-1.10449e-06
0.000746289
-8.74477e-07
0.000746041
-6.09188e-07
0.000745785
-4.80498e-07
-2.23137e-07
0.000889634
3.55039e-06
0.000887274
3.83369e-06
0.000884952
4.10833e-06
0.000882666
4.37265e-06
0.000880416
4.6253e-06
0.000878198
4.86505e-06
0.00087601
5.09095e-06
0.00087385
5.30229e-06
0.000871715
5.49841e-06
0.000869604
5.6789e-06
0.000867512
5.84349e-06
0.000865439
5.99208e-06
0.000863381
6.12472e-06
0.000861335
6.24152e-06
0.000859301
6.34272e-06
0.000857274
6.42861e-06
0.000855254
6.49953e-06
0.000853237
6.55591e-06
0.000851222
6.59825e-06
0.000849207
6.62713e-06
0.000847189
6.64322e-06
0.000845168
6.64727e-06
0.000843144
6.64002e-06
0.000841117
6.62215e-06
0.000839089
6.59414e-06
0.000837061
6.55619e-06
0.000835038
6.5081e-06
0.000833024
6.44919e-06
0.000831021
6.3783e-06
0.000829033
6.294e-06
0.000827066
6.19467e-06
0.000825121
6.07875e-06
0.000823201
5.94488e-06
0.000821308
5.79209e-06
0.000819443
5.61988e-06
0.000817604
5.42823e-06
0.000815791
5.21759e-06
0.000814002
4.98877e-06
0.000812235
4.74282e-06
0.000810488
4.48097e-06
0.000808759
4.20444e-06
0.000807046
3.91435e-06
0.000805347
3.61162e-06
0.000803658
3.29686e-06
0.000801977
2.97023e-06
0.0008003
2.63168e-06
0.000798627
2.28123e-06
0.000796955
1.91908e-06
0.000795282
1.54571e-06
0.000793608
1.16255e-06
0.000791936
7.71353e-07
0.000790267
3.74465e-07
0.000788607
-3.10211e-08
0.000786964
-4.44817e-07
0.000785336
-8.54719e-07
0.000783724
-1.26085e-06
0.000782125
-1.66043e-06
0.000780538
-2.05089e-06
0.000778961
-2.42856e-06
0.00077739
-2.79034e-06
0.000775823
-3.13278e-06
0.000774257
-3.45218e-06
0.000772692
-3.74426e-06
0.000771128
-4.00451e-06
0.000769566
-4.22809e-06
0.00076801
-4.41012e-06
0.000766465
-4.54594e-06
0.000764939
-4.63096e-06
0.000763439
-4.66257e-06
0.000761974
-4.63755e-06
0.000760554
-4.55756e-06
0.000759187
-4.42099e-06
0.000757882
-4.23569e-06
0.000756643
-4.00035e-06
0.000755477
-3.73038e-06
0.000754386
-3.42205e-06
0.000753372
-3.09879e-06
0.000752433
-2.7513e-06
0.00075157
-2.41008e-06
0.000750774
-2.05864e-06
0.000750049
-1.73106e-06
0.000749378
-1.40675e-06
0.00074877
-1.11426e-06
0.000748202
-8.40923e-07
0.000747689
-5.91086e-07
0.000747202
-3.87504e-07
0.000746765
-1.72016e-07
0.000746341
-5.65641e-08
1.5006e-07
0.000851947
4.88204e-06
0.000850677
5.10346e-06
0.000849467
5.31862e-06
0.000848313
5.52621e-06
0.000847213
5.72513e-06
0.000846164
5.91445e-06
0.000845161
6.09342e-06
0.000844202
6.26144e-06
0.000843282
6.41803e-06
0.000842399
6.56283e-06
0.000841546
6.69564e-06
0.000840722
6.81636e-06
0.000839922
6.92497e-06
0.000839142
7.02152e-06
0.000838378
7.10615e-06
0.000837628
7.17902e-06
0.000836887
7.24038e-06
0.000836153
7.29051e-06
0.000835421
7.32974e-06
0.00083469
7.35847e-06
0.000833956
7.37709e-06
0.000833217
7.38595e-06
0.000832472
7.38527e-06
0.000831719
7.37513e-06
0.000830958
7.35537e-06
0.000830188
7.32559e-06
0.000829411
7.2851e-06
0.000828628
7.233e-06
0.000827838
7.16825e-06
0.000827042
7.08975e-06
0.00082624
6.99649e-06
0.000825431
6.88762e-06
0.000824613
6.76259e-06
0.000823784
6.62121e-06
0.000822941
6.46364e-06
0.000822078
6.29041e-06
0.000821194
6.10226e-06
0.000820282
5.9001e-06
0.00081934
5.68489e-06
0.000818364
5.45754e-06
0.000817349
5.21884e-06
0.000816294
4.96936e-06
0.000815196
4.70945e-06
0.000814054
4.43925e-06
0.000812866
4.1587e-06
0.00081163
3.86758e-06
0.000810345
3.5657e-06
0.000809011
3.253e-06
0.000807627
2.92961e-06
0.000806194
2.59617e-06
0.000804711
2.25385e-06
0.000803181
1.90442e-06
0.0008016
1.55003e-06
0.000799962
1.19317e-06
0.00079827
8.37285e-07
0.000796524
4.85439e-07
0.000794722
1.41257e-07
0.000792872
-2.00467e-07
0.000790969
-5.25573e-07
0.000789012
-8.3337e-07
0.000787001
-1.12144e-06
0.000784936
-1.38743e-06
0.000782821
-1.62912e-06
0.00078066
-1.84418e-06
0.000778463
-2.03086e-06
0.00077624
-2.18687e-06
0.000774005
-2.31052e-06
0.000771773
-2.39932e-06
0.000769563
-2.45279e-06
0.000767394
-2.46825e-06
0.000765284
-2.44787e-06
0.000763252
-2.38845e-06
0.000761313
-2.2968e-06
0.00075948
-2.168e-06
0.000757766
-2.01562e-06
0.000756174
-1.83076e-06
0.000754712
-1.63604e-06
0.000753375
-1.41504e-06
0.000752166
-1.2007e-06
0.000751074
-9.66302e-07
0.000750098
-7.55039e-07
0.00074922
-5.29724e-07
0.000748445
-3.38922e-07
0.000747746
-1.41681e-07
0.000747134
2.08231e-08
0.000746574
1.72502e-07
0.000746093
3.08792e-07
0.00074564
3.96559e-07
5.2352e-07
0.000761588
4.76575e-06
0.000761787
4.90456e-06
0.000762065
5.04015e-06
0.00076242
5.17167e-06
0.000762847
5.2984e-06
0.000763341
5.41974e-06
0.0007639
5.53518e-06
0.000764517
5.64429e-06
0.000765188
5.74674e-06
0.000765909
5.8423e-06
0.000766673
5.93077e-06
0.000767478
6.01206e-06
0.000768317
6.0861e-06
0.000769185
6.1529e-06
0.000770079
6.2125e-06
0.000770993
6.26498e-06
0.000771923
6.31043e-06
0.000772864
6.349e-06
0.000773813
6.38081e-06
0.000774766
6.40596e-06
0.000775718
6.42453e-06
0.000776668
6.43649e-06
0.000777611
6.44173e-06
0.000778546
6.44005e-06
0.000779471
6.43111e-06
0.000780382
6.41447e-06
0.000781277
6.38961e-06
0.000782154
6.35592e-06
0.00078301
6.31281e-06
0.00078384
6.25972e-06
0.00078464
6.19618e-06
0.000785406
6.12186e-06
0.000786132
6.03665e-06
0.000786812
5.94058e-06
0.000787442
5.83389e-06
0.000788016
5.71691e-06
0.000788528
5.59007e-06
0.000788974
5.45378e-06
0.000789351
5.30841e-06
0.000789654
5.15425e-06
0.000789881
4.99149e-06
0.000790031
4.82017e-06
0.0007901
4.64023e-06
0.000790087
4.45151e-06
0.000789992
4.25377e-06
0.000789813
4.04683e-06
0.000789548
3.83057e-06
0.000789196
3.60508e-06
0.000788755
3.37068e-06
0.000788223
3.12801e-06
0.000787599
2.87811e-06
0.000786881
2.62246e-06
0.000786068
2.3628e-06
0.00078516
2.10142e-06
0.000784156
1.84111e-06
0.000783057
1.58465e-06
0.000781863
1.33473e-06
0.00078057
1.0934e-06
0.000779181
8.63286e-07
0.000777701
6.45944e-07
0.000776137
4.42491e-07
0.000774496
2.53716e-07
0.000772787
7.97929e-08
0.000771017
-7.41887e-08
0.0007692
-2.13048e-07
0.000767349
-3.36072e-07
0.000765481
-4.42867e-07
0.000763614
-5.32009e-07
0.000761765
-6.0363e-07
0.000759952
-6.55146e-07
0.000758192
-6.87952e-07
0.000756501
-6.97843e-07
0.000754894
-6.89387e-07
0.000753382
-6.55943e-07
0.000751974
-6.07814e-07
0.000750677
-5.34108e-07
0.000749495
-4.53653e-07
0.000748428
-3.48185e-07
0.000747475
-2.47679e-07
0.000746632
-1.23027e-07
0.000745894
-1.70389e-08
0.000745252
1.1228e-07
0.000744702
2.10241e-07
0.000744231
3.30199e-07
0.00074384
4.11701e-07
0.000743504
5.07867e-07
0.000743242
5.71604e-07
0.000743009
6.28918e-07
6.83885e-07
0.00063915
2.93459e-06
0.000641065
2.9897e-06
0.000643061
3.04468e-06
0.000645133
3.09913e-06
0.000647279
3.15269e-06
0.000649494
3.20506e-06
0.000651773
3.25595e-06
0.000654112
3.30513e-06
0.000656506
3.35239e-06
0.000658951
3.39757e-06
0.000661441
3.44053e-06
0.000663972
3.48115e-06
0.000666539
3.51935e-06
0.000669137
3.55504e-06
0.000671761
3.58818e-06
0.000674407
3.6187e-06
0.000677071
3.64657e-06
0.000679749
3.67176e-06
0.000682435
3.69421e-06
0.000685127
3.71388e-06
0.000687821
3.73069e-06
0.000690513
3.74452e-06
0.0006932
3.75524e-06
0.000695877
3.76263e-06
0.000698542
3.76646e-06
0.00070119
3.76645e-06
0.000703817
3.76228e-06
0.000706419
3.75366e-06
0.000708992
3.74026e-06
0.00071153
3.72182e-06
0.000714028
3.69812e-06
0.000716481
3.669e-06
0.000718883
3.63432e-06
0.000721229
3.5941e-06
0.000723515
3.54832e-06