/*--------------------------------*- C++ -*----------------------------------*\
| =========                 |                                                 |
| \\      /  F ield         | OpenFOAM: The Open Source CFD Toolbox           |
|  \\    /   O peration     | Version:  2312                                  |
|   \\  /    A nd           | Website:  www.openfoam.com                      |
|    \\/     M anipulation  |                                                 |
\*---------------------------------------------------------------------------*/
FoamFile
{
    version     2.0;
    format      ascii;
    arch        "LSB;label=32;scalar=64";
    class       surfaceScalarField;
    location    "147000";
    object      phi;
}
// * * * * * * * * * * * * * * * * * * * * * * * * * * * * * * * * * * * * * //

dimensions      [0 3 -1 0 0 0 0];

oriented        oriented;

internalField   nonuniform List<scalar> 
5250
(
0.000529485
2.3556e-06
0.000523551
5.93352e-06
0.000514913
8.6384e-06
0.000503573
1.13399e-05
0.000489678
1.38955e-05
0.000473586
1.60919e-05
0.000455693
1.78925e-05
0.000436329
1.9364e-05
0.000415734
2.05951e-05
0.000394105
2.16294e-05
0.000371635
2.24694e-05
0.000348528
2.31071e-05
0.000324992
2.35358e-05
0.00030124
2.37519e-05
0.000277484
2.37566e-05
0.000253927
2.35566e-05
0.000230762
2.31655e-05
0.000208158
2.26038e-05
0.000186259
2.18989e-05
0.000165177
2.10823e-05
0.000144989
2.01872e-05
0.000125743
1.92464e-05
0.000107453
1.82897e-05
9.01099e-05
1.73435e-05
7.368e-05
1.64299e-05
5.81094e-05
1.55706e-05
4.33404e-05
1.4769e-05
2.93571e-05
1.39833e-05
1.62328e-05
1.31243e-05
4.14286e-06
1.20899e-05
-6.68242e-06
1.08253e-05
-1.60124e-05
9.32999e-06
-2.3671e-05
7.65856e-06
-2.95497e-05
5.87878e-06
-3.36102e-05
4.06049e-06
-3.58743e-05
2.26404e-06
-3.64165e-05
5.42205e-07
-3.54769e-05
-9.3955e-07
-3.32315e-05
-2.24545e-06
-2.98188e-05
-3.41271e-06
-2.5321e-05
-4.49781e-06
-1.99872e-05
-5.33374e-06
-1.40579e-05
-5.9293e-06
-7.8014e-06
-6.2565e-06
-1.47664e-06
-6.32477e-06
4.70096e-06
-6.17759e-06
1.05642e-05
-5.86326e-06
1.599e-05
-5.42575e-06
2.09124e-05
-4.92245e-06
2.5334e-05
-4.42155e-06
2.93047e-05
-3.97071e-06
3.28697e-05
-3.56504e-06
3.6039e-05
-3.16928e-06
3.88292e-05
-2.7902e-06
4.13108e-05
-2.48164e-06
4.35299e-05
-2.21906e-06
4.56204e-05
-2.09046e-06
4.75798e-05
-1.9594e-06
4.93478e-05
-1.76804e-06
5.0847e-05
-1.49917e-06
5.20009e-05
-1.15395e-06
5.27446e-05
-7.43683e-07
5.30343e-05
-2.89665e-07
5.27744e-05
2.59862e-07
5.18789e-05
8.95563e-07
5.03391e-05
1.53977e-06
4.81463e-05
2.19279e-06
4.53643e-05
2.78201e-06
4.20212e-05
3.3431e-06
3.81252e-05
3.89601e-06
3.3748e-05
4.37713e-06
2.89813e-05
4.76671e-06
2.39196e-05
5.06175e-06
1.86543e-05
5.26529e-06
1.32716e-05
5.38269e-06
7.84963e-06
5.42198e-06
2.4612e-06
5.38842e-06
-2.82775e-06
5.28896e-06
-7.9645e-06
5.13674e-06
-1.2899e-05
4.93451e-06
-1.75539e-05
4.65492e-06
-2.18514e-05
4.29749e-06
-2.57302e-05
3.87881e-06
-2.91409e-05
3.41064e-06
-3.20455e-05
2.90466e-06
-3.44187e-05
2.37312e-06
-3.6247e-05
1.82834e-06
-3.75289e-05
1.28192e-06
-3.82727e-05
7.4379e-07
2.18733e-07
0.000918549
9.1991e-06
0.000911405
1.30768e-05
0.000903588
1.64555e-05
0.000895217
1.97114e-05
0.0008862
2.29126e-05
0.000876303
2.59888e-05
0.000865336
2.88593e-05
0.000853224
3.14757e-05
0.000839987
3.38327e-05
0.000825671
3.59449e-05
0.000810325
3.78154e-05
0.000793999
3.94336e-05
0.000776751
4.07838e-05
0.00075865
4.18526e-05
0.000739776
4.26308e-05
0.000720218
4.31147e-05
0.000700077
4.3306e-05
0.000679469
4.32125e-05
0.000658518
4.2849e-05
0.000637365
4.22355e-05
0.000616155
4.13971e-05
0.000595038
4.03632e-05
0.000574163
3.9165e-05
0.000553676
3.78303e-05
0.00053374
3.63661e-05
0.000514537
3.47737e-05
0.000496234
3.30719e-05
0.000478946
3.12719e-05
0.000462688
2.93818e-05
0.000447378
2.74004e-05
0.000432869
2.53341e-05
0.00041901
2.31884e-05
0.000405678
2.0991e-05
0.000392778
1.87788e-05
0.000380239
1.65994e-05
0.000368012
1.44913e-05
0.00035604
1.2514e-05
0.000344394
1.0706e-05
0.000333058
9.09124e-06
0.000321926
7.71864e-06
0.000310744
6.68479e-06
0.000299625
5.78503e-06
0.000288558
5.13754e-06
0.000277525
4.7764e-06
0.000266528
4.67254e-06
0.000255592
4.75856e-06
0.000244773
4.95523e-06
0.00023415
5.19692e-06
0.000223812
5.41581e-06
0.000213855
5.53568e-06
0.000204367
5.51777e-06
0.000195421
5.38005e-06
0.000187081
5.17118e-06
0.000179378
4.91253e-06
0.000172364
4.53246e-06
0.000166211
3.93404e-06
0.000160691
3.42951e-06
0.000155702
3.02928e-06
0.000151163
2.7715e-06
0.000147003
2.66019e-06
0.000143169
2.68061e-06
0.000139612
2.81362e-06
0.000136277
3.04463e-06
0.000133156
3.38101e-06
0.000130191
3.86031e-06
0.000127215
4.51631e-06
0.000124041
5.36679e-06
0.000120428
6.3947e-06
0.000116222
7.54945e-06
0.000111366
8.7515e-06
0.000106055
9.68805e-06
0.000100422
1.04006e-05
9.45676e-05
1.09157e-05
8.85878e-05
1.12451e-05
8.25723e-05
1.13982e-05
7.66051e-05
1.13892e-05
7.07625e-05
1.1231e-05
6.51167e-05
1.09348e-05
5.9748e-05
1.05054e-05
5.47425e-05
9.93996e-06
5.01601e-05
9.23735e-06
4.60516e-05
8.40599e-06
4.24683e-05
7.46208e-06
3.94523e-05
6.42671e-06
3.70322e-05
5.32472e-06
3.52225e-05
4.1828e-06
3.4024e-05
3.02691e-06
3.34208e-05
1.88509e-06
3.33735e-05
7.91039e-07
-2.59538e-07
0.00107407
1.23957e-05
0.00107052
1.663e-05
0.00106628
2.06964e-05
0.00106144
2.45492e-05
0.00105609
2.82624e-05
0.00105019
3.18845e-05
0.00104364
3.54135e-05
0.00103631
3.88073e-05
0.00102813
4.20153e-05
0.00101907
4.49974e-05
0.00100916
4.77258e-05
0.000998418
5.01797e-05
0.000986861
5.2341e-05
0.000974521
5.41918e-05
0.000961438
5.57144e-05
0.000947659
5.68937e-05
0.000933246
5.77189e-05
0.000918273
5.81851e-05
0.000902828
5.82941e-05
0.000887007
5.80565e-05
0.000870913
5.74909e-05
0.000854657
5.66194e-05
0.000838359
5.54629e-05
0.000822151
5.40389e-05
0.000806155
5.23613e-05
0.000790487
5.04425e-05
0.000775248
4.83108e-05
0.000760485
4.60347e-05
0.000746224
4.3643e-05
0.000732469
4.11555e-05
0.000719242
3.8561e-05
0.000706566
3.58641e-05
0.000694459
3.30985e-05
0.000682931
3.03067e-05
0.000671988
2.75425e-05
0.00066162
2.48587e-05
0.000651829
2.23056e-05
0.000642599
1.99352e-05
0.000633907
1.77837e-05
0.000625739
1.58862e-05
0.000618162
1.4262e-05
0.000611082
1.28654e-05
0.000604492
1.17272e-05
0.000598303
1.09655e-05
0.000592472
1.05038e-05
0.000586932
1.02983e-05
0.000581583
1.03043e-05
0.000576294
1.04856e-05
0.000570904
1.08064e-05
0.000565211
1.12281e-05
0.000559014
1.17153e-05
0.000552149
1.22446e-05
0.000544517
1.28038e-05
0.00053605
1.33792e-05
0.000526618
1.3964e-05
0.000515907
1.46458e-05
0.000503912
1.54243e-05
0.000490848
1.60931e-05
0.000476878
1.67419e-05
0.000462167
1.73709e-05
0.0004469
1.79472e-05
0.000431273
1.84412e-05
0.000415472
1.8846e-05
0.00039967
1.91829e-05
0.000384041
1.94893e-05
0.000368752
1.98047e-05
0.000353966
2.01527e-05
0.000339852
2.05093e-05
0.000326663
2.07378e-05
0.000314684
2.07309e-05
0.000303723
2.06491e-05
0.000293673
2.04501e-05
0.000284451
2.01379e-05
0.000275985
1.97113e-05
0.000268209
1.91743e-05
0.000261055
1.85435e-05
0.000254447
1.78385e-05
0.0002483
1.70815e-05
0.000242537
1.62686e-05
0.000237175
1.53024e-05
0.00023225
1.41622e-05
0.000227794
1.28617e-05
0.00022384
1.14163e-05
0.000220417
9.84931e-06
0.00021755
8.19201e-06
0.000215251
6.48243e-06
0.000213516
4.76192e-06
0.000212333
3.06805e-06
0.000211698
1.4253e-06
-1.43634e-07
0.00113851
1.42949e-05
0.00113684
1.82975e-05
0.00113506
2.24726e-05
0.00113297
2.66427e-05
0.00113047
3.07656e-05
0.0011275
3.48547e-05
0.00112401
3.88959e-05
0.00111997
4.28515e-05
0.00111531
4.66723e-05
0.00111
5.03109e-05
0.001104
5.37265e-05
0.00109729
5.68849e-05
0.00108988
5.97571e-05
0.00108175
6.23171e-05
0.00107292
6.454e-05
0.00106342
6.64005e-05
0.00105326
6.78755e-05
0.0010425
6.89472e-05
0.00103119
6.96062e-05
0.00101939
6.98498e-05
0.0010072
6.96861e-05
0.000994687
6.91314e-05
0.000981951
6.81992e-05
0.00096908
6.69092e-05
0.00095616
6.52821e-05
0.00094326
6.33422e-05
0.000930451
6.11197e-05
0.000917838
5.86473e-05
0.000905524
5.59575e-05
0.000893602
5.30778e-05
0.000882126
5.00365e-05
0.000871122
4.68683e-05
0.000860602
4.36186e-05
0.000850568
4.03402e-05
0.000841026
3.70844e-05
0.000831983
3.39024e-05
0.000823448
3.08406e-05
0.000815443
2.79396e-05
0.000807989
2.52378e-05
0.000801114
2.27611e-05
0.000794842
2.05344e-05
0.000789129
1.85784e-05
0.000783959
1.68969e-05
0.000779412
1.55125e-05
0.000775433
1.4483e-05
0.000772024
1.37069e-05
0.000769188
1.31401e-05
0.000766875
1.27994e-05
0.00076502
1.26615e-05
0.00076354
1.27075e-05
0.000762338
1.29178e-05
0.000761303
1.32796e-05
0.000760308
1.3798e-05
0.000759222
1.44661e-05
0.000757911
1.52746e-05
0.00075633
1.62269e-05
0.000754448
1.73064e-05
0.000752135
1.84063e-05
0.000749308
1.95686e-05
0.000745756
2.09225e-05
0.000741341
2.23623e-05
0.000735938
2.38449e-05
0.000729436
2.53471e-05
0.000721775
2.68441e-05
0.000712963
2.83016e-05
0.000703078
2.96894e-05
0.000692256
3.0975e-05
0.000680652
3.21128e-05
0.000668306
3.30845e-05
0.000655153
3.38833e-05
0.00064142
3.43826e-05
0.0006273
3.45695e-05
0.00061298
3.44582e-05
0.00059864
3.40515e-05
0.00058445
3.3364e-05
0.000570574
3.24195e-05
0.000557176
3.12365e-05
0.000544432
2.98257e-05
0.000532506
2.81949e-05
0.000521465
2.63431e-05
0.000511353
2.42742e-05
0.000502175
2.20394e-05
0.000493893
1.96985e-05
0.000486473
1.72691e-05
0.000479886
1.47796e-05
0.0004741
1.22682e-05
0.000469081
9.78107e-06
0.000464785
7.36402e-06
0.00046116
5.05039e-06
2.85723e-06
0.00112641
1.43204e-05
0.00112645
1.82597e-05
0.00112638
2.2538e-05
0.00112599
2.70347e-05
0.00112514
3.1615e-05
0.00112381
3.61856e-05
0.00112201
4.06943e-05
0.00111975
4.51059e-05
0.00111704
4.93859e-05
0.00111386
5.34951e-05
0.00111019
5.73913e-05
0.00110604
6.10341e-05
0.00110141
6.43886e-05
0.0010963
6.74256e-05
0.00109072
7.0121e-05
0.00108467
7.24516e-05
0.00107816
7.43897e-05
0.0010712
7.59081e-05
0.0010638
7.69984e-05
0.00105599
7.76613e-05
0.00104778
7.79014e-05
0.00103918
7.77235e-05
0.00103026
7.71284e-05
0.00102105
7.61196e-05
0.00101162
7.47113e-05
0.00100203
7.29277e-05
0.000992349
7.08015e-05
0.000982635
6.83608e-05
0.000972956
6.56363e-05
0.000963369
6.26657e-05
0.000953915
5.94899e-05
0.000944632
5.61516e-05
0.000935556
5.26941e-05
0.000926733
4.91638e-05
0.000918208
4.56086e-05
0.000910036
4.20753e-05
0.000902265
3.86115e-05
0.000894945
3.52589e-05
0.000888126
3.20575e-05
0.000881846
2.90408e-05
0.000876144
2.62362e-05
0.000871054
2.36686e-05
0.000866603
2.13474e-05
0.000862835
1.92809e-05
0.000859837
1.74809e-05
0.000857611
1.59331e-05
0.000856147
1.46037e-05
0.00085541
1.35364e-05
0.000855337
1.27343e-05
0.000855876
1.21686e-05
0.000856965
1.18295e-05
0.000858538
1.1706e-05
0.00086054
1.17961e-05
0.000862908
1.20984e-05
0.000865586
1.2596e-05
0.000868524
1.32891e-05
0.000871654
1.41767e-05
0.000874826
1.52345e-05
0.00087792
1.64747e-05
0.000880892
1.79504e-05
0.000883713
1.95411e-05
0.000886336
2.12218e-05
0.000888696
2.29866e-05
0.000890725
2.48155e-05
0.000892342
2.66849e-05
0.000893461
2.85701e-05
0.000893995
3.04407e-05
0.000893849
3.22592e-05
0.000892959
3.39744e-05
0.00089133
3.55123e-05
0.000888914
3.67987e-05
0.000885638
3.78452e-05
0.000881424
3.86724e-05
0.000876234
3.92417e-05
0.000870072
3.95259e-05
0.000862986
3.95053e-05
0.000855057
3.91652e-05
0.000846384
3.84995e-05
0.000837071
3.75079e-05
0.000827219
3.61944e-05
0.000816919
3.45745e-05
0.000806284
3.26739e-05
0.00079546
3.05232e-05
0.000784573
2.81559e-05
0.000773741
2.56114e-05
0.000763075
2.29342e-05
0.000752683
2.01733e-05
0.000742669
1.73777e-05
0.00073313
1.459e-05
1.18488e-05
0.00115608
1.4176e-05
0.00115524
1.90933e-05
0.00115357
2.42146e-05
0.0011511
2.9501e-05
0.00114782
3.48899e-05
0.00114371
4.02987e-05
0.00113876
4.56444e-05
0.00113301
5.0858e-05
0.00112651
5.58806e-05
0.00111935
6.06588e-05
0.0011116
6.51429e-05
0.00110335
6.9286e-05
0.00109469
7.30458e-05
0.00108573
7.63853e-05
0.00107658
7.9276e-05
0.00106733
8.16989e-05
0.00105807
8.36449e-05
0.00104887
8.51154e-05
0.00103975
8.6117e-05
0.00103075
8.66579e-05
0.0010219
8.67527e-05
0.0010132
8.6426e-05
0.00100462
8.57029e-05
0.00099615
8.45911e-05
0.000987776
8.30861e-05
0.000979494
8.12094e-05
0.000971306
7.89896e-05
0.000963209
7.64575e-05
0.0009552
7.36451e-05
0.00094728
7.05859e-05
0.000939456
6.73138e-05
0.000931744
6.38634e-05
0.000924168
6.02702e-05
0.000916761
5.65711e-05
0.000909565
5.2805e-05
0.000902628
4.90117e-05
0.000896009
4.52305e-05
0.000889769
4.14992e-05
0.000883975
3.78514e-05
0.000878697
3.43187e-05
0.000874004
3.09293e-05
0.000869966
2.77071e-05
0.000866639
2.46739e-05
0.000864076
2.18437e-05
0.00086233
1.92272e-05
0.000861427
1.68363e-05
0.00086134
1.46909e-05
0.000862066
1.28096e-05
0.000863609
1.11914e-05
0.000865941
9.83683e-06
0.000869022
8.74858e-06
0.000872799
7.92921e-06
0.000877217
7.37832e-06
0.000882217
7.09834e-06
0.000887728
7.08487e-06
0.000893685
7.33204e-06
0.000900018
7.84359e-06
0.000906639
8.61363e-06
0.00091349
9.62372e-06
0.000920598
1.0842e-05
0.000927895
1.22439e-05
0.000935304
1.38133e-05
0.000942747
1.55441e-05
0.000950148
1.74143e-05
0.000957434
1.93987e-05
0.000964538
2.14657e-05
0.000971399
2.35796e-05
0.000977959
2.56999e-05
0.00098415
2.77826e-05
0.000989871
2.97918e-05
0.000994973
3.16965e-05
0.000999352
3.34663e-05
0.00100296
3.50695e-05
0.00100573
3.64717e-05
0.00100761
3.76414e-05
0.00100856
3.85509e-05
0.00100855
3.91762e-05
0.00100755
3.94996e-05
0.00100555
3.95091e-05
0.00100255
3.91981e-05
0.000998555
3.85671e-05
0.000993604
3.76256e-05
0.000987736
3.6391e-05
0.000981006
3.48856e-05
0.000973482
3.31356e-05
0.000965244
3.11719e-05
0.000956387
2.90299e-05
0.000947017
2.67485e-05
0.000937239
2.43674e-05
2.19262e-05
0.00124335
1.3019e-05
0.00124326
1.91801e-05
0.00124203
2.54406e-05
0.0012397
3.18351e-05
0.00123621
3.83762e-05
0.00123149
4.50211e-05
0.00122544
5.16929e-05
0.001218
5.82963e-05
0.00120915
6.47343e-05
0.00119889
7.09161e-05
0.00118728
7.67586e-05
0.00117438
8.21842e-05
0.00116031
8.71183e-05
0.0011452
9.14907e-05
0.00112924
9.52372e-05
0.00111263
9.83063e-05
0.0010956
0.000100674
0.00107837
0.000102352
0.00106113
0.000103352
0.00104409
0.000103695
0.00102743
0.000103414
0.00101131
0.000102548
0.000995875
0.000101139
0.000981223
9.92424e-05
0.000967393
9.6916e-05
0.000954392
9.42113e-05
0.000942204
9.11776e-05
0.000930802
8.7859e-05
0.000920153
8.42941e-05
0.000910222
8.05175e-05
0.000900976
7.65598e-05
0.00089239
7.24491e-05
0.000884448
6.82126e-05
0.000877141
6.38777e-05
0.000870473
5.94725e-05
0.000864459
5.50257e-05
0.000859123
5.05665e-05
0.000854498
4.61244e-05
0.000850621
4.17285e-05
0.000847531
3.74087e-05
0.000845267
3.31936e-05
0.000843862
2.91121e-05
0.000843343
2.51925e-05
0.000843724
2.14628e-05
0.000844999
1.79519e-05
0.000847149
1.46866e-05
0.000850143
1.16968e-05
0.000853951
9.00164e-06
0.000858536
6.60652e-06
0.000863855
4.51794e-06
0.00086984
2.76315e-06
0.000876418
1.35168e-06
0.000883518
2.78057e-07
0.000891059
-4.42225e-07
0.000898967
-8.2354e-07
0.000907191
-8.9188e-07
0.00091568
-6.45792e-07
0.000924389
-9.51487e-08
0.000933297
7.15534e-07
0.000942343
1.79681e-06
0.000951462
3.12405e-06
0.000960601
4.67477e-06
0.000969721
6.42442e-06
0.000978786
8.34843e-06
0.00098776
1.0425e-05
0.000996599
1.2627e-05
0.00100526
1.4922e-05
0.00101368
1.72801e-05
0.00102179
1.96708e-05
0.00102952
2.20636e-05
0.00103679
2.44215e-05
0.00104355
2.67063e-05
0.00104974
2.88847e-05
0.00105528
3.09264e-05
0.00106012
3.28024e-05
0.00106419
3.44847e-05
0.00106742
3.59469e-05
0.00106975
3.71659e-05
0.00107114
3.81218e-05
0.00107154
3.87988e-05
0.00107092
3.91863e-05
0.00106926
3.928e-05
0.00106657
3.90813e-05
0.00106286
3.85962e-05
0.00105816
3.78361e-05
0.00105252
3.68176e-05
0.00104598
3.5562e-05
0.00103864
3.40942e-05
0.00103056
3.24424e-05
3.06385e-05
0.00123673
7.81725e-06
0.0012417
1.42155e-05
0.00124611
2.10335e-05
0.00124974
2.8202e-05
0.00125246
3.56517e-05
0.00125416
4.33293e-05
0.00125467
5.11781e-05
0.00125384
5.91214e-05
0.00125152
6.70615e-05
0.00124754
7.48887e-05
0.00124182
8.24876e-05
0.00123426
8.97422e-05
0.00122484
9.6538e-05
0.00121356
0.000102766
0.00120048
0.000108324
0.00118566
0.000113122
0.00116924
0.000117091
0.00115142
0.000120176
0.00113243
0.000122339
0.00111257
0.00012356
0.00109213
0.000123851
0.00107142
0.000123258
0.00105072
0.000121841
0.0010303
0.000119664
0.00101043
0.000116788
0.000991343
0.000113295
0.000973249
0.000109272
0.000956301
0.000104807
0.000940613
9.99824e-05
0.000926257
9.48734e-05
0.00091327
8.9547e-05
0.000901658
8.40608e-05
0.000891408
7.84631e-05
0.000882491
7.27941e-05
0.000874877
6.70872e-05
0.000868531
6.13713e-05
0.000863424
5.56731e-05
0.00085953
5.00191e-05
0.000856821
4.44369e-05
0.000855273
3.89575e-05
0.000854852
3.36137e-05
0.000855524
2.84409e-05
0.000857239
2.34776e-05
0.000859941
1.87601e-05
0.000863567
1.4326e-05
0.000868039
1.02153e-05
0.000873278
6.4572e-06
0.000879191
3.08915e-06
0.000885641
1.56521e-07
0.000892644
-2.48509e-06
0.000900082
-4.67525e-06
0.000907887
-6.45281e-06
0.000915989
-7.82436e-06
0.000924354
-8.80714e-06
0.000932957
-9.42635e-06
0.000941765
-9.70022e-06
0.000950764
-9.64433e-06
0.000959944
-9.2751e-06
0.000969271
-8.61146e-06
0.000978736
-7.66899e-06
0.000988326
-6.46576e-06
0.000998023
-5.02193e-06
0.00100781
-3.3584e-06
0.00101765
-1.49822e-06
0.00102745
6.24021e-07
0.00103713
2.95507e-06
0.00104663
5.42143e-06
0.00105589
8.01791e-06
0.00106484
1.07215e-05
0.00107339
1.35089e-05
0.00108147
1.63451e-05
0.00108898
1.91972e-05
0.00109583
2.20313e-05
0.00110195
2.48119e-05
0.00110724
2.75037e-05
0.00111166
3.0071e-05
0.00111513
3.24793e-05
0.00111759
3.46973e-05
0.00111902
3.66963e-05
0.00111937
3.84494e-05
0.00111862
3.9932e-05
0.00111678
4.11243e-05
0.00111385
4.20129e-05
0.00110985
4.25895e-05
0.00110484
4.2852e-05
0.00109885
4.28036e-05
0.00109196
4.2454e-05
0.00108424
4.18183e-05
0.00107576
4.09176e-05
3.97778e-05
0.00107757
-3.10909e-06
0.00108907
2.7207e-06
0.00110066
9.44174e-06
0.0011121
1.67583e-05
0.00112323
2.4528e-05
0.00113384
3.27129e-05
0.00114377
4.12463e-05
0.00115284
5.0058e-05
0.00116083
5.90679e-05
0.00116755
6.81739e-05
0.00117278
7.7252e-05
0.00117636
8.61656e-05
0.00117812
9.47733e-05
0.00117795
0.000102935
0.00117576
0.000110517
0.00117149
0.000117391
0.00116514
0.000123439
0.00115676
0.000128557
0.00114645
0.000132656
0.00113434
0.000135664
0.00112066
0.000137528
0.00110569
0.000138228
0.00108973
0.000137801
0.00107306
0.000136335
0.00105594
0.000133909
0.00103864
0.000130594
0.00102144
0.000126478
0.00100458
0.000121658
0.00098833
0.000116237
0.000972887
0.000110316
0.000958445
0.000103989
0.000945163
9.73425e-05
0.00093317
9.04562e-05
0.000922562
8.34027e-05
0.0009134
7.62486e-05
0.000905716
6.90558e-05
0.000899503
6.18856e-05
0.000894725
5.47974e-05
0.00089131
4.78513e-05
0.000889163
4.11048e-05
0.000888167
3.46103e-05
0.000888191
2.84164e-05
0.000889104
2.25643e-05
0.000890775
1.70898e-05
0.000893071
1.20294e-05
0.000895875
7.4114e-06
0.000899076
3.25622e-06
0.000902609
-4.43943e-07
0.000906564
-3.79871e-06
0.000910729
-6.64999e-06
0.000915118
-9.06377e-06
0.000919717
-1.10517e-05
0.000924545
-1.26532e-05
0.000929651
-1.39126e-05
0.000935085
-1.486e-05
0.000940904
-1.55196e-05
0.000947174
-1.59144e-05
0.00095396
-1.60607e-05
0.000961315
-1.59665e-05
0.000969278
-1.56323e-05
0.000977868
-1.5056e-05
0.000987077
-1.42306e-05
0.000996874
-1.31554e-05
0.0010072
-1.18264e-05
0.00101807
-1.02406e-05
0.00102942
-8.39912e-06
0.00104115
-6.30753e-06
0.00105314
-3.96913e-06
0.00106527
-1.40832e-06
0.0010773
1.47153e-06
0.00108911
4.54074e-06
0.00110053
7.77098e-06
0.00111143
1.11372e-05
0.00112164
1.46041e-05
0.00113101
1.81311e-05
0.00113941
2.16724e-05
0.00114671
2.51802e-05
0.0011528
2.86073e-05
0.00115759
3.19073e-05
0.001161
3.50351e-05
0.00116299
3.79446e-05
0.00116352
4.05942e-05
0.00116258
4.29479e-05
0.0011602
4.49756e-05
0.00115639
4.66538e-05
0.00115123
4.79668e-05
0.00114478
4.89066e-05
0.00113712
4.94725e-05
0.00112837
4.96702e-05
4.95119e-05
0.000834522
-1.8835e-05
0.000850614
-1.33715e-05
0.000867123
-7.06655e-06
0.000883911
-3.03306e-08
0.000900822
7.61753e-06
0.000917699
1.58355e-05
0.000934373
2.45726e-05
0.00095067
3.37607e-05
0.000966417
4.33206e-05
0.000981435
5.3156e-05
0.000995538
6.31497e-05
0.00100854
7.31667e-05
0.00102025
8.30621e-05
0.0010305
9.26865e-05
0.00103912
0.00010189
0.00104599
0.000110524
0.00105099
0.00011844
0.00105404
0.0001255
0.00105512
0.000131576
0.00105423
0.000136555
0.00105141
0.000140351
0.00104673
0.00014291
0.00104032
0.000144211
0.0010324
0.000144254
0.00102323
0.000143079
0.00101308
0.00014075
0.00100222
0.000137337
0.000990942
0.000132932
0.000979535
0.000127644
0.000968254
0.000121597
0.00095732
0.000114923
0.00094691
0.000107753
0.000937146
0.00010022
0.0009281
9.24493e-05
0.000919788
8.45606e-05
0.000912189
7.66542e-05
0.000905262
6.88128e-05
0.000898956
6.11031e-05
0.000893227
5.35809e-05
0.00088803
4.63012e-05
0.000883318
3.93231e-05
0.000879029
3.2705e-05
0.000875082
2.65112e-05
0.000871364
2.08082e-05
0.000867748
1.56447e-05
0.000864106
1.10541e-05
0.00086032
7.04174e-06
0.000856299
3.57676e-06
0.000851865
6.3577e-07
0.000847341
-2.12643e-06
0.000842857
-4.57947e-06
0.000838648
-6.8424e-06
0.000834977
-8.98268e-06
0.000832081
-1.10167e-05
0.000830183
-1.29616e-05
0.000829488
-1.48248e-05
0.000830173
-1.65995e-05
0.000832375
-1.82624e-05
0.000836188
-1.97797e-05
0.000841667
-2.11114e-05
0.000848825
-2.22138e-05
0.000857637
-2.30427e-05
0.000868039
-2.3557e-05
0.000879932
-2.37198e-05
0.000893191
-2.34997e-05
0.000907667
-2.28744e-05
0.000923188
-2.1829e-05
0.000939572
-2.03533e-05
0.000956611
-1.84467e-05
0.000974188
-1.61057e-05
0.000992086
-1.33574e-05
0.00101008
-1.02212e-05
0.00102797
-6.75141e-06
0.00104553
-2.96281e-06
0.00106255
1.11695e-06
0.0010788
5.41732e-06
0.00109412
9.86777e-06
0.00110831
1.44145e-05
0.00112122
1.89944e-05
0.00113271
2.35457e-05
0.00114266
2.79956e-05
0.00115097
3.22832e-05
0.00115757
3.63516e-05
0.00116239
4.01479e-05
0.00116543
4.36206e-05
0.00116667
4.67254e-05
0.00116615
4.94272e-05
0.00116392
5.16988e-05
0.00116007
5.35222e-05
5.48886e-05
0.000584437
-3.61808e-05
0.00060218
-3.11143e-05
0.00062032
-2.52063e-05
0.00063881
-1.85204e-05
0.000657564
-1.11368e-05
0.000676525
-3.1256e-06
0.000695493
5.60462e-06
0.000714402
1.48515e-05
0.000733163
2.45595e-05
0.000751668
3.46514e-05
0.000769789
4.5029e-05
0.000787387
5.55679e-05
0.00080432
6.61298e-05
0.000820436
7.65702e-05
0.000835587
8.67395e-05
0.000849626
9.64851e-05
0.000862413
0.000105653
0.000873823
0.000114091
0.000883744
0.000121655
0.000892086
0.000128212
0.000898789
0.000133648
0.000903832
0.000137867
0.000907235
0.000140808
0.000909042
0.000142446
0.000909317
0.000142804
0.000908126
0.00014194
0.000905545
0.000139918
0.000901662
0.000136815
0.000896578
0.000132728
0.00089041
0.000127766
0.000883289
0.000122044
0.000875361
0.000115681
0.000866788
0.000108792
0.00085775
0.000101488
0.000848434
9.38763e-05
0.000839017
8.60714e-05
0.000829618
7.82117e-05
0.000820257
7.0464e-05
0.00081083
6.30078e-05
0.000801119
5.60122e-05
0.000790831
4.96107e-05
0.000779666
4.38706e-05
0.000767384
3.87929e-05
0.000753871
3.43209e-05
0.000739174
3.03417e-05
0.0007235
2.67285e-05
0.000707187
2.33548e-05
0.000690699
2.00646e-05
0.000674607
1.67282e-05
0.000659204
1.32763e-05
0.000644977
9.64706e-06
0.000632336
5.79882e-06
0.000621588
1.76558e-06
0.000613195
-2.62414e-06
0.000607323
-7.08953e-06
0.000604046
-1.15475e-05
0.000603387
-1.59408e-05
0.00060532
-2.01951e-05
0.000609776
-2.42357e-05
0.000616656
-2.79912e-05
0.000625839
-3.13967e-05
0.00063719
-3.43941e-05
0.000650566
-3.69331e-05
0.000665817
-3.89702e-05
0.000682786
-4.0469e-05
0.000701312
-4.14007e-05
0.000721227
-4.17435e-05
0.000742355
-4.14821e-05
0.000764516
-4.06076e-05
0.000787529
-3.91187e-05
0.000811197
-3.70248e-05
0.000835318
-3.43427e-05
0.000859664
-3.10971e-05
0.000884026
-2.73244e-05
0.000908213
-2.30701e-05
0.000932023
-1.83929e-05
0.00095525
-1.33595e-05
0.000977702
-8.03788e-06
0.000999206
-2.50924e-06
0.00101949
3.26439e-06
0.00103842
9.06176e-06
0.00105587
1.48369e-05
0.00107171
2.0514e-05
0.00108583
2.60249e-05
0.00109816
3.1286e-05
0.00110865
3.62349e-05
0.00111726
4.08162e-05
0.00112399
4.49776e-05
0.00112883
4.86745e-05
5.18737e-05
0.000341568
-5.36903e-05
0.000359451
-4.89979e-05
0.000377617
-4.33719e-05
0.000396022
-3.69256e-05
0.000414614
-2.97293e-05
0.000433321
-2.18325e-05
0.00045218
-1.32539e-05
0.000471086
-4.05476e-06
0.000490061
5.5843e-06
0.000509001
1.57116e-05
0.000527817
2.6213e-05
0.00054643
3.69556e-05
0.000564744
4.78149e-05
0.000582656
5.86582e-05
0.00060005
6.93462e-05
0.000616797
7.97376e-05
0.000632761
8.96895e-05
0.000647795
9.90565e-05
0.000661756
0.000107694
0.0006745
0.000115468
0.000685893
0.000122256
0.000695805
0.000127955
0.000704127
0.000132486
0.000710784
0.00013579
0.00071575
0.000137838
0.000719068
0.000138622
0.000720826
0.000138161
0.000721142
0.000136499
0.000720164
0.000133706
0.000718056
0.000129874
0.000714981
0.000125118
0.000711081
0.000119582
0.000706418
0.000113455
0.000700894
0.000107013
0.000694194
0.000100576
0.000685897
9.4369e-05
0.000675539
8.85696e-05
0.000662695
8.33078e-05
0.000647061
7.86421e-05
0.000628522
7.45506e-05
0.000607198
7.0935e-05
0.000583432
6.76364e-05
0.000557786
6.4439e-05
0.000531032
6.10752e-05
0.000504084
5.72895e-05
0.000477853
5.29601e-05
0.000453167
4.80408e-05
0.000430702
4.25295e-05
0.000410973
3.64567e-05
0.000394352
2.9897e-05
0.000381049
2.29502e-05
0.000371109
1.57389e-05
0.00036452
8.35461e-06
0.000360973
9.22485e-07
0.000360174
-6.28979e-06
0.000362052
-1.3426e-05
0.000366434
-2.03224e-05
0.000373139
-2.69003e-05
0.000381996
-3.30925e-05
0.000392846
-3.88414e-05
0.000405548
-4.40984e-05
0.000419975
-4.88215e-05
0.000436018
-5.29757e-05
0.000453578
-5.65304e-05
0.000472568
-5.94587e-05
0.000492903
-6.1736e-05
0.000514501
-6.33419e-05
0.000537278
-6.42589e-05
0.000561141
-6.44708e-05
0.000585992
-6.39692e-05
0.000611712
-6.27446e-05
0.00063817
-6.08006e-05
0.000665222
-5.81492e-05
0.000692698
-5.4801e-05
0.000720425
-5.07966e-05
0.000748215
-4.61829e-05
0.000775857
-4.10017e-05
0.00080315
-3.53309e-05
0.000829895
-2.92537e-05
0.00085599
-2.28312e-05
0.000881213
-1.61613e-05
0.000905406
-9.35603e-06
0.000928432
-2.51217e-06
0.000950018
4.43876e-06
0.00097011
1.11943e-05
0.000988616
1.77291e-05
0.00100546
2.39701e-05
0.0010206
2.98422e-05
0.00103399
3.52848e-05
4.02496e-05
9.10744e-05
-7.09798e-05
0.000108952
-6.68756e-05
0.000127491
-6.19113e-05
0.000146515
-5.59494e-05
0.000165889
-4.91025e-05
0.000185465
-4.14088e-05
0.000205158
-3.29466e-05
0.000224895
-2.37925e-05
0.000244537
-1.40572e-05
0.000264119
-3.87057e-06
0.000283336
6.99605e-06
0.000302245
1.80461e-05
0.000320839
2.92207e-05
0.000339098
4.03994e-05
0.000356991
5.14532e-05
0.000374475
6.22541e-05
0.000391495
7.26688e-05
0.000407991
8.25606e-05
0.000423892
9.1794e-05
0.000439118
0.000100241
0.000453587
0.000107787
0.000467209
0.000114332
0.000479897
0.000119798
0.000491554
0.000124133
0.000502076
0.000127316
0.000511333
0.000129366
0.000519155
0.000130338
0.000525318
0.000130336
0.000529522
0.000129502
0.000531377
0.000128019
0.000530412
0.000126083
0.000526098
0.000123895
0.000517934
0.000121619
0.000505572
0.000119374
0.00048893
0.000117218
0.000468167
0.000115132
0.000443706
0.000113031
0.000416243
0.000110771
0.000386714
0.000108171
0.000356217
0.000105048
0.000325906
0.000101245
0.0002969
9.66425e-05
0.000270157
9.11826e-05
0.000246372
8.48598e-05
0.000225953
7.77084e-05
0.00020911
6.98031e-05
0.000195902
6.12486e-05
0.000186265
5.21665e-05
0.000180036
4.26859e-05
0.000176993
3.29398e-05
0.000176882
2.30616e-05
0.000179458
1.31629e-05
0.000184546
3.26622e-06
0.000191278
-5.80931e-06
0.000199587
-1.45988e-05
0.000209234
-2.30731e-05
0.000220032
-3.11201e-05
0.000231807
-3.86749e-05
0.000244411
-4.56966e-05
0.000257729
-5.21602e-05
0.000271684
-5.80528e-05
0.000286231
-6.33692e-05
0.000301365
-6.81094e-05
0.00031711
-7.2275e-05
0.000333517
-7.58659e-05
0.000350659
-7.8878e-05
0.000368618
-8.13009e-05
0.000387477
-8.31174e-05
0.000407309
-8.43029e-05
0.000428167
-8.48276e-05
0.000450079
-8.46569e-05
0.000473038
-8.37591e-05
0.000496999
-8.21102e-05
0.000521895
-7.96974e-05
0.000547615
-7.65161e-05
0.000574019
-7.25873e-05
0.000600968
-6.79508e-05
0.000628276
-6.26385e-05
0.00065575
-5.67276e-05
0.000683192
-5.02738e-05
0.000710409
-4.33777e-05
0.000737178
-3.61253e-05
0.000763303
-2.86368e-05
0.000788722
-2.09805e-05
0.000813233
-1.33172e-05
0.000836672
-5.70901e-06
0.000858848
1.79348e-06
0.000879672
9.01786e-06
0.000899074
1.58828e-05
2.23292e-05
-0.000156988
-8.69684e-05
-0.000139642
-8.42215e-05
-0.000121235
-8.03183e-05
-0.000101941
-7.52434e-05
-8.19499e-05
-6.90938e-05
-6.14422e-05
-6.19164e-05
-4.05962e-05
-5.37926e-05
-1.95355e-05
-4.48532e-05
1.6147e-06
-3.52074e-05
2.27113e-05
-2.49672e-05
4.39527e-05
-1.42453e-05
6.52665e-05
-3.26765e-06
8.61419e-05
8.34527e-06
0.000106581
1.99601e-05
0.000126604
3.14306e-05
0.000146161
4.2697e-05
0.000165165
5.36647e-05
0.000183501
6.42248e-05
0.000201026
7.42693e-05
0.000217568
8.36987e-05
0.000232925
9.24303e-05
0.000246855
0.000100402
0.000259078
0.000107575
0.000269276
0.000113934
0.000277104
0.000119488
0.000282202
0.000124268
0.000284218
0.000128322
0.000282849
0.000131706
0.000277879
0.000134472
0.000269232
0.000136665
0.000257011
0.000138305
0.000241524
0.000139382
0.000223287
0.000139856
0.000203009
0.000139652
0.000181545
0.000138682
0.000159829
0.000136848
0.0001388
0.00013406
0.000119325
0.000130245
0.00010214
0.000125356
8.78078e-05
0.000119381
7.66957e-05
0.000112357
6.90132e-05
0.000104325
6.48138e-05
9.53821e-05
6.4027e-05
8.56466e-05
6.64819e-05
7.52535e-05
7.1932e-05
6.4353e-05
8.00774e-05
5.31032e-05
9.05784e-05
4.16655e-05
0.000103077
3.01876e-05
0.000117235
1.87819e-05
0.000132736
7.56063e-06
0.000148913
-3.01501e-06
0.000165129
-1.29498e-05
0.000181763
-2.24431e-05
0.000198482
-3.13176e-05
0.000214929
-3.95204e-05
0.000230831
-4.70214e-05
0.000245968
-5.38124e-05
0.000260176
-5.99049e-05
0.000273344