/*--------------------------------*- C++ -*----------------------------------*\
| =========                 |                                                 |
| \\      /  F ield         | OpenFOAM: The Open Source CFD Toolbox           |
|  \\    /   O peration     | Version:  2312                                  |
|   \\  /    A nd           | Website:  www.openfoam.com                      |
|    \\/     M anipulation  |                                                 |
\*---------------------------------------------------------------------------*/
FoamFile
{
    version     2.0;
    format      ascii;
    arch        "LSB;label=32;scalar=64";
    class       volVectorField;
    location    "62000";
    object      U;
}
// * * * * * * * * * * * * * * * * * * * * * * * * * * * * * * * * * * * * * //

dimensions      [0 1 -1 0 0 0 0];

internalField   nonuniform List<vector> 
10800
(
(0.000992484 4.94182e-06 0)
(0.000990038 1.24575e-05 0)
(0.000986873 1.74787e-05 0)
(0.000980501 2.06623e-05 0)
(0.000971089 2.27452e-05 0)
(0.0009598 2.42386e-05 0)
(0.0009477 2.53775e-05 0)
(0.000935325 2.62366e-05 0)
(0.000922817 2.68401e-05 0)
(0.000910154 2.72133e-05 0)
(0.000897292 2.73937e-05 0)
(0.000884226 2.74243e-05 0)
(0.000870993 2.73431e-05 0)
(0.000857648 2.7178e-05 0)
(0.000844244 2.69474e-05 0)
(0.000830817 2.66629e-05 0)
(0.000817393 2.63324e-05 0)
(0.000803992 2.59625e-05 0)
(0.000790629 2.55587e-05 0)
(0.000777318 2.5126e-05 0)
(0.000764074 2.46679e-05 0)
(0.000750914 2.41878e-05 0)
(0.00073785 2.36875e-05 0)
(0.000724898 2.3169e-05 0)
(0.00071207 2.26333e-05 0)
(0.000699378 2.20817e-05 0)
(0.000686837 2.15144e-05 0)
(0.000674457 2.09329e-05 0)
(0.000662252 2.03366e-05 0)
(0.000650234 1.97273e-05 0)
(0.000638416 1.91036e-05 0)
(0.000626809 1.8468e-05 0)
(0.000615428 1.78179e-05 0)
(0.000604283 1.71575e-05 0)
(0.000593389 1.64822e-05 0)
(0.000582755 1.57988e-05 0)
(0.0005724 1.50995e-05 0)
(0.000562326 1.43954e-05 0)
(0.00055256 1.36735e-05 0)
(0.000543095 1.2952e-05 0)
(0.000533969 1.2209e-05 0)
(0.000525157 1.14745e-05 0)
(0.000516726 1.0711e-05 0)
(0.000508605 9.96937e-06 0)
(0.000500931 9.18487e-06 0)
(0.000493523 8.44312e-06 0)
(0.000486691 7.63357e-06 0)
(0.000479976 6.89868e-06 0)
(0.000474146 6.05525e-06 0)
(0.000467982 5.32574e-06 0)
(0.000463533 4.4398e-06 0)
(0.000457413 3.66855e-06 0)
(0.000455403 2.77846e-06 0)
(0.000447688 1.71673e-06 0)
(0.000451251 1.14898e-06 0)
(0.000436864 -1.26764e-06 0)
(0.000455297 1.10455e-07 0)
(0.000419323 -7.73114e-06 0)
(0.000477695 2.03281e-06 0)
(0.000382956 -2.44892e-05 0)
(0.00100003 5.80197e-06 0)
(0.00100172 1.49919e-05 0)
(0.00100423 2.15219e-05 0)
(0.00100706 2.60842e-05 0)
(0.00100979 2.94416e-05 0)
(0.00101219 3.21222e-05 0)
(0.00101421 3.43737e-05 0)
(0.00101589 3.62825e-05 0)
(0.00101726 3.78813e-05 0)
(0.00101837 3.92007e-05 0)
(0.00101923 4.0282e-05 0)
(0.00101982 4.1171e-05 0)
(0.00102014 4.19083e-05 0)
(0.0010202 4.2524e-05 0)
(0.00102001 4.30381e-05 0)
(0.00101958 4.34632e-05 0)
(0.00101892 4.3808e-05 0)
(0.00101806 4.40791e-05 0)
(0.00101699 4.42823e-05 0)
(0.00101573 4.44222e-05 0)
(0.00101429 4.45024e-05 0)
(0.00101268 4.45255e-05 0)
(0.00101091 4.44938e-05 0)
(0.00100898 4.4408e-05 0)
(0.00100692 4.42695e-05 0)
(0.00100471 4.40781e-05 0)
(0.00100239 4.38349e-05 0)
(0.00099994 4.35385e-05 0)
(0.000997412 4.31909e-05 0)
(0.000994748 4.27889e-05 0)
(0.000992048 4.23361e-05 0)
(0.000989205 4.18268e-05 0)
(0.000986381 4.12679e-05 0)
(0.000983387 4.06489e-05 0)
(0.000980491 3.99834e-05 0)
(0.000977368 3.92519e-05 0)
(0.000974465 3.84804e-05 0)
(0.000971223 3.76329e-05 0)
(0.000968395 3.67579e-05 0)
(0.000965026 3.57893e-05 0)
(0.000962385 3.48165e-05 0)
(0.000958842 3.37189e-05 0)
(0.000956554 3.26595e-05 0)
(0.000952726 3.14186e-05 0)
(0.000951044 3.02925e-05 0)
(0.000946708 2.88825e-05 0)
(0.000946036 2.77239e-05 0)
(0.000940768 2.60971e-05 0)
(0.000941774 2.49648e-05 0)
(0.000934802 2.30343e-05 0)
(0.000938599 2.20278e-05 0)
(0.00092854 1.96391e-05 0)
(0.000937012 1.89241e-05 0)
(0.000921418 1.58138e-05 0)
(0.000937752 1.56505e-05 0)
(0.000912327 1.14085e-05 0)
(0.000941943 1.21301e-05 0)
(0.000899228 6.28714e-06 0)
(0.000951481 7.91486e-06 0)
(0.000878977 8.66376e-07 0)
(0.000999989 1.96251e-06 0)
(0.00100078 5.76388e-06 0)
(0.00100224 9.2888e-06 0)
(0.00100423 1.24534e-05 0)
(0.00100654 1.5255e-05 0)
(0.00100897 1.77387e-05 0)
(0.00101139 1.99592e-05 0)
(0.00101376 2.19595e-05 0)
(0.00101607 2.37669e-05 0)
(0.00101833 2.53981e-05 0)
(0.00102055 2.68662e-05 0)
(0.00102272 2.81846e-05 0)
(0.00102484 2.93677e-05 0)
(0.00102689 3.04294e-05 0)
(0.00102887 3.13821e-05 0)
(0.00103079 3.22355e-05 0)
(0.00103264 3.29979e-05 0)
(0.00103442 3.36747e-05 0)
(0.00103615 3.42718e-05 0)
(0.00103781 3.47923e-05 0)
(0.00103942 3.52407e-05 0)
(0.00104097 3.56184e-05 0)
(0.00104247 3.59294e-05 0)
(0.0010439 3.61729e-05 0)
(0.00104529 3.63533e-05 0)
(0.00104662 3.64672e-05 0)
(0.00104791 3.65202e-05 0)
(0.00104913 3.65059e-05 0)
(0.00105033 3.64328e-05 0)
(0.00105144 3.62897e-05 0)
(0.00105257 3.60901e-05 0)
(0.00105357 3.58161e-05 0)
(0.00105463 3.54888e-05 0)
(0.00105552 3.50805e-05 0)
(0.00105654 3.46245e-05 0)
(0.00105731 3.40774e-05 0)
(0.0010583 3.34921e-05 0)
(0.00105894 3.28008e-05 0)
(0.00105996 3.20868e-05 0)
(0.00106043 3.12448e-05 0)
(0.00106153 3.04047e-05 0)
(0.0010618 2.94041e-05 0)
(0.00106307 2.84431e-05 0)
(0.00106305 2.7274e-05 0)
(0.00106462 2.62013e-05 0)
(0.00106418 2.48507e-05 0)
(0.00106625 2.36807e-05 0)
(0.00106519 2.21328e-05 0)
(0.00106804 2.08861e-05 0)
(0.00106603 1.9123e-05 0)
(0.0010701 1.78289e-05 0)
(0.00106663 1.58348e-05 0)
(0.00107257 1.45322e-05 0)
(0.00106685 1.2307e-05 0)
(0.00107565 1.10455e-05 0)
(0.00106643 8.64196e-06 0)
(0.0010796 7.48237e-06 0)
(0.00106502 5.10097e-06 0)
(0.00108485 4.07279e-06 0)
(0.00106214 2.2184e-06 0)
(0.00100001 1.74155e-06 0)
(0.00100047 5.15914e-06 0)
(0.00100128 8.41991e-06 0)
(0.00100239 1.14476e-05 0)
(0.00100374 1.42012e-05 0)
(0.00100526 1.6678e-05 0)
(0.00100689 1.88995e-05 0)
(0.00100858 2.08954e-05 0)
(0.00101033 2.2693e-05 0)
(0.00101212 2.4313e-05 0)
(0.00101394 2.57709e-05 0)
(0.00101578 2.70797e-05 0)
(0.00101764 2.82516e-05 0)
(0.00101951 2.92986e-05 0)
(0.00102139 3.02324e-05 0)
(0.00102327 3.1063e-05 0)
(0.00102515 3.17998e-05 0)
(0.00102703 3.24494e-05 0)
(0.0010289 3.30185e-05 0)
(0.00103077 3.3511e-05 0)
(0.00103264 3.39319e-05 0)
(0.0010345 3.42834e-05 0)
(0.00103636 3.45693e-05 0)
(0.00103821 3.47902e-05 0)
(0.00104006 3.49495e-05 0)
(0.0010419 3.50459e-05 0)
(0.00104374 3.50828e-05 0)
(0.00104557 3.50574e-05 0)
(0.0010474 3.49736e-05 0)
(0.00104921 3.48263e-05 0)
(0.00105104 3.46209e-05 0)
(0.00105283 3.43501e-05 0)
(0.00105465 3.40208e-05 0)
(0.00105642 3.36231e-05 0)
(0.00105824 3.31667e-05 0)
(0.00105997 3.26381e-05 0)
(0.00106179 3.20502e-05 0)
(0.00106349 3.13863e-05 0)
(0.00106531 3.06624e-05 0)
(0.00106697 2.98588e-05 0)
(0.00106881 2.89937e-05 0)
(0.00107041 2.80466e-05 0)
(0.00107229 2.70349e-05 0)
(0.00107381 2.59421e-05 0)
(0.00107575 2.47773e-05 0)
(0.00107718 2.35396e-05 0)
(0.00107921 2.22139e-05 0)
(0.00108051 2.08374e-05 0)
(0.0010827 1.93405e-05 0)
(0.00108383 1.78413e-05 0)
(0.00108624 1.61593e-05 0)
(0.00108713 1.4572e-05 0)
(0.00108987 1.2687e-05 0)
(0.00109042 1.10801e-05 0)
(0.00109362 8.96932e-06 0)
(0.00109369 7.46847e-06 0)
(0.00109755 5.09654e-06 0)
(0.00109692 3.90816e-06 0)
(0.00110172 1.18829e-06 0)
(0.00110004 6.0026e-07 0)
(0.001 1.15304e-06 0)
(0.00100023 3.43174e-06 0)
(0.00100067 5.64496e-06 0)
(0.00100134 7.76099e-06 0)
(0.0010022 9.75847e-06 0)
(0.00100323 1.16271e-05 0)
(0.00100441 1.33656e-05 0)
(0.00100569 1.49779e-05 0)
(0.00100705 1.64702e-05 0)
(0.00100848 1.78485e-05 0)
(0.00100996 1.91183e-05 0)
(0.00101149 2.02844e-05 0)
(0.00101305 2.13516e-05 0)
(0.00101465 2.23247e-05 0)
(0.00101627 2.32088e-05 0)
(0.00101791 2.40087e-05 0)
(0.00101956 2.47287e-05 0)
(0.00102123 2.53729e-05 0)
(0.00102291 2.59446e-05 0)
(0.00102459 2.64465e-05 0)
(0.00102629 2.68811e-05 0)
(0.00102799 2.72503e-05 0)
(0.0010297 2.75557e-05 0)
(0.00103141 2.77988e-05 0)
(0.00103313 2.798e-05 0)
(0.00103486 2.81007e-05 0)
(0.00103658 2.81604e-05 0)
(0.00103831 2.81602e-05 0)
(0.00104005 2.80987e-05 0)
(0.00104178 2.79775e-05 0)
(0.00104353 2.77934e-05 0)
(0.00104526 2.75494e-05 0)
(0.00104701 2.72398e-05 0)
(0.00104875 2.68702e-05 0)
(0.00105049 2.6431e-05 0)
(0.00105223 2.59325e-05 0)
(0.00105398 2.53581e-05 0)
(0.00105571 2.47271e-05 0)
(0.00105745 2.40111e-05 0)
(0.00105919 2.32441e-05 0)
(0.00106093 2.23786e-05 0)
(0.00106266 2.14734e-05 0)
(0.00106439 2.0449e-05 0)
(0.00106612 1.94053e-05 0)
(0.00106784 1.82102e-05 0)
(0.00106957 1.70318e-05 0)
(0.00107128 1.56514e-05 0)
(0.00107303 1.4348e-05 0)
(0.00107472 1.2763e-05 0)
(0.0010765 1.13544e-05 0)
(0.00107817 9.53704e-06 0)
(0.00108002 8.05683e-06 0)
(0.00108168 5.96449e-06 0)
(0.00108365 4.46619e-06 0)
(0.0010853 2.03251e-06 0)
(0.0010875 6.06191e-07 0)
(0.00108913 -2.26063e-06 0)
(0.00109164 -3.4618e-06 0)
(0.00109314 -6.9005e-06 0)
(0.00109596 -7.65755e-06 0)
(0.001 9.26961e-07 0)
(0.00100017 2.77217e-06 0)
(0.00100051 4.59022e-06 0)
(0.001001 6.36222e-06 0)
(0.00100165 8.07071e-06 0)
(0.00100242 9.70182e-06 0)
(0.00100331 1.12463e-05 0)
(0.0010043 1.26992e-05 0)
(0.00100537 1.40591e-05 0)
(0.00100651 1.53264e-05 0)
(0.0010077 1.65026e-05 0)
(0.00100895 1.75896e-05 0)
(0.00101025 1.85896e-05 0)
(0.00101158 1.95053e-05 0)
(0.00101295 2.03393e-05 0)
(0.00101434 2.10948e-05 0)
(0.00101576 2.17745e-05 0)
(0.0010172 2.23813e-05 0)
(0.00101866 2.29178e-05 0)
(0.00102014 2.33863e-05 0)
(0.00102163 2.37887e-05 0)
(0.00102314 2.41271e-05 0)
(0.00102465 2.44024e-05 0)
(0.00102618 2.46165e-05 0)
(0.00102771 2.47695e-05 0)
(0.00102925 2.48632e-05 0)
(0.0010308 2.48966e-05 0)
(0.00103235 2.48719e-05 0)
(0.00103391 2.47866e-05 0)
(0.00103547 2.46438e-05 0)
(0.00103703 2.44387e-05 0)
(0.0010386 2.41766e-05 0)
(0.00104016 2.38494e-05 0)
(0.00104173 2.34656e-05 0)
(0.00104329 2.30124e-05 0)
(0.00104486 2.25038e-05 0)
(0.00104642 2.19193e-05 0)
(0.00104799 2.12819e-05 0)
(0.00104954 2.05594e-05 0)
(0.00105111 1.97891e-05 0)
(0.00105265 1.89205e-05 0)
(0.00105422 1.80135e-05 0)
(0.00105574 1.69885e-05 0)
(0.00105732 1.59418e-05 0)
(0.00105882 1.47479e-05 0)
(0.00106041 1.35602e-05 0)
(0.00106189 1.21812e-05 0)
(0.00106352 1.08544e-05 0)
(0.00106498 9.26955e-06 0)
(0.00106666 7.81123e-06 0)
(0.00106808 5.99347e-06 0)
(0.00106985 4.42179e-06 0)
(0.00107121 2.33513e-06 0)
(0.0010731 6.81118e-07 0)
(0.00107438 -1.7329e-06 0)
(0.0010765 -3.43006e-06 0)
(0.00107766 -6.27415e-06 0)
(0.00108012 -7.9571e-06 0)
(0.00108104 -1.13787e-05 0)
(0.00108384 -1.29453e-05 0)
(0.001 7.32516e-07 0)
(0.00100013 2.19104e-06 0)
(0.00100037 3.63008e-06 0)
(0.00100074 5.03695e-06 0)
(0.00100121 6.40025e-06 0)
(0.0010018 7.71064e-06 0)
(0.00100248 8.96123e-06 0)
(0.00100326 1.01475e-05 0)
(0.00100411 1.12669e-05 0)
(0.00100503 1.23184e-05 0)
(0.00100601 1.33016e-05 0)
(0.00100705 1.42171e-05 0)
(0.00100813 1.50655e-05 0)
(0.00100926 1.58477e-05 0)
(0.00101043 1.65647e-05 0)
(0.00101163 1.72178e-05 0)
(0.00101286 1.78082e-05 0)
(0.00101412 1.83372e-05 0)
(0.0010154 1.8806e-05 0)
(0.0010167 1.9216e-05 0)
(0.00101802 1.95679e-05 0)
(0.00101936 1.98629e-05 0)
(0.0010207 2.01014e-05 0)
(0.00102206 2.02844e-05 0)
(0.00102343 2.04116e-05 0)
(0.00102481 2.04843e-05 0)
(0.00102619 2.05011e-05 0)
(0.00102758 2.04637e-05 0)
(0.00102898 2.03695e-05 0)
(0.00103037 2.02212e-05 0)
(0.00103177 2.00142e-05 0)
(0.00103317 1.97526e-05 0)
(0.00103456 1.94295e-05 0)
(0.00103596 1.90515e-05 0)
(0.00103734 1.86078e-05 0)
(0.00103873 1.8109e-05 0)
(0.00104011 1.75387e-05 0)
(0.00104149 1.6914e-05 0)
(0.00104285 1.62094e-05 0)
(0.00104422 1.54529e-05 0)
(0.00104556 1.46049e-05 0)
(0.00104692 1.37101e-05 0)
(0.00104824 1.27071e-05 0)
(0.00104959 1.16673e-05 0)
(0.00105087 1.0495e-05 0)
(0.00105222 9.30341e-06 0)
(0.00105347 7.9436e-06 0)
(0.00105482 6.59397e-06 0)
(0.00105603 5.02224e-06 0)
(0.0010574 3.50922e-06 0)
(0.00105857 1.69214e-06 0)
(0.00106001 1.36315e-08 0)
(0.00106115 -2.09092e-06 0)
(0.0010627 -3.92325e-06 0)
(0.00106377 -6.36525e-06 0)
(0.00106547 -8.32527e-06 0)
(0.00106644 -1.11862e-05 0)
(0.00106836 -1.32408e-05 0)
(0.0010691 -1.66541e-05 0)
(0.0010712 -1.87456e-05 0)
(0.001 5.83526e-07 0)
(0.0010001 1.7466e-06 0)
(0.00100029 2.89781e-06 0)
(0.00100057 4.02925e-06 0)
(0.00100095 5.13343e-06 0)
(0.00100142 6.20366e-06 0)
(0.00100197 7.23429e-06 0)
(0.00100259 8.22089e-06 0)
(0.00100329 9.1601e-06 0)
(0.00100405 1.00496e-05 0)
(0.00100487 1.08879e-05 0)
(0.00100575 1.16739e-05 0)
(0.00100667 1.24072e-05 0)
(0.00100764 1.30875e-05 0)
(0.00100864 1.37145e-05 0)
(0.00100968 1.42884e-05 0)
(0.00101076 1.48093e-05 0)
(0.00101186 1.52776e-05 0)
(0.00101298 1.56935e-05 0)
(0.00101413 1.60577e-05 0)
(0.00101529 1.63701e-05 0)
(0.00101648 1.66315e-05 0)
(0.00101767 1.68417e-05 0)
(0.00101888 1.70012e-05 0)
(0.0010201 1.71095e-05 0)
(0.00102133 1.71674e-05 0)
(0.00102256 1.71737e-05 0)
(0.0010238 1.71292e-05 0)
(0.00102504 1.70321e-05 0)
(0.00102628 1.68836e-05 0)
(0.00102752 1.66807e-05 0)
(0.00102876 1.64255e-05 0)
(0.00102999 1.61134e-05 0)
(0.00103122 1.57476e-05 0)
(0.00103244 1.53214e-05 0)
(0.00103366 1.48402e-05 0)
(0.00103486 1.42938e-05 0)
(0.00103606 1.3691e-05 0)
(0.00103724 1.30166e-05 0)
(0.00103842 1.22851e-05 0)
(0.00103956 1.14732e-05 0)
(0.00104072 1.06043e-05 0)
(0.00104183 9.64318e-06 0)
(0.00104296 8.62725e-06 0)
(0.00104403 7.50253e-06 0)
(0.00104513 6.32866e-06 0)
(0.00104616 5.02279e-06 0)
(0.00104724 3.67937e-06 0)
(0.00104822 2.17075e-06 0)
(0.00104929 6.45701e-07 0)
(0.00105021 -1.09336e-06 0)
(0.00105129 -2.81366e-06 0)
(0.00105214 -4.82379e-06 0)
(0.00105326 -6.75802e-06 0)
(0.00105404 -9.09567e-06 0)
(0.00105525 -1.12581e-05 0)
(0.00105591 -1.39914e-05 0)
(0.00105722 -1.63861e-05 0)
(0.00105766 -1.96089e-05 0)
(0.001059 -2.22263e-05 0)
(0.001 4.65996e-07 0)
(0.00100008 1.39542e-06 0)
(0.00100024 2.31697e-06 0)
(0.00100047 3.22526e-06 0)
(0.00100078 4.11505e-06 0)
(0.00100116 4.98143e-06 0)
(0.00100162 5.82005e-06 0)
(0.00100214 6.62718e-06 0)
(0.00100272 7.3997e-06 0)
(0.00100337 8.13511e-06 0)
(0.00100406 8.83136e-06 0)
(0.00100481 9.48685e-06 0)
(0.0010056 1.01003e-05 0)
(0.00100644 1.06709e-05 0)
(0.00100731 1.1198e-05 0)
(0.00100822 1.16811e-05 0)
(0.00100916 1.212e-05 0)
(0.00101012 1.25146e-05 0)
(0.00101111 1.28646e-05 0)
(0.00101213 1.31701e-05 0)
(0.00101316 1.34311e-05 0)
(0.00101421 1.36474e-05 0)
(0.00101527 1.38191e-05 0)
(0.00101635 1.3946e-05 0)
(0.00101743 1.40277e-05 0)
(0.00101853 1.40643e-05 0)
(0.00101962 1.4055e-05 0)
(0.00102073 1.39998e-05 0)
(0.00102183 1.38975e-05 0)
(0.00102293 1.37483e-05 0)
(0.00102403 1.35502e-05 0)
(0.00102512 1.33037e-05 0)
(0.00102621 1.3006e-05 0)
(0.00102729 1.26578e-05 0)
(0.00102835 1.22554e-05 0)
(0.00102941 1.18001e-05 0)
(0.00103045 1.12865e-05 0)
(0.00103148 1.07172e-05 0)
(0.00103248 1.00846e-05 0)
(0.00103348 9.39296e-06 0)
(0.00103444 8.63137e-06 0)
(0.00103539 7.80734e-06 0)
(0.0010363 6.90476e-06 0)
(0.00103721 5.93619e-06 0)
(0.00103806 4.87775e-06 0)
(0.00103892 3.7499e-06 0)
(0.00103971 2.51694e-06 0)
(0.00104052 1.2119e-06 0)
(0.00104123 -2.18714e-07 0)
(0.00104199 -1.72075e-06 0)
(0.00104263 -3.37483e-06 0)
(0.00104336 -5.09522e-06 0)
(0.0010439 -7.00657e-06 0)
(0.0010446 -8.97442e-06 0)
(0.00104504 -1.11912e-05 0)
(0.00104573 -1.34419e-05 0)
(0.00104602 -1.60236e-05 0)
(0.00104671 -1.85917e-05 0)
(0.00104677 -2.16087e-05 0)
(0.00104737 -2.45199e-05 0)
(0.001 3.68688e-07 0)
(0.00100007 1.10426e-06 0)
(0.0010002 1.83428e-06 0)
(0.0010004 2.55494e-06 0)
(0.00100066 3.26246e-06 0)
(0.00100098 3.95327e-06 0)
(0.00100137 4.62403e-06 0)
(0.00100181 5.27177e-06 0)
(0.00100232 5.89387e-06 0)
(0.00100287 6.48808e-06 0)
(0.00100347 7.05247e-06 0)
(0.00100412 7.58543e-06 0)
(0.00100481 8.08563e-06 0)
(0.00100554 8.55199e-06 0)
(0.0010063 8.98366e-06 0)
(0.0010071 9.37997e-06 0)
(0.00100793 9.74035e-06 0)
(0.00100879 1.00644e-05 0)
(0.00100967 1.03517e-05 0)
(0.00101057 1.06019e-05 0)
(0.00101149 1.08148e-05 0)
(0.00101242 1.099e-05 0)
(0.00101337 1.11273e-05 0)
(0.00101433 1.12263e-05 0)
(0.0010153 1.12867e-05 0)
(0.00101628 1.1308e-05 0)
(0.00101726 1.12896e-05 0)
(0.00101824 1.12311e-05 0)
(0.00101922 1.11317e-05 0)
(0.0010202 1.09907e-05 0)
(0.00102117 1.08072e-05 0)
(0.00102213 1.05801e-05 0)
(0.00102309 1.03083e-05 0)
(0.00102403 9.99058e-06 0)
(0.00102496 9.62552e-06 0)
(0.00102587 9.21137e-06 0)
(0.00102676 8.74663e-06 0)
(0.00102764 8.22891e-06 0)
(0.00102848 7.65663e-06 0)
(0.00102931 7.02653e-06 0)
(0.0010301 6.3371e-06 0)
(0.00103086 5.58379e-06 0)
(0.00103159 4.76551e-06 0)
(0.00103229 3.87575e-06 0)
(0.00103294 2.91448e-06 0)
(0.00103356 1.87209e-06 0)
(0.00103412 7.5083e-07 0)
(0.00103467 -4.63746e-07 0)
(0.00103513 -1.76488e-06 0)
(0.00103559 -3.17561e-06 0)
(0.00103594 -4.68275e-06 0)
(0.00103631 -6.32251e-06 0)
(0.00103653 -8.06809e-06 0)
(0.0010368 -9.9759e-06 0)
(0.00103687 -1.19971e-05 0)
(0.00103706 -1.42207e-05 0)
(0.00103694 -1.65613e-05 0)
(0.00103703 -1.91588e-05 0)
(0.00103663 -2.18665e-05 0)
(0.00103652 -2.49009e-05 0)
(0.001 2.85629e-07 0)
(0.00100006 8.55612e-07 0)
(0.00100017 1.42163e-06 0)
(0.00100034 1.98093e-06 0)
(0.00100057 2.53081e-06 0)
(0.00100085 3.06862e-06 0)
(0.00100119 3.59187e-06 0)
(0.00100158 4.09829e-06 0)
(0.00100202 4.5858e-06 0)
(0.0010025 5.05256e-06 0)
(0.00100303 5.49695e-06 0)
(0.0010036 5.91756e-06 0)
(0.00100421 6.31315e-06 0)
(0.00100486 6.68269e-06 0)
(0.00100554 7.02528e-06 0)
(0.00100625 7.34015e-06 0)
(0.00100699 7.62667e-06 0)
(0.00100776 7.88424e-06 0)
(0.00100855 8.11238e-06 0)
(0.00100936 8.31061e-06 0)
(0.00101019 8.47853e-06 0)
(0.00101103 8.61568e-06 0)
(0.00101188 8.72172e-06 0)
(0.00101275 8.7961e-06 0)
(0.00101362 8.8385e-06 0)
(0.0010145 8.84824e-06 0)
(0.00101538 8.82497e-06 0)
(0.00101625 8.76779e-06 0)
(0.00101713 8.67637e-06 0)
(0.001018 8.54947e-06 0)
(0.00101886 8.38678e-06 0)
(0.00101972 8.18659e-06 0)
(0.00102056 7.94876e-06 0)
(0.00102138 7.67083e-06 0)
(0.00102219 7.35302e-06 0)
(0.00102297 6.99179e-06 0)
(0.00102373 6.58803e-06 0)
(0.00102447 6.13656e-06 0)
(0.00102517 5.63956e-06 0)
(0.00102584 5.08929e-06 0)
(0.00102648 4.49015e-06 0)
(0.00102708 3.83044e-06 0)
(0.00102763 3.11838e-06 0)
(0.00102814 2.33606e-06 0)
(0.0010286 1.4981e-06 0)
(0.00102901 5.76809e-07 0)
(0.00102936 -4.02389e-07 0)
(0.00102966 -1.48255e-06 0)
(0.00102988 -2.6208e-06 0)
(0.00103006 -3.8861e-06 0)
(0.00103013 -5.20684e-06 0)
(0.00103016 -6.69183e-06 0)
(0.00103006 -8.22171e-06 0)
(0.00102995 -9.96933e-06 0)
(0.00102965 -1.17379e-05 0)
(0.00102936 -1.38034e-05 0)
(0.00102882 -1.58431e-05 0)
(0.00102834 -1.82977e-05 0)
(0.00102748 -2.06384e-05 0)
(0.0010267 -2.35671e-05 0)
(0.001 2.12779e-07 0)
(0.00100005 6.37453e-07 0)
(0.00100015 1.05934e-06 0)
(0.00100031 1.47649e-06 0)
(0.00100051 1.88698e-06 0)
(0.00100076 2.28892e-06 0)
(0.00100106 2.6805e-06 0)
(0.00100141 3.06004e-06 0)
(0.0010018 3.42599e-06 0)
(0.00100224 3.77694e-06 0)
(0.00100271 4.11162e-06 0)
(0.00100322 4.42887e-06 0)
(0.00100378 4.72769e-06 0)
(0.00100436 5.00717e-06 0)
(0.00100498 5.26652e-06 0)
(0.00100562 5.50502e-06 0)
(0.00100629 5.72206e-06 0)
(0.00100699 5.91706e-06 0)
(0.00100771 6.08954e-06 0)
(0.00100845 6.23898e-06 0)
(0.0010092 6.36502e-06 0)
(0.00100997 6.46711e-06 0)
(0.00101075 6.54496e-06 0)
(0.00101153 6.59798e-06 0)
(0.00101233 6.62589e-06 0)
(0.00101312 6.62797e-06 0)
(0.00101392 6.604e-06 0)
(0.00101471 6.55299e-06 0)
(0.0010155 6.47484e-06 0)
(0.00101629 6.36817e-06 0)
(0.00101706 6.23305e-06 0)
(0.00101782 6.06754e-06 0)
(0.00101857 5.87204e-06 0)
(0.00101929 5.64374e-06 0)
(0.00101999 5.38367e-06 0)
(0.00102067 5.08767e-06 0)
(0.00102132 4.75789e-06 0)
(0.00102194 4.3881e-06 0)
(0.00102252 3.98236e-06 0)
(0.00102307 3.53121e-06 0)
(0.00102357 3.04193e-06 0)
(0.00102403 2.50003e-06 0)
(0.00102443 1.91814e-06 0)
(0.00102478 1.27378e-06 0)
(0.00102507 5.8844e-07 0)
(0.0010253 -1.73114e-07 0)
(0.00102546 -9.74866e-07 0)
(0.00102555 -1.87239e-06 0)
(0.00102555 -2.80661e-06 0)
(0.00102548 -3.86547e-06 0)
(0.0010253 -4.95101e-06 0)
(0.00102505 -6.20309e-06 0)
(0.00102466 -7.46065e-06 0)
(0.00102419 -8.94746e-06 0)
(0.00102355 -1.03997e-05 0)
(0.00102284 -1.21765e-05 0)
(0.00102191 -1.38461e-05 0)
(0.00102092 -1.59864e-05 0)
(0.00101962 -1.78897e-05 0)
(0.00101825 -2.04856e-05 0)
(0.001 1.47136e-07 0)
(0.00100005 4.40838e-07 0)
(0.00100014 7.32695e-07 0)
(0.00100028 1.02141e-06 0)
(0.00100047 1.30568e-06 0)
(0.0010007 1.58424e-06 0)
(0.00100097 1.85585e-06 0)
(0.00100129 2.11937e-06 0)
(0.00100165 2.37373e-06 0)
(0.00100205 2.61791e-06 0)
(0.00100249 2.85102e-06 0)
(0.00100296 3.07222e-06 0)
(0.00100347 3.28075e-06 0)
(0.00100401 3.47592e-06 0)
(0.00100458 3.65714e-06 0)
(0.00100517 3.82382e-06 0)
(0.0010058 3.97549e-06 0)
(0.00100644 4.11166e-06 0)
(0.00100711 4.23195e-06 0)
(0.00100779 4.33591e-06 0)
(0.00100849 4.42324e-06 0)
(0.0010092 4.49348e-06 0)
(0.00100992 4.5464e-06 0)
(0.00101065 4.58146e-06 0)
(0.00101138 4.59849e-06 0)
(0.00101212 4.59684e-06 0)
(0.00101285 4.57639e-06 0)
(0.00101358 4.53628e-06 0)
(0.00101431 4.47651e-06 0)
(0.00101502 4.39587e-06 0)
(0.00101573 4.29458e-06 0)
(0.00101642 4.17091e-06 0)
(0.00101709 4.02542e-06 0)
(0.00101774 3.85561e-06 0)
(0.00101836 3.66267e-06 0)
(0.00101896 3.44289e-06 0)
(0.00101952 3.19853e-06 0)
(0.00102005 2.924e-06 0)
(0.00102053 2.62341e-06 0)
(0.00102098 2.28818e-06 0)
(0.00102137 1.92553e-06 0)
(0.00102172 1.52221e-06 0)
(0.001022 1.09051e-06 0)
(0.00102223 6.09792e-07 0)
(0.00102239 1.00763e-07 0)
(0.00102247 -4.69041e-07 0)
(0.00102248 -1.06519e-06 0)
(0.0010224 -1.73961e-06 0)
(0.00102222 -2.43537e-06 0)
(0.00102195 -3.23481e-06 0)
(0.00102156 -4.04398e-06 0)
(0.00102107 -4.99445e-06 0)
(0.00102044 -5.93213e-06 0)
(0.00101969 -7.06828e-06 0)
(0.00101876 -8.15049e-06 0)
(0.00101771 -9.51927e-06 0)
(0.00101645 -1.07608e-05 0)
(0.00101504 -1.24258e-05 0)
(0.00101336 -1.38341e-05 0)
(0.00101151 -1.58772e-05 0)
(0.001 8.63067e-08 0)
(0.00100005 2.58618e-07 0)
(0.00100013 4.29895e-07 0)
(0.00100026 5.99388e-07 0)
(0.00100044 7.66348e-07 0)
(0.00100065 9.30038e-07 0)
(0.00100091 1.08975e-06 0)
(0.00100121 1.2448e-06 0)
(0.00100155 1.39456e-06 0)
(0.00100193 1.53844e-06 0)
(0.00100234 1.67589e-06 0)
(0.00100279 1.8064e-06 0)
(0.00100327 1.92952e-06 0)
(0.00100378 2.04481e-06 0)
(0.00100432 2.1519e-06 0)
(0.00100488 2.25041e-06 0)
(0.00100547 2.34006e-06 0)
(0.00100608 2.42051e-06 0)
(0.00100671 2.49152e-06 0)
(0.00100736 2.5528e-06 0)
(0.00100802 2.60415e-06 0)
(0.0010087 2.64526e-06 0)
(0.00100938 2.67598e-06 0)
(0.00101007 2.69595e-06 0)
(0.00101076 2.70507e-06 0)
(0.00101146 2.7029e-06 0)
(0.00101215 2.68938e-06 0)
(0.00101284 2.66392e-06 0)
(0.00101352 2.62656e-06 0)
(0.00101419 2.57649e-06 0)
(0.00101485 2.51387e-06 0)
(0.00101549 2.43756e-06 0)
(0.00101611 2.34799e-06 0)
(0.0010167 2.24345e-06 0)
(0.00101727 2.12486e-06 0)
(0.00101781 1.98965e-06 0)
(0.00101832 1.83951e-06 0)
(0.00101878 1.67059e-06 0)
(0.0010192 1.48587e-06 0)
(0.00101958 1.27944e-06 0)
(0.0010199 1.05648e-06 0)
(0.00102017 8.07788e-07 0)
(0.00102037 5.42185e-07 0)
(0.00102051 2.45294e-07 0)
(0.00102057 -6.81373e-08 0)
(0.00102056 -4.20752e-07 0)
(0.00102045 -7.88163e-07 0)
(0.00102025 -1.20665e-06 0)
(0.00101995 -1.63586e-06 0)
(0.00101954 -2.13346e-06 0)
(0.00101901 -2.63298e-06 0)
(0.00101835 -3.22677e-06 0)
(0.00101754 -3.80581e-06 0)
(0.00101659 -4.51877e-06 0)
(0.00101546 -5.18688e-06 0)
(0.00101416 -6.05043e-06 0)
(0.00101266 -6.8159e-06 0)
(0.00101095 -7.8731e-06 0)
(0.00100899 -8.73848e-06 0)
(0.0010068 -1.00459e-05 0)
(0.001 2.82475e-08 0)
(0.00100004 8.46855e-08 0)
(0.00100013 1.40827e-07 0)
(0.00100026 1.96427e-07 0)
(0.00100042 2.5124e-07 0)
(0.00100064 3.05024e-07 0)
(0.00100089 3.57546e-07 0)
(0.00100118 4.08581e-07 0)
(0.00100151 4.5792e-07 0)
(0.00100187 5.05365e-07 0)
(0.00100227 5.50733e-07 0)
(0.00100271 5.93853e-07 0)
(0.00100317 6.34571e-07 0)
(0.00100367 6.72739e-07 0)
(0.00100419 7.08228e-07 0)
(0.00100474 7.40912e-07 0)
(0.00100531 7.70685e-07 0)
(0.00100591 7.97435e-07 0)
(0.00100652 8.21077e-07 0)
(0.00100715 8.41505e-07 0)
(0.00100779 8.58649e-07 0)
(0.00100845 8.72401e-07 0)
(0.00100911 8.82706e-07 0)
(0.00100978 8.89441e-07 0)
(0.00101046 8.92564e-07 0)
(0.00101113 8.91923e-07 0)
(0.0010118 8.87495e-07 0)
(0.00101247 8.79077e-07 0)
(0.00101313 8.66679e-07 0)
(0.00101378 8.50015e-07 0)
(0.00101441 8.29154e-07 0)
(0.00101502 8.03682e-07 0)
(0.00101562 7.73766e-07 0)
(0.00101619 7.38798e-07 0)
(0.00101673 6.99114e-07 0)
(0.00101724 6.53802e-07 0)
(0.00101771 6.03486e-07 0)
(0.00101815 5.46781e-07 0)
(0.00101854 4.84791e-07 0)
(0.00101888 4.15392e-07 0)
(0.00101916 3.40486e-07 0)
(0.00101939 2.56778e-07 0)
(0.00101955 1.67491e-07 0)
(0.00101964 6.74528e-08 0)
(0.00101966 -3.79638e-08 0)
(0.00101959 -1.56991e-07 0)
(0.00101943 -2.80849e-07 0)
(0.00101917 -4.22472e-07 0)
(0.0010188 -5.67326e-07 0)
(0.00101832 -7.36039e-07 0)
(0.00101771 -9.04727e-07 0)
(0.00101696 -1.10648e-06 0)
(0.00101607 -1.30212e-06 0)
(0.00101501 -1.54496e-06 0)
(0.00101378 -1.77072e-06 0)
(0.00101235 -2.0657e-06 0)
(0.00101072 -2.32423e-06 0)
(0.00100886 -2.68659e-06 -3.49717e-38)
(0.00100675 -2.97842e-06 0)
(0.00100438 -3.42832e-06 0)
(0.001 -2.89054e-08 0)
(0.00100004 -8.65357e-08 0)
(0.00100013 -1.43746e-07 0)
(0.00100026 -2.00292e-07 0)
(0.00100042 -2.55931e-07 0)
(0.00100063 -3.1042e-07 0)
(0.00100089 -3.6353e-07 0)
(0.00100118 -4.15037e-07 0)
(0.00100151 -4.64737e-07 0)
(0.00100187 -5.12433e-07 0)
(0.00100227 -5.57947e-07 0)
(0.00100271 -6.0111e-07 0)
(0.00100317 -6.41771e-07 0)
(0.00100367 -6.79785e-07 0)
(0.00100419 -7.15029e-07 0)
(0.00100474 -7.4738e-07 0)
(0.00100531 -7.76737e-07 0)
(0.00100591 -8.02994e-07 0)
(0.00100652 -8.2607e-07 0)
(0.00100715 -8.45863e-07 0)
(0.00100779 -8.6231e-07 0)
(0.00100845 -8.75305e-07 0)
(0.00100911 -8.848e-07 0)
(0.00100978 -8.90673e-07 0)
(0.00101046 -8.9289e-07 0)
(0.00101113 -8.91301e-07 0)
(0.0010118 -8.8589e-07 0)
(0.00101247 -8.76457e-07 0)
(0.00101313 -8.63017e-07 0)
(0.00101378 -8.4529e-07 0)
(0.00101441 -8.23346e-07 0)
(0.00101502 -7.96778e-07 0)
(0.00101562 -7.65757e-07 0)
(0.00101619 -7.29677e-07 0)
(0.00101673 -6.88879e-07 0)
(0.00101724 -6.42454e-07 0)
(0.00101771 -5.91029e-07 0)
(0.00101815 -5.33224e-07 0)
(0.00101854 -4.70144e-07 0)
(0.00101888 -3.9967e-07 0)
(0.00101916 -3.23706e-07 0)
(0.00101939 -2.38959e-07 0)
(0.00101955 -1.48655e-07 0)
(0.00101964 -4.76213e-08 0)
(0.00101966 5.87703e-08 0)
(0.00101959 1.78768e-07 0)
(0.00101943 3.03598e-07 0)
(0.00101917 4.46164e-07 0)
(0.0010188 5.91941e-07 0)
(0.00101832 7.61533e-07 0)
(0.00101771 9.31081e-07 0)
(0.00101696 1.13365e-06 0)
(0.00101607 1.33008e-06 0)
(0.00101501 1.57368e-06 0)
(0.00101378 1.80018e-06 0)
(0.00101235 2.09587e-06 0)
(0.00101072 2.35509e-06 0)
(0.00100886 2.7181e-06 3.49717e-38)
(0.00100675 3.01056e-06 0)
(0.00100438 3.46109e-06 0)
(0.001 -8.69581e-08 0)
(0.00100005 -2.6045e-07 0)
(0.00100013 -4.32784e-07 0)
(0.00100026 -6.03213e-07 0)
(0.00100044 -7.70989e-07 0)
(0.00100065 -9.35375e-07 0)
(0.00100091 -1.09566e-06 0)
(0.00100121 -1.25118e-06 0)
(0.00100155 -1.4013e-06 0)
(0.00100193 -1.54542e-06 0)
(0.00100234 -1.68302e-06 0)
(0.00100279 -1.81357e-06 0)
(0.00100327 -1.93662e-06 0)
(0.00100378 -2.05176e-06 0)
(0.00100432 -2.1586e-06 0)
(0.00100488 -2.25678e-06 0)
(0.00100547 -2.34601e-06 0)
(0.00100608 -2.42597e-06 0)
(0.00100671 -2.49642e-06 0)
(0.00100736 -2.55707e-06 0)
(0.00100802 -2.60773e-06 0)
(0.0010087 -2.64809e-06 0)
(0.00100938 -2.678e-06 0)
(0.00101007 -2.69712e-06 0)
(0.00101076 -2.70534e-06 0)
(0.00101146 -2.70223e-06 0)
(0.00101215 -2.68774e-06 0)
(0.00101284 -2.66128e-06 0)
(0.00101352 -2.62288e-06 0)
(0.00101419 -2.57175e-06 0)
(0.00101485 -2.50807e-06 0)
(0.00101549 -2.43067e-06 0)
(0.00101611 -2.34e-06 0)
(0.0010167 -2.23436e-06 0)
(0.00101727 -2.11466e-06 0)
(0.00101781 -1.97835e-06 0)
(0.00101832 -1.82711e-06 0)
(0.00101878 -1.65709e-06 0)
(0.0010192 -1.47129e-06 0)
(0.00101958 -1.26379e-06 0)
(0.0010199 -1.03976e-06 0)
(0.00102017 -7.90026e-07 0)
(0.00102037 -5.23386e-07 0)
(0.00102051 -2.25488e-07 0)
(0.00102057 8.89421e-08 0)
(0.00102056 4.42501e-07 0)
(0.00102045 8.10831e-07 0)
(0.00102025 1.2302e-06 0)
(0.00101995 1.6603e-06 0)
(0.00101954 2.15874e-06 0)
(0.00101901 2.65911e-06 0)
(0.00101835 3.25369e-06 0)
(0.00101754 3.83352e-06 0)
(0.00101659 4.54721e-06 0)
(0.00101546 5.21607e-06 0)
(0.00101417 6.0803e-06 0)
(0.00101266 6.84646e-06 0)
(0.00101095 7.9043e-06 0)
(0.00100899 8.77032e-06 0)
(0.0010068 1.00784e-05 0)
(0.001 -1.47772e-07 0)
(0.00100005 -4.42626e-07 0)
(0.00100014 -7.35515e-07 0)
(0.00100028 -1.02514e-06 0)
(0.00100047 -1.31021e-06 0)
(0.0010007 -1.58944e-06 0)
(0.00100097 -1.86162e-06 0)
(0.00100129 -2.1256e-06 0)
(0.00100165 -2.38029e-06 0)
(0.00100205 -2.62472e-06 0)
(0.00100249 -2.85796e-06 0)
(0.00100296 -3.07919e-06 0)
(0.00100347 -3.28766e-06 0)
(0.00100401 -3.48268e-06 0)
(0.00100458 -3.66366e-06 0)
(0.00100517 -3.83001e-06 0)
(0.00100579 -3.98127e-06 0)
(0.00100644 -4.11695e-06 0)
(0.0010071 -4.23669e-06 0)
(0.00100779 -4.34003e-06 0)
(0.00100849 -4.42668e-06 0)
(0.0010092 -4.49618e-06 0)
(0.00100992 -4.5483e-06 0)
(0.00101065 -4.58252e-06 0)
(0.00101138 -4.59867e-06 0)
(0.00101211 -4.5961e-06 0)
(0.00101285 -4.57469e-06 0)
(0.00101358 -4.53359e-06 0)
(0.00101431 -4.4728e-06 0)
(0.00101502 -4.39114e-06 0)
(0.00101573 -4.28879e-06 0)
(0.00101642 -4.16405e-06 0)
(0.00101709 -4.01748e-06 0)
(0.00101773 -3.84659e-06 0)
(0.00101836 -3.65257e-06 0)
(0.00101895 -3.4317e-06 0)
(0.00101952 -3.18627e-06 0)
(0.00102004 -2.91066e-06 0)
(0.00102053 -2.609e-06 0)
(0.00102098 -2.27273e-06 0)
(0.00102137 -1.90903e-06 0)
(0.00102172 -1.50468e-06 0)
(0.001022 -1.07198e-06 0)
(0.00102223 -5.90271e-07 0)
(0.00102239 -8.02604e-08 0)
(0.00102247 4.90471e-07 0)
(0.00102247 1.08752e-06 0)
(0.0010224 1.76281e-06 0)
(0.00102222 2.45945e-06 0)
(0.00102195 3.25972e-06 0)
(0.00102156 4.06975e-06 0)
(0.00102107 5.021e-06 0)
(0.00102044 5.95949e-06 0)
(0.00101969 7.09636e-06 0)