/*--------------------------------*- C++ -*----------------------------------*\
| =========                 |                                                 |
| \\      /  F ield         | OpenFOAM: The Open Source CFD Toolbox           |
|  \\    /   O peration     | Version:  2312                                  |
|   \\  /    A nd           | Website:  www.openfoam.com                      |
|    \\/     M anipulation  |                                                 |
\*---------------------------------------------------------------------------*/
FoamFile
{
    version     2.0;
    format      ascii;
    arch        "LSB;label=32;scalar=64";
    class       surfaceScalarField;
    location    "133000";
    object      phi;
}
// * * * * * * * * * * * * * * * * * * * * * * * * * * * * * * * * * * * * * //

dimensions      [0 3 -1 0 0 0 0];

oriented        oriented;

internalField   nonuniform List<scalar> 
21240
(
0.000664975
1.69189e-06
0.000661073
3.90141e-06
0.000655754
5.31932e-06
0.00064952
6.23436e-06
0.000642647
6.87264e-06
0.000635278
7.36884e-06
0.000627505
7.77345e-06
0.000619405
8.09952e-06
0.000611052
8.35306e-06
0.000602509
8.54305e-06
0.000593827
8.68181e-06
0.000585046
8.78163e-06
0.000576194
8.85214e-06
0.000567294
8.89966e-06
0.000558366
8.92801e-06
0.000549426
8.93964e-06
0.00054049
8.93639e-06
0.00053157
8.91982e-06
0.000522679
8.89124e-06
0.000513827
8.85173e-06
0.000505025
8.8021e-06
0.000496282
8.74293e-06
0.000487607
8.67463e-06
0.00047901
8.59749e-06
0.000470498
8.51172e-06
0.000462081
8.41744e-06
0.000453766
8.31477e-06
0.000445562
8.2037e-06
0.000437478
8.08434e-06
0.000429521
7.95654e-06
0.000421701
7.82051e-06
0.000414025
7.67588e-06
0.000406502
7.52315e-06
0.00039914
7.36155e-06
0.000391948
7.19214e-06
0.000384935
7.01341e-06
0.000378107
6.82752e-06
0.000371476
6.63152e-06
0.000365046
6.42962e-06
0.00035883
6.21616e-06
0.000352831
5.99914e-06
0.000347063
5.76781e-06
0.000341526
5.53715e-06
0.000336239
5.28696e-06
0.000331194
5.04496e-06
0.00032642
4.77361e-06
0.000321896
4.52392e-06
0.00031767
4.22625e-06
0.000313695
3.97467e-06
0.000310056
3.63929e-06
0.00030666
3.39618e-06
0.000303663
2.99671e-06
0.000300878
2.78492e-06
0.000298625
2.25363e-06
0.000296492
2.13262e-06
0.000295235
1.25673e-06
0.000293747
1.48843e-06
0.000293949
-2.01802e-07
0.000292781
1.16802e-06
-3.20241e-06
0.000295983
0.000667556
8.02335e-07
0.000669122
2.33606e-06
0.000670856
3.58451e-06
0.000672529
4.56152e-06
0.00067406
5.3415e-06
0.000675436
5.99323e-06
0.000676651
6.55834e-06
0.000677695
7.05525e-06
0.000678557
7.49099e-06
0.00067923
7.87003e-06
0.000679714
8.19797e-06
0.000680014
8.48175e-06
0.000680138
8.72838e-06
0.000680094
8.94372e-06
0.00067989
9.13209e-06
0.000679533
9.29641e-06
0.000679031
9.43883e-06
0.000678389
9.56091e-06
0.000677617
9.6641e-06
0.000676719
9.74946e-06
0.000675703
9.81809e-06
0.000674575
9.87053e-06
0.000673342
9.90761e-06
0.00067201
9.92937e-06
0.000670586
9.93653e-06
0.000669074
9.92869e-06
0.000667482
9.90671e-06
0.000665817
9.86963e-06
0.000664082
9.81874e-06
0.000662286
9.75232e-06
0.000660434
9.67243e-06
0.000658534
9.5762e-06
0.00065659
9.46711e-06
0.000654611
9.34039e-06
0.000652602
9.20191e-06
0.000650571
9.0438e-06
0.000648523
8.87596e-06
0.000646469
8.68538e-06
0.00064441
8.4886e-06
0.000642362
8.26414e-06
0.000640321
8.03954e-06
0.00063831
7.77921e-06
0.000636318
7.5289e-06
0.000634376
7.22969e-06
0.000632463
6.95737e-06
0.000630622
6.61441e-06
0.00062882
6.32628e-06
0.000627115
5.93156e-06
0.000625452
5.63778e-06
0.000623913
5.17826e-06
0.000622413
4.89542e-06
0.00062106
4.35032e-06
0.00061974
4.1052e-06
0.00061855
3.44332e-06
0.000617405
3.2774e-06
0.000616203
2.45855e-06
0.000615264
2.42778e-06
0.000613629
1.43318e-06
0.000613208
1.5886e-06
4.87546e-07
0.000609518
0.000666951
5.17699e-07
0.00066782
1.46747e-06
0.000669061
2.34307e-06
0.000670488
3.1346e-06
0.000671992
3.8379e-06
0.000673524
4.46062e-06
0.000675068
5.01498e-06
0.000676611
5.51209e-06
0.000678142
5.95976e-06
0.000679649
6.3629e-06
0.000681122
6.72504e-06
0.000682555
7.04945e-06
0.000683943
7.33966e-06
0.000685288
7.59912e-06
0.000686589
7.83113e-06
0.000687847
8.03829e-06
0.000689063
8.22284e-06
0.000690238
8.3863e-06
0.000691371
8.53018e-06
0.000692466
8.65535e-06
0.000693521
8.76297e-06
0.000694538
8.85345e-06
0.000695518
8.92779e-06
0.000696461
8.98588e-06
0.000697369
9.02868e-06
0.000698242
9.05558e-06
0.000699081
9.06768e-06
0.000699887
9.06374e-06
0.00070066
9.0453e-06
0.000701402
9.0103e-06
0.000702114
8.96107e-06
0.000702796
8.89436e-06
0.000703449
8.81377e-06
0.000704075
8.71439e-06
0.000704675
8.60178e-06
0.00070525
8.46856e-06
0.000705803
8.32325e-06
0.000706334
8.15483e-06
0.000706846
7.97626e-06
0.000707339
7.77121e-06
0.000707819
7.55907e-06
0.000708283
7.31586e-06
0.000708741
7.07018e-06
0.000709184
6.78726e-06
0.000709633
6.50859e-06
0.000710063
6.18451e-06
0.000710515
5.874e-06
0.000710939
5.50775e-06
0.000711409
5.1672e-06
0.000711829
4.75865e-06
0.000712334
4.39027e-06
0.000712743
3.94141e-06
0.000713301
3.54731e-06
0.000713679
3.06536e-06
0.000714309
2.64716e-06
0.000714615
2.15236e-06
0.000715333
1.7103e-06
0.000715513
1.25279e-06
0.000716326
7.75704e-07
4.57889e-07
0.000716356
0.000666854
3.30261e-07
0.00066731
1.01187e-06
0.000667974
1.6784e-06
0.0006688
2.30916e-06
0.000669743
2.89495e-06
0.000670771
3.43286e-06
0.000671861
3.92447e-06
0.000673
4.37341e-06
0.000674176
4.78361e-06
0.00067538
5.15828e-06
0.000676606
5.49994e-06
0.000677844
5.81063e-06
0.000679092
6.09234e-06
0.000680344
6.34702e-06
0.000681598
6.57671e-06
0.000682853
6.7832e-06
0.000684108
6.96819e-06
0.000685361
7.13298e-06
0.000686613
7.27877e-06
0.000687862
7.4064e-06
0.000689108
7.51674e-06
0.000690351
7.6103e-06
0.000691591
7.68774e-06
0.000692828
7.74929e-06
0.000694061
7.79545e-06
0.00069529
7.82619e-06
0.000696516
7.84189e-06
0.000697738
7.84228e-06
0.000698955
7.82771e-06
0.000700168
7.79768e-06
0.000701376
7.75253e-06
0.000702579
7.69161e-06
0.000703778
7.6152e-06
0.000704969
7.5226e-06
0.000706157
7.41396e-06
0.000707337
7.28873e-06
0.000708514
7.14666e-06
0.000709681
6.98776e-06
0.000710846
6.81088e-06
0.000712
6.61732e-06
0.000713155
6.40403e-06
0.000714296
6.17505e-06
0.000715442
5.92353e-06
0.000716571
5.65877e-06
0.000717713
5.3668e-06
0.000718831
5.06671e-06
0.000719973
4.73145e-06
0.000721083
4.39787e-06
0.000722234
4.01574e-06
0.00072334
3.65323e-06
0.00072451
3.2198e-06
0.000725614
2.83772e-06
0.000726814
2.34728e-06
0.000727917
1.96251e-06
0.000729158
1.40654e-06
0.000730263
1.04718e-06
0.000731559
4.13727e-07
0.000732685
1.26631e-07
0.000734113
-6.51693e-07
-8.20584e-07
0.000735391
0.000666739
2.58271e-07
0.000666971
7.79767e-07
0.000667358
1.2907e-06
0.000667884
1.7841e-06
0.000668524
2.25406e-06
0.00066926
2.69699e-06
0.000670073
3.11144e-06
0.000670949
3.49748e-06
0.000671877
3.856e-06
0.000672847
4.18811e-06
0.000673852
4.49489e-06
0.000674885
4.77731e-06
0.000675941
5.03631e-06
0.000677016
5.27287e-06
0.000678104
5.48799e-06
0.000679205
5.68269e-06
0.000680315
5.85797e-06
0.000681433
6.01471e-06
0.000682558
6.15368e-06
0.000683689
6.27557e-06
0.000684825
6.3809e-06
0.000685965
6.47021e-06
0.000687109
6.5438e-06
0.000688256
6.6021e-06
0.000689407
6.64518e-06
0.000690559
6.67342e-06
0.000691715
6.68665e-06
0.000692872
6.68526e-06
0.000694031
6.66875e-06
0.000695191
6.63769e-06
0.000696352
6.59112e-06
0.000697514
6.52999e-06
0.000698676
6.45265e-06
0.000699838
6.36076e-06
0.000701
6.2516e-06
0.000702161
6.12809e-06
0.000703322
5.98575e-06
0.00070448
5.82962e-06
0.000705639
5.65242e-06
0.000706793
5.46271e-06
0.000707949
5.24863e-06
0.000709099
5.02457e-06
0.000710251
4.7712e-06
0.000711398
4.51242e-06
0.000712548
4.2169e-06
0.00071369
3.92384e-06
0.000714839
3.58253e-06
0.00071598
3.25675e-06
0.000717132
2.86446e-06
0.000718276
2.50866e-06
0.000719439
2.05714e-06
0.000720601
1.67585e-06
0.000721796
1.15251e-06
0.000723004
7.53761e-07
0.000724275
1.36146e-07
0.000725572
-2.50101e-07
0.000726934
-9.47922e-07
0.000728368
-1.3079e-06
0.000729881
-2.16426e-06
-2.47454e-06
0.000731535
0.000666724
2.00596e-07
0.0006669
6.03875e-07
0.000667186
1.00472e-06
0.000667574
1.39663e-06
0.000668052
1.7759e-06
0.000668609
2.1396e-06
0.000669235
2.48566e-06
0.00066992
2.81287e-06
0.000670655
3.12065e-06
0.000671434
3.40886e-06
0.000672251
3.67759e-06
0.000673102
3.92709e-06
0.00067398
4.15771e-06
0.000674883
4.36989e-06
0.000675807
4.56406e-06
0.000676749
4.74077e-06
0.000677707
4.90049e-06
0.000678678
5.04376e-06
0.00067966
5.17099e-06
0.000680653
5.28268e-06
0.000681655
5.37908e-06
0.000682665
5.46063e-06
0.000683681
5.52742e-06
0.000684703
5.57983e-06
0.000685731
5.61779e-06
0.000686762
5.64169e-06
0.000687798
5.65117e-06
0.000688836
5.64674e-06
0.000689877
5.62772e-06
0.00069092
5.5948e-06
0.000691964
5.54685e-06
0.00069301
5.48495e-06
0.000694055
5.40727e-06
0.0006951
5.31562e-06
0.000696145
5.20711e-06
0.000697188
5.08469e-06
0.00069823
4.94389e-06
0.00069927
4.78954e-06
0.000700308
4.61464e-06
0.000701343
4.42705e-06
0.000702376
4.21584e-06
0.000703407
3.99367e-06
0.000704435
3.74341e-06
0.000705462
3.48532e-06
0.000706486
3.19252e-06
0.000707513
2.89726e-06
0.000708538
2.55751e-06
0.00070957
2.22458e-06
0.000710601
1.83299e-06
0.000711646
1.46401e-06
0.000712688
1.01552e-06
0.000713748
6.15293e-07
0.000714794
1.06667e-07
0.000715881
-3.33522e-07
0.000716963
-9.45328e-07
0.000718117
-1.40439e-06
0.000719286
-2.11698e-06
0.000720562
-2.5839e-06
0.000721834
-3.43601e-06
-3.8897e-06
0.000723249
0.000666709
1.58604e-07
0.000666835
4.77899e-07
0.000667043
7.96648e-07
0.000667329
1.11031e-06
0.000667689
1.41636e-06
0.000668116
1.71266e-06
0.000668604
1.99748e-06
0.000669147
2.26959e-06
0.000669739
2.52822e-06
0.000670375
2.77302e-06
0.00067105
3.00263e-06
0.00067176
3.21713e-06
0.000672501
3.41667e-06
0.00067327
3.60132e-06
0.000674063
3.77119e-06
0.000674877
3.92647e-06
0.00067571
4.06734e-06
0.00067656
4.19405e-06
0.000677424
4.30678e-06
0.000678301
4.40578e-06
0.000679189
4.49115e-06
0.000680086
4.56316e-06
0.000680992
4.62178e-06
0.000681905
4.66725e-06
0.000682823
4.69945e-06
0.000683746
4.7186e-06
0.000684673
4.7244e-06
0.000685602
4.71716e-06
0.000686534
4.6963e-06
0.000687466
4.66229e-06
0.000688399
4.6142e-06
0.000689331
4.55276e-06
0.000690262
4.47656e-06
0.000691191
4.38676e-06
0.000692117
4.28123e-06
0.000693039
4.16189e-06
0.000693958
4.02548e-06
0.000694872
3.87516e-06
0.000695781
3.70594e-06
0.000696685
3.52295e-06
0.000697582
3.31859e-06
0.000698475
3.10107e-06
0.000699359
2.85874e-06
0.00070024
2.60479e-06
0.000701111
2.32124e-06
0.000701979
2.02906e-06
0.000702837
1.70011e-06
0.000703694
1.36715e-06
0.000704542
9.85795e-07
0.000705398
6.07546e-07
0.000706251
1.62457e-07
0.000707125
-2.59033e-07
0.000707998
-7.66056e-07
0.000708899
-1.23425e-06
0.000709782
-1.82874e-06
0.000710722
-2.34459e-06
0.000711649
-3.04362e-06
0.000712669
-3.60336e-06
0.000713666
-4.43396e-06
-5.02555e-06
0.000714802
0.000666699
1.26321e-07
0.000666796
3.80366e-07
0.000666959
6.34447e-07
0.000667184
8.85398e-07
0.000667468
1.13148e-06
0.00066781
1.37116e-06
0.000668204
1.60311e-06
0.000668648
1.82624e-06
0.000669136
2.03966e-06
0.000669667
2.24264e-06
0.000670235
2.43456e-06
0.000670837
2.61501e-06
0.00067147
2.78374e-06
0.00067213
2.94064e-06
0.000672816
3.08564e-06
0.000673524
3.21869e-06
0.000674251
3.33977e-06
0.000674996
3.44893e-06
0.000675757
3.54618e-06
0.000676531
3.63159e-06
0.000677317
3.70516e-06
0.000678113
3.76696e-06
0.000678918
3.81695e-06
0.00067973
3.85519e-06
0.000680548
3.88156e-06
0.000681371
3.89612e-06
0.000682196
3.89862e-06
0.000683024
3.88917e-06
0.000683853
3.86736e-06
0.000684682
3.83333e-06
0.00068551
3.78649e-06
0.000686336
3.72707e-06
0.000687158
3.65421e-06
0.000687977
3.56832e-06
0.00068879
3.46814e-06
0.000689597
3.35443e-06
0.000690397
3.22531e-06
0.00069119
3.0821e-06
0.000691974
2.92205e-06
0.00069275
2.74736e-06
0.000693514
2.55393e-06
0.00069427
2.34542e-06
0.000695013
2.11565e-06
0.000695748
1.87051e-06
0.000696468
1.60073e-06
0.000697181
1.31581e-06
0.00069788
1.0018e-06
0.000698573
6.74206e-07
0.000699246
3.12326e-07
0.000699913
-5.898e-08
0.000700561
-4.86455e-07
0.00070122
-9.1728e-07
0.00070186
-1.40666e-06
0.00070252
-1.89432e-06
0.000703154
-2.46271e-06
0.000703824
-3.01472e-06
0.000704459
-3.67856e-06
0.000705155
-4.29907e-06
0.000705799
-5.07793e-06
-5.76662e-06
0.00070654
0.000666693
9.99219e-08
0.000666773
3.00859e-07
0.000666905
5.02087e-07
0.000667089
7.01301e-07
0.000667323
8.97275e-07
0.000667606
1.08889e-06
0.000667933
1.27514e-06
0.000668305
1.45512e-06
0.000668716
1.62808e-06
0.000669165
1.79335e-06
0.00066965
1.95042e-06
0.000670166
2.09884e-06
0.000670711
2.23827e-06
0.000671283
2.36844e-06
0.00067188
2.48916e-06
0.000672498
2.60026e-06
0.000673136
2.70163e-06
0.000673792
2.79318e-06
0.000674464
2.87481e-06
0.000675149
2.94648e-06
0.000675846
3.00812e-06
0.000676553
3.05969e-06
0.000677269
3.1011e-06
0.000677992
3.1323e-06
0.00067872
3.15317e-06
0.000679453
3.16364e-06
0.000680188
3.16354e-06
0.000680924
3.15277e-06
0.00068166
3.13109e-06
0.000682395
3.09839e-06
0.000683127
3.05433e-06
0.000683856
2.99877e-06
0.000684579
2.93127e-06
0.000685295
2.85168e-06
0.000686004
2.7594e-06
0.000686704
2.65432e-06
0.000687394
2.53563e-06
0.000688073
2.40327e-06
0.000688739
2.25615e-06
0.000689392
2.09433e-06
0.000690029
1.91637e-06
0.000690652
1.7225e-06
0.000691257
1.5108e-06
0.000691846
1.28181e-06
0.000692413
1.0329e-06
0.000692964
7.65152e-07
0.000693491
4.74869e-07
0.000694001
1.64161e-07
0.000694487
-1.73931e-07
0.000694966
-5.37319e-07
0.000695411
-9.31471e-07
0.000695845
-1.35135e-06
0.000696246
-1.80773e-06
0.000696644
-2.29203e-06
0.000697002
-2.82093e-06
0.000697367
-3.38017e-06
0.000697684
-3.99486e-06
0.000698025
-4.64069e-06
0.000698304
-5.35644e-06
-6.09966e-06
0.000698637
0.000666689
7.76553e-08
0.000666756
2.33881e-07
0.000666867
3.9052e-07
0.000667023
5.45874e-07
0.000667221
6.99056e-07
0.000667461
8.49249e-07
0.00066774
9.95693e-07
0.000668058
1.1377e-06
0.000668411
1.27466e-06
0.000668798
1.40603e-06
0.000669217
1.53135e-06
0.000669666
1.65021e-06
0.000670142
1.76227e-06
0.000670643
1.86723e-06
0.000671168
1.96485e-06
0.000671713
2.05491e-06
0.000672277
2.13725e-06
0.000672859
2.21172e-06
0.000673455
2.27818e-06
0.000674065
2.33651e-06
0.000674687
2.3866e-06
0.000675318
2.42834e-06
0.000675958
2.46163e-06
0.000676604
2.48635e-06
0.000677254
2.50238e-06
0.000677909
2.50957e-06
0.000678564
2.50779e-06
0.00067922
2.49684e-06
0.000679875
2.47658e-06
0.000680526
2.44672e-06
0.000681174
2.40712e-06
0.000681815
2.35741e-06
0.000682449
2.29742e-06
0.000683074
2.22665e-06
0.000683688
2.14497e-06
0.000684291
2.05168e-06
0.00068488
1.94672e-06
0.000685454
1.82911e-06
0.000686011
1.69895e-06
0.000686551
1.55482e-06
0.00068707
1.39715e-06
0.000687569
1.22384e-06
0.000688043
1.03591e-06
0.000688495
8.30231e-07
0.000688919
6.08873e-07
0.000689317
3.67239e-07
0.000689682
1.09742e-07
0.000690021
-1.74842e-07
0.000690327
-4.79585e-07
0.000690603
-8.13759e-07
0.000690838
-1.16647e-06
0.000691044
-1.5567e-06
0.000691201
-1.96558e-06
0.000691332
-2.42255e-06
0.000691407
-2.8961e-06
0.00069146
-3.43264e-06
0.000691445
-3.98051e-06
0.000691417
-4.61271e-06
0.000691306
-5.24478e-06
-5.99045e-06
0.000691196
0.000666686
5.83594e-08
0.000666744
1.75877e-07
0.000666841
2.9387e-07
0.000666975
4.11101e-07
0.000667148
5.26933e-07
0.000667356
6.40771e-07
0.0006676
7.52059e-07
0.000667877
8.60281e-07
0.000668187
9.64966e-07
0.000668527
1.06569e-06
0.000668896
1.16206e-06
0.000669293
1.25375e-06
0.000669715
1.34044e-06
0.00067016
1.42187e-06
0.000670627
1.4978e-06
0.000671114
1.56802e-06
0.000671619
1.63235e-06
0.00067214
1.69061e-06
0.000672675
1.74267e-06
0.000673224
1.78838e-06
0.000673783
1.82762e-06
0.000674351
1.86024e-06
0.000674926
1.88614e-06
0.000675507
1.90516e-06
0.000676093
1.91721e-06
0.00067668
1.92209e-06
0.000677268
1.91971e-06
0.000677855
1.90981e-06
0.000678439
1.89232e-06
0.000679019
1.86689e-06
0.000679593
1.83348e-06
0.000680159
1.7916e-06
0.000680715
1.74129e-06
0.00068126
1.68185e-06
0.000681791
1.61344e-06
0.000682308
1.53506e-06
0.000682807
1.44712e-06
0.000683288
1.34815e-06
0.000683748
1.23894e-06
0.000684186
1.11734e-06
0.000684598
9.84826e-07
0.000684984
8.38118e-07
0.00068534
6.79891e-07
0.000685665
5.05117e-07
0.000685955
3.18497e-07
0.00068621
1.12464e-07
0.000686427
-1.06875e-07
0.000686606
-3.53623e-07
0.000686738
-6.1165e-07
0.000686825
-9.01341e-07
0.00068686
-1.20129e-06
0.000686846
-1.54304e-06
0.000686772
-1.89107e-06
0.000686645
-2.29547e-06
0.000686447
-2.69822e-06
0.000686193
-3.1792e-06
0.000685857
-3.64379e-06
0.000685463
-4.2194e-06
0.00068497
-4.7518e-06
-5.44384e-06
0.000684424
0.000666684
4.12011e-08
0.000666735
1.2432e-07
0.000666821
2.07944e-07
0.000666941
2.91211e-07
0.000667094
3.73679e-07
0.00066728
4.54932e-07
0.000667498
5.34577e-07
0.000667746
6.12242e-07
0.000668023
6.87587e-07
0.000668329
7.60293e-07
0.000668661
8.30072e-07
0.000669018
8.96654e-07
0.000669398
9.59801e-07
0.000669801
1.01929e-06
0.000670224
1.07492e-06
0.000670665
1.12651e-06
0.000671124
1.1739e-06
0.000671597
1.21693e-06
0.000672085
1.25548e-06
0.000672584
1.28939e-06
0.000673093
1.31856e-06
0.00067361
1.34285e-06
0.000674134
1.36216e-06
0.000674663
1.37634e-06
0.000675195
1.38529e-06
0.000675728
1.38884e-06
0.000676261
1.38691e-06
0.000676791
1.37925e-06
0.000677318
1.36582e-06
0.000677838
1.34629e-06
0.000678351
1.32067e-06
0.000678854
1.28847e-06
0.000679346
1.2498e-06
0.000679824
1.20399e-06
0.000680286
1.15128e-06
0.00068073
1.09068e-06
0.000681155
1.02273e-06
0.000681557
9.45938e-07
0.000681935
8.61329e-07
0.000682285
7.66632e-07
0.000682606
6.63683e-07
0.000682896
5.48992e-07
0.00068315
4.25746e-07
0.000683366
2.88553e-07
0.000683542
1.42974e-07
0.000683673
-1.85792e-08
0.000683759
-1.92965e-07
0.000683794
-3.88367e-07
0.000683773
-5.91006e-07
0.000683694
-8.22454e-07
0.000683551
-1.05849e-06
0.000683342
-1.33338e-06
0.000683058
-1.60755e-06
0.000682698
-1.93566e-06
0.000682253
-2.25295e-06
0.000681721
-2.64708e-06
0.000681089
-3.01229e-06
0.00068036
-3.48953e-06
0.000679514
-3.90579e-06
-4.48765e-06
0.000678557
0.000666682
2.55364e-08
0.000666729
7.72598e-08
0.000666808
1.295e-07
0.000666917
1.81718e-07
0.000667057
2.33634e-07
0.000667227
2.84983e-07
0.000667426
3.35511e-07
0.000667654
3.84977e-07
0.000667908
4.33158e-07
0.000668189
4.79839e-07
0.000668494
5.24827e-07
0.000668823
5.67935e-07
0.000669173
6.08996e-07
0.000669545
6.4785e-07
0.000669935
6.84352e-07
0.000670343
7.18363e-07
0.000670768
7.49764e-07
0.000671206
7.78429e-07
0.000671657
8.04257e-07
0.00067212
8.27132e-07
0.000672591
8.46967e-07
0.00067307
8.63642e-07
0.000673555
8.77084e-07
0.000674045
8.8716e-07
0.000674536
8.93808e-07
0.000675028
8.96868e-07
0.000675519
8.96295e-07
0.000676006
8.91884e-07
0.000676488
8.83615e-07
0.000676963
8.71214e-07
0.000677429
8.54707e-07
0.000677884
8.33712e-07
0.000678326
8.08336e-07
0.000678751
7.78031e-07
0.00067916
7.43046e-07
0.000679548
7.02574e-07
0.000679913
6.57104e-07
0.000680254
6.05427e-07
0.000680567
5.48436e-07
0.000680849
4.84292e-07
0.000681098
4.14572e-07
0.000681311
3.3645e-07
0.000681484
2.52649e-07
0.000681614
1.58817e-07
0.000681697
5.96238e-08
0.000681731
-5.25675e-08
0.00068171
-1.71771e-07
0.000681629
-3.07077e-07
0.000681484
-4.46431e-07
0.000681269
-6.0758e-07
0.000680981
-7.70369e-07
0.000680611
-9.62965e-07
0.000680155
-1.15237e-06
0.000679603
-1.38372e-06
0.000678953
-1.60303e-06
0.000678189
-1.88298e-06
0.000677312
-2.13521e-06
0.0006763
-2.47711e-06
0.000675158
-2.76365e-06
-3.18469e-06
0.000673855
0.000666681
1.08267e-08
0.000666726
3.30791e-08
0.000666799
5.58492e-08
0.000666902
7.88904e-08
0.000667034
1.02068e-07
0.000667193
1.2525e-07
0.000667381
1.4831e-07
0.000667594
1.71127e-07
0.000667834
1.93587e-07
0.000668098
2.15579e-07
0.000668386
2.37002e-07
0.000668696
2.57756e-07
0.000669027
2.77748e-07
0.000669378
2.96889e-07
0.000669748
3.15095e-07
0.000670134
3.32284e-07
0.000670535
3.48384e-07
0.00067095
3.63318e-07
0.000671377
3.77021e-07
0.000671815
3.89418e-07
0.000672262
4.00453e-07
0.000672715
4.10049e-07
0.000673174
4.18156e-07
0.000673637
4.24687e-07
0.000674101
4.29599e-07
0.000674565
4.32795e-07
0.000675027
4.34235e-07
0.000675485
4.33801e-07
0.000675937
4.31471e-07
0.000676381
4.27084e-07
0.000676815
4.20642e-07
0.000677237
4.11932e-07
0.000677645
4.01012e-07
0.000678035
3.87567e-07
0.000678406
3.71737e-07
0.000678756
3.53066e-07
0.000679081
3.31833e-07
0.000679379
3.0736e-07
0.000679647
2.8016e-07
0.000679883
2.49198e-07
0.000680082
2.15364e-07
0.000680241
1.77074e-07
0.000680358
1.35817e-07
0.000680428
8.9159e-08
0.000680448
3.97619e-08
0.000680411
-1.59511e-08
0.000680315
-7.58783e-08
0.000680152
-1.44404e-07
0.000679921
-2.14782e-07
0.00067961
-2.96978e-07
0.000679219
-3.79628e-07
0.000678735
-4.78521e-07
0.000678158
-5.75046e-07
0.000677468
-6.94562e-07
0.000676672
-8.0665e-07
0.000675741
-9.52177e-07
0.000674687
-1.0813e-06
0.00067347
-1.26014e-06
0.000672113
-1.40673e-06
-1.62836e-06
0.000670557
0.000666681
-3.39107e-09
0.000666724
-9.65774e-09
0.000666795
-1.53892e-08
0.000666894
-2.0582e-08
0.000667022
-2.52327e-08
0.000667176
-2.93426e-08
0.000667357
-3.29174e-08
0.000667565
-3.59642e-08
0.000667797
-3.84906e-08
0.000668053
-4.05062e-08
0.000668332
-4.20203e-08
0.000668633
-4.30455e-08
0.000668954
-4.35974e-08
0.000669294
-4.36927e-08
0.000669653
-4.33467e-08
0.000670028
-4.25873e-08
0.000670418
-4.1429e-08
0.000670821
-3.98965e-08
0.000671236
-3.80044e-08
0.000671661
-3.58006e-08
0.000672095
-3.32868e-08
0.000672535
-3.04965e-08
0.000672981
-2.7439e-08
0.00067343
-2.4183e-08
0.00067388
-2.07144e-08
0.00067433
-1.70522e-08
0.000674777
-1.32805e-08
0.000675221
-9.36478e-09
0.000675657
-5.3594e-09
0.000676086
-1.23379e-09
0.000676504
2.79074e-09
0.000676909
6.92666e-09
0.000677299
1.10623e-08
0.000677671
1.51691e-08
0.000678023
1.92283e-08
0.000678353
2.32129e-08
0.000678658
2.71103e-08
0.000678935
3.08918e-08
0.00067918
3.45517e-08
0.000679391
3.80593e-08
0.000679565
4.14268e-08
0.000679698
4.46369e-08
0.000679786
4.77694e-08
0.000679824
5.08107e-08
0.00067981
5.36021e-08
0.000679738
5.6092e-08
0.000679604
5.82915e-08
0.000679399
6.01785e-08
0.000679123
6.18492e-08
0.000678763
6.32398e-08
0.000678319
6.44137e-08
0.000677775
6.52587e-08
0.000677134
6.58726e-08
0.000676373
6.61609e-08
0.0006755
6.62118e-08
0.000674482
6.59359e-08
0.000673335
6.53604e-08
0.000672011
6.44808e-08
0.000670541
6.31953e-08
6.17478e-08
0.000668851
0.000666681
-1.75783e-08
0.000666723
-5.22556e-08
0.000666794
-8.64328e-08
0.000666894
-1.19803e-07
0.000667021
-1.52228e-07
0.000667175
-1.83582e-07
0.000667356
-2.13751e-07
0.000667562
-2.42626e-07
0.000667794
-2.70108e-07
0.00066805
-2.96104e-07
0.000668328
-3.20533e-07
0.000668628
-3.4332e-07
0.000668949
-3.64403e-07
0.000669289
-3.83724e-07
0.000669647
-4.01239e-07
0.000670021
-4.16905e-07
0.000670411
-4.30691e-07
0.000670813
-4.42565e-07
0.000671228
-4.5251e-07
0.000671653
-4.605e-07
0.000672086
-4.66525e-07
0.000672526
-4.70558e-07
0.000672971
-4.726e-07
0.00067342
-4.72621e-07
0.000673869
-4.70625e-07
0.000674319
-4.66567e-07
0.000674766
-4.60466e-07
0.000675209
-4.52248e-07
0.000675646
-4.41946e-07
0.000676074
-4.2945e-07
0.000676491
-4.14823e-07
0.000676896
-3.97886e-07
0.000677286
-3.78738e-07
0.000677658
-3.5712e-07
0.000678011
-3.33204e-07
0.000678341
-3.06592e-07
0.000678645
-2.77585e-07
0.000678922
-2.45562e-07
0.000679167
-2.11048e-07
0.000679378
-1.73075e-07
0.000679552
-1.32541e-07
0.000679685
-8.79646e-08
0.000679774
-4.09066e-08
0.000679813
1.15075e-08
0.0006798
6.68437e-08
0.000679727
1.2848e-07
0.000679593
1.92393e-07
0.000679389
2.64592e-07
0.000679112
3.38321e-07
0.000678752
4.23263e-07
0.000678309
5.08274e-07
0.000677765
6.08862e-07
0.000677124
7.06705e-07
0.000676363
8.26837e-07
0.00067549
9.39126e-07
0.000674472
1.08414e-06
0.000673325
1.21225e-06
0.000672
1.38947e-06
0.00067053
1.5338e-06
1.75292e-06
0.000668839
0.000666681
-3.21648e-08
0.000666725
-9.60946e-08
0.000666798
-1.59544e-07
0.0006669
-2.21912e-07
0.000667031
-2.82913e-07
0.00066719
-3.42288e-07
0.000667376
-3.99794e-07
0.000667588
-4.55203e-07
0.000667827
-5.08305e-07
0.000668089
-5.58905e-07
0.000668376
-6.06829e-07
0.000668684
-6.51916e-07
0.000669014
-6.94027e-07
0.000669363
-7.33034e-07
0.000669731
-7.68831e-07
0.000670115
-8.01318e-07
0.000670515
-8.30417e-07
0.000670928
-8.56047e-07
0.000671354
-8.78153e-07
0.00067179
-8.96664e-07
0.000672235
-9.11543e-07
0.000672687
-9.22721e-07
0.000673145
-9.30172e-07
0.000673606
-9.33816e-07
0.000674069
-9.33643e-07
0.000674532
-9.29544e-07
0.000674993
-9.21525e-07
0.00067545
-9.09434e-07
0.000675902
-8.93299e-07
0.000676345
-8.72898e-07
0.000676779
-8.48303e-07
0.0006772
-8.19184e-07
0.000677607
-7.85684e-07
0.000677997
-7.47312e-07
0.000678368
-7.04344e-07
0.000678718
-6.56031e-07
0.000679043
-6.02882e-07
0.000679341
-5.43753e-07
0.00067961
-4.79547e-07
0.000679845
-4.08501e-07
0.000680045
-3.32184e-07
0.000680205
-2.47868e-07
0.000680322
-1.5821e-07
0.000680393
-5.91396e-08
0.000680413
4.63063e-08
0.000680377
1.64597e-07
0.000680282
2.87646e-07
0.00068012
4.26574e-07
0.000679889
5.69368e-07
0.000679579
7.33299e-07
0.000679188
8.98583e-07
0.000678704
1.09292e-06
0.000678127
1.28382e-06
0.000677438
1.51584e-06
0.000676642
1.7356e-06
0.000675711
2.01516e-06
0.000674656
2.26673e-06
0.000673438
2.60722e-06
0.00067208
2.89187e-06
3.31072e-06
0.000670523
0.000666682
-4.76375e-08
0.000666729
-1.42606e-07
0.000666806
-2.37111e-07
0.000666915
-3.30227e-07
0.000667053
-4.21506e-07
0.000667221
-5.1054e-07
0.000667419
-5.96943e-07
0.000667644
-6.80359e-07
0.000667896
-7.60459e-07
0.000668174
-8.36944e-07
0.000668477
-9.09543e-07
0.000668803
-9.78013e-07
0.000669151
-1.04214e-06
0.00066952
-1.10174e-06
0.000669907
-1.15664e-06
0.000670313
-1.20671e-06
0.000670734
-1.25182e-06
0.00067117
-1.29186e-06
0.000671619
-1.32674e-06
0.000672078
-1.35636e-06
0.000672547
-1.38067e-06
0.000673024
-1.39957e-06
0.000673507
-1.41301e-06
0.000673994
-1.42088e-06
0.000674484
-1.42316e-06
0.000674974
-1.4197e-06
0.000675463
-1.41048e-06
0.000675949
-1.39531e-06
0.000676429
-1.37419e-06
0.000676903
-1.34683e-06
0.000677368
-1.3133e-06
0.000677822
-1.27315e-06
0.000678263
-1.22654e-06
0.000678689
-1.17283e-06
0.000679097
-1.11231e-06
0.000679485
-1.04405e-06
0.00067985
-9.68584e-07
0.000680191
-8.84506e-07
0.000680504
-7.92817e-07
0.000680787
-6.91355e-07
0.000681037
-5.8189e-07
0.00068125
-4.61096e-07
0.000681424
-3.32061e-07
0.000681555
-1.89699e-07
0.000681641
-3.96355e-08
0.000681675
1.30067e-07
0.000681655
3.07802e-07
0.000681575
5.06727e-07
0.000681431
7.12795e-07
0.000681218
9.46974e-07
0.000680931
1.18572e-06
0.000680561
1.46245e-06
0.000680106
1.73843e-06
0.000679555
2.06731e-06
0.000678905
2.38546e-06
0.000678141
2.77935e-06
0.000677263
3.14445e-06
0.00067625
3.62057e-06
0.000675106
4.0356e-06
4.61579e-06
0.000673801
0.000666684
-6.45313e-08
0.000666734
-1.93408e-07
0.000666819
-3.21828e-07
0.000666937
-4.48492e-07
0.000667089
-5.72758e-07
0.000667272
-6.94036e-07
0.000667487
-8.11781e-07
0.000667732
-9.25487e-07
0.000668006
-1.0347e-06
0.000668308
-1.139e-06
0.000668637
-1.23804e-06
0.00066899
-1.33149e-06
0.000669367
-1.41907e-06
0.000669766
-1.50055e-06
0.000670185
-1.57573e-06
0.000670623
-1.64442e-06
0.000671078
-1.7065e-06
0.000671548
-1.76182e-06
0.000672031
-1.8103e-06
0.000672527
-1.85182e-06
0.000673032
-1.88632e-06
0.000673546
-1.91369e-06
0.000674067
-1.93389e-06
0.000674593
-1.94679e-06
0.000675122
-1.95236e-06
0.000675653
-1.95044e-06
0.000676184
-1.94099e-06
0.000676712
-1.9238e-06
0.000677237
-1.89885e-06
0.000677756
-1.86584e-06
0.000678267
-1.82477e-06
0.000678769
-1.77519e-06
0.00067926
-1.71718e-06
0.000679737
-1.6501e-06
0.000680199
-1.57411e-06
0.000680643
-1.48831e-06
0.000681068
-1.39307e-06
0.00068147
-1.28703e-06
0.000681848
-1.17094e-06
0.0006822
-1.04277e-06
0.000682522
-9.03896e-07
0.000682812
-7.51233e-07
0.000683067
-5.87285e-07
0.000683285
-4.07287e-07
0.000683461
-2.15737e-07
0.000683598
-6.6432e-09
0.000683685
2.20713e-07
0.000683721
4.70533e-07
0.000683702
7.32056e-07
0.000683624
1.02444e-06
0.000683483
1.32723e-06
0.000683274
1.6707e-06
0.000682992
2.02085e-06
0.000682633
2.42608e-06
0.000682188
2.83024e-06
0.000681657
3.31114e-06
0.000681025
3.77632e-06
0.000680294
4.3511e-06
0.000679447
4.88313e-06
5.57405e-06
0.000678488
0.000666686
-8.34933e-08
0.000666743
-2.5046e-07
0.000666838
-4.16954e-07
0.000666971
-5.81216e-07
0.00066714
-7.42357e-07
0.000667346
-8.99562e-07
0.000667586
-1.05208e-06
0.00066786
-1.19924e-06
0.000668165
-1.34044e-06
0.000668502
-1.47515e-06
0.000668866
-1.60293e-06
0.000669258
-1.72339e-06
0.000669676
-1.83622e-06
0.000670116
-1.94116e-06
0.000670578
-2.03798e-06
0.00067106
-2.12653e-06
0.000671561
-2.20665e-06
0.000672077
-2.27824e-06
0.000672608
-2.34122e-06
0.000673152
-2.39549e-06
0.000673706
-2.441e-06
0.00067427
-2.47768e-06
0.000674842
-2.50547e-06
0.000675419
-2.5243e-06
0.000676001
-2.53409e-06
0.000676585
-2.53474e-06
0.000677171
-2.52617e-06
0.000677755
-2.50823e-06
0.000678337
-2.4808e-06
0.000678915
-2.44367e-06
0.000679487
-2.39671e-06
0.000680051
-2.33961e-06
0.000680606
-2.27224e-06
0.00068115
-2.19414e-06
0.000681681
-2.1052e-06
0.000682198
-2.00479e-06
0.000682698
-1.89282e-06
0.000683179
-1.76843e-06
0.00068364
-1.63165e-06
0.000684078
-1.48121e-06
0.000684492
-1.31739e-06
0.000684879
-1.13834e-06
0.000685236
-9.44829e-07
0.000685563
-7.3412e-07
0.000685855
-5.07873e-07
0.000686111
-2.62167e-07
0.000686334
-2.36952e-09
0.000686514
2.90217e-07
0.000686648
5.97987e-07
0.000686738
9.34461e-07
0.000686775
1.29022e-06
0.000686764
1.68221e-06
0.000686691
2.09364e-06
0.000686566
2.55141e-06
0.000686369
3.02691e-06
0.000686117
3.56345e-06
0.00068578
4.11271e-06
0.000685387
4.74435e-06
0.000684893
5.37703e-06
6.1221e-06
0.000684345
0.000666689
-1.05361e-07
0.000666754
-3.16301e-07
0.000666864
-5.26701e-07
0.000667017
-7.342e-07
0.000667212
-9.37568e-07
0.000667448
-1.13569e-06
0.000667724