/*--------------------------------*- C++ -*----------------------------------*\
| =========                 |                                                 |
| \\      /  F ield         | OpenFOAM: The Open Source CFD Toolbox           |
|  \\    /   O peration     | Version:  2312                                  |
|   \\  /    A nd           | Website:  www.openfoam.com                      |
|    \\/     M anipulation  |                                                 |
\*---------------------------------------------------------------------------*/
FoamFile
{
    version     2.0;
    format      ascii;
    arch        "LSB;label=32;scalar=64";
    class       volVectorField;
    location    "129000";
    object      U;
}
// * * * * * * * * * * * * * * * * * * * * * * * * * * * * * * * * * * * * * //

dimensions      [0 1 -1 0 0 0 0];

internalField   nonuniform List<vector> 
10800
(
(0.000992484 4.94216e-06 0)
(0.000990038 1.24586e-05 0)
(0.000986871 1.74807e-05 0)
(0.000980497 2.06652e-05 0)
(0.000971082 2.27492e-05 0)
(0.000959789 2.42439e-05 0)
(0.000947685 2.5384e-05 0)
(0.000935303 2.62445e-05 0)
(0.000922788 2.68497e-05 0)
(0.000910117 2.72244e-05 0)
(0.000897245 2.74066e-05 0)
(0.000884167 2.7439e-05 0)
(0.000870922 2.73596e-05 0)
(0.000857563 2.71966e-05 0)
(0.000844143 2.69679e-05 0)
(0.000830699 2.66854e-05 0)
(0.000817257 2.6357e-05 0)
(0.000803835 2.59892e-05 0)
(0.00079045 2.55874e-05 0)
(0.000777115 2.51566e-05 0)
(0.000763846 2.47005e-05 0)
(0.000750659 2.42222e-05 0)
(0.000737567 2.37237e-05 0)
(0.000724584 2.32069e-05 0)
(0.000711725 2.26727e-05 0)
(0.000699 2.21225e-05 0)
(0.000686424 2.15565e-05 0)
(0.000674009 2.09761e-05 0)
(0.000661767 2.03808e-05 0)
(0.00064971 1.97722e-05 0)
(0.000637853 1.91491e-05 0)
(0.000626206 1.8514e-05 0)
(0.000614784 1.78644e-05 0)
(0.000603597 1.72042e-05 0)
(0.00059266 1.6529e-05 0)
(0.000581982 1.58456e-05 0)
(0.000571583 1.51464e-05 0)
(0.000561464 1.44422e-05 0)
(0.000551653 1.37203e-05 0)
(0.000542142 1.29987e-05 0)
(0.000532969 1.22558e-05 0)
(0.000524111 1.15213e-05 0)
(0.000515632 1.07582e-05 0)
(0.000507464 1.00167e-05 0)
(0.000499739 9.23276e-06 0)
(0.000492284 8.49137e-06 0)
(0.000485399 7.68273e-06 0)
(0.000478637 6.94835e-06 0)
(0.000472749 6.10595e-06 0)
(0.000466541 5.37718e-06 0)
(0.000462026 4.49169e-06 0)
(0.000455871 3.72213e-06 0)
(0.000453774 2.82952e-06 0)
(0.000446052 1.77322e-06 0)
(0.000449483 1.19348e-06 0)
(0.000435153 -1.20756e-06 0)
(0.000453373 1.3655e-07 0)
(0.000417549 -7.67829e-06 0)
(0.000475607 2.04109e-06 0)
(0.000381105 -2.45081e-05 0)
(0.00100003 5.80317e-06 0)
(0.00100172 1.49958e-05 0)
(0.00100422 2.15288e-05 0)
(0.00100705 2.60944e-05 0)
(0.00100978 2.94554e-05 0)
(0.00101218 3.21399e-05 0)
(0.0010142 3.43957e-05 0)
(0.00101587 3.6309e-05 0)
(0.00101724 3.79126e-05 0)
(0.00101834 3.92371e-05 0)
(0.00101919 4.03237e-05 0)
(0.00101977 4.12183e-05 0)
(0.00102008 4.19614e-05 0)
(0.00102013 4.25832e-05 0)
(0.00101993 4.31034e-05 0)
(0.00101948 4.35348e-05 0)
(0.00101881 4.38861e-05 0)
(0.00101793 4.41638e-05 0)
(0.00101684 4.43736e-05 0)
(0.00101556 4.45201e-05 0)
(0.00101411 4.46069e-05 0)
(0.00101247 4.46367e-05 0)
(0.00101068 4.46114e-05 0)
(0.00100872 4.45321e-05 0)
(0.00100663 4.43999e-05 0)
(0.00100439 4.42146e-05 0)
(0.00100205 4.39773e-05 0)
(0.000999564 4.36866e-05 0)
(0.000997003 4.33444e-05 0)
(0.000994304 4.29477e-05 0)
(0.000991569 4.24998e-05 0)
(0.000988689 4.19952e-05 0)
(0.000985826 4.14408e-05 0)
(0.000982792 4.0826e-05 0)
(0.000979854 4.01644e-05 0)
(0.000976688 3.94367e-05 0)
(0.00097374 3.86686e-05 0)
(0.000970454 3.78245e-05 0)
(0.000967576 3.69526e-05 0)
(0.000964161 3.59873e-05 0)
(0.000961467 3.50174e-05 0)
(0.000957877 3.3923e-05 0)
(0.00095553 3.28665e-05 0)
(0.000951656 3.1629e-05 0)
(0.000949909 3.05059e-05 0)
(0.000945528 2.90997e-05 0)
(0.000944783 2.79445e-05 0)
(0.000939474 2.63218e-05 0)
(0.000940395 2.51937e-05 0)
(0.00093339 2.32674e-05 0)
(0.000937087 2.22666e-05 0)
(0.000927006 1.98811e-05 0)
(0.000935358 1.91745e-05 0)
(0.000919757 1.60635e-05 0)
(0.000935948 1.59142e-05 0)
(0.000910528 1.16611e-05 0)
(0.000939983 1.24086e-05 0)
(0.000897272 6.53136e-06 0)
(0.000949368 8.20856e-06 0)
(0.000876822 1.08801e-06 0)
(0.000999989 1.96422e-06 0)
(0.00100078 5.7695e-06 0)
(0.00100224 9.29879e-06 0)
(0.00100423 1.24683e-05 0)
(0.00100654 1.52751e-05 0)
(0.00100896 1.77645e-05 0)
(0.00101138 1.99911e-05 0)
(0.00101375 2.1998e-05 0)
(0.00101605 2.38124e-05 0)
(0.00101831 2.54509e-05 0)
(0.00102052 2.69266e-05 0)
(0.00102268 2.82531e-05 0)
(0.00102479 2.94445e-05 0)
(0.00102683 3.05148e-05 0)
(0.0010288 3.14764e-05 0)
(0.00103071 3.23389e-05 0)
(0.00103255 3.31105e-05 0)
(0.00103432 3.37968e-05 0)
(0.00103603 3.44035e-05 0)
(0.00103768 3.49336e-05 0)
(0.00103927 3.53918e-05 0)
(0.0010408 3.57791e-05 0)
(0.00104228 3.60999e-05 0)
(0.0010437 3.6353e-05 0)
(0.00104507 3.6543e-05 0)
(0.00104637 3.66663e-05 0)
(0.00104764 3.67286e-05 0)
(0.00104883 3.67235e-05 0)
(0.00105002 3.66593e-05 0)
(0.0010511 3.65251e-05 0)
(0.0010522 3.6334e-05 0)
(0.00105317 3.60684e-05 0)
(0.0010542 3.57492e-05 0)
(0.00105506 3.53488e-05 0)
(0.00105604 3.49006e-05 0)
(0.00105678 3.4361e-05 0)
(0.00105774 3.37832e-05 0)
(0.00105834 3.30992e-05 0)
(0.00105932 3.23924e-05 0)
(0.00105976 3.15576e-05 0)
(0.00106081 3.07247e-05 0)
(0.00106104 2.97312e-05 0)
(0.00106226 2.87778e-05 0)
(0.0010622 2.76155e-05 0)
(0.00106372 2.65512e-05 0)
(0.00106324 2.52072e-05 0)
(0.00106525 2.40466e-05 0)
(0.00106415 2.25045e-05 0)
(0.00106693 2.12692e-05 0)
(0.00106488 1.95101e-05 0)
(0.00106888 1.82304e-05 0)
(0.00106537 1.62368e-05 0)
(0.00107124 1.49534e-05 0)
(0.00106546 1.27229e-05 0)
(0.00107419 1.14889e-05 0)
(0.0010649 9.07114e-06 0)
(0.00107801 7.95342e-06 0)
(0.00106333 5.54517e-06 0)
(0.00108311 4.58188e-06 0)
(0.00106028 2.68283e-06 0)
(0.00100001 1.74375e-06 0)
(0.00100047 5.16638e-06 0)
(0.00100128 8.43285e-06 0)
(0.00100239 1.14668e-05 0)
(0.00100374 1.42274e-05 0)
(0.00100525 1.67116e-05 0)
(0.00100688 1.8941e-05 0)
(0.00100857 2.09455e-05 0)
(0.00101031 2.27521e-05 0)
(0.00101209 2.43814e-05 0)
(0.00101391 2.58492e-05 0)
(0.00101574 2.71681e-05 0)
(0.0010176 2.83506e-05 0)
(0.00101946 2.94084e-05 0)
(0.00102133 3.03533e-05 0)
(0.0010232 3.11954e-05 0)
(0.00102507 3.19437e-05 0)
(0.00102693 3.26051e-05 0)
(0.0010288 3.31861e-05 0)
(0.00103065 3.36907e-05 0)
(0.0010325 3.41237e-05 0)
(0.00103435 3.44873e-05 0)
(0.00103619 3.47854e-05 0)
(0.00103803 3.50184e-05 0)
(0.00103986 3.51898e-05 0)
(0.00104168 3.52982e-05 0)
(0.0010435 3.53472e-05 0)
(0.00104531 3.53336e-05 0)
(0.00104712 3.52615e-05 0)
(0.00104891 3.51259e-05 0)
(0.00105071 3.4932e-05 0)
(0.00105248 3.46724e-05 0)
(0.00105427 3.43544e-05 0)
(0.00105601 3.39678e-05 0)
(0.0010578 3.35223e-05 0)
(0.00105951 3.30046e-05 0)
(0.0010613 3.24276e-05 0)
(0.00106297 3.17743e-05 0)
(0.00106476 3.10613e-05 0)
(0.00106638 3.02682e-05 0)
(0.00106819 2.94143e-05 0)
(0.00106975 2.84775e-05 0)
(0.00107159 2.74776e-05 0)
(0.00107307 2.6395e-05 0)
(0.00107497 2.52431e-05 0)
(0.00107635 2.40154e-05 0)
(0.00107834 2.27043e-05 0)
(0.0010796 2.13375e-05 0)
(0.00108174 1.98579e-05 0)
(0.00108282 1.83675e-05 0)
(0.00108518 1.67069e-05 0)
(0.00108601 1.51265e-05 0)
(0.0010887 1.32686e-05 0)
(0.00108919 1.16644e-05 0)
(0.00109234 9.58806e-06 0)
(0.00109234 8.08251e-06 0)
(0.00109616 5.75526e-06 0)
(0.00109545 4.55279e-06 0)
(0.00110021 1.89536e-06 0)
(0.00109845 1.28074e-06 0)
(0.001 1.15579e-06 0)
(0.00100023 3.44078e-06 0)
(0.00100067 5.66106e-06 0)
(0.00100133 7.78487e-06 0)
(0.0010022 9.79084e-06 0)
(0.00100323 1.16686e-05 0)
(0.0010044 1.34169e-05 0)
(0.00100568 1.50395e-05 0)
(0.00100703 1.65427e-05 0)
(0.00100846 1.79324e-05 0)
(0.00100994 1.92141e-05 0)
(0.00101146 2.03925e-05 0)
(0.00101301 2.14724e-05 0)
(0.0010146 2.24586e-05 0)
(0.00101621 2.3356e-05 0)
(0.00101784 2.41695e-05 0)
(0.00101949 2.49034e-05 0)
(0.00102114 2.55616e-05 0)
(0.00102281 2.61474e-05 0)
(0.00102448 2.66636e-05 0)
(0.00102616 2.71126e-05 0)
(0.00102785 2.74963e-05 0)
(0.00102955 2.78162e-05 0)
(0.00103124 2.80737e-05 0)
(0.00103295 2.82695e-05 0)
(0.00103465 2.84045e-05 0)
(0.00103636 2.84786e-05 0)
(0.00103807 2.84927e-05 0)
(0.00103979 2.84455e-05 0)
(0.0010415 2.83384e-05 0)
(0.00104322 2.81683e-05 0)
(0.00104493 2.79382e-05 0)
(0.00104665 2.76426e-05 0)
(0.00104837 2.72868e-05 0)
(0.00105009 2.68613e-05 0)
(0.0010518 2.63765e-05 0)
(0.00105352 2.58159e-05 0)
(0.00105523 2.51985e-05 0)
(0.00105694 2.44965e-05 0)
(0.00105864 2.37432e-05 0)
(0.00106035 2.28921e-05 0)
(0.00106204 2.20006e-05 0)
(0.00106374 2.09912e-05 0)
(0.00106543 1.99615e-05 0)
(0.00106712 1.87826e-05 0)
(0.00106881 1.76181e-05 0)
(0.00107048 1.62554e-05 0)
(0.00107219 1.49658e-05 0)
(0.00107384 1.34007e-05 0)
(0.00107558 1.20055e-05 0)
(0.00107721 1.02116e-05 0)
(0.00107901 8.7443e-06 0)
(0.00108062 6.68144e-06 0)
(0.00108254 5.19609e-06 0)
(0.00108414 2.8014e-06 0)
(0.00108627 1.3859e-06 0)
(0.00108785 -1.43191e-06 0)
(0.0010903 -2.63031e-06 0)
(0.00109175 -6.00996e-06 0)
(0.0010945 -6.77707e-06 0)
(0.001 9.29995e-07 0)
(0.00100017 2.78222e-06 0)
(0.00100051 4.6082e-06 0)
(0.001001 6.38899e-06 0)
(0.00100164 8.10709e-06 0)
(0.00100242 9.74859e-06 0)
(0.0010033 1.13042e-05 0)
(0.00100429 1.2769e-05 0)
(0.00100535 1.41413e-05 0)
(0.00100649 1.54217e-05 0)
(0.00100768 1.66115e-05 0)
(0.00100892 1.77126e-05 0)
(0.00101021 1.87271e-05 0)
(0.00101153 1.96578e-05 0)
(0.00101289 2.05072e-05 0)
(0.00101428 2.12782e-05 0)
(0.00101569 2.19738e-05 0)
(0.00101712 2.25968e-05 0)
(0.00101857 2.31495e-05 0)
(0.00102004 2.36344e-05 0)
(0.00102152 2.40533e-05 0)
(0.00102301 2.44083e-05 0)
(0.00102451 2.47003e-05 0)
(0.00102602 2.49311e-05 0)
(0.00102754 2.51007e-05 0)
(0.00102906 2.52111e-05 0)
(0.00103059 2.52611e-05 0)
(0.00103213 2.52529e-05 0)
(0.00103366 2.5184e-05 0)
(0.0010352 2.50576e-05 0)
(0.00103674 2.48689e-05 0)
(0.00103829 2.46231e-05 0)
(0.00103983 2.43122e-05 0)
(0.00104138 2.39446e-05 0)
(0.00104292 2.35077e-05 0)
(0.00104446 2.30152e-05 0)
(0.00104599 2.2447e-05 0)
(0.00104754 2.18258e-05 0)
(0.00104906 2.112e-05 0)
(0.0010506 2.03661e-05 0)
(0.00105211 1.95145e-05 0)
(0.00105364 1.86242e-05 0)
(0.00105513 1.76171e-05 0)
(0.00105668 1.65875e-05 0)
(0.00105815 1.54126e-05 0)
(0.0010597 1.42425e-05 0)
(0.00106115 1.28845e-05 0)
(0.00106273 1.15758e-05 0)
(0.00106415 1.00142e-05 0)
(0.00106579 8.57406e-06 0)
(0.00106717 6.78228e-06 0)
(0.00106889 5.22738e-06 0)
(0.00107021 3.16965e-06 0)
(0.00107207 1.53042e-06 0)
(0.0010733 -8.48812e-07 0)
(0.00107537 -2.53162e-06 0)
(0.00107648 -5.32945e-06 0)
(0.00107889 -7.00051e-06 0)
(0.00107976 -1.03633e-05 0)
(0.00108249 -1.19245e-05 0)
(0.001 7.35926e-07 0)
(0.00100013 2.20239e-06 0)
(0.00100037 3.65045e-06 0)
(0.00100073 5.06738e-06 0)
(0.00100121 6.44169e-06 0)
(0.0010018 7.764e-06 0)
(0.00100248 9.02735e-06 0)
(0.00100325 1.02272e-05 0)
(0.0010041 1.13609e-05 0)
(0.00100501 1.24272e-05 0)
(0.00100599 1.3426e-05 0)
(0.00100702 1.43576e-05 0)
(0.0010081 1.52225e-05 0)
(0.00100922 1.60217e-05 0)
(0.00101038 1.67561e-05 0)
(0.00101158 1.74269e-05 0)
(0.0010128 1.80352e-05 0)
(0.00101405 1.85824e-05 0)
(0.00101532 1.90696e-05 0)
(0.00101661 1.94982e-05 0)
(0.00101792 1.98687e-05 0)
(0.00101924 2.01825e-05 0)
(0.00102057 2.04397e-05 0)
(0.00102192 2.06415e-05 0)
(0.00102327 2.07875e-05 0)
(0.00102464 2.0879e-05 0)
(0.001026 2.09145e-05 0)
(0.00102738 2.08958e-05 0)
(0.00102875 2.08203e-05 0)
(0.00103013 2.06905e-05 0)
(0.00103151 2.0502e-05 0)
(0.00103288 2.0259e-05 0)
(0.00103426 1.99544e-05 0)
(0.00103563 1.95949e-05 0)
(0.001037 1.91697e-05 0)
(0.00103836 1.86894e-05 0)
(0.00103972 1.81378e-05 0)
(0.00104107 1.75318e-05 0)
(0.00104241 1.68463e-05 0)
(0.00104375 1.61088e-05 0)
(0.00104506 1.52804e-05 0)
(0.00104639 1.44051e-05 0)
(0.00104768 1.34227e-05 0)
(0.001049 1.2403e-05 0)
(0.00105025 1.12527e-05 0)
(0.00105157 1.0082e-05 0)
(0.00105279 8.746e-06 0)
(0.0010541 7.41844e-06 0)
(0.00105528 5.87338e-06 0)
(0.00105662 4.38396e-06 0)
(0.00105775 2.59783e-06 0)
(0.00105915 9.43958e-07 0)
(0.00106024 -1.12557e-06 0)
(0.00106174 -2.93561e-06 0)
(0.00106277 -5.33963e-06 0)
(0.00106443 -7.28054e-06 0)
(0.00106535 -1.00961e-05 0)
(0.00106723 -1.21332e-05 0)
(0.00106792 -1.54881e-05 0)
(0.00106997 -1.75661e-05 0)
(0.001 5.87219e-07 0)
(0.0010001 1.75893e-06 0)
(0.00100029 2.91995e-06 0)
(0.00100057 4.06234e-06 0)
(0.00100095 5.17852e-06 0)
(0.00100141 6.26174e-06 0)
(0.00100196 7.3063e-06 0)
(0.00100258 8.30768e-06 0)
(0.00100328 9.26248e-06 0)
(0.00100404 1.01683e-05 0)
(0.00100485 1.10235e-05 0)
(0.00100572 1.18272e-05 0)
(0.00100664 1.25786e-05 0)
(0.0010076 1.32774e-05 0)
(0.0010086 1.39235e-05 0)
(0.00100963 1.45168e-05 0)
(0.0010107 1.50574e-05 0)
(0.00101179 1.55457e-05 0)
(0.00101291 1.59818e-05 0)
(0.00101405 1.63663e-05 0)
(0.0010152 1.66993e-05 0)
(0.00101637 1.69813e-05 0)
(0.00101756 1.72121e-05 0)
(0.00101875 1.73923e-05 0)
(0.00101996 1.75214e-05 0)
(0.00102117 1.75999e-05 0)
(0.00102239 1.76269e-05 0)
(0.00102361 1.76031e-05 0)
(0.00102484 1.75266e-05 0)
(0.00102606 1.73986e-05 0)
(0.00102728 1.72163e-05 0)
(0.00102851 1.69816e-05 0)
(0.00102972 1.669e-05 0)
(0.00103093 1.63448e-05 0)
(0.00103213 1.59392e-05 0)
(0.00103333 1.54786e-05 0)
(0.00103451 1.49529e-05 0)
(0.00103569 1.4371e-05 0)
(0.00103684 1.37178e-05 0)
(0.00103799 1.30075e-05 0)
(0.00103912 1.22174e-05 0)
(0.00104024 1.13704e-05 0)
(0.00104133 1.0432e-05 0)
(0.00104243 9.43873e-06 0)
(0.00104347 8.33798e-06 0)
(0.00104454 7.18772e-06 0)
(0.00104554 5.90741e-06 0)
(0.0010466 4.5885e-06 0)
(0.00104754 3.10735e-06 0)
(0.00104858 1.60745e-06 0)
(0.00104947 -1.01881e-07 0)
(0.00105051 -1.79588e-06 0)
(0.00105132 -3.77128e-06 0)
(0.00105241 -5.677e-06 0)
(0.00105315 -7.97312e-06 0)
(0.00105431 -1.01069e-05 0)
(0.00105494 -1.27922e-05 0)
(0.00105621 -1.516e-05 0)
(0.00105661 -1.83254e-05 0)
(0.0010579 -2.09189e-05 0)
(0.001 4.69929e-07 0)
(0.00100008 1.40859e-06 0)
(0.00100024 2.34067e-06 0)
(0.00100047 3.26074e-06 0)
(0.00100078 4.16347e-06 0)
(0.00100116 5.04389e-06 0)
(0.00100161 5.89756e-06 0)
(0.00100213 6.72069e-06 0)
(0.00100271 7.51009e-06 0)
(0.00100335 8.26319e-06 0)
(0.00100405 8.97787e-06 0)
(0.00100479 9.65244e-06 0)
(0.00100558 1.02856e-05 0)
(0.00100641 1.08764e-05 0)
(0.00100727 1.14242e-05 0)
(0.00100818 1.19284e-05 0)
(0.00100911 1.23887e-05 0)
(0.00101007 1.2805e-05 0)
(0.00101105 1.31769e-05 0)
(0.00101206 1.35046e-05 0)
(0.00101308 1.37878e-05 0)
(0.00101412 1.40266e-05 0)
(0.00101517 1.42207e-05 0)
(0.00101624 1.43701e-05 0)
(0.00101731 1.44743e-05 0)
(0.00101839 1.45334e-05 0)
(0.00101947 1.45466e-05 0)
(0.00102056 1.45138e-05 0)
(0.00102165 1.4434e-05 0)
(0.00102274 1.43071e-05 0)
(0.00102382 1.41314e-05 0)
(0.0010249 1.39071e-05 0)
(0.00102597 1.36318e-05 0)
(0.00102703 1.33059e-05 0)
(0.00102808 1.29259e-05 0)
(0.00102912 1.24931e-05 0)
(0.00103014 1.20021e-05 0)
(0.00103115 1.14556e-05 0)
(0.00103213 1.0846e-05 0)
(0.0010331 1.01776e-05 0)
(0.00103404 9.43967e-06 0)
(0.00103498 8.6396e-06 0)
(0.00103586 7.76166e-06 0)
(0.00103675 6.818e-06 0)
(0.00103758 5.78561e-06 0)
(0.00103841 4.68401e-06 0)
(0.00103917 3.47912e-06 0)
(0.00103995 2.20208e-06 0)
(0.00104064 8.01972e-07 0)
(0.00104137 -6.7126e-07 0)
(0.00104198 -2.29286e-06 0)
(0.00104268 -3.98369e-06 0)
(0.00104319 -5.8589e-06 0)
(0.00104386 -7.7949e-06 0)
(0.00104426 -9.9695e-06 0)
(0.00104492 -1.21867e-05 0)
(0.00104518 -1.47195e-05 0)
(0.00104583 -1.72542e-05 0)
(0.00104585 -2.02143e-05 0)
(0.00104642 -2.30935e-05 0)
(0.001 3.72822e-07 0)
(0.00100007 1.11814e-06 0)
(0.0010002 1.85932e-06 0)
(0.0010004 2.59246e-06 0)
(0.00100066 3.31373e-06 0)
(0.00100098 4.01946e-06 0)
(0.00100137 4.70625e-06 0)
(0.00100181 5.37104e-06 0)
(0.00100231 6.01115e-06 0)
(0.00100286 6.62422e-06 0)
(0.00100346 7.20827e-06 0)
(0.0010041 7.76161e-06 0)
(0.00100479 8.28281e-06 0)
(0.00100551 8.77075e-06 0)
(0.00100627 9.22449e-06 0)
(0.00100707 9.64329e-06 0)
(0.00100789 1.00265e-05 0)
(0.00100874 1.03737e-05 0)
(0.00100961 1.06844e-05 0)
(0.00101051 1.09583e-05 0)
(0.00101142 1.11949e-05 0)
(0.00101235 1.1394e-05 0)
(0.00101329 1.15553e-05 0)
(0.00101424 1.16783e-05 0)
(0.0010152 1.17626e-05 0)
(0.00101616 1.18079e-05 0)
(0.00101713 1.18135e-05 0)
(0.0010181 1.17789e-05 0)
(0.00101907 1.17034e-05 0)
(0.00102003 1.15863e-05 0)
(0.00102099 1.14265e-05 0)
(0.00102195 1.12233e-05 0)
(0.00102289 1.09753e-05 0)
(0.00102381 1.06814e-05 0)
(0.00102473 1.03402e-05 0)
(0.00102562 9.95006e-06 0)
(0.0010265 9.50944e-06 0)
(0.00102736 9.01601e-06 0)
(0.00102818 8.46829e-06 0)
(0.00102899 7.86299e-06 0)
(0.00102976 7.19881e-06 0)
(0.00103051 6.47105e-06 0)
(0.00103122 5.679e-06 0)
(0.0010319 4.81579e-06 0)
(0.00103253 3.88204e-06 0)
(0.00103313 2.86744e-06 0)
(0.00103367 1.77538e-06 0)
(0.00103419 5.899e-07 0)
(0.00103463 -6.80311e-07 0)
(0.00103507 -2.06015e-06 0)
(0.00103539 -3.53276e-06 0)
(0.00103574 -5.13871e-06 0)
(0.00103593 -6.84564e-06 0)
(0.00103618 -8.71753e-06 0)
(0.00103622 -1.06956e-05 0)
(0.00103638 -1.28815e-05 0)
(0.00103623 -1.51731e-05 0)
(0.00103629 -1.77313e-05 0)
(0.00103587 -2.03826e-05 0)
(0.00103573 -2.3377e-05 0)
(0.001 2.89922e-07 0)
(0.00100006 8.70061e-07 0)
(0.00100017 1.44773e-06 0)
(0.00100034 2.0201e-06 0)
(0.00100057 2.58438e-06 0)
(0.00100085 3.13785e-06 0)
(0.00100119 3.67793e-06 0)
(0.00100157 4.20226e-06 0)
(0.00100201 4.70869e-06 0)
(0.00100249 5.19529e-06 0)
(0.00100302 5.66036e-06 0)
(0.00100359 6.10239e-06 0)
(0.0010042 6.52008e-06 0)
(0.00100484 6.91232e-06 0)
(0.00100552 7.27813e-06 0)
(0.00100623 7.61667e-06 0)
(0.00100696 7.92725e-06 0)
(0.00100772 8.20919e-06 0)
(0.00100851 8.46198e-06 0)
(0.00100931 8.68506e-06 0)
(0.00101013 8.878e-06 0)
(0.00101097 9.04028e-06 0)
(0.00101181 9.17152e-06 0)
(0.00101267 9.27116e-06 0)
(0.00101353 9.33882e-06 0)
(0.0010144 9.37382e-06 0)
(0.00101527 9.37578e-06 0)
(0.00101614 9.3438e-06 0)
(0.00101701 9.27753e-06 0)
(0.00101787 9.17573e-06 0)
(0.00101872 9.03812e-06 0)
(0.00101957 8.86299e-06 0)
(0.00102039 8.65022e-06 0)
(0.00102121 8.39737e-06 0)
(0.001022 8.1047e-06 0)
(0.00102277 7.76869e-06 0)
(0.00102352 7.39031e-06 0)
(0.00102424 6.96438e-06 0)
(0.00102493 6.4932e-06 0)
(0.00102559 5.969e-06 0)
(0.00102621 5.39637e-06 0)
(0.00102679 4.76354e-06 0)
(0.00102733 4.07902e-06 0)
(0.00102783 3.3247e-06 0)
(0.00102827 2.51569e-06 0)
(0.00102867 1.62385e-06 0)
(0.00102899 6.7533e-07 0)
(0.00102928 -3.74141e-07 0)
(0.00102948 -1.47992e-06 0)
(0.00102964 -2.7122e-06 0)
(0.00102969 -3.99724e-06 0)
(0.00102971 -5.44648e-06 0)
(0.00102959 -6.93697e-06 0)
(0.00102945 -8.6462e-06 0)
(0.00102913 -1.03712e-05 0)
(0.00102882 -1.23955e-05 0)
(0.00102826 -1.43862e-05 0)
(0.00102775 -1.67968e-05 0)
(0.00102687 -1.90818e-05 0)
(0.00102608 -2.19642e-05 0)
(0.001 2.17189e-07 0)
(0.00100005 6.52328e-07 0)
(0.00100015 1.08625e-06 0)
(0.00100031 1.51692e-06 0)
(0.00100051 1.94232e-06 0)
(0.00100076 2.36048e-06 0)
(0.00100106 2.76952e-06 0)
(0.0010014 3.16765e-06 0)
(0.0010018 3.55324e-06 0)
(0.00100223 3.92479e-06 0)
(0.0010027 4.28094e-06 0)
(0.00100321 4.62046e-06 0)
(0.00100376 4.94225e-06 0)
(0.00100435 5.24532e-06 0)
(0.00100496 5.52881e-06 0)
(0.0010056 5.79192e-06 0)
(0.00100627 6.03398e-06 0)
(0.00100696 6.25432e-06 0)
(0.00100768 6.45243e-06 0)
(0.00100841 6.62772e-06 0)
(0.00100916 6.77975e-06 0)
(0.00100992 6.90798e-06 0)
(0.00101069 7.01203e-06 0)
(0.00101147 7.09129e-06 0)
(0.00101226 7.14546e-06 0)
(0.00101305 7.17378e-06 0)
(0.00101384 7.17601e-06 0)
(0.00101463 7.15117e-06 0)
(0.00101541 7.09913e-06 0)
(0.00101619 7.01852e-06 0)
(0.00101695 6.90942e-06 0)
(0.00101771 6.7699e-06 0)
(0.00101844 6.60037e-06 0)
(0.00101916 6.39808e-06 0)
(0.00101985 6.16405e-06 0)
(0.00102052 5.8942e-06 0)
(0.00102116 5.59066e-06 0)
(0.00102177 5.24733e-06 0)
(0.00102234 4.86823e-06 0)
(0.00102288 4.44407e-06 0)
(0.00102337 3.98206e-06 0)
(0.00102382 3.4679e-06 0)
(0.00102421 2.91418e-06 0)
(0.00102455 2.29859e-06 0)
(0.00102483 1.64265e-06 0)
(0.00102505 9.11284e-07 0)
(0.00102519 1.4062e-07 0)
(0.00102527 -7.24762e-07 0)
(0.00102526 -1.62517e-06 0)
(0.00102518 -2.64932e-06 0)
(0.00102498 -3.69814e-06 0)
(0.00102471 -4.913e-06 0)
(0.00102431 -6.13068e-06 0)
(0.00102383 -7.57731e-06 0)
(0.00102317 -8.98542e-06 0)
(0.00102245 -1.07185e-05 0)
(0.0010215 -1.2339e-05 0)
(0.00102049 -1.44318e-05 0)
(0.00101918 -1.628e-05 0)
(0.0010178 -1.88247e-05 0)
(0.001 1.51622e-07 0)
(0.00100005 4.55999e-07 0)
(0.00100014 7.60153e-07 0)
(0.00100028 1.0627e-06 0)
(0.00100046 1.36225e-06 0)
(0.00100069 1.65744e-06 0)
(0.00100097 1.94695e-06 0)
(0.00100129 2.22955e-06 0)
(0.00100165 2.50407e-06 0)
(0.00100204 2.76941e-06 0)
(0.00100248 3.02457e-06 0)
(0.00100295 3.26864e-06 0)
(0.00100346 3.50077e-06 0)
(0.001004 3.72018e-06 0)
(0.00100456 3.9262e-06 0)
(0.00100516 4.11817e-06 0)
(0.00100578 4.29554e-06 0)
(0.00100642 4.45776e-06 0)
(0.00100708 4.60437e-06 0)
(0.00100776 4.73488e-06 0)
(0.00100846 4.84891e-06 0)
(0.00100917 4.94598e-06 0)
(0.00100988 5.0258e-06 0)
(0.00101061 5.0878e-06 0)
(0.00101134 5.13177e-06 0)
(0.00101207 5.15704e-06 0)
(0.0010128 5.16346e-06 0)
(0.00101353 5.15017e-06 0)
(0.00101425 5.11715e-06 0)
(0.00101496 5.06321e-06 0)
(0.00101566 4.98855e-06 0)
(0.00101634 4.89147e-06 0)
(0.00101701 4.77255e-06 0)
(0.00101765 4.62933e-06 0)
(0.00101827 4.463e-06 0)
(0.00101886 4.26992e-06 0)
(0.00101941 4.0524e-06 0)
(0.00101994 3.80487e-06 0)
(0.00102042 3.53153e-06 0)
(0.00102085 3.22383e-06 0)
(0.00102124 2.88906e-06 0)
(0.00102158 2.51399e-06 0)
(0.00102186 2.11105e-06 0)
(0.00102208 1.65951e-06 0)
(0.00102223 1.18033e-06 0)
(0.00102231 6.40863e-07 0)
(0.0010223 7.59316e-08 0)
(0.00102222 -5.66083e-07 0)
(0.00102203 -1.22774e-06 0)
(0.00102176 -1.99178e-06 0)
(0.00102136 -2.76371e-06 0)
(0.00102086 -3.67592e-06 0)
(0.00102022 -4.57328e-06 0)
(0.00101946 -5.66815e-06 0)
(0.00101853 -6.70614e-06 0)
(0.00101747 -8.02969e-06 0)
(0.0010162 -9.22226e-06 0)
(0.00101478 -1.08376e-05 0)
(0.00101309 -1.21914e-05 0)
(0.00101124 -1.41801e-05 0)
(0.001 9.08291e-08 0)
(0.00100005 2.73929e-07 0)
(0.00100013 4.57653e-07 0)
(0.00100026 6.41163e-07 0)
(0.00100044 8.23619e-07 0)
(0.00100065 1.00419e-06 0)
(0.00100091 1.18208e-06 0)
(0.00100121 1.35651e-06 0)
(0.00100155 1.52675e-06 0)
(0.00100193 1.69213e-06 0)
(0.00100234 1.852e-06 0)
(0.00100279 2.00575e-06 0)
(0.00100327 2.15286e-06 0)
(0.00100378 2.29278e-06 0)
(0.00100431 2.42508e-06 0)
(0.00100488 2.54929e-06 0)
(0.00100547 2.66505e-06 0)
(0.00100607 2.77197e-06 0)
(0.0010067 2.86972e-06 0)
(0.00100735 2.95796e-06 0)
(0.00100801 3.03642e-06 0)
(0.00100868 3.10476e-06 0)
(0.00100936 3.16278e-06 0)
(0.00101005 3.21008e-06 0)
(0.00101074 3.24652e-06 0)
(0.00101143 3.27163e-06 0)
(0.00101213 3.28533e-06 0)
(0.00101281 3.28703e-06 0)
(0.00101349 3.27675e-06 0)
(0.00101416 3.25367e-06 0)
(0.00101481 3.21797e-06 0)
(0.00101545 3.16852e-06 0)
(0.00101607 3.10577e-06 0)
(0.00101666 3.02803e-06 0)
(0.00101723 2.93626e-06 0)
(0.00101777 2.82793e-06 0)
(0.00101827 2.7048e-06 0)
(0.00101873 2.56305e-06 0)
(0.00101915 2.40578e-06 0)
(0.00101952 2.22711e-06 0)
(0.00101984 2.03233e-06 0)
(0.00102011 1.81224e-06 0)
(0.00102031 1.57578e-06 0)
(0.00102044 1.30851e-06 0)
(0.0010205 1.02534e-06 0)
(0.00102048 7.03441e-07 0)
(0.00102038 3.67543e-07 0)
(0.00102018 -1.87034e-08 0)
(0.00101988 -4.14489e-07 0)
(0.00101946 -8.77486e-07 0)
(0.00101893 -1.3407e-06 0)
(0.00101827 -1.89669e-06 0)
(0.00101746 -2.43579e-06 0)
(0.0010165 -3.10725e-06 0)
(0.00101538 -3.73149e-06 0)
(0.00101408 -4.54954e-06 0)
(0.00101257 -5.26664e-06 0)
(0.00101086 -6.27354e-06 0)
(0.00100891 -7.08536e-06 0)
(0.00100671 -8.33704e-06 0)
(0.001 3.2757e-08 0)
(0.00100004 9.99732e-08 0)
(0.00100013 1.68568e-07 0)
(0.00100026 2.38206e-07 0)
(0.00100042 3.08553e-07 0)
(0.00100064 3.79274e-07 0)
(0.00100089 4.50041e-07 0)
(0.00100118 5.20537e-07 0)
(0.00100151 5.90456e-07 0)
(0.00100187 6.59505e-07 0)
(0.00100227 7.27407e-07 0)
(0.00100271 7.93898e-07 0)
(0.00100317 8.58731e-07 0)
(0.00100367 9.21673e-07 0)
(0.00100419 9.82509e-07 0)
(0.00100474 1.04103e-06 0)
(0.00100532 1.09707e-06 0)
(0.00100591 1.15042e-06 0)
(0.00100652 1.20093e-06 0)
(0.00100715 1.24845e-06 0)
(0.0010078 1.29283e-06 0)
(0.00100845 1.33393e-06 0)
(0.00100911 1.37164e-06 0)
(0.00100978 1.40579e-06 0)
(0.00101046 1.43631e-06 0)
(0.00101113 1.46301e-06 0)
(0.0010118 1.48586e-06 0)
(0.00101247 1.50463e-06 0)
(0.00101313 1.51931e-06 0)
(0.00101378 1.52963e-06 0)
(0.00101441 1.53565e-06 0)
(0.00101503 1.53697e-06 0)
(0.00101562 1.53378e-06 0)
(0.00101619 1.52547e-06 0)
(0.00101674 1.51243e-06 0)
(0.00101725 1.49376e-06 0)
(0.00101772 1.47014e-06 0)
(0.00101816 1.44023e-06 0)
(0.00101855 1.40523e-06 0)
(0.00101889 1.36311e-06 0)
(0.00101918 1.3159e-06 0)
(0.0010194 1.26038e-06 0)
(0.00101957 1.19984e-06 0)
(0.00101966 1.12918e-06 0)
(0.00101968 1.05384e-06 0)
(0.00101961 9.65581e-07 0)
(0.00101945 8.73396e-07 0)
(0.0010192 7.64132e-07 0)
(0.00101883 6.52593e-07 0)
(0.00101835 5.18099e-07 0)
(0.00101775 3.85167e-07 0)
(0.00101701 2.20589e-07 0)
(0.00101612 6.42441e-08 0)
(0.00101506 -1.37723e-07 0)
(0.00101384 -3.20334e-07 0)
(0.00101242 -5.70497e-07 0)
(0.00101079 -7.81565e-07 0)
(0.00100894 -1.09436e-06 -3.95946e-38)
(0.00100684 -1.33375e-06 0)
(0.00100447 -1.72864e-06 0)
(0.001 -2.44363e-08 0)
(0.00100004 -7.13686e-08 0)
(0.00100013 -1.16206e-07 0)
(0.00100026 -1.58793e-07 0)
(0.00100042 -1.98979e-07 0)
(0.00100064 -2.36614e-07 0)
(0.00100089 -2.71562e-07 0)
(0.00100118 -3.03697e-07 0)
(0.00100151 -3.32907e-07 0)
(0.00100187 -3.59093e-07 0)
(0.00100228 -3.82172e-07 0)
(0.00100271 -4.02068e-07 0)
(0.00100318 -4.18721e-07 0)
(0.00100367 -4.32077e-07 0)
(0.0010042 -4.42096e-07 0)
(0.00100475 -4.48734e-07 0)
(0.00100532 -4.51971e-07 0)
(0.00100592 -4.51772e-07 0)
(0.00100653 -4.48127e-07 0)
(0.00100716 -4.40998e-07 0)
(0.00100781 -4.30377e-07 0)
(0.00100847 -4.16213e-07 0)
(0.00100913 -3.98501e-07 0)
(0.0010098 -3.77165e-07 0)
(0.00101048 -3.52205e-07 0)
(0.00101116 -3.23502e-07 0)
(0.00101183 -2.91065e-07 0)
(0.0010125 -2.54709e-07 0)
(0.00101316 -2.14462e-07 0)
(0.00101381 -1.70044e-07 0)
(0.00101445 -1.21525e-07 0)
(0.00101507 -6.84856e-08 0)
(0.00101566 -1.10813e-08 0)
(0.00101624 5.13106e-08 0)
(0.00101678 1.18384e-07 0)
(0.0010173 1.91054e-07 0)
(0.00101778 2.68758e-07 0)
(0.00101821 3.52843e-07 0)
(0.00101861 4.42298e-07 0)
(0.00101895 5.39188e-07 0)
(0.00101925 6.41757e-07 0)
(0.00101948 7.53371e-07 0)
(0.00101965 8.71156e-07 0)
(0.00101974 1.00038e-06 0)
(0.00101977 1.13598e-06 0)
(0.0010197 1.28597e-06 0)
(0.00101955 1.44178e-06 0)
(0.0010193 1.61613e-06 0)
(0.00101894 1.79489e-06 0)
(0.00101847 1.99827e-06 0)
(0.00101787 2.20307e-06 0)
(0.00101713 2.44178e-06 0)
(0.00101625 2.67629e-06 0)
(0.0010152 2.95901e-06 0)
(0.00101398 3.22719e-06 0)
(0.00101257 3.56577e-06 0)
(0.00101095 3.87102e-06 0)
(0.0010091 4.28127e-06 3.95946e-38)
(0.00100701 4.62468e-06 0)
(0.00100466 5.12737e-06 0)
(0.001 -8.25577e-08 0)
(0.00100005 -2.45505e-07 0)
(0.00100013 -4.05636e-07 0)
(0.00100026 -5.62294e-07 0)
(0.00100044 -7.14824e-07 0)
(0.00100066 -8.62583e-07 0)
(0.00100092 -1.00496e-06 0)
(0.00100122 -1.14137e-06 0)
(0.00100156 -1.27128e-06 0)
(0.00100193 -1.3942e-06 0)
(0.00100235 -1.50968e-06 0)
(0.0010028 -1.6173e-06 0)
(0.00100328 -1.7167e-06 0)
(0.00100379 -1.80755e-06 0)
(0.00100433 -1.88955e-06 0)
(0.0010049 -1.96242e-06 0)
(0.00100549 -2.02595e-06 0)
(0.0010061 -2.07988e-06 0)
(0.00100674 -2.12405e-06 0)
(0.00100739 -2.15824e-06 0)
(0.00100805 -2.18229e-06 0)
(0.00100873 -2.19597e-06 0)
(0.00100941 -2.19918e-06 0)
(0.00101011 -2.1916e-06 0)
(0.00101081 -2.17316e-06 0)
(0.0010115 -2.14347e-06 0)
(0.0010122 -2.1025e-06 0)
(0.0010129 -2.04968e-06 0)
(0.00101358 -1.98506e-06 0)
(0.00101426 -1.90784e-06 0)
(0.00101492 -1.81819e-06 0)
(0.00101557 -1.71495e-06 0)
(0.00101619 -1.59855e-06 0)
(0.0010168 -1.46728e-06 0)
(0.00101737 -1.32199e-06 0)
(0.00101792 -1.16015e-06 0)
(0.00101843 -9.83371e-07 0)
(0.0010189 -7.87804e-07 0)
(0.00101933 -5.76383e-07 0)
(0.00101972 -3.43213e-07 0)
(0.00102005 -9.34226e-08 0)
(0.00102033 1.82171e-07 0)
(0.00102054 4.74956e-07 0)
(0.00102069 7.99284e-07 0)
(0.00102076 1.14097e-06 0)
(0.00102076 1.52273e-06 0)
(0.00102067 1.92056e-06 0)
(0.00102048 2.3701e-06 0)
(0.0010202 2.83158e-06 0)
(0.0010198 3.36186e-06 0)
(0.00101928 3.89565e-06 0)
(0.00101864 4.5241e-06 0)
(0.00101785 5.1401e-06 0)
(0.00101691 5.89037e-06 0)
(0.0010158 6.59902e-06 0)
(0.00101452 7.50312e-06 0)
(0.00101304 8.31344e-06 0)
(0.00101136 9.41479e-06 0)
(0.00100942 1.03301e-05 0)
(0.00100725 1.16857e-05 0)
(0.001 -1.43486e-07 0)
(0.00100005 -4.28066e-07 0)
(0.00100014 -7.09061e-07 0)
(0.00100028 -9.85264e-07 0)
(0.00100047 -1.25547e-06 0)
(0.0010007 -1.51849e-06 0)
(0.00100097 -1.7732e-06 0)
(0.00100129 -2.01855e-06 0)
(0.00100165 -2.25355e-06 0)
(0.00100205 -2.4773e-06 0)
(0.00100249 -2.68898e-06 0)
(0.00100297 -2.88787e-06 0)
(0.00100348 -3.07329e-06 0)
(0.00100402 -3.24464e-06 0)
(0.00100459 -3.40141e-06 0)
(0.00100519 -3.54311e-06 0)
(0.00100582 -3.66935e-06 0)
(0.00100647 -3.7797e-06 0)
(0.00100714 -3.87387e-06 0)
(0.00100782 -3.95146e-06 0)
(0.00100853 -4.01225e-06 0)
(0.00100924 -4.05584e-06 0)
(0.00100997 -4.08202e-06 0)
(0.0010107 -4.09033e-06 0)
(0.00101144 -4.08063e-06 0)
(0.00101218 -4.0523e-06 0)
(0.00101293 -4.00526e-06 0)
(0.00101367 -3.93868e-06 0)
(0.0010144 -3.85255e-06 0)
(0.00101512 -3.74571e-06 0)
(0.00101583 -3.61834e-06 0)
(0.00101653 -3.46875e-06 0)
(0.00101721 -3.29747e-06 0)
(0.00101787 -3.10199e-06 0)
(0.0010185 -2.88349e-06 0)
(0.00101911 -2.63822e-06 0)
(0.00101968 -2.36844e-06 0)
(0.00102022 -2.06845e-06 0)
(0.00102072 -1.74237e-06 0)
(0.00102118 -1.3815e-06 0)
(0.00102159 -9.93011e-07 0)
(0.00102194 -5.63685e-07 0)
(0.00102224 -1.05817e-07 0)
(0.00102248 4.01121e-07 0)
(0.00102266 9.36632e-07 0)
(0.00102276 1.5334e-06 0)
(0.00102278 2.15783e-06 0)
(0.00102272 2.861e-06 0)
(0.00102256 3.58695e-06 0)
(0.00102231 4.4167e-06 0)
(0.00102194 5.2581e-06 0)
(0.00102147 6.24059e-06 0)
(0.00102086 7.21315e-06 0)
(0.00102013 8.38348e-06 0)
(0.00101924 9.50406e-06 0)
(0.00101821 1.09094e-05 0)