/*--------------------------------*- C++ -*----------------------------------*\
| =========                 |                                                 |
| \\      /  F ield         | OpenFOAM: The Open Source CFD Toolbox           |
|  \\    /   O peration     | Version:  2312                                  |
|   \\  /    A nd           | Website:  www.openfoam.com                      |
|    \\/     M anipulation  |                                                 |
\*---------------------------------------------------------------------------*/
FoamFile
{
    version     2.0;
    format      ascii;
    arch        "LSB;label=32;scalar=64";
    class       surfaceScalarField;
    location    "113000";
    object      phi;
}
// * * * * * * * * * * * * * * * * * * * * * * * * * * * * * * * * * * * * * //

dimensions      [0 3 -1 0 0 0 0];

oriented        oriented;

internalField   nonuniform List<scalar> 
5250
(
-1.44035e-05
2.44391e-07
-1.477e-05
3.66483e-07
-1.52656e-05
4.9561e-07
-1.58967e-05
6.31123e-07
-1.66673e-05
7.706e-07
-1.7579e-05
9.11648e-07
-1.86306e-05
1.05158e-06
-1.98178e-05
1.18718e-06
-2.11321e-05
1.31438e-06
-2.25608e-05
1.42867e-06
-2.4087e-05
1.52617e-06
-2.56922e-05
1.60522e-06
-2.73582e-05
1.666e-06
-2.9056e-05
1.69781e-06
-3.07531e-05
1.69707e-06
-3.24177e-05
1.66466e-06
-3.40178e-05
1.6001e-06
-3.55207e-05
1.50287e-06
-3.68934e-05
1.37269e-06
-3.8103e-05
1.20962e-06
-3.91183e-05
1.01523e-06
-3.99075e-05
7.89202e-07
-4.04394e-05
5.31952e-07
-4.06828e-05
2.43422e-07
-4.06134e-05
-6.94741e-08
-4.02305e-05
-3.82811e-07
-3.95116e-05
-7.18941e-07
-3.84421e-05
-1.06945e-06
-3.70131e-05
-1.42903e-06
-3.52202e-05
-1.79294e-06
-3.30635e-05
-2.15667e-06
-3.05476e-05
-2.51593e-06
-2.7681e-05
-2.86662e-06
-2.44761e-05
-3.20488e-06
-2.09489e-05
-3.52713e-06
-1.71189e-05
-3.83006e-06
-1.30082e-05
-4.1107e-06
-8.64185e-06
-4.36633e-06
-4.04746e-06
-4.59439e-06
7.4496e-07
-4.79242e-06
5.70721e-06
-4.96225e-06
1.08111e-05
-5.10384e-06
1.60279e-05
-5.21689e-06
2.13304e-05
-5.30249e-06
2.669e-05
-5.3596e-06
3.20746e-05
-5.38455e-06
3.7453e-05
-5.37845e-06
4.27966e-05
-5.34352e-06
4.80782e-05
-5.28161e-06
5.32728e-05
-5.19461e-06
5.83573e-05
-5.0845e-06
6.33107e-05
-4.95338e-06
6.81141e-05
-4.80341e-06
7.27509e-05
-4.63683e-06
7.72068e-05
-4.45587e-06
8.14695e-05
-4.26277e-06
8.55293e-05
-4.05976e-06
8.93783e-05
-3.84898e-06
9.30108e-05
-3.63253e-06
9.64232e-05
-3.4124e-06
9.96137e-05
-3.19046e-06
0.000102582
-2.96848e-06
0.00010533
-2.74808e-06
0.000107861
-2.53074e-06
0.000110179
-2.31779e-06
0.000112289
-2.11043e-06
0.000114199
-1.90968e-06
0.000115915
-1.71644e-06
0.000117447
-1.53135e-06
0.000118802
-1.35508e-06
0.00011999
-1.18797e-06
0.00012102
-1.03043e-06
0.000121902
-8.82352e-07
0.000122646
-7.43945e-07
0.000123261
-6.14846e-07
0.000123757
-4.95571e-07
0.000124142
-3.8546e-07
0.000124427
-2.84955e-07
0.00012462
-1.92382e-07
0.000124728
-1.08242e-07
0.000124757
-2.93526e-08
0.00012472
3.69377e-08
0.000124623
9.77499e-08
0.000124472
1.50611e-07
0.000124268
2.04265e-07
0.000124021
2.47157e-07
0.000123717
3.03172e-07
0.000123381
3.36127e-07
4.21723e-07
5.26383e-05
-3.10326e-07
5.31515e-05
-1.46674e-07
5.36197e-05
2.74382e-08
5.40252e-05
2.2557e-07
5.43746e-05
4.21179e-07
5.4671e-05
6.15255e-07
5.49179e-05
8.04769e-07
5.51199e-05
9.85118e-07
5.52852e-05
1.14906e-06
5.54277e-05
1.2862e-06
5.55669e-05
1.38696e-06
5.57273e-05
1.44484e-06
5.59378e-05
1.4555e-06
5.62208e-05
1.4148e-06
5.65988e-05
1.31907e-06
5.70973e-05
1.16612e-06
5.77424e-05
9.55044e-07
5.85596e-05
6.85639e-07
5.95752e-05
3.57095e-07
6.08175e-05
-3.26359e-08
6.22887e-05
-4.56034e-07
6.4019e-05
-9.41041e-07
6.60306e-05
-1.47971e-06
6.83406e-05
-2.06654e-06
7.0966e-05
-2.69484e-06
7.39384e-05
-3.35518e-06
7.72597e-05
-4.04027e-06
8.09327e-05
-4.74249e-06
8.49579e-05
-5.45419e-06
8.93326e-05
-6.16769e-06
9.40513e-05
-6.87538e-06
9.91052e-05
-7.56978e-06
0.000104482
-8.24367e-06
0.000110168
-8.89017e-06
0.000116143
-9.50289e-06
0.000122389
-1.00759e-05
0.000128882
-1.06038e-05
0.000135598
-1.10819e-05
0.00014251
-1.15061e-05
0.000149591
-1.18734e-05
0.000156812
-1.21832e-05
0.000164143
-1.2435e-05
0.000171554
-1.26286e-05
0.000179017
-1.27649e-05
0.000186502
-1.28447e-05
0.000193985
-1.28681e-05
0.000201442
-1.28347e-05
0.000208843
-1.27445e-05
0.000216161
-1.26002e-05
0.000223372
-1.24056e-05
0.000230452
-1.21645e-05
0.00023738
-1.18808e-05
0.000244135
-1.15584e-05
0.000250699
-1.12013e-05
0.000257057
-1.08137e-05
0.000263194
-1.03996e-05
0.000269097
-9.96304e-06
0.000274756
-9.5079e-06
0.000280162
-9.03802e-06
0.000285306
-8.55706e-06
0.000290184
-8.06852e-06
0.000294792
-7.57573e-06
0.000299125
-7.08182e-06
0.000303184
-6.58965e-06
0.000306968
-6.10195e-06
0.000310479
-5.62117e-06
0.000313719
-5.14952e-06
0.000316691
-4.68898e-06
0.000319401
-4.24129e-06
0.000321854
-3.80799e-06
0.000324057
-3.39031e-06
0.000326016
-2.98953e-06
0.00032774
-2.60639e-06
0.000329237
-2.24166e-06
0.000330518
-1.89552e-06
0.000331592
-1.56938e-06
0.000332469
-1.26288e-06
0.000333162
-9.77327e-07
0.00033368
-7.10204e-07
0.000334036
-4.64804e-07
0.000334242
-2.3535e-07
0.000334306
-2.72697e-08
0.000334244
1.6002e-07
0.000334072
3.22551e-07
0.000333788
4.88243e-07
0.000333424
6.11251e-07
0.000332962
7.64827e-07
0.000332458
8.40912e-07
1.01136e-06
0.000212341
-1.22479e-06
0.000213357
-1.16298e-06
0.000214474
-1.08961e-06
0.000215706
-1.00664e-06
0.000217045
-9.18005e-07
0.000218489
-8.2794e-07
0.000220034
-7.4084e-07
0.000221679
-6.59342e-07
0.000223419
-5.91052e-07
0.00022526
-5.55392e-07
0.000227205
-5.5722e-07
0.000229252
-6.02151e-07
0.000231403
-6.95841e-07
0.000233662
-8.4412e-07
0.000236033
-1.05178e-06
0.000238521
-1.32189e-06
0.000241131
-1.65547e-06
0.000243869
-2.05211e-06
0.000246738
-2.51211e-06
0.000249743
-3.03701e-06
0.000252913
-3.62635e-06
0.000256251
-4.27941e-06
0.000259764
-4.99235e-06
0.000263456
-5.75915e-06
0.000267333
-6.57146e-06
0.000271398
-7.42005e-06
0.000275654
-8.29604e-06
0.000280102
-9.19038e-06
0.000284741
-1.00937e-05
0.00028957
-1.09965e-05
0.000294584
-1.18892e-05
0.000299776
-1.27622e-05
0.000305139
-1.36065e-05
0.000310662
-1.44132e-05
0.000316333
-1.51742e-05
0.000322139
-1.58821e-05
0.000328066
-1.653e-05
0.000334096
-1.71124e-05
0.000340215
-1.76245e-05
0.000346404
-1.80633e-05
0.000352648
-1.84267e-05
0.000358926
-1.87135e-05
0.000365221
-1.89232e-05
0.000371512
-1.90559e-05
0.00037778
-1.91122e-05
0.000384004
-1.9093e-05
0.00039017
-1.89999e-05
0.000396261
-1.88354e-05
0.000402263
-1.8603e-05
0.000408164
-1.83066e-05
0.000413951
-1.79508e-05
0.00041961
-1.754e-05
0.000425131
-1.70792e-05
0.000430503
-1.65735e-05
0.000435717
-1.60278e-05
0.000440765
-1.54473e-05
0.000445639
-1.4837e-05
0.000450332
-1.42016e-05
0.00045484
-1.35462e-05
0.000459158
-1.2875e-05
0.000463283
-1.21927e-05
0.00046721
-1.15033e-05
0.000470939
-1.08107e-05
0.000474468
-1.01185e-05
0.000477796
-9.43022e-06
0.000480924
-8.74875e-06
0.000483851
-8.07717e-06
0.00048658
-7.41784e-06
0.000489112
-6.77337e-06
0.00049145
-6.14573e-06
0.000493596
-5.53657e-06
0.000495555
-4.94787e-06
0.000497329
-4.38025e-06
0.000498923
-3.83596e-06
0.000500341
-3.3138e-06
0.00050159
-2.81831e-06
0.000502672
-2.34489e-06
0.000503596
-1.90143e-06
0.000504363
-1.47688e-06
0.000504986
-1.08836e-06
0.000505463
-7.11853e-07
0.000505816
-3.80479e-07
0.000506021
-4.48875e-08
0.000506126
2.17319e-07
0.000506103
5.11499e-07
0.000506007
7.07485e-07
0.00050579
9.81324e-07
0.000505537
1.09368e-06
1.37722e-06
0.000454621
6.75744e-08
0.000453522
-6.44771e-08
0.000452615
-1.81835e-07
0.000451909
-3.01122e-07
0.000451416
-4.24569e-07
0.000451144
-5.56519e-07
0.000451105
-7.01689e-07
0.000451311
-8.64781e-07
0.00045177
-1.05089e-06
0.00045248
-1.26528e-06
0.000453435
-1.51239e-06
0.000454631
-1.7973e-06
0.000456061
-2.12592e-06
0.00045772
-2.50324e-06
0.000459601
-2.93253e-06
0.000461695
-3.4161e-06
0.000463995
-3.95618e-06
0.000466498
-4.55479e-06
0.000469197
-5.21073e-06
0.00047208
-5.92028e-06
0.000475136
-6.6818e-06
0.000478349
-7.4925e-06
0.000481705
-8.34849e-06
0.00048519
-9.24441e-06
0.000488792
-1.01736e-05
0.000492501
-1.11284e-05
0.000496305
-1.21005e-05
0.000500196
-1.3081e-05
0.000504163
-1.40607e-05
0.000508196
-1.503e-05
0.000512287
-1.59795e-05
0.000516424
-1.68998e-05
0.0005206
-1.77819e-05
0.000524803
-1.8617e-05
0.000529027
-1.93973e-05
0.00053326
-2.01155e-05
0.000537495
-2.07648e-05
0.000541722
-2.13397e-05
0.000545933
-2.18351e-05
0.000550116
-2.22472e-05
0.000554264
-2.25738e-05
0.000558365
-2.28147e-05
0.000562412
-2.29709e-05
0.000566399
-2.3043e-05
0.00057032
-2.30324e-05
0.000574167
-2.29406e-05
0.000577937
-2.27698e-05
0.000581625
-2.25229e-05
0.000585225
-2.22038e-05
0.000588735
-2.18166e-05
0.000592151
-2.13662e-05
0.000595468
-2.08573e-05
0.000598685
-2.02955e-05
0.000601797
-1.9686e-05
0.000604804
-1.90344e-05
0.000607702
-1.83459e-05
0.000610491
-1.76261e-05
0.00061317
-1.688e-05
0.000615737
-1.6113e-05
0.000618191
-1.53296e-05
0.000620533
-1.45348e-05
0.000622763
-1.37325e-05
0.000624879
-1.29274e-05
0.000626883
-1.21228e-05
0.000628776
-1.13226e-05
0.000630557
-1.05299e-05
0.000632227
-9.74762e-06
0.000633788
-8.97879e-06
0.00063524
-8.22516e-06
0.000636585
-7.49021e-06
0.000637822
-6.77355e-06
0.000638954
-6.08043e-06
0.000639981
-5.40725e-06
0.000640908
-4.76251e-06
0.000641731
-4.13709e-06
0.000642459
-3.54637e-06
0.000643086
-2.97157e-06
0.000643624
-2.43961e-06
0.000644063
-1.91626e-06
0.000644424
-1.44866e-06
0.000644688
-9.75848e-07
0.000644886
-5.78857e-07
0.000644997
-1.55532e-07
0.000645044
1.69858e-07
0.000644992
5.6322e-07
0.000644902
7.97487e-07
0.000644722
1.16144e-06
0.000644527
1.28889e-06
1.63614e-06
0.000694892
1.64341e-06
0.000693443
1.38404e-06
0.000692135
1.12605e-06
0.000690969
8.65819e-07
0.000689944
5.99762e-07
0.000689063
3.2463e-07
0.00068832
4.12869e-08
0.000687747
-2.91667e-07
0.00068734
-6.4391e-07
0.000687097
-1.02191e-06
0.000687018
-1.4334e-06
0.000687104
-1.88417e-06
0.000687356
-2.37761e-06
0.000687769
-2.91601e-06
0.000688338
-3.50144e-06
0.000689057
-4.13546e-06
0.00068992
-4.8187e-06
0.000690916
-5.55057e-06
0.000692034
-6.32925e-06
0.000693266
-7.15221e-06
0.000694601
-8.01656e-06
0.000696027
-8.91857e-06
0.000697532
-9.85342e-06
0.000699103
-1.08153e-05
0.000700727
-1.17976e-05
0.000702391
-1.27928e-05
0.000704084
-1.37931e-05
0.000705792
-1.47899e-05
0.000707506
-1.57747e-05
0.000709215
-1.67387e-05
0.000710909
-1.76734e-05
0.000712579
-1.85702e-05
0.000714219
-1.94211e-05
0.00071582
-2.02184e-05
0.000717378
-2.09552e-05
0.000718887
-2.1625e-05
0.000720345
-2.22223e-05
0.000721748
-2.27424e-05
0.000723094
-2.31816e-05
0.000724384
-2.35371e-05
0.000725618
-2.38074e-05
0.000726795
-2.39919e-05
0.000727915
-2.40905e-05
0.000728976
-2.41042e-05
0.000729979
-2.4036e-05
0.000730928
-2.3889e-05
0.000731824
-2.36661e-05
0.000732671
-2.33703e-05
0.000733473
-2.30053e-05
0.000734231
-2.25752e-05
0.00073495
-2.20849e-05
0.000735632
-2.1539e-05
0.000736279
-2.0943e-05
0.000736895
-2.03017e-05
0.000737482
-1.96208e-05
0.000738041
-1.89051e-05
0.000738575
-1.81601e-05
0.000739085
-1.73906e-05
0.000739574
-1.66016e-05
0.000740042
-1.57976e-05
0.00074049
-1.49831e-05
0.00074092
-1.41622e-05
0.000741331
-1.33386e-05
0.000741725
-1.25164e-05
0.0007421
-1.1698e-05
0.000742458
-1.08881e-05
0.000742798
-1.0087e-05
0.00074312
-9.30081e-06
0.000743421
-8.52702e-06
0.000743705
-7.77416e-06
0.000743967
-7.03534e-06
0.000744211
-6.3238e-06
0.000744429
-5.62576e-06
0.000744629
-4.96219e-06
0.0007448
-4.30879e-06
0.000744953
-3.69919e-06
0.000745074
-3.09272e-06
0.000745178
-2.54284e-06
0.000745245
-1.98391e-06
0.000745296
-1.49961e-06
0.000745307
-9.87069e-07
0.000745304
-5.75856e-07
0.000745258
-1.09327e-07
0.000745199
2.296e-07
0.000745092
6.69292e-07
0.00074498
9.09594e-07
0.000744823
1.31853e-06
0.000744665
1.44743e-06
1.83341e-06
0.000840709
2.58121e-06
0.000839885
2.20757e-06
0.000839175
1.83639e-06
0.000838576
1.46428e-06
0.000838089
1.08693e-06
0.000837715
6.99105e-07
0.00083746
2.95859e-07
0.00083729
-1.22024e-07
0.000837212
-5.6534e-07
0.000837223
-1.03314e-06
0.000837318
-1.52797e-06
0.000837487
-2.05359e-06
0.000837723
-2.61328e-06
0.000838016
-3.20978e-06
0.00083836
-3.84472e-06
0.000838743
-4.51867e-06
0.000839156
-5.23131e-06
0.000839587
-5.98178e-06
0.000840026
-6.76859e-06
0.000840463
-7.5893e-06
0.000840887
-8.44071e-06
0.000841288
-9.31885e-06
0.000841653
-1.0219e-05
0.000841974
-1.11357e-05
0.000842239
-1.2063e-05
0.00084244
-1.29943e-05
0.00084257
-1.39227e-05
0.000842621
-1.48407e-05
0.000842587
-1.5741e-05
0.000842464
-1.6616e-05
0.00084225
-1.74585e-05
0.000841941
-1.82612e-05
0.000841537
-1.90174e-05
0.000841039
-1.97207e-05
0.000840449
-2.03653e-05
0.00083977
-2.09462e-05
0.000839007
-2.14588e-05
0.000838164
-2.18996e-05
0.000837248
-2.22658e-05
0.000836266
-2.25551e-05
0.000835225
-2.27664e-05
0.000834132
-2.2899e-05
0.000832996
-2.2954e-05
0.000831824
-2.29328e-05
0.000830627
-2.28382e-05
0.00082941
-2.26726e-05
0.000828183
-2.24387e-05
0.000826952
-2.21392e-05
0.000825724
-2.17777e-05
0.000824507
-2.13579e-05
0.000823306
-2.08843e-05
0.000822128
-2.03611e-05
0.000820978
-1.97931e-05
0.000819862
-1.91849e-05
0.000818782
-1.8541e-05
0.000817743
-1.78663e-05
0.000816748
-1.7165e-05
0.000815799
-1.6442e-05
0.000814899
-1.57009e-05
0.000814048
-1.49467e-05
0.000813247
-1.41821e-05
0.000812497
-1.34125e-05
0.000811797
-1.2639e-05
0.000811149
-1.18678e-05
0.000810549
-1.10979e-05
0.000809998
-1.03373e-05
0.000809492
-9.58155e-06
0.000809034
-8.84196e-06
0.000808616
-8.1091e-06
0.000808241
-7.39939e-06
0.000807902
-6.69626e-06
0.000807602
-6.02416e-06
0.000807332
-5.35588e-06
0.000807098
-4.72789e-06
0.000806887
-4.09784e-06
0.000806708
-3.51982e-06
0.000806544
-2.92934e-06
0.000806408
-2.40706e-06
0.000806282
-1.85697e-06
0.000806179
-1.39676e-06
0.000806078
-8.86082e-07
0.000805997
-4.95517e-07
0.000805909
-2.04582e-08
0.000805842
2.96328e-07
0.000805769
7.4163e-07
0.000805712
9.66606e-07
0.000805645
1.38602e-06
0.000805585
1.50717e-06
1.91121e-06
0.000898706
2.74815e-06
0.000898633
2.28043e-06
0.000898649
1.82072e-06
0.000898747
1.36608e-06
0.000898921
9.1332e-07
0.00089916
4.60008e-07
0.000899447
9.0708e-09
0.000899809
-4.8463e-07
0.000900224
-9.80126e-07
0.000900681
-1.49027e-06
0.000901173
-2.02006e-06
0.000901692
-2.57258e-06
0.000902229
-3.14942e-06
0.00090277
-3.75165e-06
0.000903306
-4.38038e-06
0.000903824
-5.03641e-06
0.000904312
-5.71975e-06
0.00090476
-6.42953e-06
0.000905156
-7.16416e-06
0.000905488
-7.92144e-06
0.000905746
-8.69863e-06
0.000905919
-9.49236e-06
0.000905999
-1.02987e-05
0.000905976
-1.11132e-05
0.000905844
-1.1931e-05
0.000905597
-1.27468e-05
0.000905229
-1.35551e-05
0.000904738
-1.43498e-05
0.000904122
-1.5125e-05
0.000903381
-1.58746e-05
0.000902515
-1.65928e-05
0.000901528
-1.72738e-05
0.000900423
-1.79123e-05
0.000899205
-1.85031e-05
0.000897882
-1.90418e-05
0.000896459
-1.95241e-05
0.000894947
-1.99468e-05
0.000893354
-2.03067e-05
0.00089169
-2.06018e-05
0.000889966
-2.08303e-05
0.000888191
-2.09916e-05
0.000886377
-2.10855e-05
0.000884536
-2.11129e-05
0.000882678
-2.10748e-05
0.000880813
-2.09728e-05
0.000878949
-2.08086e-05
0.000877095
-2.05846e-05
0.000875259
-2.03034e-05
0.000873449
-1.9968e-05
0.000871673
-1.95817e-05
0.000869937
-1.9148e-05
0.000868247
-1.86708e-05
0.000866607
-1.81538e-05
0.000865024
-1.76012e-05
0.000863499
-1.70164e-05
0.000862037
-1.64043e-05
0.000860639
-1.57675e-05
0.000859309
-1.51114e-05
0.000858046
-1.44377e-05
0.000856851
-1.37524e-05
0.000855725
-1.30556e-05
0.000854667
-1.23548e-05
0.000853676
-1.16477e-05
0.000852752
-1.0944e-05
0.000851892
-1.02377e-05
0.000851097
-9.54196e-06
0.000850361
-8.846e-06
0.000849687
-8.1678e-06
0.000849068
-7.48973e-06
0.000848505
-6.83724e-06
0.000847992
-6.18313e-06
0.000847532
-5.5636e-06
0.000847114
-4.93788e-06
0.000846744
-4.35788e-06
0.00084641
-3.76367e-06
0.000846119
-3.22934e-06
0.000845859
-2.66879e-06
0.000845637
-2.18558e-06
0.000845438
-1.65778e-06
0.000845273
-1.23211e-06
0.000845123
-7.36279e-07
0.000845001
-3.73385e-07
0.000844889
9.15019e-08
0.000844806
3.80103e-07
0.000844729
8.17744e-07
0.000844673
1.02332e-06
0.000844619
1.43957e-06
0.000844576
1.55041e-06
1.95803e-06
0.000924307
2.39129e-06
0.000924737
1.85083e-06
0.000925236
1.32174e-06
0.000925802
8.00196e-07
0.000926434
2.80592e-07
0.000927126
-2.31836e-07
0.000927875
-7.39733e-07
0.000928647
-1.25659e-06
0.000929448
-1.78174e-06
0.000930273
-2.31527e-06
0.000931112
-2.85855e-06
0.000931953
-3.41398e-06
0.000932788
-3.98374e-06
0.000933605
-4.56926e-06
0.000934396
-5.17137e-06
0.00093515
-5.79056e-06
0.000935857
-6.42682e-06
0.000936507
-7.07943e-06
0.00093709
-7.74712e-06
0.000937597
-8.42808e-06
0.000938019
-9.1202e-06
0.000938347
-9.82089e-06
0.000938576
-1.05271e-05
0.000938698
-1.12354e-05
0.000938709
-1.19418e-05
0.000938604
-1.2642e-05
0.00093838
-1.33317e-05
0.000938037
-1.4006e-05
0.000937572
-1.46605e-05
0.000936988
-1.52902e-05
0.000936285
-1.58905e-05
0.000935469
-1.64569e-05
0.000934542
-1.69851e-05
0.00093351
-1.74711e-05
0.000932379
-1.79112e-05
0.000931157
-1.83021e-05
0.000929851
-1.86411e-05
0.00092847
-1.89256e-05
0.000927023
-1.91541e-05
0.000925518
-1.93253e-05
0.000923965
-1.94387e-05
0.000922373
-1.9494e-05
0.000920752
-1.94915e-05
0.000919109
-1.94317e-05
0.000917452
-1.93159e-05
0.000915789
-1.91458e-05
0.000914128
-1.89234e-05
0.000912475
-1.86509e-05
0.000910838
-1.83308e-05
0.000909222
-1.7966e-05
0.000907633
-1.75592e-05
0.000906076
-1.7114e-05
0.000904556
-1.6633e-05
0.000903075
-1.61205e-05
0.000901637
-1.55786e-05
0.000900245
-1.50123e-05
0.000898901
-1.4423e-05
0.000897606
-1.38167e-05
0.000896361
-1.31932e-05
0.000895169
-1.256e-05
0.000894028
-1.19146e-05
0.00089294
-1.12665e-05
0.000891902
-1.06103e-05
0.000890917
-9.95861e-06
0.000889981
-9.30154e-06
0.000889095
-8.65636e-06
0.000888256
-8.00705e-06
0.000887466
-7.37747e-06
0.000886719
-6.74308e-06
0.000886019
-6.1369e-06
0.000885359
-5.52293e-06
0.000884742
-4.94709e-06
0.000884162
-4.3574e-06
0.000883622
-3.81803e-06
0.000883114
-3.25537e-06
0.000882642
-2.75767e-06
0.000882197
-2.22417e-06
0.000881788
-1.77594e-06
0.000881401
-1.27126e-06
0.000881044
-8.74861e-07
0.000880706
-3.9859e-07
0.000880399
-6.63118e-08
0.000880102
3.88792e-07
0.000879826
6.5608e-07
0.00087956
1.08348e-06
0.000879311
1.27285e-06
0.000879071
1.67892e-06
0.000878842
1.77938e-06
2.16729e-06
0.000963352
2.00642e-06
0.000963803
1.40013e-06
0.000964311
8.1322e-07
0.000964867
2.43828e-07
0.000965469
-3.20765e-07
0.000966116
-8.78836e-07
0.000966803
-1.42675e-06
0.000967515
-1.96921e-06
0.000968244
-2.51072e-06
0.000968983
-3.05408e-06
0.000969725
-3.6006e-06
0.000970463
-4.15142e-06
0.000971187
-4.70807e-06
0.00097189
-5.27197e-06
0.000972563
-5.84409e-06
0.000973197
-6.42487e-06
0.000973784
-7.01438e-06
0.000974317
-7.61222e-06
0.000974788
-8.21749e-06
0.000975188
-8.82881e-06
0.000975513
-9.44445e-06
0.000975754
-1.00624e-05
0.000975907
-1.06801e-05
0.000975966
-1.12949e-05
0.000975928
-1.19035e-05
0.000975789
-1.25024e-05
0.000975545
-1.30883e-05
0.000975196
-1.36573e-05
0.000974742
-1.42057e-05
0.000974181
-1.47298e-05
0.000973516
-1.52257e-05
0.000972749
-1.56899e-05
0.000971883
-1.6119e-05
0.000970922
-1.65095e-05
0.000969869
-1.68588e-05
0.000968731
-1.71641e-05
0.000967513
-1.74231e-05
0.000966222
-1.7634e-05
0.000964863
-1.77955e-05
0.000963444
-1.79062e-05
0.000961971
-1.79656e-05
0.00096045
-1.79736e-05
0.000958889
-1.79307e-05
0.000957295
-1.78373e-05
0.000955674
-1.76947e-05
0.000954033
-1.75044e-05
0.000952377
-1.72682e-05
0.000950715
-1.69881e-05
0.00094905
-1.66659e-05
0.000947388
-1.63045e-05
0.000945735
-1.59058e-05
0.000944094
-1.54734e-05
0.00094247
-1.50091e-05
0.000940867
-1.4517e-05
0.000939287
-1.39986e-05
0.000937734
-1.3459e-05
0.000936209
-1.28985e-05
0.000934716
-1.23234e-05
0.000933255
-1.17324e-05
0.000931829
-1.11336e-05
0.000930437
-1.05233e-05
0.000929083
-9.91208e-06
0.000927765
-9.29271e-06
0.000926486
-8.67933e-06
0.000925244
-8.05983e-06
0.000924041
-7.45348e-06
0.000922876
-6.84149e-06
0.000921749
-6.25043e-06
0.000920658
-5.65242e-06
0.000919605
-5.08416e-06
0.000918588
-4.5058e-06
0.000917608
-3.96679e-06
0.000916662
-3.41167e-06
0.000915753
-2.90874e-06
0.000914877
-2.37939e-06
0.000914036
-1.91667e-06
0.000913226
-1.41423e-06
0.000912447
-9.97059e-07
0.000911699
-5.23585e-07
0.000910987
-1.6251e-07
0.000910298
2.90975e-07
0.00090963
6.01055e-07
0.000908991
1.02779e-06
0.000908374
1.27319e-06
0.000907783
1.67457e-06
0.000907209
1.84664e-06
0.000906661
2.22696e-06
0.000906124
2.31639e-06
2.67044e-06
0.00100468
2.04587e-06
0.00100469
1.39774e-06
0.00100472
7.75905e-07
0.00100479
1.80608e-07
0.00100489
-4.20222e-07
0.00100501
-1.00467e-06
0.00100516
-1.57303e-06
0.00100532
-2.12932e-06
0.00100549
-2.67814e-06
0.00100565
-3.22226e-06
0.00100582
-3.76275e-06
0.00100597
-4.30102e-06
0.0010061
-4.83885e-06
0.0010062
-5.37753e-06
0.00100628
-5.91782e-06
0.00100631
-6.4601e-06
0.0010063
-7.00453e-06
0.00100624
-7.55092e-06
0.00100612
-8.09867e-06
0.00100594
-8.64671e-06
0.00100569
-9.19363e-06
0.00100536
-9.7377e-06
0.00100496
-1.0277e-05
0.00100448
-1.08092e-05
0.0010039
-1.13318e-05
0.00100324
-1.18421e-05
0.00100249
-1.23372e-05
0.00100165
-1.28141e-05
0.00100071
-1.32699e-05
0.000999685
-1.37015e-05
0.000998565
-1.41059e-05
0.000997355
-1.44802e-05
0.000996058
-1.48217e-05
0.000994676
-1.51277e-05
0.000993214
-1.5396e-05
0.000991674
-1.56244e-05
0.000990062
-1.58112e-05
0.000988383
-1.5955e-05
0.000986642
-1.60547e-05
0.000984845
-1.61091e-05
0.000982997
-1.61175e-05
0.000981103
-1.60801e-05
0.000979171
-1.59982e-05
0.000977206
-1.58722e-05
0.000975214
-1.5703e-05
0.000973202
-1.54919e-05
0.000971174
-1.52403e-05
0.000969136
-1.49502e-05
0.000967093
-1.46229e-05
0.000965049
-1.42611e-05
0.00096301
-1.38663e-05
0.000960978
-1.34416e-05
0.000958958
-1.29888e-05
0.000956952
-1.25116e-05
0.000954965
-1.20112e-05
0.000952998
-1.14923e-05
0.000951055
-1.0955e-05
0.000949137
-1.04053e-05
0.000947246
-9.84177e-06
0.000945384
-9.27191e-06
0.000943553
-8.69212e-06
0.000941753
-8.11222e-06
0.000939986
-7.52559e-06
0.000938252
-6.94547e-06
0.000936553
-6.36093e-06
0.00093489
-5.78957e-06
0.000933263
-5.21467e-06
0.000931672
-4.65976e-06
0.00093012
-4.10013e-06
0.000928604
-3.56866e-06
0.000927128
-3.02973e-06
0.000925689
-2.52769e-06
0.00092429
-2.01301e-06
0.000922927
-1.54567e-06
0.000921606
-1.05846e-06
0.000920324
-6.34178e-07
0.000919091
-1.81133e-07
0.00091789
2.0349e-07
0.000916731
6.35403e-07
0.000915601
9.68057e-07
0.00091452
1.37178e-06
0.000913472
1.64922e-06
0.000912477
2.02305e-06
0.00091151
2.23931e-06
0.000910596
2.58888e-06
0.000909703
2.73944e-06
0.000908863
3.06726e-06
0.000908036
3.14387e-06
3.44395e-06
0.0010044
2.70837e-06
0.00100375
2.05253e-06
0.0010031
1.42149e-06
0.00100247
8.14092e-07
0.00100182
2.30138e-07
0.00100117
-3.54193e-07
0.00100052
-9.22972e-07
0.000999861
-1.47536e-06
0.000999204
-2.02063e-06
0.000998538
-2.55607e-06
0.000997858
-3.08265e-06
0.000997159
-3.60281e-06
0.000996439
-4.11853e-06
0.000995692
-4.63098e-06
0.000994916
-5.14085e-06
0.000994104
-5.64855e-06
0.000993254
-6.15416e-06
0.00099236
-6.65744e-06
0.000991419
-7.15782e-06
0.000990427
-7.65442e-06
0.000989379
-8.14604e-06
0.000988273
-8.6312e-06
0.000987104
-9.10826e-06
0.00098587
-9.57533e-06
0.000984569
-1.00304e-05
0.000983198
-1.04713e-05
0.000981757
-1.08957e-05
0.000980244
-1.13013e-05
0.00097866
-1.16858e-05
0.000977005
-1.20465e-05
0.00097528
-1.23813e-05
0.000973488
-1.26878e-05
0.00097163
-1.29637e-05
0.000969709
-1.32069e-05
0.000967728
-1.34155e-05
0.000965691
-1.35874e-05
0.000963602
-1.37217e-05
0.000961464
-1.38174e-05
0.000959283
-1.38735e-05
0.000957063
-1.38894e-05
0.000954811
-1.38649e-05
0.000952531
-1.38001e-05
0.000950228
-1.36956e-05
0.000947908
-1.35519e-05
0.000945575
-1.33698e-05
0.000943233
-1.31501e-05
0.000940886
-1.2894e-05
0.000938539
-1.2603e-05
0.000936195
-1.22787e-05
0.000933857
-1.1923e-05
0.000931529
-1.15377e-05
0.000929212
-1.11253e-05
0.000926911
-1.06874e-05
0.000924626
-1.02272e-05
0.000922361
-9.7459e-06
0.000920116
-9.24754e-06
0.000917894
-8.7328e-06
0.000915695
-8.20646e-06
0.000913522
-7.66814e-06
0.000911374
-7.12389e-06
0.000909253
-6.57178e-06
0.00090716
-6.01919e-06
0.000905097
-5.4622e-06
0.000903062
-4.91038e-06
0.000901057
-4.35678e-06
0.000899082
-3.81443e-06
0.00089714
-3.27264e-06
0.000895229
-2.74818e-06
0.000893354
-2.22519e-06
0.000891511
-1.72603e-06
0.000889709
-1.22764e-06
0.000887942
-7.60866e-07
0.000886224
-2.94373e-07
0.000884539
1.3861e-07
0.0008829
5.8115e-07
0.000881294
9.71911e-07
0.000879736
1.37668e-06
0.000878216
1.72365e-06
0.000876759
2.09242e-06
0.000875341
2.38604e-06
0.000873997
2.71582e-06
0.00087269
2.95622e-06
0.000871461
3.25177e-06
0.000870265
3.43514e-06
0.000869155
3.69878e-06
0.000868072
3.82259e-06
0.000867078
4.06102e-06
0.000866099
4.12312e-06
4.34108e-06
0.000934636
4.01196e-06
0.000933297
3.39208e-06
0.000931927
2.79133e-06
0.000930533
2.20777e-06
0.000929125
1.63859e-06
0.000927688
1.08276e-06
0.000926225
5.40009e-07
0.000924729
2.05565e-08
0.000923243
-5.34337e-07
0.000921748
-1.06174e-06
0.000920248
-1.5827e-06
0.000918743
-2.09778e-06
0.000917232
-2.60672e-06
0.000915711
-3.11053e-06
0.00091418
-3.61017e-06
0.000912638
-4.1059e-06
0.000911081
-4.59747e-06
0.000909508
-5.0843e-06
0.000907916
-5.56564e-06
0.000906302
-6.04053e-06
0.000904664
-6.5078e-06
0.000902998
-6.96605e-06
0.000901304
-7.41372e-06
0.000899578
-7.84909e-06
0.000897818
-8.27036e-06
0.000896022
-8.67561e-06
0.000894189
-9.06292e-06
0.000892318
-9.43038e-06
0.000890409
-9.77617e-06
0.000888461
-1.00985e-05
0.000886475
-1.03956e-05
0.000884453
-1.06655e-05
0.000882395
-1.09064e-05
0.000880305
-1.11164e-05
0.000878183
-1.12941e-05
0.000876034
-1.1438e-05
0.000873859
-1.15471e-05
0.000871662
-1.16205e-05
0.000869446
-1.16574e-05
0.000867214
-1.16574e-05
0.00086497
-1.16203e-05
0.000862716
-1.15461e-05
0.000860455
-1.14349e-05
0.000858191
-1.12873e-05
0.000855925
-1.11038e-05
0.00085366
-1.08854e-05
0.000851399
-1.06328e-05
0.000849143
-1.03473e-05
0.000846894
-1.003e-05
0.000844654
-9.68294e-06
0.000842424
-9.30753e-06
0.000840205
-8.90601e-06
0.000837997
-8.48004e-06
0.000835802
-8.03217e-06
0.00083362
-7.56388e-06
0.000831452
-7.07868e-06
0.000829297
-6.57798e-06
0.000827156
-6.06544e-06
0.000825029
-5.54167e-06
0.000822916
-5.01094e-06
0.000820818
-4.4732e-06
0.000818732
-3.93372e-06
0.000816662
-3.39176e-06
0.000814606
-2.85465e-06
0.000812569
-2.31969e-06
0.000810549
-1.7944e-06
0.00080855
-1.27343e-06
0.000806568
-7.66737e-07
0.000804611
-2.67873e-07
0.000802673
2.11763e-07
0.000800764
6.81135e-07
0.000798879
1.12504e-06
0.000797025
1.55885e-06
0.0007952
1.96426e-06
0.000793423
2.35769e-06
0.00079168
2.71513e-06
0.000789997
3.05914e-06
0.000788356
3.3649e-06
0.00078679
3.65883e-06
0.000785264
3.91169e-06
0.000783827
4.15296e-06
0.000782432
4.35136e-06
0.000781145
4.5386e-06
0.000779898
4.68193e-06
0.00077878
4.81673e-06
0.000777695
4.90805e-06
0.000776758
4.99746e-06
0.000775838
5.04327e-06
5.11454e-06
0.000796368
5.9033e-06
0.000794447
5.31364e-06
0.000792508
4.73012e-06
0.000790565
4.15125e-06
0.000788628
3.57569e-06
0.000786707
3.00341e-06
0.000784814
2.43317e-06
0.000782969
1.86476e-06
0.000781138
1.29735e-06
0.00077934
7.36061e-07
0.00077758
1.77513e-07
0.000775848
-3.66012e-07
0.00077415
-9.08634e-07
0.000772487
-1.44781e-06
0.000770859
-1.98173e-06
0.000769262
-2.50921e-06
0.000767694
-3.02929e-06
0.000766151
-3.5409e-06
0.000764628
-4.04287e-06
0.000763121
-4.53398e-06
0.000761626
-5.01291e-06
0.000760139
-5.4783e-06
0.000758654
-5.92874e-06
0.000757167
-6.36281e-06
0.000755676
-6.77907e-06
0.000754176
-7.17603e-06
0.000752666
-7.5522e-06
0.000751141
-7.90607e-06
0.000749601
-8.23612e-06
0.000748044
-8.54092e-06
0.000746467
-8.81905e-06
0.000744871
-9.06917e-06
0.000743254
-9.28995e-06
0.000741618
-9.48009e-06
0.000739962
-9.63831e-06
0.000738288
-9.76343e-06
0.000736595
-9.85447e-06
0.000734885
-9.91072e-06
0.00073316
-9.93165e-06
0.000731419
-9.91698e-06
0.000729665
-9.86653e-06
0.0007279
-9.78031e-06
0.000726123
-9.65854e-06
0.000724338
-9.50157e-06
0.000722544
-9.30997e-06
0.000720743
-9.0847e-06
0.000718937
-8.82656e-06
0.000717126
-8.53604e-06
0.00071531
-8.21434e-06
0.00071349
-7.86304e-06
0.000711666
-7.48335e-06
0.000709837
-7.07703e-06
0.000708002
-6.64577e-06
0.000706162
-6.19184e-06
0.000704315
-5.71699e-06
0.000702461
-5.22466e-06
0.0007006
-4.7172e-06
0.000698733
-4.19799e-06
0.00069686
-3.66865e-06
0.000694982
-3.13281e-06
0.000693101
-2.59205e-06
0.000691217
-2.05008e-06
0.000689331
-1.50613e-06
0.000687442
-9.65495e-07
0.000685549
-4.26568e-07
0.000683658
9.67261e-08
0.000681778
6.069e-07
0.000679907
1.10379e-06
0.000678052
1.58706e-06
0.000676215
2.04923e-06
0.000674402
2.49355e-06
0.000672616
2.91166e-06
0.000670868
3.30658e-06
0.00066916
3.67182e-06
0.000667508
4.01053e-06
0.000665904
4.31837e-06
0.00066437
4.5934e-06
0.000662895
4.84046e-06
0.000661506
5.04694e-06
0.000660185
5.23285e-06
0.000658974
5.36392e-06
0.000657835
5.491e-06
0.000656832
5.54131e-06
0.000655897
5.61667e-06
0.000655134
5.58036e-06
0.000654426
5.61545e-06
0.000653934
5.48926e-06
0.000653476
5.50207e-06
5.30287e-06
0.000615979
6.63179e-06
0.000615269
6.02392e-06
0.000614585
5.41421e-06
0.000613932
4.8039e-06
0.000613315
4.19307e-06
0.000612736
3.58199e-06
0.000612196
2.97324e-06
0.000611693
2.36826e-06
0.000611224
1.76593e-06
0.000610791
1.16912e-06
0.000610392
5.76928e-07
0.000610036
-1.0474e-08
0.000609682
-5.54817e-07
0.000609338
-1.10322e-06
0.000608999
-1.64309e-06
0.000608662
-2.17199e-06
0.000608321
-2.68832e-06
0.000607971
-3.19072e-06
0.000607606
-3.67791e-06
0.000607221
-4.14874e-06
0.00060681
-4.60215e-06
0.000606369
-5.03717e-06
0.000605893
-5.45284e-06
0.000605378
-5.8482e-06
0.000604821
-6.2222e-06
0.000604219
-6.57377e-06
0.000603569
-6.90195e-06
0.000602869
-7.20593e-06
0.000602118
-7.485e-06
0.000601315
-7.73847e-06
0.000600462
-7.96559e-06
0.000599558
-8.16558e-06
0.000598606