/*--------------------------------*- C++ -*----------------------------------*\
| =========                 |                                                 |
| \\      /  F ield         | OpenFOAM: The Open Source CFD Toolbox           |
|  \\    /   O peration     | Version:  2312                                  |
|   \\  /    A nd           | Website:  www.openfoam.com                      |
|    \\/     M anipulation  |                                                 |
\*---------------------------------------------------------------------------*/
FoamFile
{
    version     2.0;
    format      ascii;
    arch        "LSB;label=32;scalar=64";
    class       volVectorField;
    location    "142000";
    object      U;
}
// * * * * * * * * * * * * * * * * * * * * * * * * * * * * * * * * * * * * * //

dimensions      [0 1 -1 0 0 0 0];

internalField   nonuniform List<vector> 
2685
(
(-2.73736e-05 -4.36094e-06 0)
(-2.3579e-05 -4.25784e-06 0)
(-1.99701e-05 -4.12066e-06 0)
(-1.65708e-05 -3.9536e-06 0)
(-1.3399e-05 -3.75986e-06 0)
(-1.04675e-05 -3.54264e-06 0)
(-7.78511e-06 -3.30581e-06 0)
(-5.35521e-06 -3.05362e-06 0)
(-3.17723e-06 -2.79057e-06 0)
(-1.24724e-06 -2.51979e-06 0)
(4.33111e-07 -2.24446e-06 0)
(1.87914e-06 -1.96395e-06 0)
(3.11261e-06 -1.68413e-06 0)
(4.14269e-06 -1.40823e-06 0)
(4.98581e-06 -1.13951e-06 0)
(5.65996e-06 -8.81081e-07 0)
(6.18414e-06 -6.36156e-07 0)
(6.57768e-06 -4.07999e-07 0)
(6.8604e-06 -1.99702e-07 0)
(7.05267e-06 -1.39996e-08 0)
(7.17531e-06 1.46767e-07 0)
(7.24923e-06 2.80832e-07 0)
(7.29568e-06 3.87084e-07 0)
(7.33587e-06 4.64752e-07 0)
(7.38974e-06 5.1336e-07 0)
(7.475e-06 5.32871e-07 0)
(7.60829e-06 5.2511e-07 0)
(7.80636e-06 4.92368e-07 0)
(8.08436e-06 4.3693e-07 0)
(8.45472e-06 3.61596e-07 0)
(8.92729e-06 2.69611e-07 0)
(9.50915e-06 1.64576e-07 0)
(1.02043e-05 5.03585e-08 0)
(1.10139e-05 -6.89754e-08 0)
(1.1936e-05 -1.89239e-07 0)
(1.29655e-05 -3.06232e-07 0)
(1.40947e-05 -4.15817e-07 0)
(1.53129e-05 -5.14029e-07 0)
(1.66072e-05 -5.97206e-07 0)
(1.79622e-05 -6.62139e-07 0)
(1.93612e-05 -7.06209e-07 0)
(2.07865e-05 -7.276e-07 0)
(2.22192e-05 -7.25641e-07 0)
(2.36379e-05 -7.00429e-07 0)
(2.50203e-05 -6.5175e-07 0)
(2.63447e-05 -5.79558e-07 0)
(2.75909e-05 -4.84327e-07 0)
(2.87406e-05 -3.67134e-07 0)
(2.9777e-05 -2.29652e-07 0)
(3.06861e-05 -7.41278e-08 0)
(3.14566e-05 9.67432e-08 0)
(3.20808e-05 2.79822e-07 0)
(3.2554e-05 4.71636e-07 0)
(3.28756e-05 6.68574e-07 0)
(3.30481e-05 8.67048e-07 0)
(3.30798e-05 1.06369e-06 0)
(3.2985e-05 1.2542e-06 0)
(3.27798e-05 1.43222e-06 0)
(3.248e-05 1.5928e-06 0)
(3.21042e-05 1.73208e-06 0)
(3.16765e-05 1.84804e-06 0)
(3.12251e-05 1.9383e-06 0)
(3.07796e-05 2.00069e-06 0)
(3.03707e-05 2.03335e-06 0)
(3.00299e-05 2.03491e-06 0)
(2.97897e-05 2.00415e-06 0)
(2.96841e-05 1.93992e-06 0)
(2.97385e-05 1.8392e-06 0)
(2.99761e-05 1.70587e-06 0)
(3.0425e-05 1.54287e-06 0)
(3.11109e-05 1.35278e-06 0)
(3.20561e-05 1.13848e-06 0)
(3.32802e-05 9.02834e-07 0)
(3.47989e-05 6.49368e-07 0)
(3.66265e-05 3.80728e-07 0)
(3.87701e-05 1.01226e-07 0)
(4.12406e-05 -1.87764e-07 0)
(4.4034e-05 -4.80534e-07 0)
(4.71631e-05 -7.79216e-07 0)
(5.06061e-05 -1.07469e-06 0)
(5.43917e-05 -1.37764e-06 0)
(5.8463e-05 -1.66971e-06 0)
(6.28996e-05 -1.98254e-06 0)
(6.75594e-05 -2.27167e-06 0)
(7.26716e-05 -2.62437e-06 0)
(7.78311e-05 -2.91056e-06 0)
(8.38562e-05 -3.40662e-06 0)
(8.88343e-05 -3.60356e-06 0)
(9.82349e-05 -4.42061e-06 0)
(8.7548e-05 -1.25904e-05 0)
(9.14314e-05 -1.18714e-05 0)
(9.51327e-05 -1.10904e-05 0)
(9.86388e-05 -1.02618e-05 0)
(0.000101937 -9.40155e-06 0)
(0.000105016 -8.52616e-06 0)
(0.000107867 -7.65097e-06 0)
(0.000110491 -6.78948e-06 0)
(0.00011289 -5.95454e-06 0)
(0.000115076 -5.15793e-06 0)
(0.000117057 -4.40993e-06 0)
(0.000118845 -3.71485e-06 0)
(0.000120456 -3.08231e-06 0)
(0.000121907 -2.51741e-06 0)
(0.000123213 -2.02346e-06 0)
(0.000124394 -1.60201e-06 0)
(0.000125468 -1.25241e-06 0)
(0.000126456 -9.72282e-07 0)
(0.000127377 -7.59444e-07 0)
(0.000128254 -6.12512e-07 0)
(0.000129109 -5.29878e-07 0)
(0.000129962 -5.09259e-07 0)
(0.000130835 -5.47915e-07 0)
(0.000131749 -6.42991e-07 0)
(0.00013272 -7.93032e-07 0)
(0.000133768 -9.97443e-07 0)
(0.000134911 -1.25202e-06 0)
(0.000136163 -1.55072e-06 0)
(0.000137538 -1.88644e-06 0)
(0.000139044 -2.25088e-06 0)
(0.000140691 -2.63489e-06 0)
(0.000142483 -3.02892e-06 0)
(0.000144422 -3.4233e-06 0)
(0.000146507 -3.8085e-06 0)
(0.000148735 -4.17522e-06 0)
(0.000151098 -4.51452e-06 0)
(0.000153587 -4.81788e-06 0)
(0.000156189 -5.0774e-06 0)
(0.00015889 -5.28597e-06 0)
(0.000161673 -5.43749e-06 0)
(0.000164519 -5.52699e-06 0)
(0.000167407 -5.55111e-06 0)
(0.000170315 -5.50836e-06 0)
(0.000173224 -5.39905e-06 0)
(0.000176115 -5.22456e-06 0)
(0.000178968 -4.9877e-06 0)
(0.000181765 -4.69291e-06 0)
(0.000184489 -4.34646e-06 0)
(0.000187124 -3.95627e-06 0)
(0.000189659 -3.53174e-06 0)
(0.000192085 -3.08351e-06 0)
(0.000194397 -2.62322e-06 0)
(0.000196595 -2.16307e-06 0)
(0.00019868 -1.71561e-06 0)
(0.00020066 -1.2932e-06 0)
(0.000202546 -9.07896e-07 0)
(0.000204347 -5.71856e-07 0)
(0.00020608 -2.98193e-07 0)
(0.000207767 -9.78228e-08 0)
(0.000209436 2.04036e-08 0)
(0.000211113 5.03064e-08 0)
(0.000212827 -1.38664e-08 0)
(0.000214605 -1.76255e-07 0)
(0.000216479 -4.39977e-07 0)
(0.000218478 -8.06e-07 0)
(0.000220632 -1.27441e-06 0)
(0.000222965 -1.84368e-06 0)
(0.000225509 -2.51274e-06 0)
(0.000228299 -3.27452e-06 0)
(0.000231355 -4.12082e-06 0)
(0.0002347 -5.04281e-06 0)
(0.000238348 -6.03016e-06 0)
(0.000242324 -7.07339e-06 0)
(0.000246625 -8.15952e-06 0)
(0.000251288 -9.28049e-06 0)
(0.000256275 -1.042e-05 0)
(0.000261659 -1.1575e-05 0)
(0.00026733 -1.27238e-05 0)
(0.000273458 -1.38746e-05 0)
(0.000279768 -1.49945e-05 0)
(0.000286669 -1.61147e-05 0)
(0.0002935 -1.71791e-05 0)
(0.000301268 -1.82644e-05 0)
(0.000308358 -1.92619e-05 0)
(0.000317285 -2.03481e-05 0)
(0.000324028 -2.12812e-05 0)
(0.000334942 -2.24953e-05 0)
(0.000339919 -2.33254e-05 0)
(0.000355013 -2.51212e-05 0)
(0.000350171 -2.12244e-05 0)
(0.000351736 -2.04436e-05 0)
(0.000353239 -1.95628e-05 0)
(0.000354656 -1.86005e-05 0)
(0.00035597 -1.75719e-05 0)
(0.000357173 -1.64923e-05 0)
(0.000358268 -1.53769e-05 0)
(0.00035926 -1.42401e-05 0)
(0.000360158 -1.30968e-05 0)
(0.000360967 -1.19629e-05 0)
(0.000361703 -1.08542e-05 0)
(0.00036238 -9.78545e-06 0)
(0.000363016 -8.77019e-06 0)
(0.000363628 -7.82061e-06 0)
(0.000364233 -6.94695e-06 0)
(0.000364845 -6.15766e-06 0)
(0.000365479 -5.46131e-06 0)
(0.000366147 -4.86761e-06 0)
(0.000366862 -4.38554e-06 0)
(0.000367632 -4.02201e-06 0)
(0.000368465 -3.78213e-06 0)
(0.00036937 -3.66857e-06 0)
(0.000370352 -3.6796e-06 0)
(0.000371411 -3.80907e-06 0)
(0.000372547 -4.04855e-06 0)
(0.000373767 -4.38966e-06 0)
(0.000375083 -4.82617e-06 0)
(0.000376505 -5.34891e-06 0)
(0.000378042 -5.94441e-06 0)
(0.000379702 -6.59803e-06 0)
(0.000381488 -7.29426e-06 0)
(0.000383405 -8.01671e-06 0)
(0.000385453 -8.7487e-06 0)
(0.000387631 -9.47373e-06 0)
(0.000389937 -1.01757e-05 0)
(0.000392367 -1.08391e-05 0)
(0.000394917 -1.14491e-05 0)
(0.00039758 -1.19921e-05 0)
(0.000400348 -1.24557e-05 0)
(0.000403215 -1.28297e-05 0)
(0.000406171 -1.31052e-05 0)
(0.000409205 -1.32757e-05 0)
(0.000412306 -1.33358e-05 0)
(0.000415462 -1.32828e-05 0)
(0.00041866 -1.31167e-05 0)
(0.000421886 -1.28415e-05 0)
(0.000425127 -1.24639e-05 0)
(0.00042837 -1.19942e-05 0)
(0.000431602 -1.14454e-05 0)
(0.000434812 -1.08336e-05 0)
(0.00043799 -1.01763e-05 0)
(0.000441129 -9.49347e-06 0)
(0.000444222 -8.80537e-06 0)
(0.000447268 -8.13367e-06 0)
(0.000450266 -7.49939e-06 0)
(0.000453217 -6.92437e-06 0)
(0.000456126 -6.42792e-06 0)
(0.000459001 -6.02805e-06 0)
(0.00046185 -5.74035e-06 0)
(0.000464688 -5.5809e-06 0)
(0.000467525 -5.56272e-06 0)
(0.000470379 -5.69844e-06 0)
(0.000473265 -5.99456e-06 0)
(0.000476205 -6.45738e-06 0)
(0.000479218 -7.08588e-06 0)
(0.000482322 -7.88006e-06 0)
(0.000485543 -8.83104e-06 0)
(0.000488889 -9.93207e-06 0)
(0.0004924 -1.11709e-05 0)
(0.000496062 -1.25415e-05 0)
(0.000499943 -1.40257e-05 0)
(0.000503982 -1.56142e-05 0)
(0.000508309 -1.72846e-05 0)
(0.000512767 -1.90259e-05 0)
(0.000517605 -2.0814e-05 0)
(0.000522491 -2.26364e-05 0)
(0.000527905 -2.44725e-05 0)
(0.000533186 -2.63041e-05 0)
(0.000539251 -2.81259e-05 0)
(0.000544829 -2.98998e-05 0)
(0.000551656 -3.16638e-05 0)
(0.000557341 -3.33208e-05 0)
(0.000565117 -3.50186e-05 0)
(0.000570575 -3.65025e-05 0)
(0.000579625 -3.81879e-05 0)
(0.000584295 -3.94217e-05 0)
(0.000595182 -4.12671e-05 0)
(0.00059816 -4.20886e-05 0)
(0.000611837 -4.45178e-05 0)
(0.000721423 -2.03776e-05 0)
(0.000721442 -1.92206e-05 0)
(0.000721395 -1.78903e-05 0)
(0.00072125 -1.64418e-05 0)
(0.000720998 -1.49299e-05 0)
(0.000720627 -1.34041e-05 0)
(0.000720132 -1.19083e-05 0)
(0.000719516 -1.04799e-05 0)
(0.000718784 -9.14781e-06 0)
(0.00071795 -7.9331e-06 0)
(0.000717033 -6.85264e-06 0)
(0.000716053 -5.91941e-06 0)
(0.000715032 -5.14102e-06 0)
(0.000713992 -4.51815e-06 0)
(0.000712955 -4.0459e-06 0)
(0.00071194 -3.71929e-06 0)
(0.000710969 -3.53045e-06 0)
(0.000710058 -3.46463e-06 0)
(0.000709225 -3.51001e-06 0)
(0.000708483 -3.662e-06 0)
(0.00070784 -3.91337e-06 0)
(0.000707302 -4.25283e-06 0)
(0.000706873 -4.67521e-06 0)
(0.000706562 -5.18254e-06 0)
(0.000706386 -5.77315e-06 0)
(0.000706348 -6.44115e-06 0)
(0.000706443 -7.18613e-06 0)
(0.000706677 -8.00895e-06 0)
(0.000707052 -8.90279e-06 0)
(0.00070756 -9.85176e-06 0)
(0.000708193 -1.08366e-05 0)
(0.000708946 -1.18385e-05 0)
(0.000709813 -1.28397e-05 0)
(0.000710785 -1.38234e-05 0)
(0.000711855 -1.47738e-05 0)
(0.000713013 -1.56754e-05 0)
(0.000714248 -1.6513e-05 0)
(0.000715553 -1.72725e-05 0)
(0.000716917 -1.7941e-05 0)
(0.000718332 -1.85085e-05 0)
(0.000719791 -1.89668e-05 0)
(0.000721288 -1.931e-05 0)
(0.000722817 -1.95327e-05 0)
(0.000724376 -1.96314e-05 0)
(0.000725958 -1.96041e-05 0)
(0.000727564 -1.94529e-05 0)
(0.000729189 -1.91828e-05 0)
(0.000730836 -1.88038e-05 0)
(0.000732501 -1.83281e-05 0)
(0.000734188 -1.77728e-05 0)
(0.000735897 -1.71555e-05 0)
(0.000737632 -1.64982e-05 0)
(0.000739393 -1.58213e-05 0)
(0.000741186 -1.51495e-05 0)
(0.000743009 -1.45038e-05 0)
(0.000744869 -1.39099e-05 0)
(0.000746765 -1.33879e-05 0)
(0.000748702 -1.2964e-05 0)
(0.000750682 -1.26556e-05 0)
(0.000752707 -1.2488e-05 0)
(0.000754784 -1.24731e-05 0)
(0.000756908 -1.26321e-05 0)
(0.000759097 -1.29678e-05 0)
(0.000761333 -1.34964e-05 0)
(0.000763652 -1.42101e-05 0)
(0.000766016 -1.51217e-05 0)
(0.000768493 -1.62141e-05 0)
(0.000771006 -1.74984e-05 0)
(0.000773679 -1.89483e-05 0)
(0.000776365 -2.05727e-05 0)
(0.000779279 -2.23354e-05 0)
(0.000782152 -2.42418e-05 0)
(0.000785352 -2.62497e-05 0)
(0.000788416 -2.83591e-05 0)
(0.000791952 -3.05309e-05 0)
(0.000795189 -3.27523e-05 0)
(0.000799119 -3.50041e-05 0)
(0.000802487 -3.72426e-05 0)
(0.000806882 -3.94994e-05 0)
(0.000810299 -4.16607e-05 0)
(0.000815249 -4.38678e-05 0)
(0.000818583 -4.58597e-05 0)
(0.000824211 -4.79966e-05 0)
(0.000827257 -4.97243e-05 0)
(0.000833727 -5.18234e-05 0)
(0.000836186 -5.31749e-05 0)
(0.000843719 -5.53487e-05 0)
(0.000845177 -5.61616e-05 0)
(0.000854072 -5.8641e-05 0)
(0.00102837 -2.08743e-05 0)
(0.00102545 -2.02607e-05 0)
(0.00102301 -1.93344e-05 0)
(0.00102099 -1.81608e-05 0)
(0.00101935 -1.67987e-05 0)
(0.00101805 -1.5304e-05 0)
(0.00101704 -1.37291e-05 0)
(0.00101629 -1.21221e-05 0)
(0.00101577 -1.05305e-05 0)
(0.00101545 -8.99961e-06 0)
(0.00101532 -7.56425e-06 0)
(0.00101532 -6.24721e-06 0)
(0.00101545 -5.06643e-06 0)
(0.00101569 -4.03756e-06 0)
(0.00101603 -3.17232e-06 0)
(0.00101646 -2.4791e-06 0)
(0.00101698 -1.96382e-06 0)
(0.00101758 -1.62724e-06 0)
(0.00101827 -1.46603e-06 0)
(0.00101904 -1.47542e-06 0)
(0.0010199 -1.6469e-06 0)
(0.00102084 -1.9696e-06 0)
(0.00102186 -2.43347e-06 0)
(0.00102296 -3.02725e-06 0)
(0.00102414 -3.74029e-06 0)
(0.00102538 -4.56518e-06 0)
(0.00102666 -5.48981e-06 0)
(0.00102797 -6.49791e-06 0)
(0.00102929 -7.57336e-06 0)
(0.00103061 -8.6992e-06 0)
(0.00103192 -9.85618e-06 0)
(0.0010332 -1.10245e-05 0)
(0.00103445 -1.21834e-05 0)
(0.00103566 -1.33126e-05 0)
(0.00103681 -1.43921e-05 0)
(0.0010379 -1.54046e-05 0)
(0.00103892 -1.63336e-05 0)
(0.00103986 -1.71663e-05 0)
(0.00104072 -1.78915e-05 0)
(0.00104148 -1.85019e-05 0)
(0.00104213 -1.89902e-05 0)
(0.00104268 -1.93526e-05 0)
(0.00104311 -1.95857e-05 0)
(0.00104344 -1.9692e-05 0)
(0.00104365 -1.96735e-05 0)
(0.00104376 -1.95387e-05 0)
(0.00104376 -1.92947e-05 0)
(0.00104368 -1.8957e-05 0)
(0.00104351 -1.85387e-05 0)
(0.00104326 -1.80612e-05 0)
(0.00104294 -1.75403e-05 0)
(0.00104257 -1.70007e-05 0)
(0.00104215 -1.64584e-05 0)
(0.0010417 -1.59412e-05 0)
(0.00104123 -1.54646e-05 0)
(0.00104076 -1.50584e-05 0)
(0.00104028 -1.47346e-05 0)
(0.00103982 -1.45219e-05 0)
(0.00103938 -1.44268e-05 0)
(0.00103896 -1.44774e-05 0)
(0.00103859 -1.46741e-05 0)
(0.00103824 -1.50436e-05 0)
(0.00103796 -1.55783e-05 0)
(0.0010377 -1.63031e-05 0)
(0.00103754 -1.72025e-05 0)
(0.00103738 -1.82983e-05 0)
(0.00103735 -1.95677e-05 0)
(0.00103729 -2.10273e-05 0)
(0.0010374 -2.26492e-05 0)
(0.00103745 -2.44413e-05 0)
(0.0010377 -2.63754e-05 0)
(0.00103784 -2.84447e-05 0)
(0.00103825 -3.06303e-05 0)
(0.00103847 -3.29007e-05 0)
(0.00103906 -3.52632e-05 0)
(0.00103934 -3.7644e-05 0)
(0.00104012 -4.01036e-05 0)
(0.00104046 -4.24951e-05 0)
(0.00104145 -4.49764e-05 0)
(0.00104182 -4.72759e-05 0)
(0.00104305 -4.97194e-05 0)
(0.00104342 -5.18238e-05 0)
(0.00104491 -5.41969e-05 0)
(0.00104525 -5.6e-05 0)
(0.001047 -5.83081e-05 0)
(0.00104726 -5.9691e-05 0)
(0.00104927 -6.19886e-05 0)
(0.0010494 -6.2795e-05 0)
(0.00105164 -6.51948e-05 0)
(0.00123025 -7.05105e-06 0)
(0.00122332 -7.96041e-06 0)
(0.00121706 -8.48167e-06 0)
(0.00121144 -8.67699e-06 0)
(0.00120648 -8.61504e-06 0)
(0.00120213 -8.361e-06 0)
(0.00119837 -7.97459e-06 0)
(0.00119517 -7.51095e-06 0)
(0.0011925 -7.01352e-06 0)
(0.00119032 -6.51728e-06 0)
(0.00118862 -6.05906e-06 0)
(0.00118739 -5.67413e-06 0)
(0.00118662 -5.39063e-06 0)
(0.00118627 -5.22103e-06 0)
(0.00118633 -5.17375e-06 0)
(0.00118677 -5.25244e-06 0)
(0.00118758 -5.45516e-06 0)
(0.00118872 -5.77595e-06 0)
(0.00119017 -6.20627e-06 0)
(0.00119191 -6.73623e-06 0)
(0.00119391 -7.35491e-06 0)
(0.00119615 -8.05144e-06 0)
(0.0011986 -8.81542e-06 0)
(0.00120122 -9.63837e-06 0)
(0.001204 -1.05118e-05 0)
(0.00120691 -1.14268e-05 0)
(0.00120992 -1.23747e-05 0)
(0.00121301 -1.33463e-05 0)
(0.00121615 -1.43279e-05 0)
(0.00121931 -1.53056e-05 0)
(0.00122248 -1.62648e-05 0)
(0.00122564 -1.71912e-05 0)
(0.00122875 -1.80693e-05 0)
(0.00123182 -1.88851e-05 0)
(0.00123483 -1.96232e-05 0)
(0.00123776 -2.02712e-05 0)
(0.00124059 -2.08159e-05 0)
(0.00124333 -2.12482e-05 0)
(0.00124596 -2.15579e-05 0)
(0.00124846 -2.17404e-05 0)
(0.00125084 -2.17888e-05 0)
(0.00125309 -2.17034e-05 0)
(0.00125519 -2.14817e-05 0)
(0.00125714 -2.11302e-05 0)
(0.00125893 -2.06517e-05 0)
(0.00126054 -2.00599e-05 0)
(0.00126198 -1.93631e-05 0)
(0.00126323 -1.85823e-05 0)
(0.00126428 -1.77305e-05 0)
(0.00126514 -1.68351e-05 0)
(0.00126579 -1.59116e-05 0)
(0.00126623 -1.49922e-05 0)
(0.00126646 -1.40928e-05 0)
(0.00126648 -1.32483e-05 0)
(0.00126627 -1.24724e-05 0)
(0.00126585 -1.18e-05 0)
(0.00126521 -1.12413e-05 0)
(0.00126436 -1.083e-05 0)
(0.00126331 -1.05708e-05 0)
(0.00126205 -1.04936e-05 0)
(0.00126062 -1.05975e-05 0)
(0.00125898 -1.09064e-05 0)
(0.00125722 -1.14145e-05 0)
(0.00125525 -1.21369e-05 0)
(0.00125319 -1.30653e-05 0)
(0.00125094 -1.4203e-05 0)
(0.00124863 -1.55441e-05 0)
(0.00124615 -1.70746e-05 0)
(0.00124364 -1.87981e-05 0)
(0.00124097 -2.06744e-05 0)
(0.00123831 -2.27277e-05 0)
(0.0012355 -2.48806e-05 0)
(0.00123273 -2.71961e-05 0)
(0.00122983 -2.95415e-05 0)
(0.00122698 -3.20432e-05 0)
(0.00122404 -3.44856e-05 0)
(0.00122113 -3.70957e-05 0)
(0.00121822 -3.95346e-05 0)
(0.00121526 -4.21823e-05 0)
(0.00121246 -4.45146e-05 0)
(0.00120944 -4.71427e-05 0)
(0.00120682 -4.92637e-05 0)
(0.00120369 -5.1837e-05 0)
(0.00120139 -5.36396e-05 0)
(0.00119808 -5.61535e-05 0)
(0.00119626 -5.75196e-05 0)
(0.0011926 -6.00065e-05 0)
(0.00119151 -6.07896e-05 0)
(0.00118728 -6.33242e-05 0)
(0.00131696 1.15609e-05 0)
(0.00130816 9.159e-06 0)
(0.00130002 7.14025e-06 0)
(0.00129255 5.45674e-06 0)
(0.00128574 4.05291e-06 0)
(0.00127961 2.87129e-06 0)
(0.00127416 1.85929e-06 0)
(0.00126938 9.67734e-07 0)
(0.0012653 1.51312e-07 0)
(0.0012619 -6.2686e-07 0)
(0.00125914 -1.39547e-06 0)
(0.001257 -2.17425e-06 0)
(0.00125546 -2.97128e-06 0)
(0.00125453 -3.80339e-06 0)
(0.00125417 -4.69229e-06 0)
(0.00125436 -5.64707e-06 0)
(0.00125507 -6.67023e-06 0)
(0.00125627 -7.7605e-06 0)
(0.00125793 -8.91271e-06 0)
(0.00126003 -1.01189e-05 0)
(0.00126251 -1.13683e-05 0)
(0.00126536 -1.26493e-05 0)
(0.00126853 -1.39496e-05 0)
(0.00127198 -1.52577e-05 0)
(0.00127567 -1.65621e-05 0)
(0.00127958 -1.78541e-05 0)
(0.00128365 -1.91249e-05 0)
(0.00128786 -2.03674e-05 0)
(0.00129216 -2.15721e-05 0)
(0.00129655 -2.27298e-05 0)
(0.00130098 -2.38287e-05 0)
(0.00130545 -2.48582e-05 0)
(0.00130992 -2.58045e-05 0)
(0.00131438 -2.66561e-05 0)
(0.00131882 -2.73983e-05 0)
(0.00132323 -2.80207e-05 0)
(0.00132759 -2.85094e-05 0)
(0.00133188 -2.88565e-05 0)
(0.00133611 -2.90501e-05 0)
(0.00134026 -2.90864e-05 0)
(0.00134432 -2.8957e-05 0)
(0.00134827 -2.86642e-05 0)
(0.00135212 -2.82046e-05 0)
(0.00135584 -2.75866e-05 0)
(0.00135942 -2.68105e-05 0)
(0.00136285 -2.58915e-05 0)
(0.00136612 -2.48345e-05 0)
(0.00136921 -2.36622e-05 0)
(0.0013721 -2.23842e-05 0)
(0.00137479 -2.10302e-05 0)
(0.00137724 -1.96133e-05 0)
(0.00137945 -1.81689e-05 0)
(0.00138141 -1.67119e-05 0)
(0.00138308 -1.52811e-05 0)
(0.00138446 -1.38915e-05 0)
(0.00138552 -1.2582e-05 0)
(0.00138628 -1.13667e-05 0)
(0.00138669 -1.0282e-05 0)
(0.00138678 -9.34144e-06 0)
(0.0013865 -8.57523e-06 0)
(0.00138589 -7.99633e-06 0)
(0.00138491 -7.62313e-06 0)
(0.00138359 -7.47099e-06 0)
(0.0013819 -7.54064e-06 0)
(0.00137989 -7.85475e-06 0)
(0.0013775 -8.38816e-06 0)
(0.00137483 -9.1809e-06 0)
(0.00137181 -1.0171e-05 0)
(0.00136852 -1.14283e-05 0)
(0.00136493 -1.28406e-05 0)
(0.00136109 -1.45256e-05 0)
(0.00135701 -1.62948e-05 0)
(0.0013527 -1.83428e-05 0)
(0.00134823 -2.0382e-05 0)
(0.0013435 -2.27219e-05 0)
(0.00133877 -2.49317e-05 0)
(0.00133368 -2.74862e-05 0)
(0.00132883 -2.97543e-05 0)
(0.00132341 -3.24492e-05 0)
(0.00131861 -3.46587e-05 0)
(0.00131288 -3.74347e-05 0)
(0.00130833 -3.94687e-05 0)
(0.00130225 -4.22908e-05 0)
(0.00129822 -4.40301e-05 0)
(0.00129168 -4.68929e-05 0)
(0.00128849 -4.82091e-05 0)
(0.0012813 -5.11434e-05 0)
(0.0012794 -5.18891e-05 0)
(0.00127122 -5.49749e-05 0)
(0.00134266 3.21681e-05 0)
(0.00133362 2.85392e-05 0)
(0.00132526 2.52061e-05 0)
(0.00131762 2.21264e-05 0)
(0.0013107 1.92632e-05 0)
(0.00130454 1.6581e-05 0)
(0.00129913 1.40446e-05 0)
(0.00129449 1.1625e-05 0)
(0.00129061 9.29548e-06 0)
(0.00128749 7.02408e-06 0)
(0.00128514 4.77961e-06 0)
(0.00128358 2.5341e-06 0)
(0.00128277 2.5553e-07 0)
(0.00128264 -2.06867e-06 0)
(0.00128314 -4.42172e-06 0)
(0.00128427 -6.79448e-06 0)
(0.00128598 -9.17773e-06 0)
(0.00128823 -1.15602e-05 0)
(0.00129098 -1.39271e-05 0)
(0.00129418 -1.62608e-05 0)
(0.00129779 -1.85416e-05 0)
(0.00130175 -2.07509e-05 0)
(0.00130602 -2.2872e-05 0)
(0.00131054 -2.48917e-05 0)
(0.00131527 -2.68e-05 0)
(0.00132016 -2.85919e-05 0)
(0.00132516 -3.02631e-05 0)
(0.00133025 -3.18114e-05 0)
(0.0013354 -3.32337e-05 0)
(0.00134057 -3.45302e-05 0)
(0.00134576 -3.56982e-05 0)
(0.00135095 -3.67373e-05 0)
(0.00135612 -3.76418e-05 0)
(0.00136126 -3.84093e-05 0)
(0.00136638 -3.90316e-05 0)
(0.00137145 -3.95052e-05 0)
(0.00137648 -3.982e-05 0)
(0.00138146 -3.99728e-05 0)
(0.00138639 -3.99528e-05 0)
(0.00139125 -3.97589e-05 0)
(0.00139605 -3.93814e-05 0)
(0.00140078 -3.8823e-05 0)
(0.00140543 -3.80762e-05 0)
(0.00140999 -3.71489e-05 0)
(0.00141444 -3.60368e-05 0)
(0.00141879 -3.4755e-05 0)
(0.00142301 -3.33031e-05 0)
(0.00142708 -3.17041e-05 0)
(0.00143098 -2.99622e-05 0)
(0.00143471 -2.81082e-05 0)
(0.00143822 -2.61506e-05 0)
(0.00144151 -2.41268e-05 0)
(0.00144453 -2.20486e-05 0)
(0.00144728 -1.99581e-05 0)
(0.00144972 -1.78698e-05 0)
(0.00145184 -1.58275e-05 0)
(0.0014536 -1.38476e-05 0)
(0.001455 -1.19706e-05 0)
(0.001456 -1.0215e-05 0)
(0.00145659 -8.61205e-06 0)
(0.00145676 -7.18503e-06 0)
(0.00145651 -5.94914e-06 0)
(0.00145581 -4.93796e-06 0)
(0.00145467 -4.14126e-06 0)
(0.00145309 -3.61015e-06 0)
(0.00145107 -3.29363e-06 0)
(0.00144861 -3.28064e-06 0)
(0.00144574 -3.46644e-06 0)
(0.00144244 -3.98503e-06 0)
(0.00143879 -4.64954e-06 0)
(0.00143472 -5.67535e-06 0)
(0.00143039 -6.77056e-06 0)
(0.00142564 -8.27052e-06 0)
(0.00142074 -9.72701e-06 0)
(0.00141539 -1.16481e-05 0)
(0.00141009 -1.33736e-05 0)
(0.00140422 -1.56589e-05 0)
(0.00139871 -1.75492e-05 0)
(0.00139239 -2.01457e-05 0)
(0.00138689 -2.20839e-05 0)
(0.00138016 -2.49413e-05 0)
(0.00137492 -2.67927e-05 0)
(0.00136777 -2.98768e-05 0)
(0.00136313 -3.15006e-05 0)
(0.00135546 -3.48053e-05 0)
(0.0013518 -3.60518e-05 0)
(0.00134341 -3.96088e-05 0)
(0.00134127 -4.03181e-05 0)
(0.00133179 -4.42098e-05 0)
(0.00137937 5.23018e-05 0)
(0.00137027 4.70314e-05 0)
(0.00136205 4.20034e-05 0)
(0.00135471 3.71884e-05 0)
(0.00134827 3.2554e-05 0)
(0.00134275 2.80662e-05 0)
(0.00133813 2.36916e-05 0)
(0.00133442 1.93991e-05 0)
(0.00133159 1.51654e-05 0)
(0.00132959 1.09834e-05 0)
(0.00132835 6.8604e-06 0)
(0.00132779 2.81005e-06 0)
(0.00132788 -1.14594e-06 0)
(0.00132867 -5.00525e-06 0)
(0.00133012 -8.77079e-06 0)
(0.00133215 -1.24221e-05 0)
(0.00133469 -1.59353e-05 0)
(0.00133768 -1.92943e-05 0)
(0.00134106 -2.24858e-05 0)
(0.00134479 -2.55005e-05 0)
(0.0013488 -2.83308e-05 0)
(0.00135304 -3.09719e-05 0)
(0.00135745 -3.34208e-05 0)
(0.00136196 -3.56789e-05 0)
(0.00136653 -3.77504e-05 0)
(0.0013711 -3.96444e-05 0)
(0.00137565 -4.13709e-05 0)
(0.00138014 -4.29427e-05 0)
(0.00138456 -4.43697e-05 0)
(0.0013889 -4.56613e-05 0)
(0.00139315 -4.68187e-05 0)
(0.00139732 -4.78426e-05 0)
(0.00140141 -4.87266e-05 0)
(0.00140543 -4.94678e-05 0)
(0.0014094 -5.00571e-05 0)
(0.00141334 -5.04914e-05 0)
(0.00141726 -5.07601e-05 0)
(0.00142118 -5.08605e-05 0)
(0.0014251 -5.07809e-05 0)
(0.00142906 -5.05195e-05 0)
(0.00143304 -5.00632e-05 0)
(0.00143708 -4.94127e-05 0)
(0.00144116 -4.85551e-05 0)
(0.00144529 -4.74958e-05 0)
(0.00144947 -4.62235e-05 0)
(0.0014537 -4.47501e-05 0)
(0.00145794 -4.30677e-05 0)
(0.00146221 -4.11963e-05 0)
(0.00146645 -3.91317e-05 0)
(0.00147068 -3.69032e-05 0)
(0.00147482 -3.45108e-05 0)
(0.00147889 -3.19931e-05 0)
(0.0014828 -2.93544e-05 0)
(0.00148658 -2.66409e-05 0)
(0.00149011 -2.38611e-05 0)
(0.00149343 -2.10658e-05 0)
(0.00149642 -1.82678e-05 0)
(0.00149913 -1.5518e-05 0)
(0.00150142 -1.28352e-05 0)
(0.00150338 -1.02634e-05 0)
(0.00150484 -7.83018e-06 0)
(0.00150593 -5.56197e-06 0)
(0.00150645 -3.50075e-06 0)
(0.00150658 -1.64241e-06 0)
(0.00150609 -5.66856e-08 0)
(0.0015052 1.30586e-06 0)
(0.00150363 2.3429e-06 0)
(0.00150171 3.17698e-06 0)
(0.0014991 3.61526e-06 0)
(0.00149622 3.88049e-06 0)
(0.00149264 3.68365e-06 0)
(0.00148888 3.3936e-06 0)
(0.00148438 2.566e-06 0)
(0.00147989 1.77898e-06 0)
(0.0014746 3.61056e-07 0)
(0.00146956 -8.2735e-07 0)
(0.00146357 -2.78569e-06 0)
(0.00145819 -4.26273e-06 0)
(0.00145162 -6.71279e-06 0)
(0.00144618 -8.34868e-06 0)
(0.00143911 -1.12572e-05 0)
(0.00143392 -1.29195e-05 0)
(0.00142637 -1.62749e-05 0)
(0.00142177 -1.78155e-05 0)
(0.00141368 -2.16292e-05 0)
(0.00141008 -2.28742e-05 0)
(0.00140124 -2.71594e-05 0)
(0.00139916 -2.78967e-05 0)
(0.0013892 -3.27009e-05 0)
(0.0014486 7.33291e-05 0)
(0.00143901 6.58654e-05 0)
(0.00143036 5.86419e-05 0)
(0.00142264 5.16536e-05 0)
(0.00141585 4.48978e-05 0)
(0.00140998 3.83769e-05 0)
(0.00140499 3.20928e-05 0)
(0.00140086 2.60393e-05 0)
(0.00139758 2.02045e-05 0)
(0.00139512 1.45736e-05 0)
(0.00139346 9.12451e-06 0)
(0.00139258 3.8293e-06 0)
(0.00139239 -1.331e-06 0)
(0.00139268 -6.36765e-06 0)
(0.00139336 -1.13013e-05 0)
(0.00139443 -1.60956e-05 0)
(0.00139581 -2.07086e-05 0)
(0.00139738 -2.51133e-05 0)
(0.00139906 -2.92848e-05 0)
(0.00140078 -3.31798e-05 0)
(0.00140248 -3.67466e-05 0)
(0.00140409 -3.9943e-05 0)
(0.00140557 -4.27426e-05 0)
(0.00140687 -4.5139e-05 0)
(0.00140797 -4.71435e-05 0)
(0.00140884 -4.87932e-05 0)
(0.00140946 -5.01433e-05 0)
(0.00140985 -5.12562e-05 0)
(0.00141002 -5.2189e-05 0)
(0.00141001 -5.29922e-05 0)
(0.00140987 -5.37016e-05 0)
(0.00140965 -5.4344e-05 0)
(0.0014094 -5.49311e-05 0)
(0.00140916 -5.54685e-05 0)
(0.00140898 -5.59499e-05 0)
(0.00140892 -5.63693e-05 0)
(0.00140901 -5.67116e-05 0)
(0.00140932 -5.69658e-05 0)
(0.00140987 -5.71114e-05 0)
(0.00141073 -5.71359e-05 0)
(0.00141191 -5.70163e-05 0)
(0.00141347 -5.67408e-05 0)
(0.00141541 -5.62851e-05 0)
(0.00141777 -5.56402e-05 0)
(0.00142053 -5.47817e-05 0)
(0.00142372 -5.37057e-05 0)
(0.0014273 -5.23893e-05 0)
(0.00143131 -5.08376e-05 0)
(0.00143564 -4.90314e-05 0)
(0.00144035 -4.69879e-05 0)
(0.00144531 -4.46936e-05 0)
(0.00145057 -4.21794e-05 0)
(0.00145595 -3.94375e-05 0)
(0.00146156 -3.65131e-05 0)
(0.00146714 -3.34043e-05 0)
(0.00147284 -3.01687e-05 0)
(0.00147837 -2.68101e-05 0)
(0.00148391 -2.33938e-05 0)
(0.0014891 -1.99293e-05 0)
(0.00149422 -1.6482e-05 0)
(0.00149882 -1.30701e-05 0)
(0.00150327 -9.74805e-06 0)
(0.00150704 -6.55102e-06 0)
(0.00151062 -3.50875e-06 0)
(0.00151336 -6.88571e-07 0)
(0.00151592 1.92329e-06 0)
(0.00151754 4.21459e-06 0)
(0.00151897 6.27829e-06 0)
(0.00151927 7.93553e-06 0)
(0.00151948 9.39784e-06 0)
(0.00151845 1.03612e-05 0)
(0.00151752 1.12013e-05 0)
(0.00151521 1.14211e-05 0)
(0.00151324 1.16278e-05 0)
(0.00150974 1.10687e-05 0)
(0.00150692 1.06837e-05 0)
(0.00150232 9.34445e-06 0)
(0.00149886 8.45829e-06 0)
(0.00149326 6.36656e-06 0)
(0.00148941 5.11728e-06 0)
(0.00148289 2.30436e-06 0)
(0.00147895 8.53238e-07 0)
(0.00147156 -2.65524e-06 0)
(0.0014679 -4.10908e-06 0)
(0.00145963 -8.28742e-06 0)
(0.00145671 -9.51869e-06 0)
(0.0014475 -1.43765e-05 0)
(0.00144579 -1.51431e-05 0)
(0.00143536 -2.06857e-05 0)
(0.00151069 9.77106e-05 0)
(0.00150167 8.83764e-05 0)
(0.00149332 7.91748e-05 0)
(0.0014857 7.01101e-05 0)
(0.00147881 6.11813e-05 0)
(0.00147266 5.23932e-05 0)
(0.00146721 4.37644e-05 0)
(0.00146235 3.53295e-05 0)
(0.00145798 2.7138e-05 0)
(0.00145396 1.92554e-05 0)
(0.00145016 1.17579e-05 0)
(0.00144641 4.71085e-06 0)
(0.00144263 -1.85426e-06 0)
(0.00143878 -7.86899e-06 0)
(0.00143489 -1.32336e-05 0)
(0.00143101 -1.79699e-05 0)
(0.00142707 -2.21273e-05 0)
(0.00142295 -2.57454e-05 0)
(0.00141865 -2.88737e-05 0)
(0.00141421 -3.15786e-05 0)
(0.00140961 -3.39229e-05 0)
(0.00140476 -3.59533e-05 0)
(0.0013996 -3.77036e-05 0)
(0.00139406 -3.92109e-05 0)
(0.00138809 -4.05217e-05 0)
(0.00138161 -4.16817e-05 0)
(0.00137462 -4.27237e-05 0)
(0.00136716 -4.36717e-05 0)
(0.0013593 -4.45432e-05 0)
(0.00135117 -4.5357e-05 0)
(0.00134291 -4.61343e-05 0)
(0.00133466 -4.69003e-05 0)
(0.00132658 -4.76734e-05 0)
(0.00131881 -4.84713e-05 0)
(0.0013115 -4.93091e-05 0)
(0.00130478 -5.01994e-05 0)
(0.00129873 -5.1146e-05 0)
(0.00129346 -5.21451e-05 0)
(0.00128905 -5.31816e-05 0)
(0.00128555 -5.42349e-05 0)
(0.00128301 -5.52738e-05 0)
(0.00128146 -5.62651e-05 0)
(0.0012809 -5.71672e-05 0)
(0.00128136 -5.79411e-05 0)
(0.00128279 -5.85416e-05 0)
(0.00128522 -5.89321e-05 0)
(0.00128857 -5.90698e-05 0)
(0.00129284 -5.89273e-05 0)
(0.00129792 -5.84696e-05 0)
(0.00130385 -5.76838e-05 0)
(0.00131043 -5.65444e-05 0)
(0.00131773 -5.50565e-05 0)
(0.00132552 -5.3204e-05 0)
(0.00133392 -5.10118e-05 0)
(0.00134259 -4.84715e-05 0)
(0.00135173 -4.56283e-05 0)
(0.00136093 -4.24794e-05 0)
(0.00137049 -3.90896e-05 0)
(0.00137987 -3.54614e-05 0)
(0.0013895 -3.16758e-05 0)
(0.00139869 -2.77394e-05 0)
(0.00140806 -2.37413e-05 0)
(0.00141673 -1.96941e-05 0)
(0.00142552 -1.56815e-05 0)
(0.00143334 -1.17286e-05 0)
(0.00144127 -7.892e-06 0)
(0.00144795 -4.23993e-06 0)
(0.00145484 -7.79272e-07 0)
(0.00146021 2.37814e-06 0)
(0.00146594 5.32188e-06 0)
(0.00146983 7.81888e-06 0)
(0.00147425 1.01127e-05 0)
(0.00147647 1.18175e-05 0)
(0.00147953 1.34191e-05 0)
(0.00148006 1.42591e-05 0)
(0.00148186 1.51734e-05 0)
(0.00148074 1.51031e-05 0)
(0.00148144 1.53726e-05 0)
(0.00147873 1.43437e-05 0)
(0.00147855 1.40533e-05 0)
(0.00147433 1.20562e-05 0)
(0.00147354 1.13571e-05 0)
(0.0014679 8.40297e-06 0)
(0.00146681 7.49731e-06 0)
(0.0014598 3.6155e-06 0)
(0.00145871 2.73825e-06 0)
(0.00145032 -2.05813e-06 0)
(0.00144959 -2.64657e-06 0)
(0.00143985 -8.30225e-06 0)
(0.0015212 0.000114807 0)
(0.0015137 0.000104465 0)
(0.00150599 9.42187e-05 0)
(0.00149806 8.41628e-05 0)
(0.00148993 7.44063e-05 0)
(0.00148159 6.50699e-05 0)
(0.00147312 5.62677e-05 0)
(0.0014646 4.80882e-05 0)
(0.00145613 4.05803e-05 0)
(0.00144778 3.3741e-05 0)
(0.00143961 2.75105e-05 0)
(0.00143158 2.17864e-05 0)
(0.00142363 1.64575e-05 0)
(0.00141565 1.14087e-05 0)
(0.00140734 6.55913e-06 0)
(0.00139836 1.83289e-06 0)
(0.00138856 -2.80853e-06 0)
(0.00137777 -7.32653e-06 0)
(0.00136578 -1.15635e-05 0)
(0.0013524 -1.52943e-05 0)
(0.00133764 -1.82807e-05 0)
(0.00132156 -2.03319e-05 0)
(0.00130433 -2.1366e-05 0)
(0.00128614 -2.14443e-05 0)
(0.00126727 -2.07606e-05 0)
(0.00124803 -1.95923e-05 0)
(0.00122873 -1.82461e-05 0)
(0.00120968 -1.70162e-05 0)
(0.00119113 -1.6149e-05 0)
(0.00117334 -1.58237e-05 0)
(0.00115651 -1.61463e-05 0)
(0.00114083 -1.71568e-05 0)
(0.00112648 -1.88457e-05 0)
(0.00111354 -2.11558e-05 0)
(0.00110209 -2.39861e-05 0)
(0.00109216 -2.72535e-05 0)
(0.00108377 -3.08784e-05 0)
(0.00107692 -3.47686e-05 0)
(0.00107158 -3.88316e-05 0)
(0.00106771 -4.29782e-05 0)
(0.00106527 -4.71241e-05 0)
(0.0010642 -5.11894e-05 0)
(0.00106444 -5.51012e-05 0)
(0.00106595 -5.87901e-05 0)
(0.00106865 -6.21954e-05 0)
(0.0010725 -6.52588e-05 0)
(0.00107741 -6.79329e-05 0)
(0.00108337 -7.01709e-05 0)
(0.00109025 -7.19398e-05 0)
(0.00109808 -7.32058e-05 0)
(0.0011067 -7.39515e-05 0)
(0.00111615 -7.41578e-05 0)
(0.00112625 -7.38236e-05 0)
(0.00113707 -7.29459e-05 0)
(0.00114837 -7.15388e-05 0)
(0.00116029 -6.9617e-05 0)
(0.00117248 -6.72051e-05 0)
(0.0011852 -6.43367e-05 0)
(0.00119795 -6.1042e-05 0)
(0.00121116 -5.73746e-05 0)