/*--------------------------------*- C++ -*----------------------------------*\
| =========                 |                                                 |
| \\      /  F ield         | OpenFOAM: The Open Source CFD Toolbox           |
|  \\    /   O peration     | Version:  2312                                  |
|   \\  /    A nd           | Website:  www.openfoam.com                      |
|    \\/     M anipulation  |                                                 |
\*---------------------------------------------------------------------------*/
FoamFile
{
    version     2.0;
    format      ascii;
    arch        "LSB;label=32;scalar=64";
    class       volScalarField;
    location    "38000";
    object      p;
}
// * * * * * * * * * * * * * * * * * * * * * * * * * * * * * * * * * * * * * //

dimensions      [0 2 -2 0 0 0 0];

internalField   nonuniform List<scalar> 
10800
(
4.91679e-07
4.77556e-07
4.63789e-07
4.53212e-07
4.45789e-07
4.40398e-07
4.35947e-07
4.31867e-07
4.27992e-07
4.24327e-07
4.20911e-07
4.17746e-07
4.148e-07
4.12023e-07
4.09368e-07
4.06802e-07
4.04303e-07
4.01858e-07
3.99457e-07
3.97091e-07
3.94751e-07
3.92429e-07
3.90119e-07
3.87816e-07
3.85515e-07
3.83211e-07
3.80903e-07
3.78588e-07
3.76263e-07
3.73926e-07
3.71578e-07
3.69216e-07
3.66841e-07
3.64451e-07
3.62047e-07
3.59629e-07
3.57197e-07
3.54751e-07
3.52292e-07
3.4982e-07
3.47335e-07
3.44839e-07
3.42331e-07
3.39811e-07
3.37279e-07
3.34735e-07
3.32178e-07
3.29605e-07
3.27021e-07
3.24409e-07
3.21791e-07
3.19116e-07
3.16466e-07
3.13667e-07
3.11022e-07
3.07892e-07
3.05539e-07
3.01136e-07
3.00831e-07
2.9024e-07
4.43636e-07
4.41908e-07
4.39263e-07
4.36138e-07
4.32921e-07
4.29827e-07
4.26904e-07
4.24117e-07
4.21415e-07
4.18768e-07
4.1617e-07
4.13627e-07
4.11144e-07
4.08723e-07
4.06356e-07
4.04035e-07
4.0175e-07
3.99493e-07
3.97259e-07
3.95042e-07
3.92838e-07
3.90643e-07
3.88454e-07
3.86267e-07
3.8408e-07
3.81888e-07
3.79691e-07
3.77487e-07
3.75273e-07
3.73049e-07
3.70813e-07
3.68565e-07
3.66305e-07
3.6403e-07
3.61743e-07
3.59442e-07
3.57128e-07
3.54799e-07
3.5246e-07
3.50103e-07
3.4774e-07
3.45356e-07
3.4297e-07
3.40559e-07
3.38153e-07
3.35711e-07
3.33289e-07
3.30814e-07
3.28383e-07
3.25871e-07
3.23453e-07
3.20905e-07
3.18552e-07
3.15987e-07
3.13835e-07
3.11321e-07
3.09703e-07
3.07318e-07
3.06843e-07
3.0417e-07
4.34895e-07
4.34144e-07
4.32731e-07
4.30779e-07
4.28494e-07
4.26074e-07
4.23644e-07
4.21254e-07
4.18907e-07
4.16592e-07
4.14298e-07
4.12026e-07
4.0978e-07
4.07566e-07
4.05385e-07
4.03236e-07
4.01114e-07
3.99014e-07
3.96932e-07
3.94864e-07
3.92806e-07
3.90757e-07
3.88712e-07
3.86671e-07
3.84629e-07
3.82587e-07
3.8054e-07
3.78489e-07
3.76431e-07
3.74365e-07
3.72292e-07
3.70208e-07
3.68116e-07
3.66012e-07
3.63899e-07
3.61773e-07
3.59639e-07
3.57491e-07
3.55335e-07
3.53164e-07
3.50987e-07
3.48793e-07
3.46596e-07
3.44378e-07
3.42162e-07
3.3992e-07
3.37689e-07
3.35424e-07
3.33184e-07
3.30896e-07
3.2866e-07
3.26357e-07
3.24145e-07
3.21836e-07
3.19683e-07
3.17382e-07
3.15341e-07
3.13054e-07
3.11164e-07
3.08797e-07
4.2316e-07
4.22727e-07
4.2194e-07
4.2085e-07
4.19525e-07
4.18037e-07
4.16442e-07
4.14781e-07
4.13073e-07
4.1133e-07
4.09559e-07
4.07764e-07
4.05952e-07
4.0413e-07
4.02301e-07
4.0047e-07
3.98637e-07
3.96803e-07
3.94968e-07
3.93131e-07
3.91291e-07
3.89448e-07
3.87601e-07
3.8575e-07
3.83895e-07
3.82033e-07
3.80166e-07
3.78292e-07
3.76411e-07
3.74522e-07
3.72626e-07
3.70722e-07
3.6881e-07
3.66889e-07
3.64961e-07
3.63024e-07
3.61079e-07
3.59125e-07
3.57164e-07
3.55193e-07
3.53215e-07
3.51226e-07
3.49231e-07
3.47222e-07
3.45208e-07
3.43177e-07
3.4114e-07
3.39082e-07
3.37017e-07
3.34924e-07
3.32824e-07
3.30687e-07
3.28546e-07
3.26356e-07
3.24168e-07
3.21919e-07
3.19679e-07
3.17359e-07
3.15066e-07
3.12691e-07
4.16459e-07
4.16246e-07
4.15814e-07
4.15169e-07
4.14325e-07
4.13311e-07
4.1216e-07
4.10903e-07
4.09563e-07
4.08159e-07
4.06702e-07
4.05202e-07
4.03665e-07
4.02099e-07
4.00508e-07
3.98899e-07
3.97274e-07
3.95636e-07
3.93987e-07
3.92329e-07
3.90662e-07
3.88988e-07
3.87306e-07
3.85618e-07
3.83923e-07
3.82223e-07
3.80516e-07
3.78803e-07
3.77086e-07
3.75362e-07
3.73634e-07
3.719e-07
3.70162e-07
3.68419e-07
3.66672e-07
3.64921e-07
3.63166e-07
3.61406e-07
3.59643e-07
3.57877e-07
3.56106e-07
3.54331e-07
3.52551e-07
3.50767e-07
3.48977e-07
3.47181e-07
3.45377e-07
3.43564e-07
3.41741e-07
3.39903e-07
3.38046e-07
3.36164e-07
3.34246e-07
3.3228e-07
3.30248e-07
3.28139e-07
3.25942e-07
3.23666e-07
3.21314e-07
3.18983e-07
4.10939e-07
4.10777e-07
4.10452e-07
4.09968e-07
4.09335e-07
4.08568e-07
4.07687e-07
4.06709e-07
4.0565e-07
4.04523e-07
4.03336e-07
4.02099e-07
4.00817e-07
3.99497e-07
3.98143e-07
3.9676e-07
3.95353e-07
3.93925e-07
3.92478e-07
3.91015e-07
3.89537e-07
3.88047e-07
3.86546e-07
3.85034e-07
3.83513e-07
3.81985e-07
3.80449e-07
3.78908e-07
3.7736e-07
3.75808e-07
3.74252e-07
3.72693e-07
3.71131e-07
3.69566e-07
3.68e-07
3.66433e-07
3.64864e-07
3.63296e-07
3.61727e-07
3.60158e-07
3.58589e-07
3.5702e-07
3.5545e-07
3.53878e-07
3.52302e-07
3.50722e-07
3.49134e-07
3.47537e-07
3.45925e-07
3.44298e-07
3.42651e-07
3.40985e-07
3.39293e-07
3.37581e-07
3.35823e-07
3.34024e-07
3.32148e-07
3.30219e-07
3.2823e-07
3.26309e-07
4.06593e-07
4.06474e-07
4.06236e-07
4.05881e-07
4.0541e-07
4.04832e-07
4.04156e-07
4.03392e-07
4.02549e-07
4.01637e-07
4.00665e-07
3.99638e-07
3.98562e-07
3.97443e-07
3.96286e-07
3.95094e-07
3.93872e-07
3.92623e-07
3.91351e-07
3.90058e-07
3.88747e-07
3.8742e-07
3.8608e-07
3.84727e-07
3.83364e-07
3.81992e-07
3.80613e-07
3.79228e-07
3.77838e-07
3.76444e-07
3.75049e-07
3.73652e-07
3.72255e-07
3.70859e-07
3.69465e-07
3.68073e-07
3.66686e-07
3.65302e-07
3.63923e-07
3.6255e-07
3.61183e-07
3.59822e-07
3.58467e-07
3.57119e-07
3.55776e-07
3.54439e-07
3.53107e-07
3.51779e-07
3.50451e-07
3.49121e-07
3.47779e-07
3.46422e-07
3.45037e-07
3.43626e-07
3.42181e-07
3.40713e-07
3.39201e-07
3.37669e-07
3.36114e-07
3.3465e-07
4.03141e-07
4.03049e-07
4.02864e-07
4.02585e-07
4.02214e-07
4.01754e-07
4.01211e-07
4.00591e-07
3.99901e-07
3.99145e-07
3.98331e-07
3.97462e-07
3.96545e-07
3.95584e-07
3.94583e-07
3.93547e-07
3.9248e-07
3.91384e-07
3.90263e-07
3.8912e-07
3.87957e-07
3.86777e-07
3.85583e-07
3.84376e-07
3.83158e-07
3.81932e-07
3.80699e-07
3.7946e-07
3.78219e-07
3.76976e-07
3.75732e-07
3.7449e-07
3.7325e-07
3.72015e-07
3.70786e-07
3.69563e-07
3.68349e-07
3.67144e-07
3.6595e-07
3.64767e-07
3.63596e-07
3.62439e-07
3.61296e-07
3.60167e-07
3.59051e-07
3.5795e-07
3.56861e-07
3.55786e-07
3.54723e-07
3.53674e-07
3.52635e-07
3.51605e-07
3.50573e-07
3.4954e-07
3.48494e-07
3.47445e-07
3.46382e-07
3.45332e-07
3.44303e-07
3.43397e-07
4.00378e-07
4.00302e-07
4.00151e-07
3.99922e-07
3.99618e-07
3.99239e-07
3.98789e-07
3.98272e-07
3.97693e-07
3.97055e-07
3.96362e-07
3.9562e-07
3.94831e-07
3.94e-07
3.9313e-07
3.92226e-07
3.9129e-07
3.90326e-07
3.89337e-07
3.88325e-07
3.87293e-07
3.86244e-07
3.85181e-07
3.84105e-07
3.83019e-07
3.81924e-07
3.80825e-07
3.79721e-07
3.78615e-07
3.7751e-07
3.76407e-07
3.75308e-07
3.74215e-07
3.7313e-07
3.72055e-07
3.70991e-07
3.69941e-07
3.68905e-07
3.67886e-07
3.66886e-07
3.65906e-07
3.64947e-07
3.64012e-07
3.63101e-07
3.62216e-07
3.61358e-07
3.60528e-07
3.59727e-07
3.58953e-07
3.58206e-07
3.57483e-07
3.56789e-07
3.56119e-07
3.55478e-07
3.54859e-07
3.5427e-07
3.53703e-07
3.53181e-07
3.52715e-07
3.52393e-07
3.98176e-07
3.98112e-07
3.97984e-07
3.97791e-07
3.97534e-07
3.97213e-07
3.9683e-07
3.96389e-07
3.95893e-07
3.95344e-07
3.94745e-07
3.94101e-07
3.93414e-07
3.92687e-07
3.91924e-07
3.91127e-07
3.903e-07
3.89445e-07
3.88566e-07
3.87665e-07
3.86745e-07
3.85808e-07
3.84857e-07
3.83894e-07
3.82922e-07
3.81943e-07
3.8096e-07
3.79975e-07
3.7899e-07
3.78008e-07
3.7703e-07
3.76059e-07
3.75098e-07
3.74148e-07
3.73212e-07
3.72292e-07
3.71391e-07
3.70511e-07
3.69654e-07
3.68823e-07
3.68019e-07
3.67246e-07
3.66505e-07
3.65799e-07
3.65131e-07
3.64502e-07
3.63916e-07
3.63374e-07
3.62876e-07
3.62425e-07
3.62022e-07
3.61672e-07
3.61374e-07
3.61134e-07
3.60948e-07
3.60827e-07
3.60767e-07
3.60788e-07
3.60906e-07
3.61193e-07
3.96448e-07
3.96393e-07
3.96282e-07
3.96114e-07
3.95891e-07
3.95611e-07
3.95278e-07
3.94893e-07
3.94458e-07
3.93977e-07
3.9345e-07
3.92881e-07
3.92273e-07
3.91627e-07
3.90948e-07
3.90237e-07
3.89497e-07
3.88731e-07
3.87942e-07
3.87132e-07
3.86303e-07
3.85459e-07
3.84603e-07
3.83735e-07
3.8286e-07
3.81979e-07
3.81096e-07
3.80212e-07
3.79331e-07
3.78454e-07
3.77585e-07
3.76726e-07
3.75879e-07
3.75048e-07
3.74235e-07
3.73443e-07
3.72674e-07
3.71932e-07
3.7122e-07
3.7054e-07
3.69896e-07
3.69291e-07
3.68728e-07
3.68211e-07
3.67743e-07
3.67327e-07
3.66968e-07
3.66666e-07
3.66427e-07
3.66256e-07
3.66156e-07
3.66134e-07
3.66191e-07
3.66334e-07
3.66566e-07
3.66895e-07
3.67327e-07
3.67878e-07
3.68565e-07
3.69445e-07
3.9513e-07
3.95081e-07
3.94982e-07
3.94833e-07
3.94634e-07
3.94385e-07
3.94088e-07
3.93743e-07
3.93354e-07
3.92922e-07
3.92449e-07
3.91936e-07
3.91387e-07
3.90804e-07
3.90189e-07
3.89544e-07
3.88872e-07
3.88175e-07
3.87457e-07
3.86719e-07
3.85964e-07
3.85194e-07
3.84413e-07
3.83623e-07
3.82826e-07
3.82025e-07
3.81223e-07
3.80422e-07
3.79626e-07
3.78837e-07
3.78057e-07
3.77291e-07
3.7654e-07
3.75807e-07
3.75097e-07
3.74411e-07
3.73754e-07
3.73129e-07
3.72539e-07
3.71988e-07
3.7148e-07
3.71018e-07
3.70608e-07
3.70252e-07
3.69956e-07
3.69724e-07
3.69561e-07
3.69472e-07
3.69462e-07
3.69539e-07
3.69707e-07
3.69976e-07
3.70349e-07
3.70836e-07
3.71443e-07
3.7218e-07
3.73058e-07
3.74091e-07
3.753e-07
3.76725e-07
3.94178e-07
3.94133e-07
3.94043e-07
3.93907e-07
3.93724e-07
3.93496e-07
3.93224e-07
3.92908e-07
3.92551e-07
3.92154e-07
3.91718e-07
3.91247e-07
3.90741e-07
3.90202e-07
3.89633e-07
3.89037e-07
3.88415e-07
3.87769e-07
3.87103e-07
3.86419e-07
3.85718e-07
3.85005e-07
3.8428e-07
3.83548e-07
3.82811e-07
3.8207e-07
3.8133e-07
3.80593e-07
3.79862e-07
3.7914e-07
3.78429e-07
3.77734e-07
3.77057e-07
3.76401e-07
3.7577e-07
3.75168e-07
3.74598e-07
3.74064e-07
3.7357e-07
3.7312e-07
3.72719e-07
3.72371e-07
3.7208e-07
3.71853e-07
3.71695e-07
3.7161e-07
3.71606e-07
3.71688e-07
3.71864e-07
3.72141e-07
3.72529e-07
3.73034e-07
3.73666e-07
3.74434e-07
3.7535e-07
3.76426e-07
3.77673e-07
3.79109e-07
3.80752e-07
3.82633e-07
3.9356e-07
3.93518e-07
3.93433e-07
3.93305e-07
3.93133e-07
3.92919e-07
3.92662e-07
3.92365e-07
3.92028e-07
3.91653e-07
3.91242e-07
3.90796e-07
3.90318e-07
3.89808e-07
3.8927e-07
3.88705e-07
3.88116e-07
3.87504e-07
3.86873e-07
3.86224e-07
3.8556e-07
3.84883e-07
3.84197e-07
3.83504e-07
3.82806e-07
3.82107e-07
3.81408e-07
3.80714e-07
3.80027e-07
3.7935e-07
3.78687e-07
3.7804e-07
3.77413e-07
3.76809e-07
3.76233e-07
3.75688e-07
3.75178e-07
3.74706e-07
3.74278e-07
3.73899e-07
3.73571e-07
3.73302e-07
3.73096e-07
3.72958e-07
3.72895e-07
3.72913e-07
3.73019e-07
3.73222e-07
3.73528e-07
3.73948e-07
3.74489e-07
3.75162e-07
3.75978e-07
3.76947e-07
3.78083e-07
3.794e-07
3.80913e-07
3.82637e-07
3.84594e-07
3.86803e-07
3.93256e-07
3.93215e-07
3.93133e-07
3.93009e-07
3.92842e-07
3.92634e-07
3.92385e-07
3.92097e-07
3.9177e-07
3.91406e-07
3.91007e-07
3.90574e-07
3.90109e-07
3.89614e-07
3.89091e-07
3.88542e-07
3.87969e-07
3.87374e-07
3.86759e-07
3.86128e-07
3.85482e-07
3.84825e-07
3.84157e-07
3.83484e-07
3.82806e-07
3.82127e-07
3.8145e-07
3.80777e-07
3.80112e-07
3.79458e-07
3.78819e-07
3.78196e-07
3.77595e-07
3.77018e-07
3.7647e-07
3.75953e-07
3.75473e-07
3.75034e-07
3.7464e-07
3.74296e-07
3.74006e-07
3.73777e-07
3.73614e-07
3.73522e-07
3.73508e-07
3.73579e-07
3.73743e-07
3.74007e-07
3.74382e-07
3.74874e-07
3.75495e-07
3.76255e-07
3.77166e-07
3.7824e-07
3.79491e-07
3.80934e-07
3.82585e-07
3.84461e-07
3.86583e-07
3.88964e-07
3.93257e-07
3.93216e-07
3.93134e-07
3.93009e-07
3.92843e-07
3.92635e-07
3.92386e-07
3.92097e-07
3.9177e-07
3.91407e-07
3.91008e-07
3.90575e-07
3.9011e-07
3.89615e-07
3.89092e-07
3.88543e-07
3.87969e-07
3.87374e-07
3.8676e-07
3.86129e-07
3.85483e-07
3.84825e-07
3.84158e-07
3.83485e-07
3.82807e-07
3.82128e-07
3.81451e-07
3.80778e-07
3.80113e-07
3.79459e-07
3.7882e-07
3.78197e-07
3.77596e-07
3.77019e-07
3.76471e-07
3.75955e-07
3.75475e-07
3.75035e-07
3.74641e-07
3.74297e-07
3.74008e-07
3.73779e-07
3.73615e-07
3.73524e-07
3.7351e-07
3.73581e-07
3.73745e-07
3.7401e-07
3.74384e-07
3.74876e-07
3.75498e-07
3.76258e-07
3.77169e-07
3.78243e-07
3.79494e-07
3.80937e-07
3.82588e-07
3.84464e-07
3.86586e-07
3.88968e-07
3.93562e-07
3.9352e-07
3.93435e-07
3.93307e-07
3.93135e-07
3.9292e-07
3.92664e-07
3.92366e-07
3.9203e-07
3.91655e-07
3.91244e-07
3.90798e-07
3.9032e-07
3.8981e-07
3.89272e-07
3.88707e-07
3.88118e-07
3.87506e-07
3.86875e-07
3.86226e-07
3.85562e-07
3.84886e-07
3.842e-07
3.83506e-07
3.82809e-07
3.82109e-07
3.81411e-07
3.80717e-07
3.8003e-07
3.79353e-07
3.7869e-07
3.78043e-07
3.77416e-07
3.76813e-07
3.76237e-07
3.75692e-07
3.75182e-07
3.74711e-07
3.74283e-07
3.73903e-07
3.73576e-07
3.73307e-07
3.73101e-07
3.72963e-07
3.72901e-07
3.72919e-07
3.73025e-07
3.73228e-07
3.73535e-07
3.73954e-07
3.74496e-07
3.75169e-07
3.75985e-07
3.76955e-07
3.78092e-07
3.79408e-07
3.80922e-07
3.82646e-07
3.84604e-07
3.86814e-07
3.94181e-07
3.94136e-07
3.94046e-07
3.9391e-07
3.93727e-07
3.935e-07
3.93227e-07
3.92911e-07
3.92554e-07
3.92157e-07
3.91722e-07
3.9125e-07
3.90744e-07
3.90205e-07
3.89637e-07
3.8904e-07
3.88418e-07
3.87773e-07
3.87107e-07
3.86422e-07
3.85722e-07
3.85009e-07
3.84285e-07
3.83553e-07
3.82815e-07
3.82075e-07
3.81335e-07
3.80598e-07
3.79867e-07
3.79145e-07
3.78435e-07
3.7774e-07
3.77063e-07
3.76407e-07
3.75777e-07
3.75175e-07
3.74605e-07
3.74071e-07
3.73577e-07
3.73128e-07
3.72727e-07
3.72379e-07
3.72089e-07
3.71862e-07
3.71704e-07
3.7162e-07
3.71616e-07
3.71698e-07
3.71875e-07
3.72153e-07
3.7254e-07
3.73046e-07
3.73678e-07
3.74448e-07
3.75364e-07
3.7644e-07
3.77688e-07
3.79124e-07
3.80768e-07
3.8265e-07
3.95134e-07
3.95085e-07
3.94987e-07
3.94838e-07
3.94638e-07
3.94389e-07
3.94092e-07
3.93748e-07
3.93359e-07
3.92926e-07
3.92453e-07
3.91941e-07
3.91392e-07
3.90809e-07
3.90194e-07
3.89549e-07
3.88877e-07
3.88181e-07
3.87462e-07
3.86724e-07
3.85969e-07
3.852e-07
3.84419e-07
3.83629e-07
3.82832e-07
3.82031e-07
3.8123e-07
3.80429e-07
3.79633e-07
3.78844e-07
3.78065e-07
3.77298e-07
3.76548e-07
3.75816e-07
3.75106e-07
3.7442e-07
3.73764e-07
3.73139e-07
3.72549e-07
3.71998e-07
3.71491e-07
3.71029e-07
3.70619e-07
3.70264e-07
3.69969e-07
3.69737e-07
3.69575e-07
3.69486e-07
3.69477e-07
3.69554e-07
3.69724e-07
3.69992e-07
3.70366e-07
3.70854e-07
3.71461e-07
3.722e-07
3.73078e-07
3.74113e-07
3.75322e-07
3.76749e-07
3.96453e-07
3.96398e-07
3.96287e-07
3.9612e-07
3.95896e-07
3.95617e-07
3.95284e-07
3.94899e-07
3.94464e-07
3.93982e-07
3.93456e-07
3.92887e-07
3.92279e-07
3.91634e-07
3.90954e-07
3.90243e-07
3.89504e-07
3.88738e-07
3.87949e-07
3.87139e-07
3.8631e-07
3.85467e-07
3.8461e-07
3.83743e-07
3.82868e-07
3.81988e-07
3.81104e-07
3.80221e-07
3.7934e-07
3.78464e-07
3.77595e-07
3.76736e-07
3.7589e-07
3.75059e-07
3.74246e-07
3.73454e-07
3.72686e-07
3.71944e-07
3.71232e-07
3.70553e-07
3.69909e-07
3.69305e-07
3.68743e-07
3.68226e-07
3.67759e-07
3.67344e-07
3.66985e-07
3.66684e-07
3.66446e-07
3.66276e-07
3.66177e-07
3.66155e-07
3.66213e-07
3.66357e-07
3.6659e-07
3.6692e-07
3.67353e-07
3.67905e-07
3.68593e-07
3.69475e-07
3.98182e-07
3.98118e-07
3.97991e-07
3.97798e-07
3.9754e-07
3.97219e-07
3.96837e-07
3.96396e-07
3.95899e-07
3.9535e-07
3.94752e-07
3.94108e-07
3.93421e-07
3.92694e-07
3.91931e-07
3.91135e-07
3.90308e-07
3.89453e-07
3.88574e-07
3.87673e-07
3.86753e-07
3.85816e-07
3.84866e-07
3.83903e-07
3.82932e-07
3.81953e-07
3.8097e-07
3.79986e-07
3.79001e-07
3.78019e-07
3.77041e-07
3.76071e-07
3.7511e-07
3.74161e-07
3.73225e-07
3.72306e-07
3.71406e-07
3.70526e-07
3.69669e-07
3.68838e-07
3.68035e-07
3.67263e-07
3.66523e-07
3.65818e-07
3.6515e-07
3.64522e-07
3.63936e-07
3.63395e-07
3.62898e-07
3.62448e-07
3.62046e-07
3.61697e-07
3.614e-07
3.61161e-07
3.60977e-07
3.60856e-07
3.60797e-07
3.6082e-07
3.60939e-07
3.61228e-07
4.00385e-07
4.0031e-07
4.00158e-07
3.9993e-07
3.99625e-07
3.99246e-07
3.98797e-07
3.9828e-07
3.97701e-07
3.97062e-07
3.9637e-07
3.95628e-07
3.94839e-07
3.94008e-07
3.93139e-07
3.92235e-07
3.91299e-07
3.90335e-07
3.89346e-07
3.88335e-07
3.87303e-07
3.86254e-07
3.85191e-07
3.84115e-07
3.8303e-07
3.81936e-07
3.80836e-07
3.79733e-07
3.78628e-07
3.77523e-07
3.76421e-07
3.75322e-07
3.7423e-07
3.73145e-07
3.7207e-07
3.71007e-07
3.69957e-07
3.68922e-07
3.67904e-07
3.66904e-07
3.65925e-07
3.64967e-07
3.64032e-07
3.63122e-07
3.62238e-07
3.61381e-07
3.60552e-07
3.59752e-07
3.58978e-07
3.58233e-07
3.57511e-07
3.56818e-07
3.56149e-07
3.5551e-07
3.54892e-07
3.54304e-07
3.53738e-07
3.53218e-07
3.52753e-07
3.52432e-07
4.0315e-07
4.03057e-07
4.02872e-07
4.02593e-07
4.02222e-07
4.01763e-07
4.0122e-07
4.006e-07
3.99909e-07
3.99154e-07
3.9834e-07
3.97471e-07
3.96554e-07
3.95593e-07
3.94593e-07
3.93557e-07
3.9249e-07
3.91394e-07
3.90273e-07
3.89131e-07
3.87968e-07
3.86789e-07
3.85594e-07
3.84388e-07
3.8317e-07
3.81944e-07
3.80712e-07
3.79474e-07
3.78233e-07
3.7699e-07
3.75747e-07
3.74505e-07
3.73266e-07
3.72032e-07
3.70803e-07
3.69581e-07
3.68367e-07
3.67163e-07
3.65969e-07
3.64787e-07
3.63618e-07
3.62461e-07
3.61319e-07
3.6019e-07
3.59076e-07
3.57975e-07
3.56888e-07
3.55814e-07
3.54752e-07
3.53704e-07
3.52666e-07
3.51638e-07
3.50607e-07
3.49575e-07
3.4853e-07
3.47483e-07
3.46421e-07
3.45373e-07
3.44345e-07
3.43441e-07
4.06602e-07
4.06483e-07
4.06246e-07
4.0589e-07
4.05419e-07
4.04841e-07
4.04165e-07
4.03401e-07
4.02559e-07
4.01647e-07
4.00675e-07
3.99648e-07
3.98572e-07
3.97454e-07
3.96296e-07
3.95105e-07
3.93883e-07
3.92634e-07
3.91362e-07
3.9007e-07
3.88759e-07
3.87433e-07
3.86093e-07
3.8474e-07
3.83377e-07
3.82006e-07
3.80627e-07
3.79242e-07
3.77853e-07
3.7646e-07
3.75065e-07
3.73669e-07
3.72273e-07
3.70877e-07
3.69484e-07
3.68093e-07
3.66706e-07
3.65323e-07
3.63945e-07
3.62573e-07
3.61206e-07
3.59846e-07
3.58492e-07
3.57145e-07
3.55803e-07
3.54467e-07
3.53136e-07
3.5181e-07
3.50483e-07
3.49154e-07
3.47813e-07
3.46457e-07
3.45073e-07
3.43665e-07
3.42221e-07
3.40754e-07
3.39244e-07
3.37713e-07
3.3616e-07
3.34698e-07
4.10949e-07
4.10787e-07
4.10462e-07
4.09978e-07
4.09345e-07
4.08578e-07
4.07697e-07
4.0672e-07
4.05661e-07
4.04533e-07
4.03347e-07
4.0211e-07
4.00828e-07
3.99508e-07
3.98154e-07
3.96772e-07
3.95365e-07
3.93937e-07
3.9249e-07
3.91028e-07
3.8955e-07
3.88061e-07
3.86559e-07
3.85048e-07
3.83528e-07
3.82e-07
3.80465e-07
3.78924e-07
3.77377e-07
3.75826e-07
3.7427e-07
3.72711e-07
3.7115e-07
3.69586e-07
3.6802e-07
3.66454e-07
3.64886e-07
3.63319e-07
3.61751e-07
3.60183e-07
3.58614e-07
3.57046e-07
3.55477e-07
3.53906e-07
3.52331e-07
3.50752e-07
3.49165e-07
3.47569e-07
3.45959e-07
3.44334e-07
3.42687e-07
3.41023e-07
3.39332e-07
3.37622e-07
3.35866e-07
3.34068e-07
3.32194e-07
3.30266e-07
3.28279e-07
3.2636e-07
4.1647e-07
4.16256e-07
4.15825e-07
4.15179e-07
4.14335e-07
4.13321e-07
4.12171e-07
4.10913e-07
4.09574e-07
4.0817e-07
4.06714e-07
4.05214e-07
4.03677e-07
4.02111e-07
4.00521e-07
3.98911e-07
3.97286e-07
3.95649e-07
3.94e-07
3.92343e-07
3.90676e-07
3.89002e-07
3.87321e-07
3.85633e-07
3.83939e-07
3.82239e-07
3.80532e-07
3.78821e-07
3.77103e-07
3.7538e-07
3.73653e-07
3.7192e-07
3.70182e-07
3.6844e-07
3.66694e-07
3.64943e-07
3.63189e-07
3.6143e-07
3.59668e-07
3.57902e-07
3.56132e-07
3.54358e-07
3.5258e-07
3.50797e-07
3.49008e-07
3.47213e-07
3.4541e-07
3.43599e-07
3.41777e-07
3.3994e-07
3.38085e-07
3.36204e-07
3.34287e-07
3.32323e-07
3.30293e-07
3.28186e-07
3.2599e-07
3.23716e-07
3.21366e-07
3.19037e-07
4.23171e-07
4.22738e-07
4.21951e-07
4.20861e-07
4.19536e-07
4.18048e-07
4.16454e-07
4.14792e-07
4.13085e-07
4.11342e-07
4.09571e-07
4.07776e-07
4.05965e-07
4.04142e-07
4.02314e-07
4.00483e-07
3.98651e-07
3.96817e-07
3.94982e-07
3.93145e-07
3.91305e-07
3.89463e-07
3.87617e-07
3.85766e-07
3.83911e-07
3.8205e-07
3.80183e-07
3.7831e-07
3.76429e-07
3.74541e-07
3.72646e-07
3.70742e-07
3.68831e-07
3.66911e-07
3.64984e-07
3.63047e-07
3.61103e-07
3.5915e-07
3.5719e-07
3.55219e-07
3.53243e-07
3.51255e-07
3.49261e-07
3.47253e-07
3.4524e-07
3.43211e-07
3.41175e-07
3.39118e-07
3.37055e-07
3.34963e-07
3.32865e-07
3.30729e-07
3.2859e-07
3.26402e-07
3.24216e-07
3.21967e-07
3.19729e-07
3.17412e-07
3.1512e-07
3.12748e-07
4.34906e-07
4.34156e-07
4.32742e-07
4.3079e-07
4.28506e-07
4.26085e-07
4.23655e-07
4.21266e-07
4.18919e-07
4.16604e-07
4.14311e-07
4.12038e-07
4.09793e-07
4.07579e-07
4.05398e-07
4.03249e-07
4.01127e-07
3.99028e-07
3.96946e-07
3.94879e-07
3.92822e-07
3.90772e-07
3.88728e-07
3.86687e-07
3.84646e-07
3.82604e-07
3.80558e-07
3.78507e-07
3.7645e-07
3.74385e-07
3.72312e-07
3.70229e-07
3.68138e-07
3.66035e-07
3.63922e-07
3.61798e-07
3.59664e-07
3.57517e-07
3.55362e-07
3.53192e-07
3.51016e-07
3.48823e-07
3.46627e-07
3.4441e-07
3.42196e-07
3.39955e-07
3.37725e-07
3.35461e-07
3.33223e-07
3.30937e-07
3.28702e-07
3.264e-07
3.2419e-07
3.21882e-07
3.19732e-07
3.17433e-07
3.15394e-07
3.13108e-07
3.11221e-07
3.08855e-07
4.43647e-07
4.4192e-07
4.39275e-07
4.36149e-07
4.32933e-07
4.29839e-07
4.26916e-07
4.24129e-07
4.21427e-07
4.18781e-07
4.16183e-07
4.1364e-07
4.11158e-07
4.08736e-07
4.0637e-07
4.04049e-07
4.01764e-07
3.99507e-07
3.97273e-07
3.95057e-07
3.92853e-07
3.90659e-07
3.88471e-07
3.86284e-07
3.84097e-07
3.81906e-07
3.7971e-07
3.77506e-07
3.75293e-07
3.73069e-07
3.70834e-07
3.68587e-07
3.66327e-07
3.64053e-07
3.61767e-07
3.59466e-07
3.57154e-07
3.54825e-07
3.52487e-07
3.50132e-07
3.47769e-07
3.45387e-07
3.43002e-07
3.40592e-07
3.38187e-07
3.35747e-07
3.33326e-07
3.30852e-07
3.28423e-07
3.25912e-07
3.23496e-07
3.20949e-07
3.18598e-07
3.16035e-07
3.13885e-07
3.11372e-07
3.09757e-07
3.07373e-07
3.06901e-07
3.0423e-07
4.91691e-07
4.77568e-07
4.63801e-07
4.53224e-07
4.45801e-07
4.4041e-07
4.35959e-07
4.3188e-07
4.28004e-07
4.2434e-07
4.20923e-07
4.17759e-07
4.14813e-07
4.12036e-07
4.09382e-07
4.06816e-07
4.04317e-07
4.01873e-07
3.99472e-07
3.97106e-07
3.94766e-07
3.92445e-07
3.90136e-07
3.87833e-07
3.85532e-07
3.83229e-07
3.80922e-07
3.78607e-07
3.76282e-07
3.73947e-07
3.71599e-07
3.69238e-07
3.66863e-07
3.64475e-07
3.62071e-07
3.59654e-07
3.57223e-07
3.54778e-07
3.52319e-07
3.49848e-07
3.47365e-07
3.4487e-07
3.42363e-07
3.39844e-07
3.37314e-07
3.34771e-07
3.32216e-07
3.29644e-07
3.27061e-07
3.24451e-07
3.21835e-07
3.19161e-07
3.16512e-07
3.13715e-07
3.11072e-07
3.07944e-07
3.05593e-07
3.01192e-07
3.00889e-07
2.903e-07
3.3011e-07
2.79602e-07
2.58716e-07
2.41178e-07
2.23617e-07
2.05905e-07
1.86149e-07
1.65036e-07
1.40424e-07
1.13934e-07
8.31638e-08
5.09585e-08
1.44311e-08
-2.21908e-08
-6.24397e-08
-1.00669e-07
-1.41555e-07
-1.77983e-07
-2.16072e-07
-2.47587e-07
-2.79625e-07
-3.03324e-07
-3.2751e-07
-3.41662e-07
-3.57421e-07
-3.61251e-07
-3.7195e-07
-3.65611e-07
-3.78671e-07
-4.45293e-07
3.1623e-07
2.61176e-07
2.4728e-07
2.32313e-07
2.15432e-07
1.98129e-07
1.78684e-07
1.57721e-07
1.33308e-07
1.07176e-07
7.70415e-08
4.56948e-08
1.03401e-08
-2.49599e-08
-6.36938e-08
-1.00467e-07
-1.39591e-07
-1.7468e-07
-2.11121e-07
-2.41805e-07
-2.73561e-07
-2.968e-07
-3.21934e-07
-3.36125e-07
-3.53888e-07
-3.57462e-07
-3.6864e-07
-3.66731e-07
-3.60832e-07
-4.9019e-07
3.04051e-07
2.5872e-07
2.45868e-07
2.31383e-07
2.1401e-07
1.95715e-07
1.75755e-07
1.54443e-07
1.29985e-07
1.03723e-07
7.38192e-08
4.25745e-08
7.75388e-09
-2.71783e-08
-6.50993e-08
-1.01271e-07
-1.39649e-07
-1.74341e-07
-2.10698e-07
-2.40749e-07
-2.72382e-07
-2.95794e-07
-3.20541e-07
-3.35686e-07
-3.5297e-07
-3.60448e-07
-3.69149e-07
-3.79871e-07
-3.53529e-07
-4.52805e-07
2.93886e-07
2.5463e-07
2.39708e-07
2.2572e-07
2.09052e-07
1.91366e-07
1.71597e-07
1.50116e-07
1.25708e-07
9.92893e-08
6.96944e-08
3.84729e-08
4.35531e-09
-3.03541e-08
-6.71972e-08
-1.03128e-07
-1.40248e-07
-1.74806e-07
-2.09562e-07
-2.40231e-07
-2.70486e-07
-2.95561e-07
-3.19198e-07
-3.37652e-07
-3.52857e-07
-3.66641e-07
-3.69128e-07
-3.92117e-07
-3.55992e-07
-4.2753e-07
2.84079e-07
2.52047e-07
2.36259e-07
2.23402e-07
2.07295e-07
1.88808e-07
1.68525e-07
1.46467e-07
1.22018e-07
9.51731e-08
6.58191e-08
3.42977e-08
8.45734e-10
-3.40092e-08
-6.97491e-08
-1.05818e-07
-1.41493e-07
-1.76444e-07
-2.09656e-07
-2.41575e-07
-2.70208e-07
-2.97587e-07
-3.19226e-07
-3.41948e-07
-3.53684e-07
-3.74075e-07
-3.70174e-07
-3.96644e-07
-3.67216e-07
-4.02398e-07
2.75502e-07
2.50326e-07
2.33709e-07
2.20376e-07
2.04536e-07
1.85947e-07
1.65487e-07
1.42923e-07
1.18361e-07
9.10423e-08
6.18246e-08
2.99132e-08
-3.00136e-09
-3.81276e-08
-7.28694e-08
-1.09216e-07
-1.43496e-07
-1.79032e-07
-2.10633e-07
-2.43786e-07
-2.70594e-07
-3.00311e-07
-3.20049e-07
-3.46054e-07
-3.55963e-07
-3.79091e-07
-3.75804e-07
-3.97505e-07
-3.84495e-07
-3.97599e-07
2.68489e-07
2.48815e-07
2.32078e-07
2.17896e-07
2.0219e-07
1.8351e-07
1.62806e-07
1.39642e-07
1.14796e-07
8.69433e-08
5.76873e-08
2.53703e-08
-7.22595e-09
-4.25803e-08
-7.65946e-08
-1.13077e-07
-1.46309e-07
-1.82113e-07
-2.12569e-07
-2.46342e-07
-2.72246e-07
-3.0303e-07
-3.22565e-07
-3.49524e-07
-3.60849e-07
-3.82981e-07
-3.85584e-07
-4.00951e-07
-4.00086e-07
-4.04882e-07
2.63254e-07
2.47397e-07
2.31167e-07
2.16019e-07
2.00079e-07
1.81228e-07
1.60207e-07
1.3646e-07
1.11155e-07
8.27979e-08
5.32889e-08
2.06676e-08
-1.19e-08
-4.72902e-08
-8.09686e-08
-1.17246e-07
-1.49969e-07
-1.85464e-07
-2.1555e-07
-2.49042e-07
-2.75197e-07
-3.05664e-07
-3.2673e-07
-3.52831e-07
-3.67902e-07
-3.87618e-07
-3.96778e-07
-4.0778e-07
-4.13014e-07
-4.17124e-07
2.59867e-07
2.4608e-07
2.30498e-07
2.14702e-07
1.98206e-07
1.79027e-07
1.57587e-07
1.33295e-07
1.07381e-07
7.85584e-08
4.8594e-08
1.5779e-08
-1.70255e-08
-5.22545e-08
-8.59491e-08
-1.21703e-07
-1.54392e-07
-1.89096e-07
-2.19428e-07
-2.51982e-07
-2.79117e-07
-3.0853e-07
-3.31744e-07
-3.56624e-07
-3.75141e-07
-3.9371e-07
-4.06932e-07
-4.18005e-07
-4.2547e-07
-4.31068e-07
2.58082e-07
2.44931e-07
2.29907e-07
2.13748e-07
1.96527e-07
1.76843e-07
1.54852e-07
1.30038e-07
1.03412e-07
7.41409e-08
4.35814e-08
1.06313e-08
-2.25713e-08
-5.75352e-08
-9.14392e-08
-1.26519e-07
-1.59386e-07
-1.93112e-07
-2.23869e-07
-2.55335e-07
-2.83447e-07
-3.11896e-07
-3.36824e-07
-3.61186e-07
-3.82015e-07
-4.00946e-07
-4.16436e-07
-4.28944e-07
-4.38406e-07
-4.4602e-07
2.57433e-07
2.44087e-07
2.29274e-07
2.12871e-07
1.94913e-07
1.74594e-07
1.51923e-07
1.26566e-07
9.91863e-08
6.94469e-08
3.82346e-08
5.1349e-09
-2.85041e-08
-6.32135e-08
-9.73398e-08
-1.31771e-07
-1.64765e-07
-1.97596e-07
-2.28595e-07
-2.59181e-07
-2.87863e-07
-3.15788e-07
-3.41744e-07
-3.66278e-07
-3.88556e-07
-4.08535e-07
-4.25794e-07
-4.40178e-07
-4.51806e-07
-4.61566e-07
2.57357e-07
2.43588e-07
2.28615e-07
2.11877e-07
1.93194e-07
1.72165e-07
1.4873e-07
1.22771e-07
9.46294e-08
6.43759e-08
3.25137e-08
-7.98753e-10
-3.48321e-08
-6.93655e-08
-1.0362e-07
-1.37517e-07
-1.70464e-07
-2.02571e-07
-2.33526e-07
-2.63477e-07
-2.92324e-07
-3.20027e-07
-3.46549e-07
-3.71544e-07
-3.94927e-07
-4.16159e-07
-4.35123e-07
-4.51473e-07
-4.6537e-07
-4.77532e-07
2.57453e-07
2.43298e-07
2.27888e-07
2.1064e-07
1.91216e-07
1.69437e-07
1.45195e-07
1.1856e-07
8.96531e-08
5.88288e-08
2.63379e-08
-7.25784e-09
-4.16274e-08
-7.60662e-08
-1.1034e-07
-1.43807e-07
-1.76538e-07
-2.08042e-07
-2.38724e-07
-2.68156e-07
-2.96913e-07
-3.24471e-07
-3.51344e-07
-3.76819e-07
-4.01213e-07
-4.23676e-07
-4.44398e-07
-4.62667e-07
-4.78977e-07
-4.93553e-07
2.57482e-07
2.43011e-07
2.2701e-07
2.09094e-07
1.8889e-07
1.66322e-07
1.4124e-07
1.13848e-07
8.41548e-08
5.26956e-08
1.95891e-08
-1.43529e-08
-4.90135e-08
-8.3417e-08
-1.17627e-07
-1.50718e-07
-1.83113e-07
-2.1405e-07
-2.44309e-07
-2.73221e-07
-3.01724e-07
-3.29091e-07
-3.56174e-07
-3.82057e-07
-4.0738e-07
-4.3102e-07
-4.53495e-07
-4.73689e-07
-4.92461e-07
-5.09534e-07
2.5735e-07
2.42535e-07
2.25895e-07
2.07219e-07
1.8618e-07
1.62757e-07
1.36782e-07
1.08539e-07
7.80121e-08
4.58438e-08
1.21144e-08
-2.22303e-08
-5.71562e-08
-9.15611e-08
-1.25646e-07
-1.5837e-07
-1.90337e-07
-2.20684e-07
-2.50397e-07
-2.78722e-07
-3.06824e-07
-3.33895e-07
-3.6103e-07
-3.87209e-07
-4.13327e-07
-4.38078e-07
-4.62247e-07
-4.84394e-07
-5.05666e-07
-5.25331e-07
2.57111e-07
2.41829e-07
2.24528e-07
2.05037e-07
1.83084e-07
1.58695e-07
1.31726e-07
1.02512e-07
7.10741e-08
3.81087e-08
3.72628e-09
-3.10742e-08
-6.62529e-08
-1.00677e-07
-1.34582e-07
-1.66917e-07
-1.98364e-07
-2.28054e-07
-2.57092e-07
-2.84718e-07
-3.12248e-07
-3.38872e-07
-3.65857e-07
-3.92177e-07
-4.1889e-07
-4.44658e-07
-4.70394e-07
-4.94532e-07
-5.18322e-07
-5.40728e-07
2.5694e-07
2.40974e-07
2.22953e-07
2.02573e-07
1.79583e-07
1.5406e-07
1.25942e-07
9.56053e-08
6.31473e-08
2.92833e-08
-5.79866e-09
-4.11035e-08
-7.65234e-08
-1.10963e-07
-1.44623e-07
-1.76518e-07
-2.07333e-07
-2.36268e-07
-2.64479e-07
-2.91254e-07
-3.18014e-07
-3.43982e-07
-3.70573e-07
-3.96803e-07
-4.23861e-07
-4.50473e-07
-4.77584e-07
-5.03712e-07
-5.29973e-07
-5.55371e-07
2.57083e-07
2.40134e-07
2.21216e-07
1.99783e-07
1.75563e-07
1.48687e-07
1.19221e-07
8.75839e-08
5.39773e-08
1.91091e-08
-1.67235e-08
-5.25674e-08
-8.82058e-08
-1.22633e-07
-1.55962e-07
-1.87335e-07
-2.17385e-07
-2.45434e-07
-2.72641e-07
-2.98375e-07
-3.24141e-07
-3.49188e-07
-3.75114e-07
-4.00918e-07
-4.28038e-07
-4.55165e-07
-4.83436e-07
-5.11369e-07
-5.40051e-07
-5.6851e-07
2.57661e-07
2.3942e-07
2.19274e-07
1.96479e-07
1.70756e-07
1.4228e-07
1.1125e-07
7.81295e-08
4.32381e-08
7.26808e-09
-2.93596e-08
-6.57541e-08
-1.01571e-07
-1.35927e-07
-1.68819e-07
-1.99564e-07
-2.28688e-07
-2.55703e-07
-2.81692e-07
-3.06181e-07
-3.30678e-07
-3.54511e-07
-3.79433e-07
-4.0441e-07
-4.31223e-07
-4.58389e-07
-4.87512e-07
-5.16829e-07
-5.47774e-07
-5.79024e-07
2.58443e-07
2.38642e-07
2.168e-07
1.92232e-07
1.64696e-07
1.34377e-07
1.01578e-07
6.68028e-08
3.04963e-08
-6.65537e-09
-4.4108e-08
-8.10364e-08
-1.16972e-07
-1.51169e-07
-1.83501e-07
-2.13487e-07
-2.41506e-07
-2.67318e-07
-2.91839e-07
-3.14859e-07
-3.37744e-07
-3.60053e-07
-3.8352e-07
-4.07234e-07
-4.33208e-07
-4.59836e-07
-4.89297e-07
-5.1931e-07
-5.5214e-07
-5.85427e-07
2.58679e-07
2.37051e-07
2.13157e-07
1.86459e-07
1.56799e-07
1.24385e-07
8.96044e-08
5.30093e-08
1.51629e-08
-2.32324e-08
-6.15247e-08
-9.89402e-08
-1.34914e-07
-1.6883e-07
-2.00462e-07
-2.29523e-07
-2.5625e-07