/*--------------------------------*- C++ -*----------------------------------*\
| =========                 |                                                 |
| \\      /  F ield         | OpenFOAM: The Open Source CFD Toolbox           |
|  \\    /   O peration     | Version:  2312                                  |
|   \\  /    A nd           | Website:  www.openfoam.com                      |
|    \\/     M anipulation  |                                                 |
\*---------------------------------------------------------------------------*/
FoamFile
{
    version     2.0;
    format      ascii;
    arch        "LSB;label=32;scalar=64";
    class       volVectorField;
    location    "38000";
    object      U;
}
// * * * * * * * * * * * * * * * * * * * * * * * * * * * * * * * * * * * * * //

dimensions      [0 1 -1 0 0 0 0];

internalField   nonuniform List<vector> 
10800
(
(0.000992484 4.94183e-06 0)
(0.000990038 1.24575e-05 0)
(0.000986873 1.74787e-05 0)
(0.000980501 2.06623e-05 0)
(0.000971089 2.27453e-05 0)
(0.0009598 2.42387e-05 0)
(0.0009477 2.53776e-05 0)
(0.000935325 2.62367e-05 0)
(0.000922817 2.68402e-05 0)
(0.000910154 2.72134e-05 0)
(0.000897291 2.73938e-05 0)
(0.000884225 2.74244e-05 0)
(0.000870992 2.73431e-05 0)
(0.000857647 2.71781e-05 0)
(0.000844243 2.69474e-05 0)
(0.000830816 2.66628e-05 0)
(0.000817393 2.63323e-05 0)
(0.000803991 2.59624e-05 0)
(0.000790628 2.55586e-05 0)
(0.000777317 2.51257e-05 0)
(0.000764074 2.46676e-05 0)
(0.000750913 2.41874e-05 0)
(0.00073785 2.3687e-05 0)
(0.000724898 2.31684e-05 0)
(0.00071207 2.26325e-05 0)
(0.00069938 2.20808e-05 0)
(0.000686839 2.15134e-05 0)
(0.00067446 2.09317e-05 0)
(0.000662256 2.03352e-05 0)
(0.000650238 1.97257e-05 0)
(0.000638421 1.91017e-05 0)
(0.000626816 1.84659e-05 0)
(0.000615436 1.78155e-05 0)
(0.000604292 1.71548e-05 0)
(0.000593401 1.64792e-05 0)
(0.000582768 1.57953e-05 0)
(0.000572415 1.50957e-05 0)
(0.000562344 1.43911e-05 0)
(0.00055258 1.36688e-05 0)
(0.000543118 1.29468e-05 0)
(0.000533996 1.22032e-05 0)
(0.000525188 1.14681e-05 0)
(0.000516761 1.07041e-05 0)
(0.000508644 9.96182e-06 0)
(0.000500975 9.1767e-06 0)
(0.000493572 8.43433e-06 0)
(0.000486746 7.62418e-06 0)
(0.000480036 6.88869e-06 0)
(0.000474213 6.04475e-06 0)
(0.000468054 5.31469e-06 0)
(0.000463614 4.42851e-06 0)
(0.000457498 3.65682e-06 0)
(0.0004555 2.76702e-06 0)
(0.000447786 1.70504e-06 0)
(0.000451364 1.1385e-06 0)
(0.000436974 -1.27759e-06 0)
(0.000455425 1.02472e-07 0)
(0.000419444 -7.73453e-06 0)
(0.000477834 2.02862e-06 0)
(0.000383091 -2.44735e-05 0)
(0.00100003 5.80202e-06 0)
(0.00100172 1.4992e-05 0)
(0.00100423 2.15221e-05 0)
(0.00100706 2.60845e-05 0)
(0.00100979 2.94419e-05 0)
(0.00101219 3.21225e-05 0)
(0.00101421 3.4374e-05 0)
(0.00101589 3.62829e-05 0)
(0.00101726 3.78817e-05 0)
(0.00101837 3.9201e-05 0)
(0.00101923 4.02823e-05 0)
(0.00101982 4.11713e-05 0)
(0.00102014 4.19086e-05 0)
(0.0010202 4.25243e-05 0)
(0.00102001 4.30382e-05 0)
(0.00101958 4.34632e-05 0)
(0.00101892 4.38079e-05 0)
(0.00101806 4.4079e-05 0)
(0.00101699 4.4282e-05 0)
(0.00101573 4.44217e-05 0)
(0.00101429 4.45017e-05 0)
(0.00101268 4.45247e-05 0)
(0.00101091 4.44927e-05 0)
(0.00100898 4.44067e-05 0)
(0.00100692 4.42679e-05 0)
(0.00100471 4.40761e-05 0)
(0.00100239 4.38326e-05 0)
(0.00099994 4.35358e-05 0)
(0.000997412 4.31877e-05 0)
(0.000994748 4.27852e-05 0)
(0.000992049 4.23319e-05 0)
(0.000989206 4.1822e-05 0)
(0.000986383 4.12625e-05 0)
(0.000983389 4.06428e-05 0)
(0.000980494 3.99766e-05 0)
(0.000977372 3.92443e-05 0)
(0.00097447 3.84719e-05 0)
(0.00097123 3.76234e-05 0)
(0.000968402 3.67474e-05 0)
(0.000965034 3.57778e-05 0)
(0.000962395 3.48038e-05 0)
(0.000958853 3.3705e-05 0)
(0.000956566 3.26443e-05 0)
(0.00095274 3.14023e-05 0)
(0.000951059 3.02746e-05 0)
(0.000946725 2.88635e-05 0)
(0.000946055 2.77032e-05 0)
(0.00094079 2.60755e-05 0)
(0.000941796 2.49414e-05 0)
(0.000934828 2.30102e-05 0)
(0.000938625 2.20021e-05 0)
(0.000928571 1.96132e-05 0)
(0.000937041 1.88966e-05 0)
(0.000921454 1.57871e-05 0)
(0.000937783 1.56223e-05 0)
(0.000912369 1.13828e-05 0)
(0.000941975 1.21033e-05 0)
(0.000899277 6.26523e-06 0)
(0.000951512 7.89275e-06 0)
(0.000879037 8.51738e-07 0)
(0.000999989 1.96258e-06 0)
(0.00100078 5.76406e-06 0)
(0.00100224 9.2891e-06 0)
(0.00100423 1.24538e-05 0)
(0.00100654 1.52555e-05 0)
(0.00100897 1.77392e-05 0)
(0.00101139 1.99598e-05 0)
(0.00101376 2.19601e-05 0)
(0.00101607 2.37676e-05 0)
(0.00101833 2.53987e-05 0)
(0.00102055 2.68668e-05 0)
(0.00102272 2.81852e-05 0)
(0.00102483 2.93683e-05 0)
(0.00102689 3.04299e-05 0)
(0.00102887 3.13825e-05 0)
(0.00103079 3.22358e-05 0)
(0.00103264 3.29981e-05 0)
(0.00103442 3.36748e-05 0)
(0.00103615 3.42717e-05 0)
(0.00103781 3.4792e-05 0)
(0.00103942 3.52402e-05 0)
(0.00104097 3.56177e-05 0)
(0.00104247 3.59285e-05 0)
(0.0010439 3.61717e-05 0)
(0.00104529 3.63517e-05 0)
(0.00104661 3.64652e-05 0)
(0.00104791 3.65178e-05 0)
(0.00104912 3.65031e-05 0)
(0.00105033 3.64295e-05 0)
(0.00105144 3.62859e-05 0)
(0.00105257 3.60857e-05 0)
(0.00105356 3.58111e-05 0)
(0.00105463 3.54832e-05 0)
(0.00105552 3.50741e-05 0)
(0.00105653 3.46173e-05 0)
(0.0010573 3.40694e-05 0)
(0.0010583 3.34832e-05 0)
(0.00105893 3.2791e-05 0)
(0.00105995 3.2076e-05 0)
(0.00106043 3.1233e-05 0)
(0.00106153 3.03917e-05 0)
(0.00106179 2.93901e-05 0)
(0.00106306 2.8428e-05 0)
(0.00106304 2.72577e-05 0)
(0.00106461 2.61839e-05 0)
(0.00106417 2.48322e-05 0)
(0.00106623 2.36611e-05 0)
(0.00106518 2.21122e-05 0)
(0.00106802 2.08647e-05 0)
(0.00106601 1.91008e-05 0)
(0.00107007 1.78063e-05 0)
(0.00106661 1.58118e-05 0)
(0.00107254 1.45095e-05 0)
(0.00106682 1.22843e-05 0)
(0.00107561 1.10242e-05 0)
(0.0010664 8.62109e-06 0)
(0.00107955 7.46455e-06 0)
(0.00106498 5.08394e-06 0)
(0.00108478 4.06108e-06 0)
(0.00106209 2.20752e-06 0)
(0.00100001 1.74164e-06 0)
(0.00100047 5.1594e-06 0)
(0.00100128 8.42032e-06 0)
(0.00100239 1.14481e-05 0)
(0.00100374 1.42019e-05 0)
(0.00100526 1.66787e-05 0)
(0.00100689 1.89003e-05 0)
(0.00100858 2.08963e-05 0)
(0.00101033 2.2694e-05 0)
(0.00101212 2.43139e-05 0)
(0.00101394 2.57719e-05 0)
(0.00101578 2.70806e-05 0)
(0.00101764 2.82525e-05 0)
(0.00101951 2.92994e-05 0)
(0.00102139 3.02331e-05 0)
(0.00102327 3.10637e-05 0)
(0.00102515 3.18003e-05 0)
(0.00102703 3.24499e-05 0)
(0.0010289 3.30188e-05 0)
(0.00103077 3.35112e-05 0)
(0.00103264 3.39319e-05 0)
(0.0010345 3.42831e-05 0)
(0.00103636 3.45688e-05 0)
(0.00103821 3.47894e-05 0)
(0.00104006 3.49484e-05 0)
(0.0010419 3.50445e-05 0)
(0.00104374 3.50811e-05 0)
(0.00104556 3.50553e-05 0)
(0.0010474 3.49711e-05 0)
(0.00104921 3.48235e-05 0)
(0.00105104 3.46177e-05 0)
(0.00105283 3.43463e-05 0)
(0.00105465 3.40166e-05 0)
(0.00105641 3.36184e-05 0)
(0.00105823 3.31614e-05 0)
(0.00105996 3.26323e-05 0)
(0.00106178 3.20439e-05 0)
(0.00106348 3.13793e-05 0)
(0.0010653 3.06549e-05 0)
(0.00106696 2.98506e-05 0)
(0.0010688 2.8985e-05 0)
(0.00107039 2.80372e-05 0)
(0.00107227 2.70251e-05 0)
(0.00107379 2.59317e-05 0)
(0.00107573 2.47666e-05 0)
(0.00107715 2.35283e-05 0)
(0.00107919 2.22027e-05 0)
(0.00108049 2.08257e-05 0)
(0.00108267 1.93293e-05 0)
(0.00108379 1.78297e-05 0)
(0.0010862 1.6149e-05 0)
(0.00108709 1.45615e-05 0)
(0.00108982 1.26789e-05 0)
(0.00109037 1.10719e-05 0)
(0.00109356 8.96465e-06 0)
(0.00109363 7.46383e-06 0)
(0.00109748 5.09716e-06 0)
(0.00109685 3.90874e-06 0)
(0.00110163 1.19639e-06 0)
(0.00109996 6.0797e-07 0)
(0.001 1.15316e-06 0)
(0.00100023 3.43208e-06 0)
(0.00100067 5.64549e-06 0)
(0.00100134 7.76169e-06 0)
(0.0010022 9.75931e-06 0)
(0.00100323 1.16281e-05 0)
(0.00100441 1.33666e-05 0)
(0.00100569 1.4979e-05 0)
(0.00100705 1.64714e-05 0)
(0.00100848 1.78497e-05 0)
(0.00100996 1.91195e-05 0)
(0.00101149 2.02856e-05 0)
(0.00101305 2.13528e-05 0)
(0.00101465 2.23259e-05 0)
(0.00101627 2.321e-05 0)
(0.00101791 2.40097e-05 0)
(0.00101956 2.47297e-05 0)
(0.00102123 2.53737e-05 0)
(0.00102291 2.59452e-05 0)
(0.00102459 2.6447e-05 0)
(0.00102629 2.68814e-05 0)
(0.00102799 2.72505e-05 0)
(0.0010297 2.75557e-05 0)
(0.00103141 2.77985e-05 0)
(0.00103313 2.79796e-05 0)
(0.00103485 2.80999e-05 0)
(0.00103658 2.81594e-05 0)
(0.00103831 2.81589e-05 0)
(0.00104005 2.80972e-05 0)
(0.00104178 2.79756e-05 0)
(0.00104352 2.77912e-05 0)
(0.00104526 2.75468e-05 0)
(0.001047 2.7237e-05 0)
(0.00104874 2.68671e-05 0)
(0.00105049 2.64275e-05 0)
(0.00105222 2.59286e-05 0)
(0.00105397 2.53541e-05 0)
(0.0010557 2.47226e-05 0)
(0.00105744 2.40065e-05 0)
(0.00105918 2.32392e-05 0)
(0.00106091 2.23736e-05 0)
(0.00106264 2.14681e-05 0)
(0.00106437 2.04438e-05 0)
(0.0010661 1.93999e-05 0)
(0.00106782 1.82052e-05 0)
(0.00106955 1.70266e-05 0)
(0.00107126 1.56471e-05 0)
(0.001073 1.43437e-05 0)
(0.00107469 1.276e-05 0)
(0.00107646 1.13517e-05 0)
(0.00107814 9.5364e-06 0)
(0.00107998 8.05664e-06 0)
(0.00108163 5.96738e-06 0)
(0.0010836 4.46985e-06 0)
(0.00108525 2.04061e-06 0)
(0.00108744 6.15387e-07 0)
(0.00108907 -2.24532e-06 0)
(0.00109157 -3.44522e-06 0)
(0.00109307 -6.87584e-06 0)
(0.00109588 -7.63168e-06 0)
(0.001 9.27101e-07 0)
(0.00100017 2.77256e-06 0)
(0.00100051 4.59084e-06 0)
(0.001001 6.36304e-06 0)
(0.00100165 8.0717e-06 0)
(0.00100242 9.70296e-06 0)
(0.00100331 1.12475e-05 0)
(0.0010043 1.27006e-05 0)
(0.00100537 1.40606e-05 0)
(0.00100651 1.53279e-05 0)
(0.0010077 1.65041e-05 0)
(0.00100895 1.75911e-05 0)
(0.00101024 1.85911e-05 0)
(0.00101158 1.95068e-05 0)
(0.00101294 2.03408e-05 0)
(0.00101434 2.10962e-05 0)
(0.00101576 2.17758e-05 0)
(0.0010172 2.23825e-05 0)
(0.00101866 2.29188e-05 0)
(0.00102014 2.33873e-05 0)
(0.00102163 2.37895e-05 0)
(0.00102314 2.41277e-05 0)
(0.00102465 2.44028e-05 0)
(0.00102618 2.46168e-05 0)
(0.00102771 2.47696e-05 0)
(0.00102925 2.48632e-05 0)
(0.0010308 2.48964e-05 0)
(0.00103235 2.48715e-05 0)
(0.0010339 2.47859e-05 0)
(0.00103547 2.46429e-05 0)
(0.00103703 2.44377e-05 0)
(0.00103859 2.41754e-05 0)
(0.00104016 2.38481e-05 0)
(0.00104173 2.34641e-05 0)
(0.00104329 2.30109e-05 0)
(0.00104486 2.2502e-05 0)
(0.00104642 2.19176e-05 0)
(0.00104798 2.12801e-05 0)
(0.00104953 2.05578e-05 0)
(0.0010511 1.97875e-05 0)
(0.00105264 1.89192e-05 0)
(0.00105421 1.80123e-05 0)
(0.00105573 1.69878e-05 0)
(0.0010573 1.59414e-05 0)
(0.0010588 1.47484e-05 0)
(0.00106039 1.35612e-05 0)
(0.00106187 1.21836e-05 0)
(0.0010635 1.08576e-05 0)
(0.00106495 9.27454e-06 0)
(0.00106663 7.81734e-06 0)
(0.00106805 6.00211e-06 0)
(0.00106981 4.43193e-06 0)
(0.00107117 2.34865e-06 0)
(0.00107307 6.96549e-07 0)
(0.00107434 -1.71305e-06 0)
(0.00107645 -3.40777e-06 0)
(0.00107761 -6.24602e-06 0)
(0.00108007 -7.92597e-06 0)
(0.00108099 -1.13401e-05 0)
(0.00108378 -1.29032e-05 0)
(0.001 7.32678e-07 0)
(0.00100013 2.19149e-06 0)
(0.00100037 3.63079e-06 0)
(0.00100074 5.0379e-06 0)
(0.00100121 6.40141e-06 0)
(0.0010018 7.71197e-06 0)
(0.00100248 8.96271e-06 0)
(0.00100326 1.01491e-05 0)
(0.00100411 1.12686e-05 0)
(0.00100503 1.23201e-05 0)
(0.00100601 1.33034e-05 0)
(0.00100705 1.42189e-05 0)
(0.00100813 1.50673e-05 0)
(0.00100926 1.58495e-05 0)
(0.00101043 1.65665e-05 0)
(0.00101163 1.72195e-05 0)
(0.00101286 1.78097e-05 0)
(0.00101412 1.83387e-05 0)
(0.0010154 1.88074e-05 0)
(0.0010167 1.92173e-05 0)
(0.00101802 1.9569e-05 0)
(0.00101935 1.98639e-05 0)
(0.0010207 2.01022e-05 0)
(0.00102206 2.02851e-05 0)
(0.00102343 2.04121e-05 0)
(0.00102481 2.04847e-05 0)
(0.00102619 2.05013e-05 0)
(0.00102758 2.04638e-05 0)
(0.00102897 2.03695e-05 0)
(0.00103037 2.0221e-05 0)
(0.00103177 2.00139e-05 0)
(0.00103316 1.97523e-05 0)
(0.00103456 1.94292e-05 0)
(0.00103595 1.90511e-05 0)
(0.00103734 1.86074e-05 0)
(0.00103873 1.81087e-05 0)
(0.0010401 1.75385e-05 0)
(0.00104148 1.69139e-05 0)
(0.00104284 1.62097e-05 0)
(0.00104421 1.54534e-05 0)
(0.00104555 1.46059e-05 0)
(0.00104691 1.37116e-05 0)
(0.00104823 1.27093e-05 0)
(0.00104958 1.16701e-05 0)
(0.00105086 1.04989e-05 0)
(0.0010522 9.30823e-06 0)
(0.00105345 7.94985e-06 0)
(0.0010548 6.60149e-06 0)
(0.00105601 5.03168e-06 0)
(0.00105738 3.52036e-06 0)
(0.00105855 1.7058e-06 0)
(0.00105999 2.94688e-08 0)
(0.00106112 -2.07184e-06 0)
(0.00106267 -3.90148e-06 0)
(0.00106375 -6.33946e-06 0)
(0.00106544 -8.29618e-06 0)
(0.00106641 -1.11521e-05 0)
(0.00106833 -1.32026e-05 0)
(0.00106907 -1.66097e-05 0)
(0.00107116 -1.86962e-05 0)
(0.001 5.83705e-07 0)
(0.0010001 1.74711e-06 0)
(0.00100029 2.89861e-06 0)
(0.00100057 4.03031e-06 0)
(0.00100095 5.13471e-06 0)
(0.00100142 6.20513e-06 0)
(0.00100197 7.23593e-06 0)
(0.00100259 8.22265e-06 0)
(0.00100329 9.16197e-06 0)
(0.00100405 1.00516e-05 0)
(0.00100487 1.08898e-05 0)
(0.00100575 1.16759e-05 0)
(0.00100667 1.24092e-05 0)
(0.00100764 1.30895e-05 0)
(0.00100864 1.37164e-05 0)
(0.00100968 1.42902e-05 0)
(0.00101075 1.48111e-05 0)
(0.00101186 1.52793e-05 0)
(0.00101298 1.56951e-05 0)
(0.00101413 1.60592e-05 0)
(0.00101529 1.63715e-05 0)
(0.00101648 1.66328e-05 0)
(0.00101767 1.68428e-05 0)
(0.00101888 1.70022e-05 0)
(0.0010201 1.71104e-05 0)
(0.00102133 1.71681e-05 0)
(0.00102256 1.71743e-05 0)
(0.0010238 1.71297e-05 0)
(0.00102504 1.70325e-05 0)
(0.00102628 1.68839e-05 0)
(0.00102752 1.66811e-05 0)
(0.00102876 1.64258e-05 0)
(0.00102999 1.61137e-05 0)
(0.00103122 1.5748e-05 0)
(0.00103244 1.5322e-05 0)
(0.00103366 1.48409e-05 0)
(0.00103486 1.42947e-05 0)
(0.00103606 1.36922e-05 0)
(0.00103724 1.30182e-05 0)
(0.00103841 1.22871e-05 0)
(0.00103956 1.14758e-05 0)
(0.00104071 1.06076e-05 0)
(0.00104182 9.6473e-06 0)
(0.00104295 8.63226e-06 0)
(0.00104402 7.50869e-06 0)
(0.00104512 6.33601e-06 0)
(0.00104615 5.03165e-06 0)
(0.00104723 3.68979e-06 0)
(0.00104821 2.18311e-06 0)
(0.00104928 6.60054e-07 0)
(0.0010502 -1.07657e-06 0)
(0.00105128 -2.79434e-06 0)
(0.00105213 -4.80141e-06 0)
(0.00105325 -6.73245e-06 0)
(0.00105403 -9.0663e-06 0)
(0.00105523 -1.12249e-05 0)
(0.0010559 -1.39535e-05 0)
(0.00105721 -1.63436e-05 0)
(0.00105765 -1.9561e-05 0)
(0.00105898 -2.21728e-05 0)
(0.001 4.66191e-07 0)
(0.00100008 1.39597e-06 0)
(0.00100024 2.31783e-06 0)
(0.00100047 3.2264e-06 0)
(0.00100078 4.11643e-06 0)
(0.00100116 4.98303e-06 0)
(0.00100162 5.82182e-06 0)
(0.00100214 6.62909e-06 0)
(0.00100272 7.40172e-06 0)
(0.00100337 8.13721e-06 0)
(0.00100406 8.83352e-06 0)
(0.00100481 9.48903e-06 0)
(0.0010056 1.01025e-05 0)
(0.00100644 1.06731e-05 0)
(0.00100731 1.12001e-05 0)
(0.00100822 1.16832e-05 0)
(0.00100916 1.2122e-05 0)
(0.00101012 1.25164e-05 0)
(0.00101111 1.28663e-05 0)
(0.00101213 1.31718e-05 0)
(0.00101316 1.34326e-05 0)
(0.00101421 1.36488e-05 0)
(0.00101527 1.38203e-05 0)
(0.00101635 1.3947e-05 0)
(0.00101743 1.40286e-05 0)
(0.00101853 1.40651e-05 0)
(0.00101962 1.40557e-05 0)
(0.00102072 1.40004e-05 0)
(0.00102183 1.38981e-05 0)
(0.00102293 1.37488e-05 0)
(0.00102403 1.35507e-05 0)
(0.00102512 1.33042e-05 0)
(0.00102621 1.30065e-05 0)
(0.00102728 1.26584e-05 0)
(0.00102835 1.22562e-05 0)
(0.00102941 1.1801e-05 0)
(0.00103045 1.12878e-05 0)
(0.00103148 1.07188e-05 0)
(0.00103248 1.00866e-05 0)
(0.00103347 9.39546e-06 0)
(0.00103444 8.63449e-06 0)
(0.00103539 7.81118e-06 0)
(0.0010363 6.90945e-06 0)
(0.00103721 5.94185e-06 0)
(0.00103806 4.88453e-06 0)
(0.00103892 3.75797e-06 0)
(0.00103971 2.52644e-06 0)
(0.00104051 1.22305e-06 0)
(0.00104123 -2.05746e-07 0)
(0.00104199 -1.70571e-06 0)
(0.00104263 -3.35757e-06 0)
(0.00104336 -5.07535e-06 0)
(0.0010439 -6.98401e-06 0)
(0.0010446 -8.94863e-06 0)
(0.00104504 -1.11622e-05 0)
(0.00104573 -1.34089e-05 0)
(0.00104603 -1.59868e-05 0)
(0.00104672 -1.85501e-05 0)
(0.00104677 -2.15628e-05 0)
(0.00104738 -2.44682e-05 0)
(0.001 3.68895e-07 0)
(0.00100007 1.10484e-06 0)
(0.0010002 1.8352e-06 0)
(0.0010004 2.55615e-06 0)
(0.00100066 3.26393e-06 0)
(0.00100098 3.95495e-06 0)
(0.00100137 4.62589e-06 0)
(0.00100181 5.27378e-06 0)
(0.00100232 5.89599e-06 0)
(0.00100287 6.49028e-06 0)
(0.00100347 7.05472e-06 0)
(0.00100412 7.5877e-06 0)
(0.00100481 8.08789e-06 0)
(0.00100554 8.55422e-06 0)
(0.0010063 8.98584e-06 0)
(0.0010071 9.38206e-06 0)
(0.00100793 9.74235e-06 0)
(0.00100878 1.00663e-05 0)
(0.00100966 1.03534e-05 0)
(0.00101057 1.06035e-05 0)
(0.00101149 1.08162e-05 0)
(0.00101242 1.09913e-05 0)
(0.00101337 1.11285e-05 0)
(0.00101433 1.12274e-05 0)
(0.0010153 1.12876e-05 0)
(0.00101628 1.13087e-05 0)
(0.00101726 1.12902e-05 0)
(0.00101824 1.12316e-05 0)
(0.00101922 1.11321e-05 0)
(0.0010202 1.0991e-05 0)
(0.00102117 1.08074e-05 0)
(0.00102213 1.05803e-05 0)
(0.00102309 1.03086e-05 0)
(0.00102403 9.99095e-06 0)
(0.00102496 9.62602e-06 0)
(0.00102587 9.21205e-06 0)
(0.00102676 8.74756e-06 0)
(0.00102764 8.23016e-06 0)
(0.00102848 7.65827e-06 0)
(0.00102931 7.02865e-06 0)
(0.0010301 6.33979e-06 0)
(0.00103087 5.58716e-06 0)
(0.00103159 4.76967e-06 0)
(0.00103229 3.88083e-06 0)
(0.00103294 2.92058e-06 0)
(0.00103357 1.87941e-06 0)
(0.00103413 7.59453e-07 0)
(0.00103467 -4.5356e-07 0)
(0.00103513 -1.75309e-06 0)
(0.0010356 -3.16184e-06 0)
(0.00103595 -4.66702e-06 0)
(0.00103632 -6.30432e-06 0)
(0.00103654 -8.04757e-06 0)
(0.00103682 -9.95235e-06 0)
(0.00103689 -1.19708e-05 0)
(0.00103707 -1.41908e-05 0)
(0.00103696 -1.65282e-05 0)
(0.00103705 -1.91213e-05 0)
(0.00103665 -2.18255e-05 0)
(0.00103655 -2.48546e-05 0)
(0.001 2.85845e-07 0)
(0.00100006 8.56217e-07 0)
(0.00100017 1.42258e-06 0)
(0.00100034 1.98219e-06 0)
(0.00100057 2.53233e-06 0)
(0.00100085 3.07036e-06 0)
(0.00100119 3.59379e-06 0)
(0.00100158 4.10036e-06 0)
(0.00100202 4.58798e-06 0)
(0.0010025 5.05481e-06 0)
(0.00100303 5.49925e-06 0)
(0.0010036 5.91986e-06 0)
(0.00100421 6.31543e-06 0)
(0.00100486 6.68492e-06 0)
(0.00100554 7.02744e-06 0)
(0.00100625 7.34221e-06 0)
(0.00100699 7.62861e-06 0)
(0.00100776 7.88604e-06 0)
(0.00100855 8.11403e-06 0)
(0.00100936 8.3121e-06 0)
(0.00101019 8.47985e-06 0)
(0.00101103 8.61682e-06 0)
(0.00101188 8.72267e-06 0)
(0.00101275 8.79687e-06 0)
(0.00101362 8.83908e-06 0)
(0.0010145 8.84864e-06 0)
(0.00101538 8.8252e-06 0)
(0.00101626 8.76787e-06 0)
(0.00101713 8.67631e-06 0)
(0.001018 8.54929e-06 0)
(0.00101887 8.38652e-06 0)
(0.00101972 8.18627e-06 0)
(0.00102056 7.94842e-06 0)
(0.00102138 7.6705e-06 0)
(0.00102219 7.35275e-06 0)
(0.00102298 6.99163e-06 0)
(0.00102374 6.58804e-06 0)
(0.00102447 6.13681e-06 0)
(0.00102517 5.6401e-06 0)
(0.00102585 5.09022e-06 0)
(0.00102648 4.49153e-06 0)
(0.00102708 3.83239e-06 0)
(0.00102764 3.12095e-06 0)
(0.00102815 2.33941e-06 0)
(0.00102861 1.50229e-06 0)
(0.00102902 5.82032e-07 0)
(0.00102937 -3.96106e-07 0)
(0.00102967 -1.47494e-06 0)
(0.00102989 -2.61188e-06 0)
(0.00103007 -3.87549e-06 0)
(0.00103014 -5.19463e-06 0)
(0.00103018 -6.67751e-06 0)
(0.00103008 -8.20551e-06 0)
(0.00102997 -9.95054e-06 0)
(0.00102967 -1.1717e-05 0)
(0.00102938 -1.37793e-05 0)
(0.00102885 -1.58166e-05 0)
(0.00102837 -1.82673e-05 0)
(0.00102751 -2.06055e-05 0)
(0.00102674 -2.35296e-05 0)
(0.001 2.13001e-07 0)
(0.00100005 6.38072e-07 0)
(0.00100015 1.06031e-06 0)
(0.00100031 1.47777e-06 0)
(0.00100051 1.88853e-06 0)
(0.00100076 2.29068e-06 0)
(0.00100106 2.68244e-06 0)
(0.00100141 3.06212e-06 0)
(0.0010018 3.42817e-06 0)
(0.00100224 3.77918e-06 0)
(0.00100271 4.11388e-06 0)
(0.00100322 4.43113e-06 0)
(0.00100378 4.72992e-06 0)
(0.00100436 5.00932e-06 0)
(0.00100498 5.26858e-06 0)
(0.00100562 5.50695e-06 0)
(0.00100629 5.72385e-06 0)
(0.00100699 5.91868e-06 0)
(0.00100771 6.09097e-06 0)
(0.00100845 6.24022e-06 0)
(0.0010092 6.36604e-06 0)
(0.00100997 6.46791e-06 0)
(0.00101075 6.54554e-06 0)
(0.00101153 6.59832e-06 0)
(0.00101233 6.626e-06 0)
(0.00101312 6.62784e-06 0)
(0.00101392 6.60365e-06 0)
(0.00101472 6.55243e-06 0)
(0.00101551 6.47407e-06 0)
(0.00101629 6.36722e-06 0)
(0.00101706 6.23193e-06 0)
(0.00101782 6.06628e-06 0)
(0.00101857 5.87067e-06 0)
(0.0010193 5.64229e-06 0)
(0.00102 5.38217e-06 0)
(0.00102068 5.08618e-06 0)
(0.00102133 4.75644e-06 0)
(0.00102195 4.38676e-06 0)
(0.00102253 3.98116e-06 0)
(0.00102308 3.53025e-06 0)
(0.00102358 3.04124e-06 0)
(0.00102404 2.49973e-06 0)
(0.00102444 1.91826e-06 0)
(0.00102479 1.27445e-06 0)
(0.00102508 5.89703e-07 0)
(0.00102532 -1.71082e-07 0)
(0.00102548 -9.72068e-07 0)
(0.00102557 -1.86858e-06 0)
(0.00102557 -2.80183e-06 0)
(0.0010255 -3.85939e-06 0)
(0.00102533 -4.94375e-06 0)
(0.00102507 -6.1942e-06 0)
(0.00102468 -7.45037e-06 0)
(0.00102422 -8.93516e-06 0)
(0.00102358 -1.03858e-05 0)
(0.00102288 -1.21602e-05 0)
(0.00102195 -1.3828e-05 0)
(0.00102096 -1.59653e-05 0)
(0.00101966 -1.78668e-05 0)
(0.0010183 -2.04591e-05 0)
(0.001 1.4736e-07 0)
(0.00100005 4.41461e-07 0)
(0.00100014 7.33671e-07 0)
(0.00100028 1.02269e-06 0)
(0.00100047 1.30722e-06 0)
(0.0010007 1.58599e-06 0)
(0.00100097 1.85778e-06 0)
(0.00100129 2.12142e-06 0)
(0.00100165 2.37586e-06 0)
(0.00100205 2.6201e-06 0)
(0.00100249 2.85322e-06 0)
(0.00100296 3.07438e-06 0)
(0.00100347 3.28285e-06 0)
(0.00100401 3.47793e-06 0)
(0.00100458 3.65902e-06 0)
(0.00100517 3.82555e-06 0)
(0.0010058 3.97704e-06 0)
(0.00100644 4.113e-06 0)
(0.00100711 4.23307e-06 0)
(0.00100779 4.33679e-06 0)
(0.00100849 4.42386e-06 0)
(0.0010092 4.49383e-06 0)
(0.00100992 4.54646e-06 0)
(0.00101065 4.58123e-06 0)
(0.00101138 4.59797e-06 0)
(0.00101212 4.59602e-06 0)
(0.00101285 4.57527e-06 0)
(0.00101359 4.53487e-06 0)
(0.00101431 4.47481e-06 0)
(0.00101503 4.3939e-06 0)
(0.00101573 4.29234e-06 0)
(0.00101642 4.16842e-06 0)
(0.00101709 4.02271e-06 0)
(0.00101774 3.8527e-06 0)
(0.00101837 3.65959e-06 0)
(0.00101896 3.43966e-06 0)
(0.00101953 3.19519e-06 0)
(0.00102005 2.9206e-06 0)
(0.00102054 2.61997e-06 0)
(0.00102099 2.28478e-06 0)
(0.00102139 1.92219e-06 0)
(0.00102173 1.519e-06 0)
(0.00102202 1.08747e-06 0)
(0.00102225 6.0702e-07 0)
(0.0010224 9.82772e-08 0)
(0.00102249 -4.71104e-07 0)
(0.00102249 -1.06682e-06 0)
(0.00102242 -1.74063e-06 0)
(0.00102224 -2.4358e-06 0)
(0.00102198 -3.23441e-06 0)
(0.00102159 -4.04287e-06 0)
(0.0010211 -4.99227e-06 0)
(0.00102047 -5.92909e-06 0)
(0.00101972 -7.0639e-06 0)
(0.0010188 -8.14512e-06 0)
(0.00101775 -9.51222e-06 0)
(0.00101649 -1.07527e-05 0)
(0.00101509 -1.24156e-05 0)
(0.00101341 -1.38228e-05 0)
(0.00101157 -1.58634e-05 0)
(0.001 8.65294e-08 0)
(0.00100005 2.59236e-07 0)
(0.00100013 4.3086e-07 0)
(0.00100026 6.00652e-07 0)
(0.00100044 7.67862e-07 0)
(0.00100066 9.31753e-07 0)
(0.00100091 1.09162e-06 0)
(0.00100121 1.24678e-06 0)
(0.00100155 1.39661e-06 0)
(0.00100193 1.54052e-06 0)
(0.00100234 1.67796e-06 0)
(0.00100279 1.80842e-06 0)
(0.00100327 1.93144e-06 0)
(0.00100378 2.04661e-06 0)
(0.00100432 2.15353e-06 0)
(0.00100488 2.25186e-06 0)
(0.00100547 2.34129e-06 0)
(0.00100608 2.42149e-06 0)
(0.00100672 2.49224e-06 0)
(0.00100736 2.55323e-06 0)
(0.00100802 2.60427e-06 0)
(0.0010087 2.64505e-06 0)
(0.00100938 2.67542e-06 0)
(0.00101007 2.69505e-06 0)
(0.00101077 2.7038e-06 0)
(0.00101146 2.70126e-06 0)
(0.00101215 2.68736e-06 0)
(0.00101284 2.66152e-06 0)
(0.00101352 2.62378e-06 0)
(0.00101419 2.57332e-06 0)
(0.00101485 2.51033e-06 0)
(0.00101549 2.43366e-06 0)
(0.00101611 2.34373e-06 0)
(0.00101671 2.23886e-06 0)
(0.00101728 2.11993e-06 0)
(0.00101782 1.98442e-06 0)
(0.00101832 1.834e-06 0)
(0.00101879 1.66482e-06 0)
(0.00101921 1.47987e-06 0)
(0.00101959 1.27323e-06 0)
(0.00101991 1.05009e-06 0)
(0.00102018 8.0127e-07 0)
(0.00102039 5.3555e-07 0)
(0.00102053 2.38611e-07 0)
(0.00102059 -7.48562e-08 0)
(0.00102058 -4.27415e-07 0)
(0.00102047 -7.94769e-07 0)
(0.00102028 -1.21308e-06 0)
(0.00101998 -1.64215e-06 0)
(0.00101957 -2.13944e-06 0)
(0.00101904 -2.63873e-06 0)
(0.00101838 -3.23207e-06 0)
(0.00101758 -3.8108e-06 0)
(0.00101663 -4.52314e-06 0)
(0.00101551 -5.19088e-06 0)
(0.00101421 -6.05361e-06 0)
(0.00101271 -6.81866e-06 0)
(0.00101101 -7.87481e-06 0)
(0.00100905 -8.73977e-06 0)
(0.00100687 -1.00459e-05 0)
(0.001 2.84657e-08 0)
(0.00100004 8.52889e-08 0)
(0.00100013 1.41766e-07 0)
(0.00100026 1.97652e-07 0)
(0.00100042 2.52701e-07 0)
(0.00100064 3.06672e-07 0)
(0.00100089 3.59333e-07 0)
(0.00100118 4.10461e-07 0)
(0.00100151 4.59848e-07 0)
(0.00100187 5.07298e-07 0)
(0.00100227 5.52629e-07 0)
(0.00100271 5.9567e-07 0)
(0.00100317 6.3627e-07 0)
(0.00100367 6.74282e-07 0)
(0.00100419 7.0958e-07 0)
(0.00100474 7.42039e-07 0)
(0.00100532 7.71555e-07 0)
(0.00100591 7.98018e-07 0)
(0.00100652 8.21345e-07 0)
(0.00100715 8.41433e-07 0)
(0.0010078 8.58213e-07 0)
(0.00100845 8.71581e-07 0)
(0.00100912 8.81482e-07 0)
(0.00100979 8.87795e-07 0)
(0.00101046 8.90481e-07 0)
(0.00101113 8.89388e-07 0)
(0.00101181 8.84497e-07 0)
(0.00101247 8.75606e-07 0)
(0.00101313 8.62727e-07 0)
(0.00101378 8.45578e-07 0)
(0.00101441 8.24227e-07 0)
(0.00101503 7.98265e-07 0)
(0.00101563 7.67858e-07 0)
(0.0010162 7.32403e-07 0)
(0.00101674 6.92234e-07 0)
(0.00101725 6.46445e-07 0)
(0.00101772 5.95656e-07 0)
(0.00101816 5.38491e-07 0)
(0.00101855 4.76048e-07 0)
(0.00101889 4.06211e-07 0)
(0.00101918 3.30878e-07 0)
(0.0010194 2.46763e-07 0)
(0.00101957 1.57078e-07 0)
(0.00101966 5.66666e-08 0)
(0.00101968 -4.91245e-08 0)
(0.00101961 -1.68494e-07 0)
(0.00101945 -2.92701e-07 0)
(0.0010192 -4.34632e-07 0)
(0.00101883 -5.79804e-07 0)
(0.00101835 -7.48777e-07 0)
(0.00101774 -9.17746e-07 0)
(0.001017 -1.1197e-06 0)
(0.00101611 -1.31559e-06 0)
(0.00101505 -1.55857e-06 0)
(0.00101382 -1.78456e-06 0)
(0.0010124 -2.07962e-06 0)
(0.00101077 -2.33836e-06 0)
(0.00100892 -2.70072e-06 -3.5348e-38)
(0.00100681 -2.99278e-06 0)
(0.00100445 -3.4426e-06 0)
(0.001 -2.86941e-08 0)
(0.00100004 -8.59538e-08 0)
(0.00100013 -1.42844e-07 0)
(0.00100026 -1.9912e-07 0)
(0.00100042 -2.5454e-07 0)
(0.00100064 -3.08861e-07 0)
(0.00100089 -3.61851e-07 0)
(0.00100118 -4.13286e-07 0)
(0.00100151 -4.6296e-07 0)
(0.00100187 -5.10675e-07 0)
(0.00100227 -5.56252e-07 0)
(0.00100271 -5.9952e-07 0)
(0.00100317 -6.40328e-07 0)
(0.00100367 -6.78528e-07 0)
(0.00100419 -7.13997e-07 0)
(0.00100474 -7.46609e-07 0)
(0.00100532 -7.76262e-07 0)
(0.00100591 -8.02847e-07 0)
(0.00100652 -8.26282e-07 0)
(0.00100715 -8.46463e-07 0)
(0.0010078 -8.63325e-07 0)
(0.00100845 -8.76761e-07 0)
(0.00100912 -8.8672e-07 0)
(0.00100979 -8.9308e-07 0)
(0.00101046 -8.95806e-07 0)
(0.00101113 -8.94745e-07 0)
(0.00101181 -8.8988e-07 0)
(0.00101247 -8.81009e-07 0)
(0.00101313 -8.68148e-07 0)
(0.00101378 -8.51012e-07 0)
(0.00101441 -8.29672e-07 0)
(0.00101503 -8.0372e-07 0)
(0.00101563 -7.73324e-07 0)
(0.0010162 -7.3788e-07 0)
(0.00101674 -6.97724e-07 0)
(0.00101725 -6.51953e-07 0)
(0.00101772 -6.01186e-07 0)
(0.00101816 -5.44049e-07 0)
(0.00101855 -4.81641e-07 0)
(0.00101889 -4.11848e-07 0)
(0.00101918 -3.36566e-07 0)
(0.0010194 -2.52514e-07 0)
(0.00101957 -1.62898e-07 0)
(0.00101966 -6.25723e-08 0)
(0.00101968 4.31236e-08 0)
(0.00101961 1.62367e-07 0)
(0.00101945 2.86426e-07 0)
(0.0010192 4.28192e-07 0)
(0.00101883 5.73187e-07 0)
(0.00101835 7.41964e-07 0)
(0.00101774 9.10719e-07 0)
(0.001017 1.11244e-06 0)
(0.00101611 1.30806e-06 0)
(0.00101505 1.55076e-06 0)
(0.00101382 1.77643e-06 0)
(0.0010124 2.07115e-06 0)
(0.00101077 2.32952e-06 0)
(0.00100891 2.69149e-06 3.5348e-38)
(0.00100681 2.98311e-06 0)
(0.00100445 3.43248e-06 0)
(0.001 -8.67558e-08 0)
(0.00100005 -2.59895e-07 0)
(0.00100013 -4.31928e-07 0)
(0.00100026 -6.02106e-07 0)
(0.00100044 -7.69683e-07 0)
(0.00100065 -9.33921e-07 0)
(0.00100091 -1.09411e-06 0)
(0.00100121 -1.24958e-06 0)
(0.00100155 -1.39969e-06 0)
(0.00100193 -1.54386e-06 0)
(0.00100234 -1.68154e-06 0)
(0.00100279 -1.81222e-06 0)
(0.00100327 -1.93546e-06 0)
(0.00100378 -2.05081e-06 0)
(0.00100432 -2.1579e-06 0)
(0.00100488 -2.25638e-06 0)
(0.00100547 -2.34594e-06 0)
(0.00100608 -2.42627e-06 0)
(0.00100671 -2.49712e-06 0)
(0.00100736 -2.5582e-06 0)
(0.00100802 -2.60932e-06 0)
(0.0010087 -2.65017e-06 0)
(0.00100938 -2.6806e-06 0)
(0.00101007 -2.70027e-06 0)
(0.00101076 -2.70906e-06 0)
(0.00101146 -2.70655e-06 0)
(0.00101215 -2.69267e-06 0)
(0.00101284 -2.66686e-06 0)
(0.00101352 -2.62913e-06 0)
(0.00101419 -2.57869e-06 0)
(0.00101485 -2.51571e-06 0)
(0.00101549 -2.43904e-06 0)
(0.00101611 -2.34913e-06 0)
(0.00101671 -2.24426e-06 0)
(0.00101728 -2.12535e-06 0)
(0.00101782 -1.98986e-06 0)
(0.00101832 -1.83946e-06 0)
(0.00101879 -1.67031e-06 0)
(0.00101921 -1.48539e-06 0)
(0.00101959 -1.2788e-06 0)
(0.00101991 -1.05571e-06 0)
(0.00102018 -8.06957e-07 0)
(0.00102039 -5.41317e-07 0)
(0.00102052 -2.4447e-07 0)
(0.00102059 6.88916e-08 0)
(0.00102057 4.21337e-07 0)
(0.00102047 7.88567e-07 0)
(0.00102028 1.20673e-06 0)
(0.00101998 1.63563e-06 0)
(0.00101957 2.13274e-06 0)
(0.00101904 2.63182e-06 0)
(0.00101838 3.22493e-06 0)
(0.00101758 3.8034e-06 0)
(0.00101663 4.51547e-06 0)
(0.0010155 5.18289e-06 0)
(0.00101421 6.0453e-06 0)
(0.00101271 6.80998e-06 0)
(0.00101101 7.86576e-06 0)
(0.00100905 8.73028e-06 0)
(0.00100686 1.0036e-05 0)
(0.001 -1.47581e-07 0)
(0.00100005 -4.42105e-07 0)
(0.00100014 -7.34715e-07 0)
(0.00100028 -1.02411e-06 0)
(0.00100047 -1.309e-06 0)
(0.0010007 -1.58811e-06 0)
(0.00100097 -1.86021e-06 0)
(0.00100129 -2.12416e-06 0)
(0.00100165 -2.37887e-06 0)
(0.00100205 -2.62336e-06 0)
(0.00100249 -2.85672e-06 0)
(0.00100296 -3.0781e-06 0)
(0.00100347 -3.28677e-06 0)
(0.00100401 -3.48203e-06 0)
(0.00100458 -3.66329e-06 0)
(0.00100517 -3.82996e-06 0)
(0.0010058 -3.98158e-06 0)
(0.00100644 -4.11767e-06 0)
(0.00100711 -4.23783e-06 0)
(0.00100779 -4.34164e-06 0)
(0.00100849 -4.42879e-06 0)
(0.0010092 -4.49882e-06 0)
(0.00100992 -4.55151e-06 0)
(0.00101065 -4.58633e-06 0)
(0.00101138 -4.6031e-06 0)
(0.00101212 -4.60118e-06 0)
(0.00101285 -4.58045e-06 0)
(0.00101358 -4.54007e-06 0)
(0.00101431 -4.48002e-06 0)
(0.00101503 -4.39913e-06 0)
(0.00101573 -4.29758e-06 0)
(0.00101642 -4.17367e-06 0)
(0.00101709 -4.02796e-06 0)
(0.00101774 -3.85796e-06 0)
(0.00101836 -3.66486e-06 0)
(0.00101896 -3.44495e-06 0)
(0.00101952 -3.2005e-06 0)
(0.00102005 -2.92593e-06 0)
(0.00102054 -2.62534e-06 0)
(0.00102099 -2.29019e-06 0)
(0.00102138 -1.92765e-06 0)
(0.00102173 -1.52453e-06 0)
(0.00102202 -1.09307e-06 0)
(0.00102224 -6.12709e-07 0)
(0.0010224 -1.04072e-07 0)
(0.00102249 4.65204e-07 0)
(0.00102249 1.06081e-06 0)
(0.00102242 1.73447e-06 0)
(0.00102224 2.42949e-06 0)
(0.00102197 3.22792e-06 0)
(0.00102159 4.03618e-06 0)
(0.0010211 4.98536e-06 0)
(0.00102047 5.92194e-06 0)
(0.00101972 7.05649e-06 0)