/*--------------------------------*- C++ -*----------------------------------*\
| =========                 |                                                 |
| \\      /  F ield         | OpenFOAM: The Open Source CFD Toolbox           |
|  \\    /   O peration     | Version:  2312                                  |
|   \\  /    A nd           | Website:  www.openfoam.com                      |
|    \\/     M anipulation  |                                                 |
\*---------------------------------------------------------------------------*/
FoamFile
{
    version     2.0;
    format      ascii;
    arch        "LSB;label=32;scalar=64";
    class       volScalarField;
    location    "37000";
    object      p;
}
// * * * * * * * * * * * * * * * * * * * * * * * * * * * * * * * * * * * * * //

dimensions      [0 2 -2 0 0 0 0];

internalField   nonuniform List<scalar> 
2715
(
4.92272e-07
4.78149e-07
4.64382e-07
4.53805e-07
4.46382e-07
4.40991e-07
4.3654e-07
4.3246e-07
4.28585e-07
4.2492e-07
4.21504e-07
4.18339e-07
4.15393e-07
4.12616e-07
4.09961e-07
4.07395e-07
4.04896e-07
4.02452e-07
4.00051e-07
3.97684e-07
3.95344e-07
3.93023e-07
3.90713e-07
3.8841e-07
3.86108e-07
3.83805e-07
3.81497e-07
3.79181e-07
3.76856e-07
3.74521e-07
3.72172e-07
3.69811e-07
3.67435e-07
3.65046e-07
3.62642e-07
3.60224e-07
3.57792e-07
3.55347e-07
3.52888e-07
3.50416e-07
3.47933e-07
3.45437e-07
3.42929e-07
3.4041e-07
3.37879e-07
3.35336e-07
3.32781e-07
3.30209e-07
3.27626e-07
3.25016e-07
3.224e-07
3.19727e-07
3.17078e-07
3.14281e-07
3.11638e-07
3.08511e-07
3.06161e-07
3.0176e-07
3.01459e-07
2.90871e-07
4.44229e-07
4.42502e-07
4.39856e-07
4.36731e-07
4.33515e-07
4.3042e-07
4.27497e-07
4.2471e-07
4.22008e-07
4.19361e-07
4.16763e-07
4.1422e-07
4.11738e-07
4.09316e-07
4.0695e-07
4.04628e-07
4.02343e-07
4.00086e-07
3.97852e-07
3.95635e-07
3.93431e-07
3.91237e-07
3.89048e-07
3.86861e-07
3.84673e-07
3.82482e-07
3.80285e-07
3.78081e-07
3.75867e-07
3.73643e-07
3.71408e-07
3.6916e-07
3.669e-07
3.64625e-07
3.62339e-07
3.60037e-07
3.57724e-07
3.55395e-07
3.53056e-07
3.507e-07
3.48337e-07
3.45954e-07
3.43569e-07
3.41158e-07
3.38753e-07
3.36312e-07
3.33891e-07
3.31417e-07
3.28988e-07
3.26477e-07
3.2406e-07
3.21514e-07
3.19163e-07
3.166e-07
3.1445e-07
3.11938e-07
3.10322e-07
3.07939e-07
3.07467e-07
3.04796e-07
4.35488e-07
4.34737e-07
4.33324e-07
4.31372e-07
4.29087e-07
4.26667e-07
4.24237e-07
4.21847e-07
4.19501e-07
4.17185e-07
4.14892e-07
4.12619e-07
4.10373e-07
4.08159e-07
4.05978e-07
4.03829e-07
4.01707e-07
3.99607e-07
3.97525e-07
3.95457e-07
3.934e-07
3.9135e-07
3.89306e-07
3.87264e-07
3.85223e-07
3.8318e-07
3.81134e-07
3.79083e-07
3.77025e-07
3.7496e-07
3.72886e-07
3.70803e-07
3.68711e-07
3.66607e-07
3.64494e-07
3.62369e-07
3.60235e-07
3.58087e-07
3.55932e-07
3.53761e-07
3.51585e-07
3.49391e-07
3.47195e-07
3.44978e-07
3.42763e-07
3.40522e-07
3.38292e-07
3.36027e-07
3.33788e-07
3.31502e-07
3.29267e-07
3.26965e-07
3.24754e-07
3.22447e-07
3.20296e-07
3.17996e-07
3.15957e-07
3.13671e-07
3.11783e-07
3.09416e-07
4.23753e-07
4.2332e-07
4.22533e-07
4.21443e-07
4.20118e-07
4.1863e-07
4.17035e-07
4.15374e-07
4.13666e-07
4.11923e-07
4.10152e-07
4.08357e-07
4.06546e-07
4.04723e-07
4.02895e-07
4.01063e-07
3.99231e-07
3.97397e-07
3.95562e-07
3.93724e-07
3.91884e-07
3.90041e-07
3.88195e-07
3.86344e-07
3.84488e-07
3.82627e-07
3.8076e-07
3.78886e-07
3.77005e-07
3.75117e-07
3.73221e-07
3.71317e-07
3.69405e-07
3.67485e-07
3.65557e-07
3.6362e-07
3.61675e-07
3.59721e-07
3.5776e-07
3.5579e-07
3.53812e-07
3.51824e-07
3.49829e-07
3.47822e-07
3.45808e-07
3.43778e-07
3.41742e-07
3.39684e-07
3.3762e-07
3.35528e-07
3.33429e-07
3.31293e-07
3.29153e-07
3.26964e-07
3.24778e-07
3.22529e-07
3.2029e-07
3.17972e-07
3.1568e-07
3.13307e-07
4.17052e-07
4.16839e-07
4.16407e-07
4.15762e-07
4.14918e-07
4.13904e-07
4.12753e-07
4.11496e-07
4.10156e-07
4.08752e-07
4.07296e-07
4.05795e-07
4.04258e-07
4.02692e-07
4.01102e-07
3.99492e-07
3.97867e-07
3.96229e-07
3.94581e-07
3.92922e-07
3.91256e-07
3.89581e-07
3.879e-07
3.86212e-07
3.84517e-07
3.82816e-07
3.8111e-07
3.79398e-07
3.7768e-07
3.75957e-07
3.74228e-07
3.72495e-07
3.70757e-07
3.69014e-07
3.67268e-07
3.65517e-07
3.63762e-07
3.62003e-07
3.6024e-07
3.58473e-07
3.56703e-07
3.54928e-07
3.5315e-07
3.51366e-07
3.49576e-07
3.4778e-07
3.45977e-07
3.44165e-07
3.42343e-07
3.40506e-07
3.3865e-07
3.36768e-07
3.3485e-07
3.32886e-07
3.30855e-07
3.28747e-07
3.2655e-07
3.24275e-07
3.21924e-07
3.19594e-07
4.11532e-07
4.1137e-07
4.11045e-07
4.10561e-07
4.09927e-07
4.09161e-07
4.0828e-07
4.07302e-07
4.06243e-07
4.05116e-07
4.03929e-07
4.02692e-07
4.0141e-07
4.0009e-07
3.98736e-07
3.97354e-07
3.95946e-07
3.94518e-07
3.93071e-07
3.91608e-07
3.90131e-07
3.88641e-07
3.87139e-07
3.85628e-07
3.84107e-07
3.82579e-07
3.81043e-07
3.79502e-07
3.77955e-07
3.76403e-07
3.74847e-07
3.73287e-07
3.71725e-07
3.70161e-07
3.68595e-07
3.67028e-07
3.6546e-07
3.63892e-07
3.62323e-07
3.60755e-07
3.59186e-07
3.57617e-07
3.56047e-07
3.54475e-07
3.529e-07
3.51321e-07
3.49733e-07
3.48136e-07
3.46525e-07
3.44899e-07
3.43252e-07
3.41587e-07
3.39895e-07
3.38184e-07
3.36426e-07
3.34628e-07
3.32753e-07
3.30824e-07
3.28836e-07
3.26915e-07
4.07186e-07
4.07067e-07
4.06829e-07
4.06473e-07
4.06003e-07
4.05425e-07
4.04749e-07
4.03985e-07
4.03142e-07
4.0223e-07
4.01258e-07
4.00231e-07
3.99155e-07
3.98036e-07
3.96879e-07
3.95687e-07
3.94465e-07
3.93216e-07
3.91944e-07
3.90651e-07
3.8934e-07
3.88014e-07
3.86673e-07
3.8532e-07
3.83957e-07
3.82586e-07
3.81206e-07
3.79821e-07
3.78432e-07
3.77038e-07
3.75643e-07
3.74246e-07
3.72849e-07
3.71454e-07
3.7006e-07
3.68668e-07
3.67281e-07
3.65897e-07
3.64519e-07
3.63146e-07
3.61779e-07
3.60418e-07
3.59063e-07
3.57715e-07
3.56373e-07
3.55036e-07
3.53704e-07
3.52377e-07
3.51049e-07
3.4972e-07
3.48378e-07
3.47021e-07
3.45636e-07
3.44227e-07
3.42782e-07
3.41314e-07
3.39802e-07
3.3827e-07
3.36716e-07
3.35252e-07
4.03734e-07
4.03642e-07
4.03456e-07
4.03178e-07
4.02806e-07
4.02347e-07
4.01804e-07
4.01184e-07
4.00494e-07
3.99738e-07
3.98923e-07
3.98055e-07
3.97138e-07
3.96177e-07
3.95176e-07
3.9414e-07
3.93073e-07
3.91977e-07
3.90856e-07
3.89713e-07
3.8855e-07
3.8737e-07
3.86176e-07
3.84969e-07
3.83751e-07
3.82525e-07
3.81292e-07
3.80054e-07
3.78812e-07
3.77569e-07
3.76326e-07
3.75084e-07
3.73844e-07
3.72609e-07
3.7138e-07
3.70158e-07
3.68943e-07
3.67739e-07
3.66544e-07
3.65362e-07
3.64191e-07
3.63034e-07
3.61891e-07
3.60762e-07
3.59647e-07
3.58546e-07
3.57457e-07
3.56383e-07
3.5532e-07
3.54271e-07
3.53232e-07
3.52202e-07
3.5117e-07
3.50137e-07
3.49091e-07
3.48042e-07
3.4698e-07
3.4593e-07
3.44901e-07
3.43995e-07
4.0097e-07
4.00895e-07
4.00743e-07
4.00515e-07
4.0021e-07
3.99831e-07
3.99382e-07
3.98865e-07
3.98285e-07
3.97647e-07
3.96955e-07
3.96212e-07
3.95423e-07
3.94593e-07
3.93723e-07
3.92819e-07
3.91883e-07
3.90919e-07
3.8993e-07
3.88918e-07
3.87886e-07
3.86837e-07
3.85774e-07
3.84698e-07
3.83612e-07
3.82518e-07
3.81418e-07
3.80314e-07
3.79209e-07
3.78104e-07
3.77001e-07
3.75902e-07
3.74809e-07
3.73724e-07
3.72649e-07
3.71585e-07
3.70534e-07
3.69499e-07
3.6848e-07
3.6748e-07
3.665e-07
3.65541e-07
3.64606e-07
3.63695e-07
3.6281e-07
3.61953e-07
3.61123e-07
3.60322e-07
3.59548e-07
3.58801e-07
3.58078e-07
3.57383e-07
3.56714e-07
3.56073e-07
3.55454e-07
3.54865e-07
3.54297e-07
3.53775e-07
3.53309e-07
3.52987e-07
3.98768e-07
3.98705e-07
3.98577e-07
3.98384e-07
3.98126e-07
3.97805e-07
3.97423e-07
3.96982e-07
3.96485e-07
3.95936e-07
3.95338e-07
3.94694e-07
3.94006e-07
3.9328e-07
3.92516e-07
3.9172e-07
3.90893e-07
3.90038e-07
3.89159e-07
3.88258e-07
3.87337e-07
3.864e-07
3.85449e-07
3.84487e-07
3.83515e-07
3.82536e-07
3.81553e-07
3.80568e-07
3.79583e-07
3.78601e-07
3.77623e-07
3.76652e-07
3.75691e-07
3.74741e-07
3.73805e-07
3.72886e-07
3.71984e-07
3.71104e-07
3.70247e-07
3.69416e-07
3.68612e-07
3.67839e-07
3.67098e-07
3.66393e-07
3.65724e-07
3.65096e-07
3.64509e-07
3.63967e-07
3.63469e-07
3.63018e-07
3.62615e-07
3.62264e-07
3.61966e-07
3.61726e-07
3.61541e-07
3.61419e-07
3.61358e-07
3.6138e-07
3.61497e-07
3.61783e-07
3.9704e-07
3.96985e-07
3.96874e-07
3.96707e-07
3.96483e-07
3.96204e-07
3.95871e-07
3.95486e-07
3.95051e-07
3.94569e-07
3.94042e-07
3.93474e-07
3.92865e-07
3.9222e-07
3.9154e-07
3.90829e-07
3.9009e-07
3.89324e-07
3.88534e-07
3.87724e-07
3.86896e-07
3.86052e-07
3.85195e-07
3.84328e-07
3.83453e-07
3.82572e-07
3.81689e-07
3.80805e-07
3.79923e-07
3.79047e-07
3.78178e-07
3.77318e-07
3.76472e-07
3.75641e-07
3.74827e-07
3.74035e-07
3.73267e-07
3.72525e-07
3.71812e-07
3.71132e-07
3.70488e-07
3.69883e-07
3.6932e-07
3.68803e-07
3.68335e-07
3.67919e-07
3.6756e-07
3.67258e-07
3.67019e-07
3.66848e-07
3.66748e-07
3.66725e-07
3.66781e-07
3.66924e-07
3.67156e-07
3.67485e-07
3.67916e-07
3.68467e-07
3.69153e-07
3.70033e-07
3.95723e-07
3.95673e-07
3.95575e-07
3.95426e-07
3.95226e-07
3.94977e-07
3.9468e-07
3.94336e-07
3.93947e-07
3.93514e-07
3.93041e-07
3.92529e-07
3.9198e-07
3.91396e-07
3.90781e-07
3.90136e-07
3.89464e-07
3.88768e-07
3.88049e-07
3.87311e-07
3.86556e-07
3.85786e-07
3.85005e-07
3.84215e-07
3.83418e-07
3.82617e-07
3.81815e-07
3.81015e-07
3.80218e-07
3.79429e-07
3.7865e-07
3.77883e-07
3.77132e-07
3.76399e-07
3.75689e-07
3.75003e-07
3.74346e-07
3.73721e-07
3.73131e-07
3.7258e-07
3.72071e-07
3.7161e-07
3.71199e-07
3.70843e-07
3.70547e-07
3.70315e-07
3.70152e-07
3.70062e-07
3.70052e-07
3.70129e-07
3.70297e-07
3.70565e-07
3.70938e-07
3.71424e-07
3.72031e-07
3.72768e-07
3.73645e-07
3.74678e-07
3.75886e-07
3.77311e-07
3.9477e-07
3.94725e-07
3.94635e-07
3.94499e-07
3.94317e-07
3.94089e-07
3.93816e-07
3.935e-07
3.93143e-07
3.92746e-07
3.92311e-07
3.91839e-07
3.91333e-07
3.90794e-07
3.90226e-07
3.89629e-07
3.89007e-07
3.88361e-07
3.87695e-07
3.87011e-07
3.8631e-07
3.85597e-07
3.84872e-07
3.8414e-07
3.83403e-07
3.82662e-07
3.81922e-07
3.81185e-07
3.80454e-07
3.79732e-07
3.79021e-07
3.78326e-07
3.77649e-07
3.76993e-07
3.76362e-07
3.7576e-07
3.75189e-07
3.74655e-07
3.74161e-07
3.73711e-07
3.7331e-07
3.72961e-07
3.72671e-07
3.72444e-07
3.72285e-07
3.722e-07
3.72195e-07
3.72277e-07
3.72453e-07
3.7273e-07
3.73117e-07
3.73622e-07
3.74253e-07
3.75022e-07
3.75937e-07
3.77012e-07
3.78259e-07
3.79693e-07
3.81336e-07
3.83216e-07
3.94152e-07
3.9411e-07
3.94025e-07
3.93897e-07
3.93725e-07
3.93511e-07
3.93254e-07
3.92957e-07
3.9262e-07
3.92245e-07
3.91834e-07
3.91388e-07
3.9091e-07
3.904e-07
3.89862e-07
3.89297e-07
3.88708e-07
3.88096e-07
3.87465e-07
3.86816e-07
3.86152e-07
3.85475e-07
3.84789e-07
3.84096e-07
3.83398e-07
3.82698e-07
3.82e-07
3.81306e-07
3.80619e-07
3.79942e-07
3.79278e-07
3.78631e-07
3.78004e-07
3.77401e-07
3.76824e-07
3.76279e-07
3.75769e-07
3.75297e-07
3.74869e-07
3.74489e-07
3.74162e-07
3.73892e-07
3.73686e-07
3.73548e-07
3.73485e-07
3.73502e-07
3.73608e-07
3.7381e-07
3.74117e-07
3.74536e-07
3.75077e-07
3.75749e-07
3.76564e-07
3.77533e-07
3.78669e-07
3.79985e-07
3.81497e-07
3.8322e-07
3.85177e-07
3.87385e-07
3.93848e-07
3.93807e-07
3.93725e-07
3.93601e-07
3.93434e-07
3.93226e-07
3.92977e-07
3.92689e-07
3.92362e-07
3.91998e-07
3.91599e-07
3.91166e-07
3.90701e-07
3.90206e-07
3.89683e-07
3.89134e-07
3.8856e-07
3.87965e-07
3.87351e-07
3.8672e-07
3.86074e-07
3.85416e-07
3.84749e-07
3.84075e-07
3.83397e-07
3.82719e-07
3.82041e-07
3.81369e-07
3.80704e-07
3.8005e-07
3.7941e-07
3.78787e-07
3.78186e-07
3.77609e-07
3.7706e-07
3.76544e-07
3.76064e-07
3.75625e-07
3.7523e-07
3.74886e-07
3.74596e-07
3.74367e-07
3.74203e-07
3.74111e-07
3.74097e-07
3.74168e-07
3.74331e-07
3.74596e-07
3.74969e-07
3.75461e-07
3.76082e-07
3.76842e-07
3.77752e-07
3.78825e-07
3.80076e-07
3.81518e-07
3.83169e-07
3.85043e-07
3.87164e-07
3.89545e-07
3.93849e-07
3.93808e-07
3.93725e-07
3.93601e-07
3.93435e-07
3.93227e-07
3.92978e-07
3.92689e-07
3.92362e-07
3.91999e-07
3.91599e-07
3.91167e-07
3.90702e-07
3.90207e-07
3.89684e-07
3.89134e-07
3.88561e-07
3.87966e-07
3.87352e-07
3.86721e-07
3.86075e-07
3.85417e-07
3.8475e-07
3.84076e-07
3.83398e-07
3.82719e-07
3.82042e-07
3.81369e-07
3.80705e-07
3.80051e-07
3.79411e-07
3.78788e-07
3.78187e-07
3.7761e-07
3.77061e-07
3.76545e-07
3.76065e-07
3.75626e-07
3.75232e-07
3.74887e-07
3.74598e-07
3.74368e-07
3.74205e-07
3.74113e-07
3.74099e-07
3.74169e-07
3.74333e-07
3.74597e-07
3.74971e-07
3.75463e-07
3.76084e-07
3.76844e-07
3.77754e-07
3.78827e-07
3.80078e-07
3.8152e-07
3.83171e-07
3.85046e-07
3.87167e-07
3.89548e-07
3.94154e-07
3.94111e-07
3.94026e-07
3.93898e-07
3.93727e-07
3.93512e-07
3.93255e-07
3.92958e-07
3.92621e-07
3.92247e-07
3.91836e-07
3.9139e-07
3.90911e-07
3.90402e-07
3.89864e-07
3.89299e-07
3.8871e-07
3.88098e-07
3.87466e-07
3.86817e-07
3.86154e-07
3.85477e-07
3.84791e-07
3.84098e-07
3.834e-07
3.82701e-07
3.82002e-07
3.81308e-07
3.80621e-07
3.79944e-07
3.79281e-07
3.78634e-07
3.78007e-07
3.77404e-07
3.76828e-07
3.76282e-07
3.75772e-07
3.75301e-07
3.74873e-07
3.74493e-07
3.74166e-07
3.73896e-07
3.7369e-07
3.73552e-07
3.73489e-07
3.73507e-07
3.73613e-07
3.73816e-07
3.74122e-07
3.74541e-07
3.75082e-07
3.75755e-07
3.7657e-07
3.77539e-07
3.78676e-07
3.79992e-07
3.81504e-07
3.83228e-07
3.85185e-07
3.87394e-07
3.94773e-07
3.94728e-07
3.94638e-07
3.94501e-07
3.94319e-07
3.94091e-07
3.93819e-07
3.93503e-07
3.93146e-07
3.92749e-07
3.92313e-07
3.91842e-07
3.91335e-07
3.90797e-07
3.90228e-07
3.89632e-07
3.8901e-07
3.88364e-07
3.87698e-07
3.87014e-07
3.86314e-07
3.856e-07
3.84876e-07
3.84144e-07
3.83406e-07
3.82666e-07
3.81926e-07
3.81189e-07
3.80458e-07
3.79736e-07
3.79026e-07
3.7833e-07
3.77653e-07
3.76998e-07
3.76367e-07
3.75765e-07
3.75195e-07
3.74661e-07
3.74167e-07
3.73717e-07
3.73316e-07
3.72968e-07
3.72678e-07
3.72451e-07
3.72292e-07
3.72208e-07
3.72204e-07
3.72286e-07
3.72462e-07
3.72739e-07
3.73127e-07
3.73632e-07
3.74264e-07
3.75032e-07
3.75948e-07
3.77023e-07
3.78271e-07
3.79706e-07
3.8135e-07
3.8323e-07
3.95726e-07
3.95677e-07
3.95578e-07
3.95429e-07
3.9523e-07
3.94981e-07
3.94683e-07
3.94339e-07
3.9395e-07
3.93518e-07
3.93045e-07
3.92532e-07
3.91984e-07
3.914e-07
3.90785e-07
3.9014e-07
3.89468e-07
3.88772e-07
3.88053e-07
3.87315e-07
3.8656e-07
3.85791e-07
3.8501e-07
3.8422e-07
3.83423e-07
3.82623e-07
3.81821e-07
3.8102e-07
3.80224e-07
3.79435e-07
3.78656e-07
3.77889e-07
3.77138e-07
3.76406e-07
3.75696e-07
3.75011e-07
3.74354e-07
3.73729e-07
3.73139e-07
3.72588e-07
3.7208e-07
3.71619e-07
3.71209e-07
3.70853e-07
3.70558e-07
3.70326e-07
3.70163e-07
3.70074e-07
3.70064e-07
3.70141e-07
3.7031e-07
3.70579e-07
3.70952e-07
3.71439e-07
3.72046e-07
3.72784e-07
3.73662e-07
3.74696e-07
3.75904e-07
3.7733e-07
3.97044e-07
3.96989e-07
3.96878e-07
3.96711e-07
3.96487e-07
3.96208e-07
3.95875e-07
3.9549e-07
3.95055e-07
3.94574e-07
3.94047e-07
3.93478e-07
3.9287e-07
3.92225e-07
3.91545e-07
3.90835e-07
3.90095e-07
3.89329e-07
3.8854e-07
3.8773e-07
3.86902e-07
3.86058e-07
3.85201e-07
3.84334e-07
3.83459e-07
3.82579e-07
3.81695e-07
3.80812e-07
3.79931e-07
3.79054e-07
3.78185e-07
3.77327e-07
3.7648e-07
3.75649e-07
3.74837e-07
3.74045e-07
3.73276e-07
3.72535e-07
3.71823e-07
3.71143e-07
3.70499e-07
3.69895e-07
3.69332e-07
3.68816e-07
3.68348e-07
3.67933e-07
3.67574e-07
3.67273e-07
3.67034e-07
3.66864e-07
3.66764e-07
3.66742e-07
3.66799e-07
3.66943e-07
3.67175e-07
3.67505e-07
3.67937e-07
3.68489e-07
3.69176e-07
3.70057e-07
3.98773e-07
3.9871e-07
3.98582e-07
3.98389e-07
3.98131e-07
3.9781e-07
3.97428e-07
3.96987e-07
3.96491e-07
3.95942e-07
3.95343e-07
3.94699e-07
3.94012e-07
3.93286e-07
3.92522e-07
3.91726e-07
3.90899e-07
3.90044e-07
3.89165e-07
3.88264e-07
3.87344e-07
3.86408e-07
3.85457e-07
3.84494e-07
3.83523e-07
3.82544e-07
3.81561e-07
3.80577e-07
3.79592e-07
3.7861e-07
3.77632e-07
3.76662e-07
3.75701e-07
3.74751e-07
3.73816e-07
3.72897e-07
3.71996e-07
3.71116e-07
3.7026e-07
3.69429e-07
3.68626e-07
3.67853e-07
3.67113e-07
3.66408e-07
3.6574e-07
3.65112e-07
3.64526e-07
3.63984e-07
3.63487e-07
3.63037e-07
3.62635e-07
3.62285e-07
3.61988e-07
3.61748e-07
3.61564e-07
3.61443e-07
3.61384e-07
3.61406e-07
3.61524e-07
3.61812e-07
4.00976e-07
4.00901e-07
4.00749e-07
4.00521e-07
4.00216e-07
3.99838e-07
3.99388e-07
3.98871e-07
3.98292e-07
3.97654e-07
3.96961e-07
3.96219e-07
3.9543e-07
3.94599e-07
3.9373e-07
3.92826e-07
3.9189e-07
3.90927e-07
3.89937e-07
3.88926e-07
3.87894e-07
3.86846e-07
3.85782e-07
3.84706e-07
3.83621e-07
3.82527e-07
3.81427e-07
3.80324e-07
3.79219e-07
3.78114e-07
3.77012e-07
3.75913e-07
3.74821e-07
3.73736e-07
3.72661e-07
3.71598e-07
3.70548e-07
3.69513e-07
3.68495e-07
3.67495e-07
3.66515e-07
3.65558e-07
3.64623e-07
3.63713e-07
3.62828e-07
3.61971e-07
3.61142e-07
3.60342e-07
3.59569e-07
3.58823e-07
3.58101e-07
3.57407e-07
3.56738e-07
3.56099e-07
3.55481e-07
3.54892e-07
3.54326e-07
3.53805e-07
3.5334e-07
3.53019e-07
4.03741e-07
4.03649e-07
4.03463e-07
4.03184e-07
4.02813e-07
4.02354e-07
4.01811e-07
4.01191e-07
4.00501e-07
3.99745e-07
3.98931e-07
3.98062e-07
3.97145e-07
3.96184e-07
3.95184e-07
3.94148e-07
3.93081e-07
3.91985e-07
3.90865e-07
3.89722e-07
3.88559e-07
3.8738e-07
3.86186e-07
3.84979e-07
3.83761e-07
3.82535e-07
3.81303e-07
3.80065e-07
3.78824e-07
3.77581e-07
3.76338e-07
3.75096e-07
3.73858e-07
3.72623e-07
3.71394e-07
3.70172e-07
3.68958e-07
3.67754e-07
3.6656e-07
3.65378e-07
3.64209e-07
3.63053e-07
3.6191e-07
3.60782e-07
3.59667e-07
3.58567e-07
3.57479e-07
3.56405e-07
3.55343e-07
3.54296e-07
3.53257e-07
3.52229e-07
3.51198e-07
3.50166e-07
3.49121e-07
3.48073e-07
3.47012e-07
3.45964e-07
3.44936e-07
3.44031e-07
4.07193e-07
4.07074e-07
4.06837e-07
4.06481e-07
4.0601e-07
4.05433e-07
4.04756e-07
4.03992e-07
4.0315e-07
4.02238e-07
4.01266e-07
4.00239e-07
3.99163e-07
3.98045e-07
3.96887e-07
3.95696e-07
3.94474e-07
3.93225e-07
3.91953e-07
3.90661e-07
3.8935e-07
3.88024e-07
3.86684e-07
3.85331e-07
3.83968e-07
3.82597e-07
3.81218e-07
3.79834e-07
3.78444e-07
3.77051e-07
3.75656e-07
3.7426e-07
3.72864e-07
3.71468e-07
3.70075e-07
3.68684e-07
3.67297e-07
3.65914e-07
3.64537e-07
3.63164e-07
3.61798e-07
3.60438e-07
3.59084e-07
3.57737e-07
3.56395e-07
3.5506e-07
3.53728e-07
3.52402e-07
3.51075e-07
3.49747e-07
3.48406e-07
3.4705e-07
3.45666e-07
3.44258e-07
3.42814e-07
3.41348e-07
3.39837e-07
3.38307e-07
3.36754e-07
3.35292e-07
4.1154e-07
4.11378e-07
4.11053e-07
4.10569e-07
4.09936e-07
4.09169e-07
4.08288e-07
4.07311e-07
4.06252e-07
4.05124e-07
4.03938e-07
4.02701e-07
4.01419e-07
4.00099e-07
3.98745e-07
3.97363e-07
3.95956e-07
3.94528e-07
3.93081e-07
3.91618e-07
3.90141e-07
3.88651e-07
3.8715e-07
3.85639e-07
3.84119e-07
3.82591e-07
3.81056e-07
3.79515e-07
3.77968e-07
3.76417e-07
3.74861e-07
3.73302e-07
3.71741e-07
3.70177e-07
3.68612e-07
3.67045e-07
3.65478e-07
3.6391e-07
3.62342e-07
3.60775e-07
3.59207e-07
3.57638e-07
3.56069e-07
3.54498e-07
3.52924e-07
3.51346e-07
3.49759e-07
3.48163e-07
3.46552e-07
3.44928e-07
3.43282e-07
3.41618e-07
3.39927e-07
3.38217e-07
3.36461e-07
3.34664e-07
3.32791e-07
3.30863e-07
3.28876e-07
3.26957e-07
4.17061e-07
4.16847e-07
4.16416e-07
4.1577e-07
4.14926e-07
4.13912e-07
4.12762e-07
4.11504e-07
4.10165e-07
4.08761e-07
4.07305e-07
4.05804e-07
4.04268e-07
4.02702e-07
4.01111e-07
3.99502e-07
3.97877e-07
3.9624e-07
3.94591e-07
3.92933e-07
3.91267e-07
3.89593e-07
3.87912e-07
3.86224e-07
3.8453e-07
3.82829e-07
3.81123e-07
3.79411e-07
3.77694e-07
3.75971e-07
3.74244e-07
3.72511e-07
3.70773e-07
3.69031e-07
3.67285e-07
3.65535e-07
3.6378e-07
3.62022e-07
3.6026e-07
3.58494e-07
3.56725e-07
3.54951e-07
3.53173e-07
3.5139e-07
3.49602e-07
3.47807e-07
3.46005e-07
3.44194e-07
3.42372e-07
3.40536e-07
3.38681e-07
3.36801e-07
3.34885e-07
3.32921e-07
3.30892e-07
3.28785e-07
3.2659e-07
3.24316e-07
3.21967e-07
3.19638e-07
4.23762e-07
4.23329e-07
4.22542e-07
4.21452e-07
4.20127e-07
4.18639e-07
4.17044e-07
4.15383e-07
4.13675e-07
4.11933e-07
4.10162e-07
4.08367e-07
4.06556e-07
4.04733e-07
4.02905e-07
4.01074e-07
3.99241e-07
3.97408e-07
3.95573e-07
3.93736e-07
3.91896e-07
3.90054e-07
3.88207e-07
3.86357e-07
3.84502e-07
3.82641e-07
3.80774e-07
3.78901e-07
3.7702e-07
3.75132e-07
3.73237e-07
3.71333e-07
3.69422e-07
3.67502e-07
3.65575e-07
3.63639e-07
3.61695e-07
3.59742e-07
3.57782e-07
3.55812e-07
3.53835e-07
3.51848e-07
3.49854e-07
3.47847e-07
3.45834e-07
3.43805e-07
3.4177e-07
3.39714e-07
3.37651e-07
3.3556e-07
3.33463e-07
3.31327e-07
3.29189e-07
3.27002e-07
3.24816e-07
3.22569e-07
3.20332e-07
3.18015e-07
3.15725e-07
3.13353e-07
4.35497e-07
4.34747e-07
4.33333e-07
4.31381e-07
4.29097e-07
4.26676e-07
4.24246e-07
4.21856e-07
4.1951e-07
4.17195e-07
4.14901e-07
4.12629e-07
4.10384e-07
4.0817e-07
4.05989e-07
4.0384e-07
4.01718e-07
3.99619e-07
3.97537e-07
3.95469e-07
3.93412e-07
3.91363e-07
3.89319e-07
3.87278e-07
3.85237e-07
3.83195e-07
3.81149e-07
3.79098e-07
3.77041e-07
3.74976e-07
3.72903e-07
3.7082e-07
3.68728e-07
3.66626e-07
3.64513e-07
3.62389e-07
3.60255e-07
3.58109e-07
3.55954e-07
3.53784e-07
3.51609e-07
3.49416e-07
3.4722e-07
3.45004e-07
3.4279e-07
3.4055e-07
3.38321e-07
3.36058e-07
3.3382e-07
3.31535e-07
3.29301e-07
3.27001e-07
3.24791e-07
3.22485e-07
3.20336e-07
3.18038e-07
3.16e-07
3.13716e-07
3.11829e-07
3.09464e-07
4.44238e-07
4.42511e-07
4.39866e-07
4.3674e-07
4.33524e-07
4.3043e-07
4.27506e-07
4.2472e-07
4.22018e-07
4.19371e-07
4.16773e-07
4.1423e-07
4.11748e-07
4.09327e-07
4.06961e-07
4.04639e-07
4.02355e-07
4.00098e-07
3.97864e-07
3.95647e-07
3.93444e-07
3.9125e-07
3.89061e-07
3.86875e-07
3.84687e-07
3.82497e-07
3.803e-07
3.78096e-07
3.75883e-07
3.73659e-07
3.71425e-07
3.69177e-07
3.66918e-07
3.64644e-07
3.62358e-07
3.60057e-07
3.57745e-07
3.55416e-07
3.53079e-07
3.50723e-07
3.48361e-07
3.45979e-07
3.43595e-07
3.41185e-07
3.38781e-07
3.36341e-07
3.33921e-07
3.31448e-07
3.2902e-07
3.26511e-07
3.24096e-07
3.2155e-07
3.19201e-07
3.1664e-07
3.14491e-07
3.1198e-07
3.10366e-07
3.07985e-07
3.07514e-07
3.04844e-07
4.92282e-07
4.78159e-07
4.64392e-07
4.53814e-07
4.46392e-07
4.41001e-07
4.3655e-07
4.3247e-07
4.28595e-07
4.2493e-07
4.21514e-07
4.1835e-07
4.15404e-07
4.12627e-07
4.09972e-07
4.07406e-07
4.04908e-07
4.02463e-07
4.00063e-07
3.97697e-07
3.95357e-07
3.93036e-07
3.90726e-07
3.88423e-07
3.86122e-07
3.8382e-07
3.81512e-07
3.79197e-07
3.76872e-07
3.74537e-07
3.72189e-07
3.69828e-07
3.67454e-07
3.65065e-07
3.62662e-07
3.60245e-07
3.57813e-07
3.55369e-07
3.52911e-07
3.5044e-07
3.47957e-07
3.45462e-07
3.42955e-07
3.40437e-07
3.37908e-07
3.35365e-07
3.32811e-07
3.30241e-07
3.27659e-07
3.2505e-07
3.22435e-07
3.19763e-07
3.17116e-07
3.14321e-07
3.1168e-07
3.08554e-07
3.06205e-07
3.01806e-07
3.01506e-07
2.90921e-07
2.97192e-07
2.95778e-07
2.90914e-07
2.84815e-07
2.78873e-07
2.7398e-07
2.7062e-07
2.68892e-07
2.68571e-07
2.6917e-07
2.70095e-07
2.70869e-07
2.71243e-07
2.71268e-07
2.71239e-07
3.06297e-07
3.02537e-07
2.96163e-07
2.90133e-07
2.85668e-07
2.8294e-07
2.81726e-07
2.81642e-07
2.82262e-07
2.83033e-07
2.8352e-07
2.83629e-07
2.83604e-07
2.83843e-07
2.84667e-07
2.86275e-07
2.886e-07
2.91503e-07
2.94661e-07
2.97705e-07
3.00636e-07
3.03672e-07
3.06611e-07
3.08558e-07
3.08073e-07
3.03848e-07
2.91726e-07
2.62934e-07
2.29027e-07
5.11789e-08
3.07492e-07
3.04174e-07
3.00317e-07
2.97001e-07
2.94763e-07
2.9352e-07
2.9284e-07
2.92293e-07
2.91685e-07
2.91184e-07
2.91246e-07
2.92242e-07
2.94208e-07
2.9689e-07
2.9998e-07
3.03312e-07
3.06831e-07
3.1046e-07
3.14247e-07
3.18365e-07
3.23189e-07
3.28648e-07
3.34072e-07
3.38656e-07
3.41626e-07
3.41749e-07
3.35004e-07
3.17287e-07
2.84167e-07
1.43296e-07
3.11046e-07
3.08885e-07
3.07031e-07
3.05585e-07
3.04597e-07
3.04009e-07
3.03688e-07
3.03569e-07
3.03744e-07
3.0448e-07
3.05981e-07
3.08282e-07
3.11252e-07
3.14609e-07
3.18075e-07
3.21555e-07
3.25222e-07
3.29429e-07
3.34537e-07
3.40779e-07
3.48004e-07
3.55688e-07
3.63239e-07
3.70502e-07
3.77094e-07
3.81684e-07
3.80969e-07
3.71653e-07
3.43176e-07
2.35339e-07
3.1741e-07
3.15922e-07
3.1509e-07
3.14682e-07
3.14542e-07
3.14637e-07
3.15008e-07
3.15737e-07
3.16916e-07
3.18599e-07
3.20751e-07
3.23257e-07
3.26014e-07
3.29053e-07
3.32606e-07
3.37042e-07
3.42618e-07
3.49335e-07
3.57023e-07
3.6549e-07
3.74418e-07
3.83644e-07
3.93372e-07
4.03751e-07
4.14194e-07
4.23256e-07
4.28452e-07
4.26483e-07
4.05755e-07
3.26776e-07
3.25197e-07
3.24298e-07
3.24164e-07
3.2452e-07
3.25156e-07
3.2601e-07
3.27129e-07
3.28595e-07
3.30466e-07
3.32762e-07
3.35476e-07
3.38622e-07
3.42277e-07
3.46625e-07
3.51859e-07
3.58067e-07
3.65241e-07
3.7323e-07
3.81831e-07
3.90991e-07
4.0094e-07
4.12127e-07
4.24829e-07
4.38697e-07
4.52816e-07
4.66121e-07
4.76875e-07
4.81829e-07
4.70078e-07
4.15116e-07
3.34028e-07
3.33683e-07
3.34146e-07
3.35139e-07
3.3644e-07
3.37968e-07
3.39751e-07
3.41865e-07
3.44386e-07
3.47373e-07
3.50876e-07
3.54956e-07
3.59687e-07
3.6514e-07
3.71358e-07
3.78335e-07
3.86038e-07
3.94521e-07
4.04021e-07
4.1492e-07
4.27539e-07
4.41901e-07
4.57724e-07
4.74478e-07
4.9175e-07
5.09168e-07
5.25323e-07
5.36925e-07
5.34563e-07
4.99605e-07
3.43359e-07
3.43582e-07
3.44594e-07
3.46145e-07
3.48028e-07
3.50164e-07
3.52575e-07
3.55337e-07
3.58539e-07
3.62254e-07
3.66545e-07
3.71464e-07
3.77063e-07
3.8339e-07
3.90502e-07
3.98481e-07
4.07456e-07
4.17644e-07
4.29268e-07
4.42441e-07
4.5717e-07
4.73319e-07
4.90769e-07
5.09652e-07
5.30174e-07
5.51903e-07
5.73201e-07
5.90948e-07
5.97322e-07
5.78392e-07
3.52947e-07
3.53726e-07
3.55254e-07
3.57315e-07
3.59729e-07
3.6243e-07
3.65443e-07
3.68843e-07
3.72718e-07
3.77145e-07
3.82188e-07
3.87905e-07
3.94358e-07
4.01618e-07
4.09777e-07
4.18947e-07
4.29257e-07
4.40836e-07
4.53806e-07
4.68247e-07
4.84211e-07
5.01847e-07
5.21502e-07
5.43494e-07
5.6774e-07
5.93475e-07
6.19191e-07
6.42356e-07
6.56657e-07
6.50566e-07
3.6236e-07
3.63674e-07
3.65674e-07
3.68189e-07
3.71079e-07
3.74294e-07
3.77865e-07
3.81863e-07
3.8637e-07
3.91465e-07
3.97214e-07
4.03683e-07
4.10942e-07
4.19076e-07
4.28182e-07
4.38371e-07
4.49767e-07
4.625e-07
4.76719e-07
4.92603e-07
5.10384e-07
5.30327e-07
5.52627e-07
5.77273e-07
6.04059e-07
6.32524e-07
6.61857e-07
6.89888e-07
7.11022e-07
7.14678e-07
3.71204e-07
3.73017e-07
3.75441e-07
3.78358e-07
3.81669e-07
3.85348e-07
3.89426e-07
3.9397e-07
3.99058e-07
4.04764e-07
4.11161e-07
4.1832e-07
4.26319e-07
4.35249e-07
4.45216e-07
4.5634e-07
4.68758e-07
4.82628e-07
4.98126e-07
5.15448e-07
5.34804e-07
5.56385e-07
5.80354e-07
6.06786e-07
6.35695e-07
6.66933e-07
6.99864e-07
7.32226e-07
7.59003e-07
7.69791e-07
3.79024e-07
3.81277e-07
3.84063e-07
3.87317e-07
3.90983e-07
3.95055e-07
3.99566e-07
4.04579e-07
4.10164e-07
4.16397e-07
4.23349e-07
4.31098e-07
4.39728e-07
4.49337e-07
4.60037e-07
4.71956e-07
4.8524e-07
5.00052e-07
5.16577e-07
5.35014e-07
5.55577e-07
5.78487e-07
6.03977e-07
6.32238e-07
6.63383e-07
6.97181e-07
7.32886e-07
7.68309e-07
7.99253e-07
8.1486e-07
3.85381e-07
3.87992e-07
3.91066e-07
3.94583e-07
3.98527e-07
4.02909e-07
4.07765e-07
4.13152e-07
4.19136e-07
4.25788e-07
4.33184e-07
4.41404e-07
4.50539e-07
4.60691e-07
4.71976e-07
4.84529e-07
4.985e-07
5.1406e-07
5.31403e-07
5.50738e-07
5.72301e-07
5.96333e-07
6.23083e-07
6.52736e-07
6.85392e-07
7.2083e-07
7.58425e-07
7.96146e-07
8.30313e-07
8.49347e-07
3.89876e-07
3.9274e-07
3.96013e-07
3.99711e-07
4.03847e-07
4.08444e-07
4.1354e-07
4.19187e-07
4.25449e-07
4.32394e-07
4.40098e-07
4.48646e-07
4.58131e-07
4.68658e-07
4.80348e-07
4.93338e-07
5.07783e-07
5.23858e-07
5.41762e-07
5.61712e-07
5.83951e-07
6.08725e-07
6.36289e-07
6.66841e-07
7.00505e-07
7.37105e-07
7.76072e-07
8.15403e-07
8.51657e-07
8.72824e-07
3.92206e-07
3.95202e-07
3.98578e-07
4.02368e-07
4.06601e-07
4.11308e-07
4.16527e-07
4.22309e-07
4.28713e-07
4.35809e-07
4.43672e-07
4.52387e-07
4.62052e-07
4.72772e-07
4.8467e-07
4.97885e-07
5.12573e-07
5.28912e-07
5.47104e-07
5.67369e-07
5.89952e-07
6.15105e-07
6.43089e-07
6.74109e-07
7.08299e-07
7.45487e-07
7.85115e-07
8.25205e-07
8.62455e-07
8.84659e-07
3.92209e-07
3.95205e-07
3.98581e-07
4.02371e-07
4.06604e-07
4.11311e-07
4.16531e-07
4.22313e-07
4.28717e-07
4.35812e-07
4.43675e-07
4.52391e-07
4.62056e-07
4.72776e-07
4.84674e-07
4.97888e-07
5.12577e-07
5.28916e-07
5.47108e-07
5.67373e-07
5.89956e-07
6.15109e-07
6.43093e-07
6.74113e-07
7.08304e-07
7.45491e-07
7.85119e-07
8.2521e-07
8.6246e-07
8.84664e-07
3.89884e-07
3.92749e-07
3.96022e-07
3.9972e-07
4.03856e-07
4.08453e-07
4.13549e-07
4.19197e-07
4.25459e-07
4.32404e-07
4.40109e-07
4.48657e-07
4.58141e-07
4.68669e-07
4.8036e-07
4.93349e-07
5.07795e-07
5.2387e-07
5.41774e-07
5.61725e-07
5.83963e-07
6.08738e-07
6.36302e-07
6.66854e-07
7.00518e-07
7.37118e-07
7.76085e-07
8.15417e-07
8.51672e-07
8.72838e-07
3.85396e-07
3.88007e-07
3.91081e-07
3.94598e-07
3.98543e-07
4.02925e-07
4.07781e-07
4.13168e-07
4.19153e-07
4.25805e-07
4.33201e-07
4.41422e-07
4.50557e-07
4.60709e-07
4.71995e-07
4.84547e-07
4.98519e-07
5.1408e-07
5.31423e-07
5.50758e-07
5.72322e-07
5.96354e-07
6.23104e-07
6.52758e-07
6.85414e-07
7.20852e-07
7.58448e-07
7.9617e-07
8.30337e-07
8.49372e-07
3.79044e-07
3.81297e-07
3.84084e-07
3.87338e-07
3.91005e-07
3.95076e-07
3.99588e-07
4.04601e-07
4.10187e-07
4.1642e-07
4.23373e-07
4.31122e-07
4.39753e-07
4.49362e-07
4.60063e-07
4.71982e-07
4.85266e-07
5.00079e-07
5.16605e-07
5.35042e-07
5.55605e-07
5.78516e-07
6.04006e-07
6.32268e-07
6.63413e-07
6.97212e-07
7.32918e-07
7.68341e-07
7.99287e-07
8.14895e-07
3.71229e-07
3.73042e-07
3.75467e-07
3.78384e-07
3.81696e-07
3.85375e-07
3.89454e-07
3.93998e-07
3.99087e-07
4.04794e-07
4.11191e-07
4.18351e-07
4.2635e-07
4.35281e-07
4.45248e-07
4.56373e-07
4.68792e-07
4.82662e-07
4.98161e-07
5.15483e-07
5.3484e-07
5.56422e-07
5.80392e-07
6.06824e-07
6.35734e-07
6.66972e-07
6.99905e-07
7.32267e-07
7.59046e-07
7.69837e-07
3.62389e-07
3.63704e-07
3.65705e-07
3.6822e-07
3.71111e-07
3.74327e-07
3.77898e-07
3.81896e-07
3.86405e-07
3.915e-07
3.9725e-07
4.03719e-07
4.1098e-07
4.19114e-07
4.28221e-07
4.38411e-07
4.49807e-07
4.62541e-07
4.76761e-07
4.92646e-07
5.10427e-07
5.30371e-07
5.52672e-07
5.77319e-07
6.04106e-07
6.32572e-07
6.61907e-07
6.89939e-07
7.11075e-07
7.14734e-07
3.52981e-07
3.53761e-07
3.5529e-07
3.57351e-07
3.59766e-07
3.62467e-07
3.65481e-07
3.68882e-07
3.72758e-07
3.77186e-07
3.8223e-07
3.87948e-07
3.94401e-07
4.01662e-07
4.09822e-07
4.18993e-07
4.29303e-07
4.40884e-07
4.53855e-07
4.68297e-07
4.84262e-07
5.01899e-07
5.21555e-07
5.43548e-07
5.67795e-07
5.93532e-07
6.19249e-07
6.42416e-07
6.5672e-07
6.50632e-07
3.43396e-07
3.4362e-07