/*--------------------------------*- C++ -*----------------------------------*\
| =========                 |                                                 |
| \\      /  F ield         | OpenFOAM: The Open Source CFD Toolbox           |
|  \\    /   O peration     | Version:  2312                                  |
|   \\  /    A nd           | Website:  www.openfoam.com                      |
|    \\/     M anipulation  |                                                 |
\*---------------------------------------------------------------------------*/
FoamFile
{
    version     2.0;
    format      ascii;
    arch        "LSB;label=32;scalar=64";
    class       surfaceScalarField;
    location    "149000";
    object      phi;
}
// * * * * * * * * * * * * * * * * * * * * * * * * * * * * * * * * * * * * * //

dimensions      [0 3 -1 0 0 0 0];

oriented        oriented;

internalField   nonuniform List<scalar> 
21240
(
0.000664973
1.69345e-06
0.000661067
3.90594e-06
0.000655741
5.32675e-06
0.000649496
6.24469e-06
0.00064261
6.88587e-06
0.000635225
7.38498e-06
0.000627432
7.79248e-06
0.000619311
8.12141e-06
0.000610933
8.37776e-06
0.000602363
8.57051e-06
0.000593651
8.71195e-06
0.000584837
8.81436e-06
0.000575949
8.88736e-06
0.000567012
8.93726e-06
0.000558044
8.96783e-06
0.000549063
8.98154e-06
0.000540082
8.9802e-06
0.000531117
8.96535e-06
0.000522179
8.9383e-06
0.000513279
8.90012e-06
0.000504427
8.8516e-06
0.000495634
8.79334e-06
0.000486908
8.72574e-06
0.000478259
8.64908e-06
0.000469695
8.56359e-06
0.000461226
8.4694e-06
0.000452859
8.36663e-06
0.000444604
8.2553e-06
0.000436468
8.13554e-06
0.000428461
8.00722e-06
0.000420591
7.87057e-06
0.000412865
7.72527e-06
0.000405293
7.57184e-06
0.000397884
7.40954e-06
0.000390644
7.23947e-06
0.000383584
7.06016e-06
0.00037671
6.87379e-06
0.000370033
6.67749e-06
0.000363558
6.47543e-06
0.000357295
6.26207e-06
0.00035125
6.04531e-06
0.000345436
5.8146e-06
0.000339851
5.58468e-06
0.000334515
5.33573e-06
0.00032942
5.09499e-06
0.000324595
4.82553e-06
0.000320017
4.57756e-06
0.000315735
4.28244e-06
0.000311702
4.03296e-06
0.000308001
3.70074e-06
0.000304541
3.45993e-06
0.000301477
3.0641e-06
0.000298623
2.85439e-06
0.000296296
2.32697e-06
0.000294091
2.20422e-06
0.000292757
1.33452e-06
0.000291191
1.56548e-06
0.000291302
-1.10351e-07
0.000290052
1.25011e-06
-3.13469e-06
0.000293186
0.000667555
8.04981e-07
0.000669117
2.34424e-06
0.000670845
3.59833e-06
0.000672509
4.58097e-06
0.000674028
5.36653e-06
0.00067539
6.02378e-06
0.000676588
6.59437e-06
0.000677612
7.09669e-06
0.000678452
7.53778e-06
0.000679101
7.92205e-06
0.000679558
8.25509e-06
0.000679828
8.54382e-06
0.00067992
8.79523e-06
0.000679842
9.01514e-06
0.000679602
9.20787e-06
0.000679208
9.37632e-06
0.000678665
9.52262e-06
0.000677982
9.64831e-06
0.000677166
9.75483e-06
0.000676223
9.84321e-06
0.00067516
9.91455e-06
0.000673984
9.9694e-06
0.000672701
1.00086e-05
0.000671318
1.00321e-05
0.000669841
1.00408e-05
0.000668276
1.00341e-05
0.000666629
1.0013e-05
0.000664908
9.97662e-06
0.000663118
9.92613e-06
0.000661265
9.85993e-06
0.000659355
9.78008e-06
0.000657397
9.68377e-06
0.000655394
9.57447e-06
0.000653356
9.44755e-06
0.000651287
9.30878e-06
0.000649196
9.15054e-06
0.000647088
8.98251e-06
0.000644973
8.79205e-06
0.000642853
8.59536e-06
0.000640744
8.37149e-06
0.000638642
8.14739e-06
0.000636568
7.8883e-06
0.000634514
7.63902e-06
0.000632508
7.34186e-06
0.000630531
7.07118e-06
0.000628626
6.73118e-06
0.000626758
6.44533e-06
0.000624986
6.0545e-06
0.000623255
5.76367e-06
0.000621647
5.30879e-06
0.000620077
5.02964e-06
0.000618652
4.48947e-06
0.000617257
4.24915e-06
0.000615993
3.59134e-06
0.000614765
3.43261e-06
0.000613484
2.61489e-06
0.000612452
2.59728e-06
0.000610744
1.59804e-06
0.000610214
1.77966e-06
6.65583e-07
0.000606414
0.00066695
5.217e-07
0.000667815
1.47954e-06
0.00066905
2.36318e-06
0.000670468
3.1627e-06
0.000671961
3.87393e-06
0.00067348
4.50449e-06
0.000675008
5.06659e-06
0.000676533
5.57132e-06
0.000678044
6.02647e-06
0.00067953
6.43692e-06
0.000680978
6.80619e-06
0.000682385
7.13753e-06
0.000683746
7.43443e-06
0.00068506
7.70034e-06
0.00068633
7.93852e-06
0.000687554
8.15158e-06
0.000688735
8.34172e-06
0.000689873
8.51046e-06
0.000690969
8.65929e-06
0.000692023
8.78908e-06
0.000693036
8.90098e-06
0.00069401
8.99541e-06
0.000694946
9.07333e-06
0.000695843
9.13469e-06
0.000696703
9.18042e-06
0.000697528
9.20994e-06
0.000698316
9.22434e-06
0.00069907
9.22245e-06
0.000699791
9.20578e-06
0.000700478
9.17236e-06
0.000701134
9.12446e-06
0.000701759
9.059e-06
0.000702354
8.97945e-06
0.00070292
8.88116e-06
0.00070346
8.76945e-06
0.000703973
8.63733e-06
0.000704462
8.49296e-06
0.000704928
8.32589e-06
0.000705375
8.14847e-06
0.000705802
7.94519e-06
0.000706214
7.73458e-06
0.000706609
7.49375e-06
0.000706998
7.25014e-06
0.000707369
6.97037e-06
0.000707746
6.69444e-06
0.000708103
6.37435e-06
0.000708481
6.06739e-06
0.000708829
5.70589e-06
0.000709223
5.36994e-06
0.000709565
4.96669e-06
0.000709991
4.60442e-06
0.000710319
4.16101e-06
0.000710793
3.77544e-06
0.000711086
3.29821e-06
0.000711626
2.89245e-06
0.000711841
2.39986e-06
0.000712462
1.97669e-06
0.000712543
1.51623e-06
0.000713254
1.06924e-06
7.39408e-07
0.00071318
0.000666853
3.35353e-07
0.000667305
1.0272e-06
0.000667964
1.70404e-06
0.000668782
2.34506e-06
0.000669715
2.94105e-06
0.00067073
3.48904e-06
0.000671806
3.99059e-06
0.000672928
4.4493e-06
0.000674086
4.86907e-06
0.00067527
5.2531e-06
0.000676472
5.60387e-06
0.000677686
5.9234e-06
0.000678907
6.21365e-06
0.000680131
6.47658e-06
0.000681355
6.71417e-06
0.000682578
6.92824e-06
0.0006838
7.12045e-06
0.000685018
7.29209e-06
0.000686233
7.44437e-06
0.000687444
7.57812e-06
0.000688651
7.6942e-06
0.000689853
7.79314e-06
0.000691051
7.87559e-06
0.000692244
7.9418e-06
0.000693432
7.99227e-06
0.000694615
8.02701e-06
0.000695793
8.04638e-06
0.000696965
8.0502e-06
0.000698132
8.03876e-06
0.000699293
8.0117e-06
0.000700448
7.96926e-06
0.000701596
7.91099e-06
0.000702738
7.837e-06
0.000703872
7.7469e-06
0.000705001
7.64057e-06
0.000706121
7.51786e-06
0.000707236
7.37817e-06
0.000708339
7.222e-06
0.00070944
7.04773e-06
0.000710528
6.85733e-06
0.000711616
6.64707e-06
0.000712687
6.42184e-06
0.000713764
6.17396e-06
0.00071482
5.9137e-06
0.000715889
5.6262e-06
0.000716931
5.33145e-06
0.000717997
5.00176e-06
0.000719029
4.67438e-06
0.000720099
4.29917e-06
0.000721123
3.94343e-06
0.000722209
3.51856e-06
0.000723226
3.14314e-06
0.000724339
2.66332e-06
0.000725353
2.28399e-06
0.000726504
1.74161e-06
0.000727519
1.38471e-06
0.000728728
7.67728e-07
0.000729769
4.75013e-07
0.00073109
-2.5186e-07
-4.35029e-07
0.000732264
0.000666738
2.6414e-07
0.000666967
7.98095e-07
0.000667349
1.32163e-06
0.000667867
1.82752e-06
0.000668498
2.30987e-06
0.000669222
2.76504e-06
0.000670021
3.19154e-06
0.000670881
3.58942e-06
0.000671791
3.95952e-06
0.000672741
4.30294e-06
0.000673724
4.62073e-06
0.000674733
4.91385e-06
0.000675764
5.18319e-06
0.000676811
5.42972e-06
0.00067787
5.65443e-06
0.00067894
5.85834e-06
0.000680018
6.0424e-06
0.000681103
6.20752e-06
0.000682193
6.35445e-06
0.000683287
6.4839e-06
0.000684385
6.59637e-06
0.000685486
6.69242e-06
0.000686589
6.77235e-06
0.000687694
6.83662e-06
0.000688801
6.8853e-06
0.000689909
6.91882e-06
0.000691019
6.93698e-06
0.000692129
6.94027e-06
0.000693239
6.92815e-06
0.00069435
6.90131e-06
0.00069546
6.85872e-06
0.00069657
6.80149e-06
0.000697679
6.72787e-06
0.000698786
6.63975e-06
0.000699892
6.53423e-06
0.000700996
6.41452e-06
0.000702098
6.2759e-06
0.000703196
6.12382e-06
0.000704293
5.95063e-06
0.000705385
5.76541e-06
0.000706476
5.55583e-06
0.000707561
5.33685e-06
0.000708647
5.08865e-06
0.000709725
4.8357e-06
0.000710805
4.54619e-06
0.000711876
4.25975e-06
0.000712953
3.92551e-06
0.00071402
3.60716e-06
0.000715096
3.22346e-06
0.000716163
2.87609e-06
0.000717246
2.43561e-06
0.000718325
2.06382e-06
0.000719433
1.55524e-06
0.00072055
1.16692e-06
0.000721719
5.72809e-07
0.000722924
1.79765e-07
0.000724191
-4.98805e-07
0.000725519
-8.5323e-07
0.000726944
-1.67656e-06
-1.99124e-06
0.0007285
0.000666723
2.07788e-07
0.000666896
6.25481e-07
0.000667176
1.04082e-06
0.000667557
1.44718e-06
0.000668026
1.84079e-06
0.000668572
2.21868e-06
0.000669185
2.57874e-06
0.000669855
2.9197e-06
0.000670573
3.24096e-06
0.000671334
3.54235e-06
0.000672131
3.82392e-06
0.000672959
4.0859e-06
0.000673813
4.32859e-06
0.000674691
4.55243e-06
0.000675587
4.75783e-06
0.0006765
4.94532e-06
0.000677427
5.11536e-06
0.000678366
5.2685e-06
0.000679316
5.40514e-06
0.000680274
5.52577e-06
0.000681239
5.63067e-06
0.000682211
5.72028e-06
0.000683189
5.79469e-06
0.000684171
5.85433e-06
0.000685158
5.89912e-06
0.000686147
5.92949e-06
0.000687139
5.94511e-06
0.000688133
5.94653e-06
0.000689128
5.93307e-06
0.000690123
5.90551e-06
0.000691119
5.8627e-06
0.000692115
5.80584e-06
0.00069311
5.73306e-06
0.000694103
5.64633e-06
0.000695095
5.54265e-06
0.000696084
5.42522e-06
0.000697071
5.28939e-06
0.000698054
5.14031e-06
0.000699034
4.97073e-06
0.000700011
4.7889e-06
0.000700983
4.58357e-06
0.000701952
4.36785e-06
0.000702916
4.12427e-06
0.000703878
3.87354e-06
0.000704836
3.58851e-06
0.000705794
3.30171e-06
0.000706749
2.97111e-06
0.000707708
2.64766e-06
0.000708665
2.26646e-06
0.000709634
1.90729e-06
0.0007106
1.46997e-06
0.000711585
1.07869e-06
0.000712561
5.78963e-07
0.000713564
1.64241e-07
0.000714564
-4.27524e-07
0.000715623
-8.79792e-07
0.000716695
-1.5701e-06
0.000717872
-2.03007e-06
0.000719046
-2.85043e-06
-3.30345e-06
0.000720358
0.000666708
1.66695e-07
0.000666831
5.02227e-07
0.000667035
8.37312e-07
0.000667314
1.16728e-06
0.000667666
1.48954e-06
0.000668082
1.80188e-06
0.000668559
2.10256e-06
0.000669088
2.39025e-06
0.000669665
2.66414e-06
0.000670283
2.92387e-06
0.000670939
3.16805e-06
0.000671628
3.39672e-06
0.000672347
3.60997e-06
0.000673092
3.80788e-06
0.000673859
3.99052e-06
0.000674646
4.15809e-06
0.000675451
4.31073e-06
0.000676271
4.44871e-06
0.000677104
4.5722e-06
0.000677948
4.68146e-06
0.000678802
4.77661e-06
0.000679664
4.8579e-06
0.000680534
4.92535e-06
0.000681409
4.97921e-06
0.000682289
5.01936e-06
0.000683172
5.04611e-06
0.000684058
5.05913e-06
0.000684946
5.0588e-06
0.000685834
5.04456e-06
0.000686723
5.01696e-06
0.00068761
4.97506e-06
0.000688496
4.9197e-06
0.00068938
4.84944e-06
0.000690261
4.7656e-06
0.000691137
4.66597e-06
0.00069201
4.55268e-06
0.000692877
4.42235e-06
0.000693739
4.2784e-06
0.000694594
4.11567e-06
0.000695443
3.93961e-06
0.000696284
3.74236e-06
0.00069712
3.53254e-06
0.000697946
3.29817e-06
0.000698767
3.05282e-06
0.000699577
2.77822e-06
0.000700383
2.49563e-06
0.000701177
2.17698e-06
0.00070197
1.8552e-06
0.000702749
1.48683e-06
0.000703534
1.12262e-06
0.000704308
6.95375e-07
0.000705103
2.83723e-07
0.000705892
-2.09862e-07
0.000706717
-6.60859e-07
0.000707523
-1.23307e-06
0.000708378
-1.7351e-06
0.000709217
-2.40874e-06
0.000710144
-2.95737e-06
0.000711049
-3.75495e-06
-4.33987e-06
0.000712085
0.000666698
1.35246e-07
0.000666793
4.07206e-07
0.000666951
6.79314e-07
0.00066717
9.4826e-07
0.000667447
1.21224e-06
0.00066778
1.46965e-06
0.000668163
1.71912e-06
0.000668594
1.95948e-06
0.000669068
2.18982e-06
0.000669583
2.40935e-06
0.000670133
2.61741e-06
0.000670717
2.81355e-06
0.000671329
2.9975e-06
0.000671968
3.16912e-06
0.00067263
3.3283e-06
0.000673313
3.475e-06
0.000674015
3.60919e-06
0.000674732
3.73092e-06
0.000675464
3.84018e-06
0.000676209
3.93706e-06
0.000676964
4.02156e-06
0.000677728
4.09379e-06
0.0006785
4.15371e-06
0.000679277
4.20141e-06
0.00068006
4.23678e-06
0.000680846
4.25994e-06
0.000681635
4.27066e-06
0.000682424
4.26909e-06
0.000683214
4.25487e-06
0.000684003
4.22819e-06
0.000684789
4.18848e-06
0.000685573
4.13608e-06
0.000686352
4.0701e-06
0.000687127
3.99112e-06
0.000687895
3.89781e-06
0.000688657
3.79111e-06
0.00068941
3.66908e-06
0.000690155
3.53326e-06
0.00069089
3.38075e-06
0.000691615
3.21407e-06
0.000692329
3.02892e-06
0.000693032
2.82929e-06
0.000693722
2.60879e-06
0.000694401
2.3737e-06
0.000695064
2.11446e-06
0.000695719
1.8409e-06
0.000696357
1.53877e-06
0.000696989
1.22344e-06
0.000697602
8.73801e-07
0.000698211
5.13967e-07
0.000698792
1.13834e-07
0.000699378
-3.02209e-07
0.000699943
-7.74649e-07
0.000700528
-1.2454e-06
0.000701085
-1.79052e-06
0.000701674
-2.32447e-06
0.000702226
-2.96049e-06
0.000702833
-3.56447e-06
0.000703387
-4.30862e-06
-4.98401e-06
0.000704031
0.000666692
1.09594e-07
0.00066677
3.2994e-07
0.000666898
5.50697e-07
0.000667077
7.69412e-07
0.000667305
9.84784e-07
0.000667579
1.19563e-06
0.000667897
1.40088e-06
0.000668257
1.59958e-06
0.000668656
1.7909e-06
0.000669091
1.97416e-06
0.000669559
2.14876e-06
0.000670059
2.31425e-06
0.000670586
2.47023e-06
0.000671139
2.61642e-06
0.000671714
2.7526e-06
0.000672311
2.8786e-06
0.000672926
2.99428e-06
0.000673557
3.09954e-06
0.000674203
3.19432e-06
0.000674861
3.27856e-06
0.000675531
3.35219e-06
0.000676209
3.4152e-06
0.000676896
3.46753e-06
0.000677588
3.50914e-06
0.000678285
3.53995e-06
0.000678985
3.55993e-06
0.000679686
3.56892e-06
0.000680389
3.56691e-06
0.00068109
3.55367e-06
0.000681789
3.52916e-06
0.000682484
3.49307e-06
0.000683175
3.44535e-06
0.00068386
3.38557e-06
0.000684537
3.31372e-06
0.000685206
3.22916e-06
0.000685865
3.13195e-06
0.000686513
3.02124e-06
0.000687149
2.89716e-06
0.000687771
2.75854e-06
0.000688379
2.60569e-06
0.000688971
2.43702e-06
0.000689547
2.25305e-06
0.000690105
2.0517e-06
0.000690644
1.83378e-06
0.000691162
1.59654e-06
0.000691662
1.34126e-06
0.000692137
1.06426e-06
0.000692593
7.67411e-07
0.00069302
4.45877e-07
0.000693431
1.02962e-07
0.000693818
-2.72901e-07
0.00069419
-6.74513e-07
0.000694526
-1.11003e-06
0.000694855
-1.57453e-06
0.000695143
-2.0785e-06
0.000695435
-2.61607e-06
0.000695675
-3.20065e-06
0.000695935
-3.8246e-06
0.00069613
-4.50369e-06
-5.22684e-06
0.000696373
0.000666688
8.79689e-08
0.000666753
2.64894e-07
0.000666862
4.42363e-07
0.000667013
6.18519e-07
0.000667205
7.924e-07
0.000667437
9.63117e-07
0.000667708
1.12985e-06
0.000668016
1.29184e-06
0.000668359
1.44843e-06
0.000668734
1.59902e-06
0.00066914
1.74309e-06
0.000669574
1.88021e-06
0.000670034
2.00999e-06
0.000670518
2.13211e-06
0.000671024
2.2463e-06
0.000671551
2.35234e-06
0.000672095
2.45003e-06
0.000672655
2.53924e-06
0.00067323
2.61982e-06
0.000673817
2.69166e-06
0.000674414
2.75466e-06
0.000675021
2.80874e-06
0.000675634
2.8538e-06
0.000676254
2.88976e-06
0.000676877
2.91654e-06
0.000677503
2.93402e-06
0.00067813
2.9421e-06
0.000678756
2.94066e-06
0.00067938
2.92956e-06
0.000680001
2.90862e-06
0.000680616
2.87771e-06
0.000681225
2.83655e-06
0.000681825
2.785e-06
0.000682417
2.72268e-06
0.000682996
2.64946e-06
0.000683563
2.56478e-06
0.000684116
2.46858e-06
0.000684653
2.36002e-06
0.000685173
2.2392e-06
0.000685673
2.10487e-06
0.000686153
1.95741e-06
0.000686611
1.79494e-06
0.000687044
1.61838e-06
0.000687453
1.4248e-06
0.000687834
1.21615e-06
0.000688187
9.87822e-07
0.000688508
7.43635e-07
0.000688799
4.76281e-07
0.000689052
1.93161e-07
0.000689275
-1.20539e-07
0.000689457
-4.54837e-07
0.000689607
-8.24793e-07
0.000689708
-1.21044e-06
0.000689778
-1.6444e-06
0.00068979
-2.09083e-06
0.000689776
-2.60213e-06
0.000689693
-3.1178e-06
0.000689592
-3.72311e-06
0.000689405
-4.31657e-06
-5.03538e-06
0.000689213
0.000666685
6.92057e-08
0.000666742
2.08496e-07
0.000666836
3.484e-07
0.000666967
4.87518e-07
0.000667134
6.25131e-07
0.000667337
7.60572e-07
0.000667573
8.93217e-07
0.000667843
1.02249e-06
0.000668143
1.14785e-06
0.000668473
1.26882e-06
0.000668831
1.38497e-06
0.000669216
1.49591e-06
0.000669624
1.6013e-06
0.000670056
1.70084e-06
0.000670508
1.79427e-06
0.000670979
1.88135e-06
0.000671467
1.96191e-06
0.00067197
2.03576e-06
0.000672487
2.10276e-06
0.000673016
2.16276e-06
0.000673555
2.21568e-06
0.000674103
2.26137e-06
0.000674657
2.29975e-06
0.000675216
2.33071e-06
0.000675778
2.35417e-06
0.000676342
2.36999e-06
0.000676906
2.37811e-06
0.000677468
2.37833e-06
0.000678027
2.37061e-06
0.000678581
2.35469e-06
0.000679129
2.33057e-06
0.000679667
2.29783e-06
0.000680196
2.25656e-06
0.000680712
2.20616e-06
0.000681215
2.14682e-06
0.000681702
2.07768e-06
0.000682171
1.99913e-06
0.000682622
1.90987e-06
0.00068305
1.8107e-06
0.000683455
1.6996e-06
0.000683835
1.57805e-06
0.000684187
1.44293e-06
0.000684508
1.29687e-06
0.000684798
1.13499e-06
0.000685052
9.61838e-07
0.00068527
7.69754e-07
0.000685447
5.6652e-07
0.000685584
3.40032e-07
0.000685673
1.04035e-07
0.000685718
-1.65713e-07
0.000685708
-4.44838e-07
0.000685647
-7.64156e-07
0.000685524
-1.0872e-06
0.000685346
-1.46603e-06
0.000685095
-1.83967e-06
0.000684784
-2.29202e-06
0.000684389
-2.72247e-06
0.000683933
-3.26671e-06
0.000683375
-3.75884e-06
-4.41779e-06
0.000682757
0.000666683
5.24665e-08
0.000666734
1.58202e-07
0.000666818
2.64588e-07
0.000666934
3.70596e-07
0.000667084
4.75698e-07
0.000667265
5.79403e-07
0.000667477
6.81249e-07
0.000667719
7.80798e-07
0.000667989
8.77646e-07
0.000668286
9.71417e-07
0.000668609
1.06177e-06
0.000668957
1.14839e-06
0.000669327
1.231e-06
0.000669719
1.30934e-06
0.00067013
1.3832e-06
0.000670559
1.45236e-06
0.000671004
1.51667e-06
0.000671464
1.57595e-06
0.000671937
1.63007e-06
0.00067242
1.67891e-06
0.000672914
1.72235e-06
0.000673415
1.76029e-06
0.000673922
1.79264e-06
0.000674433
1.81929e-06
0.000674947
1.84018e-06
0.000675462
1.85517e-06
0.000675976
1.86423e-06
0.000676487
1.86717e-06
0.000676994
1.864e-06
0.000677494
1.85444e-06
0.000677986
1.83856e-06
0.000678468
1.81596e-06
0.000678938
1.7868e-06
0.000679393
1.75049e-06
0.000679833
1.70733e-06
0.000680254
1.65644e-06
0.000680655
1.59841e-06
0.000681033
1.53185e-06
0.000681386
1.45783e-06
0.000681711
1.37421e-06
0.000682006
1.28284e-06
0.000682269
1.18038e-06
0.000682496
1.06999e-06
0.000682684
9.46397e-07
0.000682831
8.14943e-07
0.000682934
6.67325e-07
0.000682988
5.12463e-07
0.000682991
3.37181e-07
0.000682938
1.56515e-07
0.000682824
-5.19287e-08
0.000682646
-2.66238e-07
0.000682399
-5.17251e-07
0.000682077
-7.65102e-07
0.000681676
-1.0656e-06
0.000681189
-1.35206e-06
0.000680611
-1.71469e-06
0.000679933
-2.044e-06
0.000679152
-2.4861e-06
0.000678254
-2.8606e-06
-3.40406e-06
0.00067724
0.000666682
3.71049e-08
0.000666728
1.12054e-07
0.000666805
1.87667e-07
0.000666912
2.63237e-07
0.00066705
3.38398e-07
0.000667216
4.12808e-07
0.000667411
4.86143e-07
0.000667634
5.58092e-07
0.000667883
6.28367e-07
0.000668158
6.96697e-07
0.000668457
7.62831e-07
0.000668779
8.26539e-07
0.000669122
8.87613e-07
0.000669486
9.45858e-07
0.000669868
1.00111e-06
0.000670267
1.0532e-06
0.000670682
1.102e-06
0.00067111
1.14739e-06
0.000671551
1.18925e-06
0.000672003
1.22749e-06
0.000672463
1.26202e-06
0.00067293
1.29275e-06
0.000673403
1.31963e-06
0.00067388
1.34256e-06
0.000674359
1.36151e-06
0.000674838
1.37637e-06
0.000675315
1.38713e-06
0.000675788
1.39365e-06
0.000676256
1.39596e-06
0.000676717
1.39386e-06
0.000677168
1.38742e-06
0.000677608
1.37634e-06
0.000678034
1.36079e-06
0.000678444
1.34031e-06
0.000678836
1.31521e-06
0.000679208
1.28478e-06
0.000679556
1.24958e-06
0.00067988
1.2085e-06
0.000680175
1.1625e-06
0.000680439
1.10986e-06
0.00068067
1.05219e-06
0.000680864
9.86788e-07
0.000681017
9.16365e-07
0.000681127
8.36623e-07
0.00068119
7.521e-07
0.000681201
6.5595e-07
0.000681158
5.55694e-07
0.000681055
4.40433e-07
0.000680889
3.22584e-07
0.000680652
1.84925e-07
0.000680337
4.81614e-08
0.00067994
-1.19943e-07
0.000679457
-2.82047e-07
0.000678876
-4.84207e-07
0.000678195
-6.71498e-07
0.000677399
-9.18073e-07
0.000676488
-1.13334e-06
0.000675439
-1.43737e-06
0.00067426
-1.68106e-06
-2.0597e-06
0.000672915
0.000666681
2.25813e-08
0.000666725
6.84286e-08
0.000666798
1.14933e-07
0.000666899
1.61688e-07
0.000667029
2.08473e-07
0.000667187
2.55077e-07
0.000667372
3.01302e-07
0.000667583
3.46957e-07
0.000667819
3.91862e-07
0.00066808
4.35847e-07
0.000668364
4.78756e-07
0.00066867
5.20442e-07
0.000668997
5.60771e-07
0.000669343
5.9962e-07
0.000669708
6.3688e-07
0.000670088
6.72449e-07
0.000670484
7.0624e-07
0.000670893
7.38171e-07
0.000671314
7.68178e-07
0.000671746
7.96193e-07
0.000672186
8.2217e-07
0.000672632
8.46053e-07
0.000673084
8.67817e-07
0.000673539
8.87412e-07
0.000673996
9.0483e-07
0.000674452
9.20017e-07
0.000674906
9.32986e-07
0.000675356
9.43668e-07
0.0006758
9.52096e-07
0.000676236
9.58173e-07
0.000676661
9.6197e-07
0.000677074
9.63341e-07
0.000677473
9.62411e-07
0.000677854
9.58956e-07
0.000678216
9.53187e-07
0.000678556
9.44743e-07
0.000678872
9.33975e-07
0.00067916
9.20303e-07
0.000679418
9.04311e-07
0.000679643
8.85081e-07
0.000679832
8.63574e-07
0.00067998
8.38322e-07
0.000680085
8.10912e-07
0.000680143
7.78985e-07
0.00068015
7.45164e-07
0.0006801
7.05645e-07
0.000679991
6.64749e-07
0.000679815
6.16359e-07
0.00067957
5.67518e-07
0.000679247
5.08421e-07
0.000678845
4.50385e-07
0.000678347
3.77545e-07
0.000677756
3.0927e-07
0.000677051
2.20333e-07
0.000676238
1.41712e-07
0.000675287
3.28167e-08
0.000674213
-5.92176e-08
0.000672975
-1.99184e-07
0.000671596
-3.0239e-07
-4.79344e-07
0.000670016
0.000666681
8.39407e-09
0.000666723
2.58724e-08
0.000666794
4.39722e-08
0.000666893
6.26032e-08
0.00066702
8.16745e-08
0.000667174
1.01101e-07
0.000667355
1.20803e-07
0.000667561
1.40704e-07
0.000667792
1.60731e-07
0.000668047
1.80815e-07
0.000668325
2.00892e-07
0.000668625
2.209e-07
0.000668945
2.40784e-07
0.000669284
2.60493e-07
0.000669641
2.79983e-07
0.000670014
2.99212e-07
0.000670402
3.18146e-07
0.000670803
3.36758e-07
0.000671216
3.55022e-07
0.00067164
3.72921e-07
0.000672071
3.9044e-07
0.00067251
4.07572e-07
0.000672953
4.24311e-07
0.0006734
4.40666e-07
0.000673848
4.56657e-07
0.000674296
4.72336e-07
0.000674741
4.877e-07
0.000675182
5.02765e-07
0.000675617
5.17558e-07
0.000676043
5.32114e-07
0.000676458
5.46473e-07
0.000676861
5.60685e-07
0.000677249
5.74801e-07
0.000677619
5.88877e-07
0.000677969
6.02978e-07
0.000678296
6.17181e-07
0.000678599
6.31559e-07
0.000678873
6.46184e-07
0.000679116
6.61125e-07
0.000679325
6.76463e-07
0.000679496
6.92273e-07
0.000679626
7.08641e-07
0.000679711
7.25671e-07
0.000679747
7.4344e-07
0.00067973
7.62078e-07
0.000679654
7.81631e-07
0.000679516
8.02254e-07
0.000679309
8.23969e-07
0.000679029
8.47e-07
0.000678666
8.71294e-07
0.000678219
8.97288e-07
0.000677672
9.24742e-07
0.000677027
9.54028e-07
0.000676263
9.84818e-07
0.000675387
1.01784e-06
0.000674367
1.0524e-06
0.000673218
1.08953e-06
0.000671891
1.12846e-06
0.000670418
1.1706e-06
1.21437e-06
0.000668724
0.000666681
-5.85331e-09
0.000666724
-1.69926e-08
0.000666795
-2.74669e-08
0.000666895
-3.71518e-08
0.000667023
-4.59965e-08
0.000667178
-5.39545e-08
0.000667359
-6.09833e-08
0.000667567
-6.70442e-08
0.0006678
-7.21032e-08
0.000668057
-7.61293e-08
0.000668337
-7.90954e-08
0.000668639
-8.09751e-08
0.000668961
-8.17462e-08
0.000669303
-8.13855e-08
0.000669663
-7.98745e-08
0.00067004
-7.71905e-08
0.000670431
-7.3316e-08
0.000670836
-6.82252e-08
0.000671253
-6.19001e-08
0.00067168
-5.43081e-08
0.000672116
-4.54304e-08
0.000672559
-3.52264e-08
0.000673007
-2.36841e-08
0.000673458
-1.07792e-08
0.000673912
3.38584e-09
0.000674364
1.95082e-08
0.000674815
3.7119e-08
0.000675261
5.63907e-08
0.000675701
7.73678e-08
0.000676133
1.0023e-07
0.000676555
1.24974e-07
0.000676964
1.51854e-07
0.000677358
1.80824e-07
0.000677734
2.1223e-07
0.000678091
2.45955e-07
0.000678426
2.82512e-07
0.000678736
3.2171e-07
0.000679018
3.64375e-07
0.000679269
4.10059e-07
0.000679485
4.59775e-07
0.000679665
5.1267e-07
0.000679803
5.70397e-07
0.000679897
6.31595e-07
0.000679942
6.98777e-07
0.000679935
7.69587e-07
0.000679868
8.47921e-07
0.000679741
9.29815e-07
0.000679543
1.02137e-06
0.000679274
1.11602e-06
0.000678922
1.22338e-06
0.000678487
1.33263e-06
0.000677952
1.45907e-06
0.000677322
1.5849e-06
0.000676572
1.73475e-06
0.00067571
1.87944e-06
0.000674704
2.05864e-06
0.000673569
2.2242e-06
0.000672257
2.44035e-06
0.0006708
2.62769e-06
2.8908e-06
0.000669124
0.000666681
-2.06453e-08
0.000666726
-6.1429e-08
0.0006668
-1.01568e-07
0.000666903
-1.40641e-07
0.000667036
-1.78452e-07
0.000667197
-2.14818e-07
0.000667385
-2.4957e-07
0.000667601
-2.82549e-07
0.000667842
-3.13608e-07
0.000668109
-3.42614e-07
0.000668399
-3.69445e-07
0.000668712
-3.93988e-07
0.000669047
-4.16146e-07
0.000669401
-4.35822e-07
0.000669774
-4.52938e-07
0.000670164
-4.67413e-07
0.00067057
-4.79182e-07
0.00067099
-4.8817e-07
0.000671423
-4.94324e-07
0.000671866
-4.97568e-07
0.000672318
-4.97853e-07
0.000672778
-4.95093e-07
0.000673244
-4.89244e-07
0.000673713
-4.8019e-07
0.000674184
-4.67874e-07
0.000674656
-4.52113e-07
0.000675126
-4.32891e-07
0.000675592
-4.10014e-07
0.000676053
-3.8346e-07
0.000676506
-3.52945e-07
0.00067695
-3.18481e-07
0.000677381
-2.79664e-07
0.000677799
-2.36583e-07
0.0006782
-1.88673e-07
0.000678582
-1.3619e-07
0.000678943
-7.83808e-08
0.00067928
-1.59677e-08
0.000679591
5.32984e-08
0.000679873
1.28437e-07
0.000680122
2.1076e-07
0.000680336
2.99031e-07
0.00068051
3.9627e-07
0.000680642
4.99742e-07
0.000680727
6.13931e-07
0.000680762
7.34589e-07
0.000680741
8.68634e-07
0.000680662
1.00895e-06
0.000680517
1.16642e-06
0.000680303
1.32923e-06
0.000680012
1.5146e-06
0.000679642
1.70314e-06
0.000679179
1.92221e-06
0.000678623
2.14009e-06
0.000677958
2.40051e-06
0.000677186
2.65156e-06
0.000676281
2.96351e-06
0.000675254
3.25133e-06
0.000674065
3.62844e-06
0.000672738
3.95507e-06
4.41471e-06
0.000671214
0.000666682
-3.64263e-08
0.00066673
-1.08879e-07
0.000666809
-1.80711e-07
0.00066692
-2.51173e-07
0.000667061
-3.19902e-07
0.000667233
-3.86564e-07
0.000667434
-4.50848e-07
0.000667664
-5.12462e-07
0.000667921
-5.71141e-07
0.000668206
-6.26644e-07
0.000668515
-6.78754e-07
0.000668848
-7.27273e-07
0.000669204
-7.72029e-07
0.000669581
-8.12864e-07
0.000669978
-8.49644e-07
0.000670393
-8.8224e-07
0.000670824
-9.10548e-07
0.00067127
-9.34458e-07
0.00067173
-9.53887e-07
0.000672201
-9.68729e-07
0.000672682
-9.78913e-07
0.000673171
-9.84323e-07
0.000673667
-9.84892e-07
0.000674167
-9.80477e-07
0.00067467
-9.71013e-07
0.000675175
-9.56313e-07
0.000675678
-9.36321e-07
0.000676179
-9.10782e-07
0.000676675
-8.7966e-07
0.000677165
-8.42605e-07
0.000677646
-7.99619e-07
0.000678116
-7.50206e-07
0.000678574
-6.94456e-07
0.000679017
-6.31657e-07
0.000679443
-5.62048e-07
0.000679849
-4.84576e-07
0.000680233
-3.99713e-07
0.000680592
-3.05881e-07
0.000680925
-2.04211e-07
0.000681228
-9.27332e-08
0.000681501
2.65014e-08
0.000681737
1.60296e-07
0.000681934
3.02588e-07
0.000682088
4.59538e-07
0.000682197
6.25884e-07
0.000682256
8.10093e-07
0.000682261
1.00377e-06
0.000682207
1.22009e-06
0.000682091
1.44501e-06
0.000681907
1.69929e-06
0.00068165
1.95995e-06
0.000681312
2.25979e-06
0.000680891
2.56123e-06
0.000680375
2.91648e-06
0.000679762
3.26425e-06
0.000679038
3.68794e-06
0.000678202
4.08759e-06
0.000677233
4.59688e-06
0.000676136
5.05235e-06
5.66854e-06
0.000674882
0.000666684
-5.37489e-08
0.000666736
-1.60975e-07
0.000666823
-2.67597e-07
0.000666944
-3.72483e-07
0.000667099
-4.75075e-07
0.000667288
-5.74857e-07
0.000667508
-6.7135e-07
0.00066776
-7.64114e-07
0.000668042
-8.52756e-07
0.000668352
-9.36919e-07
0.000668689
-1.01629e-06
0.000669053
-1.0906e-06
0.00066944
-1.15961e-06
0.00066985
-1.2231e-06
0.000670282
-1.28091e-06
0.000670732
-1.33287e-06
0.000671201
-1.37886e-06
0.000671685
-1.41876e-06
0.000672184
-1.45246e-06
0.000672695
-1.47986e-06
0.000673217
-1.50087e-06
0.000673748
-1.51537e-06
0.000674286
-1.52329e-06
0.00067483
-1.52449e-06
0.000675378
-1.51889e-06
0.000675928
-1.50629e-06
0.000676478
-1.48663e-06
0.000677027
-1.45963e-06
0.000677573
-1.42522e-06
0.000678113
-1.38305e-06
0.000678647
-1.33307e-06
0.000679171
-1.27476e-06
0.000679685
-1.20815e-06
0.000680186
-1.1325e-06
0.000680672
-1.04796e-06
0.00068114
-9.53478e-07
0.00068159
-8.49427e-07
0.000682019
-7.34329e-07
0.000682423
-6.08931e-07
0.000682802
-4.71015e-07
0.00068315
-3.21985e-07
0.000683469
-1.58889e-07
0.000683757
1.44378e-08
0.000684008
2.09327e-07
0.000684218
4.15803e-07
0.000684385
6.42786e-07
0.000684506
8.83048e-07
0.000684577
1.14857e-06
0.000684595
1.42738e-06
0.000684556
1.73823e-06
0.000684455
2.0613e-06
0.000684289
2.42587e-06
0.00068405
2.79961e-06
0.000683738
3.22867e-06
0.000683342
3.6604e-06
0.000682862
4.1678e-06
0.000682284
4.66539e-06
0.000681612
5.26896e-06
0.000680825
5.83947e-06
6.56035e-06
0.000679933
0.000666686
-7.32523e-08
0.000666745
-2.19658e-07
0.000666843
-3.65454e-07
0.000666979
-5.09042e-07
0.000667154
-6.49612e-07
0.000667365
-7.86418e-07
0.000667613
-9.18777e-07
0.000667895
-1.04607e-06
0.00066821
-1.16777e-06
0.000668556
-1.28339e-06
0.000668932
-1.39255e-06
0.000669337
-1.49489e-06
0.000669767
-1.59014e-06
0.000670222
-1.67807e-06
0.0006707
-1.75848e-06
0.000671198
-1.83121e-06
0.000671715
-1.89615e-06
0.00067225
-1.95319e-06
0.0006728
-2.00224e-06
0.000673363
-2.04321e-06
0.000673938
-2.07602e-06
0.000674523
-2.10061e-06
0.000675117
-2.11688e-06
0.000675717
-2.12472e-06
0.000676322
-2.12406e-06
0.000676931
-2.11473e-06
0.000677541
-2.09663e-06
0.000678151
-2.06954e-06
0.000678759
-2.03332e-06
0.000679364
-1.98769e-06
0.000679963
-1.93248e-06
0.000680555
-1.8673e-06
0.000681139
-1.79199e-06
0.000681713
-1.70599e-06
0.000682274
-1.60917e-06
0.000682821
-1.50078e-06
0.000683353
-1.38073e-06
0.000683866
-1.24801e-06
0.00068436
-1.10266e-06
0.000684832
-9.43258e-07
0.00068528
-7.70152e-07
0.000685703
-5.81328e-07
0.000686095
-3.77616e-07
0.000686461
-1.56591e-07
0.000686796
8.06725e-08
0.000687096
3.42455e-07
0.000687358
6.21394e-07
0.000687582
9.24932e-07
0.000687761
1.24816e-06
0.000687898
1.60123e-06
0.000687984
1.97543e-06
0.000688023
2.38617e-06
0.000688004
2.81903e-06
0.000687935
3.29766e-06
0.000687797
3.79843e-06
0.000687607
4.3577e-06
0.000687335
4.93701e-06
0.000687012
5.59239e-06
0.00068659
6.26138e-06
7.02957e-06
0.000686121
0.000666689
-9.57676e-08
0.000666757
-2.8745e-07
0.00066687
-4.78465e-07
0.000667028
-6.66607e-07
0.000667229
-8.50718e-07
0.000667472
-1.02975e-06
0.000667756
-1.20276e-06
0.000668079
-1.36892e-06
0.000668439
-1.52754e-06
0.000668833
-1.67803e-06
0.000669261
-1.81993e-06