/*--------------------------------*- C++ -*----------------------------------*\
| =========                 |                                                 |
| \\      /  F ield         | OpenFOAM: The Open Source CFD Toolbox           |
|  \\    /   O peration     | Version:  2312                                  |
|   \\  /    A nd           | Website:  www.openfoam.com                      |
|    \\/     M anipulation  |                                                 |
\*---------------------------------------------------------------------------*/
FoamFile
{
    version     2.0;
    format      ascii;
    arch        "LSB;label=32;scalar=64";
    class       volVectorField;
    location    "149000";
    object      U;
}
// * * * * * * * * * * * * * * * * * * * * * * * * * * * * * * * * * * * * * //

dimensions      [0 1 -1 0 0 0 0];

internalField   nonuniform List<vector> 
10800
(
(0.000992484 4.94374e-06 0)
(0.000990035 1.24634e-05 0)
(0.000986862 1.74887e-05 0)
(0.00098048 2.06766e-05 0)
(0.000971053 2.27641e-05 0)
(0.000959746 2.42623e-05 0)
(0.000947625 2.54061e-05 0)
(0.000935223 2.62702e-05 0)
(0.000922685 2.68789e-05 0)
(0.000909988 2.72572e-05 0)
(0.000897087 2.74428e-05 0)
(0.000883979 2.74786e-05 0)
(0.0008707 2.74025e-05 0)
(0.000857304 2.72425e-05 0)
(0.000843845 2.70168e-05 0)
(0.00083036 2.67369e-05 0)
(0.000816874 2.64109e-05 0)
(0.000803407 2.60452e-05 0)
(0.000789974 2.56452e-05 0)
(0.00077659 2.5216e-05 0)
(0.000763271 2.4761e-05 0)
(0.000750032 2.42835e-05 0)
(0.000736887 2.37855e-05 0)
(0.000723851 2.32689e-05 0)
(0.000710937 2.27345e-05 0)
(0.000698158 2.21839e-05 0)
(0.000685527 2.16172e-05 0)
(0.000673057 2.10359e-05 0)
(0.00066076 2.04395e-05 0)
(0.000648649 1.98298e-05 0)
(0.000636737 1.92055e-05 0)
(0.000625036 1.85691e-05 0)
(0.00061356 1.79183e-05 0)
(0.00060232 1.72571e-05 0)
(0.000591331 1.65811e-05 0)
(0.000580601 1.58972e-05 0)
(0.00057015 1.51977e-05 0)
(0.00055998 1.44937e-05 0)
(0.000550117 1.37726e-05 0)
(0.000540554 1.30521e-05 0)
(0.00053133 1.23109e-05 0)
(0.000522419 1.15786e-05 0)
(0.000513887 1.08183e-05 0)
(0.000505664 1.008e-05 0)
(0.000497885 9.30008e-06 0)
(0.000490372 8.56281e-06 0)
(0.000483428 7.7591e-06 0)
(0.000476605 7.02943e-06 0)
(0.000470652 6.19271e-06 0)
(0.00046438 5.46889e-06 0)
(0.00045979 4.58919e-06 0)
(0.000453574 3.82491e-06 0)
(0.000451381 2.93621e-06 0)
(0.000443618 1.88771e-06 0)
(0.000446905 1.30318e-06 0)
(0.000432601 -1.0801e-06 0)
(0.000450569 2.33606e-07 0)
(0.000414899 -7.54834e-06 0)
(0.00047253 2.13183e-06 0)
(0.000378354 -2.44654e-05 0)
(0.00100003 5.8089e-06 0)
(0.00100172 1.5013e-05 0)
(0.00100422 2.15576e-05 0)
(0.00100704 2.61348e-05 0)
(0.00100976 2.95074e-05 0)
(0.00101215 3.22036e-05 0)
(0.00101415 3.44709e-05 0)
(0.0010158 3.63958e-05 0)
(0.00101715 3.80109e-05 0)
(0.00101823 3.93466e-05 0)
(0.00101905 4.04443e-05 0)
(0.0010196 4.13497e-05 0)
(0.00101988 4.21034e-05 0)
(0.0010199 4.27352e-05 0)
(0.00101966 4.32652e-05 0)
(0.00101918 4.37058e-05 0)
(0.00101847 4.40657e-05 0)
(0.00101755 4.43515e-05 0)
(0.00101642 4.45688e-05 0)
(0.00101509 4.4722e-05 0)
(0.00101359 4.4815e-05 0)
(0.0010119 4.48501e-05 0)
(0.00101006 4.48295e-05 0)
(0.00100805 4.4754e-05 0)
(0.00100591 4.46249e-05 0)
(0.00100362 4.4442e-05 0)
(0.00100122 4.42064e-05 0)
(0.000998675 4.39168e-05 0)
(0.000996056 4.35751e-05 0)
(0.000993298 4.31782e-05 0)
(0.000990502 4.27299e-05 0)
(0.000987561 4.22244e-05 0)
(0.000984636 4.16687e-05 0)
(0.000981539 4.10526e-05 0)
(0.000978538 4.03897e-05 0)
(0.000975309 3.96607e-05 0)
(0.000972296 3.88915e-05 0)
(0.000968945 3.80468e-05 0)
(0.000966001 3.71744e-05 0)
(0.00096252 3.62095e-05 0)
(0.000959759 3.52403e-05 0)
(0.000956102 3.4148e-05 0)
(0.000953685 3.30936e-05 0)
(0.000949745 3.18603e-05 0)
(0.000947923 3.07408e-05 0)
(0.000943478 2.93413e-05 0)
(0.000942651 2.81913e-05 0)
(0.000937283 2.65781e-05 0)
(0.00093811 2.54566e-05 0)
(0.000931056 2.35426e-05 0)
(0.000934639 2.25497e-05 0)
(0.000924527 2.01785e-05 0)
(0.000932735 1.94818e-05 0)
(0.000917129 1.63842e-05 0)
(0.000933135 1.62493e-05 0)
(0.000907744 1.20008e-05 0)
(0.000936964 1.27752e-05 0)
(0.000894314 6.87579e-06 0)
(0.000946142 8.61201e-06 0)
(0.000873651 1.41816e-06 0)
(0.000999989 1.97282e-06 0)
(0.00100077 5.79542e-06 0)
(0.00100223 9.34215e-06 0)
(0.00100421 1.25291e-05 0)
(0.00100651 1.53535e-05 0)
(0.00100893 1.78604e-05 0)
(0.00101133 2.01045e-05 0)
(0.00101368 2.21288e-05 0)
(0.00101597 2.39604e-05 0)
(0.0010182 2.56159e-05 0)
(0.00102039 2.71084e-05 0)
(0.00102253 2.84512e-05 0)
(0.00102461 2.96587e-05 0)
(0.00102662 3.07444e-05 0)
(0.00102857 3.1721e-05 0)
(0.00103044 3.25979e-05 0)
(0.00103224 3.33833e-05 0)
(0.00103398 3.40826e-05 0)
(0.00103565 3.47016e-05 0)
(0.00103726 3.52432e-05 0)
(0.00103882 3.57121e-05 0)
(0.0010403 3.61094e-05 0)
(0.00104174 3.64392e-05 0)
(0.00104311 3.67006e-05 0)
(0.00104443 3.68979e-05 0)
(0.00104568 3.70278e-05 0)
(0.00104691 3.70959e-05 0)
(0.00104804 3.70958e-05 0)
(0.00104917 3.7036e-05 0)
(0.0010502 3.69056e-05 0)
(0.00105124 3.67176e-05 0)
(0.00105216 3.6455e-05 0)
(0.00105313 3.61383e-05 0)
(0.00105393 3.57404e-05 0)
(0.00105485 3.52942e-05 0)
(0.00105552 3.47572e-05 0)
(0.00105642 3.41816e-05 0)
(0.00105695 3.35007e-05 0)
(0.00105786 3.27968e-05 0)
(0.00105823 3.19663e-05 0)
(0.00105922 3.11373e-05 0)
(0.00105937 3.01498e-05 0)
(0.00106052 2.92017e-05 0)
(0.00106039 2.80475e-05 0)
(0.00106182 2.69902e-05 0)
(0.00106128 2.56566e-05 0)
(0.0010632 2.45052e-05 0)
(0.00106203 2.29755e-05 0)
(0.00106472 2.17519e-05 0)
(0.00106261 2.00062e-05 0)
(0.0010665 1.87417e-05 0)
(0.00106293 1.67606e-05 0)
(0.00106867 1.54978e-05 0)
(0.00106284 1.32756e-05 0)
(0.00107143 1.20722e-05 0)
(0.0010621 9.65352e-06 0)
(0.00107504 8.58582e-06 0)
(0.00106033 6.15994e-06 0)
(0.00107994 5.28009e-06 0)
(0.00105706 3.33313e-06 0)
(0.00100001 1.75515e-06 0)
(0.00100046 5.2009e-06 0)
(0.00100127 8.49072e-06 0)
(0.00100238 1.15482e-05 0)
(0.00100372 1.43323e-05 0)
(0.00100522 1.684e-05 0)
(0.00100683 1.90929e-05 0)
(0.00100851 2.11206e-05 0)
(0.00101024 2.295e-05 0)
(0.001012 2.46019e-05 0)
(0.00101379 2.60918e-05 0)
(0.0010156 2.74324e-05 0)
(0.00101743 2.86359e-05 0)
(0.00101927 2.97141e-05 0)
(0.00102111 3.06788e-05 0)
(0.00102295 3.15399e-05 0)
(0.00102479 3.23066e-05 0)
(0.00102661 3.29855e-05 0)
(0.00102844 3.35831e-05 0)
(0.00103026 3.41035e-05 0)
(0.00103207 3.45514e-05 0)
(0.00103388 3.49291e-05 0)
(0.00103568 3.52403e-05 0)
(0.00103747 3.54856e-05 0)
(0.00103926 3.56684e-05 0)
(0.00104103 3.57876e-05 0)
(0.00104281 3.58464e-05 0)
(0.00104457 3.5842e-05 0)
(0.00104633 3.57783e-05 0)
(0.00104806 3.56507e-05 0)
(0.00104982 3.54641e-05 0)
(0.00105153 3.52117e-05 0)
(0.00105326 3.49002e-05 0)
(0.00105495 3.45202e-05 0)
(0.00105668 3.40809e-05 0)
(0.00105832 3.35698e-05 0)
(0.00106005 3.2999e-05 0)
(0.00106165 3.23529e-05 0)
(0.00106338 3.16467e-05 0)
(0.00106493 3.08617e-05 0)
(0.00106667 3.00156e-05 0)
(0.00106816 2.90885e-05 0)
(0.00106993 2.80979e-05 0)
(0.00107134 2.70269e-05 0)
(0.00107316 2.58865e-05 0)
(0.00107447 2.46723e-05 0)
(0.00107638 2.33756e-05 0)
(0.00107756 2.20243e-05 0)
(0.00107961 2.0563e-05 0)
(0.00108061 1.90894e-05 0)
(0.00108287 1.74525e-05 0)
(0.00108363 1.58888e-05 0)
(0.00108621 1.40618e-05 0)
(0.00108663 1.2471e-05 0)
(0.00108966 1.04355e-05 0)
(0.00108959 8.93418e-06 0)
(0.00109329 6.66252e-06 0)
(0.00109252 5.44801e-06 0)
(0.00109715 2.87321e-06 0)
(0.00109533 2.22384e-06 0)
(0.001 1.17043e-06 0)
(0.00100022 3.48498e-06 0)
(0.00100067 5.73493e-06 0)
(0.00100132 7.88841e-06 0)
(0.00100218 9.92395e-06 0)
(0.0010032 1.18311e-05 0)
(0.00100436 1.36085e-05 0)
(0.00100562 1.526e-05 0)
(0.00100696 1.67916e-05 0)
(0.00100837 1.82092e-05 0)
(0.00100982 1.95182e-05 0)
(0.00101132 2.07233e-05 0)
(0.00101285 2.18292e-05 0)
(0.00101442 2.28406e-05 0)
(0.001016 2.37625e-05 0)
(0.0010176 2.45995e-05 0)
(0.00101921 2.5356e-05 0)
(0.00102084 2.60359e-05 0)
(0.00102247 2.66425e-05 0)
(0.00102411 2.71786e-05 0)
(0.00102575 2.76464e-05 0)
(0.0010274 2.8048e-05 0)
(0.00102905 2.83849e-05 0)
(0.00103071 2.86584e-05 0)
(0.00103237 2.88693e-05 0)
(0.00103403 2.90187e-05 0)
(0.0010357 2.91062e-05 0)
(0.00103736 2.91332e-05 0)
(0.00103903 2.9098e-05 0)
(0.00104069 2.90025e-05 0)
(0.00104236 2.88435e-05 0)
(0.00104402 2.86242e-05 0)
(0.00104569 2.83388e-05 0)
(0.00104735 2.79935e-05 0)
(0.00104901 2.7578e-05 0)
(0.00105066 2.71037e-05 0)
(0.00105232 2.65534e-05 0)
(0.00105397 2.5947e-05 0)
(0.00105562 2.5256e-05 0)
(0.00105726 2.45148e-05 0)
(0.0010589 2.3676e-05 0)
(0.00106053 2.27983e-05 0)
(0.00106216 2.18029e-05 0)
(0.00106378 2.07888e-05 0)
(0.0010654 1.96264e-05 0)
(0.00106702 1.84796e-05 0)
(0.00106861 1.71364e-05 0)
(0.00107025 1.58664e-05 0)
(0.00107182 1.43247e-05 0)
(0.00107348 1.29505e-05 0)
(0.00107503 1.11855e-05 0)
(0.00107675 9.74003e-06 0)
(0.00107826 7.71486e-06 0)
(0.0010801 6.25126e-06 0)
(0.00108159 3.90762e-06 0)
(0.00108364 2.51018e-06 0)
(0.00108509 -2.41268e-07 0)
(0.00108747 -1.43649e-06 0)
(0.00108878 -4.73063e-06 0)
(0.00109149 -5.52104e-06 0)
(0.001 9.46798e-07 0)
(0.00100017 2.83302e-06 0)
(0.0010005 4.69323e-06 0)
(0.00100099 6.50836e-06 0)
(0.00100162 8.26081e-06 0)
(0.00100239 9.93658e-06 0)
(0.00100326 1.15262e-05 0)
(0.00100423 1.30248e-05 0)
(0.00100528 1.44305e-05 0)
(0.0010064 1.57436e-05 0)
(0.00100757 1.69656e-05 0)
(0.0010088 1.80982e-05 0)
(0.00101006 1.91435e-05 0)
(0.00101136 2.0104e-05 0)
(0.00101269 2.09824e-05 0)
(0.00101405 2.17815e-05 0)
(0.00101543 2.2504e-05 0)
(0.00101684 2.3153e-05 0)
(0.00101825 2.37307e-05 0)
(0.00101969 2.42396e-05 0)
(0.00102113 2.46813e-05 0)
(0.00102258 2.50581e-05 0)
(0.00102405 2.53708e-05 0)
(0.00102552 2.56215e-05 0)
(0.00102699 2.58099e-05 0)
(0.00102848 2.59383e-05 0)
(0.00102996 2.60054e-05 0)
(0.00103145 2.60137e-05 0)
(0.00103294 2.59605e-05 0)
(0.00103444 2.58493e-05 0)
(0.00103593 2.56752e-05 0)
(0.00103743 2.54438e-05 0)
(0.00103892 2.51468e-05 0)
(0.00104041 2.47932e-05 0)
(0.0010419 2.437e-05 0)
(0.00104339 2.38916e-05 0)
(0.00104486 2.33376e-05 0)
(0.00104635 2.27311e-05 0)
(0.00104781 2.20402e-05 0)
(0.00104929 2.13022e-05 0)
(0.00105074 2.0467e-05 0)
(0.00105221 1.95943e-05 0)
(0.00105364 1.86055e-05 0)
(0.00105512 1.75956e-05 0)
(0.00105652 1.64418e-05 0)
(0.00105801 1.5294e-05 0)
(0.00105938 1.39603e-05 0)
(0.00106089 1.26766e-05 0)
(0.00106223 1.11438e-05 0)
(0.0010638 9.73082e-06 0)
(0.00106509 7.97275e-06 0)
(0.00106675 6.44534e-06 0)
(0.00106798 4.42668e-06 0)
(0.00106977 2.8124e-06 0)
(0.0010709 4.8193e-07 0)
(0.00107291 -1.17796e-06 0)
(0.00107389 -3.90784e-06 0)
(0.00107623 -5.56058e-06 0)
(0.00107696 -8.83198e-06 0)
(0.00107966 -1.03944e-05 0)
(0.001 7.55277e-07 0)
(0.00100013 2.261e-06 0)
(0.00100037 3.7487e-06 0)
(0.00100072 5.20548e-06 0)
(0.00100119 6.6197e-06 0)
(0.00100177 7.98179e-06 0)
(0.00100244 9.28466e-06 0)
(0.0010032 1.05236e-05 0)
(0.00100403 1.16959e-05 0)
(0.00100493 1.28002e-05 0)
(0.00100589 1.38361e-05 0)
(0.0010069 1.48041e-05 0)
(0.00100796 1.57044e-05 0)
(0.00100906 1.6538e-05 0)
(0.0010102 1.73057e-05 0)
(0.00101136 1.80088e-05 0)
(0.00101256 1.86482e-05 0)
(0.00101378 1.92254e-05 0)
(0.00101502 1.97414e-05 0)
(0.00101628 2.01975e-05 0)
(0.00101755 2.05944e-05 0)
(0.00101884 2.09335e-05 0)
(0.00102014 2.12148e-05 0)
(0.00102145 2.14398e-05 0)
(0.00102277 2.16078e-05 0)
(0.00102409 2.17203e-05 0)
(0.00102542 2.1776e-05 0)
(0.00102675 2.17768e-05 0)
(0.00102808 2.17199e-05 0)
(0.00102942 2.16083e-05 0)
(0.00103075 2.14374e-05 0)
(0.00103208 2.12116e-05 0)
(0.00103341 2.0924e-05 0)
(0.00103473 2.05814e-05 0)
(0.00103605 2.0173e-05 0)
(0.00103736 1.97099e-05 0)
(0.00103866 1.91754e-05 0)
(0.00103997 1.85874e-05 0)
(0.00104125 1.79202e-05 0)
(0.00104254 1.72021e-05 0)
(0.00104379 1.63936e-05 0)
(0.00104506 1.55396e-05 0)
(0.00104629 1.45795e-05 0)
(0.00104755 1.35836e-05 0)
(0.00104874 1.24586e-05 0)
(0.00105 1.13147e-05 0)
(0.00105115 1.00079e-05 0)
(0.0010524 8.71033e-06 0)
(0.0010535 7.1996e-06 0)
(0.00105478 5.74399e-06 0)
(0.00105583 3.99911e-06 0)
(0.00105715 2.38322e-06 0)
(0.00105815 3.62621e-07 0)
(0.00105958 -1.41062e-06 0)
(0.00106051 -3.75961e-06 0)
(0.00106212 -5.66916e-06 0)
(0.00106293 -8.41602e-06 0)
(0.00106475 -1.04272e-05 0)
(0.00106531 -1.36898e-05 0)
(0.00106732 -1.57551e-05 0)
(0.001 6.08723e-07 0)
(0.0010001 1.82404e-06 0)
(0.00100028 3.02905e-06 0)
(0.00100056 4.21562e-06 0)
(0.00100093 5.37602e-06 0)
(0.00100139 6.50333e-06 0)
(0.00100193 7.59168e-06 0)
(0.00100254 8.63644e-06 0)
(0.00100322 9.63405e-06 0)
(0.00100396 1.0582e-05 0)
(0.00100476 1.14786e-05 0)
(0.00100562 1.23227e-05 0)
(0.00100652 1.31135e-05 0)
(0.00100746 1.38507e-05 0)
(0.00100843 1.4534e-05 0)
(0.00100944 1.51634e-05 0)
(0.00101048 1.57389e-05 0)
(0.00101155 1.62608e-05 0)
(0.00101264 1.67294e-05 0)
(0.00101375 1.7145e-05 0)
(0.00101487 1.75078e-05 0)
(0.00101601 1.78185e-05 0)
(0.00101716 1.80767e-05 0)
(0.00101833 1.82832e-05 0)
(0.0010195 1.84375e-05 0)
(0.00102068 1.85403e-05 0)
(0.00102186 1.85905e-05 0)
(0.00102304 1.85891e-05 0)
(0.00102423 1.85343e-05 0)
(0.00102541 1.84275e-05 0)
(0.00102659 1.82657e-05 0)
(0.00102777 1.80512e-05 0)
(0.00102894 1.77795e-05 0)
(0.00103011 1.74542e-05 0)
(0.00103126 1.70684e-05 0)
(0.00103242 1.66279e-05 0)
(0.00103355 1.61226e-05 0)
(0.00103468 1.55618e-05 0)
(0.00103578 1.493e-05 0)
(0.00103689 1.42424e-05 0)
(0.00103796 1.34756e-05 0)
(0.00103903 1.26535e-05 0)
(0.00104006 1.17409e-05 0)
(0.00104111 1.07754e-05 0)
(0.00104209 9.7037e-06 0)
(0.00104311 8.58455e-06 0)
(0.00104404 7.33725e-06 0)
(0.00104504 6.05303e-06 0)
(0.00104592 4.60964e-06 0)
(0.0010469 3.14785e-06 0)
(0.00104771 1.48236e-06 0)
(0.0010487 -1.7072e-07 0)
(0.00104943 -2.09388e-06 0)
(0.00105045 -3.95347e-06 0)
(0.00105109 -6.18476e-06 0)
(0.0010522 -8.27151e-06 0)
(0.00105272 -1.08798e-05 0)
(0.00105394 -1.32062e-05 0)
(0.00105421 -1.62755e-05 0)
(0.00105547 -1.88378e-05 0)
(0.001 4.93366e-07 0)
(0.00100008 1.47958e-06 0)
(0.00100023 2.45968e-06 0)
(0.00100046 3.42802e-06 0)
(0.00100076 4.37909e-06 0)
(0.00100114 5.30774e-06 0)
(0.00100158 6.20937e-06 0)
(0.00100209 7.08001e-06 0)
(0.00100266 7.91634e-06 0)
(0.00100329 8.71565e-06 0)
(0.00100397 9.47569e-06 0)
(0.0010047 1.01947e-05 0)
(0.00100547 1.08712e-05 0)
(0.00100628 1.15043e-05 0)
(0.00100713 1.2093e-05 0)
(0.00100801 1.2637e-05 0)
(0.00100892 1.31357e-05 0)
(0.00100985 1.35891e-05 0)
(0.00101081 1.39968e-05 0)
(0.00101179 1.43588e-05 0)
(0.00101279 1.4675e-05 0)
(0.0010138 1.49455e-05 0)
(0.00101482 1.517e-05 0)
(0.00101586 1.53485e-05 0)
(0.0010169 1.54808e-05 0)
(0.00101795 1.55668e-05 0)
(0.001019 1.56059e-05 0)
(0.00102005 1.55982e-05 0)
(0.00102111 1.55425e-05 0)
(0.00102216 1.54392e-05 0)
(0.0010232 1.52865e-05 0)
(0.00102424 1.5085e-05 0)
(0.00102527 1.48319e-05 0)
(0.0010263 1.45284e-05 0)
(0.00102731 1.41707e-05 0)
(0.0010283 1.37606e-05 0)
(0.00102928 1.32926e-05 0)
(0.00103025 1.27697e-05 0)
(0.00103119 1.21844e-05 0)
(0.00103212 1.15415e-05 0)
(0.00103301 1.08299e-05 0)
(0.0010339 1.00578e-05 0)
(0.00103474 9.20913e-06 0)
(0.00103557 8.29664e-06 0)
(0.00103635 7.29723e-06 0)
(0.00103714 6.23083e-06 0)
(0.00103784 5.06359e-06 0)
(0.00103857 3.8266e-06 0)
(0.0010392 2.46999e-06 0)
(0.00103988 1.04182e-06 0)
(0.00104041 -5.30696e-07 0)
(0.00104105 -2.17426e-06 0)
(0.00104149 -3.99372e-06 0)
(0.00104211 -5.8774e-06 0)
(0.00104243 -7.98391e-06 0)
(0.00104303 -1.01447e-05 0)
(0.00104319 -1.25958e-05 0)
(0.0010438 -1.50751e-05 0)
(0.00104371 -1.79351e-05 0)
(0.00104425 -2.0765e-05 0)
(0.001 3.97963e-07 0)
(0.00100007 1.19432e-06 0)
(0.0010002 1.98705e-06 0)
(0.00100039 2.77205e-06 0)
(0.00100064 3.54529e-06 0)
(0.00100096 4.30288e-06 0)
(0.00100134 5.04126e-06 0)
(0.00100177 5.75719e-06 0)
(0.00100226 6.44782e-06 0)
(0.0010028 7.11067e-06 0)
(0.00100339 7.7436e-06 0)
(0.00100402 8.34479e-06 0)
(0.00100469 8.91273e-06 0)
(0.0010054 9.44619e-06 0)
(0.00100614 9.94415e-06 0)
(0.00100692 1.04058e-05 0)
(0.00100772 1.08305e-05 0)
(0.00100855 1.12177e-05 0)
(0.0010094 1.1567e-05 0)
(0.00101028 1.1878e-05 0)
(0.00101116 1.21504e-05 0)
(0.00101207 1.23838e-05 0)
(0.00101298 1.2578e-05 0)
(0.00101391 1.27326e-05 0)
(0.00101484 1.28474e-05 0)
(0.00101578 1.29219e-05 0)
(0.00101672 1.29557e-05 0)
(0.00101766 1.29484e-05 0)
(0.0010186 1.28993e-05 0)
(0.00101953 1.28079e-05 0)
(0.00102046 1.26734e-05 0)
(0.00102138 1.24949e-05 0)
(0.00102229 1.22715e-05 0)
(0.00102318 1.20021e-05 0)
(0.00102406 1.16855e-05 0)
(0.00102492 1.13203e-05 0)
(0.00102576 1.09049e-05 0)
(0.00102658 1.04375e-05 0)
(0.00102737 9.91657e-06 0)
(0.00102814 9.3393e-06 0)
(0.00102887 8.70416e-06 0)
(0.00102958 8.00716e-06 0)
(0.00103024 7.24734e-06 0)
(0.00103088 6.41842e-06 0)
(0.00103147 5.52103e-06 0)
(0.00103203 4.54499e-06 0)
(0.00103252 3.49432e-06 0)
(0.001033 2.3524e-06 0)
(0.00103338 1.12931e-06 0)
(0.00103377 -2.01709e-07 0)
(0.00103404 -1.62069e-06 0)
(0.00103434 -3.17104e-06 0)
(0.00103446 -4.81444e-06 0)
(0.00103467 -6.62488e-06 0)
(0.00103463 -8.52935e-06 0)
(0.00103475 -1.0649e-05 0)
(0.00103451 -1.28536e-05 0)
(0.00103453 -1.53428e-05 0)
(0.001034 -1.78894e-05 0)
(0.00103384 -2.08165e-05 0)
(0.001 3.16503e-07 0)
(0.00100006 9.50624e-07 0)
(0.00100017 1.58284e-06 0)
(0.00100034 2.2101e-06 0)
(0.00100056 2.82939e-06 0)
(0.00100084 3.43779e-06 0)
(0.00100117 4.03253e-06 0)
(0.00100155 4.61106e-06 0)
(0.00100197 5.17105e-06 0)
(0.00100245 5.71042e-06 0)
(0.00100296 6.22733e-06 0)
(0.00100352 6.72013e-06 0)
(0.00100412 7.18742e-06 0)
(0.00100475 7.62797e-06 0)
(0.00100541 8.04075e-06 0)
(0.0010061 8.42483e-06 0)
(0.00100682 8.77948e-06 0)
(0.00100757 9.104e-06 0)
(0.00100833 9.39784e-06 0)
(0.00100912 9.66046e-06 0)
(0.00100992 9.89143e-06 0)
(0.00101074 1.00903e-05 0)
(0.00101156 1.02567e-05 0)
(0.0010124 1.03901e-05 0)
(0.00101324 1.04902e-05 0)
(0.00101409 1.05565e-05 0)
(0.00101493 1.05886e-05 0)
(0.00101578 1.05859e-05 0)
(0.00101662 1.05479e-05 0)
(0.00101745 1.04738e-05 0)
(0.00101828 1.03632e-05 0)
(0.0010191 1.02148e-05 0)
(0.0010199 1.00284e-05 0)
(0.00102068 9.80191e-06 0)
(0.00102145 9.53568e-06 0)
(0.00102219 9.2265e-06 0)
(0.00102291 8.87537e-06 0)
(0.0010236 8.47753e-06 0)
(0.00102426 8.03523e-06 0)
(0.00102488 7.54123e-06 0)
(0.00102547 6.99996e-06 0)
(0.00102602 6.40033e-06 0)
(0.00102652 5.7505e-06 0)
(0.00102699 5.03324e-06 0)
(0.00102739 4.26322e-06 0)
(0.00102775 3.41309e-06 0)
(0.00102804 2.50878e-06 0)
(0.00102829 1.50646e-06 0)
(0.00102844 4.50936e-07 0)
(0.00102857 -7.28329e-07 0)
(0.00102856 -1.95497e-06 0)
(0.00102855 -3.34317e-06 0)
(0.00102837 -4.76587e-06 0)
(0.0010282 -6.40686e-06 0)
(0.00102781 -8.05343e-06 0)
(0.00102746 -1.00025e-05 0)
(0.00102682 -1.19013e-05 0)
(0.00102629 -1.42303e-05 0)
(0.00102532 -1.64067e-05 0)
(0.00102451 -1.92044e-05 0)
(0.001 2.44931e-07 0)
(0.00100005 7.3643e-07 0)
(0.00100015 1.22731e-06 0)
(0.0010003 1.71532e-06 0)
(0.0010005 2.19821e-06 0)
(0.00100075 2.67378e-06 0)
(0.00100104 3.13994e-06 0)
(0.00100138 3.59474e-06 0)
(0.00100177 4.03636e-06 0)
(0.00100219 4.46312e-06 0)
(0.00100266 4.87351e-06 0)
(0.00100316 5.26618e-06 0)
(0.0010037 5.63989e-06 0)
(0.00100427 5.99357e-06 0)
(0.00100487 6.32625e-06 0)
(0.00100551 6.63709e-06 0)
(0.00100616 6.92534e-06 0)
(0.00100684 7.19033e-06 0)
(0.00100754 7.4315e-06 0)
(0.00100826 7.64827e-06 0)
(0.00100899 7.84023e-06 0)
(0.00100974 8.00684e-06 0)
(0.0010105 8.14779e-06 0)
(0.00101126 8.26253e-06 0)
(0.00101203 8.35083e-06 0)
(0.0010128 8.41204e-06 0)
(0.00101357 8.44602e-06 0)
(0.00101434 8.45191e-06 0)
(0.00101511 8.4297e-06 0)
(0.00101586 8.37821e-06 0)
(0.00101661 8.29761e-06 0)
(0.00101734 8.18621e-06 0)
(0.00101805 8.04452e-06 0)
(0.00101875 7.87005e-06 0)
(0.00101942 7.66393e-06 0)
(0.00102007 7.42239e-06 0)
(0.00102068 7.14767e-06 0)
(0.00102127 6.83398e-06 0)
(0.00102182 6.48547e-06 0)
(0.00102233 6.09316e-06 0)
(0.00102279 5.66444e-06 0)
(0.00102321 5.18525e-06 0)
(0.00102358 4.66837e-06 0)
(0.00102389 4.09181e-06 0)
(0.00102414 3.47704e-06 0)
(0.00102433 2.78961e-06 0)
(0.00102445 2.06537e-06 0)
(0.0010245 1.24948e-06 0)
(0.00102445 4.02374e-07 0)
(0.00102434 -5.64995e-07 0)
(0.00102411 -1.55088e-06 0)
(0.00102381 -2.69887e-06 0)
(0.00102336 -3.84421e-06 0)
(0.00102285 -5.21666e-06 0)
(0.00102214 -6.54202e-06 0)
(0.00102139 -8.19197e-06 0)
(0.00102038 -9.71631e-06 0)
(0.00101935 -1.1717e-05 0)
(0.00101797 -1.34531e-05 0)
(0.00101657 -1.58984e-05 0)
(0.001 1.80238e-07 0)
(0.00100005 5.42762e-07 0)
(0.00100014 9.05703e-07 0)
(0.00100028 1.26743e-06 0)
(0.00100046 1.62632e-06 0)
(0.00100069 1.98079e-06 0)
(0.00100096 2.32931e-06 0)
(0.00100127 2.67044e-06 0)
(0.00100163 3.00283e-06 0)
(0.00100202 3.32521e-06 0)
(0.00100245 3.63643e-06 0)
(0.00100291 3.93542e-06 0)
(0.00100341 4.22123e-06 0)
(0.00100394 4.49296e-06 0)
(0.0010045 4.74986e-06 0)
(0.00100509 4.99118e-06 0)
(0.0010057 5.21634e-06 0)
(0.00100633 5.42473e-06 0)
(0.00100699 5.6159e-06 0)
(0.00100766 5.78933e-06 0)
(0.00100834 5.94468e-06 0)
(0.00100904 6.08148e-06 0)
(0.00100974 6.19948e-06 0)
(0.00101046 6.29821e-06 0)
(0.00101117 6.37752e-06 0)
(0.00101189 6.43685e-06 0)
(0.00101261 6.47615e-06 0)
(0.00101332 6.49471e-06 0)
(0.00101403 6.49261e-06 0)
(0.00101473 6.46884e-06 0)
(0.00101541 6.42373e-06 0)
(0.00101608 6.3558e-06 0)
(0.00101673 6.26576e-06 0)
(0.00101736 6.15139e-06 0)
(0.00101796 6.01406e-06 0)
(0.00101853 5.85037e-06 0)
(0.00101907 5.66279e-06 0)
(0.00101958 5.44606e-06 0)
(0.00102004 5.20451e-06 0)
(0.00102047 4.92997e-06 0)
(0.00102084 4.62983e-06 0)
(0.00102116 4.29124e-06 0)
(0.00102142 3.92677e-06 0)
(0.00102162 3.51606e-06 0)
(0.00102174 3.08016e-06 0)
(0.0010218 2.58673e-06 0)
(0.00102178 2.07081e-06 0)
(0.00102167 1.48064e-06 0)
(0.00102146 8.74319e-07 0)
(0.00102117 1.69156e-07 0)
(0.00102075 -5.39597e-07 0)
(0.00102023 -1.38382e-06 0)
(0.00101956 -2.20595e-06 0)
(0.00101878 -3.22123e-06 0)
(0.00101781 -4.17197e-06 0)
(0.00101673 -5.40502e-06 0)
(0.00101541 -6.49734e-06 0)
(0.00101398 -8.01196e-06 0)
(0.00101224 -9.25099e-06 0)
(0.00101038 -1.11282e-05 0)
(0.001 1.20008e-07 0)
(0.00100004 3.62414e-07 0)
(0.00100013 6.0611e-07 0)
(0.00100026 8.5001e-07 0)
(0.00100043 1.09303e-06 0)
(0.00100065 1.33412e-06 0)
(0.00100091 1.57226e-06 0)
(0.0010012 1.80646e-06 0)
(0.00100154 2.03582e-06 0)
(0.00100191 2.25946e-06 0)
(0.00100232 2.47659e-06 0)
(0.00100276 2.68647e-06 0)
(0.00100324 2.88841e-06 0)
(0.00100374 3.0818e-06 0)
(0.00100428 3.26607e-06 0)
(0.00100484 3.44072e-06 0)
(0.00100542 3.6053e-06 0)
(0.00100602 3.7594e-06 0)
(0.00100665 3.90267e-06 0)
(0.00100729 4.03475e-06 0)
(0.00100794 4.15541e-06 0)
(0.00100861 4.26432e-06 0)
(0.00100928 4.36132e-06 0)
(0.00100996 4.44611e-06 0)
(0.00101065 4.51862e-06 0)
(0.00101133 4.57849e-06 0)
(0.00101201 4.62576e-06 0)
(0.00101269 4.65995e-06 0)
(0.00101336 4.68122e-06 0)
(0.00101402 4.68892e-06 0)
(0.00101467 4.68337e-06 0)
(0.0010153 4.66364e-06 0)
(0.00101591 4.63034e-06 0)
(0.0010165 4.58204e-06 0)
(0.00101705 4.51985e-06 0)
(0.00101758 4.44152e-06 0)
(0.00101807 4.34898e-06 0)
(0.00101853 4.23871e-06 0)
(0.00101894 4.11395e-06 0)
(0.0010193 3.96914e-06 0)
(0.00101961 3.80974e-06 0)
(0.00101986 3.62691e-06 0)
(0.00102005 3.42978e-06 0)
(0.00102018 3.20426e-06 0)
(0.00102023 2.96555e-06 0)
(0.0010202 2.69103e-06 0)
(0.00102008 2.40588e-06 0)
(0.00101987 2.07395e-06 0)
(0.00101955 1.73622e-06 0)
(0.00101913 1.33544e-06 0)
(0.00101858 9.38016e-07 0)
(0.00101791 4.51666e-07 0)
(0.00101709 -1.17357e-08 0)
(0.00101613 -6.02682e-07 0)
(0.00101498 -1.13958e-06 0)
(0.00101367 -1.86575e-06 0)
(0.00101214 -2.48166e-06 0)
(0.00101042 -3.38245e-06 0)
(0.00100844 -4.07731e-06 0)
(0.00100624 -5.20922e-06 0)
(0.001 6.21564e-08 0)
(0.00100004 1.89132e-07 0)
(0.00100013 3.18169e-07 0)
(0.00100026 4.48687e-07 0)
(0.00100042 5.80111e-07 0)
(0.00100063 7.11876e-07 0)
(0.00100088 8.43434e-07 0)
(0.00100117 9.74258e-07 0)
(0.0010015 1.10385e-06 0)
(0.00100187 1.23173e-06 0)
(0.00100227 1.35746e-06 0)
(0.0010027 1.48063e-06 0)
(0.00100317 1.60087e-06 0)
(0.00100366 1.71782e-06 0)
(0.00100418 1.83119e-06 0)
(0.00100473 1.94068e-06 0)
(0.0010053 2.04605e-06 0)
(0.00100589 2.14708e-06 0)
(0.00100651 2.24359e-06 0)
(0.00100713 2.3354e-06 0)
(0.00100778 2.42241e-06 0)
(0.00100843 2.50447e-06 0)
(0.00100909 2.58152e-06 0)
(0.00100976 2.65347e-06 0)
(0.00101043 2.72033e-06 0)
(0.0010111 2.78207e-06 0)
(0.00101177 2.83873e-06 0)
(0.00101244 2.89021e-06 0)
(0.0010131 2.93664e-06 0)
(0.00101374 2.97788e-06 0)
(0.00101437 3.01417e-06 0)
(0.00101499 3.04528e-06 0)
(0.00101558 3.07158e-06 0)
(0.00101615 3.0927e-06 0)
(0.00101669 3.10922e-06 0)
(0.0010172 3.12053e-06 0)
(0.00101767 3.12753e-06 0)
(0.00101811 3.12917e-06 0)
(0.0010185 3.12686e-06 0)
(0.00101883 3.11881e-06 0)
(0.00101912 3.10722e-06 0)
(0.00101935 3.08913e-06 0)
(0.00101951 3.06811e-06 0)
(0.0010196 3.03931e-06 0)
(0.00101961 3.00853e-06 0)
(0.00101955 2.96788e-06 0)
(0.00101939 2.92675e-06 0)
(0.00101913 2.87239e-06 0)
(0.00101876 2.82008e-06 0)
(0.00101828 2.74885e-06 0)
(0.00101768 2.68407e-06 0)
(0.00101693 2.59135e-06 0)
(0.00101604 2.51122e-06 0)
(0.00101499 2.39007e-06 0)
(0.00101375 2.29509e-06 0)
(0.00101234 2.13796e-06 0)
(0.00101071 2.02859e-06 0)
(0.00100886 1.8238e-06 -4.41084e-38)
(0.00100676 1.70167e-06 0)
(0.0010044 1.42951e-06 0)
(0.001 4.99495e-09 0)
(0.00100004 1.78939e-08 0)
(0.00100013 3.35714e-08 0)
(0.00100026 5.1928e-08 0)
(0.00100043 7.28726e-08 0)
(0.00100064 9.63208e-08 0)
(0.00100089 1.22189e-07 0)
(0.00100118 1.50396e-07 0)
(0.00100151 1.80857e-07 0)
(0.00100188 2.13491e-07 0)
(0.00100228 2.48217e-07 0)
(0.00100272 2.84967e-07 0)
(0.00100319 3.2367e-07 0)
(0.00100369 3.64272e-07 0)
(0.00100421 4.06718e-07 0)
(0.00100477 4.50976e-07 0)
(0.00100534 4.97012e-07 0)
(0.00100594 5.44824e-07 0)
(0.00100656 5.94406e-07 0)
(0.00100719 6.45792e-07 0)
(0.00100784 6.99003e-07 0)
(0.0010085 7.54125e-07 0)
(0.00100917 8.11207e-07 0)
(0.00100984 8.70385e-07 0)
(0.00101052 9.31726e-07 0)
(0.0010112 9.9538e-07 0)
(0.00101188 1.06148e-06 0)
(0.00101255 1.13034e-06 0)
(0.00101322 1.20209e-06 0)
(0.00101387 1.27715e-06 0)
(0.00101451 1.3556e-06 0)
(0.00101514 1.43804e-06 0)
(0.00101574 1.52447e-06 0)
(0.00101632 1.61573e-06 0)
(0.00101687 1.71168e-06 0)
(0.00101739 1.81348e-06 0)
(0.00101787 1.92082e-06 0)
(0.00101832 2.03548e-06 0)
(0.00101872 2.15668e-06 0)
(0.00101907 2.28689e-06 0)
(0.00101937 2.42459e-06 0)
(0.00101961 2.57337e-06 0)
(0.00101978 2.73045e-06 0)
(0.00101989 2.90123e-06 0)
(0.00101992 3.0809e-06 0)
(0.00101986 3.27774e-06 0)
(0.00101972 3.48365e-06 0)
(0.00101947 3.71148e-06 0)
(0.00101913 3.94771e-06 0)
(0.00101866 4.21258e-06 0)
(0.00101807 4.48372e-06 0)
(0.00101734 4.79326e-06 0)
(0.00101647 5.10452e-06 0)
(0.00101544 5.46914e-06 0)
(0.00101423 5.82634e-06 0)
(0.00101283 6.25923e-06 0)
(0.00101123 6.6664e-06 0)
(0.0010094 7.18306e-06 4.41084e-38)
(0.00100732 7.6424e-06 0)
(0.00100498 8.26551e-06 0)
(0.001 -5.34125e-08 0)
(0.00100005 -1.57112e-07 0)
(0.00100013 -2.57329e-07 0)
(0.00100027 -3.53664e-07 0)
(0.00100044 -4.45706e-07 0)
(0.00100066 -5.33041e-07 0)
(0.00100092 -6.15274e-07 0)
(0.00100123 -6.92029e-07 0)
(0.00100157 -7.62964e-07 0)
(0.00100195 -8.27761e-07 0)
(0.00100237 -8.86135e-07 0)
(0.00100282 -9.37813e-07 0)
(0.00100331 -9.82562e-07 0)
(0.00100382 -1.02015e-06 0)
(0.00100437 -1.05037e-06 0)
(0.00100494 -1.07303e-06 0)
(0.00100554 -1.08796e-06 0)
(0.00100616 -1.09495e-06 0)
(0.0010068 -1.09384e-06 0)
(0.00100746 -1.08441e-06 0)
(0.00100813 -1.06652e-06 0)
(0.00100882 -1.03987e-06 0)
(0.00100951 -1.00432e-06 0)
(0.00101021 -9.59503e-07 0)
(0.00101092 -9.05289e-07 0)
(0.00101163 -8.41242e-07 0)
(0.00101233 -7.67189e-07 0)
(0.00101304 -6.82432e-07 0)
(0.00101373 -5.86874e-07 0)
(0.00101442 -4.79551e-07 0)
(0.00101509 -3.60492e-07 0)
(0.00101575 -2.28341e-07 0)
(0.00101638 -8.33616e-08 0)
(0.001017 7.63775e-08 0)
(0.00101759 2.5017e-07 0)
(0.00101814 4.40797e-07 0)
(0.00101867 6.46731e-07 0)
(0.00101916 8.71989e-07 0)
(0.0010196 1.11383e-06 0)
(0.00102 1.37857e-06 0)
(0.00102035 1.66142e-06 0)
(0.00102064 1.97231e-06 0)
(0.00102087 2.30279e-06 0)
(0.00102103 2.66745e-06 0)
(0.00102112 3.0521e-06 0)
(0.00102114 3.47951e-06 0)
(0.00102106 3.92601e-06 0)
(0.00102089 4.42744e-06 0)
(0.00102063 4.94475e-06 0)
(0.00102025 5.53465e-06 0)
(0.00101975 6.13297e-06 0)
(0.00101913 6.83009e-06 0)
(0.00101837 7.52063e-06 0)
(0.00101745 8.34939e-06 0)
(0.00101638 9.14372e-06 0)
(0.00101512 1.0137e-05 0)
(0.00101367 1.10459e-05 0)
(0.00101201 1.22485e-05 0)
(0.00101011 1.32774e-05 0)
(0.00100796 1.47466e-05 0)
(0.001 -1.15033e-07 0)
(0.00100005 -3.41782e-07 0)
(0.00100014 -5.64302e-07 0)
(0.00100028 -7.8163e-07 0)
(0.00100047 -9.92795e-07 0)
(0.00100071 -1.19684e-06 0)
(0.00100099 -1.39285e-06 0)
(0.00100131 -1.57996e-06 0)
(0.00100168 -1.75739e-06 0)
(0.00100208 -1.92441e-06 0)
(0.00100253 -2.08037e-06 0)
(0.00100301 -2.22465e-06 0)
(0.00100353 -2.35674e-06 0)
(0.00100408 -2.47612e-06 0)
(0.00100466 -2.5824e-06 0)
(0.00100527 -2.67513e-06 0)
(0.0010059 -2.754e-06 0)
(0.00100656 -2.81861e-06 0)
(0.00100724 -2.86869e-06 0)
(0.00100794 -2.90387e-06 0)
(0.00100865 -2.92389e-06 0)
(0.00100938 -2.92834e-06 0)
(0.00101012 -2.91698e-06 0)
(0.00101087 -2.88928e-06 0)
(0.00101162 -2.845e-06 0)
(0.00101238 -2.78339e-06 0)
(0.00101313 -2.70427e-06 0)
(0.00101389 -2.6067e-06 0)
(0.00101464 -2.49056e-06 0)
(0.00101538 -2.35451e-06 0)
(0.00101611 -2.19861e-06 0)
(0.00101682 -2.02094e-06 0)
(0.00101752 -1.8219e-06 0)
(0.00101819 -1.59875e-06 0)
(0.00101885 -1.3525e-06 0)
(0.00101947 -1.07917e-06 0)
(0.00102006 -7.80909e-07 0)
(0.00102062 -4.5193e-07 0)
(0.00102114 -9.61159e-08 0)
(0.00102162 2.9529e-07 0)
(0.00102205 7.15415e-07 0)
(0.00102243 1.17762e-06 0)
(0.00102276 1.67005e-06 0)
(0.00102302 2.21446e-06 0)
(0.00102322 2.79059e-06 0)
(0.00102335 3.43082e-06 0)
(0.0010234 4.10181e-06 0)
(0.00102336 4.85448e-06 0)
(0.00102323 5.63359e-06 0)
(0.00102301 6.51969e-06 0)
(0.00102268 7.42223e-06 0)
(0.00102224 8.46913e-06 0)
(0.00102167 9.51225e-06 0)
(0.00102097 1.07559e-05 0)
(0.00102012 1.19581e-05 0)
(0.00101912 1.34465e-05 0)
(0.00101794 1.48254e-05 0)
(0.00101659 1.66226e-05 0)