/*--------------------------------*- C++ -*----------------------------------*\
| =========                 |                                                 |
| \\      /  F ield         | OpenFOAM: The Open Source CFD Toolbox           |
|  \\    /   O peration     | Version:  2312                                  |
|   \\  /    A nd           | Website:  www.openfoam.com                      |
|    \\/     M anipulation  |                                                 |
\*---------------------------------------------------------------------------*/
FoamFile
{
    version     2.0;
    format      ascii;
    arch        "LSB;label=32;scalar=64";
    class       surfaceScalarField;
    location    "172000";
    object      phi;
}
// * * * * * * * * * * * * * * * * * * * * * * * * * * * * * * * * * * * * * //

dimensions      [0 3 -1 0 0 0 0];

oriented        oriented;

internalField   nonuniform List<scalar> 
5250
(
0.000452822
-6.46491e-07
0.000449644
3.17768e-06
0.000443205
6.43908e-06
0.000433476
9.72924e-06
0.000420587
1.28888e-05
0.000404833
1.57548e-05
0.000386513
1.83193e-05
0.000365877
2.06367e-05
0.000343175
2.27017e-05
0.000318801
2.43734e-05
0.00029335
2.54519e-05
0.000267546
2.58036e-05
0.000242133
2.5413e-05
0.000217751
2.4382e-05
0.000194867
2.28839e-05
0.000173774
2.10928e-05
0.000154685
1.90896e-05
0.000137681
1.70034e-05
0.000122568
1.5113e-05
0.000109202
1.3366e-05
9.74395e-05
1.1763e-05
8.71139e-05
1.03256e-05
7.80495e-05
9.06446e-06
7.00886e-05
7.96092e-06
6.31013e-05
6.98722e-06
5.69786e-05
6.1227e-06
5.16236e-05
5.35501e-06
4.69308e-05
4.69277e-06
4.27869e-05
4.14397e-06
3.91327e-05
3.65414e-06
3.5875e-05
3.25778e-06
3.29176e-05
2.95733e-06
3.01914e-05
2.7262e-06
2.76749e-05
2.51655e-06
2.54045e-05
2.27034e-06
2.3476e-05
1.92857e-06
2.20264e-05
1.44961e-06
2.12044e-05
8.21968e-07
2.11757e-05
2.87006e-08
2.18785e-05
-7.028e-07
2.33852e-05
-1.50667e-06
2.57053e-05
-2.32016e-06
2.88197e-05
-3.11439e-06
3.26891e-05
-3.86943e-06
3.72577e-05
-4.56857e-06
4.24565e-05
-5.19874e-06
4.82057e-05
-5.74925e-06
5.44156e-05
-6.2099e-06
6.0991e-05
-6.57537e-06
6.78408e-05
-6.84985e-06
7.48801e-05
-7.03928e-06
8.20203e-05
-7.14014e-06
8.9164e-05
-7.14377e-06
9.62187e-05
-7.05466e-06
0.000103125
-6.90598e-06
0.000109723
-6.59868e-06
0.000115786
-6.06254e-06
0.000121076
-5.28983e-06
0.000125392
-4.31582e-06
0.000128641
-3.2492e-06
0.000130884
-2.24343e-06
0.000132344
-1.46024e-06
0.000133409
-1.06421e-06
0.000134577
-1.16876e-06
0.000136387
-1.80995e-06
0.000139324
-2.93674e-06
0.000143696
-4.3723e-06
0.000149524
-5.82771e-06
0.000156542
-7.01807e-06
0.000164172
-7.63003e-06
0.000171855
-7.68246e-06
0.000178999
-7.14482e-06
0.000185031
-6.03116e-06
0.000189571
-4.54047e-06
0.000192541
-2.96958e-06
0.000194085
-1.54419e-06
0.000194479
-3.94086e-07
0.000193808
6.70982e-07
0.000192232
1.57638e-06
0.000189945
2.2861e-06
0.000187064
2.88188e-06
0.000183439
3.62471e-06
0.000179018
4.4209e-06
0.000173791
5.22715e-06
0.000167787
6.00432e-06
0.00016105
6.73618e-06
0.000153618
7.43206e-06
0.000145505
8.11329e-06
0.000136687
8.8181e-06
9.5868e-06
0.000836428
1.65601e-06
0.000834194
5.4111e-06
0.000831411
9.22272e-06
0.00082802
1.31204e-05
0.000823794
1.71145e-05
0.000818383
2.11659e-05
0.000811533
2.51689e-05
0.000803146
2.90237e-05
0.000793174
3.26737e-05
0.000781512
3.60357e-05
0.000767959
3.90053e-05
0.000752267
4.14949e-05
0.000734238
4.34417e-05
0.000713802
4.4818e-05
0.000691069
4.56171e-05
0.000666327
4.58346e-05
0.000639923
4.54942e-05
0.000612291
4.4635e-05
0.000584082
4.33223e-05
0.000555786
4.16616e-05
0.000527808
3.97413e-05
0.000500699
3.74344e-05
0.000474911
3.48525e-05
0.000450801
3.20704e-05
0.000428635
2.91534e-05
0.000408578
2.61795e-05
0.000390707
2.32261e-05
0.000375042
2.03582e-05
0.00036156
1.76259e-05
0.000350157
1.50573e-05
0.00034075
1.26646e-05
0.00033326
1.04476e-05
0.000327587
8.39864e-06
0.000323603
6.5012e-06
0.000321172
4.70122e-06
0.000320039
3.06156e-06
0.000319955
1.53391e-06
0.000320661
1.15937e-07
0.000322066
-1.37706e-06
0.000324155
-2.79188e-06
0.000326813
-4.16436e-06
0.000329986
-5.49278e-06
0.000333637
-6.76548e-06
0.000337723
-7.95575e-06
0.000342181
-9.02599e-06
0.000346924
-9.94209e-06
0.000351851
-1.06763e-05
0.000356847
-1.12057e-05
0.000361792
-1.15204e-05
0.00036657
-1.16281e-05
0.000371071
-1.154e-05
0.000375188
-1.12575e-05
0.000378823
-1.07783e-05
0.000381869
-1.01012e-05
0.000384166
-9.20291e-06
0.000385579
-8.0116e-06
0.000386074
-6.55792e-06
0.000385678
-4.89353e-06
0.000384443
-3.08103e-06
0.000382468
-1.27437e-06
0.000379879
3.46275e-07
0.000376717
1.70144e-06
0.000373204
2.44925e-06
0.000369535
2.5e-06
0.000365934
1.7913e-06
0.000362632
3.64473e-07
0.000359411
-1.15086e-06
0.000356194
-2.61067e-06
0.000352984
-3.80777e-06
0.000350066
-4.71203e-06
0.000347273
-4.89029e-06
0.000344002
-3.87297e-06
0.000339689
-1.71839e-06
0.000334316
8.32047e-07
0.000328591
2.75558e-06
0.000323215
3.83149e-06
0.000318813
4.00873e-06
0.00031584
3.64317e-06
0.00031419
3.22717e-06
0.00031326
3.2157e-06
0.000311959
4.18248e-06
0.000309651
5.93358e-06
0.000305629
8.44238e-06
0.00029941
1.14466e-05
0.000290873
1.45408e-05
0.000280238
1.73711e-05
0.000267937
1.9733e-05
0.000254531
2.15192e-05
0.000240795
2.2554e-05
2.31106e-05
0.000989649
-2.90146e-06
0.000994072
9.88046e-07
0.000997881
5.41371e-06
0.00100126
9.73814e-06
0.00100419
1.41889e-05
0.00100651
1.88454e-05
0.00100797
2.37116e-05
0.00100826
2.8726e-05
0.00100716
3.37794e-05
0.00100444
3.87511e-05
0.000999917
4.3531e-05
0.000993387
4.80249e-05
0.000984684
5.21448e-05
0.000973687
5.58149e-05
0.000960331
5.89733e-05
0.000944597
6.1569e-05
0.000926535
6.35565e-05
0.00090628
6.48899e-05
0.000884066
6.55365e-05
0.000860267
6.54604e-05
0.000835359
6.46485e-05
0.000809642
6.31523e-05
0.000783484
6.10101e-05
0.000757281
5.82736e-05
0.000731423
5.50115e-05
0.000706277
5.13247e-05
0.000682172
4.73314e-05
0.000659387
4.31435e-05
0.000638155
3.88579e-05
0.000618651
3.45609e-05
0.000600987
3.03288e-05
0.000585209
2.62251e-05
0.000571306
2.23025e-05
0.000559204
1.86033e-05
0.000548734
1.51707e-05
0.000539817
1.19782e-05
0.000532398
8.95287e-06
0.00052643
6.08487e-06
0.000521705
3.34795e-06
0.000518196
7.16685e-07
0.000515713
-1.68095e-06
0.000514182
-3.96227e-06
0.000513531
-6.11446e-06
0.000513682
-8.10713e-06
0.000514543
-9.88687e-06
0.000516
-1.13988e-05
0.000517927
-1.26029e-05
0.000520204
-1.3483e-05
0.00052274
-1.40559e-05
0.000525477
-1.43661e-05
0.000528394
-1.44563e-05
0.000531492
-1.43557e-05
0.000534803
-1.40898e-05
0.000538386
-1.3684e-05
0.000542329
-1.31458e-05
0.000546775
-1.24579e-05
0.000551848
-1.16304e-05
0.000557697
-1.07428e-05
0.000564409
-9.79298e-06
0.000571917
-8.78204e-06
0.000580058
-7.79478e-06
0.000588678
-6.91897e-06
0.000597341
-6.21382e-06
0.000605539
-5.69772e-06
0.000612699
-5.36864e-06
0.000618184
-5.12069e-06
0.000621754
-4.72056e-06
0.000623068
-3.92472e-06
0.000621903
-2.64253e-06
0.000618054
-8.63463e-07
0.00061169
1.47368e-06
0.000603165
4.6528e-06
0.000592909
8.53663e-06
0.000581223
1.25189e-05
0.000568259
1.57189e-05
0.000554461
1.76301e-05
0.000540155
1.83147e-05
0.000525556
1.82422e-05
0.000510846
1.79374e-05
0.000496573
1.74884e-05
0.000483255
1.75005e-05
0.000470623
1.8565e-05
0.000458594
2.04715e-05
0.000447284
2.27567e-05
0.000437038
2.47871e-05
0.000428149
2.626e-05
0.000420495
2.73866e-05
0.000413443
2.85711e-05
0.000405794
3.02033e-05
3.2373e-05
0.00104498
-7.93846e-06
0.00105079
-4.82237e-06
0.00105729
-1.08669e-06
0.00106416
2.85986e-06
0.00107113
7.22859e-06
0.00107798
1.19922e-05
0.00108451
1.718e-05
0.00109046
2.27734e-05
0.00109558
2.86627e-05
0.00109966
3.4675e-05
0.00110248
4.07059e-05
0.00110385
4.66583e-05
0.00110355
5.2438e-05
0.00110141
5.79589e-05
0.00109724
6.3141e-05
0.00109092
6.78952e-05
0.00108236
7.21125e-05
0.00107156
7.5694e-05
0.0010585
7.85953e-05
0.00104314
8.08194e-05
0.00102545
8.23348e-05
0.0010055
8.31009e-05
0.000983461
8.30518e-05
0.000959614
8.21209e-05
0.000934337
8.02892e-05
0.000908074
7.75875e-05
0.00088133
7.40749e-05
0.000854612
6.98616e-05
0.000828359
6.51116e-05
0.000802939
5.99805e-05
0.000778683
5.45845e-05
0.000755862
4.90469e-05
0.000734648
4.35164e-05
0.000715133
3.81179e-05
0.000697397
3.29063e-05
0.000681483
2.78929e-05
0.000667341
2.30948e-05
0.000654884
1.85419e-05
0.000643978
1.42541e-05
0.00063446
1.02343e-05
0.000626309
6.47026e-06
0.000619398
2.94883e-06
0.000613627
-3.43986e-07
0.000608982
-3.46189e-06
0.000605295
-6.2001e-06
0.000602383
-8.48711e-06
0.000600028
-1.02473e-05
0.000598012
-1.14673e-05
0.000596192
-1.22355e-05
0.000594534
-1.27088e-05
0.00059312
-1.30415e-05
0.000592107
-1.33429e-05
0.000591694
-1.36766e-05
0.000592079
-1.40693e-05
0.000593438
-1.45045e-05
0.000595882
-1.49026e-05
0.000599426
-1.5174e-05
0.000603979
-1.52963e-05
0.000609479
-1.52925e-05
0.000615947
-1.52497e-05
0.000623393
-1.52414e-05
0.000631781
-1.53068e-05
0.000641038
-1.54706e-05
0.000651037
-1.56966e-05
0.000661581
-1.59133e-05
0.000672486
-1.60257e-05
0.000683655
-1.58896e-05
0.000695079
-1.5348e-05
0.00070671
-1.42736e-05
0.000718448
-1.26014e-05
0.000730251
-1.03292e-05
0.000742229
-7.32506e-06
0.000754232
-3.4667e-06
0.000765899
8.51624e-07
0.000776563
5.05522e-06
0.00078496
9.23308e-06
0.000789977
1.32975e-05
0.000790897
1.73223e-05
0.000787359
2.14757e-05
0.000778714
2.61332e-05
0.000764951
3.12636e-05
0.000747314
3.62016e-05
0.000726752
4.10335e-05
0.000704091
4.54178e-05
0.000680012
4.88666e-05
0.000655087
5.11851e-05
0.000629843
5.26302e-05
0.000604976
5.34379e-05
0.000581746
5.34335e-05
5.34572e-05
0.00103231
-1.68194e-05
0.00104205
-1.45637e-05
0.00105241
-1.14481e-05
0.00106273
-7.46524e-06
0.00107262
-2.66032e-06
0.00108204
2.57669e-06
0.0010909
8.31823e-06
0.00109912
1.4553e-05
0.00110658
2.12007e-05
0.00111309
2.8164e-05
0.00111849
3.53054e-05
0.00112268
4.2476e-05
0.00112558
4.95363e-05
0.00112717
5.63707e-05
0.00112742
6.28911e-05
0.00112627
6.90353e-05
0.00112364
7.47425e-05
0.00111943
7.99109e-05
0.0011136
8.44206e-05
0.00110619
8.82355e-05
0.00109718
9.13439e-05
0.00108658
9.36981e-05
0.00107436
9.52746e-05
0.00106039
9.60888e-05
0.00104455
9.61322e-05
0.00102676
9.53729e-05
0.00100702
9.38117e-05
0.000985429
9.14567e-05
0.000962278
8.82631e-05
0.000938035
8.42235e-05
0.000913132
7.94872e-05
0.000887923
7.42556e-05
0.000862825
6.86145e-05
0.000838359
6.25837e-05
0.000814993
5.62721e-05
0.000793001
4.9885e-05
0.000772493
4.36032e-05
0.000753514
3.75211e-05
0.000736082
3.16857e-05
0.000720185
2.61313e-05
0.000705799
2.08563e-05
0.000692926
1.5822e-05
0.000681531
1.10516e-05
0.000671365
6.70411e-06
0.000662111
3.05327e-06
0.000653285
3.38895e-07
0.000644556
-1.51838e-06
0.000635691
-2.6017e-06
0.000626877
-3.42196e-06
0.000618657
-4.48822e-06
0.000611552
-5.93684e-06
0.000605835
-7.62571e-06
0.000601542
-9.3835e-06
0.000598659
-1.11866e-05
0.00059715
-1.29957e-05
0.000596875
-1.46274e-05
0.00059768
-1.59788e-05
0.000599591
-1.72076e-05
0.000602639
-1.83401e-05
0.000606874
-1.94847e-05
0.000612312
-2.06794e-05
0.000618919
-2.19141e-05
0.00062667
-2.32222e-05
0.000635547
-2.45729e-05
0.000645524
-2.58909e-05
0.000656562
-2.70639e-05
0.000668622
-2.79495e-05
0.000681684
-2.84097e-05
0.000695752
-2.83411e-05
0.000710808
-2.76575e-05
0.000726724
-2.62452e-05
0.000743456
-2.40579e-05
0.000761271
-2.12817e-05
0.000780191
-1.80676e-05
0.000799772
-1.45258e-05
0.000819727
-1.07223e-05
0.000839733
-6.70885e-06
0.000859497
-2.44087e-06
0.000878375
2.59769e-06
0.000896165
8.34264e-06
0.000912932
1.44969e-05
0.000928243
2.08903e-05
0.000941304
2.79721e-05
0.000951245
3.54773e-05
0.000956914
4.31972e-05
0.000957183
5.09168e-05
0.000951364
5.84485e-05
0.000939114
6.56878e-05
0.000919885
7.2663e-05
7.91381e-05
0.00106794
-3.11272e-05
0.00108196
-2.85791e-05
0.00109566
-2.51548e-05
0.00110901
-2.08124e-05
0.00112183
-1.54759e-05
0.00113356
-9.15174e-06
0.00114386
-1.98721e-06
0.00115226
6.15444e-06
0.00115877
1.46929e-05
0.00116329
2.3642e-05
0.00116572
3.28791e-05
0.00116597
4.22223e-05
0.00116403
5.14749e-05
0.00115997
6.04288e-05
0.00115398
6.88854e-05
0.00114633
7.66848e-05
0.00113739
8.36782e-05
0.00112755
8.9753e-05
0.0011171
9.4875e-05
0.00110632
9.90156e-05
0.00109549
0.000102173
0.00108472
0.000104463
0.00107402
0.000105973
0.00106341
0.0001067
0.0010528
0.000106742
0.00104192
0.000106255
0.00103048
0.000105252
0.00101821
0.000103729
0.00100467
0.000101797
0.000989437
9.9459e-05
0.000972448
9.64764e-05
0.000954053
9.26507e-05
0.000934533
8.81349e-05
0.000913875
8.32408e-05
0.000892109
7.80384e-05
0.000869612
7.23822e-05
0.000846967
6.62476e-05
0.000824669
5.982e-05
0.000803068
5.32866e-05
0.0007825
4.66988e-05
0.000763276
4.00809e-05
0.000745438
3.36593e-05
0.000728559
2.79312e-05
0.000711884
2.33784e-05
0.000694861
2.00762e-05
0.000677514
1.76861e-05
0.000660193
1.58027e-05
0.000643508
1.40838e-05
0.000628078
1.20071e-05
0.000614562
9.02848e-06
0.000603434
5.19139e-06
0.000594713
1.09464e-06
0.000588078
-2.74798e-06
0.000583058
-6.16742e-06
0.000579074
-9.0108e-06
0.000575329
-1.08827e-05
0.000571032
-1.16823e-05
0.000565899
-1.20741e-05
0.000560329
-1.27699e-05
0.000555091
-1.42467e-05
0.000551035
-1.66233e-05
0.000548945
-1.9824e-05
0.000549343
-2.36207e-05
0.0005525
-2.77292e-05
0.000558477
-3.18689e-05
0.000567197
-3.57837e-05
0.000578501
-3.92532e-05
0.000592196
-4.21047e-05
0.000608075
-4.422e-05
0.000625947
-4.55293e-05
0.000645696
-4.59949e-05
0.000667262
-4.56235e-05
0.000690457
-4.44765e-05
0.000715051
-4.26624e-05
0.000740811
-4.02852e-05
0.00076753
-3.74412e-05
0.000795017
-3.41966e-05
0.000823127
-3.05504e-05
0.000852132
-2.64077e-05
0.000882156
-2.16816e-05
0.00091297
-1.63169e-05
0.000944089
-1.02281e-05
0.000975329
-3.26818e-06
0.00100635
4.45398e-06
0.00103629
1.32558e-05
0.00106426
2.29553e-05
0.00108922
3.34885e-05
0.0011102
4.47028e-05
0.00112654
5.63246e-05
6.78893e-05
0.00112021
-4.6647e-05
0.00113626
-4.46237e-05
0.00115253
-4.14238e-05
0.00116872
-3.70039e-05
0.00118459
-3.1344e-05
0.0011999
-2.44668e-05
0.00121434
-1.64294e-05
0.00122783
-7.33025e-06
0.00123947
3.04733e-06
0.00124858
1.45359e-05
0.00125487
2.65923e-05
0.00125802
3.90731e-05
0.00125775
5.17399e-05
0.00125384
6.43391e-05
0.0012461
7.663e-05
0.00123449
8.82887e-05
0.00121925
9.89201e-05
0.00120073
0.000108269
0.00117944
0.000116171
0.00115601
0.000122441
0.00113119
0.000126996
0.00110585
0.000129801
0.00108109
0.000130739
0.00105775
0.000130042
0.00103639
0.000128099
0.00101755
0.000125096
0.00100133
0.000121466
0.000987264
0.0001178
0.000974838
0.000114223
0.000963599
0.000110699
0.0009526
0.000107475
0.000940629
0.000104622
0.000927108
0.000101656
0.000912316
9.80323e-05
0.000896606
9.37484e-05
0.000879829
8.91596e-05
0.000861767
8.43095e-05
0.000842696
7.88906e-05
0.000823072
7.29109e-05
0.000802883
6.68879e-05
0.000781737
6.12268e-05
0.000759469
5.59271e-05
0.000736342
5.10587e-05
0.000712714
4.70057e-05
0.000688837
4.39536e-05
0.000665091
4.14316e-05
0.000642277
3.86173e-05
0.000621694
3.46665e-05
0.000605132
2.85687e-05
0.000594123
2.00381e-05
0.000588072
1.12425e-05
0.00058312
6.04616e-06
0.000574457
5.91555e-06
0.000559354
8.93501e-06
0.000538067
1.22765e-05
0.000513009
1.41754e-05
0.000487267
1.40597e-05
0.000463327
1.18651e-05
0.000443006
7.55139e-06
0.000427703
1.05642e-06
0.000417554
-6.47398e-06
0.000412771
-1.50417e-05
0.000413149
-2.39983e-05
0.00041825
-3.28301e-05
0.000427501
-4.11198e-05
0.000440271
-4.85543e-05
0.000455937
-5.49191e-05
0.000473918
-6.00854e-05
0.000493698
-6.40002e-05
0.000514851
-6.6682e-05
0.000537063
-6.82076e-05
0.000560144
-6.87042e-05
0.000584004
-6.83362e-05
0.000608644
-6.73025e-05
0.000634166
-6.58068e-05
0.000660775
-6.40509e-05
0.000688736
-6.21573e-05
0.000718374
-6.01883e-05
0.000750017
-5.80507e-05
0.000783994
-5.56589e-05
0.000820478
-5.28006e-05
0.000859517
-4.92675e-05
0.000900926
-4.46766e-05
0.000944169
-3.87893e-05
0.000988761
-3.1336e-05
0.00103391
-2.21915e-05
0.00107868
-1.12822e-05
0.00112229
1.08765e-06
0.00116388
1.4737e-05
2.95418e-05
0.00103976
-6.08645e-05
0.00105654
-6.14018e-05
0.00107537
-6.02549e-05
0.00109574
-5.73744e-05
0.00111718
-5.27858e-05
0.00113924
-4.65276e-05
0.00116142
-3.86122e-05
0.00118315
-2.90601e-05
0.0012042
-1.79962e-05
0.00122435
-5.6126e-06
0.00124247
8.46447e-06
0.00125805
2.34976e-05
0.00127059
3.92014e-05
0.00127958
5.5343e-05
0.00128459
7.16241e-05
0.00128523
8.76465e-05
0.00128102
0.00010313
0.00127151
0.000117781
0.00125658
0.000131102
0.00123622
0.000142803
0.00121059
0.000152619
0.00118051
0.000159889
0.00114687
0.000164375
0.00111062
0.000166291
0.00107342
0.000165296
0.00103708
0.000161444
0.00100283
0.000155708
0.000972186
0.000148447
0.000946429
0.00013998
0.000925385
0.000131742
0.000908122
0.000124738
0.000894056
0.000118688
0.000882355
0.000113357
0.000871416
0.000108971
0.000859742
0.000105423
0.00084673
0.000102171
0.000832168
9.88718e-05
0.000815515
9.55432e-05
0.000796317
9.21095e-05
0.000775072
8.81326e-05
0.000752841
8.34575e-05
0.000729711
7.90574e-05
0.000704444
7.63263e-05
0.00067651
7.49391e-05
0.000648364
7.21e-05
0.000624923
6.48721e-05
0.000610061
5.348e-05
0.000602993
4.17337e-05
0.000597721
3.38411e-05
0.000586482
3.1277e-05
0.000564489
3.32353e-05
0.000531587
3.89488e-05
0.00049078
4.67225e-05
0.000446509
5.32056e-05
0.000403301
5.5485e-05
0.000365288
5.21875e-05
0.000335461
4.38871e-05
0.000315262
3.20638e-05
0.000304663
1.81509e-05
0.000302523
3.1964e-06
0.000307396
-1.13475e-05
0.000318076
-2.57208e-05
0.000333364
-3.92864e-05
0.000352192
-5.1658e-05
0.000373618
-6.25459e-05
0.000396811
-7.17472e-05
0.000421036
-7.91443e-05
0.000445666
-8.47156e-05
0.000470195
-8.85287e-05
0.000494232
-9.07197e-05
0.000517488
-9.14636e-05
0.00053975
-9.09659e-05
0.000560903
-8.94887e-05
0.000580984
-8.73843e-05
0.000600262
-8.50845e-05
0.000619247
-8.30359e-05
0.000638685
-8.15954e-05
0.000659452
-8.09553e-05
0.000682501
-8.10993e-05
0.000708663
-8.18212e-05
0.000738592
-8.273e-05
0.00077262
-8.32946e-05
0.000810839
-8.28958e-05
0.000852988
-8.09389e-05
0.000898578
-7.69259e-05
0.00094691
-7.05237e-05
0.000997218
-6.15895e-05
0.00104848
-5.01773e-05
0.00109972
-3.65003e-05
-2.08306e-05
0.000820417
-7.73024e-05
0.000840813
-8.17981e-05
0.000864752
-8.41935e-05
0.000891736
-8.43586e-05
0.0009212
-8.22501e-05
0.000952504
-7.78313e-05
0.000984945
-7.10534e-05
0.00101781
-6.19247e-05
0.00105035
-5.05321e-05
0.00108178
-3.70491e-05
0.00111194
-2.16956e-05
0.00114028
-4.84164e-06
0.00116621
1.32776e-05
0.00118926
3.22913e-05
0.00120901
5.18727e-05
0.00122492
7.17383e-05
0.00123644
9.16042e-05
0.00124322
0.000111
0.00124474
0.000129586
0.00124041
0.000147136
0.00123007
0.000162955
0.00121344
0.000176514
0.00119003
0.000187787
0.00116039
0.000195932
0.00112551
0.000200183
0.00108585
0.000201104
0.00104321
0.000198342
0.00100053
0.000191124
0.000959377
0.000181137
0.000921101
0.000170018
0.000888435
0.000157404
0.000862622
0.000144501
0.000841665
0.000134314
0.00082298
0.000127657
0.000805469
0.000122934
0.000788676
0.000118964
0.000771847
0.000115702
0.000754369
0.000113021
0.000736162
0.000110316
0.000717003
0.000107292
0.000695995
0.000104466
0.000672623
0.000102429
0.000648499
0.000100451
0.00062744
9.59982e-05
0.000613016
8.65238e-05
0.000605079
7.28086e-05
0.000598243
6.03164e-05
0.000584214
5.57632e-05
0.000556338
6.17171e-05
0.000512773
7.48421e-05
0.000457685
8.83227e-05
0.000400256
9.63782e-05
0.000349914
9.70645e-05
0.00031197
9.11494e-05
0.000287439
8.00154e-05
0.000274691
6.49353e-05
0.000271425
4.7154e-05
0.00027567
2.78181e-05
0.00028591
7.91102e-06
0.000300985
-1.18782e-05
0.000320525
-3.08873e-05
0.000343521
-4.87169e-05
0.000369242
-6.50076e-05
0.00039704
-7.94563e-05
0.000426304
-9.18095e-05
0.000456424
-0.000101867
0.000486777
-0.000109498
0.000516745
-0.000114684
0.000545762
-0.000117545
0.000573354
-0.000118313
0.000599125
-0.000117235
0.000622652
-0.000114492
0.000643413
-0.00011025
0.000660857
-0.000104828
0.000674669
-9.88971e-05
0.000685093
-9.34598e-05
0.000693085
-8.95872e-05
0.000700187
-8.80577e-05
0.000708223
-8.91348e-05
0.000718954
-9.2552e-05
0.000733838
-9.76145e-05
0.000753876
-0.000103333
0.000779541
-0.00010856
0.000810767
-0.000112165
0.00084704
-0.000113199
0.000887541
-0.000111025
0.00093133
-0.000105378
0.000977472
-9.63191e-05
0.00102511
-8.41381e-05
-6.92467e-05
0.000558769
-0.000101195
0.000587238
-0.000110266
0.000619857
-0.000116813
0.000656013
-0.000120515
0.000694907
-0.000121144
0.000735669
-0.000118594
0.000777467
-0.000112851
0.000819535
-0.000103993
0.000861173
-9.21704e-05
0.000901756
-7.7632e-05
0.000940791
-6.07307e-05
0.000977795
-4.18455e-05
0.0010125
-2.1431e-05
0.00104455
2.41776e-07
0.00107357
2.28549e-05
0.00109939
4.592e-05
0.00112186
6.91318e-05
0.00114064
9.22179e-05
0.00115521
0.00011502
0.00116525
0.000137095
0.00117025
0.000157955
0.00116925
0.000177516
0.00116194
0.000195099
0.00114825
0.000209619
0.00112724
0.000221187
0.00109903
0.000229323
0.00106511
0.000232253
0.00102566
0.000230579
0.000981307
0.00022549
0.000936141
0.000215185
0.0008934
0.000200145
0.000852702
0.000185199
0.000814652
0.000172364
0.000782353
0.000159956
0.000756891
0.000148395
0.000735982
0.000139873
0.0007174
0.000134284
0.000700426
0.000129995
0.000683747
0.000126995
0.000664776
0.000126262
0.000642671
0.000126571
0.000621081
0.000124019
0.000606089
0.000115443
0.000600274
0.000101813
0.000598364
8.84345e-05
0.000589045
8.21272e-05
0.000562386
8.69757e-05
0.000516903
0.000101246
0.000460256
0.000118364
0.000403761
0.000131338
0.000355894
0.000136189
0.000319976
0.000132297
0.000295968
0.000121072
0.000282583
0.000104534
0.000278145
8.4454e-05
0.00028086
6.22199e-05
0.000289143
3.88711e-05
0.000301679
1.52816e-05
0.00031795
-8.36005e-06
0.000337354
-3.12817e-05
0.000359529
-5.30624e-05
0.000384178
-7.33657e-05
0.000411022
-9.18521e-05
0.000439777
-0.000108211
0.000470133
-0.000122165
0.000501719
-0.000133453
0.000534075
-0.000141854
0.000566616
-0.000147225
0.000598728
-0.000149657
0.000629977
-0.000149561
0.000660216
-0.000147474
0.000689394
-0.00014367
0.000717098
-0.000137954
0.000742201
-0.000129931
0.000762984
-0.00011968
0.00077782
-0.000108295
0.000786048
-9.78155e-05
0.00078849
-9.05002e-05
0.000787324
-8.79683e-05
0.000785464
-9.06919e-05
0.000785831
-9.79821e-05
0.00079077
-0.000108272
0.000801725
-0.000119515
0.000819181
-0.000129622
0.000842808
-0.000136825
0.000871742
-0.000139958
0.000904874
-0.00013851
0.000941096
-0.000132541
0.000979444
-0.000122486
-0.000108948
0.000298182
-0.000131903
0.000333984
-0.000146069
0.000374218
-0.000157047
0.000418244
-0.000164541
0.000465333
-0.000168233
0.000514641
-0.000167901
0.000565243
-0.000163453
0.000616223
-0.000154973
0.000666732
-0.00014268
0.000715992
-0.000126892
0.000763297
-0.000108036
0.000808103
-8.66522e-05
0.000849991
-6.33189e-05
0.000888801
-3.85675e-05
0.000924585
-1.2929e-05
0.000956754
1.37502e-05
0.000985441
4.04455e-05
0.00101062
6.70394e-05
0.00103237
9.32739e-05
0.00105058
0.000118884
0.00106471
0.000143826
0.00107445
0.000167772
0.0010796
0.000189946
0.001079
0.000210219
0.00107188
0.000228314
0.00105872
0.000242483
0.00103873
0.00025224
0.00101085
0.000258456
0.000977288
0.000259055
0.000939996
0.000252476
0.000897917
0.000242224
0.000853117
0.000229999
0.00081229
0.00021319
0.000778711
0.000193535
0.000749848
0.000177258
0.000723506
0.000166214
0.000699987
0.000157804
0.000678328
0.000151654
0.000655763
0.00014956
0.000632209
0.000149816
0.000612347
0.000146433
0.000601072
0.000135294
0.000597159
0.000119355
0.000592002
0.00010697
0.000574815
0.000105622
0.000540095
0.000116846
0.000491333
0.000135739
0.000438032
0.000154546
0.00038952
0.000166876
0.000351168
0.000169689
0.000324312
0.000163045
0.000307831
0.000148778
0.000299715
0.000129188
0.00029799
0.00010626
0.000301026
8.14182e-05
0.00030772
5.55253e-05
0.000317528
2.90634e-05
0.000330368
2.44174e-06
0.000345219
-2.32111e-05
0.000362503
-4.85661e-05
0.000382294
-7.28532e-05
0.000404529
-9.56009e-05
0.000429023
-0.000116346
0.000455491
-0.000134679
0.000483617
-0.000150292
0.000513111
-0.000162948
0.00054362
-0.000172362
0.000574552
-0.000178158
0.000605033
-0.000180138
0.000634232
-0.00017876
0.000661975
-0.000175217
0.000689015
-0.00017071
0.000716486
-0.000165425
0.000744799
-0.000158244
0.000772794
-0.000147675
0.00079787
-0.000133372
0.000817112
-0.000117057
0.000828716
-0.000102103
0.000832867
-9.21198e-05
0.000831684
-8.95086e-05
0.000828422
-9.47208e-05
0.000826455
-0.000106304
0.000828435
-0.000121496
0.000835866
-0.000137053
0.000849105
-0.000150064
0.000867641
-0.000158495
0.000890512
-0.000161381
0.000916652
-0.000158682
0.000945116
-0.00015095
-0.000139018
5.16613e-05
-0.000166276
9.04976e-05
-0.000184905
0.00013358
-0.00020013
0.000180667
-0.000211628
0.000231352
-0.000218918
0.000285121
-0.000221669
0.000341232
-0.000219564
0.000398777
-0.000212518
0.000456725
-0.000200628
0.00051405
-0.000184216
0.000569803
-0.000163789
0.000623163
-0.000140012
0.000673471
-0.000113626
0.000720253
-8.53499e-05
0.000763189
-5.58652e-05
0.000802673
-2.57333e-05
0.000838148
4.97018e-06
0.000869608
3.55792e-05
0.000897283
6.55986e-05
0.00092122
9.49479e-05
0.000941558
0.000123488
0.000958446
0.000150883
0.00097139
0.000177003
0.000979863
0.000201746
0.000984061
0.000224116
0.000983255
0.000243289
0.000975978
0.000259516
0.00096296
0.000271474
0.000945038
0.000276977
0.000920201
0.000277313
0.0008889
0.000273525
0.000856462
0.000262437
0.00082506
0.000244593
0.000791417
0.000227178
0.000755092
0.000213583
0.000720646
0.00020066
0.000690549
0.000187901
0.000662823
0.00017938
0.000636865
0.000175518
0.000616679
0.000170002
0.000605882
0.000157231
0.000601299
0.000139878
0.000593371
0.000127283
0.000572866
0.000127474
0.000537225
0.000141264
0.000491486
0.000162585
0.000444244
0.00018298
0.000402879
0.000195911
0.000371242
0.000198514
0.000349809
0.000191122
0.00033705
0.000175804
0.000330786
0.000155041
0.000329103
0.000130872
0.000330727
0.000104635
0.000335088
7.70573e-05
0.000342096
4.85174e-05
0.000351845
1.93141e-05
0.000363887
-9.59996e-06
0.000378954
-3.82776e-05
0.000396783
-6.63954e-05
0.000417242
-9.33129e-05
0.000440084
-0.000118442
0.00046494
-0.000141202
0.000491305
-0.000161043
0.000518576
-0.000177563
0.00054624
-0.000190612
0.000574051
-0.000200172
0.000601841
-0.000205948
0.000628955
-0.000207252
0.00065396
-0.000203765
0.000675386
-0.000196642
0.000693093
-0.000188418
0.000708864
-0.000181195
0.000725383
-0.000174763
0.000744353
-0.000166645
0.000765255
-0.000154274
0.000785599
-0.000137401
0.000802387
-0.000118891
0.000813677
-0.000103411
0.000819398
-9.52288e-05
0.000821174
-9.64971e-05
0.000821537
-0.000106667
0.000822996
-0.000122954
0.000827372
-0.000141429
0.000835561
-0.000158253
0.000847637
-0.000170572
0.000863147
-0.00017689
0.000881411
-0.000176946
0.000901784
-0.000171323
-0.000160986
-0.000115598
-0.000198123
-8.10269e-05
-0.000219476
-4.32495e-05
-0.000237907
-2.00989e-06
-0.000252867
4.31272e-05
-0.000264055
9.20856e-05
-0.000270628
0.000144661
-0.00027214
0.000200325
-0.000268182
0.000258189
-0.000258492
0.000317152
-0.00024318
0.000376039
-0.000222676
0.000433744
-0.000197717
0.000489311
-0.000169193
0.000542032
-0.000138071
0.000591367
-0.0001052
0.000636983
-7.13491e-05
0.000678999
-3.70459e-05
0.000717443
-2.8648e-06
0.000751656
3.13857e-05
0.000781961
6.46431e-05
0.000808525
9.69241e-05
0.000831313
0.000128095
0.000850278
0.000158038
0.000865679
0.000186345
0.000877304
0.000212491
0.000884302
0.000236291
0.000886792
0.000257026
0.000885083
0.000273183
0.000877435
0.000284624
0.000863133
0.000291616
0.000844918
0.00029174
0.000823195
0.00028416
0.000794211
0.000273577
0.000758719
0.00026267
0.000724454
0.000247848
0.000696522
0.000228592
0.000672503
0.00021192
0.000649479
0.000202403
0.000630106
0.000194891
0.000618502
0.000181605
0.000612765
0.000162968
0.000604464
0.000148179
0.00058525
0.000146497
0.000552962
0.000159762
0.000512168
0.000182057
0.000470423
0.000204331
0.000434174
0.000219229
0.000406755
0.000223331
0.000388475
0.000216793
0.000377816
0.000201782
0.000372708
0.000180912
0.000371449
0.000156301
0.000373065
0.000129256
0.000377264
0.000100436
0.000384165
7.01557e-05
0.000393913
3.877e-05
0.000406608
6.61844e-06
0.000421971
-2.49626e-05
0.000440094
-5.64002e-05
0.000460422
-8.67239e-05
0.000482448
-0.000115339
0.000505759
-0.000141754
0.000530077
-0.000165519
0.000555157
-0.000186124
0.000580561
-0.000202967
0.000605563
-0.000215614
0.000629534
-0.000224143
0.000652515
-0.000228929
0.000674989
-0.000229727
0.000696657
-0.000225433
0.000715643
-0.000215628
0.000729601
-0.000202376
0.000737922
-0.000189516
0.0007427
-0.000179541
0.000747396
-0.000171341
0.000754457
-0.000161335
0.000763954
-0.000146899
0.000774052
-0.000128989
0.000782533
-0.000111892
0.000788108
-0.000100803
0.000790874
-9.92632e-05
0.000792
-0.000107793
0.000793096
-0.00012405
0.000795578
-0.000143911
0.000800364
-0.000163038
0.000807773
-0.000177981
0.000817688
-0.000186805
0.000829772
-0.000189029
0.000843654
-0.000185206
-0.000176346
-0.000133806
-0.000222463
-0.000110093
-0.000243189
-8.64701e-05
-0.00026153
-6.18956e-05
-0.000277442
-3.51715e-05
-0.00029078
-4.89193e-06
-0.000300907
3.00835e-05
-0.000307115
7.0214e-05
-0.000308312
0.000115378
-0.000303656
0.00016472
-0.000292521
0.000216933
-0.000274888
0.000270522
-0.000251306
0.000324103
-0.000222775
0.000376509
-0.000190478
0.000426913
-0.000155604
0.000474698
-0.000119135
0.000519643
-8.19909e-05
0.000561426
-4.46478e-05
0.000600445
-7.63306e-06
0.000636057
2.90308e-05
0.000668261
6.472e-05
0.000696919
9.94367e-05
0.000722004
0.000132953
0.00074339
0.000164959
0.00076076
0.00019512
0.000774169
0.000222883
0.000783845
0.00024735
0.000789025
0.000268003
0.000789085
0.000284565
0.000785236
0.000295464
0.000777622
0.000299355
0.000763673
0.000298108
0.000744042
0.000293208
0.000725089
0.000281623
0.000710594
0.000262342
0.000696513
0.000242673
0.000678224
0.00023021
0.000658339
0.000222288
0.000643348
0.000209883
0.000634637
0.000190317
0.000625966
0.000171638
0.000609365
0.000164781
0.000581718
0.000174143
0.000546212