/*--------------------------------*- C++ -*----------------------------------*\
| =========                 |                                                 |
| \\      /  F ield         | OpenFOAM: The Open Source CFD Toolbox           |
|  \\    /   O peration     | Version:  2312                                  |
|   \\  /    A nd           | Website:  www.openfoam.com                      |
|    \\/     M anipulation  |                                                 |
\*---------------------------------------------------------------------------*/
FoamFile
{
    version     2.0;
    format      ascii;
    arch        "LSB;label=32;scalar=64";
    class       volVectorField;
    location    "172000";
    object      U;
}
// * * * * * * * * * * * * * * * * * * * * * * * * * * * * * * * * * * * * * //

dimensions      [0 1 -1 0 0 0 0];

internalField   nonuniform List<vector> 
2685
(
(0.00067857 -2.40748e-05 0)
(0.000691282 -1.09491e-05 0)
(0.000675862 -1.08169e-06 0)
(0.00065782 8.47576e-06 0)
(0.000639547 1.74654e-05 0)
(0.000619239 2.5286e-05 0)
(0.000594803 3.17833e-05 0)
(0.000565691 3.69944e-05 0)
(0.000532558 4.07627e-05 0)
(0.000496576 4.25622e-05 0)
(0.000458803 4.17144e-05 0)
(0.000420119 3.79066e-05 0)
(0.00038152 3.14989e-05 0)
(0.000344053 2.34246e-05 0)
(0.000308565 1.48864e-05 0)
(0.000275609 6.99592e-06 0)
(0.000245596 4.71593e-07 0)
(0.000218626 -4.43551e-06 0)
(0.000194613 -7.68167e-06 0)
(0.000173335 -9.29819e-06 0)
(0.000154561 -9.54824e-06 0)
(0.000138054 -8.81878e-06 0)
(0.00012356 -7.43613e-06 0)
(0.000110833 -5.68189e-06 0)
(9.96603e-05 -3.8018e-06 0)
(8.98643e-05 -1.9732e-06 0)
(8.12923e-05 -2.89466e-07 0)
(7.37897e-05 1.23748e-06 0)
(6.72004e-05 2.67025e-06 0)
(6.13893e-05 4.11639e-06 0)
(5.62213e-05 5.64237e-06 0)
(5.1547e-05 7.23464e-06 0)
(4.7249e-05 8.76378e-06 0)
(4.3269e-05 9.99327e-06 0)
(3.96243e-05 1.06476e-05 0)
(3.64127e-05 1.05296e-05 0)
(3.38276e-05 9.57368e-06 0)
(3.21292e-05 7.82544e-06 0)
(3.15067e-05 5.38015e-06 0)
(3.20047e-05 2.4286e-06 0)
(3.36929e-05 -6.97309e-07 0)
(3.6587e-05 -3.75485e-06 0)
(4.06906e-05 -6.6456e-06 0)
(4.59603e-05 -9.35167e-06 0)
(5.23232e-05 -1.1879e-05 0)
(5.96849e-05 -1.42394e-05 0)
(6.79323e-05 -1.64495e-05 0)
(7.69363e-05 -1.85295e-05 0)
(8.65583e-05 -2.04986e-05 0)
(9.66601e-05 -2.23719e-05 0)
(0.000107109 -2.41556e-05 0)
(0.000117774 -2.58429e-05 0)
(0.000128515 -2.74095e-05 0)
(0.000139195 -2.88094e-05 0)
(0.000149696 -2.99725e-05 0)
(0.000159837 -3.0834e-05 0)
(0.000169339 -3.13195e-05 0)
(0.000177847 -3.13341e-05 0)
(0.000185026 -3.07729e-05 0)
(0.000190651 -2.95429e-05 0)
(0.000194701 -2.75808e-05 0)
(0.0001974 -2.48909e-05 0)
(0.000199224 -2.15991e-05 0)
(0.000200849 -1.78833e-05 0)
(0.000203059 -1.39646e-05 0)
(0.000206632 -1.00274e-05 0)
(0.000212167 -6.15291e-06 0)
(0.000219899 -2.47144e-06 0)
(0.000229626 8.8325e-07 0)
(0.000240701 3.77947e-06 0)
(0.000252274 6.19761e-06 0)
(0.000263466 8.05843e-06 0)
(0.000273403 9.09255e-06 0)
(0.000281359 8.93231e-06 0)
(0.000286983 7.34326e-06 0)
(0.000290335 4.45666e-06 0)
(0.000291747 6.81527e-07 0)
(0.000291495 -3.38115e-06 0)
(0.000289771 -6.95303e-06 0)
(0.000286841 -9.32895e-06 0)
(0.000282942 -1.00828e-05 0)
(0.000278046 -9.18268e-06 0)
(0.000271991 -6.73028e-06 0)
(0.000264727 -3.02993e-06 0)
(0.000256274 1.44968e-06 0)
(0.000246688 6.1759e-06 0)
(0.000236031 1.06427e-05 0)
(0.00022434 1.44332e-05 0)
(0.000211601 1.72717e-05 0)
(0.000197746 1.91438e-05 0)
(0.00125248 1.81512e-05 0)
(0.00124669 2.95008e-05 0)
(0.00124504 4.05259e-05 0)
(0.0012433 5.20475e-05 0)
(0.00123937 6.36946e-05 0)
(0.00123274 7.5044e-05 0)
(0.00122339 8.59122e-05 0)
(0.00121148 9.62146e-05 0)
(0.00119721 0.000105816 0)
(0.00118074 0.000114442 0)
(0.00116193 0.000121733 0)
(0.00114035 0.000127335 0)
(0.00111545 0.000130933 0)
(0.0010869 0.00013234 0)
(0.00105457 0.000131505 0)
(0.00101883 0.000128445 0)
(0.000980468 0.000123375 0)
(0.000939806 0.000116608 0)
(0.000897561 0.000108408 0)
(0.0008549 9.90295e-05 0)
(0.000812518 8.89296e-05 0)
(0.000771002 7.87757e-05 0)
(0.000731127 6.9007e-05 0)
(0.000693588 5.97968e-05 0)
(0.000658841 5.12404e-05 0)
(0.000627178 4.34119e-05 0)
(0.000598763 3.63332e-05 0)
(0.000573648 2.99752e-05 0)
(0.000551847 2.43174e-05 0)
(0.000533234 1.93652e-05 0)
(0.00051763 1.50933e-05 0)
(0.00050491 1.14472e-05 0)
(0.000494948 8.34712e-06 0)
(0.000487627 5.70174e-06 0)
(0.000482794 3.40699e-06 0)
(0.000480219 1.28536e-06 0)
(0.000479438 -8.42832e-07 0)
(0.000480079 -3.04933e-06 0)
(0.000481897 -5.29833e-06 0)
(0.000484585 -7.63321e-06 0)
(0.000488157 -1.00433e-05 0)
(0.000492554 -1.25056e-05 0)
(0.000497711 -1.49606e-05 0)
(0.000503552 -1.73062e-05 0)
(0.000509987 -1.94334e-05 0)
(0.000516914 -2.12507e-05 0)
(0.000524202 -2.26756e-05 0)
(0.000531681 -2.36225e-05 0)
(0.000539173 -2.40367e-05 0)
(0.000546505 -2.39295e-05 0)
(0.000553506 -2.33292e-05 0)
(0.000560008 -2.22104e-05 0)
(0.000565858 -2.05221e-05 0)
(0.000570922 -1.82552e-05 0)
(0.000574981 -1.54105e-05 0)
(0.000577749 -1.19059e-05 0)
(0.000579111 -7.53679e-06 0)
(0.000579083 -2.21163e-06 0)
(0.000577743 3.74821e-06 0)
(0.000575241 9.5402e-06 0)
(0.000571733 1.41098e-05 0)
(0.000567387 1.64204e-05 0)
(0.00056237 1.5644e-05 0)
(0.00055701 1.13567e-05 0)
(0.000551648 3.54728e-06 0)
(0.00054662 -7.40413e-06 0)
(0.000541858 -2.0385e-05 0)
(0.000537091 -3.35328e-05 0)
(0.000532196 -4.5019e-05 0)
(0.000527517 -5.3374e-05 0)
(0.000523192 -5.74295e-05 0)
(0.000518626 -5.64616e-05 0)
(0.000512863 -5.05957e-05 0)
(0.000505504 -4.0833e-05 0)
(0.000497069 -2.87779e-05 0)
(0.000488685 -1.60969e-05 0)
(0.00048134 -4.02871e-06 0)
(0.00047584 6.71877e-06 0)
(0.000472492 1.59359e-05 0)
(0.000470726 2.36095e-05 0)
(0.00046919 2.98036e-05 0)
(0.000466585 3.46229e-05 0)
(0.000461887 3.80752e-05 0)
(0.00045419 4.01955e-05 0)
(0.000443022 4.11627e-05 0)
(0.000428478 4.13647e-05 0)
(0.000411082 4.13336e-05 0)
(0.000391616 4.1567e-05 0)
(0.00037113 4.23747e-05 0)
(0.000350622 4.37389e-05 0)
(0.0014783 -4.96657e-06 0)
(0.00148238 8.7257e-06 0)
(0.00148986 2.26684e-05 0)
(0.00149753 3.64839e-05 0)
(0.00150405 5.05605e-05 0)
(0.00150893 6.51294e-05 0)
(0.0015119 8.01503e-05 0)
(0.00151292 9.53872e-05 0)
(0.00151193 0.000110447 0)
(0.00150884 0.000124831 0)
(0.00150341 0.000138054 0)
(0.00149531 0.000149753 0)
(0.00148413 0.000159694 0)
(0.00146957 0.000167771 0)
(0.00145139 0.000173936 0)
(0.00142958 0.000178159 0)
(0.00140425 0.000180424 0)
(0.00137546 0.000180705 0)
(0.00134353 0.000179133 0)
(0.00130879 0.000175864 0)
(0.00127193 0.000170929 0)
(0.00123385 0.000164395 0)
(0.00119496 0.000156363 0)
(0.00115563 0.000146938 0)
(0.00111645 0.000136305 0)
(0.00107807 0.000124781 0)
(0.00104102 0.000112769 0)
(0.00100576 0.000100669 0)
(0.000972663 8.87852e-05 0)
(0.000942045 7.72818e-05 0)
(0.000914105 6.62411e-05 0)
(0.000888977 5.57055e-05 0)
(0.00086669 4.57157e-05 0)
(0.000847152 3.62993e-05 0)
(0.000830287 2.74606e-05 0)
(0.000815848 1.91618e-05 0)
(0.000803599 1.13371e-05 0)
(0.000793561 3.93887e-06 0)
(0.000785637 -3.0406e-06 0)
(0.000779562 -9.65317e-06 0)
(0.000775146 -1.59904e-05 0)
(0.000772192 -2.2039e-05 0)
(0.000770591 -2.77573e-05 0)
(0.00077026 -3.30805e-05 0)
(0.000771069 -3.7862e-05 0)
(0.000772856 -4.19666e-05 0)
(0.000775434 -4.52924e-05 0)
(0.000778615 -4.77758e-05 0)
(0.000782242 -4.94099e-05 0)
(0.000786208 -5.02381e-05 0)
(0.00079045 -5.0312e-05 0)
(0.00079495 -4.96763e-05 0)
(0.000799738 -4.83798e-05 0)
(0.000804879 -4.64409e-05 0)
(0.000810461 -4.37812e-05 0)
(0.000816651 -4.02541e-05 0)
(0.000823672 -3.58047e-05 0)
(0.000831727 -3.05705e-05 0)
(0.000841058 -2.47743e-05 0)
(0.000851735 -1.85887e-05 0)
(0.000863451 -1.23626e-05 0)
(0.000876142 -6.53663e-06 0)
(0.000889382 -1.27735e-06 0)
(0.000902365 3.19027e-06 0)
(0.000914456 6.57225e-06 0)
(0.000924444 9.08379e-06 0)
(0.000931334 1.15171e-05 0)
(0.000935102 1.46273e-05 0)
(0.000935419 1.83176e-05 0)
(0.00093169 2.21793e-05 0)
(0.00092367 2.66697e-05 0)
(0.000911924 3.29643e-05 0)
(0.000897334 4.09194e-05 0)
(0.000880644 4.77767e-05 0)
(0.000862029 4.97144e-05 0)
(0.000841894 4.47225e-05 0)
(0.000820833 3.38816e-05 0)
(0.000799164 2.04118e-05 0)
(0.000777099 7.92531e-06 0)
(0.000755221 -5.11133e-07 0)
(0.000734398 -2.87113e-06 0)
(0.000714913 1.81734e-06 0)
(0.000696372 1.31481e-05 0)
(0.000678801 2.92371e-05 0)
(0.000662609 4.744e-05 0)
(0.000648307 6.52548e-05 0)
(0.000636045 8.09647e-05 0)
(0.000625274 9.36793e-05 0)
(0.000614498 0.000103001 0)
(0.000601903 0.000108906 0)
(0.00156556 -1.659e-05 0)
(0.00157242 -3.94231e-06 0)
(0.00157967 9.71406e-06 0)
(0.00158886 2.40467e-05 0)
(0.00159976 3.90123e-05 0)
(0.00161112 5.46573e-05 0)
(0.001622 7.1112e-05 0)
(0.0016318 8.83389e-05 0)
(0.00164013 0.000106102 0)
(0.0016468 0.000124112 0)
(0.00165177 0.000142042 0)
(0.00165489 0.000159563 0)
(0.00165586 0.000176372 0)
(0.00165429 0.000192189 0)
(0.00164977 0.000206764 0)
(0.00164202 0.000219844 0)
(0.00163089 0.000231139 0)
(0.00161634 0.000240342 0)
(0.00159843 0.000247139 0)
(0.00157716 0.000251269 0)
(0.00155241 0.000252545 0)
(0.00152416 0.000250799 0)
(0.0014926 0.000246014 0)
(0.00145805 0.000238358 0)
(0.001421 0.000228112 0)
(0.00138212 0.000215655 0)
(0.00134215 0.000201401 0)
(0.00130188 0.000185746 0)
(0.00126201 0.00016909 0)
(0.00122313 0.000151896 0)
(0.00118576 0.000134651 0)
(0.00115037 0.000117783 0)
(0.00111728 0.000101614 0)
(0.0010867 8.63724e-05 0)
(0.00105871 7.21461e-05 0)
(0.00103341 5.89082e-05 0)
(0.00101086 4.65909e-05 0)
(0.000990986 3.50869e-05 0)
(0.000973624 2.42603e-05 0)
(0.000958415 1.40423e-05 0)
(0.000945179 4.34088e-06 0)
(0.000933913 -4.85462e-06 0)
(0.000924439 -1.34638e-05 0)
(0.000916658 -2.13639e-05 0)
(0.000910473 -2.83944e-05 0)
(0.000905603 -3.4323e-05 0)
(0.000901723 -3.89932e-05 0)
(0.000898501 -4.23626e-05 0)
(0.000895649 -4.45551e-05 0)
(0.000893029 -4.58175e-05 0)
(0.00089069 -4.63616e-05 0)
(0.000888819 -4.63152e-05 0)
(0.000887683 -4.57993e-05 0)
(0.000887582 -4.49735e-05 0)
(0.000888811 -4.39725e-05 0)
(0.000891615 -4.28121e-05 0)
(0.000896116 -4.14845e-05 0)
(0.000902226 -4.00946e-05 0)
(0.000909768 -3.88216e-05 0)
(0.000918723 -3.78024e-05 0)
(0.000929165 -3.70848e-05 0)
(0.000941073 -3.68036e-05 0)
(0.000954348 -3.71379e-05 0)
(0.000968875 -3.79834e-05 0)
(0.000984426 -3.90374e-05 0)
(0.00100063 -3.98703e-05 0)
(0.00101721 -3.9798e-05 0)
(0.00103416 -3.80683e-05 0)
(0.0010515 -3.40103e-05 0)
(0.00106904 -2.72074e-05 0)
(0.00108655 -1.73794e-05 0)
(0.00110419 -4.37996e-06 0)
(0.0011221 1.14414e-05 0)
(0.00113999 2.89692e-05 0)
(0.00115727 4.66859e-05 0)
(0.00117234 6.33847e-05 0)
(0.00118306 7.8492e-05 0)
(0.00118789 9.18615e-05 0)
(0.00118628 0.000103491 0)
(0.0011773 0.000113108 0)
(0.0011599 0.000120305 0)
(0.00113536 0.000125368 0)
(0.00110589 0.000128688 0)
(0.00107292 0.000129217 0)
(0.00103756 0.000125311 0)
(0.00100066 0.000117375 0)
(0.000962848 0.000108497 0)
(0.000924984 0.000102053 0)
(0.000888706 9.96763e-05 0)
(0.000855537 0.000101665 0)
(0.00154305 -3.26773e-05 0)
(0.00155661 -2.57991e-05 0)
(0.00157091 -1.6388e-05 0)
(0.00158558 -4.48545e-06 0)
(0.00160026 9.5976e-06 0)
(0.00161495 2.55815e-05 0)
(0.00162936 4.31227e-05 0)
(0.00164277 6.19004e-05 0)
(0.00165474 8.15813e-05 0)
(0.00166519 0.000101932 0)
(0.00167402 0.000122701 0)
(0.00168112 0.000143555 0)
(0.00168642 0.000164131 0)
(0.00168988 0.000184105 0)
(0.00169141 0.000203238 0)
(0.0016909 0.00022132 0)
(0.00168822 0.000238137 0)
(0.00168318 0.000253528 0)
(0.00167567 0.00026729 0)
(0.00166571 0.000279067 0)
(0.00165331 0.00028855 0)
(0.00163853 0.000295546 0)
(0.0016214 0.000299742 0)
(0.0016018 0.000300787 0)
(0.00157948 0.000298595 0)
(0.00155428 0.000293218 0)
(0.00152614 0.000284649 0)
(0.00149505 0.000273076 0)
(0.00146131 0.000259014 0)
(0.00142556 0.000242919 0)
(0.00138855 0.000225015 0)
(0.00135081 0.000205661 0)
(0.00131288 0.000185515 0)
(0.0012755 0.000165207 0)
(0.00123948 0.000145067 0)
(0.00120541 0.00012527 0)
(0.00117353 0.000106046 0)
(0.00114393 8.76692e-05 0)
(0.00111665 7.03245e-05 0)
(0.00109168 5.40674e-05 0)
(0.00106896 3.88904e-05 0)
(0.00104852 2.47165e-05 0)
(0.0010304 1.15466e-05 0)
(0.00101435 -4.69739e-07 0)
(0.000999912 -1.10743e-05 0)
(0.000986498 -1.98893e-05 0)
(0.000973434 -2.65525e-05 0)
(0.000960268 -3.10358e-05 0)
(0.000946869 -3.37747e-05 0)
(0.000933784 -3.55493e-05 0)
(0.000922079 -3.72064e-05 0)
(0.000912478 -3.93752e-05 0)
(0.000905058 -4.23335e-05 0)
(0.000899709 -4.60012e-05 0)
(0.00089644 -5e-05 0)
(0.000895172 -5.37538e-05 0)
(0.00089561 -5.68102e-05 0)
(0.000897615 -5.91376e-05 0)
(0.000901277 -6.09621e-05 0)
(0.000906701 -6.24902e-05 0)
(0.000913962 -6.38845e-05 0)
(0.000923032 -6.52641e-05 0)
(0.000933841 -6.65997e-05 0)
(0.000946349 -6.77368e-05 0)
(0.00096054 -6.84856e-05 0)
(0.000976362 -6.86189e-05 0)
(0.000993724 -6.78447e-05 0)
(0.00101256 -6.58676e-05 0)
(0.00103289 -6.2513e-05 0)
(0.00105477 -5.76978e-05 0)
(0.00107807 -5.12467e-05 0)
(0.00110248 -4.3005e-05 0)
(0.00112823 -3.32005e-05 0)
(0.00115579 -2.23086e-05 0)
(0.0011848 -1.06904e-05 0)
(0.00121458 1.43549e-06 0)
(0.00124466 1.41053e-05 0)
(0.00127469 2.78196e-05 0)
(0.00130384 4.34035e-05 0)
(0.00133118 6.13835e-05 0)
(0.00135689 8.20335e-05 0)
(0.00138104 0.000105391 0)
(0.00140258 0.000130627 0)
(0.00142026 0.000156493 0)
(0.00143265 0.000181595 0)
(0.00143766 0.0002044 0)
(0.0014337 0.000223682 0)
(0.00142046 0.000238751 0)
(0.00139698 0.000248941 0)
(0.00136255 0.000253233 0)
(0.00159106 -7.39342e-05 0)
(0.00161107 -6.61057e-05 0)
(0.00163147 -5.56044e-05 0)
(0.00165223 -4.23104e-05 0)
(0.00167272 -2.61402e-05 0)
(0.00169186 -7.28489e-06 0)
(0.0017087 1.38507e-05 0)
(0.00172276 3.68655e-05 0)
(0.00173392 6.15874e-05 0)
(0.00174223 8.75591e-05 0)
(0.00174752 0.000114077 0)
(0.00174954 0.000140538 0)
(0.00174824 0.000166398 0)
(0.00174369 0.000191145 0)
(0.00173615 0.000214266 0)
(0.00172592 0.00023534 0)
(0.00171345 0.000254116 0)
(0.00169931 0.000270419 0)
(0.00168399 0.00028428 0)
(0.00166791 0.00029608 0)
(0.00165161 0.00030611 0)
(0.00163541 0.000314372 0)
(0.00161931 0.000321053 0)
(0.00160327 0.000326407 0)
(0.00158735 0.000330032 0)
(0.00157128 0.000331263 0)
(0.00155458 0.000330062 0)
(0.0015369 0.000326489 0)
(0.00151775 0.000319902 0)
(0.0014963 0.00030986 0)
(0.00147201 0.000297076 0)
(0.00144528 0.000282468 0)
(0.0014168 0.000265936 0)
(0.00138672 0.000246986 0)
(0.00135483 0.000225969 0)
(0.00132141 0.000204009 0)
(0.00128733 0.000182033 0)
(0.00125348 0.000160399 0)
(0.00122044 0.000139274 0)
(0.00118869 0.00011887 0)
(0.00115876 9.92213e-05 0)
(0.00113105 8.01617e-05 0)
(0.00110528 6.18252e-05 0)
(0.00108039 4.51317e-05 0)
(0.00105519 3.15678e-05 0)
(0.00102928 2.22264e-05 0)
(0.00100308 1.70415e-05 0)
(0.000977357 1.4405e-05 0)
(0.000953059 1.16351e-05 0)
(0.000931226 6.50768e-06 0)
(0.000912723 -1.11844e-06 0)
(0.000897895 -9.56307e-06 0)
(0.000886503 -1.75744e-05 0)
(0.000877871 -2.52875e-05 0)
(0.000871217 -3.31052e-05 0)
(0.000865691 -4.0929e-05 0)
(0.000860012 -4.83154e-05 0)
(0.000853095 -5.48594e-05 0)
(0.00084495 -6.05649e-05 0)
(0.000836554 -6.57833e-05 0)
(0.000829237 -7.0968e-05 0)
(0.000824331 -7.66496e-05 0)
(0.000822871 -8.30681e-05 0)
(0.000825448 -9.01549e-05 0)
(0.000832292 -9.75938e-05 0)
(0.000843363 -0.000104865 0)
(0.000858443 -0.000111325 0)
(0.000877255 -0.000116361 0)
(0.000899498 -0.00011948 0)
(0.000924853 -0.00012032 0)
(0.000953086 -0.000118613 0)
(0.00098409 -0.000114231 0)
(0.00101771 -0.000107257 0)
(0.00105364 -9.80423e-05 0)
(0.0010915 -8.69599e-05 0)
(0.00113097 -7.42956e-05 0)
(0.00117173 -6.03445e-05 0)
(0.00121343 -4.51409e-05 0)
(0.00125613 -2.8428e-05 0)
(0.00130037 -9.93021e-06 0)
(0.00134619 1.04001e-05 0)
(0.00139275 3.25008e-05 0)
(0.00143945 5.63902e-05 0)
(0.00148623 8.20689e-05 0)
(0.00153224 0.000109477 0)
(0.00157596 0.000138577 0)
(0.0016161 0.000169136 0)
(0.00165099 0.000200726 0)
(0.00167877 0.000232686 0)
(0.00169913 0.000264142 0)
(0.00166974 -0.000134748 0)
(0.00169179 -0.000125402 0)
(0.00171468 -0.000112621 0)
(0.00173881 -9.64266e-05 0)
(0.00176363 -7.67197e-05 0)
(0.00178809 -5.35607e-05 0)
(0.00181108 -2.71254e-05 0)
(0.00183233 2.25091e-06 0)
(0.0018515 3.40898e-05 0)
(0.00186722 6.78299e-05 0)
(0.00187875 0.000103011 0)
(0.00188591 0.00013891 0)
(0.00188821 0.000174802 0)
(0.00188525 0.000209878 0)
(0.0018767 0.000243345 0)
(0.00186225 0.000274518 0)
(0.00184204 0.00030253 0)
(0.00181654 0.000326646 0)
(0.00178641 0.000346478 0)
(0.00175257 0.000361364 0)
(0.00171608 0.000370907 0)
(0.00167804 0.000375778 0)
(0.00164003 0.000376539 0)
(0.00160371 0.000373565 0)
(0.00156999 0.000368652 0)
(0.00153965 0.000363707 0)
(0.00151337 0.000358553 0)
(0.00149081 0.000352643 0)
(0.00147099 0.000347025 0)
(0.00145342 0.000342126 0)
(0.00143724 0.000335733 0)
(0.00142047 0.000325688 0)
(0.00140135 0.000313033 0)
(0.00137985 0.000300196 0)
(0.00135693 0.000287272 0)
(0.00133275 0.000272272 0)
(0.00130665 0.00025417 0)
(0.00127858 0.000233812 0)
(0.00124944 0.000212242 0)
(0.00121974 0.000189614 0)
(0.00118891 0.000166064 0)
(0.0011563 0.000143184 0)
(0.00112204 0.000124023 0)
(0.00108678 0.000110776 0)
(0.00105099 0.000102487 0)
(0.00101508 9.59e-05 0)
(0.000979832 8.84937e-05 0)
(0.000946719 7.96053e-05 0)
(0.000918155 6.85095e-05 0)
(0.000897134 5.38361e-05 0)
(0.000885106 3.58346e-05 0)
(0.000878782 1.67448e-05 0)
(0.000870499 -1.41103e-06 0)
(0.000853444 -1.67976e-05 0)
(0.000825562 -2.656e-05 0)
(0.00078943 -2.88546e-05 0)
(0.00074995 -2.53319e-05 0)
(0.000711744 -2.04264e-05 0)
(0.000678053 -1.86834e-05 0)
(0.000651106 -2.27142e-05 0)
(0.000631969 -3.29202e-05 0)
(0.000620854 -4.82487e-05 0)
(0.000617725 -6.69754e-05 0)
(0.000622055 -8.72843e-05 0)
(0.000633044 -0.000107588 0)
(0.000649778 -0.000126633 0)
(0.000671308 -0.000143503 0)
(0.000696729 -0.000157587 0)
(0.000725216 -0.000168532 0)
(0.000756036 -0.000176227 0)
(0.000788637 -0.000180731 0)
(0.000822637 -0.000182291 0)
(0.000857855 -0.000181264 0)
(0.000894212 -0.000178076 0)
(0.000931795 -0.000173119 0)
(0.000970814 -0.000166772 0)
(0.00101166 -0.000159235 0)
(0.00105474 -0.000150478 0)
(0.00110058 -0.000140166 0)
(0.00114966 -0.000128057 0)
(0.00120239 -0.000113876 0)
(0.00125896 -9.70895e-05 0)
(0.00131929 -7.69051e-05 0)
(0.00138286 -5.27755e-05 0)
(0.00144893 -2.43894e-05 0)
(0.00151651 8.45231e-06 0)
(0.00158423 4.55905e-05 0)
(0.00165069 8.65673e-05 0)
(0.00171482 0.0001308 0)
(0.00177532 0.000177254 0)
(0.00155113 -0.000175775 0)
(0.00157266 -0.000171996 0)
(0.00159709 -0.000163757 0)
(0.00162544 -0.000150922 0)
(0.00165715 -0.000133406 0)
(0.00169074 -0.000111136 0)
(0.00172501 -8.41224e-05 0)
(0.00175881 -5.24765e-05 0)
(0.00179119 -1.66515e-05 0)
(0.0018222 2.27819e-05 0)
(0.00185112 6.52388e-05 0)
(0.0018765 0.000110101 0)
(0.00189779 0.000156481 0)
(0.00191433 0.000203466 0)
(0.00192517 0.000250361 0)
(0.00192971 0.00029598 0)
(0.00192741 0.000339062 0)
(0.00191731 0.000378951 0)
(0.00189895 0.00041428 0)
(0.00187243 0.000443444 0)
(0.00183761 0.000466167 0)
(0.00179523 0.000481472 0)
(0.00174702 0.00048793 0)
(0.00169405 0.000486614 0)
(0.00163809 0.000478261 0)
(0.0015823 0.000462186 0)
(0.00152886 0.000441604 0)
(0.00147951 0.000421471 0)
(0.00143693 0.000402068 0)
(0.00140216 0.000382852 0)
(0.00137372 0.000367517 0)
(0.00135036 0.000358563 0)
(0.00133153 0.000351793 0)
(0.00131533 0.000341257 0)
(0.00129881 0.000326757 0)
(0.00128032 0.000312376 0)
(0.00125973 0.000299266 0)
(0.00123664 0.000284541 0)
(0.00120978 0.000267163 0)
(0.00117894 0.000250196 0)
(0.0011459 0.000236081 0)
(0.00111222 0.000223481 0)
(0.00107664 0.000210221 0)
(0.00103651 0.000196718 0)
(0.000992666 0.000184836 0)
(0.000951884 0.000174515 0)
(0.000922588 0.000163031 0)
(0.000907762 0.000145754 0)
(0.000901607 0.000116837 0)
(0.000892084 7.60972e-05 0)
(0.000868115 3.80346e-05 0)
(0.000825991 2.42761e-05 0)
(0.000768859 4.2722e-05 0)
(0.000702958 7.93157e-05 0)
(0.000635383 0.000111781 0)
(0.000573132 0.000126235 0)
(0.000521791 0.000120638 0)
(0.000484455 9.92268e-05 0)
(0.000461852 6.7331e-05 0)
(0.000452881 2.92937e-05 0)
(0.000455484 -1.18052e-05 0)
(0.000467602 -5.33805e-05 0)
(0.000487462 -9.35423e-05 0)
(0.000513373 -0.000130889 0)
(0.000543836 -0.000164385 0)
(0.000577527 -0.000193334 0)
(0.00061328 -0.000217346 0)
(0.000650073 -0.000236315 0)
(0.000687053 -0.00025038 0)
(0.000723554 -0.00025986 0)
(0.000759077 -0.000265198 0)
(0.000793249 -0.000266954 0)
(0.000825821 -0.000265803 0)
(0.000856699 -0.000262552 0)
(0.000886104 -0.000258038 0)
(0.000914608 -0.00025308 0)
(0.000943181 -0.000248309 0)
(0.000973035 -0.000244079 0)
(0.00100558 -0.000240302 0)
(0.00104218 -0.000236504 0)
(0.001084 -0.000231793 0)
(0.00113179 -0.000225015 0)
(0.00118588 -0.000214843 0)
(0.00124614 -0.000200031 0)
(0.00131201 -0.000179462 0)
(0.0013826 -0.000152424 0)
(0.00145685 -0.000118652 0)
(0.00153343 -7.83246e-05 0)
(0.00161069 -3.20475e-05 0)
(0.00168724 1.91416e-05 0)
(0.00121866 -0.000215107 0)
(0.00124483 -0.00022326 0)
(0.00127667 -0.000225366 0)
(0.00131424 -0.000221104 0)
(0.00135675 -0.000210519 0)
(0.00140305 -0.000193494 0)
(0.00145179 -0.000169802 0)
(0.00150167 -0.000139507 0)
(0.00155143 -0.000102913 0)
(0.00159975 -6.04828e-05 0)
(0.001646 -1.30201e-05 0)
(0.00168999 3.85433e-05 0)
(0.00173099 9.3332e-05 0)
(0.0017681 0.000150666 0)
(0.00180065 0.000209324 0)
(0.00182792 0.000267962 0)
(0.00184885 0.000326036 0)
(0.00186276 0.000382185 0)
(0.00186927 0.000434443 0)
(0.00186724 0.000482559 0)
(0.00185606 0.000525328 0)
(0.00183604 0.000559701 0)
(0.00180604 0.000585564 0)
(0.00176554 0.000602532 0)
(0.0017167 0.000606843 0)
(0.00166031 0.000599415 0)
(0.00159715 0.000583373 0)
(0.00153203 0.000556096 0)
(0.00146885 0.000519491 0)
(0.0014084 0.000483805 0)
(0.00135412 0.000452292 0)
(0.00131055 0.000420825 0)
(0.00127672 0.000391967 0)
(0.00124776 0.000372955 0)
(0.00122079 0.000363261 0)
(0.00119536 0.000355463 0)
(0.00117056 0.000346271 0)
(0.00114494 0.000338641 0)
(0.00111808 0.000333092 0)
(0.00109026 0.00032385 0)
(0.00106056 0.000307572 0)
(0.00102717 0.00029176 0)
(0.000990378 0.000287343 0)
(0.000954775 0.000291751 0)
(0.000927386 0.000285383 0)
(0.000911936 0.000249572 0)
(0.000903947 0.000188089 0)
(0.000891687 0.00013004 0)
(0.000862142 0.000108928 0)
(0.000807398 0.000134474 0)
(0.000729404 0.000185949 0)
(0.00064077 0.000233553 0)
(0.000557691 0.000260188 0)
(0.000491165 0.000262728 0)
(0.000444878 0.000243945 0)
(0.000417754 0.000208347 0)
(0.000406617 0.000161014 0)
(0.000408134 0.000106702 0)
(0.000419613 4.91479e-05 0)
(0.000439038 -8.84398e-06 0)
(0.000465323 -6.52524e-05 0)
(0.000497492 -0.000118546 0)
(0.000534232 -0.000167529 0)
(0.000574514 -0.000211245 0)
(0.000617428 -0.000248921 0)
(0.000662078 -0.000280005 0)
(0.000707555 -0.00030419 0)
(0.000752923 -0.000321495 0)
(0.00079728 -0.000332255 0)
(0.000839842 -0.000337052 0)
(0.000879968 -0.000336586 0)
(0.000917079 -0.000331652 0)
(0.000950471 -0.000323314 0)
(0.000979296 -0.000313098 0)
(0.00100279 -0.000302983 0)
(0.00102082 -0.000295014 0)
(0.00103425 -0.000290788 0)
(0.00104503 -0.000291093 0)
(0.00105579 -0.000295805 0)
(0.00106928 -0.000303979 0)
(0.001088 -0.00031396 0)
(0.0011138 -0.000323521 0)
(0.00114783 -0.000330106 0)
(0.00119041 -0.000331199 0)
(0.0012411 -0.000324685 0)
(0.00129887 -0.000309148 0)
(0.00136234 -0.000284006 0)
(0.00143008 -0.00024946 0)
(0.00150071 -0.000206238 0)
(0.00157306 -0.000155344 0)
(0.000817908 -0.000281545 0)
(0.000856786 -0.000303373 0)
(0.000902353 -0.000317768 0)
(0.000953976 -0.000324006 0)
(0.0010106 -0.000321596 0)
(0.00107087 -0.000310363 0)
(0.00113341 -0.000290304 0)
(0.00119694 -0.000261556 0)
(0.0012603 -0.000224463 0)
(0.00132247 -0.000179625 0)
(0.0013825 -0.000127856 0)
(0.00143969 -7.02226e-05 0)
(0.00149368 -7.87348e-06 0)
(0.00154415 5.78466e-05 0)
(0.00159038 0.000125877 0)
(0.00163183 0.000195778 0)
(0.00166832 0.000266176 0)
(0.00169963 0.000335502 0)
(0.00172493 0.000403699 0)
(0.00174348 0.000469693 0)
(0.00175514 0.000530305 0)
(0.00175853 0.000585181 0)
(0.00175201 0.000634138 0)
(0.00173625 0.000671953 0)
(0.00171051 0.000697392 0)
(0.00167266 0.000713193 0)
(0.00162518 0.00071361 0)
(0.00157029 0.000695659 0)
(0.00150613 0.000668135 0)
(0.00143671 0.000631444 0)
(0.00137045 0.000579962 0)
(0.00130835 0.000525848 0)
(0.00124832 0.000486578 0)
(0.00119454 0.000460739 0)
(0.00115189 0.000438674 0)
(0.00111842 0.000420049 0)
(0.00108929 0.000407701 0)
(0.00106281 0.000397817 0)
(0.00103848 0.000385918 0)
(0.00101275 0.000375672 0)
(0.000981372 0.000373621 0)
(0.000946289 0.000376307 0)
(0.000916823 0.000368561 0)
(0.000901744 0.000336558 0)
(0.000899626 0.00028256 0)
(0.000896064 0.000229748 0)
(0.000871411 0.00020953 0)
(0.000815144 0.000235712 0)
(0.000733857 0.00029234 0)
(0.00064496 0.000349401 0)
(0.000564599 0.000384595 0)
(0.00050134 0.000390682 0)
(0.000456991 0.000370751 0)
(0.000429978 0.000331132 0)
(0.00041769 0.000277582 0)
(0.000417315 0.000214573 0)
(0.000426251 0.000145739 0)
(0.00044233 7.41683e-05 0)
(0.000464243 2.46075e-06 0)
(0.000491198 -6.7593e-05 0)
(0.000522489 -0.000134427 0)
(0.000557637 -0.000196882 0)
(0.000596252 -0.000253862 0)
(0.000637927 -0.000304378 0)
(0.000682233 -0.00034754 0)
(0.000728688 -0.000382557 0)
(0.000776704 -0.000408813 0)
(0.0008255 -0.000426091 0)
(0.000874119 -0.000434771 0)
(0.000921698 -0.000435755 0)
(0.000967788 -0.000429947 0)
(0.00101236 -0.000417715 0)
(0.00105525 -0.00039902 0)
(0.00109542 -0.000374412 0)
(0.00113056 -0.000346332 0)
(0.00115785 -0.000319378 0)
(0.00117523 -0.000299054 0)
(0.00118275 -0.000289692 0)
(0.00118279 -0.000293072 0)
(0.00117945 -0.000308256 0)
(0.00117733 -0.000332202 0)
(0.00118052 -0.000360538 0)
(0.00119193 -0.000388267 0)
(0.00121301 -0.000410538 0)
(0.00124383 -0.000423347 0)
(0.00128343 -0.000424084 0)
(0.00133026 -0.000411676 0)
(0.0013826 -0.000386345 0)
(0.00143885 -0.000349241 0)
(0.0014977 -0.00030199 0)
(0.000420645 -0.000369594 0)
(0.000471257 -0.000407458 0)
(0.000528388 -0.000436324 0)
(0.000591545 -0.000455068 0)
(0.000660076 -0.000462742 0)
(0.000732744 -0.000458767 0)
(0.000808181 -0.000442881 0)
(0.000884933 -0.00041524 0)
(0.00096163 -0.00037639 0)
(0.00103698 -0.00032729 0)
(0.00110984 -0.000269246 0)
(0.00117932 -0.000203823 0)
(0.00124466 -0.000132661 0)
(0.00130546 -5.72258e-05 0)
(0.00136175 2.1154e-05 0)
(0.00141312 0.000101056 0)
(0.00145901 0.000181568 0)
(0.00149955 0.000262353 0)
(0.00153485 0.000342366 0)
(0.00156509 0.000419854 0)
(0.00158973 0.000494826 0)
(0.00160767 0.000567139 0)
(0.00161902 0.00063269 0)
(0.00162306 0.000689773 0)
(0.001617 0.000740424 0)
(0.00160118 0.000778713 0)
(0.00157683 0.000798625 0)
(0.00154039 0.000806879 0)
(0.00149222 0.000802315 0)
(0.00143889 0.000772673 0)
(0.00137977 0.00072667 0)
(0.00131215 0.000683791 0)
(0.00124535 0.0006399 0)
(0.00119016 0.000585379 0)
(0.00114495 0.000532412 0)
(0.00110369 0.00049556 0)
(0.00106616 0.000471339 0)
(0.00103339 0.000452935 0)
(0.0010013 0.000444851 0)
(0.000965742 0.000450032 0)
(0.000930779 0.000454147 0)
(0.000906415 0.000435138 0)
(0.000897205 0.000387076 0)
(0.000894785 0.000329767 0)
(0.000881562 0.000295614 0)
(0.000842595 0.000306029 0)
(0.000776495 0.00035649 0)
(0.000695553 0.000422505 0)
(0.000616153 0.000477517 0)
(0.000549945 0.000505255 0)
(0.000501448 0.000501379 0)
(0.000470051 0.00046944 0)
(0.00045282 0.000416281 0)
(0.000446451 0.00034886 0)
(0.000448179 0.000272766 0)
(0.000455967 0.00019199 0)
(0.00046863 0.000109283 0)
(0.000485778 2.65331e-05 0)
(0.000506633 -5.5061e-05 0)
(0.000530729 -0.000134271 0)
(0.000558503 -0.000209886 0)
(0.000590006 -0.000280642 0)
(0.000625044 -0.00034528 0)
(0.000663253 -0.000402654 0)
(0.000704162 -0.000451765 0)
(0.000747313 -0.000491656 0)
(0.000792283 -0.000521315 0)
(0.000838466 -0.000539955 0)
(0.000884767 -0.000547801 0)
(0.000929714 -0.000546627 0)
(0.000972309 -0.000539019 0)
(0.00101297 -0.000526424 0)
(0.00105343 -0.000507673 0)
(0.00109534 -0.000479704 0)
(0.00113836 -0.000440602 0)
(0.00117946 -0.000392886 0)
(0.00121386 -0.000344397 0)
(0.00123746 -0.000305679 0)
(0.00124884 -0.00028571 0)
(0.00124995 -0.000288636 0)
(0.00124524 -0.000312974 0)
(0.00124006 -0.00035272 0)
(0.00123915 -0.000399327 0)
(0.00124569 -0.000443819 0)
(0.00126104 -0.000478556 0)
(0.00128498 -0.000498465 0)
(0.00131631 -0.000501306 0)
(0.00135341 -0.000487277 0)
(0.00139469 -0.000458112 0)
(0.0014389 -0.000416194 0)
(5.0234e-05 -0.000484219 0)
(0.000104052 -0.000538768 0)
(0.000165834 -0.000582096 0)
(0.000233098 -0.00061337 0)
(0.000306457 -0.000631325 0)
(0.000384864 -0.000635187 0)
(0.000467527 -0.000624295 0)
(0.000553169 -0.000598634 0)
(0.000640325 -0.000558686 0)
(0.000727373 -0.000505537 0)
(0.000812785 -0.000440771 0)
(0.0008952 -0.000366385 0)
(0.000973487 -0.000284553 0)
(0.00104678 -0.000197341 0)
(0.00111438 -0.000106641 0)
(0.00117646 -1.41567e-05 0)
(0.00123303 7.88557e-05 0)
(0.00128341 0.000171278 0)
(0.00132783 0.000262282 0)
(0.00136668 0.000351586 0)
(0.00139992 0.000438874 0)
(0.00142796 0.000522251 0)
(0.00145077 0.000600827 0)
(0.00146693 0.00067556 0)
(0.0014762 0.000742747 0)
(0.00147923 0.000796992 0)
(0.00147327 0.000841251 0)
(0.00145669 0.000874641 0)
(0.00143326 0.000884803 0)
(0.00140197 0.000873603 0)
(0.00135784 0.000854962 0)
(0.00130731 0.000820193 0)
(0.00126035 0.000755909 0)
(0.00121324 0.000682787 0)
(0.00115936 0.000629379 0)
(0.00110432 0.000593522 0)
(0.00105651 0.000562083 0)
(0.00101452 0.000539728 0)
(0.000973563 0.000533715 0)
(0.000936893 0.000529881 0)
(0.00091339 0.000503337 0)
(0.000904805 0.000449092 0)
(0.000899627 0.000392352 0)
(0.000880579 0.00036786 0)
(0.000837325 0.000392126 0)
(0.000772777 0.000453968 0)
(0.000699343 0.000526108 0)
(0.000630597 0.000582432 0)
(0.000575311 0.000607802 0)
(0.000536221 0.000598921 0)
(0.000511804 0.00056046 0)
(0.000498728 0.000500383 0)
(0.000493662 0.000426455 0)
(0.000494175 0.000344532 0)
(0.000498927 0.000258256 0)
(0.00050755 0.000169598 0)
(0.000520193 7.96162e-05 0)
(0.000536586 -1.08871e-05 0)
(0.000556967 -0.000101057 0)
(0.000581722 -0.000189211 0)