/*--------------------------------*- C++ -*----------------------------------*\
| =========                 |                                                 |
| \\      /  F ield         | OpenFOAM: The Open Source CFD Toolbox           |
|  \\    /   O peration     | Version:  2312                                  |
|   \\  /    A nd           | Website:  www.openfoam.com                      |
|    \\/     M anipulation  |                                                 |
\*---------------------------------------------------------------------------*/
FoamFile
{
    version     2.0;
    format      ascii;
    arch        "LSB;label=32;scalar=64";
    class       surfaceScalarField;
    location    "98000";
    object      phi;
}
// * * * * * * * * * * * * * * * * * * * * * * * * * * * * * * * * * * * * * //

dimensions      [0 3 -1 0 0 0 0];

oriented        oriented;

internalField   nonuniform List<scalar> 
21240
(
0.000664974
1.69232e-06
0.000661072
3.90257e-06
0.000655751
5.32111e-06
0.000649514
6.2367e-06
0.000642639
6.87545e-06
0.000635266
7.37204e-06
0.00062749
7.77695e-06
0.000619386
8.10323e-06
0.000611029
8.35689e-06
0.000602483
8.5469e-06
0.000593797
8.68558e-06
0.000585012
8.78523e-06
0.000576156
8.85546e-06
0.000567254
8.90261e-06
0.000558323
8.93048e-06
0.000549382
8.94153e-06
0.000540444
8.9376e-06
0.000531524
8.92026e-06
0.000522633
8.89083e-06
0.000513783
8.85038e-06
0.000504983
8.79973e-06
0.000496243
8.73949e-06
0.000487573
8.67005e-06
0.000478982
8.59173e-06
0.000470477
8.50474e-06
0.000462068
8.40922e-06
0.000453762
8.30529e-06
0.000445569
8.19297e-06
0.000437497
8.07238e-06
0.000429554
7.94337e-06
0.000421747
7.80619e-06
0.000414087
7.66046e-06
0.00040658
7.5067e-06
0.000399236
7.34414e-06
0.000392062
7.17387e-06
0.000385068
6.99438e-06
0.00037826
6.80785e-06
0.000371649
6.61131e-06
0.00036524
6.409e-06
0.000359044
6.19524e-06
0.000353066
5.97803e-06
0.00034732
5.74665e-06
0.000341804
5.51601e-06
0.000336538
5.266e-06
0.000331514
5.02422e-06
0.00032676
4.75327e-06
0.000322256
4.50392e-06
0.000318049
4.20687e-06
0.000314094
3.9557e-06
0.000310473
3.62116e-06
0.000307094
3.37849e-06
0.000304114
2.98008e-06
0.000301345
2.76885e-06
0.000299106
2.23881e-06
0.000296987
2.11934e-06
0.000295742
1.24456e-06
0.000294265
1.47769e-06
0.000294476
-2.10745e-07
0.000293315
1.16068e-06
-3.20042e-06
0.000296515
0.000667556
8.03076e-07
0.00066912
2.33821e-06
0.000670853
3.58794e-06
0.000672524
4.56608e-06
0.000674052
5.34702e-06
0.000675425
5.99954e-06
0.000676637
6.56529e-06
0.000677677
7.06267e-06
0.000678535
7.49872e-06
0.000679204
7.87789e-06
0.000679684
8.2058e-06
0.00067998
8.48937e-06
0.0006801
8.73562e-06
0.000680052
8.95041e-06
0.000679844
9.13805e-06
0.000679485
9.30147e-06
0.000678979
9.44284e-06
0.000678336
9.5637e-06
0.000677561
9.66553e-06
0.000676662
9.74938e-06
0.000675646
9.81636e-06
0.000674518
9.86703e-06
0.000673286
9.90224e-06
0.000671956
9.92202e-06
0.000670533
9.92713e-06
0.000669025
9.91716e-06
0.000667437
9.89301e-06
0.000665777
9.85372e-06
0.000664048
9.80061e-06
0.00066226
9.73197e-06
0.000660416
9.6499e-06
0.000658525
9.55152e-06
0.000656591
9.44034e-06
0.000654624
9.3116e-06
0.000652627
9.17119e-06
0.00065061
9.01128e-06
0.000648576
8.84172e-06
0.000646538
8.6496e-06
0.000644495
8.45136e-06
0.000642465
8.22567e-06
0.000640443
7.99986e-06
0.000638451
7.73864e-06
0.00063648
7.48736e-06
0.000634558
7.18764e-06
0.000632668
6.91455e-06
0.000630849
6.5715e-06
0.000629071
6.28267e-06
0.000627389
5.88838e-06
0.000625751
5.59383e-06
0.000624237
5.1354e-06
0.000622764
4.85147e-06
0.000621436
4.30841e-06
0.000620143
4.06157e-06
0.000618979
3.40308e-06
0.000617864
3.2343e-06
0.000616687
2.4208e-06
0.00061578
2.38524e-06
0.000614171
1.39847e-06
0.000613785
1.54586e-06
4.54125e-07
0.000610131
0.000666951
5.18854e-07
0.000667818
1.47072e-06
0.000669058
2.3482e-06
0.000670483
3.14138e-06
0.000671984
3.84611e-06
0.000673513
4.47002e-06
0.000675053
5.02535e-06
0.000676593
5.52321e-06
0.00067812
5.9714e-06
0.000679623
6.37483e-06
0.000681092
6.73705e-06
0.00068252
7.06131e-06
0.000683904
7.35115e-06
0.000685245
7.61004e-06
0.000686541
7.84125e-06
0.000687796
8.04741e-06
0.000689008
8.23075e-06
0.000690179
8.39282e-06
0.000691309
8.53512e-06
0.0006924
8.65853e-06
0.000693452
8.76423e-06
0.000694466
8.85263e-06
0.000695444
8.92475e-06
0.000696385
8.98051e-06
0.000697292
9.02087e-06
0.000698164
9.04522e-06
0.000699002
9.0547e-06
0.000699807
9.04808e-06
0.000700581
9.02692e-06
0.000701324
8.98918e-06
0.000702037
8.93719e-06
0.00070272
8.86776e-06
0.000703376
8.78446e-06
0.000704005
8.68245e-06
0.000704609
8.56723e-06
0.000705189
8.43154e-06
0.000705747
8.28376e-06
0.000706284
8.11314e-06
0.000706803
7.93228e-06
0.000707303
7.72532e-06
0.000707792
7.51108e-06
0.000708264
7.26633e-06
0.000708733
7.01871e-06
0.000709186
6.73471e-06
0.000709646
6.45419e-06
0.000710088
6.12959e-06
0.000710553
5.81721e-06
0.000710991
5.45108e-06
0.000711476
5.10847e-06
0.000711911
4.7008e-06
0.000712432
4.32986e-06
0.000712858
3.88277e-06
0.000713434
3.48526e-06
0.000713831
3.00613e-06
0.000714482
2.58331e-06
0.00071481
2.09262e-06
0.000715551
1.64441e-06
0.000715757
1.19235e-06
0.000716596
7.07189e-07
3.95514e-07
0.000716655
0.000666854
3.31752e-07
0.000667308
1.01609e-06
0.000667972
1.68509e-06
0.000668795
2.31804e-06
0.000669735
2.90574e-06
0.00067076
3.44528e-06
0.000671847
3.93822e-06
0.000672982
4.38822e-06
0.000674154
4.7992e-06
0.000675355
5.17437e-06
0.000676576
5.51625e-06
0.00067781
5.8269e-06
0.000679053
6.1083e-06
0.0006803
6.36242e-06
0.00068155
6.59129e-06
0.000682801
6.79673e-06
0.000684051
6.98043e-06
0.0006853
7.14371e-06
0.000686548
7.28779e-06
0.000687793
7.4135e-06
0.000689035
7.52174e-06
0.000690275
7.61303e-06
0.000691512
7.68805e-06
0.000692745
7.74703e-06
0.000693975
7.7905e-06
0.000695202
7.81843e-06
0.000696426
7.83124e-06
0.000697645
7.82867e-06
0.000698861
7.81106e-06
0.000700072
7.77799e-06
0.00070128
7.72974e-06
0.000702482
7.66576e-06
0.00070368
7.58625e-06
0.000704872
7.49065e-06
0.00070606
7.37897e-06
0.000707241
7.25087e-06
0.000708418
7.10586e-06
0.000709587
6.94429e-06
0.000710755
6.7646e-06
0.000711912
6.56864e-06
0.00071307
6.35268e-06
0.000714215
6.12161e-06
0.000715366
5.86752e-06
0.0007165
5.60106e-06
0.000717647
5.30656e-06
0.000718772
5.00518e-06
0.000719922
4.66734e-06
0.00072104
4.33297e-06
0.0007222
3.94809e-06
0.000723315
3.58542e-06
0.000724496
3.14897e-06
0.000725612
2.76753e-06
0.000726823
2.27366e-06
0.000727939
1.89036e-06
0.000729192
1.3303e-06
0.000730311
9.73193e-07
0.00073162
3.35424e-07
0.000732759
5.33044e-08
0.000734205
-7.38494e-07
-9.03975e-07
0.000735505
0.000666738
2.60053e-07
0.00066697
7.84952e-07
0.000667356
1.29897e-06
0.000667879
1.79511e-06
0.000668517
2.26746e-06
0.00066925
2.71244e-06
0.000670059
3.12859e-06
0.000670932
3.516e-06
0.000671855
3.87554e-06
0.000672821
4.20835e-06
0.000673822
4.51551e-06
0.000674851
4.798e-06
0.000675902
5.05677e-06
0.000676972
5.29279e-06
0.000678056
5.50708e-06
0.000679152
5.70069e-06
0.000680258
5.87461e-06
0.000681372
6.02974e-06
0.000682493
6.16686e-06
0.00068362
6.28669e-06
0.000684752
6.38976e-06
0.000685888
6.47661e-06
0.000687029
6.54757e-06
0.000688173
6.60308e-06
0.00068932
6.64324e-06
0.00069047
6.66844e-06
0.000691623
6.67852e-06
0.000692777
6.6739e-06
0.000693934
6.65409e-06
0.000695093
6.6197e-06
0.000696253
6.56975e-06
0.000697413
6.50526e-06
0.000698575
6.42451e-06
0.000699736
6.3293e-06
0.000700898
6.21678e-06
0.000702059
6.09004e-06
0.000703221
5.94442e-06
0.00070438
5.78524e-06
0.000705539
5.60487e-06
0.000706696
5.41234e-06
0.000707853
5.19522e-06
0.000709006
4.96861e-06
0.000710161
4.71234e-06
0.000711311
4.45137e-06
0.000712465
4.15306e-06
0.000713612
3.85824e-06
0.000714765
3.51419e-06
0.000715911
3.18705e-06
0.000717067
2.79185e-06
0.000718217
2.43503e-06
0.000719386
1.98017e-06
0.000720555
1.59814e-06
0.000721758
1.07078e-06
0.000722977
6.71522e-07
0.000724261
4.59936e-08
0.000725567
-3.32291e-07
0.000726939
-1.03651e-06
0.000728389
-1.39655e-06
0.000729909
-2.25909e-06
-2.56999e-06
0.000731575
0.000666724
2.02781e-07
0.000666899
6.10047e-07
0.000667183
1.01452e-06
0.000667569
1.40966e-06
0.000668044
1.79176e-06
0.000668599
2.1579e-06
0.000669222
2.50602e-06
0.000669903
2.8349e-06
0.000670634
3.14397e-06
0.00067141
3.43309e-06
0.000672223
3.70237e-06
0.000673069
3.95206e-06
0.000673943
4.18253e-06
0.000674841
4.39421e-06
0.000675761
4.58757e-06
0.000676698
4.76315e-06
0.000677652
4.92145e-06
0.000678618
5.06303e-06
0.000679597
5.1883e-06
0.000680586
5.29778e-06
0.000681584
5.39176e-06
0.00068259
5.47066e-06
0.000683603
5.53462e-06
0.000684622
5.58404e-06
0.000685646
5.61884e-06
0.000686675
5.63944e-06
0.000687708
5.64553e-06
0.000688744
5.63761e-06
0.000689784
5.61501e-06
0.000690825
5.57847e-06
0.000691868
5.52683e-06
0.000692912
5.46126e-06
0.000693956
5.37988e-06
0.000695001
5.28458e-06
0.000696045
5.17239e-06
0.000697089
5.04642e-06
0.000698131
4.90202e-06
0.000699172
4.74426e-06
0.000700211
4.56587e-06
0.000701249
4.37507e-06
0.000702283
4.1605e-06
0.000703317
3.93536e-06
0.000704347
3.68186e-06
0.000705377
3.42104e-06
0.000706405
3.12504e-06
0.000707436
2.82732e-06
0.000708466
2.48442e-06
0.000709504
2.14945e-06
0.000710541
1.75483e-06
0.000711591
1.38442e-06
0.000712639
9.33033e-07
0.000713704
5.32199e-07
0.000714752
2.375e-08
0.000715847
-4.24083e-07
0.000716932
-1.03867e-06
0.000718097
-1.49753e-06
0.000719275
-2.21411e-06
0.000720559
-2.68134e-06
0.000721839
-3.53843e-06
-3.99308e-06
0.000723262
0.000666708
1.61097e-07
0.000666833
4.84952e-07
0.00066704
8.07852e-07
0.000667325
1.12523e-06
0.000667682
1.43456e-06
0.000668106
1.73368e-06
0.000668591
2.02091e-06
0.000669131
2.29499e-06
0.00066972
2.55516e-06
0.000670352
2.8011e-06
0.000671023
3.03141e-06
0.000671729
3.24623e-06
0.000672465
3.44569e-06
0.00067323
3.62989e-06
0.000674018
3.79896e-06
0.000674828
3.9531e-06
0.000675657
4.09249e-06
0.000676503
4.21742e-06
0.000677363
4.32808e-06
0.000678236
4.42474e-06
0.00067912
4.50752e-06
0.000680014
4.5767e-06
0.000680917
4.6323e-06
0.000681826
4.67455e-06
0.000682742
4.70336e-06
0.000683662
4.71898e-06
0.000684587
4.72113e-06
0.000685514
4.71012e-06
0.000686444
4.68542e-06
0.000687375
4.6475e-06
0.000688306
4.59545e-06
0.000689237
4.53004e-06
0.000690167
4.44984e-06
0.000691096
4.35609e-06
0.000692022
4.24658e-06
0.000692945
4.12336e-06
0.000693864
3.98306e-06
0.000694779
3.82899e-06
0.000695689
3.656e-06
0.000696594
3.46947e-06
0.000697493
3.26148e-06
0.000698388
3.04068e-06
0.000699275
2.79491e-06
0.000700158
2.53801e-06
0.000701032
2.25123e-06
0.000701903
1.95642e-06
0.000702763
1.62422e-06
0.000703624
1.28873e-06
0.000704475
9.03851e-07
0.000705336
5.23137e-07
0.000706196
7.32569e-08
0.000707075
-3.46715e-07
0.000707956
-8.57772e-07
0.00070886
-1.3278e-06
0.000709748
-1.9265e-06
0.000710694
-2.4437e-06
0.000711626
-3.14676e-06
0.000712652
-3.70705e-06
0.000713655
-4.54173e-06
-5.13487e-06
0.000714797
0.000666699
1.29105e-07
0.000666795
3.88243e-07
0.000666956
6.46968e-07
0.000667179
9.0208e-07
0.000667462
1.15184e-06
0.000667801
1.39472e-06
0.000668193
1.62939e-06
0.000668633
1.85476e-06
0.000669118
2.06996e-06
0.000669645
2.27426e-06
0.000670209
2.46705e-06
0.000670808
2.64793e-06
0.000671437
2.81667e-06
0.000672093
2.97317e-06
0.000672775
3.11738e-06
0.000673479
3.24926e-06
0.000674202
3.36883e-06
0.000674944
3.47613e-06
0.0006757
3.57121e-06
0.000676471
3.65416e-06
0.000677254
3.72499e-06
0.000678046
3.78381e-06
0.000678848
3.83059e-06
0.000679657
3.86541e-06
0.000680473
3.88818e-06
0.000681293
3.89898e-06
0.000682116
3.89759e-06
0.000682942
3.88413e-06
0.000683769
3.85821e-06
0.000684597
3.82001e-06
0.000685423
3.76894e-06
0.000686248
3.70528e-06
0.00068707
3.62814e-06
0.000687888
3.53802e-06
0.000688701
3.43359e-06
0.000689508
3.31571e-06
0.000690309
3.18243e-06
0.000691103
3.03519e-06
0.000691888
2.87111e-06
0.000692665
2.6926e-06
0.000693431
2.49532e-06
0.000694188
2.28322e-06
0.000694933
2.04977e-06
0.00069567
1.80133e-06
0.000696393
1.52806e-06
0.000697109
1.24021e-06
0.000697811
9.2301e-07
0.000698506
5.93051e-07
0.000699182
2.28578e-07
0.000699853
-1.48498e-07
0.000700504
-5.77725e-07
0.000701168
-1.01018e-06
0.000701813
-1.5026e-06
0.000702477
-1.99181e-06
0.000703114
-2.56358e-06
0.000703787
-3.11713e-06
0.000704425
-3.78451e-06
0.000705124
-4.4064e-06
0.000705771
-5.18866e-06
-5.87911e-06
0.000706515
0.000666693
1.02968e-07
0.000666772
3.09481e-07
0.000666903
5.15795e-07
0.000667085
7.19575e-07
0.000667317
9.19592e-07
0.000667597
1.11473e-06
0.000667923
1.30399e-06
0.000668291
1.48647e-06
0.0006687
1.66141e-06
0.000669146
1.82819e-06
0.000669627
1.98627e-06
0.000670139
2.13524e-06
0.000670681
2.27475e-06
0.00067125
2.40458e-06
0.000671843
2.52452e-06
0.000672457
2.63445e-06
0.000673092
2.73427e-06
0.000673744
2.8239e-06
0.000674412
2.90328e-06
0.000675094
2.97238e-06
0.000675788
3.03115e-06
0.000676492
3.07959e-06
0.000677205
3.11762e-06
0.000677925
3.14522e-06
0.000678651
3.1623e-06
0.000679381
3.16881e-06
0.000680114
3.16459e-06
0.000680849
3.1496e-06
0.000681583
3.12358e-06
0.000682317
3.08648e-06
0.000683048
3.03794e-06
0.000683775
2.9779e-06
0.000684498
2.90587e-06
0.000685214
2.8218e-06
0.000685922
2.72503e-06
0.000686622
2.61554e-06
0.000687312
2.49246e-06
0.000687992
2.35582e-06
0.000688658
2.20447e-06
0.000689312
2.03859e-06
0.000689951
1.85659e-06
0.000690575
1.65893e-06
0.000691182
1.44343e-06
0.000691772
1.21096e-06
0.000692342
9.58506e-07
0.000692894
6.87588e-07
0.000693423
3.93953e-07
0.000693936
8.07562e-08
0.000694426
-2.62149e-07
0.000694906
-6.27786e-07
0.000695353
-1.02485e-06
0.000695789
-1.44669e-06
0.000696193
-1.90595e-06
0.000696593
-2.39202e-06
0.000696953
-2.92382e-06
0.000697321
-3.48461e-06
0.000697638
-4.10218e-06
0.000697981
-4.74952e-06
0.000698261
-5.46797e-06
-6.21302e-06
0.000698595
0.000666689
8.09299e-08
0.000666755
2.43154e-07
0.000666866
4.05268e-07
0.00066702
5.65543e-07
0.000667216
7.23089e-07
0.000667454
8.77092e-07
0.000667731
1.0268e-06
0.000668046
1.17153e-06
0.000668397
1.31067e-06
0.000668781
1.4437e-06
0.000669197
1.57017e-06
0.000669643
1.68968e-06
0.000670116
1.8019e-06
0.000670614
1.90656e-06
0.000671135
2.00342e-06
0.000671677
2.09231e-06
0.000672238
2.17307e-06
0.000672816
2.24556e-06
0.00067341
2.3097e-06
0.000674017
2.36536e-06
0.000674636
2.41248e-06
0.000675264
2.45097e-06
0.000675901
2.48075e-06
0.000676545
2.50171e-06
0.000677193
2.51378e-06
0.000677845
2.51683e-06
0.000678499
2.51076e-06
0.000679153
2.49538e-06
0.000679806
2.47059e-06
0.000680457
2.43612e-06
0.000681103
2.39185e-06
0.000681743
2.33744e-06
0.000682376
2.27273e-06
0.000683001
2.19726e-06
0.000683615
2.1109e-06
0.000684217
2.01299e-06
0.000684806
1.90346e-06
0.000685381
1.78138e-06
0.000685939
1.64682e-06
0.000686479
1.49844e-06
0.000686999
1.33659e-06
0.000687498
1.1593e-06
0.000687974
9.67455e-07
0.000688427
7.58134e-07
0.000688852
5.33212e-07
0.000689252
2.88458e-07
0.000689617
2.86471e-08
0.000689959
-2.61622e-07
0.000690266
-5.68988e-07
0.000690544
-9.05448e-07
0.00069078
-1.26094e-06
0.000690987
-1.65336e-06
0.000691145
-2.06488e-06
0.000691277
-2.52363e-06
0.000691353
-2.99958e-06
0.000691406
-3.53761e-06
0.000691391
-4.08769e-06
0.000691363
-4.72125e-06
0.00069125
-5.3552e-06
-6.10245e-06
0.00069114
0.000666686
6.18265e-08
0.000666743
1.85698e-07
0.000666839
3.09496e-07
0.000666973
4.31949e-07
0.000667143
5.52417e-07
0.00066735
6.7031e-07
0.000667592
7.85077e-07
0.000667867
8.9621e-07
0.000668175
1.00325e-06
0.000668512
1.10577e-06
0.000668879
1.2034e-06
0.000669273
1.29583e-06
0.000669692
1.38275e-06
0.000670135
1.46392e-06
0.000670599
1.53912e-06
0.000671083
1.60816e-06
0.000671585
1.67088e-06
0.000672104
1.72714e-06
0.000672637
1.77682e-06
0.000673182
1.81979e-06
0.000673739
1.85597e-06
0.000674305
1.88523e-06
0.000674878
1.9075e-06
0.000675457
1.92265e-06
0.00067604
1.9306e-06
0.000676626
1.9312e-06
0.000677212
1.92437e-06
0.000677798
1.90989e-06
0.00067838
1.88771e-06
0.000678959
1.85751e-06
0.000679532
1.81927e-06
0.000680097
1.77253e-06
0.000680652
1.71733e-06
0.000681196
1.65303e-06
0.000681727
1.57979e-06
0.000682244
1.49664e-06
0.000682743
1.40399e-06
0.000683224
1.30041e-06
0.000683684
1.18669e-06
0.000684122
1.06072e-06
0.000684535
9.23948e-07
0.000684921
7.73178e-07
0.000685277
6.11015e-07
0.000685603
4.32558e-07
0.000685894
2.42427e-07
0.000686148
3.37573e-08
0.000686368
-1.91232e-07
0.000686547
-4.40473e-07
0.000686679
-7.01385e-07
0.000686768
-9.93611e-07
0.000686803
-1.29616e-06
0.000686789
-1.63995e-06
0.000686715
-1.99024e-06
0.000686587
-2.39632e-06
0.000686389
-2.80106e-06
0.000686135
-3.28335e-06
0.000685796
-3.74955e-06
0.000685401
-4.32624e-06
0.000684906
-4.85979e-06
-5.55298e-06
0.000684357
0.000666684
4.48221e-08
0.000666735
1.3458e-07
0.00066682
2.24273e-07
0.000666939
3.13003e-07
0.000667091
4.00328e-07
0.000667276
4.85833e-07
0.000667491
5.69132e-07
0.000667738
6.49863e-07
0.000668013
7.27693e-07
0.000668317
8.02313e-07
0.000668647
8.73447e-07
0.000669002
9.40841e-07
0.00066938
1.00427e-06
0.000669781
1.06354e-06
0.000670201
1.11846e-06
0.000670641
1.16887e-06
0.000671097
1.21465e-06
0.000671568
1.25565e-06
0.000672053
1.29177e-06
0.00067255
1.32289e-06
0.000673057
1.34894e-06
0.000673573
1.3698e-06
0.000674095
1.3854e-06
0.000674622
1.3956e-06
0.000675152
1.40037e-06
0.000675684
1.39952e-06
0.000676215
1.39304e-06
0.000676744
1.38068e-06
0.00067727
1.36245e-06
0.000677789
1.33803e-06
0.000678301
1.30745e-06
0.000678803
1.27027e-06
0.000679294
1.22661e-06
0.000679771
1.17582e-06
0.000680233
1.11817e-06
0.000680677
1.0527e-06
0.000681101
9.7995e-07
0.000681503
8.98471e-07
0.00068188
8.09281e-07
0.000682231
7.10162e-07
0.000682552
6.02922e-07
0.000682841
4.84155e-07
0.000683095
3.56998e-07
0.000683311
2.16221e-07
0.000683486
6.74106e-08
0.00068362
-1.00044e-07
0.000683705
-2.76815e-07
0.00068374
-4.75013e-07
0.000683719
-6.80383e-07
0.00068364
-9.14226e-07
0.000683496
-1.15269e-06
0.000683286
-1.4296e-06
0.000683001
-1.70577e-06
0.00068264
-2.0354e-06
0.000682193
-2.35422e-06
0.00068166
-2.74943e-06
0.000681026
-3.11571e-06
0.000680293
-3.59368e-06
0.000679444
-4.01043e-06
-4.59292e-06
0.000678484
0.000666682
2.92704e-08
0.000666729
8.78436e-08
0.000666807
1.46347e-07
0.000666916
2.04207e-07
0.000667055
2.61142e-07
0.000667224
3.1689e-07
0.000667422
3.71204e-07
0.000667648
4.23851e-07
0.000667901
4.74616e-07
0.00066818
5.23298e-07
0.000668484
5.69713e-07
0.000668811
6.13692e-07
0.00066916
6.55083e-07
0.00066953
6.93744e-07
0.000669919
7.29556e-07
0.000670325
7.624e-07
0.000670748
7.92182e-07
0.000671184
8.18802e-07
0.000671634
8.42185e-07
0.000672095
8.62241e-07
0.000672565
8.78913e-07
0.000673042
8.92108e-07
0.000673526
9.01783e-07
0.000674014
9.07832e-07
0.000674504
9.10225e-07
0.000674995
9.0883e-07
0.000675484
9.03631e-07
0.00067597
8.94453e-07
0.000676451
8.81304e-07
0.000676925
8.63938e-07
0.00067739
8.42407e-07
0.000677844
8.16359e-07
0.000678285
7.85921e-07
0.00067871
7.50575e-07
0.000679118
7.10587e-07
0.000679505
6.65183e-07
0.000679871
6.1486e-07
0.000680211
5.5845e-07
0.000680523
4.96845e-07
0.000680805
4.28256e-07
0.000681054
3.54239e-07
0.000681266
2.72036e-07
0.000681438
1.84321e-07
0.000681568
8.69047e-08
0.000681651
-1.57661e-08
0.000681684
-1.33099e-07
0.000681662
-2.55029e-07
0.00068158
-3.93026e-07
0.000681435
-5.35009e-07
0.000681219
-6.98478e-07
0.00068093
-8.6345e-07
0.000680558
-1.05787e-06
0.000680101
-1.24895e-06
0.000679547
-1.4816e-06
0.000678895
-1.70207e-06
0.000678129
-1.98282e-06
0.000677249
-2.23564e-06
0.000676233
-2.5779e-06
0.000675087
-2.86438e-06
-3.2855e-06
0.000673779
0.000666681
1.46356e-08
0.000666725
4.38705e-08
0.000666799
7.30257e-08
0.000666901
1.0182e-07
0.000667032
1.30117e-07
0.000667191
1.5779e-07
0.000667378
1.84719e-07
0.000667591
2.10792e-07
0.000667829
2.35902e-07
0.000668093
2.59952e-07
0.00066838
2.82852e-07
0.000668689
3.04516e-07
0.000669019
3.24872e-07
0.000669369
3.43847e-07
0.000669737
3.61381e-07
0.000670122
3.77416e-07
0.000670522
3.91903e-07
0.000670936
4.04791e-07
0.000671362
4.16043e-07
0.000671799
4.25612e-07
0.000672245
4.33469e-07
0.000672697
4.39568e-07
0.000673155
4.43884e-07
0.000673616
4.46365e-07
0.00067408
4.46995e-07
0.000674543
4.45706e-07
0.000675004
4.42492e-07
0.000675461
4.3726e-07
0.000675912
4.3002e-07
0.000676356
4.20638e-07
0.000676789
4.09152e-07
0.00067721
3.95368e-07
0.000677616
3.79367e-07
0.000678006
3.60865e-07
0.000678377
3.40021e-07
0.000678726
3.16409e-07
0.00067905
2.90321e-07
0.000679347
2.61108e-07
0.000679615
2.2929e-07
0.000679849
1.93874e-07
0.000680048
1.55755e-07
0.000680206
1.13405e-07
0.000680322
6.83524e-08
0.000680391
1.83165e-08
0.00068041
-3.51229e-08
0.000680373
-9.53482e-08
0.000680276
-1.57915e-07
0.000680112
-2.29043e-07
0.000679878
-3.01908e-07
0.000679566
-3.86285e-07
0.000679174
-4.70911e-07
0.000678687
-5.71447e-07
0.000678108
-6.69419e-07
0.000677416
-7.90039e-07
0.000676617
-9.02991e-07
0.000675683
-1.04905e-06
0.000674626
-1.17839e-06
0.000673405
-1.35722e-06
0.000672044
-1.50338e-06
-1.72461e-06
0.000670484
0.000666681
4.41634e-10
0.000666724
1.23058e-09
0.000666795
1.92519e-09
0.000666894
2.52698e-09
0.000667021
3.03605e-09
0.000667175
3.45386e-09
0.000667356
3.78153e-09
0.000667563
4.02082e-09
0.000667795
4.17409e-09
0.00066805
4.24311e-09
0.000668329
4.23031e-09
0.000668629
4.13813e-09
0.00066895
3.96976e-09
0.00066929
3.72849e-09
0.000669648
3.41715e-09
0.000670023
3.03971e-09
0.000670412
2.59896e-09
0.000670815
2.09977e-09
0.000671229
1.5456e-09
0.000671654
9.36139e-10
0.000672087
2.84052e-10
0.000672527
-4.0809e-10
0.000672972
-1.14432e-09
0.00067342
-1.91641e-09
0.00067387
-2.72026e-09
0.000674319
-3.55188e-09
0.000674766
-4.40749e-09
0.000675209
-5.28328e-09
0.000675645
-6.17571e-09
0.000676073
-7.08109e-09
0.00067649
-7.99618e-09
0.000676894
-8.91737e-09
0.000677283
-9.84183e-09
0.000677655
-1.0766e-08
0.000678007
-1.16876e-08
0.000678336
-1.26029e-08
0.00067864
-1.35097e-08
0.000678915
-1.4404e-08
0.00067916
-1.52843e-08
0.00067937
-1.61476e-08
0.000679542
-1.69971e-08
0.000679674
-1.78341e-08
0.000679761
-1.86718e-08
0.000679799
-1.95302e-08
0.000679784
-2.04136e-08
0.00067971
-2.11972e-08
0.000679574
-2.19559e-08
0.000679367
-2.26753e-08
0.000679089
-2.33706e-08
0.000678727
-2.40357e-08
0.00067828
-2.46955e-08
0.000677734
-2.53285e-08
0.000677091
-2.59553e-08
0.000676327
-2.655e-08
0.000675451
-2.71384e-08
0.00067443
-2.76961e-08
0.00067328
-2.82456e-08
0.000671952
-2.877e-08
0.000670477
-2.92733e-08
-2.97691e-08
0.000668783
0.000666681
-1.37566e-08
0.000666724
-4.14278e-08
0.000666795
-6.92006e-08
0.000666894
-9.67982e-08
0.000667021
-1.24083e-07
0.000667175
-1.50926e-07
0.000667356
-1.77204e-07
0.000667563
-2.02801e-07
0.000667795
-2.27608e-07
0.000668051
-2.51521e-07
0.00066833
-2.74447e-07
0.00066863
-2.96296e-07
0.000668951
-3.16988e-07
0.000669291
-3.36445e-07
0.000669649
-3.546e-07
0.000670024
-3.71387e-07
0.000670413
-3.86751e-07
0.000670816
-4.00633e-07
0.00067123
-4.1299e-07
0.000671655
-4.23765e-07
0.000672088
-4.32923e-07
0.000672528
-4.40407e-07
0.000672973
-4.4619e-07
0.000673421
-4.50207e-07
0.000673871
-4.52437e-07
0.00067432
-4.52804e-07
0.000674767
-4.51293e-07
0.00067521
-4.47804e-07
0.000675646
-4.4234e-07
0.000676074
-4.34761e-07
0.000676491
-4.25096e-07
0.000676895
-4.13146e-07
0.000677284
-3.98985e-07
0.000677656
-3.82323e-07
0.000678007
-3.63314e-07
0.000678336
-3.41524e-07
0.00067864
-3.17243e-07
0.000678915
-2.89817e-07
0.00067916
-2.59761e-07
0.00067937
-2.26073e-07
0.000679542
-1.89643e-07
0.000679673
-1.48924e-07
0.00067976
-1.0543e-07
0.000679797
-5.67901e-08
0.000679783
-5.79101e-09
0.000679709
5.30365e-08
0.000679572
1.14198e-07
0.000679366
1.8393e-07
0.000679087
2.55393e-07
0.000678725
3.38426e-07
0.000678278
4.21719e-07
0.000677732
5.20997e-07
0.000677088
6.17714e-07
0.000676325
7.37157e-07
0.000675448
8.48927e-07
0.000674427
9.93879e-07
0.000673277
1.12211e-06
0.000671948
1.29989e-06
0.000670474
1.445e-06
1.66519e-06
0.000668779
0.000666681
-2.8408e-08
0.000666725
-8.54459e-08
0.000666799
-1.42592e-07
0.000666901
-1.99277e-07
0.000667032
-2.55219e-07
0.000667192
-3.10153e-07
0.000667378
-3.63829e-07
0.000667591
-4.16012e-07
0.00066783
-4.66482e-07
0.000668094
-5.15033e-07
0.000668381
-5.61478e-07
0.00066869
-6.05642e-07
0.000669021
-6.47367e-07
0.000669371
-6.86507e-07
0.000669739
-7.22933e-07
0.000670124
-7.56522e-07
0.000670524
-7.87171e-07
0.000670939
-8.14773e-07
0.000671365
-8.39247e-07
0.000671802
-8.60494e-07
0.000672247
-8.78449e-07
0.0006727
-8.93013e-07
0.000673158
-9.04134e-07
0.000673619
-9.11699e-07
0.000674082
-9.1567e-07
0.000674546
-9.15908e-07
0.000675007
-9.12388e-07
0.000675464
-9.04929e-07
0.000675915
-8.93531e-07
0.000676358
-8.77941e-07
0.000676791
-8.58206e-07
0.000677212
-8.33964e-07
0.000677618
-8.05341e-07
0.000678008
-7.71808e-07
0.000678378
-7.33628e-07
0.000678727
-6.90018e-07
0.000679051
-6.41478e-07
0.000679348
-5.86823e-07
0.000679615
-5.26953e-07
0.000679849
-4.60062e-07
0.000680047
-3.87715e-07
0.000680205
-3.07134e-07
0.000680321
-2.21e-07
0.000680389
-1.25044e-07
0.000680408
-2.40731e-08
0.000680369
9.12132e-08
0.000680272
2.11802e-07
0.000680107
3.48452e-07
0.000679874
4.89065e-07
0.000679561
6.51226e-07
0.000679168
8.14874e-07
0.000678681
1.00806e-06
0.0006781
1.19788e-06
0.000677408
1.42939e-06
0.000676608
1.64866e-06
0.000675674
1.92833e-06
0.000674616
2.18001e-06
0.000673395
2.52125e-06
0.000672033
2.80664e-06
3.22676e-06
0.000670471
0.000666682
-4.39855e-08
0.000666729
-1.32255e-07
0.000666807
-2.20632e-07
0.000666916
-3.08224e-07
0.000667055
-3.94587e-07
0.000667225
-4.79306e-07
0.000667423
-5.61991e-07
0.000667649
-6.42275e-07
0.000667902
-7.19823e-07
0.000668182
-7.94323e-07
0.000668486
-8.65492e-07
0.000668813
-9.33073e-07
0.000669163
-9.96836e-07
0.000669533
-1.05657e-06
0.000669922
-1.1121e-06
0.000670328
-1.16324e-06
0.000670751
-1.20987e-06
0.000671188
-1.25183e-06
0.000671638
-1.28902e-06
0.000672099
-1.32131e-06
0.000672569
-1.34862e-06
0.000673047
-1.37081e-06
0.00067353
-1.38782e-06
0.000674018
-1.39951e-06
0.000674508
-1.40582e-06
0.000674999
-1.40657e-06
0.000675488
-1.40172e-06
0.000675975
-1.39105e-06
0.000676456
-1.37452e-06
0.000676929
-1.35183e-06
0.000677394
-1.32301e-06
0.000677848
-1.28759e-06
0.000678288
-1.2457e-06
0.000678713
-1.19668e-06
0.00067912
-1.14079e-06
0.000679507
-1.07707e-06
0.000679872
-1.00606e-06
0.000680211
-9.26294e-07
0.000680523
-8.38798e-07
0.000680804
-7.41333e-07
0.000681053
-6.35722e-07
0.000681264
-5.1853e-07
0.000681436
-3.9291e-07
0.000681564
-2.53581e-07
0.000681646
-1.06064e-07
0.000681679
5.89203e-08
0.000681656
2.3451e-07
0.000681573
4.31409e-07
0.000681427
6.35419e-07
0.00068121
8.6799e-07
0.00068092
1.10513e-06
0.000680547
1.38087e-06
0.000680089
1.65578e-06
0.000679534
1.98431e-06
0.000678881
2.30191e-06
0.000678113
2.69609e-06
0.000677232
3.06118e-06
0.000676215
3.5382e-06
0.000675068
3.95378e-06
4.53533e-06
0.000673759
0.000666684
-6.10254e-08
0.000666735
-1.83472e-07
0.00066682
-3.06012e-07
0.000666939
-4.27377e-07
0.000667092
-5.46929e-07
0.000667277
-6.64073e-07
0.000667493
-7.78257e-07
0.00066774
-8.88968e-07
0.000668015
-9.95742e-07
0.000668319
-1.09816e-06
0.00066865
-1.19584e-06
0.000669005
-1.28845e-06
0.000669384
-1.3757e-06
0.000669785
-1.45733e-06
0.000670206
-1.53312e-06
0.000670645
-1.60287e-06
0.000671102
-1.66642e-06
0.000671574
-1.72362e-06
0.000672059
-1.77433e-06
0.000672556
-1.81844e-06
0.000673063
-1.85583e-06
0.000673579
-1.88639e-06
0.000674101
-1.91003e-06
0.000674628
-1.92661e-06
0.000675158
-1.93606e-06
0.00067569
-1.9382e-06
0.000676221
-1.93296e-06
0.00067675
-1.9201e-06
0.000677275
-1.89957e-06
0.000677795
-1.87104e-06
0.000678306
-1.83449e-06
0.000678808
-1.78946e-06
0.000679298
-1.73597e-06
0.000679775
-1.67338e-06
0.000680236
-1.60183e-06
0.000680679
-1.52038e-06
0.000681103
-1.4294e-06
0.000681504
-1.32748e-06
0.00068188
-1.21539e-06
0.00068223
-1.09102e-06
0.00068255
-9.55838e-07
0.000682838
-8.06601e-07
0.000683091
-6.4595e-07
0.000683307
-4.68929e-07
0.000683481
-2.80181e-07
0.000683612
-7.24656e-08
0.000683697
1.50016e-07
0.00068373
3.98123e-07
0.000683708
6.57748e-07
0.000683627
9.48789e-07
0.000683482
1.25005e-06
0.00068327
1.59271e-06
0.000682984
1.94174e-06
0.000682622
2.34679e-06
0.000682173
2.75028e-06
0.000681638
3.23164e-06
0.000681002
3.69659e-06
0.000680268
4.27241e-06
0.000679417
4.8047e-06
5.49704e-06
0.000678455
0.000666686
-8.01735e-08
0.000666743
-2.41053e-07
0.000666839
-4.01982e-07
0.000666973
-5.61233e-07
0.000667144
-7.17918e-07
0.000667351
-8.71219e-07
0.000667593
-1.02038e-06
0.000667869
-1.16472e-06
0.000668177
-1.30363e-06
0.000668516
-1.43657e-06
0.000668883
-1.56309e-06
0.000669277
-1.68279e-06
0.000669697
-1.79533e-06
0.00067014
-1.90044e-06
0.000670605
-1.99788e-06
0.000671089
-2.08746e-06
0.000671592
-2.16902e-06
0.000672111
-2.24241e-06
0.000672644
-2.30754e-06
0.00067319
-2.3643e-06
0.000673746
-2.41259e-06
0.000674312
-2.45232e-06
0.000674886
-2.48341e-06
0.000675465
-2.50575e-06
0.000676048
-2.51925e-06
0.000676634
-2.52377e-06
0.00067722
-2.51922e-06
0.000677805
-2.50539e-06
0.000678388
-2.48218e-06
0.000678966
-2.44931e-06
0.000679538
-2.40666e-06
0.000680103
-2.35387e-06
0.000680657
-2.2908e-06
0.000681201
-2.21696e-06
0.000681731
-2.13222e-06
0.000682247
-2.03592e-06
0.000682746
-1.92799e-06
0.000683226
-1.80749e-06
0.000683685
-1.67449e-06
0.000684121
-1.52764e-06
0.000684533
-1.3673e-06
0.000684918
-1.19148e-06
0.000685273
-1.00109e-06
0.000685597
-7.9314e-07
0.000685886
-5.6959e-07
0.00068614
-3.26047e-07
0.000686357
-6.69716e-08
0.000686534
2.20752e-07
0.000686665
5.26984e-07
0.000686751
8.62413e-07
0.000686785
1.21667e-06
0.000686769
1.60808e-06
0.000686693
2.01833e-06
0.000686564
2.47614e-06
0.000686363
2.95081e-06
0.000686107
3.48801e-06
0.000685766
4.03677e-06
0.000685369
4.66958e-06
0.000684872
5.30217e-06
6.0487e-06
0.00068432
0.000666689
-1.02265e-07
0.000666755
-3.0753e-07
0.000666866
-5.12744e-07
0.00066702
-7.15576e-07
0.000667217
-9.14798e-07
0.000667455
-1.10929e-06