/*--------------------------------*- C++ -*----------------------------------*\
| =========                 |                                                 |
| \\      /  F ield         | OpenFOAM: The Open Source CFD Toolbox           |
|  \\    /   O peration     | Version:  2312                                  |
|   \\  /    A nd           | Website:  www.openfoam.com                      |
|    \\/     M anipulation  |                                                 |
\*---------------------------------------------------------------------------*/
FoamFile
{
    version     2.0;
    format      ascii;
    arch        "LSB;label=32;scalar=64";
    class       surfaceScalarField;
    location    "191000";
    object      phi;
}
// * * * * * * * * * * * * * * * * * * * * * * * * * * * * * * * * * * * * * //

dimensions      [0 3 -1 0 0 0 0];

oriented        oriented;

internalField   nonuniform List<scalar> 
21240
(
0.000664976
1.69072e-06
0.000661077
3.89872e-06
0.000655761
5.31588e-06
0.00064953
6.23093e-06
0.00064266
6.86998e-06
0.000635293
7.36776e-06
0.000627518
7.77476e-06
0.000619414
8.10407e-06
0.000611052
8.36169e-06
0.000602496
8.5566e-06
0.000593794
8.70111e-06
0.000584987
8.80751e-06
0.000576102
8.88538e-06
0.000567161
8.94101e-06
0.000558182
8.97815e-06
0.000549183
8.99919e-06
0.000540177
9.0059e-06
0.000531178
8.99974e-06
0.000522196
8.98192e-06
0.000513242
8.95341e-06
0.000504327
8.9149e-06
0.000495461
8.86686e-06
0.000486651
8.80955e-06
0.000477908
8.74315e-06
0.00046924
8.66771e-06
0.000460657
8.58324e-06
0.000452167
8.48974e-06
0.00044378
8.38709e-06
0.000435505
8.2753e-06
0.000427351
8.15415e-06
0.000419327
8.02378e-06
0.000411443
7.8838e-06
0.000403708
7.73467e-06
0.000396133
7.57567e-06
0.000388725
7.40788e-06
0.000381495
7.22991e-06
0.000374451
7.04394e-06
0.000367604
6.84724e-06
0.00036096
6.64406e-06
0.000354531
6.42903e-06
0.00034832
6.21016e-06
0.000342343
5.97706e-06
0.000336599
5.7447e-06
0.000331105
5.49323e-06
0.000325855
5.25042e-06
0.000320876
4.97882e-06
0.000316146
4.72983e-06
0.000311713
4.43323e-06
0.000307529
4.18432e-06
0.000303678
3.85121e-06
0.000300065
3.61271e-06
0.000296849
3.21624e-06
0.000293839
3.00941e-06
0.000291358
2.48089e-06
0.000289016
2.34238e-06
0.000287531
1.48498e-06
0.00028582
1.71077e-06
0.000285783
3.7046e-08
0.000284397
1.38588e-06
-3.07249e-06
0.00028747
0.000667557
8.00177e-07
0.000669125
2.33066e-06
0.000670864
3.57718e-06
0.000672541
4.55368e-06
0.000674077
5.3346e-06
0.000675456
5.98874e-06
0.000676673
6.55775e-06
0.000677717
7.06007e-06
0.000678576
7.50274e-06
0.000679242
7.8902e-06
0.000679715
8.22803e-06
0.000679999
8.52313e-06
0.000680102
8.78246e-06
0.000680032
9.01181e-06
0.000679794
9.21542e-06
0.000679397
9.39613e-06
0.000678847
9.55595e-06
0.000678151
9.69633e-06
0.000677314
9.81858e-06
0.000676344
9.92359e-06
0.000675246
1.00123e-05
0.000674028
1.00851e-05
0.000672695
1.01426e-05
0.000671253
1.01848e-05
0.000669709
1.0212e-05
0.000668069
1.02238e-05
0.000666338
1.02208e-05
0.000664523
1.02019e-05
0.00066263
1.01683e-05
0.000660666
1.01181e-05
0.000658636
1.00532e-05
0.000656549
9.9708e-06
0.00065441
9.87413e-06
0.000652227
9.7586e-06
0.000650005
9.62988e-06
0.000647755
9.4804e-06
0.000645479
9.31983e-06
0.00064319
9.13556e-06
0.00064089
8.94401e-06
0.000638595
8.72405e-06
0.000636302
8.5033e-06
0.000634033
8.24625e-06
0.000631778
7.99932e-06
0.000629569
7.70276e-06
0.000627385
7.43445e-06
0.00062527
7.09389e-06
0.000623188
6.81167e-06
0.000621202
6.41898e-06
0.000619252
6.13454e-06
0.000617428
5.67555e-06
0.000615633
5.40756e-06
0.00061399
4.85874e-06
0.000612362
4.63718e-06
0.000610881
3.96216e-06
0.000609389
3.83445e-06
0.000607889
2.98526e-06
0.00060658
3.01938e-06
0.000604649
1.96875e-06
0.000603801
2.23343e-06
1.04567e-06
0.000599683
0.000666953
5.14123e-07
0.000667825
1.45867e-06
0.000669071
2.33105e-06
0.000670503
3.12134e-06
0.000672012
3.82544e-06
0.00067355
4.45097e-06
0.000675098
5.01016e-06
0.000676644
5.51411e-06
0.000678176
5.97061e-06
0.000679681
6.38453e-06
0.00068115
6.75936e-06
0.000682575
7.09829e-06
0.000683953
7.40478e-06
0.000685282
7.68221e-06
0.000686564
7.93375e-06
0.000687798
8.16189e-06
0.000688985
8.36875e-06
0.000690126
8.5557e-06
0.00069122
8.72409e-06
0.000692269
8.87463e-06
0.000693273
9.00831e-06
0.000694233
9.12536e-06
0.000695149
9.22657e-06
0.000696022
9.31169e-06
0.000696853
9.38144e-06
0.000697642
9.43507e-06
0.000698389
9.47343e-06
0.000699096
9.49521e-06
0.000699762
9.50167e-06
0.00070039
9.49073e-06
0.000700978
9.46445e-06
0.00070153
9.41963e-06
0.000702044
9.35966e-06
0.000702523
9.27966e-06
0.000702968
9.18514e-06
0.00070338
9.06866e-06
0.00070376
8.93897e-06
0.000704111
8.78473e-06
0.000704436
8.61966e-06
0.000704733
8.42643e-06
0.00070501
8.22631e-06
0.000705264
7.99286e-06
0.000705504
7.75868e-06
0.000705723
7.48372e-06
0.00070594
7.21727e-06
0.000706135
6.89939e-06
0.000706343
6.60342e-06
0.000706521
6.2412e-06
0.000706736
5.91968e-06
0.000706899
5.51208e-06
0.000707136
5.17034e-06
0.000707277
4.71787e-06
0.000707552
4.36246e-06
0.000707644
3.86985e-06
0.000707971
3.50795e-06
0.000707965
2.99117e-06
0.000708354
2.63019e-06
0.000708188
2.1347e-06
0.000708649
1.7722e-06
1.39609e-06
0.000708299
0.000666855
3.25497e-07
0.000667314
9.99894e-07
0.000667983
1.66163e-06
0.000668815
2.29011e-06
0.000669764
2.87617e-06
0.000670798
3.41689e-06
0.000671894
3.91383e-06
0.000673038
4.37061e-06
0.000674217
4.7911e-06
0.000675423
5.17846e-06
0.000676648
5.53514e-06
0.000677883
5.86307e-06
0.000679124
6.16414e-06
0.000680366
6.4402e-06
0.000681606
6.69311e-06
0.000682844
6.92458e-06
0.000684076
7.1361e-06
0.000685303
7.32883e-06
0.000686523
7.50379e-06
0.000687736
7.66164e-06
0.000688942
7.80305e-06
0.000690139
7.92837e-06
0.000691327
8.03802e-06
0.000692507
8.13208e-06
0.000693677
8.21082e-06
0.000694838
8.27405e-06
0.00069599
8.32195e-06
0.000697131
8.3541e-06
0.000698262
8.37066e-06
0.000699382
8.37102e-06
0.000700491
8.35535e-06
0.000701588
8.3229e-06
0.000702673
8.27391e-06
0.000703745
8.20749e-06
0.000704807
8.12399e-06
0.000705853
8.02243e-06
0.000706889
7.90322e-06
0.000707908
7.76543e-06
0.000708918
7.60939e-06
0.00070991
7.4345e-06
0.000710896
7.24059e-06
0.000711861
7.02802e-06
0.000712824
6.79527e-06
0.000713763
6.54495e-06
0.000714708
6.27239e-06
0.000715622
5.98497e-06
0.000716554
5.67145e-06
0.000717446
5.34883e-06
0.000718373
4.99274e-06
0.000719247
4.63887e-06
0.000720179
4.23782e-06
0.000721037
3.86042e-06
0.000721988
3.41083e-06
0.000722834
3.02447e-06
0.00072382
2.52111e-06
0.00072466
2.1517e-06
0.000725705
1.58513e-06
0.000726565
1.27449e-06
0.000727713
6.24432e-07
4.32238e-07
0.000728677
0.00066674
2.52164e-07
0.000666976
7.64136e-07
0.000667369
1.26858e-06
0.0006679
1.75854e-06
0.000668548
2.22813e-06
0.000669292
2.67374e-06
0.000670111
3.09392e-06
0.000670993
3.48868e-06
0.000671926
3.85884e-06
0.000672899
4.20542e-06
0.000673904
4.52941e-06
0.000674936
4.83165e-06
0.000675987
5.11296e-06
0.000677053
5.37415e-06
0.00067813
5.61608e-06
0.000679215
5.8396e-06
0.000680306
6.0455e-06
0.0006814
6.23451e-06
0.000682497
6.40716e-06
0.000683594
6.56398e-06
0.000684692
6.70524e-06
0.000685789
6.8313e-06
0.000686885
6.94222e-06
0.000687979
7.03826e-06
0.00068907
7.11925e-06
0.000690159
7.18541e-06
0.000691245
7.23634e-06
0.000692326
7.2723e-06
0.000693405
7.29257e-06
0.000694478
7.2976e-06
0.000695547
7.28629e-06
0.00069661
7.25943e-06
0.000697669
7.21537e-06
0.000698721
7.15553e-06
0.000699768
7.07741e-06
0.000700806
6.98346e-06
0.00070184
6.86986e-06
0.000702865
6.74073e-06
0.000703884
6.59014e-06
0.000704893
6.42494e-06
0.000705898
6.23578e-06
0.000706892
6.03387e-06
0.000707883
5.80443e-06
0.000708862
5.56565e-06
0.000709841
5.29396e-06
0.000710807
5.01885e-06
0.000711776
4.70252e-06
0.000712732
4.39275e-06
0.000713696
4.02864e-06
0.000714647
3.68764e-06
0.000715614
3.27116e-06
0.00071657
2.90478e-06
0.000717552
2.42817e-06
0.000718532
2.04526e-06
0.000719558
1.49465e-06
0.000720601
1.10896e-06
0.000721725
4.61062e-07
0.000722905
9.40894e-08
0.00072419
-6.6051e-07
-9.63294e-07
0.000725586
0.000666726
1.93121e-07
0.000666905
5.8486e-07
0.000667196
9.7759e-07
0.00066759
1.36491e-06
0.000668075
1.74313e-06
0.000668639
2.10928e-06
0.000669272
2.46129e-06
0.000669963
2.79786e-06
0.000670703
3.11836e-06
0.000671486
3.42256e-06
0.000672305
3.71042e-06
0.000673154
3.98207e-06
0.00067403
4.23768e-06
0.000674926
4.47751e-06
0.000675841
4.70183e-06
0.000676769
4.91098e-06
0.00067771
5.10522e-06
0.000678659
5.28488e-06
0.000679616
5.45015e-06
0.000680579
5.6013e-06
0.000681546
5.73834e-06
0.000682516
5.8615e-06
0.000683487
5.97061e-06
0.00068446
6.06587e-06
0.000685432
6.14693e-06
0.000686403
6.21402e-06
0.000687373
6.26654e-06
0.000688341
6.30482e-06
0.000689305
6.32798e-06
0.000690266
6.33657e-06
0.000691223
6.32929e-06
0.000692175
6.30708e-06
0.000693123
6.26806e-06
0.000694064
6.21383e-06
0.000695
6.14164e-06
0.00069593
6.05411e-06
0.000696852
5.94717e-06
0.000697768
5.82503e-06
0.000698677
5.68165e-06
0.000699578
5.52366e-06
0.000700472
5.342e-06
0.000701358
5.14704e-06
0.000702238
4.92504e-06
0.000703111
4.69216e-06
0.000703978
4.42744e-06
0.000704841
4.15599e-06
0.000705698
3.84556e-06
0.000706555
3.53531e-06
0.000707408
3.17521e-06
0.00070827
2.82656e-06
0.000709129
2.4114e-06
0.000710008
2.02643e-06
0.000710886
1.54966e-06
0.000711797
1.13453e-06
0.000712703
5.8886e-07
0.000713655
1.56842e-07
0.000714608
-4.91896e-07
0.000715652
-9.50089e-07
0.000716712
-1.72018e-06
-2.16332e-06
0.000717912
0.00066671
1.49854e-07
0.000666839
4.5549e-07
0.000667052
7.64433e-07
0.000667345
1.07226e-06
0.000667712
1.37644e-06
0.000668146
1.67484e-06
0.000668642
1.9657e-06
0.000669192
2.24769e-06
0.00066979
2.51993e-06
0.000670431
2.78199e-06
0.000671109
3.03259e-06
0.000671819
3.27141e-06
0.000672559
3.49843e-06
0.000673323
3.71358e-06
0.000674108
3.91674e-06
0.000674911
4.1079e-06
0.000675729
4.28698e-06
0.00067656
4.45402e-06
0.000677401
4.60892e-06
0.000678251
4.7517e-06
0.000679107
4.88222e-06
0.000679968
5.00046e-06
0.000680832
5.10616e-06
0.000681699
5.19933e-06
0.000682566
5.27956e-06
0.000683433
5.34689e-06
0.000684299
5.40074e-06
0.000685163
5.44125e-06
0.000686023
5.46762e-06
0.00068688
5.48014e-06
0.000687731
5.47772e-06
0.000688577
5.46093e-06
0.000689417
5.42825e-06
0.00069025
5.3807e-06
0.000691076
5.31618e-06
0.000691893
5.23636e-06
0.000692702
5.13826e-06
0.000693503
5.02459e-06
0.000694293
4.89104e-06
0.000695075
4.74188e-06
0.000695846
4.57085e-06
0.000696609
4.38454e-06
0.00069736
4.17372e-06
0.000698104
3.94853e-06
0.000698836
3.69525e-06
0.000699563
3.42947e-06
0.000700278
3.13054e-06
0.00070099
2.82257e-06
0.000701691
2.47425e-06
0.000702395
2.12307e-06
0.000703086
1.72055e-06
0.000703787
1.32482e-06
0.000704478
8.58718e-07
0.000705199
4.13463e-07
0.000705921
-1.32988e-07
0.000706696
-6.18402e-07
0.000707454
-1.24998e-06
0.000708289
-1.78474e-06
0.00070911
-2.54154e-06
-3.11139e-06
0.000710058
0.0006667
1.16347e-07
0.000666801
3.54703e-07
0.000666968
5.97359e-07
0.000667199
8.41259e-07
0.000667491
1.08468e-06
0.00066784
1.32606e-06
0.000668241
1.56406e-06
0.000668691
1.79749e-06
0.000669186
2.02539e-06
0.000669721
2.24692e-06
0.000670292
2.46132e-06
0.000670896
2.66797e-06
0.000671528
2.86643e-06
0.000672185
3.05637e-06
0.000672864
3.23747e-06
0.000673563
3.40948e-06
0.000674277
3.57212e-06
0.000675006
3.72517e-06
0.000675747
3.86835e-06
0.000676497
4.00149e-06
0.000677255
4.12428e-06
0.000678019
4.23656e-06
0.000678787
4.33796e-06
0.000679558
4.42833e-06
0.00068033
4.50723e-06
0.000681103
4.5745e-06
0.000681874
4.62963e-06
0.000682643
4.67251e-06
0.000683408
4.70249e-06
0.000684168
4.71953e-06
0.000684923
4.72281e-06
0.000685672
4.71247e-06
0.000686413
4.68744e-06
0.000687145
4.64805e-06
0.000687868
4.59296e-06
0.000688582
4.5228e-06
0.000689285
4.43578e-06
0.000689976
4.33299e-06
0.000690655
4.21205e-06
0.000691322
4.07466e-06
0.000691976
3.91761e-06
0.000692617
3.7435e-06
0.000693242
3.54788e-06
0.000693856
3.3347e-06
0.000694454
3.09772e-06
0.00069504
2.84283e-06
0.00069561
2.56113e-06
0.000696171
2.26149e-06
0.000696714
1.93092e-06
0.000697254
1.58296e-06
0.000697777
1.1984e-06
0.000698303
7.98832e-07
0.000698805
3.55824e-07
0.000699314
-9.47341e-08
0.0006998
-6.19429e-07
0.000700324
-1.14266e-06
0.000700822
-1.74736e-06
0.000701373
-2.33628e-06
0.000701875
-3.04317e-06
-3.69819e-06
0.000702462
0.000666694
8.88215e-08
0.000666777
2.72192e-07
0.000666914
4.60481e-07
0.000667103
6.51501e-07
0.000667344
8.44037e-07
0.000667633
1.03695e-06
0.000667968
1.2292e-06
0.000668346
1.41982e-06
0.000668763
1.60793e-06
0.000669217
1.79275e-06
0.000669705
1.97359e-06
0.000670223
2.14982e-06
0.000670769
2.32089e-06
0.000671339
2.48629e-06
0.000671931
2.64558e-06
0.000672542
2.79836e-06
0.00067317
2.94422e-06
0.000673812
3.08279e-06
0.000674467
3.21369e-06
0.000675132
3.33658e-06
0.000675805
3.45108e-06
0.000676485
3.55688e-06
0.000677169
3.65356e-06
0.000677856
3.7408e-06
0.000678545
3.81819e-06
0.000679235
3.8854e-06
0.000679922
3.94195e-06
0.000680607
3.98754e-06
0.000681288
4.02164e-06
0.000681964
4.04396e-06
0.000682633
4.05391e-06
0.000683294
4.05123e-06
0.000683946
4.03526e-06
0.000684588
4.00577e-06
0.000685219
3.96203e-06
0.000685838
3.90383e-06
0.000686444
3.83037e-06
0.000687035
3.74146e-06
0.000687611
3.63622e-06
0.000688171
3.5144e-06
0.000688714
3.37513e-06
0.000689239
3.218e-06
0.000689745
3.04222e-06
0.000690232
2.84704e-06
0.000690698
2.63193e-06
0.000691146
2.39551e-06
0.000691569
2.1378e-06
0.000691974
1.85636e-06
0.000692353
1.55222e-06
0.000692714
1.22131e-06
0.000693047
8.66192e-07
0.000693365
4.80436e-07
0.000693651
6.96302e-08
0.000693939
-3.82304e-07
0.000694186
-8.66358e-07
0.000694436
-1.39256e-06
0.000694641
-1.95252e-06
0.000694866
-2.56171e-06
0.000695035
-3.21208e-06
-3.91373e-06
0.000695251
0.00066669
6.55485e-08
0.00066676
2.02514e-07
0.000666875
3.44834e-07
0.000667036
4.90934e-07
0.00066724
6.39938e-07
0.000667486
7.91009e-07
0.000667772
9.43344e-07
0.000668095
1.09618e-06
0.000668454
1.24879e-06
0.000668847
1.4005e-06
0.00066927
1.55067e-06
0.000669721
1.69868e-06
0.000670198
1.84397e-06
0.000670698
1.98602e-06
0.000671219
2.1243e-06
0.000671759
2.25834e-06
0.000672316
2.38767e-06
0.000672887
2.51184e-06
0.00067347
2.63041e-06
0.000674064
2.74294e-06
0.000674666
2.84899e-06
0.000675275
2.94816e-06
0.000675888
3.04001e-06
0.000676505
3.12411e-06
0.000677123
3.20004e-06
0.000677741
3.26737e-06
0.000678357
3.32565e-06
0.00067897
3.37443e-06
0.000679579
3.41329e-06
0.000680181
3.44175e-06
0.000680775
3.45938e-06
0.000681361
3.46566e-06
0.000681936
3.46022e-06
0.000682499
3.44245e-06
0.000683049
3.41207e-06
0.000683585
3.36829e-06
0.000684104
3.31101e-06
0.000684607
3.23916e-06
0.00068509
3.15295e-06
0.000685553
3.0508e-06
0.000685995
2.93349e-06
0.000686414
2.79855e-06
0.000686809
2.64775e-06
0.000687179
2.47716e-06
0.000687521
2.29021e-06
0.000687836
2.08056e-06
0.000688119
1.85442e-06
0.000688374
1.60156e-06
0.000688593
1.33268e-06
0.000688783
1.03148e-06
0.000688933
7.15955e-07
0.000689053
3.60689e-07
0.000689123
-6.63881e-10
0.000689169
-4.28041e-07
0.000689162
-8.59271e-07
0.00068913
-1.36025e-06
0.000689035
-1.85772e-06
0.000688922
-2.44929e-06
0.000688732
-3.02181e-06
-3.72034e-06
0.000688539
0.000666687
4.53814e-08
0.000666747
1.42159e-07
0.000666847
2.44613e-07
0.000666987
3.51637e-07
0.000667164
4.62603e-07
0.000667378
5.76897e-07
0.000667628
6.93916e-07
0.000667911
8.13062e-07
0.000668226
9.3375e-07
0.000668571
1.0554e-06
0.000668944
1.17745e-06
0.000669343
1.29935e-06
0.000669767
1.42056e-06
0.000670212
1.54056e-06
0.000670678
1.65883e-06
0.000671161
1.77488e-06
0.000671661
1.88821e-06
0.000672174
1.99834e-06
0.0006727
2.10479e-06
0.000673236
2.2071e-06
0.00067378
2.3048e-06
0.000674331
2.39742e-06
0.000674886
2.48452e-06
0.000675445
2.56561e-06
0.000676004
2.64026e-06
0.000676564
2.70798e-06
0.000677121
2.76836e-06
0.000677675
2.82088e-06
0.000678223
2.86514e-06
0.000678764
2.90059e-06
0.000679296
2.92691e-06
0.000679819
2.94344e-06
0.000680329
2.94998e-06
0.000680826
2.94573e-06
0.000681307
2.93066e-06
0.000681771
2.90372e-06
0.000682217
2.86521e-06
0.000682643
2.81361e-06
0.000683046
2.74974e-06
0.000683425
2.67138e-06
0.000683779
2.5802e-06
0.000684105
2.47274e-06
0.0006844
2.35213e-06
0.000684664
2.21289e-06
0.000684894
2.06052e-06
0.000685088
1.88629e-06
0.000685243
1.69956e-06
0.000685358
1.48637e-06
0.000685429
1.26234e-06
0.000685455
1.0052e-06
0.00068543
7.4064e-07
0.000685358
4.33404e-07
0.000685231
1.25825e-07
0.000685045
-2.41781e-07
0.000684792
-6.05961e-07
0.000684482
-1.05085e-06
0.000684094
-1.46965e-06
0.000683648
-2.00299e-06
0.000683108
-2.48165e-06
-3.12343e-06
0.000682511
0.000666685
2.75028e-08
0.000666738
8.86485e-08
0.000666827
1.55697e-07
0.000666951
2.27929e-07
0.000667108
3.04914e-07
0.000667299
3.86217e-07
0.000667522
4.71393e-07
0.000667775
5.59989e-07
0.000668057
6.51542e-07
0.000668367
7.45577e-07
0.000668703
8.41615e-07
0.000669063
9.3917e-07
0.000669445
1.03776e-06
0.000669849
1.1369e-06
0.000670272
1.23611e-06
0.000670712
1.3349e-06
0.000671167
1.43278e-06
0.000671636
1.52928e-06
0.000672117
1.62393e-06
0.000672608
1.71622e-06
0.000673107
1.80572e-06
0.000673613
1.89192e-06
0.000674123
1.97437e-06
0.000674636
2.05259e-06
0.00067515
2.12614e-06
0.000675663
2.19452e-06
0.000676174
2.25732e-06
0.000676681
2.31401e-06
0.000677182
2.36423e-06
0.000677675
2.4074e-06
0.000678159
2.44326e-06
0.000678631
2.47113e-06
0.00067909
2.4909e-06
0.000679534
2.50171e-06
0.000679961
2.50369e-06
0.000680369
2.49572e-06
0.000680756
2.47826e-06
0.00068112
2.44976e-06
0.000681459
2.41124e-06
0.00068177
2.36039e-06
0.000682051
2.29917e-06
0.000682299
2.22402e-06
0.000682513
2.13841e-06
0.000682689
2.03673e-06
0.000682825
1.92491e-06
0.000682917
1.79406e-06
0.000682963
1.65405e-06
0.000682958
1.49068e-06
0.000682901
1.32021e-06
0.000682786
1.12e-06
0.00068261
9.16542e-07
0.000682369
6.73823e-07
0.00068206
4.34914e-07
0.000681675
1.4337e-07
0.000681201
-1.32005e-07
0.000680642
-4.91978e-07
0.000679988
-8.15508e-07
0.000679236
-1.25098e-06
0.000678374
-1.61927e-06
-2.15072e-06
0.000677401
0.000666683
1.12953e-08
0.000666731
4.00725e-08
0.000666812
7.49093e-08
0.000666925
1.15399e-07
0.000667068
1.61302e-07
0.000667242
2.12325e-07
0.000667446
2.68159e-07
0.000667677
3.28477e-07
0.000667936
3.92928e-07
0.00066822
4.61137e-07
0.000668529
5.32713e-07
0.000668861
6.07247e-07
0.000669214
6.84323e-07
0.000669588
7.63508e-07
0.000669979
8.44367e-07
0.000670388
9.26448e-07
0.000670811
1.0093e-06
0.000671248
1.09246e-06
0.000671697
1.17548e-06
0.000672155
1.25789e-06
0.000672622
1.33923e-06
0.000673094
1.41904e-06
0.000673572
1.49686e-06
0.000674052
1.57223e-06
0.000674534
1.64473e-06
0.000675014
1.71385e-06
0.000675492
1.77922e-06
0.000675966
1.84032e-06
0.000676434
1.89682e-06
0.000676893
1.94818e-06
0.000677342
1.99415e-06
0.000677779
2.03413e-06
0.000678202
2.068e-06
0.000678608
2.09505e-06
0.000678997
2.11535e-06
0.000679364
2.128e-06
0.000679709
2.13337e-06
0.000680029
2.13022e-06
0.000680321
2.11941e-06
0.000680582
2.09909e-06
0.00068081
2.07091e-06
0.000681002
2.03203e-06
0.000681155
1.98534e-06
0.000681266
1.92638e-06
0.000681331
1.86006e-06
0.000681345
1.77926e-06
0.000681307
1.69213e-06
0.000681211
1.5873e-06
0.000681053
1.47807e-06
0.000680827
1.34629e-06
0.00068053
1.21353e-06
0.000680153
1.05081e-06
0.000679695
8.92895e-07
0.000679144
6.93499e-07
0.000678504
5.08357e-07
0.000677747
2.64765e-07
0.000676877
5.48398e-08
0.000675871
-2.44636e-07
0.00067474
-4.88541e-07
-8.61009e-07
0.00067345
0.000666682
-3.89243e-09
0.000666727
-5.13614e-09
0.000666802
-1.65248e-10
0.000666907
1.03712e-08
0.000667041
2.70799e-08
0.000667204
4.96046e-08
0.000667395
7.77401e-08
0.000667612
1.11264e-07
0.000667855
1.49929e-07
0.000668122
1.93457e-07
0.000668414
2.41544e-07
0.000668727
2.93862e-07
0.000669061
3.50068e-07
0.000669415
4.09801e-07
0.000669787
4.7268e-07
0.000670175
5.38305e-07
0.000670578
6.06266e-07
0.000670994
6.76141e-07
0.000671422
7.47512e-07
0.00067186
8.19941e-07
0.000672306
8.93002e-07
0.000672759
9.66251e-07
0.000673217
1.03927e-06
0.000673677
1.1116e-06
0.000674139
1.18285e-06
0.0006746
1.25257e-06
0.000675059
1.32038e-06
0.000675514
1.38585e-06
0.000675962
1.44864e-06
0.000676402
1.50829e-06
0.000676831
1.56455e-06
0.000677249
1.61696e-06
0.000677651
1.66535e-06
0.000678037
1.70923e-06
0.000678404
1.74857e-06
0.000678749
1.7828e-06
0.00067907
1.8121e-06
0.000679365
1.8357e-06
0.00067963
1.85413e-06
0.000679863
1.8663e-06
0.000680061
1.87322e-06
0.000680219
1.87326e-06
0.000680337
1.86819e-06
0.000680407
1.8555e-06
0.000680429
1.83812e-06
0.000680397
1.81208e-06
0.000680306
1.78217e-06
0.000680152
1.74204e-06
0.00067993
1.69945e-06
0.000679632
1.64422e-06
0.000679257
1.58879e-06
0.000678791
1.51694e-06
0.000678235
1.44854e-06
0.000677571
1.35777e-06
0.000676803
1.27641e-06
0.000675904
1.16338e-06
0.00067489
1.06893e-06
0.000673718
9.27329e-07
0.00067241
8.19725e-07
6.43838e-07
0.000670905
0.000666681
-1.82659e-08
0.000666725
-4.86428e-08
0.000666797
-7.27064e-08
0.000666898
-9.04587e-08
0.000667027
-1.01822e-07
0.000667183
-1.06865e-07
0.000667367
-1.05609e-07
0.000667576
-9.81703e-08
0.000667811
-8.46955e-08
0.00066807
-6.53632e-08
0.000668351
-4.03641e-08
0.000668655
-9.99114e-09
0.00066898
2.55112e-08
0.000669324
6.58643e-08
0.000669686
1.10731e-07
0.000670064
1.59776e-07
0.000670458
2.12648e-07
0.000670865
2.68986e-07
0.000671284
3.28386e-07
0.000671714
3.90466e-07
0.000672152
4.54835e-07
0.000672597
5.21095e-07
0.000673047
5.8885e-07
0.000673501
6.57703e-07
0.000673957
7.27256e-07
0.000674412
7.9713e-07
0.000674866
8.66952e-07
0.000675315
9.36375e-07
0.000675759
1.00506e-06
0.000676194
1.0727e-06
0.00067662
1.13898e-06
0.000677033
1.20362e-06
0.000677432
1.26639e-06
0.000677814
1.32707e-06
0.000678178
1.38548e-06
0.000678519
1.44145e-06
0.000678836
1.49489e-06
0.000679126
1.54567e-06
0.000679386
1.59382e-06
0.000679613
1.63921e-06
0.000679805
1.68199e-06
0.000679956
1.72208e-06
0.000680064
1.75977e-06
0.000680125
1.79493e-06
0.000680135
1.82807e-06
0.000680088
1.85896e-06
0.000679982
1.88836e-06
0.000679808
1.91589e-06
0.000679565
1.9426e-06
0.000679241
1.96787e-06
0.000678837
1.99314e-06
0.000678336
2.01748e-06
0.000677742
2.04273e-06
0.000677032
2.06765e-06
0.000676214
2.0944e-06
0.000675256
2.12155e-06
0.000674174
2.15125e-06
0.000672919
2.18243e-06
0.000671522
2.21678e-06
2.25469e-06
0.000669911
0.000666681
-3.25255e-08
0.000666724
-9.1357e-08
0.000666795
-1.43982e-07
0.000666894
-1.90032e-07
0.000667022
-2.29372e-07
0.000667177
-2.61894e-07
0.000667359
-2.8752e-07
0.000667567
-3.0623e-07
0.0006678
-3.18061e-07
0.000668058
-3.23131e-07
0.000668339
-3.2152e-07
0.000668643
-3.13376e-07
0.000668967
-2.98892e-07
0.000669311
-2.78299e-07
0.000669674
-2.51838e-07
0.000670053
-2.19806e-07
0.000670449
-1.82602e-07
0.000670858
-1.40223e-07
0.00067128
-9.33872e-08
0.000671712
-4.22422e-08
0.000672154
1.28009e-08
0.000672604
7.13575e-08
0.00067306
1.3309e-07
0.00067352
1.97678e-07
0.000673982
2.64754e-07
0.000674446
3.34024e-07
0.000674907
4.05102e-07
0.000675366
4.77715e-07
0.00067582
5.51531e-07
0.000676266
6.26355e-07
0.000676703
7.01868e-07
0.000677129
7.77986e-07
0.000677541
8.54394e-07
0.000677937
9.31138e-07
0.000678314
1.00789e-06
0.000678671
1.0849e-06
0.000679004
1.1618e-06
0.00067931
1.23911e-06
0.000679588
1.31633e-06
0.000679833
1.39434e-06
0.000680042
1.47243e-06
0.000680212
1.552e-06
0.00068034
1.63196e-06
0.000680421
1.71445e-06
0.000680451
1.79767e-06
0.000680425
1.88498e-06
0.00068034
1.97331e-06
0.000680188
2.06795e-06
0.000679967
2.16366e-06
0.000679666
2.26885e-06
0.000679285
2.37462e-06
0.000678808
2.49449e-06
0.000678237
2.61335e-06
0.000677551
2.75317e-06
0.000676757
2.88838e-06
0.000675824
3.05504e-06
0.000674765
3.20979e-06
0.000673535
3.41238e-06
0.000672163
3.58909e-06
3.83944e-06
0.000670578
0.000666681
-4.69419e-08
0.000666725
-1.3479e-07
0.000666797
-2.1657e-07
0.000666899
-2.91588e-07
0.000667029
-3.59561e-07
0.000667187
-4.20252e-07
0.000667373
-4.73471e-07
0.000667586
-5.1908e-07
0.000667825
-5.57005e-07
0.000668089
-5.87222e-07
0.000668377
-6.09753e-07
0.000668689
-6.24657e-07
0.000669022
-6.32039e-07
0.000669375
-6.32056e-07
0.000669749
-6.24912e-07
0.00067014
-6.10797e-07
0.000670547
-5.89955e-07
0.000670969
-5.62697e-07
0.000671405
-5.29372e-07
0.000671853
-4.90133e-07
0.000672311
-4.45454e-07
0.000672778
-3.9553e-07
0.000673252
-3.40759e-07
0.000673731
-2.81405e-07
0.000674214
-2.17907e-07
0.000674698
-1.50281e-07
0.000675182
-7.90842e-08
0.000675665
-4.4487e-09
0.000676143
7.34423e-08
0.000676615
1.54258e-07
0.000677079
2.37767e-07
0.000677533
3.24042e-07
0.000677975
4.12736e-07
0.000678401
5.04156e-07
0.000678812
5.97842e-07
0.000679202
6.94337e-07
0.000679571
7.93121e-07
0.000679915
8.95206e-07
0.000680231
9.99794e-07
0.000680517
1.10844e-06
0.00068077
1.21992e-06
0.000680985
1.33673e-06
0.00068116
1.4568e-06
0.000681291
1.58397e-06
0.000681373
1.71482e-06
0.000681403
1.85533e-06
0.000681377
1.99978e-06
0.000681287
2.15755e-06
0.000681132
2.31904e-06
0.000680901
2.4991e-06
0.000680594
2.68167e-06
0.000680198
2.8905e-06
0.000679713
3.09876e-06
0.000679121
3.3448e-06
0.000678426
3.58375e-06
0.000677603
3.8781e-06
0.00067666
4.15266e-06
0.000675562
4.51002e-06
0.000674328
4.82371e-06
5.26307e-06
0.000672904
0.000666682
-6.20577e-08
0.000666727
-1.80392e-07
0.000666804
-2.92833e-07
0.00066691
-3.98354e-07
0.000667047
-4.96512e-07
0.000667214
-5.86928e-07
0.00066741
-6.69279e-07
0.000667634
-7.43299e-07
0.000667886
-8.08787e-07
0.000668164
-8.65601e-07
0.000668468
-9.13669e-07
0.000668796
-9.52966e-07
0.000669148
-9.83524e-07
0.000669521
-1.00542e-06
0.000669915
-1.01878e-06
0.000670328
-1.02377e-06
0.000670759
-1.02061e-06
0.000671206
-1.00953e-06
0.000671667
-9.90795e-07
0.000672142
-9.64661e-07
0.000672628
-9.31438e-07
0.000673123
-8.91387e-07
0.000673627
-8.4483e-07
0.000674138
-7.92005e-07
0.000674653
-7.33219e-07
0.000675172
-6.68694e-07
0.000675691
-5.98771e-07
0.000676211
-5.23574e-07
0.000676727
-4.43412e-07
0.00067724
-3.58383e-07
0.000677747
-2.68636e-07
0.000678245
-1.74104e-07
0.000678733
-7.5216e-08
0.000679208
2.90621e-08
0.000679668
1.3758e-07
0.000680111
2.51333e-07
0.000680534
3.6978e-07
0.000680935
4.94097e-07
0.000681312
6.23419e-07
0.000681661
7.59596e-07
0.000681979
9.01321e-07
0.000682264
1.0516e-06
0.000682513
1.20814e-06
0.000682722
1.37539e-06
0.000682887
1.54959e-06
0.000683005
1.73763e-06
0.000683071
1.9332e-06
0.000683082
2.14697e-06
0.000683032
2.36837e-06
0.000682917
2.61417e-06
0.000682732
2.86667e-06
0.00068247
3.15259e-06
0.000682127
3.4423e-06
0.000681693
3.77882e-06
0.000681164
4.1125e-06
0.000680529
4.51334e-06
0.000679783
4.8979e-06
0.000678912
5.38106e-06
0.000677914
5.82195e-06
6.41022e-06
0.000676767
0.000666683
-7.84074e-08
0.000666732
-2.29776e-07
0.000666815
-3.75475e-07
0.000666931
-5.14104e-07
0.000667079
-6.45025e-07
0.00066726
-7.6768e-07
0.000667472
-8.8158e-07
0.000667715
-9.86309e-07
0.000667988
-1.08153e-06
0.00066829
-1.16701e-06
0.000668618
-1.24255e-06
0.000668973
-1.30806e-06
0.000669353
-1.3635e-06
0.000669757
-1.4089e-06
0.000670183
-1.44434e-06
0.000670629
-1.46994e-06
0.000671094
-1.4859e-06
0.000671577
-1.49239e-06
0.000672076
-1.48968e-06
0.000672589
-1.47799e-06
0.000673115
-1.45761e-06
0.000673653
-1.42878e-06
0.0006742
-1.39181e-06
0.000674755
-1.34692e-06
0.000675316
-1.29444e-06
0.000675882
-1.23452e-06
0.00067645
-1.16744e-06
0.00067702
-1.0933e-06
0.000677589
-1.01239e-06
0.000678155
-9.2471e-07
0.000678717
-8.30536e-07
0.000679273
-7.29704e-07
0.00067982
-6.22461e-07
0.000680357
-5.08417e-07
0.000680883
-3.879e-07
0.000681395
-2.60326e-07
0.00068189
-1.2603e-07
0.000682367
1.70935e-08
0.000682823
1.67855e-07
0.000683255
3.27541e-07
0.000683661
4.95633e-07
0.000684038
6.74646e-07
0.000684383
8.62881e-07
0.000684694
1.06405e-06
0.000684968
1.27589e-06
0.000685202
1.50379e-06
0.000685391
1.74367e-06
0.000685535
2.00379e-06
0.000685626
2.27713e-06
0.000685664
2.57637e-06
0.000685641
2.88947e-06
0.000685557
3.23649e-06
0.000685402
3.59686e-06
0.000685178
4.00286e-06
0.000684872
4.4191e-06
0.000684487
4.89843e-06
0.000684005
5.37979e-06
0.000683435
5.95088e-06
0.000682751
6.5058e-06
7.19119e-06
0.00068197
0.000666685
-9.66444e-08
0.00066674
-2.84923e-07
0.000666832
-4.67787e-07
0.000666962
-6.43377e-07
0.000667127
-8.10806e-07
0.000667329
-9.69293e-07
0.000667566
-1.11814e-06
0.000667836
-1.25677e-06
0.000668139
-1.38468e-06
0.000668474
-1.50153e-06
0.000668838
-1.60704e-06
0.000669231
-1.70103e-06
0.000669651
-1.78343e-06
0.000670096
-1.85422e-06
0.000670566
-1.91346e-06
0.000671057
-1.96127e-06
0.000671569
-1.99781e-06
0.0006721
-2.0233e-06
0.000672648
-2.03798e-06
0.000673212
-2.04207e-06
0.00067379
-2.03587e-06
0.000674381
-2.01963e-06
0.000674983
-1.99364e-06
0.000675594
-1.95814e-06
0.000676213
-1.91341e-06
0.000676838
-1.85964e-06
0.000677468
-1.7971e-06
0.000678101
-1.72592e-06
0.000678735
-1.64632e-06
0.000679368
-1.55833e-06
0.00068
-1.46206e-06
0.000680627
-1.35745e-06
0.00068125
-1.24451e-06
0.000681864
-1.12306e-06
0.000682469
-9.93012e-07
0.000683063
-8.54031e-07
0.000683643
-7.06006e-07
0.000684209
-5.48511e-07
0.000684758
-3.81394e-07
0.000685289
-2.0411e-07
0.000685801
-1.63223e-08
0.000686289
1.87015e-07
0.000686751
4.01302e-07
0.000687185
6.29411e-07
0.000687589
8.72407e-07
0.000687961
1.13128e-06
0.000688297
1.40758e-06
0.000688598
1.70283e-06
0.000688857
2.01881e-06
0.000689076
2.35711e-06
0.000689246
2.71981e-06
0.000689373
3.10943e-06
0.000689442
3.52778e-06
0.000689465
3.97924e-06
0.000689421
4.46373e-06
0.000689329
4.98994e-06
0.000689156
5.55247e-06
0.000688938
6.16934e-06
0.000688622
6.82225e-06
7.54784e-06
0.000688265
0.000666688
-1.17615e-07
0.000666751
-3.48396e-07
0.000666857
-5.74019e-07
0.000667006
-7.92023e-07
0.000667196
-1.00118e-06
0.000667427
-1.20041e-06
0.000667698
-1.38876e-06
0.000668007
-1.56542e-06
0.000668352
-1.72976e-06
0.000668732
-1.88129e-06
0.000669144
-2.01967e-06
0.000669588
-2.14468e-06
0.000670061