/*--------------------------------*- C++ -*----------------------------------*\
| =========                 |                                                 |
| \\      /  F ield         | OpenFOAM: The Open Source CFD Toolbox           |
|  \\    /   O peration     | Version:  2312                                  |
|   \\  /    A nd           | Website:  www.openfoam.com                      |
|    \\/     M anipulation  |                                                 |
\*---------------------------------------------------------------------------*/
FoamFile
{
    version     2.0;
    format      ascii;
    arch        "LSB;label=32;scalar=64";
    class       surfaceScalarField;
    location    "67000";
    object      phi;
}
// * * * * * * * * * * * * * * * * * * * * * * * * * * * * * * * * * * * * * //

dimensions      [0 3 -1 0 0 0 0];

oriented        oriented;

internalField   nonuniform List<scalar> 
21240
(
0.000664974
1.69224e-06
0.000661072
3.90236e-06
0.000655751
5.32078e-06
0.000649515
6.23626e-06
0.00064264
6.87491e-06
0.000635269
7.37142e-06
0.000627492
7.77625e-06
0.00061939
8.10247e-06
0.000611034
8.35608e-06
0.000602488
8.54606e-06
0.000593803
8.68471e-06
0.000585019
8.78434e-06
0.000576164
8.85458e-06
0.000567262
8.90174e-06
0.000558333
8.92964e-06
0.000549392
8.94073e-06
0.000540455
8.93686e-06
0.000531536
8.91958e-06
0.000522645
8.89022e-06
0.000513796
8.84985e-06
0.000504996
8.7993e-06
0.000496257
8.73915e-06
0.000487587
8.66981e-06
0.000478996
8.5916e-06
0.000470491
8.50472e-06
0.000462082
8.4093e-06
0.000453776
8.30548e-06
0.000445583
8.19326e-06
0.00043751
8.07276e-06
0.000429566
7.94384e-06
0.00042176
7.80673e-06
0.000414099
7.66106e-06
0.000406591
7.50734e-06
0.000399246
7.34481e-06
0.000392072
7.17454e-06
0.000385077
6.99503e-06
0.000378268
6.80845e-06
0.000371657
6.61185e-06
0.000365247
6.40943e-06
0.000359052
6.19555e-06
0.000353073
5.9782e-06
0.000347327
5.74663e-06
0.000341811
5.51578e-06
0.000336545
5.26554e-06
0.000331522
5.02349e-06
0.00032677
4.75226e-06
0.000322267
4.50259e-06
0.000318062
4.20521e-06
0.000314108
3.95367e-06
0.000310489
3.61876e-06
0.000307114
3.37567e-06
0.000304137
2.97686e-06
0.000301372
2.76518e-06
0.000299137
2.23473e-06
0.000297022
2.1149e-06
0.000295782
1.23964e-06
0.00029431
1.47234e-06
0.000294527
-2.1733e-07
0.000293373
1.1546e-06
-3.20767e-06
0.00029658
0.000667556
8.02944e-07
0.00066912
2.33782e-06
0.000670854
3.58731e-06
0.000672525
4.56523e-06
0.000674054
5.34598e-06
0.000675427
5.99833e-06
0.000676639
6.56393e-06
0.000677681
7.06118e-06
0.00067854
7.49713e-06
0.000679209
7.87622e-06
0.00067969
8.20407e-06
0.000679987
8.4876e-06
0.000680108
8.73384e-06
0.000680061
8.94863e-06
0.000679854
9.1363e-06
0.000679495
9.29978e-06
0.000678991
9.44121e-06
0.000678348
9.56216e-06
0.000677574
9.6641e-06
0.000676676
9.74807e-06
0.00067566
9.81519e-06
0.000674533
9.86601e-06
0.000673302
9.90137e-06
0.000671972
9.92132e-06
0.00067055
9.92661e-06
0.000669042
9.91681e-06
0.000667455
9.89284e-06
0.000665795
9.85372e-06
0.000664067
9.80078e-06
0.000662278
9.73229e-06
0.000660435
9.65036e-06
0.000658544
9.5521e-06
0.00065661
9.44102e-06
0.000654642
9.31237e-06
0.000652645
9.17201e-06
0.000650628
9.01212e-06
0.000648594
8.84255e-06
0.000646555
8.65038e-06
0.000644512
8.45206e-06
0.000642482
8.22623e-06
0.00064046
8.00025e-06
0.000638468
7.73883e-06
0.000636496
7.48729e-06
0.000634574
7.18727e-06
0.000632684
6.91382e-06
0.000630866
6.57037e-06
0.000629087
6.28111e-06
0.000627406
5.88632e-06
0.000625769
5.59124e-06
0.000624255
5.1322e-06
0.000622783
4.84767e-06
0.000621456
4.30391e-06
0.000620165
4.05637e-06
0.000619003
3.39713e-06
0.00061789
3.22751e-06
0.000616716
2.41324e-06
0.000615812
2.37657e-06
0.000614206
1.38904e-06
0.000613826
1.53473e-06
4.42109e-07
0.000610176
0.000666951
5.18649e-07
0.000667819
1.47014e-06
0.000669059
2.34727e-06
0.000670484
3.14014e-06
0.000671985
3.84458e-06
0.000673515
4.46825e-06
0.000675056
5.02336e-06
0.000676596
5.52103e-06
0.000678124
5.96906e-06
0.000679628
6.37237e-06
0.000681097
6.73449e-06
0.000682526
7.05869e-06
0.000683912
7.34849e-06
0.000685253
7.60736e-06
0.000686551
7.83859e-06
0.000687806
8.04479e-06
0.000689019
8.2282e-06
0.000690191
8.39036e-06
0.000691322
8.53276e-06
0.000692414
8.6563e-06
0.000693467
8.76215e-06
0.000694482
8.85072e-06
0.00069546
8.92302e-06
0.000696403
8.97896e-06
0.00069731
9.01951e-06
0.000698183
9.04406e-06
0.000699022
9.05374e-06
0.000699828
9.04732e-06
0.000700602
9.02636e-06
0.000701346
8.9888e-06
0.000702059
8.93698e-06
0.000702744
8.86771e-06
0.0007034
8.78454e-06
0.00070403
8.68265e-06
0.000704634
8.5675e-06
0.000705215
8.43187e-06
0.000705773
8.28412e-06
0.00070631
8.11346e-06
0.00070683
7.93255e-06
0.00070733
7.72549e-06
0.000707819
7.5111e-06
0.000708292
7.26614e-06
0.000708761
7.0183e-06
0.000709214
6.73396e-06
0.000709675
6.45312e-06
0.000710117
6.12807e-06
0.000710583
5.81527e-06
0.000711021
5.44855e-06
0.000711507
5.10542e-06
0.000711942
4.69703e-06
0.000712464
4.32547e-06
0.000712891
3.8775e-06
0.000713468
3.47926e-06
0.000713866
2.9991e-06
0.000714518
2.57538e-06
0.000714848
2.08351e-06
0.00071559
1.63415e-06
0.000715798
1.18081e-06
0.000716639
6.93997e-07
3.80975e-07
0.0007167
0.000666854
3.31489e-07
0.000667309
1.01534e-06
0.000667972
1.68389e-06
0.000668796
2.31643e-06
0.000669737
2.90376e-06
0.000670762
3.44297e-06
0.00067185
3.93562e-06
0.000672985
4.38537e-06
0.000674158
4.79614e-06
0.000675359
5.17114e-06
0.000676581
5.51288e-06
0.000677816
5.82343e-06
0.00067906
6.10476e-06
0.000680308
6.35885e-06
0.000681559
6.58772e-06
0.000682811
6.79319e-06
0.000684062
6.97695e-06
0.000685312
7.14032e-06
0.00068656
7.2845e-06
0.000687806
7.41035e-06
0.00068905
7.51875e-06
0.00069029
7.61021e-06
0.000691528
7.68541e-06
0.000692762
7.74458e-06
0.000693994
7.78826e-06
0.000695221
7.8164e-06
0.000696446
7.82942e-06
0.000697666
7.82707e-06
0.000698882
7.80967e-06
0.000700094
7.7768e-06
0.000701303
7.72874e-06
0.000702506
7.66493e-06
0.000703704
7.58557e-06
0.000704897
7.49011e-06
0.000706086
7.37853e-06
0.000707267
7.2505e-06
0.000708446
7.10555e-06
0.000709615
6.94397e-06
0.000710784
6.76425e-06
0.000711941
6.56819e-06
0.0007131
6.35213e-06
0.000714245
6.12086e-06
0.000715397
5.86657e-06
0.000716531
5.59979e-06
0.000717679
5.30499e-06
0.000718804
5.00316e-06
0.000719955
4.66492e-06
0.000721073
4.32994e-06
0.000722234
3.94455e-06
0.00072335
3.5811e-06
0.000724531
3.14403e-06
0.000725647
2.76162e-06
0.00072686
2.26701e-06
0.000727976
1.88257e-06
0.00072923
1.32166e-06
0.00073035
9.63289e-07
0.000731659
3.24657e-07
0.000732798
4.17818e-08
0.000734245
-7.52671e-07
-9.19539e-07
0.000735546
0.000666738
2.59743e-07
0.00066697
7.84042e-07
0.000667356
1.29751e-06
0.000667879
1.79314e-06
0.000668518
2.26503e-06
0.000669251
2.70961e-06
0.000670062
3.1254e-06
0.000670935
3.5125e-06
0.000671859
3.87178e-06
0.000672826
4.20437e-06
0.000673827
4.51136e-06
0.000674857
4.79372e-06
0.000675909
5.05239e-06
0.00067698
5.28836e-06
0.000678065
5.50264e-06
0.000679162
5.69627e-06
0.000680269
5.87024e-06
0.000681383
6.02546e-06
0.000682505
6.1627e-06
0.000683633
6.28267e-06
0.000684766
6.38589e-06
0.000685903
6.47293e-06
0.000687044
6.54409e-06
0.000688189
6.59981e-06
0.000689337
6.64019e-06
0.000690488
6.66562e-06
0.000691641
6.67593e-06
0.000692797
6.67155e-06
0.000693955
6.65197e-06
0.000695114
6.6178e-06
0.000696274
6.56806e-06
0.000697435
6.50376e-06
0.000698598
6.4232e-06
0.00069976
6.32814e-06
0.000700923
6.21575e-06
0.000702084
6.08911e-06
0.000703246
5.94356e-06
0.000704406
5.7844e-06
0.000705566
5.60404e-06
0.000706723
5.41144e-06
0.00070788
5.19424e-06
0.000709034
4.96746e-06
0.000710189
4.71102e-06
0.000711339
4.44975e-06
0.000712493
4.15117e-06
0.00071364
3.85591e-06
0.000714794
3.51149e-06
0.00071594
3.18377e-06
0.000717097
2.7881e-06
0.000718247
2.43053e-06
0.000719416
1.9751e-06
0.000720586
1.59212e-06
0.000721788
1.06403e-06
0.000723008
6.63512e-07
0.000724293
3.64436e-08
0.000725598
-3.42237e-07
0.000726971
-1.04761e-06
0.000728422
-1.40925e-06
0.000729942
-2.27313e-06
-2.58571e-06
0.000731608
0.000666724
2.02403e-07
0.000666899
6.08973e-07
0.000667184
1.0128e-06
0.00066757
1.40735e-06
0.000668046
1.78892e-06
0.000668601
2.15459e-06
0.000669224
2.50229e-06
0.000669906
2.8308e-06
0.000670638
3.13956e-06
0.000671414
3.42842e-06
0.000672228
3.69749e-06
0.000673074
3.94702e-06
0.000673949
4.17737e-06
0.000674849
4.38899e-06
0.000675769
4.58232e-06
0.000676707
4.75792e-06
0.000677661
4.91627e-06
0.000678629
5.05793e-06
0.000679608
5.18333e-06
0.000680598
5.29296e-06
0.000681597
5.3871e-06
0.000682603
5.46621e-06
0.000683617
5.53038e-06
0.000684637
5.58003e-06
0.000685662
5.61508e-06
0.000686692
5.63594e-06
0.000687725
5.64228e-06
0.000688762
5.63462e-06
0.000689802
5.61228e-06
0.000690844
5.576e-06
0.000691887
5.52461e-06
0.000692932
5.45927e-06
0.000693977
5.3781e-06
0.000695022
5.28298e-06
0.000696067
5.17097e-06
0.000697111
5.04512e-06
0.000698153
4.90084e-06
0.000699195
4.74313e-06
0.000700234
4.56478e-06
0.000701271
4.37395e-06
0.000702306
4.15934e-06
0.00070334
3.93407e-06
0.00070437
3.68042e-06
0.000705401
3.41935e-06
0.000706429
3.12311e-06
0.00070746
2.825e-06
0.000708489
2.48175e-06
0.000709527
2.14622e-06
0.000710564
1.75112e-06
0.000711615
1.37996e-06
0.000712662
9.2799e-07
0.000713728
5.26264e-07
0.000714774
1.76691e-08
0.000715869
-4.32024e-07
0.000716953
-1.04735e-06
0.000718119
-1.50754e-06
0.000719296
-2.22509e-06
0.000720581
-2.69395e-06
0.00072186
-3.55223e-06
-4.00864e-06
0.000723283
0.000666708
1.60671e-07
0.000666834
4.83737e-07
0.000667041
8.05908e-07
0.000667325
1.12262e-06
0.000667683
1.43134e-06
0.000668107
1.72993e-06
0.000668593
2.01668e-06
0.000669134
2.29034e-06
0.000669723
2.55015e-06
0.000670356
2.79579e-06
0.000671027
3.02586e-06
0.000671734
3.24049e-06
0.000672471
3.43982e-06
0.000673236
3.62394e-06
0.000674026
3.79297e-06
0.000674837
3.94712e-06
0.000675666
4.08657e-06
0.000676513
4.21159e-06
0.000677374
4.32238e-06
0.000678247
4.4192e-06
0.000679132
4.50218e-06
0.000680027
4.57158e-06
0.00068093
4.62741e-06
0.00068184
4.66993e-06
0.000682756
4.69901e-06
0.000683677
4.71492e-06
0.000684602
4.71735e-06
0.00068553
4.70665e-06
0.00068646
4.68224e-06
0.000687391
4.64461e-06
0.000688323
4.59285e-06
0.000689255
4.52771e-06
0.000690185
4.44777e-06
0.000691114
4.35424e-06
0.00069204
4.24495e-06
0.000692963
4.12191e-06
0.000693882
3.98176e-06
0.000694797
3.8278e-06
0.000695707
3.6549e-06
0.000696613
3.46838e-06
0.000697512
3.26039e-06
0.000698406
3.0395e-06
0.000699293
2.79364e-06
0.000700176
2.53654e-06
0.000701049
2.24955e-06
0.00070192
1.95439e-06
0.00070278
1.62189e-06
0.00070364
1.28592e-06
0.000704491
9.00631e-07
0.000705351
5.19228e-07
0.000706211
6.87261e-08
0.000707089
-3.5201e-07
0.00070797
-8.63746e-07
0.000708873
-1.33494e-06
0.00070976
-1.93445e-06
0.000710706
-2.45299e-06
0.000711638
-3.15694e-06
0.000712663
-3.71886e-06
0.000713665
-4.55467e-06
-5.14964e-06
0.000714806
0.000666699
1.28633e-07
0.000666796
3.869e-07
0.000666957
6.44819e-07
0.00066718
8.99194e-07
0.000667463
1.14829e-06
0.000667802
1.39057e-06
0.000668194
1.62471e-06
0.000668635
1.84962e-06
0.000669121
2.06442e-06
0.000669648
2.26839e-06
0.000670213
2.46091e-06
0.000670812
2.64158e-06
0.000671442
2.81017e-06
0.000672099
2.96658e-06
0.000672781
3.11074e-06
0.000673486
3.24264e-06
0.00067421
3.36226e-06
0.000674952
3.46967e-06
0.00067571
3.56489e-06
0.000676481
3.64802e-06
0.000677264
3.71906e-06
0.000678057
3.77812e-06
0.00067886
3.82517e-06
0.000679669
3.86028e-06
0.000680485
3.88336e-06
0.000681305
3.89448e-06
0.000682129
3.89342e-06
0.000682956
3.8803e-06
0.000683783
3.85472e-06
0.000684611
3.81686e-06
0.000685438
3.76612e-06
0.000686263
3.70277e-06
0.000687084
3.62594e-06
0.000687903
3.5361e-06
0.000688716
3.43193e-06
0.000689523
3.31428e-06
0.000690324
3.18121e-06
0.000691117
3.03414e-06
0.000691902
2.8702e-06
0.000692679
2.69176e-06
0.000693445
2.49454e-06
0.000694202
2.28241e-06
0.000694946
2.04893e-06
0.000695683
1.80035e-06
0.000696405
1.52694e-06
0.000697121
1.23881e-06
0.000697821
9.2136e-07
0.000698516
5.90966e-07
0.000699191
2.26137e-07
0.000699862
-1.5158e-07
0.000700512
-5.81272e-07
0.000701174
-1.01455e-06
0.000701818
-1.50759e-06
0.000702481
-1.99785e-06
0.000703117
-2.57037e-06
0.000703789
-3.12522e-06
0.000704425
-3.79347e-06
0.000705124
-4.41692e-06
0.000705769
-5.20021e-06
-5.89247e-06
0.000706512
0.000666693
1.02457e-07
0.000666772
3.08026e-07
0.000666903
5.13467e-07
0.000667086
7.16449e-07
0.000667318
9.15744e-07
0.000667599
1.11024e-06
0.000667924
1.29891e-06
0.000668293
1.4809e-06
0.000668702
1.65541e-06
0.000669149
1.82183e-06
0.00066963
1.97962e-06
0.000670143
2.12836e-06
0.000670686
2.26772e-06
0.000671255
2.39744e-06
0.000671848
2.51734e-06
0.000672464
2.62729e-06
0.000673099
2.72717e-06
0.000673751
2.81691e-06
0.00067442
2.89645e-06
0.000675102
2.96575e-06
0.000675797
3.02476e-06
0.000676501
3.07346e-06
0.000677215
3.11179e-06
0.000677935
3.13972e-06
0.000678661
3.15714e-06
0.000679392
3.16401e-06
0.000680125
3.16017e-06
0.00068086
3.14555e-06
0.000681595
3.11992e-06
0.000682328
3.0832e-06
0.000683059
3.03505e-06
0.000683787
2.97537e-06
0.000684509
2.90371e-06
0.000685225
2.81997e-06
0.000685933
2.72353e-06
0.000686633
2.61433e-06
0.000687323
2.49151e-06
0.000688002
2.3551e-06
0.000688668
2.20395e-06
0.000689322
2.03822e-06
0.00068996
1.85634e-06
0.000690584
1.65872e-06
0.00069119
1.44324e-06
0.000691779
1.21071e-06
0.000692348
9.58173e-07
0.0006929
6.87058e-07
0.000693428
3.93242e-07
0.000693939
7.96947e-08
0.000694429
-2.63488e-07
0.000694907
-6.29662e-07
0.000695353
-1.02715e-06
0.000695788
-1.44972e-06
0.00069619
-1.90954e-06
0.000696589
-2.39656e-06
0.000696947
-2.92905e-06
0.000697313
-3.49103e-06
0.000697629
-4.10941e-06
0.00069797
-4.7582e-06
0.000698248
-5.47759e-06
-6.22435e-06
0.000698579
0.000666689
8.03858e-08
0.000666755
2.41604e-07
0.000666866
4.0279e-07
0.00066702
5.62216e-07
0.000667217
7.18994e-07
0.000667455
8.72307e-07
0.000667732
1.0214e-06
0.000668048
1.1656e-06
0.000668399
1.30429e-06
0.000668784
1.43694e-06
0.0006692
1.5631e-06
0.000669646
1.68237e-06
0.000670119
1.79443e-06
0.000670618
1.89898e-06
0.000671139
1.99581e-06
0.000671682
2.08471e-06
0.000672244
2.16554e-06
0.000672822
2.23817e-06
0.000673416
2.30247e-06
0.000674024
2.35836e-06
0.000674643
2.40574e-06
0.000675272
2.44453e-06
0.000675909
2.47463e-06
0.000676553
2.49596e-06
0.000677201
2.50841e-06
0.000677853
2.51186e-06
0.000678507
2.5062e-06
0.000679162
2.49125e-06
0.000679815
2.46689e-06
0.000680465
2.43286e-06
0.000681111
2.38903e-06
0.000681751
2.33504e-06
0.000682384
2.27075e-06
0.000683009
2.19568e-06
0.000683622
2.1097e-06
0.000684225
2.01214e-06
0.000684813
1.90295e-06
0.000685387
1.78116e-06
0.000685944
1.64687e-06
0.000686484
1.49871e-06
0.000687003
1.33705e-06
0.000687502
1.15989e-06
0.000687977
9.68143e-07
0.000688429
7.58838e-07
0.000688853
5.33911e-07
0.000689251
2.89039e-07
0.000689615
2.91013e-08
0.000689956
-2.61337e-07
0.000690262
-5.68934e-07
0.000690538
-9.05832e-07
0.000690772
-1.2617e-06
0.000690977
-1.65473e-06
0.000691135
-2.06673e-06
0.000691264
-2.52629e-06
0.000691338
-3.00284e-06
0.000691389
-3.54193e-06
0.000691372
-4.09273e-06
0.000691342
-4.72761e-06
0.000691227
-5.36239e-06
-6.11122e-06
0.000691113
0.000666686
6.1256e-08
0.000666743
1.84074e-07
0.000666839
3.06899e-07
0.000666973
4.28462e-07
0.000667144
5.48126e-07
0.000667351
6.65299e-07
0.000667593
7.79428e-07
0.000667868
8.90005e-07
0.000668176
9.96567e-07
0.000668514
1.09869e-06
0.000668881
1.19601e-06
0.000669276
1.28819e-06
0.000669695
1.37494e-06
0.000670138
1.45601e-06
0.000670603
1.53117e-06
0.000671087
1.60024e-06
0.00067159
1.66305e-06
0.000672108
1.71945e-06
0.000672642
1.76932e-06
0.000673187
1.81254e-06
0.000673744
1.849e-06
0.00067431
1.87859e-06
0.000674883
1.90123e-06
0.000675463
1.91677e-06
0.000676046
1.92515e-06
0.000676632
1.92619e-06
0.000677218
1.91982e-06
0.000677803
1.90581e-06
0.000678386
1.88412e-06
0.000678965
1.8544e-06
0.000679537
1.81665e-06
0.000680102
1.77039e-06
0.000680657
1.71567e-06
0.000681201
1.65183e-06
0.000681731
1.57903e-06
0.000682247
1.49631e-06
0.000682746
1.40406e-06
0.000683226
1.30085e-06
0.000683686
1.18747e-06
0.000684123
1.06179e-06
0.000684534
9.2529e-07
0.00068492
7.74725e-07
0.000685275
6.12738e-07
0.000685599
4.34384e-07
0.000685889
2.44332e-07
0.000686142
3.56287e-08
0.000686361
-1.89261e-07
0.000686538
-4.3867e-07
0.000686669
-6.9974e-07
0.000686755
-9.92276e-07
0.000686789
-1.29509e-06
0.000686773
-1.63935e-06
0.000686697
-1.99003e-06
0.000686567
-2.39677e-06
0.000686366
-2.80202e-06
0.00068611
-3.2852e-06
0.000685769
-3.75203e-06
0.000685371
-4.32984e-06
0.000684873
-4.86413e-06
-5.55868e-06
0.00068432
0.000666684
4.4232e-08
0.000666735
1.32901e-07
0.00066682
2.21587e-07
0.000666939
3.094e-07
0.000667091
3.95894e-07
0.000667276
4.80657e-07
0.000667492
5.633e-07
0.000667739
6.4346e-07
0.000668015
7.20803e-07
0.000668318
7.95019e-07
0.000668648
8.6583e-07
0.000669004
9.32979e-07
0.000669382
9.9624e-07
0.000669783
1.05541e-06
0.000670204
1.1103e-06
0.000670643
1.16075e-06
0.0006711
1.20663e-06
0.000671571
1.24779e-06
0.000672057
1.28413e-06
0.000672554
1.31552e-06
0.000673061
1.34189e-06
0.000673576
1.3631e-06
0.000674098
1.37909e-06
0.000674625
1.38973e-06
0.000675156
1.39495e-06
0.000675687
1.39459e-06
0.000676218
1.38861e-06
0.000676747
1.37677e-06
0.000677272
1.35908e-06
0.000677792
1.33519e-06
0.000678303
1.30516e-06
0.000678805
1.26852e-06
0.000679295
1.22539e-06
0.000679772
1.17512e-06
0.000680233
1.11799e-06
0.000680676
1.053e-06
0.0006811
9.80724e-07
0.000681501
8.99686e-07
0.000681877
8.10913e-07
0.000682227
7.12171e-07
0.000682547
6.05281e-07
0.000682835
4.86813e-07
0.000683088
3.59919e-07
0.000683303
2.19335e-07
0.000683477
7.06683e-08
0.000683609
-9.65435e-08
0.000683693
-2.73272e-07
0.000683726
-4.71519e-07
0.000683703
-6.7694e-07
0.000683621
-9.10954e-07
0.000683476
-1.14957e-06
0.000683263
-1.42681e-06
0.000682977
-1.70325e-06
0.000682613
-2.03338e-06
0.000682164
-2.3526e-06
0.000681627
-2.7485e-06
0.00068099
-3.11529e-06
0.000680255
-3.59417e-06
0.000679402
-4.01154e-06
-4.59515e-06
0.000678439
0.000666682
2.86678e-08
0.000666729
8.61291e-08
0.000666807
1.43607e-07
0.000666916
2.00531e-07
0.000667055
2.5662e-07
0.000667224
3.11613e-07
0.000667422
3.6526e-07
0.000667648
4.1733e-07
0.000667902
4.67604e-07
0.000668181
5.15879e-07
0.000668485
5.61972e-07
0.000668812
6.05708e-07
0.000669161
6.46935e-07
0.000669531
6.85508e-07
0.00066992
7.21303e-07
0.000670327
7.542e-07
0.000670749
7.84099e-07
0.000671186
8.10898e-07
0.000671636
8.34519e-07
0.000672096
8.54866e-07
0.000672566
8.71878e-07
0.000673044
8.85459e-07
0.000673527
8.9556e-07
0.000674015
9.02073e-07
0.000674505
9.04961e-07
0.000674996
9.0409e-07
0.000675485
8.99437e-07
0.000675971
8.90825e-07
0.000676452
8.78255e-07
0.000676925
8.61478e-07
0.00067739
8.40542e-07
0.000677843
8.15089e-07
0.000678283
7.85244e-07
0.000678708
7.50484e-07
0.000679115
7.1107e-07
0.000679502
6.66223e-07
0.000679866
6.16441e-07
0.000680205
5.60543e-07
0.000680517
4.99426e-07
0.000680798
4.31288e-07
0.000681045
3.57691e-07
0.000681256
2.75866e-07
0.000681427
1.88501e-07
0.000681555
9.13759e-08
0.000681637
-1.07737e-08
0.000681668
-1.28023e-07
0.000681645
-2.4979e-07
0.000681561
-3.87688e-07
0.000681414
-5.29594e-07
0.000681196
-6.93089e-07
0.000680904
-8.581e-07
0.00068053
-1.05269e-06
0.000680071
-1.24392e-06
0.000679514
-1.47689e-06
0.000678859
-1.69763e-06
0.00067809
-1.97885e-06
0.000677207
-2.23206e-06
0.000676187
-2.57498e-06
0.000675038
-2.86196e-06
-3.28392e-06
0.000673727
0.000666681
1.40269e-08
0.000666725
4.21403e-08
0.000666799
7.02618e-08
0.000666901
9.81142e-08
0.000667032
1.25562e-07
0.000667191
1.52476e-07
0.000667378
1.78738e-07
0.000667591
2.04233e-07
0.00066783
2.28855e-07
0.000668093
2.52502e-07
0.00066838
2.75085e-07
0.000668689
2.96515e-07
0.000669019
3.16716e-07
0.000669369
3.35614e-07
0.000669737
3.53145e-07
0.000670122
3.69247e-07
0.000670523
3.83869e-07
0.000670936
3.96956e-07
0.000671363
4.08466e-07
0.000671799
4.1835e-07
0.000672244
4.26573e-07
0.000672697
4.33084e-07
0.000673154
4.37857e-07
0.000673616
4.40833e-07
0.000674079
4.41993e-07
0.000674541
4.41264e-07
0.000675002
4.38635e-07
0.000675459
4.3401e-07
0.00067591
4.27393e-07
0.000676353
4.18647e-07
0.000676786
4.07805e-07
0.000677206
3.94669e-07
0.000677612
3.79316e-07
0.000678001
3.61457e-07
0.000678371
3.41249e-07
0.000678719
3.18259e-07
0.000679042
2.92779e-07
0.000679339
2.64155e-07
0.000679605
2.32905e-07
0.000679838
1.98029e-07
0.000680036
1.60422e-07
0.000680193
1.18543e-07
0.000680308
7.39225e-08
0.000680375
2.42397e-08
0.000680393
-2.8612e-08
0.000680353
-8.85548e-08
0.000680254
-1.50862e-07
0.000680088
-2.21782e-07
0.000679853
-2.94454e-07
0.000679539
-3.78706e-07
0.000679144
-4.63234e-07
0.000678655
-5.63763e-07
0.000678073
-6.61747e-07
0.000677378
-7.82486e-07
0.000676576
-8.95563e-07
0.000675639
-1.04187e-06
0.000674579
-1.17146e-06
0.000673355
-1.35068e-06
0.00067199
-1.49719e-06
-1.71895e-06
0.000670425
0.000666681
-1.64554e-10
0.000666723
-4.96563e-10
0.000666795
-8.30226e-10
0.000666894
-1.16489e-09
0.000667021
-1.49957e-09
0.000667175
-1.83345e-09
0.000667356
-2.16575e-09
0.000667563
-2.49569e-09
0.000667795
-2.82257e-09
0.00066805
-3.14581e-09
0.000668329
-3.46498e-09
0.000668629
-3.77969e-09
0.00066895
-4.08958e-09
0.00066929
-4.39431e-09
0.000669648
-4.69355e-09
0.000670022
-4.98703e-09
0.000670411
-5.27457e-09
0.000670814
-5.55608e-09
0.000671228
-5.83156e-09
0.000671652
-6.1011e-09
0.000672085
-6.36483e-09
0.000672525
-6.62295e-09
0.00067297
-6.87568e-09
0.000673418
-7.12335e-09
0.000673867
-7.36635e-09
0.000674316
-7.60513e-09
0.000674762
-7.84024e-09
0.000675204
-8.0722e-09
0.00067564
-8.30158e-09
0.000676067
-8.52905e-09
0.000676484
-8.75522e-09
0.000676888
-8.98088e-09
0.000677276
-9.20663e-09
0.000677647
-9.43353e-09
0.000677998
-9.66214e-09
0.000678326
-9.89344e-09
0.000678629
-1.01282e-08
0.000678903
-1.03671e-08
0.000679147
-1.06109e-08
0.000679356
-1.08613e-08
0.000679527
-1.11214e-08
0.000679657
-1.13982e-08
0.000679743
-1.17019e-08
0.000679779
-1.20322e-08
0.000679763
-1.23787e-08
0.000679687
-1.27038e-08
0.000679549
-1.30384e-08
0.000679341
-1.33952e-08
0.00067906
-1.37797e-08
0.000678696
-1.41874e-08
0.000678247
-1.46208e-08
0.000677698
-1.50772e-08
0.000677052
-1.55644e-08
0.000676286
-1.60772e-08
0.000675407
-1.6627e-08
0.000674382
-1.72038e-08
0.000673229
-1.7825e-08
0.000671896
-1.84738e-08
0.000670418
-1.91739e-08
-1.98987e-08
0.000668719
0.000666681
-1.43549e-08
0.000666723
-4.3127e-08
0.000666795
-7.19128e-08
0.000666894
-1.00431e-07
0.000667021
-1.28544e-07
0.000667175
-1.56123e-07
0.000667356
-1.83046e-07
0.000667563
-2.09198e-07
0.000667794
-2.3447e-07
0.00066805
-2.58761e-07
0.000668329
-2.81978e-07
0.000668629
-3.04034e-07
0.00066895
-3.24851e-07
0.00066929
-3.44356e-07
0.000669647
-3.62482e-07
0.000670021
-3.79168e-07
0.000670411
-3.94362e-07
0.000670813
-4.08009e-07
0.000671227
-4.20067e-07
0.000671652
-4.30486e-07
0.000672085
-4.39234e-07
0.000672524
-4.46258e-07
0.000672969
-4.51534e-07
0.000673417
-4.55002e-07
0.000673866
-4.56645e-07
0.000674315
-4.56391e-07
0.000674761
-4.5423e-07
0.000675203
-4.50066e-07
0.000675639
-4.43904e-07
0.000676066
-4.35611e-07
0.000676482
-4.25218e-07
0.000676886
-4.1253e-07
0.000677274
-3.97626e-07
0.000677645
-3.80218e-07
0.000677996
-3.60464e-07
0.000678324
-3.37936e-07
0.000678627
-3.12923e-07
0.000678901
-2.84777e-07
0.000679144
-2.54014e-07
0.000679353
-2.19639e-07
0.000679525
-1.82542e-07
0.000679654
-1.41181e-07
0.00067974
-9.70752e-08
0.000679776
-4.78622e-08
0.00067976
3.72958e-09
0.000679684
6.33022e-08
0.000679546
1.24945e-07
0.000679337
1.95146e-07
0.000679056
2.67054e-07
0.000678691
3.50504e-07
0.000678243
4.34178e-07
0.000677694
5.33808e-07
0.000677047
6.30828e-07
0.000676281
7.50556e-07
0.000675402
8.62542e-07
0.000674377
1.00772e-06
0.000673223
1.13607e-06
0.00067189
1.31402e-06
0.000670412
1.45912e-06
1.67946e-06
0.000668713
0.000666681
-2.89903e-08
0.000666725
-8.70997e-08
0.000666799
-1.45231e-07
0.000666901
-2.02811e-07
0.000667032
-2.59556e-07
0.000667191
-3.15202e-07
0.000667378
-3.695e-07
0.000667591
-4.22216e-07
0.000667829
-4.7313e-07
0.000668092
-5.22038e-07
0.000668379
-5.68756e-07
0.000668688
-6.13108e-07
0.000669018
-6.54941e-07
0.000669368
-6.94111e-07
0.000669736
-7.30491e-07
0.000670121
-7.63962e-07
0.000670521
-7.94424e-07
0.000670935
-8.21773e-07
0.000671361
-8.45932e-07
0.000671797
-8.66806e-07
0.000672242
-8.84333e-07
0.000672694
-8.98418e-07
0.000673152
-9.09013e-07
0.000673613
-9.1601e-07
0.000674075
-9.19372e-07
0.000674538
-9.18967e-07
0.000674999
-9.14773e-07
0.000675455
-9.06612e-07
0.000675906
-8.9449e-07
0.000676348
-8.78157e-07
0.000676781
-8.57661e-07
0.000677201
-8.32648e-07
0.000677606
-8.03243e-07
0.000677995
-7.68924e-07
0.000678365
-7.29957e-07
0.000678712
-6.85561e-07
0.000679036
-6.36236e-07
0.000679332
-5.80806e-07
0.000679598
-5.20167e-07
0.000679831
-4.5252e-07
0.000680028
-3.79429e-07
0.000680184
-2.98123e-07
0.000680299
-2.11288e-07
0.000680365
-1.1467e-07
0.000680382
-1.3206e-08
0.000680343
1.0315e-07
0.000680243
2.24325e-07
0.000680077
3.61555e-07
0.000679841
5.02728e-07
0.000679526
6.65444e-07
0.000679131
8.29621e-07
0.000678641
1.02334e-06
0.000678058
1.21364e-06
0.000677363
1.44563e-06
0.000676561
1.6653e-06
0.000675623
1.94544e-06
0.000674561
2.19745e-06
0.000673336
2.53915e-06
0.000671971
2.82476e-06
3.24539e-06
0.000670405
0.000666682
-4.4546e-08
0.000666729
-1.33846e-07
0.000666807
-2.23169e-07
0.000666916
-3.1162e-07
0.000667055
-3.98752e-07
0.000667224
-4.84151e-07
0.000667422
-5.67428e-07
0.000667648
-6.48217e-07
0.000667901
-7.26183e-07
0.00066818
-8.01015e-07
0.000668483
-8.72433e-07
0.000668811
-9.40181e-07
0.00066916
-1.00403e-06
0.000669529
-1.06378e-06
0.000669918
-1.11924e-06
0.000670324
-1.17025e-06
0.000670747
-1.21668e-06
0.000671183
-1.25837e-06
0.000671633
-1.29523e-06
0.000672093
-1.32714e-06
0.000672563
-1.354e-06
0.00067304
-1.3757e-06
0.000673523
-1.39217e-06
0.00067401
-1.40328e-06
0.0006745
-1.40896e-06
0.00067499
-1.40905e-06
0.000675479
-1.40351e-06
0.000675964
-1.39212e-06
0.000676445
-1.37485e-06
0.000676918
-1.3514e-06
0.000677382
-1.32179e-06
0.000677835
-1.28558e-06
0.000678274
-1.24288e-06
0.000678699
-1.19303e-06
0.000679105
-1.13633e-06
0.000679491
-1.07178e-06
0.000679855
-9.99942e-07
0.000680193
-9.19354e-07
0.000680504
-8.31042e-07
0.000680785
-7.32772e-07
0.000681031
-6.26367e-07
0.000681242
-5.08394e-07
0.000681412
-3.82007e-07
0.00068154
-2.4193e-07
0.00068162
-9.37106e-08
0.000681651
7.23922e-08
0.000681627
2.4861e-07
0.000681542
4.46216e-07
0.000681394
6.50934e-07
0.000681175
8.84211e-07
0.000680883
1.12203e-06
0.000680508
1.39845e-06
0.000680047
1.674e-06
0.00067949
2.00321e-06
0.000678833
2.32142e-06
0.000678063
2.7163e-06
0.000677178
3.08194e-06
0.000676158
3.55971e-06
0.000675007
3.97574e-06
4.55817e-06
0.000673694
0.000666684
-6.15583e-08
0.000666735
-1.84984e-07
0.00066682
-3.08421e-07
0.000666939
-4.30599e-07
0.000667091
-5.50877e-07
0.000667276
-6.68662e-07
0.000667492
-7.83402e-07
0.000667738
-8.94583e-07
0.000668014
-1.00174e-06
0.000668317
-1.10446e-06
0.000668647
-1.20237e-06
0.000669002
-1.29512e-06
0.00066938
-1.38244e-06
0.000669781
-1.46406e-06
0.000670201
-1.53977e-06
0.00067064
-1.60938e-06
0.000671096
-1.67271e-06
0.000671568
-1.72962e-06
0.000672052
-1.78e-06
0.000672549
-1.8237e-06
0.000673056
-1.86065e-06
0.000673571
-1.89071e-06
0.000674092
-1.9138e-06
0.000674619
-1.92979e-06
0.000675148
-1.93861e-06
0.000675679
-1.94008e-06
0.00067621
-1.93413e-06
0.000676738
-1.92055e-06
0.000677263
-1.89926e-06
0.000677781
-1.86996e-06
0.000678292
-1.83261e-06
0.000678793
-1.78676e-06
0.000679283
-1.73244e-06
0.000679759
-1.66901e-06
0.000680219
-1.59662e-06
0.000680662
-1.51431e-06
0.000681084
-1.42248e-06
0.000681485
-1.3197e-06
0.00068186
-1.20676e-06
0.000682209
-1.08153e-06
0.000682528
-9.45491e-07
0.000682815
-7.95405e-07
0.000683067
-6.33912e-07
0.000683281
-4.56065e-07
0.000683454
-2.66513e-07
0.000683585
-5.81089e-08
0.000683668
1.65618e-07
0.000683699
4.14483e-07
0.000683675
6.74909e-07
0.000683593
9.66764e-07
0.000683446
1.26884e-06
0.000683232
1.61234e-06
0.000682944
1.96218e-06
0.000682579
2.36809e-06
0.000682128
2.77238e-06
0.00068159
3.25465e-06
0.000680951
3.72038e-06
0.000680214
4.29722e-06
0.000679359
4.83022e-06
5.52377e-06
0.000678394
0.000666686
-8.06733e-08
0.000666743
-2.4247e-07
0.000666839
-4.04238e-07
0.000666973
-5.64248e-07
0.000667143
-7.2161e-07
0.00066735
-8.75506e-07
0.000667592
-1.02518e-06
0.000667867
-1.16995e-06
0.000668175
-1.30921e-06
0.000668513
-1.44243e-06
0.00066888
-1.56914e-06
0.000669273
-1.68896e-06
0.000669693
-1.80155e-06
0.000670135
-1.90663e-06
0.000670599
-2.00397e-06
0.000671083
-2.09339e-06
0.000671585
-2.17472e-06
0.000672104
-2.24782e-06
0.000672636
-2.31261e-06
0.000673181
-2.36896e-06
0.000673738
-2.41679e-06
0.000674303
-2.45602e-06
0.000674876
-2.48656e-06
0.000675454
-2.5083e-06
0.000676037
-2.52117e-06
0.000676622
-2.52503e-06
0.000677207
-2.51977e-06
0.000677792
-2.50522e-06
0.000678374
-2.48124e-06
0.000678952
-2.4476e-06
0.000679523
-2.40414e-06
0.000680087
-2.35053e-06
0.000680641
-2.28662e-06
0.000681184
-2.21193e-06
0.000681714
-2.12634e-06
0.000682229
-2.02917e-06
0.000682726
-1.92036e-06
0.000683206
-1.79898e-06
0.000683664
-1.66509e-06
0.0006841
-1.51735e-06
0.000684511
-1.35612e-06
0.000684895
-1.17941e-06
0.000685249
-9.88128e-07
0.000685572
-7.79299e-07
0.00068586
-5.54862e-07
0.000686113
-3.10467e-07
0.000686329
-5.07028e-08
0.000686505
2.38467e-07
0.000686634
5.45547e-07
0.000686719
8.81857e-07
0.000686751
1.23705e-06
0.000686734
1.6294e-06
0.000686656
2.04062e-06
0.000686524
2.49944e-06
0.000686322
2.97511e-06
0.000686063
3.5134e-06
0.00068572
4.06317e-06
0.00068532
4.69723e-06
0.000684819
5.33079e-06
6.07882e-06
0.000684264
0.000666689
-1.02727e-07
0.000666755
-3.08838e-07
0.000666866
-5.14825e-07
0.00066702
-7.18355e-07
0.000667216
-9.18198e-07