/*--------------------------------*- C++ -*----------------------------------*\
| =========                 |                                                 |
| \\      /  F ield         | OpenFOAM: The Open Source CFD Toolbox           |
|  \\    /   O peration     | Version:  2312                                  |
|   \\  /    A nd           | Website:  www.openfoam.com                      |
|    \\/     M anipulation  |                                                 |
\*---------------------------------------------------------------------------*/
FoamFile
{
    version     2.0;
    format      ascii;
    arch        "LSB;label=32;scalar=64";
    class       volScalarField;
    location    "75000";
    object      p;
}
// * * * * * * * * * * * * * * * * * * * * * * * * * * * * * * * * * * * * * //

dimensions      [0 2 -2 0 0 0 0];

internalField   nonuniform List<scalar> 
10800
(
4.94476e-07
4.80354e-07
4.66587e-07
4.56009e-07
4.48587e-07
4.43196e-07
4.38746e-07
4.34667e-07
4.30792e-07
4.27128e-07
4.23712e-07
4.20548e-07
4.17603e-07
4.14826e-07
4.12172e-07
4.09607e-07
4.0711e-07
4.04666e-07
4.02267e-07
3.99902e-07
3.97563e-07
3.95243e-07
3.92935e-07
3.90634e-07
3.88334e-07
3.86033e-07
3.83727e-07
3.81413e-07
3.79091e-07
3.76757e-07
3.74411e-07
3.72052e-07
3.6968e-07
3.67293e-07
3.64892e-07
3.62477e-07
3.60048e-07
3.57606e-07
3.5515e-07
3.52681e-07
3.502e-07
3.47707e-07
3.45203e-07
3.42686e-07
3.40158e-07
3.37617e-07
3.35064e-07
3.32494e-07
3.29913e-07
3.27304e-07
3.24689e-07
3.22017e-07
3.19369e-07
3.16572e-07
3.13929e-07
3.10802e-07
3.0845e-07
3.04049e-07
3.03747e-07
2.93154e-07
4.46433e-07
4.44705e-07
4.4206e-07
4.38935e-07
4.35719e-07
4.32625e-07
4.29702e-07
4.26915e-07
4.24214e-07
4.21568e-07
4.18971e-07
4.16428e-07
4.13947e-07
4.11526e-07
4.0916e-07
4.0684e-07
4.04556e-07
4.023e-07
4.00067e-07
3.97852e-07
3.95649e-07
3.93456e-07
3.91269e-07
3.89084e-07
3.86898e-07
3.84709e-07
3.82514e-07
3.80312e-07
3.78101e-07
3.75879e-07
3.73646e-07
3.714e-07
3.69143e-07
3.66871e-07
3.64587e-07
3.62288e-07
3.59978e-07
3.57652e-07
3.55316e-07
3.52963e-07
3.50603e-07
3.48223e-07
3.45841e-07
3.43433e-07
3.4103e-07
3.38592e-07
3.36173e-07
3.33701e-07
3.31274e-07
3.28765e-07
3.2635e-07
3.23805e-07
3.21455e-07
3.18893e-07
3.16744e-07
3.14232e-07
3.12618e-07
3.10236e-07
3.09766e-07
3.07097e-07
4.37691e-07
4.3694e-07
4.35527e-07
4.33575e-07
4.31291e-07
4.28871e-07
4.26441e-07
4.24051e-07
4.21706e-07
4.19391e-07
4.17098e-07
4.14826e-07
4.12581e-07
4.10368e-07
4.08188e-07
4.0604e-07
4.03919e-07
4.0182e-07
3.99739e-07
3.97673e-07
3.95617e-07
3.93569e-07
3.91526e-07
3.89486e-07
3.87447e-07
3.85405e-07
3.83361e-07
3.81312e-07
3.79256e-07
3.77193e-07
3.75122e-07
3.73041e-07
3.70951e-07
3.6885e-07
3.6674e-07
3.64617e-07
3.62486e-07
3.60341e-07
3.58188e-07
3.5602e-07
3.53847e-07
3.51656e-07
3.49462e-07
3.47248e-07
3.45036e-07
3.42797e-07
3.4057e-07
3.38307e-07
3.36071e-07
3.33787e-07
3.31554e-07
3.29255e-07
3.27047e-07
3.24741e-07
3.22593e-07
3.20296e-07
3.1826e-07
3.15977e-07
3.14093e-07
3.1173e-07
4.25954e-07
4.25521e-07
4.24735e-07
4.23645e-07
4.2232e-07
4.20832e-07
4.19238e-07
4.17577e-07
4.1587e-07
4.14128e-07
4.12357e-07
4.10563e-07
4.08752e-07
4.0693e-07
4.05103e-07
4.03272e-07
4.01441e-07
3.99608e-07
3.97774e-07
3.95938e-07
3.94099e-07
3.92258e-07
3.90413e-07
3.88563e-07
3.86709e-07
3.8485e-07
3.82985e-07
3.81113e-07
3.79234e-07
3.77347e-07
3.75454e-07
3.73552e-07
3.71642e-07
3.69724e-07
3.67799e-07
3.65864e-07
3.63922e-07
3.61971e-07
3.60013e-07
3.58045e-07
3.5607e-07
3.54085e-07
3.52093e-07
3.50088e-07
3.48077e-07
3.4605e-07
3.44017e-07
3.41963e-07
3.39902e-07
3.37812e-07
3.35717e-07
3.33584e-07
3.31447e-07
3.29262e-07
3.27079e-07
3.24834e-07
3.22599e-07
3.20284e-07
3.17997e-07
3.15628e-07
4.19252e-07
4.19038e-07
4.18607e-07
4.17961e-07
4.17118e-07
4.16104e-07
4.14954e-07
4.13697e-07
4.12358e-07
4.10954e-07
4.09498e-07
4.07998e-07
4.06463e-07
4.04897e-07
4.03307e-07
4.01699e-07
4.00075e-07
3.98438e-07
3.9679e-07
3.95133e-07
3.93468e-07
3.91795e-07
3.90115e-07
3.88428e-07
3.86735e-07
3.85036e-07
3.83331e-07
3.81621e-07
3.79905e-07
3.78184e-07
3.76458e-07
3.74726e-07
3.72991e-07
3.7125e-07
3.69506e-07
3.67757e-07
3.66005e-07
3.64248e-07
3.62488e-07
3.60724e-07
3.58957e-07
3.57185e-07
3.55409e-07
3.53628e-07
3.51842e-07
3.50049e-07
3.48249e-07
3.4644e-07
3.44621e-07
3.42787e-07
3.40935e-07
3.39057e-07
3.37143e-07
3.35182e-07
3.33156e-07
3.31053e-07
3.28861e-07
3.26591e-07
3.24245e-07
3.21921e-07
4.13729e-07
4.13567e-07
4.13242e-07
4.12758e-07
4.12125e-07
4.11359e-07
4.10479e-07
4.09501e-07
4.08443e-07
4.07315e-07
4.0613e-07
4.04893e-07
4.03612e-07
4.02292e-07
4.00939e-07
3.99558e-07
3.98151e-07
3.96724e-07
3.95278e-07
3.93816e-07
3.9234e-07
3.90851e-07
3.89351e-07
3.87841e-07
3.86322e-07
3.84795e-07
3.83261e-07
3.81721e-07
3.80176e-07
3.78626e-07
3.77072e-07
3.75515e-07
3.73955e-07
3.72393e-07
3.70829e-07
3.69264e-07
3.67698e-07
3.66133e-07
3.64567e-07
3.63001e-07
3.61435e-07
3.59869e-07
3.58302e-07
3.56733e-07
3.55161e-07
3.53585e-07
3.52001e-07
3.50407e-07
3.48799e-07
3.47178e-07
3.45534e-07
3.43874e-07
3.42187e-07
3.4048e-07
3.38728e-07
3.36934e-07
3.35065e-07
3.33141e-07
3.31159e-07
3.29245e-07
4.0938e-07
4.09262e-07
4.09024e-07
4.08668e-07
4.08198e-07
4.0762e-07
4.06944e-07
4.06181e-07
4.05338e-07
4.04427e-07
4.03455e-07
4.02429e-07
4.01354e-07
4.00235e-07
3.99079e-07
3.97888e-07
3.96666e-07
3.95419e-07
3.94148e-07
3.92856e-07
3.91546e-07
3.90221e-07
3.88881e-07
3.8753e-07
3.86168e-07
3.84798e-07
3.8342e-07
3.82037e-07
3.80649e-07
3.79257e-07
3.77864e-07
3.76469e-07
3.75074e-07
3.7368e-07
3.72288e-07
3.70899e-07
3.69514e-07
3.68133e-07
3.66757e-07
3.65387e-07
3.64022e-07
3.62665e-07
3.61313e-07
3.59968e-07
3.58628e-07
3.57295e-07
3.55967e-07
3.54643e-07
3.53319e-07
3.51994e-07
3.50656e-07
3.49303e-07
3.47923e-07
3.46518e-07
3.45079e-07
3.43617e-07
3.42111e-07
3.40585e-07
3.39038e-07
3.37581e-07
4.05926e-07
4.05833e-07
4.05648e-07
4.05369e-07
4.04999e-07
4.04539e-07
4.03997e-07
4.03377e-07
4.02687e-07
4.01932e-07
4.01118e-07
4.0025e-07
3.99333e-07
3.98373e-07
3.97373e-07
3.96338e-07
3.95271e-07
3.94176e-07
3.93056e-07
3.91914e-07
3.90752e-07
3.89573e-07
3.8838e-07
3.87174e-07
3.85958e-07
3.84733e-07
3.83501e-07
3.82265e-07
3.81025e-07
3.79783e-07
3.78541e-07
3.77301e-07
3.76064e-07
3.74831e-07
3.73603e-07
3.72383e-07
3.71171e-07
3.69968e-07
3.68776e-07
3.67596e-07
3.66428e-07
3.65274e-07
3.64134e-07
3.63008e-07
3.61896e-07
3.60798e-07
3.59713e-07
3.58642e-07
3.57583e-07
3.56538e-07
3.55503e-07
3.54478e-07
3.53451e-07
3.52423e-07
3.51382e-07
3.50339e-07
3.49283e-07
3.4824e-07
3.47217e-07
3.46319e-07
4.03159e-07
4.03083e-07
4.02932e-07
4.02703e-07
4.02399e-07
4.0202e-07
4.01571e-07
4.01054e-07
4.00475e-07
3.99838e-07
3.99145e-07
3.98403e-07
3.97615e-07
3.96785e-07
3.95916e-07
3.95012e-07
3.94077e-07
3.93114e-07
3.92125e-07
3.91114e-07
3.90084e-07
3.89036e-07
3.87973e-07
3.86898e-07
3.85813e-07
3.8472e-07
3.83622e-07
3.8252e-07
3.81416e-07
3.80312e-07
3.79211e-07
3.78113e-07
3.77022e-07
3.75939e-07
3.74866e-07
3.73804e-07
3.72755e-07
3.71722e-07
3.70706e-07
3.69708e-07
3.6873e-07
3.67774e-07
3.66841e-07
3.65933e-07
3.65051e-07
3.64197e-07
3.6337e-07
3.62573e-07
3.61802e-07
3.61059e-07
3.60341e-07
3.59651e-07
3.58986e-07
3.5835e-07
3.57736e-07
3.57152e-07
3.56591e-07
3.56075e-07
3.55616e-07
3.553e-07
4.00953e-07
4.00889e-07
4.00762e-07
4.00569e-07
4.00311e-07
3.9999e-07
3.99608e-07
3.99167e-07
3.98671e-07
3.98122e-07
3.97525e-07
3.96881e-07
3.96194e-07
3.95468e-07
3.94705e-07
3.93909e-07
3.93082e-07
3.92228e-07
3.9135e-07
3.9045e-07
3.8953e-07
3.88594e-07
3.87644e-07
3.86682e-07
3.85711e-07
3.84734e-07
3.83752e-07
3.82768e-07
3.81784e-07
3.80803e-07
3.79827e-07
3.78857e-07
3.77897e-07
3.76949e-07
3.76015e-07
3.75097e-07
3.74198e-07
3.7332e-07
3.72465e-07
3.71635e-07
3.70834e-07
3.70063e-07
3.69325e-07
3.68622e-07
3.67956e-07
3.6733e-07
3.66747e-07
3.66208e-07
3.65714e-07
3.65266e-07
3.64867e-07
3.64521e-07
3.64227e-07
3.63991e-07
3.63811e-07
3.63694e-07
3.63639e-07
3.63667e-07
3.6379e-07
3.64083e-07
3.99221e-07
3.99166e-07
3.99055e-07
3.98888e-07
3.98664e-07
3.98385e-07
3.98052e-07
3.97667e-07
3.97233e-07
3.96751e-07
3.96225e-07
3.95656e-07
3.95048e-07
3.94404e-07
3.93725e-07
3.93014e-07
3.92275e-07
3.91509e-07
3.90721e-07
3.89911e-07
3.89083e-07
3.8824e-07
3.87384e-07
3.86518e-07
3.85643e-07
3.84764e-07
3.83881e-07
3.82998e-07
3.82118e-07
3.81243e-07
3.80375e-07
3.79517e-07
3.78671e-07
3.77842e-07
3.7703e-07
3.76239e-07
3.75472e-07
3.74732e-07
3.74021e-07
3.73343e-07
3.72701e-07
3.72098e-07
3.71537e-07
3.71022e-07
3.70557e-07
3.70144e-07
3.69787e-07
3.69488e-07
3.69252e-07
3.69084e-07
3.68987e-07
3.68968e-07
3.69029e-07
3.69176e-07
3.69412e-07
3.69746e-07
3.70182e-07
3.70737e-07
3.7143e-07
3.72315e-07
3.97899e-07
3.9785e-07
3.97752e-07
3.97603e-07
3.97403e-07
3.97155e-07
3.96857e-07
3.96513e-07
3.96124e-07
3.95692e-07
3.95219e-07
3.94707e-07
3.94158e-07
3.93576e-07
3.92961e-07
3.92316e-07
3.91644e-07
3.90948e-07
3.9023e-07
3.89493e-07
3.88738e-07
3.87969e-07
3.87189e-07
3.86399e-07
3.85603e-07
3.84803e-07
3.84001e-07
3.83202e-07
3.82406e-07
3.81618e-07
3.80839e-07
3.80074e-07
3.79324e-07
3.78592e-07
3.77883e-07
3.77199e-07
3.76543e-07
3.75919e-07
3.75331e-07
3.74781e-07
3.74274e-07
3.73814e-07
3.73405e-07
3.73052e-07
3.72758e-07
3.72528e-07
3.72367e-07
3.7228e-07
3.72272e-07
3.72352e-07
3.72523e-07
3.72794e-07
3.7317e-07
3.7366e-07
3.74271e-07
3.75012e-07
3.75893e-07
3.7693e-07
3.78143e-07
3.79572e-07
3.96943e-07
3.96898e-07
3.96808e-07
3.96672e-07
3.96489e-07
3.96261e-07
3.95989e-07
3.95674e-07
3.95316e-07
3.94919e-07
3.94484e-07
3.94013e-07
3.93507e-07
3.92968e-07
3.924e-07
3.91804e-07
3.91182e-07
3.90537e-07
3.89871e-07
3.89187e-07
3.88487e-07
3.87774e-07
3.8705e-07
3.86318e-07
3.85581e-07
3.84841e-07
3.84102e-07
3.83366e-07
3.82635e-07
3.81913e-07
3.81204e-07
3.80509e-07
3.79832e-07
3.79178e-07
3.78548e-07
3.77946e-07
3.77377e-07
3.76844e-07
3.76351e-07
3.75902e-07
3.75502e-07
3.75155e-07
3.74866e-07
3.7464e-07
3.74483e-07
3.744e-07
3.74398e-07
3.74481e-07
3.74659e-07
3.74939e-07
3.75328e-07
3.75835e-07
3.76469e-07
3.7724e-07
3.78159e-07
3.79237e-07
3.80487e-07
3.81925e-07
3.83571e-07
3.85455e-07
3.9632e-07
3.96278e-07
3.96193e-07
3.96065e-07
3.95894e-07
3.95679e-07
3.95422e-07
3.95125e-07
3.94788e-07
3.94414e-07
3.94003e-07
3.93557e-07
3.93079e-07
3.9257e-07
3.92032e-07
3.91467e-07
3.90878e-07
3.90266e-07
3.89635e-07
3.88986e-07
3.88322e-07
3.87646e-07
3.8696e-07
3.86267e-07
3.8557e-07
3.84871e-07
3.84173e-07
3.83479e-07
3.82792e-07
3.82116e-07
3.81453e-07
3.80806e-07
3.8018e-07
3.79577e-07
3.79001e-07
3.78457e-07
3.77947e-07
3.77476e-07
3.77049e-07
3.7667e-07
3.76343e-07
3.76075e-07
3.7587e-07
3.75733e-07
3.75671e-07
3.7569e-07
3.75797e-07
3.76e-07
3.76308e-07
3.76729e-07
3.77271e-07
3.77945e-07
3.78763e-07
3.79733e-07
3.80871e-07
3.82189e-07
3.83704e-07
3.8543e-07
3.87389e-07
3.896e-07
3.96012e-07
3.95971e-07
3.95889e-07
3.95764e-07
3.95598e-07
3.9539e-07
3.95141e-07
3.94853e-07
3.94526e-07
3.94162e-07
3.93763e-07
3.9333e-07
3.92865e-07
3.9237e-07
3.91847e-07
3.91298e-07
3.90725e-07
3.9013e-07
3.89516e-07
3.88885e-07
3.88239e-07
3.87581e-07
3.86914e-07
3.8624e-07
3.85563e-07
3.84884e-07
3.84207e-07
3.83534e-07
3.8287e-07
3.82216e-07
3.81576e-07
3.80954e-07
3.80353e-07
3.79776e-07
3.79228e-07
3.78712e-07
3.78232e-07
3.77793e-07
3.77399e-07
3.77056e-07
3.76767e-07
3.76538e-07
3.76375e-07
3.76283e-07
3.7627e-07
3.76341e-07
3.76505e-07
3.7677e-07
3.77145e-07
3.77638e-07
3.7826e-07
3.7902e-07
3.79932e-07
3.81006e-07
3.82258e-07
3.83701e-07
3.85354e-07
3.8723e-07
3.89352e-07
3.91735e-07
3.96008e-07
3.95967e-07
3.95885e-07
3.9576e-07
3.95594e-07
3.95386e-07
3.95137e-07
3.94848e-07
3.94522e-07
3.94158e-07
3.93759e-07
3.93326e-07
3.92861e-07
3.92366e-07
3.91843e-07
3.91293e-07
3.9072e-07
3.90125e-07
3.89511e-07
3.88879e-07
3.88233e-07
3.87576e-07
3.86908e-07
3.86235e-07
3.85557e-07
3.84878e-07
3.842e-07
3.83528e-07
3.82863e-07
3.82209e-07
3.81569e-07
3.80946e-07
3.80345e-07
3.79768e-07
3.7922e-07
3.78703e-07
3.78223e-07
3.77784e-07
3.7739e-07
3.77045e-07
3.76756e-07
3.76527e-07
3.76363e-07
3.76271e-07
3.76257e-07
3.76328e-07
3.76492e-07
3.76757e-07
3.77131e-07
3.77623e-07
3.78244e-07
3.79004e-07
3.79915e-07
3.80989e-07
3.8224e-07
3.83682e-07
3.85334e-07
3.87209e-07
3.8933e-07
3.91712e-07
3.96309e-07
3.96266e-07
3.96181e-07
3.96053e-07
3.95882e-07
3.95667e-07
3.9541e-07
3.95113e-07
3.94776e-07
3.94401e-07
3.9399e-07
3.93544e-07
3.93066e-07
3.92556e-07
3.92018e-07
3.91453e-07
3.90863e-07
3.90251e-07
3.8962e-07
3.8897e-07
3.88306e-07
3.8763e-07
3.86943e-07
3.8625e-07
3.85552e-07
3.84852e-07
3.84154e-07
3.83459e-07
3.82772e-07
3.82095e-07
3.81431e-07
3.80784e-07
3.80156e-07
3.79553e-07
3.78976e-07
3.7843e-07
3.7792e-07
3.77448e-07
3.7702e-07
3.7664e-07
3.76312e-07
3.76042e-07
3.75836e-07
3.75698e-07
3.75634e-07
3.75652e-07
3.75757e-07
3.75959e-07
3.76265e-07
3.76684e-07
3.77225e-07
3.77897e-07
3.78712e-07
3.79681e-07
3.80817e-07
3.82132e-07
3.83644e-07
3.85368e-07
3.87324e-07
3.89532e-07
3.96924e-07
3.96879e-07
3.96788e-07
3.96652e-07
3.9647e-07
3.96242e-07
3.95969e-07
3.95653e-07
3.95296e-07
3.94899e-07
3.94463e-07
3.93991e-07
3.93485e-07
3.92946e-07
3.92377e-07
3.9178e-07
3.91158e-07
3.90512e-07
3.89846e-07
3.89161e-07
3.8846e-07
3.87747e-07
3.87022e-07
3.86289e-07
3.85551e-07
3.84811e-07
3.8407e-07
3.83333e-07
3.82601e-07
3.81878e-07
3.81168e-07
3.80472e-07
3.79794e-07
3.79138e-07
3.78506e-07
3.77903e-07
3.77333e-07
3.76798e-07
3.76303e-07
3.75853e-07
3.75451e-07
3.75102e-07
3.74811e-07
3.74583e-07
3.74423e-07
3.74338e-07
3.74332e-07
3.74414e-07
3.74589e-07
3.74865e-07
3.75251e-07
3.75755e-07
3.76386e-07
3.77154e-07
3.78069e-07
3.79142e-07
3.80389e-07
3.81822e-07
3.83465e-07
3.85344e-07
3.97872e-07
3.97823e-07
3.97725e-07
3.97576e-07
3.97376e-07
3.97127e-07
3.96829e-07
3.96485e-07
3.96096e-07
3.95663e-07
3.9519e-07
3.94677e-07
3.94128e-07
3.93545e-07
3.92929e-07
3.92284e-07
3.91611e-07
3.90915e-07
3.90196e-07
3.89457e-07
3.88702e-07
3.87932e-07
3.8715e-07
3.86359e-07
3.85562e-07
3.8476e-07
3.83958e-07
3.83157e-07
3.8236e-07
3.8157e-07
3.80789e-07
3.80022e-07
3.7927e-07
3.78537e-07
3.77826e-07
3.77139e-07
3.76481e-07
3.75855e-07
3.75264e-07
3.74712e-07
3.74203e-07
3.7374e-07
3.73328e-07
3.72972e-07
3.72675e-07
3.72442e-07
3.72277e-07
3.72186e-07
3.72175e-07
3.7225e-07
3.72418e-07
3.72684e-07
3.73056e-07
3.73541e-07
3.74146e-07
3.74882e-07
3.75757e-07
3.76789e-07
3.77996e-07
3.79419e-07
3.99187e-07
3.99132e-07
3.99021e-07
3.98853e-07
3.9863e-07
3.9835e-07
3.98017e-07
3.97632e-07
3.97197e-07
3.96715e-07
3.96188e-07
3.95619e-07
3.9501e-07
3.94364e-07
3.93685e-07
3.92973e-07
3.92233e-07
3.91466e-07
3.90677e-07
3.89866e-07
3.89037e-07
3.88193e-07
3.87335e-07
3.86467e-07
3.85591e-07
3.8471e-07
3.83826e-07
3.82941e-07
3.82059e-07
3.81182e-07
3.80311e-07
3.79451e-07
3.78604e-07
3.77771e-07
3.76957e-07
3.76164e-07
3.75394e-07
3.74651e-07
3.73937e-07
3.73256e-07
3.7261e-07
3.72004e-07
3.7144e-07
3.70921e-07
3.70451e-07
3.70034e-07
3.69673e-07
3.6937e-07
3.69129e-07
3.68956e-07
3.68854e-07
3.68829e-07
3.68884e-07
3.69025e-07
3.69255e-07
3.69582e-07
3.70011e-07
3.7056e-07
3.71245e-07
3.72123e-07
4.00912e-07
4.00848e-07
4.0072e-07
4.00528e-07
4.0027e-07
3.99948e-07
3.99566e-07
3.99125e-07
3.98628e-07
3.98079e-07
3.9748e-07
3.96835e-07
3.96148e-07
3.95421e-07
3.94657e-07
3.9386e-07
3.93032e-07
3.92177e-07
3.91297e-07
3.90396e-07
3.89475e-07
3.88537e-07
3.87585e-07
3.86622e-07
3.85649e-07
3.8467e-07
3.83686e-07
3.82699e-07
3.81713e-07
3.8073e-07
3.79751e-07
3.78779e-07
3.77816e-07
3.76865e-07
3.75928e-07
3.75007e-07
3.74104e-07
3.73223e-07
3.72364e-07
3.71531e-07
3.70726e-07
3.69951e-07
3.69208e-07
3.685e-07
3.6783e-07
3.67199e-07
3.6661e-07
3.66066e-07
3.65566e-07
3.65113e-07
3.64707e-07
3.64355e-07
3.64054e-07
3.63812e-07
3.63624e-07
3.63499e-07
3.63436e-07
3.63455e-07
3.6357e-07
3.63854e-07
4.03111e-07
4.03036e-07
4.02884e-07
4.02656e-07
4.02351e-07
4.01972e-07
4.01522e-07
4.01005e-07
4.00425e-07
3.99787e-07
3.99094e-07
3.98351e-07
3.97562e-07
3.9673e-07
3.95861e-07
3.94956e-07
3.9402e-07
3.93055e-07
3.92065e-07
3.91052e-07
3.9002e-07
3.8897e-07
3.87906e-07
3.86829e-07
3.85742e-07
3.84646e-07
3.83545e-07
3.82441e-07
3.81334e-07
3.80228e-07
3.79123e-07
3.78023e-07
3.76929e-07
3.75842e-07
3.74765e-07
3.737e-07
3.72647e-07
3.7161e-07
3.70589e-07
3.69587e-07
3.68605e-07
3.67644e-07
3.66706e-07
3.65793e-07
3.64906e-07
3.64046e-07
3.63213e-07
3.62409e-07
3.61633e-07
3.60883e-07
3.60157e-07
3.5946e-07
3.58787e-07
3.58143e-07
3.57521e-07
3.56928e-07
3.56358e-07
3.55833e-07
3.55363e-07
3.55038e-07
4.05873e-07
4.0578e-07
4.05595e-07
4.05316e-07
4.04945e-07
4.04485e-07
4.03942e-07
4.03322e-07
4.02631e-07
4.01875e-07
4.0106e-07
4.00191e-07
3.99273e-07
3.98312e-07
3.97311e-07
3.96274e-07
3.95206e-07
3.94109e-07
3.92988e-07
3.91844e-07
3.9068e-07
3.895e-07
3.88304e-07
3.87096e-07
3.85877e-07
3.8465e-07
3.83416e-07
3.82176e-07
3.80933e-07
3.79689e-07
3.78444e-07
3.772e-07
3.75959e-07
3.74722e-07
3.73491e-07
3.72266e-07
3.7105e-07
3.69843e-07
3.68646e-07
3.67461e-07
3.66288e-07
3.65129e-07
3.63983e-07
3.62851e-07
3.61733e-07
3.60629e-07
3.59537e-07
3.58459e-07
3.57393e-07
3.56341e-07
3.55298e-07
3.54265e-07
3.53229e-07
3.52192e-07
3.51142e-07
3.5009e-07
3.49023e-07
3.4797e-07
3.46936e-07
3.46027e-07
4.09322e-07
4.09203e-07
4.08965e-07
4.08609e-07
4.08139e-07
4.07561e-07
4.06884e-07
4.0612e-07
4.05277e-07
4.04365e-07
4.03392e-07
4.02364e-07
4.01288e-07
4.00169e-07
3.99011e-07
3.97818e-07
3.96595e-07
3.95346e-07
3.94073e-07
3.92779e-07
3.91468e-07
3.9014e-07
3.88798e-07
3.87444e-07
3.8608e-07
3.84707e-07
3.83326e-07
3.8194e-07
3.80548e-07
3.79154e-07
3.77756e-07
3.76358e-07
3.74959e-07
3.73561e-07
3.72165e-07
3.70771e-07
3.69381e-07
3.67996e-07
3.66614e-07
3.65239e-07
3.63869e-07
3.62505e-07
3.61147e-07
3.59796e-07
3.58449e-07
3.5711e-07
3.55774e-07
3.54443e-07
3.53111e-07
3.51777e-07
3.50431e-07
3.4907e-07
3.4768e-07
3.46266e-07
3.44817e-07
3.43344e-07
3.41828e-07
3.40291e-07
3.38732e-07
3.37264e-07
4.13667e-07
4.13504e-07
4.13179e-07
4.12695e-07
4.12061e-07
4.11295e-07
4.10414e-07
4.09436e-07
4.08376e-07
4.07248e-07
4.06061e-07
4.04823e-07
4.03541e-07
4.0222e-07
4.00866e-07
3.99483e-07
3.98075e-07
3.96646e-07
3.95198e-07
3.93734e-07
3.92255e-07
3.90764e-07
3.89261e-07
3.87749e-07
3.86227e-07
3.84697e-07
3.8316e-07
3.81617e-07
3.80068e-07
3.78514e-07
3.76957e-07
3.75395e-07
3.73831e-07
3.72264e-07
3.70696e-07
3.69126e-07
3.67556e-07
3.65985e-07
3.64413e-07
3.62842e-07
3.6127e-07
3.59697e-07
3.58124e-07
3.56548e-07
3.54969e-07
3.53386e-07
3.51793e-07
3.50192e-07
3.48576e-07
3.46946e-07
3.45293e-07
3.43623e-07
3.41926e-07
3.40209e-07
3.38446e-07
3.36642e-07
3.34761e-07
3.32826e-07
3.30832e-07
3.28906e-07
4.19185e-07
4.18971e-07
4.1854e-07
4.17894e-07
4.1705e-07
4.16036e-07
4.14885e-07
4.13627e-07
4.12288e-07
4.10883e-07
4.09426e-07
4.07925e-07
4.06388e-07
4.04821e-07
4.0323e-07
4.01619e-07
3.99993e-07
3.98355e-07
3.96705e-07
3.95046e-07
3.93378e-07
3.91703e-07
3.9002e-07
3.88331e-07
3.86635e-07
3.84932e-07
3.83224e-07
3.8151e-07
3.79791e-07
3.78066e-07
3.76335e-07
3.746e-07
3.7286e-07
3.71115e-07
3.69365e-07
3.67611e-07
3.65854e-07
3.64091e-07
3.62326e-07
3.60556e-07
3.58782e-07
3.57003e-07
3.5522e-07
3.53432e-07
3.51638e-07
3.49837e-07
3.48029e-07
3.46212e-07
3.44383e-07
3.42541e-07
3.40679e-07
3.38791e-07
3.36867e-07
3.34895e-07
3.32858e-07
3.30744e-07
3.2854e-07
3.26258e-07
3.239e-07
3.21563e-07
4.25884e-07
4.25451e-07
4.24665e-07
4.23574e-07
4.22249e-07
4.2076e-07
4.19166e-07
4.17504e-07
4.15796e-07
4.14053e-07
4.12281e-07
4.10486e-07
4.08674e-07
4.0685e-07
4.05021e-07
4.03189e-07
4.01356e-07
3.99521e-07
3.97685e-07
3.95846e-07
3.94005e-07
3.92161e-07
3.90314e-07
3.88461e-07
3.86604e-07
3.84742e-07
3.82873e-07
3.80997e-07
3.79115e-07
3.77224e-07
3.75326e-07
3.7342e-07
3.71506e-07
3.69583e-07
3.67652e-07
3.65712e-07
3.63764e-07
3.61807e-07
3.59843e-07
3.57869e-07
3.55887e-07
3.53895e-07
3.51896e-07
3.49883e-07
3.47864e-07
3.45829e-07
3.43787e-07
3.41724e-07
3.39654e-07
3.37555e-07
3.3545e-07
3.33306e-07
3.31159e-07
3.28963e-07
3.26768e-07
3.24511e-07
3.22264e-07
3.19937e-07
3.17637e-07
3.15255e-07
4.37618e-07
4.36868e-07
4.35454e-07
4.33502e-07
4.31217e-07
4.28797e-07
4.26366e-07
4.23976e-07
4.21629e-07
4.19314e-07
4.17019e-07
4.14747e-07
4.125e-07
4.10285e-07
4.08104e-07
4.05954e-07
4.03831e-07
4.01731e-07
3.99648e-07
3.97579e-07
3.9552e-07
3.93469e-07
3.91424e-07
3.89381e-07
3.87338e-07
3.85294e-07
3.83246e-07
3.81193e-07
3.79134e-07
3.77066e-07
3.74991e-07
3.72905e-07
3.7081e-07
3.68704e-07
3.66589e-07
3.6446e-07
3.62323e-07
3.60172e-07
3.58013e-07
3.55838e-07
3.53658e-07
3.51459e-07
3.49258e-07
3.47036e-07
3.44815e-07
3.42568e-07
3.40332e-07
3.3806e-07
3.35815e-07
3.33521e-07
3.31278e-07
3.28968e-07
3.26748e-07
3.24432e-07
3.22272e-07
3.19963e-07
3.17914e-07
3.15619e-07
3.13722e-07
3.11346e-07
4.46359e-07
4.44631e-07
4.41986e-07
4.3886e-07
4.35644e-07
4.32549e-07
4.29626e-07
4.26838e-07
4.24136e-07
4.21489e-07
4.1889e-07
4.16347e-07
4.13864e-07
4.11442e-07
4.09075e-07
4.06753e-07
4.04467e-07
4.02209e-07
3.99974e-07
3.97756e-07
3.95551e-07
3.93355e-07
3.91165e-07
3.88977e-07
3.86788e-07
3.84596e-07
3.82397e-07
3.80191e-07
3.77976e-07
3.7575e-07
3.73513e-07
3.71262e-07
3.69e-07
3.66723e-07
3.64433e-07
3.62129e-07
3.59813e-07
3.5748e-07
3.55138e-07
3.52778e-07
3.5041e-07
3.48023e-07
3.45632e-07
3.43216e-07
3.40805e-07
3.38358e-07
3.3593e-07
3.33449e-07
3.31012e-07
3.28492e-07
3.26067e-07
3.23511e-07
3.2115e-07
3.18576e-07
3.16415e-07
3.13891e-07
3.12264e-07
3.0987e-07
3.09386e-07
3.06704e-07
4.94402e-07
4.80279e-07
4.66511e-07
4.55934e-07
4.48511e-07
4.4312e-07
4.38668e-07
4.34589e-07
4.30713e-07
4.27048e-07
4.23631e-07
4.20466e-07
4.17519e-07
4.14741e-07
4.12086e-07
4.09519e-07
4.0702e-07
4.04574e-07
4.02172e-07
3.99805e-07
3.97464e-07
3.95141e-07
3.92831e-07
3.90526e-07
3.88223e-07
3.85919e-07
3.83609e-07
3.81292e-07
3.78965e-07
3.76628e-07
3.74277e-07
3.71914e-07
3.69536e-07
3.67144e-07
3.64737e-07
3.62317e-07
3.59881e-07
3.57432e-07
3.5497e-07
3.52494e-07
3.50006e-07
3.47505e-07
3.44993e-07
3.42468e-07
3.39931e-07
3.37381e-07
3.34819e-07
3.32239e-07
3.29648e-07
3.27029e-07
3.24403e-07
3.2172e-07
3.1906e-07
3.16252e-07
3.13597e-07
3.10457e-07
3.08092e-07
3.03677e-07
3.03362e-07
2.92753e-07
3.33039e-07
2.82547e-07
2.61676e-07
2.44155e-07
2.26601e-07
2.08911e-07
1.89153e-07
1.68059e-07
1.43417e-07
1.16922e-07
8.60569e-08
5.3775e-08
1.69979e-08
-1.98783e-08
-6.07264e-08
-9.95973e-08
-1.41786e-07
-1.79644e-07
-2.20406e-07
-2.5452e-07
-2.91517e-07
-3.19906e-07
-3.51624e-07
-3.72796e-07
-3.991e-07
-4.10889e-07
-4.35971e-07
-4.33294e-07
-4.65137e-07
-5.60171e-07
3.19168e-07
2.64131e-07
2.50248e-07
2.35302e-07
2.18422e-07
2.01143e-07
1.81691e-07
1.60745e-07
1.36295e-07
1.10156e-07
7.99209e-08
4.84936e-08
1.28895e-08
-2.26639e-08
-6.19811e-08
-9.93829e-08
-1.39772e-07
-1.76141e-07
-2.15059e-07
-2.48225e-07
-2.83969e-07
-3.11726e-07
-3.43503e-07
-3.64008e-07
-3.91584e-07
-4.03417e-07
-4.26798e-07
-4.36219e-07
-4.40828e-07
-5.88478e-07
3.06994e-07
2.61679e-07
2.48835e-07
2.34367e-07
2.16992e-07
1.98731e-07
1.78758e-07
1.57471e-07
1.32972e-07
1.06702e-07
7.67042e-08
4.53704e-08
1.03344e-08
-2.48678e-08
-6.32745e-08
-1.00082e-07
-1.3946e-07
-1.75475e-07
-2.13817e-07
-2.46593e-07
-2.81951e-07
-3.09633e-07
-3.4033e-07
-3.62618e-07
-3.8758e-07
-4.05797e-07
-4.23202e-07
-4.48106e-07
-4.27193e-07
-5.29106e-07
2.96833e-07
2.57598e-07
2.42679e-07
2.28734e-07
2.1206e-07
1.94391e-07
1.74612e-07
1.53156e-07
1.28715e-07
1.02284e-07
7.26202e-08
4.12978e-08
7.02917e-09
-2.79738e-08
-6.51503e-08
-1.01751e-07
-1.3958e-07
-1.75529e-07
-2.11733e-07
-2.45088e-07
-2.77746e-07
-3.07751e-07
-3.35591e-07
-3.61531e-07
-3.82531e-07
-4.07359e-07
-4.15286e-07
-4.51073e-07
-4.2401e-07
-4.93181e-07
2.87026e-07
2.55022e-07
2.39229e-07
2.26413e-07
2.10295e-07
1.91851e-07
1.71556e-07
1.49531e-07
1.25051e-07
9.82072e-08
6.87959e-08
3.71978e-08
3.63288e-09
-3.14723e-08
-6.74454e-08
-1.041e-07
-1.40273e-07
-1.7643e-07
-2.10645e-07
-2.44894e-07
-2.75438e-07
-3.07134e-07
-3.32071e-07
-3.61417e-07
-3.78232e-07
-4.07587e-07
-4.1157e-07
-4.46191e-07
-4.31681e-07
-4.66683e-07
2.78442e-07
2.53308e-07
2.36682e-07
2.23412e-07
2.07565e-07
1.8902e-07
1.68539e-07
1.46025e-07
1.21422e-07
9.41427e-08
6.48563e-08
3.29371e-08
-9.44872e-11
-3.53452e-08
-7.02995e-08
-1.07007e-07
-1.41698e-07
-1.78036e-07
-2.10473e-07
-2.45276e-07
-2.73846e-07
-3.06539e-07
-3.29694e-07
-3.60341e-07
-3.76149e-07
-4.05371e-07
-4.12261e-07
-4.39535e-07
-4.41166e-07
-4.57454e-07
2.7142e-07
2.51812e-07
2.35072e-07
2.20958e-07
2.05227e-07
1.86612e-07
1.65879e-07
1.42797e-07
1.17888e-07
9.01324e-08
6.07757e-08
2.85556e-08
-4.19688e-09
-3.94868e-08
-7.37574e-08
-1.10268e-07
-1.43945e-07
-1.79988e-07
-2.1132e-07
-2.45807e-07
-2.73527e-07
-3.05851e-07
-3.29002e-07
-3.58736e-07
-3.76462e-07
-4.02713e-07
-4.15333e-07
-4.3587e-07
-4.46058e-07
-4.57729e-07
2.66185e-07
2.5042e-07
2.34184e-07
2.19109e-07
2.03132e-07
1.84367e-07
1.63311e-07
1.39677e-07
1.1429e-07
8.60844e-08
5.64514e-08
2.40284e-08
-8.72357e-09
-4.38688e-08
-7.78268e-08
-1.1382e-07
-1.46998e-07
-1.82218e-07
-2.13145e-07
-2.46548e-07
-2.74377e-07
-3.05303e-07
-3.29594e-07
-3.57306e-07
-3.77794e-07
-4.01089e-07
-4.18005e-07
-4.35452e-07
-4.49087e-07
-4.60549e-07
2.62821e-07
2.49129e-07
2.33547e-07
2.17822e-07
2.01288e-07
1.82206e-07
1.60734e-07
1.36577e-07
1.1058e-07
8.19413e-08
5.18617e-08
1.93101e-08
-1.36554e-08
-4.85226e-08
-8.24392e-08
-1.17704e-07
-1.50721e-07
-1.84818e-07
-2.15714e-07
-2.47697e-07
-2.75938e-07
-3.05247e-07
-3.30632e-07
-3.56662e-07
-3.7899e-07
-4.00937e-07
-4.19835e-07
-4.37015e-07
-4.51806e-07
-4.64494e-07
2.61085e-07
2.48004e-07
2.32989e-07
2.169e-07
1.99652e-07
1.80065e-07
1.58054e-07
1.33379e-07
1.06699e-07
7.76143e-08
4.69882e-08
1.4318e-08
-1.89605e-08
-5.35207e-08
-8.74981e-08
-1.22001e-07
-1.54929e-07
-1.87896e-07
-2.1874e-07
-2.49402e-07
-2.77821e-07
-3.05852e-07
-3.31751e-07
-3.56843e-07
-3.79954e-07
-4.01612e-07
-4.21326e-07
-4.39041e-07
-4.54765e-07
-4.68711e-07
2.60499e-07
2.47193e-07
2.32395e-07
2.16058e-07
1.98091e-07
1.77858e-07
1.55192e-07
1.29961e-07
1.02575e-07
7.3006e-08
4.18027e-08
8.96593e-09
-2.46264e-08
-5.89383e-08
-9.29407e-08
-1.26776e-07
-1.59508e-07
-1.91508e-07
-2.22079e-07
-2.51687e-07
-2.79906e-07
-3.07049e-07
-3.32928e-07
-3.57537e-07
-3.80861e-07
-4.02596e-07
-4.22826e-07
-4.41209e-07
-4.57917e-07
-4.73014e-07
2.60478e-07
2.46735e-07
2.31777e-07
2.15096e-07
1.96428e-07
1.75472e-07
1.5207e-07
1.26218e-07
9.81244e-08
6.80213e-08
3.6247e-08
3.17494e-09
-3.069e-08
-6.48395e-08
-9.87797e-08
-1.3207e-07
-1.6446e-07
-1.9566e-07
-2.25744e-07
-2.54497e-07
-2.82242e-07
-3.08696e-07
-3.34272e-07
-3.58545e-07
-3.81873e-07
-4.03744e-07
-4.24403e-07
-4.43429e-07
-4.61057e-07
-4.77305e-07
2.60621e-07
2.46483e-07
2.3109e-07
2.13888e-07
1.94502e-07
1.72786e-07
1.48606e-07
1.22063e-07
9.32512e-08
6.25619e-08
3.0229e-08
-3.14199e-09
-3.72381e-08
-7.12966e-08
-1.05099e-07
-1.37932e-07
-1.69873e-07
-2.00367e-07
-2.2983e-07
-2.57808e-07
-2.84937e-07
-3.10741e-07
-3.35891e-07
-3.59808e-07
-3.83072e-07
-4.05e-07
-4.26074e-07
-4.45612e-07
-4.64164e-07
-4.81365e-07
2.6068e-07
2.46225e-07
2.30249e-07
2.1237e-07
1.92222e-07
1.69712e-07
1.44718e-07
1.17409e-07
8.78495e-08
5.65176e-08
2.36257e-08
-1.00971e-08
-4.44006e-08
-7.84164e-08
-1.12033e-07
-1.44452e-07
-1.75877e-07
-2.05696e-07
-2.34454e-07
-2.61667e-07
-2.88084e-07
-3.13217e-07
-3.37841e-07
-3.61355e-07
-3.84455e-07
-4.06385e-07
-4.27772e-07
-4.47778e-07
-4.67131e-07
-4.85238e-07
2.60564e-07
2.45769e-07
2.29164e-07
2.10525e-07
1.89555e-07
1.66191e-07
1.40322e-07
1.12162e-07
8.17956e-08
4.97553e-08
1.62817e-08
-1.78386e-08
-5.23465e-08
-8.63473e-08
-1.19751e-07
-1.51763e-07
-1.82625e-07
-2.11757e-07
-2.39745e-07
-2.66156e-07
-2.91777e-07
-3.16175e-07
-3.40171e-07
-3.63199e-07
-3.86023e-07
-4.0787e-07
-4.29468e-07
-4.49864e-07
-4.69939e-07
-4.8885e-07
2.60333e-07
2.45079e-07
2.27825e-07
2.08375e-07
1.86501e-07
1.62175e-07
1.35325e-07
1.06199e-07
7.49377e-08
4.21085e-08
8.00834e-09
-2.65548e-08
-6.12761e-08
-9.52747e-08
-1.2844e-07
-1.60028e-07
-1.90278e-07
-2.18678e-07
-2.45826e-07
-2.71364e-07
-2.96095e-07
-3.19664e-07
-3.42907e-07
-3.65345e-07
-3.87745e-07
-4.09414e-07
-4.31073e-07
-4.518e-07
-4.72473e-07
-4.92151e-07
2.60171e-07
2.4424e-07
2.26277e-07
2.05947e-07
1.83042e-07
1.57589e-07
1.29594e-07
9.93543e-08
6.70819e-08
3.3368e-08
-1.41933e-09
-3.64686e-08
-7.14133e-08
-1.05405e-07
-1.383e-07
-1.69418e-07
-1.98991e-07
-2.26587e-07
-2.5281e-07
-2.77376e-07
-3.01108e-07
-3.23722e-07
-3.46076e-07
-3.67774e-07
-3.89588e-07
-4.10935e-07
-4.32486e-07
-4.53454e-07
-4.74573e-07
-4.95014e-07
2.60331e-07
2.43421e-07
2.24569e-07
2.03196e-07
1.79063e-07
1.52265e-07
1.22921e-07
9.13931e-08
5.79729e-08
2.32718e-08
-1.22663e-08
-4.78349e-08
-8.30004e-08
-1.1696e-07
-1.49528e-07
-1.80109e-07
-2.0892e-07
-2.35614e-07
-2.60807e-07
-2.8428e-07
-3.06892e-07
-3.28394e-07
-3.49716e-07
-3.70478e-07
-3.91543e-07
-4.12348e-07
-4.33627e-07
-4.54638e-07
-4.76081e-07
-4.97156e-07
2.60935e-07
2.42735e-07
2.22657e-07
1.99929e-07
1.74293e-07
1.45902e-07
1.14993e-07
8.19927e-08
4.72834e-08
1.14966e-08
-2.48464e-08
-6.09485e-08
-9.63118e-08
-1.30188e-07
-1.62354e-07
-1.92308e-07
-2.20246e-07
-2.45928e-07
-2.69962e-07
-2.92211e-07
-3.13554e-07
-3.3378e-07
-3.53894e-07
-3.73503e-07
-3.93617e-07
-4.13612e-07
-4.34402e-07
-4.55177e-07
-4.76737e-07
-4.98217e-07
2.6175e-07
2.41995e-07
2.20213e-07
1.95713e-07
1.68263e-07
1.38036e-07
1.05355e-07
7.07103e-08
3.45783e-08
-2.37829e-09
-3.95626e-08
-7.61888e-08
-1.11704e-07
-1.45423e-07
-1.7709e-07
-2.06308e-07
-2.33247e-07
-2.57788e-07
-2.80509e-07
-3.01386e-07
-3.21274e-07
-3.40042e-07
-3.58726e-07
-3.76941e-07
-3.95849e-07
-4.14709e-07
-4.3474e-07
-4.54854e-07
-4.76256e-07
-4.97642e-07
2.62007e-07
2.40426e-07
2.16593e-07
1.89966e-07
1.60391e-07
1.28073e-07
9.34082e-08
5.6948e-08
1.92678e-08
-1.89289e-08
-5.6972e-08
-9.40878e-08
-1.29683e-07
-1.6314e-07
-1.94186e-07
-2.22535e-07