/*--------------------------------*- C++ -*----------------------------------*\
| =========                 |                                                 |
| \\      /  F ield         | OpenFOAM: The Open Source CFD Toolbox           |
|  \\    /   O peration     | Version:  2312                                  |
|   \\  /    A nd           | Website:  www.openfoam.com                      |
|    \\/     M anipulation  |                                                 |
\*---------------------------------------------------------------------------*/
FoamFile
{
    version     2.0;
    format      ascii;
    arch        "LSB;label=32;scalar=64";
    class       volScalarField;
    location    "23000";
    object      p;
}
// * * * * * * * * * * * * * * * * * * * * * * * * * * * * * * * * * * * * * //

dimensions      [0 2 -2 0 0 0 0];

internalField   nonuniform List<scalar> 
10800
(
5.09852e-07
4.95729e-07
4.81961e-07
4.71383e-07
4.63959e-07
4.58566e-07
4.54113e-07
4.50032e-07
4.46153e-07
4.42486e-07
4.39066e-07
4.35898e-07
4.32949e-07
4.30167e-07
4.27507e-07
4.24936e-07
4.22432e-07
4.19982e-07
4.17575e-07
4.15202e-07
4.12856e-07
4.10527e-07
4.08211e-07
4.059e-07
4.03592e-07
4.01282e-07
3.98967e-07
3.96646e-07
3.94316e-07
3.91976e-07
3.89625e-07
3.87262e-07
3.84887e-07
3.825e-07
3.80102e-07
3.77693e-07
3.75274e-07
3.72845e-07
3.70408e-07
3.67963e-07
3.65513e-07
3.63058e-07
3.60599e-07
3.58136e-07
3.55672e-07
3.53206e-07
3.50738e-07
3.48266e-07
3.45796e-07
3.43311e-07
3.40837e-07
3.38318e-07
3.35842e-07
3.33226e-07
3.30788e-07
3.27864e-07
3.25753e-07
3.21596e-07
3.21514e-07
3.11374e-07
4.6181e-07
4.60083e-07
4.57437e-07
4.54311e-07
4.51094e-07
4.47998e-07
4.45073e-07
4.42285e-07
4.39581e-07
4.36932e-07
4.34331e-07
4.31785e-07
4.293e-07
4.26875e-07
4.24505e-07
4.2218e-07
4.1989e-07
4.17629e-07
4.1539e-07
4.13168e-07
4.10959e-07
4.0876e-07
4.06566e-07
4.04374e-07
4.02181e-07
3.99986e-07
3.97785e-07
3.95576e-07
3.9336e-07
3.91134e-07
3.88898e-07
3.8665e-07
3.84393e-07
3.82123e-07
3.79844e-07
3.77552e-07
3.75252e-07
3.72941e-07
3.70624e-07
3.68295e-07
3.65964e-07
3.6362e-07
3.6128e-07
3.58922e-07
3.56579e-07
3.54209e-07
3.51867e-07
3.49483e-07
3.47155e-07
3.44757e-07
3.42467e-07
3.4006e-07
3.37859e-07
3.35453e-07
3.33459e-07
3.31103e-07
3.29631e-07
3.27398e-07
3.27046e-07
3.24507e-07
4.53074e-07
4.52323e-07
4.50909e-07
4.48957e-07
4.46672e-07
4.4425e-07
4.41819e-07
4.39428e-07
4.37081e-07
4.34764e-07
4.32468e-07
4.30194e-07
4.27946e-07
4.2573e-07
4.23547e-07
4.21395e-07
4.19271e-07
4.17169e-07
4.15085e-07
4.13014e-07
4.10954e-07
4.08903e-07
4.06856e-07
4.04813e-07
4.02771e-07
4.00727e-07
3.98681e-07
3.9663e-07
3.94575e-07
3.92512e-07
3.90443e-07
3.88366e-07
3.86281e-07
3.84188e-07
3.82088e-07
3.79978e-07
3.77862e-07
3.75737e-07
3.73608e-07
3.71468e-07
3.69326e-07
3.67174e-07
3.65023e-07
3.62859e-07
3.60703e-07
3.58528e-07
3.5637e-07
3.54186e-07
3.52035e-07
3.49844e-07
3.47708e-07
3.45512e-07
3.43408e-07
3.41211e-07
3.39166e-07
3.36973e-07
3.35027e-07
3.32836e-07
3.31017e-07
3.28736e-07
4.41343e-07
4.4091e-07
4.40123e-07
4.39033e-07
4.37708e-07
4.36219e-07
4.34624e-07
4.32961e-07
4.31253e-07
4.2951e-07
4.27737e-07
4.25941e-07
4.24129e-07
4.22305e-07
4.20476e-07
4.18643e-07
4.1681e-07
4.14975e-07
4.13139e-07
4.11301e-07
4.09461e-07
4.07618e-07
4.05771e-07
4.03921e-07
4.02067e-07
4.00207e-07
3.98343e-07
3.96472e-07
3.94596e-07
3.92713e-07
3.90824e-07
3.88928e-07
3.87027e-07
3.85118e-07
3.83205e-07
3.81284e-07
3.79359e-07
3.77427e-07
3.75491e-07
3.73549e-07
3.71604e-07
3.69651e-07
3.67696e-07
3.65732e-07
3.63766e-07
3.61788e-07
3.59808e-07
3.57811e-07
3.55811e-07
3.53787e-07
3.51762e-07
3.49704e-07
3.47647e-07
3.45548e-07
3.43454e-07
3.41303e-07
3.39162e-07
3.36944e-07
3.34741e-07
3.32448e-07
4.34649e-07
4.34435e-07
4.34004e-07
4.33358e-07
4.32514e-07
4.315e-07
4.30349e-07
4.29091e-07
4.27752e-07
4.26347e-07
4.2489e-07
4.2339e-07
4.21853e-07
4.20286e-07
4.18696e-07
4.17086e-07
4.15461e-07
4.13824e-07
4.12176e-07
4.10518e-07
4.08853e-07
4.0718e-07
4.05501e-07
4.03815e-07
4.02123e-07
4.00426e-07
3.98724e-07
3.97018e-07
3.95306e-07
3.93591e-07
3.91871e-07
3.90148e-07
3.88422e-07
3.86693e-07
3.84961e-07
3.83228e-07
3.81492e-07
3.79756e-07
3.78018e-07
3.76279e-07
3.74539e-07
3.72798e-07
3.71056e-07
3.69312e-07
3.67567e-07
3.6582e-07
3.64069e-07
3.62312e-07
3.60548e-07
3.58771e-07
3.56976e-07
3.55156e-07
3.53297e-07
3.51389e-07
3.49414e-07
3.47366e-07
3.45231e-07
3.43019e-07
3.40738e-07
3.3848e-07
4.29135e-07
4.28972e-07
4.28647e-07
4.28163e-07
4.2753e-07
4.26764e-07
4.25883e-07
4.24905e-07
4.23846e-07
4.22719e-07
4.21532e-07
4.20295e-07
4.19014e-07
4.17694e-07
4.16341e-07
4.14959e-07
4.13553e-07
4.12126e-07
4.10681e-07
4.09219e-07
4.07744e-07
4.06257e-07
4.04758e-07
4.0325e-07
4.01734e-07
4.0021e-07
3.9868e-07
3.97145e-07
3.95605e-07
3.94061e-07
3.92515e-07
3.90966e-07
3.89415e-07
3.87864e-07
3.86313e-07
3.84762e-07
3.83212e-07
3.81663e-07
3.80116e-07
3.78571e-07
3.77028e-07
3.75487e-07
3.73946e-07
3.72405e-07
3.70863e-07
3.69318e-07
3.67766e-07
3.66207e-07
3.64636e-07
3.63054e-07
3.61455e-07
3.59842e-07
3.58205e-07
3.56548e-07
3.54844e-07
3.53094e-07
3.51264e-07
3.49379e-07
3.47434e-07
3.45555e-07
4.24794e-07
4.24676e-07
4.24438e-07
4.24082e-07
4.23612e-07
4.23034e-07
4.22359e-07
4.21595e-07
4.20753e-07
4.19841e-07
4.18869e-07
4.17843e-07
4.16768e-07
4.1565e-07
4.14494e-07
4.13304e-07
4.12083e-07
4.10836e-07
4.09567e-07
4.08276e-07
4.06968e-07
4.05645e-07
4.04308e-07
4.02959e-07
4.01601e-07
4.00234e-07
3.98861e-07
3.97483e-07
3.961e-07
3.94715e-07
3.93329e-07
3.91942e-07
3.90557e-07
3.89173e-07
3.87793e-07
3.86416e-07
3.85044e-07
3.83678e-07
3.82318e-07
3.80966e-07
3.7962e-07
3.78283e-07
3.76953e-07
3.75631e-07
3.74317e-07
3.73011e-07
3.71711e-07
3.70416e-07
3.69121e-07
3.67824e-07
3.66512e-07
3.65185e-07
3.6383e-07
3.62454e-07
3.61045e-07
3.59612e-07
3.58133e-07
3.56632e-07
3.55106e-07
3.53664e-07
4.21349e-07
4.21256e-07
4.21071e-07
4.20792e-07
4.20422e-07
4.19962e-07
4.1942e-07
4.18801e-07
4.18111e-07
4.17356e-07
4.16542e-07
4.15675e-07
4.14759e-07
4.13799e-07
4.128e-07
4.11766e-07
4.10701e-07
4.09607e-07
4.08489e-07
4.07348e-07
4.06189e-07
4.05012e-07
4.03822e-07
4.02619e-07
4.01406e-07
4.00185e-07
3.98958e-07
3.97727e-07
3.96492e-07
3.95257e-07
3.94022e-07
3.92789e-07
3.9156e-07
3.90336e-07
3.89118e-07
3.87908e-07
3.86708e-07
3.85517e-07
3.84338e-07
3.83172e-07
3.82019e-07
3.8088e-07
3.79755e-07
3.78646e-07
3.7755e-07
3.7647e-07
3.75402e-07
3.74349e-07
3.73309e-07
3.72284e-07
3.71268e-07
3.70262e-07
3.69252e-07
3.68239e-07
3.67214e-07
3.66185e-07
3.65141e-07
3.64107e-07
3.6309e-07
3.62191e-07
4.1859e-07
4.18515e-07
4.18363e-07
4.18135e-07
4.17831e-07
4.17453e-07
4.17004e-07
4.16487e-07
4.15909e-07
4.15272e-07
4.1458e-07
4.13839e-07
4.13051e-07
4.12222e-07
4.11355e-07
4.10452e-07
4.09519e-07
4.08557e-07
4.0757e-07
4.06561e-07
4.05533e-07
4.04488e-07
4.03428e-07
4.02357e-07
4.01275e-07
4.00186e-07
3.99092e-07
3.97994e-07
3.96896e-07
3.95798e-07
3.94702e-07
3.93611e-07
3.92527e-07
3.91452e-07
3.90386e-07
3.89333e-07
3.88294e-07
3.8727e-07
3.86263e-07
3.85276e-07
3.84309e-07
3.83364e-07
3.82443e-07
3.81547e-07
3.80676e-07
3.79834e-07
3.79019e-07
3.78232e-07
3.77473e-07
3.76739e-07
3.76029e-07
3.75347e-07
3.7469e-07
3.7406e-07
3.73451e-07
3.72869e-07
3.72307e-07
3.71788e-07
3.71321e-07
3.70993e-07
4.16393e-07
4.16329e-07
4.16201e-07
4.16009e-07
4.15752e-07
4.15431e-07
4.15049e-07
4.14609e-07
4.14114e-07
4.13566e-07
4.12969e-07
4.12326e-07
4.1164e-07
4.10915e-07
4.10154e-07
4.09359e-07
4.08534e-07
4.07682e-07
4.06806e-07
4.05908e-07
4.0499e-07
4.04057e-07
4.0311e-07
4.02151e-07
4.01184e-07
4.0021e-07
3.99232e-07
3.98252e-07
3.97273e-07
3.96297e-07
3.95326e-07
3.94362e-07
3.93408e-07
3.92466e-07
3.91538e-07
3.90627e-07
3.89735e-07
3.88863e-07
3.88016e-07
3.87194e-07
3.864e-07
3.85636e-07
3.84905e-07
3.84209e-07
3.8355e-07
3.82931e-07
3.82353e-07
3.81819e-07
3.81328e-07
3.80883e-07
3.80486e-07
3.8014e-07
3.79846e-07
3.79607e-07
3.79422e-07
3.79298e-07
3.79232e-07
3.79246e-07
3.79353e-07
3.79623e-07
4.14668e-07
4.14613e-07
4.14503e-07
4.14336e-07
4.14112e-07
4.13834e-07
4.13501e-07
4.13117e-07
4.12683e-07
4.12203e-07
4.11677e-07
4.1111e-07
4.10503e-07
4.0986e-07
4.09182e-07
4.08473e-07
4.07736e-07
4.06972e-07
4.06186e-07
4.05378e-07
4.04553e-07
4.03713e-07
4.02859e-07
4.01996e-07
4.01125e-07
4.00248e-07
3.9937e-07
3.98491e-07
3.97614e-07
3.96743e-07
3.95879e-07
3.95026e-07
3.94186e-07
3.9336e-07
3.92554e-07
3.91768e-07
3.91006e-07
3.90271e-07
3.89565e-07
3.88892e-07
3.88254e-07
3.87655e-07
3.87098e-07
3.86587e-07
3.86124e-07
3.85713e-07
3.85357e-07
3.85058e-07
3.84821e-07
3.84651e-07
3.8455e-07
3.84526e-07
3.84579e-07
3.84717e-07
3.84941e-07
3.8526e-07
3.85678e-07
3.86213e-07
3.8688e-07
3.87736e-07
4.13354e-07
4.13305e-07
4.13206e-07
4.13058e-07
4.12859e-07
4.1261e-07
4.12314e-07
4.1197e-07
4.11582e-07
4.11151e-07
4.10679e-07
4.10168e-07
4.09621e-07
4.09039e-07
4.08426e-07
4.07783e-07
4.07114e-07
4.06419e-07
4.05703e-07
4.04968e-07
4.04216e-07
4.0345e-07
4.02672e-07
4.01885e-07
4.01092e-07
4.00295e-07
3.99497e-07
3.98701e-07
3.97909e-07
3.97124e-07
3.96349e-07
3.95587e-07
3.94841e-07
3.94113e-07
3.93408e-07
3.92727e-07
3.92075e-07
3.91454e-07
3.90869e-07
3.90322e-07
3.89818e-07
3.8936e-07
3.88952e-07
3.88599e-07
3.88305e-07
3.88074e-07
3.87909e-07
3.87818e-07
3.87806e-07
3.87879e-07
3.88043e-07
3.88303e-07
3.88667e-07
3.89143e-07
3.89736e-07
3.90457e-07
3.91315e-07
3.92326e-07
3.93508e-07
3.94904e-07
4.12404e-07
4.12359e-07
4.12269e-07
4.12133e-07
4.11951e-07
4.11724e-07
4.11452e-07
4.11137e-07
4.10781e-07
4.10385e-07
4.09951e-07
4.09481e-07
4.08976e-07
4.08439e-07
4.07873e-07
4.07278e-07
4.06658e-07
4.06015e-07
4.05351e-07
4.04669e-07
4.03972e-07
4.03261e-07
4.0254e-07
4.01811e-07
4.01077e-07
4.0034e-07
3.99604e-07
3.9887e-07
3.98143e-07
3.97425e-07
3.96718e-07
3.96026e-07
3.95353e-07
3.94701e-07
3.94074e-07
3.93475e-07
3.92909e-07
3.92378e-07
3.91887e-07
3.91439e-07
3.9104e-07
3.90693e-07
3.90403e-07
3.90176e-07
3.90016e-07
3.8993e-07
3.89922e-07
3.89999e-07
3.90169e-07
3.9044e-07
3.90818e-07
3.91312e-07
3.9193e-07
3.92683e-07
3.93581e-07
3.94635e-07
3.95859e-07
3.97267e-07
3.9888e-07
4.00726e-07
4.11787e-07
4.11744e-07
4.1166e-07
4.11532e-07
4.11361e-07
4.11147e-07
4.10891e-07
4.10595e-07
4.10259e-07
4.09885e-07
4.09475e-07
4.09031e-07
4.08554e-07
4.08047e-07
4.0751e-07
4.06947e-07
4.0636e-07
4.05751e-07
4.05121e-07
4.04475e-07
4.03814e-07
4.0314e-07
4.02457e-07
4.01767e-07
4.01072e-07
4.00376e-07
3.99681e-07
3.9899e-07
3.98306e-07
3.97632e-07
3.96972e-07
3.96329e-07
3.95705e-07
3.95105e-07
3.94531e-07
3.93989e-07
3.93481e-07
3.93011e-07
3.92585e-07
3.92206e-07
3.9188e-07
3.9161e-07
3.91403e-07
3.91263e-07
3.91197e-07
3.91211e-07
3.91313e-07
3.91508e-07
3.91807e-07
3.92217e-07
3.92746e-07
3.93405e-07
3.94205e-07
3.95156e-07
3.96271e-07
3.97564e-07
3.9905e-07
4.00744e-07
4.02668e-07
4.0484e-07
4.11483e-07
4.11442e-07
4.1136e-07
4.11236e-07
4.1107e-07
4.10863e-07
4.10614e-07
4.10327e-07
4.10001e-07
4.09638e-07
4.09241e-07
4.08809e-07
4.08346e-07
4.07853e-07
4.07331e-07
4.06784e-07
4.06213e-07
4.0562e-07
4.05008e-07
4.04379e-07
4.03736e-07
4.03081e-07
4.02417e-07
4.01746e-07
4.01071e-07
4.00395e-07
3.99721e-07
3.99051e-07
3.9839e-07
3.97739e-07
3.97102e-07
3.96482e-07
3.95884e-07
3.9531e-07
3.94764e-07
3.9425e-07
3.93772e-07
3.93334e-07
3.9294e-07
3.92597e-07
3.92307e-07
3.92077e-07
3.91912e-07
3.91817e-07
3.91799e-07
3.91866e-07
3.92023e-07
3.9228e-07
3.92645e-07
3.93127e-07
3.93735e-07
3.9448e-07
3.95373e-07
3.96427e-07
3.97656e-07
3.99073e-07
4.00696e-07
4.0254e-07
4.04627e-07
4.0697e-07
4.11483e-07
4.11442e-07
4.1136e-07
4.11236e-07
4.1107e-07
4.10862e-07
4.10614e-07
4.10327e-07
4.10001e-07
4.09638e-07
4.0924e-07
4.08809e-07
4.08346e-07
4.07852e-07
4.07331e-07
4.06784e-07
4.06212e-07
4.0562e-07
4.05008e-07
4.04379e-07
4.03736e-07
4.03081e-07
4.02416e-07
4.01745e-07
4.01071e-07
4.00395e-07
3.9972e-07
3.99051e-07
3.98389e-07
3.97738e-07
3.97102e-07
3.96482e-07
3.95884e-07
3.95309e-07
3.94763e-07
3.94249e-07
3.93771e-07
3.93333e-07
3.9294e-07
3.92596e-07
3.92307e-07
3.92076e-07
3.91911e-07
3.91817e-07
3.91799e-07
3.91865e-07
3.92023e-07
3.9228e-07
3.92645e-07
3.93126e-07
3.93734e-07
3.94479e-07
3.95373e-07
3.96426e-07
3.97655e-07
3.99072e-07
4.00696e-07
4.02539e-07
4.04626e-07
4.06969e-07
4.11786e-07
4.11744e-07
4.11659e-07
4.11531e-07
4.1136e-07
4.11146e-07
4.10891e-07
4.10594e-07
4.10258e-07
4.09885e-07
4.09475e-07
4.09031e-07
4.08554e-07
4.08046e-07
4.0751e-07
4.06947e-07
4.06359e-07
4.0575e-07
4.05121e-07
4.04474e-07
4.03813e-07
4.03139e-07
4.02456e-07
4.01766e-07
4.01071e-07
4.00375e-07
3.9968e-07
3.98989e-07
3.98305e-07
3.97632e-07
3.96971e-07
3.96328e-07
3.95704e-07
3.95104e-07
3.9453e-07
3.93988e-07
3.9348e-07
3.9301e-07
3.92584e-07
3.92205e-07
3.91878e-07
3.91609e-07
3.91401e-07
3.91262e-07
3.91196e-07
3.9121e-07
3.91311e-07
3.91507e-07
3.91805e-07
3.92215e-07
3.92744e-07
3.93403e-07
3.94203e-07
3.95154e-07
3.96269e-07
3.97562e-07
3.99048e-07
4.00741e-07
4.02665e-07
4.04837e-07
4.12403e-07
4.12358e-07
4.12268e-07
4.12132e-07
4.1195e-07
4.11723e-07
4.11451e-07
4.11136e-07
4.1078e-07
4.10384e-07
4.0995e-07
4.0948e-07
4.08975e-07
4.08438e-07
4.07872e-07
4.07277e-07
4.06657e-07
4.06014e-07
4.0535e-07
4.04668e-07
4.03971e-07
4.0326e-07
4.02539e-07
4.0181e-07
4.01076e-07
4.00339e-07
3.99602e-07
3.98869e-07
3.98142e-07
3.97423e-07
3.96717e-07
3.96025e-07
3.95351e-07
3.947e-07
3.94072e-07
3.93474e-07
3.92907e-07
3.92376e-07
3.91885e-07
3.91437e-07
3.91038e-07
3.90691e-07
3.90401e-07
3.90174e-07
3.90014e-07
3.89927e-07
3.89919e-07
3.89996e-07
3.90166e-07
3.90437e-07
3.90815e-07
3.91308e-07
3.91927e-07
3.9268e-07
3.93578e-07
3.94631e-07
3.95855e-07
3.97263e-07
3.98876e-07
4.00722e-07
4.13353e-07
4.13304e-07
4.13205e-07
4.13057e-07
4.12858e-07
4.12609e-07
4.12313e-07
4.11969e-07
4.11581e-07
4.1115e-07
4.10678e-07
4.10167e-07
4.0962e-07
4.09038e-07
4.08425e-07
4.07782e-07
4.07112e-07
4.06418e-07
4.05702e-07
4.04967e-07
4.04214e-07
4.03448e-07
4.0267e-07
4.01883e-07
4.0109e-07
4.00293e-07
3.99495e-07
3.98699e-07
3.97907e-07
3.97122e-07
3.96347e-07
3.95585e-07
3.94839e-07
3.94111e-07
3.93405e-07
3.92725e-07
3.92072e-07
3.91452e-07
3.90866e-07
3.90319e-07
3.89815e-07
3.89356e-07
3.88949e-07
3.88595e-07
3.88301e-07
3.8807e-07
3.87906e-07
3.87815e-07
3.87802e-07
3.87875e-07
3.88038e-07
3.88299e-07
3.88663e-07
3.89138e-07
3.89731e-07
3.90451e-07
3.91309e-07
3.9232e-07
3.93502e-07
3.94897e-07
4.14667e-07
4.14612e-07
4.14501e-07
4.14334e-07
4.14111e-07
4.13832e-07
4.135e-07
4.13116e-07
4.12682e-07
4.12201e-07
4.11676e-07
4.11108e-07
4.10502e-07
4.09858e-07
4.0918e-07
4.08471e-07
4.07734e-07
4.0697e-07
4.06184e-07
4.05376e-07
4.04551e-07
4.03711e-07
4.02857e-07
4.01994e-07
4.01123e-07
4.00246e-07
3.99367e-07
3.98488e-07
3.97612e-07
3.96741e-07
3.95877e-07
3.95023e-07
3.94183e-07
3.93358e-07
3.92551e-07
3.91765e-07
3.91003e-07
3.90267e-07
3.89561e-07
3.88888e-07
3.8825e-07
3.87651e-07
3.87094e-07
3.86582e-07
3.86119e-07
3.85708e-07
3.85352e-07
3.85053e-07
3.84816e-07
3.84645e-07
3.84545e-07
3.8452e-07
3.84573e-07
3.8471e-07
3.84934e-07
3.85253e-07
3.85671e-07
3.86205e-07
3.86872e-07
3.87728e-07
4.16391e-07
4.16327e-07
4.162e-07
4.16007e-07
4.1575e-07
4.15429e-07
4.15048e-07
4.14607e-07
4.14112e-07
4.13564e-07
4.12967e-07
4.12324e-07
4.11638e-07
4.10913e-07
4.10152e-07
4.09357e-07
4.08532e-07
4.0768e-07
4.06803e-07
4.05905e-07
4.04988e-07
4.04055e-07
4.03107e-07
4.02149e-07
4.01181e-07
4.00207e-07
3.99229e-07
3.9825e-07
3.9727e-07
3.96294e-07
3.95323e-07
3.94359e-07
3.93405e-07
3.92462e-07
3.91535e-07
3.90623e-07
3.89731e-07
3.88859e-07
3.88011e-07
3.87189e-07
3.86395e-07
3.85631e-07
3.849e-07
3.84204e-07
3.83545e-07
3.82925e-07
3.82347e-07
3.81813e-07
3.81322e-07
3.80877e-07
3.80479e-07
3.80133e-07
3.79838e-07
3.796e-07
3.79414e-07
3.79289e-07
3.79224e-07
3.79237e-07
3.79343e-07
3.79614e-07
4.18588e-07
4.18513e-07
4.18361e-07
4.18133e-07
4.17829e-07
4.17451e-07
4.17001e-07
4.16485e-07
4.15907e-07
4.15269e-07
4.14578e-07
4.13837e-07
4.13049e-07
4.1222e-07
4.11352e-07
4.1045e-07
4.09516e-07
4.08555e-07
4.07568e-07
4.06559e-07
4.0553e-07
4.04485e-07
4.03425e-07
4.02354e-07
4.01272e-07
4.00183e-07
3.99089e-07
3.97991e-07
3.96892e-07
3.95794e-07
3.94699e-07
3.93608e-07
3.92523e-07
3.91448e-07
3.90382e-07
3.89329e-07
3.88289e-07
3.87265e-07
3.86258e-07
3.85271e-07
3.84304e-07
3.83359e-07
3.82437e-07
3.81541e-07
3.8067e-07
3.79828e-07
3.79012e-07
3.78226e-07
3.77466e-07
3.76732e-07
3.76022e-07
3.75339e-07
3.74682e-07
3.74052e-07
3.73442e-07
3.7286e-07
3.72298e-07
3.71778e-07
3.7131e-07
3.70982e-07
4.21346e-07
4.21254e-07
4.21069e-07
4.2079e-07
4.20419e-07
4.1996e-07
4.19418e-07
4.18799e-07
4.18109e-07
4.17354e-07
4.1654e-07
4.15673e-07
4.14757e-07
4.13797e-07
4.12798e-07
4.11764e-07
4.10698e-07
4.09604e-07
4.08486e-07
4.07345e-07
4.06186e-07
4.05009e-07
4.03819e-07
4.02616e-07
4.01403e-07
4.00182e-07
3.98955e-07
3.97723e-07
3.96488e-07
3.95253e-07
3.94018e-07
3.92785e-07
3.91556e-07
3.90331e-07
3.89113e-07
3.87903e-07
3.86702e-07
3.85512e-07
3.84333e-07
3.83166e-07
3.82013e-07
3.80874e-07
3.79749e-07
3.78639e-07
3.77543e-07
3.76462e-07
3.75394e-07
3.74341e-07
3.73301e-07
3.72275e-07
3.7126e-07
3.70253e-07
3.69243e-07
3.6823e-07
3.67204e-07
3.66174e-07
3.6513e-07
3.64096e-07
3.63078e-07
3.62179e-07
4.24792e-07
4.24673e-07
4.24436e-07
4.2408e-07
4.2361e-07
4.23032e-07
4.22356e-07
4.21592e-07
4.2075e-07
4.19839e-07
4.18867e-07
4.1784e-07
4.16766e-07
4.15648e-07
4.14491e-07
4.13301e-07
4.1208e-07
4.10833e-07
4.09563e-07
4.08273e-07
4.06965e-07
4.05641e-07
4.04304e-07
4.02956e-07
4.01597e-07
4.00231e-07
3.98857e-07
3.97479e-07
3.96096e-07
3.94711e-07
3.93324e-07
3.91938e-07
3.90552e-07
3.89168e-07
3.87787e-07
3.86411e-07
3.85039e-07
3.83672e-07
3.82312e-07
3.8096e-07
3.79614e-07
3.78276e-07
3.76946e-07
3.75624e-07
3.74309e-07
3.73003e-07
3.71703e-07
3.70408e-07
3.69113e-07
3.67815e-07
3.66503e-07
3.65175e-07
3.6382e-07
3.62444e-07
3.61034e-07
3.596e-07
3.58121e-07
3.56619e-07
3.55093e-07
3.53651e-07
4.29132e-07
4.2897e-07
4.28645e-07
4.2816e-07
4.27527e-07
4.26761e-07
4.2588e-07
4.24902e-07
4.23843e-07
4.22716e-07
4.2153e-07
4.20292e-07
4.19011e-07
4.17691e-07
4.16338e-07
4.14956e-07
4.1355e-07
4.12123e-07
4.10677e-07
4.09216e-07
4.07741e-07
4.06253e-07
4.04754e-07
4.03246e-07
4.0173e-07
4.00206e-07
3.98676e-07
3.97141e-07
3.956e-07
3.94057e-07
3.9251e-07
3.90961e-07
3.8941e-07
3.87859e-07
3.86307e-07
3.84756e-07
3.83206e-07
3.81657e-07
3.8011e-07
3.78565e-07
3.77021e-07
3.75479e-07
3.73938e-07
3.72397e-07
3.70855e-07
3.69309e-07
3.67757e-07
3.66198e-07
3.64627e-07
3.63045e-07
3.61445e-07
3.59831e-07
3.58194e-07
3.56537e-07
3.54832e-07
3.53082e-07
3.51251e-07
3.49366e-07
3.47421e-07
3.45541e-07
4.34646e-07
4.34433e-07
4.34001e-07
4.33355e-07
4.32511e-07
4.31497e-07
4.30346e-07
4.29088e-07
4.27749e-07
4.26344e-07
4.24887e-07
4.23387e-07
4.2185e-07
4.20283e-07
4.18692e-07
4.17083e-07
4.15458e-07
4.1382e-07
4.12172e-07
4.10515e-07
4.08849e-07
4.07176e-07
4.05497e-07
4.03811e-07
4.02119e-07
4.00422e-07
3.9872e-07
3.97013e-07
3.95301e-07
3.93586e-07
3.91866e-07
3.90143e-07
3.88416e-07
3.86687e-07
3.84956e-07
3.83222e-07
3.81486e-07
3.79749e-07
3.78011e-07
3.76272e-07
3.74531e-07
3.7279e-07
3.71048e-07
3.69304e-07
3.67559e-07
3.65811e-07
3.64059e-07
3.62302e-07
3.60538e-07
3.58761e-07
3.56966e-07
3.55145e-07
3.53285e-07
3.51377e-07
3.49402e-07
3.47353e-07
3.45217e-07
3.43005e-07
3.40724e-07
3.38464e-07
4.4134e-07
4.40907e-07
4.4012e-07
4.3903e-07
4.37705e-07
4.36216e-07
4.34621e-07
4.32958e-07
4.3125e-07
4.29506e-07
4.27734e-07
4.25938e-07
4.24126e-07
4.22302e-07
4.20472e-07
4.1864e-07
4.16806e-07
4.14971e-07
4.13135e-07
4.11297e-07
4.09457e-07
4.07614e-07
4.05767e-07
4.03917e-07
4.02062e-07
4.00203e-07
3.98338e-07
3.96467e-07
3.94591e-07
3.92708e-07
3.90819e-07
3.88923e-07
3.87021e-07
3.85113e-07
3.83198e-07
3.81278e-07
3.79352e-07
3.7742e-07
3.75484e-07
3.73542e-07
3.71596e-07
3.69643e-07
3.67688e-07
3.65724e-07
3.63757e-07
3.61779e-07
3.59798e-07
3.57801e-07
3.558e-07
3.53777e-07
3.5175e-07
3.49693e-07
3.47635e-07
3.45536e-07
3.4344e-07
3.41289e-07
3.39147e-07
3.3693e-07
3.34726e-07
3.32432e-07
4.53071e-07
4.5232e-07
4.50906e-07
4.48954e-07
4.46669e-07
4.44247e-07
4.41816e-07
4.39425e-07
4.37077e-07
4.3476e-07
4.32465e-07
4.30191e-07
4.27943e-07
4.25727e-07
4.23543e-07
4.21392e-07
4.19267e-07
4.17165e-07
4.15081e-07
4.1301e-07
4.1095e-07
4.08898e-07
4.06852e-07
4.04809e-07
4.02766e-07
4.00723e-07
3.98676e-07
3.96625e-07
3.94569e-07
3.92507e-07
3.90438e-07
3.8836e-07
3.86276e-07
3.84182e-07
3.82082e-07
3.79972e-07
3.77856e-07
3.7573e-07
3.736e-07
3.7146e-07
3.69319e-07
3.67165e-07
3.65015e-07
3.6285e-07
3.60693e-07
3.58518e-07
3.5636e-07
3.54176e-07
3.52024e-07
3.49833e-07
3.47696e-07
3.455e-07
3.43395e-07
3.41198e-07
3.39152e-07
3.36959e-07
3.35012e-07
3.32821e-07
3.31001e-07
3.28719e-07
4.61807e-07
4.6008e-07
4.57434e-07
4.54308e-07
4.51091e-07
4.47995e-07
4.4507e-07
4.42281e-07
4.39578e-07
4.36929e-07
4.34328e-07
4.31782e-07
4.29296e-07
4.26872e-07
4.24501e-07
4.22176e-07
4.19887e-07
4.17625e-07
4.15386e-07
4.13164e-07
4.10955e-07
4.08756e-07
4.06561e-07
4.04369e-07
4.02177e-07
3.99981e-07
3.9778e-07
3.95571e-07
3.93355e-07
3.91128e-07
3.88892e-07
3.86645e-07
3.84387e-07
3.82117e-07
3.79837e-07
3.77545e-07
3.75246e-07
3.72934e-07
3.70616e-07
3.68287e-07
3.65956e-07
3.63612e-07
3.61271e-07
3.58913e-07
3.56569e-07
3.54199e-07
3.51857e-07
3.49473e-07
3.47143e-07
3.44745e-07
3.42455e-07
3.40048e-07
3.37846e-07
3.35439e-07
3.33445e-07
3.31089e-07
3.29616e-07
3.27383e-07
3.2703e-07
3.2449e-07
5.09849e-07
4.95726e-07
4.81958e-07
4.71379e-07
4.63955e-07
4.58563e-07
4.5411e-07
4.50028e-07
4.4615e-07
4.42483e-07
4.39063e-07
4.35895e-07
4.32945e-07
4.30163e-07
4.27504e-07
4.24933e-07
4.22429e-07
4.19978e-07
4.17571e-07
4.15198e-07
4.12851e-07
4.10523e-07
4.08206e-07
4.05896e-07
4.03587e-07
4.01277e-07
3.98963e-07
3.96641e-07
3.94311e-07
3.91971e-07
3.89619e-07
3.87256e-07
3.84881e-07
3.82494e-07
3.80096e-07
3.77686e-07
3.75267e-07
3.72838e-07
3.704e-07
3.67956e-07
3.65505e-07
3.63049e-07
3.6059e-07
3.58127e-07
3.55663e-07
3.53196e-07
3.50728e-07
3.48255e-07
3.45784e-07
3.43299e-07
3.40825e-07
3.38306e-07
3.35829e-07
3.33212e-07
3.30773e-07
3.27849e-07
3.25738e-07
3.2158e-07
3.21497e-07
3.11357e-07
3.51291e-07
3.00724e-07
2.79982e-07
2.62984e-07
2.46154e-07
2.2928e-07
2.10376e-07
1.90068e-07
1.66322e-07
1.4059e-07
1.10833e-07
7.95674e-08
4.46798e-08
9.76414e-09
-2.75202e-08
-6.26615e-08
-9.86096e-08
-1.30216e-07
-1.60992e-07
-1.85682e-07
-2.08624e-07
-2.24268e-07
-2.38294e-07
-2.44554e-07
-2.50398e-07
-2.48135e-07
-2.49244e-07
-2.40524e-07
-2.40715e-07
-2.8378e-07
3.37217e-07
2.82336e-07
2.68644e-07
2.54417e-07
2.38382e-07
2.21912e-07
2.03235e-07
1.83029e-07
1.59425e-07
1.34038e-07
1.0488e-07
7.44877e-08
4.07413e-08
7.1467e-09
-2.87016e-08
-6.2454e-08
-9.68698e-08
-1.27334e-07
-1.57345e-07
-1.81459e-07
-2.04459e-07
-2.20312e-07
-2.35183e-07
-2.41931e-07
-2.49358e-07
-2.47523e-07
-2.49215e-07
-2.43573e-07
-2.29231e-07
-3.23148e-07
3.2498e-07
2.80202e-07
2.67508e-07
2.53742e-07
2.37061e-07
2.19572e-07
2.00344e-07
1.79821e-07
1.56124e-07
1.30654e-07
1.01662e-07
7.14375e-08
3.81245e-08
4.94874e-09
-3.02725e-08
-6.34424e-08
-9.74771e-08
-1.27394e-07
-1.57168e-07
-1.81103e-07
-2.04053e-07
-2.19758e-07
-2.35198e-07
-2.42192e-07
-2.4992e-07
-2.49763e-07
-2.50373e-07
-2.51956e-07
-2.24105e-07
-3.04896e-07
3.14789e-07
2.76248e-07
2.61393e-07
2.4827e-07
2.32465e-07
2.15455e-07
1.96263e-07
1.75555e-07
1.51799e-07
1.262e-07
9.73797e-08
6.72681e-08
3.44607e-08
1.64306e-09
-3.28385e-08
-6.56034e-08
-9.8849e-08
-1.28474e-07
-1.5758e-07
-1.81534e-07
-2.04618e-07
-2.21134e-07
-2.36436e-07
-2.45254e-07
-2.52118e-07
-2.55493e-07
-2.52662e-07
-2.63378e-07
-2.27628e-07
-2.88487e-07
3.04958e-07
2.73798e-07
2.58233e-07
2.46167e-07
2.3058e-07
2.12817e-07
1.93092e-07
1.71824e-07
1.47916e-07
1.21932e-07
9.32231e-08
6.29125e-08
3.05678e-08
-2.2649e-09
-3.59885e-08
-6.87443e-08
-1.011e-07
-1.31063e-07
-1.59423e-07
-1.8435e-07
-2.06534e-07
-2.24996e-07
-2.39191e-07
-2.50917e-07
-2.55861e-07
-2.63982e-07
-2.55879e-07
-2.69558e-07
-2.36958e-07
-2.66564e-07
2.96383e-07
2.72143e-07
2.5579e-07
2.43133e-07
2.27764e-07
2.09868e-07
1.89894e-07
1.68086e-07
1.43975e-07
1.17522e-07
8.88554e-08
5.82102e-08
2.62514e-08
-6.78973e-09
-3.97935e-08
-7.27926e-08
-1.04233e-07
-1.34762e-07
-1.6217e-07
-1.88258e-07
-2.09536e-07
-2.30059e-07
-2.43196e-07
-2.57996e-07
-2.61013e-07
-2.71771e-07
-2.62369e-07
-2.7292e-07
-2.50864e-07
-2.58993e-07
2.89412e-07
2.7063e-07
2.54272e-07
2.40597e-07
2.25242e-07
2.07209e-07
1.86949e-07
1.64493e-07
1.40038e-07
1.13028e-07
8.42793e-08
5.32211e-08
2.15089e-08
-1.18026e-08
-4.42339e-08
-7.75016e-08
-1.08159e-07
-1.39205e-07
-1.6582e-07
-1.92956e-07
-2.13593e-07
-2.35729e-07
-2.48516e-07
-2.64992e-07
-2.68256e-07
-2.79147e-07
-2.72488e-07
-2.77923e-07
-2.65441e-07
-2.6278e-07
2.84274e-07
2.69163e-07
2.5329e-07
2.38574e-07
2.22914e-07
2.0462e-07
1.84018e-07
1.60904e-07
1.35984e-07
1.08393e-07
7.94205e-08
4.79618e-08
1.63131e-08
-1.72143e-08
-4.93037e-08
-8.26969e-08
-1.12873e-07
-1.44148e-07
-1.70411e-07
-1.98061e-07
-2.18785e-07
-2.41611e-07
-2.55287e-07
-2.72076e-07
-2.77609e-07
-2.87197e-07
-2.85076e-07
-2.86272e-07
-2.79482e-07
-2.73237e-07
2.80982e-07
2.67721e-07
2.52467e-07
2.37025e-07
2.20782e-07
2.02049e-07
1.8101e-07
1.57259e-07
1.31767e-07
1.03598e-07
7.42519e-08
4.24388e-08
1.06618e-08
-2.29754e-08
-5.49772e-08
-8.82946e-08
-1.18336e-07
-1.49495e-07
-1.75887e-07
-2.03511e-07
-2.25005e-07
-2.47832e-07
-2.63321e-07
-2.79781e-07
-2.88315e-07
-2.96821e-07
-2.98355e-07
-2.9818e-07
-2.93709e-07
-2.87355e-07
2.792e-07
2.66392e-07
2.51644e-07
2.35763e-07
2.1879e-07
1.99444e-07
1.77846e-07
1.5347e-07
1.27328e-07
9.85899e-08
6.87453e-08
3.66205e-08
4.55932e-09
-2.90968e-08
-6.12101e-08
-9.42937e-08
-1.24454e-07
-1.55257e-07
-1.8208e-07
-2.0938e-07
-2.31947e-07
-2.54574e-07
-2.71967e-07
-2.88411e-07
-2.99516e-07
-3.08252e-07
-3.12113e-07
-3.12541e-07
-3.09398e-07
-3.03952e-07
2.78415e-07
2.65331e-07
2.50743e-07
2.34529e-07
2.16807e-07
1.96736e-07
1.74458e-07
1.49448e-07
1.22604e-07
9.33011e-08
6.28715e-08
3.04498e-08
-1.99179e-09
-3.56269e-08
-6.79566e-08
-1.0074e-07
-1.31119e-07
-1.61495e-07
-1.88796e-07
-2.15759e-07
-2.39315e-07
-2.6194e-07
-2.80917e-07
-2.9793e-07
-3.11006e-07
-3.20909e-07
-3.26655e-07
-3.28576e-07
-3.26915e-07
-3.22908e-07
2.78084e-07
2.64559e-07
2.49766e-07
2.33138e-07
2.14672e-07
1.9383e-07
1.70783e-07
1.45111e-07
1.17527e-07
8.76481e-08
5.65842e-08
2.38492e-08
-9.01341e-09
-4.26389e-08
-7.52027e-08
-1.07706e-07
-1.3827e-07
-1.68273e-07
-1.95923e-07
-2.22693e-07
-2.46978e-07
-2.69902e-07
-2.90093e-07
-3.08131e-07
-3.22858e-07
-3.34478e-07
-3.42142e-07
-3.46176e-07
-3.46289e-07
-3.44308e-07
2.77841e-07
2.63933e-07
2.48679e-07
2.31486e-07
2.12258e-07
1.90629e-07
1.6676e-07
1.40377e-07
1.12017e-07
8.15321e-08
4.98053e-08
1.67179e-08
-1.65723e-08
-5.023e-08
-8.29945e-08
-1.15275e-07
-1.45928e-07
-1.75641e-07
-2.0347e-07
-2.30174e-07
-2.54951e-07
-2.78357e-07
-2.99552e-07
-3.18824e-07
-3.3517e-07
-3.48756e-07
-3.5856e-07
-3.6497e-07
-3.67493e-07
-3.68019e-07
2.77487e-07
2.63261e-07
2.47409e-07
2.29524e-07
2.09491e-07
1.87055e-07
1.6232e-07
1.35161e-07
1.05976e-07
7.48323e-08
4.24158e-08
8.92507e-09
-2.47903e-08
-5.85265e-08
-9.14463e-08
-1.23547e-07
-1.54193e-07
-1.83656e-07
-2.11521e-07
-2.38192e-07
-2.63311e-07
-2.87223e-07
-3.09348e-07
-3.2989e-07
-3.47943e-07
-3.6361e-07
-3.75845e-07
-3.8494e-07
-3.90391e-07
-3.93938e-07
2.76985e-07
2.6239e-07
2.45888e-07
2.27243e-07
2.06351e-07
1.8305e-07
1.57381e-07
1.29358e-07
9.92733e-08
6.73986e-08
3.42529e-08
3.05286e-10
-3.38412e-08
-6.76862e-08
-1.00725e-07
-1.32647e-07
-1.6321e-07
-1.92387e-07
-2.20186e-07
-2.46752e-07
-2.72118e-07
-2.96434e-07
-3.19467e-07
-3.41207e-07
-3.61068e-07
-3.78861e-07
-3.93823e-07
-4.05855e-07
-4.14744e-07
-4.21724e-07
2.76405e-07
2.61307e-07
2.44124e-07
2.24668e-07
2.02833e-07
1.78557e-07
1.51839e-07
1.2283e-07
9.17455e-08
5.90456e-08
2.51162e-08
-9.34269e-09
-4.39312e-08
-7.78959e-08
-1.11019e-07
-1.42722e-07
-1.73126e-07
-2.01925e-07
-2.29549e-07
-2.55866e-07
-2.81372e-07
-3.05921e-07
-3.2979e-07
-3.52606e-07
-3.74311e-07
-3.94251e-07
-4.12171e-07
-4.27388e-07
-4.4018e-07
-4.51014e-07
2.75928e-07
2.60106e-07
2.42165e-07
2.21813e-07
1.98905e-07
1.7348e-07
1.45547e-07
1.15389e-07
8.31847e-08
4.95478e-08
1.47752e-08
-2.02504e-08
-5.52804e-08
-8.93615e-08
-1.2251e-07
-1.53931e-07
-1.84068e-07
-2.12365e-07
-2.39666e-07
-2.65553e-07
-2.91017e-07
-3.15591e-07
-3.40114e-07
-3.63854e-07
-3.87314e-07
-4.09413e-07
-4.30411e-07
-4.49094e-07
-4.66154e-07
-4.81411e-07
2.75766e-07
2.5893e-07
2.40045e-07
2.18615e-07
1.94431e-07
1.6763e-07
1.3828e-07
1.06786e-07
7.33304e-08
3.86352e-08
2.96834e-09
-3.26755e-08
-6.81203e-08
-1.02302e-07
-1.35381e-07
-1.6644e-07
-1.96156e-07
-2.23815e-07
-2.50583e-07
-2.75837e-07
-3.00995e-07
-3.25338e-07
-3.50227e-07
-3.74657e-07
-3.99659e-07
-4.2385e-07
-4.47933e-07
-4.70321e-07
-4.91996e-07
-5.12325e-07
2.76005e-07
2.57858e-07
2.37689e-07
2.14862e-07
1.8913e-07
1.60698e-07
1.29719e-07
9.66912e-08
6.18552e-08
2.59829e-08
-1.06149e-08
-4.69135e-08
-8.27195e-08
-1.16966e-07
-1.49846e-07
-1.8045e-07
-2.09552e-07
-2.36419e-07
-2.62397e-07
-2.86787e-07
-3.11303e-07
-3.35091e-07
-3.59953e-07
-3.847e-07
-4.109e-07
-4.36929e-07
-4.63961e-07
-4.90149e-07
-5.16719e-07
-5.42794e-07
2.76342e-07
2.56616e-07
2.3474e-07
2.10125e-07
1.82545e-07
1.52227e-07
1.19416e-07
8.46654e-08
4.8321e-08
1.11672e-08
-2.63854e-08
-6.33502e-08
-9.94435e-08
-1.33693e-07
-1.66223e-07
-1.96257e-07
-2.24522e-07
-2.50422e-07
-2.75302e-07
-2.98555e-07
-3.22019e-07
-3.44843e-07
-3.6916e-07
-3.93676e-07
-4.20547e-07
-4.47863e-07
-4.77522e-07
-5.0723e-07
-5.38791e-07
-5.70852e-07
2.76103e-07
2.5453e-07
2.30607e-07
2.03846e-07
1.74105e-07
1.41634e-07
1.06771e-07
7.01071e-08
3.21223e-08
-6.40204e-09
-4.4925e-08
-8.25352e-08
-1.18823e-07
-1.52972e-07
-1.84978e-07
-2.1429e-07
-2.41477e-07
-2.66199e-07
-2.89626e-07