/*--------------------------------*- C++ -*----------------------------------*\
| =========                 |                                                 |
| \\      /  F ield         | OpenFOAM: The Open Source CFD Toolbox           |
|  \\    /   O peration     | Version:  2312                                  |
|   \\  /    A nd           | Website:  www.openfoam.com                      |
|    \\/     M anipulation  |                                                 |
\*---------------------------------------------------------------------------*/
FoamFile
{
    version     2.0;
    format      ascii;
    arch        "LSB;label=32;scalar=64";
    class       volVectorField;
    location    "119000";
    object      U;
}
// * * * * * * * * * * * * * * * * * * * * * * * * * * * * * * * * * * * * * //

dimensions      [0 1 -1 0 0 0 0];

internalField   nonuniform List<vector> 
2685
(
(0.000752902 -2.53101e-05 0)
(0.000767198 -1.32402e-05 0)
(0.000752069 -5.0943e-06 0)
(0.00073331 2.51719e-06 0)
(0.000715212 9.46999e-06 0)
(0.000696863 1.51689e-05 0)
(0.000676633 1.95162e-05 0)
(0.000653964 2.27566e-05 0)
(0.000629049 2.52365e-05 0)
(0.000602397 2.72252e-05 0)
(0.000574445 2.88695e-05 0)
(0.000545427 3.02336e-05 0)
(0.000515445 3.13432e-05 0)
(0.000484564 3.22104e-05 0)
(0.000452859 3.28403e-05 0)
(0.000420441 3.32298e-05 0)
(0.000387436 3.3363e-05 0)
(0.000353984 3.32134e-05 0)
(0.000320229 3.27445e-05 0)
(0.000286323 3.19146e-05 0)
(0.000252442 3.06773e-05 0)
(0.000218792 2.8973e-05 0)
(0.000185616 2.66962e-05 0)
(0.000153216 2.36408e-05 0)
(0.000122004 1.9468e-05 0)
(9.25239e-05 1.38147e-05 0)
(6.54122e-05 6.59902e-06 0)
(4.12441e-05 -1.78417e-06 0)
(2.04657e-05 -1.05948e-05 0)
(3.26435e-06 -1.91006e-05 0)
(-1.03532e-05 -2.67445e-05 0)
(-2.02504e-05 -3.31844e-05 0)
(-2.68143e-05 -3.842e-05 0)
(-3.0367e-05 -4.23469e-05 0)
(-3.16392e-05 -4.47847e-05 0)
(-3.05763e-05 -4.55001e-05 0)
(-2.78799e-05 -4.48425e-05 0)
(-2.39454e-05 -4.30255e-05 0)
(-1.92732e-05 -4.01703e-05 0)
(-1.42854e-05 -3.63808e-05 0)
(-9.34685e-06 -3.17883e-05 0)
(-4.73463e-06 -2.65799e-05 0)
(-6.8243e-07 -2.09992e-05 0)
(2.58651e-06 -1.53038e-05 0)
(4.95703e-06 -9.73397e-06 0)
(6.38119e-06 -4.53736e-06 0)
(6.84317e-06 7.29418e-08 0)
(6.35404e-06 3.92798e-06 0)
(4.99527e-06 6.92645e-06 0)
(2.89985e-06 9.08965e-06 0)
(2.30031e-07 1.04704e-05 0)
(-2.8297e-06 1.11645e-05 0)
(-6.10375e-06 1.12832e-05 0)
(-9.47826e-06 1.09582e-05 0)
(-1.28524e-05 1.03196e-05 0)
(-1.61441e-05 9.48209e-06 0)
(-1.92883e-05 8.53964e-06 0)
(-2.22371e-05 7.56491e-06 0)
(-2.49586e-05 6.61093e-06 0)
(-2.74353e-05 5.71352e-06 0)
(-2.96618e-05 4.89407e-06 0)
(-3.16452e-05 4.16327e-06 0)
(-3.34004e-05 3.51484e-06 0)
(-3.4946e-05 2.93423e-06 0)
(-3.62975e-05 2.41471e-06 0)
(-3.74662e-05 1.95037e-06 0)
(-3.84603e-05 1.53471e-06 0)
(-3.92858e-05 1.16155e-06 0)
(-3.99478e-05 8.25484e-07 0)
(-4.04515e-05 5.21667e-07 0)
(-4.08033e-05 2.45473e-07 0)
(-4.10108e-05 -6.81412e-09 0)
(-4.10813e-05 -2.37138e-07 0)
(-4.10167e-05 -4.45012e-07 0)
(-4.08192e-05 -6.30724e-07 0)
(-4.04963e-05 -7.98977e-07 0)
(-4.00545e-05 -9.54022e-07 0)
(-3.94986e-05 -1.09756e-06 0)
(-3.88333e-05 -1.23038e-06 0)
(-3.8065e-05 -1.35156e-06 0)
(-3.72005e-05 -1.45955e-06 0)
(-3.62476e-05 -1.55339e-06 0)
(-3.52141e-05 -1.63299e-06 0)
(-3.4109e-05 -1.69864e-06 0)
(-3.29413e-05 -1.75067e-06 0)
(-3.1721e-05 -1.78916e-06 0)
(-3.04587e-05 -1.81378e-06 0)
(-2.91663e-05 -1.82372e-06 0)
(-2.7857e-05 -1.8179e-06 0)
(-2.65458e-05 -1.79505e-06 0)
(0.00133105 3.06045e-05 0)
(0.00131777 4.01975e-05 0)
(0.00130861 4.80438e-05 0)
(0.00129965 5.57088e-05 0)
(0.00128932 6.30808e-05 0)
(0.00127739 6.9768e-05 0)
(0.00126403 7.565e-05 0)
(0.00124946 8.08004e-05 0)
(0.00123381 8.53774e-05 0)
(0.00121711 8.95202e-05 0)
(0.0011994 9.3315e-05 0)
(0.00118067 9.68032e-05 0)
(0.00116094 0.000100003 0)
(0.00114023 0.000102919 0)
(0.00111859 0.000105549 0)
(0.00109604 0.000107881 0)
(0.00107266 0.000109903 0)
(0.0010485 0.00011159 0)
(0.00102363 0.000112915 0)
(0.000998139 0.000113832 0)
(0.000972105 0.000114286 0)
(0.000945601 0.000114205 0)
(0.00091869 0.0001135 0)
(0.000891423 0.000112077 0)
(0.000863786 0.00010982 0)
(0.000835764 0.000106649 0)
(0.000807161 0.000102474 0)
(0.000777861 9.73359e-05 0)
(0.000747516 9.12665e-05 0)
(0.000716157 8.4464e-05 0)
(0.000683559 7.70529e-05 0)
(0.000650051 6.92624e-05 0)
(0.000615871 6.13505e-05 0)
(0.000580812 5.34388e-05 0)
(0.000545156 4.56536e-05 0)
(0.000509763 3.83253e-05 0)
(0.000474779 3.17079e-05 0)
(0.00044037 2.58968e-05 0)
(0.00040679 2.08588e-05 0)
(0.00037433 1.64872e-05 0)
(0.000343286 1.26673e-05 0)
(0.000313919 9.33115e-06 0)
(0.000286426 6.45623e-06 0)
(0.000260957 4.05711e-06 0)
(0.000237602 2.17453e-06 0)
(0.000216439 8.36704e-07 0)
(0.000197439 9.31138e-08 0)
(0.00018059 -4.59585e-08 0)
(0.000165928 2.66672e-07 0)
(0.000153149 7.23932e-07 0)
(0.000142027 1.20611e-06 0)
(0.000132317 1.7229e-06 0)
(0.000123804 2.27215e-06 0)
(0.000116294 2.82045e-06 0)
(0.000109622 3.31743e-06 0)
(0.00010365 3.71776e-06 0)
(9.82621e-05 3.99337e-06 0)
(9.33645e-05 4.13573e-06 0)
(8.88821e-05 4.15186e-06 0)
(8.47576e-05 4.05991e-06 0)
(8.09513e-05 3.88444e-06 0)
(7.73831e-05 3.65759e-06 0)
(7.40639e-05 3.41894e-06 0)
(7.09925e-05 3.18139e-06 0)
(6.81842e-05 2.93433e-06 0)
(6.56452e-05 2.66745e-06 0)
(6.3376e-05 2.37485e-06 0)
(6.13768e-05 2.05528e-06 0)
(5.96473e-05 1.71344e-06 0)
(5.81871e-05 1.35788e-06 0)
(5.6995e-05 9.9627e-07 0)
(5.60691e-05 6.32163e-07 0)
(5.54093e-05 2.65732e-07 0)
(5.50122e-05 -1.03031e-07 0)
(5.48564e-05 -4.76172e-07 0)
(5.49244e-05 -8.47247e-07 0)
(5.52082e-05 -1.20979e-06 0)
(5.57034e-05 -1.56051e-06 0)
(5.64032e-05 -1.89381e-06 0)
(5.72989e-05 -2.20024e-06 0)
(5.83757e-05 -2.4862e-06 0)
(5.96163e-05 -2.75242e-06 0)
(6.10032e-05 -2.99642e-06 0)
(6.25211e-05 -3.21541e-06 0)
(6.41556e-05 -3.40673e-06 0)
(6.58936e-05 -3.56731e-06 0)
(6.77221e-05 -3.69324e-06 0)
(6.96278e-05 -3.77968e-06 0)
(7.15968e-05 -3.82121e-06 0)
(7.36143e-05 -3.81233e-06 0)
(0.00154977 3.2261e-05 0)
(0.00154025 4.2101e-05 0)
(0.00153403 5.15989e-05 0)
(0.00152867 6.04933e-05 0)
(0.00152273 6.88773e-05 0)
(0.00151576 7.68452e-05 0)
(0.00150779 8.44348e-05 0)
(0.00149902 9.16414e-05 0)
(0.00148966 9.84488e-05 0)
(0.0014798 0.000104851 0)
(0.00146946 0.000110851 0)
(0.00145862 0.000116459 0)
(0.00144728 0.000121682 0)
(0.00143542 0.000126523 0)
(0.00142307 0.000130975 0)
(0.00141025 0.00013503 0)
(0.00139698 0.000138666 0)
(0.0013833 0.000141857 0)
(0.0013692 0.000144565 0)
(0.00135471 0.000146746 0)
(0.0013398 0.000148339 0)
(0.00132448 0.00014928 0)
(0.00130869 0.000149494 0)
(0.00129242 0.000148912 0)
(0.0012756 0.000147473 0)
(0.00125818 0.000145149 0)
(0.00124009 0.000141969 0)
(0.00122125 0.000138019 0)
(0.00120163 0.000133491 0)
(0.00118114 0.000128578 0)
(0.00115988 0.000123558 0)
(0.00113769 0.000118628 0)
(0.00111488 0.000114009 0)
(0.00109125 0.000109824 0)
(0.00106715 0.000106183 0)
(0.00104286 0.000103131 0)
(0.00101835 0.000100603 0)
(0.000993514 9.849e-05 0)
(0.000968267 9.6653e-05 0)
(0.000942615 9.49506e-05 0)
(0.000916646 9.32334e-05 0)
(0.000890448 9.13614e-05 0)
(0.000864097 8.92161e-05 0)
(0.00083764 8.67148e-05 0)
(0.000811105 8.38063e-05 0)
(0.000784567 8.04651e-05 0)
(0.000758072 7.67013e-05 0)
(0.000731748 7.25382e-05 0)
(0.00070564 6.80473e-05 0)
(0.000679672 6.33272e-05 0)
(0.000654084 5.85036e-05 0)
(0.000629146 5.37111e-05 0)
(0.000605017 4.90653e-05 0)
(0.000581775 4.46447e-05 0)
(0.000559474 4.0496e-05 0)
(0.000538169 3.66449e-05 0)
(0.000517902 3.31032e-05 0)
(0.000498704 2.9869e-05 0)
(0.000480593 2.69288e-05 0)
(0.000463566 2.42569e-05 0)
(0.00044764 2.18248e-05 0)
(0.000432775 1.9591e-05 0)
(0.000419023 1.7519e-05 0)
(0.000406361 1.55892e-05 0)
(0.000394716 1.37814e-05 0)
(0.000384046 1.20736e-05 0)
(0.000374318 1.04453e-05 0)
(0.000365491 8.88137e-06 0)
(0.000357514 7.37378e-06 0)
(0.000350344 5.91988e-06 0)
(0.000343936 4.5192e-06 0)
(0.000338249 3.17104e-06 0)
(0.000333241 1.87111e-06 0)
(0.000328864 6.14099e-07 0)
(0.000325088 -6.04928e-07 0)
(0.000321896 -1.78149e-06 0)
(0.000319248 -2.90245e-06 0)
(0.000317106 -3.96939e-06 0)
(0.000315426 -4.99433e-06 0)
(0.000314154 -5.96537e-06 0)
(0.000313232 -6.84546e-06 0)
(0.000312638 -7.62694e-06 0)
(0.000312349 -8.31997e-06 0)
(0.000312337 -8.93193e-06 0)
(0.000312575 -9.4682e-06 0)
(0.000313039 -9.93217e-06 0)
(0.000313705 -1.0324e-05 0)
(0.000314558 -1.06393e-05 0)
(0.00031558 -1.0873e-05 0)
(0.000316756 -1.10218e-05 0)
(0.00165313 5.07559e-05 0)
(0.00164597 6.12964e-05 0)
(0.00164002 7.15633e-05 0)
(0.00163477 8.11637e-05 0)
(0.0016297 9.01155e-05 0)
(0.00162443 9.85476e-05 0)
(0.00161883 0.000106571 0)
(0.00161289 0.000114237 0)
(0.00160665 0.000121546 0)
(0.00160019 0.000128477 0)
(0.00159354 0.000135008 0)
(0.00158672 0.000141127 0)
(0.00157973 0.00014683 0)
(0.00157258 0.000152115 0)
(0.00156525 0.000156978 0)
(0.00155778 0.000161406 0)
(0.00155015 0.000165383 0)
(0.00154238 0.000168885 0)
(0.00153448 0.000171886 0)
(0.00152643 0.000174358 0)
(0.00151822 0.000176279 0)
(0.00150984 0.000177622 0)
(0.00150125 0.000178375 0)
(0.00149242 0.000178524 0)
(0.00148332 0.000178074 0)
(0.00147389 0.000177039 0)
(0.00146409 0.000175459 0)
(0.00145384 0.000173388 0)
(0.00144312 0.000170904 0)
(0.00143183 0.000168095 0)
(0.00141999 0.000165054 0)
(0.00140754 0.000161881 0)
(0.00139456 0.000158652 0)
(0.00138103 0.000155456 0)
(0.00136704 0.000152325 0)
(0.00135266 0.000149269 0)
(0.00133784 0.000146263 0)
(0.00132259 0.000143293 0)
(0.00130705 0.000140369 0)
(0.00129126 0.000137499 0)
(0.00127531 0.0001347 0)
(0.00125921 0.000131974 0)
(0.00124301 0.000129308 0)
(0.00122671 0.000126681 0)
(0.00121028 0.00012406 0)
(0.0011937 0.000121426 0)
(0.00117692 0.000118743 0)
(0.00115996 0.000116002 0)
(0.00114273 0.00011316 0)
(0.00112536 0.00011023 0)
(0.0011079 0.00010723 0)
(0.00109034 0.000104139 0)
(0.00107264 0.000100909 0)
(0.0010548 9.74996e-05 0)
(0.00103684 9.38892e-05 0)
(0.00101882 9.00781e-05 0)
(0.00100083 8.60803e-05 0)
(0.000982934 8.19196e-05 0)
(0.000965232 7.76246e-05 0)
(0.000947801 7.3229e-05 0)
(0.00093072 6.87674e-05 0)
(0.000914062 6.42762e-05 0)
(0.000897895 5.97889e-05 0)
(0.000882275 5.5331e-05 0)
(0.000867249 5.09307e-05 0)
(0.000852859 4.66162e-05 0)
(0.000839137 4.24119e-05 0)
(0.000826112 3.83377e-05 0)
(0.000813796 3.44089e-05 0)
(0.0008022 3.06386e-05 0)
(0.000791324 2.70398e-05 0)
(0.000781163 2.36176e-05 0)
(0.000771711 2.03701e-05 0)
(0.000762941 1.72973e-05 0)
(0.000754838 1.44081e-05 0)
(0.000747364 1.17078e-05 0)
(0.000740485 9.18963e-06 0)
(0.000734197 6.84971e-06 0)
(0.000728405 4.68924e-06 0)
(0.00072308 2.69466e-06 0)
(0.000718262 8.60669e-07 0)
(0.000713901 -8.18299e-07 0)
(0.00070994 -2.33986e-06 0)
(0.00070635 -3.70124e-06 0)
(0.000703114 -4.91138e-06 0)
(0.000700194 -5.98654e-06 0)
(0.00069755 -6.93444e-06 0)
(0.000695153 -7.75478e-06 0)
(0.000692975 -8.44664e-06 0)
(0.000690991 -9.01429e-06 0)
(0.00163606 6.4218e-05 0)
(0.00163098 7.2633e-05 0)
(0.00162645 8.13059e-05 0)
(0.00162235 9.00193e-05 0)
(0.00161847 9.86001e-05 0)
(0.00161459 0.000106943 0)
(0.0016106 0.000114991 0)
(0.00160645 0.000122715 0)
(0.00160217 0.000130094 0)
(0.0015978 0.000137112 0)
(0.00159339 0.000143748 0)
(0.00158899 0.000149986 0)
(0.0015846 0.00015581 0)
(0.00158026 0.000161207 0)
(0.00157595 0.000166166 0)
(0.00157169 0.000170675 0)
(0.00156748 0.000174721 0)
(0.00156333 0.000178291 0)
(0.00155924 0.000181372 0)
(0.00155522 0.000183953 0)
(0.00155124 0.000186027 0)
(0.00154731 0.000187591 0)
(0.00154339 0.000188645 0)
(0.00153947 0.000189195 0)
(0.00153551 0.000189251 0)
(0.00153147 0.000188831 0)
(0.00152731 0.00018796 0)
(0.00152297 0.000186675 0)
(0.00151842 0.000185023 0)
(0.0015136 0.000183064 0)
(0.00150849 0.000180862 0)
(0.00150305 0.000178484 0)
(0.00149731 0.000175998 0)
(0.00149128 0.000173461 0)
(0.001485 0.000170927 0)
(0.00147849 0.000168428 0)
(0.00147178 0.000166008 0)
(0.00146493 0.000163706 0)
(0.00145797 0.000161549 0)
(0.00145094 0.000159532 0)
(0.00144391 0.000157638 0)
(0.00143687 0.00015584 0)
(0.00142981 0.000154101 0)
(0.00142267 0.000152373 0)
(0.00141542 0.000150612 0)
(0.00140805 0.000148772 0)
(0.00140052 0.00014682 0)
(0.00139282 0.000144721 0)
(0.00138493 0.000142463 0)
(0.00137683 0.000140016 0)
(0.00136852 0.000137356 0)
(0.00135991 0.000134461 0)
(0.00135097 0.000131317 0)
(0.00134173 0.000127932 0)
(0.00133223 0.00012432 0)
(0.00132249 0.000120506 0)
(0.00131257 0.000116513 0)
(0.00130247 0.000112362 0)
(0.00129221 0.000108072 0)
(0.00128182 0.000103659 0)
(0.00127133 9.91373e-05 0)
(0.00126076 9.45217e-05 0)
(0.00125014 8.98266e-05 0)
(0.00123951 8.50671e-05 0)
(0.00122891 8.02609e-05 0)
(0.00121836 7.54272e-05 0)
(0.00120791 7.05864e-05 0)
(0.00119759 6.57596e-05 0)
(0.00118743 6.09685e-05 0)
(0.00117748 5.62356e-05 0)
(0.00116775 5.15833e-05 0)
(0.00115827 4.70329e-05 0)
(0.00114908 4.26047e-05 0)
(0.00114019 3.83164e-05 0)
(0.00113162 3.41869e-05 0)
(0.00112339 3.02318e-05 0)
(0.0011155 2.64668e-05 0)
(0.00110796 2.2904e-05 0)
(0.00110078 1.95514e-05 0)
(0.00109396 1.64281e-05 0)
(0.00108751 1.35345e-05 0)
(0.00108141 1.08652e-05 0)
(0.00107568 8.4186e-06 0)
(0.0010703 6.19321e-06 0)
(0.00106524 4.18348e-06 0)
(0.00106048 2.37852e-06 0)
(0.00105602 7.6961e-07 0)
(0.00105186 -6.5109e-07 0)
(0.00104797 -1.89183e-06 0)
(0.00104435 -2.96096e-06 0)
(0.00163885 7.44472e-05 0)
(0.00163363 8.2957e-05 0)
(0.00162882 9.17104e-05 0)
(0.00162392 0.000100615 0)
(0.00161865 0.000109488 0)
(0.00161295 0.000118157 0)
(0.00160686 0.000126494 0)
(0.00160047 0.000134425 0)
(0.00159391 0.000141916 0)
(0.00158727 0.000148949 0)
(0.00158062 0.000155514 0)
(0.00157402 0.000161601 0)
(0.00156752 0.0001672 0)
(0.00156114 0.0001723 0)
(0.00155492 0.000176895 0)
(0.00154889 0.000180981 0)
(0.00154308 0.000184557 0)
(0.00153753 0.000187626 0)
(0.00153224 0.00019019 0)
(0.00152725 0.000192257 0)
(0.00152256 0.000193834 0)
(0.00151817 0.000194932 0)
(0.00151407 0.000195565 0)
(0.00151025 0.000195748 0)
(0.00150669 0.000195501 0)
(0.00150336 0.000194846 0)
(0.00150022 0.000193812 0)
(0.00149723 0.000192432 0)
(0.00149437 0.00019075 0)
(0.00149159 0.000188813 0)
(0.00148887 0.000186678 0)
(0.0014862 0.000184406 0)
(0.00148357 0.000182053 0)
(0.00148097 0.000179673 0)
(0.00147844 0.000177311 0)
(0.00147597 0.000175006 0)
(0.00147361 0.000172786 0)
(0.00147135 0.000170675 0)
(0.00146922 0.000168681 0)
(0.00146723 0.000166801 0)
(0.00146537 0.000165012 0)
(0.00146365 0.000163282 0)
(0.00146204 0.00016158 0)
(0.00146052 0.000159876 0)
(0.00145906 0.000158148 0)
(0.00145761 0.000156373 0)
(0.00145615 0.000154527 0)
(0.00145466 0.000152588 0)
(0.00145312 0.000150534 0)
(0.00145149 0.000148347 0)
(0.00144976 0.000146007 0)
(0.00144787 0.000143509 0)
(0.00144581 0.000140862 0)
(0.00144355 0.000138076 0)
(0.0014411 0.000135153 0)
(0.00143845 0.00013209 0)
(0.00143557 0.000128878 0)
(0.00143245 0.00012551 0)
(0.00142909 0.000121979 0)
(0.00142547 0.000118285 0)
(0.00142159 0.000114429 0)
(0.00141744 0.000110417 0)
(0.00141304 0.000106259 0)
(0.0014084 0.000101967 0)
(0.00140351 9.75574e-05 0)
(0.00139841 9.30484e-05 0)
(0.0013931 8.84606e-05 0)
(0.00138761 8.38164e-05 0)
(0.00138195 7.91392e-05 0)
(0.00137615 7.44531e-05 0)
(0.00137024 6.97823e-05 0)
(0.00136424 6.5151e-05 0)
(0.00135816 6.05819e-05 0)
(0.00135205 5.60971e-05 0)
(0.00134592 5.17181e-05 0)
(0.00133979 4.74644e-05 0)
(0.0013337 4.33538e-05 0)
(0.00132766 3.94011e-05 0)
(0.0013217 3.56194e-05 0)
(0.00131583 3.20198e-05 0)
(0.00131008 2.86089e-05 0)
(0.00130445 2.5392e-05 0)
(0.00129898 2.23701e-05 0)
(0.00129368 1.95423e-05 0)
(0.00128854 1.69072e-05 0)
(0.00128358 1.44666e-05 0)
(0.00127882 1.2219e-05 0)
(0.00127427 1.01582e-05 0)
(0.00126993 8.27749e-06 0)
(0.00126581 6.56816e-06 0)
(0.00175339 8.20874e-05 0)
(0.00174678 9.30825e-05 0)
(0.00174052 0.00010377 0)
(0.00173393 0.000114123 0)
(0.00172663 0.000124106 0)
(0.00171855 0.000133671 0)
(0.00170978 0.000142764 0)
(0.00170047 0.000151334 0)
(0.00169078 0.000159343 0)
(0.00168082 0.000166763 0)
(0.00167068 0.000173575 0)
(0.00166042 0.000179767 0)
(0.00165009 0.000185331 0)
(0.00163973 0.000190263 0)
(0.0016294 0.000194564 0)
(0.00161915 0.00019824 0)
(0.00160905 0.000201303 0)
(0.00159914 0.000203768 0)
(0.00158949 0.000205653 0)
(0.00158012 0.000206982 0)
(0.00157108 0.000207777 0)
(0.00156239 0.000208064 0)
(0.00155408 0.00020787 0)
(0.00154617 0.000207225 0)
(0.00153865 0.000206164 0)
(0.00153152 0.000204721 0)
(0.00152478 0.000202937 0)
(0.00151842 0.000200853 0)
(0.00151243 0.000198515 0)
(0.00150679 0.000195972 0)
(0.00150148 0.000193274 0)
(0.00149651 0.00019047 0)
(0.00149185 0.000187609 0)
(0.00148751 0.000184731 0)
(0.00148347 0.000181875 0)
(0.00147975 0.000179069 0)
(0.00147634 0.000176334 0)
(0.00147324 0.000173684 0)
(0.00147045 0.000171123 0)
(0.00146796 0.00016865 0)
(0.00146576 0.000166257 0)
(0.00146384 0.000163929 0)
(0.00146219 0.000161651 0)
(0.00146079 0.000159408 0)
(0.00145961 0.000157187 0)
(0.00145864 0.000154978 0)
(0.00145784 0.000152771 0)
(0.0014572 0.000150553 0)
(0.00145669 0.000148312 0)
(0.00145629 0.000146037 0)
(0.00145597 0.000143715 0)
(0.00145571 0.000141337 0)
(0.00145549 0.000138897 0)
(0.00145527 0.000136386 0)
(0.00145503 0.000133794 0)
(0.00145473 0.000131108 0)
(0.00145435 0.000128316 0)
(0.00145385 0.000125408 0)
(0.00145323 0.000122376 0)
(0.00145245 0.000119216 0)
(0.00145149 0.000115927 0)
(0.00145036 0.000112512 0)
(0.00144902 0.000108974 0)
(0.00144748 0.000105321 0)
(0.00144572 0.00010156 0)
(0.00144374 9.77025e-05 0)
(0.00144154 9.376e-05 0)
(0.00143912 8.97465e-05 0)
(0.00143647 8.56772e-05 0)
(0.00143361 8.1568e-05 0)
(0.00143055 7.74362e-05 0)
(0.00142729 7.32995e-05 0)
(0.00142384 6.91758e-05 0)
(0.00142023 6.50834e-05 0)
(0.00141647 6.104e-05 0)
(0.00141258 5.70628e-05 0)
(0.00140857 5.31683e-05 0)
(0.00140448 4.93716e-05 0)
(0.00140031 4.56866e-05 0)
(0.0013961 4.21258e-05 0)
(0.00139187 3.86997e-05 0)
(0.00138763 3.54173e-05 0)
(0.00138342 3.22848e-05 0)
(0.00137924 2.93066e-05 0)
(0.00137513 2.64861e-05 0)
(0.0013711 2.38257e-05 0)
(0.00136716 2.13254e-05 0)
(0.00136334 1.89823e-05 0)
(0.00135965 1.67913e-05 0)
(0.0013561 1.47466e-05 0)
(0.00179291 9.1902e-05 0)
(0.00178866 0.000104519 0)
(0.00178481 0.00011671 0)
(0.00178089 0.000128399 0)
(0.00177656 0.000139575 0)
(0.00177164 0.000150229 0)
(0.00176609 0.000160343 0)
(0.00176 0.00016988 0)
(0.00175345 0.000178798 0)
(0.00174652 0.000187053 0)
(0.00173926 0.000194611 0)
(0.00173171 0.000201442 0)
(0.0017239 0.000207528 0)
(0.00171584 0.00021286 0)
(0.00170757 0.000217435 0)
(0.00169914 0.00022126 0)
(0.00169059 0.000224348 0)
(0.00168197 0.000226718 0)
(0.00167333 0.000228395 0)
(0.00166471 0.00022941 0)
(0.00165616 0.000229794 0)
(0.00164771 0.000229585 0)
(0.00163941 0.000228825 0)
(0.00163128 0.000227557 0)
(0.00162335 0.000225827 0)
(0.00161565 0.000223686 0)
(0.00160819 0.000221184 0)
(0.00160098 0.000218373 0)
(0.00159404 0.000215306 0)
(0.00158737 0.000212034 0)
(0.00158098 0.000208608 0)
(0.00157485 0.000205075 0)
(0.00156901 0.00020148 0)
(0.00156344 0.000197862 0)
(0.00155814 0.000194257 0)
(0.00155312 0.000190691 0)
(0.00154836 0.000187188 0)
(0.00154388 0.000183763 0)
(0.00153965 0.000180426 0)
(0.00153567 0.000177182 0)
(0.00153192 0.000174031 0)
(0.00152841 0.000170972 0)
(0.00152511 0.000167998 0)
(0.00152202 0.000165102 0)
(0.00151912 0.000162276 0)
(0.00151639 0.00015951 0)
(0.00151382 0.000156795 0)
(0.0015114 0.000154121 0)
(0.0015091 0.000151475 0)
(0.00150691 0.000148847 0)
(0.00150482 0.000146221 0)
(0.00150279 0.000143586 0)
(0.00150083 0.000140925 0)
(0.0014989 0.000138225 0)
(0.00149698 0.000135474 0)
(0.00149507 0.000132661 0)
(0.00149314 0.000129778 0)
(0.00149118 0.000126818 0)
(0.00148918 0.00012378 0)
(0.00148713 0.00012066 0)
(0.00148501 0.000117459 0)
(0.00148282 0.000114177 0)
(0.00148055 0.000110817 0)
(0.00147819 0.000107381 0)
(0.00147573 0.000103875 0)
(0.00147317 0.000100304 0)
(0.0014705 9.66742e-05 0)
(0.00146772 9.29955e-05 0)
(0.00146482 8.92771e-05 0)
(0.00146182 8.55296e-05 0)
(0.00145871 8.17644e-05 0)
(0.00145549 7.79936e-05 0)
(0.00145217 7.42296e-05 0)
(0.00144876 7.04851e-05 0)
(0.00144527 6.67727e-05 0)
(0.0014417 6.31047e-05 0)
(0.00143808 5.94931e-05 0)
(0.00143441 5.59488e-05 0)
(0.00143071 5.24823e-05 0)
(0.001427 4.91025e-05 0)
(0.00142328 4.58178e-05 0)
(0.00141959 4.26344e-05 0)
(0.00141592 3.9558e-05 0)
(0.00141231 3.65922e-05 0)
(0.00140877 3.37397e-05 0)
(0.0014053 3.10019e-05 0)
(0.00140193 2.83788e-05 0)
(0.00139868 2.58699e-05 0)
(0.00139555 2.3472e-05 0)
(0.00139255 2.11823e-05 0)
(0.00160961 9.67731e-05 0)
(0.00161107 0.000109155 0)
(0.00161313 0.000121441 0)
(0.00161546 0.000133471 0)
(0.00161772 0.000145131 0)
(0.00161972 0.000156347 0)
(0.00162139 0.000167064 0)
(0.00162272 0.000177233 0)
(0.00162376 0.000186809 0)
(0.00162454 0.000195741 0)
(0.00162508 0.000203981 0)
(0.00162537 0.000211485 0)
(0.0016254 0.000218218 0)
(0.00162517 0.00022416 0)
(0.00162468 0.000229297 0)
(0.00162394 0.000233629 0)
(0.00162296 0.000237162 0)
(0.00162177 0.000239911 0)
(0.0016204 0.000241898 0)
(0.00161885 0.000243151 0)
(0.00161717 0.000243704 0)
(0.00161537 0.000243597 0)
(0.00161349 0.000242874 0)
(0.00161154 0.000241583 0)
(0.00160956 0.000239777 0)
(0.00160758 0.000237507 0)
(0.0016056 0.000234829 0)
(0.00160364 0.000231799 0)
(0.00160174 0.000228474 0)
(0.00159989 0.000224909 0)
(0.0015981 0.000221159 0)
(0.0015964 0.000217274 0)
(0.00159478 0.000213303 0)
(0.00159326 0.000209291 0)
(0.00159183 0.000205277 0)
(0.00159049 0.000201295 0)
(0.00158925 0.000197373 0)
(0.00158811 0.000193534 0)
(0.00158705 0.000189795 0)
(0.00158607 0.00018617 0)
(0.00158517 0.000182666 0)
(0.00158432 0.000179288 0)
(0.00158353 0.000176034 0)
(0.00158278 0.000172901 0)
(0.00158205 0.000169882 0)
(0.00158133 0.000166966 0)
(0.00158059 0.000164141 0)
(0.00157982 0.000161393 0)
(0.00157901 0.000158706 0)
(0.00157812 0.000156065 0)
(0.00157715 0.000153452 0)
(0.00157608 0.00015085 0)
(0.00157488 0.000148242 0)
(0.00157355 0.000145613 0)
(0.00157206 0.00014295 0)
(0.00157042 0.000140242 0)
(0.00156862 0.000137479 0)
(0.00156664 0.000134653 0)
(0.00156448 0.000131759 0)
(0.00156215 0.000128789 0)
(0.00155964 0.000125742 0)
(0.00155695 0.000122615 0)
(0.00155408 0.000119407 0)
(0.00155104 0.000116119 0)
(0.00154783 0.000112753 0)
(0.00154446 0.000109314 0)
(0.00154094 0.000105807 0)
(0.00153727 0.000102239 0)
(0.00153347 9.86187e-05 0)
(0.00152955 9.49542e-05 0)
(0.00152552 9.12557e-05 0)
(0.0015214 8.75336e-05 0)
(0.00151719 8.3799e-05 0)
(0.00151292 8.00627e-05 0)
(0.00150861 7.6336e-05 0)
(0.00150426 7.26298e-05 0)
(0.00149989 6.89547e-05 0)
(0.00149553 6.53205e-05 0)
(0.00149119 6.17366e-05 0)
(0.00148688 5.82114e-05 0)
(0.00148262 5.47526e-05 0)
(0.00147843 5.13665e-05 0)
(0.00147433 4.80589e-05 0)
(0.00147033 4.48343e-05 0)
(0.00146644 4.1696e-05 0)
(0.00146268 3.86467e-05 0)
(0.00145906 3.56877e-05 0)
(0.0014556 3.28199e-05 0)
(0.00145231 3.00434e-05 0)
(0.00144918 2.73561e-05 0)
(0.00125118 8.69307e-05 0)
(0.0012578 9.88195e-05 0)
(0.00126529 0.000110864 0)
(0.00127321 0.000122824 0)
(0.00128121 0.000134521 0)
(0.00128915 0.000145842 0)
(0.001297 0.000156717 0)
(0.00130479 0.000167096 0)
(0.00131256 0.000176934 0)
(0.00132031 0.000186179 0)
(0.00132803 0.000194775 0)
(0.00133569 0.00020267 0)
(0.00134326 0.000209822 0)
(0.00135072 0.0002162 0)
(0.00135804 0.000221785 0)
(0.00136523 0.000226566 0)
(0.00137226 0.000230544 0)
(0.00137914 0.000233724 0)
(0.00138587 0.000236123 0)
(0.00139244 0.000237764 0)
(0.00139886 0.000238675 0)
(0.00140514 0.000238894 0)
(0.00141129 0.000238462 0)
(0.00141731 0.000237426 0)
(0.00142322 0.000235836 0)
(0.00142903 0.000233746 0)
(0.00143476 0.000231211 0)
(0.00144041 0.00022829 0)
(0.00144601 0.00022504 0)
(0.00145157 0.000221519 0)
(0.0014571 0.000217785 0)
(0.0014626 0.000213892 0)
(0.0014681 0.000209894 0)
(0.00147359 0.000205837 0)
(0.00147908 0.000201768 0)
(0.00148458 0.000197725 0)
(0.00149009 0.000193744 0)
(0.00149561 0.000189853 0)
(0.00150113 0.000186079 0)
(0.00150666 0.000182438 0)
(0.00151217 0.000178946 0)
(0.00151767 0.000175611 0)
(0.00152313 0.000172437 0)
(0.00152855 0.000169421 0)
(0.00153389 0.00016656 0)
(0.00153915 0.000163845 0)
(0.0015443 0.000161263 0)
(0.00154931 0.000158802 0)
(0.00155416 0.000156446 0)
(0.00155882 0.000154177 0)
(0.00156326 0.00015198 0)
(0.00156748 0.000149835 0)
(0.00157143 0.000147724 0)
(0.0015751 0.000145632 0)
(0.00157847 0.00014354 0)
(0.00158152 0.000141434 0)
(0.00158423 0.000139297 0)
(0.0015866 0.000137115 0)
(0.00158861 0.000134875 0)
(0.00159025 0.000132564 0)
(0.00159152 0.000130172 0)
(0.00159241 0.000127692 0)
(0.00159292 0.000125115 0)
(0.00159306 0.000122439 0)
(0.00159284 0.000119659 0)
(0.00159225 0.000116777 0)
(0.00159131 0.000113792 0)
(0.00159003 0.000110708 0)
(0.00158843 0.00010753 0)
(0.00158653 0.000104264 0)
(0.00158434 0.000100916 0)
(0.00158188 9.74966e-05 0)
(0.00157919 9.40137e-05 0)
(0.00157628 9.04776e-05 0)
(0.00157317 8.68989e-05 0)
(0.00156989 8.32882e-05 0)
(0.00156647 7.96568e-05 0)
(0.00156294 7.60155e-05 0)
(0.0015593 7.23751e-05 0)
(0.0015556 6.87459e-05 0)
(0.00155185 6.51376e-05 0)
(0.00154808 6.15597e-05 0)
(0.00154432 5.80202e-05 0)
(0.00154057 5.45267e-05 0)
(0.00153687 5.1086e-05 0)
(0.00153323 4.77032e-05 0)
(0.00152966 4.43839e-05 0)
(0.0015262 4.11313e-05 0)
(0.00152284 3.79484e-05 0)
(0.0015196 3.48374e-05 0)
(0.000835342 6.59162e-05 0)
(0.000844412 7.79882e-05 0)
(0.000854249 9.00686e-05 0)
(0.000864348 0.000101915 0)
(0.000874506 0.000113404 0)
(0.000884701 0.000124492 0)
(0.000895013 0.000135159 0)
(0.000905521 0.000145375 0)
(0.000916257 0.000155091 0)
(0.000927209 0.000164247 0)
(0.00093835 0.000172786 0)
(0.000949649 0.000180658 0)
(0.000961079 0.000187824 0)
(0.000972616 0.000194252 0)
(0.000984239 0.000199921 0)
(0.000995932 0.000204815 0)
(0.00100767 0.000208929 0)
(0.00101945 0.000212265 0)
(0.00103125 0.00021483 0)
(0.00104306 0.000216643 0)
(0.00105486 0.000217728 0)
(0.00106666 0.000218115 0)
(0.00107845 0.000217841 0)
(0.00109023 0.000216951 0)
(0.00110199 0.000215492 0)
(0.00111375 0.000213515 0)
(0.0011255 0.000211077 0)
(0.00113726 0.000208234 0)
(0.00114902 0.000205045 0)
(0.0011608 0.000201568 0)
(0.0011726 0.000197861 0)
(0.00118444 0.000193981 0)
(0.00119631 0.000189983 0)
(0.00120822 0.000185917 0)
(0.00122017 0.000181832 0)
(0.00123218 0.000177771 0)
(0.00124424 0.000173773 0)
(0.00125635 0.000169873 0)
(0.0012685 0.000166099 0)
(0.0012807 0.000162478 0)
(0.00129293 0.000159027 0)
(0.00130517 0.000155764 0)
(0.00131742 0.000152697 0)
(0.00132965 0.000149831 0)
(0.00134184 0.000147164 0)
(0.00135398 0.000144694 0)
(0.00136602 0.000142411 0)
(0.00137795 0.000140305 0)
(0.00138973 0.000138362 0)
(0.00140134 0.000136569 0)
(0.00141273 0.000134909 0)
(0.00142388 0.000133363 0)
(0.00143476 0.000131914 0)
(0.00144533 0.000130542 0)
(0.00145556 0.000129227 0)
(0.00146542 0.000127949 0)
(0.00147488 0.000126687 0)
(0.00148392 0.000125422 0)
(0.00149252 0.000124134 0)
(0.00150065 0.000122805 0)
(0.00150829 0.000121418 0)
(0.00151543 0.000119958 0)
(0.00152207 0.000118411 0)
(0.00152818 0.000116767 0)
(0.00153377 0.000115015 0)
(0.00153883 0.000113148 0)
(0.00154337 0.00011116 0)
(0.00154739 0.000109048 0)
(0.0015509 0.00010681 0)
(0.00155391 0.000104446 0)
(0.00155643 0.000101959 0)
(0.00155848 9.93532e-05 0)
(0.00156007 9.66331e-05 0)
(0.00156123 9.3806e-05 0)
(0.00156198 9.088e-05 0)
(0.00156234 8.78638e-05 0)
(0.00156234 8.47672e-05 0)
(0.00156201 8.15999e-05 0)
(0.00156136 7.83725e-05 0)
(0.00156043 7.5095e-05 0)
(0.00155924 7.17779e-05 0)
(0.00155782 6.84314e-05 0)
(0.0015562 6.50653e-05 0)
(0.00155439 6.16895e-05 0)
(0.00155242 5.83131e-05 0)
(0.00155033 5.49446e-05 0)
(0.00154811 5.15925e-05 0)
(0.0015458 4.82642e-05 0)
(0.00154342 4.49665e-05 0)
(0.00154098 4.17057e-05 0)
(0.000428981 4.61506e-05 0)
(0.000437449 5.83005e-05 0)
(0.000446447 7.00222e-05 0)
(0.000455652 8.12317e-05 0)
(0.000465046 9.19958e-05 0)
(0.000474742 0.000102343 0)
(0.000484793 0.000112288 0)
(0.000495217 0.000121797 0)
(0.000506007 0.000130815 0)
(0.00051715 0.000139288 0)
(0.000528629 0.000147166 0)
(0.000540427 0.000154407 0)
(0.000552529 0.00016098 0)
(0.00056492 0.000166859 0)
(0.000577581 0.000172022 0)
(0.000590496 0.000176456 0)
(0.000603646 0.000180152 0)
(0.000617015 0.000183109 0)
(0.000630588 0.000185333 0)
(0.00064435 0.000186839 0)
(0.00065829 0.000187647 0)
(0.000672399 0.000187787 0)
(0.00068667 0.000187291 0)
(0.000701097 0.000186198 0)
(0.000715678 0.000184551 0)
(0.000730412 0.0001824 0)
(0.000745301 0.000179794 0)
(0.000760346 0.000176786 0)
(0.00077555 0.000173432 0)
(0.000790919 0.000169788 0)
(0.000806458 0.000165911 0)
(0.000822171 0.000161857 0)
(0.00083806 0.00015768 0)
(0.00085413 0.000153432 0)
(0.000870384 0.000149163 0)
(0.000886825 0.000144917 0)
(0.000903451 0.000140735 0)
(0.000920259 0.000136657 0)
(0.000937246 0.000132715 0)
(0.000954405 0.000128941 0)
(0.000971727 0.000125359 0)
(0.000989195 0.00012199 0)
(0.00100679 0.00011885 0)
(0.00102448 0.000115949 0)
(0.00104224 0.000113295 0)
(0.00106004 0.000110892 0)
(0.00107786 0.000108738 0)
(0.00109566 0.00010683 0)
(0.0011134 0.00010516 0)
(0.00113105 0.000103718 0)
(0.00114857 0.000102489 0)
(0.00116592 0.000101456 0)
(0.00118306 0.0001006 0)
(0.00119996 9.98988e-05 0)
(0.00121656 9.93306e-05 0)
(0.00123283 9.88722e-05 0)
(0.00124873 9.84998e-05 0)
(0.00126422 9.81896e-05 0)
(0.00127927 9.79181e-05 0)
(0.00129384 9.76622e-05 0)
(0.00130791 9.73996e-05 0)
(0.00132144 9.7109e-05 0)
(0.00133441 9.67705e-05 0)
(0.00134681 9.63658e-05 0)
(0.00135861 9.58782e-05 0)
(0.0013698 9.52928e-05 0)
(0.00138036 9.45963e-05 0)
(0.00139029 9.37778e-05 0)
(0.00139959 9.28283e-05 0)
(0.00140825 9.17412e-05 0)
(0.00141629 9.05117e-05 0)
(0.00142369 8.91372e-05 0)
(0.00143048 8.76167e-05 0)
(0.00143666 8.59508e-05 0)
(0.00144224 8.41422e-05 0)
(0.00144724 8.21958e-05 0)
(0.00145168 8.01184e-05 0)
(0.00145557 7.79186e-05 0)
(0.00145894 7.56054e-05 0)
(0.0014618 7.31888e-05 0)