/*--------------------------------*- C++ -*----------------------------------*\
| =========                 |                                                 |
| \\      /  F ield         | OpenFOAM: The Open Source CFD Toolbox           |
|  \\    /   O peration     | Version:  2312                                  |
|   \\  /    A nd           | Website:  www.openfoam.com                      |
|    \\/     M anipulation  |                                                 |
\*---------------------------------------------------------------------------*/
FoamFile
{
    version     2.0;
    format      ascii;
    arch        "LSB;label=32;scalar=64";
    class       surfaceScalarField;
    location    "93000";
    object      phi;
}
// * * * * * * * * * * * * * * * * * * * * * * * * * * * * * * * * * * * * * //

dimensions      [0 3 -1 0 0 0 0];

oriented        oriented;

internalField   nonuniform List<scalar> 
21240
(
0.000664974
1.69221e-06
0.000661072
3.90227e-06
0.000655752
5.32063e-06
0.000649516
6.23605e-06
0.000642641
6.87463e-06
0.00063527
7.37106e-06
0.000627494
7.77581e-06
0.000619392
8.10194e-06
0.000611037
8.35546e-06
0.000602491
8.54535e-06
0.000593807
8.68391e-06
0.000585024
8.78344e-06
0.00057617
8.85358e-06
0.00056727
8.90064e-06
0.000558341
8.92844e-06
0.000549402
8.93944e-06
0.000540466
8.93547e-06
0.000531548
8.9181e-06
0.00052266
8.88865e-06
0.000513811
8.8482e-06
0.000505014
8.79757e-06
0.000496277
8.73735e-06
0.000487609
8.66795e-06
0.000479019
8.58969e-06
0.000470516
8.50276e-06
0.000462109
8.40732e-06
0.000453805
8.30347e-06
0.000445614
8.19124e-06
0.000437543
8.07075e-06
0.000429601
7.94184e-06
0.000421797
7.80475e-06
0.000414138
7.65912e-06
0.000406632
7.50545e-06
0.000399289
7.34298e-06
0.000392116
7.1728e-06
0.000385123
6.99337e-06
0.000378316
6.80689e-06
0.000371706
6.61039e-06
0.000365298
6.4081e-06
0.000359103
6.19434e-06
0.000353126
5.97713e-06
0.00034738
5.7457e-06
0.000341865
5.515e-06
0.000336601
5.26491e-06
0.000331578
5.02303e-06
0.000326826
4.75194e-06
0.000322323
4.50245e-06
0.000318118
4.20522e-06
0.000314164
3.95388e-06
0.000310545
3.61911e-06
0.000307169
3.37625e-06
0.000304191
2.97756e-06
0.000301425
2.76614e-06
0.000299189
2.2358e-06
0.000297073
2.11625e-06
0.000295832
1.24107e-06
0.000294358
1.47408e-06
0.000294573
-2.15217e-07
0.000293416
1.15653e-06
-3.20462e-06
0.000296621
0.000667556
8.02897e-07
0.000669121
2.33767e-06
0.000670854
3.58704e-06
0.000672525
4.56483e-06
0.000674055
5.34544e-06
0.000675428
5.99766e-06
0.000676641
6.56311e-06
0.000677682
7.0602e-06
0.000678542
7.49598e-06
0.000679212
7.8749e-06
0.000679694
8.20257e-06
0.000679991
8.48593e-06
0.000680113
8.73199e-06
0.000680067
8.94659e-06
0.000679861
9.13408e-06
0.000679503
9.29738e-06
0.000679
9.43864e-06
0.000678359
9.55941e-06
0.000677586
9.66118e-06
0.000676689
9.74498e-06
0.000675675
9.81195e-06
0.00067455
9.86263e-06
0.00067332
9.89785e-06
0.000671992
9.91768e-06
0.000670572
9.92285e-06
0.000669066
9.91296e-06
0.000667481
9.88891e-06
0.000665822
9.84973e-06
0.000664096
9.79674e-06
0.00066231
9.72822e-06
0.000660468
9.64628e-06
0.000658579
9.54804e-06
0.000656648
9.43699e-06
0.000654682
9.30838e-06
0.000652687
9.1681e-06
0.000650672
9.00829e-06
0.00064864
8.83884e-06
0.000646604
8.64679e-06
0.000644563
8.44862e-06
0.000642535
8.22295e-06
0.000640515
7.99717e-06
0.000638525
7.73592e-06
0.000636555
7.48462e-06
0.000634635
7.18481e-06
0.000632746
6.91164e-06
0.00063093
6.56842e-06
0.000629153
6.27947e-06
0.000627473
5.88493e-06
0.000625837
5.59021e-06
0.000624325
5.13144e-06
0.000622853
4.84733e-06
0.000621527
4.30384e-06
0.000620237
4.05678e-06
0.000619074
3.39783e-06
0.000617962
3.22877e-06
0.000616788
2.41483e-06
0.000615884
2.37878e-06
0.000614277
1.3917e-06
0.000613895
1.5381e-06
4.46272e-07
0.000610244
0.000666951
5.1858e-07
0.000667819
1.46992e-06
0.000669059
2.34688e-06
0.000670484
3.13957e-06
0.000671986
3.84382e-06
0.000673516
4.46729e-06
0.000675057
5.02219e-06
0.000676598
5.51964e-06
0.000678126
5.96745e-06
0.000679631
6.37052e-06
0.000681101
6.7324e-06
0.00068253
7.05636e-06
0.000683916
7.34591e-06
0.000685258
7.60454e-06
0.000686557
7.83552e-06
0.000687813
8.04147e-06
0.000689027
8.22464e-06
0.0006902
8.38655e-06
0.000691332
8.52873e-06
0.000692425
8.65204e-06
0.000693479
8.75767e-06
0.000694496
8.84603e-06
0.000695476
8.91812e-06
0.00069642
8.97387e-06
0.000697328
9.01425e-06
0.000698202
9.03864e-06
0.000699043
9.04818e-06
0.000699851
9.04163e-06
0.000700627
9.02056e-06
0.000701373
8.98292e-06
0.000702088
8.93103e-06
0.000702774
8.86171e-06
0.000703433
8.77852e-06
0.000704065
8.67662e-06
0.000704671
8.5615e-06
0.000705254
8.4259e-06
0.000705814
8.27822e-06
0.000706353
8.10764e-06
0.000706875
7.92685e-06
0.000707378
7.71991e-06
0.00070787
7.50569e-06
0.000708345
7.26089e-06
0.000708816
7.01326e-06
0.000709272
6.72914e-06
0.000709735
6.44856e-06
0.000710179
6.12375e-06
0.000710648
5.81127e-06
0.000711088
5.44484e-06
0.000711576
5.10207e-06
0.000712013
4.69403e-06
0.000712538
4.32288e-06
0.000712966
3.87534e-06
0.000713545
3.47753e-06
0.000713945
2.99791e-06
0.0007146
2.57464e-06
0.000714931
2.08347e-06
0.000715675
1.63458e-06
0.000715885
1.1822e-06
0.000716727
6.95844e-07
3.84148e-07
0.000716789
0.000666854
3.31401e-07
0.000667309
1.01506e-06
0.000667972
1.6834e-06
0.000668796
2.31571e-06
0.000669737
2.9028e-06
0.000670763
3.44175e-06
0.000671851
3.93414e-06
0.000672987
4.38361e-06
0.00067416
4.79409e-06
0.000675362
5.16879e-06
0.000676584
5.51024e-06
0.00067782
5.82048e-06
0.000679064
6.10151e-06
0.000680313
6.35529e-06
0.000681565
6.58385e-06
0.000682818
6.78901e-06
0.00068407
6.97246e-06
0.000685321
7.13553e-06
0.00068657
7.27941e-06
0.000687817
7.40497e-06
0.000689062
7.51308e-06
0.000690304
7.60427e-06
0.000691542
7.67921e-06
0.000692778
7.73814e-06
0.000694011
7.78158e-06
0.00069524
7.80951e-06
0.000696466
7.82232e-06
0.000697688
7.81978e-06
0.000698906
7.80221e-06
0.00070012
7.76919e-06
0.00070133
7.721e-06
0.000702534
7.65708e-06
0.000703735
7.57764e-06
0.00070493
7.48211e-06
0.000706121
7.37049e-06
0.000707304
7.24244e-06
0.000708485
7.09748e-06
0.000709657
6.93593e-06
0.000710827
6.75626e-06
0.000711987
6.56027e-06
0.000713148
6.3443e-06
0.000714296
6.11315e-06
0.00071545
5.85901e-06
0.000716587
5.5924e-06
0.000717738
5.2978e-06
0.000718865
4.99619e-06
0.000720018
4.65819e-06
0.00072114
4.3235e-06
0.000722303
3.93839e-06
0.000723422
3.57532e-06
0.000724606
3.13856e-06
0.000725725
2.75665e-06
0.00072694
2.2624e-06
0.00072806
1.87862e-06
0.000729316
1.31805e-06
0.000730439
9.60546e-07
0.000731751
3.22244e-07
0.000732893
4.05776e-08
0.000734343
-7.53771e-07
-9.18997e-07
0.000735646
0.000666738
2.59645e-07
0.00066697
7.83709e-07
0.000667356
1.29692e-06
0.00066788
1.79227e-06
0.000668519
2.26387e-06
0.000669252
2.70814e-06
0.000670063
3.12361e-06
0.000670936
3.51037e-06
0.000671861
3.86931e-06
0.000672828
4.20155e-06
0.00067383
4.50817e-06
0.00067486
4.79017e-06
0.000675913
5.04847e-06
0.000676985
5.28407e-06
0.000678071
5.49797e-06
0.000679168
5.69124e-06
0.000680276
5.86484e-06
0.000681392
6.01969e-06
0.000682515
6.15657e-06
0.000683643
6.27618e-06
0.000684777
6.37907e-06
0.000685916
6.46577e-06
0.000687059
6.5366e-06
0.000688205
6.59202e-06
0.000689354
6.6321e-06
0.000690506
6.65725e-06
0.000691661
6.6673e-06
0.000692819
6.66267e-06
0.000693978
6.64286e-06
0.000695139
6.60847e-06
0.000696301
6.55854e-06
0.000697464
6.49407e-06
0.000698628
6.41335e-06
0.000699792
6.31816e-06
0.000700957
6.20566e-06
0.000702121
6.07893e-06
0.000703285
5.93332e-06
0.000704447
5.77412e-06
0.000705609
5.59373e-06
0.000706768
5.40114e-06
0.000707929
5.18397e-06
0.000709085
4.95724e-06
0.000710243
4.70087e-06
0.000711395
4.43972e-06
0.000712552
4.14125e-06
0.000713702
3.84617e-06
0.000714858
3.50191e-06
0.000716007
3.17445e-06
0.000717167
2.77898e-06
0.00071832
2.42176e-06
0.000719492
1.96654e-06
0.000720665
1.58402e-06
0.000721871
1.05613e-06
0.000723094
6.56201e-07
0.000724383
2.87458e-08
0.000725692
-3.48211e-07
0.000727067
-1.05355e-06
0.000728522
-1.41403e-06
0.000730046
-2.27789e-06
-2.58878e-06
0.000731716
0.000666724
2.02281e-07
0.000666899
6.08579e-07
0.000667184
1.01211e-06
0.00066757
1.40634e-06
0.000668046
1.78757e-06
0.000668601
2.15288e-06
0.000669225
2.50021e-06
0.000669907
2.82833e-06
0.00067064
3.13668e-06
0.000671416
3.42514e-06
0.00067223
3.69379e-06
0.000673078
3.94289e-06
0.000673953
4.17281e-06
0.000674853
4.38399e-06
0.000675774
4.57689e-06
0.000676714
4.75205e-06
0.000677668
4.90997e-06
0.000678637
5.05121e-06
0.000679617
5.17618e-06
0.000680608
5.28539e-06
0.000681608
5.37913e-06
0.000682616
5.45784e-06
0.000683631
5.52162e-06
0.000684652
5.5709e-06
0.000685679
5.60559e-06
0.00068671
5.6261e-06
0.000687745
5.63212e-06
0.000688783
5.62414e-06
0.000689825
5.60151e-06
0.000690868
5.56494e-06
0.000691914
5.5133e-06
0.00069296
5.44771e-06
0.000694007
5.36633e-06
0.000695054
5.27101e-06
0.000696101
5.15881e-06
0.000697147
5.03281e-06
0.000698192
4.88839e-06
0.000699236
4.73057e-06
0.000700277
4.55213e-06
0.000701317
4.36123e-06
0.000702355
4.14657e-06
0.00070339
3.92127e-06
0.000704424
3.66761e-06
0.000705457
3.40657e-06
0.000706488
3.11035e-06
0.000707522
2.81233e-06
0.000708554
2.46912e-06
0.000709595
2.13374e-06
0.000710635
1.73872e-06
0.000711689
1.36782e-06
0.00071274
9.15988e-07
0.000713809
5.14713e-07
0.000714858
7.4185e-09
0.000715957
-4.43256e-07
0.000717044
-1.05831e-06
0.000718214
-1.51762e-06
0.000719395
-2.23508e-06
0.000720684
-2.70283e-06
0.000721967
-3.56123e-06
-4.01609e-06
0.000723395
0.000666708
1.60533e-07
0.000666834
4.83293e-07
0.000667041
8.05128e-07
0.000667326
1.12148e-06
0.000667683
1.42982e-06
0.000668108
1.728e-06
0.000668594
2.01432e-06
0.000669135
2.28754e-06
0.000669725
2.5469e-06
0.000670358
2.79207e-06
0.00067103
3.02166e-06
0.000671737
3.23581e-06
0.000672475
3.43464e-06
0.000673241
3.61827e-06
0.000674031
3.7868e-06
0.000674843
3.94045e-06
0.000675673
4.07941e-06
0.00067652
4.20394e-06
0.000677382
4.31423e-06
0.000678257
4.41058e-06
0.000679143
4.49308e-06
0.000680039
4.56202e-06
0.000680943
4.6174e-06
0.000681855
4.65948e-06
0.000682772
4.68814e-06
0.000683695
4.70364e-06
0.000684621
4.70568e-06
0.00068555
4.69459e-06
0.000686482
4.66982e-06
0.000687415
4.63185e-06
0.000688349
4.57976e-06
0.000689282
4.51431e-06
0.000690214
4.43407e-06
0.000691145
4.34028e-06
0.000692073
4.23074e-06
0.000692999
4.10746e-06
0.00069392
3.9671e-06
0.000694838
3.81295e-06
0.00069575
3.63988e-06
0.000696658
3.45322e-06
0.000697559
3.24509e-06
0.000698456
3.02411e-06
0.000699346
2.77815e-06
0.000700231
2.521e-06
0.000701108
2.23396e-06
0.000701981
1.93882e-06
0.000702844
1.6063e-06
0.000703708
1.27038e-06
0.000704561
8.85054e-07
0.000705425
5.03725e-07
0.000706288
5.28382e-08
0.00070717
-3.67005e-07
0.000708056
-8.78819e-07
0.000708963
-1.3497e-06
0.000709854
-1.94931e-06
0.000710803
-2.46725e-06
0.00071174
-3.17127e-06
0.000712769
-3.73223e-06
0.000713776
-4.5683e-06
-5.1619e-06
0.000714922
0.000666699
1.28479e-07
0.000666796
3.86407e-07
0.000666957
6.43953e-07
0.00066718
8.97927e-07
0.000667464
1.14659e-06
0.000667803
1.38842e-06
0.000668195
1.62209e-06
0.000668636
1.84651e-06
0.000669122
2.0608e-06
0.00066965
2.26425e-06
0.000670216
2.45624e-06
0.000670815
2.63637e-06
0.000671445
2.80441e-06
0.000672103
2.96027e-06
0.000672786
3.10387e-06
0.000673492
3.23521e-06
0.000674217
3.35428e-06
0.00067496
3.46113e-06
0.000675718
3.5558e-06
0.00067649
3.63839e-06
0.000677274
3.7089e-06
0.000678069
3.76743e-06
0.000678872
3.81396e-06
0.000679683
3.84858e-06
0.0006805
3.87116e-06
0.000681322
3.8818e-06
0.000682147
3.88028e-06
0.000682975
3.86671e-06
0.000683804
3.8407e-06
0.000684634
3.80243e-06
0.000685462
3.75129e-06
0.000686289
3.68757e-06
0.000687113
3.61037e-06
0.000687933
3.52018e-06
0.000688748
3.41569e-06
0.000689558
3.29774e-06
0.00069036
3.16437e-06
0.000691156
3.01703e-06
0.000691943
2.85284e-06
0.000692722
2.67417e-06
0.000693491
2.47672e-06
0.00069425
2.2644e-06
0.000694998
2.03073e-06
0.000695737
1.782e-06
0.000696462
1.50843e-06
0.000697181
1.22021e-06
0.000697885
9.02642e-07
0.000698583
5.7225e-07
0.00069926
2.07438e-07
0.000699935
-1.70855e-07
0.000700588
-6.00467e-07
0.000701255
-1.03357e-06
0.000701903
-1.52671e-06
0.00070257
-2.01672e-06
0.00070321
-2.58944e-06
0.000703887
-3.14389e-06
0.000704528
-3.81242e-06
0.000705231
-4.43518e-06
0.000705881
-5.21891e-06
-5.9101e-06
0.000706629
0.000666693
1.02289e-07
0.000666772
3.07487e-07
0.000666903
5.1252e-07
0.000667086
7.15064e-07
0.000667319
9.13893e-07
0.000667599
1.10789e-06
0.000667925
1.29605e-06
0.000668294
1.4775e-06
0.000668704
1.65146e-06
0.000669151
1.81731e-06
0.000669632
1.97451e-06
0.000670146
2.12266e-06
0.000670689
2.26141e-06
0.000671259
2.39053e-06
0.000671853
2.50982e-06
0.000672469
2.61915e-06
0.000673105
2.71841e-06
0.000673758
2.80754e-06
0.000674428
2.88647e-06
0.000675111
2.95517e-06
0.000675806
3.01358e-06
0.000676512
3.0617e-06
0.000677226
3.09945e-06
0.000677948
3.12681e-06
0.000678676
3.14368e-06
0.000679408
3.15001e-06
0.000680142
3.14564e-06
0.000680878
3.13051e-06
0.000681615
3.10438e-06
0.00068235
3.06718e-06
0.000683083
3.01856e-06
0.000683812
2.95843e-06
0.000684536
2.88633e-06
0.000685254
2.80217e-06
0.000685964
2.70533e-06
0.000686666
2.59574e-06
0.000687358
2.47256e-06
0.000688039
2.33579e-06
0.000688708
2.1843e-06
0.000689364
2.01824e-06
0.000690004
1.83605e-06
0.000690631
1.63815e-06
0.000691239
1.42238e-06
0.000691831
1.18961e-06
0.000692403
9.3682e-07
0.000692958
6.65503e-07
0.000693489
3.71439e-07
0.000694003
5.78196e-08
0.000694497
-2.86e-07
0.000694978
-6.52279e-07
0.000695428
-1.05001e-06
0.000695867
-1.47263e-06
0.000696273
-1.93272e-06
0.000696676
-2.41971e-06
0.000697039
-2.95254e-06
0.000697409
-3.51437e-06
0.00069773
-4.1332e-06
0.000698077
-4.78162e-06
0.000698359
-5.50165e-06
-6.2477e-06
0.000698697
0.000666689
8.02043e-08
0.000666755
2.41022e-07
0.000666866
4.0177e-07
0.00066702
5.60723e-07
0.000667217
7.16998e-07
0.000667455
8.69781e-07
0.000667733
1.01832e-06
0.000668049
1.16194e-06
0.0006684
1.30003e-06
0.000668785
1.43206e-06
0.000669202
1.55759e-06
0.000669649
1.67622e-06
0.000670122
1.78762e-06
0.000670621
1.89152e-06
0.000671144
1.98768e-06
0.000671687
2.07592e-06
0.000672249
2.15608e-06
0.000672829
2.22804e-06
0.000673423
2.29168e-06
0.000674032
2.34691e-06
0.000674652
2.39364e-06
0.000675282
2.43178e-06
0.00067592
2.46124e-06
0.000676565
2.48194e-06
0.000677215
2.49378e-06
0.000677868
2.49663e-06
0.000678523
2.49038e-06
0.000679179
2.47486e-06
0.000679833
2.44993e-06
0.000680485
2.41535e-06
0.000681133
2.37098e-06
0.000681775
2.31647e-06
0.000682409
2.25167e-06
0.000683035
2.17611e-06
0.000683651
2.08965e-06
0.000684255
1.99163e-06
0.000684846
1.88197e-06
0.000685422
1.75975e-06
0.000685981
1.62503e-06
0.000686523
1.47645e-06
0.000687045
1.31438e-06
0.000687546
1.13682e-06
0.000688024
9.44676e-07
0.000688478
7.34996e-07
0.000688905
5.09687e-07
0.000689306
2.64513e-07
0.000689673
5.02965e-09
0.000690017
-2.86956e-07
0.000690326
-5.94821e-07
0.000690606
-9.3196e-07
0.000690844
-1.28822e-06
0.000691053
-1.68152e-06
0.000691214
-2.09397e-06
0.000691348
-2.55374e-06
0.000691427
-3.03082e-06
0.000691482
-3.57001e-06
0.000691471
-4.12147e-06
0.000691445
-4.75631e-06
0.000691336
-5.39195e-06
-6.1405e-06
0.000691228
0.000666686
6.10624e-08
0.000666743
1.83454e-07
0.000666839
3.05811e-07
0.000666973
4.26872e-07
0.000667144
5.46001e-07
0.000667351
6.62608e-07
0.000667594
7.76145e-07
0.000667869
8.86106e-07
0.000668177
9.92029e-07
0.000668516
1.0935e-06
0.000668883
1.19015e-06
0.000669278
1.28164e-06
0.000669698
1.3677e-06
0.000670141
1.44806e-06
0.000670607
1.52251e-06
0.000671092
1.59086e-06
0.000671595
1.65296e-06
0.000672114
1.70864e-06
0.000672648
1.7578e-06
0.000673195
1.8003e-06
0.000673752
1.83606e-06
0.000674319
1.86495e-06
0.000674893
1.8869e-06
0.000675474
1.90176e-06
0.000676058
1.90946e-06
0.000676645
1.90984e-06
0.000677232
1.90282e-06
0.000677819
1.88818e-06
0.000678403
1.86585e-06
0.000678983
1.83553e-06
0.000679557
1.79717e-06
0.000680123
1.75032e-06
0.000680679
1.69503e-06
0.000681225
1.63062e-06
0.000681757
1.55727e-06
0.000682275
1.47401e-06
0.000682776
1.38122e-06
0.000683258
1.27748e-06
0.000683719
1.16359e-06
0.000684158
1.0374e-06
0.000684572
9.00391e-07
0.00068496
7.49335e-07
0.000685318
5.86856e-07
0.000685645
4.08032e-07
0.000685937
2.17526e-07
0.000686192
8.90747e-09
0.000686415
-2.17428e-07
0.000686595
-4.67221e-07
0.000686729
-7.28802e-07
0.000686819
-1.0218e-06
0.000686856
-1.32518e-06
0.000686844
-1.66991e-06
0.000686772
-2.02121e-06
0.000686646
-2.42841e-06
0.00068645
-2.83437e-06
0.000686198
-3.31797e-06
0.000685862
-3.78565e-06
0.000685469
-4.36381e-06
0.000684977
-4.89914e-06
-5.59389e-06
0.00068443
0.000666684
4.40277e-08
0.000666735
1.32247e-07
0.00066682
2.20442e-07
0.000666939
3.07725e-07
0.000667092
3.93656e-07
0.000667277
4.77824e-07
0.000667493
5.59843e-07
0.00066774
6.39355e-07
0.000668016
7.16026e-07
0.00066832
7.89551e-07
0.00066865
8.59653e-07
0.000669006
9.26079e-07
0.000669385
9.88605e-07
0.000669786
1.04703e-06
0.000670207
1.10117e-06
0.000670647
1.15087e-06
0.000671104
1.19598e-06
0.000671576
1.23639e-06
0.000672062
1.27196e-06
0.00067256
1.3026e-06
0.000673068
1.32821e-06
0.000673584
1.34868e-06
0.000674107
1.36393e-06
0.000674635
1.37383e-06
0.000675166
1.37833e-06
0.000675699
1.37726e-06
0.000676231
1.37057e-06
0.000676761
1.35805e-06
0.000677287
1.33966e-06
0.000677808
1.31511e-06
0.00067832
1.28441e-06
0.000678823
1.24712e-06
0.000679315
1.20335e-06
0.000679793
1.15245e-06
0.000680256
1.09468e-06
0.000680701
1.02908e-06
0.000681126
9.56197e-07
0.000681529
8.74557e-07
0.000681907
7.85183e-07
0.000682259
6.85847e-07
0.000682581
5.78359e-07
0.000682871
4.59302e-07
0.000683126
3.31824e-07
0.000683343
1.90702e-07
0.000683519
4.16705e-08
0.000683655
-1.2682e-07
0.000683741
-3.04063e-07
0.000683777
-5.02901e-07
0.000683757
-7.08997e-07
0.000683679
-9.43662e-07
0.000683537
-1.18301e-06
0.000683328
-1.46093e-06
0.000683045
-1.73818e-06
0.000682686
-2.06901e-06
0.00068224
-2.38914e-06
0.000681708
-2.78576e-06
0.000681076
-3.15361e-06
0.000680345
-3.6332e-06
0.000679498
-4.05181e-06
-4.63609e-06
0.00067854
0.000666682
2.84543e-08
0.000666729
8.54461e-08
0.000666807
1.42411e-07
0.000666916
1.98784e-07
0.000667055
2.54287e-07
0.000667225
3.08661e-07
0.000667423
3.6166e-07
0.000667649
4.13054e-07
0.000667902
4.62629e-07
0.000668182
5.10184e-07
0.000668486
5.55538e-07
0.000668813
5.98521e-07
0.000669163
6.38982e-07
0.000669533
6.76778e-07
0.000669923
7.11788e-07
0.00067033
7.43894e-07
0.000670753
7.72999e-07
0.00067119
7.99002e-07
0.00067164
8.21826e-07
0.000672101
8.41379e-07
0.000672572
8.57598e-07
0.00067305
8.70392e-07
0.000673535
8.79711e-07
0.000674023
8.85448e-07
0.000674514
8.87567e-07
0.000675005
8.85935e-07
0.000675495
8.8053e-07
0.000675982
8.71174e-07
0.000676464
8.57868e-07
0.000676938
8.40365e-07
0.000677404
8.18711e-07
0.000677859
7.92547e-07
0.0006783
7.61999e-07
0.000678726
7.26541e-07
0.000679134
6.86437e-07
0.000679522
6.40905e-07
0.000679888
5.90441e-07
0.000680229
5.33868e-07
0.000680542
4.7208e-07
0.000680825
4.03278e-07
0.000681074
3.29023e-07
0.000681287
2.46548e-07
0.00068146
1.58539e-07
0.00068159
6.08394e-08
0.000681674
-4.2919e-08
0.000681708
-1.60509e-07
0.000681687
-2.83013e-07
0.000681606
-4.21685e-07
0.000681461
-5.64418e-07
0.000681246
-7.28732e-07
0.000680958
-8.94635e-07
0.000680587
-1.09009e-06
0.000680131
-1.28231e-06
0.000679578
-1.51621e-06
0.000678927
-1.73804e-06
0.000678162
-2.02027e-06
0.000677283
-2.27473e-06
0.000676268
-2.6187e-06
0.000675124
-2.90712e-06
-3.33019e-06
0.000673818
0.000666681
1.38057e-08
0.000666725
4.1434e-08
0.000666799
6.90266e-08
0.000666901
9.6311e-08
0.000667032
1.23154e-07
0.000667192
1.49431e-07
0.000667378
1.75025e-07
0.000667591
1.99825e-07
0.00066783
2.23726e-07
0.000668094
2.46632e-07
0.000668381
2.68454e-07
0.00066869
2.89107e-07
0.000669021
3.08518e-07
0.000669371
3.26614e-07
0.000669739
3.43334e-07
0.000670125
3.58619e-07
0.000670525
3.72419e-07
0.00067094
3.84681e-07
0.000671366
3.95365e-07
0.000671803
4.04423e-07
0.000672249
4.11822e-07
0.000672702
4.17512e-07
0.00067316
4.21468e-07
0.000673622
4.23632e-07
0.000674085
4.23986e-07
0.000674549
4.22457e-07
0.00067501
4.19036e-07
0.000675468
4.13624e-07
0.00067592
4.06227e-07
0.000676363
3.96708e-07
0.000676797
3.85099e-07
0.000677218
3.71201e-07
0.000677625
3.55091e-07
0.000678015
3.36479e-07
0.000678386
3.1552e-07
0.000678735
2.91782e-07
0.00067906
2.65554e-07
0.000679358
2.3618e-07
0.000679626
2.04177e-07
0.00067986
1.68545e-07
0.000680059
1.30181e-07
0.000680218
8.7555e-08
0.000680334
4.22294e-08
0.000680404
-8.18265e-09
0.000680423
-6.24271e-08
0.000680386
-1.23099e-07
0.000680289
-1.86247e-07
0.000680125
-2.58059e-07
0.000679892
-3.3169e-07
0.000679581
-4.16921e-07
0.000679189
-5.02491e-07
0.000678703
-6.04075e-07
0.000678123
-7.032e-07
0.000677432
-8.25087e-07
0.000676634
-9.39431e-07
0.0006757
-1.087e-06
0.000674644
-1.218e-06
0.000673424
-1.3986e-06
0.000672063
-1.54672e-06
-1.76998e-06
0.000670503
0.000666681
-3.907e-10
0.000666724
-1.22031e-09
0.000666795
-2.09388e-09
0.000666894
-3.00832e-09
0.000667021
-3.95951e-09
0.000667175
-4.94357e-09
0.000667356
-5.95679e-09
0.000667563
-6.99551e-09
0.000667795
-8.05619e-09
0.000668051
-9.13544e-09
0.000668329
-1.02301e-08
0.00066863
-1.13372e-08
0.000668951
-1.24539e-08
0.000669291
-1.35773e-08
0.000669649
-1.47048e-08
0.000670024
-1.58341e-08
0.000670413
-1.6963e-08
0.000670816
-1.80897e-08
0.00067123
-1.92126e-08
0.000671655
-2.03302e-08
0.000672088
-2.14413e-08
0.000672528
-2.2545e-08
0.000672973
-2.36404e-08
0.000673422
-2.47272e-08
0.000673872
-2.58049e-08
0.000674321
-2.68738e-08
0.000674768
-2.79341e-08
0.000675211
-2.89863e-08
0.000675647
-3.00311e-08
0.000676075
-3.10697e-08
0.000676492
-3.21032e-08
0.000676896
-3.31332e-08
0.000677285
-3.41612e-08
0.000677657
-3.51893e-08
0.000678009
-3.62195e-08
0.000678338
-3.72537e-08
0.000678642
-3.82941e-08
0.000678917
-3.93416e-08
0.000679162
-4.03981e-08
0.000679372
-4.1466e-08
0.000679545
-4.25522e-08
0.000679676
-4.36695e-08
0.000679763
-4.48452e-08
0.000679801
-4.61262e-08
0.000679786
-4.75103e-08
0.000679712
-4.88789e-08
0.000679576
-5.02389e-08
0.000679369
-5.1614e-08
0.000679091
-5.30486e-08
0.000678728
-5.45534e-08
0.000678282
-5.61513e-08
0.000677736
-5.78216e-08
0.000677092
-5.95937e-08
0.000676328
-6.14413e-08
0.000675452
-6.34122e-08
0.000674431
-6.54661e-08
0.00067328
-6.7667e-08
0.000671952
-6.99547e-08
0.000670477
-7.24082e-08
-7.49467e-08
0.000668782
0.000666681
-1.45849e-08
0.000666724
-4.38597e-08
0.000666795
-7.31919e-08
0.000666894
-1.02296e-07
0.000667021
-1.31032e-07
0.000667175
-1.59267e-07
0.000667356
-1.86877e-07
0.000667563
-2.13743e-07
0.000667795
-2.39755e-07
0.00066805
-2.64809e-07
0.000668329
-2.88809e-07
0.000668629
-3.11665e-07
0.00066895
-3.33297e-07
0.00066929
-3.53628e-07
0.000669648
-3.72592e-07
0.000670022
-3.90124e-07
0.000670412
-4.0617e-07
0.000670814
-4.20673e-07
0.000671228
-4.33591e-07
0.000671653
-4.44871e-07
0.000672086
-4.5448e-07
0.000672526
-4.62366e-07
0.000672971
-4.68501e-07
0.000673419
-4.72826e-07
0.000673868
-4.75324e-07
0.000674317
-4.7592e-07
0.000674764
-4.74607e-07
0.000675206
-4.71288e-07
0.000675642
-4.65969e-07
0.00067607
-4.58515e-07
0.000676487
-4.4896e-07
0.000676891
-4.3711e-07
0.000677279
-4.23044e-07
0.000677651
-4.06476e-07
0.000678002
-3.87565e-07
0.000678331
-3.65884e-07
0.000678634
-3.41725e-07
0.000678909
-3.14441e-07
0.000679153
-2.84552e-07
0.000679363
-2.51061e-07
0.000679535
-2.14864e-07
0.000679666
-1.74413e-07
0.000679752
-1.31224e-07
0.000679789
-8.28993e-08
0.000679774
-3.20604e-08
0.000679699
2.56315e-08
0.000679563
8.63541e-08
0.000679356
1.55481e-07
0.000679076
2.26234e-07
0.000678713
3.08465e-07
0.000678266
3.90862e-07
0.000677719
4.89149e-07
0.000677075
5.84763e-07
0.00067631
7.03003e-07
0.000675434
8.13433e-07
0.000674411
9.56949e-07
0.00067326
1.08357e-06
0.00067193
1.25967e-06
0.000670455
1.40287e-06
1.62112e-06
0.000668759
0.000666681
-2.9221e-08
0.000666725
-8.78342e-08
0.000666799
-1.46513e-07
0.000666901
-2.04678e-07
0.000667032
-2.62045e-07
0.000667191
-3.18347e-07
0.000667378
-3.73332e-07
0.000667591
-4.26761e-07
0.000667829
-4.78414e-07
0.000668092
-5.28084e-07
0.000668379
-5.75582e-07
0.000668688
-6.20733e-07
0.000669018
-6.63381e-07
0.000669368
-7.03377e-07
0.000669736
-7.40594e-07
0.000670121
-7.74911e-07
0.000670521
-8.06226e-07
0.000670935
-8.34434e-07
0.000671361
-8.59454e-07
0.000671797
-8.81193e-07
0.000672242
-8.99586e-07
0.000672694
-9.14538e-07
0.000673152
-9.25998e-07
0.000673613
-9.3386e-07
0.000674076
-9.38086e-07
0.000674538
-9.38543e-07
0.000674999
-9.35209e-07
0.000675455
-9.27908e-07
0.000675906
-9.16643e-07
0.000676349
-9.01168e-07
0.000676781
-8.81531e-07
0.000677202
-8.57377e-07
0.000677607
-8.28835e-07
0.000677996
-7.95383e-07
0.000678366
-7.57288e-07
0.000678714
-7.13771e-07
0.000679037
-6.65337e-07
0.000679334
-6.10807e-07
0.0006796
-5.51084e-07
0.000679834
-4.84367e-07
0.000680031
-4.12226e-07
0.000680188
-3.31886e-07
0.000680303
-2.46029e-07
0.000680371
-1.50368e-07
0.000680388
-4.95725e-08
0.000680349
6.46779e-08
0.000680251
1.84857e-07
0.000680085
3.2095e-07
0.000679851
4.60901e-07
0.000679537
6.22309e-07
0.000679142
7.85113e-07
0.000678654
9.77373e-07
0.000678073
1.16616e-06
0.000677379
1.39654e-06
0.000676578
1.61455e-06
0.000675642
1.89289e-06
0.000674583
2.14305e-06
0.00067336
2.48273e-06
0.000671996
2.7663e-06
3.18467e-06
0.000670433
0.000666682
-4.47754e-08
0.000666729
-1.34575e-07
0.000666807
-2.2444e-07
0.000666916
-3.13471e-07
0.000667055
-4.01218e-07
0.000667224
-4.87265e-07
0.000667422
-5.71219e-07
0.000667648
-6.52713e-07
0.000667901
-7.31409e-07
0.00066818
-8.06993e-07
0.000668483
-8.79183e-07
0.00066881
-9.47719e-07
0.000669159
-1.01237e-06
0.000669529
-1.07294e-06
0.000669917
-1.12923e-06
0.000670323
-1.18108e-06
0.000670746
-1.22834e-06
0.000671182
-1.27089e-06
0.000671631
-1.3086e-06
0.000672091
-1.34137e-06
0.000672561
-1.36909e-06
0.000673038
-1.39165e-06
0.000673521
-1.40899e-06
0.000674008
-1.42095e-06
0.000674497
-1.4275e-06
0.000674987
-1.42845e-06
0.000675476
-1.42378e-06
0.000675961
-1.41324e-06
0.000676441
-1.39684e-06
0.000676915
-1.37425e-06
0.000677379
-1.34551e-06
0.000677831
-1.31017e-06
0.000678271
-1.26834e-06
0.000678695
-1.21938e-06
0.000679101
-1.16356e-06
0.000679487
-1.09991e-06
0.000679851
-1.02899e-06
0.000680189
-9.49325e-07
0.0006805
-8.6195e-07
0.000680781
-7.64634e-07
0.000681028
-6.59196e-07
0.000681238
-5.42207e-07
0.000681409
-4.16816e-07
0.000681536
-2.77745e-07
0.000681617
-1.30474e-07
0.000681648
3.35219e-08
0.000681624
2.08867e-07
0.00068154
4.05243e-07
0.000681392
6.08651e-07
0.000681174
8.40542e-07
0.000680882
1.07693e-06
0.000680508
1.35181e-06
0.000680048
1.62577e-06
0.000679491
1.95328e-06
0.000678836
2.26973e-06
0.000678066
2.66272e-06
0.000677183
3.0264e-06
0.000676163
3.50205e-06
0.000675014
3.91593e-06
4.49598e-06
0.000673703
0.000666684
-6.17838e-08
0.000666735
-1.857e-07
0.00066682
-3.09668e-07
0.000666939
-4.32413e-07
0.000667091
-5.53293e-07
0.000667275
-6.71711e-07
0.000667491
-7.87112e-07
0.000667738
-8.98982e-07
0.000668013
-1.00685e-06
0.000668316
-1.11031e-06
0.000668646
-1.20896e-06
0.000669001
-1.30249e-06
0.000669379
-1.39059e-06
0.000669779
-1.47301e-06
0.0006702
-1.54953e-06
0.000670638
-1.61995e-06
0.000671094
-1.68411e-06
0.000671565
-1.74186e-06
0.00067205
-1.79307e-06
0.000672546
-1.83762e-06
0.000673052
-1.8754e-06
0.000673567
-1.90631e-06
0.000674088
-1.93025e-06
0.000674614
-1.94709e-06
0.000675144
-1.95676e-06
0.000675674
-1.95908e-06
0.000676204
-1.95399e-06
0.000676732
-1.94125e-06
0.000677256
-1.92083e-06
0.000677774
-1.89238e-06
0.000678285
-1.85589e-06
0.000678786
-1.81091e-06
0.000679275
-1.75747e-06
0.00067975
-1.69492e-06
0.00068021
-1.62342e-06
0.000680652
-1.54202e-06
0.000681074
-1.45111e-06
0.000681474
-1.34926e-06
0.00068185
-1.23728e-06
0.000682198
-1.11303e-06
0.000682517
-9.77988e-07
0.000682804
-8.28936e-07
0.000683055
-6.68497e-07
0.000683269
-4.91734e-07
0.000683442
-3.03253e-07
0.000683571
-9.57333e-08
0.000683654
1.25898e-07
0.000683686
3.73624e-07
0.000683662
6.32734e-07
0.000683579
9.23173e-07
0.000683432
1.22376e-06
0.000683218
1.56568e-06
0.00068293
1.91388e-06
0.000682566
2.31804e-06
0.000682115
2.7205e-06
0.000681577
3.20084e-06
0.000680939
3.66452e-06
0.000680201
4.2392e-06
0.000679347
4.76992e-06
5.46108e-06
0.000678382
0.000666686
-8.08924e-08
0.000666743
-2.43164e-07
0.000666839
-4.05447e-07
0.000666973
-5.66005e-07
0.000667143
-7.23948e-07
0.00066735
-8.78455e-07
0.000667592
-1.02877e-06
0.000667867
-1.1742e-06
0.000668174
-1.31415e-06
0.000668512
-1.44807e-06
0.000668878
-1.57551e-06
0.000669272
-1.69607e-06
0.000669691
-1.80942e-06
0.000670133
-1.91527e-06
0.000670597
-2.01339e-06
0.000671081
-2.1036e-06
0.000671582
-2.18572e-06
0.0006721
-2.25964e-06
0.000672632
-2.32523e-06
0.000673177
-2.38239e-06
0.000673733
-2.43104e-06
0.000674297
-2.47109e-06
0.00067487
-2.50245e-06
0.000675448
-2.52502e-06
0.000676029
-2.53872e-06
0.000676614
-2.5434e-06
0.000677199
-2.53898e-06
0.000677783
-2.52526e-06
0.000678364
-2.50212e-06
0.000678941
-2.46932e-06
0.000679512
-2.42671e-06
0.000680075
-2.37395e-06
0.000680628
-2.3109e-06
0.00068117
-2.23709e-06
0.000681699
-2.15237e-06
0.000682213
-2.0561e-06
0.000682711
-1.94821e-06
0.000683189
-1.82776e-06
0.000683647
-1.69483e-06
0.000684082
-1.54807e-06
0.000684492
-1.38784e-06
0.000684875
-1.21217e-06
0.000685228
-1.02195e-06
0.000685551
-8.1422e-07
0.000685838
-5.90905e-07
0.00068609
-3.47634e-07
0.000686305
-8.8684e-08
0.00068648
1.9814e-07
0.000686609
5.04028e-07
0.000686693
8.38962e-07
0.000686724
1.19265e-06
0.000686707
1.58342e-06
0.000686628
1.99296e-06
0.000686496
2.45003e-06
0.000686292
2.92382e-06
0.000686033
3.46017e-06
0.00068569
4.00782e-06
0.000685289
4.63974e-06
0.000684788
5.27091e-06
6.01661e-06
0.000684233
0.000666689
-1.02937e-07
0.000666755
-3.09502e-07
0.000666866
-5.15981e-07
0.00066702
-7.20034e-07
0.000667216