/*--------------------------------*- C++ -*----------------------------------*\
| =========                 |                                                 |
| \\      /  F ield         | OpenFOAM: The Open Source CFD Toolbox           |
|  \\    /   O peration     | Version:  2312                                  |
|   \\  /    A nd           | Website:  www.openfoam.com                      |
|    \\/     M anipulation  |                                                 |
\*---------------------------------------------------------------------------*/
FoamFile
{
    version     2.0;
    format      ascii;
    arch        "LSB;label=32;scalar=64";
    class       volVectorField;
    location    "93000";
    object      U;
}
// * * * * * * * * * * * * * * * * * * * * * * * * * * * * * * * * * * * * * //

dimensions      [0 1 -1 0 0 0 0];

internalField   nonuniform List<vector> 
10800
(
(0.000992484 4.94175e-06 0)
(0.000990039 1.24573e-05 0)
(0.000986873 1.74783e-05 0)
(0.000980502 2.06617e-05 0)
(0.00097109 2.27445e-05 0)
(0.000959802 2.42377e-05 0)
(0.000947703 2.53763e-05 0)
(0.000935329 2.62352e-05 0)
(0.000922822 2.68385e-05 0)
(0.000910161 2.72114e-05 0)
(0.0008973 2.73916e-05 0)
(0.000884236 2.74219e-05 0)
(0.000871005 2.73404e-05 0)
(0.000857663 2.71751e-05 0)
(0.00084426 2.69442e-05 0)
(0.000830836 2.66594e-05 0)
(0.000817416 2.63286e-05 0)
(0.000804018 2.59585e-05 0)
(0.000790658 2.55545e-05 0)
(0.00077735 2.51215e-05 0)
(0.000764111 2.46633e-05 0)
(0.000750954 2.41829e-05 0)
(0.000737895 2.36825e-05 0)
(0.000724946 2.31639e-05 0)
(0.000712123 2.2628e-05 0)
(0.000699436 2.20764e-05 0)
(0.000686899 2.15091e-05 0)
(0.000674524 2.09277e-05 0)
(0.000662324 2.03314e-05 0)
(0.00065031 1.97222e-05 0)
(0.000638497 1.90986e-05 0)
(0.000626895 1.84632e-05 0)
(0.000615519 1.78133e-05 0)
(0.000604378 1.71531e-05 0)
(0.000593489 1.64782e-05 0)
(0.000582859 1.5795e-05 0)
(0.000572508 1.5096e-05 0)
(0.000562439 1.43922e-05 0)
(0.000552677 1.36708e-05 0)
(0.000543215 1.29496e-05 0)
(0.000534093 1.22069e-05 0)
(0.000525285 1.14728e-05 0)
(0.000516857 1.07097e-05 0)
(0.000508739 9.96839e-06 0)
(0.000501067 9.18422e-06 0)
(0.000493662 8.44283e-06 0)
(0.000486832 7.63359e-06 0)
(0.000480119 6.89904e-06 0)
(0.00047429 6.05587e-06 0)
(0.000468127 5.3267e-06 0)
(0.00046368 4.44101e-06 0)
(0.000457559 3.6701e-06 0)
(0.000455552 2.78031e-06 0)
(0.000447834 1.71884e-06 0)
(0.000451401 1.15165e-06 0)
(0.000437005 -1.26499e-06 0)
(0.00045545 1.14046e-07 0)
(0.000419455 -7.72703e-06 0)
(0.000477852 2.03501e-06 0)
(0.000383076 -2.44766e-05 0)
(0.00100003 5.80174e-06 0)
(0.00100172 1.49912e-05 0)
(0.00100423 2.15207e-05 0)
(0.00100706 2.60824e-05 0)
(0.00100979 2.94391e-05 0)
(0.00101219 3.2119e-05 0)
(0.00101422 3.43698e-05 0)
(0.00101589 3.62779e-05 0)
(0.00101727 3.78759e-05 0)
(0.00101838 3.91945e-05 0)
(0.00101923 4.0275e-05 0)
(0.00101982 4.11632e-05 0)
(0.00102015 4.18996e-05 0)
(0.00102021 4.25145e-05 0)
(0.00102002 4.30277e-05 0)
(0.00101959 4.34519e-05 0)
(0.00101894 4.37958e-05 0)
(0.00101808 4.40661e-05 0)
(0.00101702 4.42685e-05 0)
(0.00101576 4.44075e-05 0)
(0.00101432 4.44869e-05 0)
(0.00101271 4.45093e-05 0)
(0.00101095 4.44769e-05 0)
(0.00100902 4.43905e-05 0)
(0.00100696 4.42514e-05 0)
(0.00100476 4.40594e-05 0)
(0.00100245 4.38158e-05 0)
(0.000999999 4.35191e-05 0)
(0.000997475 4.31711e-05 0)
(0.000994815 4.27689e-05 0)
(0.000992121 4.2316e-05 0)
(0.000989282 4.18066e-05 0)
(0.000986463 4.12478e-05 0)
(0.000983474 4.06289e-05 0)
(0.000980583 3.99637e-05 0)
(0.000977465 3.92326e-05 0)
(0.000974567 3.84615e-05 0)
(0.000971331 3.76144e-05 0)
(0.000968508 3.674e-05 0)
(0.000965144 3.57721e-05 0)
(0.000962509 3.48001e-05 0)
(0.000958971 3.37032e-05 0)
(0.000956688 3.26448e-05 0)
(0.000952865 3.14048e-05 0)
(0.000951188 3.02797e-05 0)
(0.000946856 2.88706e-05 0)
(0.00094619 2.77134e-05 0)
(0.000940925 2.60875e-05 0)
(0.000941937 2.49567e-05 0)
(0.000934966 2.30271e-05 0)
(0.000938771 2.20224e-05 0)
(0.000928711 1.96345e-05 0)
(0.000937192 1.89216e-05 0)
(0.000921594 1.58121e-05 0)
(0.00093794 1.56511e-05 0)
(0.000912506 1.14101e-05 0)
(0.000942136 1.21342e-05 0)
(0.000899409 6.29309e-06 0)
(0.000951678 7.9229e-06 0)
(0.000879161 8.77813e-07 0)
(0.000999989 1.96217e-06 0)
(0.00100078 5.7628e-06 0)
(0.00100224 9.28692e-06 0)
(0.00100423 1.24507e-05 0)
(0.00100654 1.52513e-05 0)
(0.00100897 1.7734e-05 0)
(0.0010114 1.99535e-05 0)
(0.00101376 2.19527e-05 0)
(0.00101608 2.3759e-05 0)
(0.00101834 2.5389e-05 0)
(0.00102056 2.68559e-05 0)
(0.00102273 2.81731e-05 0)
(0.00102484 2.9355e-05 0)
(0.0010269 3.04154e-05 0)
(0.00102888 3.13668e-05 0)
(0.0010308 3.2219e-05 0)
(0.00103266 3.298e-05 0)
(0.00103444 3.36556e-05 0)
(0.00103617 3.42515e-05 0)
(0.00103784 3.47707e-05 0)
(0.00103945 3.5218e-05 0)
(0.001041 3.55945e-05 0)
(0.0010425 3.59044e-05 0)
(0.00104393 3.61469e-05 0)
(0.00104533 3.63262e-05 0)
(0.00104666 3.64392e-05 0)
(0.00104796 3.64914e-05 0)
(0.00104917 3.64764e-05 0)
(0.00105039 3.64025e-05 0)
(0.0010515 3.62589e-05 0)
(0.00105263 3.60588e-05 0)
(0.00105363 3.57844e-05 0)
(0.0010547 3.54569e-05 0)
(0.00105559 3.50484e-05 0)
(0.00105661 3.45924e-05 0)
(0.00105739 3.40453e-05 0)
(0.00105839 3.34602e-05 0)
(0.00105903 3.27691e-05 0)
(0.00106006 3.20555e-05 0)
(0.00106054 3.1214e-05 0)
(0.00106164 3.03745e-05 0)
(0.00106191 2.93746e-05 0)
(0.00106319 2.84145e-05 0)
(0.00106317 2.72461e-05 0)
(0.00106475 2.61745e-05 0)
(0.00106432 2.48249e-05 0)
(0.00106639 2.36561e-05 0)
(0.00106534 2.21094e-05 0)
(0.00106819 2.08643e-05 0)
(0.00106619 1.91026e-05 0)
(0.00107026 1.78102e-05 0)
(0.0010668 1.58179e-05 0)
(0.00107275 1.45171e-05 0)
(0.00106702 1.22944e-05 0)
(0.00107584 1.10346e-05 0)
(0.00106662 8.63433e-06 0)
(0.0010798 7.47624e-06 0)
(0.00106522 5.09935e-06 0)
(0.00108506 4.07201e-06 0)
(0.00106235 2.22386e-06 0)
(0.00100001 1.74111e-06 0)
(0.00100047 5.15772e-06 0)
(0.00100128 8.41743e-06 0)
(0.00100239 1.14439e-05 0)
(0.00100374 1.41964e-05 0)
(0.00100526 1.66718e-05 0)
(0.00100689 1.88919e-05 0)
(0.00100859 2.08865e-05 0)
(0.00101033 2.26826e-05 0)
(0.00101212 2.43011e-05 0)
(0.00101394 2.57575e-05 0)
(0.00101579 2.70646e-05 0)
(0.00101765 2.82349e-05 0)
(0.00101952 2.92803e-05 0)
(0.0010214 3.02124e-05 0)
(0.00102329 3.10415e-05 0)
(0.00102517 3.17766e-05 0)
(0.00102704 3.24246e-05 0)
(0.00102892 3.2992e-05 0)
(0.00103079 3.3483e-05 0)
(0.00103266 3.39024e-05 0)
(0.00103452 3.42523e-05 0)
(0.00103639 3.45368e-05 0)
(0.00103824 3.47563e-05 0)
(0.0010401 3.49142e-05 0)
(0.00104194 3.50093e-05 0)
(0.00104379 3.50451e-05 0)
(0.00104561 3.50185e-05 0)
(0.00104745 3.49337e-05 0)
(0.00104926 3.47855e-05 0)
(0.0010511 3.45792e-05 0)
(0.00105289 3.43076e-05 0)
(0.00105472 3.39777e-05 0)
(0.00105649 3.35795e-05 0)
(0.00105831 3.31226e-05 0)
(0.00106005 3.25936e-05 0)
(0.00106187 3.20056e-05 0)
(0.00106358 3.13415e-05 0)
(0.0010654 3.06176e-05 0)
(0.00106706 2.98141e-05 0)
(0.00106891 2.89493e-05 0)
(0.00107052 2.80025e-05 0)
(0.0010724 2.69912e-05 0)
(0.00107393 2.5899e-05 0)
(0.00107587 2.47348e-05 0)
(0.00107731 2.3498e-05 0)
(0.00107935 2.21731e-05 0)
(0.00108065 2.07978e-05 0)
(0.00108285 1.93017e-05 0)
(0.00108398 1.78041e-05 0)
(0.0010864 1.61231e-05 0)
(0.0010873 1.45378e-05 0)
(0.00109004 1.26539e-05 0)
(0.0010906 1.10498e-05 0)
(0.00109381 8.93979e-06 0)
(0.00109388 7.44317e-06 0)
(0.00109775 5.07186e-06 0)
(0.00109713 3.88951e-06 0)
(0.00110193 1.16948e-06 0)
(0.00110027 5.89764e-07 0)
(0.001 1.15248e-06 0)
(0.00100023 3.42994e-06 0)
(0.00100067 5.64181e-06 0)
(0.00100134 7.7564e-06 0)
(0.0010022 9.75235e-06 0)
(0.00100324 1.16194e-05 0)
(0.00100441 1.33562e-05 0)
(0.00100569 1.49667e-05 0)
(0.00100705 1.64572e-05 0)
(0.00100848 1.78336e-05 0)
(0.00100997 1.91015e-05 0)
(0.0010115 2.02657e-05 0)
(0.00101306 2.13309e-05 0)
(0.00101466 2.23021e-05 0)
(0.00101628 2.31842e-05 0)
(0.00101792 2.3982e-05 0)
(0.00101958 2.47001e-05 0)
(0.00102124 2.53423e-05 0)
(0.00102293 2.5912e-05 0)
(0.00102461 2.6412e-05 0)
(0.00102631 2.68447e-05 0)
(0.00102802 2.7212e-05 0)
(0.00102973 2.75157e-05 0)
(0.00103145 2.77569e-05 0)
(0.00103317 2.79365e-05 0)
(0.00103489 2.80555e-05 0)
(0.00103663 2.81137e-05 0)
(0.00103836 2.8112e-05 0)
(0.0010401 2.80491e-05 0)
(0.00104184 2.79266e-05 0)
(0.00104358 2.77413e-05 0)
(0.00104532 2.74961e-05 0)
(0.00104707 2.71856e-05 0)
(0.00104881 2.68151e-05 0)
(0.00105056 2.6375e-05 0)
(0.00105231 2.58758e-05 0)
(0.00105406 2.53008e-05 0)
(0.0010558 2.46693e-05 0)
(0.00105754 2.39529e-05 0)
(0.00105928 2.31857e-05 0)
(0.00106102 2.232e-05 0)
(0.00106276 2.14148e-05 0)
(0.0010645 2.03903e-05 0)
(0.00106623 1.93469e-05 0)
(0.00106796 1.8152e-05 0)
(0.0010697 1.69741e-05 0)
(0.00107141 1.55941e-05 0)
(0.00107317 1.42918e-05 0)
(0.00107487 1.27073e-05 0)
(0.00107665 1.13003e-05 0)
(0.00107833 9.48363e-06 0)
(0.00108018 8.00561e-06 0)
(0.00108185 5.91396e-06 0)
(0.00108383 4.41856e-06 0)
(0.00108549 1.98493e-06 0)
(0.0010877 5.62471e-07 0)
(0.00108934 -2.30491e-06 0)
(0.00109186 -3.50034e-06 0)
(0.00109336 -6.94016e-06 0)
(0.00109619 -7.68879e-06 0)
(0.001 9.26319e-07 0)
(0.00100017 2.77011e-06 0)
(0.00100051 4.58662e-06 0)
(0.001001 6.35696e-06 0)
(0.00100165 8.06368e-06 0)
(0.00100242 9.69293e-06 0)
(0.00100332 1.12354e-05 0)
(0.0010043 1.26864e-05 0)
(0.00100537 1.40441e-05 0)
(0.00100651 1.53093e-05 0)
(0.00100771 1.64832e-05 0)
(0.00100896 1.75679e-05 0)
(0.00101025 1.85656e-05 0)
(0.00101159 1.9479e-05 0)
(0.00101296 2.03107e-05 0)
(0.00101435 2.10638e-05 0)
(0.00101578 2.17412e-05 0)
(0.00101722 2.23457e-05 0)
(0.00101868 2.28798e-05 0)
(0.00102016 2.33461e-05 0)
(0.00102166 2.37462e-05 0)
(0.00102316 2.40824e-05 0)
(0.00102468 2.43555e-05 0)
(0.00102621 2.45675e-05 0)
(0.00102774 2.47184e-05 0)
(0.00102929 2.48102e-05 0)
(0.00103084 2.48416e-05 0)
(0.00103239 2.48151e-05 0)
(0.00103395 2.4728e-05 0)
(0.00103552 2.45835e-05 0)
(0.00103708 2.43769e-05 0)
(0.00103865 2.41132e-05 0)
(0.00104022 2.37846e-05 0)
(0.0010418 2.33996e-05 0)
(0.00104336 2.29452e-05 0)
(0.00104494 2.24354e-05 0)
(0.0010465 2.18499e-05 0)
(0.00104808 2.12115e-05 0)
(0.00104963 2.04883e-05 0)
(0.0010512 1.97173e-05 0)
(0.00105275 1.8848e-05 0)
(0.00105432 1.79405e-05 0)
(0.00105585 1.69151e-05 0)
(0.00105743 1.58682e-05 0)
(0.00105894 1.4674e-05 0)
(0.00106054 1.34864e-05 0)
(0.00106203 1.21072e-05 0)
(0.00106366 1.07808e-05 0)
(0.00106512 9.19579e-06 0)
(0.00106681 7.73831e-06 0)
(0.00106824 5.92045e-06 0)
(0.00107001 4.35035e-06 0)
(0.00107138 2.26373e-06 0)
(0.00107329 6.12402e-07 0)
(0.00107457 -1.80156e-06 0)
(0.00107669 -3.49489e-06 0)
(0.00107786 -6.33982e-06 0)
(0.00108034 -8.01749e-06 0)
(0.00108127 -1.14411e-05 0)
(0.00108407 -1.29999e-05 0)
(0.001 7.31777e-07 0)
(0.00100013 2.18866e-06 0)
(0.00100037 3.62591e-06 0)
(0.00100074 5.03086e-06 0)
(0.00100121 6.3921e-06 0)
(0.0010018 7.70032e-06 0)
(0.00100249 8.94864e-06 0)
(0.00100326 1.01326e-05 0)
(0.00100411 1.12495e-05 0)
(0.00100503 1.22984e-05 0)
(0.00100602 1.32791e-05 0)
(0.00100705 1.4192e-05 0)
(0.00100814 1.50377e-05 0)
(0.00100927 1.58173e-05 0)
(0.00101044 1.65316e-05 0)
(0.00101164 1.71819e-05 0)
(0.00101287 1.77696e-05 0)
(0.00101413 1.82959e-05 0)
(0.00101542 1.8762e-05 0)
(0.00101672 1.91694e-05 0)
(0.00101804 1.95186e-05 0)
(0.00101938 1.98111e-05 0)
(0.00102073 2.0047e-05 0)
(0.00102209 2.02276e-05 0)
(0.00102346 2.03523e-05 0)
(0.00102485 2.04227e-05 0)
(0.00102623 2.04371e-05 0)
(0.00102763 2.03976e-05 0)
(0.00102902 2.03013e-05 0)
(0.00103042 2.01508e-05 0)
(0.00103182 1.99419e-05 0)
(0.00103322 1.96784e-05 0)
(0.00103462 1.93536e-05 0)
(0.00103602 1.89739e-05 0)
(0.00103741 1.85285e-05 0)
(0.00103881 1.80282e-05 0)
(0.00104019 1.74564e-05 0)
(0.00104157 1.68304e-05 0)
(0.00104294 1.61246e-05 0)
(0.00104431 1.5367e-05 0)
(0.00104566 1.45179e-05 0)
(0.00104702 1.36222e-05 0)
(0.00104834 1.26183e-05 0)
(0.0010497 1.15777e-05 0)
(0.00105099 1.04047e-05 0)
(0.00105234 9.21265e-06 0)
(0.0010536 7.85216e-06 0)
(0.00105495 6.50238e-06 0)
(0.00105617 4.92995e-06 0)
(0.00105755 3.41706e-06 0)
(0.00105873 1.59911e-06 0)
(0.00106018 -7.88009e-08 0)
(0.00106132 -2.18436e-06 0)
(0.00106288 -4.01505e-06 0)
(0.00106396 -6.45785e-06 0)
(0.00106567 -8.41474e-06 0)
(0.00106665 -1.12768e-05 0)
(0.00106858 -1.33268e-05 0)
(0.00106933 -1.67426e-05 0)
(0.00107144 -1.88273e-05 0)
(0.001 5.82703e-07 0)
(0.0010001 1.74396e-06 0)
(0.00100029 2.89317e-06 0)
(0.00100058 4.02247e-06 0)
(0.00100095 5.12437e-06 0)
(0.00100142 6.19219e-06 0)
(0.00100197 7.2203e-06 0)
(0.00100259 8.20426e-06 0)
(0.00100329 9.14076e-06 0)
(0.00100405 1.00275e-05 0)
(0.00100488 1.08629e-05 0)
(0.00100575 1.1646e-05 0)
(0.00100668 1.23763e-05 0)
(0.00100764 1.30536e-05 0)
(0.00100865 1.36775e-05 0)
(0.00100969 1.42484e-05 0)
(0.00101077 1.47663e-05 0)
(0.00101187 1.52315e-05 0)
(0.001013 1.56445e-05 0)
(0.00101415 1.60056e-05 0)
(0.00101531 1.63151e-05 0)
(0.0010165 1.65736e-05 0)
(0.0010177 1.67808e-05 0)
(0.00101891 1.69375e-05 0)
(0.00102013 1.70431e-05 0)
(0.00102136 1.70982e-05 0)
(0.0010226 1.71018e-05 0)
(0.00102384 1.70548e-05 0)
(0.00102508 1.69551e-05 0)
(0.00102633 1.68042e-05 0)
(0.00102757 1.6599e-05 0)
(0.00102881 1.63415e-05 0)
(0.00103005 1.60272e-05 0)
(0.00103128 1.56593e-05 0)
(0.00103251 1.52311e-05 0)
(0.00103373 1.47479e-05 0)
(0.00103494 1.41996e-05 0)
(0.00103614 1.35951e-05 0)
(0.00103732 1.2919e-05 0)
(0.00103851 1.21858e-05 0)
(0.00103966 1.13723e-05 0)
(0.00104081 1.05021e-05 0)
(0.00104193 9.53953e-06 0)
(0.00104306 8.52239e-06 0)
(0.00104414 7.39637e-06 0)
(0.00104525 6.22153e-06 0)
(0.00104629 4.91448e-06 0)
(0.00104738 3.5704e-06 0)
(0.00104836 2.0607e-06 0)
(0.00104944 5.35415e-07 0)
(0.00105036 -1.20461e-06 0)
(0.00105145 -2.9247e-06 0)
(0.00105231 -4.9361e-06 0)
(0.00105344 -6.86969e-06 0)
(0.00105423 -9.20925e-06 0)
(0.00105544 -1.13702e-05 0)
(0.00105612 -1.41059e-05 0)
(0.00105744 -1.64975e-05 0)
(0.00105789 -1.97238e-05 0)
(0.00105923 -2.23359e-05 0)
(0.001 4.65094e-07 0)
(0.00100008 1.39252e-06 0)
(0.00100024 2.31188e-06 0)
(0.00100047 3.21783e-06 0)
(0.00100078 4.10511e-06 0)
(0.00100116 4.96885e-06 0)
(0.00100162 5.80469e-06 0)
(0.00100214 6.60892e-06 0)
(0.00100273 7.37845e-06 0)
(0.00100337 8.11078e-06 0)
(0.00100407 8.80387e-06 0)
(0.00100482 9.45614e-06 0)
(0.00100561 1.00663e-05 0)
(0.00100644 1.06336e-05 0)
(0.00100732 1.11573e-05 0)
(0.00100823 1.16371e-05 0)
(0.00100917 1.20726e-05 0)
(0.00101014 1.24638e-05 0)
(0.00101113 1.28104e-05 0)
(0.00101214 1.31126e-05 0)
(0.00101318 1.33702e-05 0)
(0.00101423 1.35833e-05 0)
(0.0010153 1.37517e-05 0)
(0.00101637 1.38754e-05 0)
(0.00101746 1.3954e-05 0)
(0.00101856 1.39875e-05 0)
(0.00101966 1.39752e-05 0)
(0.00102076 1.3917e-05 0)
(0.00102187 1.38119e-05 0)
(0.00102297 1.36598e-05 0)
(0.00102407 1.3459e-05 0)
(0.00102517 1.32098e-05 0)
(0.00102626 1.29095e-05 0)
(0.00102734 1.25588e-05 0)
(0.00102841 1.21539e-05 0)
(0.00102947 1.16962e-05 0)
(0.00103052 1.11804e-05 0)
(0.00103155 1.06088e-05 0)
(0.00103256 9.974e-06 0)
(0.00103356 9.28029e-06 0)
(0.00103453 8.51664e-06 0)
(0.00103548 7.69067e-06 0)
(0.0010364 6.78614e-06 0)
(0.00103731 5.81578e-06 0)
(0.00103817 4.75548e-06 0)
(0.00103904 3.626e-06 0)
(0.00103983 2.39121e-06 0)
(0.00104064 1.08466e-06 0)
(0.00104137 -3.47932e-07 0)
(0.00104214 -1.85118e-06 0)
(0.00104278 -3.50721e-06 0)
(0.00104351 -5.22838e-06 0)
(0.00104407 -7.14183e-06 0)
(0.00104478 -9.11002e-06 0)
(0.00104522 -1.13294e-05 0)
(0.00104592 -1.35797e-05 0)
(0.00104623 -1.61646e-05 0)
(0.00104693 -1.8731e-05 0)
(0.00104699 -2.17523e-05 0)
(0.0010476 -2.466e-05 0)
(0.001 3.67713e-07 0)
(0.00100007 1.10112e-06 0)
(0.0010002 1.82878e-06 0)
(0.0010004 2.5469e-06 0)
(0.00100066 3.25171e-06 0)
(0.00100098 3.93965e-06 0)
(0.00100137 4.6074e-06 0)
(0.00100182 5.25201e-06 0)
(0.00100232 5.87086e-06 0)
(0.00100287 6.46173e-06 0)
(0.00100347 7.0227e-06 0)
(0.00100412 7.55216e-06 0)
(0.00100481 8.04879e-06 0)
(0.00100554 8.51155e-06 0)
(0.00100631 8.93958e-06 0)
(0.00100711 9.33221e-06 0)
(0.00100794 9.68891e-06 0)
(0.0010088 1.00093e-05 0)
(0.00100968 1.02929e-05 0)
(0.00101058 1.05394e-05 0)
(0.0010115 1.07487e-05 0)
(0.00101244 1.09203e-05 0)
(0.00101339 1.1054e-05 0)
(0.00101436 1.11495e-05 0)
(0.00101533 1.12064e-05 0)
(0.00101631 1.12243e-05 0)
(0.00101729 1.12026e-05 0)
(0.00101827 1.11407e-05 0)
(0.00101926 1.10381e-05 0)
(0.00102024 1.08939e-05 0)
(0.00102121 1.07072e-05 0)
(0.00102218 1.04771e-05 0)
(0.00102314 1.02023e-05 0)
(0.00102408 9.88164e-06 0)
(0.00102501 9.51372e-06 0)
(0.00102593 9.09676e-06 0)
(0.00102683 8.62926e-06 0)
(0.0010277 8.10886e-06 0)
(0.00102855 7.53391e-06 0)
(0.00102938 6.90123e-06 0)
(0.00103018 6.20921e-06 0)
(0.00103095 5.45341e-06 0)
(0.00103168 4.63258e-06 0)
(0.00103239 3.74041e-06 0)
(0.00103304 2.77658e-06 0)
(0.00103367 1.73187e-06 0)
(0.00103424 6.07976e-07 0)
(0.00103479 -6.08844e-07 0)
(0.00103525 -1.91247e-06 0)
(0.00103572 -3.32516e-06 0)
(0.00103608 -4.83497e-06 0)
(0.00103646 -6.47655e-06 0)
(0.00103668 -8.2251e-06 0)
(0.00103697 -1.01344e-05 0)
(0.00103705 -1.2159e-05 0)
(0.00103724 -1.43837e-05 0)
(0.00103713 -1.67284e-05 0)
(0.00103723 -1.93261e-05 0)
(0.00103685 -2.2039e-05 0)
(0.00103675 -2.50722e-05 0)
(0.001 2.84587e-07 0)
(0.00100006 8.52261e-07 0)
(0.00100017 1.41576e-06 0)
(0.00100034 1.97235e-06 0)
(0.00100057 2.51933e-06 0)
(0.00100085 3.05407e-06 0)
(0.00100119 3.57412e-06 0)
(0.00100158 4.07719e-06 0)
(0.00100202 4.56123e-06 0)
(0.0010025 5.02442e-06 0)
(0.00100303 5.46514e-06 0)
(0.00100361 5.882e-06 0)
(0.00100422 6.27378e-06 0)
(0.00100487 6.63945e-06 0)
(0.00100555 6.97814e-06 0)
(0.00100626 7.28907e-06 0)
(0.001007 7.57163e-06 0)
(0.00100777 7.82523e-06 0)
(0.00100856 8.04941e-06 0)
(0.00100937 8.24369e-06 0)
(0.0010102 8.40768e-06 0)
(0.00101105 8.54092e-06 0)
(0.0010119 8.64308e-06 0)
(0.00101277 8.71362e-06 0)
(0.00101364 8.75222e-06 0)
(0.00101452 8.7582e-06 0)
(0.0010154 8.73123e-06 0)
(0.00101628 8.67041e-06 0)
(0.00101716 8.57539e-06 0)
(0.00101804 8.44495e-06 0)
(0.0010189 8.27878e-06 0)
(0.00101976 8.07516e-06 0)
(0.0010206 7.83396e-06 0)
(0.00102143 7.5527e-06 0)
(0.00102224 7.23162e-06 0)
(0.00102303 6.86715e-06 0)
(0.00102379 6.4602e-06 0)
(0.00102453 6.00558e-06 0)
(0.00102523 5.50544e-06 0)
(0.00102591 4.95207e-06 0)
(0.00102655 4.34981e-06 0)
(0.00102715 3.68704e-06 0)
(0.00102771 2.97184e-06 0)
(0.00102823 2.18643e-06 0)
(0.00102869 1.34527e-06 0)
(0.00102911 4.20856e-07 0)
(0.00102946 -5.61611e-07 0)
(0.00102977 -1.64461e-06 0)
(0.00102999 -2.78598e-06 0)
(0.00103018 -4.05408e-06 0)
(0.00103026 -5.37826e-06 0)
(0.0010303 -6.86614e-06 0)
(0.00103021 -8.39987e-06 0)
(0.0010301 -1.01503e-05 0)
(0.00102981 -1.19232e-05 0)
(0.00102953 -1.39913e-05 0)
(0.001029 -1.6036e-05 0)
(0.00102853 -1.84927e-05 0)
(0.00102768 -2.08397e-05 0)
(0.00102691 -2.37695e-05 0)
(0.001 2.11678e-07 0)
(0.00100005 6.33914e-07 0)
(0.00100015 1.05314e-06 0)
(0.00100031 1.46743e-06 0)
(0.00100051 1.87486e-06 0)
(0.00100076 2.27357e-06 0)
(0.00100106 2.66176e-06 0)
(0.00100141 3.03776e-06 0)
(0.0010018 3.40005e-06 0)
(0.00100224 3.74723e-06 0)
(0.00100271 4.07803e-06 0)
(0.00100323 4.39132e-06 0)
(0.00100378 4.68611e-06 0)
(0.00100437 4.9615e-06 0)
(0.00100498 5.21671e-06 0)
(0.00100563 5.45103e-06 0)
(0.0010063 5.66387e-06 0)
(0.001007 5.85465e-06 0)
(0.00100772 6.02292e-06 0)
(0.00100846 6.16815e-06 0)
(0.00100921 6.28998e-06 0)
(0.00100998 6.38789e-06 0)
(0.00101076 6.46159e-06 0)
(0.00101155 6.51048e-06 0)
(0.00101234 6.53431e-06 0)
(0.00101314 6.53234e-06 0)
(0.00101394 6.50437e-06 0)
(0.00101474 6.4494e-06 0)
(0.00101553 6.36734e-06 0)
(0.00101632 6.25681e-06 0)
(0.00101709 6.11787e-06 0)
(0.00101786 5.94858e-06 0)
(0.0010186 5.74935e-06 0)
(0.00101933 5.51736e-06 0)
(0.00102004 5.25363e-06 0)
(0.00102072 4.95401e-06 0)
(0.00102137 4.62062e-06 0)
(0.00102199 4.24726e-06 0)
(0.00102258 3.83793e-06 0)
(0.00102313 3.38323e-06 0)
(0.00102363 2.89035e-06 0)
(0.00102409 2.34486e-06 0)
(0.0010245 1.7593e-06 0)
(0.00102486 1.11127e-06 0)
(0.00102515 4.22151e-07 0)
(0.00102539 -3.43067e-07 0)
(0.00102555 -1.14845e-06 0)
(0.00102565 -2.04954e-06 0)
(0.00102566 -2.98775e-06 0)
(0.00102559 -4.05047e-06 0)
(0.00102542 -5.1404e-06 0)
(0.00102517 -6.39648e-06 0)
(0.00102478 -7.65881e-06 0)
(0.00102432 -9.14969e-06 0)
(0.00102369 -1.06072e-05 0)
(0.00102299 -1.23881e-05 0)
(0.00102207 -1.40639e-05 0)
(0.00102109 -1.62082e-05 0)
(0.0010198 -1.81187e-05 0)
(0.00101844 -2.07182e-05 0)
(0.001 1.45984e-07 0)
(0.00100005 4.37137e-07 0)
(0.00100014 7.26216e-07 0)
(0.00100028 1.01194e-06 0)
(0.00100047 1.29302e-06 0)
(0.0010007 1.5682e-06 0)
(0.00100097 1.83628e-06 0)
(0.00100129 2.09612e-06 0)
(0.00100165 2.34665e-06 0)
(0.00100205 2.58689e-06 0)
(0.00100249 2.81596e-06 0)
(0.00100296 3.03301e-06 0)
(0.00100347 3.23733e-06 0)
(0.00100401 3.42822e-06 0)
(0.00100458 3.6051e-06 0)
(0.00100518 3.7674e-06 0)
(0.0010058 3.91467e-06 0)
(0.00100645 4.04641e-06 0)
(0.00100711 4.16227e-06 0)
(0.0010078 4.26179e-06 0)
(0.0010085 4.3447e-06 0)
(0.00100921 4.41053e-06 0)
(0.00100993 4.45904e-06 0)
(0.00101066 4.48974e-06 0)
(0.0010114 4.50243e-06 0)
(0.00101213 4.49648e-06 0)
(0.00101287 4.47176e-06 0)
(0.0010136 4.42742e-06 0)
(0.00101433 4.36345e-06 0)
(0.00101505 4.27866e-06 0)
(0.00101575 4.17324e-06 0)
(0.00101645 4.04548e-06 0)
(0.00101712 3.89593e-06 0)
(0.00101777 3.72209e-06 0)
(0.0010184 3.52514e-06 0)
(0.00101899 3.30137e-06 0)
(0.00101956 3.05303e-06 0)
(0.00102009 2.77452e-06 0)
(0.00102058 2.46995e-06 0)
(0.00102103 2.13075e-06 0)
(0.00102143 1.7641e-06 0)
(0.00102178 1.35678e-06 0)
(0.00102207 9.21032e-07 0)
(0.00102229 4.36271e-07 0)
(0.00102246 -7.69119e-08 0)
(0.00102255 -6.50843e-07 0)
(0.00102255 -1.25145e-06 0)
(0.00102248 -1.93046e-06 0)
(0.00102231 -2.63112e-06 0)
(0.00102204 -3.4354e-06 0)
(0.00102166 -4.24979e-06 0)
(0.00102118 -5.20529e-06 0)
(0.00102055 -6.14862e-06 0)
(0.0010198 -7.29008e-06 0)
(0.00101889 -8.37855e-06 0)
(0.00101784 -9.75293e-06 0)
(0.00101659 -1.10016e-05 0)
(0.00101519 -1.26724e-05 0)
(0.00101351 -1.40888e-05 0)
(0.00101168 -1.61379e-05 0)
(0.001 8.51126e-08 0)
(0.00100005 2.54785e-07 0)
(0.00100013 4.23187e-07 0)
(0.00100026 5.89587e-07 0)
(0.00100044 7.53251e-07 0)
(0.00100066 9.13458e-07 0)
(0.00100091 1.06951e-06 0)
(0.00100121 1.22076e-06 0)
(0.00100155 1.36657e-06 0)
(0.00100193 1.50637e-06 0)
(0.00100234 1.63964e-06 0)
(0.00100279 1.76587e-06 0)
(0.00100327 1.88463e-06 0)
(0.00100378 1.99548e-06 0)
(0.00100432 2.09808e-06 0)
(0.00100489 2.19206e-06 0)
(0.00100548 2.27714e-06 0)
(0.00100609 2.353e-06 0)
(0.00100672 2.4194e-06 0)
(0.00100737 2.47607e-06 0)
(0.00100803 2.52281e-06 0)
(0.00100871 2.55932e-06 0)
(0.00100939 2.58545e-06 0)
(0.00101008 2.60085e-06 0)
(0.00101077 2.60543e-06 0)
(0.00101147 2.59874e-06 0)
(0.00101217 2.58072e-06 0)
(0.00101285 2.5508e-06 0)
(0.00101354 2.509e-06 0)
(0.00101421 2.45452e-06 0)
(0.00101487 2.38752e-06 0)
(0.00101551 2.30684e-06 0)
(0.00101613 2.21292e-06 0)
(0.00101673 2.10405e-06 0)
(0.0010173 1.98114e-06 0)
(0.00101784 1.8416e-06 0)
(0.00101835 1.68714e-06 0)
(0.00101882 1.51386e-06 0)
(0.00101924 1.32478e-06 0)
(0.00101962 1.11393e-06 0)
(0.00101994 8.86525e-07 0)
(0.00102021 6.33339e-07 0)
(0.00102042 3.63204e-07 0)
(0.00102056 6.17226e-08 0)
(0.00102063 -2.56325e-07 0)
(0.00102061 -6.13742e-07 0)
(0.00102051 -9.86256e-07 0)
(0.00102032 -1.40998e-06 0)
(0.00102002 -1.8447e-06 0)
(0.00101962 -2.34785e-06 0)
(0.00101909 -2.85326e-06 0)
(0.00101843 -3.45296e-06 0)
(0.00101763 -4.03844e-06 0)
(0.00101669 -4.75779e-06 0)
(0.00101557 -5.43303e-06 0)
(0.00101427 -6.3035e-06 0)
(0.00101277 -7.07695e-06 0)
(0.00101108 -8.14165e-06 0)
(0.00100912 -9.01604e-06 0)
(0.00100694 -1.03316e-05 0)
(0.001 2.70245e-08 0)
(0.00100004 8.07631e-08 0)
(0.00100013 1.33967e-07 0)
(0.00100026 1.86408e-07 0)
(0.00100042 2.37855e-07 0)
(0.00100064 2.88083e-07 0)
(0.00100089 3.36872e-07 0)
(0.00100118 3.84016e-07 0)
(0.00100151 4.29321e-07 0)
(0.00100187 4.72603e-07 0)
(0.00100227 5.13695e-07 0)
(0.00100271 5.52438e-07 0)
(0.00100317 5.88692e-07 0)
(0.00100367 6.22322e-07 0)
(0.00100419 6.53213e-07 0)
(0.00100474 6.81248e-07 0)
(0.00100532 7.06335e-07 0)
(0.00100591 7.2837e-07 0)
(0.00100653 7.47278e-07 0)
(0.00100716 7.62961e-07 0)
(0.0010078 7.75356e-07 0)
(0.00100846 7.84363e-07 0)
(0.00100912 7.89931e-07 0)
(0.00100979 7.91941e-07 0)
(0.00101046 7.90356e-07 0)
(0.00101114 7.85024e-07 0)
(0.00101181 7.75927e-07 0)
(0.00101248 7.62858e-07 0)
(0.00101314 7.4583e-07 0)
(0.00101379 7.24554e-07 0)
(0.00101442 6.99096e-07 0)
(0.00101504 6.69038e-07 0)
(0.00101564 6.34544e-07 0)
(0.00101621 5.94998e-07 0)
(0.00101675 5.50732e-07 0)
(0.00101726 5.00824e-07 0)
(0.00101774 4.4589e-07 0)
(0.00101817 3.84535e-07 0)
(0.00101856 3.17852e-07 0)
(0.0010189 2.43708e-07 0)
(0.00101919 1.6398e-07 0)
(0.00101942 7.53743e-08 0)
(0.00101959 -1.89439e-08 0)
(0.00101968 -1.24123e-07 0)
(0.0010197 -2.34898e-07 0)
(0.00101963 -3.59463e-07 0)
(0.00101948 -4.89035e-07 0)
(0.00101922 -6.36483e-07 0)
(0.00101886 -7.87393e-07 0)
(0.00101838 -9.62324e-07 0)
(0.00101777 -1.13755e-06 0)
(0.00101703 -1.34603e-06 0)
(0.00101614 -1.54881e-06 0)
(0.00101508 -1.799e-06 0)
(0.00101385 -2.03265e-06 0)
(0.00101243 -2.3357e-06 0)
(0.00101081 -2.60301e-06 0)
(0.00100895 -2.97426e-06 -3.76465e-38)
(0.00100685 -3.27586e-06 0)
(0.00100449 -3.73556e-06 0)
(0.001 -3.01487e-08 0)
(0.00100004 -9.0519e-08 0)
(0.00100013 -1.50707e-07 0)
(0.00100026 -2.10454e-07 0)
(0.00100042 -2.69501e-07 0)
(0.00100064 -3.2759e-07 0)
(0.00100089 -3.84475e-07 0)
(0.00100118 -4.39919e-07 0)
(0.00100151 -4.937e-07 0)
(0.00100187 -5.45608e-07 0)
(0.00100227 -5.95449e-07 0)
(0.00100271 -6.43041e-07 0)
(0.00100317 -6.88221e-07 0)
(0.00100367 -7.30831e-07 0)
(0.00100419 -7.70735e-07 0)
(0.00100474 -8.07799e-07 0)
(0.00100532 -8.41911e-07 0)
(0.00100591 -8.72956e-07 0)
(0.00100652 -9.00842e-07 0)
(0.00100715 -9.25461e-07 0)
(0.0010078 -9.46743e-07 0)
(0.00100845 -9.64576e-07 0)
(0.00100912 -9.78905e-07 0)
(0.00100979 -9.89607e-07 0)
(0.00101046 -9.96644e-07 0)
(0.00101113 -9.99863e-07 0)
(0.00101181 -9.99248e-07 0)
(0.00101247 -9.94598e-07 0)
(0.00101313 -9.85932e-07 0)
(0.00101378 -9.7297e-07 0)
(0.00101442 -9.55786e-07 0)
(0.00101503 -9.33978e-07 0)
(0.00101563 -9.07721e-07 0)
(0.0010162 -8.76417e-07 0)
(0.00101674 -8.40415e-07 0)
(0.00101725 -7.98813e-07 0)
(0.00101773 -7.5225e-07 0)
(0.00101816 -6.99353e-07 0)
(0.00101855 -6.41241e-07 0)
(0.00101889 -5.75803e-07 0)
(0.00101918 -5.04952e-07 0)
(0.00101941 -4.25419e-07 0)
(0.00101957 -3.40423e-07 0)
(0.00101966 -2.44854e-07 0)
(0.00101968 -1.44082e-07 0)
(0.00101961 -2.99514e-08 0)
(0.00101946 8.8749e-08 0)
(0.0010192 2.24954e-07 0)
(0.00101884 3.6413e-07 0)
(0.00101836 5.26877e-07 0)
(0.00101775 6.89277e-07 0)
(0.001017 8.84393e-07 0)
(0.00101611 1.07302e-06 0)
(0.00101506 1.30844e-06 0)
(0.00101383 1.52635e-06 0)
(0.00101241 1.81301e-06 0)
(0.00101078 2.06274e-06 0)
(0.00100892 2.41571e-06 3.76465e-38)
(0.00100682 2.69769e-06 0)
(0.00100445 3.13704e-06 0)
(0.001 -8.82126e-08 0)
(0.00100005 -2.64465e-07 0)
(0.00100013 -4.39795e-07 0)
(0.00100026 -6.13439e-07 0)
(0.00100044 -7.84636e-07 0)
(0.00100065 -9.52633e-07 0)
(0.00100091 -1.11671e-06 0)
(0.00100121 -1.27617e-06 0)
(0.00100155 -1.43038e-06 0)
(0.00100193 -1.57872e-06 0)
(0.00100234 -1.72064e-06 0)
(0.00100279 -1.85563e-06 0)
(0.00100327 -1.98322e-06 0)
(0.00100378 -2.10296e-06 0)
(0.00100432 -2.21447e-06 0)
(0.00100488 -2.31738e-06 0)
(0.00100547 -2.41138e-06 0)
(0.00100608 -2.49615e-06 0)
(0.00100671 -2.57143e-06 0)
(0.00100736 -2.63693e-06 0)
(0.00100802 -2.69246e-06 0)
(0.0010087 -2.73769e-06 0)
(0.00100938 -2.77248e-06 0)
(0.00101007 -2.79648e-06 0)
(0.00101076 -2.80958e-06 0)
(0.00101146 -2.81134e-06 0)
(0.00101215 -2.80171e-06 0)
(0.00101284 -2.78011e-06 0)
(0.00101352 -2.74658e-06 0)
(0.00101419 -2.70031e-06 0)
(0.00101485 -2.64149e-06 0)
(0.00101549 -2.56898e-06 0)
(0.00101611 -2.48321e-06 0)
(0.0010167 -2.38249e-06 0)
(0.00101727 -2.26775e-06 0)
(0.00101781 -2.13644e-06 0)
(0.00101832 -1.99026e-06 0)
(0.00101878 -1.82537e-06 0)
(0.0010192 -1.64478e-06 0)
(0.00101958 -1.44258e-06 0)
(0.0010199 -1.22398e-06 0)
(0.00102017 -9.79815e-07 0)
(0.00102038 -7.18913e-07 0)
(0.00102051 -4.26912e-07 0)
(0.00102058 -1.18562e-07 0)
(0.00102056 2.28823e-07 0)
(0.00102046 5.90845e-07 0)
(0.00102026 1.00365e-06 0)
(0.00101996 1.4269e-06 0)
(0.00101955 1.91814e-06 0)
(0.00101902 2.41098e-06 0)
(0.00101836 2.99763e-06 0)
(0.00101756 3.56921e-06 0)
(0.00101661 4.27417e-06 0)
(0.00101548 4.93392e-06 0)
(0.00101419 5.78845e-06 0)
(0.00101269 6.54456e-06 0)
(0.00101098 7.59158e-06 0)
(0.00100903 8.4465e-06 0)
(0.00100684 9.74246e-06 0)
(0.001 -1.49022e-07 0)
(0.00100005 -4.46622e-07 0)
(0.00100014 -7.42487e-07 0)
(0.00100028 -1.03531e-06 0)
(0.00100047 -1.32376e-06 0)
(0.0010007 -1.60658e-06 0)
(0.00100097 -1.88251e-06 0)
(0.00100129 -2.15039e-06 0)
(0.00100165 -2.40913e-06 0)
(0.00100205 -2.65773e-06 0)
(0.00100248 -2.89527e-06 0)
(0.00100296 -3.1209e-06 0)
(0.00100347 -3.33385e-06 0)
(0.001004 -3.53344e-06 0)
(0.00100457 -3.71904e-06 0)
(0.00100517 -3.89008e-06 0)
(0.00100579 -4.04608e-06 0)
(0.00100644 -4.18654e-06 0)
(0.0010071 -4.31108e-06 0)
(0.00100778 -4.41925e-06 0)
(0.00100848 -4.51074e-06 0)
(0.00100919 -4.5851e-06 0)
(0.00100991 -4.64208e-06 0)
(0.00101064 -4.68118e-06 0)
(0.00101137 -4.7022e-06 0)
(0.00101211 -4.7045e-06 0)
(0.00101284 -4.68797e-06 0)
(0.00101357 -4.65176e-06 0)
(0.0010143 -4.59586e-06 0)
(0.00101501 -4.51909e-06 0)
(0.00101572 -4.42166e-06 0)
(0.00101641 -4.30185e-06 0)
(0.00101708 -4.16025e-06 0)
(0.00101772 -3.99435e-06 0)
(0.00101835 -3.80537e-06 0)
(0.00101894 -3.5896e-06 0)
(0.00101951 -3.34932e-06 0)
(0.00102003 -3.07895e-06 0)
(0.00102052 -2.78264e-06 0)
(0.00102096 -2.45179e-06 0)
(0.00102136 -2.09367e-06 0)
(0.0010217 -1.69501e-06 0)
(0.00102199 -1.26817e-06 0)
(0.00102222 -7.92459e-07 0)
(0.00102237 -2.88674e-07 0)
(0.00102246 2.75745e-07 0)
(0.00102246 8.66228e-07 0)
(0.00102238 1.53457e-06 0)
(0.00102221 2.22394e-06 0)
(0.00102194 3.01656e-06 0)
(0.00102155 3.81865e-06 0)
(0.00102106 4.76156e-06 0)
(0.00102043 5.69137e-06 0)
(0.00101968 6.81907e-06 0)