/*--------------------------------*- C++ -*----------------------------------*\
| =========                 |                                                 |
| \\      /  F ield         | OpenFOAM: The Open Source CFD Toolbox           |
|  \\    /   O peration     | Version:  2312                                  |
|   \\  /    A nd           | Website:  www.openfoam.com                      |
|    \\/     M anipulation  |                                                 |
\*---------------------------------------------------------------------------*/
FoamFile
{
    version     2.0;
    format      ascii;
    arch        "LSB;label=32;scalar=64";
    class       surfaceScalarField;
    location    "79000";
    object      phi;
}
// * * * * * * * * * * * * * * * * * * * * * * * * * * * * * * * * * * * * * //

dimensions      [0 3 -1 0 0 0 0];

oriented        oriented;

internalField   nonuniform List<scalar> 
5250
(
-5.28385e-07
-7.55867e-06
7.00414e-06
-7.53252e-06
1.44685e-05
-7.46432e-06
2.18234e-05
-7.35496e-06
2.90315e-05
-7.20805e-06
3.60589e-05
-7.02747e-06
4.28762e-05
-6.8173e-06
4.9458e-05
-6.58173e-06
5.57829e-05
-6.3249e-06
6.18337e-05
-6.05085e-06
6.75971e-05
-5.76342e-06
7.30634e-05
-5.46626e-06
7.82262e-05
-5.16279e-06
8.30823e-05
-4.85613e-06
8.76315e-05
-4.54918e-06
9.1876e-05
-4.24452e-06
9.58205e-05
-3.94445e-06
9.94715e-05
-3.65099e-06
0.000102837
-3.3659e-06
0.000105928
-3.09066e-06
0.000108755
-2.8265e-06
0.000111329
-2.57443e-06
0.000113664
-2.33519e-06
0.000115774
-2.10937e-06
0.000117671
-1.89732e-06
0.00011937
-1.69922e-06
0.000120885
-1.51512e-06
0.00012223
-1.34489e-06
0.000123418
-1.18833e-06
0.000124464
-1.04511e-06
0.000125378
-9.14799e-07
0.000126175
-7.96919e-07
0.000126866
-6.90916e-07
0.000127462
-5.96193e-07
0.000127974
-5.12118e-07
0.000128413
-4.38036e-07
0.000128786
-3.73276e-07
0.000129103
-3.17162e-07
0.000129372
-2.69024e-07
0.0001296
-2.28203e-07
0.000129794
-1.94062e-07
0.00012996
-1.65983e-07
0.000130104
-1.43371e-07
0.000130229
-1.25656e-07
0.000130342
-1.12299e-07
0.000130444
-1.02789e-07
0.000130541
-9.6644e-08
0.000130634
-9.34142e-08
0.000130727
-9.26735e-08
0.000130821
-9.40043e-08
0.000130918
-9.68836e-08
0.000131019
-1.01076e-07
0.000131126
-1.06744e-07
0.000131239
-1.1337e-07
0.00013136
-1.20671e-07
0.000131488
-1.28402e-07
0.000131625
-1.36358e-07
0.000131769
-1.44365e-07
0.000131921
-1.52296e-07
0.000132081
-1.60037e-07
0.000132249
-1.67509e-07
0.000132423
-1.74622e-07
0.000132605
-1.81335e-07
0.000132792
-1.87572e-07
0.000132986
-1.93327e-07
0.000133184
-1.98531e-07
0.000133387
-2.03215e-07
0.000133595
-2.07306e-07
0.000133806
-2.1088e-07
0.000134019
-2.13849e-07
0.000134236
-2.16341e-07
0.000134454
-2.18226e-07
0.000134674
-2.19706e-07
0.000134894
-2.20574e-07
0.000135115
-2.2114e-07
0.000135336
-2.21057e-07
0.000135557
-2.20818e-07
0.000135777
-2.19842e-07
0.000135996
-2.18919e-07
0.000136213
-2.17093e-07
0.000136429
-2.15637e-07
0.000136642
-2.13014e-07
0.000136853
-2.1123e-07
0.000137061
-2.07914e-07
0.000137267
-2.06069e-07
0.000137469
-2.02335e-07
0.00013767
-2.0086e-07
0.000137867
-1.97092e-07
-1.96684e-07
0.000160054
-1.71899e-05
0.000169627
-1.71059e-05
0.000179104
-1.6941e-05
0.000188447
-1.6698e-05
0.000197619
-1.63807e-05
0.00020659
-1.59977e-05
0.00021533
-1.55575e-05
0.000223817
-1.50684e-05
0.00023203
-1.45383e-05
0.000239954
-1.39746e-05
0.000247575
-1.33845e-05
0.000254883
-1.27747e-05
0.000261872
-1.21516e-05
0.000268537
-1.15209e-05
0.000274875
-1.08878e-05
0.000280888
-1.02573e-05
0.000286577
-9.6335e-06
0.000291947
-9.02032e-06
0.000297002
-8.42109e-06
0.00030175
-7.8387e-06
0.000306199
-7.27561e-06
0.000310358
-6.73387e-06
0.000314238
-6.21513e-06
0.00031785
-5.72067e-06
0.000321204
-5.25145e-06
0.000324313
-4.80811e-06
0.000327189
-4.39106e-06
0.000329844
-4.00042e-06
0.000332292
-3.63612e-06
0.000334545
-3.29784e-06
0.000336615
-2.98514e-06
0.000338515
-2.6974e-06
0.000340258
-2.43386e-06
0.000341856
-2.19367e-06
0.00034332
-1.97586e-06
0.000344661
-1.77941e-06
0.000345891
-1.60322e-06
0.00034702
-1.44617e-06
0.000348058
-1.30709e-06
0.000349015
-1.1848e-06
0.000349899
-1.07813e-06
0.000350719
-9.85917e-07
0.000351482
-9.07009e-07
0.000352197
-8.40278e-07
0.000352869
-7.84624e-07
0.000353505
-7.38985e-07
0.000354111
-7.02339e-07
0.000354691
-6.73709e-07
0.000355251
-6.52161e-07
0.000355794
-6.36813e-07
0.000356324
-6.26837e-07
0.000356844
-6.21481e-07
0.000357357
-6.20043e-07
0.000357866
-6.21799e-07
0.000358371
-6.26101e-07
0.000358875
-6.32458e-07
0.000359379
-6.40458e-07
0.000359885
-6.49613e-07
0.000360392
-6.59518e-07
0.000360902
-6.69803e-07
0.000361414
-6.8018e-07
0.00036193
-6.90366e-07
0.000362449
-7.00173e-07
0.000362971
-7.09377e-07
0.000363495
-7.17875e-07
0.000364022
-7.25476e-07
0.000364551
-7.32174e-07
0.000365082
-7.37788e-07
0.000365613
-7.42414e-07
0.000366145
-7.45857e-07
0.000366677
-7.48326e-07
0.000367208
-7.49573e-07
0.000367739
-7.49934e-07
0.000368267
-7.49062e-07
0.000368793
-7.47434e-07
0.000369317
-7.44572e-07
0.000369837
-7.41072e-07
0.000370354
-7.36358e-07
0.000370866
-7.31033e-07
0.000371373
-7.24636e-07
0.000371875
-7.17482e-07
0.000372372
-7.0981e-07
0.000372862
-7.00812e-07
0.000373346
-6.92618e-07
0.000373822
-6.81566e-07
0.000374294
-6.74115e-07
0.000374753
-6.6043e-07
0.000375212
-6.55509e-07
-6.36888e-07
0.000369262
-2.46092e-05
0.000376573
-2.44167e-05
0.000383748
-2.41161e-05
0.000390766
-2.37159e-05
0.00039761
-2.32255e-05
0.000404268
-2.2655e-05
0.000410725
-2.20147e-05
0.000416971
-2.13147e-05
0.000422998
-2.05649e-05
0.000428798
-1.97746e-05
0.000434366
-1.8953e-05
0.0004397
-1.81085e-05
0.000444798
-1.72491e-05
0.000449659
-1.63818e-05
0.000454284
-1.55135e-05
0.000458677
-1.46502e-05
0.000462841
-1.37971e-05
0.00046678
-1.2959e-05
0.000470498
-1.21401e-05
0.000474004
-1.13439e-05
0.000477301
-1.05734e-05
0.000480399
-9.83115e-06
0.000483303
-9.1192e-06
0.000486021
-8.4392e-06
0.000488562
-7.79236e-06
0.000490934
-7.17952e-06
0.000493144
-6.60113e-06
0.000495201
-6.05736e-06
0.000497113
-5.54816e-06
0.000498888
-5.07326e-06
0.000500535
-4.63215e-06
0.000502062
-4.22411e-06
0.000503476
-3.84829e-06
0.000504786
-3.50369e-06
0.000506
-3.18917e-06
0.000507124
-2.90352e-06
0.000508166
-2.64539e-06
0.000509133
-2.41339e-06
0.000510032
-2.2061e-06
0.000510869
-2.02209e-06
0.000511651
-1.85991e-06
0.000512383
-1.71814e-06
0.000513072
-1.5953e-06
0.000513721
-1.48998e-06
0.000514338
-1.40076e-06
0.000514925
-1.32627e-06
0.000515488
-1.26517e-06
0.00051603
-1.21618e-06
0.000516556
-1.17803e-06
0.000517069
-1.14957e-06
0.000517572
-1.12964e-06
0.000518067
-1.1172e-06
0.000518558
-1.11123e-06
0.000519048
-1.11084e-06
0.000519537
-1.11514e-06
0.000520027
-1.12337e-06
0.000520522
-1.13477e-06
0.000521021
-1.14868e-06
0.000521526
-1.16445e-06
0.000522038
-1.18156e-06
0.000522557
-1.19949e-06
0.000523084
-1.21781e-06
0.00052362
-1.23614e-06
0.000524165
-1.2541e-06
0.000524719
-1.27147e-06
0.000525281
-1.28786e-06
0.000525852
-1.30325e-06
0.000526431
-1.31721e-06
0.000527019
-1.32991e-06
0.000527614
-1.34087e-06
0.000528216
-1.35046e-06
0.000528825
-1.35813e-06
0.000529439
-1.36434e-06
0.000530059
-1.36861e-06
0.000530682
-1.37129e-06
0.00053131
-1.37218e-06
0.00053194
-1.37111e-06
0.000532573
-1.36875e-06
0.000533205
-1.36363e-06
0.000533839
-1.35838e-06
0.00053447
-1.34875e-06
0.000535102
-1.34128e-06
0.000535727
-1.32657e-06
0.000536353
-1.31803e-06
0.000536969
-1.29762e-06
0.000537584
-1.28978e-06
0.000538187
-1.26327e-06
0.00053879
-1.25855e-06
-1.22783e-06
0.000582772
-2.81964e-05
0.00058625
-2.78955e-05
0.000589615
-2.74809e-05
0.000592861
-2.69618e-05
0.000595983
-2.63479e-05
0.000598978
-2.565e-05
0.000601843
-2.48793e-05
0.000604575
-2.40467e-05
0.000607173
-2.31628e-05
0.000609636
-2.22379e-05
0.000611965
-2.12817e-05
0.00061416
-2.03033e-05
0.000616222
-1.93113e-05
0.000618153
-1.83135e-05
0.000619957
-1.73168e-05
0.000621634
-1.63278e-05
0.000623189
-1.5352e-05
0.000624625
-1.43946e-05
0.000625945
-1.34598e-05
0.000627152
-1.25516e-05
0.000628252
-1.16732e-05
0.000629248
-1.08271e-05
0.000630144
-1.00154e-05
0.000630945
-9.23997e-06
0.000631655
-8.50195e-06
0.000632277
-7.80233e-06
0.000632818
-7.14171e-06
0.000633281
-6.52026e-06
0.000633671
-5.93789e-06
0.000633992
-5.39429e-06
0.000634248
-4.88898e-06
0.000634446
-4.42122e-06
0.000634587
-3.99009e-06
0.000634678
-3.59452e-06
0.000634722
-3.23335e-06
0.000634724
-2.90537e-06
0.000634688
-2.60912e-06
0.000634618
-2.34303e-06
0.000634517
-2.10553e-06
0.00063439
-1.89509e-06
0.00063424
-1.71017e-06
0.000634071
-1.54922e-06
0.000633887
-1.41061e-06
0.000633689
-1.2928e-06
0.000633483
-1.19419e-06
0.00063327
-1.11329e-06
0.000633053
-1.04857e-06
0.000632836
-9.98619e-07
0.00063262
-9.61977e-07
0.000632407
-9.37365e-07
0.000632201
-9.23413e-07
0.000632003
-9.18993e-07
0.000631815
-9.22869e-07
0.000631638
-9.34049e-07
0.000631474
-9.51424e-07
0.000631325
-9.74112e-07
0.000631191
-1.00118e-06
0.000631074
-1.03183e-06
0.000630975
-1.06535e-06
0.000630895
-1.10095e-06
0.000630833
-1.13821e-06
0.000630792
-1.17633e-06
0.000630771
-1.21518e-06
0.000630771
-1.25381e-06
0.000630792
-1.29246e-06
0.000630834
-1.32996e-06
0.000630898
-1.36703e-06
0.000630983
-1.40221e-06
0.000631089
-1.43668e-06
0.000631217
-1.46872e-06
0.000631367
-1.49992e-06
0.000631537
-1.52835e-06
0.000631728
-1.55581e-06
0.00063194
-1.58041e-06
0.000632173
-1.60364e-06
0.000632425
-1.62428e-06
0.000632696
-1.64263e-06
0.000632987
-1.65924e-06
0.000633295
-1.67164e-06
0.00063362
-1.68419e-06
0.000633961
-1.68928e-06
0.000634318
-1.69788e-06
0.000634685
-1.69422e-06
0.000635067
-1.69936e-06
0.000635455
-1.68601e-06
0.000635854
-1.68861e-06
0.000636256
-1.66573e-06
0.000636665
-1.66696e-06
-1.63791e-06
0.000746595
-2.75809e-05
0.000745949
-2.7249e-05
0.000745276
-2.68077e-05
0.00074458
-2.62661e-05
0.000743867
-2.56347e-05
0.00074314
-2.49237e-05
0.000742405
-2.41435e-05
0.000741663
-2.33045e-05
0.000740916
-2.24167e-05
0.000740169
-2.149e-05
0.000739421
-2.05336e-05
0.000738673
-1.95562e-05
0.000737928
-1.85657e-05
0.000737184
-1.75696e-05
0.000736442
-1.65747e-05
0.000735701
-1.55871e-05
0.000734962
-1.46122e-05
0.000734222
-1.36549e-05
0.000733481
-1.27193e-05
0.000732739
-1.1809e-05
0.000731993
-1.09272e-05
0.000731242
-1.00766e-05
0.000730486
-9.25947e-06
0.000729724
-8.47774e-06
0.000728955
-7.73255e-06
0.000728177
-7.02475e-06
0.00072739
-6.35496e-06
0.000726594
-5.72365e-06
0.000725787
-5.131e-06
0.00072497
-4.57699e-06
0.000724142
-4.0613e-06
0.000723304
-3.58324e-06
0.000722456
-3.14221e-06
0.000721599
-2.73715e-06
0.000720732
-2.36701e-06
0.000719858
-2.03081e-06
0.000718976
-1.72711e-06
0.000718087
-1.45445e-06
0.000717193
-1.21141e-06
0.000716295
-9.96629e-07
0.000715393
-8.08634e-07
0.00071449
-6.45949e-07
0.000713586
-5.06958e-07
0.000712683
-3.90207e-07
0.000711783
-2.94097e-07
0.000710887
-2.17222e-07
0.000709997
-1.57985e-07
0.000709113
-1.15045e-07
0.000708238
-8.68473e-08
0.000707373
-7.2139e-08
0.000706519
-6.94885e-08
0.000705678
-7.77799e-08
0.000704851
-9.57763e-08
0.000704039
-1.224e-07
0.000703244
-1.56593e-07
0.000702467
-1.9723e-07
0.00070171
-2.43567e-07
0.000700972
-2.9441e-07
0.000700256
-3.49377e-07
0.000699562
-4.07012e-07
0.000698892
-4.6758e-07
0.000698245
-5.29359e-07
0.000697623
-5.93189e-07
0.000697026
-6.56814e-07
0.000696455
-7.21774e-07
0.00069591
-7.85187e-07
0.000695393
-8.49463e-07
0.000694902
-9.11071e-07
0.000694438
-9.73373e-07
0.000694002
-1.03216e-06
0.000693594
-1.0918e-06
0.000693213
-1.14747e-06
0.000692861
-1.20413e-06
0.000692537
-1.25666e-06
0.000692243
-1.3099e-06
0.000691978
-1.35917e-06
0.000691744
-1.40787e-06
0.000691538
-1.45333e-06
0.000691362
-1.49557e-06
0.000691214
-1.53634e-06
0.000691094
-1.5697e-06
0.000691001
-1.6046e-06
0.000690933
-1.62662e-06
0.000690888
-1.65442e-06
0.000690866
-1.66368e-06
0.000690861
-1.68347e-06
0.000690876
-1.68071e-06
0.000690901
-1.69166e-06
-1.6805e-06
0.000829882
-2.43373e-05
0.000826689
-2.40557e-05
0.000823556
-2.36746e-05
0.000820492
-2.32026e-05
0.000817506
-2.26482e-05
0.000814603
-2.20208e-05
0.000811788
-2.13294e-05
0.000809067
-2.05832e-05
0.000806441
-1.9791e-05
0.000803913
-1.89612e-05
0.000801481
-1.8102e-05
0.000799146
-1.72209e-05
0.000796905
-1.63249e-05
0.000794756
-1.54206e-05
0.000792695
-1.4514e-05
0.000790719
-1.36107e-05
0.000788822
-1.27157e-05
0.000787001
-1.18337e-05
0.00078525
-1.09686e-05
0.000783565
-1.01241e-05
0.000781941
-9.30299e-06
0.000780372
-8.50748e-06
0.000778853
-7.74009e-06
0.000777378
-7.00315e-06
0.000775944
-6.29858e-06
0.000774547
-5.62779e-06
0.000773183
-4.99103e-06
0.000771848
-4.38828e-06
0.000770537
-3.82023e-06
0.000769248
-3.28746e-06
0.000767976
-2.79003e-06
0.000766721
-2.3276e-06
0.000765478
-1.89971e-06
0.000764247
-1.50635e-06
0.000763028
-1.14733e-06
0.000761818
-8.20608e-07
0.000760615
-5.24273e-07
0.000759418
-2.57698e-07
0.000758227
-2.02722e-08
0.00075704
1.90223e-07
0.000755857
3.74002e-07
0.000754679
5.32674e-07
0.000753504
6.67746e-07
0.000752333
7.80444e-07
0.000751167
8.72275e-07
0.000750005
9.44428e-07
0.000748849
9.98418e-07
0.000747698
1.03544e-06
0.000746555
1.05699e-06
0.000745418
1.06423e-06
0.00074429
1.0585e-06
0.000743172
1.04095e-06
0.000742063
1.01269e-06
0.000740966
9.74963e-07
0.000739881
9.28538e-07
0.000738808
8.74917e-07
0.000737751
8.1436e-07
0.000736707
7.48695e-07
0.00073568
6.77556e-07
0.00073467
6.03203e-07
0.000733678
5.24467e-07
0.000732705
4.44133e-07
0.000731751
3.60079e-07
0.000730819
2.7611e-07
0.000729908
1.89001e-07
0.000729019
1.03667e-07
0.000728154
1.5538e-08
0.000727312
-6.95861e-08
0.000726496
-1.57219e-07
0.000725704
-2.40024e-07
0.000724939
-3.26207e-07
0.000724198
-4.06764e-07
0.000723485
-4.9161e-07
0.000722799
-5.70509e-07
0.000722144
-6.54245e-07
0.000721516
-7.32032e-07
0.000720922
-8.13967e-07
0.000720359
-8.90193e-07
0.000719832
-9.67885e-07
0.000719336
-1.04063e-06
0.000718876
-1.1101e-06
0.000718448
-1.1761e-06
0.000718054
-1.23278e-06
0.000717688
-1.28819e-06
0.000717353
-1.32877e-06
0.000717039
-1.3699e-06
0.000716753
-1.39447e-06
0.000716479
-1.41771e-06
-1.43069e-06
0.000860444
-2.07259e-05
0.000856912
-2.05234e-05
0.000853467
-2.02302e-05
0.000850118
-1.98535e-05
0.000846871
-1.94008e-05
0.00084373
-1.88797e-05
0.000840698
-1.82978e-05
0.000837778
-1.76628e-05
0.000834969
-1.6982e-05
0.00083227
-1.62625e-05
0.000829679
-1.55114e-05
0.000827194
-1.47352e-05
0.000824809
-1.39403e-05
0.000822521
-1.31327e-05
0.000820325
-1.23178e-05
0.000818215
-1.15011e-05
0.000816187
-1.06871e-05
0.000814233
-9.88022e-06
0.000812349
-9.08439e-06
0.000810528
-8.30331e-06
0.000808766
-7.54037e-06
0.000807057
-6.7986e-06
0.000805397
-6.0805e-06
0.000803781
-5.38743e-06
0.000802204
-4.72071e-06
0.000800659
-4.08318e-06
0.000799145
-3.47655e-06
0.000797657
-2.90074e-06
0.000796193
-2.3566e-06
0.000794751
-1.84503e-06
0.000793327
-1.36603e-06
0.000791919
-9.19285e-07
0.000790523
-5.04075e-07
0.000789136
-1.19188e-07
0.000787762
2.26972e-07
0.000786397
5.44237e-07
0.000785039
8.33224e-07
0.000783688
1.09313e-06
0.000782343
1.325e-06
0.000781003
1.53004e-06
0.000779668
1.70953e-06
0.000778336
1.86438e-06
0.000777008
1.99591e-06
0.000775683
2.10517e-06
0.000774362
2.19365e-06
0.000773044
2.26236e-06
0.000771729
2.31274e-06
0.000770419
2.34586e-06
0.000769113
2.36312e-06
0.000767812
2.36566e-06
0.000766515
2.35468e-06
0.000765225
2.33143e-06
0.000763941
2.29677e-06
0.000762664
2.25219e-06
0.000761394
2.19803e-06
0.000760133
2.13618e-06
0.000758881
2.06635e-06
0.000757638
1.99101e-06
0.000756407
1.90896e-06
0.000755187
1.82344e-06
0.000753979
1.73213e-06
0.000752784
1.63919e-06
0.000751603
1.54091e-06
0.000750437
1.44277e-06
0.000749286
1.33944e-06
0.000748152
1.23821e-06
0.000747035
1.13171e-06
0.000745936
1.02957e-06
0.000744857
9.21755e-07
0.000743797
8.20627e-07
0.000742758
7.12758e-07
0.000741738
6.13418e-07
0.00074074
5.05543e-07
0.000739763
4.07293e-07
0.00073881
2.98496e-07
0.000737878
1.99848e-07
0.000736974
8.96558e-08
0.000736093
-9.33697e-09
0.000735244
-1.18131e-07
0.00073442
-2.16913e-07
0.000733632
-3.21757e-07
0.000732872
-4.16135e-07
0.000732149
-5.10207e-07
0.000731455
-5.93673e-07
0.000730797
-6.71031e-07
0.000730163
-7.35883e-07
0.000729563
-7.94797e-07
0.000728978
-8.3242e-07
-8.80106e-07
0.000889813
-1.78716e-05
0.000887004
-1.77143e-05
0.000884246
-1.74724e-05
0.000881545
-1.7152e-05
0.000878903
-1.67593e-05
0.000876325
-1.63009e-05
0.00087381
-1.57834e-05
0.000871361
-1.52132e-05
0.000868975
-1.45967e-05
0.000866653
-1.39402e-05
0.000864392
-1.325e-05
0.000862189
-1.25322e-05
0.000860041
-1.17926e-05
0.000857945
-1.1037e-05
0.000855898
-1.02708e-05
0.000853896
-9.4991e-06
0.000851936
-8.72684e-06
0.000850014
-7.9582e-06
0.000848127
-7.1973e-06
0.000846271
-6.44776e-06
0.000844443
-5.71184e-06
0.000842638
-4.99388e-06
0.000840856
-4.29865e-06
0.000839096
-3.62698e-06
0.000837355
-2.97945e-06
0.000835629
-2.3573e-06
0.000833914
-1.76151e-06
0.000832208
-1.19484e-06
0.000830511
-6.60176e-07
0.000828824
-1.57245e-07
0.000827145
3.12878e-07
0.000825473
7.52872e-07
0.000823808
1.1607e-06
0.000822152
1.53619e-06
0.0008205
1.87937e-06
0.000818852
2.19233e-06
0.000817209
2.47659e-06
0.000815569
2.73236e-06
0.000813934
2.96033e-06
0.000812303
3.16128e-06
0.000810676
3.33658e-06
0.000809053
3.48715e-06
0.000807434
3.61441e-06
0.00080582
3.71926e-06
0.000804211
3.80317e-06
0.000802606
3.86712e-06
0.000801006
3.91256e-06
0.000799412
3.94054e-06
0.000797822
3.9524e-06
0.000796239
3.94935e-06
0.000794661
3.93241e-06
0.000793089
3.90304e-06
0.000791524
3.86178e-06
0.000789966
3.81048e-06
0.000788415
3.74899e-06
0.000786871
3.67977e-06
0.000785336
3.60175e-06
0.000783809
3.51825e-06
0.000782291
3.42702e-06
0.000780782
3.3325e-06
0.000779283
3.23093e-06
0.000777794
3.12824e-06
0.000776316
3.0187e-06
0.000774849
2.91022e-06
0.000773393
2.79456e-06
0.000771949
2.68233e-06
0.000770519
2.56206e-06
0.0007691
2.448e-06
0.000767698
2.32454e-06
0.000766308
2.21054e-06
0.000764935
2.0852e-06
0.000763576
1.97267e-06
0.000762235
1.84621e-06
0.000760907
1.7355e-06
0.000759598
1.60778e-06
0.0007583
1.49793e-06
0.000757021
1.36826e-06
0.000755754
1.25784e-06
0.00075451
1.12644e-06
0.000753277
1.01531e-06
0.000752071
8.8459e-07
0.000750879
7.75616e-07
0.000749718
6.50552e-07
0.000748574
5.50313e-07
0.000747467
4.36422e-07
0.000746376
3.55157e-07
0.000745327
2.54375e-07
0.000744289
2.0545e-07
1.10638e-07
0.000936096
-1.53741e-05
0.000933605
-1.5223e-05
0.000931126
-1.4993e-05
0.000928663
-1.46889e-05
0.000926219
-1.43158e-05
0.000923798
-1.38797e-05
0.000921401
-1.33864e-05
0.00091903
-1.28418e-05
0.000916685
-1.22517e-05
0.000914366
-1.16221e-05
0.000912075
-1.09588e-05
0.000909811
-1.02676e-05
0.000907572
-9.55413e-06
0.000905359
-8.82375e-06
0.00090317
-8.08151e-06
0.000901003
-7.33269e-06
0.000898858
-6.58193e-06
0.000896733
-5.83326e-06
0.000894628
-5.09168e-06
0.000892541
-4.36089e-06
0.000890472
-3.64311e-06
0.00088842
-2.9413e-06
0.000886378
-2.2576e-06
0.000884346
-1.59435e-06
0.000882325
-9.58703e-07
0.000880321
-3.53355e-07
0.000878328
2.32043e-07
0.000876342
7.90976e-07
0.000874365
1.31667e-06
0.000872396
1.81205e-06
0.000870433
2.27562e-06
0.000868479
2.70695e-06
0.000866533
3.10643e-06
0.000864595
3.47458e-06
0.000862662
3.81199e-06
0.000860736
4.11886e-06
0.000858816
4.39624e-06
0.000856903
4.64491e-06
0.000854998
4.86594e-06
0.000853099
5.05996e-06
0.000851207
5.22833e-06
0.000849323
5.37189e-06
0.000847445
5.49219e-06
0.000845574
5.59007e-06
0.00084371
5.66706e-06
0.000841853
5.7241e-06
0.000840003
5.76266e-06
0.00083816
5.78384e-06
0.000836323
5.78887e-06
0.000834494
5.77911e-06
0.000832671
5.75534e-06
0.000830854
5.71934e-06
0.000829045
5.67119e-06
0.000827242
5.61332e-06
0.000825446
5.54488e-06
0.000823657
5.46919e-06
0.000821874
5.38412e-06
0.000820098
5.2942e-06
0.00081833
5.1957e-06
0.000816567
5.09473e-06
0.000814813
4.98551e-06
0.000813065
4.87633e-06
0.000811325
4.75868e-06
0.000809591
4.64379e-06
0.000807866
4.51957e-06
0.000806147
4.40115e-06
0.000804438
4.27179e-06
0.000802734
4.15175e-06
0.00080104
4.01833e-06
0.000799352
3.89828e-06
0.000797676
3.76168e-06
0.000796006
3.64303e-06
0.000794348
3.50402e-06
0.000792695
3.38779e-06
0.000791056
3.24692e-06
0.000789421
3.13346e-06
0.000787798
2.9909e-06
0.000786176
2.87999e-06
0.000784567
2.73587e-06
0.000782955
2.62729e-06
0.000781357
2.48223e-06
0.000779755
2.37734e-06
0.000778173
2.23325e-06
0.000776586
2.13678e-06
0.000775027
1.99592e-06
0.000773465
1.91704e-06
0.00077194
1.77926e-06
0.000770414
1.7315e-06
1.58847e-06
0.00097242
-1.25876e-05
0.000969628
-1.24304e-05
0.000966836
-1.22013e-05
0.000964052
-1.19044e-05
0.00096128
-1.15446e-05
0.000958528
-1.11268e-05
0.000955797
-1.06562e-05
0.000953093
-1.01379e-05
0.000950419
-9.57718e-06
0.000947776
-8.97941e-06
0.000945167
-8.34997e-06
0.000942594
-7.69415e-06
0.000940057
-7.01742e-06
0.000937558
-6.32486e-06
0.000935098
-5.62147e-06
0.000932677
-4.9117e-06
0.000930295
-4.19976e-06
0.000927952
-3.49032e-06
0.000925647
-2.78674e-06
0.000923378
-2.09207e-06
0.000921145
-1.40961e-06
0.000918951
-7.46943e-07
0.000916804
-1.10919e-07
0.000914678
5.318e-07
0.000912579
1.14004e-06
0.000910503
1.72307e-06
0.000908454
2.28095e-06
0.000906434
2.81056e-06
0.000904441
3.30966e-06
0.000902474
3.77874e-06
0.000900532
4.21806e-06
0.000898612
4.62709e-06
0.000896712
5.00583e-06
0.000894833
5.35445e-06
0.000892971
5.67347e-06
0.000891127
5.96308e-06
0.000889299
6.22418e-06
0.000887486
6.45743e-06
0.000885688
6.66406e-06
0.000883903
6.84469e-06
0.000882131
7.00064e-06
0.00088037
7.13265e-06
0.00087862
7.24222e-06
0.00087688
7.33021e-06
0.000875149
7.39809e-06
0.000873426
7.44683e-06
0.000871711
7.47776e-06
0.000870003
7.4921e-06
0.000868301
7.49082e-06
0.000866605
7.47552e-06
0.000864914
7.44661e-06
0.000863227
7.40627e-06
0.000861544
7.35405e-06
0.000859864
7.29298e-06
0.000858188
7.22142e-06
0.000856513
7.14355e-06
0.000854841
7.05617e-06
0.00085317
6.96502e-06
0.000851501
6.86485e-06
0.000849832
6.76351e-06
0.000848165
6.65311e-06
0.000846497
6.54432e-06
0.00084483
6.42579e-06
0.000843161
6.312e-06
0.000841494
6.18706e-06
0.000839825
6.07043e-06
0.000838156
5.94039e-06
0.000836485
5.82287e-06
0.000834815
5.68871e-06
0.000833141
5.57199e-06
0.000831468
5.43438e-06
0.000829791
5.31991e-06
0.000828116
5.17925e-06
0.000826436
5.06825e-06
0.000824758
4.92481e-06
0.000823073
4.81831e-06
0.000821391
4.67234e-06
0.0008197
4.57119e-06
0.000818013
4.42306e-06
0.000816312
4.32806e-06
0.000814616
4.17829e-06
0.000812903
4.09081e-06
0.000811196
3.93999e-06
0.00080947
3.86302e-06
0.000807755
3.71117e-06
0.000806021
3.65054e-06
0.000804305
3.4957e-06
0.000802576
3.4604e-06
3.29573e-06
0.000960973
-9.40306e-06
0.000957793
-9.24998e-06
0.000954627
-9.03496e-06
0.000951484
-8.7615e-06
0.000948373
-8.43351e-06
0.000945301
-8.05519e-06
0.000942276
-7.63081e-06
0.000939303
-7.16499e-06
0.000936388
-6.66244e-06
0.000933536
-6.12782e-06
0.000930752
-5.56583e-06
0.000928039
-4.98096e-06
0.000925399
-4.37758e-06
0.000922835
-3.76021e-06
0.000920347
-3.13357e-06
0.000917937
-2.50186e-06
0.000915606
-1.86891e-06
0.000913355
-1.23912e-06
0.000911184
-6.16205e-07
0.000909103
-1.11726e-08
0.00090708
6.13378e-07
0.000905125
1.20882e-06
0.000903224
1.78962e-06
0.000901402
2.35391e-06
0.000899646
2.89614e-06
0.000897955
3.4141e-06
0.000896328
3.90821e-06
0.00089476
4.37849e-06
0.000893246
4.82335e-06
0.000891783
5.24145e-06
0.000890369
5.63259e-06
0.000888999
5.99666e-06
0.000887671
6.33361e-06
0.000886382
6.64333e-06
0.00088513
6.92628e-06
0.00088391
7.18275e-06
0.000882721
7.41352e-06
0.000881559
7.61908e-06
0.000880423
7.8005e-06
0.000879309
7.95839e-06
0.000878216
8.09395e-06
0.00087714
8.20788e-06
0.000876081
8.30149e-06
0.000875036
8.3756e-06
0.000874002
8.43151e-06
0.000872979
8.47022e-06
0.000871964
8.49281e-06
0.000870955
8.50055e-06
0.000869952
8.49416e-06
0.000868952
8.47533e-06
0.000867955
8.44417e-06
0.000866958
8.403e-06
0.000865961
8.3511e-06
0.000864962
8.29171e-06
0.000863961
8.22278e-06
0.000862955
8.1488e-06
0.000861946
8.06605e-06
0.00086093
7.98071e-06
0.000859908
7.88684e-06
0.000858878
7.79297e-06
0.000857841
7.69027e-06
0.000856795
7.59043e-06
0.00085574
7.4808e-06
0.000854675
7.37725e-06
0.0008536
7.26221e-06
0.000852513
7.15697e-06
0.000851416
7.03765e-06
0.000850306
6.93255e-06
0.000849185
6.80974e-06
0.000848051
6.70648e-06
0.000846905
6.58058e-06
0.000845744
6.48071e-06
0.000844571
6.35184e-06
0.000843383
6.2568e-06
0.000842183
6.12489e-06
0.000840965
6.03598e-06
0.000839736
5.90099e-06
0.000838488
5.81936e-06
0.00083723
5.68148e-06
0.00083595
5.6081e-06
0.00083466
5.46775e-06
0.000833347
5.40359e-06
0.000832026
5.26122e-06
0.000830681
5.20785e-06
0.000829329
5.0634e-06
0.000827956
5.02357e-06
0.000826576
4.87549e-06
0.000825183
4.85354e-06
4.70075e-06
0.000884348
-6.1318e-06
0.0008811
-6.00188e-06
0.000877887
-5.82234e-06
0.000874722
-5.59607e-06
0.000871614
-5.32637e-06
0.000868576
-5.0168e-06
0.000865616
-4.67062e-06
0.000862742
-4.29138e-06
0.000859963
-3.88303e-06
0.000857284
-3.44918e-06
0.000854712
-2.99316e-06
0.00085225
-2.51896e-06
0.000849903
-2.03077e-06
0.000847675
-1.53264e-06
0.000845569
-1.02772e-06
0.000843584
-5.16229e-07
0.000841718
-3.09028e-09
0.000839974
5.04833e-07
0.000838344
1.01366e-06
0.000836814
1.51922e-06
0.00083541
2.01745e-06
0.000834116
2.50196e-06
0.000832935
2.97119e-06
0.000831863
3.42585e-06
0.000830894
3.86501e-06
0.000830022
4.28612e-06
0.000829242
4.68811e-06
0.00082855
5.07058e-06
0.000827941
5.43242e-06
0.00082741
5.77244e-06
0.000826952
6.09019e-06
0.000826564
6.38555e-06
0.000826239
6.65851e-06
0.000825973
6.90898e-06
0.000825762
7.1372e-06
0.000825601
7.34344e-06
0.000825487
7.52829e-06
0.000825413
7.69219e-06
0.000825378
7.83594e-06
0.000825376
7.96011e-06
0.000825405
8.06565e-06
0.000825459
8.15321e-06
0.000825537
8.22383e-06
0.000825634
8.27828e-06
0.000825748
8.31759e-06
0.000825876
8.34268e-06
0.000826014
8.35442e-06
0.000826161
8.35396e-06
0.000826313
8.3419e-06
0.000826469
8.31973e-06
0.000826625
8.28755e-06
0.000826781
8.24737e-06
0.000826933
8.19859e-06
0.000827081
8.14392e-06
0.000827222
8.08169e-06
0.000827355
8.01566e-06
0.000827479
7.94271e-06
0.000827591
7.86813e-06
0.000827691
7.7868e-06
0.000827778
7.70615e-06
0.00082785
7.61843e-06
0.000827906
7.53392e-06
0.000827946
7.4414e-06
0.000827968
7.35498e-06
0.000827971
7.25894e-06
0.000827956
7.17232e-06
0.00082792
7.07368e-06
0.000827864
6.98841e-06
0.000827786
6.88776e-06
0.000827687
6.80531e-06
0.000827565
6.70288e-06
0.000827421
6.62462e-06
0.000827253
6.5203e-06
0.000827062
6.44757e-06
0.000826846
6.34103e-06
0.000826607
6.27513e-06
0.000826342
6.16603e-06
0.000826053
6.10809e-06
0.000825738
5.99628e-06
0.000825399
5.94715e-06
0.000825034
5.83278e-06
0.000824645
5.79295e-06
0.000824229
5.6764e-06
0.000823791
5.64612e-06
0.000823327
5.52763e-06
0.000822843
5.50715e-06
0.000822333
5.38623e-06
0.00082181
5.37619e-06
5.25423e-06
0.000750443
-3.26152e-06
0.000747614
-3.17278e-06
0.00074484
-3.04861e-06
0.000742136
-2.89167e-06
0.000739514
-2.70426e-06
0.000736986
-2.48884e-06
0.000734563
-2.24772e-06
0.000732254
-1.98314e-06
0.000730069
-1.69789e-06
0.000728015
-1.39476e-06
0.000726097
-1.07559e-06
0.00072432
-7.41476e-07
0.000722683
-3.94084e-07
0.000721182
-3.11149e-08
0.000719836
3.17812e-07
0.000718642
6.77677e-07
0.000717599
1.04036e-06
0.0007167
1.40349e-06
0.000715949
1.76445e-06
0.000715347
2.12117e-06
0.000714892
2.47273e-06
0.000714577
2.817e-06
0.000714396
3.15219e-06
0.000714344
3.47747e-06
0.000714418
3.79148e-06
0.000714612
4.09251e-06
0.00071492
4.37953e-06
0.000715339
4.65201e-06
0.000715862
4.90928e-06
0.000716484
5.15057e-06
0.000717198
5.37544e-06
0.000718
5.58372e-06
0.000718884
5.7753e-06
0.000719842
5.95007e-06
0.000720872
6.10813e-06
0.000721965
6.24967e-06
0.000723119
6.37508e-06
0.000724326
6.48471e-06
0.000725583
6.57909e-06
0.000726884
6.65874e-06
0.000728226
6.72432e-06
0.000729602
6.77644e-06
0.00073101
6.81584e-06
0.000732445
6.84321e-06
0.000733904
6.85931e-06
0.000735381
6.86495e-06
0.000736875
6.86082e-06
0.000738381
6.84785e-06
0.000739896
6.82657e-06
0.000741418
6.79811e-06
0.000742943
6.7627e-06
0.000744469
6.72177e-06
0.000745992
6.67507e-06
0.000747511
6.62448e-06
0.000749024
6.56909e-06
0.000750528
6.51144e-06
0.000752021
6.44968e-06
0.000753502
6.38726e-06
0.000754968
6.32095e-06
0.000756419
6.25568e-06
0.000757851
6.18635e-06
0.000759265
6.11994e-06
0.000760657
6.04884e-06
0.000762029
5.98277e-06
0.000763377
5.91082e-06
0.000764703
5.84635e-06
0.000766003
5.77423e-06
0.000767279
5.71247e-06
0.000768526
5.64056e-06
0.000769749
5.58248e-06
0.000770941
5.51088e-06
0.000772108
5.45739e-06
0.000773242
5.38594e-06
0.000774352
5.33794e-06
0.000775427
5.26619e-06
0.000776477
5.22457e-06
0.000777492
5.152e-06
0.000778482
5.11754e-06
0.000779435
5.04367e-06
0.000780365
5.01691e-06
0.000781256
4.94146e-06
0.000782127
4.92249e-06
0.000782958
4.8455e-06
0.00078377
4.83379e-06
0.000784542
4.7555e-06
0.000785299
4.74988e-06
0.000786015
4.67054e-06
0.000786722
4.66947e-06
4.5912e-06
0.000589671
-1.51818e-06
0.000587965
-1.46682e-06
0.000586312
-1.39586e-06
0.000584727
-1.30651e-06
0.000583223
-1.19985e-06
0.000581811
-1.07689e-06
0.000580502
-9.38611e-07
0.000579305
-7.86097e-07
0.000578228
-6.20665e-07
0.000577277
-4.43738e-07
0.000576457
-2.56199e-07
0.000575772
-5.64005e-08
0.00057524
1.37621e-07
0.000574869
3.39961e-07
0.000574639
5.4821e-07
0.000574557
7.6e-07
0.000574624
9.73173e-07
0.000574841
1.18621e-06
0.000575207
1.39826e-06
0.00057572
1.60829e-06
0.000576378
1.8149e-06
0.000577178
2.01662e-06
0.000578118
2.21236e-06
0.000579194
2.40132e-06
0.000580403
2.58273e-06
0.00058174
2.75576e-06
0.0005832
2.91972e-06
0.000584777
3.07409e-06
0.000586468
3.21839e-06
0.000588267
3.35217e-06
0.000590167
3.47511e-06
0.000592164
3.58703e-06
0.000594251
3.68781e-06
0.000596424
3.77744e-06
0.000598676
3.85599e-06
0.000601002
3.92361e-06
0.000603397
3.98056e-06
0.000605854
4.02716e-06
0.000608369
4.06378e-06
0.000610937
4.09087e-06
0.000613553
4.10891e-06
0.000616211
4.11842e-06