/*--------------------------------*- C++ -*----------------------------------*\
| =========                 |                                                 |
| \\      /  F ield         | OpenFOAM: The Open Source CFD Toolbox           |
|  \\    /   O peration     | Version:  2312                                  |
|   \\  /    A nd           | Website:  www.openfoam.com                      |
|    \\/     M anipulation  |                                                 |
\*---------------------------------------------------------------------------*/
FoamFile
{
    version     2.0;
    format      ascii;
    arch        "LSB;label=32;scalar=64";
    class       volScalarField;
    location    "166000";
    object      p;
}
// * * * * * * * * * * * * * * * * * * * * * * * * * * * * * * * * * * * * * //

dimensions      [0 2 -2 0 0 0 0];

internalField   nonuniform List<scalar> 
2685
(
-5.49659e-08
-6.96508e-08
-7.25656e-08
-7.65092e-08
-8.14343e-08
-8.55962e-08
-8.83573e-08
-8.97548e-08
-8.99681e-08
-8.90798e-08
-8.71084e-08
-8.40641e-08
-7.99724e-08
-7.48862e-08
-6.88795e-08
-6.20368e-08
-5.44409e-08
-4.61643e-08
-3.72824e-08
-2.78723e-08
-1.80072e-08
-7.75782e-09
2.80456e-09
1.36101e-08
2.45914e-08
3.56632e-08
4.67286e-08
5.76879e-08
6.84357e-08
7.88743e-08
8.89017e-08
9.85107e-08
1.07819e-07
1.17047e-07
1.26464e-07
1.36328e-07
1.46857e-07
1.58063e-07
1.69953e-07
1.82464e-07
1.95436e-07
2.08644e-07
2.21833e-07
2.34776e-07
2.47303e-07
2.58885e-07
2.69153e-07
2.77737e-07
2.8426e-07
2.88629e-07
2.91191e-07
2.92512e-07
2.93052e-07
2.93024e-07
2.92446e-07
2.91169e-07
2.88822e-07
2.84644e-07
2.78429e-07
2.69893e-07
2.58212e-07
2.43744e-07
2.26693e-07
2.07197e-07
1.8555e-07
1.62135e-07
1.36923e-07
1.1024e-07
8.24872e-08
5.41024e-08
2.55375e-08
-2.77634e-09
-3.04982e-08
-5.72424e-08
-8.23247e-08
-1.0528e-07
-1.25556e-07
-1.42872e-07
-1.56963e-07
-1.67668e-07
-1.74932e-07
-1.78803e-07
-1.79412e-07
-1.77362e-07
-1.72854e-07
-1.66234e-07
-1.57892e-07
-1.48237e-07
-1.37667e-07
-1.26564e-07
-1.0057e-07
-9.45007e-08
-9.60543e-08
-9.81497e-08
-9.90981e-08
-9.89098e-08
-9.79969e-08
-9.65945e-08
-9.4694e-08
-9.2149e-08
-8.88137e-08
-8.46447e-08
-7.96735e-08
-7.39457e-08
-6.75041e-08
-6.039e-08
-5.26472e-08
-4.43243e-08
-3.54658e-08
-2.61197e-08
-1.6336e-08
-6.16733e-09
4.33344e-09
1.51015e-08
2.60614e-08
3.71367e-08
4.82361e-08
5.92342e-08
7.00018e-08
8.03812e-08
9.01403e-08
9.91141e-08
1.07428e-07
1.15442e-07
1.23607e-07
1.32358e-07
1.42076e-07
1.52971e-07
1.64877e-07
1.77669e-07
1.91233e-07
2.05363e-07
2.19862e-07
2.34633e-07
2.49375e-07
2.63687e-07
2.77173e-07
2.89482e-07
2.99612e-07
3.07171e-07
3.12033e-07
3.1439e-07
3.14495e-07
3.12513e-07
3.08626e-07
3.03054e-07
2.96493e-07
2.88475e-07
2.78399e-07
2.66011e-07
2.52243e-07
2.37562e-07
2.22346e-07
2.0621e-07
1.8832e-07
1.67625e-07
1.44008e-07
1.17807e-07
8.92119e-08
5.86902e-08
2.69418e-08
-5.18129e-09
-3.67089e-08
-6.67048e-08
-9.44476e-08
-1.1939e-07
-1.41141e-07
-1.59357e-07
-1.73807e-07
-1.84392e-07
-1.9114e-07
-1.94221e-07
-1.93979e-07
-1.90475e-07
-1.84312e-07
-1.75945e-07
-1.65845e-07
-1.54489e-07
-1.42333e-07
-1.29789e-07
-1.23164e-07
-1.17119e-07
-1.16869e-07
-1.17299e-07
-1.16472e-07
-1.14171e-07
-1.10795e-07
-1.0682e-07
-1.02499e-07
-9.78461e-08
-9.27303e-08
-8.70244e-08
-8.068e-08
-7.37167e-08
-6.61855e-08
-5.81435e-08
-4.96463e-08
-4.07426e-08
-3.14678e-08
-2.18573e-08
-1.19602e-08
-1.83313e-09
8.47638e-09
1.89366e-08
2.94967e-08
4.01062e-08
5.07301e-08
6.13344e-08
7.19033e-08
8.24062e-08
9.2731e-08
1.02966e-07
1.13154e-07
1.23429e-07
1.33842e-07
1.44483e-07
1.55481e-07
1.66908e-07
1.78727e-07
1.90861e-07
2.0324e-07
2.15748e-07
2.28223e-07
2.40495e-07
2.52272e-07
2.63203e-07
2.72942e-07
2.80988e-07
2.87242e-07
2.91007e-07
2.93057e-07
2.93936e-07
2.94497e-07
2.95377e-07
2.96833e-07
2.99574e-07
3.02673e-07
3.05508e-07
3.05873e-07
3.01758e-07
2.92194e-07
2.77311e-07
2.57664e-07
2.33511e-07
2.0523e-07
1.74539e-07
1.41775e-07
1.07545e-07
7.27861e-08
3.83077e-08
4.7887e-09
-2.73413e-08
-5.80448e-08
-8.74475e-08
-1.14816e-07
-1.39575e-07
-1.6129e-07
-1.79591e-07
-1.94123e-07
-2.0462e-07
-2.10953e-07
-2.13125e-07
-2.11165e-07
-2.06131e-07
-1.98146e-07
-1.87724e-07
-1.75429e-07
-1.61818e-07
-1.47418e-07
-1.32709e-07
-1.64892e-07
-1.57904e-07
-1.54065e-07
-1.50745e-07
-1.46552e-07
-1.41081e-07
-1.34461e-07
-1.27071e-07
-1.19272e-07
-1.11255e-07
-1.03031e-07
-9.45163e-08
-8.56379e-08
-7.6384e-08
-6.67977e-08
-5.69454e-08
-4.68966e-08
-3.67074e-08
-2.64109e-08
-1.60248e-08
-5.56562e-09
4.94921e-09
1.55054e-08
2.60971e-08
3.6728e-08
4.73869e-08
5.80394e-08
6.86393e-08
7.91279e-08
8.94666e-08
9.97179e-08
1.09852e-07
1.19882e-07
1.29779e-07
1.39664e-07
1.49678e-07
1.59917e-07
1.7043e-07
1.81215e-07
1.92233e-07
2.03417e-07
2.14673e-07
2.25898e-07
2.36975e-07
2.47705e-07
2.57929e-07
2.67582e-07
2.7663e-07
2.84682e-07
2.91502e-07
2.96608e-07
3.00366e-07
3.0261e-07
3.04205e-07
3.04371e-07
3.03225e-07
3.00144e-07
2.93959e-07
2.84455e-07
2.71463e-07
2.55607e-07
2.38425e-07
2.21063e-07
2.0326e-07
1.84665e-07
1.64276e-07
1.41637e-07
1.14713e-07
8.29607e-08
4.73142e-08
9.2135e-09
-2.98232e-08
-6.83453e-08
-1.04784e-07
-1.38106e-07
-1.6742e-07
-1.92116e-07
-2.11775e-07
-2.26215e-07
-2.35468e-07
-2.39639e-07
-2.39072e-07
-2.34437e-07
-2.25621e-07
-2.14209e-07
-2.00691e-07
-1.8559e-07
-1.69452e-07
-1.52806e-07
-1.36144e-07
-2.18615e-07
-2.08463e-07
-2.00187e-07
-1.92856e-07
-1.85145e-07
-1.76186e-07
-1.65868e-07
-1.54595e-07
-1.428e-07
-1.30735e-07
-1.18499e-07
-1.06139e-07
-9.37062e-08
-8.12489e-08
-6.88162e-08
-5.64508e-08
-4.42002e-08
-3.21057e-08
-2.01864e-08
-8.44198e-09
3.12989e-09
1.45253e-08
2.5738e-08
3.67641e-08
4.76016e-08
5.82433e-08
6.86795e-08
7.89066e-08
8.89261e-08
9.87721e-08
1.08532e-07
1.18133e-07
1.27904e-07
1.37563e-07
1.47228e-07
1.57005e-07
1.66985e-07
1.77099e-07
1.87266e-07
1.97433e-07
2.07544e-07
2.17529e-07
2.27323e-07
2.36842e-07
2.4597e-07
2.546e-07
2.62576e-07
2.69649e-07
2.75514e-07
2.80063e-07
2.83311e-07
2.85533e-07
2.86875e-07
2.86241e-07
2.84721e-07
2.8191e-07
2.76994e-07
2.70454e-07
2.6238e-07
2.52625e-07
2.40564e-07
2.26458e-07
2.10307e-07
1.91881e-07
1.70663e-07
1.45582e-07
1.15555e-07
8.14674e-08
4.51627e-08
8.10408e-09
-2.85475e-08
-6.3852e-08
-9.72341e-08
-1.28227e-07
-1.56428e-07
-1.81503e-07
-2.03306e-07
-2.21493e-07
-2.35545e-07
-2.45006e-07
-2.49628e-07
-2.49324e-07
-2.44335e-07
-2.35528e-07
-2.2328e-07
-2.08576e-07
-1.91895e-07
-1.7409e-07
-1.55868e-07
-1.37801e-07
-2.65266e-07
-2.5604e-07
-2.47501e-07
-2.38712e-07
-2.28751e-07
-2.17118e-07
-2.03795e-07
-1.89113e-07
-1.7354e-07
-1.5751e-07
-1.41325e-07
-1.25121e-07
-1.08919e-07
-9.27386e-08
-7.66789e-08
-6.08975e-08
-4.55321e-08
-3.06683e-08
-1.63464e-08
-2.57076e-09
1.06802e-08
2.34393e-08
3.57342e-08
4.7578e-08
5.897e-08
6.99069e-08
8.03973e-08
9.0474e-08
1.00178e-07
1.09551e-07
1.18637e-07
1.27611e-07
1.36354e-07
1.45009e-07
1.53669e-07
1.6234e-07
1.71051e-07
1.7983e-07
1.88662e-07
1.97512e-07
2.06376e-07
2.15179e-07
2.23755e-07
2.31977e-07
2.39738e-07
2.46917e-07
2.53372e-07
2.58981e-07
2.63693e-07
2.67486e-07
2.7031e-07
2.72035e-07
2.72484e-07
2.71386e-07
2.68625e-07
2.6408e-07
2.58031e-07
2.49897e-07
2.39709e-07
2.27805e-07
2.13348e-07
1.96284e-07
1.76875e-07
1.55268e-07
1.31031e-07
1.03901e-07
7.48989e-08
4.53725e-08
1.55119e-08
-1.48587e-08
-4.54536e-08
-7.56718e-08
-1.04945e-07
-1.32755e-07
-1.58601e-07
-1.81959e-07
-2.02178e-07
-2.18523e-07
-2.30375e-07
-2.37389e-07
-2.39542e-07
-2.37122e-07
-2.30687e-07
-2.21017e-07
-2.08791e-07
-1.9436e-07
-1.78408e-07
-1.61504e-07
-1.4452e-07
-1.27778e-07
-3.10138e-07
-3.01795e-07
-2.94775e-07
-2.86204e-07
-2.74822e-07
-2.60646e-07
-2.44302e-07
-2.26436e-07
-2.07515e-07
-1.87899e-07
-1.67916e-07
-1.47862e-07
-1.27964e-07
-1.08362e-07
-8.91476e-08
-7.04195e-08
-5.22786e-08
-3.48068e-08
-1.8064e-08
-2.10698e-09
1.30026e-08
2.72175e-08
4.05234e-08
5.2938e-08
6.45045e-08
7.52893e-08
8.53767e-08
9.48606e-08
1.03869e-07
1.12549e-07
1.2105e-07
1.29465e-07
1.37793e-07
1.46364e-07
1.55172e-07
1.64286e-07
1.73455e-07
1.82223e-07
1.90372e-07
1.97733e-07
2.04726e-07
2.11691e-07
2.18735e-07
2.25746e-07
2.32508e-07
2.388e-07
2.44443e-07
2.49295e-07
2.53201e-07
2.55995e-07
2.57512e-07
2.576e-07
2.56116e-07
2.52925e-07
2.47888e-07
2.40875e-07
2.31829e-07
2.20714e-07
2.07522e-07
1.91694e-07
1.73683e-07
1.53303e-07
1.30998e-07
1.07057e-07
8.18611e-08
5.59878e-08
2.97548e-08
3.24877e-09
-2.34993e-08
-5.02902e-08
-7.66987e-08
-1.02184e-07
-1.26195e-07
-1.48164e-07
-1.67519e-07
-1.83764e-07
-1.96529e-07
-2.05607e-07
-2.10971e-07
-2.12743e-07
-2.11151e-07
-2.06499e-07
-1.99153e-07
-1.89522e-07
-1.78032e-07
-1.6514e-07
-1.51439e-07
-1.37427e-07
-1.232e-07
-1.09282e-07
-4.03778e-07
-3.92191e-07
-3.81052e-07
-3.67478e-07
-3.50137e-07
-3.28864e-07
-3.04471e-07
-2.78393e-07
-2.52029e-07
-2.26197e-07
-2.0101e-07
-1.76385e-07
-1.52322e-07
-1.2891e-07
-1.06317e-07
-8.47398e-08
-6.43384e-08
-4.51788e-08
-2.72274e-08
-1.04265e-08
5.2789e-09
1.99595e-08
3.36896e-08
4.65172e-08
5.84951e-08
6.97236e-08
8.03266e-08
9.04269e-08
1.00145e-07
1.09591e-07
1.18923e-07
1.28274e-07
1.37117e-07
1.44634e-07
1.50793e-07
1.5685e-07
1.64309e-07
1.73496e-07
1.83355e-07
1.92983e-07
2.01644e-07
2.09062e-07
2.15382e-07
2.20852e-07
2.25669e-07
2.29954e-07
2.33741e-07
2.3698e-07
2.39545e-07
2.41258e-07
2.41908e-07
2.41259e-07
2.39065e-07
2.35072e-07
2.29019e-07
2.20663e-07
2.09791e-07
1.96245e-07
1.79956e-07
1.60908e-07
1.39267e-07
1.15282e-07
8.92801e-08
6.18053e-08
3.33715e-08
4.7551e-09
-2.37815e-08
-5.17705e-08
-7.87958e-08
-1.04349e-07
-1.27903e-07
-1.48902e-07
-1.66874e-07
-1.8153e-07
-1.92769e-07
-2.00607e-07
-2.05166e-07
-2.06628e-07
-2.0519e-07
-2.01042e-07
-1.94399e-07
-1.8556e-07
-1.74934e-07
-1.62984e-07
-1.50186e-07
-1.36992e-07
-1.23783e-07
-1.10864e-07
-9.84756e-08
-8.68777e-08
-5.31815e-07
-5.18836e-07
-5.04836e-07
-4.87742e-07
-4.65901e-07
-4.38606e-07
-4.06456e-07
-3.71009e-07
-3.33856e-07
-2.96246e-07
-2.59372e-07
-2.24254e-07
-1.91524e-07
-1.61394e-07
-1.33793e-07
-1.08477e-07
-8.50967e-08
-6.34334e-08
-4.34791e-08
-2.52435e-08
-8.58882e-09
6.74074e-09
2.10349e-08
3.45049e-08
4.72451e-08
5.93871e-08
7.11268e-08
8.26195e-08
9.38638e-08
1.04451e-07
1.13835e-07
1.22389e-07
1.31404e-07
1.41299e-07
1.51227e-07
1.59882e-07
1.6636e-07
1.70171e-07
1.71742e-07
1.72195e-07
1.73064e-07
1.7452e-07
1.77057e-07
1.80497e-07
1.84532e-07
1.88853e-07
1.93171e-07
1.97221e-07
2.00749e-07
2.03513e-07
2.05273e-07
2.0579e-07
2.04813e-07
2.02063e-07
1.97225e-07
1.89943e-07
1.79851e-07
1.66614e-07
1.49977e-07
1.29843e-07
1.06301e-07
7.96515e-08
5.03781e-08
1.91844e-08
-1.31743e-08
-4.61001e-08
-7.85884e-08
-1.09664e-07
-1.38644e-07
-1.6464e-07
-1.87163e-07
-2.05761e-07
-2.20145e-07
-2.30202e-07
-2.35969e-07
-2.37605e-07
-2.35353e-07
-2.29515e-07
-2.20476e-07
-2.08748e-07
-1.94947e-07
-1.79759e-07
-1.63845e-07
-1.47761e-07
-1.31977e-07
-1.16898e-07
-1.028e-07
-8.98536e-08
-7.81974e-08
-6.79036e-08
-6.52839e-07
-6.47267e-07
-6.37977e-07
-6.23129e-07
-6.01194e-07
-5.71389e-07
-5.34214e-07
-4.91303e-07
-4.4479e-07
-3.96838e-07
-3.49241e-07
-3.03157e-07
-2.59211e-07
-2.17847e-07
-1.79544e-07
-1.4484e-07
-1.14206e-07
-8.77414e-08
-6.50163e-08
-4.50988e-08
-2.69191e-08
-9.89956e-09
6.03796e-09
2.09898e-08
3.52021e-08
4.89522e-08
6.24839e-08
7.55104e-08
8.72778e-08
9.79641e-08
1.0849e-07
1.17898e-07
1.23833e-07
1.23926e-07
1.19318e-07
1.13224e-07
1.0787e-07
1.04065e-07
1.01629e-07
1.00408e-07
1.00646e-07
1.02014e-07
1.04644e-07
1.08539e-07
1.13503e-07
1.19199e-07
1.2522e-07
1.31142e-07
1.36566e-07
1.41146e-07
1.44604e-07
1.46723e-07
1.47335e-07
1.46277e-07
1.43345e-07
1.38249e-07
1.30585e-07
1.19857e-07
1.05566e-07
8.73075e-08
6.49064e-08
3.84831e-08
8.48694e-09
-2.43197e-08
-5.89637e-08
-9.43696e-08
-1.29442e-07
-1.63311e-07
-1.94723e-07
-2.22676e-07
-2.46611e-07
-2.65637e-07
-2.79465e-07
-2.87882e-07
-2.90834e-07
-2.88465e-07
-2.81096e-07
-2.69248e-07
-2.5365e-07
-2.35151e-07
-2.14633e-07
-1.9298e-07
-1.71021e-07
-1.49488e-07
-1.29044e-07
-1.102e-07
-9.32412e-08
-7.83361e-08
-6.55854e-08
-5.48967e-08
-7.48654e-07
-7.52778e-07
-7.5098e-07
-7.41445e-07
-7.22806e-07
-6.94455e-07
-6.56981e-07
-6.11894e-07
-5.61082e-07
-5.06454e-07
-4.49773e-07
-3.92689e-07
-3.36943e-07
-2.8437e-07
-2.36431e-07
-1.93825e-07
-1.56433e-07
-1.23597e-07
-9.45024e-08
-6.84193e-08
-4.48967e-08
-2.38151e-08
-5.26234e-09
1.10842e-08
2.61326e-08
4.03845e-08
5.38782e-08
6.68403e-08
7.81764e-08
8.46214e-08
8.34663e-08
7.65292e-08
6.63831e-08
5.45667e-08
4.16851e-08
2.88216e-08
1.73541e-08
8.35812e-09
2.4771e-09
9.02725e-11
8.38485e-12
3.5671e-09
9.99587e-09
1.8604e-08
2.86584e-08
3.94105e-08
5.01428e-08
6.02064e-08
6.90519e-08
7.62517e-08
8.15145e-08
8.46928e-08
8.57844e-08
8.49137e-08
8.22616e-08
7.79176e-08
7.17317e-08
6.3259e-08
5.18181e-08
3.66637e-08
1.71925e-08
-6.84893e-09
-3.52549e-08
-6.73681e-08
-1.02184e-07
-1.38489e-07
-1.74971e-07
-2.10329e-07
-2.43401e-07
-2.73419e-07
-2.9907e-07
-3.19488e-07
-3.34123e-07
-3.42606e-07
-3.44874e-07
-3.40988e-07
-3.31258e-07
-3.16247e-07
-2.96708e-07
-2.73531e-07
-2.47745e-07
-2.20476e-07
-1.92808e-07
-1.65732e-07
-1.40141e-07
-1.16703e-07
-9.58324e-08
-7.78148e-08
-6.27571e-08
-5.04764e-08
-8.19518e-07
-8.31735e-07
-8.36399e-07
-8.31958e-07
-8.17234e-07
-7.91859e-07
-7.56406e-07
-7.12038e-07
-6.60245e-07
-6.02775e-07
-5.41578e-07
-4.78727e-07
-4.1626e-07
-3.55915e-07
-2.98943e-07
-2.46124e-07
-1.98002e-07
-1.55024e-07
-1.17501e-07
-8.57247e-08
-5.97473e-08
-3.8629e-08
-2.04912e-08
-3.90725e-09
1.14803e-08
2.54996e-08
3.6253e-08
4.03599e-08
3.64621e-08
2.55355e-08
9.44267e-09
-1.01387e-08
-3.13646e-08
-5.23187e-08
-7.13107e-08
-8.70044e-08
-9.84789e-08
-1.05266e-07
-1.07393e-07
-1.04988e-07
-9.80108e-08
-8.73705e-08
-7.37977e-08
-5.81376e-08
-4.13124e-08
-2.42593e-08
-7.87182e-09
7.0594e-09
1.98967e-08
3.01852e-08
3.76623e-08
4.22347e-08
4.39162e-08
4.27846e-08
3.90292e-08
3.3037e-08
2.52845e-08
1.60067e-08
4.91319e-09
-8.77748e-09
-2.60244e-08
-4.75844e-08
-7.37181e-08
-1.04087e-07
-1.37807e-07
-1.73643e-07
-2.10206e-07
-2.46094e-07
-2.79985e-07
-3.10668e-07
-3.3719e-07
-3.58951e-07
-3.74789e-07
-3.844e-07
-3.87365e-07
-3.83746e-07
-3.73757e-07
-3.5784e-07
-3.36699e-07
-3.11253e-07
-2.82601e-07
-2.51939e-07
-2.20457e-07
-1.89327e-07
-1.59629e-07
-1.32208e-07
-1.07676e-07
-8.64776e-08
-6.87621e-08
-5.43833e-08
-8.59589e-07
-8.76597e-07
-8.8531e-07
-8.84495e-07
-8.73396e-07
-8.5179e-07
-8.20001e-07
-7.78774e-07
-7.29175e-07
-6.72574e-07
-6.10617e-07
-5.45164e-07
-4.78222e-07
-4.11874e-07
-3.48216e-07
-2.89247e-07
-2.36611e-07
-1.91268e-07
-1.53143e-07
-1.21157e-07
-9.39797e-08
-7.06651e-08
-5.04531e-08
-3.31661e-08
-2.0593e-08
-1.59133e-08
-2.03967e-08
-3.2755e-08
-5.12336e-08
-7.42828e-08
-1.00077e-07
-1.26518e-07
-1.51593e-07
-1.73634e-07
-1.914e-07
-2.04069e-07
-2.11233e-07
-2.12849e-07
-2.08784e-07
-1.99834e-07
-1.86374e-07
-1.69125e-07
-1.48929e-07
-1.26732e-07
-1.03549e-07
-8.04146e-08
-5.83358e-08
-3.82204e-08
-2.08144e-08
-6.66214e-09
3.92101e-09
1.08636e-08
1.43274e-08
1.4682e-08
1.23897e-08
7.76427e-09
8.82529e-10
-8.23916e-09
-1.9597e-08
-3.34241e-08
-5.03056e-08
-7.09706e-08
-9.59057e-08
-1.25057e-07
-1.57768e-07
-1.92906e-07
-2.29082e-07
-2.64876e-07
-2.98952e-07
-3.30095e-07
-3.57232e-07
-3.79527e-07
-3.96403e-07
-4.07024e-07
-4.11205e-07
-4.08731e-07
-3.99721e-07
-3.84533e-07
-3.63752e-07
-3.38195e-07
-3.08902e-07
-2.77036e-07
-2.43815e-07
-2.10489e-07
-1.78236e-07
-1.48016e-07
-1.2059e-07
-9.65293e-08
-7.60904e-08
-5.92549e-08
-8.44129e-07
-8.63224e-07
-8.73743e-07
-8.75175e-07
-8.66845e-07
-8.48526e-07
-8.20446e-07
-7.83159e-07
-7.37538e-07
-6.84796e-07
-6.26522e-07
-5.64655e-07
-5.01375e-07
-4.38911e-07
-3.79308e-07
-3.24174e-07
-2.74518e-07
-2.30781e-07
-1.92938e-07
-1.6056e-07
-1.33017e-07
-1.10409e-07
-9.44259e-08
-8.71141e-08
-8.87097e-08
-9.79975e-08
-1.13881e-07
-1.35431e-07
-1.61289e-07
-1.89613e-07
-2.18361e-07
-2.45601e-07
-2.69707e-07
-2.89439e-07
-3.03923e-07
-3.12606e-07
-3.151e-07
-3.12488e-07
-3.04368e-07
-2.91012e-07
-2.7296e-07
-2.5088e-07
-2.25583e-07
-1.97997e-07
-1.69159e-07
-1.40182e-07
-1.1222e-07
-8.63852e-08
-6.36107e-08
-4.45758e-08
-2.96727e-08
-1.89351e-08
-1.20621e-08
-8.67559e-09
-8.40513e-09
-1.06427e-08
-1.46718e-08
-2.03368e-08
-2.82695e-08
-3.93566e-08
-5.42867e-08
-7.35146e-08
-9.72741e-08
-1.25419e-07
-1.57296e-07
-1.91787e-07
-2.27507e-07
-2.63008e-07
-2.96932e-07
-3.28092e-07
-3.55475e-07
-3.78218e-07
-3.95635e-07
-4.072e-07
-4.12518e-07
-4.1142e-07
-4.0393e-07
-3.90273e-07
-3.7094e-07
-3.4667e-07
-3.18388e-07
-2.87143e-07
-2.54103e-07
-2.20505e-07
-1.87502e-07
-1.56079e-07
-1.27123e-07
-1.01359e-07
-7.91804e-08
-6.07098e-08
-7.6618e-07
-7.84634e-07
-7.95983e-07
-7.98748e-07
-7.9369e-07
-7.7968e-07
-7.56818e-07
-7.25647e-07
-6.87082e-07
-6.42378e-07
-5.93083e-07
-5.40948e-07
-4.87798e-07
-4.35395e-07
-3.85266e-07
-3.38586e-07
-2.96126e-07
-2.58355e-07
-2.25774e-07
-1.99228e-07
-1.79759e-07
-1.67917e-07
-1.63352e-07
-1.65528e-07
-1.7437e-07
-1.89835e-07
-2.1131e-07
-2.37484e-07
-2.66544e-07
-2.96489e-07
-3.25415e-07
-3.51696e-07
-3.74054e-07
-3.91549e-07
-4.03495e-07
-4.09374e-07
-4.10261e-07
-4.04293e-07
-3.92338e-07
-3.74672e-07
-3.51725e-07
-3.24187e-07
-2.92981e-07
-2.59238e-07
-2.24214e-07
-1.89188e-07
-1.55422e-07
-1.24123e-07
-9.62839e-08
-7.25619e-08
-5.33894e-08
-3.90692e-08
-2.95493e-08
-2.41774e-08
-2.19843e-08
-2.21419e-08
-2.39477e-08
-2.68313e-08
-3.08842e-08
-3.71715e-08
-4.71896e-08
-6.20863e-08
-8.23444e-08
-1.07792e-07
-1.37665e-07
-1.70717e-07
-2.05418e-07
-2.40201e-07
-2.7363e-07
-3.04482e-07
-3.31758e-07
-3.54655e-07
-3.72518e-07
-3.84819e-07
-3.9117e-07
-3.91534e-07
-3.85756e-07
-3.7404e-07
-3.56742e-07
-3.34491e-07
-3.08111e-07
-2.78601e-07
-2.47093e-07
-2.14751e-07
-1.82676e-07
-1.51913e-07
-1.23423e-07
-9.79155e-08
-7.57764e-08
-5.72113e-08
-6.24608e-07
-6.40633e-07
-6.53084e-07
-6.60264e-07
-6.60404e-07
-6.53681e-07
-6.39995e-07
-6.19409e-07
-5.92641e-07
-5.60662e-07
-5.24653e-07
-4.8593e-07
-4.45854e-07
-4.0589e-07
-3.67276e-07
-3.31165e-07
-2.98623e-07
-2.70605e-07
-2.47818e-07
-2.30641e-07
-2.19335e-07
-2.14258e-07
-2.15866e-07
-2.24525e-07
-2.40213e-07
-2.62255e-07
-2.89321e-07
-3.19642e-07
-3.51267e-07
-3.82309e-07
-4.11099e-07
-4.36268e-07
-4.56761e-07
-4.71798e-07
-4.80873e-07
-4.83828e-07
-4.79636e-07
-4.68974e-07
-4.51944e-07
-4.2888e-07
-4.00399e-07
-3.67378e-07
-3.30912e-07
-2.92281e-07
-2.52919e-07
-2.14274e-07
-1.77635e-07
-1.44106e-07
-1.14544e-07
-8.93786e-08
-6.86825e-08
-5.23457e-08
-4.00163e-08
-3.13664e-08
-2.64088e-08
-2.49544e-08
-2.59636e-08
-2.79394e-08
-2.9989e-08
-3.25809e-08
-3.73366e-08
-4.61161e-08
-6.02236e-08
-8.01078e-08
-1.05349e-07
-1.348e-07
-1.66852e-07
-1.99749e-07
-2.3186e-07
-2.61811e-07
-2.88513e-07
-3.11138e-07
-3.29073e-07
-3.41863e-07
-3.49135e-07
-3.50639e-07
-3.46752e-07
-3.37255e-07
-3.22536e-07
-3.03059e-07
-2.79538e-07
-2.5287e-07
-2.24058e-07
-1.94161e-07
-1.64247e-07
-1.35341e-07
-1.08309e-07
-8.37884e-08
-6.22428e-08
-4.23795e-07
-4.33354e-07
-4.42741e-07
-4.49987e-07
-4.54649e-07
-4.56185e-07
-4.51747e-07
-4.42593e-07
-4.28914e-07
-4.11172e-07
-3.90085e-07
-3.66529e-07
-3.40904e-07
-3.15808e-07
-2.91421e-07
-2.68773e-07
-2.48819e-07
-2.3242e-07
-2.20401e-07
-2.13583e-07
-2.12792e-07
-2.18698e-07
-2.31615e-07
-2.51338e-07
-2.77076e-07
-3.07505e-07
-3.40938e-07
-3.75524e-07
-4.09458e-07
-4.41116e-07
-4.69141e-07
-4.92467e-07
-5.10325e-07
-5.22179e-07
-5.2741e-07
-5.25869e-07
-5.17364e-07
-5.02042e-07
-4.80233e-07
-4.52473e-07
-4.1952e-07
-3.82376e-07
-3.42264e-07
-3.00519e-07
-2.58568e-07
-2.17926e-07
-1.79978e-07
-1.45795e-07
-1.16194e-07
-9.16585e-08
-7.21234e-08
-5.70648e-08
-4.57373e-08
-3.72443e-08
-3.09381e-08
-2.69604e-08
-2.56663e-08
-2.63787e-08
-2.75726e-08
-2.83579e-08
-2.94246e-08
-3.25959e-08
-3.97213e-08
-5.199e-08
-6.97904e-08
-9.26677e-08
-1.19403e-07
-1.48299e-07
-1.77548e-07
-2.05523e-07
-2.30909e-07
-2.5272e-07
-2.70266e-07
-2.83096e-07
-2.90928e-07
-2.93553e-07
-2.9085e-07
-2.83592e-07
-2.71528e-07
-2.55176e-07
-2.35086e-07
-2.1199e-07
-1.86732e-07
-1.60234e-07
-1.33443e-07
-1.0726e-07
-8.2474e-08
-5.97482e-08
-3.96347e-08
-1.96522e-07
-1.94656e-07
-1.95207e-07
-1.96536e-07
-1.97445e-07
-1.96348e-07
-1.97356e-07
-1.95736e-07
-1.91817e-07
-1.85827e-07
-1.78124e-07
-1.69213e-07
-1.59766e-07
-1.50685e-07
-1.4277e-07
-1.36932e-07
-1.3411e-07
-1.35232e-07
-1.41092e-07
-1.52357e-07
-1.69416e-07
-1.92313e-07
-2.20672e-07
-2.53677e-07
-2.90122e-07
-3.28524e-07
-3.67286e-07
-4.04839e-07
-4.3976e-07
-4.70839e-07
-4.97085e-07
-5.17749e-07
-5.32345e-07
-5.4025e-07
-5.41385e-07
-5.35558e-07
-5.22883e-07
-5.0362e-07
-4.78203e-07
-4.47281e-07
-4.11682e-07
-3.72399e-07
-3.30662e-07
-2.87844e-07
-2.4527e-07
-2.04264e-07
-1.66139e-07
-1.31929e-07
-1.0234e-07
-7.78083e-08
-5.8501e-08
-4.44086e-08
-3.5019e-08
-2.89486e-08
-2.47593e-08
-2.19637e-08
-2.07736e-08
-2.11573e-08
-2.23174e-08
-2.31708e-08
-2.33216e-08
-2.35081e-08
-2.53136e-08
-3.04114e-08
-3.9817e-08
-5.38669e-08
-7.23243e-08
-9.42742e-08
-1.18236e-07
-1.42509e-07
-1.65514e-07
-1.85961e-07
-2.02886e-07
-2.15636e-07
-2.23835e-07
-2.27328e-07
-2.26057e-07
-2.19998e-07
-2.10084e-07
-1.96438e-07
-1.79603e-07
-1.60172e-07
-1.3883e-07
-1.16331e-07
-9.34528e-08
-7.09584e-08
-4.95561e-08
-2.98744e-08
-1.2425e-08
-5.81968e-09
8.85827e-09
1.9318e-08
2.63783e-08
3.10318e-08
3.40026e-08
3.64482e-08
3.6709e-08
3.58008e-08
3.41085e-08
3.16729e-08
2.82998e-08
2.36177e-08
1.71269e-08
8.25143e-09
-3.62069e-09
-1.90904e-08
-3.86919e-08
-6.27939e-08
-9.15329e-08
-1.24747e-07
-1.61939e-07
-2.02288e-07
-2.44706e-07
-2.87926e-07
-3.3061e-07
-3.7146e-07
-4.09284e-07
-4.43043e-07
-4.71934e-07
-4.95442e-07
-5.12544e-07
-5.23113e-07
-5.26951e-07
-5.23955e-07
-5.14212e-07
-4.97916e-07
-4.75434e-07
-4.47314e-07
-4.14312e-07
-3.774e-07
-3.37672e-07
-2.96352e-07
-2.54793e-07
-2.14302e-07
-1.76092e-07
-1.41249e-07
-1.10499e-07
-8.42324e-08
-6.25948e-08
-4.52375e-08
-3.1516e-08
-2.13095e-08
-1.48664e-08
-1.16151e-08
-1.02369e-08
-9.93408e-09
-1.06434e-08
-1.22169e-08
-1.40053e-08
-1.52934e-08
-1.59244e-08
-1.62715e-08
-1.70831e-08
-1.97102e-08
-2.55361e-08
-3.49727e-08
-4.77251e-08
-6.33299e-08
-8.09291e-08
-9.92058e-08
-1.16748e-07
-1.32292e-07
-1.44844e-07
-1.53725e-07
-1.5857e-07
-1.59272e-07
-1.55935e-07
-1.48615e-07
-1.38e-07
-1.2448e-07
-1.08571e-07
-9.09117e-08
-7.21683e-08
-5.30215e-08
-3.41312e-08
-1.6107e-08
5.20211e-10
1.53236e-08
1.21312e-07
1.4067e-07
1.56679e-07
1.69191e-07
1.78366e-07
1.84783e-07
1.87716e-07
1.87648e-07
1.84814e-07
1.79334e-07
1.71207e-07
1.60322e-07
1.46479e-07
1.29407e-07
1.08818e-07
8.44542e-08
5.61508e-08
2.3882e-08
-1.21936e-08
-5.17011e-08
-9.40502e-08
-1.38444e-07
-1.8392e-07
-2.29423e-07
-2.73851e-07
-3.16126e-07
-3.55252e-07
-3.90325e-07
-4.20632e-07
-4.45762e-07
-4.64853e-07
-4.77997e-07
-4.84544e-07
-4.84539e-07
-4.78069e-07
-4.65288e-07
-4.46495e-07
-4.2216e-07
-3.92925e-07
-3.59622e-07
-3.23318e-07
-2.8524e-07
-2.46699e-07
-2.09012e-07
-1.73317e-07
-1.40527e-07
-1.11377e-07
-8.62449e-08
-6.52311e-08
-4.8391e-08
-3.52698e-08
-2.48047e-08
-1.6299e-08
-9.78627e-09
-5.37656e-09
-2.83125e-09
-1.64661e-09
-1.42536e-09
-2.03711e-09
-3.37509e-09
-5.09427e-09
-6.61943e-09
-7.65597e-09
-8.48629e-09
-9.25234e-09
-9.74841e-09
-1.10343e-08
-1.52683e-08
-2.29948e-08
-3.30343e-08
-4.38671e-08
-5.49572e-08
-6.59433e-08
-7.59962e-08
-8.41557e-08
-8.9697e-08
-9.2216e-08
-9.15631e-08
-8.77993e-08
-8.09622e-08
-7.1652e-08
-5.9993e-08
-4.66134e-08
-3.2071e-08
-1.69471e-08
-1.80701e-09
1.28244e-08
2.64832e-08
3.87848e-08
1.73983e-07
1.97042e-07
2.16232e-07
2.30816e-07
2.41336e-07
2.47556e-07
2.5048e-07
2.50004e-07
2.46221e-07
2.39092e-07
2.28506e-07
2.14328e-07
1.96429e-07
1.74704e-07
1.49103e-07
1.19665e-07
8.65466e-08
5.00401e-08
1.05842e-08
-3.12323e-08
-7.46744e-08
-1.18886e-07
-1.6295e-07
-2.05913e-07
-2.46858e-07
-2.84946e-07
-3.1943e-07
-3.498e-07
-3.75444e-07
-3.95624e-07
-4.10067e-07
-4.18602e-07
-4.21214e-07
-4.17937e-07
-4.08937e-07
-3.9453e-07
-3.75171e-07
-3.51487e-07
-3.24245e-07
-2.94283e-07
-2.62509e-07
-2.2987e-07
-1.97337e-07
-1.6595e-07
-1.36643e-07
-1.10077e-07
-8.67175e-08
-6.6706e-08
-4.9826e-08
-3.59417e-08
-2.50523e-08
-1.67868e-08
-1.0346e-08
-5.10723e-09
-9.36987e-10
2.14704e-09
4.21668e-09
5.38914e-09
5.78962e-09
5.51549e-09
4.66378e-09
3.38457e-09
1.91318e-09
5.71567e-10
-4.8049e-10
-1.4858e-09
-2.51825e-09
-2.9828e-09
-2.52822e-09
-1.97094e-09
-3.53727e-09
-8.43085e-09
-1.52365e-08
-2.18752e-08
-2.69755e-08
-3.00657e-08
-3.12486e-08
-3.06497e-08
-2.82751e-08
-2.40555e-08
-1.78928e-08
-1.05702e-08
-1.53918e-09
8.60978e-09
1.94489e-08
3.05475e-08
4.14852e-08
5.18789e-08
6.13993e-08
1.58918e-07
1.83912e-07
2.06421e-07
2.25137e-07
2.38859e-07
2.47903e-07
2.52715e-07
2.53449e-07
2.50176e-07
2.42961e-07
2.31882e-07
2.17028e-07
1.98487e-07
1.7635e-07
1.50741e-07
1.21855e-07
8.99798e-08
5.55062e-08
1.89282e-08
-1.91554e-08
-5.80527e-08
-9.70058e-08
-1.35238e-07
-1.71999e-07
-2.06532e-07
-2.3836e-07
-2.66626e-07
-2.90832e-07
-3.10572e-07
-3.25497e-07
-3.35472e-07
-3.40424e-07
-3.40367e-07
-3.35438e-07
-3.25955e-07
-3.12404e-07
-2.95341e-07
-2.75361e-07
-2.5314e-07
-2.29443e-07
-2.05091e-07
-1.8083e-07
-1.57218e-07
-1.34685e-07
-1.13582e-07
-9.41417e-08
-7.65787e-08
-6.10467e-08
-4.74601e-08
-3.56237e-08
-2.54281e-08
-1.67499e-08
-9.43461e-09
-3.43539e-09
1.31453e-09
5.03253e-09
7.93858e-09
1.01148e-08
1.15156e-08
1.21186e-08
1.20342e-08
1.14527e-08
1.05334e-08
9.37658e-09
8.14489e-09
7.15272e-09
6.56675e-09
6.00486e-09
5.04214e-09
4.09339e-09
3.90114e-09
5.36781e-09
7.55843e-09
1.00633e-08
1.24673e-08
1.4378e-08
1.5865e-08
1.73992e-08
1.95639e-08
2.27924e-08
2.73561e-08
3.35791e-08
4.02887e-08
4.76325e-08
5.53913e-08
6.33163e-08
7.11603e-08
7.8686e-08
8.56812e-08
1.23989e-07
1.47684e-07
1.696e-07
1.8826e-07
2.02838e-07
2.13152e-07
2.19459e-07
2.22089e-07
2.21243e-07
2.16951e-07
2.09153e-07
1.978e-07
1.82921e-07
1.64638e-07
1.43159e-07
1.18785e-07
9.19021e-08
6.29653e-08
3.24744e-08
9.71214e-10
-3.0918e-08
-6.23839e-08
-9.26445e-08
-1.21906e-07
-1.49036e-07
-1.73625e-07
-1.95201e-07
-2.13336e-07
-2.27944e-07
-2.38923e-07
-2.46249e-07
-2.50027e-07
-2.50416e-07
-2.47552e-07
-2.41583e-07
-2.32805e-07
-2.21697e-07
-2.08824e-07
-1.94682e-07
-1.7966e-07
-1.64116e-07
-1.48442e-07
-1.32989e-07
-1.18022e-07
-1.03732e-07
-9.01885e-08
-7.74158e-08
-6.55022e-08
-5.4516e-08
-4.44499e-08
-3.52967e-08
-2.70288e-08
-1.95234e-08
-1.26241e-08
-6.2974e-09
-6.71206e-10
4.12471e-09
8.06372e-09
1.11776e-08
1.34902e-08
1.50145e-08
1.58051e-08
1.59934e-08
1.57527e-08
1.52677e-08
1.4746e-08
1.43885e-08
1.43344e-08
1.47316e-08
1.56737e-08
1.69203e-08
1.75016e-08
1.79526e-08
1.89797e-08
2.11133e-08
2.44789e-08
2.89009e-08
3.39317e-08
3.94142e-08
4.51777e-08
5.11307e-08
5.71201e-08
6.34012e-08
6.98071e-08
7.62691e-08
8.2689e-08
8.89524e-08
9.49383e-08
1.0053e-07
1.01134e-07
1.21649e-07
1.41124e-07
1.58513e-07
1.72944e-07
1.83908e-07
1.91392e-07
1.95671e-07
1.9702e-07
1.95568e-07
1.91294e-07
1.84124e-07
1.74041e-07
1.61147e-07
1.45638e-07
1.2779e-07
1.07949e-07
8.64942e-08
6.38113e-08
4.04009e-08
1.6722e-08
-7.29358e-09
-3.12573e-08
-5.41509e-08
-7.58736e-08
-9.56405e-08
-1.13369e-07
-1.28844e-07
-1.41907e-07
-1.52523e-07
-1.60706e-07
-1.66531e-07
-1.70183e-07
-1.71924e-07
-1.71971e-07
-1.70449e-07
-1.67435e-07
-1.63019e-07
-1.57388e-07
-1.50743e-07
-1.43202e-07
-1.34846e-07
-1.25784e-07
-1.16191e-07
-1.06308e-07
-9.63907e-08
-8.66216e-08
-7.71219e-08
-6.79625e-08
-5.91499e-08
-5.06635e-08
-4.25194e-08
-3.47664e-08
-2.74318e-08
-2.05139e-08
-1.40029e-08
-7.90692e-09
-2.26973e-09
2.81606e-09
7.2417e-09
1.09202e-08
1.38179e-08
1.59461e-08
1.73691e-08
1.82619e-08
1.88581e-08
1.9372e-08
1.99924e-08
2.08543e-08
2.20706e-08
2.37183e-08
2.57586e-08
2.83341e-08
3.13834e-08
3.47442e-08
3.82644e-08
4.18711e-08
4.57419e-08
4.99156e-08
5.4562e-08
5.97122e-08
6.52638e-08
7.11263e-08
7.71774e-08
8.32852e-08
8.93195e-08
9.51595e-08
1.00702e-07
1.05848e-07
9.14147e-08
1.0871e-07
1.25393e-07
1.40777e-07
1.54055e-07
1.64731e-07
1.72778e-07
1.78425e-07
1.81868e-07
1.83176e-07
1.82322e-07
1.79233e-07
1.73845e-07
1.66159e-07
1.56279e-07
1.44377e-07
1.30652e-07
1.15245e-07
9.83228e-08
8.03687e-08
6.14022e-08
4.22502e-08
2.30073e-08
4.31205e-09
-1.36825e-08
-3.08167e-08
-4.69549e-08
-6.19705e-08
-7.57305e-08
-8.81401e-08
-9.91466e-08
-1.08726e-07
-1.16911e-07
-1.23755e-07
-1.29256e-07
-1.33395e-07
-1.36171e-07
-1.37576e-07
-1.37588e-07
-1.36256e-07
-1.33745e-07
-1.30287e-07
-1.26087e-07
-1.21274e-07
-1.15909e-07
-1.10025e-07
-1.03642e-07
-9.67741e-08
-8.94589e-08
-8.17483e-08
-7.37071e-08
-6.54203e-08
-5.69963e-08
-4.85556e-08
-4.02319e-08
-3.21368e-08
-2.44065e-08
-1.70961e-08
-1.03557e-08
-4.09772e-09
1.56467e-09
6.54031e-09
1.08015e-08
1.43848e-08
1.73664e-08
1.98782e-08
2.20883e-08
2.41346e-08
2.61484e-08
2.82404e-08
3.04763e-08
3.29131e-08
3.55172e-08
3.8311e-08
4.13949e-08
4.47774e-08
4.84967e-08
5.25474e-08
5.69094e-08
6.16137e-08
6.64232e-08
7.13892e-08
7.65121e-08
8.17254e-08
8.69514e-08
9.21306e-08
9.71888e-08
1.02049e-07
1.0665e-07
8.23508e-08
9.97431e-08
1.16259e-07
1.31233e-07
1.44165e-07
1.54854e-07
1.63379e-07
1.69942e-07
1.7471e-07
1.77743e-07
1.78985e-07
1.78334e-07
1.75704e-07
1.71069e-07
1.64458e-07
1.55931e-07
1.45718e-07
1.33941e-07
1.20971e-07
1.06722e-07
9.16786e-08
7.5882e-08
5.96279e-08
4.32234e-08
2.69566e-08
1.1097e-08
-4.17079e-09
-1.87193e-08
-3.24683e-08
-4.53694e-08
-5.73886e-08
-6.85387e-08
-7.8848e-08
-8.83095e-08
-9.68843e-08
-1.04523e-07
-1.11264e-07
-1.17202e-07
-1.22406e-07
-1.2685e-07
-1.30404e-07
-1.32924e-07
-1.34246e-07
-1.342e-07
-1.327e-07
-1.29774e-07
-1.25505e-07
-1.19983e-07
-1.13325e-07
-1.05701e-07
-9.73037e-08
-8.8292e-08
-7.88182e-08
-6.89895e-08
-5.93105e-08
-4.95567e-08
-3.99594e-08
-3.07443e-08
-2.19575e-08
-1.38806e-08
-6.56135e-09
-2.13553e-11
5.7007e-09
1.06133e-08
1.47947e-08
1.83776e-08
2.15341e-08
2.44502e-08
2.72982e-08
3.02215e-08
3.3335e-08
3.6717e-08
4.03784e-08
4.43446e-08
4.85576e-08
5.29375e-08
5.74001e-08
6.18765e-08
6.63118e-08
7.06339e-08
7.50734e-08
7.95694e-08
8.40731e-08
8.85449e-08