/*--------------------------------*- C++ -*----------------------------------*\
| =========                 |                                                 |
| \\      /  F ield         | OpenFOAM: The Open Source CFD Toolbox           |
|  \\    /   O peration     | Version:  2312                                  |
|   \\  /    A nd           | Website:  www.openfoam.com                      |
|    \\/     M anipulation  |                                                 |
\*---------------------------------------------------------------------------*/
FoamFile
{
    version     2.0;
    format      ascii;
    arch        "LSB;label=32;scalar=64";
    class       volScalarField;
    location    "117000";
    object      p;
}
// * * * * * * * * * * * * * * * * * * * * * * * * * * * * * * * * * * * * * //

dimensions      [0 2 -2 0 0 0 0];

internalField   nonuniform List<scalar> 
2715
(
3.72479e-07
3.21907e-07
3.00874e-07
2.83261e-07
2.65584e-07
2.47797e-07
2.27906e-07
2.06711e-07
1.81942e-07
1.55361e-07
1.24413e-07
9.20925e-08
5.53217e-08
1.84882e-08
-2.2234e-08
-6.09776e-08
-1.02946e-07
-1.40663e-07
-1.81243e-07
-2.15393e-07
-2.5253e-07
-2.81426e-07
-3.14006e-07
-3.36466e-07
-3.64795e-07
-3.78707e-07
-4.07125e-07
-4.08063e-07
-4.42826e-07
-5.44004e-07
3.58549e-07
3.03418e-07
2.89369e-07
2.74341e-07
2.57347e-07
2.39978e-07
2.20397e-07
1.99359e-07
1.74788e-07
1.48574e-07
1.18264e-07
8.68094e-08
5.12179e-08
1.57146e-08
-2.34749e-08
-6.07445e-08
-1.00913e-07
-1.37138e-07
-1.75861e-07
-2.09022e-07
-2.44818e-07
-2.73018e-07
-3.05396e-07
-3.27196e-07
-3.56142e-07
-3.70675e-07
-3.95967e-07
-4.10172e-07
-4.16526e-07
-5.64323e-07
3.4633e-07
3.00949e-07
2.87935e-07
2.73403e-07
2.55912e-07
2.37552e-07
2.1745e-07
1.96071e-07
1.71452e-07
1.45114e-07
1.15042e-07
8.36911e-08
4.86641e-08
1.35251e-08
-2.47601e-08
-6.14187e-08
-1.00578e-07
-1.3642e-07
-1.74536e-07
-2.07274e-07
-2.42604e-07
-2.70664e-07
-3.01795e-07
-3.25268e-07
-3.51341e-07
-3.71942e-07
-3.9108e-07
-4.19687e-07
-4.01735e-07
-5.02984e-07
3.36124e-07
2.9682e-07
2.81719e-07
2.67707e-07
2.50914e-07
2.33171e-07
2.13259e-07
1.91721e-07
1.67155e-07
1.40672e-07
1.10927e-07
7.96099e-08
4.53386e-08
1.04299e-08
-2.66404e-08
-6.30498e-08
-1.00667e-07
-1.36371e-07
-1.72319e-07
-2.05522e-07
-2.38049e-07
-2.68257e-07
-2.96382e-07
-3.23199e-07
-3.45038e-07
-3.71736e-07
-3.8139e-07
-4.19571e-07
-3.96857e-07
-4.64928e-07
3.26266e-07
2.94198e-07
2.78235e-07
2.6537e-07
2.49131e-07
2.30594e-07
2.10161e-07
1.88059e-07
1.63453e-07
1.36568e-07
1.0707e-07
7.54963e-08
4.19156e-08
6.93762e-09
-2.89481e-08
-6.53548e-08
-1.01334e-07
-1.37145e-07
-1.71117e-07
-2.05028e-07
-2.35435e-07
-2.67001e-07
-2.92192e-07
-3.2183e-07
-3.39658e-07
-3.69845e-07
-3.76188e-07
-4.11739e-07
-4.02473e-07
-4.37666e-07
3.1763e-07
2.9244e-07
2.75656e-07
2.6232e-07
2.46345e-07
2.2771e-07
2.07094e-07
1.84507e-07
1.59776e-07
1.32465e-07
1.03085e-07
7.12104e-08
3.81499e-08
3.0626e-09
-3.18262e-08
-6.82198e-08
-1.02743e-07
-1.38617e-07
-1.70835e-07
-2.05085e-07
-2.33542e-07
-2.65737e-07
-2.89168e-07
-3.19562e-07
-3.36446e-07
-3.65783e-07
-3.75134e-07
-4.02752e-07
-4.07896e-07
-4.25301e-07
3.10557e-07
2.90897e-07
2.7402e-07
2.59816e-07
2.43951e-07
2.25249e-07
2.04382e-07
1.81226e-07
1.56189e-07
1.28405e-07
9.89536e-08
6.67891e-08
3.40038e-08
-1.10017e-09
-3.53101e-08
-7.14595e-08
-1.0497e-07
-1.40458e-07
-1.71555e-07
-2.05328e-07
-2.32875e-07
-2.64447e-07
-2.87732e-07
-3.16868e-07
-3.35368e-07
-3.61462e-07
-3.75681e-07
-3.96863e-07
-4.09086e-07
-4.22229e-07
3.05279e-07
2.89457e-07
2.73088e-07
2.5791e-07
2.41799e-07
2.22942e-07
2.01758e-07
1.78043e-07
1.52533e-07
1.24293e-07
9.4575e-08
6.22029e-08
2.94323e-08
-5.52813e-09
-3.94013e-08
-7.50238e-08
-1.07991e-07
-1.42623e-07
-1.73227e-07
-2.05844e-07
-2.33326e-07
-2.63385e-07
-2.87486e-07
-3.14486e-07
-3.35179e-07
-3.58282e-07
-3.75963e-07
-3.94079e-07
-4.08859e-07
-4.21386e-07
3.01874e-07
2.88111e-07
2.72399e-07
2.56561e-07
2.39896e-07
2.20711e-07
1.99117e-07
1.74869e-07
1.48761e-07
1.20073e-07
8.99263e-08
5.74068e-08
2.44523e-08
-1.0252e-08
-4.4036e-08
-7.89529e-08
-1.11677e-07
-1.452e-07
-1.7563e-07
-2.06825e-07
-2.34473e-07
-2.62889e-07
-2.87696e-07
-3.12966e-07
-3.34949e-07
-3.56587e-07
-3.7559e-07
-3.93141e-07
-4.08517e-07
-4.21818e-07
3.00092e-07
2.86928e-07
2.7179e-07
2.55573e-07
2.38195e-07
2.18492e-07
1.96366e-07
1.71587e-07
1.44809e-07
1.15657e-07
8.49846e-08
5.2322e-08
1.90884e-08
-1.53392e-08
-4.91298e-08
-8.3318e-08
-1.15865e-07
-1.48287e-07
-1.78521e-07
-2.08402e-07
-2.36003e-07
-2.631e-07
-2.88095e-07
-3.12298e-07
-3.34644e-07
-3.55733e-07
-3.75093e-07
-3.92762e-07
-4.08604e-07
-4.22694e-07
2.99449e-07
2.86054e-07
2.71132e-07
2.54656e-07
2.3656e-07
2.162e-07
1.93424e-07
1.68077e-07
1.40604e-07
1.10951e-07
7.9717e-08
4.68664e-08
1.33454e-08
-2.08589e-08
-5.46325e-08
-8.81771e-08
-1.20462e-07
-1.51931e-07
-1.81786e-07
-2.10595e-07
-2.37829e-07
-2.63953e-07
-2.88681e-07
-3.12214e-07
-3.34442e-07
-3.55301e-07
-3.74766e-07
-3.92685e-07
-4.09039e-07
-4.23847e-07
2.99364e-07
2.85526e-07
2.70442e-07
2.53614e-07
2.34814e-07
2.13722e-07
1.90212e-07
1.64236e-07
1.3606e-07
1.0586e-07
7.40628e-08
4.09622e-08
7.18285e-09
-2.6874e-08
-6.05622e-08
-9.35723e-08
-1.25477e-07
-1.56142e-07
-1.85444e-07
-2.13358e-07
-2.40002e-07
-2.6533e-07
-2.89562e-07
-3.12554e-07
-3.34495e-07
-3.55173e-07
-3.74673e-07
-3.92825e-07
-4.09637e-07
-4.25158e-07
2.99431e-07
2.85196e-07
2.69674e-07
2.52317e-07
2.32797e-07
2.10938e-07
1.86647e-07
1.59974e-07
1.31079e-07
1.00285e-07
6.79292e-08
3.4521e-08
5.13003e-10
-3.34597e-08
-6.70038e-08
-9.95582e-08
-1.30998e-07
-1.60946e-07
-1.89587e-07
-2.16682e-07
-2.42627e-07
-2.67199e-07
-2.90845e-07
-3.13282e-07
-3.34888e-07
-3.55314e-07
-3.74841e-07
-3.93105e-07
-4.10379e-07
-4.26428e-07
2.99403e-07
2.84851e-07
2.68743e-07
2.50704e-07
2.30416e-07
2.07759e-07
1.82648e-07
1.55204e-07
1.25556e-07
9.41133e-08
6.11923e-08
2.74271e-08
-6.79446e-09
-4.07279e-08
-7.40911e-08
-1.06232e-07
-1.37155e-07
-1.66418e-07
-1.94338e-07
-2.20629e-07
-2.45805e-07
-2.6961e-07
-2.92598e-07
-3.14444e-07
-3.35642e-07
-3.55766e-07
-3.75237e-07
-3.93562e-07
-4.11177e-07
-4.27692e-07
2.99193e-07
2.843e-07
2.67559e-07
2.48755e-07
2.27638e-07
2.04122e-07
1.78129e-07
1.49828e-07
1.19364e-07
8.72085e-08
5.36948e-08
1.95273e-08
-1.49108e-08
-4.88335e-08
-8.19963e-08
-1.13734e-07
-1.44106e-07
-1.72679e-07
-1.9983e-07
-2.25293e-07
-2.49642e-07
-2.72634e-07
-2.94893e-07
-3.16083e-07
-3.36793e-07
-3.56537e-07
-3.75872e-07
-3.94168e-07
-4.12048e-07
-4.28891e-07
2.98863e-07
2.83504e-07
2.66109e-07
2.46492e-07
2.24462e-07
1.99977e-07
1.72992e-07
1.4372e-07
1.12349e-07
7.93993e-08
4.52444e-08
1.06282e-08
-2.4041e-08
-5.79688e-08
-9.09142e-08
-1.22237e-07
-1.52019e-07
-1.79869e-07
-2.06196e-07
-2.30782e-07
-2.54231e-07
-2.76347e-07
-2.97781e-07
-3.18242e-07
-3.38348e-07
-3.5764e-07
-3.7671e-07
-3.94914e-07
-4.12934e-07
-4.30033e-07
2.98593e-07
2.8255e-07
2.64439e-07
2.43936e-07
2.20865e-07
1.95245e-07
1.67103e-07
1.36711e-07
1.04313e-07
7.04716e-08
3.56113e-08
5.00722e-10
-3.44142e-08
-6.83469e-08
-1.01048e-07
-1.3192e-07
-1.61057e-07
-1.88126e-07
-2.13561e-07
-2.37195e-07
-2.5966e-07
-2.8081e-07
-3.01316e-07
-3.20946e-07
-3.40321e-07
-3.59058e-07
-3.77722e-07
-3.95755e-07
-4.13767e-07
-4.31085e-07
2.98632e-07
2.81604e-07
2.62594e-07
2.41041e-07
2.16729e-07
1.89754e-07
1.60249e-07
1.28559e-07
9.4996e-08
6.0158e-08
2.45257e-08
-1.11156e-08
-4.62785e-08
-8.01945e-08
-1.12605e-07
-1.42964e-07
-1.71383e-07
-1.97588e-07
-2.22045e-07
-2.44633e-07
-2.66022e-07
-2.86092e-07
-3.05565e-07
-3.24227e-07
-3.42749e-07
-3.60779e-07
-3.78904e-07
-3.96618e-07
-4.14505e-07
-4.31929e-07
2.99099e-07
2.80772e-07
2.60526e-07
2.37607e-07
2.11779e-07
1.83199e-07
1.52111e-07
1.18937e-07
8.40663e-08
4.81303e-08
1.16692e-08
-2.45207e-08
-5.99128e-08
-9.37669e-08
-1.25818e-07
-1.55581e-07
-1.83188e-07
-2.08429e-07
-2.31805e-07
-2.53237e-07
-2.73442e-07
-2.92307e-07
-3.10626e-07
-3.28166e-07
-3.45698e-07
-3.62834e-07
-3.80261e-07
-3.97461e-07
-4.15044e-07
-4.32417e-07
2.99761e-07
2.79872e-07
2.57903e-07
2.33197e-07
2.0554e-07
1.75111e-07
1.42234e-07
1.07399e-07
7.10848e-08
3.39623e-08
-3.36607e-09
-4.00998e-08
-7.56783e-08
-1.09402e-07
-1.41002e-07
-1.7007e-07
-1.9675e-07
-2.20913e-07
-2.43081e-07
-2.63232e-07
-2.82116e-07
-2.99634e-07
-3.16653e-07
-3.32891e-07
-3.49273e-07
-3.65279e-07
-3.81836e-07
-3.98216e-07
-4.15303e-07
-4.3226e-07
2.99837e-07
2.78108e-07
2.54076e-07
2.27229e-07
1.97428e-07
1.64891e-07
1.30009e-07
9.33403e-08
5.54545e-08
1.70705e-08
-2.11443e-08
-5.83929e-08
-9.40868e-08
-1.27582e-07
-1.58613e-07
-1.86862e-07
-2.12479e-07
-2.35433e-07
-2.56231e-07
-2.74951e-07
-2.92325e-07
-3.08329e-07
-3.23839e-07
-3.38582e-07
-3.53582e-07
-3.68208e-07
-3.8365e-07
-3.98846e-07
-4.15163e-07
-4.31136e-07
2.98909e-07
2.75039e-07
2.4859e-07
2.19205e-07
1.8687e-07
1.51881e-07
1.14715e-07
7.59984e-08
3.63985e-08
-3.31892e-09
-4.24212e-08
-8.01228e-08
-1.15817e-07
-1.48934e-07
-1.79226e-07
-2.06487e-07
-2.30875e-07
-2.52466e-07
-2.71719e-07
-2.88823e-07
-3.0445e-07
-3.18724e-07
-3.32449e-07
-3.45475e-07
-3.58774e-07
-3.71748e-07
-3.85703e-07
-3.99338e-07
-4.14491e-07
-4.28777e-07
2.96678e-07
2.70143e-07
2.40787e-07
2.08354e-07
1.7298e-07
1.35095e-07
9.52967e-08
5.42924e-08
1.28393e-08
-2.82497e-08
-6.81873e-08
-1.06206e-07
-1.41702e-07
-1.74195e-07
-2.03488e-07
-2.2951e-07
-2.52456e-07
-2.7251e-07
-2.90065e-07
-3.05377e-07
-3.19013e-07
-3.31281e-07
-3.42892e-07
-3.53916e-07
-3.6511e-07
-3.76088e-07
-3.8801e-07
-3.99662e-07
-4.13081e-07
-4.24973e-07
2.92704e-07
2.62741e-07
2.29635e-07
1.93381e-07
1.54326e-07
1.13045e-07
7.02501e-08
2.67385e-08
-1.66536e-08
-5.9072e-08
-9.96973e-08
-1.37785e-07
-1.72761e-07
-2.04252e-07
-2.32151e-07
-2.56552e-07
-2.77742e-07
-2.96023e-07
-3.11745e-07
-3.25148e-07
-3.3662e-07
-3.46574e-07
-3.5569e-07
-3.64318e-07
-3.72958e-07
-3.81461e-07
-3.90632e-07
-3.99742e-07
-4.10535e-07
-4.19574e-07
2.85127e-07
2.50929e-07
2.1309e-07
1.72126e-07
1.28687e-07
8.34826e-08
3.73492e-08
-8.82136e-09
-5.41358e-08
-9.77146e-08
-1.38732e-07
-1.76478e-07
-2.10443e-07
-2.40367e-07
-2.66278e-07
-2.88452e-07
-3.07338e-07
-3.23398e-07
-3.37017e-07
-3.48389e-07
-3.57637e-07
-3.65026e-07
-3.7125e-07
-3.76941e-07
-3.82546e-07
-3.88012e-07
-3.93753e-07
-3.99526e-07
-4.06666e-07
-4.12459e-07
2.69863e-07
2.29842e-07
1.86433e-07
1.39997e-07
9.14567e-08
4.19337e-08
-7.58829e-09
-5.62187e-08
-1.03078e-07
-1.47287e-07
-1.88041e-07
-2.24701e-07
-2.56871e-07
-2.84432e-07
-3.07549e-07
-3.26641e-07
-3.42324e-07
-3.55262e-07
-3.66005e-07
-3.7484e-07
-3.81779e-07
-3.86623e-07
-3.89734e-07
-3.91831e-07
-3.93714e-07
-3.95722e-07
-3.97761e-07
-3.99375e-07
-4.01995e-07
-4.0424e-07
2.52479e-07
2.05734e-07
1.52915e-07
9.76196e-08
4.2021e-08
-1.28385e-08
-6.62993e-08
-1.17646e-07
-1.66024e-07
-2.10544e-07
-2.5045e-07
-2.85251e-07
-3.14791e-07
-3.39222e-07
-3.58908e-07
-3.74286e-07
-3.85881e-07
-3.94311e-07
-4.0028e-07
-4.0458e-07
-4.07991e-07
-4.10527e-07
-4.11168e-07
-4.0926e-07
-4.05957e-07
-4.03882e-07
-4.03016e-07
-4.00597e-07
-3.97981e-07
-3.97882e-07
1.89816e-07
1.33094e-07
7.49964e-08
1.53676e-08
-4.47215e-08
-1.03671e-07
-1.59993e-07
-2.12479e-07
-2.60134e-07
-3.02156e-07
-3.38023e-07
-3.67634e-07
-3.9139e-07
-4.10158e-07
-4.24915e-07
-4.36062e-07
-4.43434e-07
-4.466e-07
-4.45189e-07
-4.39954e-07
-4.34116e-07
-4.32325e-07
-4.32876e-07
-4.28877e-07
-4.18828e-07
-4.09834e-07
-4.06905e-07
-4.07492e-07
-4.07298e-07
-4.04374e-07
1.5924e-07
8.97114e-08
1.45721e-08
-5.92964e-08
-1.28728e-07
-1.93095e-07
-2.52239e-07
-3.05562e-07
-3.52098e-07
-3.90932e-07
-4.21534e-07
-4.4404e-07
-4.59356e-07
-4.69283e-07
-4.76374e-07
-4.83735e-07
-4.92951e-07
-4.99915e-07
-4.97107e-07
-4.81118e-07
-4.5704e-07
-4.37059e-07
-4.29129e-07
-4.29872e-07
-4.30048e-07
-4.26674e-07
-4.21691e-07
-4.16752e-07
-4.13606e-07
-4.12268e-07
-8.33249e-08
-1.60358e-07
-2.37892e-07
-3.14001e-07
-3.84184e-07
-4.45093e-07
-4.95036e-07
-5.33238e-07
-5.59293e-07
-5.7317e-07
-5.75456e-07
-5.67632e-07
-5.52132e-07
-5.32539e-07
-5.13273e-07
-4.99071e-07
-4.92569e-07
-4.93578e-07
-4.97294e-07
-4.97154e-07
-4.90544e-07
-4.79818e-07
-4.66508e-07
-4.52432e-07
-4.4029e-07
-4.32062e-07
-4.26957e-07
-4.23524e-07
-4.21323e-07
-4.20238e-07
3.12601e-07
3.13241e-07
3.14577e-07
3.16488e-07
3.18488e-07
3.1996e-07
3.20782e-07
3.2095e-07
3.19879e-07
3.15697e-07
3.06328e-07
2.90467e-07
2.45657e-07
2.14351e-07
-1.97791e-09
-1.48131e-07
-2.25397e-07
-3.01265e-07
-3.71291e-07
-4.32172e-07
-4.82235e-07
-5.20701e-07
-5.47166e-07
-5.61588e-07
-5.64541e-07
-5.57484e-07
-5.42813e-07
-5.2405e-07
-5.05537e-07
-4.9191e-07
-4.85727e-07
-4.86793e-07
-4.90416e-07
-4.90238e-07
-4.8373e-07
-4.73245e-07
-4.60235e-07
-4.465e-07
-4.34697e-07
-4.26673e-07
-4.21637e-07
-4.1817e-07
-4.15854e-07
-4.14582e-07
9.84849e-08
2.37076e-08
-4.98051e-08
-1.18941e-07
-1.83103e-07
-2.42139e-07
-2.95453e-07
-3.42075e-07
-3.81091e-07
-4.11968e-07
-4.34828e-07
-4.50552e-07
-4.60901e-07
-4.68374e-07
-4.76026e-07
-4.85357e-07
-4.92328e-07
-4.89632e-07
-4.74013e-07
-4.5055e-07
-4.31189e-07
-4.23621e-07
-4.24488e-07
-4.24804e-07
-4.21667e-07
-4.16912e-07
-4.12135e-07
-4.09036e-07
-4.07633e-07
1.40835e-07
8.31132e-08
2.38501e-08
-3.59237e-08
-9.46241e-08
-1.50767e-07
-2.03148e-07
-2.50772e-07
-2.92841e-07
-3.2883e-07
-3.58629e-07
-3.82623e-07
-4.0165e-07
-4.16647e-07
-4.27974e-07
-4.35523e-07
-4.38911e-07
-4.37792e-07
-4.32921e-07
-4.27479e-07
-4.26025e-07
-4.26882e-07
-4.23303e-07
-4.13841e-07
-4.05476e-07
-4.02953e-07
-4.03691e-07
-4.03595e-07
-4.00514e-07
2.1234e-07
1.59917e-07
1.04985e-07
4.97079e-08
-4.87635e-09
-5.81103e-08
-1.09282e-07
-1.57539e-07
-2.01994e-07
-2.41894e-07
-2.76744e-07
-3.06376e-07
-3.30931e-07
-3.50757e-07
-3.66286e-07
-3.7805e-07
-3.86675e-07
-3.92868e-07
-3.97413e-07
-4.01086e-07
-4.03916e-07
-4.04924e-07
-4.03467e-07
-4.00672e-07
-3.99087e-07
-3.98635e-07
-3.96515e-07
-3.94007e-07
-3.93692e-07
2.35693e-07
1.92638e-07
1.46585e-07
9.84009e-08
4.9186e-08
-7.36555e-11
-4.84844e-08
-9.51659e-08
-1.39242e-07
-1.7991e-07
-2.16529e-07
-2.48701e-07
-2.76301e-07
-2.99485e-07
-3.18665e-07
-3.34453e-07
-3.47506e-07
-3.58377e-07
-3.67355e-07
-3.74463e-07
-3.79518e-07
-3.82888e-07
-3.85279e-07
-3.87451e-07
-3.89699e-07
-3.91909e-07
-3.93551e-07
-3.96046e-07
-3.97897e-07
2.56297e-07
2.18785e-07
1.78167e-07
1.35073e-07
9.01897e-08
4.43447e-08
-1.57149e-09
-4.66649e-08
-9.00573e-08
-1.30926e-07
-1.68563e-07
-2.02456e-07
-2.32344e-07
-2.58246e-07
-2.8043e-07
-2.99337e-07
-3.15423e-07
-3.29076e-07
-3.4049e-07
-3.49793e-07
-3.5725e-07
-3.63547e-07
-3.69284e-07
-3.74887e-07
-3.8025e-07
-3.85785e-07
-3.91156e-07
-3.97758e-07
-4.02772e-07
2.6768e-07
2.34896e-07
1.98991e-07
1.60281e-07
1.19328e-07
7.68369e-08
3.36047e-08
-9.5327e-09
-5.17232e-08
-9.21505e-08
-1.30073e-07
-1.64915e-07
-1.963e-07
-2.24116e-07
-2.48448e-07
-2.69576e-07
-2.87796e-07
-3.03455e-07
-3.16787e-07
-3.28182e-07
-3.38031e-07
-3.47008e-07
-3.55413e-07
-3.63739e-07
-3.71774e-07
-3.80327e-07
-3.8859e-07
-3.9837e-07
-4.06216e-07
2.74781e-07
2.45734e-07
2.13639e-07
1.78605e-07
1.4105e-07
1.01564e-07
6.08569e-08
1.96843e-08
-2.11438e-08
-6.08427e-08
-9.86481e-08
-1.33954e-07
-1.66281e-07
-1.95423e-07
-2.21303e-07
-2.44108e-07
-2.64013e-07
-2.81406e-07
-2.96531e-07
-3.09947e-07
-3.21936e-07
-3.33192e-07
-3.43744e-07
-3.5433e-07
-3.64512e-07
-3.75439e-07
-3.85858e-07
-3.97824e-07
-4.08128e-07
2.79429e-07
2.53281e-07
2.24227e-07
1.92228e-07
1.57568e-07
1.20722e-07
8.23163e-08
4.30184e-08
3.58979e-09
-3.52381e-08
-7.26847e-08
-1.08141e-07
-1.41036e-07
-1.71114e-07
-1.98164e-07
-2.22334e-07
-2.43692e-07
-2.62683e-07
-2.79484e-07
-2.94748e-07
-3.0858e-07
-3.2175e-07
-3.34087e-07
-3.46518e-07
-3.58432e-07
-3.71082e-07
-3.83182e-07
-3.96531e-07
-4.08893e-07
2.82289e-07
2.5856e-07
2.32039e-07
2.02571e-07
1.70362e-07
1.35805e-07
9.94568e-08
6.18906e-08
2.38185e-08
-1.40909e-08
-5.10482e-08
-8.64589e-08
-1.19683e-07
-1.50441e-07
-1.78417e-07
-2.0374e-07
-2.26381e-07
-2.46818e-07
-2.65127e-07
-2.82004e-07
-2.9742e-07
-3.12199e-07
-3.26069e-07
-3.39991e-07
-3.53345e-07
-3.6725e-07
-3.80691e-07
-3.94972e-07
-4.08783e-07
2.8386e-07
2.62199e-07
2.37822e-07
2.10497e-07
1.80398e-07
1.47851e-07
1.13347e-07
7.73674e-08
4.05774e-08
3.58213e-09
-3.28278e-08
-6.80827e-08
-1.0149e-07
-1.32764e-07
-1.615e-07
-1.87815e-07
-2.11589e-07
-2.33303e-07
-2.52944e-07
-2.7121e-07
-2.88011e-07
-3.04152e-07
-3.19364e-07
-3.34503e-07
-3.49078e-07
-3.63942e-07
-3.78424e-07
-3.93353e-07
-4.08026e-07
2.84638e-07
2.64667e-07
2.42063e-07
2.16568e-07
1.88324e-07
1.57574e-07
1.24739e-07
9.02171e-08
5.46323e-08
1.85293e-08
-1.73072e-08
-5.23387e-08
-8.58353e-08
-1.17509e-07
-1.46886e-07
-1.74063e-07
-1.98843e-07
-2.21682e-07
-2.42512e-07
-2.61995e-07
-2.80032e-07
-2.97352e-07
-3.13745e-07
-3.29913e-07
-3.45507e-07
-3.61147e-07
-3.76383e-07
-3.91771e-07
-4.06842e-07
2.85332e-07
2.66597e-07
2.45356e-07
2.21377e-07
1.94739e-07
1.65575e-07
1.34233e-07
1.01031e-07
6.65617e-08
3.13098e-08
-3.95065e-09
-3.87197e-08
-7.22395e-08
-1.04228e-07
-1.34148e-07
-1.62079e-07
-1.87757e-07
-2.11602e-07
-2.33507e-07
-2.54083e-07
-2.73233e-07
-2.91609e-07
-3.09035e-07
-3.26107e-07
-3.42531e-07
-3.58829e-07
-3.74574e-07
-3.90297e-07
-4.05476e-07
2.86153e-07
2.68319e-07
2.4813e-07
2.25389e-07
2.00107e-07
1.72308e-07
1.42271e-07
1.10245e-07
7.67883e-08
4.23279e-08
7.62384e-09
-2.68677e-08
-6.03676e-08
-9.26051e-08
-1.2299e-07
-1.51585e-07
-1.78067e-07
-2.02823e-07
-2.25705e-07
-2.47282e-07
-2.67437e-07
-2.86772e-07
-3.05102e-07
-3.22977e-07
-3.40084e-07
-3.56926e-07
-3.73035e-07
-3.88964e-07
-4.04148e-07
2.86991e-07
2.69874e-07
2.50573e-07
2.28873e-07
2.04725e-07
1.78086e-07
1.49177e-07
1.18187e-07
8.56375e-08
5.18991e-08
1.77142e-08
-1.65056e-08
-4.99657e-08
-8.24106e-08
-1.13202e-07
-1.42394e-07
-1.69602e-07
-1.95194e-07
-2.18965e-07
-2.41465e-07
-2.62526e-07
-2.82739e-07
-3.01858e-07
-3.20447e-07
-3.38115e-07
-3.5541e-07
-3.71771e-07
-3.87837e-07
-4.02951e-07
2.87678e-07
2.71216e-07
2.5273e-07
2.31942e-07
2.08764e-07
1.83118e-07
1.55188e-07
1.25113e-07
9.3374e-08
6.02913e-08
2.65791e-08
-7.38737e-09
-4.08081e-08
-7.3439e-08
-1.04601e-07
-1.34344e-07
-1.62222e-07
-1.88593e-07
-2.13183e-07
-2.36541e-07
-2.58427e-07
-2.79438e-07
-2.99261e-07
-3.18471e-07
-3.36619e-07
-3.54264e-07
-3.70824e-07
-3.86922e-07
-4.01959e-07
2.88129e-07
2.72298e-07
2.54577e-07
2.34616e-07
2.12299e-07
1.87538e-07
1.60473e-07
1.31221e-07
1.0021e-07
6.77324e-08
3.44456e-08
7.1521e-10
-3.26829e-08
-6.54876e-08
-9.701e-08
-1.27271e-07
-1.5579e-07
-1.82894e-07
-2.08261e-07
-2.32417e-07
-2.55075e-07
-2.76809e-07
-2.97279e-07
-3.17016e-07
-3.35594e-07
-3.53489e-07
-3.70213e-07
-3.86248e-07
-4.01174e-07
2.88379e-07
2.73133e-07
2.56092e-07
2.36898e-07
2.1538e-07
1.91441e-07
1.65153e-07
1.36663e-07
1.06313e-07
7.4413e-08
4.1505e-08
8.00587e-09
-2.53998e-08
-5.83622e-08
-9.02577e-08
-1.21008e-07
-1.50165e-07
-1.77964e-07
-2.04091e-07
-2.28997e-07
-2.52393e-07
-2.74792e-07
-2.95861e-07
-3.16063e-07
-3.35013e-07
-3.53099e-07
-3.69919e-07
-3.85841e-07
-4.00548e-07
2.88619e-07
2.73808e-07
2.57293e-07
2.38819e-07
2.18068e-07
1.94911e-07
1.69327e-07
1.41563e-07
1.11819e-07
8.04897e-08
4.79087e-08
1.46555e-08
-1.88055e-08
-5.18906e-08
-8.42044e-08
-1.15397e-07
-1.4523e-07
-1.73669e-07
-2.00576e-07
-2.26174e-07
-2.50307e-07
-2.73313e-07
-2.94959e-07
-3.15566e-07
-3.34859e-07
-3.53061e-07
-3.69951e-07
-3.85651e-07
-4.00103e-07
2.89058e-07
2.74409e-07
2.58244e-07
2.40472e-07
2.2045e-07
1.98031e-07
1.7308e-07
1.46028e-07
1.16839e-07
8.6086e-08
5.37707e-08
2.07947e-08
-1.27897e-08
-4.59384e-08
-7.87546e-08
-1.10307e-07
-1.40907e-07
-1.69886e-07
-1.97656e-07
-2.23846e-07
-2.48764e-07
-2.72298e-07
-2.94519e-07
-3.15493e-07
-3.35073e-07
-3.53393e-07
-3.70247e-07
-3.85735e-07
-3.99762e-07
2.89846e-07
2.74981e-07
2.59073e-07
2.42013e-07
2.22645e-07
2.00881e-07
1.76502e-07
1.50154e-07
1.21472e-07
9.1295e-08
5.91791e-08
2.65119e-08
-7.2778e-09
-4.04187e-08
-7.38546e-08
-1.05646e-07
-1.37171e-07
-1.66518e-07
-1.95335e-07
-2.21904e-07
-2.47787e-07
-2.71639e-07
-2.94562e-07
-3.15757e-07
-3.3567e-07
-3.54052e-07
-3.70856e-07
-3.86077e-07
-3.99668e-07
2.90948e-07
2.75519e-07
2.59975e-07
2.43621e-07
2.24766e-07
2.03541e-07
1.79695e-07
1.54027e-07
1.25812e-07
9.61772e-08
6.42118e-08
3.18483e-08
-2.2073e-09
-3.5311e-08
-6.94628e-08
-1.01401e-07
-1.34014e-07
-1.63537e-07
-1.93659e-07
-2.20286e-07
-2.47488e-07
-2.71213e-07
-2.95232e-07
-3.16197e-07
-3.36743e-07
-3.54964e-07
-3.71826e-07
-3.86826e-07
-3.99898e-07
2.92216e-07
2.76131e-07
2.61239e-07
2.45432e-07
2.26901e-07
2.06092e-07
1.8278e-07
1.57719e-07
1.29954e-07
1.00765e-07
6.89522e-08
3.67986e-08
2.49317e-09
-3.06656e-08
-6.55191e-08
-9.7661e-08
-1.31387e-07
-1.61048e-07
-1.92611e-07
-2.19061e-07
-2.47939e-07
-2.71e-07
-2.96793e-07
-3.16603e-07
-3.38674e-07
-3.55819e-07
-3.73365e-07
-3.88048e-07
-4.00579e-07
2.93582e-07
2.76992e-07
2.63059e-07
2.47493e-07
2.29117e-07
2.08627e-07
1.85874e-07
1.61292e-07
1.33987e-07
1.05079e-07
7.34813e-08
4.13363e-08
6.89446e-09
-2.65686e-08
-6.19475e-08
-9.45918e-08
-1.29186e-07
-1.59294e-07
-1.92053e-07
-2.18532e-07
-2.49003e-07
-2.71237e-07
-2.99274e-07
-3.16967e-07
-3.42129e-07
-3.56028e-07
-3.76632e-07
-3.89176e-07
-4.02485e-07
2.95051e-07
2.78556e-07
2.65476e-07
2.49796e-07
2.31489e-07
2.11251e-07
1.89068e-07
1.64797e-07
1.3797e-07
1.09144e-07
7.78466e-08
4.54433e-08
1.10314e-08
-2.30867e-08
-5.87004e-08
-9.23266e-08
-1.27314e-07
-1.58507e-07
-1.9178e-07
-2.19124e-07
-2.50315e-07
-2.72656e-07
-3.02126e-07
-3.18173e-07
-3.46796e-07
-3.55962e-07
-3.82957e-07
-3.88758e-07
-4.06349e-07
2.96739e-07
2.81061e-07
2.68436e-07
2.52485e-07
2.34277e-07
2.14225e-07
1.92532e-07
1.68387e-07
1.41996e-07
1.13057e-07
8.20777e-08
4.91642e-08
1.48838e-08
-2.02187e-08
-5.58207e-08
-9.08909e-08
-1.258e-07
-1.58741e-07
-1.91685e-07
-2.20959e-07
-2.51588e-07
-2.75673e-07
-3.04547e-07
-3.21443e-07
-3.51232e-07
-3.57118e-07
-3.9266e-07
-3.84556e-07
-4.19271e-07
2.99283e-07
2.84486e-07
2.70729e-07
2.54217e-07
2.36781e-07
2.17238e-07
1.96109e-07
1.72006e-07
1.46026e-07
1.16845e-07
8.61391e-08
5.25408e-08
1.83566e-08
-1.79244e-08
-5.34934e-08
-9.0201e-08
-1.24963e-07
-1.59901e-07
-1.92124e-07
-2.23584e-07
-2.52804e-07
-2.79897e-07
-3.06028e-07
-3.27004e-07
-3.53501e-07
-3.62587e-07
-4.01234e-07
-3.79004e-07
-4.46703e-07
3.03311e-07
2.90566e-07
2.76275e-07
2.59073e-07
2.41067e-07
2.21336e-07
2.00365e-07
1.76207e-07
1.50385e-07
1.20879e-07
9.01612e-08
5.58128e-08
2.14312e-08
-1.60615e-08
-5.18366e-08
-9.00914e-08
-1.24928e-07
-1.62045e-07
-1.93724e-07
-2.28023e-07
-2.55075e-07
-2.85333e-07
-3.08017e-07
-3.33482e-07
-3.53844e-07
-3.72791e-07
-4.01991e-07
-3.84344e-07
-4.85856e-07
3.05751e-07
2.91984e-07
2.77212e-07
2.60499e-07
2.43435e-07
2.24218e-07
2.03592e-07
1.79483e-07
1.5379e-07
1.2405e-07
9.324e-08
5.8333e-08
2.36077e-08
-1.47819e-08
-5.11366e-08
-9.0405e-08
-1.25588e-07
-1.63348e-07
-1.95382e-07
-2.3022e-07
-2.57347e-07
-2.88905e-07
-3.0984e-07
-3.3833e-07
-3.52466e-07
-3.77855e-07
-3.92641e-07
-3.99553e-07
-5.4887e-07
3.24039e-07
3.03303e-07
2.85961e-07
2.68574e-07
2.51112e-07
2.31586e-07
2.10805e-07
1.865e-07
1.6045e-07
1.30085e-07
9.84291e-08
6.23653e-08
2.6341e-08
-1.35484e-08
-5.13358e-08
-9.23553e-08
-1.28981e-07
-1.68538e-07
-2.01509e-07
-2.37668e-07
-2.65424e-07
-2.97266e-07
-3.18804e-07
-3.4693e-07
-3.60278e-07
-3.89449e-07
-3.90366e-07
-4.26841e-07
-5.3143e-07
-4.19978e-07
-4.1278e-07
-4.06215e-07
-4.08537e-07
-4.1479e-07
-4.24598e-07
-4.32794e-07
-4.3939e-07
-4.44432e-07
-4.47857e-07
-4.49661e-07
-4.50143e-07
-4.49716e-07
-4.48683e-07
-4.47325e-07
-4.45695e-07
-4.43845e-07
-4.41841e-07
-4.39612e-07
-4.3739e-07
-4.3513e-07
-4.33147e-07
-4.31858e-07
-4.31765e-07
-4.34426e-07
-4.39679e-07
-4.46182e-07
-4.39932e-07
-4.0517e-07
-3.34995e-07
-4.20257e-07
-4.14078e-07
-4.07958e-07
-4.07812e-07
-4.15779e-07
-4.281e-07
-4.40086e-07
-4.50062e-07
-4.57936e-07
-4.63617e-07
-4.67086e-07
-4.68518e-07
-4.68558e-07
-4.67661e-07
-4.66136e-07
-4.64325e-07
-4.62064e-07
-4.59566e-07
-4.5673e-07
-4.53574e-07
-4.50424e-07
-4.46919e-07
-4.43929e-07
-4.40612e-07
-4.37323e-07
-4.32416e-07
-4.24546e-07
-4.14254e-07
-4.01314e-07
-3.91187e-07
-4.20605e-07
-4.15681e-07
-4.11427e-07
-4.12539e-07
-4.19309e-07
-4.30493e-07
-4.44177e-07
-4.57182e-07
-4.68342e-07
-4.77142e-07
-4.83446e-07
-4.87253e-07
-4.88719e-07
-4.88624e-07
-4.87234e-07
-4.85166e-07
-4.82645e-07
-4.79601e-07
-4.76499e-07
-4.72703e-07
-4.68856e-07
-4.64298e-07
-4.59333e-07
-4.53588e-07
-4.4638e-07
-4.38634e-07
-4.29522e-07
-4.22017e-07
-4.11771e-07
-3.99078e-07
-4.20891e-07
-4.17265e-07
-4.1515e-07
-4.17632e-07
-4.2462e-07
-4.34924e-07
-4.4824e-07
-4.62602e-07
-4.76082e-07
-4.87826e-07
-4.97212e-07
-5.04254e-07
-5.08692e-07
-5.10788e-07
-5.10971e-07
-5.09328e-07
-5.06882e-07
-5.0332e-07
-4.99457e-07
-4.95003e-07
-4.90076e-07
-4.84951e-07
-4.78731e-07
-4.72407e-07
-4.64669e-07
-4.57373e-07
-4.49089e-07
-4.41073e-07
-4.31363e-07
-4.20628e-07
-4.20895e-07
-4.18609e-07
-4.18702e-07
-4.22904e-07
-4.3067e-07
-4.41119e-07
-4.53461e-07
-4.67575e-07
-4.82084e-07
-4.95709e-07
-5.07802e-07
-5.17705e-07
-5.25602e-07
-5.30805e-07
-5.34104e-07
-5.34873e-07
-5.34039e-07
-5.31425e-07
-5.27474e-07
-5.22712e-07
-5.16791e-07
-5.10747e-07
-5.03582e-07
-4.96615e-07
-4.88836e-07
-4.81197e-07
-4.72949e-07
-4.64412e-07
-4.55537e-07
-4.46782e-07
-4.20348e-07
-4.19391e-07
-4.21582e-07
-4.27608e-07
-4.36503e-07
-4.47436e-07
-4.59779e-07
-4.73118e-07
-4.87428e-07
-5.01581e-07
-5.15292e-07
-5.27379e-07
-5.38061e-07
-5.46359e-07
-5.52923e-07
-5.57125e-07
-5.59341e-07
-5.59542e-07
-5.57727e-07
-5.54428e-07
-5.49399e-07
-5.43424e-07
-5.36241e-07
-5.28541e-07
-5.20111e-07
-5.11253e-07
-5.01787e-07
-4.91953e-07
-4.81866e-07
-4.72203e-07
-4.18957e-07
-4.19249e-07
-4.23294e-07
-4.31043e-07
-4.41208e-07
-4.52991e-07
-4.65787e-07
-4.79251e-07
-4.92926e-07
-5.0702e-07
-5.20703e-07
-5.34146e-07
-5.46279e-07
-5.57093e-07
-5.66295e-07
-5.73649e-07
-5.79108e-07
-5.82641e-07
-5.8417e-07
-5.83871e-07
-5.81678e-07
-5.77911e-07
-5.72561e-07
-5.65962e-07
-5.58092e-07
-5.49279e-07
-5.39459e-07
-5.2906e-07
-5.18064e-07
-5.07336e-07
-4.16442e-07
-4.17845e-07
-4.23421e-07
-4.32663e-07
-4.44055e-07
-4.56823e-07
-4.70341e-07
-4.843e-07
-4.98162e-07
-5.1234e-07
-5.25549e-07
-5.39432e-07
-5.51816e-07
-5.64009e-07
-5.7476e-07
-5.84437e-07
-5.92486e-07
-5.99002e-07
-6.03691e-07
-6.06694e-07
-6.07814e-07
-6.07269e-07
-6.04906e-07
-6.01012e-07
-5.95527e-07
-5.888e-07
-5.80891e-07
-5.7217e-07
-5.6295e-07
-5.53706e-07
-4.126e-07
-4.14976e-07
-4.21758e-07
-4.32131e-07
-4.44584e-07
-4.58303e-07
-4.72647e-07
-4.87261e-07
-5.01669e-07
-5.16166e-07
-5.29756e-07
-5.43531e-07
-5.56076e-07
-5.68665e-07
-5.80096e-07
-5.90912e-07
-6.00488e-07
-6.09018e-07
-6.16108e-07
-6.21783e-07
-6.25842e-07
-6.28276e-07
-6.29079e-07
-6.28226e-07
-6.25903e-07
-6.22049e-07
-6.17092e-07
-6.10954e-07
-6.04404e-07
-5.9733e-07
-4.07418e-07
-4.1062e-07
-4.18268e-07
-4.29427e-07
-4.42686e-07
-4.57174e-07
-4.72255e-07
-4.87507e-07
-5.02553e-07
-5.17446e-07
-5.31621e-07
-5.45562e-07
-5.58668e-07
-5.71381e-07
-5.83216e-07
-5.94451e-07
-6.04833e-07
-6.14324e-07
-6.22843e-07
-6.30064e-07
-6.36261e-07
-6.40802e-07
-6.44275e-07
-6.45876e-07
-6.46438e-07
-6.45106e-07
-6.42899e-07
-6.38981e-07
-6.34499e-07
-6.2867e-07
-4.01165e-07
-4.04989e-07
-4.13202e-07
-4.24822e-07
-4.38571e-07
-4.53567e-07
-4.6917e-07
-4.84923e-07
-5.00505e-07
-5.15761e-07
-5.30467e-07
-5.4467e-07
-5.582e-07
-5.71163e-07
-5.83415e-07
-5.95013e-07
-6.05877e-07
-6.15868e-07
-6.25099e-07
-6.33193e-07
-6.40566e-07
-6.46334e-07
-6.51465e-07
-6.54651e-07
-6.57268e-07
-6.57701e-07
-6.57637e-07
-6.55308e-07
-6.52577e-07
-6.4756e-07
-3.94383e-07
-3.9861e-07
-4.0713e-07
-4.1892e-07
-4.32843e-07
-4.48034e-07
-4.63863e-07
-4.79867e-07
-4.95729e-07
-5.11237e-07
-5.26243e-07
-5.40678e-07
-5.5448e-07
-5.67641e-07
-5.80129e-07
-5.91935e-07
-6.03033e-07
-6.13366e-07
-6.22933e-07
-6.31508e-07
-6.39327e-07
-6.45961e-07
-6.51789e-07
-6.56117e-07
-6.59696e-07
-6.61442e-07
-6.62672e-07
-6.61685e-07
-6.60686e-07
-6.56412e-07
-3.87841e-07
-3.92281e-07
-4.00903e-07
-4.12634e-07
-4.2646e-07
-4.41552e-07
-4.57305e-07
-4.73262e-07
-4.89103e-07
-5.04607e-07
-5.19625e-07
-5.34069e-07
-5.47887e-07
-5.61048e-07
-5.73534e-07
-5.85332e-07
-5.96421e-07
-6.06775e-07
-6.16361e-07
-6.25121e-07
-6.33025e-07
-6.39989e-07
-6.46001e-07
-6.50936e-07
-6.54847e-07
-6.57562e-07
-6.59231e-07
-6.59455e-07
-6.5985e-07
-6.55321e-07
-3.82411e-07
-3.86943e-07
-3.95529e-07
-4.07065e-07
-4.20623e-07
-4.35415e-07
-4.50861e-07
-4.66521e-07
-4.82076e-07
-4.97302e-07
-5.12048e-07
-5.26218e-07
-5.39752e-07
-5.52615e-07
-5.64789e-07
-5.76258e-07
-5.87011e-07
-5.9703e-07
-6.06294e-07
-6.14776e-07
-6.22434e-07
-6.29195e-07
-6.35045e-07
-6.39949e-07
-6.43882e-07
-6.46791e-07
-6.48626e-07
-6.49308e-07
-6.48877e-07
-6.47426e-07
-3.78891e-07
-3.83454e-07
-3.9196e-07
-4.03283e-07
-4.16544e-07
-4.30978e-07
-4.46023e-07
-4.61252e-07
-4.76349e-07
-4.91092e-07
-5.05328e-07
-5.18958e-07
-5.31918e-07
-5.44172e-07
-5.557e-07
-5.6649e-07
-5.76538e-07
-5.8584e-07
-5.94399e-07
-6.02234e-07
-6.09391e-07
-6.15404e-07
-6.20602e-07
-6.24962e-07
-6.28456e-07
-6.31034e-07
-6.32658e-07
-6.33347e-07
-6.33216e-07
-6.32419e-07
-3.77794e-07
-3.82375e-07
-3.90834e-07
-4.0204e-07
-4.15123e-07
-4.2932e-07
-4.44071e-07
-4.58948e-07
-4.73637e-07
-4.87913e-07
-5.01622e-07
-5.14666e-07
-5.2698e-07
-5.38531e-07
-5.493e-07
-5.5928e-07
-5.68468e-07
-5.76859e-07
-5.84444e-07
-5.9119e-07
-5.97037e-07
-6.02444e-07
-6.07078e-07
-6.10953e-07
-6.14071e-07
-6.16417e-07
-6.17962e-07
-6.18719e-07
-6.18812e-07
-6.18467e-07
-3.79221e-07
-3.83809e-07
-3.92264e-07
-4.03467e-07
-4.1652e-07
-4.30642e-07
-4.45258e-07
-4.59928e-07
-4.74335e-07
-4.88254e-07
-5.01531e-07
-5.14073e-07
-5.25824e-07
-5.36758e-07
-5.46868e-07
-5.56161e-07
-5.64649e-07
-5.72347e-07
-5.79272e-07
-5.85439e-07
-5.90876e-07
-5.95637e-07
-5.99729e-07
-6.03162e-07
-6.0596e-07
-6.08122e-07
-6.09625e-07
-6.10389e-07
-6.10454e-07
-6.10137e-07
-3.82809e-07
-3.8735e-07
-3.95782e-07
-4.07003e-07
-4.20056e-07
-4.34125e-07
-4.48613e-07
-4.63068e-07
-4.77172e-07