/*--------------------------------*- C++ -*----------------------------------*\
| =========                 |                                                 |
| \\      /  F ield         | OpenFOAM: The Open Source CFD Toolbox           |
|  \\    /   O peration     | Version:  2312                                  |
|   \\  /    A nd           | Website:  www.openfoam.com                      |
|    \\/     M anipulation  |                                                 |
\*---------------------------------------------------------------------------*/
FoamFile
{
    version     2.0;
    format      ascii;
    arch        "LSB;label=32;scalar=64";
    class       volScalarField;
    location    "83000";
    object      p;
}
// * * * * * * * * * * * * * * * * * * * * * * * * * * * * * * * * * * * * * //

dimensions      [0 2 -2 0 0 0 0];

internalField   nonuniform List<scalar> 
2685
(
-2.76265e-07
-2.98202e-07
-2.97333e-07
-2.95566e-07
-2.95473e-07
-2.96104e-07
-2.96199e-07
-2.95497e-07
-2.94293e-07
-2.93084e-07
-2.92235e-07
-2.91949e-07
-2.92338e-07
-2.93493e-07
-2.95484e-07
-2.98354e-07
-3.02092e-07
-3.0661e-07
-3.11733e-07
-3.17164e-07
-3.22437e-07
-3.26952e-07
-3.30128e-07
-3.31557e-07
-3.3106e-07
-3.28598e-07
-3.24359e-07
-3.18841e-07
-3.12544e-07
-3.05816e-07
-2.9903e-07
-2.92561e-07
-2.86669e-07
-2.81509e-07
-2.77128e-07
-2.73511e-07
-2.70579e-07
-2.68234e-07
-2.66335e-07
-2.64773e-07
-2.63476e-07
-2.62312e-07
-2.61179e-07
-2.60002e-07
-2.58742e-07
-2.57388e-07
-2.55951e-07
-2.54459e-07
-2.52948e-07
-2.51453e-07
-2.50011e-07
-2.48651e-07
-2.47399e-07
-2.46274e-07
-2.45291e-07
-2.4446e-07
-2.43779e-07
-2.43262e-07
-2.42907e-07
-2.42705e-07
-2.42644e-07
-2.42704e-07
-2.42862e-07
-2.43089e-07
-2.43349e-07
-2.43604e-07
-2.43806e-07
-2.43906e-07
-2.43851e-07
-2.43592e-07
-2.4307e-07
-2.42218e-07
-2.40975e-07
-2.39289e-07
-2.37113e-07
-2.34405e-07
-2.31137e-07
-2.27286e-07
-2.22801e-07
-2.17745e-07
-2.12114e-07
-2.05926e-07
-1.9921e-07
-1.92007e-07
-1.84368e-07
-1.76353e-07
-1.68025e-07
-1.59453e-07
-1.5071e-07
-1.41867e-07
-3.41635e-07
-3.29096e-07
-3.24413e-07
-3.21892e-07
-3.19394e-07
-3.16568e-07
-3.13588e-07
-3.10736e-07
-3.08221e-07
-3.06179e-07
-3.04699e-07
-3.0385e-07
-3.03701e-07
-3.04316e-07
-3.05756e-07
-3.08051e-07
-3.11182e-07
-3.15049e-07
-3.19449e-07
-3.24048e-07
-3.28335e-07
-3.31618e-07
-3.33177e-07
-3.32521e-07
-3.29497e-07
-3.24343e-07
-3.17578e-07
-3.09833e-07
-3.0177e-07
-2.94007e-07
-2.86919e-07
-2.80728e-07
-2.756e-07
-2.71618e-07
-2.68741e-07
-2.66812e-07
-2.6562e-07
-2.64954e-07
-2.64607e-07
-2.6441e-07
-2.64211e-07
-2.63886e-07
-2.63373e-07
-2.62614e-07
-2.61577e-07
-2.60273e-07
-2.58745e-07
-2.57053e-07
-2.55258e-07
-2.53419e-07
-2.51592e-07
-2.49825e-07
-2.48157e-07
-2.46621e-07
-2.45247e-07
-2.44062e-07
-2.43099e-07
-2.42373e-07
-2.41866e-07
-2.41574e-07
-2.41486e-07
-2.41583e-07
-2.41837e-07
-2.42215e-07
-2.42679e-07
-2.43179e-07
-2.43661e-07
-2.44065e-07
-2.44326e-07
-2.44371e-07
-2.44133e-07
-2.4355e-07
-2.42558e-07
-2.41099e-07
-2.3912e-07
-2.36567e-07
-2.33459e-07
-2.29744e-07
-2.25433e-07
-2.20471e-07
-2.14877e-07
-2.08678e-07
-2.01911e-07
-1.94624e-07
-1.86874e-07
-1.78725e-07
-1.70246e-07
-1.61512e-07
-1.52597e-07
-1.43578e-07
-3.67617e-07
-3.56023e-07
-3.51058e-07
-3.48454e-07
-3.45849e-07
-3.426e-07
-3.38827e-07
-3.34938e-07
-3.31301e-07
-3.2812e-07
-3.25474e-07
-3.23377e-07
-3.21826e-07
-3.20811e-07
-3.20311e-07
-3.2029e-07
-3.20678e-07
-3.2137e-07
-3.2221e-07
-3.22999e-07
-3.235e-07
-3.23466e-07
-3.22674e-07
-3.20975e-07
-3.1831e-07
-3.14738e-07
-3.10425e-07
-3.05647e-07
-3.00852e-07
-2.96228e-07
-2.91819e-07
-2.87566e-07
-2.83457e-07
-2.79567e-07
-2.76006e-07
-2.72853e-07
-2.70129e-07
-2.67798e-07
-2.65801e-07
-2.64074e-07
-2.62568e-07
-2.61212e-07
-2.59827e-07
-2.58375e-07
-2.56866e-07
-2.55305e-07
-2.53697e-07
-2.5207e-07
-2.5047e-07
-2.48943e-07
-2.47521e-07
-2.46225e-07
-2.45068e-07
-2.4406e-07
-2.43205e-07
-2.42511e-07
-2.41999e-07
-2.41683e-07
-2.41561e-07
-2.4161e-07
-2.41818e-07
-2.42172e-07
-2.42651e-07
-2.43229e-07
-2.4387e-07
-2.44534e-07
-2.4517e-07
-2.45719e-07
-2.4612e-07
-2.46303e-07
-2.46199e-07
-2.45737e-07
-2.44845e-07
-2.43481e-07
-2.4158e-07
-2.3913e-07
-2.36068e-07
-2.32379e-07
-2.28046e-07
-2.2306e-07
-2.17432e-07
-2.11188e-07
-2.04365e-07
-1.97013e-07
-1.89189e-07
-1.8096e-07
-1.72398e-07
-1.6358e-07
-1.54582e-07
-1.45482e-07
-4.1438e-07
-4.04049e-07
-3.96443e-07
-3.90536e-07
-3.85342e-07
-3.80269e-07
-3.75111e-07
-3.69904e-07
-3.64793e-07
-3.59923e-07
-3.55394e-07
-3.51255e-07
-3.47513e-07
-3.44151e-07
-3.4114e-07
-3.3844e-07
-3.36005e-07
-3.33777e-07
-3.3168e-07
-3.29625e-07
-3.27505e-07
-3.25201e-07
-3.22588e-07
-3.19557e-07
-3.16039e-07
-3.12038e-07
-3.07617e-07
-3.02875e-07
-2.97931e-07
-2.92868e-07
-2.87698e-07
-2.82564e-07
-2.77681e-07
-2.73241e-07
-2.69349e-07
-2.66045e-07
-2.63322e-07
-2.6113e-07
-2.59377e-07
-2.57961e-07
-2.56786e-07
-2.55783e-07
-2.54957e-07
-2.54247e-07
-2.53575e-07
-2.52844e-07
-2.51985e-07
-2.50976e-07
-2.49838e-07
-2.48613e-07
-2.47346e-07
-2.46077e-07
-2.44839e-07
-2.43667e-07
-2.42598e-07
-2.41666e-07
-2.40907e-07
-2.40351e-07
-2.40008e-07
-2.39874e-07
-2.39929e-07
-2.40157e-07
-2.40544e-07
-2.41068e-07
-2.41686e-07
-2.42348e-07
-2.42995e-07
-2.43563e-07
-2.43983e-07
-2.44183e-07
-2.44097e-07
-2.43638e-07
-2.42779e-07
-2.41421e-07
-2.39539e-07
-2.3711e-07
-2.34087e-07
-2.30438e-07
-2.26153e-07
-2.21232e-07
-2.15688e-07
-2.0955e-07
-2.02856e-07
-1.95657e-07
-1.88011e-07
-1.79984e-07
-1.71645e-07
-1.63069e-07
-1.5433e-07
-1.45502e-07
-4.52278e-07
-4.43019e-07
-4.35043e-07
-4.28055e-07
-4.21633e-07
-4.15397e-07
-4.09124e-07
-4.02755e-07
-3.96349e-07
-3.90019e-07
-3.83866e-07
-3.77949e-07
-3.72285e-07
-3.66862e-07
-3.61655e-07
-3.56639e-07
-3.51788e-07
-3.47073e-07
-3.42456e-07
-3.37892e-07
-3.33326e-07
-3.28708e-07
-3.23983e-07
-3.19101e-07
-3.14024e-07
-3.08717e-07
-3.03188e-07
-2.97495e-07
-2.91734e-07
-2.86019e-07
-2.80465e-07
-2.75189e-07
-2.70295e-07
-2.65865e-07
-2.61964e-07
-2.58605e-07
-2.55751e-07
-2.53345e-07
-2.51316e-07
-2.49588e-07
-2.48099e-07
-2.46802e-07
-2.45653e-07
-2.44578e-07
-2.43479e-07
-2.42309e-07
-2.41077e-07
-2.39827e-07
-2.38613e-07
-2.37478e-07
-2.36449e-07
-2.35535e-07
-2.3474e-07
-2.34068e-07
-2.33527e-07
-2.33125e-07
-2.3287e-07
-2.32768e-07
-2.32816e-07
-2.33011e-07
-2.33366e-07
-2.33875e-07
-2.34493e-07
-2.35158e-07
-2.35816e-07
-2.36429e-07
-2.36949e-07
-2.37338e-07
-2.37538e-07
-2.37484e-07
-2.37132e-07
-2.36388e-07
-2.3515e-07
-2.3349e-07
-2.31461e-07
-2.28959e-07
-2.25891e-07
-2.22245e-07
-2.18037e-07
-2.13278e-07
-2.07976e-07
-2.02156e-07
-1.95854e-07
-1.89116e-07
-1.81993e-07
-1.74541e-07
-1.66822e-07
-1.58899e-07
-1.50836e-07
-1.42698e-07
-4.8174e-07
-4.74013e-07
-4.67662e-07
-4.61661e-07
-4.5539e-07
-4.48626e-07
-4.41386e-07
-4.33807e-07
-4.26054e-07
-4.18267e-07
-4.10536e-07
-4.0291e-07
-3.95401e-07
-3.88008e-07
-3.80722e-07
-3.73534e-07
-3.66439e-07
-3.59433e-07
-3.52516e-07
-3.45683e-07
-3.38922e-07
-3.3221e-07
-3.25523e-07
-3.18839e-07
-3.12146e-07
-3.05444e-07
-2.98754e-07
-2.9212e-07
-2.85612e-07
-2.7932e-07
-2.73327e-07
-2.67697e-07
-2.62474e-07
-2.57684e-07
-2.53338e-07
-2.49432e-07
-2.45936e-07
-2.42801e-07
-2.39988e-07
-2.37468e-07
-2.35221e-07
-2.3322e-07
-2.31439e-07
-2.29841e-07
-2.28394e-07
-2.27074e-07
-2.25877e-07
-2.24805e-07
-2.23869e-07
-2.23073e-07
-2.22415e-07
-2.21885e-07
-2.21472e-07
-2.21165e-07
-2.20958e-07
-2.20847e-07
-2.20829e-07
-2.20904e-07
-2.21067e-07
-2.21313e-07
-2.2163e-07
-2.21999e-07
-2.22392e-07
-2.22776e-07
-2.23123e-07
-2.23406e-07
-2.23591e-07
-2.23649e-07
-2.23536e-07
-2.23216e-07
-2.22651e-07
-2.21792e-07
-2.20608e-07
-2.19126e-07
-2.17157e-07
-2.1468e-07
-2.11731e-07
-2.08337e-07
-2.04496e-07
-2.00197e-07
-1.95438e-07
-1.90244e-07
-1.8465e-07
-1.78697e-07
-1.72426e-07
-1.65879e-07
-1.59104e-07
-1.52152e-07
-1.45074e-07
-1.37924e-07
-5.22396e-07
-5.14493e-07
-5.0798e-07
-5.01548e-07
-4.94455e-07
-4.86479e-07
-4.77698e-07
-4.68335e-07
-4.5863e-07
-4.48768e-07
-4.38866e-07
-4.28984e-07
-4.19151e-07
-4.09379e-07
-3.99677e-07
-3.90058e-07
-3.80541e-07
-3.71143e-07
-3.61882e-07
-3.52773e-07
-3.43822e-07
-3.35033e-07
-3.26404e-07
-3.17938e-07
-3.09642e-07
-3.01533e-07
-2.93642e-07
-2.86011e-07
-2.78684e-07
-2.71698e-07
-2.65084e-07
-2.58863e-07
-2.53051e-07
-2.47656e-07
-2.42677e-07
-2.3811e-07
-2.3394e-07
-2.30148e-07
-2.26714e-07
-2.23622e-07
-2.20861e-07
-2.18416e-07
-2.16267e-07
-2.14393e-07
-2.12774e-07
-2.11385e-07
-2.10203e-07
-2.09203e-07
-2.08362e-07
-2.07662e-07
-2.07089e-07
-2.06634e-07
-2.06289e-07
-2.06048e-07
-2.05907e-07
-2.05861e-07
-2.05904e-07
-2.06029e-07
-2.06228e-07
-2.06488e-07
-2.06795e-07
-2.07131e-07
-2.07475e-07
-2.07803e-07
-2.08087e-07
-2.08301e-07
-2.08413e-07
-2.08389e-07
-2.08199e-07
-2.07808e-07
-2.07186e-07
-2.06309e-07
-2.05174e-07
-2.03717e-07
-2.01929e-07
-1.99709e-07
-1.97047e-07
-1.93985e-07
-1.9056e-07
-1.86777e-07
-1.82629e-07
-1.7812e-07
-1.73278e-07
-1.68136e-07
-1.62731e-07
-1.57096e-07
-1.51264e-07
-1.45273e-07
-1.39166e-07
-1.32983e-07
-5.77918e-07
-5.68479e-07
-5.59903e-07
-5.51431e-07
-5.42437e-07
-5.3261e-07
-5.21908e-07
-5.10465e-07
-4.98485e-07
-4.86166e-07
-4.73655e-07
-4.61044e-07
-4.4839e-07
-4.35732e-07
-4.23104e-07
-4.10545e-07
-3.98097e-07
-3.85806e-07
-3.73715e-07
-3.61862e-07
-3.50282e-07
-3.39e-07
-3.28042e-07
-3.1743e-07
-3.07188e-07
-2.97341e-07
-2.87916e-07
-2.78938e-07
-2.70422e-07
-2.6238e-07
-2.54815e-07
-2.47732e-07
-2.41133e-07
-2.35021e-07
-2.29395e-07
-2.24247e-07
-2.19568e-07
-2.15344e-07
-2.11555e-07
-2.08182e-07
-2.05201e-07
-2.02588e-07
-2.00317e-07
-1.98362e-07
-1.96694e-07
-1.95284e-07
-1.94104e-07
-1.93129e-07
-1.92334e-07
-1.91703e-07
-1.91222e-07
-1.90879e-07
-1.90667e-07
-1.90576e-07
-1.90596e-07
-1.90715e-07
-1.9092e-07
-1.91198e-07
-1.91533e-07
-1.9191e-07
-1.92312e-07
-1.92719e-07
-1.9311e-07
-1.93463e-07
-1.93754e-07
-1.93956e-07
-1.94044e-07
-1.93991e-07
-1.93772e-07
-1.9336e-07
-1.92731e-07
-1.91863e-07
-1.90735e-07
-1.89325e-07
-1.87653e-07
-1.85672e-07
-1.83351e-07
-1.80698e-07
-1.77735e-07
-1.74471e-07
-1.70906e-07
-1.67044e-07
-1.62902e-07
-1.58508e-07
-1.5389e-07
-1.49074e-07
-1.44086e-07
-1.38954e-07
-1.33711e-07
-1.28389e-07
-6.29732e-07
-6.20071e-07
-6.1064e-07
-6.00953e-07
-5.90551e-07
-5.79184e-07
-5.66813e-07
-5.53544e-07
-5.39553e-07
-5.25019e-07
-5.10089e-07
-4.94875e-07
-4.7946e-07
-4.63914e-07
-4.48305e-07
-4.32705e-07
-4.1719e-07
-4.01836e-07
-3.86716e-07
-3.71899e-07
-3.57446e-07
-3.43411e-07
-3.29842e-07
-3.16781e-07
-3.04263e-07
-2.92319e-07
-2.80979e-07
-2.70263e-07
-2.6018e-07
-2.50728e-07
-2.41904e-07
-2.33703e-07
-2.26118e-07
-2.19147e-07
-2.12782e-07
-2.07011e-07
-2.01818e-07
-1.97184e-07
-1.93079e-07
-1.89472e-07
-1.8633e-07
-1.83618e-07
-1.81301e-07
-1.79348e-07
-1.77724e-07
-1.76399e-07
-1.75343e-07
-1.7453e-07
-1.73935e-07
-1.73537e-07
-1.73316e-07
-1.73255e-07
-1.73335e-07
-1.73539e-07
-1.7385e-07
-1.74249e-07
-1.74719e-07
-1.75243e-07
-1.75802e-07
-1.76381e-07
-1.76961e-07
-1.77524e-07
-1.78052e-07
-1.78524e-07
-1.78921e-07
-1.79223e-07
-1.79408e-07
-1.79457e-07
-1.7935e-07
-1.79066e-07
-1.78588e-07
-1.77893e-07
-1.7696e-07
-1.75761e-07
-1.74238e-07
-1.72437e-07
-1.70412e-07
-1.68169e-07
-1.65683e-07
-1.62932e-07
-1.59916e-07
-1.56646e-07
-1.53141e-07
-1.49424e-07
-1.45514e-07
-1.41433e-07
-1.37201e-07
-1.32842e-07
-1.2838e-07
-1.23841e-07
-6.6663e-07
-6.57608e-07
-6.48293e-07
-6.38222e-07
-6.27064e-07
-6.14703e-07
-6.01187e-07
-5.86653e-07
-5.71265e-07
-5.55173e-07
-5.38504e-07
-5.21362e-07
-5.03845e-07
-4.86044e-07
-4.68058e-07
-4.49987e-07
-4.31933e-07
-4.14e-07
-3.96284e-07
-3.78878e-07
-3.61867e-07
-3.45329e-07
-3.29337e-07
-3.13952e-07
-2.99227e-07
-2.85202e-07
-2.71901e-07
-2.59342e-07
-2.47537e-07
-2.36498e-07
-2.26232e-07
-2.16743e-07
-2.08026e-07
-2.00071e-07
-1.92865e-07
-1.86386e-07
-1.80606e-07
-1.75495e-07
-1.71014e-07
-1.67127e-07
-1.63791e-07
-1.60967e-07
-1.58615e-07
-1.56695e-07
-1.5517e-07
-1.54003e-07
-1.5316e-07
-1.52608e-07
-1.52315e-07
-1.5225e-07
-1.52386e-07
-1.52696e-07
-1.53155e-07
-1.53737e-07
-1.54421e-07
-1.55184e-07
-1.56006e-07
-1.56868e-07
-1.57749e-07
-1.58633e-07
-1.59502e-07
-1.60337e-07
-1.6112e-07
-1.61834e-07
-1.62461e-07
-1.62984e-07
-1.63384e-07
-1.63646e-07
-1.63751e-07
-1.63684e-07
-1.63431e-07
-1.62977e-07
-1.6231e-07
-1.61418e-07
-1.60279e-07
-1.5893e-07
-1.57331e-07
-1.5551e-07
-1.5348e-07
-1.51239e-07
-1.48784e-07
-1.46117e-07
-1.43249e-07
-1.40197e-07
-1.36978e-07
-1.33611e-07
-1.30114e-07
-1.26506e-07
-1.22805e-07
-1.19032e-07
-6.89831e-07
-6.81541e-07
-6.72386e-07
-6.6195e-07
-6.50116e-07
-6.36943e-07
-6.22566e-07
-6.07131e-07
-5.90766e-07
-5.73584e-07
-5.55689e-07
-5.37184e-07
-5.18177e-07
-4.98778e-07
-4.79103e-07
-4.59269e-07
-4.39393e-07
-4.19591e-07
-3.99973e-07
-3.80646e-07
-3.61709e-07
-3.43255e-07
-3.25363e-07
-3.08107e-07
-2.91548e-07
-2.75739e-07
-2.60722e-07
-2.46532e-07
-2.33199e-07
-2.20743e-07
-2.0918e-07
-1.98515e-07
-1.88742e-07
-1.7985e-07
-1.71819e-07
-1.64622e-07
-1.58229e-07
-1.52604e-07
-1.47708e-07
-1.43499e-07
-1.39935e-07
-1.36969e-07
-1.34558e-07
-1.32657e-07
-1.31222e-07
-1.30208e-07
-1.29575e-07
-1.29281e-07
-1.29286e-07
-1.29553e-07
-1.30048e-07
-1.30736e-07
-1.31586e-07
-1.32569e-07
-1.33658e-07
-1.34827e-07
-1.36052e-07
-1.3731e-07
-1.38581e-07
-1.39842e-07
-1.41075e-07
-1.42261e-07
-1.43383e-07
-1.44423e-07
-1.45366e-07
-1.46195e-07
-1.46896e-07
-1.47455e-07
-1.47861e-07
-1.48102e-07
-1.48169e-07
-1.48053e-07
-1.47749e-07
-1.47256e-07
-1.46588e-07
-1.45706e-07
-1.44582e-07
-1.43229e-07
-1.41675e-07
-1.39944e-07
-1.38046e-07
-1.35978e-07
-1.3374e-07
-1.31341e-07
-1.28794e-07
-1.26116e-07
-1.23324e-07
-1.20433e-07
-1.17456e-07
-1.14408e-07
-7.01997e-07
-6.93694e-07
-6.84023e-07
-6.72909e-07
-6.60408e-07
-6.46628e-07
-6.31674e-07
-6.15641e-07
-5.9862e-07
-5.80704e-07
-5.61995e-07
-5.42604e-07
-5.22644e-07
-5.02235e-07
-4.81497e-07
-4.60553e-07
-4.39525e-07
-4.18532e-07
-3.97693e-07
-3.77118e-07
-3.56917e-07
-3.37188e-07
-3.18022e-07
-2.99504e-07
-2.81708e-07
-2.64699e-07
-2.48532e-07
-2.33253e-07
-2.18895e-07
-2.05483e-07
-1.93034e-07
-1.81552e-07
-1.71033e-07
-1.61465e-07
-1.52829e-07
-1.45101e-07
-1.3825e-07
-1.3224e-07
-1.27033e-07
-1.22586e-07
-1.18853e-07
-1.15787e-07
-1.13339e-07
-1.11461e-07
-1.10103e-07
-1.09218e-07
-1.08758e-07
-1.08677e-07
-1.08931e-07
-1.09477e-07
-1.10277e-07
-1.11291e-07
-1.12484e-07
-1.13822e-07
-1.15275e-07
-1.16811e-07
-1.18405e-07
-1.2003e-07
-1.21662e-07
-1.23278e-07
-1.24859e-07
-1.26385e-07
-1.27838e-07
-1.29201e-07
-1.3046e-07
-1.31601e-07
-1.3261e-07
-1.33478e-07
-1.34193e-07
-1.34747e-07
-1.35134e-07
-1.35347e-07
-1.35383e-07
-1.35239e-07
-1.34913e-07
-1.34402e-07
-1.33738e-07
-1.32882e-07
-1.31818e-07
-1.30571e-07
-1.2916e-07
-1.27596e-07
-1.25885e-07
-1.24032e-07
-1.22048e-07
-1.19945e-07
-1.17736e-07
-1.15433e-07
-1.13047e-07
-1.10589e-07
-7.03314e-07
-6.95659e-07
-6.85087e-07
-6.73656e-07
-6.60831e-07
-6.46699e-07
-6.31378e-07
-6.1494e-07
-5.97482e-07
-5.791e-07
-5.59902e-07
-5.39999e-07
-5.19508e-07
-4.98548e-07
-4.77243e-07
-4.55715e-07
-4.34089e-07
-4.12486e-07
-3.91026e-07
-3.69825e-07
-3.48993e-07
-3.28633e-07
-3.08841e-07
-2.8971e-07
-2.71318e-07
-2.53735e-07
-2.37016e-07
-2.21211e-07
-2.06356e-07
-1.92477e-07
-1.79589e-07
-1.677e-07
-1.56808e-07
-1.46905e-07
-1.37975e-07
-1.29993e-07
-1.22929e-07
-1.1675e-07
-1.11415e-07
-1.06882e-07
-1.03103e-07
-1.00031e-07
-9.76145e-08
-9.58029e-08
-9.45451e-08
-9.37903e-08
-9.34887e-08
-9.35919e-08
-9.4053e-08
-9.48269e-08
-9.58706e-08
-9.71432e-08
-9.8606e-08
-1.00223e-07
-1.01959e-07
-1.03783e-07
-1.05665e-07
-1.07577e-07
-1.09494e-07
-1.11393e-07
-1.13251e-07
-1.1505e-07
-1.16771e-07
-1.18398e-07
-1.19916e-07
-1.21312e-07
-1.22575e-07
-1.23694e-07
-1.2466e-07
-1.25466e-07
-1.26107e-07
-1.26577e-07
-1.26874e-07
-1.26995e-07
-1.26942e-07
-1.26715e-07
-1.26323e-07
-1.25761e-07
-1.25036e-07
-1.24167e-07
-1.2313e-07
-1.2193e-07
-1.20581e-07
-1.19097e-07
-1.17493e-07
-1.15777e-07
-1.13957e-07
-1.12043e-07
-1.10046e-07
-1.07974e-07
-6.99147e-07
-6.90437e-07
-6.80123e-07
-6.68491e-07
-6.55445e-07
-6.41134e-07
-6.25586e-07
-6.08919e-07
-5.91216e-07
-5.72591e-07
-5.53149e-07
-5.33007e-07
-5.12281e-07
-4.91094e-07
-4.69569e-07
-4.47829e-07
-4.26e-07
-4.04203e-07
-3.82559e-07
-3.61183e-07
-3.40187e-07
-3.1967e-07
-2.99729e-07
-2.80464e-07
-2.61948e-07
-2.44251e-07
-2.2743e-07
-2.11535e-07
-1.96599e-07
-1.82651e-07
-1.69703e-07
-1.57758e-07
-1.4682e-07
-1.36885e-07
-1.27939e-07
-1.19961e-07
-1.12919e-07
-1.06779e-07
-1.01499e-07
-9.70362e-08
-9.33429e-08
-9.03697e-08
-8.80658e-08
-8.63797e-08
-8.52594e-08
-8.46536e-08
-8.45116e-08
-8.4784e-08
-8.54226e-08
-8.63813e-08
-8.76158e-08
-8.90838e-08
-9.07454e-08
-9.25631e-08
-9.45014e-08
-9.65274e-08
-9.86106e-08
-1.00723e-07
-1.02837e-07
-1.0493e-07
-1.0698e-07
-1.08967e-07
-1.10872e-07
-1.1268e-07
-1.14375e-07
-1.15945e-07
-1.17379e-07
-1.18667e-07
-1.198e-07
-1.20772e-07
-1.21578e-07
-1.22213e-07
-1.22675e-07
-1.22961e-07
-1.23073e-07
-1.23012e-07
-1.22779e-07
-1.22377e-07
-1.21808e-07
-1.21056e-07
-1.20164e-07
-1.19153e-07
-1.17997e-07
-1.167e-07
-1.1528e-07
-1.13748e-07
-1.12113e-07
-1.10382e-07
-1.08564e-07
-1.06669e-07
-6.94684e-07
-6.8552e-07
-6.74917e-07
-6.62992e-07
-6.4971e-07
-6.35184e-07
-6.19444e-07
-6.02607e-07
-5.84742e-07
-5.6597e-07
-5.46387e-07
-5.26121e-07
-5.05285e-07
-4.84008e-07
-4.62411e-07
-4.40623e-07
-4.18765e-07
-3.96963e-07
-3.75334e-07
-3.53994e-07
-3.33052e-07
-3.12612e-07
-2.92767e-07
-2.73607e-07
-2.55208e-07
-2.37638e-07
-2.20956e-07
-2.05214e-07
-1.90417e-07
-1.76602e-07
-1.63786e-07
-1.51985e-07
-1.41204e-07
-1.31435e-07
-1.22661e-07
-1.14856e-07
-1.07988e-07
-1.02021e-07
-9.69134e-08
-9.26207e-08
-8.90955e-08
-8.62884e-08
-8.41485e-08
-8.26241e-08
-8.16631e-08
-8.12135e-08
-8.12242e-08
-8.16453e-08
-8.24289e-08
-8.35284e-08
-8.48997e-08
-8.65004e-08
-8.82905e-08
-9.02323e-08
-9.22905e-08
-9.4432e-08
-9.66261e-08
-9.88445e-08
-1.01061e-07
-1.03251e-07
-1.05393e-07
-1.07467e-07
-1.09456e-07
-1.11341e-07
-1.1311e-07
-1.14749e-07
-1.16248e-07
-1.17596e-07
-1.18785e-07
-1.1981e-07
-1.20664e-07
-1.21345e-07
-1.21849e-07
-1.22172e-07
-1.22321e-07
-1.22295e-07
-1.22095e-07
-1.21725e-07
-1.21188e-07
-1.20488e-07
-1.19633e-07
-1.18618e-07
-1.17467e-07
-1.1619e-07
-1.1479e-07
-1.13278e-07
-1.11661e-07
-1.09948e-07
-1.0815e-07
-1.06275e-07
-6.96596e-07
-6.87286e-07
-6.76502e-07
-6.64375e-07
-6.50871e-07
-6.36109e-07
-6.20124e-07
-6.03035e-07
-5.84921e-07
-5.65903e-07
-5.46084e-07
-5.25591e-07
-5.04536e-07
-4.8305e-07
-4.61256e-07
-4.39284e-07
-4.17258e-07
-3.95304e-07
-3.73542e-07
-3.52088e-07
-3.31054e-07
-3.10541e-07
-2.90644e-07
-2.71447e-07
-2.5303e-07
-2.35457e-07
-2.18781e-07
-2.03041e-07
-1.88299e-07
-1.74562e-07
-1.61843e-07
-1.50153e-07
-1.39491e-07
-1.2985e-07
-1.21204e-07
-1.13529e-07
-1.06792e-07
-1.00954e-07
-9.59734e-08
-9.18041e-08
-8.83974e-08
-8.57029e-08
-8.36691e-08
-8.22437e-08
-8.13749e-08
-8.10113e-08
-8.11025e-08
-8.15988e-08
-8.24522e-08
-8.36163e-08
-8.50467e-08
-8.67013e-08
-8.85402e-08
-9.05258e-08
-9.26229e-08
-9.47988e-08
-9.70229e-08
-9.9267e-08
-1.01505e-07
-1.03714e-07
-1.05871e-07
-1.07956e-07
-1.09953e-07
-1.11844e-07
-1.13615e-07
-1.15255e-07
-1.16752e-07
-1.18096e-07
-1.19279e-07
-1.20296e-07
-1.21141e-07
-1.2181e-07
-1.22301e-07
-1.22617e-07
-1.2275e-07
-1.22705e-07
-1.22484e-07
-1.22091e-07
-1.2153e-07
-1.20808e-07
-1.1993e-07
-1.18908e-07
-1.17748e-07
-1.16457e-07
-1.15041e-07
-1.13508e-07
-1.11865e-07
-1.10121e-07
-1.08283e-07
-7.04188e-07
-6.95001e-07
-6.84157e-07
-6.71947e-07
-6.58295e-07
-6.43346e-07
-6.27143e-07
-6.09808e-07
-5.91436e-07
-5.72148e-07
-5.5206e-07
-5.31294e-07
-5.09975e-07
-4.88231e-07
-4.66191e-07
-4.43982e-07
-4.21734e-07
-3.99571e-07
-3.77617e-07
-3.55987e-07
-3.34795e-07
-3.14144e-07
-2.94116e-07
-2.7482e-07
-2.56321e-07
-2.38685e-07
-2.21967e-07
-2.06212e-07
-1.91456e-07
-1.77718e-07
-1.65005e-07
-1.5332e-07
-1.42663e-07
-1.33024e-07
-1.24382e-07
-1.16709e-07
-1.09973e-07
-1.04135e-07
-9.91528e-08
-9.49804e-08
-9.15691e-08
-8.8868e-08
-8.68249e-08
-8.53874e-08
-8.45027e-08
-8.41192e-08
-8.41856e-08
-8.46524e-08
-8.54716e-08
-8.6597e-08
-8.79845e-08
-8.95922e-08
-9.13807e-08
-9.33127e-08
-9.53535e-08
-9.74707e-08
-9.96341e-08
-1.01816e-07
-1.03991e-07
-1.06135e-07
-1.08226e-07
-1.10247e-07
-1.12177e-07
-1.14003e-07
-1.15709e-07
-1.17283e-07
-1.18714e-07
-1.19993e-07
-1.21111e-07
-1.22063e-07
-1.22843e-07
-1.23447e-07
-1.23873e-07
-1.24121e-07
-1.24189e-07
-1.2408e-07
-1.23794e-07
-1.23335e-07
-1.22706e-07
-1.21909e-07
-1.20946e-07
-1.19829e-07
-1.1857e-07
-1.17187e-07
-1.1569e-07
-1.14083e-07
-1.12371e-07
-1.10565e-07
-1.08681e-07
-7.09552e-07
-7.01315e-07
-6.90102e-07
-6.77794e-07
-6.64131e-07
-6.49131e-07
-6.32918e-07
-6.15579e-07
-5.97221e-07
-5.77952e-07
-5.57893e-07
-5.37164e-07
-5.15891e-07
-4.94202e-07
-4.72228e-07
-4.50098e-07
-4.2794e-07
-4.05881e-07
-3.84043e-07
-3.62541e-07
-3.41487e-07
-3.20982e-07
-3.0112e-07
-2.81988e-07
-2.6366e-07
-2.46201e-07
-2.29662e-07
-2.14085e-07
-1.99501e-07
-1.85929e-07
-1.73379e-07
-1.61852e-07
-1.51342e-07
-1.41836e-07
-1.33312e-07
-1.25742e-07
-1.19089e-07
-1.13313e-07
-1.08371e-07
-1.04215e-07
-1.008e-07
-9.80741e-08
-9.59879e-08
-9.4489e-08
-9.35259e-08
-9.30476e-08
-9.30045e-08
-9.33484e-08
-9.40327e-08
-9.50127e-08
-9.6246e-08
-9.76922e-08
-9.93133e-08
-1.01073e-07
-1.02939e-07
-1.0488e-07
-1.06865e-07
-1.08869e-07
-1.10866e-07
-1.12834e-07
-1.14751e-07
-1.16599e-07
-1.18358e-07
-1.20015e-07
-1.21554e-07
-1.22962e-07
-1.24228e-07
-1.25342e-07
-1.26296e-07
-1.27082e-07
-1.27694e-07
-1.28129e-07
-1.28383e-07
-1.28455e-07
-1.28344e-07
-1.28053e-07
-1.27581e-07
-1.26935e-07
-1.26119e-07
-1.25145e-07
-1.24014e-07
-1.22725e-07
-1.21294e-07
-1.19723e-07
-1.1802e-07
-1.16196e-07
-1.14265e-07
-1.12243e-07
-1.10138e-07
-7.08471e-07
-6.99356e-07
-6.88829e-07
-6.76804e-07
-6.63344e-07
-6.48572e-07
-6.32608e-07
-6.15561e-07
-5.97536e-07
-5.7864e-07
-5.58987e-07
-5.38699e-07
-5.179e-07
-4.96717e-07
-4.7528e-07
-4.53716e-07
-4.32152e-07
-4.1071e-07
-3.8951e-07
-3.68663e-07
-3.48274e-07
-3.28442e-07
-3.09252e-07
-2.90785e-07
-2.7311e-07
-2.56285e-07
-2.40358e-07
-2.25367e-07
-2.11339e-07
-1.98292e-07
-1.86233e-07
-1.75162e-07
-1.65067e-07
-1.55933e-07
-1.47734e-07
-1.40442e-07
-1.3402e-07
-1.28428e-07
-1.23626e-07
-1.19566e-07
-1.16204e-07
-1.13492e-07
-1.11381e-07
-1.09821e-07
-1.08764e-07
-1.08162e-07
-1.07967e-07
-1.08134e-07
-1.08621e-07
-1.09385e-07
-1.10386e-07
-1.11588e-07
-1.12955e-07
-1.14455e-07
-1.16056e-07
-1.1773e-07
-1.19449e-07
-1.21188e-07
-1.22923e-07
-1.24632e-07
-1.26296e-07
-1.27893e-07
-1.29408e-07
-1.30823e-07
-1.32123e-07
-1.33294e-07
-1.34325e-07
-1.35202e-07
-1.35918e-07
-1.36462e-07
-1.36827e-07
-1.37009e-07
-1.37002e-07
-1.36806e-07
-1.36418e-07
-1.35842e-07
-1.3508e-07
-1.3414e-07
-1.33024e-07
-1.31695e-07
-1.30171e-07
-1.28486e-07
-1.26661e-07
-1.24697e-07
-1.22596e-07
-1.20365e-07
-1.18024e-07
-1.1559e-07
-1.13075e-07
-6.95796e-07
-6.86621e-07
-6.76546e-07
-6.65161e-07
-6.52345e-07
-6.38162e-07
-6.22761e-07
-6.06308e-07
-5.88947e-07
-5.70804e-07
-5.51994e-07
-5.3263e-07
-5.12828e-07
-4.92707e-07
-4.7239e-07
-4.51999e-07
-4.31653e-07
-4.11469e-07
-3.91557e-07
-3.72023e-07
-3.5296e-07
-3.34456e-07
-3.16587e-07
-2.99419e-07
-2.83008e-07
-2.674e-07
-2.52632e-07
-2.38732e-07
-2.25724e-07
-2.13622e-07
-2.02433e-07
-1.92153e-07
-1.82774e-07
-1.74277e-07
-1.66639e-07
-1.59831e-07
-1.53818e-07
-1.48563e-07
-1.44025e-07
-1.40161e-07
-1.36926e-07
-1.34277e-07
-1.32168e-07
-1.30556e-07
-1.29395e-07
-1.28645e-07
-1.28262e-07
-1.28208e-07
-1.28442e-07
-1.28928e-07
-1.29632e-07
-1.3052e-07
-1.31561e-07
-1.32726e-07
-1.33988e-07
-1.35321e-07
-1.36702e-07
-1.38106e-07
-1.39513e-07
-1.40901e-07
-1.42251e-07
-1.43543e-07
-1.4476e-07
-1.45884e-07
-1.46899e-07
-1.47787e-07
-1.48536e-07
-1.4913e-07
-1.49557e-07
-1.49806e-07
-1.49866e-07
-1.49732e-07
-1.49395e-07
-1.48852e-07
-1.48102e-07
-1.47152e-07
-1.45989e-07
-1.44608e-07
-1.4297e-07
-1.41114e-07
-1.39084e-07
-1.36893e-07
-1.34542e-07
-1.32028e-07
-1.29358e-07
-1.26551e-07
-1.23627e-07
-1.20605e-07
-1.17501e-07
-6.71512e-07
-6.61658e-07
-6.51491e-07
-6.40535e-07
-6.28457e-07
-6.15155e-07
-6.00694e-07
-5.85232e-07
-5.68948e-07
-5.52004e-07
-5.34532e-07
-5.16646e-07
-4.98448e-07
-4.80039e-07
-4.61521e-07
-4.42999e-07
-4.24576e-07
-4.06352e-07
-3.88425e-07
-3.70883e-07
-3.53808e-07
-3.37274e-07
-3.21344e-07
-3.06072e-07
-2.91501e-07
-2.77663e-07
-2.64577e-07
-2.52256e-07
-2.40713e-07
-2.29953e-07
-2.1998e-07
-2.1079e-07
-2.02377e-07
-1.94727e-07
-1.87822e-07
-1.8164e-07
-1.76153e-07
-1.71327e-07
-1.67127e-07
-1.63512e-07
-1.60444e-07
-1.57879e-07
-1.55781e-07
-1.54108e-07
-1.52826e-07
-1.51897e-07
-1.51288e-07
-1.50966e-07
-1.50899e-07
-1.51058e-07
-1.51415e-07
-1.51941e-07
-1.52613e-07
-1.53403e-07
-1.5429e-07
-1.55251e-07
-1.56264e-07
-1.57308e-07
-1.58365e-07
-1.59415e-07
-1.60439e-07
-1.61417e-07
-1.62332e-07
-1.63164e-07
-1.63895e-07
-1.64506e-07
-1.6498e-07
-1.65299e-07
-1.65447e-07
-1.65405e-07
-1.65162e-07
-1.64701e-07
-1.64013e-07
-1.6309e-07
-1.6193e-07
-1.60519e-07
-1.58863e-07
-1.56938e-07
-1.54785e-07
-1.52423e-07
-1.49854e-07
-1.47075e-07
-1.44093e-07
-1.4092e-07
-1.37577e-07
-1.34084e-07
-1.30463e-07
-1.26732e-07
-1.22912e-07
-6.33343e-07
-6.22989e-07
-6.12849e-07
-6.02418e-07
-5.9124e-07
-5.79085e-07
-5.65932e-07
-5.51904e-07
-5.37191e-07
-5.21979e-07
-5.06422e-07
-4.90631e-07
-4.74695e-07
-4.58685e-07
-4.42673e-07
-4.26733e-07
-4.1094e-07
-3.95369e-07
-3.80091e-07
-3.65171e-07
-3.50665e-07
-3.36624e-07
-3.2309e-07
-3.10099e-07
-2.97682e-07
-2.85867e-07
-2.74677e-07
-2.64126e-07
-2.54217e-07
-2.44947e-07
-2.36312e-07
-2.28305e-07
-2.2092e-07
-2.14152e-07
-2.07991e-07
-2.02425e-07
-1.97437e-07
-1.93008e-07
-1.8911e-07
-1.85713e-07
-1.82782e-07
-1.80283e-07
-1.78182e-07
-1.76446e-07
-1.75042e-07
-1.73939e-07
-1.73108e-07
-1.72521e-07
-1.72154e-07
-1.71986e-07
-1.71997e-07
-1.72168e-07
-1.7248e-07
-1.72916e-07
-1.73457e-07
-1.74082e-07
-1.74772e-07
-1.7551e-07
-1.76275e-07
-1.7705e-07
-1.77816e-07
-1.78552e-07
-1.79238e-07
-1.79854e-07
-1.80377e-07
-1.80787e-07
-1.81062e-07
-1.81182e-07
-1.81126e-07
-1.80875e-07
-1.80409e-07
-1.79709e-07
-1.78753e-07
-1.77521e-07
-1.75983e-07
-1.74118e-07
-1.71978e-07
-1.69609e-07
-1.67004e-07
-1.64141e-07
-1.61011e-07
-1.57619e-07
-1.53986e-07
-1.50139e-07
-1.46101e-07
-1.41895e-07
-1.37543e-07
-1.33067e-07
-1.28494e-07
-5.80416e-07
-5.70475e-07
-5.6141e-07
-5.52416e-07
-5.42861e-07
-5.32449e-07
-5.21162e-07
-5.09153e-07
-4.96639e-07
-4.83821e-07
-4.70846e-07
-4.57807e-07
-4.44761e-07
-4.31747e-07
-4.18802e-07
-4.05967e-07
-3.93284e-07
-3.80797e-07
-3.68548e-07
-3.56573e-07
-3.44903e-07
-3.33563e-07
-3.22574e-07
-3.11959e-07
-3.01737e-07
-2.91932e-07
-2.82565e-07
-2.73656e-07
-2.65219e-07
-2.57262e-07
-2.49791e-07
-2.42812e-07
-2.36328e-07
-2.30338e-07
-2.24841e-07
-2.19829e-07
-2.15293e-07
-2.11218e-07
-2.07585e-07
-2.04375e-07
-2.01564e-07
-1.9913e-07
-1.97046e-07
-1.95287e-07
-1.93823e-07
-1.92627e-07
-1.91668e-07
-1.90919e-07
-1.90357e-07
-1.89964e-07
-1.89725e-07
-1.8963e-07
-1.89667e-07
-1.89827e-07
-1.90097e-07
-1.90465e-07
-1.90916e-07
-1.91434e-07
-1.92001e-07
-1.92601e-07
-1.93213e-07
-1.93816e-07
-1.94388e-07
-1.94904e-07
-1.95338e-07
-1.95663e-07
-1.95852e-07
-1.95879e-07
-1.95717e-07
-1.9534e-07
-1.94725e-07
-1.93851e-07
-1.92698e-07
-1.91248e-07
-1.89476e-07
-1.87401e-07
-1.84981e-07
-1.82212e-07
-1.79121e-07
-1.75723e-07
-1.7202e-07
-1.68016e-07
-1.63731e-07
-1.59196e-07
-1.54442e-07
-1.49495e-07
-1.44383e-07
-1.39134e-07
-1.33782e-07
-5.24715e-07
-5.16424e-07
-5.09515e-07
-5.02665e-07
-4.95137e-07
-4.86718e-07
-4.77498e-07
-4.67711e-07
-4.57598e-07
-4.47348e-07
-4.37076e-07
-4.26843e-07
-4.16678e-07
-4.06594e-07
-3.96604e-07
-3.86723e-07
-3.76968e-07
-3.67359e-07
-3.57913e-07
-3.48641e-07
-3.39551e-07
-3.30643e-07
-3.21916e-07
-3.13372e-07
-3.05018e-07
-2.96871e-07
-2.88959e-07
-2.81323e-07
-2.74002e-07
-2.67034e-07
-2.60448e-07
-2.54269e-07
-2.4851e-07
-2.4318e-07
-2.38278e-07
-2.338e-07
-2.2973e-07
-2.26047e-07
-2.2273e-07
-2.19765e-07
-2.17138e-07
-2.14836e-07
-2.12843e-07
-2.11138e-07
-2.09702e-07
-2.08512e-07
-2.07542e-07
-2.06767e-07
-2.06162e-07
-2.05708e-07
-2.05389e-07
-2.05196e-07
-2.05118e-07
-2.0515e-07
-2.05284e-07
-2.05515e-07
-2.05835e-07
-2.06235e-07
-2.06702e-07
-2.07222e-07
-2.07776e-07
-2.08343e-07
-2.089e-07
-2.0942e-07
-2.09874e-07
-2.10233e-07
-2.10462e-07
-2.10529e-07
-2.10401e-07
-2.10043e-07
-2.09426e-07
-2.08524e-07
-2.07322e-07
-2.05795e-07
-2.03931e-07
-2.01619e-07
-1.9884e-07
-1.95639e-07
-1.92059e-07
-1.88112e-07
-1.83796e-07
-1.7912e-07
-1.74113e-07
-1.68812e-07
-1.63253e-07
-1.57472e-07
-1.51504e-07
-1.4539e-07
-1.3917e-07
-4.84157e-07
-4.7612e-07
-4.69431e-07
-4.63078e-07
-4.5645e-07
-4.49329e-07
-4.41735e-07
-4.33808e-07
-4.25712e-07
-4.17588e-07
-4.09527e-07
-4.01577e-07
-3.93754e-07
-3.86058e-07
-3.78483e-07
-3.71024e-07
-3.63677e-07
-3.56442e-07
-3.49318e-07
-3.42299e-07
-3.35371e-07
-3.2851e-07
-3.21691e-07
-3.14892e-07
-3.08099e-07
-3.01311e-07
-2.94548e-07
-2.87854e-07
-2.81301e-07
-2.74976e-07
-2.68961e-07
-2.63319e-07
-2.58095e-07
-2.53315e-07
-2.48993e-07
-2.45124e-07
-2.41678e-07
-2.38607e-07
-2.35866e-07
-2.33429e-07
-2.31275e-07
-2.29383e-07
-2.27725e-07
-2.26266e-07
-2.24974e-07
-2.2383e-07
-2.22829e-07
-2.21978e-07
-2.21285e-07
-2.20753e-07
-2.20375e-07
-2.20138e-07
-2.20028e-07
-2.20032e-07
-2.20142e-07
-2.20352e-07
-2.20656e-07
-2.21052e-07
-2.21532e-07
-2.22086e-07
-2.22699e-07
-2.23344e-07
-2.23991e-07
-2.24604e-07
-2.25156e-07
-2.25615e-07
-2.25947e-07
-2.26119e-07
-2.26084e-07
-2.25808e-07
-2.2525e-07
-2.24365e-07
-2.23139e-07
-2.21572e-07
-2.19477e-07
-2.16849e-07
-2.13741e-07
-2.10178e-07
-2.06154e-07
-2.01657e-07
-1.96696e-07
-1.91303e-07
-1.85515e-07
-1.79375e-07
-1.72925e-07
-1.66211e-07
-1.59283e-07
-1.52194e-07
-1.44995e-07
-4.54363e-07
-4.44885e-07
-4.36691e-07
-4.29467e-07
-4.22784e-07
-4.16267e-07
-4.09703e-07
-4.03043e-07
-3.96351e-07
-3.8974e-07
-3.8331e-07
-3.77119e-07
-3.71182e-07
-3.65491e-07
-3.60023e-07
-3.54756e-07