/*--------------------------------*- C++ -*----------------------------------*\
| =========                 |                                                 |
| \\      /  F ield         | OpenFOAM: The Open Source CFD Toolbox           |
|  \\    /   O peration     | Version:  2312                                  |
|   \\  /    A nd           | Website:  www.openfoam.com                      |
|    \\/     M anipulation  |                                                 |
\*---------------------------------------------------------------------------*/
FoamFile
{
    version     2.0;
    format      ascii;
    arch        "LSB;label=32;scalar=64";
    class       volVectorField;
    location    "83000";
    object      U;
}
// * * * * * * * * * * * * * * * * * * * * * * * * * * * * * * * * * * * * * //

dimensions      [0 1 -1 0 0 0 0];

internalField   nonuniform List<vector> 
2685
(
(0.000716356 -2.23606e-05 0)
(0.000724517 -1.02187e-05 0)
(0.000703205 -1.23982e-06 0)
(0.000679833 7.35399e-06 0)
(0.000657146 1.51505e-05 0)
(0.000633569 2.15054e-05 0)
(0.00060735 2.63786e-05 0)
(0.000578093 3.0059e-05 0)
(0.000546185 3.29099e-05 0)
(0.000512298 3.51684e-05 0)
(0.000476902 3.69307e-05 0)
(0.000440236 3.82099e-05 0)
(0.000402438 3.89807e-05 0)
(0.000363673 3.9198e-05 0)
(0.000324174 3.8798e-05 0)
(0.000284248 3.7705e-05 0)
(0.000244279 3.5811e-05 0)
(0.00020468 3.30003e-05 0)
(0.000165901 2.9057e-05 0)
(0.00012859 2.33586e-05 0)
(9.3687e-05 1.51694e-05 0)
(6.21909e-05 4.53478e-06 0)
(3.49525e-05 -7.44036e-06 0)
(1.24254e-05 -1.93339e-05 0)
(-5.34901e-06 -3.0026e-05 0)
(-1.81251e-05 -3.87892e-05 0)
(-2.65064e-05 -4.55489e-05 0)
(-3.10518e-05 -5.01141e-05 0)
(-3.2708e-05 -5.23065e-05 0)
(-3.16633e-05 -5.20159e-05 0)
(-2.87663e-05 -4.97774e-05 0)
(-2.46559e-05 -4.59329e-05 0)
(-2.00292e-05 -4.07157e-05 0)
(-1.54539e-05 -3.43696e-05 0)
(-1.13531e-05 -2.72412e-05 0)
(-8.06611e-06 -1.9765e-05 0)
(-5.82385e-06 -1.23764e-05 0)
(-4.78557e-06 -5.47465e-06 0)
(-4.83492e-06 6.17813e-07 0)
(-5.92917e-06 5.59387e-06 0)
(-7.98929e-06 9.3237e-06 0)
(-1.07825e-05 1.18072e-05 0)
(-1.39441e-05 1.31741e-05 0)
(-1.71246e-05 1.35899e-05 0)
(-2.00797e-05 1.32517e-05 0)
(-2.26727e-05 1.23726e-05 0)
(-2.48568e-05 1.11421e-05 0)
(-2.66594e-05 9.71356e-06 0)
(-2.81566e-05 8.2068e-06 0)
(-2.94517e-05 6.71429e-06 0)
(-3.06578e-05 5.30774e-06 0)
(-3.18851e-05 4.04332e-06 0)
(-3.32338e-05 2.96485e-06 0)
(-3.47929e-05 2.10596e-06 0)
(-3.66379e-05 1.49117e-06 0)
(-3.88278e-05 1.13236e-06 0)
(-4.1399e-05 1.02396e-06 0)
(-4.43913e-05 1.11828e-06 0)
(-4.78438e-05 1.38594e-06 0)
(-5.17579e-05 1.8024e-06 0)
(-5.61165e-05 2.33694e-06 0)
(-6.08896e-05 2.95418e-06 0)
(-6.60345e-05 3.61702e-06 0)
(-7.14964e-05 4.28858e-06 0)
(-7.72081e-05 4.93355e-06 0)
(-8.30917e-05 5.5195e-06 0)
(-8.90593e-05 6.01807e-06 0)
(-9.5016e-05 6.40613e-06 0)
(-0.000100865 6.66716e-06 0)
(-0.000106516 6.7936e-06 0)
(-0.000111863 6.79161e-06 0)
(-0.000116792 6.66487e-06 0)
(-0.000121193 6.41759e-06 0)
(-0.000124974 6.05765e-06 0)
(-0.00012805 5.59629e-06 0)
(-0.000130347 5.0512e-06 0)
(-0.000131796 4.41761e-06 0)
(-0.000132331 3.6932e-06 0)
(-0.000131937 2.87215e-06 0)
(-0.000130611 1.98981e-06 0)
(-0.000128327 1.07049e-06 0)
(-0.000125077 1.3528e-07 0)
(-0.000120876 -7.96553e-07 0)
(-0.000115747 -1.70761e-06 0)
(-0.000109729 -2.58241e-06 0)
(-0.000102872 -3.40744e-06 0)
(-9.5236e-05 -4.17131e-06 0)
(-8.68873e-05 -4.86469e-06 0)
(-7.79004e-05 -5.48023e-06 0)
(-6.83543e-05 -6.01251e-06 0)
(0.00130459 4.43384e-05 0)
(0.00128835 5.45194e-05 0)
(0.00127628 6.34697e-05 0)
(0.001264 7.23554e-05 0)
(0.00124993 8.09329e-05 0)
(0.00123391 8.87941e-05 0)
(0.00121614 9.58432e-05 0)
(0.00119685 0.000102151 0)
(0.00117619 0.000107861 0)
(0.0011542 0.000113066 0)
(0.00113092 0.000117806 0)
(0.00110635 0.000122069 0)
(0.00108053 0.000125824 0)
(0.00105352 0.000129013 0)
(0.0010254 0.000131554 0)
(0.000996255 0.000133345 0)
(0.000966189 0.000134251 0)
(0.000935311 0.00013414 0)
(0.000903626 0.00013284 0)
(0.000871197 0.000130217 0)
(0.000837883 0.000126097 0)
(0.000803619 0.000120454 0)
(0.000767905 0.000113307 0)
(0.000730613 0.000104921 0)
(0.000691358 9.54898e-05 0)
(0.000650516 8.53942e-05 0)
(0.000608531 7.50102e-05 0)
(0.000565409 6.45319e-05 0)
(0.000521849 5.423e-05 0)
(0.000479079 4.46199e-05 0)
(0.000437373 3.6044e-05 0)
(0.000396996 2.86422e-05 0)
(0.000358366 2.23774e-05 0)
(0.000321981 1.71068e-05 0)
(0.000288244 1.26801e-05 0)
(0.000257371 9.00529e-06 0)
(0.000229458 6.04867e-06 0)
(0.000204549 3.76227e-06 0)
(0.000182622 2.16856e-06 0)
(0.000163345 1.20961e-06 0)
(0.000146806 7.80606e-07 0)
(0.000132823 5.00029e-07 0)
(0.000120994 -8.83736e-08 0)
(0.000110984 -1.00388e-06 0)
(0.000102449 -1.99419e-06 0)
(9.51484e-05 -2.7939e-06 0)
(8.88907e-05 -3.23707e-06 0)
(8.35062e-05 -3.24058e-06 0)
(7.88488e-05 -2.77591e-06 0)
(7.47951e-05 -1.86246e-06 0)
(7.12387e-05 -5.60532e-07 0)
(6.80837e-05 1.04808e-06 0)
(6.5242e-05 2.88125e-06 0)
(6.26313e-05 4.86793e-06 0)
(6.01701e-05 6.94983e-06 0)
(5.7771e-05 9.07863e-06 0)
(5.52946e-05 1.11983e-05 0)
(5.27053e-05 1.32309e-05 0)
(5.00052e-05 1.50973e-05 0)
(4.71984e-05 1.67453e-05 0)
(4.42868e-05 1.81493e-05 0)
(4.12877e-05 1.92915e-05 0)
(3.82353e-05 2.0155e-05 0)
(3.51769e-05 2.07236e-05 0)
(3.21715e-05 2.09826e-05 0)
(2.9288e-05 2.09186e-05 0)
(2.66032e-05 2.05196e-05 0)
(2.41995e-05 1.97782e-05 0)
(2.21651e-05 1.86925e-05 0)
(2.05994e-05 1.72692e-05 0)
(1.95898e-05 1.55279e-05 0)
(1.91984e-05 1.34913e-05 0)
(1.949e-05 1.11857e-05 0)
(2.05277e-05 8.63584e-06 0)
(2.23707e-05 5.86644e-06 0)
(2.50094e-05 2.90278e-06 0)
(2.84567e-05 -2.18791e-07 0)
(3.27231e-05 -3.46727e-06 0)
(3.78767e-05 -6.81554e-06 0)
(4.3971e-05 -1.02094e-05 0)
(5.09847e-05 -1.35975e-05 0)
(5.88963e-05 -1.69326e-05 0)
(6.76759e-05 -2.01711e-05 0)
(7.7284e-05 -2.32731e-05 0)
(8.76724e-05 -2.62025e-05 0)
(9.87852e-05 -2.89278e-05 0)
(0.00011056 -3.14219e-05 0)
(0.000122929 -3.36626e-05 0)
(0.00013582 -3.56321e-05 0)
(0.000149158 -3.73173e-05 0)
(0.00154213 4.93096e-05 0)
(0.00153092 6.07164e-05 0)
(0.00152318 7.1773e-05 0)
(0.0015162 8.22622e-05 0)
(0.00150843 9.22977e-05 0)
(0.00149944 0.000101964 0)
(0.00148927 0.000111277 0)
(0.00147817 0.000120198 0)
(0.00146633 0.000128673 0)
(0.00145388 0.000136653 0)
(0.00144078 0.000144089 0)
(0.00142705 0.000150941 0)
(0.00141261 0.000157149 0)
(0.00139746 0.000162654 0)
(0.00138153 0.000167365 0)
(0.00136485 0.000171188 0)
(0.00134731 0.000174001 0)
(0.00132894 0.000175689 0)
(0.00130962 0.000176133 0)
(0.00128932 0.000175247 0)
(0.0012679 0.000172992 0)
(0.00124532 0.000169409 0)
(0.00122147 0.000164691 0)
(0.00119627 0.000159102 0)
(0.00116981 0.000153043 0)
(0.00114198 0.000146828 0)
(0.00111317 0.000140834 0)
(0.0010832 0.00013522 0)
(0.00105272 0.000130152 0)
(0.00102204 0.000125659 0)
(0.000991147 0.000121626 0)
(0.000959931 0.000117901 0)
(0.000928385 0.000114313 0)
(0.000896609 0.000110696 0)
(0.000864808 0.000106891 0)
(0.000833165 0.000102768 0)
(0.000801865 9.82504e-05 0)
(0.000770987 9.33025e-05 0)
(0.000740651 8.79344e-05 0)
(0.000710898 8.2186e-05 0)
(0.000681836 7.61047e-05 0)
(0.000653524 6.97814e-05 0)
(0.000625824 6.3324e-05 0)
(0.000598874 5.68686e-05 0)
(0.000572818 5.05721e-05 0)
(0.000547723 4.45753e-05 0)
(0.000523639 3.89793e-05 0)
(0.00050065 3.38467e-05 0)
(0.000478871 2.92189e-05 0)
(0.000458416 2.51251e-05 0)
(0.000439369 2.15853e-05 0)
(0.000421782 1.86128e-05 0)
(0.000405677 1.62065e-05 0)
(0.000391068 1.4348e-05 0)
(0.000377951 1.30274e-05 0)
(0.000366286 1.22261e-05 0)
(0.000356082 1.18743e-05 0)
(0.000347404 1.19169e-05 0)
(0.000340124 1.22943e-05 0)
(0.000334105 1.29252e-05 0)
(0.000329274 1.36944e-05 0)
(0.000325561 1.44809e-05 0)
(0.000322876 1.51816e-05 0)
(0.000321133 1.57065e-05 0)
(0.000320244 1.59718e-05 0)
(0.000320132 1.59035e-05 0)
(0.000320728 1.54418e-05 0)
(0.000321972 1.45452e-05 0)
(0.000323818 1.31928e-05 0)
(0.000326235 1.13787e-05 0)
(0.000329205 9.09172e-06 0)
(0.000332717 6.34091e-06 0)
(0.000336747 3.1817e-06 0)
(0.000341289 -3.29684e-07 0)
(0.000346297 -4.14954e-06 0)
(0.000351801 -8.2928e-06 0)
(0.000357907 -1.27488e-05 0)
(0.000364582 -1.74461e-05 0)
(0.000371789 -2.22785e-05 0)
(0.000379512 -2.71641e-05 0)
(0.000387735 -3.20293e-05 0)
(0.000396434 -3.68062e-05 0)
(0.000405584 -4.14315e-05 0)
(0.000415155 -4.5847e-05 0)
(0.000425113 -5.00006e-05 0)
(0.000435421 -5.38473e-05 0)
(0.000446037 -5.73489e-05 0)
(0.000456916 -6.04749e-05 0)
(0.000468011 -6.32018e-05 0)
(0.000479274 -6.55135e-05 0)
(0.00164733 6.95878e-05 0)
(0.00163949 8.17085e-05 0)
(0.00163306 9.35898e-05 0)
(0.00162744 0.00010484 0)
(0.001622 0.000115492 0)
(0.00161638 0.000125673 0)
(0.00161039 0.000135481 0)
(0.00160404 0.000144941 0)
(0.00159739 0.000154017 0)
(0.00159049 0.000162649 0)
(0.00158338 0.000170775 0)
(0.00157606 0.00017834 0)
(0.0015685 0.000185294 0)
(0.00156066 0.000191582 0)
(0.00155248 0.000197152 0)
(0.00154392 0.000201943 0)
(0.00153492 0.000205903 0)
(0.00152541 0.000208974 0)
(0.00151536 0.000211121 0)
(0.00150466 0.000212315 0)
(0.00149326 0.000212565 0)
(0.00148105 0.000211897 0)
(0.001468 0.000210385 0)
(0.00145398 0.000208127 0)
(0.00143901 0.00020525 0)
(0.00142302 0.000201887 0)
(0.00140613 0.000198147 0)
(0.00138833 0.000194139 0)
(0.00136978 0.000189898 0)
(0.00135056 0.000185435 0)
(0.00133066 0.000180735 0)
(0.00131021 0.000175818 0)
(0.00128936 0.000170725 0)
(0.00126829 0.000165507 0)
(0.00124711 0.000160199 0)
(0.00122591 0.000154831 0)
(0.00120475 0.000149411 0)
(0.00118368 0.000143946 0)
(0.00116267 0.000138442 0)
(0.00114176 0.000132895 0)
(0.00112091 0.000127323 0)
(0.00110013 0.000121704 0)
(0.00107956 0.000116093 0)
(0.00105927 0.000110547 0)
(0.00103924 0.000105095 0)
(0.00101944 9.97516e-05 0)
(0.000999856 9.45266e-05 0)
(0.000980514 8.94335e-05 0)
(0.000961473 8.44845e-05 0)
(0.000942815 7.9691e-05 0)
(0.000924617 7.50586e-05 0)
(0.000906952 7.05895e-05 0)
(0.000889876 6.6283e-05 0)
(0.000873459 6.2133e-05 0)
(0.000857761 5.81358e-05 0)
(0.000842852 5.42843e-05 0)
(0.000828803 5.05738e-05 0)
(0.000815679 4.69846e-05 0)
(0.000803547 4.35001e-05 0)
(0.000792393 4.01028e-05 0)
(0.000782248 3.6783e-05 0)
(0.000773152 3.35385e-05 0)
(0.000765147 3.03583e-05 0)
(0.000758252 2.72039e-05 0)
(0.000752462 2.40347e-05 0)
(0.000747753 2.08047e-05 0)
(0.000744099 1.74545e-05 0)
(0.000741465 1.3953e-05 0)
(0.000739798 1.02689e-05 0)
(0.000739032 6.35045e-06 0)
(0.000739155 2.19003e-06 0)
(0.000740081 -2.206e-06 0)
(0.000741662 -6.91484e-06 0)
(0.000743901 -1.19278e-05 0)
(0.000746813 -1.71476e-05 0)
(0.000750333 -2.25043e-05 0)
(0.000754374 -2.79794e-05 0)
(0.000758871 -3.35479e-05 0)
(0.000763769 -3.91536e-05 0)
(0.000769015 -4.47312e-05 0)
(0.000774559 -5.02184e-05 0)
(0.000780354 -5.5554e-05 0)
(0.00078636 -6.06775e-05 0)
(0.000792538 -6.55309e-05 0)
(0.000798852 -7.00612e-05 0)
(0.000805265 -7.42218e-05 0)
(0.000811745 -7.79736e-05 0)
(0.00081826 -8.12842e-05 0)
(0.000824782 -8.41293e-05 0)
(0.000831283 -8.64929e-05 0)
(0.00162711 8.47968e-05 0)
(0.00162167 9.45153e-05 0)
(0.00161695 0.000104559 0)
(0.0016128 0.000114704 0)
(0.00160894 0.000124767 0)
(0.00160516 0.000134633 0)
(0.00160131 0.000144232 0)
(0.00159736 0.000153515 0)
(0.00159335 0.000162444 0)
(0.00158935 0.000170977 0)
(0.00158541 0.00017907 0)
(0.00158156 0.000186678 0)
(0.00157779 0.000193756 0)
(0.00157409 0.000200257 0)
(0.00157043 0.00020614 0)
(0.00156675 0.000211362 0)
(0.00156304 0.000215887 0)
(0.00155922 0.000219681 0)
(0.00155527 0.000222723 0)
(0.0015511 0.000224997 0)
(0.00154666 0.000226505 0)
(0.00154187 0.000227261 0)
(0.00153666 0.000227299 0)
(0.00153097 0.000226664 0)
(0.00152475 0.000225425 0)
(0.00151793 0.000223652 0)
(0.0015105 0.000221418 0)
(0.00150248 0.000218781 0)
(0.0014939 0.000215805 0)
(0.00148485 0.000212529 0)
(0.00147538 0.000209021 0)
(0.00146558 0.000205339 0)
(0.00145551 0.000201525 0)
(0.00144524 0.000197583 0)
(0.00143482 0.000193505 0)
(0.00142431 0.000189273 0)
(0.0014137 0.000184868 0)
(0.00140299 0.000180263 0)
(0.00139218 0.000175441 0)
(0.00138122 0.000170394 0)
(0.00137014 0.000165129 0)
(0.00135892 0.000159665 0)
(0.0013476 0.000154018 0)
(0.00133618 0.000148204 0)
(0.00132461 0.000142241 0)
(0.00131291 0.000136164 0)
(0.00130113 0.000130016 0)
(0.00128933 0.000123852 0)
(0.00127759 0.000117727 0)
(0.001266 0.000111688 0)
(0.0012546 0.000105779 0)
(0.00124344 0.000100027 0)
(0.00123255 9.44579e-05 0)
(0.00122197 8.90814e-05 0)
(0.00121173 8.39009e-05 0)
(0.00120189 7.89101e-05 0)
(0.00119247 7.40921e-05 0)
(0.0011835 6.94217e-05 0)
(0.00117505 6.48681e-05 0)
(0.00116709 6.0393e-05 0)
(0.00115971 5.59677e-05 0)
(0.00115292 5.15546e-05 0)
(0.00114673 4.71217e-05 0)
(0.00114111 4.26272e-05 0)
(0.00113604 3.80258e-05 0)
(0.00113154 3.32911e-05 0)
(0.00112759 2.83856e-05 0)
(0.00112417 2.32901e-05 0)
(0.00112131 1.79974e-05 0)
(0.00111888 1.24888e-05 0)
(0.00111696 6.7856e-06 0)
(0.00111541 8.88598e-07 0)
(0.00111411 -5.17097e-06 0)
(0.00111324 -1.13338e-05 0)
(0.00111284 -1.75779e-05 0)
(0.00111275 -2.38982e-05 0)
(0.00111285 -3.02638e-05 0)
(0.00111312 -3.662e-05 0)
(0.00111354 -4.29036e-05 0)
(0.00111407 -4.90549e-05 0)
(0.00111467 -5.50188e-05 0)
(0.00111531 -6.07417e-05 0)
(0.00111594 -6.61702e-05 0)
(0.00111656 -7.12528e-05 0)
(0.00111714 -7.59428e-05 0)
(0.00111765 -8.02006e-05 0)
(0.0011181 -8.39942e-05 0)
(0.00111846 -8.72984e-05 0)
(0.00111874 -9.00956e-05 0)
(0.00111892 -9.23759e-05 0)
(0.00164465 9.55741e-05 0)
(0.00163871 0.000105477 0)
(0.00163334 0.000115621 0)
(0.00162794 0.00012592 0)
(0.00162216 0.000136196 0)
(0.00161591 0.000146275 0)
(0.00160924 0.000156025 0)
(0.00160226 0.00016536 0)
(0.00159511 0.000174229 0)
(0.0015879 0.000182594 0)
(0.00158073 0.000190424 0)
(0.00157367 0.000197689 0)
(0.00156676 0.000204358 0)
(0.00156002 0.000210401 0)
(0.00155348 0.000215796 0)
(0.00154717 0.000220522 0)
(0.0015411 0.000224566 0)
(0.00153527 0.000227919 0)
(0.00152971 0.00023058 0)
(0.0015244 0.000232556 0)
(0.00151933 0.000233861 0)
(0.00151446 0.000234519 0)
(0.00150976 0.000234563 0)
(0.00150519 0.000234032 0)
(0.0015007 0.000232974 0)
(0.00149626 0.000231448 0)
(0.00149183 0.000229518 0)
(0.00148742 0.000227252 0)
(0.00148304 0.000224708 0)
(0.0014787 0.000221938 0)
(0.00147444 0.000218978 0)
(0.00147027 0.000215852 0)
(0.00146621 0.00021257 0)
(0.00146224 0.000209131 0)
(0.00145836 0.000205518 0)
(0.00145456 0.00020171 0)
(0.0014508 0.000197685 0)
(0.00144706 0.000193427 0)
(0.00144329 0.000188924 0)
(0.00143948 0.000184176 0)
(0.00143562 0.000179193 0)
(0.00143169 0.00017399 0)
(0.00142768 0.000168589 0)
(0.00142359 0.000163014 0)
(0.00141938 0.000157307 0)
(0.00141507 0.000151519 0)
(0.00141067 0.000145701 0)
(0.00140619 0.000139892 0)
(0.00140167 0.000134123 0)
(0.00139713 0.000128408 0)
(0.00139261 0.000122757 0)
(0.0013881 0.000117173 0)
(0.00138365 0.000111658 0)
(0.00137925 0.000106211 0)
(0.00137493 0.000100828 0)
(0.0013707 9.55046e-05 0)
(0.0013666 9.0229e-05 0)
(0.00136264 8.4988e-05 0)
(0.00135885 7.97645e-05 0)
(0.00135523 7.45413e-05 0)
(0.00135181 6.92939e-05 0)
(0.00134858 6.39956e-05 0)
(0.00134555 5.86155e-05 0)
(0.00134271 5.31373e-05 0)
(0.00134005 4.75462e-05 0)
(0.00133758 4.18305e-05 0)
(0.00133526 3.59866e-05 0)
(0.00133312 3.00043e-05 0)
(0.0013311 2.3888e-05 0)
(0.00132919 1.76399e-05 0)
(0.00132739 1.12782e-05 0)
(0.00132561 4.81879e-06 0)
(0.00132391 -1.69997e-06 0)
(0.00132222 -8.21124e-06 0)
(0.00132043 -1.47076e-05 0)
(0.0013185 -2.11844e-05 0)
(0.00131645 -2.76149e-05 0)
(0.0013143 -3.39561e-05 0)
(0.00131201 -4.01569e-05 0)
(0.00130955 -4.61653e-05 0)
(0.0013069 -5.19319e-05 0)
(0.00130405 -5.74116e-05 0)
(0.001301 -6.25626e-05 0)
(0.00129776 -6.73452e-05 0)
(0.00129434 -7.17225e-05 0)
(0.00129073 -7.5663e-05 0)
(0.00128695 -7.91421e-05 0)
(0.00128303 -8.21422e-05 0)
(0.00127898 -8.4652e-05 0)
(0.00127481 -8.66664e-05 0)
(0.00176574 0.000103932 0)
(0.0017588 0.00011643 0)
(0.00175233 0.000128625 0)
(0.00174557 0.000140484 0)
(0.00173811 0.000151981 0)
(0.00172982 0.000163074 0)
(0.00172074 0.000173708 0)
(0.001711 0.00018382 0)
(0.00170074 0.000193352 0)
(0.00169009 0.000202252 0)
(0.00167913 0.000210477 0)
(0.00166792 0.000217991 0)
(0.0016565 0.000224765 0)
(0.00164491 0.000230775 0)
(0.00163321 0.000236005 0)
(0.00162143 0.000240445 0)
(0.00160964 0.000244092 0)
(0.0015979 0.000246951 0)
(0.00158627 0.000249033 0)
(0.0015748 0.000250359 0)
(0.00156354 0.000250953 0)
(0.00155254 0.00025085 0)
(0.00154183 0.000250093 0)
(0.00153144 0.00024873 0)
(0.0015214 0.000246819 0)
(0.00151174 0.000244423 0)
(0.0015025 0.000241609 0)
(0.0014937 0.000238444 0)
(0.00148539 0.00023499 0)
(0.00147757 0.000231298 0)
(0.00147027 0.000227405 0)
(0.0014635 0.000223337 0)
(0.00145726 0.000219109 0)
(0.00145153 0.000214731 0)
(0.00144631 0.000210209 0)
(0.00144157 0.000205546 0)
(0.00143729 0.000200742 0)
(0.00143342 0.000195803 0)
(0.00142994 0.00019074 0)
(0.00142681 0.000185563 0)
(0.00142401 0.000180284 0)
(0.00142149 0.000174914 0)
(0.00141923 0.000169467 0)
(0.00141719 0.000163957 0)
(0.00141535 0.000158401 0)
(0.00141368 0.000152819 0)
(0.00141214 0.000147229 0)
(0.00141071 0.000141645 0)
(0.00140938 0.000136078 0)
(0.00140811 0.000130531 0)
(0.00140691 0.000125006 0)
(0.00140577 0.000119503 0)
(0.00140468 0.000114024 0)
(0.00140365 0.000108568 0)
(0.00140268 0.000103138 0)
(0.00140176 9.77301e-05 0)
(0.0014009 9.23438e-05 0)
(0.00140011 8.6973e-05 0)
(0.00139937 8.16089e-05 0)
(0.00139869 7.62438e-05 0)
(0.00139807 7.08627e-05 0)
(0.00139749 6.54557e-05 0)
(0.00139694 6.00104e-05 0)
(0.00139642 5.45149e-05 0)
(0.0013959 4.89663e-05 0)
(0.00139537 4.33511e-05 0)
(0.00139481 3.76683e-05 0)
(0.00139418 3.19143e-05 0)
(0.00139348 2.60814e-05 0)
(0.00139266 2.01868e-05 0)
(0.00139172 1.42214e-05 0)
(0.00139063 8.20694e-06 0)
(0.00138936 2.15905e-06 0)
(0.00138794 -3.91967e-06 0)
(0.00138628 -9.98929e-06 0)
(0.0013843 -1.59966e-05 0)
(0.001382 -2.19039e-05 0)
(0.00137941 -2.76837e-05 0)
(0.00137656 -3.3304e-05 0)
(0.00137345 -3.87253e-05 0)
(0.00137006 -4.3906e-05 0)
(0.00136639 -4.88081e-05 0)
(0.00136246 -5.33984e-05 0)
(0.00135829 -5.76473e-05 0)
(0.0013539 -6.15275e-05 0)
(0.00134932 -6.50155e-05 0)
(0.00134457 -6.80928e-05 0)
(0.00133968 -7.07464e-05 0)
(0.00133468 -7.29689e-05 0)
(0.0013296 -7.47575e-05 0)
(0.00179245 0.000113768 0)
(0.0017887 0.000127624 0)
(0.00178554 0.000141141 0)
(0.00178248 0.000154239 0)
(0.00177911 0.000166904 0)
(0.0017752 0.000179125 0)
(0.00177067 0.000190876 0)
(0.00176553 0.000202114 0)
(0.00175983 0.000212779 0)
(0.00175364 0.000222809 0)
(0.00174698 0.000232145 0)
(0.00173986 0.000240731 0)
(0.00173228 0.000248522 0)
(0.00172422 0.000255477 0)
(0.00171569 0.000261567 0)
(0.00170669 0.00026677 0)
(0.00169724 0.000271073 0)
(0.00168737 0.000274473 0)
(0.00167711 0.000276975 0)
(0.00166652 0.000278592 0)
(0.00165563 0.000279349 0)
(0.0016445 0.000279276 0)
(0.00163318 0.000278415 0)
(0.00162172 0.000276813 0)
(0.0016102 0.000274527 0)
(0.00159867 0.000271618 0)
(0.00158721 0.000268147 0)
(0.00157587 0.00026418 0)
(0.00156473 0.000259777 0)
(0.00155383 0.000254993 0)
(0.00154322 0.000249879 0)
(0.00153297 0.000244478 0)
(0.0015231 0.000238833 0)
(0.00151366 0.000232979 0)
(0.00150469 0.00022695 0)
(0.0014962 0.000220778 0)
(0.00148822 0.000214492 0)
(0.00148074 0.000208121 0)
(0.00147379 0.000201691 0)
(0.00146734 0.000195227 0)
(0.0014614 0.00018875 0)
(0.00145595 0.000182274 0)
(0.00145096 0.000175815 0)
(0.00144642 0.000169383 0)
(0.00144231 0.000162988 0)
(0.00143859 0.000156636 0)
(0.00143525 0.000150335 0)
(0.00143224 0.000144092 0)
(0.00142955 0.000137912 0)
(0.00142716 0.000131802 0)
(0.00142504 0.000125767 0)
(0.00142317 0.000119809 0)
(0.00142155 0.000113931 0)
(0.00142016 0.000108134 0)
(0.00141897 0.000102414 0)
(0.00141798 9.6768e-05 0)
(0.00141718 9.11896e-05 0)
(0.00141653 8.56704e-05 0)
(0.00141603 8.02003e-05 0)
(0.00141566 7.47686e-05 0)
(0.0014154 6.93636e-05 0)
(0.00141522 6.3974e-05 0)
(0.00141512 5.85887e-05 0)
(0.00141506 5.31976e-05 0)
(0.00141503 4.7792e-05 0)
(0.00141499 4.23658e-05 0)
(0.00141492 3.69139e-05 0)
(0.0014148 3.14352e-05 0)
(0.00141461 2.59323e-05 0)
(0.00141431 2.04073e-05 0)
(0.00141388 1.48724e-05 0)
(0.0014133 9.33378e-06 0)
(0.00141256 3.80688e-06 0)
(0.00141163 -1.70142e-06 0)
(0.00141051 -7.18913e-06 0)
(0.00140917 -1.26328e-05 0)
(0.00140758 -1.79814e-05 0)
(0.00140574 -2.31863e-05 0)
(0.00140367 -2.82148e-05 0)
(0.00140138 -3.30428e-05 0)
(0.00139886 -3.76454e-05 0)
(0.00139612 -4.19953e-05 0)
(0.00139316 -4.60657e-05 0)
(0.00139001 -4.98331e-05 0)
(0.00138669 -5.32777e-05 0)
(0.00138322 -5.63823e-05 0)
(0.00137961 -5.9133e-05 0)
(0.0013759 -6.15193e-05 0)
(0.0013721 -6.35346e-05 0)
(0.00136824 -6.51765e-05 0)
(0.0016028 0.00011669 0)
(0.00160527 0.000129986 0)
(0.00160868 0.000143294 0)
(0.00161263 0.000156458 0)
(0.00161675 0.000169371 0)
(0.00162079 0.000181965 0)
(0.00162462 0.00019419 0)
(0.00162822 0.000206001 0)
(0.00163159 0.000217348 0)
(0.00163473 0.00022817 0)
(0.00163763 0.000238402 0)
(0.00164024 0.000247978 0)
(0.00164252 0.000256835 0)
(0.00164441 0.000264919 0)
(0.00164585 0.000272183 0)
(0.0016468 0.00027859 0)
(0.00164723 0.000284115 0)
(0.00164711 0.000288738 0)
(0.00164643 0.00029245 0)
(0.00164519 0.00029525 0)
(0.00164337 0.000297147 0)
(0.001641 0.000298157 0)
(0.00163807 0.000298308 0)
(0.00163462 0.000297632 0)
(0.00163068 0.000296172 0)
(0.00162627 0.000293972 0)
(0.00162145 0.000291083 0)
(0.00161625 0.000287553 0)
(0.00161074 0.000283433 0)
(0.00160495 0.000278774 0)
(0.00159893 0.000273627 0)
(0.00159274 0.000268047 0)
(0.00158643 0.000262085 0)
(0.00158005 0.000255793 0)
(0.00157366 0.000249218 0)
(0.00156731 0.000242406 0)
(0.00156104 0.000235401 0)
(0.00155489 0.000228242 0)
(0.0015489 0.000220967 0)
(0.00154309 0.00021361 0)
(0.00153748 0.0002062 0)
(0.0015321 0.000198766 0)
(0.00152695 0.000191331 0)
(0.00152206 0.000183916 0)
(0.00151741 0.000176541 0)
(0.00151303 0.000169222 0)
(0.00150891 0.000161975 0)
(0.00150505 0.000154814 0)
(0.00150144 0.000147751 0)
(0.0014981 0.000140797 0)
(0.00149501 0.000133958 0)
(0.00149217 0.00012724 0)
(0.00148958 0.000120645 0)
(0.00148722 0.000114172 0)
(0.00148509 0.000107817 0)
(0.00148317 0.000101577 0)
(0.00148146 9.54428e-05 0)
(0.00147994 8.94077e-05 0)
(0.0014786 8.34623e-05 0)
(0.00147741 7.75976e-05 0)
(0.00147638 7.18038e-05 0)
(0.00147547 6.60718e-05 0)
(0.00147468 6.03927e-05 0)
(0.00147398 5.47586e-05 0)
(0.00147335 4.9163e-05 0)
(0.00147277 4.36015e-05 0)
(0.00147222 3.8071e-05 0)
(0.00147168 3.2571e-05 0)
(0.00147113 2.71031e-05 0)
(0.00147054 2.16703e-05 0)
(0.0014699 1.62797e-05 0)
(0.00146918 1.09383e-05 0)
(0.00146835 5.65778e-06 0)
(0.00146741 4.48393e-07 0)
(0.00146628 -4.67563e-06 0)
(0.001465 -9.70335e-06 0)
(0.00146361 -1.46125e-05 0)
(0.0014621 -1.93767e-05 0)
(0.00146045 -2.39709e-05 0)
(0.00145863 -2.8373e-05 0)
(0.00145665 -3.25625e-05 0)
(0.0014545 -3.65183e-05 0)
(0.00145219 -4.02203e-05 0)
(0.00144973 -4.36507e-05 0)
(0.00144714 -4.67943e-05 0)
(0.00144442 -4.96379e-05 0)
(0.00144158 -5.21698e-05 0)
(0.00143865 -5.43803e-05 0)
(0.00143562 -5.62628e-05 0)
(0.00143252 -5.78136e-05 0)
(0.00125425 0.000104439 0)
(0.00126206 0.000116717 0)
(0.00127114 0.000129236 0)
(0.00128104 0.000141772 0)
(0.0012914 0.000154168 0)
(0.00130203 0.000166336 0)
(0.00131288 0.000178228 0)
(0.00132392 0.000189814 0)
(0.00133517 0.000201058 0)
(0.00134661 0.000211909 0)
(0.0013582 0.000222305 0)
(0.00136987 0.000232182 0)
(0.00138157 0.000241473 0)
(0.00139321 0.000250123 0)
(0.00140472 0.00025808 0)
(0.00141603 0.000265303 0)
(0.00142707 0.000271756 0)
(0.00143779 0.000277413 0)
(0.00144814 0.000282251 0)
(0.00145807 0.000286258 0)
(0.00146753 0.000289426 0)
(0.00147649 0.000291757 0)
(0.00148491 0.000293258 0)
(0.00149278 0.000293944 0)
(0.00150008 0.000293836 0)
(0.00150679 0.000292961 0)
(0.00151291 0.00029135 0)
(0.00151844 0.000289036 0)
(0.00152339 0.000286058 0)
(0.00152777 0.000282456 0)
(0.00153161 0.000278278 0)
(0.00153494 0.000273574 0)
(0.00153778 0.000268393 0)
(0.00154018 0.000262786 0)
(0.00154217 0.000256802 0)
(0.00154379 0.000250487 0)
(0.00154506 0.000243886 0)
(0.00154602 0.00023704 0)
(0.00154671 0.000229989 0)
(0.00154716 0.000222771 0)
(0.00154739 0.000215422 0)
(0.00154742 0.000207976 0)
(0.0015473 0.000200465 0)
(0.00154704 0.000192918 0)
(0.00154667 0.000185363 0)
(0.0015462 0.000177823 0)
(0.00154566 0.000170321 0)
(0.00154506 0.000162877 0)
(0.00154443 0.000155507 0)
(0.00154378 0.000148225 0)
(0.00154311 0.000141043 0)
(0.00154244 0.000133967 0)
(0.00154178 0.000127005 0)
(0.00154113 0.000120158 0)
(0.0015405 0.000113428 0)
(0.00153989 0.000106813 0)
(0.00153931 0.000100312 0)
(0.00153874 9.39209e-05 0)
(0.00153821 8.76359e-05 0)
(0.00153769 8.14518e-05 0)
(0.00153718 7.53632e-05 0)
(0.00153669 6.93644e-05 0)
(0.0015362 6.34499e-05 0)
(0.00153569 5.76147e-05 0)
(0.00153517 5.18542e-05 0)
(0.00153462 4.61654e-05 0)
(0.00153403 4.05463e-05 0)
(0.00153338 3.49954e-05 0)
(0.00153266 2.95151e-05 0)
(0.00153187 2.41056e-05 0)
(0.00153097 1.87745e-05 0)
(0.00152996 1.35254e-05 0)
(0.00152883 8.37065e-06 0)
(0.00152755 3.32299e-06 0)
(0.00152614 -1.60338e-06 0)
(0.00152456 -6.36766e-06 0)
(0.00152283 -1.09677e-05 0)
(0.00152094 -1.54065e-05 0)
(0.0015189 -1.96782e-05 0)
(0.0015167 -2.37657e-05 0)
(0.00151434 -2.7647e-05 0)
(0.00151181 -3.13016e-05 0)
(0.00150911 -3.4713e-05 0)
(0.00150625 -3.78678e-05 0)
(0.00150325 -4.07548e-05 0)
(0.0015001 -4.33633e-05 0)
(0.00149683 -4.56837e-05 0)
(0.00149344 -4.77077e-05 0)
(0.00148994 -4.94295e-05 0)
(0.00148634 -5.08459e-05 0)
(0.000846517 8.14175e-05 0)
(0.000857269 9.29123e-05 0)
(0.00086929 0.000104545 0)
(0.000882038 0.000116087 0)
(0.000895317 0.000127437 0)
(0.000909102 0.000138568 0)
(0.000923433 0.00014948 0)
(0.000938345 0.000160168 0)
(0.000953844 0.000170603 0)
(0.000969907 0.000180742 0)
(0.000986489 0.000190529 0)
(0.00100354 0.000199906 0)
(0.00102098 0.000208822 0)
(0.00103876 0.000217226 0)
(0.00105681 0.000225076 0)
(0.00107505 0.000232334 0)
(0.00109341 0.000238965 0)
(0.00111183 0.00024494 0)
(0.00113023 0.000250234 0)
(0.00114855 0.000254825 0)
(0.00116671 0.000258699 0)
(0.00118465 0.000261845 0)
(0.0012023 0.000264259 0)
(0.00121961 0.000265942 0)
(0.00123652 0.0002669 0)
(0.00125298 0.000267144 0)
(0.00126896 0.000266694 0)
(0.00128442 0.000265574 0)
(0.00129934 0.000263815 0)
(0.00131369 0.000261451 0)
(0.00132747 0.000258518 0)
(0.00134067 0.000255056 0)
(0.00135329 0.000251103 0)
(0.00136531 0.000246698 0)
(0.00137676 0.000241881 0)
(0.00138764 0.000236691 0)
(0.00139795 0.000231166 0)
(0.0014077 0.000225345 0)
(0.00141692 0.000219265 0)
(0.00142561 0.000212963 0)
(0.0014338 0.000206475 0)
(0.00144149 0.000199834 0)
(0.00144872 0.000193075 0)
(0.00145549 0.000186227 0)
(0.00146184 0.000179319 0)
(0.00146777 0.000172378 0)
(0.0014733 0.000165427 0)
(0.00147847 0.000158487 0)
(0.00148328 0.000151577 0)
(0.00148775 0.000144714 0)
(0.0014919 0.00013791 0)
(0.00149575 0.000131178 0)
(0.00149931 0.000124526 0)
(0.0015026 0.000117962 0)
(0.00150562 0.000111491 0)
(0.00150839 0.000105116 0)
(0.00151092 9.88402e-05 0)
(0.00151322 9.26636e-05 0)
(0.0015153 8.65862e-05 0)
(0.00151716 8.06064e-05 0)
(0.0015188 7.47228e-05 0)
(0.00152023 6.89322e-05 0)
(0.00152144 6.32333e-05 0)
(0.00152245 5.76226e-05 0)
(0.00152324 5.20993e-05 0)
(0.00152382 4.66614e-05 0)
(0.00152419 4.13088e-05 0)
(0.00152433 3.60432e-05 0)
(0.00152425 3.08646e-05 0)
(0.00152393 2.57801e-05 0)
(0.00152339 2.07902e-05 0)
(0.0015226 1.59068e-05 0)
(0.00152158 1.11339e-05 0)
(0.00152031 6.48366e-06 0)
(0.00151881 1.96766e-06 0)
(0.00151708 -2.40277e-06 0)
(0.00151507 -6.60512e-06 0)
(0.00151279 -1.06303e-05 0)
(0.00151026 -1.44756e-05 0)
(0.0015075 -1.81347e-05 0)
(0.00150452 -2.15955e-05 0)
(0.00150133 -2.48435e-05 0)
(0.00149791 -2.78652e-05 0)
(0.00149429 -3.06489e-05 0)
(0.00149047 -3.31852e-05 0)
(0.00148647 -3.54654e-05 0)
(0.00148231 -3.74827e-05 0)
(0.001478 -3.92313e-05 0)
(0.00147357 -4.07072e-05 0)
(0.00146902 -4.19082e-05 0)
(0.000425839 5.70643e-05 0)
(0.000437244 6.76715e-05 0)
(0.000449545 7.76164e-05 0)
(0.000462585 8.73488e-05 0)
(0.000476378 9.688e-05 0)
(0.000491001 0.000106233 0)
(0.000506487 0.00011545 0)
(0.000522843 0.000124519 0)
(0.000540045 0.000133413 0)
(0.000558062 0.00014209 0)
(0.000576859 0.000150507 0)
(0.000596397 0.00015862 0)
(0.000616628 0.000166391 0)
(0.000637501 0.000173782 0)
(0.000658955 0.000180757 0)
(0.000680927 0.000187284 0)
(0.00070335 0.000193331 0)
(0.000726151 0.000198871 0)
(0.000749257 0.000203877 0)
(0.000772592 0.000208327 0)
(0.000796081 0.000212204 0)
(0.000819647 0.000215492 0)
(0.000843213 0.000218183 0)
(0.000866706 0.000220273 0)
(0.000890058 0.000221767 0)
(0.000913205 0.000222671 0)
(0.000936083 0.000222997 0)
(0.000958635 0.000222764 0)
(0.00098081 0.00022199 0)
(0.00100256 0.000220698 0)
(0.00102384 0.000218912 0)
(0.00104462 0.000216657 0)
(0.00106487 0.000213958 0)
(0.00108454 0.000210845 0)
(0.00110363 0.000207346 0)
(0.0011221 0.000203491 0)
(0.00113996 0.000199313 0)
(0.00115718 0.000194842 0)
(0.00117375 0.000190109 0)
(0.00118969 0.000185145 0)
(0.00120497 0.000179981 0)
(0.00121961 0.000174647 0)
(0.00123361 0.000169171 0)
(0.00124697 0.000163579 0)
(0.0012597 0.000157897 0)
(0.00127182 0.000152148 0)
(0.00128332 0.000146355 0)
(0.00129423 0.000140537 0)
(0.00130456 0.000134711 0)
(0.00131432 0.000128895 0)
(0.00132352 0.000123102 0)
(0.00133217 0.000117346 0)
(0.0013403 0.000111636 0)
(0.00134792 0.000105982 0)
(0.00135504 0.000100391 0)
(0.00136166 9.48685e-05 0)
(0.00136782 8.94194e-05 0)
(0.0013735 8.40462e-05 0)
(0.00137873 7.87518e-05 0)
(0.00138352 7.35367e-05 0)
(0.00138787 6.84022e-05 0)
(0.0013918 6.33483e-05 0)
(0.0013953 5.83751e-05 0)
(0.00139838 5.34832e-05 0)
(0.00140105 4.86722e-05 0)
(0.00140332 4.39442e-05 0)
(0.00140518 3.92985e-05 0)
(0.00140664 3.47397e-05 0)
(0.00140771 3.02684e-05 0)
(0.00140838 2.58892e-05 0)
(0.00140867 2.1607e-05 0)
(0.00140857 1.74249e-05 0)
(0.00140809 1.33538e-05 0)
(0.00140723 9.3927e-06 0)
(0.00140602 5.55916e-06 0)