/*--------------------------------*- C++ -*----------------------------------*\
| =========                 |                                                 |
| \\      /  F ield         | OpenFOAM: The Open Source CFD Toolbox           |
|  \\    /   O peration     | Version:  2312                                  |
|   \\  /    A nd           | Website:  www.openfoam.com                      |
|    \\/     M anipulation  |                                                 |
\*---------------------------------------------------------------------------*/
FoamFile
{
    version     2.0;
    format      ascii;
    arch        "LSB;label=32;scalar=64";
    class       volVectorField;
    location    "43000";
    object      U;
}
// * * * * * * * * * * * * * * * * * * * * * * * * * * * * * * * * * * * * * //

dimensions      [0 1 -1 0 0 0 0];

internalField   nonuniform List<vector> 
10800
(
(0.000992484 4.94182e-06 0)
(0.000990038 1.24575e-05 0)
(0.000986873 1.74787e-05 0)
(0.000980501 2.06623e-05 0)
(0.000971089 2.27452e-05 0)
(0.0009598 2.42387e-05 0)
(0.0009477 2.53775e-05 0)
(0.000935325 2.62366e-05 0)
(0.000922817 2.68402e-05 0)
(0.000910154 2.72133e-05 0)
(0.000897292 2.73937e-05 0)
(0.000884225 2.74243e-05 0)
(0.000870993 2.7343e-05 0)
(0.000857648 2.71779e-05 0)
(0.000844243 2.69473e-05 0)
(0.000830817 2.66627e-05 0)
(0.000817394 2.63322e-05 0)
(0.000803993 2.59623e-05 0)
(0.000790629 2.55584e-05 0)
(0.000777318 2.51256e-05 0)
(0.000764075 2.46675e-05 0)
(0.000750915 2.41873e-05 0)
(0.000737852 2.3687e-05 0)
(0.0007249 2.31685e-05 0)
(0.000712072 2.26326e-05 0)
(0.000699381 2.2081e-05 0)
(0.00068684 2.15137e-05 0)
(0.000674461 2.09322e-05 0)
(0.000662257 2.03358e-05 0)
(0.000650239 1.97265e-05 0)
(0.000638422 1.91027e-05 0)
(0.000626816 1.84671e-05 0)
(0.000615436 1.7817e-05 0)
(0.000604291 1.71565e-05 0)
(0.000593398 1.64813e-05 0)
(0.000582765 1.57977e-05 0)
(0.000572411 1.50985e-05 0)
(0.000562338 1.43943e-05 0)
(0.000552572 1.36724e-05 0)
(0.000543108 1.29509e-05 0)
(0.000533984 1.22078e-05 0)
(0.000525173 1.14733e-05 0)
(0.000516743 1.07098e-05 0)
(0.000508623 9.9681e-06 0)
(0.000500949 9.18355e-06 0)
(0.000493543 8.44176e-06 0)
(0.000486712 7.63217e-06 0)
(0.000479998 6.89724e-06 0)
(0.000474169 6.05376e-06 0)
(0.000468006 5.32421e-06 0)
(0.000463559 4.43827e-06 0)
(0.000457439 3.66699e-06 0)
(0.000455431 2.77697e-06 0)
(0.000447716 1.71526e-06 0)
(0.000451281 1.14775e-06 0)
(0.000436893 -1.26871e-06 0)
(0.000455329 1.09772e-07 0)
(0.000419352 -7.73091e-06 0)
(0.000477728 2.03312e-06 0)
(0.000382987 -2.44857e-05 0)
(0.00100003 5.80201e-06 0)
(0.00100172 1.4992e-05 0)
(0.00100423 2.15221e-05 0)
(0.00100706 2.60844e-05 0)
(0.00100979 2.94417e-05 0)
(0.00101219 3.21224e-05 0)
(0.00101421 3.43738e-05 0)
(0.00101589 3.62826e-05 0)
(0.00101726 3.78814e-05 0)
(0.00101837 3.92007e-05 0)
(0.00101923 4.0282e-05 0)
(0.00101982 4.11709e-05 0)
(0.00102014 4.19082e-05 0)
(0.0010202 4.25238e-05 0)
(0.00102001 4.30377e-05 0)
(0.00101958 4.34627e-05 0)
(0.00101892 4.38074e-05 0)
(0.00101806 4.40784e-05 0)
(0.00101699 4.42815e-05 0)
(0.00101573 4.44212e-05 0)
(0.00101429 4.45012e-05 0)
(0.00101268 4.45243e-05 0)
(0.00101091 4.44923e-05 0)
(0.00100898 4.44064e-05 0)
(0.00100692 4.42678e-05 0)
(0.00100471 4.40762e-05 0)
(0.0010024 4.38328e-05 0)
(0.000999943 4.35363e-05 0)
(0.000997415 4.31884e-05 0)
(0.000994751 4.27863e-05 0)
(0.000992052 4.23333e-05 0)
(0.000989209 4.18238e-05 0)
(0.000986386 4.12648e-05 0)
(0.000983392 4.06457e-05 0)
(0.000980497 3.99801e-05 0)
(0.000977375 3.92484e-05 0)
(0.000974472 3.84768e-05 0)
(0.000971231 3.76292e-05 0)
(0.000968403 3.6754e-05 0)
(0.000965035 3.57853e-05 0)
(0.000962395 3.48125e-05 0)
(0.000958853 3.37147e-05 0)
(0.000956565 3.26553e-05 0)
(0.000952738 3.14143e-05 0)
(0.000951057 3.02881e-05 0)
(0.000946721 2.8878e-05 0)
(0.00094605 2.77194e-05 0)
(0.000940783 2.60926e-05 0)
(0.000941789 2.49603e-05 0)
(0.000934818 2.30298e-05 0)
(0.000938616 2.20235e-05 0)
(0.000928558 1.96349e-05 0)
(0.000937029 1.89201e-05 0)
(0.000921437 1.58101e-05 0)
(0.00093777 1.5647e-05 0)
(0.000912346 1.14056e-05 0)
(0.000941961 1.21277e-05 0)
(0.000899248 6.2858e-06 0)
(0.000951498 7.91432e-06 0)
(0.000878998 8.67259e-07 0)
(0.000999989 1.96256e-06 0)
(0.00100078 5.76401e-06 0)
(0.00100224 9.289e-06 0)
(0.00100423 1.24537e-05 0)
(0.00100654 1.52553e-05 0)
(0.00100897 1.7739e-05 0)
(0.00101139 1.99595e-05 0)
(0.00101376 2.19598e-05 0)
(0.00101607 2.37671e-05 0)
(0.00101833 2.53982e-05 0)
(0.00102055 2.68663e-05 0)
(0.00102272 2.81846e-05 0)
(0.00102484 2.93676e-05 0)
(0.00102689 3.04292e-05 0)
(0.00102887 3.13817e-05 0)
(0.00103079 3.2235e-05 0)
(0.00103264 3.29972e-05 0)
(0.00103442 3.36739e-05 0)
(0.00103615 3.42708e-05 0)
(0.00103781 3.47911e-05 0)
(0.00103942 3.52393e-05 0)
(0.00104097 3.56168e-05 0)
(0.00104247 3.59276e-05 0)
(0.0010439 3.61709e-05 0)
(0.00104529 3.63511e-05 0)
(0.00104662 3.64647e-05 0)
(0.00104791 3.65175e-05 0)
(0.00104913 3.6503e-05 0)
(0.00105033 3.64296e-05 0)
(0.00105144 3.62864e-05 0)
(0.00105257 3.60865e-05 0)
(0.00105357 3.58123e-05 0)
(0.00105463 3.54849e-05 0)
(0.00105552 3.50763e-05 0)
(0.00105654 3.46202e-05 0)
(0.00105731 3.40729e-05 0)
(0.00105831 3.34874e-05 0)
(0.00105894 3.27959e-05 0)
(0.00105996 3.20818e-05 0)
(0.00106044 3.12397e-05 0)
(0.00106154 3.03995e-05 0)
(0.0010618 2.93988e-05 0)
(0.00106307 2.84378e-05 0)
(0.00106305 2.72686e-05 0)
(0.00106462 2.6196e-05 0)
(0.00106419 2.48453e-05 0)
(0.00106625 2.36754e-05 0)
(0.0010652 2.21275e-05 0)
(0.00106804 2.08811e-05 0)
(0.00106604 1.91181e-05 0)
(0.0010701 1.78244e-05 0)
(0.00106664 1.58305e-05 0)
(0.00107258 1.45286e-05 0)
(0.00106685 1.23037e-05 0)
(0.00107565 1.10432e-05 0)
(0.00106643 8.6401e-06 0)
(0.0010796 7.48194e-06 0)
(0.00106502 5.10114e-06 0)
(0.00108485 4.07498e-06 0)
(0.00106214 2.2213e-06 0)
(0.00100001 1.74162e-06 0)
(0.00100047 5.15932e-06 0)
(0.00100128 8.42019e-06 0)
(0.00100239 1.14479e-05 0)
(0.00100374 1.42016e-05 0)
(0.00100526 1.66784e-05 0)
(0.00100689 1.88999e-05 0)
(0.00100858 2.08958e-05 0)
(0.00101033 2.26934e-05 0)
(0.00101212 2.43133e-05 0)
(0.00101394 2.57711e-05 0)
(0.00101578 2.70798e-05 0)
(0.00101764 2.82516e-05 0)
(0.00101951 2.92984e-05 0)
(0.00102139 3.0232e-05 0)
(0.00102327 3.10625e-05 0)
(0.00102515 3.17991e-05 0)
(0.00102703 3.24485e-05 0)
(0.0010289 3.30174e-05 0)
(0.00103077 3.35097e-05 0)
(0.00103264 3.39304e-05 0)
(0.0010345 3.42816e-05 0)
(0.00103636 3.45673e-05 0)
(0.00103821 3.47879e-05 0)
(0.00104006 3.49469e-05 0)
(0.0010419 3.50431e-05 0)
(0.00104374 3.50798e-05 0)
(0.00104557 3.50541e-05 0)
(0.0010474 3.49701e-05 0)
(0.00104921 3.48226e-05 0)
(0.00105104 3.4617e-05 0)
(0.00105283 3.43459e-05 0)
(0.00105465 3.40164e-05 0)
(0.00105642 3.36185e-05 0)
(0.00105824 3.31619e-05 0)
(0.00105997 3.26331e-05 0)
(0.00106179 3.20451e-05 0)
(0.00106349 3.13811e-05 0)
(0.00106532 3.06571e-05 0)
(0.00106697 2.98533e-05 0)
(0.00106881 2.89883e-05 0)
(0.00107041 2.80411e-05 0)
(0.00107229 2.70294e-05 0)
(0.00107381 2.59366e-05 0)
(0.00107575 2.4772e-05 0)
(0.00107718 2.35344e-05 0)
(0.00107921 2.2209e-05 0)
(0.00108051 2.08326e-05 0)
(0.0010827 1.93362e-05 0)
(0.00108383 1.78372e-05 0)
(0.00108624 1.6156e-05 0)
(0.00108713 1.4569e-05 0)
(0.00108987 1.26851e-05 0)
(0.00109042 1.10787e-05 0)
(0.00109362 8.96933e-06 0)
(0.00109369 7.46919e-06 0)
(0.00109755 5.09913e-06 0)
(0.00109692 3.91167e-06 0)
(0.00110172 1.19427e-06 0)
(0.00110004 6.07365e-07 0)
(0.001 1.15313e-06 0)
(0.00100023 3.43198e-06 0)
(0.00100067 5.64532e-06 0)
(0.00100134 7.76144e-06 0)
(0.0010022 9.75898e-06 0)
(0.00100323 1.16277e-05 0)
(0.00100441 1.33661e-05 0)
(0.00100569 1.49784e-05 0)
(0.00100705 1.64706e-05 0)
(0.00100848 1.78489e-05 0)
(0.00100996 1.91186e-05 0)
(0.00101149 2.02845e-05 0)
(0.00101305 2.13516e-05 0)
(0.00101465 2.23246e-05 0)
(0.00101627 2.32085e-05 0)
(0.00101791 2.40082e-05 0)
(0.00101956 2.4728e-05 0)
(0.00102123 2.5372e-05 0)
(0.00102291 2.59434e-05 0)
(0.00102459 2.6445e-05 0)
(0.00102629 2.68794e-05 0)
(0.00102799 2.72483e-05 0)
(0.0010297 2.75535e-05 0)
(0.00103141 2.77962e-05 0)
(0.00103313 2.79772e-05 0)
(0.00103486 2.80976e-05 0)
(0.00103658 2.8157e-05 0)
(0.00103831 2.81566e-05 0)
(0.00104005 2.80948e-05 0)
(0.00104179 2.79733e-05 0)
(0.00104353 2.7789e-05 0)
(0.00104526 2.75447e-05 0)
(0.00104701 2.72349e-05 0)
(0.00104875 2.68651e-05 0)
(0.00105049 2.64257e-05 0)
(0.00105223 2.5927e-05 0)
(0.00105398 2.53525e-05 0)
(0.00105571 2.47213e-05 0)
(0.00105746 2.40053e-05 0)
(0.00105919 2.32382e-05 0)
(0.00106093 2.23727e-05 0)
(0.00106266 2.14675e-05 0)
(0.00106439 2.04432e-05 0)
(0.00106612 1.93996e-05 0)
(0.00106784 1.82047e-05 0)
(0.00106957 1.70264e-05 0)
(0.00107128 1.56464e-05 0)
(0.00107303 1.43433e-05 0)
(0.00107472 1.27588e-05 0)
(0.0010765 1.13507e-05 0)
(0.00107818 9.53411e-06 0)
(0.00108002 8.05451e-06 0)
(0.00108168 5.96323e-06 0)
(0.00108365 4.4658e-06 0)
(0.00108531 2.0335e-06 0)
(0.0010875 6.08347e-07 0)
(0.00108913 -2.25666e-06 0)
(0.00109165 -3.45632e-06 0)
(0.00109314 -6.8927e-06 0)
(0.00109596 -7.64784e-06 0)
(0.001 9.27069e-07 0)
(0.00100017 2.77246e-06 0)
(0.00100051 4.59066e-06 0)
(0.001001 6.36276e-06 0)
(0.00100165 8.07133e-06 0)
(0.00100242 9.70248e-06 0)
(0.00100331 1.12469e-05 0)
(0.0010043 1.26999e-05 0)
(0.00100537 1.40597e-05 0)
(0.00100651 1.53269e-05 0)
(0.0010077 1.6503e-05 0)
(0.00100895 1.75898e-05 0)
(0.00101025 1.85897e-05 0)
(0.00101158 1.95052e-05 0)
(0.00101294 2.03391e-05 0)
(0.00101434 2.10943e-05 0)
(0.00101576 2.17737e-05 0)
(0.0010172 2.23804e-05 0)
(0.00101866 2.29165e-05 0)
(0.00102014 2.33848e-05 0)
(0.00102163 2.37869e-05 0)
(0.00102314 2.4125e-05 0)
(0.00102465 2.43999e-05 0)
(0.00102618 2.46138e-05 0)
(0.00102771 2.47664e-05 0)
(0.00102925 2.48599e-05 0)
(0.0010308 2.48929e-05 0)
(0.00103235 2.4868e-05 0)
(0.00103391 2.47823e-05 0)
(0.00103547 2.46392e-05 0)
(0.00103703 2.44339e-05 0)
(0.0010386 2.41715e-05 0)
(0.00104016 2.38441e-05 0)
(0.00104173 2.34601e-05 0)
(0.0010433 2.30067e-05 0)
(0.00104487 2.24978e-05 0)
(0.00104642 2.19132e-05 0)
(0.00104799 2.12756e-05 0)
(0.00104954 2.05531e-05 0)
(0.00105111 1.97828e-05 0)
(0.00105265 1.89141e-05 0)
(0.00105422 1.80071e-05 0)
(0.00105574 1.69823e-05 0)
(0.00105732 1.59357e-05 0)
(0.00105882 1.4742e-05 0)
(0.00106042 1.35545e-05 0)
(0.0010619 1.2176e-05 0)
(0.00106352 1.08495e-05 0)
(0.00106498 9.2652e-06 0)
(0.00106666 7.80746e-06 0)
(0.00106808 5.99042e-06 0)
(0.00106985 4.41955e-06 0)
(0.00107121 2.33386e-06 0)
(0.00107311 6.80944e-07 0)
(0.00107438 -1.73185e-06 0)
(0.0010765 -3.42755e-06 0)
(0.00107766 -6.27012e-06 0)
(0.00108013 -7.95117e-06 0)
(0.00108105 -1.13709e-05 0)
(0.00108385 -1.2935e-05 0)
(0.001 7.32642e-07 0)
(0.00100013 2.19138e-06 0)
(0.00100037 3.63059e-06 0)
(0.00100074 5.03759e-06 0)
(0.00100121 6.40098e-06 0)
(0.0010018 7.71142e-06 0)
(0.00100248 8.96203e-06 0)
(0.00100326 1.01483e-05 0)
(0.00100411 1.12676e-05 0)
(0.00100503 1.2319e-05 0)
(0.00100601 1.33021e-05 0)
(0.00100705 1.42175e-05 0)
(0.00100813 1.50657e-05 0)
(0.00100926 1.58477e-05 0)
(0.00101043 1.65645e-05 0)
(0.00101163 1.72173e-05 0)
(0.00101286 1.78074e-05 0)
(0.00101412 1.83361e-05 0)
(0.0010154 1.88046e-05 0)
(0.0010167 1.92143e-05 0)
(0.00101802 1.95658e-05 0)
(0.00101936 1.98605e-05 0)
(0.0010207 2.00986e-05 0)
(0.00102206 2.02813e-05 0)
(0.00102343 2.04082e-05 0)
(0.00102481 2.04805e-05 0)
(0.0010262 2.04969e-05 0)
(0.00102759 2.04592e-05 0)
(0.00102898 2.03647e-05 0)
(0.00103037 2.0216e-05 0)
(0.00103177 2.00087e-05 0)
(0.00103317 1.97468e-05 0)
(0.00103456 1.94235e-05 0)
(0.00103596 1.90452e-05 0)
(0.00103735 1.86013e-05 0)
(0.00103874 1.81023e-05 0)
(0.00104011 1.75317e-05 0)
(0.00104149 1.69069e-05 0)
(0.00104285 1.62022e-05 0)
(0.00104423 1.54456e-05 0)
(0.00104557 1.45976e-05 0)
(0.00104693 1.37028e-05 0)
(0.00104824 1.26999e-05 0)
(0.00104959 1.16602e-05 0)
(0.00105088 1.04881e-05 0)
(0.00105222 9.29675e-06 0)
(0.00105347 7.93724e-06 0)
(0.00105482 6.58803e-06 0)
(0.00105604 5.01674e-06 0)
(0.00105741 3.50435e-06 0)
(0.00105858 1.68786e-06 0)
(0.00106002 1.02132e-08 0)
(0.00106116 -2.09356e-06 0)
(0.00106271 -3.92472e-06 0)
(0.00106378 -6.36575e-06 0)
(0.00106549 -8.32419e-06 0)
(0.00106645 -1.11839e-05 0)
(0.00106837 -1.32366e-05 0)
(0.00106911 -1.66485e-05 0)
(0.00107121 -1.87374e-05 0)
(0.001 5.83668e-07 0)
(0.0010001 1.74699e-06 0)
(0.00100029 2.89839e-06 0)
(0.00100057 4.02997e-06 0)
(0.00100095 5.13426e-06 0)
(0.00100142 6.20454e-06 0)
(0.00100197 7.23519e-06 0)
(0.00100259 8.22176e-06 0)
(0.00100329 9.16092e-06 0)
(0.00100405 1.00503e-05 0)
(0.00100487 1.08884e-05 0)
(0.00100575 1.16743e-05 0)
(0.00100667 1.24074e-05 0)
(0.00100764 1.30874e-05 0)
(0.00100864 1.37142e-05 0)
(0.00100968 1.42878e-05 0)
(0.00101076 1.48084e-05 0)
(0.00101186 1.52764e-05 0)
(0.00101298 1.5692e-05 0)
(0.00101413 1.60558e-05 0)
(0.00101529 1.63679e-05 0)
(0.00101648 1.66289e-05 0)
(0.00101767 1.68387e-05 0)
(0.00101888 1.69978e-05 0)
(0.0010201 1.71058e-05 0)
(0.00102133 1.71632e-05 0)
(0.00102256 1.71691e-05 0)
(0.0010238 1.71242e-05 0)
(0.00102504 1.70267e-05 0)
(0.00102628 1.68779e-05 0)
(0.00102752 1.66747e-05 0)
(0.00102876 1.64191e-05 0)
(0.00102999 1.61066e-05 0)
(0.00103123 1.57406e-05 0)
(0.00103245 1.53141e-05 0)
(0.00103367 1.48326e-05 0)
(0.00103487 1.4286e-05 0)
(0.00103607 1.3683e-05 0)
(0.00103724 1.30085e-05 0)
(0.00103842 1.22768e-05 0)
(0.00103957 1.14648e-05 0)
(0.00104072 1.05959e-05 0)
(0.00104184 9.63477e-06 0)
(0.00104296 8.61893e-06 0)
(0.00104403 7.49432e-06 0)
(0.00104514 6.32067e-06 0)
(0.00104617 5.01502e-06 0)
(0.00104725 3.672e-06 0)
(0.00104823 2.16372e-06 0)
(0.0010493 6.3926e-07 0)
(0.00105022 -1.09932e-06 0)
(0.0010513 -2.81879e-06 0)
(0.00105215 -4.82833e-06 0)
(0.00105328 -6.76143e-06 0)
(0.00105406 -9.09837e-06 0)
(0.00105526 -1.12594e-05 0)
(0.00105593 -1.39918e-05 0)
(0.00105724 -1.63846e-05 0)
(0.00105768 -1.96065e-05 0)
(0.00105902 -2.22215e-05 0)
(0.001 4.66153e-07 0)
(0.00100008 1.39584e-06 0)
(0.00100024 2.3176e-06 0)
(0.00100047 3.22606e-06 0)
(0.00100078 4.11596e-06 0)
(0.00100116 4.98241e-06 0)
(0.00100162 5.82105e-06 0)
(0.00100214 6.62815e-06 0)
(0.00100272 7.4006e-06 0)
(0.00100337 8.13591e-06 0)
(0.00100406 8.83201e-06 0)
(0.00100481 9.48731e-06 0)
(0.0010056 1.01006e-05 0)
(0.00100644 1.06709e-05 0)
(0.00100731 1.11977e-05 0)
(0.00100822 1.16805e-05 0)
(0.00100916 1.21191e-05 0)
(0.00101012 1.25133e-05 0)
(0.00101111 1.28629e-05 0)
(0.00101213 1.31681e-05 0)
(0.00101316 1.34286e-05 0)
(0.00101421 1.36445e-05 0)
(0.00101527 1.38157e-05 0)
(0.00101635 1.39422e-05 0)
(0.00101743 1.40235e-05 0)
(0.00101853 1.40596e-05 0)
(0.00101963 1.40498e-05 0)
(0.00102073 1.39942e-05 0)
(0.00102183 1.38915e-05 0)
(0.00102293 1.37418e-05 0)
(0.00102403 1.35434e-05 0)
(0.00102512 1.32964e-05 0)
(0.00102621 1.29984e-05 0)
(0.00102729 1.26498e-05 0)
(0.00102836 1.22471e-05 0)
(0.00102941 1.17914e-05 0)
(0.00103045 1.12776e-05 0)
(0.00103148 1.0708e-05 0)
(0.00103249 1.00751e-05 0)
(0.00103348 9.38331e-06 0)
(0.00103444 8.62155e-06 0)
(0.0010354 7.79743e-06 0)
(0.00103631 6.89476e-06 0)
(0.00103722 5.9262e-06 0)
(0.00103807 4.86776e-06 0)
(0.00103893 3.74005e-06 0)
(0.00103972 2.50717e-06 0)
(0.00104053 1.20241e-06 0)
(0.00104124 -2.28014e-07 0)
(0.00104201 -1.72959e-06 0)
(0.00104265 -3.38338e-06 0)
(0.00104337 -5.10308e-06 0)
(0.00104392 -7.01405e-06 0)
(0.00104462 -8.98096e-06 0)
(0.00104506 -1.11973e-05 0)
(0.00104575 -1.34468e-05 0)
(0.00104604 -1.60279e-05 0)
(0.00104674 -1.85944e-05 0)
(0.00104679 -2.16109e-05 0)
(0.0010474 -2.452e-05 0)
(0.001 3.68858e-07 0)
(0.00100007 1.10472e-06 0)
(0.0010002 1.83497e-06 0)
(0.0010004 2.5558e-06 0)
(0.00100066 3.26345e-06 0)
(0.00100098 3.95432e-06 0)
(0.00100137 4.6251e-06 0)
(0.00100181 5.27281e-06 0)
(0.00100232 5.89484e-06 0)
(0.00100287 6.48893e-06 0)
(0.00100347 7.05316e-06 0)
(0.00100412 7.58592e-06 0)
(0.00100481 8.08587e-06 0)
(0.00100554 8.55196e-06 0)
(0.0010063 8.98332e-06 0)
(0.0010071 9.37928e-06 0)
(0.00100793 9.73929e-06 0)
(0.00100879 1.00629e-05 0)
(0.00100967 1.03498e-05 0)
(0.00101057 1.05996e-05 0)
(0.00101149 1.0812e-05 0)
(0.00101242 1.09868e-05 0)
(0.00101337 1.11236e-05 0)
(0.00101433 1.12222e-05 0)
(0.0010153 1.1282e-05 0)
(0.00101628 1.13028e-05 0)
(0.00101726 1.1284e-05 0)
(0.00101824 1.12249e-05 0)
(0.00101922 1.11251e-05 0)
(0.0010202 1.09835e-05 0)
(0.00102117 1.07995e-05 0)
(0.00102214 1.05719e-05 0)
(0.00102309 1.02997e-05 0)
(0.00102403 9.98156e-06 0)
(0.00102496 9.61608e-06 0)
(0.00102588 9.20153e-06 0)
(0.00102677 8.73642e-06 0)
(0.00102764 8.21836e-06 0)
(0.00102849 7.64576e-06 0)
(0.00102931 7.01539e-06 0)
(0.0010301 6.32569e-06 0)
(0.00103087 5.57219e-06 0)
(0.0010316 4.75371e-06 0)
(0.0010323 3.86385e-06 0)
(0.00103295 2.90245e-06 0)
(0.00103357 1.86008e-06 0)
(0.00103413 7.38773e-07 0)
(0.00103468 -4.75663e-07 0)
(0.00103514 -1.77676e-06 0)
(0.0010356 -3.18718e-06 0)
(0.00103595 -4.69421e-06 0)
(0.00103632 -6.33349e-06 0)
(0.00103655 -8.07891e-06 0)
(0.00103682 -9.98603e-06 0)
(0.00103689 -1.2007e-05 0)
(0.00103708 -1.42297e-05 0)
(0.00103696 -1.65701e-05 0)
(0.00103705 -1.91664e-05 0)
(0.00103666 -2.18739e-05 0)
(0.00103655 -2.49067e-05 0)
(0.001 2.8581e-07 0)
(0.00100006 8.56096e-07 0)
(0.00100017 1.42235e-06 0)
(0.00100034 1.98185e-06 0)
(0.00100057 2.53185e-06 0)
(0.00100085 3.06973e-06 0)
(0.00100119 3.593e-06 0)
(0.00100158 4.09938e-06 0)
(0.00100202 4.58681e-06 0)
(0.0010025 5.05344e-06 0)
(0.00100303 5.49766e-06 0)
(0.0010036 5.91804e-06 0)
(0.00100421 6.31338e-06 0)
(0.00100486 6.68261e-06 0)
(0.00100554 7.02487e-06 0)
(0.00100625 7.33937e-06 0)
(0.00100699 7.62548e-06 0)
(0.00100776 7.88262e-06 0)
(0.00100855 8.11031e-06 0)
(0.00100936 8.30806e-06 0)
(0.00101019 8.47549e-06 0)
(0.00101103 8.61212e-06 0)
(0.00101188 8.71763e-06 0)
(0.00101275 8.79148e-06 0)
(0.00101362 8.83332e-06 0)
(0.0010145 8.8425e-06 0)
(0.00101538 8.81868e-06 0)
(0.00101626 8.76094e-06 0)
(0.00101713 8.66896e-06 0)
(0.001018 8.5415e-06 0)
(0.00101887 8.37826e-06 0)
(0.00101972 8.17753e-06 0)
(0.00102056 7.93917e-06 0)
(0.00102138 7.66073e-06 0)
(0.00102219 7.34241e-06 0)
(0.00102298 6.9807e-06 0)
(0.00102374 6.57647e-06 0)
(0.00102447 6.12457e-06 0)
(0.00102518 5.62715e-06 0)
(0.00102585 5.0765e-06 0)
(0.00102648 4.47698e-06 0)
(0.00102708 3.81697e-06 0)
(0.00102764 3.10458e-06 0)
(0.00102815 2.32201e-06 0)
(0.00102861 1.48378e-06 0)
(0.00102902 5.62334e-07 0)
(0.00102937 -4.17076e-07 0)
(0.00102967 -1.49728e-06 0)
(0.00102989 -2.63567e-06 0)
(0.00103007 -3.90088e-06 0)
(0.00103014 -5.22169e-06 0)
(0.00103018 -6.70646e-06 0)
(0.00103008 -8.23639e-06 0)
(0.00102997 -9.98362e-06 0)
(0.00102967 -1.17522e-05 0)
(0.00102938 -1.38171e-05 0)
(0.00102885 -1.58569e-05 0)
(0.00102837 -1.83107e-05 0)
(0.00102751 -2.06516e-05 0)
(0.00102674 -2.35792e-05 0)
(0.001 2.12968e-07 0)
(0.00100005 6.37959e-07 0)
(0.00100015 1.0601e-06 0)
(0.00100031 1.47744e-06 0)
(0.00100051 1.88806e-06 0)
(0.00100076 2.29007e-06 0)
(0.00100106 2.68166e-06 0)
(0.00100141 3.06116e-06 0)
(0.0010018 3.42702e-06 0)
(0.00100223 3.77783e-06 0)
(0.00100271 4.11232e-06 0)
(0.00100322 4.42933e-06 0)
(0.00100378 4.72787e-06 0)
(0.00100436 5.00702e-06 0)
(0.00100498 5.26601e-06 0)
(0.00100562 5.50411e-06 0)
(0.00100629 5.72072e-06 0)
(0.00100699 5.91525e-06 0)
(0.00100771 6.08724e-06 0)
(0.00100845 6.23616e-06 0)
(0.0010092 6.36166e-06 0)
(0.00100997 6.4632e-06 0)
(0.00101075 6.54047e-06 0)
(0.00101153 6.5929e-06 0)
(0.00101233 6.62021e-06 0)
(0.00101312 6.62167e-06 0)
(0.00101392 6.59708e-06 0)
(0.00101472 6.54545e-06 0)
(0.00101551 6.46667e-06 0)
(0.00101629 6.35938e-06 0)
(0.00101706 6.22364e-06 0)
(0.00101782 6.05752e-06 0)
(0.00101857 5.86141e-06 0)
(0.00101929 5.63251e-06 0)
(0.00102 5.37184e-06 0)
(0.00102068 5.07528e-06 0)
(0.00102133 4.74493e-06 0)
(0.00102195 4.37461e-06 0)
(0.00102253 3.96833e-06 0)
(0.00102307 3.51669e-06 0)
(0.00102358 3.02693e-06 0)
(0.00102403 2.48459e-06 0)
(0.00102444 1.90226e-06 0)
(0.00102479 1.25753e-06 0)
(0.00102508 5.71808e-07 0)
(0.00102532 -1.90038e-07 0)
(0.00102547 -9.92124e-07 0)
(0.00102557 -1.88987e-06 0)
(0.00102557 -2.82442e-06 0)
(0.0010255 -3.88343e-06 0)
(0.00102532 -4.96927e-06 0)
(0.00102507 -6.2214e-06 0)
(0.00102468 -7.47924e-06 0)
(0.00102421 -8.96598e-06 0)
(0.00102357 -1.04185e-05 0)
(0.00102287 -1.21951e-05 0)
(0.00102194 -1.38651e-05 0)
(0.00102095 -1.6005e-05 0)
(0.00101965 -1.79087e-05 0)
(0.00101828 -2.05041e-05 0)
(0.001 1.4733e-07 0)
(0.00100005 4.41359e-07 0)
(0.00100014 7.33476e-07 0)
(0.00100028 1.02238e-06 0)
(0.00100047 1.30679e-06 0)
(0.0010007 1.58541e-06 0)
(0.00100097 1.85704e-06 0)
(0.00100129 2.12051e-06 0)
(0.00100165 2.37476e-06 0)
(0.00100205 2.61879e-06 0)
(0.00100249 2.8517e-06 0)
(0.00100296 3.07263e-06 0)
(0.00100347 3.28086e-06 0)
(0.00100401 3.47569e-06 0)
(0.00100458 3.65652e-06 0)
(0.00100517 3.82277e-06 0)
(0.0010058 3.97398e-06 0)
(0.00100644 4.10965e-06 0)
(0.00100711 4.22941e-06 0)
(0.00100779 4.33281e-06 0)
(0.00100849 4.41956e-06 0)
(0.0010092 4.4892e-06 0)
(0.00100992 4.54149e-06 0)
(0.00101065 4.57592e-06 0)
(0.00101138 4.5923e-06 0)
(0.00101212 4.58998e-06 0)
(0.00101285 4.56885e-06 0)
(0.00101358 4.52806e-06 0)
(0.00101431 4.46759e-06 0)
(0.00101503 4.38627e-06 0)
(0.00101573 4.28428e-06 0)
(0.00101642 4.15992e-06 0)
(0.00101709 4.01374e-06 0)
(0.00101774 3.84325e-06 0)
(0.00101836 3.64963e-06 0)
(0.00101896 3.42918e-06 0)
(0.00101952 3.18416e-06 0)
(0.00102005 2.90899e-06 0)
(0.00102054 2.60775e-06 0)
(0.00102099 2.27192e-06 0)
(0.00102138 1.90865e-06 0)
(0.00102173 1.50474e-06 0)
(0.00102201 1.07246e-06 0)
(0.00102224 5.91192e-07 0)
(0.0010224 8.1603e-08 0)
(0.00102248 -4.88693e-07 0)
(0.00102249 -1.08536e-06 0)
(0.00102241 -1.76021e-06 0)
(0.00102224 -2.45646e-06 0)
(0.00102197 -3.25626e-06 0)
(0.00102158 -4.06592e-06 0)
(0.00102109 -5.01671e-06 0)
(0.00102046 -5.95488e-06 0)
(0.00101971 -7.09128e-06 0)
(0.00101879 -8.17399e-06 0)
(0.00101774 -9.54293e-06 0)
(0.00101647 -1.07851e-05 0)
(0.00101507 -1.24501e-05 0)
(0.00101339 -1.3859e-05 0)
(0.00101154 -1.59021e-05 0)
(0.001 8.65043e-08 0)
(0.00100005 2.59147e-07 0)
(0.00100013 4.30686e-07 0)
(0.00100026 6.00373e-07 0)
(0.00100044 7.67462e-07 0)
(0.00100065 9.31217e-07 0)
(0.00100091 1.09093e-06 0)
(0.00100121 1.24593e-06 0)
(0.00100155 1.39558e-06 0)
(0.00100193 1.53929e-06 0)
(0.00100234 1.67652e-06 0)
(0.00100279 1.80675e-06 0)
(0.00100327 1.92955e-06 0)
(0.00100378 2.04447e-06 0)
(0.00100432 2.15114e-06 0)
(0.00100488 2.2492e-06 0)
(0.00100547 2.33835e-06 0)
(0.00100608 2.41828e-06 0)
(0.00100671 2.48873e-06 0)
(0.00100736 2.54942e-06 0)
(0.00100802 2.60015e-06 0)
(0.0010087 2.64062e-06 0)
(0.00100938 2.67067e-06 0)
(0.00101007 2.68996e-06 0)
(0.00101076 2.69838e-06 0)
(0.00101146 2.69549e-06 0)
(0.00101215 2.68124e-06 0)
(0.00101284 2.65504e-06 0)
(0.00101352 2.61693e-06 0)
(0.00101419 2.56609e-06 0)
(0.00101485 2.50272e-06 0)
(0.00101549 2.42564e-06 0)
(0.00101611 2.3353e-06 0)
(0.00101671 2.23e-06 0)
(0.00101728 2.11064e-06 0)
(0.00101782 1.97468e-06 0)
(0.00101832 1.82378e-06 0)
(0.00101879 1.65411e-06 0)
(0.00101921 1.46865e-06 0)
(0.00101959 1.26148e-06 0)
(0.00101991 1.03778e-06 0)
(0.00102018 7.8837e-07 0)
(0.00102038 5.22042e-07 0)
(0.00102052 2.2445e-07 0)
(0.00102058 -8.96827e-08 0)
(0.00102057 -4.42962e-07 0)
(0.00102046 -8.11061e-07 0)
(0.00102027 -1.23018e-06 0)
(0.00101997 -1.66005e-06 0)
(0.00101956 -2.15824e-06 0)
(0.00101903 -2.65844e-06 0)
(0.00101837 -3.25281e-06 0)
(0.00101756 -3.83254e-06 0)
(0.00101661 -4.54605e-06 0)
(0.00101549 -5.21488e-06 0)
(0.00101419 -6.07895e-06 0)
(0.00101268 -6.84519e-06 0)
(0.00101098 -7.90289e-06 0)
(0.00100902 -8.76911e-06 0)
(0.00100683 -1.0077e-05 0)
(0.001 2.84454e-08 0)
(0.00100004 8.52137e-08 0)
(0.00100013 1.41616e-07 0)
(0.00100026 1.97407e-07 0)
(0.00100042 2.52344e-07 0)
(0.00100064 3.06188e-07 0)
(0.00100089 3.58706e-07 0)
(0.00100118 4.09677e-07 0)
(0.00100151 4.58893e-07 0)
(0.00100187 5.06157e-07 0)
(0.00100227 5.5129e-07 0)
(0.00100271 5.94122e-07 0)
(0.00100317 6.34501e-07 0)
(0.00100367 6.72281e-07 0)
(0.00100419 7.07336e-07 0)
(0.00100474 7.39543e-07 0)
(0.00100532 7.68799e-07 0)
(0.00100591 7.94995e-07 0)
(0.00100652 8.18048e-07 0)
(0.00100715 8.37855e-07 0)
(0.0010078 8.54349e-07 0)
(0.00100845 8.67424e-07 0)
(0.00100911 8.77027e-07 0)
(0.00100978 8.83036e-07 0)
(0.00101046 8.85413e-07 0)
(0.00101113 8.84007e-07 0)
(0.0010118 8.78799e-07 0)
(0.00101247 8.69585e-07 0)
(0.00101313 8.5638e-07 0)
(0.00101378 8.38899e-07 0)
(0.00101441 8.17212e-07 0)
(0.00101503 7.90907e-07 0)
(0.00101562 7.60154e-07 0)
(0.00101619 7.24344e-07 0)
(0.00101674 6.83816e-07 0)
(0.00101725 6.3766e-07 0)
(0.00101772 5.86498e-07 0)
(0.00101815 5.28948e-07 0)
(0.00101854 4.66117e-07 0)
(0.00101888 3.9588e-07 0)
(0.00101917 3.2014e-07 0)
(0.0010194 2.35608e-07 0)
(0.00101956 1.45495e-07 0)
(0.00101965 4.46411e-08 0)
(0.00101967 -6.16113e-08 0)
(0.0010196 -1.81466e-07 0)
(0.00101944 -3.06175e-07 0)
(0.00101918 -4.48645e-07 0)
(0.00101882 -5.94378e-07 0)
(0.00101834 -7.63945e-07 0)
(0.00101773 -9.33513e-07 0)
(0.00101698 -1.13611e-06 0)
(0.00101609 -1.33264e-06 0)
(0.00101503 -1.57634e-06 0)
(0.0010138 -1.80303e-06 0)
(0.00101237 -2.09888e-06 0)
(0.00101074 -2.35839e-06 0)
(0.00100888 -2.72165e-06 -3.51477e-38)
(0.00100678 -3.01451e-06 0)
(0.00100441 -3.46535e-06 0)
(0.001 -2.87093e-08 0)
(0.00100004 -8.6014e-08 0)
(0.00100013 -1.42969e-07 0)
(0.00100026 -1.99331e-07 0)
(0.00100042 -2.54852e-07 0)
(0.00100064 -3.09289e-07 0)
(0.00100089 -3.6241e-07 0)
(0.00100118 -4.13991e-07 0)
(0.00100151 -4.63825e-07 0)
(0.00100187 -5.11713e-07 0)
(0.00100227 -5.57475e-07 0)
(0.00100271 -6.00939e-07 0)
(0.00100317 -6.41954e-07 0)
(0.00100367 -6.80372e-07 0)
(0.00100419 -7.16067e-07 0)
(0.00100474 -7.48913e-07 0)
(0.00100531 -7.78808e-07 0)
(0.00100591 -8.05641e-07 0)
(0.00100652 -8.2933e-07 0)
(0.00100715 -8.49769e-07 0)
(0.0010078 -8.66894e-07 0)
(0.00100845 -8.80597e-07 0)
(0.00100911 -8.90825e-07 0)
(0.00100978 -8.97459e-07 0)
(0.00101046 -9.00459e-07 0)
(0.00101113 -8.99674e-07 0)
(0.0010118 -8.95086e-07 0)
(0.00101247 -8.86493e-07 0)
(0.00101313 -8.7391e-07 0)
(0.00101378 -8.57052e-07 0)
(0.00101441 -8.35991e-07 0)
(0.00101503 -8.10316e-07 0)
(0.00101562 -7.80197e-07 0)
(0.00101619 -7.45028e-07 0)
(0.00101673 -7.05147e-07 0)
(0.00101724 -6.59648e-07 0)
(0.00101772 -6.09152e-07 0)
(0.00101815 -5.52283e-07 0)
(0.00101854 -4.90141e-07 0)
(0.00101888 -4.20609e-07 0)
(0.00101917 -3.45587e-07 0)
(0.0010194 -2.61788e-07 0)
(0.00101956 -1.72427e-07 0)
(0.00101965 -7.23511e-08 0)
(0.00101967 3.30887e-08 0)
(0.0010196 1.52077e-07 0)
(0.00101944 2.75866e-07 0)
(0.00101918 4.17372e-07 0)
(0.00101882 5.62094e-07 0)
(0.00101833 7.30623e-07 0)
(0.00101773 8.99112e-07 0)
(0.00101698 1.1006e-06 0)
(0.00101609 1.29595e-06 0)
(0.00101503 1.53842e-06 0)
(0.0010138 1.7638e-06 0)
(0.00101237 2.0583e-06 0)
(0.00101074 2.31636e-06 0)
(0.00100888 2.67812e-06 3.51477e-38)
(0.00100678 2.96938e-06 0)
(0.00100441 3.41856e-06 0)
(0.001 -8.67661e-08 0)
(0.00100005 -2.59941e-07 0)
(0.00100013 -4.32028e-07 0)
(0.00100026 -6.02281e-07 0)
(0.00100044 -7.69948e-07 0)
(0.00100065 -9.34292e-07 0)
(0.00100091 -1.0946e-06 0)
(0.00100121 -1.2502e-06 0)
(0.00100155 -1.40046e-06 0)
(0.00100193 -1.54479e-06 0)
(0.00100234 -1.68264e-06 0)
(0.00100279 -1.81351e-06 0)
(0.00100327 -1.93693e-06 0)
(0.00100378 -2.05248e-06 0)
(0.00100432 -2.15979e-06 0)
(0.00100488 -2.25848e-06 0)
(0.00100547 -2.34826e-06 0)
(0.00100608 -2.42882e-06 0)
(0.00100671 -2.4999e-06 0)
(0.00100736 -2.56122e-06 0)
(0.00100802 -2.61257e-06 0)
(0.0010087 -2.65366e-06 0)
(0.00100938 -2.68433e-06 0)
(0.00101007 -2.70424e-06 0)
(0.00101076 -2.71327e-06 0)
(0.00101146 -2.711e-06 0)
(0.00101215 -2.69736e-06 0)
(0.00101284 -2.67177e-06 0)
(0.00101352 -2.63427e-06 0)
(0.00101419 -2.58406e-06 0)
(0.00101485 -2.5213e-06 0)
(0.00101549 -2.44484e-06 0)
(0.00101611 -2.35513e-06 0)
(0.00101671 -2.25047e-06 0)
(0.00101728 -2.13175e-06 0)
(0.00101781 -1.99643e-06 0)
(0.00101832 -1.84621e-06 0)
(0.00101878 -1.67721e-06 0)
(0.00101921 -1.49244e-06 0)
(0.00101958 -1.28598e-06 0)
(0.00101991 -1.06301e-06 0)
(0.00102017 -8.14354e-07 0)
(0.00102038 -5.48805e-07 0)
(0.00102051 -2.5202e-07 0)
(0.00102058 6.12889e-08 0)
(0.00102056 4.13725e-07 0)
(0.00102046 7.80949e-07 0)
(0.00102026 1.19916e-06 0)
(0.00101996 1.6281e-06 0)
(0.00101955 2.12531e-06 0)
(0.00101902 2.62446e-06 0)
(0.00101836 3.21775e-06 0)
(0.00101756 3.79633e-06 0)
(0.0010166 4.50864e-06 0)
(0.00101548 5.1762e-06 0)
(0.00101418 6.03896e-06 0)
(0.00101268 6.80378e-06 0)
(0.00101097 7.86003e-06 0)
(0.00100902 8.72466e-06 0)
(0.00100683 1.0031e-05 0)
(0.001 -1.47587e-07 0)
(0.00100005 -4.42136e-07 0)
(0.00100014 -7.34791e-07 0)
(0.00100028 -1.02425e-06 0)
(0.00100047 -1.30922e-06 0)
(0.0010007 -1.58842e-06 0)
(0.00100097 -1.86063e-06 0)
(0.00100129 -2.1247e-06 0)
(0.00100165 -2.37955e-06 0)
(0.00100205 -2.62418e-06 0)
(0.00100249 -2.8577e-06 0)
(0.00100296 -3.07925e-06 0)
(0.00100347 -3.28809e-06 0)
(0.00100401 -3.48354e-06 0)
(0.00100458 -3.66498e-06 0)
(0.00100517 -3.83185e-06 0)
(0.00100579 -3.98368e-06 0)
(0.00100644 -4.11997e-06 0)
(0.0010071 -4.24034e-06 0)
(0.00100779 -4.34436e-06 0)
(0.00100849 -4.43172e-06 0)
(0.0010092 -4.50197e-06 0)
(0.00100992 -4.55486e-06 0)
(0.00101065 -4.58989e-06 0)
(0.00101138 -4.60687e-06 0)
(0.00101212 -4.60515e-06 0)
(0.00101285 -4.58462e-06 0)
(0.00101358 -4.54443e-06 0)
(0.00101431 -4.48457e-06 0)
(0.00101502 -4.40385e-06 0)
(0.00101573 -4.30246e-06 0)
(0.00101642 -4.17871e-06 0)
(0.00101709 -4.03314e-06 0)
(0.00101774 -3.86327e-06 0)
(0.00101836 -3.67028e-06 0)
(0.00101896 -3.45046e-06 0)
(0.00101952 -3.20609e-06 0)
(0.00102005 -2.93157e-06 0)
(0.00102054 -2.63101e-06 0)
(0.00102098 -2.29586e-06 0)
(0.00102138 -1.93331e-06 0)
(0.00102172 -1.53012e-06 0)
(0.00102201 -1.0986e-06 0)
(0.00102223 -6.18112e-07 0)
(0.00102239 -1.09338e-07 0)
(0.00102248 4.60147e-07 0)
(0.00102248 1.05597e-06 0)
(0.0010224 1.72996e-06 0)
(0.00102223 2.42529e-06 0)
(0.00102196 3.22414e-06 0)
(0.00102157 4.03278e-06 0)
(0.00102108 4.98252e-06 0)
(0.00102045 5.91957e-06 0)