/*--------------------------------*- C++ -*----------------------------------*\
| =========                 |                                                 |
| \\      /  F ield         | OpenFOAM: The Open Source CFD Toolbox           |
|  \\    /   O peration     | Version:  2312                                  |
|   \\  /    A nd           | Website:  www.openfoam.com                      |
|    \\/     M anipulation  |                                                 |
\*---------------------------------------------------------------------------*/
FoamFile
{
    version     2.0;
    format      ascii;
    arch        "LSB;label=32;scalar=64";
    class       surfaceScalarField;
    location    "96000";
    object      phi;
}
// * * * * * * * * * * * * * * * * * * * * * * * * * * * * * * * * * * * * * //

dimensions      [0 3 -1 0 0 0 0];

oriented        oriented;

internalField   nonuniform List<scalar> 
5250
(
-7.298e-05
1.16624e-06
-7.3708e-05
7.28043e-07
-7.39553e-05
2.47225e-07
-7.37099e-05
-2.45345e-07
-7.29637e-05
-7.46167e-07
-7.16962e-05
-1.26754e-06
-6.98979e-05
-1.79831e-06
-6.7568e-05
-2.32994e-06
-6.47132e-05
-2.8548e-06
-6.13473e-05
-3.3659e-06
-5.74904e-05
-3.85687e-06
-5.31684e-05
-4.32194e-06
-4.84125e-05
-4.75598e-06
-4.32579e-05
-5.1546e-06
-3.77438e-05
-5.51412e-06
-3.19121e-05
-5.83161e-06
-2.58071e-05
-6.105e-06
-1.94739e-05
-6.3332e-06
-1.29573e-05
-6.51666e-06
-6.29986e-06
-6.65743e-06
4.56256e-07
-6.75612e-06
7.26808e-06
-6.81183e-06
1.40909e-05
-6.82286e-06
2.08829e-05
-6.79194e-06
2.76048e-05
-6.72191e-06
3.42205e-05
-6.61566e-06
4.06968e-05
-6.47631e-06
4.70039e-05
-6.30717e-06
5.31155e-05
-6.11159e-06
5.90085e-05
-5.89298e-06
6.46632e-05
-5.65472e-06
7.00634e-05
-5.40013e-06
7.51958e-05
-5.13244e-06
8.00505e-05
-4.85473e-06
8.46205e-05
-4.56996e-06
8.89014e-05
-4.28089e-06
9.28915e-05
-3.9901e-06
9.65914e-05
-3.69996e-06
0.000100004
-3.41264e-06
0.000103134
-3.13008e-06
0.000105988
-2.85401e-06
0.000108574
-2.58593e-06
0.000110901
-2.32714e-06
0.00011298
-2.07874e-06
0.000114822
-1.8416e-06
0.000116438
-1.61644e-06
0.000117842
-1.40377e-06
0.000119046
-1.20391e-06
0.000120063
-1.01709e-06
0.000120906
-8.43342e-07
0.000121589
-6.82581e-07
0.000122123
-5.34674e-07
0.000122523
-3.99249e-07
0.000122798
-2.75654e-07
0.000122962
-1.63297e-07
0.000123023
-6.14202e-08
0.000122995
2.76252e-08
0.000122893
1.02316e-07
0.000122724
1.69114e-07
0.000122497
2.27441e-07
0.000122219
2.77552e-07
0.000121899
3.19646e-07
0.000121545
3.54128e-07
0.000121164
3.81545e-07
0.000120761
4.02413e-07
0.000120344
4.17244e-07
0.000119917
4.26496e-07
0.000119487
4.30684e-07
0.000119056
4.30319e-07
0.00011863
4.26046e-07
0.000118212
4.18389e-07
0.000117804
4.07842e-07
0.00011741
3.94147e-07
0.000117032
3.77618e-07
0.000116674
3.58687e-07
0.000116336
3.38108e-07
0.00011602
3.15886e-07
0.000115727
2.92862e-07
0.000115458
2.68606e-07
0.000115214
2.44342e-07
0.000114995
2.18857e-07
0.000114801
1.94288e-07
0.000114633
1.67718e-07
0.00011449
1.43523e-07
0.000114375
1.14672e-07
0.000114283
9.14674e-08
0.000114227
5.60374e-08
0.000114192
3.57287e-08
-1.8075e-08
2.79005e-05
-7.91496e-07
3.02894e-05
-1.66089e-06
3.31292e-05
-2.59253e-06
3.64558e-05
-3.57196e-06
4.02919e-05
-4.5823e-06
4.46339e-05
-5.60951e-06
4.94757e-05
-6.64015e-06
5.48071e-05
-7.66135e-06
6.06131e-05
-8.66075e-06
6.68738e-05
-9.62666e-06
7.35652e-05
-1.05482e-05
8.06586e-05
-1.14154e-05
8.81222e-05
-1.22195e-05
9.59204e-05
-1.29528e-05
0.000104015
-1.36089e-05
0.000112366
-1.41828e-05
0.000120932
-1.46704e-05
0.000129668
-1.50695e-05
0.000138531
-1.53799e-05
0.000147477
-1.56035e-05
0.000156465
-1.57438e-05
0.000165458
-1.58049e-05
0.000174424
-1.57886e-05
0.000183327
-1.56946e-05
0.000192129
-1.55238e-05
0.000200795
-1.5282e-05
0.000209294
-1.49758e-05
0.000217599
-1.46114e-05
0.000225682
-1.41951e-05
0.000233522
-1.37333e-05
0.0002411
-1.32323e-05
0.000248398
-1.26979e-05
0.000255402
-1.21363e-05
0.0002621
-1.15529e-05
0.000268483
-1.09532e-05
0.000274544
-1.03423e-05
0.000280279
-9.72488e-06
0.000285685
-9.10544e-06
0.00029076
-8.48805e-06
0.000295506
-7.87643e-06
0.000299926
-7.27396e-06
0.000304024
-6.68368e-06
0.000307805
-6.10828e-06
0.000311277
-5.55013e-06
0.000314446
-5.01128e-06
0.000317323
-4.49349e-06
0.000319918
-3.99818e-06
0.00032224
-3.52651e-06
0.000324303
-3.07942e-06
0.000326117
-2.6576e-06
0.000327696
-2.26146e-06
0.000329052
-1.89131e-06
0.0003302
-1.54714e-06
0.000331153
-1.22868e-06
0.000331926
-9.35856e-07
0.000332533
-6.684e-07
0.000332986
-4.25372e-07
0.000333294
-2.05971e-07
0.000333469
-5.41638e-09
0.000333536
1.6027e-07
0.000333503
3.09965e-07
0.000333383
4.39782e-07
0.000333187
5.50302e-07
0.000332926
6.42532e-07
0.000332611
7.17435e-07
0.000332252
7.76049e-07
0.000331859
8.19485e-07
0.000331441
8.49037e-07
0.000331005
8.66023e-07
0.00033056
8.7156e-07
0.000330112
8.6604e-07
0.000329669
8.50589e-07
0.000329237
8.26141e-07
0.000328821
7.94193e-07
0.000328424
7.55351e-07
0.000328051
7.11363e-07
0.000327705
6.62113e-07
0.000327388
6.10026e-07
0.000327102
5.5366e-07
0.00032685
4.97063e-07
0.000326633
4.36075e-07
0.000326448
3.78385e-07
0.000326302
3.14047e-07
0.000326187
2.58842e-07
0.000326111
1.90225e-07
0.000326061
1.42121e-07
0.000326053
6.3984e-08
0.000326057
3.11068e-08
-6.94842e-08
0.000234725
-4.75826e-06
0.000238962
-5.89734e-06
0.000243469
-7.09987e-06
0.000248247
-8.34964e-06
0.000253295
-9.63021e-06
0.000258611
-1.09257e-05
0.000264191
-1.222e-05
0.000270027
-1.34974e-05
0.000276109
-1.47425e-05
0.000282423
-1.59407e-05
0.000288952
-1.70781e-05
0.000295679
-1.81423e-05
0.000302582
-1.91218e-05
0.000309636
-2.0007e-05
0.000316817
-2.079e-05
0.000324098
-2.14643e-05
0.000331454
-2.20255e-05
0.000338856
-2.24715e-05
0.000346278
-2.28028e-05
0.000353696
-2.30212e-05
0.000361082
-2.31291e-05
0.000368406
-2.31291e-05
0.000375642
-2.30245e-05
0.000382767
-2.28196e-05
0.000389763
-2.25197e-05
0.000396612
-2.21318e-05
0.000403299
-2.1663e-05
0.000409809
-2.1121e-05
0.000416128
-2.05136e-05
0.000422243
-1.98487e-05
0.000428145
-1.91342e-05
0.000433825
-1.83778e-05
0.000439275
-1.75867e-05
0.000444491
-1.67683e-05
0.000449467
-1.59291e-05
0.0004542
-1.50758e-05
0.000458689
-1.42141e-05
0.000462934
-1.33498e-05
0.000466933
-1.24878e-05
0.00047069
-1.16328e-05
0.000474205
-1.07892e-05
0.000477482
-9.96073e-06
0.000480525
-9.15076e-06
0.000483337
-8.36237e-06
0.000485924
-7.59819e-06
0.000488291
-6.86053e-06
0.000490444
-6.15135e-06
0.00049239
-5.47231e-06
0.000494135
-4.82475e-06
0.000495687
-4.20971e-06
0.000497054
-3.62802e-06
0.000498243
-3.08032e-06
0.000499263
-2.56724e-06
0.000500123
-2.08855e-06
0.000500831
-1.64388e-06
0.000501396
-1.23376e-06
0.000501828
-8.57351e-07
0.000502134
-5.12306e-07
0.000502327
-1.98172e-07
0.000502406
8.15489e-08
0.000502387
3.28962e-07
0.000502279
5.47445e-07
0.000502092
7.37572e-07
0.000501834
9.00375e-07
0.000501514
1.03709e-06
0.000501141
1.1491e-06
0.000500723
1.23774e-06
0.000500268
1.30457e-06
0.000499783
1.3509e-06
0.000499276
1.3785e-06
0.000498753
1.38839e-06
0.000498221
1.38271e-06
0.000497685
1.36198e-06
0.000497151
1.32908e-06
0.000496622
1.2835e-06
0.000496104
1.22951e-06
0.000495602
1.16452e-06
0.000495116
1.09547e-06
0.000494654
1.01589e-06
0.000494213
9.3776e-07
0.000493802
8.47383e-07
0.000493414
7.66301e-07
0.000493061
6.67296e-07
0.00049273
5.89927e-07
0.000492438
4.81993e-07
0.000492164
4.1658e-07
0.000491932
2.95709e-07
0.000491709
2.53933e-07
1.1061e-07
0.00047806
-8.29919e-06
0.000481823
-9.66016e-06
0.000485779
-1.10561e-05
0.000489905
-1.24756e-05
0.000494181
-1.39061e-05
0.000498588
-1.53329e-05
0.000503109
-1.67408e-05
0.000507726
-1.81144e-05
0.000512423
-1.9439e-05
0.000517182
-2.07004e-05
0.00052199
-2.18852e-05
0.000526828
-2.29812e-05
0.000531684
-2.39776e-05
0.000536542
-2.4865e-05
0.000541388
-2.56359e-05
0.000546208
-2.62841e-05
0.000550987
-2.68046e-05
0.00055571
-2.71945e-05
0.000560361
-2.74539e-05
0.000564928
-2.7588e-05
0.000569401
-2.76021e-05
0.000573772
-2.75e-05
0.000578033
-2.72861e-05
0.000582179
-2.69653e-05
0.000586203
-2.65435e-05
0.000590099
-2.60281e-05
0.000593863
-2.54269e-05
0.00059749
-2.47482e-05
0.000600977
-2.40003e-05
0.00060432
-2.31918e-05
0.000607517
-2.2331e-05
0.000610566
-2.14263e-05
0.000613464
-2.04855e-05
0.000616213
-1.95164e-05
0.000618809
-1.8526e-05
0.000621255
-1.75213e-05
0.000623549
-1.65086e-05
0.000625693
-1.54937e-05
0.000627688
-1.44822e-05
0.000629534
-1.3479e-05
0.000631233
-1.24886e-05
0.000632788
-1.15151e-05
0.000634199
-1.05621e-05
0.00063547
-9.6331e-06
0.000636602
-8.73079e-06
0.0006376
-7.85773e-06
0.000638464
-7.01619e-06
0.0006392
-6.20792e-06
0.00063981
-5.43454e-06
0.000640298
-4.69748e-06
0.000640667
-3.99762e-06
0.000640923
-3.33578e-06
0.000641068
-2.71261e-06
0.000641108
-2.12842e-06
0.000641047
-1.58336e-06
0.000640891
-1.07728e-06
0.000640644
-6.10426e-07
0.000640315
-1.83267e-07
0.000639904
2.1303e-07
0.000639415
5.70616e-07
0.000638854
8.89615e-07
0.000638228
1.17387e-06
0.000637541
1.42365e-06
0.000636802
1.64008e-06
0.000636014
1.82441e-06
0.000635185
1.97888e-06
0.000634318
2.10418e-06
0.00063342
2.20269e-06
0.000632496
2.27468e-06
0.000631551
2.32373e-06
0.00063059
2.34938e-06
0.000629616
2.3564e-06
0.000628636
2.34232e-06
0.000627651
2.31429e-06
0.000626668
2.26681e-06
0.000625686
2.21091e-06
0.000624715
2.13599e-06
0.000623751
2.05962e-06
0.000622804
1.9626e-06
0.000621868
1.87338e-06
0.000620957
1.75857e-06
0.000620059
1.66457e-06
0.000619191
1.53471e-06
0.000618336
1.44487e-06
0.000617518
1.3006e-06
0.000616709
1.22563e-06
0.00061594
1.06485e-06
0.000615175
1.01901e-06
8.36853e-07
0.000710287
-9.40165e-06
0.000711514
-1.08876e-05
0.000712843
-1.23856e-05
0.000714253
-1.38848e-05
0.000715719
-1.53727e-05
0.000717223
-1.68366e-05
0.000718745
-1.82628e-05
0.000720269
-1.96379e-05
0.000721779
-2.09492e-05
0.000723263
-2.21845e-05
0.00072471
-2.33325e-05
0.000726112
-2.43827e-05
0.00072746
-2.53262e-05
0.000728751
-2.61554e-05
0.000729979
-2.68645e-05
0.000731144
-2.74487e-05
0.000732244
-2.7905e-05
0.000733282
-2.82324e-05
0.00073426
-2.84316e-05
0.000735177
-2.85054e-05
0.000736033
-2.84582e-05
0.00073683
-2.82972e-05
0.000737572
-2.80281e-05
0.000738263
-2.76562e-05
0.000738908
-2.71877e-05
0.000739509
-2.66296e-05
0.000740071
-2.5989e-05
0.000740597
-2.52739e-05
0.000741089
-2.44922e-05
0.000741549
-2.36519e-05
0.000741979
-2.27609e-05
0.000742379
-2.1827e-05
0.000742751
-2.08575e-05
0.000743095
-1.98597e-05
0.000743409
-1.88403e-05
0.000743693
-1.78056e-05
0.000743946
-1.67617e-05
0.000744167
-1.57142e-05
0.000744353
-1.46683e-05
0.000744502
-1.36286e-05
0.000744613
-1.25996e-05
0.000744684
-1.15853e-05
0.000744711
-1.05894e-05
0.000744693
-9.61503e-06
0.000744627
-8.66529e-06
0.000744512
-7.74278e-06
0.000744346
-6.84989e-06
0.000744127
-5.98864e-06
0.000743853
-5.16101e-06
0.000743524
-4.36825e-06
0.000743138
-3.61171e-06
0.000742696
-2.89307e-06
0.000742196
-2.21258e-06
0.000741638
-1.57073e-06
0.000741025
-9.70242e-07
0.000740359
-4.11513e-07
0.000739638
1.10963e-07
0.000738852
6.02314e-07
0.000738015
1.04969e-06
0.000737127
1.45884e-06
0.000736188
1.82827e-06
0.000735203
2.15946e-06
0.000734173
2.45327e-06
0.000733101
2.71238e-06
0.000731989
2.93626e-06
0.00073084
3.12805e-06
0.000729657
3.28663e-06
0.000728443
3.41666e-06
0.000727202
3.5158e-06
0.000725935
3.59069e-06
0.000724648
3.63672e-06
0.000723341
3.66343e-06
0.000722021
3.66263e-06
0.000720686
3.64857e-06
0.000719346
3.60753e-06
0.000717996
3.56075e-06
0.000716646
3.48559e-06
0.000715292
3.41421e-06
0.000713944
3.31032e-06
0.000712594
3.2229e-06
0.000711258
3.09474e-06
0.000709922
3.00048e-06
0.000708606
2.85104e-06
0.000707291
2.76009e-06
0.000706001
2.59038e-06
0.000704712
2.51452e-06
0.000703454
2.32308e-06
0.000702196
2.27697e-06
2.06125e-06
0.000856609
-8.7915e-06
0.000855973
-1.02514e-05
0.000855295
-1.17073e-05
0.000854561
-1.31506e-05
0.000853759
-1.45709e-05
0.000852879
-1.59567e-05
0.000851913
-1.72967e-05
0.000850855
-1.85803e-05
0.000849703
-1.97972e-05
0.000848456
-2.09375e-05
0.000847116
-2.19923e-05
0.000845686
-2.29533e-05
0.000844174
-2.38137e-05
0.000842586
-2.45678e-05
0.000840933
-2.52111e-05
0.000839225
-2.57405e-05
0.000837474
-2.61543e-05
0.000835694
-2.6452e-05
0.000833897
-2.66345e-05
0.000832096
-2.67045e-05
0.000830304
-2.66667e-05
0.000828533
-2.6526e-05
0.000826792
-2.6287e-05
0.00082509
-2.59542e-05
0.000823435
-2.55331e-05
0.000821835
-2.50295e-05
0.000820296
-2.44498e-05
0.000818823
-2.38008e-05
0.00081742
-2.3089e-05
0.000816089
-2.23212e-05
0.000814832
-2.1504e-05
0.000813649
-2.06439e-05
0.000812539
-1.97472e-05
0.000811499
-1.88201e-05
0.000810527
-1.78682e-05
0.000809619
-1.68973e-05
0.00080877
-1.59127e-05
0.000807975
-1.49192e-05
0.000807228
-1.39218e-05
0.000806525
-1.29248e-05
0.000805857
-1.19323e-05
0.00080522
-1.09484e-05
0.000804607
-9.97655e-06
0.000804013
-9.02012e-06
0.000803429
-8.08219e-06
0.000802852
-7.16562e-06
0.000802276
-6.27309e-06
0.000801694
-5.40666e-06
0.000801101
-4.5688e-06
0.000800495
-3.76157e-06
0.000799869
-2.98616e-06
0.00079922
-2.24422e-06
0.000798546
-1.53812e-06
0.000797843
-8.67501e-07
0.000797105
-2.32373e-07
0.000796332
3.6108e-07
0.00079552
9.23002e-07
0.000794675
1.44715e-06
0.000793795
1.93007e-06
0.000792878
2.37541e-06
0.000791924
2.78231e-06
0.000790931
3.15231e-06
0.000789901
3.48406e-06
0.000788832
3.78111e-06
0.000787727
4.04132e-06
0.000786585
4.26939e-06
0.00078541
4.4618e-06
0.000784201
4.62558e-06
0.000782962
4.75512e-06
0.000781692
4.86045e-06
0.000780396
4.93259e-06
0.000779074
4.98606e-06
0.00077773
5.00676e-06
0.000776362
5.01581e-06
0.000774979
4.99124e-06
0.000773576
4.96379e-06
0.000772161
4.89979e-06
0.000770731
4.84422e-06
0.000769296
4.7461e-06
0.000767847
4.67138e-06
0.000766398
4.5436e-06
0.000764939
4.45938e-06
0.000763485
4.30501e-06
0.000762024
4.22187e-06
0.000760572
4.04205e-06
0.000759115
3.97185e-06
0.000757673
3.76504e-06
0.000756228
3.72138e-06
3.48374e-06
0.000914093
-7.61185e-06
0.000912804
-8.96249e-06
0.000911399
-1.03023e-05
0.000909872
-1.1624e-05
0.00090822
-1.29191e-05
0.000906443
-1.41793e-05
0.000904542
-1.53958e-05
0.000902522
-1.65603e-05
0.00090039
-1.76647e-05
0.000898153
-1.87013e-05
0.000895824
-1.9663e-05
0.000893414
-2.05436e-05
0.000890938
-2.13376e-05
0.000888411
-2.20405e-05
0.000885849
-2.26487e-05
0.000883268
-2.31597e-05
0.000880685
-2.35719e-05
0.000878118
-2.38849e-05
0.000875583
-2.40994e-05
0.000873096
-2.42171e-05
0.000870669
-2.424e-05
0.000868314
-2.41707e-05
0.000866039
-2.40121e-05
0.000863852
-2.37677e-05
0.000861761
-2.34417e-05
0.00085977
-2.30386e-05
0.000857884
-2.25634e-05
0.000856104
-2.20211e-05
0.000854432
-2.14168e-05
0.000852866
-2.07557e-05
0.000851405
-2.00431e-05
0.000850046
-1.92844e-05
0.000848783
-1.84848e-05
0.000847613
-1.76494e-05
0.000846528
-1.67834e-05
0.000845522
-1.58917e-05
0.000844589
-1.49793e-05
0.00084372
-1.40507e-05
0.000842909
-1.31107e-05
0.000842148
-1.21634e-05
0.000841429
-1.12132e-05
0.000840744
-1.02642e-05
0.000840088
-9.31993e-06
0.000839452
-8.38419e-06
0.00083883
-7.46062e-06
0.000838217
-6.55194e-06
0.000837605
-5.66151e-06
0.000836991
-4.79234e-06
0.000836368
-3.94644e-06
0.000835733
-3.12577e-06
0.00083508
-2.33378e-06
0.000834406
-1.57021e-06
0.000833704
-8.35817e-07
0.000832967
-1.30192e-07
0.000832207
5.27206e-07
0.000831413
1.15504e-06
0.00083059
1.74592e-06
0.000829736
2.30137e-06
0.000828847
2.81903e-06
0.000827922
3.30003e-06
0.000826962
3.74226e-06
0.000825966
4.14843e-06
0.000824935
4.51569e-06
0.000823867
4.84831e-06
0.000822766
5.14251e-06
0.000821631
5.4046e-06
0.000820464
5.62898e-06
0.000819265
5.82471e-06
0.000818036
5.98342e-06
0.000816779
6.11808e-06
0.000815495
6.21609e-06
0.000814185
6.29595e-06
0.000812853
6.33879e-06
0.000811498
6.37099e-06
0.000810125
6.36441e-06
0.000808732
6.35682e-06
0.000807325
6.30655e-06
0.000805902
6.26771e-06
0.000804469
6.1791e-06
0.000803022
6.11822e-06
0.00080157
5.99581e-06
0.000800106
5.92281e-06
0.000798641
5.76987e-06
0.000797168
5.69551e-06
0.000795696
5.51349e-06
0.000794219
5.44955e-06
0.000792746
5.23723e-06
0.000791271
5.19652e-06
4.94625e-06
0.00093792
-6.60356e-06
0.000936813
-7.85541e-06
0.000935606
-9.09478e-06
0.000934296
-1.03142e-05
0.000932884
-1.15072e-05
0.000931372
-1.26675e-05
0.000929765
-1.37889e-05
0.00092807
-1.48646e-05
0.000926293
-1.58882e-05
0.000924445
-1.68532e-05
0.000922536
-1.7754e-05
0.000920578
-1.85853e-05
0.000918583
-1.93426e-05
0.000916564
-2.00218e-05
0.000914535
-2.06194e-05
0.000912508
-2.11327e-05
0.000910496
-2.156e-05
0.000908511
-2.19001e-05
0.000906564
-2.21525e-05
0.000904665
-2.23173e-05
0.00090282
-2.23951e-05
0.000901036
-2.2387e-05
0.000899319
-2.22951e-05
0.000897673
-2.21218e-05
0.000896102
-2.18703e-05
0.000894607
-2.15439e-05
0.00089319
-2.11462e-05
0.00089185
-2.06811e-05
0.000890586
-2.01525e-05
0.000889395
-1.95647e-05
0.000888274
-1.89221e-05
0.000887218
-1.82293e-05
0.000886225
-1.74909e-05
0.000885287
-1.67114e-05
0.000884399
-1.58958e-05
0.000883556
-1.50488e-05
0.000882752
-1.41751e-05
0.00088198
-1.32792e-05
0.000881236
-1.23659e-05
0.000880512
-1.14396e-05
0.000879803
-1.05047e-05
0.000879104
-9.56523e-06
0.00087841
-8.62568e-06
0.000877716
-7.68964e-06
0.000877016
-6.76096e-06
0.000876307
-5.84337e-06
0.000875586
-4.94019e-06
0.000874847
-4.05367e-06
0.000874089
-3.18818e-06
0.000873309
-2.34596e-06
0.000872503
-1.52735e-06
0.000871668
-7.35224e-07
0.000870807
2.49418e-08
0.000869915
7.61883e-07
0.000868984
1.45825e-06
0.000868017
2.12177e-06
0.000867015
2.74843e-06
0.000865977
3.3391e-06
0.000864905
3.89151e-06
0.000863797
4.4074e-06
0.000862656
4.88352e-06
0.000861481
5.32337e-06
0.000860274
5.72301e-06
0.000859034
6.08768e-06
0.000857765
6.412e-06
0.000856466
6.70376e-06
0.000855139
6.95539e-06
0.000853786
7.17798e-06
0.000852409
7.36057e-06
0.000851008
7.51893e-06
0.000849587
7.63714e-06
0.000848145
7.73744e-06
0.000846688
7.79659e-06
0.000845213
7.84596e-06
0.000843725
7.85175e-06
0.000842224
7.85819e-06
0.000840714
7.81639e-06
0.000839193
7.78868e-06
0.000837667
7.70473e-06
0.000836133
7.65238e-06
0.000834598
7.53105e-06
0.000833057
7.46436e-06
0.000831517
7.30932e-06
0.000829973
7.23944e-06
0.000828434
7.0527e-06
0.000826892
6.99174e-06
0.000825356
6.77298e-06
0.000823818
6.73402e-06
6.47671e-06
0.000974687
-5.63701e-06
0.000973658
-6.82653e-06
0.000972564
-8.00015e-06
0.000971402
-9.15268e-06
0.000970174
-1.02787e-05
0.000968879
-1.13728e-05
0.00096752
-1.24299e-05
0.0009661
-1.34446e-05
0.000964623
-1.44113e-05
0.000963094
-1.53245e-05
0.00096152
-1.61796e-05
0.000959906
-1.69719e-05
0.000958261
-1.76974e-05
0.000956592
-1.83522e-05
0.000954905
-1.89329e-05
0.000953209
-1.94369e-05
0.000951511
-1.98619e-05
0.000949817
-2.02062e-05
0.000948133
-2.04685e-05
0.000946464
-2.06481e-05
0.000944814
-2.07449e-05
0.000943187
-2.07602e-05
0.000941588
-2.06958e-05
0.00094002
-2.05541e-05
0.000938487
-2.03372e-05
0.000936991
-2.00476e-05
0.000935533
-1.9688e-05
0.000934113
-1.92617e-05
0.000932733
-1.8772e-05
0.000931391
-1.82228e-05
0.000930087
-1.76179e-05
0.000928819
-1.69616e-05
0.000927586
-1.62581e-05
0.000926387
-1.55119e-05
0.000925218
-1.47275e-05
0.000924079
-1.39094e-05
0.000922966
-1.30622e-05
0.000921877
-1.21904e-05
0.00092081
-1.12986e-05
0.000919761
-1.03909e-05
0.000918729
-9.47204e-06
0.000917709
-8.54588e-06
0.0009167
-7.61679e-06
0.000915699
-6.68846e-06
0.000914703
-5.76508e-06
0.00091371
-4.84989e-06
0.000912716
-3.94662e-06
0.000911722
-3.05896e-06
0.000910723
-2.19001e-06
0.000909718
-1.34098e-06
0.00090871
-5.18448e-07
0.000907685
2.88943e-07
0.000906637
1.07293e-06
0.000905574
1.82526e-06
0.000904488
2.54373e-06
0.000903383
3.22768e-06
0.000902256
3.87543e-06
0.000901106
4.48895e-06
0.000899933
5.0645e-06
0.000898736
5.60446e-06
0.000897515
6.10467e-06
0.000896268
6.56945e-06
0.000894998
6.99346e-06
0.000893703
7.38308e-06
0.000892383
7.73119e-06
0.00089104
8.04712e-06
0.000889674
8.32108e-06
0.000888286
8.56635e-06
0.000886877
8.76915e-06
0.000885448
8.94817e-06
0.000884001
9.08384e-06
0.000882537
9.20232e-06
0.000881057
9.27571e-06
0.000879563
9.34054e-06
0.000878058
9.3571e-06
0.000876539
9.37627e-06
0.000875014
9.34168e-06
0.000873479
9.32411e-06
0.00087194
9.24388e-06
0.000870393
9.19928e-06
0.000868845
9.07833e-06
0.000867293
9.01725e-06
0.000865742
8.85961e-06
0.000864188
8.79354e-06
0.000862639
8.60202e-06
0.000861087
8.5436e-06
0.000859541
8.31939e-06
0.000857992
8.28275e-06
8.02424e-06
0.00101478
-4.29325e-06
0.00101337
-5.41353e-06
0.00101188
-6.5139e-06
0.00101032
-7.59018e-06
0.00100868
-8.63848e-06
0.00100696
-9.65503e-06
0.00100517
-1.06358e-05
0.0010033
-1.15758e-05
0.00100136
-1.247e-05
0.000999344
-1.33138e-05
0.000997268
-1.41034e-05
0.000995131
-1.48349e-05
0.000992938
-1.55046e-05
0.000990695
-1.6109e-05
0.000988407
-1.66451e-05
0.000986081
-1.71106e-05
0.000983723
-1.75033e-05
0.000981338
-1.78214e-05
0.000978933
-1.80638e-05
0.000976514
-1.82295e-05
0.000974088
-1.83186e-05
0.00097166
-1.83317e-05
0.000969235
-1.82711e-05
0.000966821
-1.81396e-05
0.000964422
-1.79391e-05
0.000962047
-1.76717e-05
0.000959698
-1.73397e-05
0.000957382
-1.69458e-05
0.000955104
-1.64932e-05
0.000952866
-1.59853e-05
0.000950674
-1.54257e-05
0.00094853
-1.48182e-05
0.000946439
-1.41669e-05
0.000944403
-1.34758e-05
0.000942425
-1.27491e-05
0.000940506
-1.19908e-05
0.000938649
-1.12051e-05
0.000936855
-1.03962e-05
0.000935124
-9.56812e-06
0.000933458
-8.72467e-06
0.000931856
-7.87e-06
0.000930318
-7.00769e-06
0.000928842
-6.14156e-06
0.000927429
-5.27494e-06
0.000926075
-4.41153e-06
0.00092478
-3.55436e-06
0.00092354
-2.7071e-06
0.000922354
-1.87237e-06
0.00092122
-1.0558e-06
0.000920142
-2.62984e-07
0.000919087
5.36124e-07
0.000918066
1.30996e-06
0.000917081
2.05819e-06
0.000916127
2.77937e-06
0.0009152
3.47034e-06
0.000914295
4.13295e-06
0.000913406
4.76406e-06
0.00091253
5.36498e-06
0.000911663
5.93149e-06
0.000910801
6.4666e-06
0.00090994
6.96534e-06
0.000909077
7.43238e-06
0.000908209
7.86128e-06
0.000907333
8.25911e-06
0.000906447
8.61738e-06
0.000905548
8.94631e-06
0.000904635
9.23442e-06
0.000903705
9.49624e-06
0.000902758
9.71591e-06
0.000901792
9.91381e-06
0.000900808
1.00678e-05
0.000899804
1.02064e-05
0.000898782
1.02984e-05
0.000897739
1.03835e-05
0.000896678
1.04181e-05
0.000895597
1.04568e-05
0.0008945
1.04388e-05
0.000893385
1.04394e-05
0.000892255
1.0374e-05
0.000891108
1.03459e-05
0.000889948
1.02379e-05
0.000888775
1.01911e-05
0.00088759
1.00447e-05
0.000886393
9.99037e-06
0.000885186
9.80888e-06
0.00088397
9.75933e-06
0.000882744
9.54544e-06
0.000881512
9.51456e-06
9.27262e-06
0.00101606
-2.54916e-06
0.00101418
-3.53311e-06
0.00101217
-4.49927e-06
0.00101002
-5.44132e-06
0.00100773
-6.35442e-06
0.00100532
-7.23673e-06
0.00100277
-8.08605e-06
0.00100009
-8.89812e-06
0.000997286
-9.66836e-06
0.000994366
-1.03931e-05
0.000991332
-1.10693e-05
0.00098819
-1.16937e-05
0.000984949
-1.22633e-05
0.000981615
-1.27754e-05
0.000978198
-1.32277e-05
0.000974706
-1.36183e-05
0.000971148
-1.39455e-05
0.000967534
-1.4208e-05
0.000963876
-1.4405e-05
0.000960182
-1.45362e-05
0.000956466
-1.46021e-05
0.000952738
-1.4604e-05
0.000949011
-1.45437e-05
0.000945294
-1.4423e-05
0.000941599
-1.42438e-05
0.000937935
-1.40082e-05
0.000934314
-1.37188e-05
0.000930747
-1.33782e-05
0.000927243
-1.29894e-05
0.000923813
-1.25555e-05
0.000920467
-1.20797e-05
0.000917214
-1.15654e-05
0.000914063
-1.10161e-05
0.000911023
-1.04351e-05
0.000908099
-9.8258e-06
0.0009053
-9.19173e-06
0.000902631
-8.53611e-06
0.000900097
-7.86205e-06
0.000897702
-7.17298e-06
0.000895449
-6.47156e-06
0.00089334
-5.76091e-06
0.000891376
-5.04394e-06
0.000889558
-4.32325e-06
0.000887884
-3.60127e-06
0.000886354
-2.8813e-06
0.000884965
-2.16506e-06
0.000883713
-1.45588e-06
0.000882597
-7.56305e-07
0.000881613
-7.14093e-08
0.000880728
6.21778e-07
0.000879969
1.29572e-06
0.000879325
1.95404e-06
0.000878789
2.59426e-06
0.000878351
3.21725e-06
0.000878001
3.81973e-06
0.000877732
4.40188e-06
0.000877536
4.96044e-06
0.000877404
5.49692e-06
0.000877328
6.00731e-06
0.000877301
6.49419e-06
0.000877313
6.9526e-06
0.000877359
7.38668e-06
0.00087743
7.79007e-06
0.00087752
8.16904e-06
0.000877622
8.51523e-06
0.000877731
8.83788e-06
0.00087784
9.12575e-06
0.000877944
9.39213e-06
0.000878038
9.62162e-06
0.000878119
9.83302e-06
0.000878181
1.00051e-05
0.000878224
1.01642e-05
0.000878241
1.02807e-05
0.000878234
1.03914e-05
0.000878196
1.04552e-05
0.00087813
1.05227e-05
0.000878032
1.05372e-05
0.000877904
1.0568e-05
0.00087774
1.05371e-05
0.000877547
1.05389e-05
0.000877319
1.04665e-05
0.000877062
1.04478e-05
0.000876769
1.03379e-05
0.000876451
1.0308e-05
0.000876096
1.01643e-05
0.000875722
1.01337e-05
0.000875307
9.95978e-06
0.000874882
9.93983e-06
9.7433e-06
0.000951697
-6.52675e-07
0.00094958
-1.41576e-06
0.000947241
-2.16043e-06
0.000944685
-2.88535e-06
0.000941918
-3.58684e-06
0.000938944
-4.26343e-06
0.00093577
-4.91168e-06
0.0009324
-5.52849e-06
0.000928844
-6.11158e-06
0.000925109
-6.65821e-06
0.000921205
-7.16537e-06
0.000917142
-7.63063e-06
0.000912931
-8.05224e-06
0.000908584
-8.42871e-06
0.000904115
-8.75849e-06
0.000899537
-9.04028e-06
0.000894865
-9.27336e-06
0.000890114
-9.45762e-06
0.000885302
-9.59319e-06
0.000880446
-9.68027e-06
0.000875564
-9.71926e-06
0.000870671
-9.71098e-06
0.000865784
-9.65684e-06
0.00086092
-9.55895e-06
0.000856095
-9.41967e-06
0.000851329
-9.24121e-06
0.000846636
-9.02587e-06
0.000842034
-8.77604e-06
0.000837538
-8.4942e-06
0.000833166
-8.18297e-06
0.000828931
-7.84496e-06
0.000824848
-7.48264e-06
0.000820931
-7.09859e-06
0.000817191
-6.69521e-06
0.00081364
-6.27474e-06
0.000810288
-5.83938e-06
0.000807143
-5.39125e-06
0.000804213
-4.93204e-06
0.000801503
-4.46368e-06
0.000799019
-3.98764e-06
0.000796764
-3.50524e-06
0.000794738
-3.01801e-06
0.000792942
-2.52742e-06
0.000791375
-2.03378e-06
0.000790032
-1.53843e-06
0.000788909
-1.0425e-06
0.000787999
-5.46106e-07
0.000787288
-4.47227e-08
0.000786783
4.32983e-07
0.000786489
9.16027e-07
0.000786389
1.39612e-06
0.00078647
1.87321e-06
0.00078672
2.34414e-06
0.000787129
2.80773e-06
0.000787687
3.26188e-06
0.000788382
3.70719e-06
0.000789201
4.14125e-06
0.000790133
4.56448e-06
0.000791167
4.97365e-06
0.000792291
5.37039e-06
0.000793493
5.75075e-06
0.000794762
6.11728e-06
0.000796087
6.46482e-06
0.000797459
6.79747e-06
0.000798866
7.10848e-06
0.000800299
7.4042e-06
0.000801749
7.67567e-06
0.000803209
7.9324e-06
0.000804669
8.16223e-06
0.000806123
8.37902e-06
0.000807562
8.56602e-06
0.000808983
8.74306e-06
0.000810376
8.88693e-06
0.000811742
9.02561e-06
0.00081307
9.12696e-06
0.000814363
9.22995e-06
0.00081561
9.29016e-06
0.000816817
9.36119e-06
0.000817972
9.38219e-06
0.000819085
9.42596e-06
0.000820141
9.41027e-06
0.000821156
9.43253e-06
0.000822111
9.3833e-06
0.000823028
9.39051e-06
0.000823881
9.31154e-06
0.000824704
9.31051e-06
0.000825458
9.20643e-06
0.000826194
9.20341e-06
9.08091e-06
0.000823811
1.15981e-06
0.000821713
6.8262e-07
0.000819337
2.15223e-07
0.000816678
-2.26264e-07
0.000813743
-6.51037e-07
0.000810543
-1.06344e-06
0.000807087
-1.45612e-06
0.000803387
-1.82811e-06
0.000799454
-2.1791e-06
0.000795303
-2.50701e-06
0.000790947
-2.80943e-06
0.000786401
-3.0851e-06
0.000781683
-3.33359e-06
0.000776809
-3.55458e-06
0.000771798
-3.74738e-06
0.000766669
-3.91125e-06
0.000761441
-4.046e-06
0.000756136
-4.15238e-06
0.000750775
-4.23181e-06
0.00074538
-4.28587e-06
0.000739977
-4.31574e-06
0.000734587
-4.32145e-06
0.000729234
-4.30326e-06
0.000723938
-4.26316e-06
0.000718721
-4.20318e-06
0.000713605
-4.12501e-06
0.00070861
-4.03054e-06
0.000703755
-3.92148e-06
0.00069906
-3.79944e-06
0.000694543
-3.66592e-06
0.000690221
-3.52229e-06
0.000686108
-3.36968e-06
0.000682218
-3.20914e-06
0.000678565
-3.04155e-06
0.000675157
-2.86761e-06
0.000672006
-2.68787e-06
0.000669117
-2.50277e-06
0.000666498
-2.31235e-06
0.000664151
-2.11658e-06
0.000662079
-1.9156e-06
0.000660283
-1.70953e-06
0.000658763
-1.49834e-06
0.000657518
-1.28178e-06
0.000656543
-1.05911e-06
0.000655835
-8.30308e-07
0.000655388
-5.95679e-07
0.000655197
-3.54684e-07
0.000655256
-1.04071e-07
0.000655546
1.43166e-07
0.000656066
3.95467e-07
0.000656806
6.56125e-07
0.000657757
9.22975e-07
0.000658906
1.19467e-06
0.000660243
1.47048e-06
0.000661756
1.74891e-06
0.000663434
2.02984e-06
0.000665263
2.31207e-06
0.000667232
2.59548e-06
0.000669327
2.87829e-06
0.000671537
3.1608e-06
0.000673847
3.44027e-06
0.000676247
3.71737e-06
0.000678723
3.98867e-06
0.000681265
4.25572e-06
0.000683859
4.51406e-06
0.000686497
4.76659e-06
0.000689165
5.00741e-06
0.000691856
5.24145e-06
0.000694558
5.46073e-06
0.000697264
5.67309e-06
0.000699962
5.8675e-06
0.000702649
6.05593e-06
0.000705313
6.22295e-06
0.000707953
6.38622e-06
0.000710556
6.52406e-06
0.000713124
6.66192e-06
0.000715644
6.76955e-06
0.000718123
6.88268e-06
0.000720545
6.95971e-06
0.000722922
7.04952e-06
0.000725235
7.09663e-06
0.000727502
7.16576e-06
0.0007297
7.18505e-06
0.000731855
7.23626e-06
0.000733935
7.23119e-06
0.000735979
7.2666e-06
0.000737942
7.2431e-06
0.000739883
7.26284e-06
7.23227e-06
0.000653441
2.33364e-06
0.000651955
2.16809e-06
0.000650164
2.00642e-06
0.000648089
1.84895e-06
0.000645743
1.69469e-06
0.000643136
1.54387e-06
0.000640281
1.39877e-06
0.000637193
1.2602e-06
0.000633886
1.12779e-06
0.000630377
1.00197e-06
0.000626684
8.83849e-07
0.000622825
7.73823e-07
0.00061882
6.7132e-07
0.00061469
5.75493e-07
0.000610456
4.85883e-07
0.000606143
4.02608e-07
0.000601771
3.26e-07
0.000597362
2.55921e-07
0.000592939
1.91732e-07
0.00058852
1.32812e-07
0.000584126
7.84866e-08
0.000579777
2.76978e-08
0.00057549
-1.70974e-08
0.000571288
-6.10178e-08
0.000567193
-1.07549e-07
0.00056322
-1.52548e-07
0.000559387
-1.9742e-07
0.000555708
-2.42811e-07
0.000552198
-2.89081e-07
0.000548869
-3.36387e-07
0.000545731
-3.84719e-07
0.000542795
-4.33969e-07
0.00054007
-4.83968e-07
0.000537563
-5.34442e-07
0.00053528
-5.85025e-07
0.000533228
-6.3522e-07
0.000531409
-6.84335e-07
0.000529828
-7.31415e-07
0.000528487
-7.74775e-07
0.000527384
-8.13236e-07
0.000526521
-8.4589e-07