/*--------------------------------*- C++ -*----------------------------------*\
| =========                 |                                                 |
| \\      /  F ield         | OpenFOAM: The Open Source CFD Toolbox           |
|  \\    /   O peration     | Version:  2312                                  |
|   \\  /    A nd           | Website:  www.openfoam.com                      |
|    \\/     M anipulation  |                                                 |
\*---------------------------------------------------------------------------*/
FoamFile
{
    version     2.0;
    format      ascii;
    arch        "LSB;label=32;scalar=64";
    class       surfaceScalarField;
    location    "162000";
    object      phi;
}
// * * * * * * * * * * * * * * * * * * * * * * * * * * * * * * * * * * * * * //

dimensions      [0 3 -1 0 0 0 0];

oriented        oriented;

internalField   nonuniform List<scalar> 
5250
(
0.000343309
2.23634e-06
0.000339435
3.87418e-06
0.0003341
5.33476e-06
0.000327496
6.60408e-06
0.000320034
7.46201e-06
0.000312152
7.88192e-06
0.000304192
7.96072e-06
0.000296381
7.81057e-06
0.000288861
7.52043e-06
0.000281711
7.14989e-06
0.000274973
6.7378e-06
0.000268668
6.30514e-06
0.000262803
5.86513e-06
0.000257371
5.43211e-06
0.00025235
5.02024e-06
0.000247703
4.64708e-06
0.000243373
4.32976e-06
0.00023927
4.10382e-06
0.000235279
3.99021e-06
0.000231281
3.99811e-06
0.000227137
4.14423e-06
0.000222686
4.45111e-06
0.000217758
4.92774e-06
0.000212173
5.58502e-06
0.000205739
6.43397e-06
0.000198222
7.51751e-06
0.000189366
8.85609e-06
0.000179194
1.0172e-05
0.000168028
1.11659e-05
0.000156504
1.15235e-05
0.000145433
1.10715e-05
0.000135565
9.86727e-06
0.00012741
8.15522e-06
0.000121233
6.17718e-06
0.000117092
4.14118e-06
0.000114843
2.24885e-06
0.000114229
6.13663e-07
0.00011495
-7.2083e-07
0.000116604
-1.6539e-06
0.000118699
-2.09486e-06
0.000120747
-2.04767e-06
0.000122388
-1.6416e-06
0.000123524
-1.13616e-06
0.000124347
-8.22613e-07
0.000125016
-6.6901e-07
0.000125225
-2.09361e-07
0.000124698
5.27346e-07
0.000123145
1.55317e-06
0.00012033
2.81529e-06
0.000115921
4.40853e-06
0.000109943
5.97851e-06
0.000102377
7.56593e-06
9.33096e-05
9.06703e-06
8.29028e-05
1.04068e-05
7.13582e-05
1.15446e-05
5.90095e-05
1.23487e-05
4.61216e-05
1.28879e-05
3.28439e-05
1.32777e-05
1.94602e-05
1.33837e-05
6.2803e-06
1.31799e-05
-6.39931e-06
1.26796e-05
-1.83367e-05
1.19374e-05
-2.93428e-05
1.10061e-05
-3.92247e-05
9.88194e-06
-4.77638e-05
8.53902e-06
-5.48135e-05
7.04976e-06
-6.02837e-05
5.47021e-06
-6.41309e-05
3.84721e-06
-6.63505e-05
2.21953e-06
-6.69603e-05
6.09828e-07
-6.61391e-05
-8.21218e-07
-6.40024e-05
-2.13664e-06
-6.06506e-05
-3.35187e-06
-5.62132e-05
-4.43736e-06
-5.08393e-05
-5.37394e-06
-4.46906e-05
-6.14863e-06
-3.79361e-05
-6.75454e-06
-3.07474e-05
-7.18874e-06
-2.32966e-05
-7.45081e-06
-1.57498e-05
-7.54677e-06
-8.26168e-06
-7.48811e-06
-9.70906e-07
-7.29077e-06
6.00383e-06
-6.97474e-06
1.25667e-05
-6.56284e-06
1.86449e-05
-6.0782e-06
2.41863e-05
-5.54146e-06
2.91542e-05
-4.96789e-06
3.35208e-05
-4.3666e-06
3.72636e-05
-3.74281e-06
-3.10187e-06
0.000750475
1.62887e-05
0.000736917
1.74327e-05
0.000724141
1.81103e-05
0.000712175
1.85705e-05
0.000700862
1.8775e-05
0.000690067
1.8677e-05
0.000679754
1.82733e-05
0.000669958
1.7607e-05
0.000660736
1.6742e-05
0.000652151
1.57347e-05
0.000644265
1.4624e-05
0.000637131
1.34392e-05
0.000630785
1.22109e-05
0.000625241
1.09767e-05
0.000620492
9.7692e-06
0.000616536
8.60246e-06
0.000613363
7.50358e-06
0.000610961
6.50557e-06
0.000609309
5.64221e-06
0.000608369
4.93754e-06
0.000608101
4.41281e-06
0.000608465
4.08738e-06
0.000609418
3.97446e-06
0.000610918
4.08488e-06
0.000612931
4.42118e-06
0.000615492
4.95676e-06
0.000618793
5.55495e-06
0.000622694
6.27102e-06
0.000626804
7.05539e-06
0.000630534
7.79371e-06
0.000633182
8.42355e-06
0.000634099
8.95006e-06
0.000632782
9.47211e-06
0.000628887
1.00724e-05
0.000622202
1.08263e-05
0.000612611
1.184e-05
0.00060002
1.32046e-05
0.000584224
1.50755e-05
0.000565032
1.75377e-05
0.000542904
2.0033e-05
0.000518201
2.26551e-05
0.000491384
2.5176e-05
0.000463026
2.72213e-05
0.000433735
2.84683e-05
0.000404098
2.8968e-05
0.000374754
2.91348e-05
0.000346103
2.91782e-05
0.000319151
2.85051e-05
0.000294105
2.7862e-05
0.000271144
2.73691e-05
0.000250201
2.69213e-05
0.000231322
2.64452e-05
0.000214464
2.59253e-05
0.000199389
2.54818e-05
0.000185605
2.53283e-05
0.000172291
2.56633e-05
0.000158667
2.65118e-05
0.000144979
2.69655e-05
0.0001314
2.69632e-05
0.00011812
2.64594e-05
0.000105384
2.54153e-05
9.34855e-05
2.38362e-05
8.27253e-05
2.17663e-05
7.33336e-05
1.92736e-05
6.54427e-05
1.64299e-05
5.91604e-05
1.33321e-05
5.45405e-05
1.00901e-05
5.15791e-05
6.80866e-06
5.02229e-05
3.57565e-06
5.03869e-05
4.45898e-07
5.18889e-05
-2.32329e-06
5.46426e-05
-4.89031e-06
5.84743e-05
-7.18358e-06
6.32126e-05
-9.17559e-06
6.86865e-05
-1.08479e-05
7.47278e-05
-1.21899e-05
8.11731e-05
-1.31998e-05
8.78363e-05
-1.3852e-05
9.45158e-05
-1.41303e-05
0.000101039
-1.40701e-05
0.000107258
-1.37068e-05
0.000113044
-1.30774e-05
0.000118296
-1.22262e-05
0.000122942
-1.12087e-05
0.000126953
-1.00894e-05
0.000130342
-8.93046e-06
0.000133147
-7.77288e-06
0.000135407
-6.62672e-06
0.000137143
-5.47837e-06
-4.31139e-06
0.000894245
2.84051e-05
0.000882216
2.94614e-05
0.000870251
3.00752e-05
0.00085857
3.02515e-05
0.000847295
3.00501e-05
0.00083646
2.95117e-05
0.00082607
2.86635e-05
0.00081615
2.75269e-05
0.000806762
2.61299e-05
0.00079799
2.45072e-05
0.000789919
2.26947e-05
0.000782632
2.07268e-05
0.000776201
1.86416e-05
0.000770698
1.64796e-05
0.000766185
1.42821e-05
0.0007627
1.2088e-05
0.000760269
9.93456e-06
0.000758911
7.86278e-06
0.000758641
5.91221e-06
0.000759461
4.11831e-06
0.000761361
2.51206e-06
0.000764337
1.11219e-06
0.000768328
-1.66949e-08
0.000773335
-9.22843e-07
0.000779311
-1.55448e-06
0.000786169
-1.90168e-06
0.000793716
-1.99162e-06
0.00080185
-1.86334e-06
0.000810459
-1.55348e-06
0.000819366
-1.11289e-06
0.000828355
-5.65589e-07
0.000837153
1.52131e-07
0.000845398
1.22729e-06
0.000852886
2.58383e-06
0.000859365
4.34732e-06
0.000864644
6.5614e-06
0.000868542
9.30619e-06
0.000870978
1.26393e-05
0.000872036
1.64801e-05
0.000871581
2.0488e-05
0.000869246
2.49906e-05
0.00086455
2.98713e-05
0.000856915
3.48571e-05
0.000845591
3.97922e-05
0.00082995
4.46089e-05
0.000809853
4.9232e-05
0.000785427
5.36039e-05
0.000756015
5.79173e-05
0.000722203
6.16735e-05
0.000685195
6.4377e-05
0.000646076
6.60402e-05
0.000605939
6.65822e-05
0.000565848
6.60165e-05
0.000526778
6.45517e-05
0.000489634
6.24718e-05
0.000455381
5.99171e-05
0.000425105
5.67876e-05
0.000398735
5.33351e-05
0.000375941
4.97575e-05
0.000356463
4.5937e-05
0.000339976
4.19025e-05
0.00032609
3.77225e-05
0.000314372
3.34842e-05
0.000304534
2.91111e-05
0.000296462
2.45023e-05
0.000290039
1.97554e-05
0.000285164
1.49652e-05
0.000281745
1.02273e-05
0.000279705
5.61537e-06
0.000278997
1.15424e-06
0.000279408
-2.73451e-06
0.000280849
-6.33117e-06
0.000283237
-9.57112e-06
0.000286448
-1.2387e-05
0.000290321
-1.47206e-05
0.000294653
-1.65223e-05
0.00029922
-1.77668e-05
0.000303822
-1.84537e-05
0.000308294
-1.86025e-05
0.000312472
-1.8248e-05
0.000316203
-1.74375e-05
0.000319357
-1.62314e-05
0.000321832
-1.47021e-05
0.000323556
-1.29326e-05
0.000324484
-1.10172e-05
0.000324608
-9.05427e-06
0.000323956
-7.12076e-06
0.000322577
-5.24785e-06
0.000320525
-3.42674e-06
-1.65099e-06
0.000962783
4.17606e-05
0.000949692
4.2552e-05
0.000936819
4.29485e-05
0.000924188
4.28817e-05
0.000911871
4.23679e-05
0.000899946
4.14363e-05
0.000888502
4.0107e-05
0.00087763
3.8399e-05
0.000867418
3.63418e-05
0.000857949
3.39766e-05
0.000849293
3.13504e-05
0.000841509
2.8511e-05
0.000834645
2.55055e-05
0.000828747
2.23782e-05
0.000823855
1.91737e-05
0.000820003
1.59404e-05
0.000817211
1.27266e-05
0.000815495
9.57849e-06
0.000814869
6.53782e-06
0.000815346
3.6413e-06
0.000816919
9.39554e-07
0.000819694
-1.66326e-06
0.000823707
-4.02919e-06
0.000828927
-6.14276e-06
0.000835368
-7.99535e-06
0.000843033
-9.56732e-06
0.000851889
-1.08472e-05
0.000861861
-1.18357e-05
0.000872816
-1.25083e-05
0.000884535
-1.28318e-05
0.00089675
-1.27811e-05
0.000909218
-1.23151e-05
0.00092183
-1.13852e-05
0.000934367
-9.95321e-06
0.000946665
-7.95102e-06
0.000958568
-5.3411e-06
0.000969964
-2.08964e-06
0.000980977
1.62628e-06
0.000991531
5.92597e-06
0.00100121
1.08136e-05
0.00100985
1.63427e-05
0.00101723
2.24938e-05
0.00102317
2.89196e-05
0.00102739
3.5574e-05
0.00102963
4.23635e-05
0.00102964
4.92286e-05
0.00102713
5.61138e-05
0.00102216
6.28863e-05
0.00101451
6.93173e-05
0.00100382
7.50684e-05
0.000989834
8.00273e-05
0.000972007
8.44095e-05
0.000950062
8.79616e-05
0.000924064
9.05496e-05
0.000894468
9.2068e-05
0.000861961
9.24234e-05
0.000827119
9.16296e-05
0.000790695
8.97594e-05
0.000753891
8.65613e-05
0.000717806
8.20218e-05
0.00068333
7.63791e-05
0.000651194
6.98584e-05
0.000621996
6.26816e-05
0.000596033
5.5075e-05
0.000573299
4.72355e-05
0.000553717
3.93375e-05
0.000537126
3.15562e-05
0.000523318
2.4036e-05
0.00051207
1.68632e-05
0.000503112
1.01125e-05
0.000496505
3.87215e-06
0.000491879
-1.70531e-06
0.00048892
-6.61256e-06
0.000487398
-1.08644e-05
0.000487099
-1.44221e-05
0.000487851
-1.72744e-05
0.000489501
-1.94166e-05
0.000491907
-2.08597e-05
0.00049493
-2.16253e-05
0.000498428
-2.1746e-05
0.00050227
-2.12794e-05
0.00050634
-2.03015e-05
0.000510525
-1.88876e-05
0.000514686
-1.70929e-05
0.000518635
-1.49664e-05
0.000522179
-1.25982e-05
0.000525135
-1.00772e-05
0.000527358
-7.4707e-06
0.000528759
-4.82801e-06
-2.20419e-06
0.00100206
5.56563e-05
0.000988105
5.65035e-05
0.000974167
5.68868e-05
0.00096028
5.67694e-05
0.000946524
5.61236e-05
0.000933021
5.49391e-05
0.000919889
5.32394e-05
0.000907225
5.1063e-05
0.000895113
4.84531e-05
0.00088363
4.54597e-05
0.000872841
4.214e-05
0.000862801
3.85508e-05
0.000853564
3.47422e-05
0.000845183
3.07594e-05
0.000837712
2.66443e-05
0.000831217
2.24363e-05
0.000825772
1.81715e-05
0.000821467
1.38837e-05
0.000818396
9.60861e-06
0.000816668
5.36915e-06
0.00081642
1.18694e-06
0.000817678
-2.92098e-06
0.000820541
-6.89167e-06
0.000825074
-1.06759e-05
0.000831296
-1.42177e-05
0.00083918
-1.74513e-05
0.000848652
-2.03186e-05
0.000859584
-2.27684e-05
0.000871824
-2.47483e-05
0.000885198
-2.62055e-05
0.000899513
-2.70963e-05
0.00091458
-2.73823e-05
0.000930225
-2.70299e-05
0.000946286
-2.60137e-05
0.000962636
-2.43013e-05
0.000979151
-2.18558e-05
0.000995736
-1.86745e-05
0.00101209
-1.4732e-05
0.00102805
-1.0032e-05
0.00104347
-4.60107e-06
0.00105831
1.50133e-06
0.00107262
8.18535e-06
0.00108615
1.53828e-05
0.00109871
2.30172e-05
0.00111009
3.09839e-05
0.00112011
3.92111e-05
0.00112865
4.75708e-05
0.00113561
5.59301e-05
0.00114079
6.41353e-05
0.00114385
7.20045e-05
0.00114446
7.94205e-05
0.00114254
8.63233e-05
0.00113793
9.25717e-05
0.00113055
9.79376e-05
0.0011204
0.000102215
0.00110752
0.000105301
0.00109204
0.000107114
0.00107418
0.000107614
0.00105397
0.000106773
0.0010314
0.000104589
0.00100667
0.00010111
0.00098013
9.64021e-05
0.000952252
9.0559e-05
0.000923613
8.37142e-05
0.000894825
7.60239e-05
0.000866493
6.76696e-05
0.000839176
5.88725e-05
0.000813356
4.98564e-05
0.000789381
4.08378e-05
0.000767445
3.20487e-05
0.000747617
2.37003e-05
0.000729973
1.59388e-05
0.00071448
8.87979e-06
0.00070099
2.62582e-06
0.000689551
-2.98303e-06
0.000679989
-7.71216e-06
0.000672099
-1.15262e-05
0.000665683
-1.44441e-05
0.000660562
-1.65038e-05
0.000656561
-1.77459e-05
0.000653523
-1.82412e-05
0.000651288
-1.80658e-05
0.00064971
-1.73103e-05
0.000648676
-1.60591e-05
0.000648093
-1.43826e-05
0.000647858
-1.23637e-05
0.000647872
-1.00908e-05
0.000648058
-7.65658e-06
0.000648387
-5.15746e-06
-2.6956e-06
0.000980289
6.92104e-05
0.000966427
7.03656e-05
0.000952323
7.09909e-05
0.000938058
7.10343e-05
0.000923734
7.04476e-05
0.000909446
6.92273e-05
0.000895289
6.7396e-05
0.000881354
6.49978e-05
0.000867723
6.20845e-05
0.00085448
5.87027e-05
0.000841731
5.48893e-05
0.000829606
5.06751e-05
0.000818259
4.60893e-05
0.00080786
4.1159e-05
0.000798597
3.59066e-05
0.000790681
3.03524e-05
0.00078433
2.45227e-05
0.000779764
1.84499e-05
0.000777202
1.21699e-05
0.000776845
5.7267e-06
0.000778773
-7.40831e-07
0.000782859
-7.00709e-06
0.000789144
-1.31769e-05
0.000797545
-1.90766e-05
0.000807907
-2.45802e-05
0.000820013
-2.95574e-05
0.000833613
-3.39182e-05
0.000848466
-3.76218e-05
0.000864367
-4.06494e-05
0.000881145
-4.29835e-05
0.000898657
-4.46077e-05
0.00091678
-4.55062e-05
0.000935412
-4.56615e-05
0.000954453
-4.50547e-05
0.000973813
-4.3661e-05
0.000993408
-4.1451e-05
0.00101314
-3.84061e-05
0.00103292
-3.45161e-05
0.00105266
-2.97642e-05
0.00107221
-2.4155e-05
0.00109142
-1.77113e-05
0.00111007
-1.04596e-05
0.00112793
-2.48287e-06
0.00114455
6.40335e-06
0.00115984
1.56943e-05
0.00117365
2.5402e-05
0.00118584
3.53762e-05
0.00119629
4.5476e-05
0.00120487
5.55599e-05
0.00121145
6.54262e-05
0.00121601
7.48583e-05
0.00121865
8.36829e-05
0.00121948
9.1745e-05
0.00121852
9.88934e-05
0.00121573
0.000105006
0.00121104
0.00010999
0.00120439
0.000113761
0.00119575
0.00011626
0.00118507
0.000117447
0.00117239
0.000117278
0.00115776
0.000115737
0.00114131
0.000112847
0.0011232
0.00010867
0.0011036
0.000103315
0.00108271
9.692e-05
0.00106072
8.96524e-05
0.0010379
8.16937e-05
0.00101452
7.32334e-05
0.000990893
6.44686e-05
0.000967348
5.5594e-05
0.000944251
4.67978e-05
0.000921917
3.82721e-05
0.000900615
3.01824e-05
0.000880574
2.26665e-05
0.000861736
1.58549e-05
0.000844166
9.85778e-06
0.000827897
4.74242e-06
0.000812888
5.65004e-07
0.000799309
-2.92427e-06
0.00078705
-5.48731e-06
0.000776069
-7.25951e-06
0.000766314
-8.31116e-06
0.000757703
-8.69977e-06
0.000750115
-8.47101e-06
0.000743409
-7.67624e-06
0.000737435
-6.38941e-06
0.000732055
-4.71135e-06
0.000727164
-2.76528e-06
0.000722687
-6.80707e-07
1.31304e-06
0.000956504
8.88626e-05
0.000936981
8.98893e-05
0.00091778
9.01915e-05
0.000899054
8.97606e-05
0.000880881
8.86205e-05
0.000863317
8.67913e-05
0.000846448
8.42647e-05
0.000830381
8.10648e-05
0.000815237
7.72284e-05
0.000801153
7.2787e-05
0.000788278
6.77643e-05
0.000776778
6.21751e-05
0.000766842
5.60255e-05
0.000758681
4.93197e-05
0.000752516
4.20715e-05
0.000748551
3.43174e-05
0.000746932
2.61419e-05
0.000747683
1.7699e-05
0.000750671
9.18174e-06
0.000755649
7.48264e-07
0.000762783
-7.87488e-06
0.000771864
-1.60875e-05
0.000782434
-2.3747e-05
0.000794047
-3.069e-05
0.000806382
-3.69148e-05
0.000819189
-4.23644e-05
0.000832311
-4.70408e-05
0.000845678
-5.09879e-05
0.00085929
-5.42622e-05
0.000873223
-5.69158e-05
0.000887601
-5.89855e-05
0.000902583
-6.04885e-05
0.000918342
-6.14207e-05
0.000935045
-6.1758e-05
0.000952835
-6.14504e-05
0.000971811
-6.04273e-05
0.000992007
-5.86023e-05
0.00101338
-5.58891e-05
0.00103582
-5.22035e-05
0.00105914
-4.74718e-05
0.00108306
-4.16374e-05
0.00110729
-3.46831e-05
0.00113146
-2.66546e-05
0.00115549
-1.76305e-05
0.00117895
-7.76265e-06
0.00120114
3.21167e-06
0.00122148
1.50316e-05
0.00123971
2.72521e-05
0.00125553
3.97405e-05
0.0012687
5.22563e-05
0.00127899
6.45617e-05
0.00128626
7.64203e-05
0.0012904
8.75974e-05
0.00129144
9.78618e-05
0.00128944
0.000107005
0.00128456
0.000114862
0.00127702
0.000121305
0.00126705
0.000126233
0.00125494
0.000129559
0.00124098
0.000131237
0.00122544
0.000131272
0.00120857
0.000129717
0.00119057
0.000126668
0.00117163
0.000122255
0.00115192
0.000116629
0.00113161
0.000109966
0.00111084
0.000102463
0.00108975
9.43264e-05
0.00106846
8.57614e-05
0.00104708
7.69721e-05
0.00102571
6.81606e-05
0.00100448
5.95096e-05
0.000983493
5.11669e-05
0.000962902
4.32575e-05
0.000942854
3.59025e-05
0.000923495
2.92174e-05
0.000904962
2.32754e-05
0.000887418
1.81086e-05
0.000870769
1.37247e-05
0.000855128
1.01542e-05
0.00084046
7.40775e-06
0.000826665
5.4841e-06
0.000813609
4.35608e-06
0.000801177
3.9608e-06
0.000789301
4.19981e-06
0.000777971
4.94125e-06
0.000767236
6.02355e-06
0.000757212
7.25891e-06
0.000748084
8.44733e-06
9.40602e-06
0.00101443
0.000117574
0.000985508
0.000118814
0.000956867
0.000118832
0.000928988
0.000117639
0.000902355
0.000115254
0.000877389
0.000111758
0.000854365
0.000107289
0.00083344
0.000101989
0.000814699
9.59696e-05
0.00079819
8.92955e-05
0.000783972
8.19828e-05
0.000772122
7.40255e-05
0.000762701
6.54464e-05
0.000755703
5.6317e-05
0.000751053
4.67219e-05
0.000748626
3.67442e-05
0.000748241
2.65272e-05
0.000749647
1.62928e-05
0.000752563
6.26626e-06
0.000756697
-3.38642e-06
0.000761343
-1.25207e-05
0.000766056
-2.08008e-05
0.000770234
-2.79243e-05
0.000773234
-3.36905e-05
0.000774528
-3.82089e-05
0.000774003
-4.18394e-05
0.000772011
-4.50483e-05
0.00076926
-4.82368e-05
0.000766624
-5.16259e-05
0.000764995
-5.5287e-05
0.00076519
-5.91809e-05
0.000767897
-6.31957e-05
0.000773646
-6.71695e-05
0.000782797
-7.09089e-05
0.000795545
-7.41985e-05
0.000811935
-7.68177e-05
0.000831881
-7.85479e-05
0.000855184
-7.91916e-05
0.000881547
-7.85671e-05
0.000910602
-7.65264e-05
0.000941905
-7.29411e-05
0.000974961
-6.77388e-05
0.00100919
-6.0881e-05
0.00104396
-5.24053e-05
0.00107863
-4.24263e-05
0.0011129
-3.10652e-05
0.00114644
-1.85014e-05
0.00117867
-4.98443e-06
0.00120884
9.56861e-06
0.00123651
2.45922e-05
0.00126121
3.98617e-05
0.00128253
5.50947e-05
0.00130012
7.00146e-05
0.00131363
8.43461e-05
0.00132283
9.78036e-05
0.00132758
0.00011012
0.00132783
0.000121049
0.0013237
0.00013037
0.00131536
0.000137892
0.00130312
0.000143475
0.00128736
0.000147035
0.00126853
0.000148544
0.00124716
0.000148043
0.00122379
0.000145627
0.00119898
0.000141434
0.00117329
0.00013566
0.0011472
0.000128551
0.00112116
0.000120365
0.00109554
0.000111385
0.00107059
0.000101921
0.00104649
9.22626e-05
0.00102335
8.26443e-05
0.00100124
7.32836e-05
0.000980096
6.43982e-05
0.00095986
5.61388e-05
0.000940516
4.85616e-05
0.000922077
4.17139e-05
0.000904479
3.57074e-05
0.000887524
3.06798e-05
0.000870979
2.66987e-05
0.000854687
2.36998e-05
0.000838636
2.15351e-05
0.000822929
2.00635e-05
0.000807717
1.91723e-05
0.000793171
1.87462e-05
0.000779483
1.86287e-05
0.000766887
1.86197e-05
0.000755637
1.85089e-05
0.000745976
1.81085e-05
1.72688e-05
0.00107973
0.000144714
0.00105078
0.000147763
0.00102089
0.000148727
0.000990696
0.000147832
0.000960749
0.000145201
0.000931519
0.000140988
0.000903479
0.000135329
0.000877141
0.000128327
0.000852986
0.000120125
0.000831349
0.000110932
0.000812368
0.000100964
0.000795996
9.03975e-05
0.000782063
7.93794e-05
0.000770362
6.80179e-05
0.000760738
5.63466e-05
0.000753027
4.4455e-05
0.00074679
3.27642e-05
0.00074097
2.2112e-05
0.000733848
1.33887e-05
0.000723484
6.97715e-06
0.000708389
2.57448e-06
0.00068822
-6.31845e-07
0.00066406
-3.7635e-06
0.000637141
-6.77223e-06
0.000609122
-1.01893e-05
0.000581684
-1.44014e-05
0.000556353
-1.97174e-05
0.000534468
-2.63524e-05
0.000517107
-3.42645e-05
0.000505022
-4.32024e-05
0.000498637
-5.27957e-05
0.000498088
-6.26467e-05
0.000503294
-7.23752e-05
0.000514023
-8.16378e-05
0.000529954
-9.01299e-05
0.000550718
-9.75821e-05
0.000575925
-0.000103754
0.000605169
-0.000108436
0.000638037
-0.000111435
0.000674102
-0.000112592
0.00071293
-0.000111768
0.000754062
-0.000108872
0.000797026
-0.000103845
0.00084131
-9.66893e-05
0.000886349
-8.74652e-05
0.000931557
-7.62731e-05
0.00097637
-6.3314e-05
0.00102018
-4.87918e-05
0.00106274
-3.2994e-05
0.00110349
-1.61577e-05
0.00114191
1.44155e-06
0.00117747
1.95309e-05
0.00120975
3.77429e-05
0.00123829
5.57985e-05
0.00126273
7.33643e-05
0.0012827
9.01485e-05
0.0012979
0.000105849
0.00130809
0.000120179
0.00131311
0.000132877
0.00131288
0.000143707
0.00130745
0.000152465
0.00129699
0.000158996
0.00128184
0.000163196
0.00126246
0.000165005
0.00123945
0.000164442
0.00121349
0.00016162
0.00118534
0.00015671
0.00115575
0.000149945
0.00112548
0.000141664
0.00109516
0.000132238
0.00106543
0.000121995
0.00103677
0.000111298
0.00100946
0.000100596
0.000983626
9.02324e-05
0.000959406
8.03591e-05
0.000936824
7.11431e-05
0.000915609
6.29292e-05
0.00089529
5.60258e-05
0.000875571
5.0399e-05
0.000856566
4.57038e-05
0.000838654
4.16116e-05
0.000822136
3.80532e-05
0.000807039
3.51604e-05
0.000793182
3.30294e-05
0.000780405
3.15233e-05
0.000768751
3.02822e-05
0.000758492
2.88787e-05
0.000750004
2.6997e-05
0.00074361
2.45029e-05
2.13926e-05
0.00104305
0.00016127
0.00102312
0.000167686
0.00100044
0.000171412
0.000975841
0.000172428
0.000950227
0.000170815
0.000924372
0.000166842
0.000898791
0.000160911
0.000873776
0.000153342
0.000849454
0.000144447
0.000825926
0.00013446
0.000803334
0.000123555
0.000781779
0.000111953
0.000761165
9.99942e-05
0.000741027
8.81557e-05
0.000720336
7.70374e-05
0.000697421
6.73695e-05
0.00067032
5.98651e-05
0.000637529
5.4903e-05
0.000598609
5.23087e-05
0.000554317
5.12699e-05
0.000506452
5.04389e-05
0.000457429
4.83913e-05
0.000409543
4.41222e-05
0.000365449
3.73219e-05
0.000327128
2.81321e-05
0.000295783
1.69432e-05
0.000271796
4.2697e-06
0.000255603
-1.01595e-05
0.000246445
-2.51058e-05
0.000243572
-4.03299e-05
0.000246322
-5.55456e-05
0.000254168
-7.04926e-05
0.0002667
-8.49071e-05
0.000283589
-9.85267e-05
0.000304563
-0.000111104
0.000329393
-0.000122412
0.000357878
-0.000132239
0.000389831
-0.000140389
0.000425064
-0.000146668
0.000463364
-0.000150892
0.000504478
-0.000152882
0.000548094
-0.000152488
0.00059383
-0.000149581
0.000641267
-0.000144126
0.000689899
-0.000136098
0.000739253
-0.000125627
0.000788772
-0.000112833
0.000837962
-9.79819e-05
0.000886338
-8.13697e-05
0.000933489
-6.33082e-05
0.000979049
-4.41189e-05
0.00102271
-2.41297e-05
0.00106407
-3.61824e-06
0.00110244
1.74264e-05
0.00113761
3.81967e-05
0.00116918
5.85757e-05
0.00119678
7.82527e-05
0.00122002
9.69403e-05
0.00123856
0.000114339
0.00125211
0.000130153
0.00126047
0.000144108
0.00126351
0.000155958
0.00126122
0.000165482
0.00125371
0.000172519
0.00124116
0.000176992
0.0012239
0.000178871
0.00120244
0.000178171
0.00117737
0.000175022
0.00114937
0.000169657
0.00111932
0.000162292
0.0010881
0.00015322
0.00105645
0.000142948
0.00102506
0.000131986
0.00099468
0.000120608
0.000965894
0.000109146
0.000938755
9.82822e-05
0.00091306
8.86241e-05
0.000888995
8.00908e-05
0.000867282
7.21116e-05
0.000848532
6.44541e-05
0.000832542
5.76017e-05
0.000818342
5.22526e-05
0.000804929
4.85735e-05
0.000791971
4.5988e-05
0.000779925
4.35685e-05
0.000769638
4.05691e-05
0.000761831
3.66857e-05
0.000756818
3.20104e-05
0.000754479
2.68415e-05
2.14826e-05
0.00089335
0.000165519
0.000885733
0.000175304
0.000874902
0.000182243
0.000861063
0.000186267
0.000844363
0.000187515
0.0008249
0.000186306
0.000802907
0.000182904
0.000778827
0.000177422
0.000753331
0.000169942
0.000727083
0.000160708
0.000700368
0.00015027
0.00067281
0.000139511
0.000643211
0.000129593
0.000609554
0.000121813
0.00056983
0.000116761
0.000522848
0.000114351
0.000468864
0.000113849
0.000409797
0.00011397
0.000348858
0.000113247
0.000289772
0.000110356
0.000235673
0.000104537
0.000188489
9.55755e-05
0.000149077
8.35342e-05
0.000117568
6.88314e-05
9.37468e-05
5.19529e-05
7.72889e-05
3.3401e-05
6.79827e-05
1.3576e-05
6.41967e-05
-6.37348e-06
6.52106e-05
-2.61197e-05
7.08089e-05
-4.59281e-05
8.05506e-05
-6.52873e-05
9.39559e-05
-8.38979e-05
0.000110573
-0.000101524
0.000130033
-0.000117987
0.00015208
-0.000133151
0.000176578
-0.00014691
0.000203504
-0.000159166
0.000232929
-0.000169814
0.000264982
-0.000178721
0.0002998
-0.00018571
0.000337476
-0.000190557
0.000378009
-0.000193021
0.000421257
-0.000192829
0.00046692
-0.000189788
0.00051457
-0.000183748
0.000563672
-0.000174729
0.000613649
-0.00016281
0.000663899
-0.000148232
0.00071387
-0.00013134
0.000763078
-0.000112516
0.000811103
-9.2144e-05
0.000857549
-7.05757e-05
0.000902137
-4.82072e-05
0.000944969
-2.54053e-05
0.000985526
-2.35975e-06
0.0010233
2.07976e-05
0.00105813
4.34288e-05
0.00108968
6.53909e-05
0.00111761
8.64084e-05
0.00114156
0.000106199
0.00116119
0.000124479
0.00117619
0.00014096
0.0011863
0.000155372
0.00119134
0.000167479
0.00119126
0.000177076
0.00118615
0.000183978
0.00117623
0.000188092
0.0011618
0.000189446
0.00114337
0.000188087
0.00112156
0.00018411
0.00109693
0.000177849
0.00107012
0.000169759
0.00104202
0.000160086
0.00101353
0.00014909
0.000985195
0.000137485
0.000957408
0.000126069
0.000931126
0.000114906
0.00090765
0.000103567
0.000887432
9.23289e-05
0.000869378
8.2508e-05
0.000851754
7.52259e-05
0.000833878
7.01289e-05
0.000816814
6.56378e-05
0.000802458
6.03434e-05
0.000791987
5.404e-05
0.000785067
4.74892e-05
0.000780361
4.1391e-05
0.000776769
3.56024e-05
0.000774355
2.92561e-05
2.16464e-05
0.000659025
0.000163982
0.000657215
0.000177114
0.000652265
0.000187193
0.000644576
0.000193955
0.000634361
0.00019773
0.00062183
0.000198837
0.00060725
0.000197484
0.00059068
0.000193992
0.000571581
0.000189041
0.000548626
0.000183664
0.000519858
0.000179038
0.000483257
0.000176112
0.000437604
0.000175246
0.000383368
0.000176049
0.000322658
0.00017747
0.000258873
0.000178136
0.000195994
0.000176729
0.000137713
0.000172251
8.66644e-05
0.000164296
4.42374e-05
0.000152783
1.08791e-05
0.000137896
-1.35511e-05
0.000120006
-2.97083e-05
9.96913e-05
-3.83295e-05
7.74526e-05
-4.02272e-05
5.38506e-05
-3.62167e-05
2.93905e-05
-2.7006e-05
4.36531e-06
-1.45795e-05
-1.88e-05
1.07682e-06
-4.1776e-05
1.9052e-05
-6.39033e-05
3.86419e-05
-8.48772e-05
5.92046e-05
-0.000104461
8.01981e-05
-0.000122518
0.000101202
-0.000138991
0.000121949
-0.000153898
0.000142355
-0.000167316
0.000162554
-0.000179365
0.000182906
-0.000190165
0.000203982
-0.000199797
0.000226513
-0.000208241
0.000251292
-0.000215336
0.000279033
-0.000220763
0.000310271
-0.000224067
0.000345212
-0.000224729
0.000383748
-0.000222284
0.000425418
-0.000216398
0.000469558
-0.00020695
0.000515395
-0.000194069
0.000562124
-0.00017807
0.000609038
-0.000159429
0.000655542
-0.000138649
0.000701193
-0.000116227
0.0007457
-9.27144e-05
0.000788718
-6.84233e-05
0.000830129
-4.37699e-05
0.000869989
-1.9063e-05
0.000907719
5.69888e-06
0.000943141
2.99689e-05
0.000975995
5.35543e-05
0.00100598
7.62115e-05
0.00103278
9.7677e-05
0.00105608
0.000117663
0.00107557
0.000135879
0.00109101
0.000152042
0.00110221
0.000165877
0.00110903
0.000177158
0.00111138
0.000185742
0.0011093
0.000191523
0.00110298
0.000194407
0.00109264
0.000194456
0.00107858
0.000191901
0.00106144
0.000186905
0.00104193
0.000179592
0.00102057
0.000170452
0.000997816
0.000160237
0.000974636
0.000149249
0.000952162
0.00013738
0.000930549
0.00012518
0.00090871
0.000114168
0.000885836
0.000105382
0.00086311
9.79518e-05
0.00084345
8.97892e-05
0.000829267
7.98208e-05
0.000820433
6.91772e-05
0.000814474
5.99987e-05
0.000808784
5.31798e-05
0.000802802
4.73723e-05
0.000798277
4.0128e-05
0.000797515
3.00175e-05
1.80321e-05
0.000395104
0.000157088
0.000400608
0.00017161
0.000404373
0.000183428
0.000405698
0.000192631
0.000403796
0.000199632
0.000397729
0.000204904
0.000386278
0.000208934
0.000367978
0.000212293
0.000341448
0.00021557
0.000305934
0.000219178
0.00026185
0.000223122
0.000211061
0.000226901
0.000156661
0.000229646
0.000102364
0.000230347
5.17342e-05
0.0002281
7.60435e-06
0.000222266
-2.82094e-05
0.000212542
-5.49662e-05
0.000199008
-7.25361e-05
0.000181866
-8.12752e-05
0.000161522
-8.19007e-05
0.000138521
-7.53566e-05
0.000113462
-6.26681e-05
8.70028e-05
-4.49022e-05
5.96867e-05
-2.31215e-05
3.207e-05
1.71532e-06
4.55366e-06
2.74713e-05
-2.13906e-05
5.53249e-05
-4.66537e-05
8.41417e-05
-7.05929e-05
0.000113111
-9.28728e-05
0.000141488
-0.000113254
0.00016858
-0.000131553
0.000193715
-0.000147652
0.000216251
-0.000161527
0.000235609
-0.000173256
0.00025134
-0.000183047
0.000263223
-0.000191247
0.000271385
-0.000198327
0.000276415
-0.000204828
0.000279426
-0.000211253
0.000282003
-0.000217913
0.000286009
-0.000224769
0.000293284
-0.000231342
0.000305321
-0.000236765
0.000322999
-0.000239963
0.000346519
-0.000239918
0.00037544
-0.000235871
0.000408878
-0.000227508
0.000445726
-0.000214917
0.000484838
-0.000198541
0.000525171
-0.000178981
0.000565948
-0.000157004
0.000606502
-0.000133268
0.000646499
-0.000108421
0.00068565
-8.29203e-05
0.000723733
-5.71463e-05
0.000760814
-3.13818e-05
0.000796643
-5.86021e-06
0.000830883
1.93137e-05
0.000863378
4.37165e-05
0.000893848
6.72071e-05
0.000921973
8.95377e-05
0.000947409
0.000110443
0.00096982
0.000129631
0.000988893
0.000146804
0.00100436
0.000161694
0.00101604
0.000174061
0.00102387
0.000183691
0.00102782
0.000190459
0.0010279
0.000194371
0.00102434
0.000195469
0.00101745
0.000193794
0.00100745
0.000189591
0.000994556
0.000183344
0.000979406
0.000175387
0.000962854
0.000165801
0.000945203
0.000155032
0.000926221
0.000144162
0.000906505
0.000133883
0.000888439
0.000123449
0.000874884
0.000111506
0.000866488
9.81849e-05
0.000860574
8.57349e-05
0.000853235
7.65168e-05
0.00084285
7.03834e-05
0.000831704
6.43258e-05
0.000824141
5.49352e-05
0.000822745
4.15246e-05
0.000825503
2.72585e-05
1.74869e-05
0.000151034
0.000149024
0.000156529
0.000166116
0.000158478
0.000181478
0.000155738
0.000195371
0.000147411
0.000207959
0.000132876
0.000219439
0.000111956
0.000229855
8.50504e-05
0.000239198
5.33614e-05
0.000247259
1.8878e-05
0.000253662
-1.58336e-05
0.000257833
-4.81058e-05
0.000259173
-7.55597e-05
0.0002571
-9.64115e-05
0.000251198
-0.00010958
0.000241269
-0.000114652
0.000227338
-0.000111763
0.000209653
-0.000101404
0.000188649
-8.44212e-05
0.000164883
-6.17777e-05
0.000138879
-3.45238e-05
0.000111267
-3.71959e-06
8.26575e-05
2.95059e-05
5.37773e-05
6.40229e-05
2.51697e-05
9.92038e-05
-3.11091e-06
0.000134617
-3.086e-05
0.000170443
-5.72157e-05
0.00020589
-8.21008e-05
0.000240625
-0.000105328
0.000274418
-0.000126666
0.000307028
-0.000145865
0.00033815
-0.000162674
0.000367355
-0.000176858
0.000394048
-0.000188219
0.000417438
-0.000196646
0.000436542
-0.000202151
0.000450224
-0.00020493
0.000457325
-0.000205428
0.000456898
-0.0002044
0.000448581
-0.000202936
0.00043305
-0.000202382
0.000412337
-0.000204056
0.000389718
-0.000208724
0.000369043
-0.00021609
0.000353804
-0.000224724
0.000346409
-0.000232523
0.000347905
-0.000237367
0.000358074
-0.000237677
0.000375831
-0.000232674