/*--------------------------------*- C++ -*----------------------------------*\
| =========                 |                                                 |
| \\      /  F ield         | OpenFOAM: The Open Source CFD Toolbox           |
|  \\    /   O peration     | Version:  2312                                  |
|   \\  /    A nd           | Website:  www.openfoam.com                      |
|    \\/     M anipulation  |                                                 |
\*---------------------------------------------------------------------------*/
FoamFile
{
    version     2.0;
    format      ascii;
    arch        "LSB;label=32;scalar=64";
    class       volVectorField;
    location    "169000";
    object      U;
}
// * * * * * * * * * * * * * * * * * * * * * * * * * * * * * * * * * * * * * //

dimensions      [0 1 -1 0 0 0 0];

internalField   nonuniform List<vector> 
2685
(
(-2.38357e-05 1.11919e-05 0)
(-2.95969e-05 8.45545e-06 0)
(-3.29572e-05 5.81685e-06 0)
(-3.40149e-05 3.32704e-06 0)
(-3.3018e-05 9.92352e-07 0)
(-3.02399e-05 -1.12411e-06 0)
(-2.58875e-05 -2.98115e-06 0)
(-2.02382e-05 -4.54801e-06 0)
(-1.35961e-05 -5.80414e-06 0)
(-6.26393e-06 -6.74596e-06 0)
(1.54808e-06 -7.38108e-06 0)
(9.49017e-06 -7.76277e-06 0)
(1.72083e-05 -7.88409e-06 0)
(2.45368e-05 -7.77325e-06 0)
(3.1282e-05 -7.46266e-06 0)
(3.72863e-05 -6.98615e-06 0)
(4.24323e-05 -6.37776e-06 0)
(4.66418e-05 -5.67194e-06 0)
(4.98641e-05 -4.89933e-06 0)
(5.20763e-05 -4.08041e-06 0)
(5.32842e-05 -3.23015e-06 0)
(5.3531e-05 -2.36121e-06 0)
(5.28956e-05 -1.45926e-06 0)
(5.14574e-05 -5.50936e-07 0)
(4.92867e-05 3.37707e-07 0)
(4.64647e-05 1.18951e-06 0)
(4.30768e-05 1.9902e-06 0)
(3.92097e-05 2.72738e-06 0)
(3.49491e-05 3.39042e-06 0)
(3.03791e-05 3.97047e-06 0)
(2.55814e-05 4.4606e-06 0)
(2.0637e-05 4.85539e-06 0)
(1.56249e-05 5.1502e-06 0)
(1.06203e-05 5.34223e-06 0)
(5.69593e-06 5.43e-06 0)
(9.04454e-07 5.41559e-06 0)
(-3.6622e-06 5.31205e-06 0)
(-7.89458e-06 5.11513e-06 0)
(-1.17253e-05 4.82624e-06 0)
(-1.50856e-05 4.45107e-06 0)
(-1.79122e-05 3.99713e-06 0)
(-2.01512e-05 3.47433e-06 0)
(-2.17575e-05 2.89551e-06 0)
(-2.26954e-05 2.27734e-06 0)
(-2.29426e-05 1.62527e-06 0)
(-2.25078e-05 9.39155e-07 0)
(-2.14086e-05 2.41258e-07 0)
(-1.96475e-05 -4.52132e-07 0)
(-1.72449e-05 -1.12878e-06 0)
(-1.42343e-05 -1.77702e-06 0)
(-1.06557e-05 -2.38719e-06 0)
(-6.55517e-06 -2.95118e-06 0)
(-1.96634e-06 -3.46298e-06 0)
(3.04989e-06 -3.9241e-06 0)
(8.41177e-06 -4.3263e-06 0)
(1.40617e-05 -4.66318e-06 0)
(1.99421e-05 -4.93241e-06 0)
(2.59907e-05 -5.13357e-06 0)
(3.21445e-05 -5.26768e-06 0)
(3.83412e-05 -5.33684e-06 0)
(4.45189e-05 -5.34393e-06 0)
(5.06169e-05 -5.29224e-06 0)
(5.65761e-05 -5.1852e-06 0)
(6.234e-05 -5.02609e-06 0)
(6.78553e-05 -4.81815e-06 0)
(7.30725e-05 -4.56463e-06 0)
(7.7946e-05 -4.26899e-06 0)
(8.24339e-05 -3.93479e-06 0)
(8.64982e-05 -3.56595e-06 0)
(9.01047e-05 -3.16638e-06 0)
(9.3224e-05 -2.74031e-06 0)
(9.58315e-05 -2.29167e-06 0)
(9.79082e-05 -1.8248e-06 0)
(9.94406e-05 -1.3436e-06 0)
(0.000100423 -8.52668e-07 0)
(0.000100855 -3.568e-07 0)
(0.000100751 1.36437e-07 0)
(0.000100137 6.32207e-07 0)
(9.90482e-05 1.12626e-06 0)
(9.75228e-05 1.59947e-06 0)
(9.56202e-05 2.02905e-06 0)
(9.33998e-05 2.39855e-06 0)
(9.09532e-05 2.67533e-06 0)
(8.83527e-05 2.84385e-06 0)
(8.57362e-05 2.84931e-06 0)
(8.31694e-05 2.69025e-06 0)
(8.09162e-05 2.2526e-06 0)
(7.8904e-05 1.62189e-06 0)
(7.80856e-05 6.37562e-07 0)
(0.000114231 1.83527e-05 0)
(0.00010937 1.07807e-05 0)
(0.000106986 3.42216e-06 0)
(0.000106845 -3.51284e-06 0)
(0.000108727 -9.82959e-06 0)
(0.000112424 -1.53207e-05 0)
(0.000117652 -1.98621e-05 0)
(0.000124083 -2.33832e-05 0)
(0.000131355 -2.58457e-05 0)
(0.000139115 -2.7249e-05 0)
(0.000147036 -2.76315e-05 0)
(0.000154808 -2.7105e-05 0)
(0.000162157 -2.57333e-05 0)
(0.000168857 -2.36286e-05 0)
(0.000174733 -2.092e-05 0)
(0.000179654 -1.7747e-05 0)
(0.000183532 -1.42558e-05 0)
(0.000186325 -1.05932e-05 0)
(0.000188043 -6.89559e-06 0)
(0.000188728 -3.27969e-06 0)
(0.000188437 1.5813e-07 0)
(0.000187297 3.36342e-06 0)
(0.000185375 6.26646e-06 0)
(0.000182681 8.83268e-06 0)
(0.00017932 1.10496e-05 0)
(0.000175412 1.29132e-05 0)
(0.000171066 1.44302e-05 0)
(0.000166387 1.56139e-05 0)
(0.000161476 1.64821e-05 0)
(0.000156433 1.70535e-05 0)
(0.000151352 1.73452e-05 0)
(0.000146323 1.7371e-05 0)
(0.000141431 1.71392e-05 0)
(0.00013675 1.66523e-05 0)
(0.000132355 1.59119e-05 0)
(0.000128322 1.49263e-05 0)
(0.000124715 1.37162e-05 0)
(0.000121599 1.22866e-05 0)
(0.000119038 1.06483e-05 0)
(0.00011709 8.82023e-06 0)
(0.000115806 6.82721e-06 0)
(0.000115227 4.69982e-06 0)
(0.00011539 2.47814e-06 0)
(0.000116289 1.87359e-07 0)
(0.000117896 -2.1432e-06 0)
(0.000120221 -4.47687e-06 0)
(0.000123268 -6.77012e-06 0)
(0.000127 -8.98353e-06 0)
(0.000131376 -1.10835e-05 0)
(0.000136348 -1.30413e-05 0)
(0.00014186 -1.48335e-05 0)
(0.000147853 -1.64414e-05 0)
(0.000154269 -1.78506e-05 0)
(0.000161043 -1.90583e-05 0)
(0.000168108 -2.00549e-05 0)
(0.000175391 -2.08345e-05 0)
(0.000182821 -2.13966e-05 0)
(0.000190328 -2.17425e-05 0)
(0.000197843 -2.1876e-05 0)
(0.000205301 -2.1803e-05 0)
(0.00021264 -2.15308e-05 0)
(0.000219798 -2.10676e-05 0)
(0.00022672 -2.04227e-05 0)
(0.00023335 -1.96054e-05 0)
(0.000239641 -1.86261e-05 0)
(0.000245544 -1.74949e-05 0)
(0.000251021 -1.62213e-05 0)
(0.000256033 -1.48135e-05 0)
(0.000260549 -1.32808e-05 0)
(0.000264542 -1.16334e-05 0)
(0.000267993 -9.88527e-06 0)
(0.000270886 -8.0521e-06 0)
(0.000273216 -6.15632e-06 0)
(0.000274977 -4.22128e-06 0)
(0.000276181 -2.27972e-06 0)
(0.000276828 -3.61576e-07 0)
(0.00027698 1.49701e-06 0)
(0.000276664 3.24058e-06 0)
(0.000275901 4.80718e-06 0)
(0.000274667 6.1814e-06 0)
(0.000273088 7.29983e-06 0)
(0.00027114 8.15589e-06 0)
(0.000269053 8.6657e-06 0)
(0.000266665 8.86531e-06 0)
(0.0002645 8.61358e-06 0)
(0.00026194 8.03604e-06 0)
(0.000260291 6.75132e-06 0)
(0.000257761 5.44368e-06 0)
(0.000256987 1.77177e-06 0)
(0.00035803 3.90419e-05 0)
(0.000349975 2.47514e-05 0)
(0.000345187 1.14188e-05 0)
(0.000343478 -7.00702e-07 0)
(0.000344612 -1.12996e-05 0)
(0.000348138 -2.03586e-05 0)
(0.000353514 -2.77635e-05 0)
(0.000360261 -3.34283e-05 0)
(0.000367916 -3.73197e-05 0)
(0.000376017 -3.94686e-05 0)
(0.000384124 -3.99754e-05 0)
(0.000391837 -3.90031e-05 0)
(0.000398818 -3.67547e-05 0)
(0.000404796 -3.34596e-05 0)
(0.00040957 -2.93602e-05 0)
(0.000413011 -2.47e-05 0)
(0.000415067 -1.97131e-05 0)
(0.00041577 -1.46064e-05 0)
(0.000415211 -9.54554e-06 0)
(0.000413534 -4.64314e-06 0)
(0.000410942 4.43588e-08 0)
(0.000407568 4.4523e-06 0)
(0.000403587 8.49361e-06 0)
(0.00039926 1.21343e-05 0)
(0.000394731 1.53572e-05 0)
(0.0003901 1.81421e-05 0)
(0.000385464 2.04724e-05 0)
(0.000380909 2.23379e-05 0)
(0.000376508 2.37364e-05 0)
(0.000372326 2.46727e-05 0)
(0.000368426 2.51523e-05 0)
(0.000364852 2.51894e-05 0)
(0.000361627 2.48173e-05 0)
(0.000358758 2.40687e-05 0)
(0.000356264 2.29456e-05 0)
(0.000354171 2.14211e-05 0)
(0.000352502 1.94761e-05 0)
(0.000351283 1.71182e-05 0)
(0.000350546 1.43794e-05 0)
(0.000350323 1.13071e-05 0)
(0.000350651 7.95338e-06 0)
(0.00035157 4.36981e-06 0)
(0.000353061 6.1276e-07 0)
(0.000355115 -3.25316e-06 0)
(0.000357769 -7.15256e-06 0)
(0.000361024 -1.10064e-05 0)
(0.000364848 -1.47525e-05 0)
(0.000369203 -1.83317e-05 0)
(0.000374044 -2.16909e-05 0)
(0.00037932 -2.47844e-05 0)
(0.000384975 -2.75755e-05 0)
(0.000390951 -3.00392e-05 0)
(0.000397196 -3.21612e-05 0)
(0.000403648 -3.3934e-05 0)
(0.000410243 -3.53544e-05 0)
(0.000416917 -3.64208e-05 0)
(0.000423619 -3.71342e-05 0)
(0.000430303 -3.74957e-05 0)
(0.000436931 -3.75081e-05 0)
(0.000443464 -3.71759e-05 0)
(0.000449871 -3.65079e-05 0)
(0.000456117 -3.55156e-05 0)
(0.000462171 -3.4216e-05 0)
(0.000467997 -3.26281e-05 0)
(0.000473567 -3.07758e-05 0)
(0.000478848 -2.86826e-05 0)
(0.000483823 -2.63782e-05 0)
(0.000488458 -2.38914e-05 0)
(0.000492734 -2.12593e-05 0)
(0.000496603 -1.85157e-05 0)
(0.000500047 -1.57041e-05 0)
(0.000503003 -1.2858e-05 0)
(0.000505471 -1.0021e-05 0)
(0.000507373 -7.21791e-06 0)
(0.000508749 -4.48968e-06 0)
(0.000509509 -1.85232e-06 0)
(0.000509721 6.2162e-07 0)
(0.000509187 2.98008e-06 0)
(0.000508275 5.16409e-06 0)
(0.000506716 7.1877e-06 0)
(0.000505045 8.90686e-06 0)
(0.000502635 1.04123e-05 0)
(0.000500571 1.14071e-05 0)
(0.000497568 1.22022e-05 0)
(0.000495573 1.20652e-05 0)
(0.00049223 1.2106e-05 0)
(0.000490474 1.01326e-05 0)
(0.000487428 9.91486e-06 0)
(0.00048498 5.06131e-06 0)
(0.000597905 5.95543e-05 0)
(0.000588408 3.85737e-05 0)
(0.000582434 1.80493e-05 0)
(0.00058003 -1.28391e-06 0)
(0.000580701 -1.89085e-05 0)
(0.000584027 -3.41785e-05 0)
(0.000590068 -4.65798e-05 0)
(0.000598521 -5.58373e-05 0)
(0.000608929 -6.18569e-05 0)
(0.000620777 -6.46995e-05 0)
(0.000633528 -6.45601e-05 0)
(0.00064666 -6.17418e-05 0)
(0.000659681 -5.66285e-05 0)
(0.000672135 -4.96451e-05 0)
(0.000683618 -4.12304e-05 0)
(0.000693789 -3.18468e-05 0)
(0.000702391 -2.19924e-05 0)
(0.000709228 -1.21606e-05 0)
(0.000714173 -2.78173e-06 0)
(0.000717227 5.81243e-06 0)
(0.000718428 1.33907e-05 0)
(0.000717875 1.98383e-05 0)
(0.00071578 2.51524e-05 0)
(0.000712397 2.93716e-05 0)
(0.000708009 3.25772e-05 0)
(0.000702903 3.4867e-05 0)
(0.000697356 3.63331e-05 0)
(0.000691619 3.70554e-05 0)
(0.000685904 3.70948e-05 0)
(0.00068039 3.6501e-05 0)
(0.000675223 3.53333e-05 0)
(0.000670502 3.36657e-05 0)
(0.000666324 3.15774e-05 0)
(0.000662801 2.91538e-05 0)
(0.000659976 2.64634e-05 0)
(0.000657837 2.35209e-05 0)
(0.000656371 2.03011e-05 0)
(0.000655569 1.6773e-05 0)
(0.000655417 1.29181e-05 0)
(0.000655883 8.74511e-06 0)
(0.000656908 4.29098e-06 0)
(0.000658449 -4.11494e-07 0)
(0.000660527 -5.29528e-06 0)
(0.000663207 -1.02774e-05 0)
(0.000666459 -1.52594e-05 0)
(0.000670243 -2.01502e-05 0)
(0.000674529 -2.48597e-05 0)
(0.000679276 -2.9304e-05 0)
(0.000684434 -3.34102e-05 0)
(0.000689942 -3.71191e-05 0)
(0.000695734 -4.03884e-05 0)
(0.000701731 -4.31897e-05 0)
(0.000707842 -4.55105e-05 0)
(0.000713977 -4.73539e-05 0)
(0.000720071 -4.87392e-05 0)
(0.000726061 -4.96901e-05 0)
(0.000731895 -5.02352e-05 0)
(0.00073751 -5.04017e-05 0)
(0.000742869 -5.02189e-05 0)
(0.00074792 -4.97102e-05 0)
(0.000752647 -4.88999e-05 0)
(0.00075701 -4.78052e-05 0)
(0.000761016 -4.64433e-05 0)
(0.000764631 -4.48213e-05 0)
(0.000767886 -4.29438e-05 0)
(0.000770733 -4.0802e-05 0)
(0.000773217 -3.83875e-05 0)
(0.000775267 -3.56794e-05 0)
(0.000776966 -3.26656e-05 0)
(0.00077821 -2.93217e-05 0)
(0.000779145 -2.56531e-05 0)
(0.000779623 -2.16484e-05 0)
(0.00077988 -1.73602e-05 0)
(0.000779683 -1.27953e-05 0)
(0.000779368 -8.05816e-06 0)
(0.000778488 -3.1956e-06 0)
(0.000777707 1.55632e-06 0)
(0.000776491 6.21403e-06 0)
(0.000775397 1.04316e-05 0)
(0.000773275 1.43455e-05 0)
(0.000771356 1.734e-05 0)
(0.00076807 1.99461e-05 0)
(0.000765237 2.10642e-05 0)
(0.000760752 2.22185e-05 0)
(0.000756934 2.1102e-05 0)
(0.000751856 2.13176e-05 0)
(0.00074687 1.78215e-05 0)
(0.000742909 1.78894e-05 0)
(0.000735725 1.20768e-05 0)
(0.000941321 8.63026e-05 0)
(0.00091026 5.58376e-05 0)
(0.000883939 2.74047e-05 0)
(0.000862247 9.46414e-07 0)
(0.000845721 -2.3496e-05 0)
(0.000834599 -4.52885e-05 0)
(0.000828108 -6.38102e-05 0)
(0.000825503 -7.85308e-05 0)
(0.000826201 -8.91311e-05 0)
(0.000829639 -9.55578e-05 0)
(0.000835245 -9.79883e-05 0)
(0.000842497 -9.67631e-05 0)
(0.000850939 -9.23346e-05 0)
(0.000860202 -8.52096e-05 0)
(0.000869999 -7.59064e-05 0)
(0.000880082 -6.49419e-05 0)
(0.000890199 -5.28199e-05 0)
(0.000900058 -4.0021e-05 0)
(0.000909357 -2.70072e-05 0)
(0.00091777 -1.42228e-05 0)
(0.000925049 -2.0956e-06 0)
(0.000930977 9.01984e-06 0)
(0.000935401 1.88628e-05 0)
(0.000938395 2.72337e-05 0)
(0.000940147 3.40211e-05 0)
(0.000940838 3.92092e-05 0)
(0.000940674 4.28657e-05 0)
(0.000939889 4.51143e-05 0)
(0.000938707 4.6105e-05 0)
(0.00093732 4.59926e-05 0)
(0.00093588 4.49238e-05 0)
(0.000934501 4.30303e-05 0)
(0.000933268 4.04286e-05 0)
(0.000932241 3.72168e-05 0)
(0.000931464 3.34756e-05 0)
(0.000930967 2.92676e-05 0)
(0.000930778 2.46341e-05 0)
(0.000930918 1.96174e-05 0)
(0.000931385 1.42831e-05 0)
(0.000932168 8.69551e-06 0)
(0.000933289 2.9054e-06 0)
(0.000934891 -3.01842e-06 0)
(0.000937043 -9.0427e-06 0)
(0.000939697 -1.51197e-05 0)
(0.000942852 -2.11799e-05 0)
(0.000946509 -2.71337e-05 0)
(0.000950661 -3.28811e-05 0)
(0.00095529 -3.83202e-05 0)
(0.000960387 -4.33551e-05 0)
(0.000965926 -4.7901e-05 0)
(0.000971898 -5.18909e-05 0)
(0.000978267 -5.52746e-05 0)
(0.000985021 -5.80235e-05 0)
(0.000992106 -6.01167e-05 0)
(0.000999505 -6.15477e-05 0)
(0.00100713 -6.23138e-05 0)
(0.00101494 -6.24284e-05 0)
(0.00102283 -6.19042e-05 0)
(0.00103077 -6.07732e-05 0)
(0.00103862 -5.90632e-05 0)
(0.00104637 -5.68213e-05 0)
(0.00105383 -5.40812e-05 0)
(0.00106102 -5.08995e-05 0)
(0.00106773 -4.73134e-05 0)
(0.00107399 -4.33978e-05 0)
(0.00107955 -3.91927e-05 0)
(0.0010845 -3.47881e-05 0)
(0.00108858 -3.021e-05 0)
(0.0010919 -2.55727e-05 0)
(0.00109416 -2.09019e-05 0)
(0.00109556 -1.63696e-05 0)
(0.00109572 -1.19801e-05 0)
(0.00109491 -7.91986e-06 0)
(0.00109273 -4.06709e-06 0)
(0.00108952 -6.24449e-07 0)
(0.00108468 2.73902e-06 0)
(0.00107881 5.78796e-06 0)
(0.0010713 8.97639e-06 0)
(0.00106329 1.17103e-05 0)
(0.00105407 1.50273e-05 0)
(0.00104483 1.77344e-05 0)
(0.00103482 2.15621e-05 0)
(0.00102521 2.38268e-05 0)
(0.00101588 2.7798e-05 0)
(0.00100651 2.83819e-05 0)
(0.000999271 3.18354e-05 0)
(0.000989208 2.95043e-05 0)
(0.00098486 3.17865e-05 0)
(0.000971916 2.63172e-05 0)
(0.0014109 0.00020945 0)
(0.00135863 0.000168199 0)
(0.00130952 0.000126106 0)
(0.00126446 8.43131e-05 0)
(0.00122391 4.45528e-05 0)
(0.00118776 8.36188e-06 0)
(0.00115604 -2.30858e-05 0)
(0.00112907 -4.90445e-05 0)
(0.00110681 -6.92688e-05 0)
(0.00108888 -8.37805e-05 0)
(0.00107485 -9.28585e-05 0)
(0.00106423 -9.70085e-05 0)
(0.00105655 -9.68817e-05 0)
(0.00105141 -9.32245e-05 0)
(0.00104847 -8.67269e-05 0)
(0.00104743 -7.79574e-05 0)
(0.00104795 -6.73763e-05 0)
(0.00104968 -5.53888e-05 0)
(0.00105224 -4.24101e-05 0)
(0.00105521 -2.89059e-05 0)
(0.00105822 -1.54002e-05 0)
(0.00106101 -2.46724e-06 0)
(0.00106339 9.39e-06 0)
(0.00106516 1.98044e-05 0)
(0.00106626 2.84997e-05 0)
(0.00106675 3.53267e-05 0)
(0.00106679 4.02643e-05 0)
(0.00106654 4.33949e-05 0)
(0.00106617 4.48776e-05 0)
(0.00106579 4.49185e-05 0)
(0.00106551 4.3744e-05 0)
(0.00106535 4.15796e-05 0)
(0.0010653 3.86364e-05 0)
(0.00106534 3.50933e-05 0)
(0.00106542 3.10776e-05 0)
(0.00106552 2.66571e-05 0)
(0.00106565 2.1856e-05 0)
(0.00106585 1.66696e-05 0)
(0.00106614 1.10776e-05 0)
(0.00106655 5.05832e-06 0)
(0.00106716 -1.37e-06 0)
(0.00106783 -8.13733e-06 0)
(0.00106842 -1.51818e-05 0)
(0.00106902 -2.23774e-05 0)
(0.00106969 -2.95899e-05 0)
(0.00107049 -3.66849e-05 0)
(0.00107149 -4.3538e-05 0)
(0.00107275 -5.00478e-05 0)
(0.00107437 -5.61387e-05 0)
(0.0010764 -6.1748e-05 0)
(0.00107894 -6.68347e-05 0)
(0.00108204 -7.13569e-05 0)
(0.00108581 -7.52926e-05 0)
(0.00109027 -7.85956e-05 0)
(0.00109555 -8.12551e-05 0)
(0.00110164 -8.32294e-05 0)
(0.00110867 -8.45345e-05 0)
(0.00111657 -8.51337e-05 0)
(0.00112545 -8.50676e-05 0)
(0.00113522 -8.42994e-05 0)
(0.00114596 -8.28924e-05 0)
(0.00115757 -8.0798e-05 0)
(0.00117014 -7.80874e-05 0)
(0.00118355 -7.46862e-05 0)
(0.00119786 -7.06747e-05 0)
(0.00121296 -6.5958e-05 0)
(0.00122882 -6.06415e-05 0)
(0.00124532 -5.45935e-05 0)
(0.00126231 -4.79264e-05 0)
(0.00127962 -4.04314e-05 0)
(0.00129693 -3.22572e-05 0)
(0.00131394 -2.31522e-05 0)
(0.00133011 -1.34638e-05 0)
(0.001345 -2.97939e-06 0)
(0.00135801 7.59175e-06 0)
(0.00136895 1.86405e-05 0)
(0.00137692 2.91445e-05 0)
(0.00138157 3.98386e-05 0)
(0.00138192 4.89104e-05 0)
(0.00137866 5.76336e-05 0)
(0.00137028 6.30268e-05 0)
(0.00135934 6.78339e-05 0)
(0.00134246 6.7663e-05 0)
(0.00132611 6.81022e-05 0)
(0.00130198 6.28974e-05 0)
(0.00128448 6.12006e-05 0)
(0.00125422 5.3794e-05 0)
(0.00124178 5.26172e-05 0)
(0.00120507 4.51791e-05 0)
(0.00176816 0.000328426 0)
(0.00170931 0.000284454 0)
(0.00164996 0.000238191 0)
(0.00159145 0.00019153 0)
(0.00153493 0.000146192 0)
(0.00148145 0.000103522 0)
(0.00143187 6.45841e-05 0)
(0.00138654 3.01087e-05 0)
(0.00134552 5.85601e-07 0)
(0.00130897 -2.35082e-05 0)
(0.00127702 -4.18493e-05 0)
(0.00124963 -5.46091e-05 0)
(0.00122654 -6.23755e-05 0)
(0.00120731 -6.58606e-05 0)
(0.00119157 -6.57335e-05 0)
(0.00117893 -6.25405e-05 0)
(0.0011689 -5.66916e-05 0)
(0.00116095 -4.85305e-05 0)
(0.00115452 -3.84541e-05 0)
(0.00114913 -2.69307e-05 0)
(0.00114433 -1.45299e-05 0)
(0.00113975 -1.9165e-06 0)
(0.00113524 1.01849e-05 0)
(0.00113077 2.11114e-05 0)
(0.00112639 3.03429e-05 0)
(0.0011223 3.75476e-05 0)
(0.0011187 4.25958e-05 0)
(0.00111577 4.55521e-05 0)
(0.00111363 4.664e-05 0)
(0.00111233 4.61821e-05 0)
(0.00111183 4.45399e-05 0)
(0.00111202 4.20541e-05 0)
(0.00111274 3.89958e-05 0)
(0.0011138 3.55247e-05 0)
(0.00111496 3.16778e-05 0)
(0.00111597 2.73992e-05 0)
(0.00111658 2.26213e-05 0)
(0.00111657 1.7344e-05 0)
(0.00111584 1.16839e-05 0)
(0.00111433 5.82504e-06 0)
(0.0011121 -7.66351e-08 0)
(0.00110921 -5.99336e-06 0)
(0.00110582 -1.19577e-05 0)
(0.00110201 -1.80917e-05 0)
(0.0010978 -2.44676e-05 0)
(0.00109321 -3.10858e-05 0)
(0.0010883 -3.78756e-05 0)
(0.00108314 -4.47363e-05 0)
(0.00107792 -5.15893e-05 0)
(0.00107286 -5.82859e-05 0)
(0.00106829 -6.47272e-05 0)
(0.00106446 -7.08322e-05 0)
(0.00106171 -7.66079e-05 0)
(0.00106025 -8.19732e-05 0)
(0.00106031 -8.69349e-05 0)
(0.00106195 -9.1374e-05 0)
(0.00106528 -9.53327e-05 0)
(0.00107027 -9.86744e-05 0)
(0.00107693 -0.000101494 0)
(0.00108523 -0.000103648 0)
(0.00109509 -0.00010529 0)
(0.00110658 -0.00010627 0)
(0.00111952 -0.000106788 0)
(0.00113413 -0.000106678 0)
(0.00115015 -0.00010615 0)
(0.00116799 -0.00010498 0)
(0.00118719 -0.000103357 0)
(0.00120841 -0.000100935 0)
(0.00123087 -9.78829e-05 0)
(0.0012555 -9.36639e-05 0)
(0.00128105 -8.85044e-05 0)
(0.00130886 -8.16176e-05 0)
(0.00133694 -7.3499e-05 0)
(0.00136715 -6.30278e-05 0)
(0.00139641 -5.12912e-05 0)
(0.00142746 -3.66596e-05 0)
(0.00145561 -2.13576e-05 0)
(0.00148522 -2.81595e-06 0)
(0.00150915 1.50712e-05 0)
(0.00153476 3.62917e-05 0)
(0.00155061 5.4436e-05 0)
(0.00156978 7.5775e-05 0)
(0.00157282 9.07283e-05 0)
(0.00158378 0.000109455 0)
(0.00156879 0.000117426 0)
(0.00157186 0.000131317 0)
(0.00153584 0.00012757 0)
(0.00153519 0.000134677 0)
(0.00148068 0.000116949 0)
(0.00200425 0.000458224 0)
(0.00195047 0.000424885 0)
(0.0018901 0.000383808 0)
(0.0018253 0.000337046 0)
(0.00175839 0.000286965 0)
(0.00169164 0.000236106 0)
(0.001627 0.000186908 0)
(0.00156601 0.000141229 0)
(0.0015098 0.000100343 0)
(0.00145912 6.51438e-05 0)
(0.00141406 3.61718e-05 0)
(0.00137425 1.33368e-05 0)
(0.00133953 -3.97519e-06 0)
(0.00130985 -1.64189e-05 0)
(0.00128479 -2.44362e-05 0)
(0.00126366 -2.82216e-05 0)
(0.00124566 -2.79336e-05 0)
(0.00122995 -2.38537e-05 0)
(0.00121585 -1.64489e-05 0)
(0.00120286 -6.45265e-06 0)
(0.00119065 5.18276e-06 0)
(0.00117906 1.73746e-05 0)
(0.00116811 2.90261e-05 0)
(0.00115799 3.91309e-05 0)
(0.001149 4.69476e-05 0)
(0.00114152 5.20801e-05 0)
(0.00113585 5.44982e-05 0)
(0.00113218 5.44801e-05 0)
(0.0011305 5.24986e-05 0)
(0.00113061 4.90936e-05 0)
(0.00113213 4.4784e-05 0)
(0.00113451 4.00319e-05 0)
(0.00113711 3.52456e-05 0)
(0.00113921 3.07844e-05 0)
(0.00114021 2.69352e-05 0)
(0.00113978 2.38332e-05 0)
(0.00113795 2.13838e-05 0)
(0.00113506 1.92438e-05 0)
(0.00113147 1.69362e-05 0)
(0.00112719 1.40151e-05 0)
(0.0011218 1.02245e-05 0)
(0.00111451 5.56295e-06 0)
(0.00110458 2.57344e-07 0)
(0.00109171 -5.38402e-06 0)
(0.00107619 -1.10132e-05 0)
(0.00105866 -1.64568e-05 0)
(0.00104005 -2.17762e-05 0)
(0.00102132 -2.72257e-05 0)
(0.00100357 -3.31035e-05 0)
(0.000987728 -3.9699e-05 0)
(0.000974308 -4.71322e-05 0)
(0.000963489 -5.53986e-05 0)
(0.000955492 -6.43556e-05 0)
(0.000950381 -7.36343e-05 0)
(0.000948151 -8.30177e-05 0)
(0.000948605 -9.20801e-05 0)
(0.000951538 -0.000100738 0)
(0.000956705 -0.000108616 0)
(0.000963814 -0.000115843 0)
(0.000972728 -0.000122111 0)
(0.000983098 -0.000127747 0)
(0.000995046 -0.00013247 0)
(0.00100813 -0.00013674 0)
(0.00102287 -0.000140241 0)
(0.00103862 -0.000143486 0)
(0.00105643 -0.000146046 0)
(0.00107525 -0.000148433 0)
(0.00109686 -0.000149972 0)
(0.00111945 -0.000151212 0)
(0.00114576 -0.000151042 0)
(0.00117275 -0.000150255 0)
(0.00120446 -0.000147047 0)
(0.00123589 -0.000142916 0)
(0.00127306 -0.000135005 0)
(0.00130799 -0.000126231 0)
(0.00134988 -0.000112146 0)
(0.00138615 -9.80616e-05 0)
(0.00143123 -7.70827e-05 0)
(0.00146556 -5.82848e-05 0)
(0.00151198 -3.08331e-05 0)
(0.00154033 -9.53313e-06 0)
(0.00158608 2.29025e-05 0)
(0.00160405 4.34562e-05 0)
(0.00164632 7.8273e-05 0)
(0.00164997 9.56823e-05 0)
(0.00168518 0.000127914 0)
(0.00167393 0.000141509 0)
(0.00169627 0.000162039 0)
(0.00167332 0.000172899 0)
(0.00209579 0.00054341 0)
(0.00206151 0.000532251 0)
(0.0020169 0.000509884 0)
(0.00196341 0.000477437 0)
(0.00190294 0.000436405 0)
(0.00183764 0.000388986 0)
(0.00176976 0.000337854 0)
(0.00170172 0.000285452 0)
(0.00163583 0.000234138 0)
(0.00157372 0.000186478 0)
(0.00151645 0.000144418 0)
(0.00146482 0.000108498 0)
(0.00141939 7.8373e-05 0)
(0.0013801 5.38553e-05 0)
(0.00134619 3.52902e-05 0)
(0.00131664 2.31014e-05 0)
(0.00129049 1.72143e-05 0)
(0.00126713 1.69433e-05 0)
(0.00124614 2.12158e-05 0)
(0.00122712 2.87432e-05 0)
(0.00120985 3.81436e-05 0)
(0.00119419 4.79893e-05 0)
(0.0011802 5.68499e-05 0)
(0.0011681 6.34546e-05 0)
(0.00115833 6.69042e-05 0)
(0.00115133 6.68512e-05 0)
(0.00114739 6.35522e-05 0)
(0.00114647 5.77604e-05 0)
(0.00114806 5.05231e-05 0)
(0.00115132 4.29895e-05 0)
(0.00115525 3.62838e-05 0)
(0.00115903 3.14013e-05 0)
(0.00116221 2.89992e-05 0)
(0.00116472 2.90709e-05 0)
(0.00116653 3.07164e-05 0)
(0.00116721 3.23508e-05 0)
(0.00116559 3.24536e-05 0)
(0.00115997 3.05532e-05 0)
(0.00114872 2.7766e-05 0)
(0.00113096 2.62117e-05 0)
(0.00110682 2.7656e-05 0)
(0.00107732 3.23634e-05 0)
(0.00104393 3.90057e-05 0)
(0.00100858 4.53381e-05 0)
(0.000973407 4.91176e-05 0)
(0.000940349 4.87934e-05 0)
(0.000910958 4.38016e-05 0)
(0.000886388 3.43378e-05 0)
(0.000867173 2.1149e-05 0)
(0.000853478 5.11103e-06 0)
(0.000845013 -1.28986e-05 0)
(0.000841307 -3.18389e-05 0)
(0.00084201 -5.0864e-05 0)
(0.000846457 -6.92224e-05 0)
(0.000853987 -8.65282e-05 0)
(0.000863903 -0.000102275 0)
(0.000875611 -0.000116486 0)
(0.000888535 -0.000128822 0)
(0.000902171 -0.00013968 0)
(0.000916194 -0.000148794 0)
(0.000930159 -0.000156871 0)
(0.000944135 -0.00016362 0)
(0.000957628 -0.000169964 0)
(0.00097129 -0.000175497 0)
(0.000984384 -0.000181258 0)
(0.000998392 -0.000186592 0)
(0.00101201 -0.000192612 0)
(0.00102791 -0.00019817 0)
(0.00104363 -0.000204523 0)
(0.0010636 -0.000209646 0)
(0.00108322 -0.000215308 0)
(0.00110947 -0.000218028 0)
(0.00113418 -0.000220981 0)
(0.00116831 -0.000218353 0)
(0.00119797 -0.000216279 0)
(0.00124039 -0.000205282 0)
(0.00127334 -0.000196584 0)
(0.00132323 -0.000175232 0)
(0.00135675 -0.000159648 0)
(0.00141206 -0.000127983 0)
(0.00144331 -0.000106227 0)
(0.00150043 -6.69783e-05 0)
(0.0015276 -3.96617e-05 0)
(0.00158145 1.55663e-06 0)
(0.00160488 3.43597e-05 0)
(0.00164841 6.9864e-05 0)
(0.00166876 0.000107597 0)
(0.00169395 0.000129051 0)
(0.00171323 0.000170336 0)
(0.00205855 0.000573985 0)
(0.00204757 0.000588445 0)
(0.00202529 0.000590376 0)
(0.0019923 0.000579702 0)
(0.0019498 0.000556866 0)
(0.00189903 0.000523553 0)
(0.00184162 0.000481594 0)
(0.00177993 0.000432536 0)
(0.00171629 0.000379197 0)
(0.00165255 0.000325461 0)
(0.00159077 0.000273903 0)
(0.00153305 0.000225449 0)
(0.00148063 0.000181373 0)
(0.00143352 0.000143907 0)
(0.00139128 0.000114779 0)
(0.00135357 9.40836e-05 0)
(0.00132014 8.0738e-05 0)
(0.0012906 7.34419e-05 0)
(0.00126448 7.10796e-05 0)
(0.00124151 7.26136e-05 0)
(0.00122168 7.67539e-05 0)
(0.00120502 8.1779e-05 0)
(0.00119146 8.56773e-05 0)
(0.00118086 8.65635e-05 0)
(0.00117318 8.32154e-05 0)
(0.00116855 7.55146e-05 0)
(0.00116717 6.45773e-05 0)
(0.0011691 5.24457e-05 0)
(0.00117407 4.13825e-05 0)
(0.00118147 3.30245e-05 0)
(0.00119039 2.77523e-05 0)
(0.00119961 2.4743e-05 0)
(0.00120729 2.26601e-05 0)
(0.001211 2.10042e-05 0)
(0.00120792 2.11374e-05 0)
(0.00119556 2.60215e-05 0)
(0.00117237 3.84104e-05 0)
(0.00113836 5.8658e-05 0)
(0.00109518 8.39243e-05 0)
(0.00104583 0.000109433 0)
(0.000994127 0.000130558 0)
(0.000944104 0.000144213 0)
(0.00089917 0.000149127 0)
(0.000861606 0.000145357 0)
(0.000832389 0.000133753 0)
(0.000811731 0.000115557 0)
(0.000799172 9.22798e-05 0)
(0.00079405 6.5396e-05 0)
(0.000795384 3.63428e-05 0)
(0.000802088 6.4145e-06 0)
(0.000813304 -2.32018e-05 0)
(0.00082853 -5.15284e-05 0)
(0.00084677 -7.78761e-05 0)
(0.000867203 -0.000101691 0)
(0.000889045 -0.000122744 0)
(0.000911574 -0.000140695 0)
(0.000934148 -0.000155775 0)
(0.000956153 -0.000167792 0)
(0.000977054 -0.000177424 0)
(0.000996435 -0.000184536 0)
(0.0010138 -0.00019021 0)
(0.00102909 -0.000194256 0)
(0.00104173 -0.000198069 0)
(0.00105227 -0.000201269 0)
(0.00105989 -0.000205479 0)
(0.00106616 -0.000209903 0)
(0.00106973 -0.000216395 0)
(0.0010738 -0.000223359 0)
(0.00107584 -0.000233014 0)
(0.00108146 -0.000242294 0)
(0.00108551 -0.000254258 0)
(0.00109706 -0.000263349 0)
(0.00110625 -0.000274771 0)
(0.00112727 -0.000279189 0)
(0.00114306 -0.000286133 0)
(0.00117502 -0.000281128 0)
(0.00119684 -0.000280118 0)
(0.00123873 -0.000262887 0)
(0.00126498 -0.000251739 0)
(0.00131345 -0.00022292 0)
(0.001343 -0.00020044 0)
(0.00139299 -0.000164098 0)
(0.00142578 -0.000129467 0)
(0.00147139 -9.18349e-05 0)
(0.00150816 -4.50295e-05 0)
(0.00154369 -1.32489e-05 0)
(0.00158513 4.43182e-05 0)
(0.00160513 6.34183e-05 0)
(0.00164997 0.000129028 0)
(0.00193695 0.000561873 0)
(0.001944 0.000599252 0)
(0.00194123 0.000624545 0)
(0.00192895 0.000636077 0)
(0.00190705 0.000634003 0)
(0.00187564 0.000619579 0)
(0.00183615 0.000592963 0)
(0.00179034 0.000554984 0)
(0.00173921 0.000509001 0)
(0.0016842 0.000458212 0)
(0.00162801 0.000403899 0)
(0.00157304 0.000348112 0)
(0.00152021 0.000295047 0)
(0.00146986 0.000248367 0)
(0.00142288 0.000209267 0)
(0.00138035 0.000177725 0)
(0.00134278 0.000153905 0)
(0.00131013 0.00013765 0)
(0.00128221 0.000127583 0)
(0.00125887 0.00012145 0)
(0.00123966 0.000117184 0)
(0.00122381 0.000113413 0)
(0.00121062 0.00010908 0)
(0.00120007 0.000102898 0)
(0.00119304 9.34021e-05 0)
(0.00119079 7.97027e-05 0)
(0.00119421 6.2226e-05 0)
(0.0012031 4.27223e-05 0)
(0.00121584 2.35836e-05 0)
(0.00122947 7.24277e-06 0)
(0.00124004 -3.67419e-06 0)
(0.00124318 -5.89989e-06 0)
(0.00123487 4.19515e-06 0)
(0.00121256 2.87084e-05 0)
(0.00117589 6.61086e-05 0)
(0.00112709 0.000110962 0)
(0.00107065 0.000155973 0)
(0.001012 0.00019462 0)
(0.000956121 0.000222617 0)
(0.000906723 0.000238087 0)
(0.000865967 0.000241039 0)
(0.000834761 0.000232656 0)
(0.000813049 0.000214687 0)
(0.000800339 0.00018899 0)
(0.000795714 0.000157426 0)
(0.000798294 0.000121681 0)
(0.000806949 8.33698e-05 0)
(0.00082082 4.38497e-05 0)
(0.000838888 4.4803e-06 0)
(0.00086075 -3.37633e-05 0)
(0.000885532 -6.97816e-05 0)
(0.000912678 -0.000102942 0)
(0.000941338 -0.000132629 0)
(0.000971102 -0.00015839 0)
(0.00100126 -0.000180002 0)
(0.0010314 -0.000197178 0)
(0.00106086 -0.000210184 0)
(0.00108922 -0.000218853 0)
(0.00111586 -0.000223972 0)
(0.00114045 -0.000225434 0)
(0.00116226 -0.000224532 0)
(0.00118122 -0.000221145 0)
(0.00119641 -0.000217051 0)
(0.00120817 -0.000212012 0)
(0.00121508 -0.000208383 0)
(0.00121818 -0.000205662 0)
(0.00121534 -0.000206857 0)
(0.00120936 -0.000210494 0)
(0.00119758 -0.000219915 0)
(0.00118607 -0.000231425 0)
(0.00117067 -0.000248948 0)
(0.00116117 -0.00026546 0)
(0.00114941 -0.000286816 0)
(0.0011492 -0.000301792 0)
(0.00114614 -0.00032007 0)
(0.00115876 -0.000326111 0)
(0.00116598 -0.000334556 0)
(0.00119052 -0.000327133 0)
(0.00120727 -0.000321211 0)
(0.00123951 -0.000300741 0)
(0.00126469 -0.000278263 0)
(0.00129889 -0.000249387 0)
(0.00133205 -0.000209752 0)
(0.00136268 -0.000178963 0)
(0.00140367 -0.000122783 0)
(0.00142643 -9.65395e-05 0)
(0.00147436 -2.59148e-05 0)
(0.00148665 -1.01715e-05 0)
(0.00153951 7.12583e-05 0)
(0.001771 0.000522335 0)
(0.0017897 0.000577767 0)
(0.00180151 0.000620785 0)
(0.00180549 0.000650967 0)
(0.00180079 0.000669048 0)
(0.00178791 0.000673515 0)
(0.00176778 0.000662753 0)
(0.00174026 0.000639085 0)
(0.00170545 0.000605932 0)
(0.0016654 0.000563547 0)
(0.00162246 0.000512238 0)
(0.00157733 0.000456635 0)
(0.00153032 0.000402636 0)
(0.00148321 0.000352742 0)
(0.0014386 0.000307031 0)
(0.00139809 0.000266294 0)
(0.00136217 0.000231896 0)
(0.00133112 0.000203996 0)
(0.00130516 0.000181694 0)
(0.00128376 0.000164518 0)
(0.00126544 0.000152527 0)
(0.00124886 0.000144619 0)
(0.00123411 0.000137151 0)
(0.00122318 0.000124806 0)
(0.00121873 0.000103472 0)
(0.00122225 7.29589e-05 0)
(0.0012326 3.76491e-05 0)
(0.00124582 5.04784e-06 0)
(0.00125615 -1.65053e-05 0)
(0.00125752 -2.00714e-05 0)
(0.00124513 -2.11314e-06 0)
(0.0012169 3.60285e-05 0)
(0.00117416 8.84334e-05 0)
(0.00112104 0.000146713 0)
(0.0010632 0.000202711 0)
(0.00100619 0.000250235 0)
(0.000954242 0.000285467 0)
(0.000910072 0.000306667 0)
(0.000874971 0.000313674 0)
(0.000849251 0.000307421 0)
(0.00083251 0.000289477 0)
(0.000823995 0.000261776 0)
(0.000822691 0.000226357 0)
(0.000827643 0.000185217 0)
(0.000837779 0.000140199 0)
(0.000852335 9.29299e-05 0)
(0.000870456 4.49039e-05 0)
(0.000891814 -2.77517e-06 0)
(0.000915621 -4.89601e-05 0)
(0.000941682 -9.28263e-05 0)
(0.000969426 -0.000133476 0)
(0.000998883 -0.000170342 0)
(0.00102934 -0.000202698 0)
(0.00106077 -0.000230143 0)
(0.00109237 -0.000252327 0)
(0.00112404 -0.000269023 0)
(0.00115496 -0.000280425 0)
(0.00118501 -0.000286428 0)
(0.00121342 -0.000287793 0)
(0.00124026 -0.00028441 0)
(0.00126469 -0.000277568 0)
(0.00128699 -0.000267069 0)
(0.00130612 -0.000254646 0)
(0.00132287 -0.000239624 0)
(0.00133582 -0.000224076 0)
(0.00134594 -0.000207074 0)
(0.00135014 -0.000192474 0)
(0.0013492 -0.000180315 0)