/*--------------------------------*- C++ -*----------------------------------*\
| =========                 |                                                 |
| \\      /  F ield         | OpenFOAM: The Open Source CFD Toolbox           |
|  \\    /   O peration     | Version:  2312                                  |
|   \\  /    A nd           | Website:  www.openfoam.com                      |
|    \\/     M anipulation  |                                                 |
\*---------------------------------------------------------------------------*/
FoamFile
{
    version     2.0;
    format      ascii;
    arch        "LSB;label=32;scalar=64";
    class       volScalarField;
    location    "193000";
    object      p;
}
// * * * * * * * * * * * * * * * * * * * * * * * * * * * * * * * * * * * * * //

dimensions      [0 2 -2 0 0 0 0];

internalField   nonuniform List<scalar> 
2685
(
2.40593e-07
2.35225e-07
2.29693e-07
2.24016e-07
2.1791e-07
2.11029e-07
2.03442e-07
1.95283e-07
1.86793e-07
1.78188e-07
1.69602e-07
1.61187e-07
1.53082e-07
1.45396e-07
1.38214e-07
1.31592e-07
1.2556e-07
1.20111e-07
1.15206e-07
1.10776e-07
1.06727e-07
1.02949e-07
9.93244e-08
9.57383e-08
9.2084e-08
8.82719e-08
8.42358e-08
7.99338e-08
7.53353e-08
7.04641e-08
6.53659e-08
6.0086e-08
5.46673e-08
4.91456e-08
4.35519e-08
3.79045e-08
3.2214e-08
2.6503e-08
2.08053e-08
1.51678e-08
9.65072e-09
4.32689e-09
-7.19859e-10
-5.39728e-09
-9.60913e-09
-1.32598e-08
-1.6259e-08
-1.85269e-08
-2.00003e-08
-2.0639e-08
-2.04323e-08
-1.94053e-08
-1.76248e-08
-1.49166e-08
-1.15864e-08
-7.77259e-09
-3.57839e-09
8.8191e-10
5.49168e-09
1.01389e-08
1.47196e-08
1.91404e-08
2.33199e-08
2.71899e-08
3.06954e-08
3.37936e-08
3.64524e-08
3.86472e-08
4.03587e-08
4.1568e-08
4.22506e-08
4.23751e-08
4.19892e-08
4.10728e-08
3.96317e-08
3.76923e-08
3.53027e-08
3.25246e-08
2.94379e-08
2.61377e-08
2.27315e-08
1.93282e-08
1.60324e-08
1.29207e-08
1.00491e-08
7.43446e-09
5.08866e-09
2.95027e-09
1.07458e-09
2.48706e-07
2.43073e-07
2.36416e-07
2.2902e-07
2.2126e-07
2.13035e-07
2.04464e-07
1.95906e-07
1.87357e-07
1.78602e-07
1.69753e-07
1.60939e-07
1.52345e-07
1.44173e-07
1.36584e-07
1.29689e-07
1.23543e-07
1.18147e-07
1.13455e-07
1.09379e-07
1.05792e-07
1.02538e-07
9.94488e-08
9.63525e-08
9.30826e-08
8.95007e-08
8.5514e-08
8.10876e-08
7.62637e-08
7.11174e-08
6.57525e-08
6.02686e-08
5.47305e-08
4.91637e-08
4.35626e-08
3.79084e-08
3.21833e-08
2.63818e-08
2.05259e-08
1.46638e-08
8.86547e-09
3.22018e-09
-2.16288e-09
-7.1686e-09
-1.1685e-08
-1.56044e-08
-1.88261e-08
-2.12607e-08
-2.28345e-08
-2.34931e-08
-2.3207e-08
-2.19743e-08
-1.9816e-08
-1.70405e-08
-1.34805e-08
-9.40033e-09
-4.89244e-09
-5.79754e-11
4.94947e-09
9.99703e-09
1.4965e-08
1.97455e-08
2.42456e-08
2.83909e-08
3.21266e-08
3.54172e-08
3.82429e-08
4.05935e-08
4.24609e-08
4.3834e-08
4.4699e-08
4.50635e-08
4.48853e-08
4.40823e-08
4.26656e-08
4.06451e-08
3.80636e-08
3.49791e-08
3.1484e-08
2.76933e-08
2.37555e-08
1.98245e-08
1.60699e-08
1.25445e-08
9.38876e-09
6.63044e-09
4.32767e-09
2.36513e-09
7.96754e-10
2.40279e-07
2.32351e-07
2.27472e-07
2.25271e-07
2.22832e-07
2.18154e-07
2.10722e-07
2.01209e-07
1.90689e-07
1.8006e-07
1.69386e-07
1.59129e-07
1.49537e-07
1.40691e-07
1.32649e-07
1.25482e-07
1.19241e-07
1.13931e-07
1.09504e-07
1.05852e-07
1.02817e-07
1.00199e-07
9.77758e-08
9.53309e-08
9.26752e-08
8.9651e-08
8.61512e-08
8.21248e-08
7.75809e-08
7.25792e-08
6.7213e-08
6.15859e-08
5.57872e-08
4.98763e-08
4.38794e-08
3.77974e-08
3.16233e-08
2.53587e-08
1.9026e-08
1.26738e-08
6.37555e-09
2.24508e-10
-5.67768e-09
-1.12213e-08
-1.62943e-08
-2.07771e-08
-2.45402e-08
-2.74486e-08
-2.93726e-08
-3.02044e-08
-2.98774e-08
-2.83828e-08
-2.57759e-08
-2.218e-08
-1.78534e-08
-1.27653e-08
-7.21024e-09
-1.37462e-09
4.59034e-09
1.05309e-08
1.63097e-08
2.18071e-08
2.69234e-08
3.15813e-08
3.57278e-08
3.93335e-08
4.23874e-08
4.48885e-08
4.68387e-08
4.82325e-08
4.90558e-08
4.92823e-08
4.88279e-08
4.77013e-08
4.58418e-08
4.31671e-08
4.00398e-08
3.63425e-08
3.21713e-08
2.76956e-08
2.30991e-08
1.85872e-08
1.44519e-08
1.08788e-08
7.9094e-09
5.4594e-09
3.52027e-09
1.938e-09
6.61305e-10
2.59306e-07
2.52546e-07
2.46005e-07
2.39385e-07
2.29746e-07
2.1694e-07
2.04394e-07
1.95025e-07
1.88016e-07
1.79835e-07
1.70119e-07
1.59241e-07
1.4818e-07
1.37729e-07
1.28238e-07
1.20001e-07
1.13136e-07
1.07623e-07
1.03365e-07
1.00209e-07
9.79162e-08
9.61526e-08
9.45925e-08
9.29141e-08
9.08935e-08
8.82986e-08
8.5058e-08
8.11269e-08
7.65468e-08
7.14096e-08
6.58354e-08
5.99552e-08
5.38697e-08
4.76377e-08
4.12806e-08
3.47987e-08
2.81899e-08
2.14663e-08
1.46652e-08
7.85234e-09
1.11927e-09
-5.42319e-09
-1.16527e-08
-1.74422e-08
-2.26606e-08
-2.71796e-08
-3.08743e-08
-3.36239e-08
-3.53176e-08
-3.58673e-08
-3.52166e-08
-3.33503e-08
-3.03206e-08
-2.62427e-08
-2.11907e-08
-1.55194e-08
-9.23701e-09
-2.56538e-09
4.31975e-09
1.12434e-08
1.8023e-08
2.44768e-08
3.04376e-08
3.57696e-08
4.03928e-08
4.42888e-08
4.75027e-08
5.01069e-08
5.21813e-08
5.37716e-08
5.48889e-08
5.54508e-08
5.54034e-08
5.46908e-08
5.32418e-08
5.10617e-08
4.78101e-08
4.37161e-08
3.89062e-08
3.3704e-08
2.80683e-08
2.24234e-08
1.71098e-08
1.244e-08
8.66456e-09
5.77794e-09
3.71995e-09
2.1795e-09
7.52915e-10
2.40025e-07
2.32168e-07
2.29989e-07
2.32446e-07
2.35346e-07
2.33556e-07
2.26142e-07
2.14184e-07
1.98532e-07
1.80522e-07
1.63383e-07
1.49906e-07
1.38965e-07
1.28738e-07
1.19144e-07
1.10543e-07
1.03374e-07
9.78367e-08
9.39546e-08
9.1731e-08
9.05261e-08
9.00199e-08
8.96844e-08
8.90471e-08
8.77093e-08
8.5552e-08
8.2621e-08
7.88925e-08
7.44983e-08
6.95304e-08
6.40832e-08
5.82205e-08
5.19894e-08
4.54282e-08
3.8573e-08
3.14649e-08
2.41568e-08
1.67171e-08
9.23192e-09
1.80364e-09
-5.45337e-09
-1.24164e-08
-1.89587e-08
-2.49539e-08
-3.02779e-08
-3.48107e-08
-3.84369e-08
-4.10455e-08
-4.25345e-08
-4.2814e-08
-4.18204e-08
-3.95215e-08
-3.5941e-08
-3.13424e-08
-2.55357e-08
-1.8699e-08
-1.11514e-08
-3.08586e-09
5.27169e-09
1.36842e-08
2.19211e-08
2.97584e-08
3.70021e-08
4.34898e-08
4.91194e-08
5.38285e-08
5.76205e-08
6.053e-08
6.26368e-08
6.39911e-08
6.46e-08
6.44651e-08
6.35973e-08
6.20111e-08
5.97089e-08
5.67088e-08
5.28763e-08
4.82262e-08
4.26425e-08
3.60475e-08
2.93716e-08
2.26949e-08
1.65834e-08
1.1438e-08
7.69372e-09
5.35755e-09
3.84908e-09
2.73468e-09
1.29954e-09
2.37573e-07
2.33628e-07
2.29861e-07
2.2552e-07
2.17017e-07
2.03848e-07
1.90845e-07
1.83641e-07
1.80799e-07
1.77565e-07
1.68735e-07
1.53605e-07
1.35187e-07
1.1726e-07
1.02883e-07
9.26833e-08
8.57643e-08
8.1322e-08
7.90286e-08
7.87347e-08
7.95411e-08
8.13025e-08
8.31857e-08
8.43819e-08
8.44256e-08
8.31815e-08
8.06584e-08
7.71672e-08
7.28639e-08
6.78797e-08
6.22855e-08
5.61292e-08
4.94545e-08
4.23089e-08
3.47492e-08
2.68443e-08
1.86743e-08
1.0334e-08
1.93405e-09
-6.39946e-09
-1.45256e-08
-2.22901e-08
-2.95285e-08
-3.60715e-08
-4.17526e-08
-4.64159e-08
-4.99247e-08
-5.21666e-08
-5.306e-08
-5.25534e-08
-5.06525e-08
-4.74668e-08
-4.27722e-08
-3.66485e-08
-2.95278e-08
-2.14284e-08
-1.25342e-08
-3.06684e-09
6.74022e-09
1.66367e-08
2.63749e-08
3.56958e-08
4.43525e-08
5.21017e-08
5.87577e-08
6.41951e-08
6.8404e-08
7.14328e-08
7.3413e-08
7.4445e-08
7.46248e-08
7.40678e-08
7.28022e-08
7.09305e-08
6.8321e-08
6.50518e-08
6.08869e-08
5.60037e-08
5.03186e-08
4.4128e-08
3.73211e-08
3.01847e-08
2.36214e-08
1.74135e-08
1.27417e-08
9.45734e-09
6.69498e-09
5.28137e-09
2.31428e-09
2.14568e-07
2.06941e-07
1.99702e-07
1.92494e-07
1.85245e-07
1.78266e-07
1.72306e-07
1.66355e-07
1.57466e-07
1.43727e-07
1.28975e-07
1.17972e-07
1.10381e-07
1.02624e-07
9.24609e-08
8.14532e-08
7.23472e-08
6.66958e-08
6.45591e-08
6.52103e-08
6.87206e-08
7.35278e-08
7.84384e-08
8.22656e-08
8.43066e-08
8.43675e-08
8.24833e-08
7.91238e-08
7.45429e-08
6.89868e-08
6.26042e-08
5.55048e-08
4.77767e-08
3.94947e-08
3.07293e-08
2.1553e-08
1.20463e-08
2.30339e-09
-7.56187e-09
-1.74122e-08
-2.70857e-08
-3.63976e-08
-4.51452e-08
-5.31143e-08
-6.00907e-08
-6.58692e-08
-7.02653e-08
-7.31221e-08
-7.43195e-08
-7.37678e-08
-7.14515e-08
-6.75568e-08
-6.1826e-08
-5.43383e-08
-4.52965e-08
-3.49266e-08
-2.34846e-08
-1.12707e-08
1.39549e-09
1.41691e-08
2.67156e-08
3.8693e-08
4.9807e-08
5.97661e-08
6.83757e-08
7.54613e-08
8.0983e-08
8.49289e-08
8.73665e-08
8.84175e-08
8.81444e-08
8.67593e-08
8.42659e-08
8.09609e-08
7.68314e-08
7.21484e-08
6.69353e-08
6.11999e-08
5.50793e-08
4.84717e-08
4.15532e-08
3.4774e-08
2.7847e-08
2.16577e-08
1.64904e-08
1.20507e-08
9.08718e-09
6.40007e-09
2.638e-09
1.74986e-07
1.66081e-07
1.57632e-07
1.49588e-07
1.41296e-07
1.32263e-07
1.22615e-07
1.13198e-07
1.04736e-07
9.78483e-08
9.26841e-08
8.80045e-08
8.19729e-08
7.48673e-08
6.91151e-08
6.5892e-08
6.41751e-08
6.31562e-08
6.32392e-08
6.51483e-08
6.92604e-08
7.51525e-08
8.15702e-08
8.6946e-08
9.01804e-08
9.0967e-08
8.93538e-08
8.55768e-08
8.0099e-08
7.3275e-08
6.54042e-08
5.67004e-08
4.73057e-08
3.7311e-08
2.67749e-08
1.57428e-08
4.2629e-09
-7.60115e-09
-1.97572e-08
-3.20746e-08
-4.43788e-08
-5.64499e-08
-6.80286e-08
-7.88261e-08
-8.85358e-08
-9.68449e-08
-1.03454e-07
-1.08088e-07
-1.10519e-07
-1.10564e-07
-1.08038e-07
-1.03123e-07
-9.60756e-08
-8.67912e-08
-7.54263e-08
-6.22403e-08
-4.75519e-08
-3.17539e-08
-1.52632e-08
1.45674e-09
1.79667e-08
3.37882e-08
4.85414e-08
6.18019e-08
7.33214e-08
8.28214e-08
9.02304e-08
9.54979e-08
9.87003e-08
1.00023e-07
9.95906e-08
9.77676e-08
9.46111e-08
9.05616e-08
8.55483e-08
8.00732e-08
7.39071e-08
6.75723e-08
6.09198e-08
5.42124e-08
4.76952e-08
4.11012e-08
3.51386e-08
2.89525e-08
2.37975e-08
1.83407e-08
1.3646e-08
9.07842e-09
3.80159e-09
1.12814e-07
9.9591e-08
8.67232e-08
7.47704e-08
6.37384e-08
5.41346e-08
4.65909e-08
4.11376e-08
3.72442e-08
3.44042e-08
3.25451e-08
3.20214e-08
3.33562e-08
3.67482e-08
4.16206e-08
4.71122e-08
5.30034e-08
5.93955e-08
6.59754e-08
7.23824e-08
7.87143e-08
8.51797e-08
9.14839e-08
9.68176e-08
1.001e-07
1.00558e-07
9.82705e-08
9.3502e-08
8.67134e-08
7.83753e-08
6.88601e-08
5.84101e-08
4.71505e-08
3.51213e-08
2.23158e-08
8.71268e-09
-5.69894e-09
-2.08972e-08
-3.68091e-08
-5.32958e-08
-7.0144e-08
-8.70606e-08
-1.03678e-07
-1.19563e-07
-1.34238e-07
-1.47213e-07
-1.58008e-07
-1.66178e-07
-1.71344e-07
-1.73157e-07
-1.71201e-07
-1.66374e-07
-1.58254e-07
-1.46972e-07
-1.32743e-07
-1.15898e-07
-9.68283e-08
-7.6032e-08
-5.40397e-08
-3.14736e-08
-8.91322e-09
1.29548e-08
3.35966e-08
5.23862e-08
6.89331e-08
8.28499e-08
9.39097e-08
1.02118e-07
1.07357e-07
1.10107e-07
1.10224e-07
1.0856e-07
1.04905e-07
1.00148e-07
9.41968e-08
8.75691e-08
8.05478e-08
7.29969e-08
6.57218e-08
5.80627e-08
5.09782e-08
4.39818e-08
3.74332e-08
3.11228e-08
2.55332e-08
1.96416e-08
1.45128e-08
9.27959e-09
3.69277e-09
2.23731e-08
4.82126e-09
-1.13943e-08
-2.60076e-08
-3.78299e-08
-4.68245e-08
-5.2795e-08
-5.61063e-08
-5.68133e-08
-5.47787e-08
-4.99122e-08
-4.2348e-08
-3.24417e-08
-2.05091e-08
-6.61163e-09
9.20997e-09
2.63582e-08
4.35252e-08
5.93086e-08
7.28282e-08
8.38337e-08
9.25375e-08
9.92767e-08
1.041e-07
1.06653e-07
1.06507e-07
1.03539e-07
9.79755e-08
9.02501e-08
8.08099e-08
6.99941e-08
5.79921e-08
4.48576e-08
3.055e-08
1.49798e-08
-1.95192e-09
-2.03193e-08
-4.01432e-08
-6.13636e-08
-8.38119e-08
-1.07191e-07
-1.31063e-07
-1.54857e-07
-1.77895e-07
-1.99433e-07
-2.18705e-07
-2.34986e-07
-2.47635e-07
-2.56158e-07
-2.60204e-07
-2.59581e-07
-2.54265e-07
-2.44597e-07
-2.30778e-07
-2.13092e-07
-1.91989e-07
-1.67974e-07
-1.4166e-07
-1.13663e-07
-8.47129e-08
-5.54731e-08
-2.66998e-08
8.95843e-10
2.6674e-08
4.9858e-08
7.0106e-08
8.66588e-08
9.96731e-08
1.08587e-07
1.14072e-07
1.15939e-07
1.15055e-07
1.117e-07
1.06492e-07
1.00055e-07
9.26271e-08
8.48494e-08
7.67142e-08
6.88525e-08
6.08845e-08
5.36637e-08
4.64337e-08
3.99992e-08
3.36719e-08
2.79215e-08
2.21253e-08
1.64408e-08
1.04387e-08
4.06538e-09
-9.1685e-08
-1.14396e-07
-1.3425e-07
-1.50798e-07
-1.63616e-07
-1.72469e-07
-1.76816e-07
-1.76674e-07
-1.72112e-07
-1.63238e-07
-1.50382e-07
-1.34065e-07
-1.14914e-07
-9.34781e-08
-6.99903e-08
-4.44635e-08
-1.73083e-08
1.01742e-08
3.60625e-08
5.85332e-08
7.64177e-08
8.94586e-08
9.82166e-08
1.03536e-07
1.05959e-07
1.05614e-07
1.02522e-07
9.68393e-08
8.88704e-08
7.89444e-08
6.73012e-08
5.40372e-08
3.91098e-08
2.23764e-08
3.64528e-09
-1.72758e-08
-4.05308e-08
-6.61659e-08
-9.40801e-08
-1.23982e-07
-1.55366e-07
-1.87511e-07
-2.19514e-07
-2.50341e-07
-2.78916e-07
-3.04186e-07
-3.25211e-07
-3.41187e-07
-3.5142e-07
-3.55298e-07
-3.56233e-07
-3.50472e-07
-3.38931e-07
-3.2222e-07
-3.00876e-07
-2.7551e-07
-2.46763e-07
-2.15338e-07
-1.81925e-07
-1.47282e-07
-1.12187e-07
-7.73222e-08
-4.36085e-08
-1.15636e-08
1.78256e-08
4.42275e-08
6.6701e-08
8.5147e-08
9.89123e-08
1.0826e-07
1.13201e-07
1.14314e-07
1.12313e-07
1.07714e-07
1.01608e-07
9.41604e-08
8.6388e-08
7.81782e-08
7.02419e-08
6.23766e-08
5.50078e-08
4.79361e-08
4.13424e-08
3.48996e-08
2.89316e-08
2.28537e-08
1.68486e-08
1.05518e-08
4.04977e-09
-2.1557e-07
-2.42747e-07
-2.65866e-07
-2.84314e-07
-2.97664e-07
-3.05652e-07
-3.07726e-07
-3.03892e-07
-2.94277e-07
-2.79098e-07
-2.58746e-07
-2.33857e-07
-2.05439e-07
-1.74662e-07
-1.42193e-07
-1.07968e-07
-7.20006e-08
-3.53942e-08
-3.42863e-10
3.07369e-08
5.60221e-08
7.47086e-08
8.71111e-08
9.43328e-08
9.75893e-08
9.76994e-08
9.50495e-08
8.98223e-08
8.21715e-08
7.22492e-08
6.01504e-08
4.5857e-08
2.92276e-08
1.00261e-08
-1.20231e-08
-3.71678e-08
-6.55602e-08
-9.71823e-08
-1.31783e-07
-1.68834e-07
-2.07513e-07
-2.4674e-07
-2.85257e-07
-3.21713e-07
-3.54817e-07
-3.83421e-07
-4.06617e-07
-4.23797e-07
-4.34709e-07
-4.39771e-07
-4.36232e-07
-4.26955e-07
-4.12106e-07
-3.92057e-07
-3.67371e-07
-3.38652e-07
-3.06576e-07
-2.71857e-07
-2.35223e-07
-1.97374e-07
-1.59129e-07
-1.21083e-07
-8.41438e-08
-4.88682e-08
-1.607e-08
1.37692e-08
4.00031e-08
6.21632e-08
7.98006e-08
9.25136e-08
1.00559e-07
1.03964e-07
1.03776e-07
1.00499e-07
9.5338e-08
8.88728e-08
8.19637e-08
7.48563e-08
6.80081e-08
6.13318e-08
5.50327e-08
4.89235e-08
4.30642e-08
3.71696e-08
3.13592e-08
2.52624e-08
1.89228e-08
1.19777e-08
4.50192e-09
-3.33555e-07
-3.63937e-07
-3.89227e-07
-4.0876e-07
-4.22055e-07
-4.28885e-07
-4.28727e-07
-4.21572e-07
-4.07494e-07
-3.86756e-07
-3.59843e-07
-3.27542e-07
-2.91158e-07
-2.52279e-07
-2.1189e-07
-1.69972e-07
-1.26415e-07
-8.22291e-08
-3.96802e-08
-1.42635e-09
3.03282e-08
5.43283e-08
7.05488e-08
8.01103e-08
8.46558e-08
8.55836e-08
8.36775e-08
7.92084e-08
7.22084e-08
6.26467e-08
5.04647e-08
3.55401e-08
1.76607e-08
-3.45867e-09
-2.81174e-08
-5.65534e-08
-8.88532e-08
-1.24864e-07
-1.64135e-07
-2.0587e-07
-2.48966e-07
-2.92075e-07
-3.33725e-07
-3.72432e-07
-4.06872e-07
-4.35937e-07
-4.58813e-07
-4.75036e-07
-4.84348e-07
-4.86798e-07
-4.82386e-07
-4.71661e-07
-4.55175e-07
-4.33449e-07
-4.07116e-07
-3.76803e-07
-3.43204e-07
-3.07036e-07
-2.69077e-07
-2.30052e-07
-1.90774e-07
-1.51916e-07
-1.14204e-07
-7.83833e-08
-4.49315e-08
-1.44949e-08
1.26845e-08
3.60629e-08
5.53531e-08
6.99903e-08
8.00795e-08
8.55142e-08
8.71959e-08
8.57339e-08
8.23094e-08
7.77328e-08
7.28334e-08
6.79893e-08
6.34525e-08
5.9162e-08
5.49437e-08
5.06406e-08
4.60191e-08
4.08923e-08
3.523e-08
2.87886e-08
2.16525e-08
1.36164e-08
5.00049e-09
-4.29407e-07
-4.62227e-07
-4.89097e-07
-5.09229e-07
-5.22165e-07
-5.27318e-07
-5.24704e-07
-5.14326e-07
-4.96267e-07
-4.7083e-07
-4.38548e-07
-4.00381e-07
-3.57908e-07
-3.12892e-07
-2.66329e-07
-2.18186e-07
-1.68421e-07
-1.18172e-07
-6.98388e-08
-2.62337e-08
1.02405e-08
3.81081e-08
5.71773e-08
6.85712e-08
7.4161e-08
7.57125e-08
7.43335e-08
7.04369e-08
6.40127e-08
5.48999e-08
4.29125e-08
2.78477e-08
9.46435e-09
-1.25144e-08
-3.83591e-08
-6.82478e-08
-1.02173e-07
-1.39859e-07
-1.80709e-07
-2.23786e-07
-2.67881e-07
-3.11558e-07
-3.53306e-07
-3.91683e-07
-4.25429e-07
-4.53558e-07
-4.75403e-07
-4.90601e-07
-4.99056e-07
-5.00829e-07
-4.96228e-07
-4.85605e-07
-4.69445e-07
-4.48224e-07
-4.22527e-07
-3.92948e-07
-3.60148e-07
-3.24853e-07
-2.87792e-07
-2.49774e-07
-2.11492e-07
-1.73762e-07
-1.37179e-07
-1.02664e-07
-7.06905e-08
-4.18605e-08
-1.6218e-08
6.08434e-09
2.49639e-08
4.00768e-08
5.13703e-08
5.87171e-08
6.26877e-08
6.38981e-08
6.3294e-08
6.17883e-08
6.00795e-08
5.85623e-08
5.73291e-08
5.61793e-08
5.46904e-08
5.26755e-08
4.96048e-08
4.5496e-08
4.01033e-08
3.34305e-08
2.55126e-08
1.62196e-08
5.8975e-09
-4.89872e-07
-5.24094e-07
-5.51755e-07
-5.71996e-07
-5.84331e-07
-5.87891e-07
-5.8305e-07
-5.69804e-07
-5.48318e-07
-5.19076e-07
-4.8289e-07
-4.40985e-07
-3.94943e-07
-3.46175e-07
-2.953e-07
-2.42315e-07
-1.87629e-07
-1.32896e-07
-8.08065e-08
-3.42397e-08
4.46636e-09
3.3962e-08
5.41888e-08
6.63607e-08
7.24207e-08
7.42445e-08
7.30907e-08
6.94927e-08
6.34699e-08
5.48055e-08
4.32346e-08
2.85143e-08
1.0416e-08
-1.12804e-08
-3.67568e-08
-6.60998e-08
-9.92252e-08
-1.35804e-07
-1.75217e-07
-2.16543e-07
-2.58602e-07
-3.00047e-07
-3.395e-07
-3.75662e-07
-4.07405e-07
-4.33786e-07
-4.54228e-07
-4.68736e-07
-4.76864e-07
-4.78911e-07
-4.75007e-07
-4.6544e-07
-4.50746e-07
-4.31481e-07
-4.08274e-07
-3.81723e-07
-3.52386e-07
-3.20943e-07
-2.88023e-07
-2.54481e-07
-2.2088e-07
-1.87891e-07
-1.55835e-07
-1.25418e-07
-9.71296e-08
-7.15764e-08
-4.88603e-08
-2.89457e-08
-1.17191e-08
2.78664e-09
1.45826e-08
2.36481e-08
3.03778e-08
3.51916e-08
3.87531e-08
4.1763e-08
4.46365e-08
4.77062e-08
5.07075e-08
5.33901e-08
5.50525e-08
5.55059e-08
5.40244e-08
5.08642e-08
4.55516e-08
3.8409e-08
2.93934e-08
1.86019e-08
6.58912e-09
-4.67191e-07
-5.07519e-07
-5.42085e-07
-5.69729e-07
-5.8959e-07
-6.01043e-07
-6.03518e-07
-5.97093e-07
-5.81969e-07
-5.58544e-07
-5.27449e-07
-4.89572e-07
-4.46058e-07
-3.98125e-07
-3.46708e-07
-2.92307e-07
-2.35438e-07
-1.77366e-07
-1.2038e-07
-6.73177e-08
-2.08299e-08
1.71583e-08
4.57458e-08
6.5217e-08
7.69107e-08
8.27068e-08
8.4383e-08
8.31765e-08
7.96712e-08
7.39414e-08
6.57872e-08
5.4931e-08
4.11232e-08
2.41662e-08
3.91169e-09
-1.97317e-08
-4.67683e-08
-7.70588e-08
-1.10267e-07
-1.45826e-07
-1.82918e-07
-2.20531e-07
-2.57538e-07
-2.92768e-07
-3.2511e-07
-3.5359e-07
-3.77411e-07
-3.96223e-07
-4.09808e-07
-4.18044e-07
-4.20782e-07
-4.18321e-07
-4.10958e-07
-3.99078e-07
-3.83184e-07
-3.64034e-07
-3.42464e-07
-3.19205e-07
-2.94845e-07
-2.69712e-07
-2.44384e-07
-2.19343e-07
-1.95294e-07
-1.72439e-07
-1.50975e-07
-1.30681e-07
-1.11572e-07
-9.35287e-08
-7.65755e-08
-6.06923e-08
-4.59279e-08
-3.23709e-08
-2.00925e-08
-8.98665e-09
1.10902e-09
1.05163e-08
1.9549e-08
2.83008e-08
3.68171e-08
4.4492e-08
5.10022e-08
5.54683e-08
5.79006e-08
5.75633e-08
5.49818e-08
4.95729e-08
4.20626e-08
3.21863e-08
2.03552e-08
7.07463e-09
-4.38194e-07
-4.77754e-07
-5.11744e-07
-5.38965e-07
-5.58545e-07
-5.70193e-07
-5.7205e-07
-5.65155e-07
-5.49558e-07
-5.25596e-07
-4.93883e-07
-4.55238e-07
-4.10634e-07
-3.61058e-07
-3.07402e-07
-2.50597e-07
-1.92009e-07
-1.33702e-07
-7.82494e-08
-2.8195e-08
1.4447e-08
4.847e-08
7.35905e-08
9.04575e-08
1.00445e-07
1.05232e-07
1.06353e-07
1.04894e-07
1.01411e-07
9.6023e-08
8.85751e-08
7.8816e-08
6.65067e-08
5.14697e-08
3.36038e-08
1.28814e-08
-1.06349e-08
-3.6764e-08
-6.51941e-08
-9.54456e-08
-1.2687e-07
-1.58673e-07
-1.89979e-07
-2.19895e-07
-2.47511e-07
-2.71945e-07
-2.92797e-07
-3.10073e-07
-3.22498e-07
-3.30293e-07
-3.33547e-07
-3.32881e-07
-3.28791e-07
-3.21749e-07
-3.12018e-07
-2.99833e-07
-2.85627e-07
-2.7032e-07
-2.54997e-07
-2.40347e-07
-2.26687e-07
-2.13836e-07
-2.01816e-07
-1.9057e-07
-1.80265e-07
-1.70407e-07
-1.60354e-07
-1.4916e-07
-1.36394e-07
-1.21931e-07
-1.06018e-07
-8.90444e-08
-7.14757e-08
-5.38792e-08
-3.64392e-08
-1.97673e-08
-3.49536e-09
1.19006e-08
2.59587e-08
3.79685e-08
4.77064e-08
5.43834e-08
5.82387e-08
5.87241e-08
5.65703e-08
5.11921e-08
4.36168e-08
3.3271e-08
2.09869e-08
7.08797e-09
-3.65407e-07
-4.01717e-07
-4.32988e-07
-4.58017e-07
-4.75849e-07
-4.86216e-07
-4.878e-07
-4.80668e-07
-4.64934e-07
-4.40941e-07
-4.09273e-07
-3.70725e-07
-3.26253e-07
-2.76957e-07
-2.24119e-07
-1.69315e-07
-1.14482e-07
-6.18024e-08
-1.3407e-08
2.89411e-08
6.40649e-08
9.1456e-08
1.11292e-07
1.24373e-07
1.31925e-07
1.35304e-07
1.35707e-07
1.33994e-07
1.3063e-07
1.25746e-07
1.1925e-07
1.1094e-07
1.00608e-07
8.80951e-08
7.3314e-08
5.62593e-08
3.70171e-08
1.57656e-08
-7.21991e-09
-3.15496e-08
-5.67265e-08
-8.21587e-08
-1.07212e-07
-1.31234e-07
-1.53534e-07
-1.73624e-07
-1.91611e-07
-2.05987e-07
-2.17328e-07
-2.25242e-07
-2.29761e-07
-2.3097e-07
-2.29261e-07
-2.25663e-07
-2.21348e-07
-2.17095e-07
-2.12951e-07
-2.08679e-07
-2.04494e-07
-2.01437e-07
-2.00711e-07
-2.02608e-07
-2.06463e-07
-2.10885e-07
-2.14487e-07
-2.15778e-07
-2.14028e-07
-2.08512e-07
-1.98759e-07
-1.84288e-07
-1.65576e-07
-1.43599e-07
-1.19376e-07
-9.48068e-08
-7.02408e-08
-4.60643e-08
-2.34294e-08
-2.81715e-09
1.5253e-08
3.02561e-08
4.19345e-08
4.99759e-08
5.47392e-08
5.59044e-08
5.43064e-08
4.94048e-08
4.23017e-08
3.21714e-08
2.03089e-08
6.63695e-09
-2.61755e-07
-2.91713e-07
-3.17247e-07
-3.37269e-07
-3.50822e-07
-3.57294e-07
-3.568e-07
-3.48688e-07
-3.32994e-07
-3.10068e-07
-2.80498e-07
-2.45106e-07
-2.04937e-07
-1.61238e-07
-1.15454e-07
-6.92023e-08
-2.41889e-08
1.79371e-08
5.57545e-08
8.82108e-08
1.14696e-07
1.35068e-07
1.49636e-07
1.5909e-07
1.6436e-07
1.66428e-07
1.66167e-07
1.64226e-07
1.61006e-07
1.56675e-07
1.51229e-07
1.44561e-07
1.36528e-07
1.26999e-07
1.1588e-07
1.03142e-07
8.88221e-08
7.30282e-08
5.59419e-08
3.78248e-08
1.90127e-08
-9.31762e-11
-1.90483e-08
-3.73099e-08
-5.43824e-08
-7.01366e-08
-8.39209e-08
-9.5995e-08
-1.05563e-07
-1.13022e-07
-1.18947e-07
-1.23432e-07
-1.26134e-07
-1.26875e-07
-1.26296e-07
-1.2626e-07
-1.28986e-07
-1.35375e-07
-1.44468e-07
-1.55365e-07
-1.68209e-07
-1.83158e-07
-1.99835e-07
-2.17634e-07
-2.34935e-07
-2.48238e-07
-2.54187e-07
-2.51389e-07
-2.40715e-07
-2.23393e-07
-2.01043e-07
-1.75028e-07
-1.4717e-07
-1.17961e-07
-8.93017e-08
-6.19797e-08
-3.67245e-08
-1.42141e-08
5.09103e-09
2.08471e-08
3.2979e-08
4.15573e-08
4.68223e-08
4.88211e-08
4.8184e-08
4.43564e-08
3.84083e-08
2.92879e-08
1.85883e-08
5.84579e-09
-1.52077e-07
-1.74588e-07
-1.93388e-07
-2.07642e-07
-2.16544e-07
-2.19161e-07
-2.16552e-07
-2.08158e-07
-1.93941e-07
-1.74155e-07
-1.49298e-07
-1.20104e-07
-8.75159e-08
-5.26544e-08
-1.67624e-08
1.88708e-08
5.29993e-08
8.45116e-08
1.12506e-07
1.36348e-07
1.55703e-07
1.70541e-07
1.81127e-07
1.87959e-07
1.91682e-07
1.92981e-07
1.92485e-07
1.90696e-07
1.87962e-07
1.84474e-07
1.80307e-07
1.75448e-07
1.69831e-07
1.63358e-07
1.55926e-07
1.47479e-07
1.37997e-07
1.27484e-07
1.16013e-07
1.03745e-07
9.08816e-08
7.76416e-08
6.43169e-08
5.1265e-08
3.86004e-08
2.61551e-08
1.46543e-08
4.51581e-09
-3.9111e-09
-1.0537e-08
-1.55717e-08
-1.99873e-08
-2.50071e-08
-3.10599e-08
-3.736e-08
-4.30674e-08
-4.91803e-08
-5.83801e-08
-7.27635e-08
-9.28669e-08
-1.17594e-07
-1.44185e-07
-1.69429e-07
-1.9184e-07
-2.11189e-07
-2.26332e-07
-2.3513e-07
-2.35772e-07
-2.27971e-07
-2.12685e-07
-1.92656e-07
-1.68022e-07
-1.41773e-07
-1.15036e-07
-8.89504e-08
-6.42057e-08
-4.14796e-08
-2.12006e-08
-3.71063e-09
1.08028e-08
2.22397e-08
3.06385e-08
3.62001e-08
3.8996e-08
3.94189e-08
3.70539e-08
3.26968e-08
2.51946e-08
1.6213e-08
4.89183e-09
-5.89006e-08
-7.48861e-08
-8.78994e-08
-9.73154e-08
-1.02438e-07
-1.03498e-07
-1.00324e-07
-9.26832e-08
-8.06586e-08
-6.45278e-08
-4.4761e-08
-2.19941e-08
3.00609e-09
2.93861e-08
5.6247e-08
8.2692e-08
1.07879e-07
1.31068e-07
1.51666e-07
1.69255e-07
1.83617e-07
1.94733e-07
2.02772e-07
2.08058e-07
2.11019e-07
2.12121e-07
2.11819e-07
2.10505e-07
2.08495e-07
2.0602e-07
2.03229e-07
2.00182e-07
1.96865e-07
1.93218e-07
1.89183e-07
1.84675e-07
1.79565e-07
1.73723e-07
1.67113e-07
1.59753e-07
1.51629e-07
1.42866e-07
1.33774e-07
1.24483e-07
1.15061e-07
1.06028e-07
9.7501e-08
8.92708e-08
8.07197e-08
7.20402e-08
6.43059e-08
5.83166e-08
5.36686e-08
4.88436e-08
4.16934e-08
3.08216e-08
1.71836e-08
3.28754e-09
-1.03843e-08
-2.6783e-08
-4.88513e-08
-7.57353e-08
-1.03483e-07
-1.28465e-07
-1.48613e-07
-1.62692e-07
-1.70043e-07
-1.70843e-07
-1.66049e-07
-1.56699e-07
-1.43369e-07
-1.2809e-07
-1.11298e-07
-9.34657e-08
-7.53641e-08
-5.74645e-08
-4.04127e-08
-2.45671e-08
-1.03866e-08
1.85903e-09
1.19108e-08
1.96603e-08
2.52028e-08
2.84794e-08
2.98087e-08
2.87919e-08
2.60116e-08
2.04615e-08
1.3489e-08
4.04094e-09
1.09598e-08
-2.97479e-10
-9.29874e-09
-1.56591e-08
-1.91643e-08
-1.92222e-08
-1.60247e-08
-9.57347e-09
3.80641e-11
1.25871e-08
2.77236e-08
4.49824e-08
6.38054e-08
8.35715e-08
1.03632e-07
1.23346e-07
1.4212e-07
1.59438e-07
1.74893e-07
1.88203e-07
1.99222e-07
2.0794e-07
2.14471e-07
2.19026e-07
2.21885e-07
2.23363e-07
2.23779e-07
2.23428e-07
2.22566e-07
2.214e-07
2.20073e-07
2.1867e-07
2.1723e-07
2.15767e-07
2.14243e-07
2.1254e-07
2.10516e-07
2.08062e-07
2.05075e-07
2.01372e-07
1.96796e-07
1.91433e-07
1.85544e-07
1.79042e-07
1.7139e-07
1.62901e-07
1.54516e-07
1.46834e-07
1.39502e-07
1.31996e-07
1.23928e-07
1.14483e-07
1.0372e-07
9.38771e-08
8.73721e-08
8.19309e-08
7.1733e-08
5.41179e-08
3.19944e-08
8.92801e-09
-1.35971e-08
-3.47938e-08
-5.40052e-08
-7.09746e-08
-8.56015e-08
-9.75318e-08
-1.06225e-07
-1.11253e-07
-1.12521e-07
-1.10152e-07
-1.04402e-07
-9.65219e-08
-8.6639e-08
-7.53463e-08
-6.32577e-08
-5.07688e-08
-3.83556e-08
-2.63469e-08
-1.51921e-08
-5.20647e-09
3.31828e-09
1.01645e-08
1.53173e-08
1.86789e-08
2.04832e-08
2.04211e-08
1.89168e-08
1.5216e-08
1.02881e-08
3.1193e-09
6.12847e-08
5.33293e-08
4.71393e-08
4.29625e-08
4.07059e-08
4.08846e-08
4.35048e-08
4.85566e-08
5.59381e-08
6.54621e-08
7.68563e-08
8.97711e-08
1.03795e-07
1.18478e-07
1.33353e-07
1.47965e-07
1.61895e-07
1.7479e-07
1.8638e-07
1.96489e-07
2.05036e-07
2.1203e-07
2.17551e-07
2.2174e-07
2.24776e-07
2.26861e-07
2.28201e-07
2.28997e-07
2.29433e-07
2.29679e-07
2.29875e-07
2.30124e-07
2.3047e-07
2.30903e-07
2.31361e-07
2.3174e-07
2.31899e-07
2.31614e-07
2.30525e-07
2.28254e-07
2.24938e-07
2.21233e-07
2.17536e-07
2.13241e-07
2.07419e-07
2.00221e-07
1.92507e-07
1.84256e-07
1.74255e-07
1.62666e-07
1.52223e-07
1.44525e-07
1.36695e-07
1.24971e-07
1.08972e-07
9.12462e-08
7.39186e-08
5.7531e-08
4.13472e-08
2.48679e-08
8.16796e-09
-8.53983e-09
-2.47739e-08
-3.98599e-08
-5.32038e-08
-6.43402e-08
-7.29104e-08
-7.86973e-08
-8.16875e-08
-8.20091e-08
-7.99344e-08
-7.57924e-08
-6.99626e-08
-6.27351e-08
-5.44892e-08
-4.5546e-08
-3.62919e-08
-2.70617e-08
-1.82366e-08
-1.015e-08
-3.0889e-09
2.74183e-09
7.24408e-09
1.03466e-08
1.21981e-08
1.26173e-08
1.19465e-08
9.69991e-09
6.62555e-09
1.94983e-09
9.58455e-08
9.03341e-08
8.62234e-08
8.33226e-08
8.20041e-08
8.237e-08
8.44859e-08
8.83473e-08
9.38839e-08
1.00959e-07
1.09373e-07
1.18868e-07
1.29146e-07
1.39889e-07
1.50772e-07
1.61488e-07
1.71759e-07
1.81363e-07
1.90139e-07
1.9799e-07
2.04879e-07
2.10814e-07
2.15837e-07
2.20017e-07
2.23444e-07
2.26216e-07
2.28439e-07
2.30222e-07
2.31663e-07
2.32882e-07
2.33997e-07
2.35114e-07
2.36325e-07
2.37716e-07
2.39342e-07
2.41167e-07
2.43004e-07
2.44389e-07
2.44892e-07
2.43775e-07
2.417e-07
2.39377e-07
2.36874e-07
2.3297e-07
2.25864e-07
2.16051e-07
2.06318e-07
1.98764e-07
1.92109e-07
1.83257e-07
1.70801e-07
1.55616e-07
1.3905e-07
1.22906e-07
1.08002e-07
9.35675e-08
7.87977e-08
6.33795e-08
4.75181e-08
3.15398e-08
1.5747e-08
5.19802e-10
-1.37039e-08
-2.65666e-08
-3.78307e-08
-4.73267e-08
-5.49203e-08
-6.05168e-08
-6.40983e-08
-6.57041e-08
-6.5444e-08
-6.33886e-08
-5.98547e-08
-5.49779e-08
-4.90323e-08
-4.22772e-08
-3.50708e-08
-2.77311e-08
-2.06113e-08
-1.39988e-08
-8.13983e-09
-3.22761e-09
7.10651e-10
3.55636e-09
5.43376e-09
6.22145e-09
6.21788e-09
5.1184e-09
3.58221e-09
9.97176e-10
1.18844e-07
1.14859e-07
1.1166e-07
1.09677e-07
1.08931e-07
1.09457e-07
1.11256e-07
1.14306e-07
1.18543e-07
1.23861e-07
1.30111e-07
1.37111e-07
1.44657e-07
1.52536e-07
1.60535e-07
1.68438e-07
1.76035e-07
1.83191e-07
1.89841e-07
1.95978e-07
2.01621e-07
2.06793e-07
2.1151e-07
2.15782e-07
2.19627e-07
2.23062e-07
2.26102e-07
2.28804e-07
2.31231e-07
2.33458e-07
2.35555e-07
2.376e-07
2.39716e-07
2.4201e-07
2.44519e-07
2.47185e-07
2.49549e-07
2.50748e-07
2.49718e-07
2.46847e-07
2.43179e-07
2.40834e-07
2.40436e-07
2.4018e-07
2.3738e-07
2.3046e-07
2.20489e-07
2.09001e-07
1.9612e-07
1.8209e-07
1.68099e-07
1.547e-07
1.41721e-07
1.281e-07
1.13312e-07
9.75615e-08
8.11424e-08
6.45394e-08
4.83055e-08
3.27931e-08
1.80874e-08
4.2069e-09
-8.72974e-09
-2.05137e-08
-3.09226e-08
-3.97754e-08
-4.69533e-08
-5.24021e-08
-5.6126e-08
-5.81426e-08
-5.84715e-08
-5.74036e-08
-5.48698e-08
-5.10849e-08
-4.62835e-08
-4.06968e-08
-3.468e-08
-2.85215e-08
-2.25615e-08
-1.70247e-08
-1.21147e-08
-7.93372e-09
-4.50904e-09
-1.89147e-09
3.20583e-11
1.17021e-09
1.80397e-09
1.6856e-09
1.34577e-09
3.13333e-10
1.34872e-07
1.31332e-07
1.28712e-07
1.27089e-07
1.26457e-07
1.26847e-07
1.28222e-07
1.30552e-07
1.33791e-07
1.37845e-07
1.42592e-07
1.47893e-07
1.53606e-07
1.59588e-07
1.65689e-07
1.71784e-07
1.77749e-07
1.83485e-07
1.88976e-07
1.94246e-07
1.9929e-07
2.04106e-07
2.08673e-07
2.12965e-07
2.16974e-07
2.20725e-07
2.23975e-07
2.26756e-07
2.28921e-07
2.30424e-07
2.31463e-07
2.32544e-07
2.34374e-07
2.37524e-07
2.41802e-07
2.46829e-07
2.51534e-07
2.54714e-07
2.55414e-07
2.53669e-07
2.50697e-07
2.47957e-07
2.45717e-07
2.42525e-07
2.36403e-07
2.27279e-07
2.16805e-07
2.06465e-07
1.96669e-07
1.86346e-07
1.74191e-07
1.60147e-07
1.44538e-07
1.2799e-07
1.11376e-07
9.52351e-08
7.9552e-08
6.41031e-08
4.88323e-08
3.38777e-08
1.94813e-08
5.89926e-09
-6.62943e-09
-1.79004e-08
-2.77589e-08
-3.60992e-08
-4.28628e-08
-4.80381e-08
-5.16337e-08
-5.36748e-08
-5.43599e-08
-5.35964e-08
-5.15625e-08
-4.83899e-08
-4.43016e-08
-3.95102e-08
-3.43453e-08
-2.90412e-08
-2.39219e-08
-1.91425e-08
-1.49104e-08
-1.1259e-08
-8.24553e-09
-5.85094e-09
-3.98215e-09
-2.65817e-09
-1.63763e-09
-1.05492e-09
-5.08224e-10
-2.54295e-10
1.45917e-07
1.43124e-07
1.41179e-07
1.39982e-07
1.39606e-07
1.40168e-07
1.4133e-07
1.43097e-07
1.45587e-07
1.48636e-07
1.52171e-07
1.56096e-07
1.60287e-07
1.64608e-07
1.68931e-07
1.73038e-07
1.7683e-07
1.80363e-07
1.83844e-07
1.87593e-07
1.91888e-07
1.96771e-07
2.02059e-07
2.07441e-07
2.12571e-07
2.17125e-07
2.21147e-07
2.24396e-07
2.26868e-07
2.28694e-07
2.30195e-07
2.31852e-07
2.34309e-07
2.37679e-07
2.42309e-07
2.47119e-07
2.50838e-07
2.5217e-07
2.50782e-07
2.47357e-07
2.43447e-07
2.40554e-07
2.39037e-07
2.37504e-07
2.34573e-07
2.28957e-07