/*--------------------------------*- C++ -*----------------------------------*\
| =========                 |                                                 |
| \\      /  F ield         | OpenFOAM: The Open Source CFD Toolbox           |
|  \\    /   O peration     | Version:  2312                                  |
|   \\  /    A nd           | Website:  www.openfoam.com                      |
|    \\/     M anipulation  |                                                 |
\*---------------------------------------------------------------------------*/
FoamFile
{
    version     2.0;
    format      ascii;
    arch        "LSB;label=32;scalar=64";
    class       surfaceScalarField;
    location    "101000";
    object      phi;
}
// * * * * * * * * * * * * * * * * * * * * * * * * * * * * * * * * * * * * * //

dimensions      [0 3 -1 0 0 0 0];

oriented        oriented;

internalField   nonuniform List<scalar> 
5250
(
0.000499894
2.2114e-06
0.000494322
5.57176e-06
0.000486137
8.18559e-06
0.000475383
1.0754e-05
0.000462251
1.31321e-05
0.000447099
1.51515e-05
0.000430286
1.6813e-05
0.000412087
1.81989e-05
0.00039268
1.94074e-05
0.000372185
2.04949e-05
0.000350708
2.14772e-05
0.000328353
2.23542e-05
0.000305231
2.3122e-05
0.000281457
2.37743e-05
0.000257155
2.43021e-05
0.000232463
2.46922e-05
0.000207533
2.49294e-05
0.000182539
2.49943e-05
0.000157673
2.4866e-05
0.000133155
2.45183e-05
0.000109231
2.39236e-05
8.61922e-05
2.30391e-05
6.44019e-05
2.17902e-05
4.4309e-05
2.00929e-05
2.63732e-05
1.79358e-05
1.09497e-05
1.54235e-05
-1.76799e-06
1.27177e-05
-1.17479e-05
9.97994e-06
-1.90621e-05
7.31417e-06
-2.38017e-05
4.73959e-06
-2.63868e-05
2.58507e-06
-2.71773e-05
7.90569e-07
-2.64708e-05
-7.06564e-07
-2.45521e-05
-1.9187e-06
-2.18127e-05
-2.73934e-06
-1.86147e-05
-3.19801e-06
-1.5287e-05
-3.3277e-06
-1.21117e-05
-3.17534e-06
-9.3136e-06
-2.79807e-06
-7.05335e-06
-2.26026e-06
-5.4322e-06
-1.62114e-06
-4.4965e-06
-9.35702e-07
-4.24545e-06
-2.51053e-07
-4.59639e-06
3.50942e-07
-5.53578e-06
9.39389e-07
-6.95702e-06
1.42124e-06
-8.70454e-06
1.74752e-06
-1.05996e-05
1.89505e-06
-1.24823e-05
1.88273e-06
-1.42309e-05
1.74854e-06
-1.57567e-05
1.52589e-06
-1.69988e-05
1.24203e-06
-1.79231e-05
9.24373e-07
-1.85244e-05
6.01208e-07
-1.88213e-05
2.9699e-07
-1.88382e-05
1.68158e-08
-1.86812e-05
-1.56937e-07
-1.83898e-05
-2.91476e-07
-1.80094e-05
-3.80363e-07
-1.75839e-05
-4.25521e-07
-1.71517e-05
-4.32186e-07
-1.67454e-05
-4.06268e-07
-1.63924e-05
-3.52996e-07
-1.61157e-05
-2.76692e-07
-1.59274e-05
-1.88322e-07
-1.585e-05
-7.74078e-08
-1.58907e-05
4.067e-08
-1.60449e-05
1.54222e-07
-1.6316e-05
2.71112e-07
-1.67058e-05
3.89803e-07
-1.72158e-05
5.09998e-07
-1.78478e-05
6.3201e-07
-1.86051e-05
7.57337e-07
-1.94921e-05
8.86967e-07
-2.05132e-05
1.02109e-06
-2.1673e-05
1.15984e-06
-2.29764e-05
1.30336e-06
-2.44278e-05
1.45135e-06
-2.60305e-05
1.60271e-06
-2.77859e-05
1.75548e-06
-2.96929e-05
1.907e-06
-3.17471e-05
2.05411e-06
-3.39404e-05
2.1933e-06
-3.62608e-05
2.32045e-06
-3.86917e-05
2.43089e-06
-4.12117e-05
2.52001e-06
-4.37962e-05
2.58449e-06
-4.64222e-05
2.62606e-06
-4.90559e-05
2.63366e-06
2.59238e-06
0.000885075
1.01595e-05
0.00087707
1.35766e-05
0.000868738
1.65176e-05
0.000860153
1.93388e-05
0.000851191
2.20945e-05
0.00084161
2.47319e-05
0.00083122
2.72031e-05
0.000819933
2.94862e-05
0.00080775
3.15899e-05
0.0007947
3.35449e-05
0.000780803
3.53747e-05
0.000766074
3.70825e-05
0.000750539
3.86578e-05
0.000734231
4.00822e-05
0.000717197
4.13359e-05
0.000699489
4.24002e-05
0.00068116
4.32583e-05
0.000662263
4.38911e-05
0.000642852
4.42776e-05
0.000622975
4.43953e-05
0.000602677
4.42211e-05
0.000581981
4.3735e-05
0.000560851
4.292e-05
0.000539172
4.17729e-05
0.000516802
4.03056e-05
0.000493661
3.8564e-05
0.000469775
3.66038e-05
0.000445246
3.45086e-05
0.000420214
3.2347e-05
0.000394733
3.02205e-05
0.000368893
2.84247e-05
0.000343124
2.65593e-05
0.000317724
2.46938e-05
0.000292842
2.29628e-05
0.0002687
2.14034e-05
0.000245486
2.00157e-05
0.000223385
1.87734e-05
0.00020257
1.764e-05
0.000183191
1.65809e-05
0.000165363
1.5567e-05
0.000149161
1.45809e-05
0.000134613
1.36126e-05
0.000121706
1.26558e-05
0.000110338
1.1719e-05
0.000100474
1.08039e-05
9.20792e-05
9.81556e-06
8.49317e-05
8.8951e-06
7.88347e-05
7.99201e-06
7.36327e-05
7.08475e-06
6.91858e-05
6.1954e-06
6.53733e-05
5.3384e-06
6.20948e-05
4.5205e-06
5.92684e-05
3.75081e-06
5.68264e-05
3.04326e-06
5.471e-05
2.41334e-06
5.28545e-05
1.87238e-06
5.12727e-05
1.42481e-06
4.99123e-05
1.06897e-06
4.87327e-05
7.99166e-07
4.77004e-05
6.06766e-07
4.67865e-05
4.81733e-07
4.59658e-05
4.14429e-07
4.52154e-05
3.97386e-07
4.45019e-05
4.36894e-07
4.38133e-05
5.00195e-07
4.31544e-05
5.81565e-07
4.25182e-05
6.76801e-07
4.18908e-05
7.81695e-07
4.12686e-05
8.93247e-07
4.06511e-05
1.00729e-06
4.0039e-05
1.1221e-06
3.94315e-05
1.23953e-06
3.88274e-05
1.36144e-06
3.8226e-05
1.48836e-06
3.76264e-05
1.62075e-06
3.7026e-05
1.76023e-06
3.64209e-05
1.90843e-06
3.5807e-05
2.06526e-06
3.51814e-05
2.22834e-06
3.45436e-05
2.39327e-06
3.38964e-05
2.55419e-06
3.32458e-05
2.70469e-06
3.25999e-05
2.83921e-06
3.1968e-05
2.95232e-06
3.1363e-05
3.03597e-06
3.08018e-05
3.08116e-06
3.03062e-05
3.08013e-06
2.99067e-05
3.02547e-06
2.96351e-05
2.90534e-06
2.70524e-06
0.00103656
1.46812e-05
0.00103197
1.81659e-05
0.00102701
2.14851e-05
0.00102176
2.45845e-05
0.00101632
2.75314e-05
0.00101067
3.03818e-05
0.00100472
3.31565e-05
0.000998362
3.58442e-05
0.000991529
3.84227e-05
0.000984199
4.08749e-05
0.000976383
4.31909e-05
0.000968101
4.53644e-05
0.000959369
4.73891e-05
0.000950195
4.92565e-05
0.000940577
5.09538e-05
0.000930511
5.24668e-05
0.000919991
5.3778e-05
0.00090901
5.48714e-05
0.000897559
5.57291e-05
0.000885617
5.6337e-05
0.000873158
5.66804e-05
0.000860143
5.67501e-05
0.000846527
5.65359e-05
0.000832265
5.60348e-05
0.000817322
5.52485e-05
0.000801689
5.41977e-05
0.000785371
5.29209e-05
0.000768406
5.14739e-05
0.000750832
4.99209e-05
0.000732732
4.83206e-05
0.000714443
4.67143e-05
0.000695908
4.50936e-05
0.000677266
4.33359e-05
0.000658452
4.17773e-05
0.000639513
4.03425e-05
0.000620531
3.89972e-05
0.000601581
3.77237e-05
0.000582721
3.64996e-05
0.000564001
3.53009e-05
0.000545465
3.41038e-05
0.000527153
3.2893e-05
0.000509107
3.16579e-05
0.000491369
3.0394e-05
0.000473986
2.91017e-05
0.000456999
2.77915e-05
0.000440262
2.65523e-05
0.000423923
2.52337e-05
0.00040807
2.3845e-05
0.000392714
2.24411e-05
0.000377865
2.10441e-05
0.000363537
1.96669e-05
0.000349739
1.83184e-05
0.000336483
1.70071e-05
0.000323784
1.57419e-05
0.000311666
1.4532e-05
0.000300153
1.33847e-05
0.000289272
1.23059e-05
0.000279043
1.12976e-05
0.000269483
1.03597e-05
0.000260599
9.49052e-06
0.000252393
8.68753e-06
0.00024486
7.94789e-06
0.000237989
7.26858e-06
0.000231781
6.64477e-06
0.000226209
6.0716e-06
0.000221246
5.54485e-06
0.000216862
5.06138e-06
0.000213025
4.6182e-06
0.000209707
4.21118e-06
0.000206879
3.83548e-06
0.000204514
3.48752e-06
0.000202596
3.1575e-06
0.000201077
2.87988e-06
0.000199926
2.63904e-06
0.000199117
2.42982e-06
0.000198626
2.25139e-06
0.000198432
2.10282e-06
0.000198515
1.98216e-06
0.000198858
1.88569e-06
0.000199444
1.80705e-06
0.000200258
1.74001e-06
0.000201285
1.67774e-06
0.000202508
1.61647e-06
0.000203912
1.54796e-06
0.000205494
1.45357e-06
0.000207252
1.32341e-06
0.000209181
1.1509e-06
0.00021128
9.27119e-07
0.000213555
6.29858e-07
2.35178e-07
0.00110299
1.86098e-05
0.00109946
2.17003e-05
0.00109605
2.48951e-05
0.0010926
2.80271e-05
0.00108908
3.10563e-05
0.00108546
3.40008e-05
0.00108174
3.68735e-05
0.00107791
3.96764e-05
0.00107393
4.23997e-05
0.00106978
4.50294e-05
0.00106543
4.75361e-05
0.0010609
4.99017e-05
0.00105616
5.21228e-05
0.00105123
5.41917e-05
0.00104608
5.60977e-05
0.00104072
5.78294e-05
0.00103512
5.9374e-05
0.00102928
6.07191e-05
0.00102315
6.18522e-05
0.00101673
6.27618e-05
0.00100997
6.34367e-05
0.00100285
6.38687e-05
0.000995335
6.40544e-05
0.000987376
6.39942e-05
0.000978929
6.36949e-05
0.00096996
6.31668e-05
0.000960467
6.2414e-05
0.000950478
6.14636e-05
0.000939995
6.04039e-05
0.000929067
5.92477e-05
0.000917758
5.80236e-05
0.000906095
5.6757e-05
0.000893962
5.54686e-05
0.00088156
5.41795e-05
0.000869001
5.29017e-05
0.000856359
5.16387e-05
0.00084368
5.04034e-05
0.000830971
4.92077e-05
0.000818311
4.79609e-05
0.000805735
4.66799e-05
0.000793252
4.53765e-05
0.000780859
4.40511e-05
0.000768549
4.27034e-05
0.000756317
4.13336e-05
0.000744163
3.99461e-05
0.000732172
3.85428e-05
0.000720306
3.70998e-05
0.000708581
3.55698e-05
0.000696969
3.4053e-05
0.00068545
3.25634e-05
0.000674025
3.10919e-05
0.000662703
2.96404e-05
0.000651496
2.82136e-05
0.000640421
2.68173e-05
0.000629496
2.5457e-05
0.000618744
2.41371e-05
0.000608188
2.28611e-05
0.000597855
2.16311e-05
0.000587767
2.04479e-05
0.000577946
1.93112e-05
0.000568413
1.82201e-05
0.000559188
1.71731e-05
0.000550288
1.61686e-05
0.000541728
1.52049e-05
0.000533519
1.42802e-05
0.000525672
1.33926e-05
0.000518189
1.2544e-05
0.000511056
1.17513e-05
0.000504286
1.09813e-05
0.000497895
1.02267e-05
0.000491883
9.4988e-06
0.000486241
8.79996e-06
0.000480989
8.13134e-06
0.000476136
7.49243e-06
0.000471685
6.88128e-06
0.000467639
6.29655e-06
0.000464006
5.73632e-06
0.00046079
5.19818e-06
0.000457996
4.67986e-06
0.000455627
4.17601e-06
0.000453685
3.68199e-06
0.000452169
3.193e-06
0.000451086
2.70017e-06
0.000450435
2.19831e-06
0.00045021
1.67943e-06
0.000450403
1.13026e-06
0.000451008
5.45594e-07
0.000452016
-8.09693e-08
0.000453368
-7.21859e-07
-1.44249e-06
0.00108957
2.1294e-05
0.00108714
2.41355e-05
0.00108489
2.71372e-05
0.0010827
3.0221e-05
0.00108045
3.33023e-05
0.00107813
3.63227e-05
0.00107575
3.92554e-05
0.00107333
4.20929e-05
0.0010709
4.48321e-05
0.00106846
4.74667e-05
0.00106602
4.99846e-05
0.00106355
5.2372e-05
0.00106105
5.46161e-05
0.00105854
5.67063e-05
0.001056
5.86329e-05
0.00105344
6.03875e-05
0.00105086
6.1962e-05
0.00104823
6.33489e-05
0.00104554
6.45431e-05
0.00104275
6.55448e-05
0.00103985
6.63351e-05
0.00103681
6.69087e-05
0.0010336
6.72691e-05
0.00103017
6.74193e-05
0.00102651
6.73646e-05
0.00102256
6.71142e-05
0.00101829
6.66815e-05
0.00101367
6.6087e-05
0.00100871
6.53573e-05
0.00100345
6.45159e-05
0.000997884
6.35853e-05
0.000992054
6.25867e-05
0.000985987
6.1535e-05
0.000979732
6.04353e-05
0.000973335
5.92987e-05
0.000966836
5.81369e-05
0.000960281
5.69587e-05
0.000953725
5.57641e-05
0.000947147
5.45387e-05
0.000940568
5.32591e-05
0.000933999
5.1945e-05
0.000927428
5.06228e-05
0.00092085
4.92809e-05
0.000914268
4.79162e-05
0.000907687
4.65269e-05
0.000901115
4.51141e-05
0.000894534
4.36808e-05
0.000887874
4.22303e-05
0.000881157
4.07701e-05
0.000874412
3.93083e-05
0.000867654
3.78499e-05
0.000860895
3.63993e-05
0.000854148
3.49609e-05
0.000847425
3.354e-05
0.00084074
3.21421e-05
0.000834105
3.0772e-05
0.000827533
2.94336e-05
0.000821034
2.81295e-05
0.000814621
2.68614e-05
0.000808302
2.56296e-05
0.000802088
2.44342e-05
0.000795987
2.32745e-05
0.000790005
2.21503e-05
0.000784149
2.10607e-05
0.000778424
2.0005e-05
0.000772835
1.8982e-05
0.000767389
1.79904e-05
0.000762112
1.70281e-05
0.000757002
1.6091e-05
0.000752053
1.51754e-05
0.00074727
1.42819e-05
0.00074266
1.34107e-05
0.000738229
1.25616e-05
0.000733988
1.17337e-05
0.000729944
1.09255e-05
0.000726106
1.01349e-05
0.000722483
9.35912e-06
0.000719086
8.59508e-06
0.000715926
7.83974e-06
0.000713013
7.08934e-06
0.000710355
6.3395e-06
0.000707962
5.58583e-06
0.000705839
4.82316e-06
0.000703991
4.04637e-06
0.00070242
3.25103e-06
0.000701119
2.43066e-06
0.000700082
1.58263e-06
0.000699295
7.06025e-07
0.00069879
-2.1696e-07
-1.22184e-06
0.00110095
2.37183e-05
0.00109811
2.69767e-05
0.00109496
3.02797e-05
0.00109159
3.3593e-05
0.00108802
3.68774e-05
0.00108425
4.00949e-05
0.00108029
4.32149e-05
0.00107616
4.62176e-05
0.0010719
4.90892e-05
0.00106755
5.18187e-05
0.00106314
5.43959e-05
0.0010587
5.68099e-05
0.00105427
5.90502e-05
0.00104987
6.1107e-05
0.00104553
6.29724e-05
0.00104128
6.46402e-05
0.00103713
6.61057e-05
0.00103311
6.73663e-05
0.00102924
6.84203e-05
0.00102551
6.92675e-05
0.00102194
6.9908e-05
0.00101851
7.03439e-05
0.0010152
7.05803e-05
0.00101199
7.06246e-05
0.00100887
7.04864e-05
0.00100581
7.01773e-05
0.00100277
6.97122e-05
0.000999751
6.91106e-05
0.000996719
6.83896e-05
0.000993688
6.75469e-05
0.000990665
6.66076e-05
0.000987663
6.55894e-05
0.000984692
6.45056e-05
0.00098176
6.33673e-05
0.000978874
6.21842e-05
0.000976046
6.09654e-05
0.000973287
5.97172e-05
0.000970608
5.84434e-05
0.000968001
5.71454e-05
0.000965439
5.58213e-05
0.000962912
5.44725e-05
0.000960427
5.31069e-05
0.000957979
5.17298e-05
0.000955556
5.03387e-05
0.00095315
4.89327e-05
0.00095075
4.75146e-05
0.000948341
4.60892e-05
0.000945911
4.46607e-05
0.000943453
4.32282e-05
0.000940968
4.17929e-05
0.000938459
4.03589e-05
0.000935927
3.89312e-05
0.000933373
3.75152e-05
0.000930797
3.6116e-05
0.000928201
3.47384e-05
0.000925586
3.33863e-05
0.000922957
3.20625e-05
0.000920318
3.07693e-05
0.000917671
2.9508e-05
0.000915021
2.82793e-05
0.000912372
2.70832e-05
0.000909728
2.59192e-05
0.000907091
2.47866e-05
0.000904468
2.36843e-05
0.000901862
2.2611e-05
0.000899279
2.15653e-05
0.000896724
2.05455e-05
0.000894202
1.95499e-05
0.000891715
1.85774e-05
0.000889265
1.76261e-05
0.000886853
1.66939e-05
0.000884485
1.57786e-05
0.000882167
1.48792e-05
0.000879906
1.39943e-05
0.00087771
1.31223e-05
0.000875583
1.22612e-05
0.000873534
1.14081e-05
0.000871569
1.05603e-05
0.000869694
9.71467e-06
0.000867916
8.86775e-06
0.000866239
8.01643e-06
0.000864668
7.1565e-06
0.000863207
6.28444e-06
0.000861857
5.39632e-06
0.00086062
4.48777e-06
0.000859495
3.55636e-06
0.000858479
2.59808e-06
0.000857574
1.61122e-06
0.000856758
5.98879e-07
-4.68081e-07
0.00118057
2.65675e-05
0.00117709
3.04523e-05
0.00117313
3.42409e-05
0.00116877
3.79493e-05
0.00116406
4.15904e-05
0.001159
4.51581e-05
0.00115358
4.86325e-05
0.00114781
5.19868e-05
0.00114171
5.51958e-05
0.00113528
5.8239e-05
0.00112858
6.10999e-05
0.00112163
6.37644e-05
0.00111446
6.62199e-05
0.00110711
6.84549e-05
0.00109962
7.04594e-05
0.00109204
7.22252e-05
0.0010844
7.37468e-05
0.00107674
7.50208e-05
0.00106911
7.60466e-05
0.00106156
7.68259e-05
0.0010541
7.73631e-05
0.00104678
7.76646e-05
0.00103962
7.77391e-05
0.00103265
7.75981e-05
0.00102588
7.72549e-05
0.00101933
7.67252e-05
0.00101302
7.60252e-05
0.00100696
7.51708e-05
0.00100117
7.41769e-05
0.00099566
7.30586e-05
0.000990434
7.18336e-05
0.000985504
7.05197e-05
0.000980876
6.91335e-05
0.000976553
6.76898e-05
0.000972537
6.62008e-05
0.000968825
6.46769e-05
0.000965416
6.31267e-05
0.000962301
6.15577e-05
0.000959471
5.99763e-05
0.000956905
5.83867e-05
0.000954586
5.67914e-05
0.0009525
5.51931e-05
0.000950635
5.35949e-05
0.000948974
5.19997e-05
0.000947497
5.04099e-05
0.000946184
4.88278e-05
0.000945017
4.72557e-05
0.000943982
4.56957e-05
0.000943061
4.41493e-05
0.000942235
4.26187e-05
0.000941488
4.11066e-05
0.000940802
3.96166e-05
0.000940165
3.81521e-05
0.000939565
3.67162e-05
0.000938992
3.53112e-05
0.00093844
3.39389e-05
0.000937902
3.26004e-05
0.000937374
3.12966e-05
0.000936854
3.0028e-05
0.000936339
2.87944e-05
0.000935827
2.75954e-05
0.000935316
2.64304e-05
0.000934804
2.52981e-05
0.000934291
2.41973e-05
0.000933776
2.31266e-05
0.000933257
2.20845e-05
0.000932733
2.10693e-05
0.000932203
2.00794e-05
0.000931668
1.91131e-05
0.000931125
1.81683e-05
0.000930577
1.72427e-05
0.000930021
1.63341e-05
0.00092946
1.54403e-05
0.000928895
1.45596e-05
0.000928327
1.36898e-05
0.00092776
1.28291e-05
0.000927193
1.19747e-05
0.000926629
1.11239e-05
0.00092607
1.0274e-05
0.000925516
9.42162e-06
0.000924968
8.56431e-06
0.000924426
7.69824e-06
0.000923891
6.81959e-06
0.000923362
5.9254e-06
0.000922837
5.01352e-06
0.00092231
4.08295e-06
0.000921778
3.12986e-06
0.000921237
2.15233e-06
0.000920684
1.15216e-06
1.30463e-07
0.00119589
2.76261e-05
0.00119468
3.1659e-05
0.00119324
3.56839e-05
0.00119152
3.96639e-05
0.00118953
4.35794e-05
0.00118727
4.74186e-05
0.00118474
5.11696e-05
0.00118191
5.48174e-05
0.00117876
5.83427e-05
0.00117527
6.17237e-05
0.00117144
6.49382e-05
0.00116724
6.79647e-05
0.00116267
7.07836e-05
0.00115775
7.33777e-05
0.00115248
7.57323e-05
0.00114687
7.78351e-05
0.00114094
7.96763e-05
0.00113471
8.12488e-05
0.00112821
8.25482e-05
0.00112146
8.35727e-05
0.0011145
8.43236e-05
0.00110736
8.48048e-05
0.00110008
8.50231e-05
0.00109269
8.49875e-05
0.00108523
8.47096e-05
0.00107775
8.42028e-05
0.0010703
8.34824e-05
0.0010629
8.25659e-05
0.00105561
8.14735e-05
0.00104844
8.02243e-05
0.00104144
7.88364e-05
0.00103463
7.73276e-05
0.00102805
7.57158e-05
0.00102171
7.40217e-05
0.00101566
7.22599e-05
0.00100989
7.04436e-05
0.00100443
6.85856e-05
0.00099929
6.66975e-05
0.000994477
6.47897e-05
0.000989992
6.28713e-05
0.000985833
6.09501e-05
0.000981995
5.90308e-05
0.000978472
5.71184e-05
0.000975253
5.52188e-05
0.000972325
5.33374e-05
0.000969675
5.14783e-05
0.000967285
4.9645e-05
0.00096514
4.78406e-05
0.000963222
4.60681e-05
0.00096151
4.43304e-05
0.000959987
4.263e-05
0.000958634
4.09694e-05
0.000957435
3.93505e-05
0.000956377
3.77749e-05
0.000955444
3.62436e-05
0.000954626
3.47572e-05
0.000953911
3.33158e-05
0.000953288
3.19195e-05
0.000952748
3.05678e-05
0.000952282
2.926e-05
0.000951882
2.79952e-05
0.000951541
2.67721e-05
0.00095125
2.55891e-05
0.000951002
2.44447e-05
0.000950792
2.33368e-05
0.000950613
2.22635e-05
0.00095046
2.12227e-05
0.000950327
2.02122e-05
0.00095021
1.92296e-05
0.000950106
1.82724e-05
0.000950011
1.73382e-05
0.00094992
1.64244e-05
0.000949832
1.55285e-05
0.000949744
1.4648e-05
0.000949653
1.37804e-05
0.000949559
1.29234e-05
0.000949459
1.20743e-05
0.000949353
1.12303e-05
0.000949238
1.03887e-05
0.000949113
9.54655e-06
0.000948976
8.70106e-06
0.000948825
7.8495e-06
0.000948655
6.9893e-06
0.000948463
6.11786e-06
0.000948243
5.23347e-06
0.000947992
4.33353e-06
0.000947706
3.41588e-06
0.000947381
2.47811e-06
0.000947016
1.51642e-06
5.27441e-07
0.00106389
2.50606e-05
0.00106673
2.88221e-05
0.00106962
3.27915e-05
0.00107253
3.67604e-05
0.00107544
4.06629e-05
0.00107835
4.45096e-05
0.00108123
4.82944e-05
0.00108403
5.20105e-05
0.00108673
5.56453e-05
0.00108928
5.91789e-05
0.00109163
6.25869e-05
0.00109375
6.58439e-05
0.00109561
6.89262e-05
0.00109717
7.18125e-05
0.00109842
7.44843e-05
0.00109933
7.69257e-05
0.00109988
7.91232e-05
0.00110006
8.10653e-05
0.00109987
8.2743e-05
0.00109929
8.41495e-05
0.00109834
8.52808e-05
0.001097
8.61356e-05
0.00109531
8.67156e-05
0.00109327
8.70256e-05
0.00109091
8.70731e-05
0.00108825
8.68667e-05
0.00108532
8.64129e-05
0.00108215
8.57276e-05
0.00107879
8.48429e-05
0.00107524
8.37699e-05
0.00107155
8.25246e-05
0.00106775
8.11246e-05
0.00106388
7.95879e-05
0.00105997
7.79323e-05
0.00105606
7.61749e-05
0.00105217
7.43316e-05
0.00104834
7.24176e-05
0.00104459
7.04473e-05
0.00104094
6.84339e-05
0.00103742
6.63896e-05
0.00103405
6.43257e-05
0.00103083
6.22518e-05
0.00102777
6.0177e-05
0.00102488
5.81097e-05
0.00102216
5.60574e-05
0.00101961
5.40271e-05
0.00101723
5.20246e-05
0.00101502
5.00551e-05
0.00101296
4.81232e-05
0.00101106
4.62328e-05
0.0010093
4.43871e-05
0.00100768
4.25887e-05
0.00100619
4.084e-05
0.00100482
3.91424e-05
0.00100357
3.7497e-05
0.00100242
3.59047e-05
0.00100137
3.43655e-05
0.00100041
3.28792e-05
0.000999537
3.14454e-05
0.000998734
3.0063e-05
0.000997998
2.87309e-05
0.000997323
2.74474e-05
0.000996701
2.62107e-05
0.000996127
2.50188e-05
0.000995595
2.38694e-05
0.000995098
2.27601e-05
0.000994632
2.16884e-05
0.000994193
2.06516e-05
0.000993775
1.96471e-05
0.000993376
1.8672e-05
0.000992991
1.77235e-05
0.000992616
1.67988e-05
0.00099225
1.5895e-05
0.000991888
1.50094e-05
0.00099153
1.4139e-05
0.000991172
1.32812e-05
0.000990813
1.24331e-05
0.000990452
1.15919e-05
0.000990085
1.07549e-05
0.000989713
9.91927e-06
0.000989331
9.08242e-06
0.000988939
8.24177e-06
0.000988533
7.39507e-06
0.000988111
6.53987e-06
0.00098767
5.67434e-06
0.000987207
4.79657e-06
0.000986718
3.90522e-06
0.000986196
3.00005e-06
0.000985632
2.0806e-06
1.1493e-06
0.000825218
1.93851e-05
0.000831171
2.28686e-05
0.000837485
2.6478e-05
0.000844123
3.01222e-05
0.000851036
3.37499e-05
0.000858197
3.73488e-05
0.000865568
4.09227e-05
0.000873111
4.44683e-05
0.000880784
4.79715e-05
0.000888552
5.14114e-05
0.000896374
5.47644e-05
0.000904211
5.8007e-05
0.00091202
6.1117e-05
0.000919759
6.40741e-05
0.000927385
6.68584e-05
0.000934858
6.94524e-05
0.000942141
7.18405e-05
0.000949197
7.40088e-05
0.000955995
7.59451e-05
0.000962506
7.76392e-05
0.000968703
7.90831e-05
0.000974568
8.02706e-05
0.000980086
8.11981e-05
0.000985246
8.18656e-05
0.000990042
8.22767e-05
0.000994472
8.24369e-05
0.00099853
8.23551e-05
0.00100221
8.20434e-05
0.00100554
8.15159e-05
0.00100853
8.07858e-05
0.00101118
7.98666e-05
0.00101353
7.8773e-05
0.0010156
7.75201e-05
0.00101741
7.6124e-05
0.00101899
7.46008e-05
0.00102035
7.29665e-05
0.00102153
7.1237e-05
0.00102255
6.94273e-05
0.00102343
6.75521e-05
0.0010242
6.56252e-05
0.00102486
6.36593e-05
0.00102545
6.16667e-05
0.00102597
5.96583e-05
0.00102643
5.76445e-05
0.00102686
5.56344e-05
0.00102725
5.36365e-05
0.00102761
5.16585e-05
0.00102796
4.97071e-05
0.00102829
4.77882e-05
0.00102862
4.59069e-05
0.00102894
4.40676e-05
0.00102926
4.22738e-05
0.00102957
4.05285e-05
0.00102987
3.88341e-05
0.00103018
3.71922e-05
0.00103048
3.56042e-05
0.00103078
3.40705e-05
0.00103106
3.25913e-05
0.00103134
3.11662e-05
0.00103161
2.97945e-05
0.00103187
2.8475e-05
0.00103211
2.72063e-05
0.00103233
2.59864e-05
0.00103254
2.48134e-05
0.00103272
2.3685e-05
0.00103288
2.25988e-05
0.00103302
2.15521e-05
0.00103313
2.05422e-05
0.00103321
1.95663e-05
0.00103326
1.86216e-05
0.00103328
1.7705e-05
0.00103326
1.68136e-05
0.00103321
1.59445e-05
0.00103313
1.50946e-05
0.00103301
1.42611e-05
0.00103285
1.34409e-05
0.00103265
1.26313e-05
0.00103241
1.18295e-05
0.00103213
1.10327e-05
0.00103181
1.02383e-05
0.00103145
9.4438e-06
0.00103105
8.64689e-06
0.0010306
7.84526e-06
0.0010301
7.03721e-06
0.00102955
6.2208e-06
0.00102896
5.39487e-06
0.0010283
4.55851e-06
0.00102759
3.71071e-06
0.00102682
2.85205e-06
1.98199e-06
0.000552514
1.24301e-05
0.000559875
1.55075e-05
0.000567637
1.87161e-05
0.000575847
2.19129e-05
0.000584475
2.51217e-05
0.000593485
2.83389e-05
0.00060285
3.15576e-05
0.000612554
3.47644e-05
0.000622582
3.79431e-05
0.000632917
4.10765e-05
0.000643533
4.41478e-05
0.000654401
4.71395e-05
0.000665484
5.00341e-05
0.000676744
5.28141e-05
0.00068814
5.54625e-05
0.000699629
5.79628e-05
0.00071117
6.02998e-05
0.00072272
6.24593e-05
0.000734236
6.44284e-05
0.00074568
6.61958e-05
0.000757011
6.77522e-05
0.000768191
6.90898e-05
0.000779186
7.02036e-05
0.000789961
7.1091e-05
0.000800485
7.1752e-05
0.000810733
7.21888e-05
0.000820682
7.24061e-05
0.000830315
7.24103e-05
0.000839622
7.22091e-05
0.000848596
7.18116e-05
0.000857234
7.12285e-05
0.000865536
7.04715e-05
0.000873503
6.95529e-05
0.000881141
6.84861e-05
0.000888457
6.7285e-05
0.00089546
6.59637e-05
0.00090216
6.45368e-05
0.000908569
6.30183e-05
0.000914699
6.14224e-05
0.000920561
5.97623e-05
0.00092617
5.80508e-05
0.000931537
5.63001e-05
0.000936673
5.45216e-05
0.000941592
5.27259e-05
0.000946303
5.09228e-05
0.000950819
4.91213e-05
0.000955147
4.73297e-05
0.000959299
4.55553e-05
0.000963283
4.38049e-05
0.000967105
4.20843e-05
0.000970774
4.03985e-05
0.000974296
3.87518e-05
0.000977677
3.71477e-05
0.000980922
3.5589e-05
0.000984037
3.40779e-05
0.000987025
3.26161e-05
0.00098989
3.12047e-05
0.000992638
2.9844e-05
0.00099527
2.85343e-05
0.000997789
2.72749e-05
0.0010002
2.60652e-05
0.0010025
2.4904e-05
0.0010047
2.37898e-05
0.00100679
2.27208e-05
0.00100878
2.16952e-05
0.00101067
2.07105e-05
0.00101246
1.97646e-05
0.00101414
1.88548e-05
0.00101573
1.79786e-05
0.00101722
1.71331e-05
0.00101861
1.63157e-05
0.0010199
1.55235e-05
0.00102109
1.47535e-05
0.00102218
1.4003e-05
0.00102317
1.32691e-05
0.00102407
1.2549e-05
0.00102486
1.18401e-05
0.00102555
1.11395e-05
0.00102613
1.04448e-05
0.00102662
9.75349e-06
0.001027
9.06312e-06
0.00102728
8.37177e-06
0.00102744
7.67719e-06
0.0010275
6.97777e-06
0.00102745
6.27202e-06
0.00102729
5.55842e-06
0.00102701
4.8364e-06
0.00102662
4.10493e-06
0.0010261
3.36396e-06
2.61383e-06
0.000279658
5.60286e-06
0.00028672
8.4463e-06
0.000294377
1.10591e-05
0.000302541
1.37489e-05
0.000311196
1.64666e-05
0.000320331
1.92041e-05
0.00032994
2.19484e-05
0.000340019
2.46857e-05
0.000350559
2.74025e-05
0.000361549
3.00865e-05
0.000372971
3.27256e-05
0.000384804
3.53069e-05
0.000397021
3.7817e-05
0.000409593
4.0242e-05
0.000422488
4.25681e-05
0.000435669
4.47816e-05
0.000449099
4.68696e-05
0.000462739
4.88196e-05
0.000476547
5.06204e-05
0.000490481
5.22617e-05
0.000504499
5.37345e-05
0.000518557
5.50317e-05
0.000532613
5.61467e-05
0.000546626
5.70781e-05
0.000560557
5.78211e-05
0.000574371
5.83751e-05
0.000588033
5.87442e-05
0.000601512
5.8931e-05
0.000614781
5.894e-05
0.000627816
5.87771e-05
0.000640595
5.84498e-05
0.000653099
5.79666e-05
0.000665315
5.73372e-05
0.00067723
5.65713e-05
0.000688835
5.56799e-05
0.000700124
5.46746e-05
0.000711093
5.35675e-05
0.000721741
5.23706e-05
0.000732067
5.10961e-05
0.000742074
4.97557e-05
0.000751764
4.83608e-05
0.000761142
4.69223e-05
0.000770213
4.54508e-05
0.000778982
4.39561e-05
0.000787458
4.24473e-05
0.000795646
4.0933e-05
0.000803555
3.94211e-05
0.000811191
3.79188e-05
0.000818563
3.64329e-05
0.000825679
3.4969e-05
0.000832545
3.35324e-05
0.000839169
3.21271e-05
0.00084556
3.07569e-05
0.000851725
2.94246e-05
0.00085767
2.81326e-05
0.000863403
2.68829e-05
0.000868931
2.56766e-05
0.000874261
2.45147e-05
0.000879397
2.33975e-05
0.000884347
2.23251e-05
0.000889115
2.12971e-05
0.000893707
2.03128e-05
0.000898125
1.93711e-05
0.000902375
1.84708e-05
0.00090646
1.76103e-05
0.000910383
1.67879e-05
0.000914146
1.60017e-05
0.000917751
1.52496e-05
0.0009212
1.45293e-05
0.000924495
1.38386e-05
0.000927635
1.3175e-05
0.000930623
1.25361e-05
0.000933457
1.19194e-05
0.000936137
1.13222e-05
0.000938664
1.07424e-05
0.000941036
1.0177e-05
0.000943252
9.62396e-06
0.000945311
9.0808e-06
0.000947211
8.54502e-06
0.00094895
8.01474e-06
0.000950525
7.48761e-06
0.000951935
6.96177e-06
0.000953177
6.43559e-06
0.000954247
5.9071e-06
0.000955144
5.37534e-06
0.000955864
4.83876e-06
0.000956404
4.29656e-06
0.00095676
3.74826e-06
0.000956931
3.193e-06
2.63136e-06
4.83897e-06
4.8978e-07
1.12549e-05
2.03033e-06
1.80719e-05
4.24215e-06
2.56725e-05
6.14823e-06
3.38291e-05
8.31002e-06
4.26246e-05
1.04086e-05
5.19934e-05
1.25796e-05
6.19547e-05
1.47243e-05
7.24824e-05
1.68748e-05
8.35695e-05
1.89994e-05
9.51952e-05
2.10999e-05
0.00010734
2.31619e-05
0.00011998
2.51773e-05
0.000133087
2.71351e-05
0.000146631
2.90241e-05
0.000160579
3.08337e-05
0.000174895
3.2553e-05
0.000189543
3.41719e-05
0.000204483
3.56807e-05
0.000219673
3.70709e-05
0.000235073
3.83345e-05
0.00025064
3.94652e-05
0.00026633
4.04566e-05
0.000282099
4.13088e-05
0.000297912
4.20081e-05
0.000313723
4.25647e-05
0.000329492
4.29749e-05
0.000345183
4.32406e-05
0.000360758
4.3365e-05
0.000376183
4.33521e-05
0.000391426
4.32066e-05
0.000406458
4.29341e-05
0.000421257
4.25389e-05
0.000435801
4.20273e-05
0.000450072
4.14084e-05
0.000464056
4.0691e-05
0.000477739
3.98846e-05
0.00049111
3.8999e-05
0.000504163
3.80437e-05
0.00051689
3.70281e-05
0.000529289
3.59617e-05
0.000541358
3.48534e-05
0.000553097
3.37121e-05
0.000564507
3.2546e-05
0.000575591
3.13628e-05
0.000586355
3.01698e-05
0.000596802
2.8974e-05
0.000606938
2.7782e-05
0.000616771
2.66e-05
0.000626307
2.54337e-05
0.000635551
2.42877e-05
0.000644513
2.31656e-05
0.000653199
2.20705e-05
0.000661619
2.10052e-05
0.000669779
1.99722e-05
0.000677689
1.89733e-05
0.000685355
1.80102e-05
0.000692786
1.7084e-05
0.000699988
1.61955e-05
0.000706968
1.53451e-05
0.000713732
1.45328e-05
0.000720286
1.37585e-05
0.000726636
1.30218e-05
0.000732784
1.23219e-05
0.000738737
1.16578e-05
0.000744496
1.10286e-05
0.000750065
1.04328e-05
0.000755446
9.86901e-06
0.00076064
9.33561e-06
0.000765647
8.83085e-06
0.00077047
8.35283e-06
0.000775106
7.8996e-06
0.000779556
7.46923e-06
0.000783819
7.05958e-06
0.000787893
6.66867e-06
0.000791775
6.29447e-06
0.000795464
5.93482e-06
0.000798957
5.58789e-06
0.000802251
5.25162e-06
0.000805341
4.9241e-06
0.000808225
4.60371e-06
0.000810898
4.28854e-06
0.000813357
3.97715e-06
0.000815596
3.66816e-06
0.000817611
3.36007e-06
0.000819398
3.05201e-06
0.000820951
2.74289e-06
0.000822268
2.43193e-06
0.000823342
2.11869e-06
1.80249e-06
-0.000268041
-3.4789e-06
-0.000263342
-2.6681e-06
-0.000257929
-1.1713e-06
-0.000251803
2.24802e-08
-0.00024484
1.34662e-06
-0.000237072
2.6409e-06
-0.000228551
4.05857e-06
-0.000219292
5.465e-06
-0.000209337
6.92007e-06
-0.000198709
8.3712e-06
-0.000187443
9.83459e-06
-0.000175564
1.12824e-05
-0.000163098
1.27116e-05
-0.000150073
1.41098e-05
-0.000136521
1.54717e-05
-0.000122474
1.67872e-05
-0.00010797
1.80484e-05
-9.30442e-05
1.92466e-05
-7.77372e-05
2.03737e-05
-6.20888e-05
2.14225e-05
-4.61404e-05
2.23861e-05
-2.99342e-05
2.3259e-05
-1.35136e-05
2.4036e-05
3.08142e-06
2.47137e-05
1.98008e-05
2.52887e-05
3.66128e-05
2.57526e-05
5.34738e-05
2.61139e-05
7.03439e-05
2.63705e-05
8.7184e-05
2.65249e-05
0.000103956
2.65796e-05
0.000120624
2.65388e-05
0.000137144
2.6414e-05
0.000153492
2.61915e-05
0.000169651
2.58683e-05
0.000185603
2.54562e-05
0.000201331
2.49633e-05
0.000216817
2.43986e-05
0.000232046
2.37695e-05
0.000247006
2.30836e-05
0.000261686
2.23484e-05
0.000276077
2.15711e-05
0.000290172
2.07585e-05
0.000303966
1.99176e-05
0.000317457
1.90549e-05
0.000330643
1.81768e-05
0.000343524
1.72892e-05
0.0003561
1.63981e-05
0.000368373
1.5509e-05
0.000380346
1.46271e-05
0.000392021
1.37588e-05
0.0004034
1.29086e-05
0.000414487
1.20781e-05
0.000425288
1.12701e-05
0.000435806
1.04869e-05
0.000446047
9.73081e-06
0.000456017
9.00378e-06
0.00046572
8.30736e-06
0.000475161
7.64278e-06
0.000484346
7.01094e-06
0.000493278
6.41243e-06
0.000501964
5.84756e-06
0.000510406
5.31641e-06
0.000518609
4.81881e-06
0.000526576
4.35442e-06
0.000534311
3.92269e-06
0.000541817
3.52294e-06
0.000549095
3.15431e-06