/*--------------------------------*- C++ -*----------------------------------*\
| =========                 |                                                 |
| \\      /  F ield         | OpenFOAM: The Open Source CFD Toolbox           |
|  \\    /   O peration     | Version:  2312                                  |
|   \\  /    A nd           | Website:  www.openfoam.com                      |
|    \\/     M anipulation  |                                                 |
\*---------------------------------------------------------------------------*/
FoamFile
{
    version     2.0;
    format      ascii;
    arch        "LSB;label=32;scalar=64";
    class       volVectorField;
    location    "101000";
    object      U;
}
// * * * * * * * * * * * * * * * * * * * * * * * * * * * * * * * * * * * * * //

dimensions      [0 1 -1 0 0 0 0];

internalField   nonuniform List<vector> 
2685
(
(0.000747547 -2.40866e-05 0)
(0.000760139 -1.18715e-05 0)
(0.000742863 -3.36284e-06 0)
(0.000722174 4.68973e-06 0)
(0.000702053 1.20868e-05 0)
(0.000681425 1.81914e-05 0)
(0.000658566 2.29055e-05 0)
(0.000632917 2.64772e-05 0)
(0.000604705 2.92594e-05 0)
(0.000574502 3.15121e-05 0)
(0.000542778 3.33607e-05 0)
(0.000509777 3.48445e-05 0)
(0.000475617 3.59633e-05 0)
(0.000440401 3.67018e-05 0)
(0.000404269 3.70339e-05 0)
(0.000367416 3.69243e-05 0)
(0.000330065 3.63274e-05 0)
(0.000292472 3.51932e-05 0)
(0.000254914 3.34672e-05 0)
(0.000217711 3.10887e-05 0)
(0.000181207 2.79851e-05 0)
(0.000145791 2.40067e-05 0)
(0.000111964 1.87888e-05 0)
(8.04004e-05 1.19037e-05 0)
(5.18174e-05 3.35713e-06 0)
(2.68257e-05 -6.20034e-06 0)
(5.8129e-06 -1.58206e-05 0)
(-1.11085e-05 -2.4708e-05 0)
(-2.39766e-05 -3.23177e-05 0)
(-3.27567e-05 -3.83946e-05 0)
(-3.81006e-05 -4.30176e-05 0)
(-4.05678e-05 -4.60017e-05 0)
(-4.04976e-05 -4.71523e-05 0)
(-3.84116e-05 -4.66593e-05 0)
(-3.48197e-05 -4.48165e-05 0)
(-3.02888e-05 -4.17887e-05 0)
(-2.53462e-05 -3.76921e-05 0)
(-2.04479e-05 -3.2667e-05 0)
(-1.59422e-05 -2.69246e-05 0)
(-1.21125e-05 -2.07496e-05 0)
(-9.17422e-06 -1.44505e-05 0)
(-7.24197e-06 -8.33605e-06 0)
(-6.37335e-06 -2.69437e-06 0)
(-6.44874e-06 2.23433e-06 0)
(-7.44721e-06 6.23105e-06 0)
(-9.27213e-06 9.21524e-06 0)
(-1.17135e-05 1.12162e-05 0)
(-1.4502e-05 1.23318e-05 0)
(-1.73765e-05 1.26847e-05 0)
(-2.01259e-05 1.24248e-05 0)
(-2.25937e-05 1.17089e-05 0)
(-2.46712e-05 1.06797e-05 0)
(-2.62909e-05 9.45794e-06 0)
(-2.74252e-05 8.13949e-06 0)
(-2.80825e-05 6.79586e-06 0)
(-2.82904e-05 5.47056e-06 0)
(-2.81728e-05 4.18872e-06 0)
(-2.7821e-05 2.99971e-06 0)
(-2.73047e-05 1.93033e-06 0)
(-2.66898e-05 9.90138e-07 0)
(-2.60375e-05 1.82411e-07 0)
(-2.54012e-05 -4.92358e-07 0)
(-2.48259e-05 -1.03567e-06 0)
(-2.4349e-05 -1.45196e-06 0)
(-2.39968e-05 -1.75472e-06 0)
(-2.37961e-05 -1.95992e-06 0)
(-2.37665e-05 -2.07277e-06 0)
(-2.39112e-05 -2.09742e-06 0)
(-2.4229e-05 -2.04442e-06 0)
(-2.47233e-05 -1.92346e-06 0)
(-2.53968e-05 -1.74302e-06 0)
(-2.62519e-05 -1.50996e-06 0)
(-2.72928e-05 -1.23002e-06 0)
(-2.85251e-05 -9.08204e-07 0)
(-2.99557e-05 -5.48497e-07 0)
(-3.15914e-05 -1.53888e-07 0)
(-3.34395e-05 2.72869e-07 0)
(-3.55073e-05 7.28317e-07 0)
(-3.78007e-05 1.20777e-06 0)
(-4.03235e-05 1.70523e-06 0)
(-4.3076e-05 2.21363e-06 0)
(-4.60539e-05 2.72515e-06 0)
(-4.92483e-05 3.23155e-06 0)
(-5.26439e-05 3.72384e-06 0)
(-5.62192e-05 4.19168e-06 0)
(-5.99458e-05 4.62359e-06 0)
(-6.37898e-05 5.00768e-06 0)
(-6.77153e-05 5.33284e-06 0)
(-7.16773e-05 5.59213e-06 0)
(-7.56133e-05 5.78011e-06 0)
(0.00132904 3.5103e-05 0)
(0.00131507 4.52016e-05 0)
(0.00130516 5.37087e-05 0)
(0.00129523 6.21104e-05 0)
(0.00128371 7.0266e-05 0)
(0.00127036 7.77654e-05 0)
(0.00125538 8.44853e-05 0)
(0.00123897 9.04907e-05 0)
(0.00122126 9.59307e-05 0)
(0.00120228 0.000100926 0)
(0.00118206 0.00010554 0)
(0.0011606 0.000109788 0)
(0.00113791 0.000113661 0)
(0.00111401 0.000117134 0)
(0.00108897 0.000120172 0)
(0.00106285 0.000122721 0)
(0.00103573 0.000124725 0)
(0.00100768 0.000126104 0)
(0.000978816 0.000126779 0)
(0.000949196 0.000126653 0)
(0.000918908 0.000125634 0)
(0.000887989 0.000123618 0)
(0.000856472 0.000120514 0)
(0.000824345 0.000116244 0)
(0.000791502 0.000110774 0)
(0.000757799 0.000104181 0)
(0.000722959 9.6583e-05 0)
(0.000687059 8.82321e-05 0)
(0.000649881 7.93005e-05 0)
(0.000612147 7.01341e-05 0)
(0.000573619 6.09164e-05 0)
(0.000534616 5.18875e-05 0)
(0.000495904 4.33206e-05 0)
(0.000458041 3.55137e-05 0)
(0.000421141 2.86527e-05 0)
(0.000385415 2.27981e-05 0)
(0.000351181 1.78747e-05 0)
(0.000318782 1.37372e-05 0)
(0.000288507 1.02484e-05 0)
(0.000260546 7.30237e-06 0)
(0.000235011 4.84807e-06 0)
(0.000211963 2.85725e-06 0)
(0.000191423 1.31028e-06 0)
(0.000173299 2.50197e-07 0)
(0.00015739 -2.98204e-07 0)
(0.000143832 -4.03203e-07 0)
(0.000132244 -4.58637e-07 0)
(0.00012241 -7.32203e-07 0)
(0.000114038 -1.22487e-06 0)
(0.000106876 -1.84541e-06 0)
(0.000100737 -2.54188e-06 0)
(9.54643e-05 -3.28863e-06 0)
(9.09232e-05 -4.0348e-06 0)
(8.70004e-05 -4.69701e-06 0)
(8.35997e-05 -5.18601e-06 0)
(8.06403e-05 -5.43672e-06 0)
(7.8059e-05 -5.43255e-06 0)
(7.58519e-05 -5.17891e-06 0)
(7.39521e-05 -4.70093e-06 0)
(7.22979e-05 -4.03961e-06 0)
(7.08426e-05 -3.2418e-06 0)
(6.95463e-05 -2.35248e-06 0)
(6.83687e-05 -1.4081e-06 0)
(6.72672e-05 -4.33724e-07 0)
(6.62204e-05 5.46914e-07 0)
(6.52105e-05 1.49552e-06 0)
(6.42413e-05 2.3844e-06 0)
(6.3296e-05 3.20603e-06 0)
(6.23606e-05 3.96111e-06 0)
(6.14329e-05 4.65423e-06 0)
(6.05128e-05 5.29316e-06 0)
(5.95998e-05 5.88748e-06 0)
(5.8692e-05 6.45358e-06 0)
(5.77886e-05 7.00353e-06 0)
(5.68883e-05 7.54273e-06 0)
(5.5988e-05 8.075e-06 0)
(5.50826e-05 8.60387e-06 0)
(5.41658e-05 9.13057e-06 0)
(5.32322e-05 9.65213e-06 0)
(5.22796e-05 1.0161e-05 0)
(5.13096e-05 1.06462e-05 0)
(5.0329e-05 1.10943e-05 0)
(4.93479e-05 1.14896e-05 0)
(4.83794e-05 1.18132e-05 0)
(4.74401e-05 1.20422e-05 0)
(4.65523e-05 1.21542e-05 0)
(4.57448e-05 1.21278e-05 0)
(4.50571e-05 1.19424e-05 0)
(4.45389e-05 1.15801e-05 0)
(4.42379e-05 1.10293e-05 0)
(0.00155609 3.69077e-05 0)
(0.0015464 4.77076e-05 0)
(0.00154005 5.81828e-05 0)
(0.00153452 6.80957e-05 0)
(0.0015283 7.75603e-05 0)
(0.00152093 8.66743e-05 0)
(0.00151243 9.54704e-05 0)
(0.001503 0.000103926 0)
(0.00149284 0.000112004 0)
(0.00148204 0.000119673 0)
(0.00147063 0.00012691 0)
(0.00145857 0.000133695 0)
(0.00144583 0.000140004 0)
(0.00143241 0.000145807 0)
(0.00141829 0.00015106 0)
(0.00140348 0.000155711 0)
(0.00138798 0.00015969 0)
(0.0013718 0.000162928 0)
(0.00135491 0.000165338 0)
(0.00133731 0.000166842 0)
(0.00131894 0.000167351 0)
(0.00129982 0.000166806 0)
(0.00127983 0.000165148 0)
(0.00125899 0.00016238 0)
(0.00123716 0.000158538 0)
(0.00121439 0.000153773 0)
(0.00119055 0.000148288 0)
(0.00116579 0.000142365 0)
(0.00113997 0.000136274 0)
(0.00111339 0.000130286 0)
(0.001086 0.0001246 0)
(0.00105807 0.000119358 0)
(0.00102998 0.00011467 0)
(0.00100182 0.000110502 0)
(0.000973592 0.000106771 0)
(0.00094523 0.00010337 0)
(0.000916767 0.000100177 0)
(0.000888303 9.7067e-05 0)
(0.000859991 9.39172e-05 0)
(0.000831945 9.06121e-05 0)
(0.000804261 8.70652e-05 0)
(0.000776981 8.32241e-05 0)
(0.000750137 7.90597e-05 0)
(0.000723795 7.45833e-05 0)
(0.000697938 6.9814e-05 0)
(0.000672699 6.47991e-05 0)
(0.000647979 5.96001e-05 0)
(0.000623796 5.43063e-05 0)
(0.000600316 4.90286e-05 0)
(0.00057765 4.38779e-05 0)
(0.000555807 3.89343e-05 0)
(0.000534759 3.42438e-05 0)
(0.000514495 2.98347e-05 0)
(0.000495035 2.57285e-05 0)
(0.000476415 2.19483e-05 0)
(0.000458677 1.85114e-05 0)
(0.000441862 1.54359e-05 0)
(0.000426011 1.2723e-05 0)
(0.000411155 1.03645e-05 0)
(0.000397314 8.34709e-06 0)
(0.000384492 6.65158e-06 0)
(0.000372694 5.2561e-06 0)
(0.000361896 4.13765e-06 0)
(0.000352072 3.26188e-06 0)
(0.000343242 2.59566e-06 0)
(0.000335362 2.11575e-06 0)
(0.000328371 1.79601e-06 0)
(0.000322216 1.61471e-06 0)
(0.000316861 1.54952e-06 0)
(0.000312264 1.56797e-06 0)
(0.00030838 1.65096e-06 0)
(0.000305186 1.80086e-06 0)
(0.000302615 2.01176e-06 0)
(0.000300623 2.27431e-06 0)
(0.000299163 2.58643e-06 0)
(0.000298195 2.95535e-06 0)
(0.000297684 3.38819e-06 0)
(0.000297602 3.88286e-06 0)
(0.00029792 4.42655e-06 0)
(0.000298616 4.99808e-06 0)
(0.000299665 5.57011e-06 0)
(0.000301044 6.11393e-06 0)
(0.000302727 6.60784e-06 0)
(0.000304692 7.03451e-06 0)
(0.000306927 7.36611e-06 0)
(0.000309426 7.56592e-06 0)
(0.000312184 7.60356e-06 0)
(0.000315197 7.4484e-06 0)
(0.000318474 7.04283e-06 0)
(0.000322038 6.30366e-06 0)
(0.00165728 5.47852e-05 0)
(0.00165045 6.62759e-05 0)
(0.00164489 7.75738e-05 0)
(0.00164011 8.82783e-05 0)
(0.00163553 9.84128e-05 0)
(0.00163076 0.000108107 0)
(0.00162562 0.000117467 0)
(0.00162008 0.000126533 0)
(0.00161419 0.000135284 0)
(0.001608 0.000143677 0)
(0.00160155 0.000151665 0)
(0.00159484 0.000159211 0)
(0.00158787 0.000166283 0)
(0.00158062 0.000172848 0)
(0.00157306 0.000178869 0)
(0.00156517 0.000184303 0)
(0.00155693 0.000189099 0)
(0.00154833 0.00019321 0)
(0.00153932 0.000196585 0)
(0.0015299 0.000199182 0)
(0.00151999 0.000200964 0)
(0.00150958 0.000201907 0)
(0.00149859 0.000202004 0)
(0.00148699 0.000201266 0)
(0.00147473 0.000199736 0)
(0.00146174 0.000197476 0)
(0.00144799 0.000194583 0)
(0.00143346 0.000191156 0)
(0.00141818 0.000187323 0)
(0.00140214 0.000183179 0)
(0.00138546 0.000178837 0)
(0.00136813 0.000174351 0)
(0.00135032 0.000169771 0)
(0.00133204 0.000165101 0)
(0.00131334 0.000160354 0)
(0.00129434 0.000155555 0)
(0.00127521 0.000150745 0)
(0.00125604 0.000145947 0)
(0.00123693 0.000141187 0)
(0.00121792 0.000136469 0)
(0.00119908 0.000131799 0)
(0.00118038 0.000127167 0)
(0.00116188 0.000122576 0)
(0.0011435 0.000118013 0)
(0.00112528 0.000113483 0)
(0.00110715 0.000108975 0)
(0.00108918 0.000104486 0)
(0.00107144 0.000100051 0)
(0.00105394 9.5687e-05 0)
(0.00103666 9.13841e-05 0)
(0.00101953 8.71227e-05 0)
(0.00100253 8.28931e-05 0)
(0.000985656 7.87026e-05 0)
(0.000968939 7.45696e-05 0)
(0.000952425 7.05167e-05 0)
(0.000936156 6.65634e-05 0)
(0.000920166 6.27222e-05 0)
(0.00090449 5.89999e-05 0)
(0.00088916 5.53967e-05 0)
(0.000874214 5.19116e-05 0)
(0.000859684 4.85414e-05 0)
(0.000845601 4.52848e-05 0)
(0.000831995 4.21403e-05 0)
(0.000818886 3.91079e-05 0)
(0.000806302 3.61877e-05 0)
(0.000794248 3.33747e-05 0)
(0.000782751 3.06712e-05 0)
(0.000771794 2.80774e-05 0)
(0.000761373 2.55956e-05 0)
(0.0007515 2.324e-05 0)
(0.000742183 2.10223e-05 0)
(0.000733453 1.89505e-05 0)
(0.000725293 1.70244e-05 0)
(0.000717708 1.52374e-05 0)
(0.000710715 1.35822e-05 0)
(0.000704331 1.20538e-05 0)
(0.000698567 1.06445e-05 0)
(0.000693426 9.34821e-06 0)
(0.000688912 8.15541e-06 0)
(0.000685031 7.04567e-06 0)
(0.000681792 6.00419e-06 0)
(0.000679193 5.01074e-06 0)
(0.000677229 4.03168e-06 0)
(0.000675915 3.04967e-06 0)
(0.000675257 2.036e-06 0)
(0.000675229 9.41292e-07 0)
(0.000675823 -2.51482e-07 0)
(0.000677024 -1.57092e-06 0)
(0.000678821 -3.10465e-06 0)
(0.000681135 -4.88835e-06 0)
(0.00163671 6.76493e-05 0)
(0.00163221 7.67877e-05 0)
(0.00162833 8.63283e-05 0)
(0.00162492 9.60469e-05 0)
(0.00162177 0.000105752 0)
(0.00161865 0.000115319 0)
(0.00161541 0.000124675 0)
(0.00161198 0.000133778 0)
(0.0016084 0.000142593 0)
(0.0016047 0.000151087 0)
(0.00160096 0.000159223 0)
(0.00159721 0.000166965 0)
(0.00159345 0.000174274 0)
(0.00158969 0.000181114 0)
(0.00158591 0.000187447 0)
(0.00158209 0.000193236 0)
(0.00157823 0.000198443 0)
(0.00157431 0.000203034 0)
(0.0015703 0.000206975 0)
(0.00156619 0.000210239 0)
(0.00156193 0.000212805 0)
(0.00155747 0.000214662 0)
(0.00155279 0.000215807 0)
(0.00154782 0.00021625 0)
(0.00154251 0.000216012 0)
(0.00153682 0.000215127 0)
(0.0015307 0.000213645 0)
(0.00152411 0.000211628 0)
(0.00151701 0.000209141 0)
(0.00150939 0.000206255 0)
(0.00150129 0.000203033 0)
(0.00149274 0.000199539 0)
(0.00148381 0.000195831 0)
(0.00147455 0.000191968 0)
(0.00146503 0.000188016 0)
(0.00145531 0.000184025 0)
(0.00144546 0.000180025 0)
(0.00143553 0.000176018 0)
(0.0014256 0.000171998 0)
(0.00141569 0.000167951 0)
(0.00140581 0.00016386 0)
(0.00139595 0.000159705 0)
(0.00138611 0.000155463 0)
(0.00137626 0.000151127 0)
(0.00136639 0.000146689 0)
(0.0013565 0.000142158 0)
(0.0013466 0.000137541 0)
(0.00133669 0.000132839 0)
(0.00132674 0.000128055 0)
(0.00131672 0.000123192 0)
(0.00130661 0.000118267 0)
(0.00129646 0.000113311 0)
(0.0012863 0.00010836 0)
(0.00127617 0.000103453 0)
(0.0012661 9.86247e-05 0)
(0.00125611 9.39037e-05 0)
(0.00124621 8.93123e-05 0)
(0.00123641 8.48672e-05 0)
(0.00122672 8.058e-05 0)
(0.00121716 7.6456e-05 0)
(0.00120776 7.24978e-05 0)
(0.00119851 6.8702e-05 0)
(0.00118945 6.50638e-05 0)
(0.00118056 6.15744e-05 0)
(0.00117188 5.82242e-05 0)
(0.0011634 5.5002e-05 0)
(0.00115513 5.18981e-05 0)
(0.00114707 4.89027e-05 0)
(0.00113925 4.60091e-05 0)
(0.0011317 4.32135e-05 0)
(0.00112441 4.05149e-05 0)
(0.00111738 3.79074e-05 0)
(0.00111061 3.53849e-05 0)
(0.0011041 3.29436e-05 0)
(0.00109788 3.05748e-05 0)
(0.00109195 2.82709e-05 0)
(0.00108635 2.60231e-05 0)
(0.00108107 2.38183e-05 0)
(0.00107615 2.16492e-05 0)
(0.00107159 1.95003e-05 0)
(0.0010674 1.73555e-05 0)
(0.0010636 1.52023e-05 0)
(0.0010602 1.30169e-05 0)
(0.00105721 1.07839e-05 0)
(0.00105465 8.48397e-06 0)
(0.00105248 6.08377e-06 0)
(0.00105076 3.57642e-06 0)
(0.00104941 9.39119e-07 0)
(0.0010484 -1.85795e-06 0)
(0.00104781 -4.80356e-06 0)
(0.00165213 7.59721e-05 0)
(0.00164758 8.53916e-05 0)
(0.00164349 9.51567e-05 0)
(0.00163929 0.00010518 0)
(0.00163464 0.000115278 0)
(0.00162946 0.000125273 0)
(0.00162377 0.000135026 0)
(0.00161768 0.000144447 0)
(0.0016113 0.000153484 0)
(0.00160475 0.000162101 0)
(0.0015981 0.000170268 0)
(0.00159141 0.000177953 0)
(0.00158473 0.000185124 0)
(0.00157809 0.00019175 0)
(0.00157154 0.000197803 0)
(0.00156509 0.00020326 0)
(0.00155879 0.000208101 0)
(0.00155266 0.000212311 0)
(0.00154672 0.000215878 0)
(0.00154101 0.000218796 0)
(0.00153552 0.000221063 0)
(0.00153025 0.000222686 0)
(0.00152519 0.000223675 0)
(0.00152031 0.000224048 0)
(0.00151558 0.000223829 0)
(0.00151096 0.00022305 0)
(0.00150643 0.000221748 0)
(0.00150193 0.000219972 0)
(0.00149743 0.000217778 0)
(0.00149293 0.000215229 0)
(0.00148841 0.000212389 0)
(0.00148388 0.000209317 0)
(0.00147938 0.000206063 0)
(0.00147492 0.00020267 0)
(0.00147053 0.000199172 0)
(0.00146622 0.000195593 0)
(0.001462 0.000191947 0)
(0.00145789 0.000188238 0)
(0.00145388 0.000184459 0)
(0.00144999 0.000180597 0)
(0.00144618 0.000176637 0)
(0.00144244 0.000172567 0)
(0.00143875 0.00016838 0)
(0.0014351 0.000164074 0)
(0.00143147 0.000159657 0)
(0.00142786 0.000155137 0)
(0.00142425 0.000150527 0)
(0.00142064 0.000145838 0)
(0.00141699 0.000141088 0)
(0.00141331 0.000136308 0)
(0.00140957 0.000131534 0)
(0.00140579 0.000126799 0)
(0.00140197 0.000122127 0)
(0.00139811 0.000117532 0)
(0.00139423 0.000113025 0)
(0.00139033 0.000108611 0)
(0.0013864 0.000104293 0)
(0.00138245 0.000100076 0)
(0.00137849 9.59611e-05 0)
(0.00137452 9.19495e-05 0)
(0.00137054 8.804e-05 0)
(0.00136657 8.42304e-05 0)
(0.00136261 8.05172e-05 0)
(0.00135866 7.68966e-05 0)
(0.00135474 7.33642e-05 0)
(0.00135085 6.99169e-05 0)
(0.00134699 6.65503e-05 0)
(0.00134318 6.32614e-05 0)
(0.00133941 6.00463e-05 0)
(0.00133571 5.68967e-05 0)
(0.00133206 5.38038e-05 0)
(0.00132849 5.0761e-05 0)
(0.00132497 4.77666e-05 0)
(0.00132154 4.48173e-05 0)
(0.00131819 4.19115e-05 0)
(0.00131493 3.90444e-05 0)
(0.0013118 3.62082e-05 0)
(0.00130878 3.33968e-05 0)
(0.00130589 3.05982e-05 0)
(0.00130315 2.78041e-05 0)
(0.00130055 2.5002e-05 0)
(0.00129811 2.21771e-05 0)
(0.00129582 1.93185e-05 0)
(0.00129371 1.64065e-05 0)
(0.00129177 1.34288e-05 0)
(0.00128998 1.03717e-05 0)
(0.00128839 7.21987e-06 0)
(0.00128692 3.9681e-06 0)
(0.00128563 6.1123e-07 0)
(0.00128451 -2.84784e-06 0)
(0.00177148 8.11254e-05 0)
(0.00176609 9.32387e-05 0)
(0.00176108 0.000105147 0)
(0.00175576 0.000116823 0)
(0.0017497 0.00012825 0)
(0.00174279 0.000139391 0)
(0.00173504 0.00015019 0)
(0.00172658 0.000160583 0)
(0.00171753 0.000170506 0)
(0.00170801 0.000179903 0)
(0.00169807 0.000188725 0)
(0.00168778 0.00019693 0)
(0.00167717 0.000204481 0)
(0.00166628 0.000211349 0)
(0.00165515 0.000217505 0)
(0.00164383 0.000222931 0)
(0.0016324 0.000227612 0)
(0.0016209 0.000231543 0)
(0.00160942 0.000234723 0)
(0.001598 0.00023716 0)
(0.00158671 0.000238864 0)
(0.00157561 0.000239854 0)
(0.00156474 0.000240153 0)
(0.00155413 0.000239794 0)
(0.00154382 0.000238812 0)
(0.00153384 0.000237254 0)
(0.00152421 0.000235168 0)
(0.00151494 0.000232613 0)
(0.00150606 0.000229648 0)
(0.00149758 0.000226341 0)
(0.00148953 0.000222752 0)
(0.00148191 0.00021894 0)
(0.00147473 0.000214951 0)
(0.001468 0.000210822 0)
(0.00146174 0.000206584 0)
(0.00145593 0.000202257 0)
(0.00145058 0.000197858 0)
(0.00144567 0.000193398 0)
(0.0014412 0.000188884 0)
(0.00143715 0.000184318 0)
(0.00143349 0.000179704 0)
(0.0014302 0.000175047 0)
(0.00142725 0.000170355 0)
(0.0014246 0.000165637 0)
(0.00142225 0.000160902 0)
(0.00142016 0.000156158 0)
(0.0014183 0.000151413 0)
(0.00141666 0.000146676 0)
(0.00141519 0.000141958 0)
(0.00141389 0.000137273 0)
(0.00141272 0.000132634 0)
(0.00141165 0.000128054 0)
(0.00141067 0.000123542 0)
(0.00140976 0.000119105 0)
(0.00140889 0.000114744 0)
(0.00140805 0.000110464 0)
(0.00140724 0.000106266 0)
(0.00140645 0.000102153 0)
(0.00140566 9.81274e-05 0)
(0.00140489 9.4192e-05 0)
(0.00140412 9.03474e-05 0)
(0.00140335 8.65936e-05 0)
(0.00140258 8.29299e-05 0)
(0.00140182 7.93551e-05 0)
(0.00140105 7.58671e-05 0)
(0.00140027 7.24635e-05 0)
(0.00139949 6.91405e-05 0)
(0.0013987 6.58937e-05 0)
(0.0013979 6.27183e-05 0)
(0.00139709 5.96075e-05 0)
(0.00139627 5.65563e-05 0)
(0.00139544 5.35587e-05 0)
(0.00139461 5.06107e-05 0)
(0.00139376 4.77084e-05 0)
(0.00139291 4.4845e-05 0)
(0.00139205 4.20153e-05 0)
(0.0013912 3.92095e-05 0)
(0.00139035 3.64182e-05 0)
(0.0013895 3.36324e-05 0)
(0.00138867 3.08381e-05 0)
(0.00138784 2.80281e-05 0)
(0.00138702 2.51879e-05 0)
(0.00138621 2.23051e-05 0)
(0.0013854 1.93723e-05 0)
(0.00138461 1.63684e-05 0)
(0.00138382 1.32911e-05 0)
(0.00138302 1.01224e-05 0)
(0.00138222 6.84929e-06 0)
(0.00138139 3.47901e-06 0)
(0.00138054 -1.95313e-08 0)
(0.00179447 8.8018e-05 0)
(0.00179185 0.000101429 0)
(0.00178976 0.000114626 0)
(0.00178778 0.000127538 0)
(0.00178555 0.000140157 0)
(0.00178281 0.000152473 0)
(0.00177945 0.00016446 0)
(0.00177548 0.000176067 0)
(0.00177094 0.00018723 0)
(0.00176587 0.000197879 0)
(0.0017603 0.000207946 0)
(0.00175423 0.000217368 0)
(0.00174764 0.000226089 0)
(0.00174053 0.00023406 0)
(0.0017329 0.000241239 0)
(0.00172474 0.000247595 0)
(0.00171608 0.0002531 0)
(0.00170694 0.000257738 0)
(0.00169737 0.000261501 0)
(0.00168741 0.000264388 0)
(0.00167711 0.000266407 0)
(0.00166651 0.000267575 0)
(0.00165567 0.000267919 0)
(0.00164465 0.000267471 0)
(0.0016335 0.000266274 0)
(0.00162229 0.000264377 0)
(0.00161107 0.000261836 0)
(0.00159991 0.000258711 0)
(0.00158887 0.000255067 0)
(0.001578 0.000250969 0)
(0.00156736 0.00024648 0)
(0.00155699 0.00024166 0)
(0.00154694 0.000236564 0)
(0.00153724 0.000231242 0)
(0.00152793 0.000225737 0)
(0.00151905 0.00022009 0)
(0.00151062 0.000214336 0)
(0.00150266 0.000208505 0)
(0.00149518 0.000202625 0)
(0.0014882 0.00019672 0)
(0.00148171 0.000190811 0)
(0.00147571 0.000184918 0)
(0.00147019 0.00017906 0)
(0.00146514 0.000173252 0)
(0.00146053 0.000167508 0)
(0.00145635 0.00016184 0)
(0.00145257 0.000156255 0)
(0.00144918 0.000150761 0)
(0.00144614 0.000145363 0)
(0.00144342 0.000140067 0)
(0.00144101 0.000134875 0)
(0.00143886 0.000129792 0)
(0.00143696 0.00012482 0)
(0.00143528 0.000119965 0)
(0.0014338 0.000115229 0)
(0.00143249 0.000110616 0)
(0.00143135 0.00010613 0)
(0.00143035 0.000101772 0)
(0.00142948 9.75442e-05 0)
(0.00142873 9.34458e-05 0)
(0.00142809 8.94751e-05 0)
(0.00142753 8.56289e-05 0)
(0.00142706 8.19033e-05 0)
(0.00142666 7.82935e-05 0)
(0.00142632 7.47936e-05 0)
(0.00142603 7.13976e-05 0)
(0.00142579 6.80987e-05 0)
(0.00142557 6.48897e-05 0)
(0.00142539 6.17634e-05 0)
(0.00142522 5.87122e-05 0)
(0.00142507 5.57289e-05 0)
(0.00142494 5.28057e-05 0)
(0.0014248 4.99351e-05 0)
(0.00142467 4.71096e-05 0)
(0.00142454 4.43207e-05 0)
(0.0014244 4.15605e-05 0)
(0.00142425 3.88199e-05 0)
(0.0014241 3.60898e-05 0)
(0.00142393 3.33613e-05 0)
(0.00142375 3.06243e-05 0)
(0.00142355 2.787e-05 0)
(0.00142333 2.50895e-05 0)
(0.00142309 2.22728e-05 0)
(0.00142282 1.94129e-05 0)
(0.00142251 1.64997e-05 0)
(0.00142217 1.35258e-05 0)
(0.00142176 1.04851e-05 0)
(0.00142131 7.36917e-06 0)
(0.00142079 4.17663e-06 0)
(0.00142019 9.02861e-07 0)
(0.00159423 8.93442e-05 0)
(0.00159732 0.000101994 0)
(0.00160131 0.000114845 0)
(0.00160588 0.000127737 0)
(0.00161067 0.000140552 0)
(0.00161541 0.000153211 0)
(0.00161997 0.000165655 0)
(0.00162431 0.00017783 0)
(0.00162842 0.000189677 0)
(0.0016323 0.000201129 0)
(0.00163593 0.000212111 0)
(0.00163926 0.000222548 0)
(0.00164225 0.000232365 0)
(0.00164484 0.000241497 0)
(0.00164697 0.000249886 0)
(0.0016486 0.000257481 0)
(0.00164971 0.000264242 0)
(0.00165025 0.000270136 0)
(0.00165024 0.00027514 0)
(0.00164965 0.000279237 0)
(0.00164848 0.000282423 0)
(0.00164675 0.0002847 0)
(0.00164446 0.000286082 0)
(0.00164165 0.000286591 0)
(0.00163833 0.000286259 0)
(0.00163454 0.000285127 0)
(0.00163032 0.00028324 0)
(0.00162573 0.000280649 0)
(0.0016208 0.000277408 0)
(0.00161559 0.000273571 0)
(0.00161014 0.000269196 0)
(0.00160451 0.00026434 0)
(0.00159875 0.000259063 0)
(0.0015929 0.000253423 0)
(0.00158701 0.000247477 0)
(0.00158114 0.000241278 0)
(0.00157533 0.000234877 0)
(0.00156963 0.000228321 0)
(0.00156407 0.000221652 0)
(0.00155869 0.000214911 0)
(0.0015535 0.000208131 0)
(0.00154854 0.000201345 0)
(0.00154383 0.00019458 0)
(0.00153936 0.000187861 0)
(0.00153515 0.00018121 0)
(0.0015312 0.000174645 0)
(0.00152751 0.000168182 0)
(0.00152406 0.000161833 0)
(0.00152087 0.000155611 0)
(0.00151791 0.000149524 0)
(0.00151517 0.00014358 0)
(0.00151264 0.000137787 0)
(0.00151032 0.000132151 0)
(0.00150818 0.000126677 0)
(0.00150622 0.000121369 0)
(0.00150443 0.00011623 0)
(0.00150278 0.000111261 0)
(0.00150128 0.000106463 0)
(0.00149991 0.000101832 0)
(0.00149865 9.73652e-05 0)
(0.0014975 9.30587e-05 0)
(0.00149645 8.89064e-05 0)
(0.00149548 8.4902e-05 0)
(0.00149459 8.10385e-05 0)
(0.00149376 7.73084e-05 0)
(0.00149299 7.37037e-05 0)
(0.00149227 7.02161e-05 0)
(0.0014916 6.68375e-05 0)
(0.00149096 6.35589e-05 0)
(0.00149035 6.03721e-05 0)
(0.00148976 5.72678e-05 0)
(0.00148919 5.42374e-05 0)
(0.00148864 5.12718e-05 0)
(0.00148809 4.83617e-05 0)
(0.00148755 4.54987e-05 0)
(0.00148701 4.26735e-05 0)
(0.00148648 3.9877e-05 0)
(0.00148594 3.71012e-05 0)
(0.00148539 3.43357e-05 0)
(0.00148483 3.15731e-05 0)
(0.00148427 2.8804e-05 0)
(0.00148369 2.60194e-05 0)
(0.00148309 2.32137e-05 0)
(0.00148247 2.03755e-05 0)
(0.00148182 1.75026e-05 0)
(0.00148114 1.45867e-05 0)
(0.00148043 1.16225e-05 0)
(0.00147967 8.61268e-06 0)
(0.00147886 5.54369e-06 0)
(0.00147799 2.42558e-06 0)
(0.00123319 7.60955e-05 0)
(0.00124129 8.76785e-05 0)
(0.00125058 9.97156e-05 0)
(0.00126066 0.000111973 0)
(0.0012712 0.000124276 0)
(0.00128202 0.000136519 0)
(0.00129303 0.000148646 0)
(0.00130423 0.000160614 0)
(0.00131561 0.000172378 0)
(0.00132717 0.000183878 0)
(0.00133885 0.000195043 0)
(0.00135061 0.000205795 0)
(0.00136237 0.000216059 0)
(0.00137406 0.000225764 0)
(0.00138561 0.000234848 0)
(0.00139695 0.000243253 0)
(0.00140803 0.000250931 0)
(0.00141879 0.000257839 0)
(0.00142919 0.000263942 0)
(0.00143917 0.000269211 0)
(0.00144869 0.000273626 0)
(0.00145774 0.000277176 0)
(0.00146626 0.000279857 0)
(0.00147426 0.000281676 0)
(0.00148171 0.000282647 0)
(0.0014886 0.000282792 0)
(0.00149495 0.000282139 0)
(0.00150074 0.000280722 0)
(0.00150599 0.000278582 0)
(0.00151071 0.000275759 0)
(0.00151492 0.000272304 0)
(0.00151866 0.000268268 0)
(0.00152196 0.000263708 0)
(0.00152484 0.000258683 0)
(0.00152736 0.00025325 0)
(0.00152955 0.000247467 0)
(0.00153144 0.000241388 0)
(0.00153307 0.000235067 0)
(0.00153448 0.000228552 0)
(0.0015357 0.000221889 0)
(0.00153676 0.000215121 0)
(0.00153769 0.000208286 0)
(0.00153851 0.000201419 0)
(0.00153924 0.000194552 0)
(0.00153991 0.000187714 0)
(0.00154052 0.000180931 0)
(0.00154108 0.000174225 0)
(0.00154162 0.000167618 0)
(0.00154213 0.000161128 0)
(0.00154263 0.00015477 0)
(0.00154312 0.000148558 0)
(0.00154359 0.000142503 0)
(0.00154407 0.000136614 0)
(0.00154453 0.0001309 0)
(0.001545 0.000125364 0)
(0.00154546 0.00012001 0)
(0.00154591 0.000114839 0)
(0.00154635 0.000109851 0)
(0.00154678 0.000105044 0)
(0.00154719 0.000100413 0)
(0.00154759 9.59562e-05 0)
(0.00154796 9.16664e-05 0)
(0.00154832 8.75377e-05 0)
(0.00154864 8.35633e-05 0)
(0.00154893 7.97355e-05 0)
(0.0015492 7.60461e-05 0)
(0.00154942 7.24867e-05 0)
(0.00154961 6.90481e-05 0)
(0.00154975 6.57213e-05 0)
(0.00154985 6.24967e-05 0)
(0.0015499 5.93648e-05 0)
(0.00154991 5.63157e-05 0)
(0.00154986 5.33398e-05 0)
(0.00154976 5.04272e-05 0)
(0.00154961 4.75683e-05 0)
(0.00154939 4.47537e-05 0)
(0.00154913 4.19739e-05 0)
(0.0015488 3.92194e-05 0)
(0.00154841 3.64815e-05 0)
(0.00154796 3.37509e-05 0)
(0.00154745 3.10189e-05 0)
(0.00154688 2.8278e-05 0)
(0.00154624 2.55191e-05 0)
(0.00154553 2.27371e-05 0)
(0.00154475 1.9924e-05 0)
(0.00154389 1.70749e-05 0)
(0.00154295 1.41868e-05 0)
(0.00154193 1.12524e-05 0)
(0.00154082 8.27481e-06 0)
(0.00153962 5.24914e-06 0)
(0.000822484 5.22559e-05 0)
(0.000833171 6.32761e-05 0)
(0.000844985 7.4595e-05 0)
(0.000857419 8.5999e-05 0)
(0.000870293 9.73829e-05 0)
(0.000883587 0.000108713 0)
(0.000897347 0.00011998 0)
(0.000911615 0.000131167 0)
(0.000926399 0.000142234 0)
(0.000941678 0.000153125 0)
(0.000957413 0.000163772 0)
(0.000973553 0.000174109 0)
(0.000990044 0.000184068 0)
(0.00100683 0.000193589 0)
(0.00102384 0.000202613 0)
(0.00104102 0.000211088 0)
(0.00105831 0.000218965 0)
(0.00107564 0.000226198 0)
(0.00109295 0.000232749 0)
(0.00111018 0.000238581 0)
(0.00112726 0.000243668 0)
(0.00114414 0.000247987 0)
(0.00116077 0.000251525 0)
(0.00117709 0.000254276 0)
(0.00119306 0.000256238 0)
(0.00120863 0.000257419 0)
(0.00122377 0.000257833 0)
(0.00123845 0.000257502 0)
(0.00125264 0.000256455 0)
(0.00126634 0.00025473 0)
(0.00127953 0.000252368 0)
(0.00129222 0.000249415 0)
(0.00130441 0.000245917 0)
(0.00131609 0.000241924 0)
(0.00132729 0.000237488 0)
(0.00133802 0.000232657 0)
(0.00134828 0.000227482 0)
(0.0013581 0.000222011 0)
(0.00136749 0.000216291 0)
(0.00137647 0.000210367 0)
(0.00138507 0.000204282 0)
(0.00139329 0.000198077 0)
(0.00140116 0.00019179 0)
(0.0014087 0.000185455 0)
(0.00141592 0.000179105 0)
(0.00142283 0.000172771 0)
(0.00142946 0.00016648 0)
(0.00143582 0.000160256 0)
(0.00144192 0.000154122 0)
(0.00144778 0.000148097 0)
(0.0014534 0.000142197 0)
(0.00145879 0.000136436 0)
(0.00146397 0.000130825 0)
(0.00146894 0.000125374 0)
(0.00147371 0.000120089 0)
(0.00147829 0.000114976 0)
(0.00148269 0.000110036 0)
(0.0014869 0.000105272 0)
(0.00149093 0.000100683 0)
(0.0014948 9.62662e-05 0)
(0.0014985 9.202e-05 0)
(0.00150204 8.79396e-05 0)
(0.00150541 8.40198e-05 0)
(0.00150863 8.02544e-05 0)
(0.00151169 7.66363e-05 0)
(0.0015146 7.3158e-05 0)
(0.00151736 6.9811e-05 0)
(0.00151997 6.65866e-05 0)
(0.00152243 6.34758e-05 0)
(0.00152474 6.04687e-05 0)
(0.0015269 5.75561e-05 0)
(0.00152891 5.47281e-05 0)
(0.00153077 5.19746e-05 0)
(0.00153248 4.92862e-05 0)
(0.00153404 4.66526e-05 0)
(0.00153546 4.40647e-05 0)
(0.00153672 4.15129e-05 0)
(0.00153783 3.89876e-05 0)
(0.00153879 3.64805e-05 0)
(0.00153959 3.39821e-05 0)
(0.00154025 3.1485e-05 0)
(0.00154074 2.89811e-05 0)
(0.00154107 2.6463e-05 0)
(0.00154124 2.39256e-05 0)
(0.00154125 2.13616e-05 0)
(0.00154109 1.87683e-05 0)
(0.00154076 1.61412e-05 0)
(0.00154026 1.34777e-05 0)
(0.00153958 1.07791e-05 0)
(0.00153872 8.04269e-06 0)
(0.000413509 2.84843e-05 0)
(0.000424215 3.8969e-05 0)
(0.00043562 4.88942e-05 0)
(0.000447634 5.87451e-05 0)
(0.00046027 6.85658e-05 0)
(0.000473597 7.83861e-05 0)
(0.000487648 8.82233e-05 0)
(0.000502424 9.80422e-05 0)
(0.000517908 0.000107795 0)
(0.000534079 0.000117425 0)
(0.00055091 0.000126882 0)
(0.000568373 0.000136114 0)
(0.000586431 0.000145072 0)
(0.000605043 0.000153704 0)
(0.000624163 0.00016196 0)
(0.000643737 0.000169791 0)
(0.000663713 0.00017715 0)
(0.00068403 0.000183993 0)
(0.000704628 0.00019028 0)
(0.000725445 0.000195976 0)
(0.000746417 0.00020105 0)
(0.00076748 0.000205476 0)
(0.000788568 0.000209238 0)
(0.000809622 0.00021232 0)
(0.000830579 0.000214718 0)
(0.000851383 0.000216435 0)
(0.000871984 0.000217481 0)
(0.000892332 0.000217872 0)
(0.000912384 0.000217628 0)
(0.000932101 0.000216777 0)
(0.00095145 0.000215349 0)
(0.0009704 0.000213377 0)
(0.000988929 0.000210896 0)
(0.00100701 0.000207944 0)
(0.00102464 0.000204561 0)
(0.0010418 0.000200788 0)
(0.00105849 0.000196667 0)
(0.00107469 0.00019224 0)
(0.00109041 0.00018755 0)
(0.00110565 0.000182637 0)
(0.00112042 0.000177542 0)
(0.00113471 0.000172304 0)
(0.00114854 0.000166957 0)
(0.00116192 0.000161537 0)
(0.00117485 0.000156076 0)
(0.00118735 0.000150604 0)
(0.00119942 0.000145148 0)
(0.00121107 0.000139732 0)
(0.00122233 0.00013438 0)
(0.0012332 0.00012911 0)
(0.00124368 0.00012394 0)
(0.0012538 0.000118884 0)
(0.00126356 0.000113955 0)
(0.00127298 0.000109161 0)
(0.00128207 0.000104512 0)
(0.00129083 0.000100012 0)
(0.00129927 9.56656e-05 0)
(0.00130742 9.14759e-05 0)
(0.00131527 8.74436e-05 0)
(0.00132284 8.35682e-05 0)
(0.00133013 7.98478e-05 0)
(0.00133715 7.62796e-05 0)
(0.00134391 7.28592e-05 0)
(0.00135041 6.95819e-05 0)
(0.00135666 6.64418e-05 0)
(0.00136267 6.34321e-05 0)
(0.00136844 6.05462e-05 0)
(0.00137396 5.7776e-05 0)
(0.00137925 5.51135e-05 0)
(0.00138431 5.25506e-05 0)
(0.00138914 5.00781e-05 0)
(0.00139374 4.76878e-05 0)
(0.00139811 4.53702e-05 0)
(0.00140224 4.31164e-05 0)
(0.00140615 4.09182e-05 0)
(0.00140983 3.87655e-05 0)
(0.00141327 3.66508e-05 0)
(0.00141647 3.45652e-05 0)
(0.00141944 3.24999e-05 0)
(0.00142218 3.0449e-05 0)