/*--------------------------------*- C++ -*----------------------------------*\
| =========                 |                                                 |
| \\      /  F ield         | OpenFOAM: The Open Source CFD Toolbox           |
|  \\    /   O peration     | Version:  2312                                  |
|   \\  /    A nd           | Website:  www.openfoam.com                      |
|    \\/     M anipulation  |                                                 |
\*---------------------------------------------------------------------------*/
FoamFile
{
    version     2.0;
    format      ascii;
    arch        "LSB;label=32;scalar=64";
    class       surfaceScalarField;
    location    "109000";
    object      phi;
}
// * * * * * * * * * * * * * * * * * * * * * * * * * * * * * * * * * * * * * //

dimensions      [0 3 -1 0 0 0 0];

oriented        oriented;

internalField   nonuniform List<scalar> 
5250
(
0.000508988
7.81086e-07
0.000504682
4.30587e-06
0.00049783
6.85171e-06
0.000488491
9.33974e-06
0.000476828
1.16624e-05
0.000463171
1.36572e-05
0.000447856
1.5315e-05
0.000431144
1.67122e-05
0.000413197
1.79469e-05
0.000394115
1.90822e-05
0.000373977
2.01381e-05
0.000352861
2.11156e-05
0.000330851
2.20102e-05
0.000308036
2.28153e-05
0.000284515
2.35204e-05
0.000260403
2.41119e-05
0.000235832
2.45712e-05
0.000210956
2.48762e-05
0.000185957
2.49992e-05
0.000161048
2.49088e-05
0.00013648
2.45681e-05
0.000112538
2.39414e-05
8.95475e-05
2.29909e-05
6.7874e-05
2.16735e-05
4.79256e-05
1.99484e-05
3.00935e-05
1.78321e-05
1.46743e-05
1.54192e-05
1.82097e-06
1.28533e-05
-8.44125e-06
1.02622e-05
-1.61085e-05
7.66725e-06
-2.14097e-05
5.30122e-06
-2.46552e-05
3.24547e-06
-2.61565e-05
1.50132e-06
-2.62897e-05
1.33238e-07
-2.52028e-05
-1.08695e-06
-2.3268e-05
-1.93482e-06
-2.08138e-05
-2.4542e-06
-1.81365e-05
-2.67728e-06
-1.54971e-05
-2.63937e-06
-1.31159e-05
-2.38125e-06
-1.11647e-05
-1.95117e-06
-9.76437e-06
-1.40034e-06
-8.98675e-06
-7.77624e-07
-8.86086e-06
-1.25891e-07
-9.30477e-06
4.43911e-07
-1.03115e-05
1.00675e-06
-1.1807e-05
1.49544e-06
-1.36801e-05
1.87319e-06
-1.57946e-05
2.11447e-06
-1.79928e-05
2.19819e-06
-2.01296e-05
2.13682e-06
-2.20927e-05
1.96305e-06
-2.38025e-05
1.70977e-06
-2.52048e-05
1.4023e-06
-2.62664e-05
1.0616e-06
-2.69741e-05
7.07729e-07
-2.73326e-05
3.58479e-07
-2.73467e-05
1.41378e-08
-2.71151e-05
-2.31637e-07
-2.66626e-05
-4.52439e-07
-2.603e-05
-6.32621e-07
-2.52604e-05
-7.69629e-07
-2.43924e-05
-8.68026e-07
-2.34598e-05
-9.32541e-07
-2.24934e-05
-9.66381e-07
-2.15211e-05
-9.72365e-07
-2.05673e-05
-9.53717e-07
-1.96533e-05
-9.14035e-07
-1.87941e-05
-8.59173e-07
-1.79918e-05
-8.02388e-07
-1.72631e-05
-7.28678e-07
-1.66156e-05
-6.47477e-07
-1.60531e-05
-5.62481e-07
-1.55769e-05
-4.7617e-07
-1.51867e-05
-3.90249e-07
-1.48819e-05
-3.04768e-07
-1.46621e-05
-2.1979e-07
-1.45275e-05
-1.34673e-07
-1.44807e-05
-4.67913e-08
-1.45185e-05
3.78056e-08
-1.46386e-05
1.20097e-07
-1.48475e-05
2.08943e-07
-1.51529e-05
3.05359e-07
-1.55621e-05
4.09171e-07
-1.60826e-05
5.20504e-07
-1.67217e-05
6.39163e-07
-1.74864e-05
7.64666e-07
-1.83824e-05
8.9605e-07
-1.94143e-05
1.0319e-06
1.17046e-06
0.000888765
7.8258e-06
0.000881977
1.10947e-05
0.000874916
1.39126e-05
0.000867644
1.66117e-05
0.000860051
1.92552e-05
0.000851906
2.1802e-05
0.000843009
2.42127e-05
0.000833251
2.64695e-05
0.000822619
2.85796e-05
0.000811128
3.0573e-05
0.000798789
3.24773e-05
0.000785604
3.43004e-05
0.00077158
3.60342e-05
0.000756735
3.766e-05
0.000741101
3.91544e-05
0.000724717
4.04958e-05
0.000707623
4.16654e-05
0.000689856
4.26427e-05
0.000671452
4.3404e-05
0.000652437
4.39229e-05
0.000632833
4.41724e-05
0.000612647
4.41274e-05
0.000591871
4.37674e-05
0.000570464
4.308e-05
0.000548348
4.20649e-05
0.000525441
4.07393e-05
0.000501717
3.91423e-05
0.000477241
3.73297e-05
0.000452135
3.53688e-05
0.000426474
3.33274e-05
0.000400463
3.13125e-05
0.000374108
2.9601e-05
0.000347891
2.77182e-05
0.000322182
2.58419e-05
0.000297022
2.40735e-05
0.000272641
2.24456e-05
0.000249224
2.09624e-05
0.000226936
1.9611e-05
0.000205927
1.83695e-05
0.000186329
1.72171e-05
0.000168242
1.61354e-05
0.000151732
1.51098e-05
0.000136826
1.41286e-05
0.00012352
1.31804e-05
0.000111703
1.2261e-05
0.000101343
1.13667e-05
9.23434e-05
1.04947e-05
8.46116e-05
9.60498e-06
7.80236e-05
8.70247e-06
7.23775e-05
7.84424e-06
6.75393e-05
6.97507e-06
6.33937e-05
6.10861e-06
5.98429e-05
5.2606e-06
5.68049e-05
4.44036e-06
5.42116e-05
3.65485e-06
5.20058e-05
2.91349e-06
5.01367e-05
2.2276e-06
4.85448e-05
1.60601e-06
4.72579e-05
1.05527e-06
4.62242e-05
5.8135e-07
4.54039e-05
1.87635e-07
4.47841e-05
-1.49804e-07
4.43506e-05
-4.34537e-07
4.40683e-05
-6.5023e-07
4.391e-05
-8.08118e-07
4.38521e-05
-9.14471e-07
4.38726e-05
-9.7417e-07
4.39432e-05
-9.84704e-07
4.40464e-05
-9.62385e-07
4.41709e-05
-9.2682e-07
4.43168e-05
-8.74561e-07
4.44771e-05
-8.07848e-07
4.46441e-05
-7.29484e-07
4.48121e-05
-6.44122e-07
4.49797e-05
-5.57889e-07
4.515e-05
-4.75085e-07
4.53265e-05
-3.96272e-07
4.55114e-05
-3.19586e-07
4.57073e-05
-2.42626e-07
4.59084e-05
-1.63316e-07
4.61092e-05
-8.06609e-08
4.63127e-05
5.41078e-09
4.64914e-05
1.26645e-07
4.66497e-05
2.50831e-07
4.67845e-05
3.85718e-07
4.6892e-05
5.31656e-07
4.69683e-05
6.88359e-07
4.70109e-05
8.53485e-07
4.70195e-05
1.02332e-06
1.19514e-06
0.0010352
1.14208e-05
0.00103161
1.46878e-05
0.0010277
1.78151e-05
0.00102358
2.07392e-05
0.00101931
2.35252e-05
0.00101487
2.62354e-05
0.00101019
2.88986e-05
0.00100514
3.15107e-05
0.00099967
3.40542e-05
0.000993728
3.65149e-05
0.00098732
3.88854e-05
0.00098046
4.1161e-05
0.000973157
4.33367e-05
0.000965414
4.54033e-05
0.00095722
4.73484e-05
0.00094856
4.9156e-05
0.000939416
5.08086e-05
0.000929773
5.22863e-05
0.000919607
5.35694e-05
0.000908893
5.46368e-05
0.000897596
5.54695e-05
0.000885676
5.60482e-05
0.000873084
5.6359e-05
0.000859774
5.639e-05
0.000845701
5.61384e-05
0.000830832
5.5608e-05
0.000815155
5.48191e-05
0.000798681
5.38037e-05
0.000781441
5.26091e-05
0.000763482
5.12858e-05
0.000744909
4.98859e-05
0.000726067
4.84429e-05
0.000706855
4.69302e-05
0.000687432
4.52649e-05
0.000667744
4.37616e-05
0.000647869
4.23206e-05
0.000627909
4.09222e-05
0.000607964
3.95565e-05
0.000588121
3.82119e-05
0.000568464
3.68745e-05
0.000549069
3.55299e-05
0.000530012
3.41672e-05
0.000511361
3.27799e-05
0.000493175
3.13657e-05
0.000475511
2.99255e-05
0.000458414
2.84633e-05
0.00044191
2.69993e-05
0.000425923
2.55913e-05
0.000410536
2.40898e-05
0.00039581
2.257e-05
0.000381729
2.10561e-05
0.000368276
1.95618e-05
0.000355438
1.80983e-05
0.000343203
1.66756e-05
0.000331557
1.53015e-05
0.000320487
1.39829e-05
0.000309988
1.27268e-05
0.000300056
1.15379e-05
0.00029069
1.04217e-05
0.00028189
9.38125e-06
0.000273661
8.41623e-06
0.000265986
7.52507e-06
0.000258846
6.70588e-06
0.000252238
5.95723e-06
0.000246154
5.27594e-06
0.000240581
4.65834e-06
0.000235506
4.10073e-06
0.000230923
3.59835e-06
0.000226815
3.14637e-06
0.000223148
2.73948e-06
0.000219899
2.37496e-06
0.000217041
2.05015e-06
0.000214552
1.75948e-06
0.000212414
1.49413e-06
0.000210616
1.23973e-06
0.000209119
1.02223e-06
0.000207894
8.28928e-07
0.000206918
6.5576e-07
0.000206174
5.01741e-07
0.000205644
3.66567e-07
0.000205312
2.5078e-07
0.000205163
1.55383e-07
0.000205207
8.20988e-08
0.000205428
3.03582e-08
0.000205813
7.4273e-10
0.000206363
-1.87113e-08
0.000207069
-1.72986e-08
0.000207921
1.30122e-09
0.000208921
2.33907e-08
5.44568e-08
0.00109859
1.48066e-05
0.00109566
1.76161e-05
0.00109295
2.05302e-05
0.00109027
2.34129e-05
0.00108757
2.62241e-05
0.00108483
2.8976e-05
0.00108205
3.16853e-05
0.0010792
3.4359e-05
0.00107626
3.69933e-05
0.0010732
3.95753e-05
0.00106999
4.20918e-05
0.00106662
4.45288e-05
0.00106309
4.6871e-05
0.00105938
4.91123e-05
0.00105549
5.1245e-05
0.00105138
5.32564e-05
0.00104706
5.51321e-05
0.00104249
5.68567e-05
0.00103765
5.84144e-05
0.00103249
5.979e-05
0.00102699
6.09687e-05
0.0010211
6.19368e-05
0.00101478
6.26823e-05
0.00100797
6.3197e-05
0.00100063
6.34781e-05
0.000992712
6.35301e-05
0.00098417
6.33617e-05
0.00097499
6.29837e-05
0.000965203
6.23957e-05
0.00095483
6.16593e-05
0.000943909
6.0807e-05
0.000932493
5.98583e-05
0.00092059
5.88334e-05
0.000908107
5.77482e-05
0.000895247
5.6621e-05
0.00088211
5.54584e-05
0.00086877
5.42623e-05
0.000855294
5.30318e-05
0.000841736
5.177e-05
0.000828132
5.04786e-05
0.000814547
4.91148e-05
0.000801023
4.76912e-05
0.000787585
4.62178e-05
0.000774255
4.4696e-05
0.000761052
4.31288e-05
0.000747994
4.15205e-05
0.000735116
3.98777e-05
0.000722503
3.82039e-05
0.000710111
3.64817e-05
0.000697988
3.46936e-05
0.000686122
3.29222e-05
0.000674517
3.11663e-05
0.000663185
2.94307e-05
0.000652137
2.77235e-05
0.000641385
2.60535e-05
0.000630938
2.44295e-05
0.000620805
2.28598e-05
0.000610992
2.13512e-05
0.000601504
1.99096e-05
0.000592346
1.8539e-05
0.000583521
1.72421e-05
0.000575026
1.60199e-05
0.00056686
1.48716e-05
0.000559021
1.37964e-05
0.000551504
1.27925e-05
0.000544305
1.18575e-05
0.000537418
1.0988e-05
0.000530836
1.01801e-05
0.000524552
9.43025e-06
0.000518558
8.73371e-06
0.000512846
8.08715e-06
0.000507401
7.49486e-06
0.000502203
6.95721e-06
0.000497257
6.44072e-06
0.000492546
5.95108e-06
0.000488076
5.49156e-06
0.000483846
5.05883e-06
0.000479853
4.64926e-06
0.000476093
4.26127e-06
0.000472566
3.89408e-06
0.000469269
3.5473e-06
0.000466204
3.22051e-06
0.000463374
2.91228e-06
0.000460784
2.62059e-06
0.000458441
2.34297e-06
0.000456346
2.07673e-06
0.000454508
1.8203e-06
0.000452939
1.57065e-06
0.000451638
1.32443e-06
1.07725e-06
0.00108424
1.70755e-05
0.0010823
1.95534e-05
0.00108062
2.22069e-05
0.00107907
2.49703e-05
0.00107752
2.77671e-05
0.00107596
3.05407e-05
0.00107438
3.32665e-05
0.00107279
3.59406e-05
0.00107122
3.85647e-05
0.00106966
4.11361e-05
0.00106811
4.36469e-05
0.00106655
4.60852e-05
0.00106498
4.84382e-05
0.0010634
5.06936e-05
0.00106181
5.2841e-05
0.00106019
5.48704e-05
0.00105855
5.67716e-05
0.00105688
5.8534e-05
0.00105514
6.01471e-05
0.00105333
6.16011e-05
0.00105141
6.28884e-05
0.00104935
6.40039e-05
0.00104709
6.49335e-05
0.00104462
6.56684e-05
0.00104189
6.62103e-05
0.00103886
6.65611e-05
0.0010355
6.67248e-05
0.00103177
6.67089e-05
0.00102764
6.65255e-05
0.00102311
6.61947e-05
0.00101817
6.57386e-05
0.00101286
6.51739e-05
0.00100718
6.45131e-05
0.00100116
6.37627e-05
0.000994859
6.29257e-05
0.000988308
6.201e-05
0.000981546
6.10242e-05
0.000974604
5.99735e-05
0.000967515
5.88591e-05
0.000960321
5.76728e-05
0.000953038
5.63974e-05
0.000945668
5.50615e-05
0.000938222
5.36643e-05
0.000930712
5.2206e-05
0.000923152
5.06879e-05
0.00091556
4.91128e-05
0.000907954
4.74834e-05
0.000900353
4.58054e-05
0.000892749
4.40853e-05
0.000885112
4.23313e-05
0.000877479
4.05545e-05
0.00086988
3.8766e-05
0.000862334
3.69758e-05
0.000854864
3.5194e-05
0.000847487
3.34301e-05
0.000840223
3.16937e-05
0.000833089
2.99937e-05
0.000826102
2.83384e-05
0.000819277
2.67351e-05
0.000812626
2.51897e-05
0.000806161
2.3707e-05
0.000799891
2.22904e-05
0.00079382
2.09419e-05
0.000787954
1.96622e-05
0.000782296
1.84514e-05
0.000776844
1.73086e-05
0.0007716
1.62322e-05
0.000766561
1.52198e-05
0.000761722
1.42693e-05
0.000757077
1.33778e-05
0.000752622
1.25427e-05
0.000748356
1.17611e-05
0.000744285
1.10277e-05
0.00074039
1.03354e-05
0.000736661
9.68073e-06
0.00073309
9.06267e-06
0.000729669
8.47982e-06
0.000726389
7.92887e-06
0.000723244
7.40614e-06
0.00072023
6.90828e-06
0.000717345
6.43256e-06
0.000714589
5.97641e-06
0.000711964
5.53692e-06
0.000709474
5.11131e-06
0.00070712
4.69645e-06
0.000704908
4.289e-06
0.000702842
3.88609e-06
0.000700929
3.48383e-06
0.000699174
3.07902e-06
2.66809e-06
0.00109413
1.8503e-05
0.00109238
2.13031e-05
0.00109042
2.4173e-05
0.0010883
2.70848e-05
0.00108606
3.00089e-05
0.00108368
3.29173e-05
0.00108116
3.57877e-05
0.0010785
3.86053e-05
0.0010757
4.13596e-05
0.0010728
4.40417e-05
0.0010698
4.66419e-05
0.00106674
4.91499e-05
0.00106362
5.15546e-05
0.00106047
5.38445e-05
0.0010573
5.60088e-05
0.00105414
5.80372e-05
0.00105099
5.99205e-05
0.00104787
6.16503e-05
0.0010448
6.32192e-05
0.00104178
6.46209e-05
0.00103882
6.58499e-05
0.00103592
6.69022e-05
0.00103308
6.77746e-05
0.00103028
6.84653e-05
0.00102752
6.89756e-05
0.00102477
6.93097e-05
0.00102202
6.9474e-05
0.00101925
6.94775e-05
0.00101644
6.93315e-05
0.00101359
6.90495e-05
0.00101068
6.86467e-05
0.00100772
6.8132e-05
0.00100473
6.75063e-05
0.00100171
6.67806e-05
0.000998672
6.59646e-05
0.000995616
6.50662e-05
0.000992548
6.40922e-05
0.000989474
6.30475e-05
0.000986399
6.19346e-05
0.000983317
6.07543e-05
0.000980206
5.9508e-05
0.000977069
5.81992e-05
0.000973903
5.68304e-05
0.000970705
5.5404e-05
0.00096747
5.39232e-05
0.000964193
5.23892e-05
0.000960871
5.08054e-05
0.000957499
4.91776e-05
0.000954071
4.75128e-05
0.000950586
4.58171e-05
0.000947045
4.40953e-05
0.000943457
4.23542e-05
0.00093983
4.06024e-05
0.000936175
3.8849e-05
0.000932502
3.71034e-05
0.000928821
3.53747e-05
0.000925143
3.36714e-05
0.00092148
3.20012e-05
0.000917845
3.03708e-05
0.000914248
2.87862e-05
0.000910703
2.72525e-05
0.000907219
2.57735e-05
0.000903809
2.43523e-05
0.00090048
2.29908e-05
0.000897242
2.169e-05
0.0008941
2.04502e-05
0.000891061
1.92712e-05
0.000888129
1.8152e-05
0.000885307
1.70914e-05
0.000882597
1.60874e-05
0.000880002
1.51381e-05
0.000877523
1.42403e-05
0.000875159
1.33916e-05
0.000872905
1.25894e-05
0.000870756
1.18296e-05
0.00086871
1.11085e-05
0.000866767
1.04234e-05
0.000864923
9.77202e-06
0.000863178
9.15114e-06
0.000861529
8.55752e-06
0.000859974
7.98808e-06
0.00085851
7.43964e-06
0.000857138
6.90945e-06
0.000855855
6.39418e-06
0.000854661
5.89059e-06
0.000853555
5.39536e-06
0.000852536
4.90474e-06
0.000851604
4.41614e-06
0.000850757
3.92552e-06
3.42953e-06
0.00117043
2.02703e-05
0.0011682
2.35316e-05
0.00116564
2.67298e-05
0.00116284
2.98835e-05
0.00115983
3.3017e-05
0.00115661
3.61394e-05
0.00115316
3.92428e-05
0.00114945
4.23092e-05
0.00114549
4.53189e-05
0.00114128
4.82547e-05
0.00113682
5.11026e-05
0.00113212
5.38499e-05
0.00112719
5.64845e-05
0.00112204
5.89939e-05
0.00111668
6.13654e-05
0.00111113
6.35865e-05
0.00110541
6.56454e-05
0.00109953
6.75314e-05
0.00109351
6.92353e-05
0.00108738
7.07491e-05
0.00108117
7.20666e-05
0.00107489
7.31829e-05
0.00106857
7.40953e-05
0.00106223
7.48034e-05
0.00105589
7.53085e-05
0.00104959
7.56148e-05
0.00104333
7.57292e-05
0.00103715
7.56606e-05
0.00103106
7.54193e-05
0.0010251
7.50164e-05
0.00101928
7.44629e-05
0.00101364
7.3769e-05
0.0010082
7.29451e-05
0.00100298
7.20038e-05
0.000997988
7.09582e-05
0.000993234
6.98198e-05
0.000988728
6.85984e-05
0.000984473
6.73022e-05
0.000980469
6.59387e-05
0.000976709
6.4514e-05
0.000973184
6.30335e-05
0.000969882
6.15011e-05
0.000966791
5.99208e-05
0.000963899
5.82969e-05
0.000961188
5.66338e-05
0.000958641
5.49358e-05
0.000956239
5.32076e-05
0.000953963
5.14538e-05
0.000951796
4.96794e-05
0.000949724
4.78896e-05
0.00094773
4.60894e-05
0.000945799
4.42846e-05
0.00094392
4.24815e-05
0.000942083
4.06867e-05
0.000940279
3.8907e-05
0.000938505
3.7149e-05
0.000936757
3.54188e-05
0.000935037
3.37219e-05
0.000933344
3.20633e-05
0.000931683
3.04472e-05
0.000930058
2.88777e-05
0.000928474
2.73578e-05
0.000926936
2.58902e-05
0.00092545
2.44769e-05
0.00092402
2.31192e-05
0.000922653
2.18177e-05
0.000921351
2.05726e-05
0.00092012
1.93835e-05
0.000918962
1.82498e-05
0.000917879
1.71703e-05
0.000916873
1.61434e-05
0.000915946
1.51673e-05
0.000915098
1.42401e-05
0.000914328
1.33596e-05
0.000913635
1.25227e-05
0.000913017
1.17264e-05
0.000912472
1.09681e-05
0.000911999
1.02454e-05
0.000911594
9.5558e-06
0.000911255
8.89647e-06
0.000910979
8.2645e-06
0.000910762
7.65667e-06
0.000910601
7.06998e-06
0.000910494
6.50134e-06
0.000910437
5.94715e-06
0.000910429
5.40345e-06
0.000910468
4.866e-06
0.000910549
4.33481e-06
0.000910669
3.80562e-06
3.27435e-06
0.00118148
2.12391e-05
0.00118059
2.44249e-05
0.00117968
2.76367e-05
0.00117871
3.08535e-05
0.00117766
3.40654e-05
0.00117654
3.7265e-05
0.00117533
4.0448e-05
0.00117403
4.36094e-05
0.00117261
4.6741e-05
0.00117103
4.98304e-05
0.00116927
5.28627e-05
0.0011673
5.5822e-05
0.00116509
5.86922e-05
0.00116263
6.14577e-05
0.00115989
6.41034e-05
0.00115686
6.6615e-05
0.00115353
6.89785e-05
0.00114988
7.11806e-05
0.00114591
7.3209e-05
0.0011416
7.50522e-05
0.00113697
7.67002e-05
0.00113201
7.81443e-05
0.00112673
7.93778e-05
0.00112113
8.03958e-05
0.00111525
8.11956e-05
0.00110908
8.17768e-05
0.00110267
8.21408e-05
0.00109604
8.22914e-05
0.00108923
8.22337e-05
0.00108227
8.19743e-05
0.00107521
8.1521e-05
0.0010681
8.08846e-05
0.00106096
8.00785e-05
0.00105385
7.91165e-05
0.0010468
7.80112e-05
0.00103984
7.67742e-05
0.00103302
7.54173e-05
0.00102637
7.39518e-05
0.00101992
7.23883e-05
0.0010137
7.07377e-05
0.00100772
6.90099e-05
0.00100201
6.72131e-05
0.000996577
6.53561e-05
0.000991426
6.34478e-05
0.000986563
6.14969e-05
0.000981987
5.9512e-05
0.000977693
5.7501e-05
0.000973676
5.54715e-05
0.000969924
5.34309e-05
0.000966428
5.13862e-05
0.000963173
4.93444e-05
0.000960145
4.7312e-05
0.000957331
4.52955e-05
0.000954717
4.33009e-05
0.00095229
4.1334e-05
0.000950039
3.94003e-05
0.000947953
3.75045e-05
0.000946024
3.5651e-05
0.000944244
3.38438e-05
0.000942604
3.20863e-05
0.000941101
3.03813e-05
0.000939727
2.87314e-05
0.000938479
2.71386e-05
0.000937352
2.56042e-05
0.000936342
2.41293e-05
0.000935445
2.27142e-05
0.000934658
2.13591e-05
0.000933979
2.00634e-05
0.000933402
1.88264e-05
0.000932925
1.7647e-05
0.000932545
1.65239e-05
0.000932257
1.54552e-05
0.000932058
1.44392e-05
0.000931944
1.34735e-05
0.000931911
1.25558e-05
0.000931954
1.16834e-05
0.000932068
1.08537e-05
0.000932249
1.00641e-05
0.000932493
9.31204e-06
0.000932795
8.59464e-06
0.00093315
7.90889e-06
0.000933555
7.25173e-06
0.000934005
6.61994e-06
0.000934496
6.01036e-06
0.000935024
5.41977e-06
0.000935582
4.84495e-06
0.000936165
4.28302e-06
0.000936769
3.73113e-06
0.000937388
3.18632e-06
2.64488e-06
0.00104325
1.97764e-05
0.00104517
2.25044e-05
0.00104741
2.53934e-05
0.00104987
2.83967e-05
0.00105251
3.14288e-05
0.00105536
3.4415e-05
0.00105841
3.73986e-05
0.00106162
4.03903e-05
0.00106498
4.33892e-05
0.00106842
4.63861e-05
0.00107192
4.93673e-05
0.00107542
5.23168e-05
0.00107889
5.52186e-05
0.0010823
5.80569e-05
0.00108558
6.08168e-05
0.00108871
6.34838e-05
0.00109165
6.60439e-05
0.00109435
6.84828e-05
0.00109677
7.07863e-05
0.00109888
7.29403e-05
0.00110065
7.49314e-05
0.00110205
7.67474e-05
0.00110305
7.83779e-05
0.00110363
7.98136e-05
0.00110378
8.10468e-05
0.00110348
8.20714e-05
0.00110274
8.28827e-05
0.00110155
8.34779e-05
0.00109993
8.38556e-05
0.00109789
8.40164e-05
0.00109545
8.39634e-05
0.00109263
8.37024e-05
0.00108946
8.32467e-05
0.00108597
8.26074e-05
0.00108219
8.17907e-05
0.00107816
8.08054e-05
0.00107392
7.96615e-05
0.0010695
7.83694e-05
0.00106495
7.69397e-05
0.0010603
7.5383e-05
0.0010556
7.37104e-05
0.00105088
7.1933e-05
0.00104617
7.00625e-05
0.00104151
6.81105e-05
0.00103692
6.60885e-05
0.00103242
6.40081e-05
0.00102805
6.18804e-05
0.0010238
5.97162e-05
0.00101971
5.75261e-05
0.00101577
5.532e-05
0.00101201
5.31075e-05
0.00100842
5.08975e-05
0.00100502
4.86985e-05
0.0010018
4.65184e-05
0.000998772
4.43643e-05
0.000995929
4.22431e-05
0.000993273
4.01606e-05
0.000990801
3.81224e-05
0.000988512
3.61332e-05
0.000986401
3.41971e-05
0.000984465
3.23177e-05
0.000982699
3.04979e-05
0.000981097
2.874e-05
0.000979655
2.70459e-05
0.000978368
2.54166e-05
0.000977229
2.3853e-05
0.000976233
2.23553e-05
0.000975373
2.09231e-05
0.000974644
1.95559e-05
0.000974038
1.82527e-05
0.00097355
1.70121e-05
0.000973173
1.58326e-05
0.0009729
1.47122e-05
0.000972724
1.36488e-05
0.00097264
1.26399e-05
0.00097264
1.16831e-05
0.000972718
1.07757e-05
0.000972868
9.91474e-06
0.000973082
9.09746e-06
0.000973356
8.32085e-06
0.000973683
7.58179e-06
0.000974058
6.87713e-06
0.000974474
6.2036e-06
0.000974927
5.55792e-06
0.00097541
4.93685e-06
0.000975918
4.33704e-06
0.000976445
3.75533e-06
0.000976988
3.18828e-06
0.000977542
2.63278e-06
2.08554e-06
0.000797518
1.57633e-05
0.000801905
1.81171e-05
0.000806721
2.05778e-05
0.00081203
2.30869e-05
0.000817839
2.56206e-05
0.00082408
2.81734e-05
0.000830727
3.07513e-05
0.000837758
3.33598e-05
0.000845148
3.59988e-05
0.000852872
3.86622e-05
0.000860899
4.13402e-05
0.000869195
4.40213e-05
0.00087772
4.66932e-05
0.000886433
4.9344e-05
0.000895288
5.19616e-05
0.000904238
5.45339e-05
0.000913234
5.70485e-05
0.000922224
5.94925e-05
0.000931158
6.18526e-05
0.000939984
6.41142e-05
0.000948653
6.62625e-05
0.000957117
6.82835e-05
0.00096533
7.01646e-05
0.00097325
7.18939e-05
0.000980836
7.34607e-05
0.000988052
7.48551e-05
0.000994867
7.60681e-05
0.00100125
7.70913e-05
0.00100719
7.79173e-05
0.00101266
7.85431e-05
0.00101766
7.89709e-05
0.00102216
7.92021e-05
0.00102616
7.92399e-05
0.00102968
7.90881e-05
0.00103272
7.87498e-05
0.0010353
7.82289e-05
0.00103743
7.75307e-05
0.00103914
7.66621e-05
0.00104045
7.56309e-05
0.00104138
7.44463e-05
0.00104198
7.3118e-05
0.00104225
7.16563e-05
0.00104224
7.00724e-05
0.00104198
6.83775e-05
0.00104148
6.65834e-05
0.00104079
6.4702e-05
0.00103992
6.27452e-05
0.00103891
6.07249e-05
0.00103779
5.86527e-05
0.00103657
5.65402e-05
0.00103528
5.43983e-05
0.00103394
5.22378e-05
0.00103257
5.00688e-05
0.00103118
4.79009e-05
0.00102981
4.57432e-05
0.00102844
4.3604e-05
0.00102711
4.14913e-05
0.00102582
3.94119e-05
0.00102458
3.73723e-05
0.0010234
3.53782e-05
0.00102229
3.34344e-05
0.00102124
3.15451e-05
0.00102027
2.97138e-05
0.00101937
2.79436e-05
0.00101855
2.62364e-05
0.00101781
2.45941e-05
0.00101715
2.30176e-05
0.00101656
2.15075e-05
0.00101605
2.00638e-05
0.00101562
1.86861e-05
0.00101526
1.73736e-05
0.00101497
1.6125e-05
0.00101474
1.49389e-05
0.00101457
1.38133e-05
0.00101447
1.27462e-05
0.00101442
1.17352e-05
0.00101441
1.07777e-05
0.00101446
9.87096e-06
0.00101454
9.01219e-06
0.00101467
8.19837e-06
0.00101482
7.42643e-06
0.001015
6.69318e-06
0.00101521
5.99541e-06
0.00101544
5.32976e-06
0.00101569
4.69299e-06
0.00101594
4.08169e-06
0.0010162
3.49274e-06
0.00101647
2.92285e-06
0.00101673
2.36917e-06
1.82899e-06
0.00052002
1.05302e-05
0.000525677
1.24606e-05
0.000531833
1.44213e-05
0.000538536
1.63847e-05
0.000545785
1.8371e-05
0.000553565
2.03932e-05
0.000561861
2.24562e-05
0.000570662
2.45583e-05
0.000579964
2.6697e-05
0.000589758
2.88684e-05
0.00060003
3.10681e-05
0.000610761
3.32903e-05
0.000621926
3.55283e-05
0.000633495
3.77745e-05
0.000645436
4.00212e-05
0.00065771
4.226e-05
0.000670276
4.44819e-05
0.000683092
4.66771e-05
0.00069611
4.88343e-05
0.000709282
5.09415e-05
0.000722559
5.29863e-05
0.000735886
5.49563e-05
0.000749211
5.68395e-05
0.000762481
5.86239e-05
0.000775644
6.02976e-05
0.00078865
6.18489e-05
0.000801452
6.32666e-05
0.000814002
6.45415e-05
0.000826253
6.5666e-05
0.000838162
6.66339e-05
0.000849692
6.74411e-05
0.00086081
6.80841e-05
0.00087149
6.85594e-05
0.000881714
6.88641e-05
0.000891468
6.89966e-05
0.000900739
6.89571e-05
0.000909523
6.8747e-05
0.000917816
6.83694e-05
0.000925618
6.78289e-05
0.000932933
6.71313e-05
0.000939767
6.62834e-05
0.00094613
6.5293e-05
0.000952035
6.41682e-05
0.000957494
6.29183e-05
0.000962524
6.15529e-05
0.000967144
6.00822e-05
0.000971373
5.85169e-05
0.00097523
5.68677e-05
0.000978737
5.51457e-05
0.000981915
5.33619e-05
0.000984786
5.15271e-05
0.000987372
4.96522e-05
0.000989693
4.77475e-05
0.000991771
4.58231e-05
0.000993625
4.38887e-05
0.000995276
4.19534e-05
0.000996741
4.00257e-05
0.00099804
3.81136e-05
0.000999188
3.62246e-05
0.0010002
3.43651e-05
0.00100109
3.25413e-05
0.00100188
3.07584e-05
0.00100257
2.9021e-05
0.00100318
2.73331e-05
0.00100372
2.56978e-05
0.0010042
2.41179e-05
0.00100462
2.25954e-05
0.001005
2.11316e-05
0.00100533
1.97275e-05
0.00100564
1.83834e-05
0.00100591
1.70992e-05
0.00100616
1.58745e-05
0.00100639
1.47083e-05
0.00100661
1.35993e-05
0.00100681
1.25459e-05
0.00100699
1.15463e-05
0.00100717
1.05983e-05
0.00100734
9.69966e-06
0.00100751
8.84786e-06
0.00100767
8.04028e-06
0.00100782
7.2742e-06
0.00100797
6.5468e-06
0.00100811
5.85522e-06
0.00100824
5.19645e-06
0.00100836
4.56755e-06
0.00100848
3.96562e-06
0.00100859
3.38776e-06
0.00100868
2.83111e-06
0.00100875
2.2931e-06
1.77095e-06
0.000246359
5.61835e-06
0.000251767
7.05254e-06
0.000257777
8.41155e-06
0.000264373
9.78947e-06
0.000271553
1.11906e-05
0.000279322
1.26244e-05
0.000287688
1.40899e-05
0.000296658
1.55886e-05
0.000306234
1.71206e-05
0.000316417
1.86854e-05
0.000327203
2.02825e-05
0.000338582
2.19109e-05
0.000350542
2.35687e-05
0.000363063
2.52533e-05
0.000376123
2.6961e-05
0.000389696
2.86871e-05
0.000403751
3.0427e-05
0.000418253
3.21752e-05
0.000433162
3.3925e-05
0.000448435
3.56682e-05
0.000464026
3.73957e-05
0.000479884
3.90979e-05
0.000495961
4.07635e-05
0.000512202
4.23828e-05
0.000528553
4.39467e-05
0.000544961
4.54407e-05
0.000561371
4.68558e-05
0.000577728
4.81845e-05
0.000593977
4.94176e-05
0.000610063
5.05473e-05
0.000625938
5.15665e-05
0.000641554
5.24677e-05
0.000656872
5.32421e-05
0.000671853
5.38828e-05
0.000686464
5.43855e-05
0.000700675
5.47468e-05
0.000714457
5.49646e-05
0.000727788
5.5038e-05
0.000740649
5.49683e-05
0.000753023
5.47578e-05
0.000764896
5.44099e-05
0.000776261
5.39286e-05
0.00078711
5.3319e-05
0.000797441
5.2587e-05
0.000807254
5.17394e-05
0.000816553
5.07835e-05
0.000825343
4.97273e-05
0.000833631
4.85793e-05
0.000841429
4.73483e-05
0.000848747
4.60434e-05
0.0008556
4.46741e-05
0.000862003
4.32497e-05
0.000867971
4.17795e-05
0.000873521
4.02727e-05
0.000878671
3.87383e-05
0.00088344
3.71851e-05
0.000887844
3.56212e-05
0.000891903
3.40545e-05
0.000895635
3.24925e-05
0.000899059
3.0942e-05
0.000902191
2.94093e-05
0.000905049
2.78999e-05
0.000907651
2.6419e-05
0.000910013
2.4971e-05
0.000912151
2.35597e-05
0.000914081
2.21882e-05
0.000915817
2.08591e-05
0.000917375
1.95744e-05
0.000918766
1.83355e-05
0.000920006
1.71435e-05
0.000921107
1.59987e-05
0.00092208
1.49012e-05
0.000922938
1.38506e-05
0.000923691
1.28463e-05
0.00092435
1.18872e-05
0.000924924
1.0972e-05
0.000925423
1.00992e-05
0.000925856
9.26705e-06
0.00092623
8.4738e-06
0.000926553
7.7174e-06
0.000926831
6.99581e-06
0.000927071
6.30716e-06
0.000927277
5.64931e-06
0.000927453
5.01969e-06
0.000927605
4.41593e-06
0.000927735
3.83605e-06
0.000927845
3.27777e-06
0.000927937
2.73878e-06
0.000928013
2.21745e-06
1.71331e-06
-2.63395e-05
2.38706e-06
-2.21697e-05
2.8827e-06
-1.73536e-05
3.59546e-06
-1.17652e-05
4.20106e-06
-5.48931e-06
4.91473e-06
1.53811e-06
5.59701e-06
9.29397e-06
6.33409e-06
1.78121e-05
7.07049e-06
2.70801e-05
7.85257e-06
3.71075e-05
8.65795e-06
4.78818e-05
9.50822e-06
5.93943e-05
1.03985e-05
7.16273e-05
1.13357e-05
8.45601e-05
1.23204e-05
9.81677e-05
1.33534e-05
0.000112421
1.4434e-05
0.000127289
1.55583e-05
0.00014274
1.67245e-05
0.000158736
1.79292e-05
0.000175236
1.91685e-05
0.000192195
2.04362e-05
0.000209567
2.17264e-05
0.0002273
2.30302e-05
0.000245342
2.43409e-05
0.000263638
2.56507e-05
0.000282138
2.69405e-05
0.000300783
2.82108e-05
0.000319518
2.94499e-05
0.000338286
3.06494e-05
0.000357032
3.18015e-05
0.000375698
3.29004e-05
0.000394226
3.39394e-05
0.000412567
3.49013e-05
0.000430672
3.57774e-05
0.000448496
3.65614e-05
0.000465998
3.72448e-05
0.000483141
3.7822e-05
0.00049989
3.8289e-05
0.000516213
3.86453e-05
0.00053208
3.88907e-05
0.000547465
3.90251e-05
0.000562344
3.90495e-05
0.000576697
3.89658e-05
0.000590508
3.87763e-05
0.000603763
3.84847e-05
0.000616451
3.80948e-05
0.000628567
3.76117e-05
0.000640105
3.70408e-05
0.000651065
3.63882e-05
0.000661448
3.56605e-05
0.000671258
3.48643e-05
0.000680501
3.40069e-05
0.000689185
3.30951e-05
0.000697322
3.21363e-05
0.000704923
3.11373e-05
0.000712003
3.01052e-05
0.000718577
2.9047e-05
0.000724662
2.79692e-05
0.000730276
2.68782e-05
0.000735439
2.57797e-05
0.000740169
2.46793e-05
0.000744487
2.35817e-05
0.000748414
2.24916e-05
0.000751973
2.14127e-05
0.000755184
2.03485e-05
0.00075807
1.9302e-05
0.000760654
1.82755e-05
0.000762957
1.72709e-05
0.000765002
1.629e-05
0.000766812
1.53337e-05
0.000768408
1.44029e-05
0.000769811
1.34981e-05
0.000771042
1.26196e-05
0.000772121
1.17672e-05
0.000773068
1.09409e-05
0.000773899
1.01405e-05
0.000774633
9.36523e-06
0.000775285
8.61472e-06
0.000775871
7.88836e-06
0.000776403
7.18541e-06
0.000776893
6.50531e-06
0.000777352
5.84826e-06
0.000777788
5.21401e-06
0.000778206
4.60092e-06
0.000778615
4.00745e-06
0.000779018
3.43293e-06
0.000779419
2.87703e-06
0.000779819
2.33865e-06
0.00078022
1.81578e-06
1.31009e-06
-0.000290716
7.82286e-07
-0.000288282
4.4864e-07
-0.000285032
3.45726e-07
-0.000280916
8.52466e-08
-0.000275911
-9.08519e-08
-0.000269987
-3.26528e-07
-0.000263171
-4.82005e-07
-0.000255461
-6.39892e-07
-0.000246873
-7.34748e-07
-0.000237416
-7.9921e-07
-0.000227107
-8.01398e-07
-0.00021596
-7.48626e-07
-0.000203997
-6.26946e-07
-0.000191243
-4.33493e-07
-0.000177732
-1.57205e-07
-0.000163476
1.77446e-07
-0.00014849
5.72744e-07
-0.000132818
1.05219e-06
-0.0001165
1.61151e-06
-9.95798e-05
2.24802e-06
-8.2102e-05
2.95847e-06
-6.41147e-05
3.73907e-06
-4.56688e-05
4.58422e-06
-2.68159e-05
5.488e-06
-7.60889e-06
6.44367e-06
1.18869e-05
7.44464e-06
3.16199e-05
8.47777e-06
5.1532e-05
9.53776e-06
7.15654e-05
1.06161e-05
9.16638e-05
1.17031e-05
0.000111773
1.27908e-05
0.000131841
1.38717e-05
0.000151804
1.49385e-05
0.000171596
1.59849e-05
0.000191151
1.70069e-05
0.000210423
1.79725e-05
0.000229372
1.88735e-05
0.000247964
1.96971e-05
0.000266158
2.04509e-05
0.000283917
2.1132e-05
0.000301204
2.17374e-05
0.000317989
2.22645e-05
0.000334244
2.27113e-05
0.000349944
2.30766e-05
0.000365068
2.336e-05
0.000379601
2.35619e-05
0.00039353
2.36834e-05
0.000406844
2.37265e-05
0.000419539
2.36937e-05
0.000431611
2.35881e-05
0.000443062
2.34132e-05
0.000453896
2.31728e-05
0.000464121
2.28707e-05
0.000473746
2.2511e-05
0.000482786
2.20977e-05
0.000491256
2.16352e-05
0.000499175
2.11281e-05
0.000506563
2.05808e-05
0.000513443
1.99977e-05
0.00051984
1.93831e-05
0.000525778
1.8741e-05
0.000531285
1.80753e-05
0.000536387
1.73896e-05
0.000541112
1.66873e-05
0.000545489
1.59717e-05
0.000549545
1.52457e-05