/*--------------------------------*- C++ -*----------------------------------*\
| =========                 |                                                 |
| \\      /  F ield         | OpenFOAM: The Open Source CFD Toolbox           |
|  \\    /   O peration     | Version:  2312                                  |
|   \\  /    A nd           | Website:  www.openfoam.com                      |
|    \\/     M anipulation  |                                                 |
\*---------------------------------------------------------------------------*/
FoamFile
{
    version     2.0;
    format      ascii;
    arch        "LSB;label=32;scalar=64";
    class       surfaceScalarField;
    location    "100000";
    object      phi;
}
// * * * * * * * * * * * * * * * * * * * * * * * * * * * * * * * * * * * * * //

dimensions      [0 3 -1 0 0 0 0];

oriented        oriented;

internalField   nonuniform List<scalar> 
5250
(
0.000498063
2.3244e-06
0.000492396
5.66706e-06
0.000484113
8.28265e-06
0.000473261
1.08521e-05
0.000460034
1.32272e-05
0.000444793
1.52404e-05
0.000427899
1.68944e-05
0.000409627
1.82724e-05
0.000390154
1.94725e-05
0.000369603
2.05508e-05
0.00034808
2.15232e-05
0.00032569
2.23899e-05
0.000302543
2.31473e-05
0.000278753
2.37893e-05
0.000254446
2.4307e-05
0.000229759
2.46875e-05
0.000204843
2.49156e-05
0.000179872
2.49716e-05
0.000155038
2.48342e-05
0.000130562
2.44759e-05
0.000106695
2.38668e-05
8.37383e-05
2.29566e-05
6.20763e-05
2.16621e-05
4.21786e-05
1.98976e-05
2.45095e-05
1.76692e-05
9.41344e-06
1.5096e-05
-2.93606e-06
1.23495e-05
-1.25245e-05
9.5884e-06
-1.94349e-05
6.91045e-06
-2.379e-05
4.35507e-06
-2.60294e-05
2.2394e-06
-2.65294e-05
4.99997e-07
-2.55405e-05
-9.88826e-07
-2.34022e-05
-2.13832e-06
-2.05067e-05
-2.89551e-06
-1.72185e-05
-3.28817e-06
-1.38635e-05
-3.35508e-06
-1.07164e-05
-3.14709e-06
-7.99132e-06
-2.72506e-06
-5.8376e-06
-2.15372e-06
-4.34622e-06
-1.49138e-06
-3.55308e-06
-7.93139e-07
-3.454e-06
-9.90827e-08
-3.94397e-06
4.89968e-07
-5.02925e-06
1.08528e-06
-6.57563e-06
1.54638e-06
-8.41439e-06
1.83876e-06
-1.03651e-05
1.95073e-06
-1.22742e-05
1.90911e-06
-1.40259e-05
1.75165e-06
-1.55361e-05
1.51017e-06
-1.67491e-05
1.21301e-06
-1.7639e-05
8.89908e-07
-1.82092e-05
5.70217e-07
-1.84868e-05
2.77602e-07
-1.85028e-05
1.60242e-08
-1.83627e-05
-1.4011e-07
-1.81071e-05
-2.55586e-07
-1.77809e-05
-3.26262e-07
-1.74258e-05
-3.55102e-07
-1.70781e-05
-3.47687e-07
-1.67683e-05
-3.09792e-07
-1.65223e-05
-2.45995e-07
-1.63614e-05
-1.60892e-07
-1.63015e-05
-5.99362e-08
-1.63575e-05
5.60015e-08
-1.65295e-05
1.72079e-07
-1.68217e-05
2.92193e-07
-1.72369e-05
4.15215e-07
-1.77777e-05
5.4071e-07
-1.84465e-05
6.68821e-07
-1.92467e-05
8.00181e-07
-2.01829e-05
9.36218e-07
-2.12602e-05
1.07736e-06
-2.24836e-05
1.22333e-06
-2.38573e-05
1.37378e-06
-2.53855e-05
1.5282e-06
-2.70709e-05
1.68535e-06
-2.8914e-05
1.84313e-06
-3.09127e-05
1.99865e-06
-3.30612e-05
2.14851e-06
-3.53501e-05
2.28894e-06
-3.77658e-05
2.4157e-06
-4.02898e-05
2.52396e-06
-4.28988e-05
2.60904e-06
-4.55666e-05
2.66779e-06
-4.82691e-05
2.70249e-06
-5.09693e-05
2.70018e-06
-5.36165e-05
2.64721e-06
2.54721e-06
0.000883639
1.039e-05
0.000875502
1.38039e-05
0.000867044
1.67407e-05
0.000858339
1.95574e-05
0.000849259
2.23066e-05
0.000839565
2.49348e-05
0.000829065
2.73941e-05
0.000817675
2.96631e-05
0.000805396
3.17512e-05
0.000792257
3.36892e-05
0.00077828
3.55009e-05
0.00076348
3.71895e-05
0.000747882
3.87448e-05
0.000731523
4.01484e-05
0.00071445
4.13803e-05
0.000696716
4.24219e-05
0.000678375
4.32567e-05
0.000659481
4.38653e-05
0.000640088
4.42268e-05
0.000620246
4.43177e-05
0.000599998
4.41148e-05
0.000579358
4.35967e-05
0.000558273
4.27474e-05
0.000536607
4.15633e-05
0.000514215
4.00614e-05
0.000491022
3.82894e-05
0.000467063
3.63082e-05
0.000442448
3.42035e-05
0.000417314
3.2044e-05
0.000391732
2.99379e-05
0.000365768
2.82031e-05
0.000339944
2.63239e-05
0.000314474
2.44808e-05
0.000289554
2.27824e-05
0.000265397
2.12613e-05
0.000242199
1.991e-05
0.000220148
1.86956e-05
0.000199421
1.75795e-05
0.000180169
1.65269e-05
0.000162505
1.55111e-05
0.000146494
1.45192e-05
0.000132159
1.35416e-05
0.000119482
1.2578e-05
0.000108335
1.16375e-05
9.87059e-05
1.07141e-05
9.0547e-05
9.70529e-06
8.3586e-05
8.79971e-06
7.76457e-05
7.89102e-06
7.25716e-05
6.9832e-06
6.82264e-05
6.09686e-06
6.4493e-05
5.24361e-06
6.12746e-05
4.4314e-06
5.84924e-05
3.67208e-06
5.60815e-05
2.98115e-06
5.39853e-05
2.37379e-06
5.21416e-05
1.85967e-06
5.05604e-05
1.44113e-06
4.91905e-05
1.11432e-06
4.79924e-05
8.71845e-07
4.69332e-05
7.04065e-07
4.59849e-05
6.00691e-07
4.51224e-05
5.5268e-07
4.43212e-05
5.55137e-07
4.35486e-05
6.11763e-07
4.28081e-05
6.80563e-07
4.20965e-05
7.67603e-07
4.14013e-05
8.67266e-07
4.07164e-05
9.77062e-07
4.00381e-05
1.09358e-06
3.93655e-05
1.21327e-06
3.8698e-05
1.33636e-06
3.80328e-05
1.46539e-06
3.73677e-05
1.60132e-06
3.67015e-05
1.74355e-06
3.60326e-05
1.89221e-06
3.5358e-05
2.04834e-06
3.46742e-05
2.21206e-06
3.39784e-05
2.38113e-06
3.32706e-05
2.55089e-06
3.25542e-05
2.71504e-06
3.18362e-05
2.86657e-06
3.11259e-05
2.99919e-06
3.04344e-05
3.10726e-06
2.97755e-05
3.18283e-06
2.91678e-05
3.21671e-06
2.86347e-05
3.20095e-06
2.82089e-05
3.12826e-06
2.79215e-05
2.98753e-06
2.78047e-05
2.76406e-06
2.45287e-06
0.00103538
1.50327e-05
0.00103067
1.85136e-05
0.00102559
2.18263e-05
0.00102023
2.49173e-05
0.00101468
2.78537e-05
0.00100892
3.06908e-05
0.00100287
3.34494e-05
0.000996415
3.61179e-05
0.000989492
3.86745e-05
0.000982079
4.11022e-05
0.000974188
4.33917e-05
0.000965841
4.55367e-05
0.000957054
4.75314e-05
0.000947835
4.93674e-05
0.000938183
5.10322e-05
0.000928094
5.25116e-05
0.000917561
5.37888e-05
0.000906579
5.48477e-05
0.000895135
5.56709e-05
0.000883208
5.62447e-05
0.000870768
5.65546e-05
0.000857773
5.65914e-05
0.000844176
5.63445e-05
0.000829928
5.58115e-05
0.000814995
5.49941e-05
0.000799367
5.39175e-05
0.000783054
5.26216e-05
0.000766091
5.11667e-05
0.000748518
4.96169e-05
0.000730425
4.80306e-05
0.000712183
4.64453e-05
0.000693673
4.48333e-05
0.000675047
4.31075e-05
0.000656227
4.1602e-05
0.000637276
4.02125e-05
0.000618275
3.89107e-05
0.000599294
3.76765e-05
0.000580389
3.64853e-05
0.000561604
3.53112e-05
0.000542984
3.41312e-05
0.000524572
3.29314e-05
0.000506412
3.17019e-05
0.000488548
3.04415e-05
0.000471034
2.9151e-05
0.000453895
2.78536e-05
0.000436976
2.66243e-05
0.000420505
2.52704e-05
0.000404528
2.38685e-05
0.000389055
2.2456e-05
0.000374101
2.10507e-05
0.00035968
1.96649e-05
0.000345803
1.83084e-05
0.000332484
1.69907e-05
0.000319744
1.57212e-05
0.000307609
1.45093e-05
0.000296107
1.33616e-05
0.000285264
1.22836e-05
0.000275102
1.12769e-05
0.000265633
1.03407e-05
0.000256863
9.47329e-06
0.000248792
8.67179e-06
0.000241411
7.93359e-06
0.000234712
7.25491e-06
0.000228692
6.63123e-06
0.000223315
6.05776e-06
0.000218552
5.53086e-06
0.000214371
5.04808e-06
0.000210741
4.60676e-06
0.000207633
4.20216e-06
0.000205015
3.83056e-06
0.000202863
3.48864e-06
0.000201156
3.1726e-06
0.000199846
2.91079e-06
0.000198904
2.68579e-06
0.000198303
2.4936e-06
0.000198019
2.33258e-06
0.00019803
2.20077e-06
0.000198317
2.09444e-06
0.000198861
2.00675e-06
0.000199645
1.9306e-06
0.000200653
1.85858e-06
0.000201867
1.78543e-06
0.00020327
1.70448e-06
0.000204857
1.59544e-06
0.000206626
1.44774e-06
0.000208573
1.25402e-06
0.000210695
1.0063e-06
0.000212999
6.83365e-07
0.000215504
2.59161e-07
-2.44966e-07
0.00110229
1.90693e-05
0.00109864
2.21577e-05
0.00109512
2.53491e-05
0.00109156
2.84729e-05
0.00108793
3.14895e-05
0.0010842
3.44178e-05
0.00108038
3.72707e-05
0.00107645
4.00503e-05
0.00107238
4.27468e-05
0.00106813
4.5346e-05
0.0010637
4.78187e-05
0.00105909
5.01477e-05
0.0010543
5.23303e-05
0.0010493
5.43586e-05
0.00104411
5.62226e-05
0.00103871
5.79114e-05
0.00103309
5.94124e-05
0.00102722
6.0714e-05
0.00102109
6.18038e-05
0.00101467
6.26708e-05
0.00100792
6.33039e-05
0.00100081
6.3696e-05
0.000993312
6.38436e-05
0.000985375
6.37483e-05
0.000976952
6.34172e-05
0.000968008
6.28617e-05
0.000958547
6.20826e-05
0.000948591
6.1123e-05
0.000938145
6.00623e-05
0.000927263
5.89129e-05
0.000916005
5.77035e-05
0.000904378
5.646e-05
0.000892286
5.51998e-05
0.000879943
5.39447e-05
0.000867451
5.27047e-05
0.000854878
5.14836e-05
0.000842253
5.03015e-05
0.000829598
4.91401e-05
0.00081699
4.79199e-05
0.000804451
4.66692e-05
0.000791988
4.5395e-05
0.000779594
4.4096e-05
0.000767263
4.27728e-05
0.000754989
4.14251e-05
0.000742784
4.00583e-05
0.000730738
3.86701e-05
0.000718788
3.72202e-05
0.000706965
3.56919e-05
0.000695226
3.41946e-05
0.000683563
3.27143e-05
0.00067198
3.12472e-05
0.000660492
2.97966e-05
0.000649115
2.83683e-05
0.000637868
2.69682e-05
0.000626775
2.5602e-05
0.000615862
2.42742e-05
0.000605158
2.29883e-05
0.000594688
2.17462e-05
0.00058448
2.05487e-05
0.000574558
1.93957e-05
0.000564943
1.82864e-05
0.000555657
1.722e-05
0.000546717
1.6195e-05
0.000538138
1.52103e-05
0.000529931
1.42646e-05
0.000522105
1.33565e-05
0.000514659
1.24942e-05
0.000507579
1.16867e-05
0.000500892
1.08897e-05
0.000494605
1.01174e-05
0.000488718
9.37527e-06
0.000483226
8.66458e-06
0.000478151
7.98637e-06
0.000473498
7.33887e-06
0.000469271
6.72012e-06
0.000465476
6.12772e-06
0.000462118
5.5588e-06
0.000459201
5.01111e-06
0.000456729
4.47918e-06
0.000454702
3.95772e-06
0.000453119
3.44176e-06
0.000451982
2.92187e-06
0.000451295
2.39214e-06
0.000451045
1.84487e-06
0.000451227
1.26621e-06
0.00045183
6.50237e-07
0.000452857
-2.0038e-08
0.000454228
-6.87578e-07
0.000455931
-1.44447e-06
-2.26563e-06
0.00108906
2.18629e-05
0.00108651
2.47069e-05
0.00108415
2.77052e-05
0.00108185
3.07793e-05
0.00107949
3.38451e-05
0.00107706
3.68449e-05
0.00107458
3.97524e-05
0.00107207
4.25602e-05
0.00106955
4.52657e-05
0.00106704
4.78625e-05
0.00106452
5.0339e-05
0.00106198
5.26821e-05
0.00105943
5.48795e-05
0.00105687
5.6921e-05
0.00105429
5.87975e-05
0.0010517
6.05011e-05
0.00104909
6.20243e-05
0.00104645
6.33602e-05
0.00104375
6.45043e-05
0.00104096
6.54573e-05
0.00103807
6.61984e-05
0.00103504
6.6726e-05
0.00103184
6.70432e-05
0.00102843
6.71537e-05
0.00102478
6.70635e-05
0.00102086
6.67825e-05
0.00101662
6.6325e-05
0.00101203
6.57134e-05
0.00100712
6.49746e-05
0.0010019
6.41323e-05
0.000996394
6.32083e-05
0.00099063
6.22237e-05
0.000984638
6.11913e-05
0.000978467
6.01158e-05
0.000972163
5.90087e-05
0.000965766
5.78815e-05
0.000959326
5.67409e-05
0.000952883
5.55833e-05
0.00094641
5.43924e-05
0.000939935
5.31447e-05
0.000933461
5.18692e-05
0.000926973
5.05841e-05
0.000920468
4.92774e-05
0.000913947
4.7946e-05
0.000907418
4.65875e-05
0.000900885
4.52033e-05
0.000894309
4.37964e-05
0.000887631
4.23697e-05
0.000880893
4.09321e-05
0.000874118
3.94899e-05
0.000867317
3.80476e-05
0.000860505
3.66092e-05
0.000853693
3.51795e-05
0.000846897
3.37642e-05
0.000840131
3.23686e-05
0.000833407
3.09977e-05
0.00082674
2.96551e-05
0.000820143
2.83434e-05
0.000813628
2.70641e-05
0.000807206
2.58178e-05
0.000800887
2.46047e-05
0.000794683
2.34249e-05
0.000788599
2.22782e-05
0.000782646
2.11641e-05
0.000776828
2.00823e-05
0.000771153
1.90318e-05
0.000765635
1.80115e-05
0.000760303
1.70193e-05
0.000755142
1.60504e-05
0.000750156
1.51034e-05
0.000745352
1.41792e-05
0.000740738
1.32783e-05
0.000736325
1.23998e-05
0.000732121
1.15427e-05
0.000728136
1.0705e-05
0.00072438
9.88393e-06
0.000720863
9.07617e-06
0.000717595
8.27834e-06
0.000714588
7.48645e-06
0.00071185
6.69595e-06
0.00070939
5.90218e-06
0.000707212
5.09967e-06
0.000705321
4.28302e-06
0.000703718
3.44755e-06
0.000702398
2.58659e-06
0.000701351
1.69723e-06
0.000700552
7.78874e-07
0.000700046
-1.82161e-07
0.000699836
-1.23367e-06
-2.31547e-06
0.0010998
2.44481e-05
0.0010968
2.77027e-05
0.00109351
3.09959e-05
0.00109
3.4293e-05
0.00108629
3.75542e-05
0.00108239
4.07415e-05
0.00107832
4.38249e-05
0.0010741
4.67848e-05
0.00106975
4.96083e-05
0.00106533
5.22851e-05
0.00106086
5.48057e-05
0.00105639
5.716e-05
0.00105193
5.93382e-05
0.00104752
6.13315e-05
0.00104318
6.31325e-05
0.00103895
6.47359e-05
0.00103483
6.61379e-05
0.00103086
6.73364e-05
0.00102703
6.83305e-05
0.00102337
6.91203e-05
0.00101986
6.97065e-05
0.00101649
7.0092e-05
0.00101326
7.02821e-05
0.00101012
7.0285e-05
0.00100708
7.01105e-05
0.00100409
6.97709e-05
0.00100113
6.92812e-05
0.000998184
6.86617e-05
0.000995231
6.79279e-05
0.000992284
6.70795e-05
0.000989351
6.61414e-05
0.000986443
6.51309e-05
0.000983574
6.40606e-05
0.000980749
6.29411e-05
0.000977976
6.17818e-05
0.000975266
6.0591e-05
0.000972633
5.93743e-05
0.000970081
5.81348e-05
0.000967601
5.68727e-05
0.000965161
5.5585e-05
0.000962756
5.4274e-05
0.000960392
5.29485e-05
0.000958058
5.16114e-05
0.000955745
5.02591e-05
0.000953441
4.88913e-05
0.000951133
4.75107e-05
0.000948807
4.61224e-05
0.000946449
4.47282e-05
0.000944054
4.33266e-05
0.000941625
4.19192e-05
0.000939162
4.05107e-05
0.000936666
3.91056e-05
0.000934136
3.77094e-05
0.000931573
3.6327e-05
0.000928978
3.4963e-05
0.000926355
3.36209e-05
0.000923707
3.23035e-05
0.000921037
3.10129e-05
0.000918351
2.97504e-05
0.000915652
2.85165e-05
0.000912946
2.73114e-05
0.000910236
2.61347e-05
0.000907528
2.49858e-05
0.000904828
2.3864e-05
0.000902142
2.27682e-05
0.000899477
2.16972e-05
0.000896839
2.06495e-05
0.000894234
1.96242e-05
0.000891664
1.862e-05
0.000889132
1.76353e-05
0.000886644
1.66679e-05
0.000884206
1.57164e-05
0.000881826
1.47795e-05
0.000879513
1.38559e-05
0.000877274
1.29439e-05
0.000875117
1.20407e-05
0.000873049
1.11437e-05
0.000871078
1.02494e-05
0.00086921
9.35435e-06
0.000867451
8.45531e-06
0.000865805
7.54805e-06
0.000864276
6.62886e-06
0.000862865
5.69377e-06
0.000861575
4.73825e-06
0.000860401
3.75977e-06
0.000859344
2.7547e-06
0.000858402
1.72097e-06
0.000857558
6.61757e-07
0.000856775
-4.50295e-07
-1.61771e-06
0.00117939
2.75019e-05
0.00117571
3.13839e-05
0.00117154
3.51621e-05
0.00116699
3.88522e-05
0.00116207
4.24658e-05
0.00115682
4.59964e-05
0.00115122
4.94242e-05
0.00114528
5.2723e-05
0.00113902
5.58685e-05
0.00113247
5.88411e-05
0.00112565
6.16255e-05
0.0011186
6.42086e-05
0.00111136
6.65789e-05
0.00110396
6.87261e-05
0.00109645
7.06414e-05
0.00108887
7.23181e-05
0.00108126
7.37516e-05
0.00107365
7.494e-05
0.0010661
7.58836e-05
0.00105864
7.65852e-05
0.00105129
7.705e-05
0.0010441
7.72854e-05
0.00103708
7.73006e-05
0.00103026
7.71076e-05
0.00102365
7.67202e-05
0.00101726
7.6154e-05
0.00101112
7.54254e-05
0.00100523
7.455e-05
0.000999617
7.35426e-05
0.000994278
7.24186e-05
0.000989224
7.11955e-05
0.000984464
6.98906e-05
0.000980005
6.85199e-05
0.000975849
6.70975e-05
0.000971995
6.56351e-05
0.000968444
6.41422e-05
0.000965191
6.26271e-05
0.00096223
6.10966e-05
0.000959546
5.95563e-05
0.000957121
5.80095e-05
0.000954937
5.64583e-05
0.00095298
5.49051e-05
0.000951239
5.33526e-05
0.000949695
5.18031e-05
0.000948328
5.02586e-05
0.000947117
4.87211e-05
0.000946048
4.71923e-05
0.000945102
4.56737e-05
0.000944262
4.41667e-05
0.000943508
4.2673e-05
0.000942823
4.11956e-05
0.000942191
3.97379e-05
0.000941597
3.83031e-05
0.000941031
3.68937e-05
0.000940482
3.55118e-05
0.000939944
3.4159e-05
0.000939411
3.28363e-05
0.000938879
3.15445e-05
0.000938346
3.02838e-05
0.000937808
2.90541e-05
0.000937265
2.78551e-05
0.000936714
2.66859e-05
0.000936154
2.55456e-05
0.000935585
2.44332e-05
0.000935006
2.33472e-05
0.000934416
2.22865e-05
0.000933816
2.12495e-05
0.000933205
2.02349e-05
0.000932585
1.92409e-05
0.000931954
1.82658e-05
0.000931315
1.73071e-05
0.000930669
1.63628e-05
0.000930017
1.54311e-05
0.000929363
1.45101e-05
0.000928709
1.3598e-05
0.000928057
1.26923e-05
0.00092741
1.17904e-05
0.00092677
1.08897e-05
0.000926138
9.98658e-06
0.000925514
9.07874e-06
0.0009249
8.16247e-06
0.000924294
7.23418e-06
0.000923698
6.29051e-06
0.000923108
5.328e-06
0.00092252
4.34742e-06
0.00092193
3.34486e-06
0.000921333
2.3181e-06
0.000920725
1.26933e-06
0.000920076
1.99278e-07
-9.2713e-07
0.00119605
2.87331e-05
0.00119465
3.2783e-05
0.001193
3.68118e-05
0.00119107
4.07828e-05
0.00118886
4.46771e-05
0.00118637
4.84831e-05
0.00118361
5.21892e-05
0.00118055
5.57804e-05
0.00117718
5.92379e-05
0.00117348
6.25409e-05
0.00116944
6.56679e-05
0.00116505
6.85988e-05
0.00116031
7.13153e-05
0.00115523
7.38017e-05
0.00114983
7.60446e-05
0.00114412
7.80335e-05
0.00113811
7.97601e-05
0.00113183
8.12191e-05
0.0011253
8.24075e-05
0.00111856
8.33252e-05
0.00111164
8.39749e-05
0.00110456
8.43618e-05
0.00109737
8.44936e-05
0.0010901
8.43805e-05
0.00108278
8.40349e-05
0.00107547
8.34705e-05
0.00106819
8.27031e-05
0.00106099
8.17508e-05
0.0010539
8.06332e-05
0.00104695
7.9369e-05
0.00104017
7.79761e-05
0.00103358
7.64718e-05
0.00102723
7.48736e-05
0.00102113
7.32017e-05
0.00101529
7.14694e-05
0.00100975
6.96893e-05
0.0010045
6.78733e-05
0.000999564
6.60321e-05
0.000994945
6.41753e-05
0.000990643
6.23111e-05
0.000986655
6.04462e-05
0.000982976
5.85848e-05
0.000979597
5.67312e-05
0.000976509
5.48909e-05
0.000973699
5.30686e-05
0.000971153
5.12677e-05
0.000968854
4.94911e-05
0.000966786
4.77417e-05
0.00096493
4.60221e-05
0.000963269
4.43347e-05
0.000961782
4.26819e-05
0.000960455
4.10658e-05
0.00095927
3.9488e-05
0.000958213
3.79498e-05
0.000957273
3.6452e-05
0.000956437
3.4995e-05
0.000955695
3.35788e-05
0.000955036
3.22033e-05
0.000954452
3.0868e-05
0.000953934
2.95723e-05
0.000953474
2.8315e-05
0.000953064
2.70951e-05
0.000952699
2.5911e-05
0.000952371
2.47612e-05
0.000952074
2.36438e-05
0.000951804
2.25571e-05
0.000951554
2.1499e-05
0.000951322
2.04674e-05
0.000951103
1.94601e-05
0.000950893
1.84749e-05
0.000950691
1.75092e-05
0.000950493
1.65607e-05
0.000950298
1.5627e-05
0.000950102
1.47058e-05
0.000949905
1.37947e-05
0.000949706
1.28913e-05
0.000949504
1.1993e-05
0.000949296
1.10971e-05
0.000949082
1.02007e-05
0.00094886
9.30108e-06
0.000948627
8.39555e-06
0.00094838
7.48157e-06
0.000948114
6.55649e-06
0.000947823
5.61861e-06
0.000947505
4.66558e-06
0.000947154
3.69546e-06
0.000946766
2.70601e-06
0.000946342
1.69344e-06
0.000945887
6.54794e-07
-3.9387e-07
0.00106579
2.62788e-05
0.00106848
3.00841e-05
0.00107121
3.4086e-05
0.00107393
3.80582e-05
0.00107666
4.19559e-05
0.00107935
4.57839e-05
0.00108201
4.95359e-05
0.00108458
5.32053e-05
0.00108704
5.67797e-05
0.00108934
6.02397e-05
0.00109145
6.35616e-05
0.00109333
6.67212e-05
0.00109495
6.96959e-05
0.00109628
7.2466e-05
0.00109731
7.50147e-05
0.00109802
7.73276e-05
0.00109838
7.93929e-05
0.0010984
8.1201e-05
0.00109807
8.27447e-05
0.00109737
8.40191e-05
0.00109632
8.5022e-05
0.00109493
8.57541e-05
0.00109321
8.62187e-05
0.00109117
8.64222e-05
0.00108883
8.63729e-05
0.00108622
8.60803e-05
0.00108337
8.55514e-05
0.00108031
8.48058e-05
0.00107707
8.38727e-05
0.00107368
8.27635e-05
0.00107016
8.14943e-05
0.00106655
8.00826e-05
0.00106288
7.8546e-05
0.00105918
7.69018e-05
0.00105548
7.51662e-05
0.00105182
7.33543e-05
0.00104821
7.14805e-05
0.00104468
6.95581e-05
0.00104126
6.75994e-05
0.00103795
6.56157e-05
0.00103478
6.36169e-05
0.00103176
6.16118e-05
0.00102888
5.96086e-05
0.00102616
5.76146e-05
0.00102359
5.56367e-05
0.00102117
5.36808e-05
0.00101891
5.17522e-05
0.0010168
4.98553e-05
0.00101483
4.7994e-05
0.00101299
4.61715e-05
0.00101128
4.43907e-05
0.00100969
4.26537e-05
0.00100822
4.09622e-05
0.00100685
3.93176e-05
0.00100558
3.77207e-05
0.00100441
3.61718e-05
0.00100331
3.46711e-05
0.0010023
3.32183e-05
0.00100136
3.18125e-05
0.00100047
3.0453e-05
0.000999652
2.91383e-05
0.00099888
2.7867e-05
0.000998153
2.66372e-05
0.000997468
2.5447e-05
0.000996817
2.42943e-05
0.000996198
2.31767e-05
0.000995605
2.20919e-05
0.000995035
2.10374e-05
0.000994484
2.00105e-05
0.00099395
1.90087e-05
0.00099343
1.80294e-05
0.000992921
1.70698e-05
0.000992421
1.61274e-05
0.000991927
1.51993e-05
0.000991439
1.42831e-05
0.000990954
1.3376e-05
0.000990471
1.24755e-05
0.00098999
1.15788e-05
0.000989507
1.06834e-05
0.000989021
9.78671e-06
0.000988531
8.88623e-06
0.000988032
7.97987e-06
0.000987523
7.0653e-06
0.000987001
6.14077e-06
0.000986462
5.20457e-06
0.000985902
4.25535e-06
0.000985315
3.29309e-06
0.000984691
2.31749e-06
0.000984015
1.33093e-06
3.36633e-07
0.000828165
2.06803e-05
0.000834025
2.42251e-05
0.000840228
2.78822e-05
0.000846729
3.15573e-05
0.000853486
3.51988e-05
0.000860474
3.87958e-05
0.000867657
4.2353e-05
0.000874996
4.58666e-05
0.000882453
4.93226e-05
0.000889992
5.27005e-05
0.000897577
5.59772e-05
0.000905168
5.91298e-05
0.000912727
6.21369e-05
0.000920214
6.49793e-05
0.000927589
6.76393e-05
0.000934816
7.01008e-05
0.000941859
7.23499e-05
0.000948686
7.43743e-05
0.000955267
7.61638e-05
0.000961576
7.77102e-05
0.000967591
7.9007e-05
0.000973294
8.00504e-05
0.000978673
8.08395e-05
0.000983719
8.13765e-05
0.000988426
8.16657e-05
0.000992792
8.17141e-05
0.000996812
8.15318e-05
0.00100049
8.1132e-05
0.00100383
8.05288e-05
0.00100686
7.9736e-05
0.00100958
7.87675e-05
0.00101203
7.7638e-05
0.00101421
7.63629e-05
0.00101616
7.49577e-05
0.00101788
7.34383e-05
0.00101942
7.18201e-05
0.00102078
7.0118e-05
0.00102199
6.83463e-05
0.00102307
6.65185e-05
0.00102404
6.46475e-05
0.00102491
6.2745e-05
0.0010257
6.0822e-05
0.00102642
5.88884e-05
0.00102708
5.69534e-05
0.0010277
5.50252e-05
0.00102827
5.31112e-05
0.0010288
5.12181e-05
0.0010293
4.93516e-05
0.00102978
4.75167e-05
0.00103023
4.57178e-05
0.00103067
4.39584e-05
0.00103108
4.22414e-05
0.00103147
4.05692e-05
0.00103185
3.89437e-05
0.0010322
3.73662e-05
0.00103253
3.58375e-05
0.00103285
3.4358e-05
0.00103314
3.29274e-05
0.00103341
3.15452e-05
0.00103365
3.02106e-05
0.00103386
2.89222e-05
0.00103405
2.76785e-05
0.00103421
2.64778e-05
0.00103434
2.53179e-05
0.00103444
2.41968e-05
0.0010345
2.31119e-05
0.00103453
2.20609e-05
0.00103453
2.10411e-05
0.00103449
2.00498e-05
0.00103442
1.90843e-05
0.0010343
1.81418e-05
0.00103415
1.72197e-05
0.00103397
1.6315e-05
0.00103374
1.5425e-05
0.00103348
1.45471e-05
0.00103317
1.36784e-05
0.00103283
1.28165e-05
0.00103245
1.19587e-05
0.00103203
1.11027e-05
0.00103157
1.0246e-05
0.00103107
9.38657e-06
0.00103053
8.52226e-06
0.00102995
7.6515e-06
0.00102931
6.77258e-06
0.00102863
5.88447e-06
0.0010279
4.98645e-06
0.00102712
4.07777e-06
0.00102628
3.15913e-06
0.00102538
2.23032e-06
1.29365e-06
0.000555567
1.38017e-05
0.000562844
1.69477e-05
0.00057051
2.02169e-05
0.000578606
2.34612e-05
0.000587104
2.67007e-05
0.000595967
2.99322e-05
0.000605172
3.31481e-05
0.000614704
3.6335e-05
0.000624549
3.94778e-05
0.000634689
4.25605e-05
0.0006451
4.55662e-05
0.000655751
4.84781e-05
0.000666609
5.1279e-05
0.000677636
5.39523e-05
0.000688793
5.64821e-05
0.000700041
5.88532e-05
0.000711339
6.1052e-05
0.000722647
6.3066e-05
0.000733927
6.48842e-05
0.00074514
6.64974e-05
0.000756248
6.78982e-05
0.000767218
6.9081e-05
0.000778014
7.0043e-05
0.000788608
7.07834e-05
0.00079897
7.13037e-05
0.000809076
7.16077e-05
0.000818906
7.17017e-05
0.000828445
7.1593e-05
0.000837684
7.12903e-05
0.000846616
7.0804e-05
0.000855238
7.01452e-05
0.00086355
6.9326e-05
0.000871554
6.83593e-05
0.000879253
6.72583e-05
0.000886654
6.60369e-05
0.000893766
6.47089e-05
0.000900595
6.32882e-05
0.000907153
6.17884e-05
0.000913449
6.02226e-05
0.000919493
5.86033e-05
0.000925296
5.69423e-05
0.000930867
5.52506e-05
0.000936217
5.35385e-05
0.000941355
5.18157e-05
0.00094629
5.00906e-05
0.000951029
4.83714e-05
0.000955582
4.66652e-05
0.000959955
4.49783e-05
0.000964156
4.33163e-05
0.00096819
4.16841e-05
0.000972062
4.00857e-05
0.000975779
3.85246e-05
0.000979345
3.70036e-05
0.000982763
3.5525e-05
0.000986039
3.40903e-05
0.000989176
3.27009e-05
0.000992177
3.13572e-05
0.000995045
3.00594e-05
0.000997783
2.88073e-05
0.00100039
2.76001e-05
0.00100288
2.64369e-05
0.00100524
2.53164e-05
0.00100748
2.4237e-05
0.0010096
2.31968e-05
0.00101161
2.21938e-05
0.00101349
2.12258e-05
0.00101526
2.02904e-05
0.00101692
1.93853e-05
0.00101846
1.85077e-05
0.00101989
1.76551e-05
0.00102121
1.68249e-05
0.00102241
1.60142e-05
0.00102351
1.52204e-05
0.00102449
1.44409e-05
0.00102536
1.3673e-05
0.00102613
1.29143e-05
0.00102678
1.21621e-05
0.00102733
1.14141e-05
0.00102776
1.06681e-05
0.00102809
9.92183e-06
0.0010283
9.17358e-06
0.0010284
8.42125e-06
0.00102839
7.6635e-06
0.00102826
6.89906e-06
0.00102802
6.12658e-06
0.00102766
5.34582e-06
0.00102718
4.55588e-06
0.00102658
3.75699e-06
0.00102586
2.94979e-06
2.13467e-06
0.000282291
7.04245e-06
0.000289275
9.96326e-06
0.000296835
1.26573e-05
0.000304894
1.54019e-05
0.000313432
1.81626e-05
0.000322437
2.09277e-05
0.000331903
2.36821e-05
0.000341826
2.64118e-05
0.0003522
2.91042e-05
0.000363012
3.17482e-05
0.000374246
3.43321e-05
0.000385881
3.68432e-05
0.000397892
3.92683e-05
0.00041025
4.15942e-05
0.000422924
4.3808e-05
0.00043588
4.58974e-05
0.000449081
4.78506e-05
0.00046249
4.96571e-05
0.000476067
5.13072e-05
0.000489772
5.27926e-05
0.000503564
5.41061e-05
0.000517402
5.52425e-05
0.000531248
5.61976e-05
0.000545061
5.69703e-05
0.000558806
5.75582e-05
0.00057245
5.79641e-05
0.000585959
5.81923e-05
0.000599306
5.82464e-05
0.000612464
5.81325e-05
0.00062541
5.78575e-05
0.000638125
5.743e-05
0.000650592
5.68593e-05
0.000662796
5.61553e-05
0.000674726
5.53285e-05
0.000686373
5.43899e-05
0.000697731
5.33511e-05
0.000708795
5.22239e-05
0.000719563
5.10202e-05
0.000730034
4.97515e-05
0.000740209
4.84287e-05
0.000750089
4.70625e-05
0.000759676
4.5663e-05
0.000768975
4.42398e-05
0.000777989
4.28016e-05
0.000786723
4.13567e-05
0.000795182
3.99128e-05
0.00080337
3.84767e-05
0.000811294
3.70546e-05
0.000818959
3.56518e-05
0.00082637
3.42731e-05
0.000833533
3.29225e-05
0.000840454
3.16034e-05
0.000847139
3.03188e-05
0.000853593
2.90708e-05
0.000859822
2.78614e-05
0.000865831
2.66918e-05
0.000871625
2.55629e-05
0.000877209
2.4475e-05
0.000882589
2.34282e-05
0.000887766
2.24221e-05
0.000892747
2.14561e-05
0.000897535
2.05291e-05
0.000902132
1.96399e-05
0.000906541
1.8787e-05
0.000910766
1.79687e-05
0.000914809
1.71831e-05
0.000918672
1.64281e-05
0.000922355
1.57016e-05
0.000925862
1.50013e-05
0.000929192
1.43248e-05
0.000932347
1.36699e-05
0.000935327
1.30341e-05
0.000938133
1.24148e-05
0.000940764
1.18099e-05
0.00094322
1.12167e-05
0.000945501
1.06331e-05
0.000947606
1.00569e-05
0.000949535
9.48575e-06
0.000951285
8.91791e-06
0.000952856
8.35117e-06
0.000954245
7.78395e-06
0.000955452
7.21475e-06
0.000956473
6.64183e-06
0.000957308
6.06452e-06
0.000957953
5.48145e-06
0.000958407
4.89211e-06
0.000958666
4.29629e-06
0.00095873
3.69332e-06
0.000958596
3.08418e-06
2.46855e-06
6.98486e-06
1.94498e-06
1.33228e-05
3.62534e-06
2.00594e-05
5.92071e-06
2.75488e-05
7.91247e-06
3.55812e-05
1.01302e-05
4.42368e-05
1.22721e-05
5.34508e-05
1.44681e-05
6.32429e-05
1.66197e-05
7.35879e-05
1.87592e-05
8.44803e-05
2.08559e-05
9.59006e-05
2.29117e-05
0.000107831
2.49131e-05
0.000120247
2.68521e-05
0.000133123
2.87184e-05
0.000146429
3.05016e-05
0.000160134
3.21923e-05
0.000174204
3.37806e-05
0.000188603
3.52582e-05
0.000203293
3.66169e-05
0.000218236
3.78497e-05
0.000233392
3.89507e-05
0.000248719
3.99152e-05
0.000264177
4.07398e-05
0.000279722
4.14248e-05
0.000295329
4.19511e-05
0.000310947
4.23466e-05
0.000326539
4.26001e-05
0.000342071
4.27145e-05
0.000357509
4.26944e-05
0.000372821
4.25454e-05
0.000387977
4.22735e-05
0.000402952
4.18852e-05
0.000417722
4.13853e-05
0.000432268
4.07816e-05
0.000446575
4.00835e-05
0.000460626
3.93e-05
0.000474409
3.84407e-05
0.000487914
3.75158e-05
0.000501131
3.6534e-05
0.000514055
3.55046e-05
0.000526681
3.44363e-05
0.000539007
3.33377e-05
0.000551029
3.22169e-05
0.000562749
3.10816e-05
0.000574167
2.9939e-05
0.000585284
2.87958e-05
0.000596102
2.76588e-05
0.000606624
2.6533e-05
0.000616853
2.54227e-05
0.000626794
2.4332e-05
0.000636452
2.32645e-05
0.000645832
2.22235e-05
0.000654939
2.12116e-05
0.000663779
2.0231e-05
0.000672356
1.92836e-05
0.000680678
1.83705e-05
0.000688748
1.7493e-05
0.000696571
1.66514e-05
0.000704153
1.58462e-05
0.000711498
1.50772e-05
0.00071861
1.43443e-05
0.000725492
1.36466e-05
0.000732149
1.29836e-05
0.000738582
1.2354e-05
0.000744794
1.17567e-05
0.000750787
1.11901e-05
0.000756562
1.06527e-05
0.000762121
1.01426e-05
0.000767464
9.65803e-06
0.000772592
9.197e-06
0.000777505
8.75754e-06
0.000782201
8.33765e-06
0.000786681
7.93518e-06
0.000790942
7.5482e-06
0.000794984
7.17465e-06
0.000798805
6.81246e-06
0.000802402
6.45987e-06
0.000805773
6.11487e-06
0.000808915
5.77569e-06
0.000811825
5.44085e-06
0.000814501
5.10855e-06
0.000816938
4.77757e-06
0.000819133
4.4467e-06
0.000821083
4.11459e-06
0.000822784
3.78074e-06
0.000824232
3.44417e-06
0.000825424
3.10444e-06
0.000826355
2.76144e-06
0.000827025
2.4148e-06
2.06498e-06
-0.00026691
-1.89996e-06
-0.000262347
-9.37572e-07
-0.00025705
6.23583e-07
-0.000250939
1.80137e-06
-0.000244066
3.25709e-06
-0.000236418
4.6239e-06
-0.000228042
6.09203e-06
-0.000218949
7.52708e-06
-0.00020918
8.99041e-06
-0.000198749
1.04249e-05
-0.000187687
1.18498e-05
-0.000176015
1.32413e-05
-0.000163763
1.46002e-05
-0.000150958
1.59128e-05
-0.00013763
1.71739e-05
-0.000123812
1.83736e-05
-0.000109536
1.95052e-05
-9.48389e-05
2.0561e-05
-7.97567e-05
2.15347e-05
-6.43275e-05
2.24205e-05
-4.85902e-05
2.32134e-05
-3.25844e-05
2.39094e-05
-1.63496e-05
2.4505e-05
7.70583e-08
2.49982e-05
1.66297e-05
2.53984e-05
3.32952e-05
2.56812e-05
5.00318e-05
2.58634e-05
6.68011e-05
2.59452e-05
8.35666e-05
2.5929e-05
0.000100293
2.58194e-05
0.000116943
2.56229e-05
0.000133477
2.53518e-05
0.000149875
2.49867e-05
0.000166121
2.45357e-05
0.000182195
2.40099e-05
0.000198078
2.34172e-05
0.000213752
2.27667e-05
0.000229201
2.20661e-05
0.000244412
2.1323e-05
0.000259373
2.05445e-05
0.000274071
1.97374e-05
0.000288501
1.89084e-05
0.000302654
1.8064e-05
0.000316525
1.72101e-05
0.000330112
1.63526e-05
0.00034341
1.54978e-05
0.000356413
1.4655e-05
0.000369122
1.38245e-05
0.000381535
1.30097e-05
0.000393653
1.2214e-05
0.000405477
1.14404e-05
0.000417009
1.06916e-05
0.000428251
9.96994e-06
0.000439204
9.27722e-06
0.000449873
8.615e-06
0.000460259
7.98443e-06
0.000470366
7.38634e-06
0.000480196
6.82126e-06
0.000489753
6.28942e-06
0.000499039
5.79084e-06
0.000508058
5.3253e-06
0.000516812
4.89238e-06
0.000525304
4.49147e-06
0.000533537
4.12178e-06
0.000541511
3.7823e-06
0.000549229
3.47187e-06