/*--------------------------------*- C++ -*----------------------------------*\
| =========                 |                                                 |
| \\      /  F ield         | OpenFOAM: The Open Source CFD Toolbox           |
|  \\    /   O peration     | Version:  2312                                  |
|   \\  /    A nd           | Website:  www.openfoam.com                      |
|    \\/     M anipulation  |                                                 |
\*---------------------------------------------------------------------------*/
FoamFile
{
    version     2.0;
    format      ascii;
    arch        "LSB;label=32;scalar=64";
    class       surfaceScalarField;
    location    "175000";
    object      phi;
}
// * * * * * * * * * * * * * * * * * * * * * * * * * * * * * * * * * * * * * //

dimensions      [0 3 -1 0 0 0 0];

oriented        oriented;

internalField   nonuniform List<scalar> 
5250
(
0.000392868
-8.7203e-06
0.000398974
-6.10534e-06
0.000402641
-3.66737e-06
0.000404013
-1.372e-06
0.000403229
7.8428e-07
0.000400441
2.7872e-06
0.00039585
4.59192e-06
0.000389494
6.35581e-06
0.000381342
8.15155e-06
0.00037131
1.00326e-05
0.000359236
1.20736e-05
0.000344949
1.42871e-05
0.000328365
1.65839e-05
0.000309605
1.87601e-05
0.000289102
2.05032e-05
0.000267592
2.151e-05
0.000245945
2.16463e-05
0.000224948
2.09974e-05
0.000205153
1.97947e-05
0.000186943
1.82102e-05
0.000170612
1.63316e-05
0.000155955
1.46561e-05
0.000142796
1.31589e-05
0.000130992
1.18041e-05
0.000120425
1.05675e-05
0.000110925
9.50017e-06
0.000102273
8.65125e-06
9.42488e-05
8.02464e-06
8.66421e-05
7.60668e-06
7.92674e-05
7.37472e-06
7.19849e-05
7.28256e-06
6.47047e-05
7.28011e-06
5.7402e-05
7.30279e-06
5.02542e-05
7.14779e-06
4.34159e-05
6.83829e-06
3.7044e-05
6.3719e-06
3.12869e-05
5.75703e-06
2.62861e-05
5.00081e-06
2.2182e-05
4.10409e-06
1.90933e-05
3.08877e-06
1.70832e-05
2.01007e-06
1.61612e-05
9.22009e-07
1.62999e-05
-1.38671e-07
1.7339e-05
-1.03912e-06
1.926e-05
-1.92099e-06
2.20113e-05
-2.75132e-06
2.55308e-05
-3.51947e-06
2.97491e-05
-4.21831e-06
3.45902e-05
-4.84114e-06
3.99718e-05
-5.38157e-06
4.58027e-05
-5.83094e-06
5.19824e-05
-6.17963e-06
5.84024e-05
-6.42005e-06
6.49493e-05
-6.54691e-06
7.15049e-05
-6.5556e-06
7.79494e-05
-6.44449e-06
8.41699e-05
-6.22049e-06
9.00723e-05
-5.90243e-06
9.55958e-05
-5.52343e-06
0.000100633
-5.03747e-06
0.000105055
-4.42205e-06
0.000108734
-3.67886e-06
0.000111557
-2.82269e-06
0.000113459
-1.90184e-06
0.00011446
-1.00114e-06
0.000114674
-2.14265e-07
0.000114378
2.96352e-07
0.000113895
4.82303e-07
0.000113607
2.88521e-07
0.000113985
-3.7843e-07
0.000115449
-1.46376e-06
0.0001182
-2.75136e-06
0.000122262
-4.06162e-06
0.000127492
-5.23043e-06
0.00013361
-6.11792e-06
0.0001402
-6.58998e-06
0.000146787
-6.58673e-06
0.000152976
-6.18861e-06
0.000158387
-5.41103e-06
0.000162746
-4.35958e-06
0.000165953
-3.20711e-06
0.000168103
-2.14918e-06
0.000169417
-1.31451e-06
0.000170176
-7.58375e-07
0.000170627
-4.51521e-07
0.00017093
-3.02836e-07
0.000171132
-2.02304e-07
0.000171189
-5.68015e-08
0.000170977
2.11775e-07
6.13006e-07
0.000738528
-9.46524e-06
0.000740212
-7.78942e-06
0.000742907
-6.36213e-06
0.000746425
-4.8894e-06
0.000750511
-3.30255e-06
0.000754846
-1.54702e-06
0.000759045
3.92652e-07
0.000762856
2.54486e-06
0.00076607
4.93735e-06
0.00076845
7.6527e-06
0.000769835
1.06888e-05
0.000770162
1.39601e-05
0.000769382
1.73634e-05
0.000767292
2.08508e-05
0.000763485
2.43095e-05
0.000757374
2.76211e-05
0.000748336
3.06847e-05
0.000735893
3.344e-05
0.000719839
3.58489e-05
0.000700156
3.78936e-05
0.000676948
3.95391e-05
0.000650804
4.07997e-05
0.000622237
4.17259e-05
0.000591821
4.22207e-05
0.000560493
4.18958e-05
0.000529027
4.09659e-05
0.000498138
3.95403e-05
0.000468456
3.77062e-05
0.000440485
3.55779e-05
0.00041459
3.327e-05
0.00039103
3.08425e-05
0.00037002
2.82902e-05
0.000351717
2.56058e-05
0.000336043
2.28215e-05
0.00032287
2.00117e-05
0.000311989
1.7253e-05
0.000303154
1.45921e-05
0.000296138
1.20159e-05
0.000290767
9.47515e-06
0.000286871
6.98543e-06
0.00028425
4.6308e-06
0.000282739
2.43307e-06
0.000282188
4.12596e-07
0.000282721
-1.57245e-06
0.000284192
-3.39232e-06
0.0002865
-5.05859e-06
0.000289548
-6.56804e-06
0.000293253
-7.92333e-06
0.000297535
-9.12323e-06
0.000302313
-1.01598e-05
0.000307498
-1.10158e-05
0.000312986
-1.16674e-05
0.000318653
-1.2087e-05
0.000324352
-1.22458e-05
0.000329917
-1.21204e-05
0.000335176
-1.17032e-05
0.000339967
-1.10116e-05
0.00034415
-1.00857e-05
0.000347595
-8.96844e-06
0.00035023
-7.67287e-06
0.000352012
-6.20368e-06
0.000352946
-4.61306e-06
0.000353059
-2.93503e-06
0.000352401
-1.24439e-06
0.000351052
3.47948e-07
0.000349083
1.75452e-06
0.00034664
2.74002e-06
0.000343932
3.18968e-06
0.000341221
2.99993e-06
0.000338708
2.13389e-06
0.000336589
6.55483e-07
0.000334857
-1.01947e-06
0.000333483
-2.687e-06
0.000332408
-4.15577e-06
0.000331545
-5.25494e-06
0.00033088
-5.92508e-06
0.000330411
-6.11788e-06
0.000329672
-5.44984e-06
0.000328178
-3.91617e-06
0.000325531
-1.71252e-06
0.000321719
6.04243e-07
0.000317276
2.29427e-06
0.00031277
3.1915e-06
0.000308864
3.14766e-06
0.00030605
2.36238e-06
0.000304512
1.23509e-06
0.000304081
2.2854e-07
0.000304428
-4.04017e-07
0.000304839
-1.98896e-07
8.70427e-07
0.000849174
-1.29306e-05
0.000854226
-1.28416e-05
0.000860466
-1.26024e-05
0.00086784
-1.22631e-05
0.000876271
-1.17334e-05
0.000885619
-1.08957e-05
0.000895669
-9.65694e-06
0.000906168
-7.95413e-06
0.000916877
-5.77222e-06
0.000927652
-3.1216e-06
0.000938379
-3.81624e-08
0.000948569
3.76969e-06
0.000958062
7.87034e-06
0.00096658
1.23333e-05
0.000973799
1.70898e-05
0.000979363
2.20579e-05
0.000982922
2.71252e-05
0.000984162
3.22001e-05
0.000982781
3.72299e-05
0.000978518
4.21563e-05
0.000971167
4.68908e-05
0.000960601
5.13653e-05
0.000946839
5.54881e-05
0.000929987
5.90723e-05
0.000909944
6.19392e-05
0.000886724
6.4186e-05
0.000860523
6.57406e-05
0.000831759
6.64705e-05
0.000801044
6.62926e-05
0.000769159
6.51553e-05
0.000736969
6.30325e-05
0.000705304
5.99555e-05
0.000674874
5.6036e-05
0.000646241
5.14541e-05
0.000619816
4.64365e-05
0.000595857
4.12119e-05
0.000574495
3.59546e-05
0.000555733
3.07782e-05
0.000539424
2.5784e-05
0.000525375
2.10338e-05
0.000513496
1.65106e-05
0.000503644
1.22849e-05
0.00049565
8.40632e-06
0.000489201
4.87653e-06
0.000484148
1.66033e-06
0.000480278
-1.18812e-06
0.000477457
-3.74682e-06
0.000475622
-6.08891e-06
0.000474698
-8.19908e-06
0.000474623
-1.00851e-05
0.000475349
-1.17413e-05
0.000476827
-1.31454e-05
0.000478981
-1.42408e-05
0.000481678
-1.49431e-05
0.000484739
-1.51814e-05
0.000487974
-1.49381e-05
0.000491219
-1.42565e-05
0.00049436
-1.32269e-05
0.000497356
-1.19644e-05
0.000500258
-1.05749e-05
0.000503191
-9.13697e-06
0.00050629
-7.71211e-06
0.000509708
-6.35315e-06
0.000513586
-5.12188e-06
0.000517991
-4.05737e-06
0.000522935
-3.18954e-06
0.000528283
-2.60812e-06
0.000533844
-2.37124e-06
0.000539358
-2.51417e-06
0.000544523
-3.03076e-06
0.000549022
-3.84335e-06
0.000552794
-4.79135e-06
0.000555738
-5.63094e-06
0.000557715
-6.13336e-06
0.000558628
-6.16738e-06
0.000558378
-5.67494e-06
0.000556813
-4.5537e-06
0.000554088
-2.72417e-06
0.000550517
-3.44857e-07
0.000545985
2.81864e-06
0.000540542
6.04767e-06
0.000534058
8.77829e-06
0.000526703
1.05461e-05
0.000518657
1.11941e-05
0.000510056
1.09632e-05
0.000500986
1.0305e-05
0.000491569
9.64593e-06
0.000482043
9.12199e-06
0.000472535
9.30906e-06
1.04215e-05
0.000890081
-1.63734e-05
0.000895326
-1.80862e-05
0.000902127
-1.94041e-05
0.000910269
-2.04043e-05
0.000919609
-2.10736e-05
0.000930061
-2.13478e-05
0.000941555
-2.11507e-05
0.000953999
-2.03984e-05
0.000967241
-1.90143e-05
0.000981063
-1.6944e-05
0.000995188
-1.41625e-05
0.00100962
-1.06633e-05
0.00102399
-6.49987e-06
0.00103804
-1.71166e-06
0.0010516
3.52349e-06
0.00106432
9.33803e-06
0.00107585
1.55992e-05
0.00108584
2.22058e-05
0.00109398
2.90875e-05
0.00110002
3.61213e-05
0.00110374
4.31658e-05
0.00110502
5.00897e-05
0.00110375
5.67608e-05
0.00109977
6.30526e-05
0.00109287
6.88334e-05
0.00108309
7.39701e-05
0.00107047
7.83572e-05
0.00105502
8.19259e-05
0.00103671
8.45948e-05
0.0010156
8.62704e-05
0.000991732
8.68998e-05
0.000965257
8.64305e-05
0.000936515
8.47784e-05
0.000906047
8.19222e-05
0.000874526
7.79567e-05
0.000842725
7.30134e-05
0.000811441
6.7239e-05
0.000781371
6.08478e-05
0.000753059
5.40961e-05
0.000726886
4.7207e-05
0.000703031
4.03656e-05
0.000681563
3.37529e-05
0.000662447
2.75218e-05
0.000645565
2.17589e-05
0.000630745
1.64799e-05
0.000617907
1.16502e-05
0.00060692
7.24051e-06
0.000597578
3.25265e-06
0.000589714
-3.35317e-07
0.000583242
-3.61254e-06
0.000578031
-6.53019e-06
0.00057402
-9.13446e-06
0.000571116
-1.13366e-05
0.000569119
-1.29467e-05
0.000567728
-1.37902e-05
0.000566614
-1.38241e-05
0.000565521
-1.31631e-05
0.000564329
-1.20351e-05
0.000563086
-1.07217e-05
0.000561996
-9.48505e-06
0.000561329
-8.47029e-06
0.000561281
-7.66365e-06
0.000561901
-6.97279e-06
0.000563144
-6.36555e-06
0.000564978
-5.89078e-06
0.000567386
-5.59802e-06
0.000570363
-5.58517e-06
0.000573966
-5.97376e-06
0.000578198
-6.7461e-06
0.000583028
-7.86125e-06
0.000588411
-9.2257e-06
0.000594309
-1.06897e-05
0.000600762
-1.20836e-05
0.000607864
-1.3236e-05
0.000615695
-1.39977e-05
0.000624281
-1.42612e-05
0.000633697
-1.39702e-05
0.000644057
-1.3084e-05
0.00065517
-1.14575e-05
0.000667151
-9.1627e-06
0.000679608
-6.40943e-06
0.000691798
-3.41189e-06
0.000702631
-2.87136e-07
0.00071152
2.30516e-06
0.000717589
4.89454e-06
0.000720324
7.56998e-06
0.0007195
1.04699e-05
0.00071476
1.38625e-05
0.000706495
1.75733e-05
2.13917e-05
0.000875107
-1.82037e-05
0.000878986
-2.19649e-05
0.000885094
-2.55126e-05
0.00089345
-2.87598e-05
0.000903933
-3.15568e-05
0.000916361
-3.37755e-05
0.00093052
-3.531e-05
0.000946172
-3.60499e-05
0.000963049
-3.58915e-05
0.000980874
-3.47697e-05
0.000999342
-3.26303e-05
0.00101812
-2.94427e-05
0.00103684
-2.52154e-05
0.0010551
-1.99753e-05
0.00107239
-1.37691e-05
0.00108838
-6.65244e-06
0.00110289
1.09023e-06
0.00111593
9.16837e-06
0.00112724
1.77807e-05
0.00113665
2.67068e-05
0.00114405
3.57697e-05
0.00114938
4.47607e-05
0.00115264
5.34967e-05
0.00115388
6.18184e-05
0.00115311
6.95942e-05
0.00115033
7.67566e-05
0.00114547
8.3212e-05
0.00113863
8.87651e-05
0.00112994
9.32922e-05
0.0011194
9.68081e-05
0.00110702
9.92766e-05
0.0010928
0.000100656
0.00107656
0.000101011
0.00105806
0.000100428
0.00103716
9.88582e-05
0.00101393
9.62424e-05
0.000988516
9.26509e-05
0.000961188
8.81756e-05
0.000932446
8.28378e-05
0.000902945
7.6708e-05
0.000873317
6.99939e-05
0.000844129
6.29406e-05
0.000815914
5.5737e-05
0.000789148
4.85245e-05
0.00076424
4.13888e-05
0.000741511
3.4379e-05
0.00072113
2.76217e-05
0.00070302
2.13624e-05
0.000686897
1.57878e-05
0.00067246
1.08242e-05
0.000659693
6.23729e-06
0.000648618
1.94018e-06
0.000639173
-1.89129e-06
0.000630855
-4.62889e-06
0.000622997
-5.93247e-06
0.000615121
-5.94855e-06
0.000607143
-5.18456e-06
0.000599267
-4.15974e-06
0.000591776
-3.22996e-06
0.000584933
-2.64202e-06
0.000578981
-2.51899e-06
0.000574066
-2.74823e-06
0.000570157
-3.06336e-06
0.000567186
-3.39519e-06
0.000565005
-3.70924e-06
0.000563506
-4.09945e-06
0.000562589
-4.66783e-06
0.000562084
-5.46892e-06
0.000562043
-6.70505e-06
0.000562642
-8.46084e-06
0.000564156
-1.07391e-05
0.000566866
-1.34002e-05
0.000571027
-1.62447e-05
0.00057684
-1.90488e-05
0.000584445
-2.16023e-05
0.000593901
-2.37177e-05
0.000605153
-2.5222e-05
0.000618044
-2.59749e-05
0.000632477
-2.58904e-05
0.000648347
-2.50332e-05
0.000665518
-2.358e-05
0.000683726
-2.16201e-05
0.000702693
-1.92539e-05
0.000721592
-1.65937e-05
0.000740127
-1.36402e-05
0.000758041
-1.03445e-05
0.000775174
-6.66348e-06
0.000791656
-2.61914e-06
0.000807405
1.8244e-06
6.48165e-06
0.000843582
-2.47077e-05
0.000853137
-3.152e-05
0.000865589
-3.79652e-05
0.000880652
-4.38223e-05
0.000897979
-4.88837e-05
0.000917177
-5.29742e-05
0.00093785
-5.59821e-05
0.000959638
-5.78384e-05
0.00098224
-5.84933e-05
0.00100537
-5.79019e-05
0.00102876
-5.60166e-05
0.00105211
-5.27974e-05
0.00107513
-4.82295e-05
0.00109747
-4.23204e-05
0.00111881
-3.51022e-05
0.00113881
-2.66578e-05
0.00115702
-1.71239e-05
0.00117286
-6.67079e-06
0.00118575
4.89565e-06
0.00119557
1.68871e-05
0.00120224
2.91009e-05
0.00120569
4.131e-05
0.0012059
5.32831e-05
0.00120302
6.46956e-05
0.00119733
7.5292e-05
0.00118924
8.48482e-05
0.00117931
9.31355e-05
0.00116804
0.000100041
0.00115579
0.00010554
0.001143
0.000109599
0.00113
0.000112278
0.00111691
0.000113743
0.00110382
0.000114101
0.00109076
0.000113485
0.00107749
0.000112128
0.00106356
0.000110177
0.00104857
0.000107633
0.00103223
0.000104519
0.00101417
0.000100893
0.000994178
9.67048e-05
0.000972328
9.18434e-05
0.000948925
8.63436e-05
0.000924304
8.03578e-05
0.000898907
7.39221e-05
0.000873287
6.70083e-05
0.000847814
5.98525e-05
0.000822552
5.28831e-05
0.000797692
4.62225e-05
0.00077387
3.96104e-05
0.000751789
3.2905e-05
0.000731682
2.63447e-05
0.000713277
2.03448e-05
0.000695993
1.53923e-05
0.000679303
1.20614e-05
0.000662673
1.06978e-05
0.000645766
1.09584e-05
0.000628752
1.18295e-05
0.000612333
1.2259e-05
0.000597477
1.16258e-05
0.000585147
9.68847e-06
0.000575773
6.85458e-06
0.000568453
4.57173e-06
0.000561186
4.20446e-06
0.000552028
5.76282e-06
0.000540265
8.05309e-06
0.000526481
9.68482e-06
0.000512019
9.79368e-06
0.000498436
8.11408e-06
0.000486969
4.7622e-06
0.000478477
3.167e-08
0.000473751
-6.01368e-06
0.000472715
-1.23645e-05
0.000475263
-1.87921e-05
0.000481262
-2.50483e-05
0.000490467
-3.08064e-05
0.000502549
-3.57999e-05
0.00051716
-3.98336e-05
0.000533978
-4.27924e-05
0.000552728
-4.46402e-05
0.000573099
-4.54045e-05
0.000594676
-4.51573e-05
0.000617055
-4.39985e-05
0.000639856
-4.20556e-05
0.000662725
-3.94621e-05
0.000685413
-3.63287e-05
0.000707829
-3.27601e-05
0.000730032
-2.88662e-05
0.000752172
-2.47595e-05
0.000774542
-2.05457e-05
-1.63214e-05
0.000843021
-3.66769e-05
0.000856915
-4.54133e-05
0.000872346
-5.33969e-05
0.000888952
-6.04275e-05
0.000906499
-6.64312e-05
0.000924932
-7.14068e-05
0.000944319
-7.53698e-05
0.00096478
-7.82994e-05
0.000986421
-8.01335e-05
0.00100929
-8.07748e-05
0.00103337
-8.00945e-05
0.00105853
-7.79524e-05
0.00108452
-7.42189e-05
0.00111098
-6.87894e-05
0.00113749
-6.16061e-05
0.00116349
-5.26626e-05
0.00118838
-4.2013e-05
0.00121152
-2.98081e-05
0.00123273
-1.63103e-05
0.00125155
-1.94017e-06
0.00126628
1.43727e-05
0.0012768
3.079e-05
0.00128284
4.72477e-05
0.00128412
6.34129e-05
0.00128045
7.8966e-05
0.0012719
9.33921e-05
0.00125878
0.000106256
0.00124149
0.000117331
0.00122069
0.000126337
0.00119722
0.000133068
0.00117197
0.000137533
0.00114599
0.000139719
0.00112049
0.000139609
0.00109643
0.000137541
0.00107455
0.000134007
0.00105528
0.000129451
0.00103852
0.000124393
0.00102373
0.000119312
0.00101015
0.000114472
0.000996866
0.000109986
0.00098295
0.000105759
0.000967846
0.000101448
0.000951386
9.68171e-05
0.000933289
9.20192e-05
0.000913093
8.72045e-05
0.000890897
8.20484e-05
0.000867654
7.61259e-05
0.000844198
6.96787e-05
0.000820414
6.33946e-05
0.000796062
5.72571e-05
0.000771959
5.04473e-05
0.00074918
4.3124e-05
0.000726995
3.75777e-05
0.00070295
3.61062e-05
0.000675914
3.77333e-05
0.000648407
3.84657e-05
0.000625112
3.51241e-05
0.000608902
2.84694e-05
0.000598039
2.24888e-05
0.0005871
2.06273e-05
0.000570843
2.31116e-05
0.000547414
2.80009e-05
0.000518195
3.34233e-05
0.000485877
3.80811e-05
0.000453715
4.02154e-05
0.000424522
3.88774e-05
0.000400329
3.39868e-05
0.000382351
2.60918e-05
0.000371067
1.60468e-05
0.000366403
4.69532e-06
0.000367128
-6.7386e-06
0.000372911
-1.81478e-05
0.000383137
-2.90176e-05
0.000397023
-3.89349e-05
0.000413812
-4.75948e-05
0.000432793
-5.47808e-05
0.000453326
-6.03669e-05
0.000474885
-6.43513e-05
0.000497049
-6.68044e-05
0.000519483
-6.78388e-05
0.000541903
-6.75768e-05
0.000564056
-6.61514e-05
0.000585711
-6.37113e-05
0.000606702
-6.04529e-05
0.000626996
-5.66224e-05
0.000646736
-5.25003e-05
0.000666233
-4.83636e-05
0.000685923
-4.44489e-05
0.000706312
-4.09351e-05
-3.79431e-05
0.000811248
-3.66707e-05
0.000811307
-4.54723e-05
0.000811518
-5.36075e-05
0.000812274
-6.11836e-05
0.000814231
-6.83886e-05
0.000818208
-7.53841e-05
0.000825019
-8.21805e-05
0.000835341
-8.86211e-05
0.000849635
-9.44281e-05
0.000868108
-9.92478e-05
0.000890716
-0.000102702
0.00091719
-0.000104426
0.000947069
-0.000104098
0.000979725
-0.000101445
0.00101439
-9.6274e-05
0.00105021
-8.84772e-05
0.00108627
-7.80766e-05
0.00112165
-6.51828e-05
0.00115538
-5.00476e-05
0.00118649
-3.3046e-05
0.00121541
-1.45498e-05
0.00124088
5.32269e-06
0.00126216
2.59623e-05
0.00127873
4.68474e-05
0.00129027
6.74298e-05
0.00129638
8.72787e-05
0.0012965
0.000106131
0.0012904
0.000123437
0.00127812
0.000138611
0.00125972
0.000151475
0.00123561
0.000161641
0.00120684
0.000168487
0.00117444
0.000172013
0.00113955
0.000172432
0.00110399
0.000169563
0.00106974
0.000163704
0.0010383
0.000155832
0.0010108
0.000146813
0.000987852
0.000137417
0.000969223
0.000128615
0.000953814
0.000121168
0.00094004
0.000115221
0.000926425
0.000110432
0.000912223
0.000106221
0.000897391
0.000102037
0.000881716
9.77231e-05
0.000864362
9.34801e-05
0.000844828
8.92123e-05
0.000823882
8.4341e-05
0.000802439
7.87005e-05
0.000779577
7.33086e-05
0.000752946
6.97551e-05
0.000721904
6.86202e-05
0.000689623
6.83874e-05
0.000661304
6.60514e-05
0.000640094
5.96759e-05
0.000624224
5.09945e-05
0.000607724
4.49694e-05
0.000584036
4.61767e-05
0.000549695
5.49681e-05
0.000505821
6.69861e-05
0.000457177
7.66445e-05
0.000410276
8.03239e-05
0.00037083
7.75278e-05
0.00034155
6.94953e-05
0.00032269
5.77377e-05
0.000313167
4.35092e-05
0.000311493
2.77655e-05
0.000316195
1.13449e-05
0.000326108
-5.21735e-06
0.00034064
-2.12708e-05
0.000358881
-3.63885e-05
0.000380067
-5.02032e-05
0.000403524
-6.23919e-05
0.000428612
-7.26836e-05
0.000454715
-8.08835e-05
0.000481258
-8.69096e-05
0.000507724
-9.08179e-05
0.000533699
-9.27789e-05
0.000558873
-9.30129e-05
0.000583004
-9.1708e-05
0.000605822
-8.89692e-05
0.000626965
-8.48539e-05
0.000645995
-7.94836e-05
0.000662543
-7.31695e-05
0.000676499
-6.64564e-05
0.000688177
-6.00416e-05
0.000698324
-5.45966e-05
0.000707992
-5.06024e-05
-4.82788e-05
0.000642947
-1.13615e-05
0.00061923
-2.17553e-05
0.000598323
-3.27002e-05
0.00058167
-4.45314e-05
0.000570586
-5.73046e-05
0.000566012
-7.08092e-05
0.000568448
-8.46167e-05
0.000578006
-9.81792e-05
0.000594493
-0.000110916
0.0006175
-0.000122254
0.000646457
-0.000131659
0.000680673
-0.000138642
0.000719363
-0.000142789
0.000761664
-0.000143746
0.000806639
-0.000141249
0.000853304
-0.000135142
0.000900664
-0.000125437
0.000947769
-0.000112287
0.000993708
-9.59863e-05
0.00103757
-7.69103e-05
0.00107854
-5.55135e-05
0.00111634
-3.24833e-05
0.00115056
-8.26103e-06
0.00118061
1.68002e-05
0.00120609
4.19516e-05
0.0012265
6.68731e-05
0.00124164
9.09922e-05
0.00125126
0.000113808
0.00125473
0.000135145
0.00125166
0.000154543
0.00124212
0.000171181
0.0012258
0.000184808
0.00120252
0.000195293
0.00117318
0.000201769
0.00113898
0.000203769
0.00110095
0.000201728
0.00106103
0.000195753
0.00102195
0.000185892
0.000986023
0.000173347
0.000954639
0.00016
0.000928397
0.00014741
0.000907071
0.000136547
0.000889892
0.000127611
0.000875888
0.000120225
0.000863487
0.000114438
0.000850308
0.000110902
0.000834608
0.00010918
0.000816855
0.000106966
0.000798388
0.000102808
0.000778236
9.88524e-05
0.00075311
9.84343e-05
0.000721924
0.000100941
0.000689261
0.000101283
0.000662318
9.53301e-05
0.000643627
8.47429e-05
0.000627402
7.5901e-05
0.000603534
7.4862e-05
0.000565449
8.3055e-05
0.000515021
9.66043e-05
0.000460647
0.000109342
0.000411135
0.000116499
0.000371598
0.000116182
0.000343123
0.000108799
0.000324682
9.59681e-05
0.000314741
7.94363e-05
0.000311793
6.06862e-05
0.000314528
4.0774e-05
0.000321854
2.04392e-05
0.000333037
1.62505e-07
0.000347877
-2.00574e-05
0.000365804
-3.9198e-05
0.000386529
-5.71138e-05
0.000409806
-7.34797e-05
0.000435364
-8.795e-05
0.000462848
-0.000100168
0.000491769
-0.000109805
0.000521513
-0.000116654
0.000551434
-0.000120738
0.000580979
-0.000122324
0.000609836
-0.000121869
0.000637948
-0.000119821
0.000665353
-0.000116374
0.000691885
-0.000111386
0.000716933
-0.000104532
0.000739429
-9.56654e-05
0.000758142
-8.51694e-05
0.000772162
-7.40616e-05
0.000781334
-6.37684e-05
0.000786422
-5.569e-05
-5.08115e-05
0.000366649
2.57092e-05
0.000335936
8.95789e-06
0.000313628
-1.03926e-05
0.000300314
-3.12172e-05
0.000295928
-5.29183e-05
0.000300029
-7.49103e-05
0.000311931
-9.65183e-05
0.000330876
-0.000117125
0.00035615
-0.000136189
0.000387127
-0.000153231
0.000423276
-0.000167809
0.000464118
-0.000179483
0.000509147
-0.000187818
0.000557764
-0.000192362
0.000609233
-0.000192718
0.000662667
-0.000188576
0.000717047
-0.000179817
0.000771315
-0.000166555
0.000824468
-0.00014914
0.000875662
-0.000128104
0.000924205
-0.000104057
0.000969468
-7.77461e-05
0.00101106
-4.98557e-05
0.00104895
-2.10906e-05
0.00108249
8.41089e-06
0.00111163
3.77409e-05
0.00113627
6.63475e-05
0.00115606
9.40154e-05
0.00117084
0.00012037
0.00118055
0.000144835
0.00118448
0.000167244
0.00118187
0.000187424
0.00117279
0.000204373
0.00115722
0.000217336
0.00113456
0.000226429
0.00110518
0.000231104
0.00107067
0.000230269
0.00103252
0.000224045
0.000992441
0.000213423
0.000953203
0.000199237
0.000917893
0.000182721
0.00088852
0.000165919
0.000865019
0.000151112
0.000845182
0.000140062
0.000826307
0.000133313
0.000807545
0.000129664
0.000789915
0.00012681
0.00077326
0.000123621
0.000754358
0.00012171
0.000730048
0.000123163
0.000702068
0.000126414
0.000676704
0.000126306
0.000658459
0.000119528
0.000644611
0.000109177
0.000626522
0.000102832
0.000596249
0.000106174
0.000552497
0.000118614
0.000501137
0.000134415
0.000450709
0.000147033
0.000407661
0.000152389
0.000374705
0.000149455
0.000351599
0.000139288
0.000336654
0.000123744
0.000327964
0.000104659
0.000323971
8.34289e-05
0.000323793
6.08641e-05
0.000327049
3.75177e-05
0.000333622
1.38661e-05
0.000343142
-9.35706e-06
0.000355282
-3.2197e-05
0.000370327
-5.4243e-05
0.000388286
-7.50731e-05
0.0004091
-9.42939e-05
0.000432651
-0.000111501
0.000458736
-0.000126253
0.000487002
-0.00013807
0.000516838
-0.00014649
0.000547346
-0.000151246
0.000577533
-0.000152511
0.000606676
-0.000151013
0.000634669
-0.000147814
0.000662066
-0.000143771
0.000689701
-0.000139021
0.000718061
-0.000132892
0.000746763
-0.000124367
0.000774444
-0.000112851
0.000799164
-9.87817e-05
0.000819123
-8.37272e-05
0.000833355
-6.99224e-05
-5.95548e-05
9.5765e-05
5.1219e-05
8.07903e-05
2.39326e-05
7.49047e-05
-4.50713e-06
7.68805e-05
-3.31929e-05
8.60601e-05
-6.2098e-05
0.000101467
-9.03175e-05
0.000122157
-0.000117208
0.000147346
-0.000142314
0.000176464
-0.000165307
0.000209176
-0.000185944
0.000245379
-0.000204011
0.000285161
-0.000219265
0.000328693
-0.00023135
0.000376085
-0.000239755
0.000427212
-0.000243845
0.00048159
-0.000242955
0.000538364
-0.00023659
0.000596358
-0.000224548
0.000654272
-0.000207054
0.000710868
-0.0001847
0.000765149
-0.000158338
0.000816337
-0.000128935
0.000863808
-9.73265e-05
0.000907114
-6.4396e-05
0.000946431
-3.09065e-05
0.000981458
2.71427e-06
0.00101185
3.59563e-05
0.00103782
6.80478e-05
0.00105956
9.86255e-05
0.0010768
0.000127594
0.00108921
0.000154833
0.00109694
0.000179698
0.00109954
0.000201768
0.00109576
0.000221118
0.0010853
0.000236896
0.00106878
0.000247619
0.00104595
0.000253095
0.00101641
0.000253585
0.000981643
0.000248194
0.00094457
0.000236311
0.000907884
0.000219407
0.000873078
0.000200725
0.000840443
0.000183748
0.000810281
0.000170224
0.000784077
0.000159516
0.000763174
0.000150567
0.000745942
0.000144042
0.000727832
0.00014173
0.000705807
0.000143735
0.000682296
0.000146674
0.000663095
0.000145615
0.000650729
0.000138671
0.000640547
0.000129711
0.000623788
0.000125936
0.000594428
0.000132191
0.000553357
0.000147246
0.000506942
0.000165029
0.000462552
0.000178805
0.000425128
0.000184457
0.000396342
0.000181175
0.000375475
0.000170321
0.000360799
0.000153964
0.000350616
0.000133927
0.000343842
0.000111433
0.000340074
8.71965e-05
0.000339277
6.16608e-05
0.000341603
3.51923e-05
0.000347299
8.1699e-06
0.000355975
-1.80329e-05
0.000367869
-4.40909e-05
0.0003829
-6.92743e-05
0.000400886
-9.30589e-05
0.000421568
-0.000114977
0.000444664
-0.000134596
0.000469916
-0.000151505
0.000497104
-0.000165259
0.000525916
-0.000175301
0.000555688
-0.000181019
0.000585237
-0.00018206
0.000613063
-0.000178839
0.000638007
-0.000172757
0.000659946
-0.00016571
0.000679958
-0.000159033
0.000699735
-0.000152669
0.000720623
-0.000145254
0.000742881
-0.000135108
0.000765573
-0.000121474
0.000787056
-0.000105211
0.000805743
-8.86098e-05
-7.458e-05
-8.25894e-05
5.03454e-05
-7.3243e-05
1.45862e-05
-5.78314e-05
-1.99187e-05
-3.71988e-05
-5.38255e-05
-1.24825e-05
-8.68143e-05
1.51364e-05
-0.000117936
4.45826e-05
-0.000146654
7.4895e-05
-0.000172626
0.000105341
-0.000195753
0.000135543
-0.000216147
0.000165593
-0.000234062
0.000196108
-0.000249779
0.000228174
-0.000263416
0.000263133
-0.000274714
0.000302198
-0.00028291
0.000346046
-0.000286802
0.000394553
-0.000285098
0.000446826
-0.000276821
0.000501463
-0.000261691
0.000556882
-0.000240119
0.000611643
-0.000213099
0.000664535
-0.000181828
0.000714792
-0.000147583
0.000761749
-0.000111353
0.000804923
-7.40802e-05
0.00084419
-3.65531e-05
0.000879391
7.55532e-07
0.000910292
3.71468e-05
0.000936849
7.2068e-05
0.000959135
0.000105307
0.000977538
0.000136431
0.000991891
0.000165345
0.00100144
0.000192217
0.00100613
0.000216425
0.00100616
0.000236867
0.00100039
0.000253393
0.000987607
0.000265876
0.000968463
0.000272729
0.00094411
0.000272547
0.000914809
0.000265612
0.000881158
0.000253058
0.000845189
0.000236694
0.000810127
0.000218809
0.000779621
0.000200731
0.000755692
0.000183445
0.000736544
0.000169716
0.0007177
0.000162885
0.000696548
0.000162882
0.00067537
0.000164913
0.000658935
0.00016311
0.00064883
0.000155719
0.000640566
0.000146935
0.000626471
0.000143806
0.000601463
0.000150944
0.000566366
0.000167289
0.000526589
0.000187022
0.000488402
0.000203216
0.000456011
0.000211196
0.000430752
0.000209715
0.000411886
0.000200042
0.000397864
0.000184343
0.000387332
0.000164495
0.000379588
0.000141671
0.000374536
0.000116486
0.000372378
8.93541e-05
0.000373366
6.06728e-05
0.000377517
3.10419e-05
0.000384732
9.54346e-07
0.000394943
-2.82432e-05
0.000408019
-5.71672e-05
0.000423716
-8.49713e-05
0.000441834
-0.000111177
0.000462135
-0.000135277
0.000484273
-0.000156734
0.000507822
-0.000175054
0.000532433
-0.00018987
0.000558013
-0.000200881
0.000584625
-0.000207631
0.000611999
-0.000209433
0.000638999
-0.000205839
0.000663732
-0.000197491
0.000684467
-0.000186444
0.000700706
-0.000175272
0.000713523
-0.000165486
0.000724875
-0.000156606
0.000736477
-0.000146711
0.000749031
-0.000134027
0.0007622
-0.00011838
0.000775164
-0.000101573
-8.66634e-05
-0.000108074
2.18873e-05
-7.68966e-05
-1.65908e-05
-4.20131e-05
-5.48023e-05
-4.30826e-06
-9.15304e-05
3.4843e-05
-0.000125966
7.41346e-05
-0.000157228
0.000112237
-0.000184757
0.000147773
-0.000208162
0.000179427
-0.000227408
0.000206131
-0.00024285
0.000227322
-0.000255253
0.000243281
-0.000265738
0.000255439
-0.000275574
0.000266426
-0.000285702
0.000279588
-0.000296072
0.000298046
-0.00030526
0.000323741
-0.000310793
0.000357
-0.00031008
0.000396706
-0.000301397
0.000440916
-0.000284329
0.000487569
-0.000259752
0.000534921
-0.00022918
0.000581668
-0.00019433
0.000626878
-0.000156563
0.0006699
-0.000117102
0.000710186
-7.68394e-05
0.000747484
-3.6543e-05
0.00078126
3.37132e-06
0.000811325
4.20032e-05
0.000837762
7.887e-05
0.000860398
0.000113795
0.000879045
0.000146697
0.000894077
0.000177185
0.000905681
0.000204822
0.000912859
0.00022969
0.000914787
0.000251465
0.000912074
0.000268589
0.00090483
0.000279973
0.000891584
0.000285793
0.000871862
0.000285334
0.000847623
0.000277297
0.000821637
0.00026268
0.000796325
0.000244121
0.000773244
0.000223812
0.000751808
0.000204881
0.000729626
0.000191898
0.000705711
0.0001868
0.000682816
0.000185776
0.000665362
0.000182367
0.000654781
0.000173691
0.000647236
0.000163264
0.000636058
0.000158113
0.000616462
0.000163402
0.000588402
0.000179004
0.000555857
0.000199833
0.000523991
0.000218889
0.000496569
0.000230637
0.000474962
0.000232804
0.000458644
0.000226033
0.00044634
0.000212346
0.000436965
0.000193718
0.000430056
0.000171405
0.000425638
0.000146088
0.000423952
0.000118172
0.00042512
8.8186e-05
0.000429021
5.67717e-05
0.000435415
2.4648e-05
0.000443516
-7.14613e-06
0.000453691
-3.84184e-05
0.000465557
-6.90337e-05
0.000479152
-9.85662e-05
0.000494593
-0.000126618
0.000511994
-0.000152678
0.000531318
-0.000176057
0.00055219
-0.000195927
0.000573865
-0.000211544
0.000595537
-0.000222553
0.000616888
-0.000228982
0.000638232
-0.000230777
0.000659861
-0.000227468
0.000681142
-0.000218773
0.000700449
-0.000205751
0.000716186
-0.00019101
0.000727965
-0.000177266
0.000736859
-0.0001655
0.000744601
-0.000154452
0.00075251
-0.000141936
0.000760958
-0.000126828
0.000769572
-0.000110187
-9.49059e-05
-1.37514e-05
-2.03986e-05
2.96961e-05
-6.00384e-05
7.43521e-05
-9.94583e-05
0.000119623
-0.000136802
0.00016475
-0.000171093
0.000209079
-0.000201557
0.000251735
-0.000227413
0.000291594
-0.00024802
0.000327175
-0.000262989
0.000356658
-0.000272332
0.000378013
-0.000276608
0.000389319
-0.000277045
0.000389493
-0.000275747
0.000379549
-0.000275758
0.00036355
-0.000280073
0.000347815
-0.000289525
0.000338597
-0.000301575
0.000339863
-0.000311346
0.000352549
-0.000314083
0.000375187
-0.000306967
0.000405092
-0.000289657
0.000439562
-0.00026365
0.00047645
-0.000231218
0.000514295
-0.000194409
0.00055214
-0.000154946
0.000589252
-0.000113951
0.000624916
-7.22078e-05
0.000658763
-3.04756e-05
0.000690185
1.0581e-05
0.000718689
5.03666e-05
0.000744057
8.84271e-05
0.000766434
0.000124321
0.000785838
0.000157781
0.000801852
0.000188807
0.000814448
0.000217094
0.000824244
0.000241669
0.00083085
0.000261983
0.000832566
0.000278257
0.000828994
0.000289365
0.000821642
0.000292686