/*--------------------------------*- C++ -*----------------------------------*\
| =========                 |                                                 |
| \\      /  F ield         | OpenFOAM: The Open Source CFD Toolbox           |
|  \\    /   O peration     | Version:  2312                                  |
|   \\  /    A nd           | Website:  www.openfoam.com                      |
|    \\/     M anipulation  |                                                 |
\*---------------------------------------------------------------------------*/
FoamFile
{
    version     2.0;
    format      ascii;
    arch        "LSB;label=32;scalar=64";
    class       volScalarField;
    location    "164000";
    object      p;
}
// * * * * * * * * * * * * * * * * * * * * * * * * * * * * * * * * * * * * * //

dimensions      [0 2 -2 0 0 0 0];

internalField   nonuniform List<scalar> 
2685
(
-1.1594e-07
-1.2383e-07
-1.21492e-07
-1.19848e-07
-1.18667e-07
-1.16528e-07
-1.12962e-07
-1.08068e-07
-1.02073e-07
-9.51422e-08
-8.7369e-08
-7.88124e-08
-6.95278e-08
-5.95722e-08
-4.90056e-08
-3.78917e-08
-2.62933e-08
-1.42738e-08
-1.89804e-09
1.07716e-08
2.36682e-08
3.67003e-08
4.97684e-08
6.27648e-08
7.55744e-08
8.80717e-08
1.00118e-07
1.11559e-07
1.22187e-07
1.31886e-07
1.40687e-07
1.48799e-07
1.56552e-07
1.64321e-07
1.72408e-07
1.81036e-07
1.90282e-07
2.00001e-07
2.09904e-07
2.19609e-07
2.28919e-07
2.37551e-07
2.44939e-07
2.50621e-07
2.54177e-07
2.55379e-07
2.54423e-07
2.51857e-07
2.48126e-07
2.43258e-07
2.37041e-07
2.29289e-07
2.1982e-07
2.08309e-07
1.94499e-07
1.78271e-07
1.59707e-07
1.39015e-07
1.16426e-07
9.222e-08
6.69809e-08
4.07187e-08
1.38072e-08
-1.32883e-08
-4.00852e-08
-6.61095e-08
-9.09301e-08
-1.14225e-07
-1.35607e-07
-1.54566e-07
-1.70761e-07
-1.83935e-07
-1.93936e-07
-2.00711e-07
-2.043e-07
-2.04829e-07
-2.02351e-07
-1.97538e-07
-1.90649e-07
-1.82018e-07
-1.72013e-07
-1.61009e-07
-1.49372e-07
-1.37444e-07
-1.25536e-07
-1.13918e-07
-1.02809e-07
-9.23859e-08
-8.27779e-08
-7.40733e-08
-1.53288e-07
-1.4314e-07
-1.39554e-07
-1.36014e-07
-1.31202e-07
-1.2531e-07
-1.18789e-07
-1.11838e-07
-1.0443e-07
-9.64782e-08
-8.79292e-08
-7.87741e-08
-6.90298e-08
-5.8725e-08
-4.78988e-08
-3.65987e-08
-2.48716e-08
-1.2766e-08
-3.30272e-10
1.2398e-08
2.53535e-08
3.84552e-08
5.16041e-08
6.46886e-08
7.75875e-08
9.0138e-08
1.02165e-07
1.13479e-07
1.23757e-07
1.32633e-07
1.4001e-07
1.46289e-07
1.52186e-07
1.58563e-07
1.66004e-07
1.74624e-07
1.84519e-07
1.95607e-07
2.07524e-07
2.19442e-07
2.31981e-07
2.44651e-07
2.56562e-07
2.6694e-07
2.74889e-07
2.79657e-07
2.80901e-07
2.78781e-07
2.73604e-07
2.65504e-07
2.5458e-07
2.41506e-07
2.26771e-07
2.10318e-07
1.9231e-07
1.73071e-07
1.5311e-07
1.32866e-07
1.12285e-07
9.08344e-08
6.75538e-08
4.20213e-08
1.50212e-08
-1.30295e-08
-4.16079e-08
-7.00404e-08
-9.75766e-08
-1.2344e-07
-1.46944e-07
-1.67622e-07
-1.85042e-07
-1.98917e-07
-2.09116e-07
-2.15661e-07
-2.18683e-07
-2.18391e-07
-2.14988e-07
-2.08843e-07
-2.00434e-07
-1.90214e-07
-1.78621e-07
-1.66077e-07
-1.53003e-07
-1.39782e-07
-1.26748e-07
-1.14182e-07
-1.02309e-07
-9.12925e-08
-8.12402e-08
-7.22128e-08
-1.72327e-07
-1.61802e-07
-1.56173e-07
-1.5089e-07
-1.44323e-07
-1.36406e-07
-1.27619e-07
-1.1841e-07
-1.08961e-07
-9.92634e-08
-8.92417e-08
-7.88279e-08
-6.79935e-08
-5.67578e-08
-4.51722e-08
-3.32906e-08
-2.11522e-08
-8.79708e-09
3.73439e-09
1.64022e-08
2.91666e-08
4.19777e-08
5.47655e-08
6.74435e-08
7.99583e-08
9.22668e-08
1.04281e-07
1.15934e-07
1.27106e-07
1.37794e-07
1.48167e-07
1.58186e-07
1.67751e-07
1.76831e-07
1.85728e-07
1.94878e-07
2.04219e-07
2.13583e-07
2.22807e-07
2.32173e-07
2.40728e-07
2.48255e-07
2.54493e-07
2.58887e-07
2.61241e-07
2.61211e-07
2.58743e-07
2.54828e-07
2.50737e-07
2.46591e-07
2.42244e-07
2.38155e-07
2.33825e-07
2.27978e-07
2.18499e-07
2.04281e-07
1.85141e-07
1.61505e-07
1.34014e-07
1.03156e-07
6.98131e-08
3.57466e-08
1.24441e-09
-3.2587e-08
-6.4916e-08
-9.51561e-08
-1.22939e-07
-1.48206e-07
-1.70894e-07
-1.90496e-07
-2.06744e-07
-2.19453e-07
-2.28493e-07
-2.33818e-07
-2.35499e-07
-2.33691e-07
-2.2855e-07
-2.20805e-07
-2.10731e-07
-1.9876e-07
-1.85364e-07
-1.71023e-07
-1.56187e-07
-1.41274e-07
-1.26651e-07
-1.12628e-07
-9.9446e-08
-8.72836e-08
-7.62593e-08
-6.6442e-08
-2.05933e-07
-1.94599e-07
-1.85558e-07
-1.76586e-07
-1.66614e-07
-1.55491e-07
-1.43576e-07
-1.31313e-07
-1.18961e-07
-1.06584e-07
-9.41337e-08
-8.15424e-08
-6.87661e-08
-5.58144e-08
-4.27458e-08
-2.96269e-08
-1.6494e-08
-3.35574e-09
9.78392e-09
2.29067e-08
3.59832e-08
4.898e-08
6.18577e-08
7.45931e-08
8.71305e-08
9.93186e-08
1.11306e-07
1.22828e-07
1.33896e-07
1.44445e-07
1.544e-07
1.63777e-07
1.72644e-07
1.81141e-07
1.8945e-07
1.97682e-07
2.05884e-07
2.14015e-07
2.21953e-07
2.29633e-07
2.36914e-07
2.43491e-07
2.4894e-07
2.53294e-07
2.56585e-07
2.58532e-07
2.58413e-07
2.56536e-07
2.53105e-07
2.48122e-07
2.41586e-07
2.33062e-07
2.21764e-07
2.06806e-07
1.88566e-07
1.67418e-07
1.44433e-07
1.20952e-07
9.74223e-08
7.32076e-08
4.79383e-08
2.15189e-08
-6.23814e-09
-3.61769e-08
-6.78815e-08
-1.00129e-07
-1.31674e-07
-1.61356e-07
-1.88055e-07
-2.10984e-07
-2.29434e-07
-2.43136e-07
-2.52031e-07
-2.56246e-07
-2.56036e-07
-2.51754e-07
-2.44374e-07
-2.33849e-07
-2.21115e-07
-2.06703e-07
-1.91142e-07
-1.74922e-07
-1.58491e-07
-1.42255e-07
-1.26576e-07
-1.11754e-07
-9.80226e-08
-8.55389e-08
-7.43959e-08
-6.464e-08
-2.48358e-07
-2.33514e-07
-2.20053e-07
-2.06708e-07
-1.92735e-07
-1.77905e-07
-1.62375e-07
-1.46507e-07
-1.30641e-07
-1.14949e-07
-9.94431e-08
-8.40711e-08
-6.87981e-08
-5.36244e-08
-3.85869e-08
-2.37392e-08
-9.1198e-09
5.25456e-09
1.93726e-08
3.32201e-08
4.67817e-08
6.00431e-08
7.2995e-08
8.56242e-08
9.79274e-08
1.0995e-07
1.21389e-07
1.32553e-07
1.43284e-07
1.53558e-07
1.63381e-07
1.72789e-07
1.81837e-07
1.90538e-07
1.98863e-07
2.06765e-07
2.14207e-07
2.21144e-07
2.27477e-07
2.33105e-07
2.37949e-07
2.41854e-07
2.44624e-07
2.46193e-07
2.46451e-07
2.44914e-07
2.4168e-07
2.36818e-07
2.30415e-07
2.22689e-07
2.1331e-07
2.0211e-07
1.88709e-07
1.73277e-07
1.56601e-07
1.38994e-07
1.19805e-07
9.89094e-08
7.64895e-08
5.25313e-08
2.68822e-08
-1.09865e-09
-3.18975e-08
-6.43115e-08
-9.642e-08
-1.26879e-07
-1.5498e-07
-1.80247e-07
-2.02263e-07
-2.20695e-07
-2.35336e-07
-2.46119e-07
-2.53089e-07
-2.56237e-07
-2.55578e-07
-2.51234e-07
-2.43532e-07
-2.33026e-07
-2.20125e-07
-2.05552e-07
-1.89647e-07
-1.73086e-07
-1.56364e-07
-1.39921e-07
-1.24149e-07
-1.09348e-07
-9.57225e-08
-8.3402e-08
-7.24692e-08
-6.29528e-08
-2.94312e-07
-2.76823e-07
-2.60195e-07
-2.43508e-07
-2.26087e-07
-2.0771e-07
-1.88509e-07
-1.68821e-07
-1.49023e-07
-1.29401e-07
-1.10107e-07
-9.12017e-08
-7.27054e-08
-5.46407e-08
-3.70446e-08
-1.99582e-08
-3.41607e-09
1.25619e-08
2.79738e-08
4.28301e-08
5.71445e-08
7.09266e-08
8.41803e-08
9.6912e-08
1.09109e-07
1.20768e-07
1.32118e-07
1.42829e-07
1.5318e-07
1.63113e-07
1.72556e-07
1.81473e-07
1.89848e-07
1.97623e-07
2.0476e-07
2.11259e-07
2.17133e-07
2.22337e-07
2.26791e-07
2.30402e-07
2.33082e-07
2.34733e-07
2.35233e-07
2.3445e-07
2.32293e-07
2.2871e-07
2.23647e-07
2.16994e-07
2.08844e-07
1.98787e-07
1.86935e-07
1.73742e-07
1.58906e-07
1.4263e-07
1.25008e-07
1.06189e-07
8.58978e-08
6.38828e-08
4.01673e-08
1.50425e-08
-1.11701e-08
-3.81461e-08
-6.51413e-08
-9.11954e-08
-1.15794e-07
-1.38812e-07
-1.60146e-07
-1.79534e-07
-1.96633e-07
-2.11107e-07
-2.22651e-07
-2.31007e-07
-2.35964e-07
-2.37404e-07
-2.35379e-07
-2.30144e-07
-2.22094e-07
-2.11785e-07
-1.99762e-07
-1.86313e-07
-1.71967e-07
-1.57039e-07
-1.42125e-07
-1.27419e-07
-1.13474e-07
-1.00509e-07
-8.86701e-08
-7.80674e-08
-6.87516e-08
-6.0742e-08
-3.37057e-07
-3.19374e-07
-3.02023e-07
-2.83523e-07
-2.63347e-07
-2.41548e-07
-2.18591e-07
-1.95121e-07
-1.71694e-07
-1.48629e-07
-1.26042e-07
-1.03965e-07
-8.2446e-08
-6.15546e-08
-4.13752e-08
-2.20113e-08
-3.55015e-09
1.39753e-08
3.05909e-08
4.63566e-08
6.13419e-08
7.56122e-08
8.9223e-08
1.02231e-07
1.14734e-07
1.26746e-07
1.38011e-07
1.48986e-07
1.59376e-07
1.69341e-07
1.78895e-07
1.87938e-07
1.96292e-07
2.03778e-07
2.10229e-07
2.15535e-07
2.19859e-07
2.23338e-07
2.25973e-07
2.27677e-07
2.28323e-07
2.27773e-07
2.25885e-07
2.22531e-07
2.17618e-07
2.11072e-07
2.02826e-07
1.9283e-07
1.81115e-07
1.67834e-07
1.53127e-07
1.36658e-07
1.18775e-07
9.97657e-08
7.84579e-08
5.66135e-08
3.41516e-08
1.10882e-08
-1.2207e-08
-3.52936e-08
-5.79142e-08
-7.98532e-08
-1.00898e-07
-1.20889e-07
-1.39692e-07
-1.5712e-07
-1.72873e-07
-1.86541e-07
-1.97723e-07
-2.06118e-07
-2.11568e-07
-2.14073e-07
-2.13763e-07
-2.10855e-07
-2.05643e-07
-1.98453e-07
-1.89608e-07
-1.7943e-07
-1.68241e-07
-1.5634e-07
-1.44083e-07
-1.3184e-07
-1.19791e-07
-1.08308e-07
-9.73577e-08
-8.71938e-08
-7.79611e-08
-6.97073e-08
-6.24837e-08
-5.63252e-08
-4.07505e-07
-3.83927e-07
-3.6158e-07
-3.37935e-07
-3.1226e-07
-2.84899e-07
-2.56586e-07
-2.2809e-07
-2.00073e-07
-1.72983e-07
-1.47001e-07
-1.22126e-07
-9.82602e-08
-7.53401e-08
-5.33857e-08
-3.24373e-08
-1.24845e-08
6.5449e-09
2.47479e-08
4.22057e-08
5.89649e-08
7.50494e-08
9.04765e-08
1.05249e-07
1.19386e-07
1.33089e-07
1.46032e-07
1.57782e-07
1.67754e-07
1.75876e-07
1.82946e-07
1.89894e-07
1.97129e-07
2.04355e-07
2.1104e-07
2.16831e-07
2.21389e-07
2.24566e-07
2.26352e-07
2.26769e-07
2.25827e-07
2.23502e-07
2.1973e-07
2.14411e-07
2.07411e-07
1.98577e-07
1.87749e-07
1.74797e-07
1.5966e-07
1.42349e-07
1.2295e-07
1.01599e-07
7.85643e-08
5.38667e-08
2.94497e-08
4.20688e-09
-2.12141e-08
-4.63318e-08
-7.06525e-08
-9.38156e-08
-1.15522e-07
-1.35548e-07
-1.53728e-07
-1.69886e-07
-1.83802e-07
-1.95235e-07
-2.04e-07
-2.10022e-07
-2.1333e-07
-2.14033e-07
-2.12308e-07
-2.0838e-07
-2.02487e-07
-1.94878e-07
-1.85824e-07
-1.75619e-07
-1.64581e-07
-1.5306e-07
-1.41391e-07
-1.29842e-07
-1.18617e-07
-1.0787e-07
-9.77338e-08
-8.83316e-08
-7.97399e-08
-7.20078e-08
-6.51706e-08
-5.92649e-08
-5.42948e-08
-5.02497e-08
-5.24288e-07
-4.93197e-07
-4.62831e-07
-4.30554e-07
-3.95148e-07
-3.57039e-07
-3.18073e-07
-2.8012e-07
-2.4417e-07
-2.10444e-07
-1.78739e-07
-1.48794e-07
-1.20426e-07
-9.3544e-08
-6.8124e-08
-4.41316e-08
-2.1469e-08
-2.41318e-12
2.03967e-08
3.98693e-08
5.85756e-08
7.66233e-08
9.39479e-08
1.10195e-07
1.24824e-07
1.37659e-07
1.498e-07
1.6178e-07
1.73669e-07
1.84625e-07
1.93807e-07
2.00793e-07
2.0588e-07
2.0878e-07
2.09964e-07
2.10266e-07
2.1016e-07
2.09891e-07
2.09462e-07
2.08719e-07
2.07422e-07
2.05293e-07
2.02043e-07
1.97372e-07
1.90977e-07
1.82563e-07
1.71848e-07
1.58592e-07
1.4262e-07
1.23848e-07
1.02297e-07
7.81417e-08
5.16965e-08
2.3411e-08
-6.06072e-09
-3.61916e-08
-6.64384e-08
-9.61217e-08
-1.24676e-07
-1.51223e-07
-1.75283e-07
-1.96419e-07
-2.1435e-07
-2.28809e-07
-2.39608e-07
-2.46663e-07
-2.50023e-07
-2.4987e-07
-2.46483e-07
-2.40199e-07
-2.31399e-07
-2.20507e-07
-2.07982e-07
-1.94302e-07
-1.79938e-07
-1.65322e-07
-1.50839e-07
-1.36814e-07
-1.23474e-07
-1.10965e-07
-9.94293e-08
-8.89986e-08
-7.9718e-08
-7.15522e-08
-6.44639e-08
-5.84532e-08
-5.35171e-08
-4.96074e-08
-4.6635e-08
-4.45005e-08
-6.65113e-07
-6.3049e-07
-5.93577e-07
-5.52713e-07
-5.07312e-07
-4.5825e-07
-4.07509e-07
-3.57068e-07
-3.08436e-07
-2.6269e-07
-2.20442e-07
-1.81727e-07
-1.46214e-07
-1.13511e-07
-8.32594e-08
-5.51207e-08
-2.87315e-08
-3.74461e-09
2.00449e-08
4.26596e-08
6.39774e-08
8.37133e-08
1.016e-07
1.17811e-07
1.32845e-07
1.46471e-07
1.57384e-07
1.64179e-07
1.6621e-07
1.64565e-07
1.61354e-07
1.58472e-07
1.56722e-07
1.573e-07
1.54326e-07
1.5259e-07
1.51667e-07
1.51308e-07
1.51338e-07
1.51552e-07
1.51689e-07
1.51444e-07
1.50481e-07
1.48444e-07
1.44971e-07
1.39681e-07
1.32187e-07
1.22095e-07
1.09042e-07
9.27318e-08
7.29846e-08
4.97898e-08
2.33471e-08
-5.93185e-09
-3.74408e-08
-7.04326e-08
-1.04044e-07
-1.37337e-07
-1.69453e-07
-1.99747e-07
-2.27312e-07
-2.51243e-07
-2.7106e-07
-2.86331e-07
-2.9687e-07
-3.0257e-07
-3.03489e-07
-2.99856e-07
-2.92037e-07
-2.8052e-07
-2.65902e-07
-2.48853e-07
-2.30063e-07
-2.10229e-07
-1.90016e-07
-1.70022e-07
-1.50777e-07
-1.32725e-07
-1.16181e-07
-1.01361e-07
-8.84156e-08
-7.73452e-08
-6.79889e-08
-6.02071e-08
-5.39798e-08
-4.9268e-08
-4.58765e-08
-4.35086e-08
-4.19241e-08
-4.10209e-08
-7.92439e-07
-7.59218e-07
-7.20104e-07
-6.74214e-07
-6.21602e-07
-5.63658e-07
-5.02844e-07
-4.41839e-07
-3.82712e-07
-3.26606e-07
-2.73965e-07
-2.24757e-07
-1.78816e-07
-1.36099e-07
-9.68971e-08
-6.17229e-08
-3.07048e-08
-3.3392e-09
2.10282e-08
4.2835e-08
6.26494e-08
8.1123e-08
9.76148e-08
1.09975e-07
1.15925e-07
1.1559e-07
1.1111e-07
1.04117e-07
9.54841e-08
8.56911e-08
7.55052e-08
6.5841e-08
5.73346e-08
5.02656e-08
4.82865e-08
4.73694e-08
4.79206e-08
4.99185e-08
5.31014e-08
5.7074e-08
6.13766e-08
6.5534e-08
6.90909e-08
7.16316e-08
7.27827e-08
7.2203e-08
6.95553e-08
6.44797e-08
5.65736e-08
4.54022e-08
3.05545e-08
1.17274e-08
-1.11792e-08
-3.79784e-08
-6.81744e-08
-1.01001e-07
-1.35465e-07
-1.70466e-07
-2.04884e-07
-2.37596e-07
-2.6763e-07
-2.94317e-07
-3.16725e-07
-3.34275e-07
-3.4638e-07
-3.52896e-07
-3.53858e-07
-3.49394e-07
-3.39818e-07
-3.25621e-07
-3.07453e-07
-2.86084e-07
-2.62383e-07
-2.37293e-07
-2.11745e-07
-1.86593e-07
-1.62601e-07
-1.40385e-07
-1.20351e-07
-1.02753e-07
-8.77123e-08
-7.51405e-08
-6.48547e-08
-5.67703e-08
-5.07849e-08
-4.65168e-08
-4.34158e-08
-4.11587e-08
-3.97589e-08
-3.92915e-08
-8.92597e-07
-8.63562e-07
-8.25535e-07
-7.7842e-07
-7.22904e-07
-6.60733e-07
-5.94332e-07
-5.26113e-07
-4.58061e-07
-3.91721e-07
-3.28374e-07
-2.69267e-07
-2.15547e-07
-1.67956e-07
-1.26468e-07
-9.02705e-08
-5.83005e-08
-2.95506e-08
-3.40953e-09
1.97389e-08
3.77892e-08
4.81867e-08
5.0496e-08
4.59852e-08
3.62257e-08
2.25147e-08
6.09008e-09
-1.16779e-08
-2.9413e-08
-4.58361e-08
-5.98585e-08
-7.06671e-08
-7.764e-08
-8.24661e-08
-8.20291e-08
-7.7975e-08
-7.11228e-08
-6.21992e-08
-5.19415e-08
-4.10809e-08
-3.0314e-08
-2.02718e-08
-1.14935e-08
-4.40507e-09
6.94775e-10
3.63995e-09
4.37471e-09
2.87985e-09
-9.51977e-10
-7.42242e-09
-1.7033e-08
-3.03765e-08
-4.79552e-08
-7.00019e-08
-9.63638e-08
-1.2646e-07
-1.59342e-07
-1.93817e-07
-2.28588e-07
-2.62381e-07
-2.94003e-07
-3.22397e-07
-3.46751e-07
-3.66324e-07
-3.80416e-07
-3.88762e-07
-3.91086e-07
-3.87481e-07
-3.78166e-07
-3.63557e-07
-3.44278e-07
-3.21126e-07
-2.95037e-07
-2.67036e-07
-2.3815e-07
-2.09366e-07
-1.81598e-07
-1.55612e-07
-1.3197e-07
-1.11084e-07
-9.31794e-08
-7.82404e-08
-6.61406e-08
-5.67296e-08
-4.96624e-08
-4.43769e-08
-4.04511e-08
-3.78423e-08
-3.66718e-08
-3.6834e-08
-9.39981e-07
-9.14648e-07
-8.79029e-07
-8.33461e-07
-7.79017e-07
-7.17624e-07
-6.51606e-07
-5.83268e-07
-5.14767e-07
-4.48045e-07
-3.8471e-07
-3.25906e-07
-2.72259e-07
-2.23857e-07
-1.80351e-07
-1.41254e-07
-1.06655e-07
-7.8038e-08
-5.76583e-08
-4.68228e-08
-4.48263e-08
-5.00884e-08
-6.1274e-08
-7.72512e-08
-9.67521e-08
-1.18222e-07
-1.39974e-07
-1.60399e-07
-1.78137e-07
-1.92207e-07
-2.02011e-07
-2.07376e-07
-2.07886e-07
-2.02701e-07
-1.93297e-07
-1.80315e-07
-1.64533e-07
-1.46846e-07
-1.2819e-07
-1.09494e-07
-9.16197e-08
-7.53032e-08
-6.11188e-08
-4.94633e-08
-4.05817e-08
-3.46241e-08
-3.16942e-08
-3.18125e-08
-3.48133e-08
-4.03938e-08
-4.8413e-08
-5.91399e-08
-7.31871e-08
-9.12165e-08
-1.13603e-07
-1.40229e-07
-1.70441e-07
-2.03157e-07
-2.37046e-07
-2.70708e-07
-3.02809e-07
-3.32158e-07
-3.5774e-07
-3.78755e-07
-3.9467e-07
-4.04798e-07
-4.09022e-07
-4.07168e-07
-3.99373e-07
-3.85981e-07
-3.6752e-07
-3.4469e-07
-3.18354e-07
-2.8949e-07
-2.59123e-07
-2.28306e-07
-1.98074e-07
-1.69329e-07
-1.42788e-07
-1.19017e-07
-9.83801e-08
-8.09888e-08
-6.68059e-08
-5.56781e-08
-4.72592e-08
-4.11461e-08
-3.71686e-08
-3.52757e-08
-3.50526e-08
-3.56923e-08
-9.22189e-07
-9.00572e-07
-8.69214e-07
-8.28845e-07
-7.80775e-07
-7.26727e-07
-6.6858e-07
-6.08201e-07
-5.47336e-07
-4.87517e-07
-4.2997e-07
-3.75596e-07
-3.25139e-07
-2.79505e-07
-2.40005e-07
-2.08101e-07
-1.84658e-07
-1.69501e-07
-1.61927e-07
-1.61475e-07
-1.67873e-07
-1.80506e-07
-1.98171e-07
-2.193e-07
-2.42006e-07
-2.6437e-07
-2.84781e-07
-3.01932e-07
-3.14818e-07
-3.22753e-07
-3.25368e-07
-3.22285e-07
-3.1426e-07
-3.0125e-07
-2.83833e-07
-2.62757e-07
-2.38893e-07
-2.13209e-07
-1.8674e-07
-1.60541e-07
-1.35628e-07
-1.12906e-07
-9.31021e-08
-7.66985e-08
-6.3911e-08
-5.46767e-08
-4.8684e-08
-4.55481e-08
-4.51541e-08
-4.77851e-08
-5.37112e-08
-6.28653e-08
-7.51979e-08
-9.10247e-08
-1.10823e-07
-1.34807e-07
-1.62671e-07
-1.93566e-07
-2.26256e-07
-2.5933e-07
-2.91389e-07
-3.21163e-07
-3.47569e-07
-3.69739e-07
-3.87017e-07
-3.98928e-07
-4.0505e-07
-4.05242e-07
-3.99457e-07
-3.87959e-07
-3.71181e-07
-3.49748e-07
-3.24462e-07
-2.96251e-07
-2.66133e-07
-2.35185e-07
-2.04457e-07
-1.74882e-07
-1.47271e-07
-1.22317e-07
-1.00494e-07
-8.2007e-08
-6.68853e-08
-5.50246e-08
-4.61775e-08
-4.00092e-08
-3.61099e-08
-3.39058e-08
-3.2724e-08
-3.20664e-08
-8.39761e-07
-8.24397e-07
-8.01052e-07
-7.70361e-07
-7.33272e-07
-6.90982e-07
-6.44827e-07
-5.96219e-07
-5.46597e-07
-4.9738e-07
-4.49967e-07
-4.05724e-07
-3.65898e-07
-3.31488e-07
-3.032e-07
-2.81576e-07
-2.67111e-07
-2.60158e-07
-2.6077e-07
-2.68457e-07
-2.82413e-07
-3.0142e-07
-3.23603e-07
-3.47102e-07
-3.70151e-07
-3.91144e-07
-4.08765e-07
-4.22e-07
-4.30102e-07
-4.32484e-07
-4.29701e-07
-4.21476e-07
-4.07918e-07
-3.89362e-07
-3.66309e-07
-3.394e-07
-3.09421e-07
-2.77308e-07
-2.44134e-07
-2.11062e-07
-1.79283e-07
-1.49922e-07
-1.23915e-07
-1.01903e-07
-8.41511e-08
-7.05755e-08
-6.08628e-08
-5.46269e-08
-5.1316e-08
-5.01556e-08
-5.08274e-08
-5.41211e-08
-6.12568e-08
-7.29072e-08
-8.92305e-08
-1.10186e-07
-1.35464e-07
-1.64311e-07
-1.95548e-07
-2.27748e-07
-2.5945e-07
-2.8931e-07
-3.16187e-07
-3.39179e-07
-3.57599e-07
-3.70949e-07
-3.78925e-07
-3.81559e-07
-3.77713e-07
-3.68517e-07
-3.54195e-07
-3.35195e-07
-3.12186e-07
-2.85997e-07
-2.57591e-07
-2.27999e-07
-1.9824e-07
-1.69275e-07
-1.41988e-07
-1.17091e-07
-9.5051e-08
-7.61271e-08
-6.04401e-08
-4.79209e-08
-3.82884e-08
-3.11848e-08
-2.62662e-08
-2.30915e-08
-2.11355e-08
-2.01455e-08
-6.76684e-07
-6.68567e-07
-6.54534e-07
-6.34753e-07
-6.09984e-07
-5.8106e-07
-5.48979e-07
-5.14889e-07
-4.79999e-07
-4.4556e-07
-4.12806e-07
-3.82922e-07
-3.57005e-07
-3.36061e-07
-3.21013e-07
-3.12673e-07
-3.11634e-07
-3.17441e-07
-3.2987e-07
-3.48124e-07
-3.70668e-07
-3.95852e-07
-4.2195e-07
-4.47312e-07
-4.70496e-07
-4.90301e-07
-5.05784e-07
-5.16182e-07
-5.21044e-07
-5.20543e-07
-5.13782e-07
-5.0112e-07
-4.82687e-07
-4.58808e-07
-4.30039e-07
-3.97119e-07
-3.60981e-07
-3.22729e-07
-2.83598e-07
-2.44851e-07
-2.07697e-07
-1.7324e-07
-1.42398e-07
-1.15849e-07
-9.40622e-08
-7.73077e-08
-6.54239e-08
-5.75652e-08
-5.25572e-08
-4.95609e-08
-4.80301e-08
-4.75366e-08
-4.85244e-08
-5.2664e-08
-6.16583e-08
-7.62391e-08
-9.62671e-08
-1.21009e-07
-1.49256e-07
-1.79466e-07
-2.10002e-07
-2.39341e-07
-2.66193e-07
-2.89539e-07
-3.08625e-07
-3.22924e-07
-3.32062e-07
-3.35737e-07
-3.35321e-07
-3.28797e-07
-3.17388e-07
-3.01504e-07
-2.8167e-07
-2.58594e-07
-2.33105e-07
-2.06107e-07
-1.78533e-07
-1.51305e-07
-1.25269e-07
-1.01116e-07
-7.93717e-08
-6.04315e-08
-4.45344e-08
-3.16997e-08
-2.17597e-08
-1.44856e-08
-9.65073e-09
-7.02112e-09
-6.3206e-09
-4.37936e-07
-4.32513e-07
-4.24484e-07
-4.13364e-07
-3.99831e-07
-3.84171e-07
-3.6715e-07
-3.49559e-07
-3.32361e-07
-3.16578e-07
-3.0326e-07
-2.93421e-07
-2.87964e-07
-2.87613e-07
-2.92753e-07
-3.03445e-07
-3.23148e-07
-3.44645e-07
-3.70502e-07
-3.99427e-07
-4.29938e-07
-4.60509e-07
-4.89693e-07
-5.16204e-07
-5.38976e-07
-5.57187e-07
-5.70252e-07
-5.7706e-07
-5.78027e-07
-5.72831e-07
-5.61357e-07
-5.43638e-07
-5.19909e-07
-4.90617e-07
-4.56458e-07
-4.18397e-07
-3.77618e-07
-3.35453e-07
-2.93303e-07
-2.52513e-07
-2.14227e-07
-1.79332e-07
-1.4847e-07
-1.2194e-07
-9.97186e-08
-8.15516e-08
-6.7068e-08
-5.61738e-08
-4.90994e-08
-4.54323e-08
-4.37082e-08
-4.24459e-08
-4.10674e-08
-4.01467e-08
-4.1491e-08
-4.72567e-08
-5.86121e-08
-7.55767e-08
-9.74046e-08
-1.22778e-07
-1.50026e-07
-1.774e-07
-2.03314e-07
-2.26466e-07
-2.45884e-07
-2.60894e-07
-2.71093e-07
-2.7627e-07
-2.76272e-07
-2.72387e-07
-2.63754e-07
-2.50988e-07
-2.34574e-07
-2.15095e-07
-1.93235e-07
-1.69756e-07
-1.45471e-07
-1.21204e-07
-9.77341e-08
-7.57524e-08
-5.58471e-08
-3.84791e-08
-2.39336e-08
-1.22982e-08
-3.51941e-09
2.5443e-09
6.15022e-09
7.70851e-09
7.68199e-09
-1.94418e-07
-1.88011e-07
-1.82992e-07
-1.78345e-07
-1.74332e-07
-1.71007e-07
-1.68818e-07
-1.68252e-07
-1.69916e-07
-1.74418e-07
-1.82358e-07
-1.94236e-07
-2.10413e-07
-2.31459e-07
-2.56699e-07
-2.86051e-07
-3.1903e-07
-3.54284e-07
-3.90838e-07
-4.27521e-07
-4.63108e-07
-4.9641e-07
-5.26359e-07
-5.52037e-07
-5.7272e-07
-5.88009e-07
-5.97129e-07
-6.00532e-07
-5.97418e-07
-5.87809e-07
-5.71827e-07
-5.49678e-07
-5.21741e-07
-4.8859e-07
-4.51025e-07
-4.10093e-07
-3.67078e-07
-3.23392e-07
-2.80459e-07
-2.39657e-07
-2.02173e-07
-1.68852e-07
-1.40183e-07
-1.16322e-07
-9.70167e-08
-8.16535e-08
-6.94743e-08
-5.96995e-08
-5.1671e-08
-4.54286e-08
-4.15041e-08
-3.94772e-08
-3.78696e-08
-3.57068e-08
-3.32692e-08
-3.20034e-08
-3.4069e-08
-4.10765e-08
-5.31884e-08
-6.97567e-08
-8.98121e-08
-1.11972e-07
-1.34607e-07
-1.5613e-07
-1.75201e-07
-1.90835e-07
-2.02384e-07
-2.09481e-07
-2.11996e-07
-2.09984e-07
-2.0378e-07
-1.93881e-07
-1.8053e-07
-1.64322e-07
-1.45904e-07
-1.25974e-07
-1.05261e-07
-8.44908e-08
-6.43455e-08
-4.54391e-08
-2.82886e-08
-1.32876e-08
-6.8917e-10
9.39055e-09
1.69511e-08
2.20933e-08
2.50005e-08
2.59028e-08
2.50585e-08
-1.33774e-08
-7.86708e-09
-5.50827e-09
-5.98536e-09
-9.3005e-09
-1.55148e-08
-2.48145e-08
-3.74399e-08
-5.37216e-08
-7.3802e-08
-9.78521e-08
-1.2589e-07
-1.57759e-07
-1.93127e-07
-2.31389e-07
-2.71795e-07
-3.13451e-07
-3.5531e-07
-3.96302e-07
-4.35384e-07
-4.71603e-07
-5.04118e-07
-5.32252e-07
-5.55594e-07
-5.72984e-07
-5.84479e-07
-5.89933e-07
-5.89068e-07
-5.81859e-07
-5.68381e-07
-5.48846e-07
-5.23626e-07
-4.93265e-07
-4.58486e-07
-4.20165e-07
-3.79303e-07
-3.37028e-07
-2.94574e-07
-2.53202e-07
-2.14142e-07
-1.78487e-07
-1.47026e-07
-1.20179e-07
-9.80218e-08
-8.04115e-08
-6.72e-08
-5.79352e-08
-5.13249e-08
-4.59706e-08
-4.14358e-08
-3.79155e-08
-3.55387e-08
-3.40086e-08
-3.24624e-08
-3.02892e-08
-2.77483e-08
-2.53914e-08
-2.41957e-08
-2.62216e-08
-3.26836e-08
-4.30063e-08
-5.59665e-08
-7.09144e-08
-8.70106e-08
-1.02933e-07
-1.17377e-07
-1.29326e-07
-1.38039e-07
-1.43054e-07
-1.44217e-07
-1.41668e-07
-1.35308e-07
-1.25707e-07
-1.1349e-07
-9.90603e-08
-8.30452e-08
-6.6129e-08
-4.89664e-08
-3.21677e-08
-1.62802e-08
-1.76869e-09
1.10006e-08
2.17691e-08
3.03887e-08
3.68152e-08
4.10976e-08
4.33566e-08
4.37442e-08
4.23943e-08
8.64583e-08
8.95081e-08
8.90947e-08
8.49047e-08
7.67141e-08
6.44375e-08
4.80239e-08
2.74462e-08
2.72215e-09
-2.60229e-08
-5.85518e-08
-9.45021e-08
-1.33379e-07
-1.74552e-07
-2.1726e-07
-2.60641e-07
-3.03769e-07
-3.45705e-07
-3.85557e-07
-4.22503e-07
-4.55793e-07
-4.8485e-07
-5.09197e-07
-5.28135e-07
-5.41896e-07
-5.49562e-07
-5.51139e-07
-5.46649e-07
-5.36133e-07
-5.19743e-07
-4.97775e-07
-4.7069e-07
-4.39141e-07
-4.04005e-07
-3.6638e-07
-3.275e-07
-2.88604e-07
-2.50799e-07
-2.14962e-07
-1.81798e-07
-1.51873e-07
-1.25544e-07
-1.02978e-07
-8.41515e-08
-6.87098e-08
-5.61667e-08
-4.63172e-08
-3.92466e-08
-3.46909e-08
-3.16498e-08
-2.92054e-08
-2.72159e-08
-2.57862e-08
-2.47777e-08
-2.37957e-08
-2.23637e-08
-2.0568e-08
-1.89932e-08
-1.74999e-08
-1.56501e-08
-1.4692e-08
-1.77094e-08
-2.49533e-08
-3.44473e-08
-4.38897e-08
-5.25271e-08
-6.04565e-08
-6.73902e-08
-7.25993e-08
-7.54303e-08
-7.55311e-08
-7.27803e-08
-6.74946e-08
-6.01091e-08
-5.03816e-08
-3.9033e-08
-2.66041e-08
-1.36348e-08
-6.43506e-10
1.18937e-08
2.3558e-08
3.40013e-08
4.29544e-08
5.02313e-08
5.57292e-08
5.94253e-08
6.13722e-08
6.16989e-08
6.06197e-08
1.18305e-07
1.19423e-07
1.16487e-07
1.09568e-07
9.85435e-08
8.33651e-08
6.4095e-08
4.08583e-08
1.38379e-08
-1.67007e-08
-5.03857e-08
-8.67385e-08
-1.25192e-07
-1.6509e-07
-2.05696e-07
-2.46219e-07
-2.85809e-07
-3.23613e-07
-3.58806e-07
-3.9082e-07
-4.19177e-07
-4.43347e-07
-4.62732e-07
-4.76959e-07
-4.8584e-07
-4.89229e-07
-4.87053e-07
-4.79368e-07
-4.66375e-07
-4.48406e-07
-4.2593e-07
-3.99544e-07
-3.69948e-07
-3.37935e-07
-3.04385e-07
-2.70262e-07
-2.36635e-07
-2.04615e-07
-1.75127e-07
-1.48755e-07
-1.25705e-07
-1.05848e-07
-8.89512e-08
-7.48199e-08
-6.30532e-08
-5.29765e-08
-4.41856e-08
-3.67843e-08
-3.08788e-08
-2.63466e-08
-2.29742e-08
-2.04523e-08
-1.84991e-08
-1.69777e-08
-1.57908e-08
-1.47963e-08
-1.37728e-08
-1.25075e-08
-1.11368e-08
-1.01299e-08
-9.36869e-09
-7.87726e-09
-5.76927e-09
-2.79515e-09
-1.41464e-09
-3.00357e-09
-7.24638e-09
-1.20227e-08
-1.55934e-08
-1.71793e-08
-1.66858e-08
-1.43949e-08
-1.06047e-08
-5.51739e-09
1.66882e-09
9.69153e-09
1.83572e-08
2.74578e-08
3.6714e-08
4.58209e-08
5.44812e-08
6.24298e-08
6.94514e-08
7.53917e-08
8.01612e-08
8.37332e-08
8.61343e-08
8.74302e-08
8.77035e-08
9.98998e-08
1.02754e-07
1.01799e-07
9.61759e-08
8.58062e-08
7.10797e-08
5.24764e-08
3.03953e-08
5.17014e-09
-2.28549e-08
-5.32756e-08
-8.56206e-08
-1.19363e-07
-1.53929e-07
-1.88695e-07
-2.2302e-07
-2.56295e-07
-2.87994e-07
-3.1618e-07
-3.41545e-07
-3.63489e-07
-3.81521e-07
-3.95294e-07
-4.04588e-07
-4.09272e-07
-4.09283e-07
-4.04636e-07
-3.95466e-07
-3.82093e-07
-3.65014e-07
-3.44828e-07
-3.22189e-07
-2.97799e-07
-2.72377e-07
-2.46622e-07
-2.21148e-07
-1.9642e-07
-1.728e-07
-1.50612e-07
-1.30181e-07
-1.11782e-07
-9.54974e-08
-8.12107e-08
-6.88096e-08
-5.81827e-08
-4.91164e-08
-4.13424e-08
-3.4627e-08
-2.88084e-08
-2.37919e-08
-1.95046e-08
-1.59305e-08
-1.30923e-08
-1.09297e-08
-9.29733e-09
-8.01893e-09
-6.94217e-09
-5.97896e-09
-5.0172e-09
-3.82379e-09
-2.31457e-09
-9.6774e-10
-1.73708e-10
3.95747e-10
2.23024e-09
5.47915e-09
9.66163e-09
1.41355e-08
1.85892e-08
2.28325e-08
2.67744e-08
3.06055e-08
3.47311e-08
3.98262e-08
4.44773e-08
5e-08
5.62459e-08
6.29661e-08
6.99115e-08
7.6836e-08
8.35133e-08
8.97479e-08
9.53806e-08
1.00289e-07
1.04387e-07
1.07621e-07
1.09955e-07
1.11365e-07
1.11822e-07
6.43811e-08
6.87985e-08
7.08001e-08
6.8807e-08
6.21943e-08
5.11799e-08
3.64581e-08
1.87097e-08
-1.5744e-09
-2.40207e-08
-4.82831e-08
-7.40075e-08
-1.00783e-07
-1.28032e-07
-1.54914e-07
-1.80732e-07
-2.0595e-07
-2.29328e-07
-2.51571e-07
-2.70743e-07
-2.86788e-07
-2.99668e-07
-3.09222e-07
-3.15352e-07
-3.1808e-07
-3.17536e-07
-3.13891e-07
-3.07277e-07
-2.97831e-07
-2.85833e-07
-2.71767e-07
-2.56176e-07
-2.39545e-07
-2.2231e-07
-2.04869e-07
-1.87592e-07
-1.70815e-07
-1.54774e-07
-1.39539e-07
-1.25066e-07
-1.11319e-07
-9.83375e-08
-8.61695e-08
-7.48607e-08
-6.44623e-08
-5.49387e-08
-4.61806e-08
-3.81603e-08
-3.09846e-08
-2.47464e-08
-1.94112e-08
-1.48767e-08
-1.10653e-08
-7.92946e-09
-5.42793e-09
-3.46974e-09
-1.8907e-09
-4.98024e-10
8.76679e-10
2.37758e-09
4.13673e-09
6.21894e-09
8.84721e-09
1.18117e-08
1.46714e-08
1.70938e-08
1.91119e-08
2.1009e-08
2.36651e-08
2.75976e-08
3.28008e-08
3.89726e-08
4.56589e-08
5.26055e-08
5.95779e-08
6.65208e-08
7.33856e-08
8.0115e-08
8.66431e-08
9.28969e-08
9.87956e-08
1.04252e-07
1.09182e-07
1.13503e-07
1.1714e-07
1.20021e-07
1.2208e-07
1.23254e-07
1.23457e-07
4.01132e-08
4.59066e-08
4.99796e-08
5.09028e-08
4.79873e-08
4.14323e-08
3.19213e-08
2.00915e-08
6.37178e-09
-8.9402e-09
-2.56471e-08
-4.35786e-08
-6.23674e-08
-8.16599e-08
-1.01584e-07
-1.21916e-07
-1.41261e-07
-1.59515e-07
-1.76285e-07
-1.9137e-07
-2.04475e-07
-2.15425e-07
-2.24119e-07
-2.30513e-07
-2.3461e-07
-2.36466e-07
-2.36232e-07
-2.34184e-07
-2.30602e-07
-2.25671e-07
-2.1947e-07
-2.12085e-07
-2.03668e-07
-1.94398e-07
-1.84446e-07
-1.7392e-07
-1.62875e-07
-1.51427e-07
-1.3982e-07
-1.28348e-07
-1.17263e-07
-1.06695e-07
-9.66529e-08
-8.70712e-08
-7.7889e-08
-6.90811e-08
-6.06352e-08
-5.25384e-08
-4.47904e-08
-3.74188e-08
-3.04849e-08
-2.40668e-08
-1.82368e-08
-1.30533e-08
-8.52451e-09
-4.64251e-09
-1.3558e-09
1.4205e-09
3.80274e-09
5.96565e-09
8.07559e-09
1.02975e-08
1.26648e-08
1.52804e-08
1.84157e-08
2.2019e-08
2.598e-08
3.04064e-08
3.5215e-08
4.03389e-08
4.56464e-08
5.10711e-08
5.66854e-08
6.24578e-08
6.84145e-08
7.45535e-08
8.08185e-08
8.71175e-08
9.33339e-08
9.93331e-08
1.05004e-07
1.1025e-07
1.14971e-07
1.19075e-07
1.22474e-07
1.25061e-07
1.26734e-07
1.27375e-07
1.26833e-07
2.91753e-08
3.61559e-08
4.15606e-08
4.43924e-08
4.42501e-08
4.13324e-08
3.61853e-08
2.93454e-08
2.10807e-08
1.14343e-08
3.18303e-10
-1.23049e-08
-2.60411e-08
-4.07907e-08
-5.58832e-08
-7.11058e-08
-8.60379e-08
-1.00595e-07
-1.14641e-07
-1.27982e-07
-1.40401e-07
-1.51693e-07
-1.61706e-07
-1.70319e-07
-1.7745e-07
-1.83068e-07
-1.87176e-07
-1.89802e-07
-1.91027e-07
-1.9097e-07
-1.89703e-07
-1.8727e-07
-1.83717e-07
-1.79105e-07
-1.73563e-07
-1.67334e-07
-1.60681e-07
-1.53767e-07
-1.46629e-07
-1.39239e-07
-1.31567e-07
-1.23613e-07
-1.15421e-07
-1.0705e-07
-9.85517e-08
-8.99771e-08
-8.13703e-08
-7.2778e-08
-6.42677e-08
-5.59074e-08
-4.77437e-08
-3.9861e-08
-3.23926e-08
-2.54502e-08
-1.89556e-08
-1.29865e-08
-7.55924e-09
-2.6636e-09
1.79396e-09
5.91971e-09
9.8416e-09
1.36869e-08
1.76195e-08
2.14155e-08
2.53201e-08
2.93912e-08
3.36476e-08
3.81238e-08
4.28725e-08
4.78791e-08
5.3127e-08
5.85623e-08
6.40784e-08
6.96665e-08
7.53119e-08
8.09595e-08
8.65737e-08
9.21594e-08
9.76977e-08
1.03009e-07
1.08104e-07
1.12782e-07
1.16946e-07
1.20566e-07
1.2353e-07
1.25879e-07
1.27432e-07
1.28033e-07
1.27653e-07
2.3926e-08
3.20885e-08
3.87772e-08
4.33424e-08
4.55224e-08
4.54213e-08
4.32939e-08
3.93463e-08
3.38071e-08
2.70053e-08
1.90212e-08
1.01715e-08
1.67873e-10
-1.07482e-08
-2.2519e-08
-3.48637e-08
-4.75588e-08
-6.04306e-08
-7.32969e-08
-8.59402e-08
-9.80995e-08
-1.09545e-07
-1.2011e-07
-1.29687e-07
-1.38211e-07
-1.45645e-07
-1.51953e-07
-1.57062e-07
-1.6093e-07
-1.63669e-07
-1.65538e-07
-1.66738e-07
-1.67401e-07
-1.67617e-07
-1.67387e-07
-1.66602e-07
-1.65119e-07
-1.62834e-07
-1.59708e-07
-1.55719e-07
-1.50808e-07
-1.4495e-07
-1.38216e-07
-1.30717e-07
-1.22547e-07
-1.13785e-07
-1.04527e-07
-9.4917e-08
-8.51298e-08
-7.53346e-08
-6.55212e-08
-5.57988e-08
-4.62904e-08
-3.71496e-08
-2.85804e-08
-2.06287e-08
-1.34062e-08
-6.93587e-09
-1.15556e-09
4.03303e-09
8.76058e-09
1.31861e-08
1.74674e-08
2.17477e-08
2.61579e-08
3.07907e-08
3.56993e-08
4.09152e-08
4.64343e-08
5.22204e-08
5.82692e-08
6.45051e-08
7.08939e-08
7.71698e-08