/*--------------------------------*- C++ -*----------------------------------*\
| =========                 |                                                 |
| \\      /  F ield         | OpenFOAM: The Open Source CFD Toolbox           |
|  \\    /   O peration     | Version:  2312                                  |
|   \\  /    A nd           | Website:  www.openfoam.com                      |
|    \\/     M anipulation  |                                                 |
\*---------------------------------------------------------------------------*/
FoamFile
{
    version     2.0;
    format      ascii;
    arch        "LSB;label=32;scalar=64";
    class       surfaceScalarField;
    location    "164000";
    object      phi;
}
// * * * * * * * * * * * * * * * * * * * * * * * * * * * * * * * * * * * * * //

dimensions      [0 3 -1 0 0 0 0];

oriented        oriented;

internalField   nonuniform List<scalar> 
5250
(
0.000335273
7.21309e-06
0.000326597
8.67637e-06
0.000316502
1.00942e-05
0.000305186
1.13168e-05
0.00029314
1.20455e-05
0.000280889
1.22513e-05
0.00026883
1.20583e-05
0.000257216
1.16141e-05
0.000246191
1.10251e-05
0.00023584
1.03508e-05
0.000226214
9.62628e-06
0.000217336
8.8784e-06
0.00020921
8.12593e-06
0.000201829
7.38074e-06
0.000195174
6.6553e-06
0.000189213
5.96063e-06
0.000183906
5.3075e-06
0.000179196
4.70966e-06
0.000175023
4.17327e-06
0.000171321
3.70194e-06
0.000168006
3.3145e-06
0.000164971
3.03518e-06
0.000162093
2.87764e-06
0.000159236
2.85727e-06
0.000156255
2.98167e-06
0.000152987
3.26789e-06
0.000149254
3.73245e-06
0.000144847
4.40745e-06
0.000139546
5.30111e-06
0.000133399
6.14688e-06
0.00012671
6.68836e-06
0.000120019
6.69168e-06
0.000113949
6.06923e-06
0.000109085
4.86472e-06
0.000105839
3.24597e-06
0.000104438
1.40103e-06
0.000104894
-4.56086e-07
0.000106907
-2.0129e-06
0.00011033
-3.42307e-06
0.000114912
-4.58249e-06
0.000120579
-5.66644e-06
0.000126884
-6.30515e-06
0.000133358
-6.47413e-06
0.000139515
-6.15726e-06
0.000144878
-5.36246e-06
0.000149187
-4.30929e-06
0.000152614
-3.42679e-06
0.000155581
-2.96728e-06
0.000158306
-2.72467e-06
0.000160667
-2.36097e-06
0.000162465
-1.79846e-06
0.000163546
-1.08062e-06
0.000163647
-1.01093e-07
0.000162344
1.3028e-06
0.000159202
3.1425e-06
0.000153952
5.24953e-06
0.000146534
7.41791e-06
0.000137041
9.49332e-06
0.00012565
1.13913e-05
0.00011275
1.29001e-05
9.86943e-05
1.40553e-05
8.36276e-05
1.50667e-05
6.79144e-05
1.57132e-05
5.19546e-05
1.59598e-05
3.6131e-05
1.58236e-05
2.07834e-05
1.53476e-05
6.18011e-06
1.46033e-05
-7.49416e-06
1.36743e-05
-1.99832e-05
1.2489e-05
-3.10104e-05
1.10272e-05
-4.03928e-05
9.38242e-06
-4.80098e-05
7.61705e-06
-5.37942e-05
5.78436e-06
-5.77263e-05
3.93211e-06
-5.98257e-05
2.09946e-06
-6.0115e-05
2.89222e-07
-5.88975e-05
-1.2175e-06
-5.62688e-05
-2.62868e-06
-5.23714e-05
-3.89737e-06
-4.73808e-05
-4.99066e-06
-4.14897e-05
-5.89102e-06
-3.48996e-05
-6.59016e-06
-2.78131e-05
-7.08652e-06
-2.04275e-05
-7.3856e-06
-1.29281e-05
-7.49937e-06
-5.48273e-06
-7.44535e-06
1.76167e-06
-7.2444e-06
8.68518e-06
-6.92351e-06
1.51879e-05
-6.50275e-06
-6.00039e-06
0.000765596
2.30845e-05
0.000749426
2.48462e-05
0.000733549
2.59709e-05
0.000718051
2.68154e-05
0.000702766
2.73308e-05
0.000687568
2.74489e-05
0.000672476
2.71499e-05
0.000657612
2.64779e-05
0.000643129
2.55088e-05
0.000629166
2.43136e-05
0.000615847
2.29449e-05
0.000603282
2.14439e-05
0.000591562
1.98462e-05
0.000580759
1.8183e-05
0.000570928
1.64866e-05
0.000562101
1.47874e-05
0.000554293
1.31157e-05
0.000547502
1.15009e-05
0.000541724
9.95154e-06
0.000536949
8.47609e-06
0.000533163
7.10064e-06
0.000530355
5.84304e-06
0.000528509
4.72398e-06
0.000527606
3.76007e-06
0.000527635
2.95344e-06
0.000528596
2.30661e-06
0.000530512
1.81632e-06
0.00053345
1.46911e-06
0.000537533
1.21792e-06
0.000542664
1.0164e-06
0.000548504
8.48175e-07
0.000554572
6.24133e-07
0.000560314
3.27376e-07
0.000565191
-1.2446e-08
0.000568969
-5.32635e-07
0.000571288
-9.17258e-07
0.000571922
-1.09046e-06
0.000570839
-9.29586e-07
0.000567721
-3.05066e-07
0.000562543
5.9486e-07
0.000554931
1.9458e-06
0.000544596
4.02979e-06
0.000531496
6.62611e-06
0.000515766
9.57254e-06
0.00049764
1.27639e-05
0.000477472
1.5858e-05
0.00045572
1.83253e-05
0.0004329
1.9853e-05
0.000409511
2.0664e-05
0.000386024
2.11267e-05
0.000362969
2.12564e-05
0.000341266
2.06223e-05
0.00032078
2.0385e-05
0.000301502
2.05804e-05
0.000283541
2.11037e-05
0.000267099
2.16911e-05
0.000252429
2.2088e-05
0.000239521
2.24018e-05
0.000227815
2.30969e-05
0.000216198
2.45171e-05
0.000203445
2.68081e-05
0.00018942
2.90923e-05
0.000174441
3.06923e-05
0.000158754
3.16467e-05
0.000142724
3.18535e-05
0.000126822
3.12494e-05
0.000111569
2.98559e-05
9.74791e-05
2.77645e-05
8.48909e-05
2.50772e-05
7.40227e-05
2.18954e-05
6.50438e-05
1.83613e-05
5.8042e-05
1.46188e-05
5.30302e-05
1.07961e-05
4.99448e-05
7.01749e-06
4.86645e-05
3.37975e-06
4.90121e-05
-5.83907e-08
5.10079e-05
-3.21329e-06
5.4395e-05
-6.01573e-06
5.89479e-05
-8.45036e-06
6.44472e-05
-1.04899e-05
7.06757e-05
-1.21195e-05
7.74038e-05
-1.33182e-05
8.43976e-05
-1.40803e-05
9.14407e-05
-1.44287e-05
9.83375e-05
-1.43962e-05
0.000104921
-1.40288e-05
0.000111061
-1.33846e-05
0.000116667
-1.25294e-05
0.000121688
-1.15237e-05
-1.04126e-05
0.000924948
3.58666e-05
0.000911855
3.79386e-05
0.000898357
3.94693e-05
0.000884686
4.04858e-05
0.000870959
4.10586e-05
0.000857186
4.12218e-05
0.000843355
4.09806e-05
0.000829499
4.03345e-05
0.000815704
3.93033e-05
0.000802091
3.79271e-05
0.000788784
3.62513e-05
0.000775909
3.43195e-05
0.000763583
3.21715e-05
0.000751921
2.9845e-05
0.00074103
2.7378e-05
0.000731009
2.48085e-05
0.000721952
2.21722e-05
0.000713952
1.95011e-05
0.000707079
1.68242e-05
0.000701381
1.41742e-05
0.000696899
1.15832e-05
0.000693669
9.07247e-06
0.000691721
6.67229e-06
0.000691038
4.44335e-06
0.000691596
2.39553e-06
0.000693351
5.50975e-07
0.00069635
-1.18205e-06
0.000700533
-2.7141e-06
0.000705759
-4.00835e-06
0.000711918
-5.14246e-06
0.00071894
-6.1735e-06
0.000726684
-7.1204e-06
0.000735011
-7.99927e-06
0.000743788
-8.7898e-06
0.00075269
-9.43421e-06
0.000761605
-9.83204e-06
0.000770405
-9.89086e-06
0.000778993
-9.5172e-06
0.00078732
-8.6327e-06
0.000795102
-7.18691e-06
0.000802187
-5.13883e-06
0.000808671
-2.45475e-06
0.000814343
9.54035e-07
0.000819084
4.83212e-06
0.000822618
9.22913e-06
0.000824495
1.39817e-05
0.000823895
1.89246e-05
0.000819821
2.39276e-05
0.000811521
2.89641e-05
0.000798666
3.39813e-05
0.000780941
3.89812e-05
0.000757198
4.43656e-05
0.000728096
4.94868e-05
0.000694765
5.39115e-05
0.0006583
5.75688e-05
0.000619874
6.01168e-05
0.000580663
6.12989e-05
0.000541746
6.13195e-05
0.000504103
6.07399e-05
0.000468767
5.98531e-05
0.000437321
5.82543e-05
0.000409908
5.65051e-05
0.000385929
5.46709e-05
0.000365068
5.25075e-05
0.000347037
4.98847e-05
0.000331499
4.67879e-05
0.000317991
4.33635e-05
0.000305943
3.98133e-05
0.000295171
3.58489e-05
0.000285692
3.1374e-05
0.000277507
2.65467e-05
0.000270648
2.14775e-05
0.000265176
1.62688e-05
0.000261172
1.10209e-05
0.000258724
5.82834e-06
0.000257948
7.17262e-07
0.000258361
-3.6266e-06
0.000260037
-7.69099e-06
0.000262866
-1.12802e-05
0.000266671
-1.42946e-05
0.000271226
-1.66745e-05
0.0002763
-1.8392e-05
0.000281663
-1.94431e-05
0.00028708
-1.98465e-05
0.00029233
-1.96453e-05
0.000297208
-1.89075e-05
0.000301544
-1.77203e-05
0.000305196
-1.61818e-05
0.000308064
-1.43918e-05
-1.24393e-05
0.00101282
4.96411e-05
0.000998802
5.19565e-05
0.000984391
5.38807e-05
0.000969614
5.52625e-05
0.000954566
5.61071e-05
0.000939352
5.64358e-05
0.000924077
5.62558e-05
0.000908841
5.55696e-05
0.000893754
5.43906e-05
0.000878934
5.27475e-05
0.000864505
5.06804e-05
0.000850588
4.82365e-05
0.000837293
4.54661e-05
0.000824721
4.24169e-05
0.000812966
3.91336e-05
0.000802116
3.56584e-05
0.000792253
3.20352e-05
0.000783444
2.83099e-05
0.000775742
2.45263e-05
0.000769187
2.07289e-05
0.000763808
1.69618e-05
0.000759614
1.32665e-05
0.000756603
9.68367e-06
0.0007548
6.24682e-06
0.000754219
2.97602e-06
0.000754902
-1.32392e-07
0.000756863
-3.14264e-06
0.00076008
-5.93096e-06
0.000764598
-8.52645e-06
0.00077041
-1.09542e-05
0.000777455
-1.32187e-05
0.000785631
-1.52967e-05
0.000794797
-1.7165e-05
0.000804792
-1.8785e-05
0.000815454
-2.00957e-05
0.000826648
-2.10264e-05
0.000838261
-2.15044e-05
0.000850204
-2.14593e-05
0.000862403
-2.08325e-05
0.000874798
-1.95814e-05
0.000887322
-1.76628e-05
0.000899902
-1.50349e-05
0.000912559
-1.17026e-05
0.000925098
-7.70711e-06
0.000937469
-3.14176e-06
0.000949424
2.02614e-06
0.000960602
7.74658e-06
0.000970666
1.3864e-05
0.000979257
2.03732e-05
0.000985981
2.72569e-05
0.000990459
3.45032e-05
0.000992783
4.20415e-05
0.000992661
4.96095e-05
0.000989816
5.67562e-05
0.00098359
6.37947e-05
0.000973139
7.05683e-05
0.00095771
7.67279e-05
0.000936916
8.21134e-05
0.000911052
8.66035e-05
0.000880753
9.01522e-05
0.000846204
9.28037e-05
0.000808594
9.41148e-05
0.000769495
9.377e-05
0.000730208
9.17943e-05
0.000691838
8.82548e-05
0.000655279
8.33471e-05
0.000621304
7.73376e-05
0.000590626
7.04916e-05
0.000563476
6.2999e-05
0.000539826
5.50244e-05
0.000519529
4.68435e-05
0.000502365
3.86413e-05
0.000488129
3.05053e-05
0.00047661
2.25394e-05
0.000467597
1.48417e-05
0.000460813
7.50123e-06
0.000456531
6.55079e-07
0.000454105
-5.26456e-06
0.000453319
-1.04949e-05
0.000453944
-1.49188e-05
0.000455799
-1.85298e-05
0.000458725
-2.13181e-05
0.000462564
-2.32822e-05
0.000467149
-2.44316e-05
0.000472309
-2.48047e-05
0.000477873
-2.44717e-05
0.000483671
-2.35185e-05
0.000489517
-2.20278e-05
0.000495193
-2.00681e-05
-1.77129e-05
0.00105781
6.14684e-05
0.0010453
6.44663e-05
0.00103216
6.7027e-05
0.00101832
6.91026e-05
0.0010038
7.06193e-05
0.000988718
7.15215e-05
0.000973205
7.17695e-05
0.000957431
7.13435e-05
0.00094156
7.02619e-05
0.000925728
6.85794e-05
0.000910064
6.63446e-05
0.000894701
6.35992e-05
0.000879776
6.0391e-05
0.000865419
5.6774e-05
0.000851746
5.28065e-05
0.000838855
4.85494e-05
0.000826822
4.40684e-05
0.0008157
3.94321e-05
0.000805519
3.47069e-05
0.000796298
2.99501e-05
0.000788054
2.52055e-05
0.000780817
2.05039e-05
0.000774634
1.58663e-05
0.000769575
1.13062e-05
0.000765721
6.82947e-06
0.000763151
2.43728e-06
0.000762065
-2.05606e-06
0.000762637
-6.50346e-06
0.000764949
-1.08382e-05
0.000769021
-1.50264e-05
0.000774799
-1.89964e-05
0.000782187
-2.26842e-05
0.000791099
-2.60776e-05
0.00080143
-2.91154e-05
0.000813048
-3.1714e-05
0.000825814
-3.3793e-05
0.000839599
-3.52888e-05
0.000854285
-3.61458e-05
0.000869773
-3.63202e-05
0.000885975
-3.57829e-05
0.000902813
-3.45016e-05
0.000920217
-3.24384e-05
0.0009381
-2.95861e-05
0.000956362
-2.59685e-05
0.000974822
-2.16017e-05
0.000993319
-1.64713e-05
0.0010116
-1.05353e-05
0.0010293
-3.83047e-06
0.00104631
3.35571e-06
0.00106243
1.11445e-05
0.00107745
1.94745e-05
0.00109122
2.82793e-05
0.00110345
3.73775e-05
0.00111359
4.6617e-05
0.00112146
5.59171e-05
0.00112689
6.51442e-05
0.00112951
7.4108e-05
0.00112906
8.25591e-05
0.00112542
9.02512e-05
0.00111852
9.70459e-05
0.00110866
0.000102668
0.00109591
0.000106862
0.00108004
0.000109643
0.00106086
0.000110974
0.00103834
0.000110771
0.00101269
0.000108996
0.000984373
0.000105657
0.000954035
0.00010083
0.000922406
9.46274e-05
0.000890234
8.71963e-05
0.000858349
7.87286e-05
0.000827542
6.94483e-05
0.000798447
5.96005e-05
0.000771532
4.94545e-05
0.000747075
3.92986e-05
0.000725151
2.94258e-05
0.000705708
2.00974e-05
0.000688913
1.15304e-05
0.00067455
3.86812e-06
0.000662657
-3.02557e-06
0.000653062
-8.93447e-06
0.000645524
-1.378e-05
0.000639793
-1.75513e-05
0.000635621
-2.02598e-05
0.00063276
-2.19438e-05
0.00063098
-2.26914e-05
0.000630087
-2.26258e-05
0.00062992
-2.18611e-05
0.000630344
-2.0492e-05
-1.86079e-05
0.00103399
7.26673e-05
0.00102228
7.61716e-05
0.00101009
7.92146e-05
0.000997479
8.17159e-05
0.000984481
8.36169e-05
0.000971116
8.48864e-05
0.000957373
8.55132e-05
0.000943235
8.54813e-05
0.000928727
8.47693e-05
0.00091393
8.33765e-05
0.000898949
8.13258e-05
0.00088389
7.86584e-05
0.000868848
7.54334e-05
0.0008539
7.17211e-05
0.000839113
6.75941e-05
0.000824548
6.31142e-05
0.000810286
5.83309e-05
0.000796433
5.32848e-05
0.000783132
4.80073e-05
0.000770565
4.2518e-05
0.000758951
3.68189e-05
0.000748559
3.08964e-05
0.000739694
2.47313e-05
0.000732691
1.83083e-05
0.0007279
1.16204e-05
0.000725657
4.68052e-06
0.000725868
-2.26714e-06
0.00072851
-9.1451e-06
0.000733575
-1.59033e-05
0.000740926
-2.23776e-05
0.000750269
-2.8339e-05
0.000761297
-3.3712e-05
0.000773709
-3.849e-05
0.000787234
-4.26408e-05
0.000801642
-4.61214e-05
0.000816783
-4.89346e-05
0.00083259
-5.10951e-05
0.000849045
-5.2601e-05
0.000866168
-5.34435e-05
0.000883998
-5.36127e-05
0.000902581
-5.30852e-05
0.000921964
-5.18213e-05
0.000942165
-4.97871e-05
0.000963147
-4.69497e-05
0.000984807
-4.32623e-05
0.00100701
-3.8676e-05
0.00102965
-3.31712e-05
0.00105257
-2.67557e-05
0.00107538
-1.94468e-05
0.00109779
-1.12686e-05
0.0011196
-2.33227e-06
0.00114003
7.84563e-06
0.00115891
1.84931e-05
0.00117595
2.95819e-05
0.00119092
4.09465e-05
0.0012037
5.23637e-05
0.00121423
6.35742e-05
0.00122249
7.43031e-05
0.00122835
8.43896e-05
0.00123172
9.36735e-05
0.00123244
0.000101953
0.00123024
0.00010906
0.00122506
0.000114823
0.00121695
0.00011908
0.00120601
0.000121716
0.00119235
0.000122658
0.00117614
0.000121869
0.00115759
0.000119372
0.00113698
0.000115244
0.00111456
0.000109617
0.00109062
0.000102669
0.00106545
9.461e-05
0.00103939
8.56659e-05
0.00101277
7.60725e-05
0.000985997
6.60732e-05
0.000959499
5.59238e-05
0.000933716
4.58799e-05
0.000909077
3.61693e-05
0.000885949
2.69958e-05
0.000864376
1.8548e-05
0.000844458
1.09832e-05
0.000826247
4.43144e-06
0.000809814
-1.1182e-06
0.000795194
-5.64011e-06
0.000782249
-8.99928e-06
0.000770879
-1.1321e-05
0.000760979
-1.27258e-05
0.000752446
-1.3328e-05
0.000745167
-1.32135e-05
-1.2438e-05
0.00104142
9.34806e-05
0.00101994
9.76521e-05
0.000998162
0.00010099
0.000976423
0.000103456
0.000955009
0.000105031
0.000934195
0.0001057
0.000914216
0.000105492
0.000895179
0.000104519
0.000877008
0.00010294
0.000859505
0.00010088
0.000842459
9.8372e-05
0.000825732
9.53858e-05
0.000809257
9.19077e-05
0.000793069
8.79092e-05
0.000777287
8.33762e-05
0.000762072
7.83291e-05
0.000747601
7.28025e-05
0.000734075
6.68102e-05
0.000721756
6.03271e-05
0.000710978
5.32956e-05
0.000702141
4.56562e-05
0.000695641
3.73958e-05
0.000691765
2.86075e-05
0.000690605
1.94689e-05
0.000692019
1.02064e-05
0.000695719
9.80203e-07
0.000701902
-8.44984e-06
0.000710028
-1.72717e-05
0.000719342
-2.52167e-05
0.000729239
-3.22747e-05
0.000739254
-3.8354e-05
0.000749072
-4.35304e-05
0.000758553
-4.79708e-05
0.00076778
-5.1868e-05
0.000776811
-5.51523e-05
0.000785764
-5.78875e-05
0.000794942
-6.0273e-05
0.000804767
-6.24262e-05
0.000815709
-6.43853e-05
0.000828209
-6.61126e-05
0.000842633
-6.75097e-05
0.000859249
-6.8437e-05
0.000878201
-6.8739e-05
0.000899511
-6.82596e-05
0.000923104
-6.6855e-05
0.000948825
-6.43978e-05
0.000976434
-6.07798e-05
0.00100558
-5.5901e-05
0.00103582
-4.96876e-05
0.00106666
-4.2108e-05
0.00109753
-3.32018e-05
0.00112842
-2.30474e-05
0.00115874
-1.18232e-05
0.00118782
4.95583e-07
0.00121479
1.39815e-05
0.00123931
2.78393e-05
0.00126095
4.19365e-05
0.00127927
5.5982e-05
0.00129396
6.97015e-05
0.00130481
8.28205e-05
0.00131172
9.50511e-05
0.00131467
0.000106107
0.00131379
0.000115707
0.00130925
0.000123614
0.0013013
0.000129669
0.00129017
0.000133781
0.00127614
0.000135904
0.00125947
0.00013604
0.00124047
0.000134243
0.00121947
0.000130618
0.00119682
0.000125323
0.00117288
0.000118553
0.00114801
0.000110528
0.00112258
0.000101506
0.00109688
9.17782e-05
0.00107117
8.16314e-05
0.0010457
7.13465e-05
0.00102067
6.1198e-05
0.000996244
5.14248e-05
0.000972592
4.22e-05
0.000949914
3.36606e-05
0.000928398
2.59483e-05
0.000908084
1.91953e-05
0.000888979
1.34649e-05
0.000871227
8.75245e-06
0.000854898
5.008e-06
0.000839977
2.19507e-06
0.000826349
3.00535e-07
0.000813899
-7.63822e-07
-9.48795e-07
0.00113641
0.000120268
0.00110669
0.000127366
0.00107474
0.000132938
0.00104129
0.000136906
0.00100708
0.000139241
0.000972774
0.00014001
0.000938945
0.000139321
0.00090614
0.000137324
0.000874908
0.000134171
0.000845757
0.00013003
0.000819044
0.000125085
0.000794914
0.000119515
0.000773328
0.000113494
0.000754058
0.000107179
0.000736791
0.000100643
0.000721316
9.38049e-05
0.000707658
8.64597e-05
0.000696061
7.84075e-05
0.0006868
6.95885e-05
0.000680034
6.00615e-05
0.000675793
4.98963e-05
0.000673981
3.9208e-05
0.000674413
2.81758e-05
0.000676804
1.70779e-05
0.000680864
6.14633e-06
0.000686062
-4.21745e-06
0.000691679
-1.40668e-05
0.000696913
-2.25059e-05
0.000700293
-2.85965e-05
0.000700213
-3.21946e-05
0.000695869
-3.40107e-05
0.000687559
-3.52199e-05
0.000676398
-3.68103e-05
0.000663819
-3.9289e-05
0.000651448
-4.27811e-05
0.000640784
-4.72237e-05
0.000632985
-5.24739e-05
0.000628897
-5.83383e-05
0.000629087
-6.45746e-05
0.000633882
-7.09078e-05
0.000643418
-7.7046e-05
0.000657682
-8.27013e-05
0.00067655
-8.76063e-05
0.000699809
-9.15193e-05
0.000727181
-9.42266e-05
0.000758317
-9.55335e-05
0.00079281
-9.5273e-05
0.000830205
-9.32963e-05
0.000870003
-8.94859e-05
0.000911656
-8.37604e-05
0.00095454
-7.60863e-05
0.000997986
-6.64932e-05
0.00104125
-5.50829e-05
0.00108377
-4.20237e-05
0.00112531
-2.75589e-05
0.00116508
-1.19349e-05
0.00120238
4.63271e-06
0.00123663
2.17349e-05
0.0012673
3.90366e-05
0.00129391
5.62048e-05
0.00131609
7.28722e-05
0.00133349
8.87037e-05
0.00134585
0.000103352
0.00135296
0.0001165
0.00135476
0.000127869
0.00135131
0.000137229
0.00134282
0.000144396
0.00132962
0.000149242
0.00131217
0.00015169
0.00129104
0.000151745
0.00126687
0.000149497
0.00124032
0.0001451
0.00121208
0.000138769
0.00118277
0.000130814
0.00115298
0.000121568
0.00112325
0.000111361
0.00109403
0.000100569
0.00106565
8.95771e-05
0.00103839
7.86866e-05
0.00101244
6.81465e-05
0.000987868
5.82372e-05
0.000964621
4.91952e-05
0.000942724
4.10918e-05
0.000922283
3.39059e-05
0.000903351
2.76851e-05
0.000885794
2.25652e-05
0.000869328
1.86609e-05
0.000853659
1.59692e-05
0.000838522
1.43733e-05
1.37136e-05
0.00119135
0.000136606
0.00117028
0.000148433
0.00114471
0.000158506
0.00111507
0.00016655
0.00108196
0.000172346
0.00104629
0.000175687
0.00100914
0.000176463
0.00097166
0.000174809
0.000934714
0.000171118
0.000898949
0.000165795
0.000864822
0.000159213
0.000832621
0.000151717
0.000802622
0.000143493
0.000775269
0.000134533
0.000751175
0.000124736
0.000730902
0.000114078
0.000714589
0.000102773
0.000701765
9.12318e-05
0.000691617
7.97359e-05
0.000683585
6.80937e-05
0.000677722
5.57591e-05
0.000674465
4.24651e-05
0.000673715
2.89261e-05
0.000673843
1.69498e-05
0.000671498
8.49145e-06
0.000663073
4.2081e-06
0.000645929
3.07652e-06
0.000619911
3.512e-06
0.000586932
4.38244e-06
0.000549814
4.92349e-06
0.000511438
4.36511e-06
0.000474479
1.73948e-06
0.000441042
-3.37351e-06
0.000412923
-1.11698e-05
0.00039131
-2.11682e-05
0.000376706
-3.26195e-05
0.000369106
-4.48734e-05
0.000368168
-5.74011e-05
0.00037337
-6.97762e-05
0.000384134
-8.16714e-05
0.000399913
-9.28256e-05
0.000420243
-0.000103031
0.000444746
-0.000112109
0.000473125
-0.000119899
0.000505144
-0.000126245
0.000540598
-0.000130987
0.000579285
-0.00013396
0.000620971
-0.000134983
0.000665369
-0.000133884
0.000712116
-0.000130507
0.000760781
-0.000124751
0.000810848
-0.00011656
0.000861739
-0.000105974
0.00091284
-9.31245e-05
0.00096351
-7.82283e-05
0.00101317
-6.15908e-05
0.00106132
-4.35232e-05
0.00110745
-2.43946e-05
0.00115101
-4.51886e-06
0.0011912
1.6014e-05
0.00122764
3.64322e-05
0.00125983
5.65119e-05
0.00128731
7.58685e-05
0.00130965
9.41587e-05
0.00132649
0.000111031
0.00133756
0.000126163
0.00134269
0.000139263
0.00134187
0.000150066
0.00133519
0.000158364
0.00132291
0.000164032
0.00130541
0.000166993
0.00128328
0.000167228
0.00125721
0.000164844
0.00122798
0.000160042
0.00119651
0.000153033
0.00116372
0.000144152
0.00113041
0.000133878
0.00109736
0.000122632
0.00106528
0.000110763
0.00103466
9.877e-05
0.0010057
8.71929e-05
0.000978622
7.62764e-05
0.000953652
6.6062e-05
0.000930758
5.67993e-05
0.000909485
4.89582e-05
0.000889252
4.27982e-05
0.00086979
3.81234e-05
0.000851237
3.4522e-05
0.000833882
3.17286e-05
2.97123e-05
0.00112271
0.00013624
0.00111814
0.00015301
0.00110847
0.000168169
0.00109385
0.000181176
0.00107454
0.00019165
0.00105089
0.000199339
0.00102326
0.00020409
0.000992231
0.000205841
0.000958752
0.000204596
0.000924098
0.000200449
0.000889646
0.000193665
0.000856752
0.00018461
0.000826561
0.000173684
0.00079963
0.000161464
0.000775669
0.000148697
0.000753741
0.000136006
0.000733019
0.000123495
0.000713569
0.000110682
0.00069635
9.69549e-05
0.00068214
8.23032e-05
0.000670021
6.78787e-05
0.000656609
5.58767e-05
0.000637113
4.84218e-05
0.000607721
4.63421e-05
0.000567168
4.90451e-05
0.00051662
5.47551e-05
0.000459443
6.02537e-05
0.00040027
6.26855e-05
0.000343966
6.06866e-05
0.000294578
5.43112e-05
0.000254571
4.43726e-05
0.000224664
3.16461e-05
0.000204506
1.67843e-05
0.000193057
2.78853e-07
0.000188281
-1.63913e-05
0.000189353
-3.36922e-05
0.000195391
-5.09112e-05
0.000205662
-6.76724e-05
0.000219569
-8.36826e-05
0.000236625
-9.8728e-05
0.000256457
-0.000112657
0.000278806
-0.000125381
0.000303537
-0.000136839
0.000330638
-0.000147
0.000360199
-0.000155807
0.000392391
-0.000163179
0.000427395
-0.000168963
0.000465361
-0.000172949
0.000506342
-0.000174864
0.000550245
-0.00017441
0.000596797
-0.000171304
0.000645591
-0.000165354
0.000696076
-0.00015646
0.00074765
-0.000144699
0.00079969
-0.000130268
0.000851578
-0.000113479
0.0009027
-9.46449e-05
0.000952563
-7.42576e-05
0.00100067
-5.26216e-05
0.00104692
-3.02433e-05
0.00109073
-7.37349e-06
0.00113131
1.59258e-05
0.00116838
3.88045e-05
0.00120145
6.10901e-05
0.00123007
8.24101e-05
0.0012538
0.00010243
0.00127226
0.000120803
0.00128513
0.000137198
0.00129216
0.000151329
0.00129327
0.000162931
0.00128849
0.000171764
0.00127802
0.000177707
0.00126212
0.000180739
0.00124133
0.000180831
0.00121631
0.000178054
0.00118774
0.000172718
0.00115648
0.000165141
0.00112359
0.000155522
0.00109002
0.00014433
0.00105646
0.000132333
0.00102367
0.000119981
0.00099257
0.000107379
0.000963576
9.50559e-05
0.000936336
8.40391e-05
0.000910421
7.48729e-05
0.000886135
6.70847e-05
0.000864327
5.99306e-05
0.000845501
5.33486e-05
0.000829284
4.7945e-05
4.421e-05
0.00095826
0.000123913
0.000966506
0.000144764
0.000970448
0.000164227
0.000969996
0.000181628
0.000965219
0.000196427
0.000956336
0.000208223
0.000943738
0.000216688
0.000927988
0.000221591
0.000909634
0.000222951
0.000888989
0.000221094
0.000866153
0.000216501
0.000841182
0.000209581
0.000814101
0.000200765
0.00078518
0.000190384
0.000755413
0.000178464
0.000726647
0.000164772
0.000700904
0.000149238
0.000678979
0.000132607
0.000658978
0.000116956
0.000636066
0.000105215
0.000604189
9.97554e-05
0.000558744
0.000101322
0.000498923
0.000108242
0.000428724
0.000116541
0.000355257
0.000122512
0.000286152
0.00012386
0.000226557
0.000119849
0.000178516
0.000110726
0.000141988
9.72147e-05
0.000116077
8.02219e-05
9.97698e-05
6.06797e-05
9.201e-05
3.94059e-05
9.17567e-05
1.70376e-05
9.72793e-05
-5.24371e-06
0.000107547
-2.66591e-05
0.000121596
-4.77411e-05
0.000138606
-6.79209e-05
0.000157788
-8.68544e-05
0.00017842
-0.000104315
0.000199869
-0.000120177
0.000221628
-0.000134416
0.000243344
-0.000147097
0.000264865
-0.000158361
0.000286269
-0.000168404
0.000307887
-0.000177425
0.000330287
-0.000185579
0.000354223
-0.0001929
0.00038052
-0.000199245
0.000409927
-0.000204272
0.000442983
-0.000207465
0.000479897
-0.000208219
0.000520503
-0.000205959
0.000564319
-0.000200276
0.000610638
-0.000191018
0.000658611
-0.000178241
0.000707438
-0.000162306
0.000756434
-0.000143641
0.000804935
-0.000122758
0.00085251
-0.000100197
0.000898697
-7.64306e-05
0.000943194
-5.187e-05
0.000986006
-2.68866e-05
0.00102669
-1.87899e-06
0.00106445
2.33298e-05
0.00109911
4.77528e-05
0.00113025
7.1284e-05
0.00115746
9.3599e-05
0.00118028
0.000114376
0.00119833
0.000133281
0.00121128
0.000149974
0.00121888
0.00016417
0.00122093
0.000175654
0.00121748
0.000184196
0.0012087
0.00018961
0.00119481
0.000191938
0.00117623
0.000191306
0.00115367
0.000187695
0.0011279
0.000181299
0.00109944
0.000172786
0.00106912
0.000162648
0.00103821
0.000150898
0.00100759
0.000138001
0.000977371
0.000125271
0.000947851
0.000113558
0.00092039
0.000102334
0.000896602
9.0873e-05
0.000876721
7.9812e-05
0.000859325
7.07439e-05
0.000842813
6.44578e-05
6.01486e-05
0.000750124
0.000106272
0.000765115
0.000129773
0.000777297
0.000152044
0.000786448
0.000172478
0.000792271
0.000190604
0.000794451
0.000206043
0.000792661
0.000218478
0.000786603
0.000227648
0.000776164
0.00023339
0.000761579
0.000235679
0.000743487
0.000234593
0.000722853
0.000230215
0.000701063
0.000222555
0.000679772
0.000211675
0.00066011
0.000198127
0.000641362
0.000183519
0.000620175
0.000170426
0.000591152
0.00016163
0.000549028
0.000159079
0.000491392
0.000162851
0.00042048
0.000170667
0.000343044
0.000178758
0.000267661
0.000183626
0.000201025
0.000183177
0.000146753
0.000176784
0.000105842
0.000164772
7.77865e-05
0.000147904
6.13781e-05
0.000127135
5.51363e-05
0.000103456
5.75354e-05
7.78229e-05
6.71315e-05
5.10835e-05
8.25927e-05
2.39447e-05
0.000102254
-2.6235e-06
0.000125066
-2.80555e-05
0.000150912
-5.25051e-05
0.000178604
-7.54337e-05
0.000207203
-9.65194e-05
0.000235862
-0.000115514
0.000263787
-0.00013224
0.000290214
-0.000146605
0.000314418
-0.000158619
0.000335741
-0.00016842
0.000353671
-0.00017629
0.000367932
-0.000182664
0.000378624
-0.000188117
0.000386344
-0.000193299
0.000392259
-0.000198815
0.000398046
-0.000205032
0.000405647
-0.000211873
0.000416914
-0.000218732
0.000433249
-0.000224553
0.000455368
-0.000228078
0.000483262
-0.00022817
0.000516269
-0.000224025
0.000553377
-0.000215349
0.000593388
-0.000202317
0.000635179
-0.000185432
0.000677824
-0.000165403
0.000720607
-0.00014298
0.000762995
-0.000118819
0.00080463
-9.35057e-05
0.000845262
-6.75183e-05
0.000884495
-4.11119e-05
0.000922571
-1.47461e-05
0.000958627
1.16967e-05
0.000992444
3.74672e-05
0.00102364
6.23996e-05
0.00105183
8.61912e-05
0.0010766
0.000108505
0.00109757
0.000129003
0.00111437
0.00014737
0.00112676
0.000163273
0.00113456
0.000176395
0.0011376
0.000186567
0.00113582
0.000193713
0.00112947
0.000197657
0.00111885
0.000198321
0.0011041
0.000196046
0.00108568
0.000191208
0.00106459
0.000183736
0.00104168
0.000173808
0.00101714
0.000162537
0.000991506
0.000150908
0.000966476
0.000138588
0.00094375
0.000125061
0.000923093
0.000111529
0.000902608
0.000100298
0.000881171
9.21809e-05
0.00086009
8.55383e-05
7.81978e-05
0.000506668
8.94488e-05
0.000522056
0.000114384
0.000535865
0.000138236
0.000547858
0.000160484
0.000557742
0.000180719
0.000565354
0.000198431
0.000570705
0.000213127
0.000573937
0.000224417
0.000575275
0.000232052
0.000575007
0.000235947
0.000573383
0.000236217
0.000570321
0.000233278
0.000564874
0.000228001
0.000554732
0.000221817
0.000536244
0.000216615
0.000505445
0.000214318
0.00045974
0.000216131
0.000399669
0.000221701
0.000329776
0.000228972
0.000257565
0.000235063
0.000190786
0.000237446
0.000135007
0.000234537
9.28219e-05
0.000225811
6.46028e-05
0.000211396
4.94103e-05
0.000191977
4.57245e-05
0.000168457
5.17673e-05
0.000141862
6.57272e-05
0.000113175
8.59091e-05
8.32746e-05
0.000110734
5.29976e-05
0.000138763
2.30553e-05
0.000168999
-6.29175e-06
0.000200973
-3.45973e-05
0.000234235
-6.13178e-05
0.000268038
-8.63076e-05
0.00030195
-0.000109346
0.000335623
-0.000130193
0.000368713
-0.000148604
0.000400812
-0.000164338
0.000431395
-0.000177188
0.000459782
-0.000187007
0.000485112
-0.000193751
0.000506347
-0.000197525
0.000522315
-0.000198632
0.000531839
-0.000197641
0.00053399
-0.00019545
0.00052852
-0.000193346
0.000516405
-0.000192916
0.000500134
-0.000195603
0.000483374
-0.000201972
0.000470014
-0.000211193
0.000463193
-0.000221257
0.000464663
-0.00022964
0.000474768
-0.00023413
0.000492708
-0.000233289
0.00051702
-0.000226629
0.000546052
-0.000214464
0.000578254
-0.000197605
0.00061235
-0.000177076
0.000647466
-0.000153934
0.000682944
-0.000128984
0.000718408
-0.000102982
0.000753587
-7.62916e-05
0.000788177
-4.93355e-05
0.000822236
-2.23629e-05
0.000855292
4.41197e-06
0.000887029
3.06626e-05
0.0009171
5.612e-05
0.000945114
8.04906e-05
0.000970663
0.000103454
0.000993377
0.000124657
0.00101291
0.000143738
0.00102891
0.000160392
0.00104111
0.000174371
0.00104942
0.000185404
0.00105381
0.000193262
0.00105416
0.000197971
0.00105053
0.000199682
0.00104341
0.000198329
0.00103323
0.000193913
0.00101996
0.000187082
0.00100385
0.000178646
0.000986179
0.000168577
0.000968156
0.000156611
0.000949381
0.000143836
0.000928577
0.000132333
0.000906141
0.000122734
0.000885089
0.000113233
0.000868767
0.000101861
8.91887e-05
0.0002704
6.98886e-05
0.000289661
9.51231e-05
0.000308508
0.000119389
0.000326762
0.000142231
0.000344287
0.000163194
0.000360852
0.000181866
0.000376066
0.000197913
0.00038932
0.000211163
0.000399721
0.000221651
0.000406002
0.000229666
0.000406458
0.00023576
0.000398992
0.000240744
0.000381434
0.000245559
0.000352232
0.000251019
0.000311395
0.000257452
0.000261293
0.000264421
0.000206643
0.000270781
0.000153397
0.000274946
0.000106949
0.000275421
7.10167e-05
0.000270995
4.72838e-05
0.000261179
3.58971e-05
0.000245923
3.59501e-05
0.000225758
4.58376e-05
0.000201508
6.37053e-05
0.000174109
8.76516e-05
0.000144511
0.000115917
0.000113597
0.000146881
8.22104e-05
0.000179254
5.09015e-05
0.000212065
2.01867e-05
0.000244956
-9.83523e-06
0.000277305
-3.86417e-05
0.000308828
-6.61201e-05
0.000339645
-9.21345e-05
0.000369877
-0.000116539
0.000399665
-0.000139134
0.000429129
-0.000159658
0.000458334
-0.000177808
0.000487267
-0.00019327
0.000515827
-0.000205748
0.000543811
-0.000214991
0.00057089
-0.00022083
0.000596557
-0.000223192
0.000620022
-0.000222098
0.000640045
-0.000217663
0.000654709
-0.000210114
0.000661325
-0.000199962
0.0006569
-0.000188491
0.000639605
-0.000178309
0.000610617
-0.000172984
0.000574705