/*--------------------------------*- C++ -*----------------------------------*\
| =========                 |                                                 |
| \\      /  F ield         | OpenFOAM: The Open Source CFD Toolbox           |
|  \\    /   O peration     | Version:  2312                                  |
|   \\  /    A nd           | Website:  www.openfoam.com                      |
|    \\/     M anipulation  |                                                 |
\*---------------------------------------------------------------------------*/
FoamFile
{
    version     2.0;
    format      ascii;
    arch        "LSB;label=32;scalar=64";
    class       volScalarField;
    location    "199000";
    object      p;
}
// * * * * * * * * * * * * * * * * * * * * * * * * * * * * * * * * * * * * * //

dimensions      [0 2 -2 0 0 0 0];

internalField   nonuniform List<scalar> 
10800
(
6.76655e-07
6.62532e-07
6.48767e-07
6.38191e-07
6.30771e-07
6.25384e-07
6.20937e-07
6.16862e-07
6.12993e-07
6.09336e-07
6.05929e-07
6.02777e-07
5.99845e-07
5.97084e-07
5.9445e-07
5.91908e-07
5.89438e-07
5.87027e-07
5.84665e-07
5.82343e-07
5.80054e-07
5.77791e-07
5.75546e-07
5.73316e-07
5.71095e-07
5.6888e-07
5.66667e-07
5.64456e-07
5.62243e-07
5.60027e-07
5.57806e-07
5.55579e-07
5.53345e-07
5.51103e-07
5.48854e-07
5.46596e-07
5.44329e-07
5.42055e-07
5.39772e-07
5.37481e-07
5.35184e-07
5.32879e-07
5.30568e-07
5.28252e-07
5.2593e-07
5.23603e-07
5.21273e-07
5.18934e-07
5.16596e-07
5.14239e-07
5.11893e-07
5.095e-07
5.07152e-07
5.04664e-07
5.02364e-07
4.99575e-07
4.9762e-07
4.93587e-07
4.93713e-07
4.83622e-07
6.28608e-07
6.26882e-07
6.24239e-07
6.21117e-07
6.17905e-07
6.14817e-07
6.11901e-07
6.09122e-07
6.06431e-07
6.03796e-07
6.01212e-07
5.98685e-07
5.96221e-07
5.93822e-07
5.9148e-07
5.89187e-07
5.86935e-07
5.84715e-07
5.82523e-07
5.80354e-07
5.78203e-07
5.76068e-07
5.73945e-07
5.7183e-07
5.69722e-07
5.67617e-07
5.65513e-07
5.63409e-07
5.61303e-07
5.59193e-07
5.57079e-07
5.54958e-07
5.52832e-07
5.50697e-07
5.48556e-07
5.46405e-07
5.44248e-07
5.4208e-07
5.39907e-07
5.37721e-07
5.35534e-07
5.33331e-07
5.31132e-07
5.28913e-07
5.26706e-07
5.2447e-07
5.22263e-07
5.20009e-07
5.17813e-07
5.15543e-07
5.13384e-07
5.11103e-07
5.09038e-07
5.06769e-07
5.04936e-07
5.02746e-07
5.01478e-07
4.99451e-07
4.99343e-07
4.9705e-07
6.19855e-07
6.19106e-07
6.17696e-07
6.15749e-07
6.13471e-07
6.1106e-07
6.0864e-07
6.06262e-07
6.0393e-07
6.01631e-07
5.99356e-07
5.97105e-07
5.94883e-07
5.92696e-07
5.90545e-07
5.88429e-07
5.86344e-07
5.84285e-07
5.82248e-07
5.8023e-07
5.78227e-07
5.76237e-07
5.74257e-07
5.72286e-07
5.7032e-07
5.68359e-07
5.664e-07
5.64441e-07
5.62482e-07
5.60522e-07
5.58559e-07
5.56592e-07
5.54622e-07
5.52646e-07
5.50667e-07
5.4868e-07
5.4669e-07
5.44692e-07
5.42691e-07
5.40681e-07
5.38671e-07
5.36648e-07
5.3463e-07
5.32596e-07
5.30573e-07
5.28529e-07
5.26506e-07
5.24455e-07
5.22441e-07
5.20386e-07
5.18393e-07
5.16341e-07
5.14391e-07
5.12352e-07
5.1048e-07
5.08472e-07
5.06732e-07
5.04763e-07
5.03192e-07
5.01151e-07
6.08095e-07
6.07664e-07
6.06881e-07
6.05796e-07
6.04479e-07
6.03e-07
6.01417e-07
5.99769e-07
5.98077e-07
5.96353e-07
5.94602e-07
5.92831e-07
5.91046e-07
5.89252e-07
5.87456e-07
5.8566e-07
5.83865e-07
5.82073e-07
5.80284e-07
5.78496e-07
5.7671e-07
5.74925e-07
5.73141e-07
5.71357e-07
5.69573e-07
5.67788e-07
5.66002e-07
5.64214e-07
5.62424e-07
5.60632e-07
5.58837e-07
5.57038e-07
5.55237e-07
5.53432e-07
5.51624e-07
5.49812e-07
5.47997e-07
5.46178e-07
5.44356e-07
5.4253e-07
5.40701e-07
5.38866e-07
5.37031e-07
5.35186e-07
5.33341e-07
5.31485e-07
5.29628e-07
5.27757e-07
5.25885e-07
5.23994e-07
5.22106e-07
5.20193e-07
5.18287e-07
5.16349e-07
5.14425e-07
5.12455e-07
5.105e-07
5.08469e-07
5.06447e-07
5.04338e-07
6.01357e-07
6.01146e-07
6.00719e-07
6.0008e-07
5.99244e-07
5.98241e-07
5.97103e-07
5.9586e-07
5.94538e-07
5.93153e-07
5.91719e-07
5.90243e-07
5.88733e-07
5.87196e-07
5.85638e-07
5.84064e-07
5.82478e-07
5.80881e-07
5.79278e-07
5.77668e-07
5.76053e-07
5.74434e-07
5.72812e-07
5.71186e-07
5.69559e-07
5.67929e-07
5.66297e-07
5.64664e-07
5.63029e-07
5.61393e-07
5.59756e-07
5.58118e-07
5.56479e-07
5.5484e-07
5.53201e-07
5.51562e-07
5.49923e-07
5.48285e-07
5.46647e-07
5.4501e-07
5.43374e-07
5.41739e-07
5.40105e-07
5.38472e-07
5.3684e-07
5.35207e-07
5.33574e-07
5.31936e-07
5.30292e-07
5.28637e-07
5.26962e-07
5.25261e-07
5.23523e-07
5.21735e-07
5.19895e-07
5.18004e-07
5.1604e-07
5.14014e-07
5.11919e-07
5.09842e-07
5.95784e-07
5.95623e-07
5.95302e-07
5.94823e-07
5.94198e-07
5.93441e-07
5.92572e-07
5.91609e-07
5.90566e-07
5.89458e-07
5.88292e-07
5.87079e-07
5.85823e-07
5.84531e-07
5.83208e-07
5.8186e-07
5.80489e-07
5.791e-07
5.77695e-07
5.76277e-07
5.74847e-07
5.73408e-07
5.71961e-07
5.70507e-07
5.69047e-07
5.67582e-07
5.66113e-07
5.64642e-07
5.63168e-07
5.61693e-07
5.60218e-07
5.58742e-07
5.57267e-07
5.55793e-07
5.54321e-07
5.52851e-07
5.51383e-07
5.49919e-07
5.48457e-07
5.46999e-07
5.45544e-07
5.44092e-07
5.42641e-07
5.41191e-07
5.39741e-07
5.38291e-07
5.36838e-07
5.35384e-07
5.33925e-07
5.32469e-07
5.30998e-07
5.29518e-07
5.28007e-07
5.26478e-07
5.24894e-07
5.23264e-07
5.21558e-07
5.19814e-07
5.18016e-07
5.16287e-07
5.91371e-07
5.91254e-07
5.9102e-07
5.90669e-07
5.90207e-07
5.89639e-07
5.88974e-07
5.88224e-07
5.87397e-07
5.86504e-07
5.85551e-07
5.84547e-07
5.83496e-07
5.82404e-07
5.81275e-07
5.80115e-07
5.78926e-07
5.77714e-07
5.7648e-07
5.75228e-07
5.7396e-07
5.72679e-07
5.71387e-07
5.70085e-07
5.68776e-07
5.6746e-07
5.6614e-07
5.64816e-07
5.63491e-07
5.62164e-07
5.60838e-07
5.59514e-07
5.58192e-07
5.56873e-07
5.55559e-07
5.54251e-07
5.52949e-07
5.51655e-07
5.50368e-07
5.4909e-07
5.47822e-07
5.46564e-07
5.45316e-07
5.44078e-07
5.42849e-07
5.41627e-07
5.40408e-07
5.39188e-07
5.37966e-07
5.36742e-07
5.35511e-07
5.34277e-07
5.33028e-07
5.31769e-07
5.30475e-07
5.29159e-07
5.27793e-07
5.26412e-07
5.25003e-07
5.23683e-07
5.87839e-07
5.87748e-07
5.87566e-07
5.87292e-07
5.86928e-07
5.86477e-07
5.85945e-07
5.85338e-07
5.84661e-07
5.83922e-07
5.83125e-07
5.82276e-07
5.8138e-07
5.80442e-07
5.79467e-07
5.78459e-07
5.77421e-07
5.76356e-07
5.75269e-07
5.74161e-07
5.73036e-07
5.71896e-07
5.70743e-07
5.69579e-07
5.68407e-07
5.67229e-07
5.66045e-07
5.64859e-07
5.63671e-07
5.62484e-07
5.61298e-07
5.60116e-07
5.58938e-07
5.57767e-07
5.56603e-07
5.55448e-07
5.54303e-07
5.53169e-07
5.52047e-07
5.50938e-07
5.49843e-07
5.48763e-07
5.47697e-07
5.46649e-07
5.45623e-07
5.44613e-07
5.43617e-07
5.42641e-07
5.41675e-07
5.4072e-07
5.39771e-07
5.38832e-07
5.37894e-07
5.36962e-07
5.3602e-07
5.3508e-07
5.34123e-07
5.33182e-07
5.32251e-07
5.31438e-07
5.84982e-07
5.84908e-07
5.84759e-07
5.84535e-07
5.84237e-07
5.83865e-07
5.83425e-07
5.82918e-07
5.82351e-07
5.81726e-07
5.81049e-07
5.80323e-07
5.79553e-07
5.78742e-07
5.77895e-07
5.77014e-07
5.76104e-07
5.75166e-07
5.74205e-07
5.73223e-07
5.72223e-07
5.71207e-07
5.70178e-07
5.69138e-07
5.68089e-07
5.67034e-07
5.65975e-07
5.64913e-07
5.63851e-07
5.62791e-07
5.61734e-07
5.60683e-07
5.59639e-07
5.58604e-07
5.5758e-07
5.56569e-07
5.55573e-07
5.54593e-07
5.53631e-07
5.52689e-07
5.51768e-07
5.5087e-07
5.49996e-07
5.49147e-07
5.48317e-07
5.47516e-07
5.46744e-07
5.46002e-07
5.45289e-07
5.44605e-07
5.43947e-07
5.43319e-07
5.42714e-07
5.4214e-07
5.41584e-07
5.41061e-07
5.40556e-07
5.40099e-07
5.39687e-07
5.39413e-07
5.82676e-07
5.82614e-07
5.82488e-07
5.82299e-07
5.82046e-07
5.81731e-07
5.81356e-07
5.80924e-07
5.80437e-07
5.79899e-07
5.79314e-07
5.78683e-07
5.78011e-07
5.77301e-07
5.76555e-07
5.75777e-07
5.7497e-07
5.74137e-07
5.7328e-07
5.72403e-07
5.71507e-07
5.70596e-07
5.69671e-07
5.68737e-07
5.67793e-07
5.66845e-07
5.65892e-07
5.64939e-07
5.63986e-07
5.63037e-07
5.62094e-07
5.61158e-07
5.60231e-07
5.59317e-07
5.58418e-07
5.57535e-07
5.56672e-07
5.55831e-07
5.55013e-07
5.5422e-07
5.53455e-07
5.52719e-07
5.52015e-07
5.51346e-07
5.50713e-07
5.5012e-07
5.49568e-07
5.49061e-07
5.48598e-07
5.48183e-07
5.47815e-07
5.47499e-07
5.47232e-07
5.47022e-07
5.46862e-07
5.46767e-07
5.46727e-07
5.4677e-07
5.46898e-07
5.47188e-07
5.80836e-07
5.80782e-07
5.80673e-07
5.80508e-07
5.80288e-07
5.80013e-07
5.79686e-07
5.79307e-07
5.7888e-07
5.78407e-07
5.7789e-07
5.77331e-07
5.76734e-07
5.76101e-07
5.75434e-07
5.74737e-07
5.74012e-07
5.73262e-07
5.72489e-07
5.71696e-07
5.70885e-07
5.7006e-07
5.69222e-07
5.68374e-07
5.67519e-07
5.66659e-07
5.65796e-07
5.64934e-07
5.64074e-07
5.63219e-07
5.62372e-07
5.61535e-07
5.60712e-07
5.59903e-07
5.59112e-07
5.58342e-07
5.57594e-07
5.56872e-07
5.56179e-07
5.55519e-07
5.54893e-07
5.54305e-07
5.53758e-07
5.53256e-07
5.52802e-07
5.52399e-07
5.52049e-07
5.51759e-07
5.5153e-07
5.51367e-07
5.51271e-07
5.51251e-07
5.51306e-07
5.51445e-07
5.51666e-07
5.51985e-07
5.52398e-07
5.5293e-07
5.53587e-07
5.5443e-07
5.794e-07
5.79351e-07
5.79254e-07
5.79106e-07
5.7891e-07
5.78664e-07
5.7837e-07
5.7803e-07
5.77646e-07
5.77219e-07
5.76752e-07
5.76246e-07
5.75705e-07
5.75129e-07
5.74523e-07
5.73887e-07
5.73224e-07
5.72537e-07
5.71828e-07
5.71101e-07
5.70356e-07
5.69598e-07
5.68828e-07
5.68049e-07
5.67264e-07
5.66474e-07
5.65683e-07
5.64894e-07
5.64109e-07
5.6333e-07
5.6256e-07
5.61803e-07
5.61061e-07
5.60336e-07
5.59633e-07
5.58954e-07
5.58302e-07
5.5768e-07
5.57093e-07
5.56544e-07
5.56036e-07
5.55573e-07
5.55159e-07
5.54798e-07
5.54494e-07
5.54253e-07
5.54078e-07
5.53976e-07
5.5395e-07
5.54007e-07
5.54152e-07
5.54392e-07
5.54733e-07
5.55183e-07
5.55747e-07
5.56439e-07
5.57262e-07
5.5824e-07
5.5938e-07
5.60731e-07
5.78324e-07
5.7828e-07
5.7819e-07
5.78055e-07
5.77873e-07
5.77647e-07
5.77376e-07
5.77063e-07
5.76708e-07
5.76313e-07
5.75881e-07
5.75412e-07
5.74909e-07
5.74374e-07
5.73809e-07
5.73216e-07
5.72598e-07
5.71957e-07
5.71294e-07
5.70614e-07
5.69917e-07
5.69207e-07
5.68486e-07
5.67756e-07
5.67021e-07
5.66283e-07
5.65545e-07
5.64809e-07
5.64078e-07
5.63355e-07
5.62643e-07
5.61944e-07
5.61263e-07
5.60603e-07
5.59966e-07
5.59355e-07
5.58776e-07
5.58231e-07
5.57724e-07
5.57259e-07
5.5684e-07
5.56473e-07
5.5616e-07
5.55909e-07
5.55722e-07
5.55608e-07
5.5557e-07
5.55615e-07
5.5575e-07
5.55983e-07
5.5632e-07
5.5677e-07
5.57341e-07
5.58044e-07
5.58887e-07
5.59884e-07
5.61045e-07
5.6239e-07
5.63931e-07
5.65703e-07
5.77581e-07
5.77538e-07
5.77453e-07
5.77325e-07
5.77153e-07
5.76939e-07
5.76682e-07
5.76384e-07
5.76047e-07
5.75672e-07
5.7526e-07
5.74814e-07
5.74335e-07
5.73825e-07
5.73286e-07
5.7272e-07
5.72129e-07
5.71515e-07
5.70882e-07
5.7023e-07
5.69563e-07
5.68883e-07
5.68193e-07
5.67494e-07
5.66791e-07
5.66084e-07
5.65379e-07
5.64676e-07
5.63979e-07
5.63291e-07
5.62614e-07
5.61953e-07
5.61311e-07
5.6069e-07
5.60095e-07
5.59528e-07
5.58994e-07
5.58497e-07
5.58041e-07
5.57631e-07
5.5727e-07
5.56964e-07
5.56718e-07
5.56538e-07
5.56429e-07
5.56397e-07
5.5645e-07
5.56595e-07
5.56838e-07
5.57189e-07
5.57656e-07
5.58249e-07
5.58978e-07
5.59854e-07
5.60891e-07
5.62101e-07
5.63498e-07
5.65101e-07
5.66926e-07
5.68995e-07
5.77151e-07
5.7711e-07
5.77027e-07
5.76902e-07
5.76734e-07
5.76525e-07
5.76274e-07
5.75983e-07
5.75653e-07
5.75287e-07
5.74885e-07
5.74447e-07
5.73978e-07
5.73478e-07
5.72949e-07
5.72394e-07
5.71814e-07
5.71211e-07
5.70589e-07
5.69949e-07
5.69294e-07
5.68626e-07
5.67947e-07
5.67261e-07
5.66569e-07
5.65875e-07
5.65181e-07
5.64491e-07
5.63807e-07
5.63132e-07
5.62469e-07
5.61822e-07
5.61194e-07
5.60588e-07
5.60008e-07
5.59458e-07
5.58942e-07
5.58464e-07
5.58028e-07
5.57638e-07
5.573e-07
5.57019e-07
5.56801e-07
5.5665e-07
5.56573e-07
5.56577e-07
5.56669e-07
5.56856e-07
5.57147e-07
5.5755e-07
5.58076e-07
5.58733e-07
5.59535e-07
5.60492e-07
5.61619e-07
5.62929e-07
5.64439e-07
5.66165e-07
5.68128e-07
5.70342e-07
5.77029e-07
5.76988e-07
5.76904e-07
5.76778e-07
5.76609e-07
5.76398e-07
5.76145e-07
5.75852e-07
5.7552e-07
5.75151e-07
5.74746e-07
5.74306e-07
5.73833e-07
5.73329e-07
5.72796e-07
5.72236e-07
5.71652e-07
5.71044e-07
5.70416e-07
5.6977e-07
5.69109e-07
5.68434e-07
5.67749e-07
5.67055e-07
5.66356e-07
5.65655e-07
5.64953e-07
5.64254e-07
5.63561e-07
5.62877e-07
5.62205e-07
5.61548e-07
5.6091e-07
5.60294e-07
5.59703e-07
5.59142e-07
5.58614e-07
5.58124e-07
5.57676e-07
5.57273e-07
5.56923e-07
5.56628e-07
5.56395e-07
5.5623e-07
5.56138e-07
5.56127e-07
5.56203e-07
5.56373e-07
5.56647e-07
5.57033e-07
5.5754e-07
5.58179e-07
5.58961e-07
5.59897e-07
5.61003e-07
5.6229e-07
5.63778e-07
5.65479e-07
5.67416e-07
5.69604e-07
5.77215e-07
5.77172e-07
5.77086e-07
5.76955e-07
5.7678e-07
5.76561e-07
5.76299e-07
5.75995e-07
5.75651e-07
5.75269e-07
5.74848e-07
5.74392e-07
5.73903e-07
5.73381e-07
5.72829e-07
5.72249e-07
5.71644e-07
5.71015e-07
5.70365e-07
5.69696e-07
5.69011e-07
5.68312e-07
5.67601e-07
5.66881e-07
5.66156e-07
5.65427e-07
5.64697e-07
5.63969e-07
5.63246e-07
5.62531e-07
5.61827e-07
5.61137e-07
5.60464e-07
5.59812e-07
5.59184e-07
5.58584e-07
5.58016e-07
5.57483e-07
5.56991e-07
5.56542e-07
5.56142e-07
5.55795e-07
5.55507e-07
5.55284e-07
5.5513e-07
5.55052e-07
5.55058e-07
5.55153e-07
5.55346e-07
5.55644e-07
5.56057e-07
5.56594e-07
5.57265e-07
5.58081e-07
5.59056e-07
5.60199e-07
5.61528e-07
5.63055e-07
5.64804e-07
5.66792e-07
5.77722e-07
5.77676e-07
5.77583e-07
5.77444e-07
5.77257e-07
5.77024e-07
5.76744e-07
5.76421e-07
5.76055e-07
5.75647e-07
5.752e-07
5.74715e-07
5.74195e-07
5.73641e-07
5.73055e-07
5.7244e-07
5.71798e-07
5.71131e-07
5.70441e-07
5.69732e-07
5.69005e-07
5.68264e-07
5.67509e-07
5.66745e-07
5.65974e-07
5.65198e-07
5.64419e-07
5.63642e-07
5.62868e-07
5.621e-07
5.61342e-07
5.60596e-07
5.59865e-07
5.59153e-07
5.58463e-07
5.57797e-07
5.57161e-07
5.56557e-07
5.55988e-07
5.5546e-07
5.54977e-07
5.54542e-07
5.5416e-07
5.53836e-07
5.53576e-07
5.53385e-07
5.53268e-07
5.53231e-07
5.53282e-07
5.53428e-07
5.53675e-07
5.54031e-07
5.54506e-07
5.55108e-07
5.55849e-07
5.56736e-07
5.57786e-07
5.59006e-07
5.60419e-07
5.62059e-07
5.7857e-07
5.7852e-07
5.78419e-07
5.78266e-07
5.78061e-07
5.77806e-07
5.775e-07
5.77146e-07
5.76746e-07
5.76302e-07
5.75814e-07
5.75287e-07
5.74721e-07
5.74119e-07
5.73484e-07
5.72817e-07
5.72121e-07
5.71399e-07
5.70654e-07
5.69887e-07
5.69101e-07
5.68299e-07
5.67482e-07
5.66655e-07
5.65819e-07
5.64977e-07
5.64131e-07
5.63284e-07
5.62439e-07
5.61599e-07
5.60765e-07
5.59941e-07
5.5913e-07
5.58334e-07
5.57557e-07
5.56802e-07
5.56071e-07
5.55368e-07
5.54696e-07
5.54059e-07
5.53461e-07
5.52904e-07
5.52394e-07
5.51933e-07
5.51526e-07
5.51179e-07
5.50894e-07
5.50678e-07
5.50535e-07
5.5047e-07
5.5049e-07
5.506e-07
5.50806e-07
5.51115e-07
5.51534e-07
5.52068e-07
5.52731e-07
5.53538e-07
5.54522e-07
5.55706e-07
5.79794e-07
5.79737e-07
5.79623e-07
5.79452e-07
5.79222e-07
5.78935e-07
5.78593e-07
5.78197e-07
5.7775e-07
5.77254e-07
5.76711e-07
5.76125e-07
5.75497e-07
5.74831e-07
5.74129e-07
5.73393e-07
5.72627e-07
5.71832e-07
5.71012e-07
5.7017e-07
5.69307e-07
5.68426e-07
5.6753e-07
5.66622e-07
5.65703e-07
5.64776e-07
5.63844e-07
5.6291e-07
5.61974e-07
5.61041e-07
5.60113e-07
5.59191e-07
5.58279e-07
5.57379e-07
5.56493e-07
5.55625e-07
5.54777e-07
5.53951e-07
5.53151e-07
5.5238e-07
5.51639e-07
5.50933e-07
5.50263e-07
5.49635e-07
5.49049e-07
5.48511e-07
5.48022e-07
5.47587e-07
5.47209e-07
5.46891e-07
5.46637e-07
5.46452e-07
5.46338e-07
5.46299e-07
5.46339e-07
5.46464e-07
5.46687e-07
5.47015e-07
5.47473e-07
5.48107e-07
5.81438e-07
5.81373e-07
5.81242e-07
5.81044e-07
5.8078e-07
5.80451e-07
5.80058e-07
5.79605e-07
5.79095e-07
5.78531e-07
5.77915e-07
5.77252e-07
5.76544e-07
5.75794e-07
5.75005e-07
5.74182e-07
5.73325e-07
5.7244e-07
5.71527e-07
5.7059e-07
5.69632e-07
5.68655e-07
5.67662e-07
5.66654e-07
5.65635e-07
5.64607e-07
5.63572e-07
5.62531e-07
5.61488e-07
5.60445e-07
5.59404e-07
5.58366e-07
5.57335e-07
5.56312e-07
5.55299e-07
5.543e-07
5.53315e-07
5.52347e-07
5.51398e-07
5.5047e-07
5.49566e-07
5.48688e-07
5.47837e-07
5.47016e-07
5.46227e-07
5.45472e-07
5.44753e-07
5.44072e-07
5.4343e-07
5.4283e-07
5.42272e-07
5.41758e-07
5.4129e-07
5.40868e-07
5.40496e-07
5.40176e-07
5.39912e-07
5.39714e-07
5.39607e-07
5.3965e-07
5.83569e-07
5.83492e-07
5.83337e-07
5.83103e-07
5.82792e-07
5.82404e-07
5.81944e-07
5.81414e-07
5.8082e-07
5.80166e-07
5.79455e-07
5.78692e-07
5.77881e-07
5.77026e-07
5.7613e-07
5.75197e-07
5.7423e-07
5.73233e-07
5.72208e-07
5.71158e-07
5.70086e-07
5.68995e-07
5.67886e-07
5.66763e-07
5.65626e-07
5.6448e-07
5.63324e-07
5.62162e-07
5.60996e-07
5.59826e-07
5.58656e-07
5.57487e-07
5.56321e-07
5.5516e-07
5.54004e-07
5.52857e-07
5.51719e-07
5.50593e-07
5.49479e-07
5.4838e-07
5.47296e-07
5.4623e-07
5.45182e-07
5.44154e-07
5.43146e-07
5.4216e-07
5.41196e-07
5.40254e-07
5.39335e-07
5.38439e-07
5.37565e-07
5.36714e-07
5.35882e-07
5.35072e-07
5.34278e-07
5.335e-07
5.32738e-07
5.32003e-07
5.31319e-07
5.30759e-07
5.86274e-07
5.8618e-07
5.85991e-07
5.85706e-07
5.85328e-07
5.84859e-07
5.84305e-07
5.83672e-07
5.82967e-07
5.82194e-07
5.81361e-07
5.80472e-07
5.79531e-07
5.78545e-07
5.77518e-07
5.76452e-07
5.75353e-07
5.74223e-07
5.73065e-07
5.71883e-07
5.70679e-07
5.69455e-07
5.68214e-07
5.66957e-07
5.65688e-07
5.64407e-07
5.63116e-07
5.61818e-07
5.60513e-07
5.59203e-07
5.5789e-07
5.56576e-07
5.55261e-07
5.53947e-07
5.52635e-07
5.51327e-07
5.50024e-07
5.48726e-07
5.47436e-07
5.46153e-07
5.44879e-07
5.43614e-07
5.42358e-07
5.41113e-07
5.39878e-07
5.38653e-07
5.37437e-07
5.3623e-07
5.3503e-07
5.33836e-07
5.32643e-07
5.31452e-07
5.30255e-07
5.29052e-07
5.27838e-07
5.26617e-07
5.25381e-07
5.24142e-07
5.22916e-07
5.21792e-07
5.89679e-07
5.89559e-07
5.89318e-07
5.88956e-07
5.88479e-07
5.87891e-07
5.87204e-07
5.86427e-07
5.85569e-07
5.8464e-07
5.83648e-07
5.826e-07
5.81501e-07
5.80356e-07
5.79171e-07
5.77949e-07
5.76695e-07
5.75411e-07
5.74102e-07
5.7277e-07
5.71416e-07
5.70045e-07
5.68657e-07
5.67253e-07
5.65837e-07
5.64409e-07
5.62971e-07
5.61524e-07
5.6007e-07
5.58609e-07
5.57142e-07
5.55672e-07
5.54198e-07
5.52721e-07
5.51244e-07
5.49765e-07
5.48287e-07
5.46811e-07
5.45335e-07
5.43862e-07
5.42391e-07
5.40922e-07
5.39456e-07
5.37992e-07
5.36529e-07
5.35067e-07
5.33604e-07
5.32139e-07
5.30668e-07
5.29192e-07
5.27704e-07
5.26204e-07
5.24684e-07
5.23143e-07
5.21566e-07
5.19952e-07
5.18282e-07
5.1657e-07
5.14832e-07
5.13168e-07
5.93993e-07
5.93829e-07
5.93501e-07
5.93013e-07
5.92373e-07
5.91599e-07
5.90707e-07
5.89717e-07
5.88644e-07
5.875e-07
5.86296e-07
5.85038e-07
5.83734e-07
5.82389e-07
5.81009e-07
5.79597e-07
5.78159e-07
5.76696e-07
5.75213e-07
5.73711e-07
5.72192e-07
5.70657e-07
5.69108e-07
5.67546e-07
5.65972e-07
5.64388e-07
5.62793e-07
5.61189e-07
5.59576e-07
5.57956e-07
5.56328e-07
5.54694e-07
5.53054e-07
5.51409e-07
5.49759e-07
5.48105e-07
5.46446e-07
5.44785e-07
5.4312e-07
5.41453e-07
5.39782e-07
5.38108e-07
5.3643e-07
5.34748e-07
5.33061e-07
5.31367e-07
5.29665e-07
5.27952e-07
5.26224e-07
5.24481e-07
5.22712e-07
5.20918e-07
5.19086e-07
5.17215e-07
5.1529e-07
5.13316e-07
5.11278e-07
5.09201e-07
5.07082e-07
5.05025e-07
5.9949e-07
5.99275e-07
5.9884e-07
5.9819e-07
5.97339e-07
5.96317e-07
5.95157e-07
5.93888e-07
5.92536e-07
5.91117e-07
5.89644e-07
5.88125e-07
5.86568e-07
5.84979e-07
5.83363e-07
5.81726e-07
5.80072e-07
5.78402e-07
5.76718e-07
5.75023e-07
5.73316e-07
5.71598e-07
5.6987e-07
5.68132e-07
5.66385e-07
5.64628e-07
5.62863e-07
5.61088e-07
5.59304e-07
5.57512e-07
5.55712e-07
5.53903e-07
5.52086e-07
5.50262e-07
5.4843e-07
5.46591e-07
5.44745e-07
5.42893e-07
5.41033e-07
5.39167e-07
5.37295e-07
5.35415e-07
5.33528e-07
5.31634e-07
5.29731e-07
5.27817e-07
5.25894e-07
5.23957e-07
5.22005e-07
5.20035e-07
5.18045e-07
5.16027e-07
5.13979e-07
5.1189e-07
5.09751e-07
5.07549e-07
5.05269e-07
5.02902e-07
5.00456e-07
4.97992e-07
6.06183e-07
6.0575e-07
6.04961e-07
6.03867e-07
6.02538e-07
6.01043e-07
5.99441e-07
5.97771e-07
5.96053e-07
5.94298e-07
5.92513e-07
5.90703e-07
5.88875e-07
5.87033e-07
5.85183e-07
5.83329e-07
5.8147e-07
5.79607e-07
5.77741e-07
5.75869e-07
5.73992e-07
5.72109e-07
5.70219e-07
5.68321e-07
5.66415e-07
5.64499e-07
5.62574e-07
5.60639e-07
5.58693e-07
5.56737e-07
5.54769e-07
5.5279e-07
5.508e-07
5.48798e-07
5.46785e-07
5.44761e-07
5.42727e-07
5.40681e-07
5.38626e-07
5.36559e-07
5.34483e-07
5.32394e-07
5.30297e-07
5.28186e-07
5.26068e-07
5.23933e-07
5.21792e-07
5.1963e-07
5.17464e-07
5.1527e-07
5.13074e-07
5.10841e-07
5.08609e-07
5.06325e-07
5.04046e-07
5.01694e-07
4.99352e-07
4.96912e-07
4.94499e-07
4.91995e-07
6.17914e-07
6.17163e-07
6.15748e-07
6.13793e-07
6.11506e-07
6.09081e-07
6.06646e-07
6.0425e-07
6.01897e-07
5.99574e-07
5.97271e-07
5.94988e-07
5.9273e-07
5.90501e-07
5.88305e-07
5.86137e-07
5.83994e-07
5.81871e-07
5.79763e-07
5.77665e-07
5.75575e-07
5.73489e-07
5.71404e-07
5.69318e-07
5.67229e-07
5.65134e-07
5.63031e-07
5.60919e-07
5.58797e-07
5.56663e-07
5.54517e-07
5.52358e-07
5.50186e-07
5.48e-07
5.45801e-07
5.43588e-07
5.41362e-07
5.39121e-07
5.3687e-07
5.34602e-07
5.32326e-07
5.30031e-07
5.27731e-07
5.25409e-07
5.23088e-07
5.20739e-07
5.18399e-07
5.16023e-07
5.13671e-07
5.11271e-07
5.08922e-07
5.06507e-07
5.04188e-07
5.01777e-07
4.99536e-07
4.97156e-07
4.9506e-07
4.92723e-07
4.90818e-07
4.8841e-07
6.26662e-07
6.24935e-07
6.2229e-07
6.19164e-07
6.15947e-07
6.12852e-07
6.09928e-07
6.0714e-07
6.04437e-07
6.01788e-07
5.99187e-07
5.9664e-07
5.94153e-07
5.91725e-07
5.8935e-07
5.87018e-07
5.8472e-07
5.82447e-07
5.80193e-07
5.77953e-07
5.75722e-07
5.73496e-07
5.71271e-07
5.69043e-07
5.6681e-07
5.64568e-07
5.62315e-07
5.6005e-07
5.57771e-07
5.55477e-07
5.53168e-07
5.50842e-07
5.48501e-07
5.46142e-07
5.43768e-07
5.41378e-07
5.38974e-07
5.36553e-07
5.3412e-07
5.31671e-07
5.29213e-07
5.26735e-07
5.24254e-07
5.21748e-07
5.19244e-07
5.16707e-07
5.14185e-07
5.11612e-07
5.09077e-07
5.06463e-07
5.03935e-07
5.01282e-07
4.98814e-07
4.96145e-07
4.93882e-07
4.91286e-07
4.89581e-07
4.87125e-07
4.86608e-07
4.83903e-07
6.74711e-07
6.60588e-07
6.46822e-07
6.36246e-07
6.28826e-07
6.23438e-07
6.1899e-07
6.14914e-07
6.11042e-07
6.0738e-07
6.03967e-07
6.00805e-07
5.97861e-07
5.95083e-07
5.92426e-07
5.89856e-07
5.87351e-07
5.84896e-07
5.82481e-07
5.80096e-07
5.77734e-07
5.75385e-07
5.73043e-07
5.70701e-07
5.68356e-07
5.66003e-07
5.6364e-07
5.61264e-07
5.58873e-07
5.56466e-07
5.54041e-07
5.51599e-07
5.49139e-07
5.46661e-07
5.44166e-07
5.41654e-07
5.39126e-07
5.36583e-07
5.34026e-07
5.31454e-07
5.2887e-07
5.26273e-07
5.23664e-07
5.21043e-07
5.18409e-07
5.15761e-07
5.13099e-07
5.10419e-07
5.07724e-07
5.05e-07
5.02262e-07
4.9947e-07
4.96685e-07
4.93764e-07
4.90964e-07
4.87714e-07
4.85166e-07
4.80658e-07
4.80187e-07
4.69305e-07
5.24788e-07
4.74524e-07
4.54846e-07
4.38866e-07
4.23407e-07
4.08029e-07
3.91166e-07
3.73124e-07
3.52538e-07
3.30294e-07
3.05333e-07
2.79265e-07
2.51253e-07
2.23493e-07
1.95274e-07
1.69095e-07
1.44052e-07
1.22481e-07
1.03034e-07
8.76745e-08
7.44564e-08
6.51674e-08
5.73328e-08
5.31021e-08
4.95681e-08
4.98509e-08
4.96297e-08
5.5058e-08
6.10427e-08
4.39567e-08
5.11095e-07
4.56547e-07
4.44096e-07
4.30933e-07
4.1626e-07
4.01221e-07
3.8471e-07
3.66867e-07
3.46501e-07
3.24637e-07
3.00288e-07
2.75039e-07
2.48059e-07
2.21463e-07
1.94467e-07
1.69378e-07
1.45338e-07
1.24551e-07
1.05645e-07
9.05823e-08
7.74113e-08
6.80188e-08
5.98001e-08
5.51374e-08
5.06025e-08
5.0164e-08
4.90909e-08
5.15829e-08
6.43908e-08
1.43417e-08
4.991e-07
4.54492e-07
4.43087e-07
4.30355e-07
4.1517e-07
3.99362e-07
3.82295e-07
3.64124e-07
3.43669e-07
3.2176e-07
2.97544e-07
2.72474e-07
2.45827e-07
2.19583e-07
1.93006e-07
1.68388e-07
1.44747e-07
1.24396e-07
1.05688e-07
9.09855e-08
7.77966e-08
6.86912e-08
6.03148e-08
5.58456e-08
5.10678e-08
5.01673e-08
4.91891e-08
4.80539e-08
6.92565e-08
1.70527e-08
4.89165e-07
4.50882e-07
4.37395e-07
4.25276e-07
4.10792e-07
3.95406e-07
3.78454e-07
3.60184e-07
3.39654e-07
3.17665e-07
2.93517e-07
2.68569e-07
2.42211e-07
2.16305e-07
1.90162e-07
1.66019e-07
1.42753e-07
1.22712e-07
1.042e-07
8.96778e-08
7.65302e-08
6.74888e-08
5.91731e-08
5.45669e-08
5.01363e-08
4.81374e-08
4.83521e-08
4.1401e-08
6.71228e-08
1.9473e-08
4.79561e-07
4.48691e-07
4.34292e-07
4.23316e-07
4.0934e-07
3.93224e-07
3.75622e-07
3.56809e-07
3.3603e-07
3.13705e-07
2.89472e-07
2.6435e-07
2.38127e-07
2.12239e-07
1.86404e-07
1.62356e-07
1.39391e-07
1.19377e-07
1.01091e-07
8.64438e-08
7.35098e-08
6.41412e-08
5.62543e-08
5.10484e-08
4.76568e-08
4.41643e-08
4.71873e-08
3.77518e-08
6.25491e-08
3.19406e-08
4.71151e-07
4.47302e-07
4.32029e-07
4.20514e-07
4.06698e-07
3.90507e-07
3.72592e-07
3.53279e-07
3.32173e-07
3.09408e-07
2.84981e-07
2.59518e-07
2.33301e-07
2.07213e-07
1.81562e-07
1.57365e-07
1.34691e-07
1.14496e-07
9.65232e-08
8.14572e-08
6.8871e-08
5.88402e-08
5.16157e-08
4.5492e-08
4.35599e-08
3.88987e-08
4.41064e-08
3.56091e-08
5.50012e-08
3.99282e-08
4.64261e-07
4.46028e-07
4.30622e-07
4.18165e-07
4.04353e-07
3.88061e-07
3.6976e-07
3.49782e-07
3.28168e-07
3.04821e-07
2.80057e-07
2.54116e-07
2.2776e-07
2.01334e-07
1.75753e-07
1.51287e-07
1.28828e-07
1.08345e-07
9.06562e-08
7.50435e-08
6.27944e-08
5.19964e-08
4.53665e-08
3.84439e-08
3.74987e-08
3.26464e-08
3.83428e-08
3.30964e-08
4.64564e-08
4.27624e-08
4.59101e-07
4.44741e-07
4.29791e-07
4.16276e-07
4.02081e-07
3.85544e-07
3.66804e-07
3.46122e-07
3.23868e-07
2.99856e-07
2.74618e-07
2.48134e-07
2.21487e-07
1.9466e-07
1.69002e-07
1.44244e-07
1.21871e-07
1.01078e-07
8.3547e-08
6.74732e-08
5.53679e-08
4.39823e-08
3.75418e-08
3.02332e-08
2.94119e-08
2.52246e-08
3.00728e-08
2.83242e-08
3.76255e-08
4.00655e-08
4.55722e-07
4.43421e-07
4.29083e-07
4.14798e-07
3.99895e-07
3.82892e-07
3.63628e-07
3.4223e-07
3.19228e-07
2.94484e-07
2.68633e-07
2.41567e-07
2.14487e-07
1.87244e-07
1.61364e-07
1.36333e-07
1.13895e-07
9.28377e-08
7.5282e-08
5.89473e-08
4.67158e-08
3.49813e-08
2.82591e-08
2.09134e-08
1.95203e-08
1.62336e-08
1.98102e-08
2.06012e-08
2.78897e-08
3.2801e-08
4.53847e-07
4.42131e-07
4.28318e-07
4.13536e-07
3.97752e-07
3.80051e-07
3.60135e-07
3.38003e-07
3.14179e-07
2.88647e-07
2.6207e-07
2.34389e-07
2.06773e-07
1.79109e-07
1.52902e-07
1.27619e-07
1.05002e-07
8.37394e-08
6.60003e-08
4.94026e-08
3.69997e-08
2.50821e-08
1.77702e-08
1.04618e-08
8.18706e-09
5.47775e-09
7.92999e-09
9.97516e-09
1.63384e-08
2.20247e-08
4.52978e-07
4.41005e-07
4.27373e-07
4.12203e-07
3.95518e-07
3.76948e-07
3.56244e-07
3.33332e-07
3.08642e-07
2.82277e-07
2.54897e-07
2.26562e-07
1.98352e-07
1.70258e-07
1.43672e-07
1.18147e-07
9.52886e-08
7.38848e-08
5.58982e-08
3.92093e-08
2.63902e-08
1.43494e-08
6.33117e-09
-1.06705e-09
-4.2911e-09
-6.90361e-09
-5.42194e-09
-3.07788e-09
2.57425e-09
8.2565e-09
4.52582e-07
4.40116e-07
4.26292e-07
4.10585e-07
3.93012e-07
3.73484e-07
3.51884e-07
3.28123e-07
3.02535e-07
2.75292e-07
2.47066e-07
2.18032e-07
1.89201e-07
1.6066e-07
1.33683e-07
1.0792e-07
8.48117e-08
6.32949e-08
4.5048e-08
2.82505e-08
1.49376e-08
2.79722e-09
-5.89326e-09
-1.35621e-08
-1.77178e-08
-2.06726e-08
-2.01626e-08
-1.81966e-08
-1.34043e-08
-8.26632e-09
4.52219e-07
4.3929e-07
4.24909e-07
4.0853e-07
3.90064e-07
3.69542e-07
3.46974e-07
3.22285e-07
2.95759e-07
2.67594e-07
2.38492e-07
2.08715e-07
1.7925e-07
1.50239e-07
1.22877e-07
9.68791e-08
7.35361e-08
5.19251e-08
3.34406e-08
1.65633e-08
2.84476e-09
-9.502e-09
-1.88389e-08
-2.69273e-08
-3.20124e-08
-3.56231e-08
-3.62056e-08
-3.5093e-08
-3.14588e-08
-2.73599e-08
4.51628e-07
4.3831e-07
4.23213e-07
4.05977e-07
3.8656e-07
3.65015e-07
3.41421e-07
3.15717e-07
2.88193e-07
2.59051e-07
2.29042e-07
1.98479e-07
1.68365e-07
1.38864e-07
1.11122e-07
8.4894e-08
6.13415e-08
3.96563e-08
2.09772e-08
4.0335e-09
-1.00239e-08
-2.26045e-08
-3.2538e-08
-4.11576e-08
-4.71776e-08
-5.167e-08
-5.34675e-08
-5.35835e-08
-5.14152e-08
-4.88899e-08
4.50706e-07
4.36963e-07
4.21074e-07
4.02874e-07
3.82436e-07
3.5981e-07
3.35109e-07
3.08288e-07
2.79677e-07
2.49488e-07
2.18523e-07
1.87128e-07
1.56339e-07
1.2633e-07
9.82117e-08
7.17636e-08
4.80304e-08
2.62967e-08
7.47915e-09
-9.50729e-09
-2.38211e-08
-3.66427e-08
-4.71084e-08
-5.63105e-08
-6.32454e-08
-6.88154e-08
-7.19477e-08
-7.3541e-08
-7.31412e-08
-7.26876e-08
4.49469e-07
4.35157e-07
4.18439e-07
3.99214e-07
3.77656e-07
3.53832e-07
3.27892e-07
2.99823e-07
2.70002e-07
2.38674e-07
2.06679e-07
1.74404e-07
1.429e-07
1.12371e-07
8.38728e-08
5.72282e-08
3.33461e-08
1.16057e-08
-7.28729e-09
-2.42723e-08
-3.87607e-08
-5.17801e-08
-6.27087e-08
-7.24967e-08
-8.03702e-08
-8.70994e-08
-9.17554e-08
-9.49117e-08
-9.65048e-08
-9.85216e-08
4.48045e-07
4.32927e-07
4.15304e-07
3.9498e-07
3.72152e-07
3.46944e-07
3.19571e-07
2.90082e-07
2.58898e-07
2.26321e-07
1.93201e-07
1.59996e-07
1.2773e-07
9.66824e-08
6.78062e-08
4.10087e-08
1.7019e-08
-4.66093e-09
-2.35592e-08
-4.04631e-08
-5.50376e-08
-6.81611e-08
-7.94701e-08
-8.97699e-08
-9.85542e-08
-1.0646e-07
-1.12882e-07
-1.18442e-07
-1.22486e-07
-1.26524e-07
4.46629e-07
4.30387e-07
4.11665e-07
3.90069e-07
3.65749e-07
3.38911e-07
3.09861e-07
2.78752e-07
2.46031e-07
2.12084e-07
1.77739e-07
1.43559e-07
1.10498e-07
7.89516e-08
4.97182e-08
2.28357e-08
-1.20049e-09
-2.27253e-08
-4.15422e-08
-5.82491e-08
-7.28058e-08
-8.58917e-08
-9.74671e-08
-1.08129e-07
-1.17745e-07
-1.26687e-07
-1.34759e-07
-1.42147e-07
-1.48992e-07
-1.56105e-07
4.45319e-07
4.27624e-07
4.07437e-07
3.84235e-07
3.58114e-07
3.29367e-07
2.98382e-07
2.6544e-07
2.31002e-07
1.95562e-07
1.59904e-07
1.24718e-07
9.08535e-08
5.88501e-08
2.93128e-08
2.43208e-09
-2.15593e-08
-4.2816e-08
-6.14371e-08
-7.78067e-08
-9.22087e-08
-1.0508e-07
-1.16756e-07
-1.27569e-07
-1.37833e-07
-1.47639e-07
-1.57289e-07
-1.66623e-07
-1.7628e-07
-1.8663e-07
4.43815e-07
4.24363e-07
4.02235e-07
3.76986e-07
3.48712e-07
3.17778e-07
2.84615e-07
2.4963e-07
2.13304e-07
1.76253e-07
1.39215e-07
1.03007e-07
6.83697e-08
3.59684e-08
6.21926e-09
-2.05603e-08
-4.43827e-08
-6.52498e-08
-8.35302e-08
-9.94075e-08
-1.13472e-07
-1.25926e-07
-1.37462e-07
-1.48172e-07
-1.58779e-07
-1.69177e-07
-1.8009e-07
-1.91226e-07
-2.03556e-07
-2.1728e-07
4.41364e-07
4.19875e-07
3.95386e-07
3.67649e-07
3.36855e-07
3.03438e-07
2.6785e-07
2.30608e-07
1.9223e-07
1.53451e-07
1.14989e-07
7.77603e-08
4.24174e-08
9.70391e-09
-2.01223e-08
-4.66785e-08
-7.01784e-08
-9.05252e-08
-1.08302e-07
-1.23521e-07
-1.3702e-07
-1.48806e-07
-1.59886e-07
-1.70155e-07
-1.80697e-07
-1.91238e-07
-2.02913e-07
-2.15337e-07
-2.2989e-07
-2.46589e-07
4.37399e-07
4.13531e-07
3.86263e-07
3.55588e-07
3.21833e-07