/*--------------------------------*- C++ -*----------------------------------*\
| =========                 |                                                 |
| \\      /  F ield         | OpenFOAM: The Open Source CFD Toolbox           |
|  \\    /   O peration     | Version:  2312                                  |
|   \\  /    A nd           | Website:  www.openfoam.com                      |
|    \\/     M anipulation  |                                                 |
\*---------------------------------------------------------------------------*/
FoamFile
{
    version     2.0;
    format      ascii;
    arch        "LSB;label=32;scalar=64";
    class       volScalarField;
    location    "159000";
    object      p;
}
// * * * * * * * * * * * * * * * * * * * * * * * * * * * * * * * * * * * * * //

dimensions      [0 2 -2 0 0 0 0];

internalField   nonuniform List<scalar> 
10800
(
6.02622e-07
5.88494e-07
5.74717e-07
5.64123e-07
5.5668e-07
5.51262e-07
5.4678e-07
5.42664e-07
5.38748e-07
5.35037e-07
5.3157e-07
5.2835e-07
5.25345e-07
5.22503e-07
5.19779e-07
5.17139e-07
5.14563e-07
5.12035e-07
5.09546e-07
5.07088e-07
5.0465e-07
5.02226e-07
4.99808e-07
4.97391e-07
4.9497e-07
4.92541e-07
4.90101e-07
4.87647e-07
4.85176e-07
4.82687e-07
4.80178e-07
4.77647e-07
4.75095e-07
4.72519e-07
4.6992e-07
4.67298e-07
4.64651e-07
4.61981e-07
4.59288e-07
4.5657e-07
4.5383e-07
4.51067e-07
4.4828e-07
4.45471e-07
4.42638e-07
4.39781e-07
4.369e-07
4.3399e-07
4.31057e-07
4.28084e-07
4.25093e-07
4.22032e-07
4.18985e-07
4.15773e-07
4.1271e-07
4.09138e-07
4.06348e-07
4.01469e-07
4.00703e-07
3.89628e-07
5.54613e-07
5.52881e-07
5.50227e-07
5.47087e-07
5.43852e-07
5.40734e-07
5.37782e-07
5.34961e-07
5.32221e-07
5.29531e-07
5.26884e-07
5.24288e-07
5.21748e-07
5.19265e-07
5.16831e-07
5.14438e-07
5.12076e-07
5.09738e-07
5.07417e-07
5.05109e-07
5.02809e-07
5.00512e-07
4.98216e-07
4.95916e-07
4.93609e-07
4.91293e-07
4.88964e-07
4.86621e-07
4.84262e-07
4.81885e-07
4.79489e-07
4.77072e-07
4.74635e-07
4.72175e-07
4.69693e-07
4.67187e-07
4.6466e-07
4.62107e-07
4.59534e-07
4.56933e-07
4.54315e-07
4.51665e-07
4.49002e-07
4.46301e-07
4.43595e-07
4.40841e-07
4.38095e-07
4.35283e-07
4.32504e-07
4.29629e-07
4.26839e-07
4.23902e-07
4.21151e-07
4.1817e-07
4.15593e-07
4.12631e-07
4.10559e-07
4.07697e-07
4.06741e-07
4.03562e-07
5.45958e-07
5.45203e-07
5.4378e-07
5.41815e-07
5.39512e-07
5.37069e-07
5.34611e-07
5.32189e-07
5.29807e-07
5.2745e-07
5.2511e-07
5.22788e-07
5.20487e-07
5.18213e-07
5.15967e-07
5.13749e-07
5.11552e-07
5.09374e-07
5.07207e-07
5.0505e-07
5.02898e-07
5.00748e-07
4.98598e-07
4.96445e-07
4.94287e-07
4.9212e-07
4.89944e-07
4.87755e-07
4.85554e-07
4.83338e-07
4.81106e-07
4.78857e-07
4.7659e-07
4.74304e-07
4.72e-07
4.69674e-07
4.67331e-07
4.64964e-07
4.6258e-07
4.6017e-07
4.57744e-07
4.5529e-07
4.52822e-07
4.50322e-07
4.47813e-07
4.45266e-07
4.42719e-07
4.40123e-07
4.37543e-07
4.34901e-07
4.32297e-07
4.29613e-07
4.27006e-07
4.24285e-07
4.21705e-07
4.18959e-07
4.16456e-07
4.13689e-07
4.11303e-07
4.08431e-07
5.34315e-07
5.33879e-07
5.33084e-07
5.31982e-07
5.30641e-07
5.29132e-07
5.27513e-07
5.25821e-07
5.2408e-07
5.22299e-07
5.20485e-07
5.18643e-07
5.16779e-07
5.149e-07
5.1301e-07
5.11113e-07
5.09209e-07
5.073e-07
5.05383e-07
5.0346e-07
5.01529e-07
4.99589e-07
4.9764e-07
4.95681e-07
4.93711e-07
4.9173e-07
4.89736e-07
4.87729e-07
4.85708e-07
4.83673e-07
4.81623e-07
4.79556e-07
4.77475e-07
4.75376e-07
4.73262e-07
4.7113e-07
4.68981e-07
4.66814e-07
4.6463e-07
4.62426e-07
4.60205e-07
4.57963e-07
4.55703e-07
4.53418e-07
4.51117e-07
4.48786e-07
4.46436e-07
4.44052e-07
4.41648e-07
4.39201e-07
4.36734e-07
4.34215e-07
4.31679e-07
4.29081e-07
4.26474e-07
4.23794e-07
4.2111e-07
4.18329e-07
4.15551e-07
4.12684e-07
5.2776e-07
5.27543e-07
5.27105e-07
5.26448e-07
5.25589e-07
5.24555e-07
5.23381e-07
5.22095e-07
5.20724e-07
5.19283e-07
5.17786e-07
5.16241e-07
5.14655e-07
5.13035e-07
5.11386e-07
5.09713e-07
5.08021e-07
5.06311e-07
5.04585e-07
5.02844e-07
5.0109e-07
4.99323e-07
4.97544e-07
4.95752e-07
4.93948e-07
4.92131e-07
4.90303e-07
4.88463e-07
4.86611e-07
4.84746e-07
4.8287e-07
4.80981e-07
4.7908e-07
4.77166e-07
4.7524e-07
4.73302e-07
4.71351e-07
4.69387e-07
4.6741e-07
4.65419e-07
4.63415e-07
4.61397e-07
4.59364e-07
4.57314e-07
4.55249e-07
4.53166e-07
4.51065e-07
4.48943e-07
4.46797e-07
4.44623e-07
4.42414e-07
4.40161e-07
4.37852e-07
4.35473e-07
4.33008e-07
4.3046e-07
4.27812e-07
4.25074e-07
4.2225e-07
4.19443e-07
5.224e-07
5.22233e-07
5.219e-07
5.21405e-07
5.20757e-07
5.19972e-07
5.19069e-07
5.18066e-07
5.16977e-07
5.15815e-07
5.14591e-07
5.13312e-07
5.11984e-07
5.10614e-07
5.09205e-07
5.07764e-07
5.06294e-07
5.04797e-07
5.03278e-07
5.01737e-07
5.00178e-07
4.986e-07
4.97006e-07
4.95396e-07
4.93772e-07
4.92135e-07
4.90484e-07
4.88821e-07
4.87146e-07
4.8546e-07
4.83764e-07
4.82056e-07
4.80339e-07
4.78612e-07
4.76876e-07
4.75131e-07
4.73376e-07
4.71612e-07
4.6984e-07
4.68058e-07
4.66266e-07
4.64463e-07
4.62649e-07
4.60823e-07
4.58981e-07
4.57122e-07
4.55242e-07
4.53341e-07
4.51413e-07
4.49461e-07
4.47479e-07
4.45471e-07
4.43421e-07
4.41329e-07
4.3917e-07
4.36941e-07
4.34614e-07
4.32223e-07
4.29765e-07
4.27371e-07
5.18243e-07
5.18121e-07
5.17877e-07
5.17511e-07
5.17028e-07
5.16433e-07
5.15737e-07
5.14949e-07
5.14079e-07
5.13136e-07
5.12129e-07
5.11063e-07
5.09945e-07
5.08779e-07
5.07571e-07
5.06325e-07
5.05044e-07
5.03732e-07
5.02393e-07
5.01028e-07
4.9964e-07
4.98232e-07
4.96805e-07
4.95361e-07
4.93901e-07
4.92427e-07
4.9094e-07
4.89442e-07
4.87933e-07
4.86414e-07
4.84887e-07
4.83352e-07
4.8181e-07
4.80262e-07
4.78709e-07
4.7715e-07
4.75588e-07
4.74021e-07
4.72451e-07
4.70879e-07
4.69302e-07
4.67723e-07
4.6614e-07
4.64554e-07
4.62964e-07
4.6137e-07
4.59768e-07
4.58158e-07
4.5653e-07
4.54881e-07
4.53204e-07
4.51496e-07
4.49751e-07
4.47975e-07
4.46151e-07
4.44285e-07
4.42352e-07
4.40381e-07
4.38374e-07
4.36453e-07
5.15005e-07
5.1491e-07
5.14719e-07
5.14431e-07
5.14048e-07
5.13573e-07
5.13011e-07
5.1237e-07
5.11654e-07
5.1087e-07
5.10023e-07
5.0912e-07
5.08163e-07
5.0716e-07
5.06113e-07
5.05027e-07
5.03906e-07
5.02752e-07
5.0157e-07
5.0036e-07
4.99127e-07
4.97873e-07
4.96599e-07
4.95308e-07
4.94002e-07
4.92682e-07
4.9135e-07
4.90008e-07
4.88657e-07
4.87298e-07
4.85934e-07
4.84565e-07
4.83192e-07
4.81816e-07
4.8044e-07
4.79064e-07
4.77688e-07
4.76314e-07
4.74943e-07
4.73575e-07
4.72211e-07
4.70851e-07
4.69495e-07
4.68143e-07
4.66794e-07
4.6545e-07
4.64109e-07
4.62773e-07
4.61438e-07
4.60103e-07
4.58758e-07
4.57405e-07
4.56034e-07
4.54649e-07
4.53238e-07
4.5181e-07
4.50349e-07
4.48884e-07
4.47424e-07
4.46082e-07
5.12477e-07
5.12399e-07
5.12242e-07
5.12005e-07
5.1169e-07
5.11297e-07
5.10831e-07
5.10295e-07
5.09693e-07
5.09029e-07
5.08308e-07
5.07534e-07
5.0671e-07
5.05842e-07
5.04931e-07
5.03982e-07
5.02998e-07
5.01982e-07
5.00938e-07
4.99867e-07
4.98772e-07
4.97656e-07
4.96521e-07
4.9537e-07
4.94204e-07
4.93026e-07
4.91837e-07
4.9064e-07
4.89436e-07
4.88227e-07
4.87015e-07
4.85801e-07
4.84588e-07
4.83376e-07
4.82168e-07
4.80965e-07
4.79769e-07
4.78581e-07
4.77402e-07
4.76235e-07
4.75079e-07
4.73938e-07
4.72811e-07
4.717e-07
4.70605e-07
4.69527e-07
4.68464e-07
4.67416e-07
4.66382e-07
4.65365e-07
4.64363e-07
4.63377e-07
4.62402e-07
4.61439e-07
4.60483e-07
4.59539e-07
4.58602e-07
4.57694e-07
4.56827e-07
4.561e-07
5.1053e-07
5.10464e-07
5.10332e-07
5.10132e-07
5.09864e-07
5.09531e-07
5.09134e-07
5.08676e-07
5.0816e-07
5.07589e-07
5.06966e-07
5.06294e-07
5.05577e-07
5.04817e-07
5.04018e-07
5.03182e-07
5.02313e-07
5.01413e-07
5.00485e-07
4.99532e-07
4.98557e-07
4.97561e-07
4.96548e-07
4.95519e-07
4.94478e-07
4.93425e-07
4.92364e-07
4.91297e-07
4.90225e-07
4.89151e-07
4.88077e-07
4.87006e-07
4.85938e-07
4.84877e-07
4.83825e-07
4.82783e-07
4.81753e-07
4.80738e-07
4.7974e-07
4.7876e-07
4.77802e-07
4.76866e-07
4.75956e-07
4.75074e-07
4.74219e-07
4.73393e-07
4.72597e-07
4.71834e-07
4.71107e-07
4.70417e-07
4.69765e-07
4.69153e-07
4.6858e-07
4.68051e-07
4.67561e-07
4.6712e-07
4.66724e-07
4.66395e-07
4.66149e-07
4.66067e-07
5.09074e-07
5.09017e-07
5.08902e-07
5.08729e-07
5.08497e-07
5.08208e-07
5.07863e-07
5.07463e-07
5.07012e-07
5.06511e-07
5.05964e-07
5.05372e-07
5.04738e-07
5.04065e-07
5.03355e-07
5.02611e-07
5.01835e-07
5.01031e-07
5.00201e-07
4.99347e-07
4.98472e-07
4.97579e-07
4.96669e-07
4.95746e-07
4.94811e-07
4.93868e-07
4.92919e-07
4.91965e-07
4.9101e-07
4.90056e-07
4.89105e-07
4.88161e-07
4.87224e-07
4.86298e-07
4.85385e-07
4.84489e-07
4.83611e-07
4.82754e-07
4.81921e-07
4.81116e-07
4.8034e-07
4.79597e-07
4.78889e-07
4.78216e-07
4.77584e-07
4.76996e-07
4.76456e-07
4.75967e-07
4.75532e-07
4.75156e-07
4.74841e-07
4.74591e-07
4.74409e-07
4.743e-07
4.74266e-07
4.74317e-07
4.74455e-07
4.74699e-07
4.75067e-07
4.75624e-07
5.08043e-07
5.07993e-07
5.07891e-07
5.07737e-07
5.07531e-07
5.07274e-07
5.06967e-07
5.06611e-07
5.06209e-07
5.05762e-07
5.05271e-07
5.04741e-07
5.04171e-07
5.03565e-07
5.02926e-07
5.02254e-07
5.01554e-07
5.00826e-07
5.00075e-07
4.99301e-07
4.98509e-07
4.97699e-07
4.96876e-07
4.9604e-07
4.95195e-07
4.94344e-07
4.93489e-07
4.92632e-07
4.91776e-07
4.90924e-07
4.90078e-07
4.89242e-07
4.88419e-07
4.8761e-07
4.86819e-07
4.86048e-07
4.85302e-07
4.84584e-07
4.83897e-07
4.83244e-07
4.82628e-07
4.8205e-07
4.81517e-07
4.81033e-07
4.80602e-07
4.8023e-07
4.7992e-07
4.79678e-07
4.79508e-07
4.79415e-07
4.79406e-07
4.79486e-07
4.79661e-07
4.79938e-07
4.80324e-07
4.8083e-07
4.81463e-07
4.8224e-07
4.83182e-07
4.84336e-07
5.0739e-07
5.07344e-07
5.07251e-07
5.07111e-07
5.06924e-07
5.0669e-07
5.06411e-07
5.06086e-07
5.05719e-07
5.05311e-07
5.04863e-07
5.04377e-07
5.03856e-07
5.03301e-07
5.02714e-07
5.02098e-07
5.01454e-07
5.00786e-07
5.00095e-07
4.99384e-07
4.98656e-07
4.97913e-07
4.97157e-07
4.96391e-07
4.95617e-07
4.94839e-07
4.94059e-07
4.9328e-07
4.92504e-07
4.91734e-07
4.90974e-07
4.90226e-07
4.89495e-07
4.88783e-07
4.88092e-07
4.87426e-07
4.86789e-07
4.86184e-07
4.85614e-07
4.85083e-07
4.84598e-07
4.84161e-07
4.83778e-07
4.83454e-07
4.83194e-07
4.83003e-07
4.82887e-07
4.82852e-07
4.82905e-07
4.83052e-07
4.83302e-07
4.83662e-07
4.84141e-07
4.84747e-07
4.85493e-07
4.86388e-07
4.87445e-07
4.88681e-07
4.90117e-07
4.91786e-07
5.07078e-07
5.07035e-07
5.06949e-07
5.06819e-07
5.06644e-07
5.06426e-07
5.06164e-07
5.05862e-07
5.05519e-07
5.05137e-07
5.04718e-07
5.04263e-07
5.03775e-07
5.03255e-07
5.02705e-07
5.02127e-07
5.01524e-07
5.00898e-07
5.00251e-07
4.99585e-07
4.98903e-07
4.98207e-07
4.975e-07
4.96785e-07
4.96064e-07
4.95341e-07
4.94616e-07
4.93895e-07
4.93179e-07
4.92472e-07
4.91776e-07
4.91095e-07
4.90431e-07
4.89788e-07
4.89171e-07
4.88583e-07
4.88027e-07
4.87508e-07
4.87029e-07
4.86595e-07
4.86212e-07
4.85884e-07
4.85616e-07
4.85413e-07
4.85283e-07
4.8523e-07
4.85262e-07
4.85385e-07
4.85609e-07
4.8594e-07
4.86387e-07
4.86961e-07
4.87672e-07
4.88531e-07
4.8955e-07
4.90743e-07
4.92125e-07
4.93712e-07
4.95526e-07
4.97589e-07
5.07089e-07
5.07048e-07
5.06965e-07
5.06839e-07
5.06671e-07
5.06461e-07
5.0621e-07
5.05919e-07
5.0559e-07
5.05223e-07
5.0482e-07
5.04384e-07
5.03914e-07
5.03415e-07
5.02886e-07
5.02332e-07
5.01752e-07
5.01151e-07
5.0053e-07
4.99891e-07
4.99238e-07
4.98571e-07
4.97895e-07
4.97212e-07
4.96524e-07
4.95834e-07
4.95145e-07
4.9446e-07
4.93782e-07
4.93113e-07
4.92458e-07
4.9182e-07
4.91201e-07
4.90606e-07
4.90037e-07
4.895e-07
4.88998e-07
4.88536e-07
4.88117e-07
4.87747e-07
4.87431e-07
4.87173e-07
4.8698e-07
4.86857e-07
4.8681e-07
4.86847e-07
4.86974e-07
4.872e-07
4.87532e-07
4.8798e-07
4.88554e-07
4.89263e-07
4.90121e-07
4.91138e-07
4.92329e-07
4.93707e-07
4.9529e-07
4.97094e-07
4.9914e-07
5.01443e-07
5.07403e-07
5.07362e-07
5.0728e-07
5.07156e-07
5.0699e-07
5.06783e-07
5.06535e-07
5.06247e-07
5.05921e-07
5.05558e-07
5.05161e-07
5.04729e-07
5.04266e-07
5.03772e-07
5.03251e-07
5.02703e-07
5.02132e-07
5.01539e-07
5.00927e-07
5.00298e-07
4.99655e-07
4.98999e-07
4.98335e-07
4.97664e-07
4.96988e-07
4.96312e-07
4.95638e-07
4.94968e-07
4.94306e-07
4.93655e-07
4.93017e-07
4.92398e-07
4.91799e-07
4.91224e-07
4.90678e-07
4.90165e-07
4.89687e-07
4.8925e-07
4.88858e-07
4.88516e-07
4.88229e-07
4.88002e-07
4.87841e-07
4.87752e-07
4.8774e-07
4.87814e-07
4.87981e-07
4.88247e-07
4.88623e-07
4.89116e-07
4.89737e-07
4.90496e-07
4.91406e-07
4.92478e-07
4.93728e-07
4.95168e-07
4.96817e-07
4.98689e-07
5.00805e-07
5.03177e-07
5.08022e-07
5.0798e-07
5.07896e-07
5.0777e-07
5.07601e-07
5.07389e-07
5.07136e-07
5.06843e-07
5.0651e-07
5.06141e-07
5.05736e-07
5.05297e-07
5.04826e-07
5.04324e-07
5.03794e-07
5.03239e-07
5.02659e-07
5.02058e-07
5.01438e-07
5.00801e-07
5.00149e-07
4.99487e-07
4.98815e-07
4.98136e-07
4.97454e-07
4.96771e-07
4.96091e-07
4.95415e-07
4.94747e-07
4.9409e-07
4.93447e-07
4.92822e-07
4.92218e-07
4.91638e-07
4.91086e-07
4.90567e-07
4.90083e-07
4.8964e-07
4.89241e-07
4.88892e-07
4.88596e-07
4.8836e-07
4.88189e-07
4.88087e-07
4.88063e-07
4.88121e-07
4.8827e-07
4.88516e-07
4.88868e-07
4.89334e-07
4.89924e-07
4.90647e-07
4.91514e-07
4.92537e-07
4.93728e-07
4.95103e-07
4.96677e-07
4.98465e-07
5.00488e-07
5.02763e-07
5.08951e-07
5.08907e-07
5.08819e-07
5.08685e-07
5.08507e-07
5.08284e-07
5.08018e-07
5.0771e-07
5.07361e-07
5.06973e-07
5.06548e-07
5.06088e-07
5.05595e-07
5.05071e-07
5.04517e-07
5.03937e-07
5.03333e-07
5.02706e-07
5.02061e-07
5.01398e-07
5.0072e-07
5.00031e-07
4.99333e-07
4.98628e-07
4.97919e-07
4.9721e-07
4.96502e-07
4.95798e-07
4.95102e-07
4.94417e-07
4.93745e-07
4.93091e-07
4.92456e-07
4.91845e-07
4.91261e-07
4.90708e-07
4.90189e-07
4.89708e-07
4.8927e-07
4.88878e-07
4.88538e-07
4.88254e-07
4.8803e-07
4.87873e-07
4.87788e-07
4.8778e-07
4.87856e-07
4.88022e-07
4.88286e-07
4.88655e-07
4.89135e-07
4.89736e-07
4.9047e-07
4.91347e-07
4.9238e-07
4.93576e-07
4.9495e-07
4.96517e-07
4.98296e-07
5.0031e-07
5.10206e-07
5.10159e-07
5.10063e-07
5.09918e-07
5.09725e-07
5.09483e-07
5.09195e-07
5.08861e-07
5.08484e-07
5.08065e-07
5.07607e-07
5.07111e-07
5.06581e-07
5.06018e-07
5.05424e-07
5.04803e-07
5.04156e-07
5.03487e-07
5.02798e-07
5.02091e-07
5.01369e-07
5.00635e-07
4.99891e-07
4.9914e-07
4.98385e-07
4.97628e-07
4.96872e-07
4.9612e-07
4.95375e-07
4.9464e-07
4.93917e-07
4.93209e-07
4.92521e-07
4.91853e-07
4.91211e-07
4.90597e-07
4.90015e-07
4.89467e-07
4.88959e-07
4.88494e-07
4.88075e-07
4.87707e-07
4.87394e-07
4.8714e-07
4.86951e-07
4.86832e-07
4.86786e-07
4.8682e-07
4.8694e-07
4.87151e-07
4.8746e-07
4.87872e-07
4.884e-07
4.8905e-07
4.89827e-07
4.90743e-07
4.91807e-07
4.93035e-07
4.94444e-07
4.96068e-07
5.11817e-07
5.11763e-07
5.11656e-07
5.11494e-07
5.11278e-07
5.11009e-07
5.10687e-07
5.10315e-07
5.09896e-07
5.09432e-07
5.08925e-07
5.08378e-07
5.07793e-07
5.07174e-07
5.06523e-07
5.05842e-07
5.05135e-07
5.04405e-07
5.03653e-07
5.02884e-07
5.02098e-07
5.013e-07
5.00492e-07
4.99675e-07
4.98854e-07
4.98031e-07
4.97208e-07
4.96387e-07
4.95572e-07
4.94766e-07
4.9397e-07
4.93188e-07
4.92422e-07
4.91676e-07
4.90952e-07
4.90253e-07
4.89581e-07
4.88941e-07
4.88336e-07
4.87767e-07
4.8724e-07
4.86757e-07
4.86321e-07
4.85937e-07
4.85608e-07
4.85339e-07
4.85131e-07
4.84991e-07
4.84922e-07
4.84928e-07
4.85014e-07
4.85183e-07
4.85441e-07
4.85795e-07
4.86249e-07
4.86812e-07
4.87487e-07
4.88291e-07
4.8924e-07
4.90381e-07
5.13824e-07
5.13763e-07
5.13639e-07
5.13453e-07
5.13205e-07
5.12895e-07
5.12527e-07
5.12102e-07
5.11624e-07
5.11097e-07
5.10522e-07
5.09904e-07
5.09246e-07
5.08551e-07
5.07822e-07
5.07063e-07
5.06276e-07
5.05465e-07
5.04631e-07
5.03779e-07
5.02911e-07
5.0203e-07
5.01138e-07
5.00238e-07
4.99332e-07
4.98423e-07
4.97513e-07
4.96605e-07
4.95702e-07
4.94805e-07
4.93917e-07
4.9304e-07
4.92177e-07
4.91331e-07
4.90504e-07
4.89698e-07
4.88916e-07
4.8816e-07
4.87434e-07
4.86739e-07
4.86078e-07
4.85454e-07
4.84869e-07
4.84326e-07
4.83828e-07
4.83378e-07
4.82977e-07
4.82629e-07
4.82336e-07
4.821e-07
4.81924e-07
4.81812e-07
4.8176e-07
4.81776e-07
4.81859e-07
4.82021e-07
4.82258e-07
4.82588e-07
4.83022e-07
4.83625e-07
5.16289e-07
5.16216e-07
5.1607e-07
5.15849e-07
5.15555e-07
5.1519e-07
5.14757e-07
5.14259e-07
5.13701e-07
5.13088e-07
5.12424e-07
5.11712e-07
5.10957e-07
5.10163e-07
5.09334e-07
5.08474e-07
5.07585e-07
5.06671e-07
5.05736e-07
5.04781e-07
5.03811e-07
5.02827e-07
5.01832e-07
5.00829e-07
4.9982e-07
4.98807e-07
4.97793e-07
4.9678e-07
4.9577e-07
4.94764e-07
4.93766e-07
4.92778e-07
4.918e-07
4.90836e-07
4.89888e-07
4.88957e-07
4.88046e-07
4.87156e-07
4.86289e-07
4.85449e-07
4.84635e-07
4.83851e-07
4.83097e-07
4.82377e-07
4.8169e-07
4.8104e-07
4.80426e-07
4.79852e-07
4.79318e-07
4.78826e-07
4.78376e-07
4.77969e-07
4.77577e-07
4.77229e-07
4.7692e-07
4.76658e-07
4.76434e-07
4.76268e-07
4.76168e-07
4.76213e-07
5.19296e-07
5.19206e-07
5.19027e-07
5.18757e-07
5.18398e-07
5.17954e-07
5.1743e-07
5.16831e-07
5.16166e-07
5.15439e-07
5.14656e-07
5.13822e-07
5.12944e-07
5.12025e-07
5.11071e-07
5.10084e-07
5.0907e-07
5.08031e-07
5.06972e-07
5.05894e-07
5.04801e-07
5.03695e-07
5.02579e-07
5.01454e-07
5.00324e-07
4.9919e-07
4.98054e-07
4.96919e-07
4.95785e-07
4.94655e-07
4.93531e-07
4.92414e-07
4.91305e-07
4.90208e-07
4.89122e-07
4.8805e-07
4.86994e-07
4.85954e-07
4.84932e-07
4.8393e-07
4.82949e-07
4.81989e-07
4.81052e-07
4.80139e-07
4.7925e-07
4.78385e-07
4.77544e-07
4.76727e-07
4.7593e-07
4.75156e-07
4.744e-07
4.73664e-07
4.72965e-07
4.72282e-07
4.716e-07
4.70923e-07
4.70244e-07
4.69591e-07
4.68973e-07
4.68482e-07
5.22969e-07
5.22854e-07
5.22622e-07
5.22276e-07
5.21819e-07
5.21258e-07
5.20602e-07
5.19862e-07
5.19047e-07
5.18167e-07
5.17229e-07
5.16241e-07
5.15209e-07
5.14137e-07
5.1303e-07
5.11893e-07
5.1073e-07
5.09545e-07
5.08341e-07
5.07121e-07
5.05887e-07
5.04642e-07
5.03388e-07
5.02127e-07
5.00861e-07
4.99592e-07
4.9832e-07
4.97049e-07
4.95778e-07
4.94511e-07
4.93247e-07
4.91988e-07
4.90737e-07
4.89493e-07
4.88258e-07
4.87033e-07
4.8582e-07
4.84619e-07
4.83432e-07
4.82258e-07
4.811e-07
4.79957e-07
4.78829e-07
4.77719e-07
4.76623e-07
4.75544e-07
4.7448e-07
4.73432e-07
4.72395e-07
4.71372e-07
4.70356e-07
4.69346e-07
4.68328e-07
4.67302e-07
4.6625e-07
4.6518e-07
4.64081e-07
4.62983e-07
4.6188e-07
4.6087e-07
5.27513e-07
5.27355e-07
5.27038e-07
5.26565e-07
5.25947e-07
5.252e-07
5.24341e-07
5.2339e-07
5.22361e-07
5.21268e-07
5.2012e-07
5.18925e-07
5.1769e-07
5.16421e-07
5.15123e-07
5.13801e-07
5.12458e-07
5.11099e-07
5.09726e-07
5.08342e-07
5.06948e-07
5.05547e-07
5.0414e-07
5.02728e-07
5.01313e-07
4.99896e-07
4.98477e-07
4.97059e-07
4.95642e-07
4.94226e-07
4.92813e-07
4.91404e-07
4.89999e-07
4.886e-07
4.87207e-07
4.85821e-07
4.84442e-07
4.83072e-07
4.81711e-07
4.8036e-07
4.79017e-07
4.77685e-07
4.76363e-07
4.7505e-07
4.73746e-07
4.7245e-07
4.71158e-07
4.69873e-07
4.68586e-07
4.673e-07
4.66004e-07
4.64703e-07
4.63383e-07
4.62052e-07
4.60693e-07
4.5932e-07
4.579e-07
4.56452e-07
4.54959e-07
4.53529e-07
5.332e-07
5.3299e-07
5.32566e-07
5.31932e-07
5.31104e-07
5.3011e-07
5.28984e-07
5.27755e-07
5.26449e-07
5.25082e-07
5.23667e-07
5.22213e-07
5.20727e-07
5.19216e-07
5.17686e-07
5.16141e-07
5.14586e-07
5.13023e-07
5.11454e-07
5.0988e-07
5.08304e-07
5.06725e-07
5.05144e-07
5.03563e-07
5.01981e-07
5.00399e-07
4.98818e-07
4.97237e-07
4.95658e-07
4.9408e-07
4.92505e-07
4.90932e-07
4.89362e-07
4.87796e-07
4.86233e-07
4.84675e-07
4.83123e-07
4.81575e-07
4.80033e-07
4.78498e-07
4.76969e-07
4.75446e-07
4.7393e-07
4.7242e-07
4.70916e-07
4.69418e-07
4.67925e-07
4.66435e-07
4.64947e-07
4.63459e-07
4.61967e-07
4.60467e-07
4.58951e-07
4.57411e-07
4.55832e-07
4.54203e-07
4.52504e-07
4.50735e-07
4.48897e-07
4.47064e-07
5.40052e-07
5.39624e-07
5.38845e-07
5.37767e-07
5.36459e-07
5.34992e-07
5.33424e-07
5.31793e-07
5.3012e-07
5.28417e-07
5.2669e-07
5.24945e-07
5.23187e-07
5.21424e-07
5.19659e-07
5.17896e-07
5.16137e-07
5.14382e-07
5.12631e-07
5.10884e-07
5.09139e-07
5.07397e-07
5.05657e-07
5.03919e-07
5.02182e-07
5.00446e-07
4.98711e-07
4.96976e-07
4.95241e-07
4.93506e-07
4.91771e-07
4.90036e-07
4.88301e-07
4.86567e-07
4.84833e-07
4.831e-07
4.81369e-07
4.79639e-07
4.77911e-07
4.76185e-07
4.74462e-07
4.7274e-07
4.71024e-07
4.69306e-07
4.67596e-07
4.65882e-07
4.64176e-07
4.62464e-07
4.60761e-07
4.59045e-07
4.5734e-07
4.55614e-07
4.53901e-07
4.52155e-07
4.50427e-07
4.4865e-07
4.46896e-07
4.45072e-07
4.43288e-07
4.41449e-07
5.51885e-07
5.51139e-07
5.49735e-07
5.47797e-07
5.45532e-07
5.43135e-07
5.40734e-07
5.38377e-07
5.36069e-07
5.33797e-07
5.31551e-07
5.29332e-07
5.27143e-07
5.24992e-07
5.22879e-07
5.20802e-07
5.18758e-07
5.16741e-07
5.14748e-07
5.12774e-07
5.10816e-07
5.08871e-07
5.06938e-07
5.05014e-07
5.03096e-07
5.01184e-07
4.99275e-07
4.97367e-07
4.95461e-07
4.93555e-07
4.91649e-07
4.89741e-07
4.87832e-07
4.85922e-07
4.84011e-07
4.82098e-07
4.80185e-07
4.78269e-07
4.76356e-07
4.74439e-07
4.72527e-07
4.70609e-07
4.687e-07
4.66783e-07
4.64881e-07
4.62965e-07
4.61074e-07
4.59162e-07
4.57289e-07
4.55385e-07
4.53545e-07
4.51657e-07
4.49876e-07
4.48018e-07
4.46337e-07
4.44531e-07
4.43009e-07
4.41263e-07
4.39939e-07
4.3814e-07
5.60717e-07
5.58994e-07
5.56358e-07
5.53247e-07
5.5005e-07
5.46981e-07
5.44088e-07
5.41337e-07
5.38675e-07
5.36074e-07
5.33527e-07
5.31039e-07
5.28617e-07
5.26262e-07
5.23966e-07
5.2172e-07
5.19516e-07
5.17345e-07
5.15202e-07
5.13082e-07
5.10981e-07
5.08894e-07
5.06819e-07
5.04753e-07
5.02692e-07
5.00634e-07
4.98577e-07
4.9652e-07
4.94462e-07
4.92401e-07
4.90337e-07
4.88269e-07
4.86198e-07
4.84122e-07
4.82044e-07
4.7996e-07
4.77876e-07
4.75786e-07
4.73698e-07
4.71604e-07
4.69515e-07
4.67418e-07
4.6533e-07
4.6323e-07
4.61148e-07
4.59044e-07
4.56972e-07
4.54863e-07
4.5281e-07
4.50693e-07
4.48682e-07
4.46559e-07
4.44645e-07
4.4254e-07
4.40862e-07
4.3885e-07
4.37748e-07
4.35905e-07
4.35979e-07
4.33891e-07
6.08795e-07
5.94678e-07
5.80922e-07
5.70361e-07
5.62961e-07
5.57597e-07
5.53179e-07
5.49138e-07
5.45305e-07
5.41689e-07
5.38326e-07
5.35219e-07
5.32337e-07
5.29627e-07
5.27045e-07
5.24557e-07
5.22142e-07
5.19785e-07
5.17477e-07
5.15209e-07
5.12973e-07
5.10761e-07
5.08567e-07
5.06385e-07
5.04211e-07
5.02042e-07
4.99875e-07
4.97709e-07
4.9554e-07
4.93368e-07
4.91192e-07
4.89012e-07
4.86827e-07
4.84637e-07
4.82443e-07
4.80245e-07
4.78043e-07
4.75838e-07
4.73632e-07
4.71424e-07
4.69216e-07
4.67008e-07
4.648e-07
4.62593e-07
4.60388e-07
4.58182e-07
4.55978e-07
4.53771e-07
4.51566e-07
4.49348e-07
4.47138e-07
4.44886e-07
4.4267e-07
4.40327e-07
4.38143e-07
4.35505e-07
4.33633e-07
4.29763e-07
4.29986e-07
4.1992e-07
4.28667e-07
3.76389e-07
3.53707e-07
3.34417e-07
3.14944e-07
2.95212e-07
2.733e-07
2.49957e-07
2.23082e-07
1.94335e-07
1.61506e-07
1.2736e-07
8.94281e-08
5.16296e-08
1.11087e-08
-2.71333e-08
-6.68275e-08
-1.0198e-07
-1.37381e-07
-1.66415e-07
-1.95018e-07
-2.15736e-07
-2.36208e-07
-2.47245e-07
-2.59493e-07
-2.59353e-07
-2.66402e-07
-2.52548e-07
-2.59032e-07
-3.16168e-07
4.13998e-07
3.56846e-07
3.41205e-07
3.2454e-07
3.05787e-07
2.86534e-07
2.64998e-07
2.41898e-07
2.15314e-07
1.87054e-07
1.5498e-07
1.21832e-07
8.51847e-08
4.88109e-08
9.87115e-09
-2.68859e-08
-6.48386e-08
-9.87356e-08
-1.32905e-07
-1.61144e-07
-1.89626e-07
-2.10195e-07
-2.31609e-07
-2.43102e-07
-2.57201e-07
-2.58794e-07
-2.65512e-07
-2.61676e-07
-2.4857e-07
-3.52371e-07
4.01232e-07
3.54059e-07
3.39501e-07
3.23358e-07
3.04084e-07
2.83822e-07
2.61751e-07
2.3833e-07
2.11718e-07
1.83386e-07
1.51568e-07
1.18588e-07
8.24906e-08
4.65324e-08
8.39814e-09
-2.77547e-08
-6.50203e-08
-9.84792e-08
-1.32293e-07
-1.60239e-07
-1.88137e-07
-2.0907e-07
-2.29821e-07
-2.42768e-07
-2.55615e-07
-2.61352e-07
-2.64874e-07
-2.73003e-07
-2.40805e-07
-3.12084e-07
3.9046e-07
3.49283e-07
3.32521e-07
3.16883e-07
2.98374e-07
2.78767e-07
2.5692e-07
2.33408e-07
2.06873e-07
1.78488e-07
1.46998e-07
1.14166e-07
7.87672e-08
4.31632e-08
6.06122e-09
-2.97313e-08
-6.57845e-08
-9.89615e-08
-1.31265e-07
-1.59703e-07
-1.86406e-07
-2.08581e-07
-2.28142e-07
-2.43636e-07
-2.54601e-07
-2.65614e-07
-2.63026e-07
-2.79918e-07
-2.43559e-07
-2.91583e-07
3.79979e-07
3.46106e-07
3.2852e-07
3.14089e-07
2.96088e-07
2.75681e-07
2.53284e-07
2.29238e-07
2.02654e-07
1.73934e-07
1.42659e-07
1.09655e-07
7.48528e-08
3.9267e-08
3.13482e-09
-3.25722e-08
-6.7382e-08
-1.00674e-07
-1.31723e-07
-1.60784e-07
-1.8613e-07
-2.09793e-07
-2.27698e-07
-2.4599e-07
-2.54348e-07
-2.69127e-07
-2.63658e-07
-2.80511e-07
-2.53737e-07
-2.71689e-07
3.7071e-07
3.43804e-07
3.25336e-07
3.10384e-07
2.92637e-07
2.72156e-07
2.49581e-07
2.25091e-07
1.98377e-07
1.69276e-07
1.38088e-07
1.04837e-07
7.04648e-08
3.48114e-08
-5.17273e-10
-3.62115e-08
-6.99265e-08
-1.03376e-07
-1.33199e-07
-1.62757e-07
-1.86878e-07
-2.11664e-07
-2.2848e-07
-2.48295e-07
-2.55997e-07
-2.71496e-07
-2.67818e-07
-2.79919e-07
-2.6626e-07
-2.69216e-07
3.62983e-07
3.41691e-07
3.23085e-07
3.07228e-07
2.89584e-07
2.69051e-07
2.46217e-07
2.21163e-07
1.94125e-07
1.64572e-07
1.33286e-07
9.97534e-08
6.55896e-08
2.98848e-08
-4.89944e-09
-4.04779e-08
-7.341e-08
-1.06748e-07
-1.3575e-07
-1.65361e-07
-1.88918e-07
-2.13973e-07
-2.30853e-07
-2.50752e-07
-2.59743e-07
-2.73969e-07
-2.74489e-07
-2.81817e-07
-2.76278e-07
-2.73618e-07
3.57024e-07
3.39663e-07
3.21532e-07
3.04642e-07
2.86729e-07
2.66038e-07
2.42882e-07
2.17259e-07
1.89742e-07
1.59718e-07
1.28158e-07
9.43711e-08
6.01922e-08
2.45156e-08
-1.00017e-08
-4.52905e-08
-7.77957e-08
-1.10695e-07
-1.39361e-07
-1.68518e-07
-1.92176e-07
-2.16749e-07
-2.34578e-07
-2.53724e-07
-2.65058e-07
-2.77655e-07
-2.8234e-07
-2.86788e-07
-2.8532e-07
-2.8211e-07
3.52919e-07
3.37702e-07
3.20202e-07
3.02576e-07
2.8408e-07
2.63047e-07
2.3948e-07
2.13299e-07
1.85182e-07
1.54664e-07
1.22677e-07
8.86555e-08
5.42852e-08
1.86975e-08
-1.5765e-08
-5.0639e-08
-8.29709e-08
-1.1523e-07
-1.43852e-07
-1.72287e-07
-1.96325e-07
-2.20177e-07
-2.39085e-07
-2.5756e-07
-2.70795e-07
-2.82859e-07
-2.89864e-07
-2.94493e-07
-2.94887e-07
-2.9301e-07
3.50413e-07
3.35857e-07
3.18909e-07
3.0084e-07
2.81592e-07
2.60013e-07
2.35916e-07
2.09165e-07
1.80377e-07
1.49328e-07
1.16814e-07
8.25429e-08
4.78843e-08
1.23932e-08
-2.21151e-08
-5.65478e-08
-8.87975e-08
-1.20386e-07
-1.49009e-07
-1.76724e-07
-2.01077e-07
-2.2435e-07
-2.44065e-07
-2.62308e-07
-2.76853e-07
-2.89224e-07
-2.97795e-07
-3.03421e-07
-3.05459e-07
-3.05199e-07
3.49023e-07
3.34263e-07
3.17542e-07
2.99147e-07
2.79131e-07
2.56853e-07
2.32101e-07
2.04739e-07
1.75246e-07
1.43622e-07
1.10533e-07
7.59665e-08
4.09901e-08
5.55726e-09
-2.90042e-08
-6.30433e-08
-9.51794e-08
-1.26174e-07
-1.54697e-07
-1.81823e-07
-2.06287e-07
-2.29211e-07
-2.49402e-07
-2.67758e-07
-2.83216e-07
-2.96312e-07
-3.06215e-07
-3.13232e-07
-3.17055e-07
-3.18679e-07
3.48193e-07
3.32976e-07
3.16077e-07
2.9728e-07
2.76517e-07
2.53457e-07
2.27954e-07
1.99919e-07
1.697e-07
1.37459e-07
1.03772e-07
6.88568e-08
3.35653e-08
-1.8621e-09
-3.64437e-08
-7.01547e-08
-1.02106e-07
-1.32593e-07
-1.60892e-07
-1.87544e-07
-2.11936e-07
-2.34651e-07
-2.55098e-07
-2.73725e-07
-2.89908e-07
-3.03909e-07
-3.15102e-07
-3.2371e-07
-3.29418e-07
-3.33265e-07
3.47481e-07
3.31844e-07
3.14482e-07
2.95111e-07
2.73581e-07
2.49703e-07
2.2339e-07
1.94611e-07
1.63638e-07
1.30735e-07
9.64364e-08
6.11255e-08
2.55265e-08
-9.93931e-09
-4.45073e-08
-7.7939e-08
-1.09642e-07
-1.39672e-07
-1.67655e-07
-1.93877e-07
-2.18082e-07
-2.40618e-07
-2.61207e-07
-2.80116e-07
-2.96956e-07
-3.11868e-07
-3.24383e-07
-3.34621e-07
-3.42386e-07
-3.48559e-07
3.46632e-07
3.3065e-07
3.12671e-07
2.9257e-07
2.70222e-07
2.45493e-07
2.18318e-07
1.88722e-07
1.56946e-07
1.23332e-07
8.83989e-08
5.26501e-08
1.67413e-08
-1.87933e-08
-5.33263e-08
-8.65006e-08
-1.17912e-07
-1.47496e-07
-1.75098e-07
-2.00882e-07
-2.24818e-07
-2.47141e-07
-2.67785e-07
-2.86924e-07
-3.04352e-07
-3.20133e-07
-3.33943e-07
-3.4584e-07
-3.55715e-07
-3.6438e-07
3.45553e-07
3.29195e-07
3.10543e-07
2.89625e-07
2.66393e-07
2.4075e-07
2.12641e-07
1.82139e-07
1.49487e-07
1.15097e-07
7.94892e-08
4.32614e-08
7.02728e-09
-2.85958e-08
-6.30832e-08
-9.59974e-08
-1.27085e-07
-1.56197e-07
-1.83366e-07
-2.08658e-07
-2.32255e-07
-2.54282e-07
-2.74901e-07
-2.94161e-07
-3.121e-07
-3.28636e-07
-3.43699e-07
-3.57178e-07
-3.69204e-07
-3.80334e-07
3.4429e-07
3.2742e-07
3.08067e-07
2.86283e-07
2.62078e-07
2.35409e-07
2.06244e-07
1.74715e-07
1.41085e-07
1.05836e-07
6.94947e-08
3.27419e-08
-3.84083e-09
-3.9564e-08
-7.39929e-08
-1.06626e-07
-1.37347e-07
-1.65938e-07
-1.92607e-07
-2.17329e-07
-2.40498e-07
-2.62118e-07
-2.82599e-07
-3.01841e-07
-3.20165e-07
-3.37306e-07
-3.5351e-07
-3.68434e-07
-3.82549e-07
-3.96035e-07
3.43005e-07
3.254e-07
3.05276e-07
2.82552e-07
2.57236e-07
2.29367e-07
1.98971e-07
1.66257e-07
1.31517e-07
9.53076e-08
5.81604e-08
2.08338e-08
-1.61173e-08
-5.19405e-08
-8.62824e-08
-1.18593e-07
-1.48882e-07
-1.7688e-07
-2.02955e-07
-2.27009e-07
-2.49629e-07
-2.70714e-07
-2.90902e-07
-3.09962e-07
-3.28486e-07
-3.46046e-07
-3.63195e-07
-3.79377e-07
-3.95382e-07
-4.11059e-07
3.41926e-07
3.23276e-07
3.02192e-07
2.78358e-07
2.51728e-07
2.22428e-07
1.90582e-07
1.56494e-07
1.20498e-07
8.32148e-08
4.51903e-08
7.24757e-09
-3.00744e-08
-6.59788e-08
-1.00179e-07
-1.32103e-07
-1.61867e-07
-1.89176e-07
-2.14538e-07
-2.37806e-07
-2.59728e-07
-2.80127e-07
-2.99834e-07
-3.18522e-07
-3.37013e-07
-3.54759e-07
-3.72583e-07
-3.89758e-07
-4.07364e-07
-4.24931e-07
3.41171e-07
3.21159e-07
2.98752e-07
2.7348e-07
2.45251e-07
2.14262e-07
1.80734e-07
1.45075e-07
1.07671e-07
6.92024e-08
3.02413e-08
-8.34243e-09
-4.6013e-08
-8.19557e-08
-1.15933e-07
-1.47382e-07
-1.76501e-07
-2.03007e-07
-2.27511e-07
-2.49857e-07
-2.70907e-07
-2.90455e-07
-3.09464e-07
-3.27567e-07
-3.45743e-07
-3.63406e-07
-3.81548e-07
-3.99396e-07
-4.18172e-07
-4.37267e-07
3.40462e-07
3.188e-07
2.94609e-07
2.67471e-07
2.37312e-07
2.04372e-07
1.68945e-07
1.31525e-07
9.25696e-08
5.28169e-08
1.28789e-08
-2.63471e-08
-6.43172e-08
-1.00229e-07
-1.33876e-07
-1.64741e-07
-1.93077e-07
-2.18646e-07
-2.42126e-07
-2.63387e-07
-2.8337e-07
-3.01867e-07
-3.1994e-07
-3.37198e-07
-3.54755e-07
-3.71992e-07
-3.90055e-07
-4.08131e-07
-4.27554e-07
-4.47616e-07
3.39037e-07
3.15454e-07
2.89098e-07
2.59706e-07
2.27285e-07
1.92118e-07
1.54567e-07
1.15197e-07
7.45545e-08
3.3431e-08
-7.50521e-09
-4.73497e-08
-8.55407e-08
-1.21321e-07
-1.545e-07
-1.84644e-07
-2.12034e-07
-2.36514e-07
-2.58778e-07
-2.78762e-07
-2.97437e-07
-3.14638e-07