/*--------------------------------*- C++ -*----------------------------------*\
| =========                 |                                                 |
| \\      /  F ield         | OpenFOAM: The Open Source CFD Toolbox           |
|  \\    /   O peration     | Version:  2312                                  |
|   \\  /    A nd           | Website:  www.openfoam.com                      |
|    \\/     M anipulation  |                                                 |
\*---------------------------------------------------------------------------*/
FoamFile
{
    version     2.0;
    format      ascii;
    arch        "LSB;label=32;scalar=64";
    class       volVectorField;
    location    "159000";
    object      U;
}
// * * * * * * * * * * * * * * * * * * * * * * * * * * * * * * * * * * * * * //

dimensions      [0 1 -1 0 0 0 0];

internalField   nonuniform List<vector> 
10800
(
(0.000992484 4.93871e-06 0)
(0.000990044 1.2448e-05 0)
(0.00098689 1.74626e-05 0)
(0.000980535 2.06393e-05 0)
(0.000971146 2.27151e-05 0)
(0.000959886 2.42012e-05 0)
(0.000947821 2.53326e-05 0)
(0.000935487 2.61841e-05 0)
(0.000923026 2.678e-05 0)
(0.000910416 2.71456e-05 0)
(0.000897613 2.73186e-05 0)
(0.000884612 2.73419e-05 0)
(0.00087145 2.72536e-05 0)
(0.000858182 2.70819e-05 0)
(0.000844859 2.6845e-05 0)
(0.000831519 2.65547e-05 0)
(0.000818187 2.62191e-05 0)
(0.000804882 2.58447e-05 0)
(0.000791618 2.54372e-05 0)
(0.00077841 2.50014e-05 0)
(0.000765273 2.45411e-05 0)
(0.000752221 2.40595e-05 0)
(0.000739269 2.35585e-05 0)
(0.000726429 2.30402e-05 0)
(0.000713715 2.25054e-05 0)
(0.000701138 2.19555e-05 0)
(0.00068871 2.13906e-05 0)
(0.000676444 2.08121e-05 0)
(0.000664353 2.02192e-05 0)
(0.000652446 1.96137e-05 0)
(0.000640738 1.89941e-05 0)
(0.00062924 1.83627e-05 0)
(0.000617965 1.77168e-05 0)
(0.000606924 1.70604e-05 0)
(0.000596132 1.63888e-05 0)
(0.000585597 1.57085e-05 0)
(0.000575339 1.50119e-05 0)
(0.000565361 1.43096e-05 0)
(0.000555687 1.35887e-05 0)
(0.000546314 1.28673e-05 0)
(0.000537278 1.21232e-05 0)
(0.000528557 1.13867e-05 0)
(0.000520214 1.06201e-05 0)
(0.000512184 9.87444e-06 0)
(0.000504598 9.0846e-06 0)
(0.000497282 8.33714e-06 0)
(0.000490541 7.52035e-06 0)
(0.000483921 6.77869e-06 0)
(0.000478187 5.92661e-06 0)
(0.000472121 5.19009e-06 0)
(0.00046778 4.29518e-06 0)
(0.00046175 3.51676e-06 0)
(0.00045988 2.62084e-06 0)
(0.000452216 1.54777e-06 0)
(0.000456001 9.89399e-07 0)
(0.000441539 -1.45725e-06 0)
(0.000460386 -2.60514e-08 0)
(0.000424089 -7.92722e-06 0)
(0.000483196 1.90627e-06 0)
(0.000387799 -2.45363e-05 0)
(0.00100003 5.79075e-06 0)
(0.00100173 1.49578e-05 0)
(0.00100424 2.14645e-05 0)
(0.00100709 2.60031e-05 0)
(0.00100984 2.93365e-05 0)
(0.00101227 3.19929e-05 0)
(0.00101432 3.42199e-05 0)
(0.00101603 3.61043e-05 0)
(0.00101745 3.76787e-05 0)
(0.0010186 3.89739e-05 0)
(0.00101951 4.00313e-05 0)
(0.00102016 4.0897e-05 0)
(0.00102054 4.16116e-05 0)
(0.00102067 4.22053e-05 0)
(0.00102055 4.26983e-05 0)
(0.0010202 4.31034e-05 0)
(0.00101963 4.34294e-05 0)
(0.00101885 4.36832e-05 0)
(0.00101787 4.38704e-05 0)
(0.00101671 4.39959e-05 0)
(0.00101537 4.40634e-05 0)
(0.00101386 4.40757e-05 0)
(0.00101219 4.40348e-05 0)
(0.00101037 4.39418e-05 0)
(0.00100842 4.37979e-05 0)
(0.00100633 4.3603e-05 0)
(0.00100413 4.3358e-05 0)
(0.0010018 4.30617e-05 0)
(0.00099939 4.27157e-05 0)
(0.000996849 4.23168e-05 0)
(0.000994273 4.18685e-05 0)
(0.000991556 4.13648e-05 0)
(0.000988858 4.08126e-05 0)
(0.000985992 4.02009e-05 0)
(0.000983224 3.95435e-05 0)
(0.00098023 3.882e-05 0)
(0.000977455 3.8057e-05 0)
(0.000974344 3.72171e-05 0)
(0.000971643 3.635e-05 0)
(0.000968403 3.53876e-05 0)
(0.000965892 3.44215e-05 0)
(0.000962476 3.33275e-05 0)
(0.000960319 3.22728e-05 0)
(0.000956615 3.1032e-05 0)
(0.000955068 2.99086e-05 0)
(0.000950847 2.84942e-05 0)
(0.000950322 2.73365e-05 0)
(0.000945155 2.57001e-05 0)
(0.000946327 2.45676e-05 0)
(0.000939431 2.26221e-05 0)
(0.000943427 2.1615e-05 0)
(0.000933403 1.92068e-05 0)
(0.000942128 1.84908e-05 0)
(0.000926508 1.53611e-05 0)
(0.000943171 1.51931e-05 0)
(0.000917641 1.09445e-05 0)
(0.00094768 1.16452e-05 0)
(0.00090478 5.83709e-06 0)
(0.000957527 7.3968e-06 0)
(0.000884822 4.64618e-07 0)
(0.000999989 1.94575e-06 0)
(0.00100078 5.71277e-06 0)
(0.00100225 9.20265e-06 0)
(0.00100426 1.23317e-05 0)
(0.00100659 1.50972e-05 0)
(0.00100904 1.75444e-05 0)
(0.00101149 1.97283e-05 0)
(0.00101389 2.16919e-05 0)
(0.00101624 2.34627e-05 0)
(0.00101854 2.50575e-05 0)
(0.00102081 2.64897e-05 0)
(0.00102303 2.77728e-05 0)
(0.0010252 2.89214e-05 0)
(0.00102731 2.99495e-05 0)
(0.00102936 3.08698e-05 0)
(0.00103134 3.16921e-05 0)
(0.00103327 3.24247e-05 0)
(0.00103513 3.30735e-05 0)
(0.00103693 3.36443e-05 0)
(0.00103868 3.41402e-05 0)
(0.00104037 3.45662e-05 0)
(0.00104201 3.49233e-05 0)
(0.0010436 3.5216e-05 0)
(0.00104513 3.54433e-05 0)
(0.00104662 3.56096e-05 0)
(0.00104805 3.57115e-05 0)
(0.00104945 3.57547e-05 0)
(0.00105078 3.57325e-05 0)
(0.0010521 3.56535e-05 0)
(0.00105332 3.55061e-05 0)
(0.00105456 3.5304e-05 0)
(0.00105569 3.50287e-05 0)
(0.00105687 3.47018e-05 0)
(0.00105789 3.42941e-05 0)
(0.00105903 3.38405e-05 0)
(0.00105993 3.32951e-05 0)
(0.00106107 3.27133e-05 0)
(0.00106184 3.20236e-05 0)
(0.001063 3.13133e-05 0)
(0.00106361 3.04718e-05 0)
(0.00106486 2.96347e-05 0)
(0.00106526 2.86324e-05 0)
(0.00106669 2.76733e-05 0)
(0.0010668 2.64992e-05 0)
(0.00106854 2.54268e-05 0)
(0.00106824 2.4068e-05 0)
(0.00107047 2.28961e-05 0)
(0.00106954 2.13373e-05 0)
(0.00107258 2.00864e-05 0)
(0.00107069 1.83112e-05 0)
(0.00107497 1.70093e-05 0)
(0.00107159 1.50054e-05 0)
(0.00107778 1.36881e-05 0)
(0.00107212 1.14611e-05 0)
(0.0010812 1.01703e-05 0)
(0.00107203 7.78172e-06 0)
(0.00108552 6.56264e-06 0)
(0.00107095 4.22812e-06 0)
(0.00109113 3.09066e-06 0)
(0.00106843 1.34078e-06 0)
(0.00100001 1.71933e-06 0)
(0.00100047 5.09112e-06 0)
(0.00100129 8.30494e-06 0)
(0.00100242 1.12847e-05 0)
(0.00100378 1.39899e-05 0)
(0.00100532 1.64177e-05 0)
(0.00100698 1.85901e-05 0)
(0.0010087 2.05371e-05 0)
(0.00101049 2.22861e-05 0)
(0.00101231 2.38578e-05 0)
(0.00101418 2.52683e-05 0)
(0.00101607 2.65304e-05 0)
(0.00101798 2.76568e-05 0)
(0.00101991 2.86595e-05 0)
(0.00102185 2.95504e-05 0)
(0.00102379 3.03397e-05 0)
(0.00102574 3.10369e-05 0)
(0.00102769 3.16488e-05 0)
(0.00102964 3.21821e-05 0)
(0.00103158 3.26409e-05 0)
(0.00103353 3.30302e-05 0)
(0.00103548 3.33522e-05 0)
(0.00103743 3.36109e-05 0)
(0.00103937 3.38068e-05 0)
(0.00104132 3.39433e-05 0)
(0.00104325 3.40191e-05 0)
(0.0010452 3.40377e-05 0)
(0.00104713 3.39957e-05 0)
(0.00104907 3.38976e-05 0)
(0.00105099 3.37375e-05 0)
(0.00105293 3.35213e-05 0)
(0.00105484 3.32406e-05 0)
(0.00105678 3.29036e-05 0)
(0.00105867 3.24984e-05 0)
(0.00106061 3.20363e-05 0)
(0.00106248 3.15016e-05 0)
(0.00106443 3.09095e-05 0)
(0.00106626 3.02398e-05 0)
(0.00106822 2.95122e-05 0)
(0.00107002 2.87023e-05 0)
(0.001072 2.78332e-05 0)
(0.00107374 2.68784e-05 0)
(0.00107578 2.58614e-05 0)
(0.00107745 2.47588e-05 0)
(0.00107955 2.35865e-05 0)
(0.00108112 2.23367e-05 0)
(0.00108333 2.10001e-05 0)
(0.00108478 1.96094e-05 0)
(0.00108715 1.80965e-05 0)
(0.00108843 1.65827e-05 0)
(0.00109104 1.4878e-05 0)
(0.00109208 1.32801e-05 0)
(0.00109503 1.13637e-05 0)
(0.00109572 9.75833e-06 0)
(0.00109915 7.60392e-06 0)
(0.00109933 6.12732e-06 0)
(0.00110345 3.68515e-06 0)
(0.00110292 2.55032e-06 0)
(0.00110799 -2.87468e-07 0)
(0.00110642 -7.73171e-07 0)
(0.001 1.12448e-06 0)
(0.00100023 3.34461e-06 0)
(0.00100068 5.49819e-06 0)
(0.00100136 7.55381e-06 0)
(0.00100224 9.49039e-06 0)
(0.0010033 1.12979e-05 0)
(0.00100449 1.29752e-05 0)
(0.0010058 1.45266e-05 0)
(0.0010072 1.59584e-05 0)
(0.00100867 1.72769e-05 0)
(0.00101019 1.84879e-05 0)
(0.00101177 1.95963e-05 0)
(0.00101338 2.06071e-05 0)
(0.00101503 2.15255e-05 0)
(0.00101671 2.23565e-05 0)
(0.00101841 2.31051e-05 0)
(0.00102013 2.3776e-05 0)
(0.00102187 2.43731e-05 0)
(0.00102362 2.48998e-05 0)
(0.00102538 2.53592e-05 0)
(0.00102716 2.57536e-05 0)
(0.00102894 2.6085e-05 0)
(0.00103073 2.6355e-05 0)
(0.00103254 2.65649e-05 0)
(0.00103435 2.67155e-05 0)
(0.00103617 2.68077e-05 0)
(0.00103799 2.68413e-05 0)
(0.00103982 2.68169e-05 0)
(0.00104166 2.67334e-05 0)
(0.0010435 2.65917e-05 0)
(0.00104535 2.63891e-05 0)
(0.0010472 2.61277e-05 0)
(0.00104906 2.58026e-05 0)
(0.00105092 2.54179e-05 0)
(0.00105279 2.49651e-05 0)
(0.00105465 2.44529e-05 0)
(0.00105652 2.38663e-05 0)
(0.00105838 2.3222e-05 0)
(0.00106026 2.24939e-05 0)
(0.00106213 2.17133e-05 0)
(0.001064 2.08351e-05 0)
(0.00106587 1.9915e-05 0)
(0.00106775 1.88762e-05 0)
(0.00106962 1.7816e-05 0)
(0.0010715 1.6604e-05 0)
(0.00107338 1.54073e-05 0)
(0.00107525 1.40064e-05 0)
(0.00107715 1.2684e-05 0)
(0.00107901 1.1073e-05 0)
(0.00108094 9.64513e-06 0)
(0.00108281 7.7921e-06 0)
(0.00108481 6.29257e-06 0)
(0.00108668 4.14852e-06 0)
(0.00108882 2.63477e-06 0)
(0.00109071 1.30256e-07 0)
(0.00109306 -1.29186e-06 0)
(0.00109493 -4.24813e-06 0)
(0.00109758 -5.40627e-06 0)
(0.00109934 -8.97071e-06 0)
(0.00110227 -9.63209e-06 0)
(0.001 8.94197e-07 0)
(0.00100018 2.67204e-06 0)
(0.00100052 4.42126e-06 0)
(0.00100103 6.12329e-06 0)
(0.00100169 7.761e-06 0)
(0.00100248 9.32081e-06 0)
(0.0010034 1.07938e-05 0)
(0.00100441 1.21753e-05 0)
(0.00100551 1.34642e-05 0)
(0.00100668 1.46611e-05 0)
(0.00100792 1.57679e-05 0)
(0.00100921 1.67867e-05 0)
(0.00101056 1.772e-05 0)
(0.00101194 1.85707e-05 0)
(0.00101336 1.93416e-05 0)
(0.00101482 2.00359e-05 0)
(0.0010163 2.06567e-05 0)
(0.00101781 2.12069e-05 0)
(0.00101934 2.16891e-05 0)
(0.00102089 2.2106e-05 0)
(0.00102246 2.24593e-05 0)
(0.00102404 2.27511e-05 0)
(0.00102564 2.29824e-05 0)
(0.00102725 2.31551e-05 0)
(0.00102887 2.32692e-05 0)
(0.0010305 2.33264e-05 0)
(0.00103214 2.33257e-05 0)
(0.00103379 2.32689e-05 0)
(0.00103544 2.31537e-05 0)
(0.00103711 2.29827e-05 0)
(0.00103878 2.27514e-05 0)
(0.00104045 2.24642e-05 0)
(0.00104212 2.21137e-05 0)
(0.00104381 2.17071e-05 0)
(0.00104548 2.12326e-05 0)
(0.00104717 2.07025e-05 0)
(0.00104885 2.00977e-05 0)
(0.00105054 1.94393e-05 0)
(0.00105222 1.86966e-05 0)
(0.00105392 1.79048e-05 0)
(0.00105559 1.70149e-05 0)
(0.00105729 1.6085e-05 0)
(0.00105896 1.50367e-05 0)
(0.00106067 1.39649e-05 0)
(0.00106233 1.27444e-05 0)
(0.00106406 1.15288e-05 0)
(0.00106571 1.01187e-05 0)
(0.00106748 8.76171e-06 0)
(0.00106911 7.14036e-06 0)
(0.00107094 5.65308e-06 0)
(0.00107254 3.79369e-06 0)
(0.00107445 2.19764e-06 0)
(0.00107599 5.9278e-08 0)
(0.00107804 -1.6144e-06 0)
(0.00107953 -4.10309e-06 0)
(0.00108182 -5.81372e-06 0)
(0.00108324 -8.76113e-06 0)
(0.00108585 -1.04295e-05 0)
(0.00108704 -1.39911e-05 0)
(0.00108996 -1.54956e-05 0)
(0.001 6.94721e-07 0)
(0.00100013 2.07528e-06 0)
(0.00100038 3.43442e-06 0)
(0.00100076 4.75991e-06 0)
(0.00100125 6.0408e-06 0)
(0.00100185 7.2682e-06 0)
(0.00100256 8.43561e-06 0)
(0.00100336 9.53891e-06 0)
(0.00100424 1.05759e-05 0)
(0.00100519 1.15458e-05 0)
(0.00100621 1.24487e-05 0)
(0.00100729 1.32853e-05 0)
(0.00100842 1.40565e-05 0)
(0.0010096 1.47635e-05 0)
(0.00101081 1.54075e-05 0)
(0.00101207 1.599e-05 0)
(0.00101336 1.65121e-05 0)
(0.00101468 1.69756e-05 0)
(0.00101603 1.73816e-05 0)
(0.0010174 1.77315e-05 0)
(0.00101879 1.80262e-05 0)
(0.0010202 1.82669e-05 0)
(0.00102163 1.84538e-05 0)
(0.00102307 1.8588e-05 0)
(0.00102452 1.86691e-05 0)
(0.00102598 1.86983e-05 0)
(0.00102746 1.86741e-05 0)
(0.00102894 1.85979e-05 0)
(0.00103042 1.84672e-05 0)
(0.00103192 1.82841e-05 0)
(0.00103341 1.80443e-05 0)
(0.00103491 1.77512e-05 0)
(0.00103641 1.73982e-05 0)
(0.00103791 1.69909e-05 0)
(0.00103941 1.65192e-05 0)
(0.00104091 1.59924e-05 0)
(0.0010424 1.53947e-05 0)
(0.0010439 1.47422e-05 0)
(0.00104538 1.40101e-05 0)
(0.00104687 1.32247e-05 0)
(0.00104833 1.23477e-05 0)
(0.00104982 1.14221e-05 0)
(0.00105127 1.03875e-05 0)
(0.00105275 9.31416e-06 0)
(0.00105417 8.10629e-06 0)
(0.00105565 6.87773e-06 0)
(0.00105705 5.47655e-06 0)
(0.00105854 4.085e-06 0)
(0.00105992 2.46338e-06 0)
(0.00106145 9.03706e-07 0)
(0.00106281 -9.72532e-07 0)
(0.0010644 -2.6946e-06 0)
(0.00106574 -4.86482e-06 0)
(0.00106743 -6.73082e-06 0)
(0.00106872 -9.25254e-06 0)
(0.00107056 -1.12364e-05 0)
(0.00107177 -1.42085e-05 0)
(0.00107383 -1.62701e-05 0)
(0.00107484 -1.98363e-05 0)
(0.00107706 -2.18943e-05 0)
(0.001 5.41463e-07 0)
(0.0010001 1.61784e-06 0)
(0.0010003 2.68026e-06 0)
(0.00100059 3.72136e-06 0)
(0.00100098 4.7341e-06 0)
(0.00100147 5.71223e-06 0)
(0.00100204 6.65053e-06 0)
(0.00100269 7.54495e-06 0)
(0.00100341 8.39252e-06 0)
(0.0010042 9.19128e-06 0)
(0.00100506 9.94001e-06 0)
(0.00100597 1.06381e-05 0)
(0.00100693 1.12852e-05 0)
(0.00100794 1.18813e-05 0)
(0.001009 1.24265e-05 0)
(0.00101009 1.2921e-05 0)
(0.00101122 1.33652e-05 0)
(0.00101237 1.37596e-05 0)
(0.00101356 1.41044e-05 0)
(0.00101477 1.44004e-05 0)
(0.001016 1.46477e-05 0)
(0.00101725 1.48469e-05 0)
(0.00101852 1.49979e-05 0)
(0.00101981 1.51011e-05 0)
(0.0010211 1.51561e-05 0)
(0.00102241 1.51632e-05 0)
(0.00102372 1.51213e-05 0)
(0.00102505 1.5031e-05 0)
(0.00102637 1.48904e-05 0)
(0.0010277 1.47003e-05 0)
(0.00102904 1.44578e-05 0)
(0.00103037 1.41643e-05 0)
(0.0010317 1.38154e-05 0)
(0.00103303 1.34135e-05 0)
(0.00103435 1.29523e-05 0)
(0.00103567 1.24361e-05 0)
(0.00103698 1.18552e-05 0)
(0.00103829 1.12174e-05 0)
(0.00103958 1.05079e-05 0)
(0.00104087 9.73989e-06 0)
(0.00104213 8.89087e-06 0)
(0.0010434 7.98305e-06 0)
(0.00104464 6.98147e-06 0)
(0.00104589 5.92305e-06 0)
(0.0010471 4.75328e-06 0)
(0.00104833 3.53297e-06 0)
(0.0010495 2.17653e-06 0)
(0.00105071 7.83472e-07 0)
(0.00105184 -7.8233e-07 0)
(0.00105305 -2.3609e-06 0)
(0.00105413 -4.16875e-06 0)
(0.00105536 -5.94892e-06 0)
(0.0010564 -8.04485e-06 0)
(0.00105767 -1.00407e-05 0)
(0.00105867 -1.2481e-05 0)
(0.00106001 -1.46959e-05 0)
(0.00106092 -1.7556e-05 0)
(0.00106237 -1.99869e-05 0)
(0.00106308 -2.33754e-05 0)
(0.00106453 -2.59964e-05 0)
(0.001 4.20056e-07 0)
(0.00100008 1.25471e-06 0)
(0.00100025 2.07915e-06 0)
(0.00100049 2.88854e-06 0)
(0.00100081 3.67813e-06 0)
(0.00100121 4.44352e-06 0)
(0.00100168 5.18079e-06 0)
(0.00100222 5.88667e-06 0)
(0.00100283 6.55847e-06 0)
(0.0010035 7.19408e-06 0)
(0.00100423 7.79178e-06 0)
(0.00100501 8.3503e-06 0)
(0.00100584 8.86872e-06 0)
(0.00100671 9.34644e-06 0)
(0.00100763 9.78305e-06 0)
(0.00100858 1.01784e-05 0)
(0.00100957 1.05323e-05 0)
(0.00101059 1.08448e-05 0)
(0.00101163 1.11159e-05 0)
(0.0010127 1.13456e-05 0)
(0.0010138 1.1534e-05 0)
(0.00101491 1.1681e-05 0)
(0.00101604 1.17865e-05 0)
(0.00101718 1.18503e-05 0)
(0.00101834 1.1872e-05 0)
(0.0010195 1.18514e-05 0)
(0.00102067 1.17876e-05 0)
(0.00102185 1.16804e-05 0)
(0.00102303 1.15286e-05 0)
(0.00102421 1.13317e-05 0)
(0.00102539 1.1088e-05 0)
(0.00102657 1.07971e-05 0)
(0.00102775 1.04566e-05 0)
(0.00102892 1.00663e-05 0)
(0.00103008 9.62269e-06 0)
(0.00103123 9.12619e-06 0)
(0.00103236 8.57171e-06 0)
(0.00103349 7.96077e-06 0)
(0.0010346 7.28604e-06 0)
(0.00103569 6.55091e-06 0)
(0.00103676 5.7446e-06 0)
(0.00103782 4.87371e-06 0)
(0.00103885 3.92209e-06 0)
(0.00103987 2.90158e-06 0)
(0.00104085 1.78783e-06 0)
(0.00104182 6.01665e-07 0)
(0.00104274 -6.93701e-07 0)
(0.00104368 -2.06133e-06 0)
(0.00104454 -3.56096e-06 0)
(0.00104544 -5.12937e-06 0)
(0.00104623 -6.86263e-06 0)
(0.00104709 -8.65642e-06 0)
(0.00104782 -1.06639e-05 0)
(0.00104865 -1.27108e-05 0)
(0.00104929 -1.50441e-05 0)
(0.00105011 -1.73728e-05 0)
(0.00105064 -2.00966e-05 0)
(0.00105146 -2.27334e-05 0)
(0.00105178 -2.59303e-05 0)
(0.00105249 -2.88875e-05 0)
(0.001 3.19285e-07 0)
(0.00100007 9.52898e-07 0)
(0.00100021 1.57839e-06 0)
(0.00100041 2.19254e-06 0)
(0.00100068 2.79211e-06 0)
(0.00100102 3.37404e-06 0)
(0.00100142 3.93549e-06 0)
(0.00100189 4.47398e-06 0)
(0.00100241 4.98733e-06 0)
(0.00100299 5.47372e-06 0)
(0.00100361 5.9316e-06 0)
(0.00100429 6.35974e-06 0)
(0.00100501 6.75712e-06 0)
(0.00100578 7.12298e-06 0)
(0.00100658 7.45673e-06 0)
(0.00100742 7.75791e-06 0)
(0.00100829 8.02615e-06 0)
(0.00100919 8.26118e-06 0)
(0.00101012 8.46271e-06 0)
(0.00101107 8.63053e-06 0)
(0.00101205 8.76436e-06 0)
(0.00101304 8.86392e-06 0)
(0.00101404 8.92887e-06 0)
(0.00101506 8.95878e-06 0)
(0.00101609 8.95318e-06 0)
(0.00101713 8.91145e-06 0)
(0.00101818 8.83294e-06 0)
(0.00101923 8.71681e-06 0)
(0.00102028 8.56221e-06 0)
(0.00102133 8.36802e-06 0)
(0.00102237 8.1332e-06 0)
(0.00102341 7.85626e-06 0)
(0.00102444 7.536e-06 0)
(0.00102547 7.17048e-06 0)
(0.00102648 6.75833e-06 0)
(0.00102747 6.29707e-06 0)
(0.00102845 5.7852e-06 0)
(0.00102941 5.2195e-06 0)
(0.00103035 4.59843e-06 0)
(0.00103126 3.91788e-06 0)
(0.00103215 3.17635e-06 0)
(0.00103301 2.36835e-06 0)
(0.00103384 1.49289e-06 0)
(0.00103464 5.43051e-07 0)
(0.0010354 -4.8119e-07 0)
(0.00103613 -1.58889e-06 0)
(0.00103682 -2.78024e-06 0)
(0.00103748 -4.0679e-06 0)
(0.00103807 -5.45069e-06 0)
(0.00103865 -6.94533e-06 0)
(0.00103914 -8.54876e-06 0)
(0.00103963 -1.02812e-05 0)
(0.00104002 -1.21388e-05 0)
(0.00104042 -1.41469e-05 0)
(0.00104068 -1.63005e-05 0)
(0.00104099 -1.86291e-05 0)
(0.00104109 -2.1129e-05 0)
(0.0010413 -2.383e-05 0)
(0.00104115 -2.67337e-05 0)
(0.00104115 -2.98588e-05 0)
(0.001 2.33255e-07 0)
(0.00100006 6.95104e-07 0)
(0.00100018 1.15023e-06 0)
(0.00100036 1.59651e-06 0)
(0.00100059 2.03179e-06 0)
(0.00100089 2.45397e-06 0)
(0.00100124 2.8611e-06 0)
(0.00100164 3.2514e-06 0)
(0.0010021 3.6233e-06 0)
(0.0010026 3.97538e-06 0)
(0.00100315 4.30646e-06 0)
(0.00100375 4.61549e-06 0)
(0.00100439 4.9016e-06 0)
(0.00100506 5.16404e-06 0)
(0.00100578 5.40221e-06 0)
(0.00100652 5.61557e-06 0)
(0.0010073 5.80367e-06 0)
(0.00100811 5.96607e-06 0)
(0.00100893 6.10243e-06 0)
(0.00100979 6.21231e-06 0)
(0.00101066 6.29539e-06 0)
(0.00101155 6.35117e-06 0)
(0.00101245 6.3793e-06 0)
(0.00101337 6.37912e-06 0)
(0.00101429 6.3502e-06 0)
(0.00101522 6.29167e-06 0)
(0.00101616 6.20303e-06 0)
(0.00101709 6.08311e-06 0)
(0.00101803 5.93139e-06 0)
(0.00101896 5.74626e-06 0)
(0.00101989 5.52722e-06 0)
(0.0010208 5.2721e-06 0)
(0.00102171 4.98054e-06 0)
(0.0010226 4.64955e-06 0)
(0.00102348 4.27917e-06 0)
(0.00102433 3.86527e-06 0)
(0.00102517 3.4086e-06 0)
(0.00102598 2.90322e-06 0)
(0.00102676 2.35107e-06 0)
(0.00102751 1.74354e-06 0)
(0.00102823 1.08511e-06 0)
(0.00102891 3.63575e-07 0)
(0.00102955 -4.12746e-07 0)
(0.00103015 -1.26215e-06 0)
(0.00103071 -2.17066e-06 0)
(0.00103122 -3.16601e-06 0)
(0.00103167 -4.22525e-06 0)
(0.00103207 -5.39042e-06 0)
(0.00103241 -6.6224e-06 0)
(0.00103269 -7.98494e-06 0)
(0.00103289 -9.41433e-06 0)
(0.00103303 -1.10082e-05 0)
(0.00103308 -1.2664e-05 0)
(0.00103307 -1.4532e-05 0)
(0.00103294 -1.64481e-05 0)
(0.00103277 -1.86446e-05 0)
(0.00103243 -2.08594e-05 0)
(0.00103206 -2.34517e-05 0)
(0.00103142 -2.60034e-05 0)
(0.00103074 -2.90685e-05 0)
(0.001 1.57953e-07 0)
(0.00100005 4.69395e-07 0)
(0.00100016 7.75132e-07 0)
(0.00100032 1.07387e-06 0)
(0.00100053 1.36427e-06 0)
(0.00100079 1.645e-06 0)
(0.0010011 1.91481e-06 0)
(0.00100146 2.17254e-06 0)
(0.00100186 2.41716e-06 0)
(0.00100231 2.64772e-06 0)
(0.00100281 2.86339e-06 0)
(0.00100334 3.06342e-06 0)
(0.00100392 3.24715e-06 0)
(0.00100452 3.414e-06 0)
(0.00100517 3.56347e-06 0)
(0.00100584 3.69508e-06 0)
(0.00100654 3.80843e-06 0)
(0.00100727 3.90308e-06 0)
(0.00100802 3.9787e-06 0)
(0.00100879 4.03482e-06 0)
(0.00100958 4.07113e-06 0)
(0.00101038 4.08709e-06 0)
(0.0010112 4.08234e-06 0)
(0.00101203 4.05619e-06 0)
(0.00101287 4.00826e-06 0)
(0.00101371 3.93761e-06 0)
(0.00101455 3.84385e-06 0)
(0.00101539 3.72574e-06 0)
(0.00101623 3.58293e-06 0)
(0.00101706 3.41374e-06 0)
(0.00101789 3.21796e-06 0)
(0.0010187 2.99323e-06 0)
(0.0010195 2.7396e-06 0)
(0.00102028 2.45367e-06 0)
(0.00102104 2.13619e-06 0)
(0.00102178 1.78248e-06 0)
(0.00102249 1.3944e-06 0)
(0.00102317 9.65222e-07 0)
(0.00102381 4.98823e-07 0)
(0.00102442 -1.46878e-08 0)
(0.00102499 -5.68329e-07 0)
(0.00102552 -1.17708e-06 0)
(0.001026 -1.82894e-06 0)
(0.00102643 -2.54692e-06 0)
(0.0010268 -3.31107e-06 0)
(0.00102711 -4.15663e-06 0)
(0.00102736 -5.04921e-06 0)
(0.00102753 -6.04312e-06 0)
(0.00102763 -7.08199e-06 0)
(0.00102765 -8.25035e-06 0)
(0.00102757 -9.45635e-06 0)
(0.00102741 -1.08324e-05 0)
(0.00102714 -1.22293e-05 0)
(0.00102677 -1.38557e-05 0)
(0.00102628 -1.54703e-05 0)
(0.00102567 -1.74025e-05 0)
(0.00102491 -1.92626e-05 0)
(0.00102401 -2.15725e-05 0)
(0.0010229 -2.37011e-05 0)
(0.00102162 -2.64761e-05 0)
(0.001 9.04327e-08 0)
(0.00100005 2.6697e-07 0)
(0.00100014 4.38614e-07 0)
(0.00100029 6.04748e-07 0)
(0.00100048 7.64691e-07 0)
(0.00100072 9.17741e-07 0)
(0.001001 1.06324e-06 0)
(0.00100133 1.20058e-06 0)
(0.0010017 1.32923e-06 0)
(0.00100211 1.44866e-06 0)
(0.00100256 1.55841e-06 0)
(0.00100305 1.65805e-06 0)
(0.00100357 1.74719e-06 0)
(0.00100413 1.82547e-06 0)
(0.00100472 1.89258e-06 0)
(0.00100533 1.9482e-06 0)
(0.00100598 1.99206e-06 0)
(0.00100665 2.02382e-06 0)
(0.00100734 2.04324e-06 0)
(0.00100804 2.04995e-06 0)
(0.00100877 2.04368e-06 0)
(0.00100951 2.02397e-06 0)
(0.00101026 1.99051e-06 0)
(0.00101102 1.94269e-06 0)
(0.00101178 1.88017e-06 0)
(0.00101255 1.8021e-06 0)
(0.00101332 1.70817e-06 0)
(0.00101409 1.59722e-06 0)
(0.00101485 1.469e-06 0)
(0.0010156 1.32196e-06 0)
(0.00101635 1.156e-06 0)
(0.00101707 9.69035e-07 0)
(0.00101778 7.61371e-07 0)
(0.00101848 5.30126e-07 0)
(0.00101914 2.76086e-07 0)
(0.00101978 -5.04145e-09 0)
(0.00102039 -3.11342e-07 0)
(0.00102097 -6.48933e-07 0)
(0.00102151 -1.01395e-06 0)
(0.001022 -1.41542e-06 0)
(0.00102245 -1.84678e-06 0)
(0.00102285 -2.32218e-06 0)
(0.0010232 -2.83005e-06 0)
(0.00102348 -3.39176e-06 0)
(0.0010237 -3.98727e-06 0)
(0.00102385 -4.64937e-06 0)
(0.00102392 -5.34478e-06 0)
(0.00102391 -6.12466e-06 0)
(0.00102381 -6.93423e-06 0)
(0.0010236 -7.85386e-06 0)
(0.0010233 -8.79398e-06 0)
(0.00102289 -9.88154e-06 0)
(0.00102235 -1.09705e-05 0)
(0.00102168 -1.22627e-05 0)
(0.00102087 -1.35203e-05 0)
(0.0010199 -1.50654e-05 0)
(0.00101877 -1.65108e-05 0)
(0.00101744 -1.8373e-05 0)
(0.00101591 -2.0019e-05 0)
(0.00101413 -2.22785e-05 0)
(0.001 2.80407e-08 0)
(0.00100005 8.00942e-08 0)
(0.00100014 1.28074e-07 0)
(0.00100027 1.71926e-07 0)
(0.00100045 2.11523e-07 0)
(0.00100067 2.4668e-07 0)
(0.00100093 2.77205e-07 0)
(0.00100124 3.02943e-07 0)
(0.00100158 3.23789e-07 0)
(0.00100197 3.39664e-07 0)
(0.00100239 3.50506e-07 0)
(0.00100285 3.56243e-07 0)
(0.00100334 3.56808e-07 0)
(0.00100386 3.52107e-07 0)
(0.00100441 3.42061e-07 0)
(0.00100499 3.26548e-07 0)
(0.00100559 3.05467e-07 0)
(0.00100622 2.78658e-07 0)
(0.00100686 2.45998e-07 0)
(0.00100752 2.07264e-07 0)
(0.0010082 1.62299e-07 0)
(0.0010089 1.10778e-07 0)
(0.0010096 5.24898e-08 0)
(0.00101031 -1.30277e-08 0)
(0.00101102 -8.60394e-08 0)
(0.00101174 -1.67179e-07 0)
(0.00101245 -2.56737e-07 0)
(0.00101316 -3.55569e-07 0)
(0.00101387 -4.63926e-07 0)
(0.00101456 -5.8296e-07 0)
(0.00101524 -7.12807e-07 0)
(0.00101591 -8.54991e-07 0)
(0.00101656 -1.00934e-06 0)
(0.00101718 -1.17791e-06 0)
(0.00101778 -1.36021e-06 0)
(0.00101835 -1.55933e-06 0)
(0.00101889 -1.77402e-06 0)
(0.00101939 -2.00881e-06 0)
(0.00101984 -2.26127e-06 0)
(0.00102025 -2.53814e-06 0)
(0.00102062 -2.83474e-06 0)
(0.00102092 -3.16086e-06 0)
(0.00102116 -3.50829e-06 0)
(0.00102134 -3.89197e-06 0)
(0.00102145 -4.29789e-06 0)
(0.00102147 -4.74913e-06 0)
(0.00102142 -5.22232e-06 0)
(0.00102127 -5.75348e-06 0)
(0.00102102 -6.304e-06 0)
(0.00102066 -6.93054e-06 0)
(0.00102018 -7.56968e-06 0)
(0.00101958 -8.31124e-06 0)
(0.00101884 -9.05141e-06 0)
(0.00101795 -9.93356e-06 0)
(0.0010169 -1.07878e-05 0)
(0.00101566 -1.18442e-05 0)
(0.00101425 -1.28245e-05 0)
(0.00101261 -1.41004e-05 0)
(0.00101076 -1.52134e-05 0)
(0.00100862 -1.6766e-05 0)
(0.001 -3.06579e-08 0)
(0.00100004 -9.57773e-08 0)
(0.00100013 -1.6427e-07 0)
(0.00100026 -2.35707e-07 0)
(0.00100043 -3.09716e-07 0)
(0.00100064 -3.85982e-07 0)
(0.00100089 -4.64216e-07 0)
(0.00100119 -5.44116e-07 0)
(0.00100152 -6.25354e-07 0)
(0.00100189 -7.076e-07 0)
(0.00100229 -7.9054e-07 0)
(0.00100273 -8.73902e-07 0)
(0.0010032 -9.57446e-07 0)
(0.0010037 -1.04098e-06 0)
(0.00100423 -1.12433e-06 0)
(0.00100479 -1.20738e-06 0)
(0.00100536 -1.29003e-06 0)
(0.00100596 -1.37222e-06 0)
(0.00100658 -1.45394e-06 0)
(0.00100722 -1.53519e-06 0)
(0.00100787 -1.61601e-06 0)
(0.00100853 -1.69654e-06 0)
(0.00100921 -1.77687e-06 0)
(0.00100988 -1.85724e-06 0)
(0.00101057 -1.93785e-06 0)
(0.00101125 -2.01905e-06 0)
(0.00101193 -2.10107e-06 0)
(0.00101261 -2.18439e-06 0)
(0.00101328 -2.26927e-06 0)
(0.00101394 -2.35632e-06 0)
(0.00101458 -2.4458e-06 0)
(0.00101521 -2.53853e-06 0)
(0.00101582 -2.6348e-06 0)
(0.0010164 -2.73574e-06 0)
(0.00101696 -2.84141e-06 0)
(0.00101749 -2.95324e-06 0)
(0.00101798 -3.07107e-06 0)
(0.00101843 -3.1969e-06 0)
(0.00101883 -3.33017e-06 0)
(0.00101919 -3.47362e-06 0)
(0.0010195 -3.62594e-06 0)
(0.00101974 -3.79099e-06 0)
(0.00101993 -3.96621e-06 0)
(0.00102004 -4.15732e-06 0)
(0.00102008 -4.35974e-06 0)
(0.00102003 -4.58205e-06 0)
(0.0010199 -4.81642e-06 0)
(0.00101966 -5.07595e-06 0)
(0.00101933 -5.3475e-06 0)
(0.00101887 -5.6514e-06 0)
(0.0010183 -5.96588e-06 0)
(0.00101758 -6.32285e-06 0)
(0.00101673 -6.68632e-06 0)
(0.0010157 -7.10722e-06 0)
(0.00101452 -7.5265e-06 0)
(0.00101313 -8.02602e-06 0)
(0.00101155 -8.50775e-06 0)
(0.00100973 -9.10416e-06 -4.57767e-38)
(0.00100768 -9.65178e-06 0)
(0.00100536 -1.03668e-05 0)
(0.001 -8.76698e-08 0)
(0.00100004 -2.66701e-07 0)
(0.00100013 -4.48486e-07 0)
(0.00100025 -6.32105e-07 0)
(0.00100042 -8.16689e-07 0)
(0.00100063 -1.00141e-06 0)
(0.00100088 -1.18547e-06 0)
(0.00100117 -1.36807e-06 0)
(0.0010015 -1.54846e-06 0)
(0.00100187 -1.72593e-06 0)
(0.00100226 -1.89986e-06 0)
(0.0010027 -2.06965e-06 0)
(0.00100316 -2.23478e-06 0)
(0.00100366 -2.39476e-06 0)
(0.00100418 -2.54916e-06 0)
(0.00100472 -2.69761e-06 0)
(0.00100529 -2.83979e-06 0)
(0.00100589 -2.97543e-06 0)
(0.0010065 -3.10434e-06 0)
(0.00100712 -3.22631e-06 0)
(0.00100776 -3.34127e-06 0)
(0.00100842 -3.4491e-06 0)
(0.00100908 -3.54983e-06 0)
(0.00100975 -3.64346e-06 0)
(0.00101042 -3.73008e-06 0)
(0.00101109 -3.80977e-06 0)
(0.00101176 -3.88273e-06 0)
(0.00101242 -3.94904e-06 0)
(0.00101308 -4.009e-06 0)
(0.00101372 -4.06269e-06 0)
(0.00101436 -4.11052e-06 0)
(0.00101497 -4.15251e-06 0)
(0.00101556 -4.18926e-06 0)
(0.00101613 -4.22064e-06 0)
(0.00101667 -4.24745e-06 0)
(0.00101718 -4.2693e-06 0)
(0.00101766 -4.28729e-06 0)
(0.00101809 -4.30063e-06 0)
(0.00101848 -4.31093e-06 0)
(0.00101882 -4.3167e-06 0)
(0.00101911 -4.32036e-06 0)
(0.00101934 -4.31928e-06 0)
(0.0010195 -4.31721e-06 0)
(0.00101959 -4.30968e-06 0)
(0.00101961 -4.30265e-06 0)
(0.00101955 -4.28861e-06 0)
(0.00101939 -4.27715e-06 0)
(0.00101913 -4.25582e-06 0)
(0.00101877 -4.24018e-06 0)
(0.0010183 -4.20976e-06 0)
(0.00101769 -4.18991e-06 0)
(0.00101696 -4.14711e-06 0)
(0.00101607 -4.12295e-06 0)
(0.00101502 -4.06217e-06 0)
(0.0010138 -4.03211e-06 0)
(0.00101239 -3.94461e-06 0)
(0.00101076 -3.91071e-06 0)
(0.00100892 -3.78592e-06 4.57767e-38)
(0.00100682 -3.75119e-06 0)
(0.00100448 -3.57176e-06 0)
(0.001 -1.45375e-07 0)
(0.00100004 -4.39505e-07 0)
(0.00100013 -7.35587e-07 0)
(0.00100026 -1.0322e-06 0)
(0.00100043 -1.32798e-06 0)
(0.00100065 -1.6216e-06 0)
(0.0010009 -1.9118e-06 0)
(0.0010012 -2.19734e-06 0)
(0.00100153 -2.47705e-06 0)
(0.0010019 -2.74986e-06 0)
(0.00100231 -3.01479e-06 0)
(0.00100275 -3.2709e-06 0)
(0.00100322 -3.51737e-06 0)
(0.00100372 -3.75343e-06 0)
(0.00100425 -3.97842e-06 0)
(0.0010048 -4.19172e-06 0)
(0.00100538 -4.39284e-06 0)
(0.00100598 -4.58129e-06 0)
(0.0010066 -4.75673e-06 0)
(0.00100724 -4.91877e-06 0)
(0.00100789 -5.06721e-06 0)
(0.00100855 -5.20175e-06 0)
(0.00100922 -5.32231e-06 0)
(0.00100989 -5.42867e-06 0)
(0.00101057 -5.52086e-06 0)
(0.00101125 -5.59868e-06 0)
(0.00101193 -5.66229e-06 0)
(0.0010126 -5.7114e-06 0)
(0.00101327 -5.74634e-06 0)
(0.00101392 -5.76666e-06 0)
(0.00101457 -5.77288e-06 0)
(0.00101519 -5.76428e-06 0)
(0.00101579 -5.74169e-06 0)
(0.00101637 -5.7039e-06 0)
(0.00101693 -5.65223e-06 0)
(0.00101745 -5.58471e-06 0)
(0.00101794 -5.50345e-06 0)
(0.00101839 -5.40522e-06 0)
(0.00101879 -5.29346e-06 0)
(0.00101915 -5.16292e-06 0)
(0.00101946 -5.01925e-06 0)
(0.00101971 -4.85398e-06 0)
(0.00101989 -4.67635e-06 0)
(0.00102001 -4.47274e-06 0)
(0.00102006 -4.25836e-06 0)
(0.00102002 -4.01123e-06 0)
(0.0010199 -3.75638e-06 0)
(0.00101968 -3.45839e-06 0)
(0.00101936 -3.15836e-06 0)
(0.00101894 -2.79889e-06 0)
(0.00101838 -2.44801e-06 0)
(0.00101771 -2.01206e-06 0)
(0.00101688 -1.60199e-06 0)
(0.00101592 -1.06939e-06 0)
(0.00101476 -5.97618e-07 0)
(0.00101346 5.82219e-08 0)
(0.00101192 5.98005e-07 0)
(0.00101022 1.41851e-06 0)
(0.00100821 2.02521e-06 0)
(0.00100603 3.06472e-06 0)
(0.001 -2.05164e-07 0)
(0.00100005 -6.18482e-07 0)
(0.00100014 -1.03284e-06 0)
(0.00100027 -1.4463e-06 0)
(0.00100045 -1.85695e-06 0)
(0.00100068 -2.26294e-06 0)
(0.00100095 -2.6625e-06 0)
(0.00100126 -3.05393e-06 0)
(0.00100161 -3.43564e-06 0)
(0.001002 -3.80618e-06 0)
(0.00100242 -4.1642e-06 0)
(0.00100288 -4.50846e-06 0)
(0.00100338 -4.83787e-06 0)
(0.0010039 -5.15139e-06 0)
(0.00100445 -5.44815e-06 0)
(0.00100503 -5.72734e-06 0)
(0.00100564 -5.98829e-06 0)
(0.00100626 -6.23036e-06 0)
(0.00100691 -6.45306e-06 0)
(0.00100757 -6.65587e-06 0)
(0.00100824 -6.83847e-06 0)
(0.00100893 -7.00044e-06 0)
(0.00100963 -7.14158e-06 0)
(0.00101033 -7.26152e-06 0)
(0.00101104 -7.36022e-06 0)
(0.00101175 -7.43726e-06 0)
(0.00101246 -7.49273e-06 0)
(0.00101316 -7.52608e-06 0)
(0.00101386 -7.53758e-06 0)
(0.00101454 -7.52641e-06 0)
(0.00101522 -7.49308e-06 0)
(0.00101588 -7.43632e-06 0)
(0.00101652 -7.35704e-06 0)
(0.00101713 -7.25327e-06 0)
(0.00101773 -7.12655e-06 0)
(0.00101829 -6.97378e-06 0)
(0.00101882 -6.7976e-06 0)
(0.00101932 -6.59308e-06 0)
(0.00101977 -6.36468e-06 0)
(0.00102018 -6.10461e-06 0)
(0.00102054 -5.82034e-06 0)
(0.00102085 -5.49952e-06 0)
(0.0010211 -5.15466e-06 0)
(0.00102129 -4.76598e-06 0)
(0.00102141 -4.35448e-06 0)
(0.00102146 -3.88837e-06 0)
(0.00102142 -3.40254e-06 0)
(0.0010213 -2.84616e-06 0)
(0.00102108 -2.27656e-06 0)
(0.00102077 -1.61224e-06 0)