/*--------------------------------*- C++ -*----------------------------------*\
| =========                 |                                                 |
| \\      /  F ield         | OpenFOAM: The Open Source CFD Toolbox           |
|  \\    /   O peration     | Version:  2312                                  |
|   \\  /    A nd           | Website:  www.openfoam.com                      |
|    \\/     M anipulation  |                                                 |
\*---------------------------------------------------------------------------*/
FoamFile
{
    version     2.0;
    format      ascii;
    arch        "LSB;label=32;scalar=64";
    class       surfaceScalarField;
    location    "173000";
    object      phi;
}
// * * * * * * * * * * * * * * * * * * * * * * * * * * * * * * * * * * * * * //

dimensions      [0 3 -1 0 0 0 0];

oriented        oriented;

internalField   nonuniform List<scalar> 
21240
(
0.000664975
1.69123e-06
0.000661075
3.89996e-06
0.000655758
5.31759e-06
0.000649525
6.23286e-06
0.000642653
6.87188e-06
0.000635284
7.36935e-06
0.000627508
7.77577e-06
0.000619404
8.1042e-06
0.000611043
8.36066e-06
0.000602489
8.55412e-06
0.000593792
8.69687e-06
0.000584991
8.80121e-06
0.000576114
8.87675e-06
0.000567184
8.92977e-06
0.00055822
8.96404e-06
0.000549238
8.98198e-06
0.000540253
8.98537e-06
0.000531277
8.97572e-06
0.000522323
8.95426e-06
0.000513401
8.92201e-06
0.000504521
8.87969e-06
0.000495694
8.82782e-06
0.000486927
8.76672e-06
0.00047823
8.6966e-06
0.000469613
8.61759e-06
0.000461083
8.52973e-06
0.00045265
8.43307e-06
0.000444322
8.32753e-06
0.000436109
8.21317e-06
0.000428019
8.0898e-06
0.000420062
7.95758e-06
0.000412246
7.81614e-06
0.00040458
7.66595e-06
0.000397073
7.50628e-06
0.000389735
7.33818e-06
0.000382575
7.16023e-06
0.0003756
6.97458e-06
0.000368822
6.77843e-06
0.000362246
6.57596e-06
0.000355884
6.36174e-06
0.000349741
6.1437e-06
0.000343829
5.91138e-06
0.00033815
5.67963e-06
0.000332721
5.42859e-06
0.000327535
5.18585e-06
0.000322621
4.91409e-06
0.000317957
4.66435e-06
0.00031359
4.36688e-06
0.000309474
4.11624e-06
0.000305692
3.78159e-06
0.000302152
3.54043e-06
0.00029901
3.14199e-06
0.000296077
2.93223e-06
0.000293676
2.40178e-06
0.000291409
2.267e-06
0.000290005
1.4033e-06
0.000288375
1.63015e-06
0.00028842
-4.45374e-08
0.000287114
1.30542e-06
-3.12256e-06
0.000290237
0.000667557
8.01097e-07
0.000669124
2.33308e-06
0.000670861
3.58068e-06
0.000672536
4.55779e-06
0.000674069
5.33882e-06
0.000675445
5.99258e-06
0.000676661
6.56071e-06
0.000677703
7.06163e-06
0.000678561
7.50237e-06
0.000679228
7.88738e-06
0.000679703
8.22224e-06
0.00067999
8.51386e-06
0.000680098
8.76921e-06
0.000680033
8.99409e-06
0.000679805
9.19278e-06
0.000679418
9.36813e-06
0.000678882
9.52222e-06
0.000678201
9.65651e-06
0.000677383
9.77237e-06
0.000676434
9.87075e-06
0.000675361
9.95265e-06
0.00067417
1.00185e-05
0.000672868
1.0069e-05
0.00067146
1.01042e-05
0.000669954
1.01245e-05
0.000668354
1.01295e-05
0.000666667
1.012e-05
0.0006649
1.00948e-05
0.000663057
1.00553e-05
0.000661148
9.99956e-06
0.000659176
9.92959e-06
0.000657149
9.84256e-06
0.000655073
9.74178e-06
0.000652957
9.62264e-06
0.000650804
9.49081e-06
0.000648626
9.33869e-06
0.000646425
9.17595e-06
0.000644213
8.98992e-06
0.000641992
8.79694e-06
0.000639778
8.57586e-06
0.000637568
8.35413e-06
0.000635383
8.09636e-06
0.000633214
7.84851e-06
0.000631091
7.55134e-06
0.000628995
7.28172e-06
0.000626969
6.94046e-06
0.000624977
6.65606e-06
0.000623081
6.26256e-06
0.000621223
5.97452e-06
0.00061949
5.51494e-06
0.000617789
5.24123e-06
0.000616238
4.69295e-06
0.000614708
4.46254e-06
0.000613318
3.79094e-06
0.000611936
3.64944e-06
0.00061053
2.80917e-06
0.00060934
2.82068e-06
0.000607508
1.78694e-06
0.000606798
2.0154e-06
8.56153e-07
0.000602819
0.000666952
5.15619e-07
0.000667823
1.46253e-06
0.000669067
2.33661e-06
0.000670497
3.12794e-06
0.000672003
3.83239e-06
0.000673538
4.45759e-06
0.000675083
5.01577e-06
0.000676627
5.51802e-06
0.000678157
5.97213e-06
0.000679661
6.38296e-06
0.000681129
6.75404e-06
0.000682555
7.08856e-06
0.000683934
7.39e-06
0.000685266
7.66176e-06
0.000686552
7.90705e-06
0.000687792
8.1284e-06
0.000688986
8.32795e-06
0.000690135
8.50715e-06
0.00069124
8.66737e-06
0.000692302
8.80941e-06
0.00069332
8.9343e-06
0.000694296
9.04234e-06
0.000695231
9.13438e-06
0.000696125
9.21025e-06
0.000696979
9.27075e-06
0.000697793
9.31518e-06
0.000698568
9.34449e-06
0.000699306
9.35741e-06
0.000700006
9.3553e-06
0.000700669
9.33609e-06
0.000701297
9.30194e-06
0.00070189
9.24967e-06
0.000702449
9.18272e-06
0.000702975
9.09624e-06
0.00070347
8.9957e-06
0.000703935
8.87375e-06
0.000704372
8.739e-06
0.000704782
8.58029e-06
0.000705168
8.411e-06
0.00070553
8.21419e-06
0.000705873
8.01042e-06
0.000706195
7.77415e-06
0.000706507
7.53653e-06
0.000706799
7.25934e-06
0.000707092
6.98917e-06
0.000707363
6.66958e-06
0.00070765
6.36904e-06
0.000707907
6.00563e-06
0.000708203
5.67795e-06
0.000708448
5.26995e-06
0.00070877
4.91946e-06
0.000708995
4.46783e-06
0.000709358
4.0997e-06
0.000709539
3.60991e-06
0.000709959
3.22948e-06
0.00071005
2.71871e-06
0.000710539
2.33109e-06
0.00071048
1.84624e-06
0.000711048
1.44703e-06
1.08725e-06
0.000710817
0.000666855
3.27475e-07
0.000667312
1.00508e-06
0.00066798
1.66922e-06
0.000668808
2.29927e-06
0.000669755
2.88604e-06
0.000670786
3.42662e-06
0.000671879
3.92256e-06
0.000673019
4.37748e-06
0.000674196
4.79526e-06
0.0006754
5.17907e-06
0.000676623
5.53137e-06
0.000677857
5.85413e-06
0.000679098
6.14925e-06
0.000680341
6.41862e-06
0.000681584
6.66416e-06
0.000682825
6.88759e-06
0.000684062
7.09048e-06
0.000685295
7.27403e-06
0.000686523
7.43933e-06
0.000687746
7.58709e-06
0.000688962
7.71806e-06
0.000690172
7.83263e-06
0.000691375
7.93134e-06
0.000692571
8.01429e-06
0.00069376
8.08186e-06
0.000694941
8.13392e-06
0.000696115
8.17072e-06
0.00069728
8.19192e-06
0.000698438
8.19773e-06
0.000699586
8.18761e-06
0.000700726
8.16179e-06
0.000701856
8.11957e-06
0.000702978
8.06121e-06
0.000704088
7.98591e-06
0.00070519
7.89393e-06
0.000706279
7.78447e-06
0.000707361
7.65771e-06
0.000708428
7.51304e-06
0.000709489
7.3503e-06
0.000710533
7.16951e-06
0.000711574
6.96957e-06
0.000712596
6.75199e-06
0.000713619
6.51359e-06
0.000714619
6.25902e-06
0.000715628
5.98075e-06
0.000716608
5.68973e-06
0.000717607
5.36987e-06
0.000718568
5.04416e-06
0.000719566
4.68039e-06
0.000720512
4.32394e-06
0.000721518
3.91304e-06
0.000722452
3.53381e-06
0.000723481
3.07146e-06
0.000724406
2.6846e-06
0.000725471
2.16467e-06
0.000726393
1.79662e-06
0.000727516
1.20822e-06
0.00072846
9.01822e-07
0.000729681
2.26174e-07
4.36663e-08
0.000730725
0.000666739
2.5465e-07
0.000666974
7.70784e-07
0.000667365
1.27839e-06
0.000667893
1.77049e-06
0.000668538
2.24119e-06
0.000669278
2.68689e-06
0.000670094
3.10611e-06
0.000670973
3.4989e-06
0.000671902
3.86606e-06
0.000672873
4.20866e-06
0.000673876
4.52769e-06
0.000674906
4.82404e-06
0.000675957
5.09855e-06
0.000677024
5.35208e-06
0.000678102
5.58554e-06
0.00067919
5.79983e-06
0.000680285
5.99581e-06
0.000681384
6.17426e-06
0.000682488
6.33579e-06
0.000683594
6.48097e-06
0.000684702
6.61018e-06
0.000685811
6.72384e-06
0.00068692
6.82209e-06
0.000688029
6.90525e-06
0.000689138
6.97326e-06
0.000690245
7.02638e-06
0.000691352
7.06432e-06
0.000692456
7.08738e-06
0.000693559
7.09494e-06
0.000694659
7.0875e-06
0.000695757
7.06402e-06
0.000696851
7.02536e-06
0.000697942
6.9699e-06
0.000699029
6.89912e-06
0.000700113
6.81049e-06
0.00070119
6.7066e-06
0.000702265
6.58346e-06
0.000703332
6.44545e-06
0.000704396
6.28628e-06
0.000705453
6.11325e-06
0.000706506
5.91633e-06
0.00070755
5.7076e-06
0.000708593
5.47099e-06
0.000709626
5.22628e-06
0.000710659
4.9477e-06
0.000711681
4.66745e-06
0.000712707
4.34409e-06
0.000713721
4.0299e-06
0.000714743
3.65809e-06
0.000715754
3.3133e-06
0.000716779
2.88754e-06
0.000717796
2.51753e-06
0.000718839
2.02845e-06
0.000719882
1.64138e-06
0.000720973
1.07335e-06
0.000722087
6.82865e-07
0.000723294
1.21263e-09
0.00072454
-3.44193e-07
0.000725894
-1.12745e-06
-1.43605e-06
0.000727373
0.000666725
1.96173e-07
0.000666903
5.92907e-07
0.000667192
9.89504e-07
0.000667583
1.37952e-06
0.000668065
1.75924e-06
0.000668626
2.12573e-06
0.000669255
2.47688e-06
0.000669943
2.81142e-06
0.00067068
3.12873e-06
0.00067146
3.4286e-06
0.000672277
3.71101e-06
0.000673125
3.97613e-06
0.000673999
4.22417e-06
0.000674896
4.45545e-06
0.000675811
4.6703e-06
0.000676742
4.86909e-06
0.000677685
5.05219e-06
0.00067864
5.21998e-06
0.000679603
5.37272e-06
0.000680573
5.51075e-06
0.000681549
5.63419e-06
0.000682529
5.74333e-06
0.000683513
5.83809e-06
0.0006845
5.91875e-06
0.000685488
5.98506e-06
0.000686477
6.03731e-06
0.000687466
6.075e-06
0.000688455
6.09854e-06
0.000689443
6.10712e-06
0.000690429
6.10136e-06
0.000691413
6.08004e-06
0.000692394
6.04416e-06
0.000693372
5.99188e-06
0.000694347
5.92488e-06
0.000695317
5.84039e-06
0.000696282
5.74113e-06
0.000697243
5.62296e-06
0.000698198
5.49024e-06
0.000699148
5.33671e-06
0.000700092
5.1693e-06
0.000701029
4.9785e-06
0.000701962
4.77523e-06
0.000702888
4.54489e-06
0.000703809
4.3047e-06
0.000704725
4.03213e-06
0.000705638
3.75417e-06
0.000706546
3.43589e-06
0.000707457
3.11963e-06
0.000708364
2.75103e-06
0.00070928
2.39673e-06
0.000710196
1.97212e-06
0.000711131
1.58255e-06
0.000712063
1.0958e-06
0.000713026
6.78301e-07
0.000713975
1.24454e-07
0.000714983
-3.25179e-07
0.000715981
-9.96597e-07
0.000717093
-1.45609e-06
0.000718214
-2.24795e-06
-2.69511e-06
0.000719473
0.000666709
1.53407e-07
0.000666837
4.64901e-07
0.000667049
7.78435e-07
0.000667338
1.08953e-06
0.000667702
1.39566e-06
0.000668133
1.69467e-06
0.000668625
1.98481e-06
0.000669172
2.26477e-06
0.000669767
2.53367e-06
0.000670404
2.79113e-06
0.00067108
3.03581e-06
0.000671788
3.26751e-06
0.000672526
3.48625e-06
0.00067329
3.69202e-06
0.000674075
3.88476e-06
0.00067488
4.06451e-06
0.000675701
4.23129e-06
0.000676535
4.3852e-06
0.000677382
4.52624e-06
0.000678238
4.65451e-06
0.000679102
4.76994e-06
0.000679973
4.87262e-06
0.000680849
4.96238e-06
0.000681728
5.03932e-06
0.00068261
5.10312e-06
0.000683494
5.15391e-06
0.000684377
5.19122e-06
0.000685261
5.21525e-06
0.000686142
5.22531e-06
0.000687022
5.22175e-06
0.000687898
5.20358e-06
0.000688771
5.17142e-06
0.000689639
5.12383e-06
0.000690502
5.06188e-06
0.000691359
4.9835e-06
0.00069221
4.89043e-06
0.000693053
4.77966e-06
0.000693889
4.65401e-06
0.000694717
4.50904e-06
0.000695537
4.34922e-06
0.000696348
4.16795e-06
0.000697151
3.97224e-06
0.000697943
3.75223e-06
0.000698729
3.51881e-06
0.000699504
3.25714e-06
0.000700274
2.98417e-06
0.000701033
2.67739e-06
0.000701789
2.36332e-06
0.000702533
2.00735e-06
0.000703279
1.65076e-06
0.000704012
1.23907e-06
0.000704758
8.36345e-07
0.000705498
3.56226e-07
0.000706274
-9.83447e-08
0.000707046
-6.47804e-07
0.000707864
-1.14322e-06
0.000708661
-1.7936e-06
0.000709543
-2.33779e-06
0.00071041
-3.11431e-06
-3.69107e-06
0.000711405
0.0006667
1.20379e-07
0.000666799
3.65419e-07
0.000666964
6.13357e-07
0.000667193
8.61083e-07
0.000667481
1.10687e-06
0.000667827
1.34915e-06
0.000668225
1.58658e-06
0.000668672
1.81799e-06
0.000669163
2.04242e-06
0.000669695
2.25906e-06
0.000670264
2.46717e-06
0.000670865
2.6662e-06
0.000671496
2.85576e-06
0.000672152
3.03558e-06
0.000672832
3.20542e-06
0.000673531
3.36508e-06
0.000674248
3.51438e-06
0.00067498
3.65318e-06
0.000675725
3.7813e-06
0.000676481
3.89864e-06
0.000677246
4.00501e-06
0.000678018
4.10033e-06
0.000678796
4.18435e-06
0.000679578
4.257e-06
0.000680363
4.31795e-06
0.00068115
4.36715e-06
0.000681937
4.40419e-06
0.000682723
4.42903e-06
0.000683508
4.44114e-06
0.000684289
4.44057e-06
0.000685066
4.4266e-06
0.000685838
4.39939e-06
0.000686604
4.35802e-06
0.000687363
4.30282e-06
0.000688114
4.23254e-06
0.000688856
4.14784e-06
0.000689589
4.04698e-06
0.000690312
3.93107e-06
0.000691023
3.79769e-06
0.000691724
3.64867e-06
0.000692411
3.48059e-06
0.000693087
3.2963e-06
0.000693748
3.09094e-06
0.000694398
2.86893e-06
0.000695032
2.62326e-06
0.000695656
2.36069e-06
0.000696262
2.07096e-06
0.000696861
1.76451e-06
0.000697442
1.42609e-06
0.000698021
1.0722e-06
0.00069858
6.80213e-07
0.000699139
2.76996e-07
0.00069967
-1.75387e-07
0.000700217
-6.44739e-07
0.000700746
-1.17656e-06
0.000701308
-1.70563e-06
0.000701839
-2.32441e-06
0.000702423
-2.92152e-06
0.000702955
-3.64678e-06
-4.3122e-06
0.000703576
0.000666694
9.32956e-08
0.000666775
2.84113e-07
0.00066691
4.78326e-07
0.000667097
6.73693e-07
0.000667335
8.68994e-07
0.000667621
1.06309e-06
0.000667953
1.25493e-06
0.000668328
1.44355e-06
0.000668742
1.6281e-06
0.000669193
1.80783e-06
0.000669678
1.98209e-06
0.000670194
2.15028e-06
0.000670738
2.31192e-06
0.000671307
2.46658e-06
0.000671898
2.61388e-06
0.00067251
2.75349e-06
0.000673139
2.8851e-06
0.000673784
3.00844e-06
0.000674442
3.12322e-06
0.000675112
3.2292e-06
0.00067579
3.3261e-06
0.000676477
3.41371e-06
0.00067717
3.49173e-06
0.000677867
3.55996e-06
0.000678567
3.61808e-06
0.000679268
3.66586e-06
0.000679969
3.70297e-06
0.000680669
3.72917e-06
0.000681366
3.74407e-06
0.000682059
3.74745e-06
0.000682747
3.73885e-06
0.000683428
3.71805e-06
0.000684102
3.68452e-06
0.000684767
3.63806e-06
0.000685421
3.57804e-06
0.000686065
3.50428e-06
0.000686696
3.41603e-06
0.000687313
3.31312e-06
0.000687916
3.19469e-06
0.000688505
3.06054e-06
0.000689075
2.90971e-06
0.00068963
2.74189e-06
0.000690165
2.55607e-06
0.000690682
2.35176e-06
0.000691177
2.12792e-06
0.000691654
1.88375e-06
0.000692107
1.61835e-06
0.000692541
1.33031e-06
0.000692948
1.01912e-06
0.000693338
6.82397e-07
0.000693698
3.20352e-07
0.000694044
-6.91194e-08
0.000694364
-4.95729e-07
0.000694675
-9.55568e-07
0.000694947
-1.44857e-06
0.000695223
-1.9815e-06
0.000695452
-2.55359e-06
0.000695702
-3.17125e-06
0.000695892
-3.83675e-06
-4.54981e-06
0.000696129
0.00066669
7.04166e-08
0.000666758
2.15515e-07
0.000666872
3.64345e-07
0.000667031
5.15272e-07
0.000667232
6.67414e-07
0.000667475
8.19933e-07
0.000667758
9.72023e-07
0.000668079
1.12293e-06
0.000668435
1.27194e-06
0.000668824
1.41842e-06
0.000669245
1.56176e-06
0.000669694
1.7014e-06
0.000670169
1.83684e-06
0.000670668
1.96762e-06
0.000671188
2.0933e-06
0.000671728
2.21349e-06
0.000672285
2.32782e-06
0.000672858
2.43594e-06
0.000673444
2.53749e-06
0.000674041
2.63216e-06
0.000674647
2.71962e-06
0.000675261
2.79957e-06
0.000675881
2.8717e-06
0.000676506
2.93568e-06
0.000677133
2.99123e-06
0.00067776
3.03801e-06
0.000678388
3.07571e-06
0.000679013
3.104e-06
0.000679634
3.12255e-06
0.000680251
3.13099e-06
0.000680861
3.12902e-06
0.000681462
3.11618e-06
0.000682055
3.09223e-06
0.000682636
3.05659e-06
0.000683205
3.00909e-06
0.000683761
2.94897e-06
0.0006843
2.87622e-06
0.000684824
2.78976e-06
0.000685329
2.68986e-06
0.000685814
2.57493e-06
0.000686278
2.44574e-06
0.00068672
2.29987e-06
0.000687137
2.13895e-06
0.00068753
1.95917e-06
0.000687894
1.76367e-06
0.000688231
1.5464e-06
0.000688537
1.31301e-06
0.000688813
1.05386e-06
0.000689054
7.78818e-07
0.000689263
4.72743e-07
0.000689431
1.52905e-07
0.00068957
-2.08533e-07
0.000689662
-5.87938e-07
0.000689725
-1.0182e-06
0.000689733
-1.45678e-06
0.000689716
-1.9643e-06
0.000689634
-2.47174e-06
0.000689535
-3.07211e-06
0.000689355
-3.65733e-06
-4.36778e-06
0.000689173
0.000666686
5.05903e-08
0.000666746
1.561e-07
0.000666845
2.65579e-07
0.000666982
3.77859e-07
0.000667157
4.92306e-07
0.000667369
6.08303e-07
0.000667616
7.25244e-07
0.000667896
8.4254e-07
0.000668208
9.59626e-07
0.000668551
1.07596e-06
0.000668922
1.19101e-06
0.000669319
1.30429e-06
0.00066974
1.41531e-06
0.000670184
1.52364e-06
0.000670649
1.62883e-06
0.000671132
1.73049e-06
0.000671631
1.82823e-06
0.000672145
1.92165e-06
0.000672673
2.01039e-06
0.000673211
2.0941e-06
0.000673758
2.17242e-06
0.000674312
2.245e-06
0.000674873
2.31153e-06
0.000675437
2.37165e-06
0.000676003
2.42504e-06
0.000676569
2.47135e-06
0.000677135
2.51028e-06
0.000677697
2.54143e-06
0.000678255
2.56454e-06
0.000678807
2.57916e-06
0.000679351
2.58509e-06
0.000679886
2.58176e-06
0.000680409
2.56908e-06
0.000680919
2.54631e-06
0.000681415
2.51355e-06
0.000681894
2.46976e-06
0.000682355
2.41533e-06
0.000682796
2.34876e-06
0.000683215
2.27094e-06
0.00068361
2.17961e-06
0.000683979
2.07648e-06
0.000684321
1.95808e-06
0.000684633
1.82747e-06
0.000684912
1.67922e-06
0.000685157
1.51866e-06
0.000685367
1.33717e-06
0.000685536
1.14379e-06
0.000685665
9.24841e-07
0.000685748
6.95432e-07
0.000685787
4.33861e-07
0.000685775
1.65374e-07
0.000685712
-1.45763e-07
0.000685589
-4.6503e-07
0.000685413
-8.41782e-07
0.000685167
-1.21102e-06
0.000684864
-1.66123e-06
0.00068448
-2.08758e-06
0.000684037
-2.62902e-06
0.000683497
-3.11774e-06
-3.77109e-06
0.0006829
0.000666684
3.2994e-08
0.000666737
1.03369e-07
0.000666825
1.7788e-07
0.000666947
2.55739e-07
0.000667103
3.36507e-07
0.000667291
4.19746e-07
0.000667511
5.05009e-07
0.000667762
5.91851e-07
0.000668042
6.79829e-07
0.000668349
7.68504e-07
0.000668683
8.57442e-07
0.000669041
9.46212e-07
0.000669422
1.0344e-06
0.000669824
1.12159e-06
0.000670245
1.20739e-06
0.000670684
1.2914e-06
0.000671139
1.37327e-06
0.000671609
1.45259e-06
0.00067209
1.52902e-06
0.000672582
1.60218e-06
0.000673082
1.67173e-06
0.00067359
1.73731e-06
0.000674103
1.79859e-06
0.00067462
1.85522e-06
0.000675138
1.9069e-06
0.000675656
1.95324e-06
0.000676172
1.99398e-06
0.000676685
2.02871e-06
0.000677192
2.05721e-06
0.000677692
2.079e-06
0.000678183
2.09395e-06
0.000678664
2.10148e-06
0.000679131
2.10159e-06
0.000679584
2.09352e-06
0.00068002
2.07747e-06
0.000680437
2.05239e-06
0.000680834
2.01882e-06
0.000681207
1.97524e-06
0.000681556
1.92272e-06
0.000681876
1.85895e-06
0.000682167
1.78591e-06
0.000682425
1.70002e-06
0.000682648
1.60473e-06
0.000682833
1.49442e-06
0.000682976
1.3749e-06
0.000683076
1.23729e-06
0.000683129
1.09127e-06
0.000683131
9.22725e-07
0.000683079
7.47596e-07
0.000682969
5.43519e-07
0.000682798
3.3666e-07
0.00068256
9.21806e-08
0.000682245
-1.50025e-07
0.000681854
-4.50766e-07
0.000681379
-7.36203e-07
0.000680817
-1.09945e-06
0.000680158
-1.42885e-06
0.0006794
-1.87089e-06
0.000678529
-2.24632e-06
-2.78763e-06
0.000677545
0.000666683
1.69973e-08
0.000666731
5.53952e-08
0.00066681
9.80394e-08
0.000666922
1.44473e-07
0.000667064
1.94417e-07
0.000667236
2.47582e-07
0.000667437
3.03658e-07
0.000667667
3.62327e-07
0.000667923
4.2326e-07
0.000668206
4.86121e-07
0.000668513
5.50564e-07
0.000668843
6.16237e-07
0.000669194
6.8279e-07
0.000669566
7.49871e-07
0.000669956
8.17134e-07
0.000670363
8.84228e-07
0.000670786
9.50809e-07
0.000671222
1.01652e-06
0.00067167
1.08103e-06
0.000672128
1.14398e-06
0.000672595
1.20504e-06
0.000673068
1.26387e-06
0.000673547
1.32017e-06
0.000674028
1.37359e-06
0.000674511
1.42385e-06
0.000674994
1.47059e-06
0.000675474
1.51356e-06
0.000675951
1.55237e-06
0.000676421
1.58685e-06
0.000676884
1.61655e-06
0.000677336
1.64137e-06
0.000677777
1.6608e-06
0.000678204
1.67485e-06
0.000678614
1.6829e-06
0.000679007
1.68511e-06
0.000679378
1.68064e-06
0.000679727
1.66996e-06
0.000680051
1.65184e-06
0.000680346
1.62722e-06
0.000680611
1.59424e-06
0.000680842
1.55458e-06
0.000681037
1.50537e-06
0.000681192
1.44951e-06
0.000681304
1.38248e-06
0.00068137
1.30913e-06
0.000681385
1.2223e-06
0.000681346
1.12999e-06
0.000681248
1.02082e-06
0.000681088
9.07853e-07
0.000680858
7.72944e-07
0.000680558
6.37301e-07
0.000680178
4.71996e-07
0.000679716
3.11403e-07
0.000679155
1.10763e-07
0.000678492
-7.37959e-08
0.000677718
-3.25274e-07
0.000676833
-5.44119e-07
0.000675814
-8.51343e-07
0.000674667
-1.0996e-06
-1.4801e-06
0.00067336
0.000666682
2.06621e-09
0.000666726
1.05821e-08
0.000666801
2.33982e-08
0.000666905
4.03633e-08
0.000667038
6.1343e-08
0.0006672
8.61793e-08
0.000667389
1.1469e-07
0.000667604
1.46671e-07
0.000667846
1.81902e-07
0.000668112
2.20141e-07
0.000668401
2.61128e-07
0.000668713
3.046e-07
0.000669045
3.50282e-07
0.000669397
3.97886e-07
0.000669767
4.47125e-07
0.000670154
4.977e-07
0.000670555
5.49314e-07
0.00067097
6.01656e-07
0.000671397
6.5442e-07
0.000671833
7.07289e-07
0.000672278
7.59965e-07
0.00067273
8.12135e-07
0.000673187
8.63513e-07
0.000673647
9.1379e-07
0.000674108
9.62703e-07
0.000674568
1.00995e-06
0.000675027
1.0553e-06
0.000675481
1.09843e-06
0.000675928
1.13916e-06
0.000676368
1.17716e-06
0.000676797
1.2123e-06
0.000677213
1.24423e-06
0.000677615
1.2729e-06
0.000678
1.29791e-06
0.000678366
1.31934e-06
0.00067871
1.33669e-06
0.00067903
1.35021e-06
0.000679322
1.3592e-06
0.000679585
1.36421e-06
0.000679815
1.36419e-06
0.00068001
1.36015e-06
0.000680165
1.35049e-06
0.000680277
1.33692e-06
0.000680343
1.31692e-06
0.000680359
1.29334e-06
0.000680319
1.26218e-06
0.000680221
1.22808e-06
0.000680057
1.18466e-06
0.000679825
1.13947e-06
0.000679516
1.08232e-06
0.000679128
1.0254e-06
0.000678647
9.52462e-07
0.000678076
8.83188e-07
0.000677395
7.91464e-07
0.000676613
7.08438e-07
0.000675695
5.92411e-07
0.000674656
4.94883e-07
0.000673454
3.50218e-07
0.000672114
2.40381e-07
6.12554e-08
0.000670573
0.000666681
-1.23089e-08
0.000666724
-3.25863e-08
0.000666796
-4.84461e-08
0.000666896
-5.9883e-08
0.000667025
-6.6888e-08
0.00066718
-6.94797e-08
0.000667363
-6.77542e-08
0.000667571
-6.17587e-08
0.000667805
-5.16127e-08
0.000668062
-3.74107e-08
0.000668343
-1.94553e-08
0.000668645
2.17298e-09
0.000668968
2.7266e-08
0.00066931
5.56034e-08
0.000669671
8.69562e-08
0.000670047
1.21081e-07
0.000670439
1.57724e-07
0.000670844
1.96624e-07
0.000671261
2.37521e-07
0.000671688
2.80153e-07
0.000672124
3.2426e-07
0.000672566
3.69564e-07
0.000673014
4.15817e-07
0.000673465
4.6276e-07
0.000673917
5.10139e-07
0.00067437
5.57714e-07
0.00067482
6.05259e-07
0.000675266
6.52563e-07
0.000675705
6.99431e-07
0.000676137
7.45674e-07
0.000676558
7.91123e-07
0.000676967
8.35623e-07
0.00067736
8.79042e-07
0.000677737
9.21245e-07
0.000678094
9.62157e-07
0.000678429
1.0017e-06
0.00067874
1.03986e-06
0.000679022
1.07658e-06
0.000679275
1.1119e-06
0.000679493
1.14576e-06
0.000679675
1.17831e-06
0.000679816
1.20947e-06
0.000679913
1.23948e-06
0.000679962
1.26825e-06
0.000679959
1.29613e-06
0.000679898
1.32295e-06
0.000679777
1.34923e-06
0.000679587
1.37467e-06
0.000679327
1.4e-06
0.000678984
1.42473e-06
0.00067856
1.44986e-06
0.000678038
1.47466e-06
0.00067742
1.50038e-06
0.000676686
1.52598e-06
0.000675841
1.55301e-06
0.000674853
1.58036e-06
0.000673739
1.60965e-06
0.000672449
1.63993e-06
0.000671017
1.67219e-06
1.70631e-06
0.000669372
0.000666681
-2.65271e-08
0.000666724
-7.5225e-08
0.000666795
-1.19596e-07
0.000666894
-1.59294e-07
0.000667021
-1.94183e-07
0.000667176
-2.24172e-07
0.000667358
-2.49201e-07
0.000667565
-2.69233e-07
0.000667798
-2.84264e-07
0.000668055
-2.94327e-07
0.000668335
-2.99503e-07
0.000668637
-2.99894e-07
0.00066896
-2.95642e-07
0.000669302
-2.86873e-07
0.000669663
-2.73716e-07
0.00067004
-2.56381e-07
0.000670433
-2.35065e-07
0.00067084
-2.09961e-07
0.000671258
-1.81309e-07
0.000671688
-1.49386e-07
0.000672126
-1.14192e-07
0.000672572
-7.62734e-08
0.000673024
-3.55827e-08
0.000673479
7.53181e-09
0.000673936
5.28453e-08
0.000674394
1.00232e-07
0.000674849
1.49472e-07
0.000675302
2.00436e-07
0.000675748
2.52912e-07
0.000676187
3.06861e-07
0.000676616
3.62088e-07
0.000677033
4.18633e-07
0.000677436
4.76291e-07
0.000677822
5.35209e-07
0.000678189
5.95139e-07
0.000678534
6.56404e-07
0.000678855
7.1873e-07
0.000679149
7.82712e-07
0.000679413
8.47881e-07
0.000679644
9.1516e-07
0.000679838
9.83849e-07
0.000679992
1.05541e-06
0.000680103
1.12862e-06
0.000680166
1.20574e-06
0.000680177
1.28473e-06
0.000680131
1.36913e-06
0.000680024
1.45548e-06
0.00067985
1.54936e-06
0.000679605
1.64496e-06
0.000679278
1.75113e-06
0.00067887
1.85815e-06
0.000678365
1.98022e-06
0.000677764
2.10104e-06
0.000677046
2.24369e-06
0.000676218
2.38085e-06
0.000675248
2.55027e-06
0.000674152
2.70617e-06
0.000672881
2.91063e-06
0.000671467
3.08671e-06
3.33715e-06
0.000669836
0.000666681
-4.10041e-08
0.000666725
-1.18805e-07
0.000666798
-1.92374e-07
0.000666899
-2.61058e-07
0.00066703
-3.24575e-07
0.000667188
-3.82695e-07
0.000667374
-4.35229e-07
0.000667587
-4.82027e-07
0.000667826
-5.22979e-07
0.000668089
-5.58017e-07
0.000668377
-5.87118e-07
0.000668687
-6.10295e-07
0.000669019
-6.27597e-07
0.000669372
-6.39088e-07
0.000669743
-6.44863e-07
0.000670131
-6.4504e-07
0.000670536
-6.39773e-07
0.000670955
-6.29217e-07
0.000671388
-6.13554e-07
0.000671831
-5.92949e-07
0.000672285
-5.67598e-07
0.000672746
-5.37679e-07
0.000673214
-5.03394e-07
0.000673686
-4.649e-07
0.000674161
-4.22423e-07
0.000674638
-3.76071e-07
0.000675113
-3.26016e-07
0.000675586
-2.72279e-07
0.000676054
-2.15216e-07
0.000676516
-1.54577e-07
0.000676968
-9.07329e-08
0.00067741
-2.32217e-08
0.000677839
4.77088e-08
0.000678252
1.22032e-07
0.000678647
1.99693e-07
0.000679022
2.814e-07
0.000679375
3.66595e-07
0.000679701
4.56395e-07
0.000679999
5.49902e-07
0.000680265
6.48807e-07
0.000680497
7.51849e-07
0.000680691
8.61673e-07
0.000680844
9.75995e-07
0.00068095
1.0989e-06
0.000681009
1.22661e-06
0.000681012
1.36547e-06
0.000680959
1.50912e-06
0.00068084
1.66754e-06
0.000680655
1.83018e-06
0.000680393
2.01283e-06
0.000680054
2.19801e-06
0.000679623
2.41094e-06
0.000679101
2.62264e-06
0.000678471
2.87377e-06
0.000677736
3.11623e-06
0.00067687
3.4161e-06
0.000675883
3.69338e-06
0.000674737
4.05605e-06
0.000673453
4.37064e-06
4.81433e-06
0.000671976
0.000666682
-5.62549e-08
0.000666728
-1.64757e-07
0.000666805
-2.69148e-07
0.000666912
-3.6845e-07
0.00066705
-4.62218e-07
0.000667217
-5.50068e-07
0.000667413
-6.31673e-07
0.000667638
-7.06755e-07
0.00066789
-7.75091e-07
0.000668169
-8.36504e-07
0.000668473
-8.90875e-07
0.0006688
-9.38123e-07
0.000669151
-9.78217e-07
0.000669523
-1.01116e-06
0.000669915
-1.03698e-06
0.000670326
-1.05575e-06
0.000670754
-1.06758e-06
0.000671197
-1.07257e-06
0.000671654
-1.07088e-06
0.000672124
-1.06265e-06
0.000672605
-1.04806e-06
0.000673094
-1.02723e-06
0.000673591
-1.00036e-06
0.000674094
-9.67555e-07
0.0006746
-9.28986e-07
0.000675109
-8.84716e-07
0.000675618
-8.34935e-07
0.000676125
-7.79641e-07
0.000676629
-7.19025e-07
0.000677127
-6.52949e-07
0.000677618
-5.81623e-07
0.0006781
-5.04755e-07
0.00067857
-4.22604e-07
0.000679027
-3.34676e-07
0.000679468
-2.41393e-07
0.000679891
-1.41839e-07
0.000680295
-3.67955e-08
0.000680674
7.69343e-08
0.000681028
1.96217e-07
0.000681353
3.2389e-07
0.000681646
4.58524e-07
0.000681905
6.03062e-07
0.000682126
7.5492e-07
0.000682305
9.19076e-07
0.000682441
1.09128e-06
0.000682527
1.27895e-06
0.000682562
1.47489e-06
0.000682538
1.69075e-06
0.000682454
1.91453e-06
0.000682302
2.1646e-06
0.000682079
2.42101e-06
0.000681777
2.71302e-06
0.000681392
3.00754e-06
0.000680914
3.35155e-06
0.000680341
3.69017e-06
0.000679657
4.09948e-06
0.000678862
4.48819e-06
0.000677938
4.98035e-06
0.000676885
5.42355e-06
6.02081e-06
0.000675679
0.000666683
-7.28126e-08
0.000666733
-2.14694e-07
0.000666817
-3.52616e-07
0.000666933
-4.85225e-07
0.000667083
-6.11882e-07
0.000667265
-7.32025e-07
0.000667479
-8.45161e-07
0.000667723
-9.50864e-07
0.000667996
-1.04878e-06
0.000668298
-1.13861e-06
0.000668628
-1.22015e-06
0.000668983
-1.29324e-06
0.000669362
-1.35776e-06
0.000669765
-1.41367e-06
0.000670189
-1.46097e-06
0.000670633
-1.49968e-06
0.000671095
-1.52987e-06
0.000671574
-1.55164e-06
0.000672068
-1.56512e-06
0.000672576
-1.57043e-06
0.000673096
-1.56773e-06
0.000673626
-1.55714e-06
0.000674164
-1.53882e-06
0.00067471
-1.51288e-06
0.00067526
-1.47949e-06
0.000675814
-1.4387e-06
0.00067637
-1.39067e-06
0.000676925
-1.33536e-06
0.000677479
-1.27292e-06
0.00067803
-1.20322e-06
0.000678574
-1.12636e-06
0.000679112
-1.04207e-06
0.00067964
-9.50468e-07
0.000680156
-8.51078e-07
0.000680659
-7.44065e-07
0.000681145
-6.28658e-07
0.000681614
-5.05255e-07
0.000682064
-3.7268e-07
0.000682491
-2.31732e-07
0.000682896
-8.06048e-08
0.000683273
8.1867e-08
0.00068362
2.56173e-07
0.000683933
4.41017e-07
0.000684212
6.40754e-07
0.000684451
8.51897e-07
0.000684649
1.08077e-06
0.000684802
1.32218e-06
0.000684907
1.58581e-06
0.000684959
1.86269e-06
0.000684956
2.16785e-06
0.00068489
2.48608e-06
0.000684762
2.84117e-06
0.000684562
3.20758e-06
0.00068429
3.62348e-06
0.000683935
4.04592e-06
0.000683497
4.53674e-06
0.000682962
5.02356e-06
0.000682335
5.60748e-06
0.000681592
6.16606e-06
6.86528e-06
0.000680748
0.000666685
-9.13288e-08
0.000666741
-2.70591e-07
0.000666835
-4.46058e-07
0.000666965
-6.15918e-07
0.000667133
-7.79282e-07
0.000667336
-9.35364e-07
0.000667574
-1.08347e-06
0.000667846
-1.22299e-06
0.000668151
-1.35342e-06
0.000668487
-1.47437e-06
0.000668852
-1.58552e-06
0.000669246
-1.68665e-06
0.000669665
-1.7776e-06
0.00067011
-1.85828e-06
0.000670578
-1.92868e-06
0.000671067
-1.98881e-06
0.000671576
-2.03875e-06
0.000672103
-2.07859e-06
0.000672646
-2.10847e-06
0.000673204
-2.12851e-06
0.000673775
-2.13888e-06
0.000674358
-2.13973e-06
0.00067495
-2.1312e-06
0.000675551
-2.11343e-06
0.000676158
-2.08656e-06
0.00067677
-2.05066e-06
0.000677385
-2.00584e-06
0.000678002
-1.95211e-06
0.000678618
-1.88953e-06
0.000679233
-1.81804e-06
0.000679844
-1.73763e-06
0.000680451
-1.64813e-06
0.00068105
-1.5495e-06
0.00068164
-1.44141e-06
0.00068222
-1.32378e-06
0.000682787
-1.19612e-06
0.00068334
-1.05823e-06
0.000683877
-9.09435e-07
0.000684395
-7.49564e-07
0.000684892
-5.77693e-07
0.000685367
-3.93731e-07
0.00068582
-1.9693e-07
0.000686248
1.37461e-08
0.000686646
2.42643e-07
0.000687012
4.85839e-07
0.000687345
7.47239e-07
0.000687641
1.02637e-06
0.0006879
1.32656e-06
0.000688116
1.64714e-06
0.000688291
1.99302e-06
0.000688415
2.36195e-06
0.000688495
2.76155e-06
0.000688515
3.18699e-06
0.000688488
3.65066e-06
0.000688391
4.14243e-06
0.000688245
4.68305e-06
0.000688017
5.25218e-06
0.000687738
5.88558e-06
0.000687361
6.54336e-06
7.28746e-06
0.000686939
0.000666688
-1.12647e-07
0.000666752
-3.35002e-07
0.00066686
-5.53709e-07
0.00066701
-7.66357e-07
0.000667203
-9.71716e-07
0.000667436
-1.1687e-06
0.000667709
-1.35634e-06
0.00066802
-1.53385e-06
0.000668367
-1.70054e-06
0.000668749
-1.8559e-06
0.000669163
-1.99954e-06
0.000669607