/*--------------------------------*- C++ -*----------------------------------*\
| =========                 |                                                 |
| \\      /  F ield         | OpenFOAM: The Open Source CFD Toolbox           |
|  \\    /   O peration     | Version:  2312                                  |
|   \\  /    A nd           | Website:  www.openfoam.com                      |
|    \\/     M anipulation  |                                                 |
\*---------------------------------------------------------------------------*/
FoamFile
{
    version     2.0;
    format      ascii;
    arch        "LSB;label=32;scalar=64";
    class       surfaceScalarField;
    location    "1000";
    object      phi;
}
// * * * * * * * * * * * * * * * * * * * * * * * * * * * * * * * * * * * * * //

dimensions      [0 3 -1 0 0 0 0];

oriented        oriented;

internalField   nonuniform List<scalar> 
5250
(
0.000626695
2.79625e-10
0.000626694
2.60678e-10
0.000626694
2.22709e-10
0.000626694
2.06273e-10
0.000626694
1.919e-10
0.000626694
1.75812e-10
0.000626694
1.61244e-10
0.000626693
1.48162e-10
0.000626693
1.35647e-10
0.000626693
1.24031e-10
0.000626693
1.1343e-10
0.000626693
1.03873e-10
0.000626693
9.5143e-11
0.000626693
8.72492e-11
0.000626693
8.00106e-11
0.000626693
7.34579e-11
0.000626692
6.74266e-11
0.000626692
6.19688e-11
0.000626692
5.69359e-11
0.000626692
5.23948e-11
0.000626692
4.82071e-11
0.000626692
4.44501e-11
0.000626692
4.0991e-11
0.000626692
3.79121e-11
0.000626692
3.50837e-11
0.000626692
3.25921e-11
0.000626692
3.03079e-11
0.000626692
2.83188e-11
0.000626692
2.64955e-11
0.000626692
2.49281e-11
0.000626692
2.34862e-11
0.000626692
2.22613e-11
0.000626692
2.11223e-11
0.000626692
2.01634e-11
0.000626692
1.92525e-11
0.000626692
1.84858e-11
0.000626692
1.77309e-11
0.000626692
1.70881e-11
0.000626692
1.64252e-11
0.000626692
1.58466e-11
0.000626692
1.52212e-11
0.000626692
1.46597e-11
0.000626692
1.4033e-11
0.000626692
1.34572e-11
0.000626692
1.28057e-11
0.000626692
1.22011e-11
0.000626692
1.15195e-11
0.000626692
1.08889e-11
0.000626692
1.01893e-11
0.000626692
9.55434e-12
0.000626692
8.86707e-12
0.000626692
8.26108e-12
0.000626692
7.62042e-12
0.000626692
7.06272e-12
0.000626692
6.41086e-12
0.000626692
5.99873e-12
0.000626692
5.59917e-12
0.000626692
5.33532e-12
0.000626692
5.09947e-12
0.000626692
5.02099e-12
0.000626692
4.9874e-12
0.000626692
5.121e-12
0.000626692
5.30702e-12
0.000626692
5.66296e-12
0.000626692
6.07073e-12
0.000626692
6.64268e-12
0.000626692
7.2576e-12
0.000626692
8.02118e-12
0.000626692
8.81183e-12
0.000626692
9.78088e-12
0.000626691
1.07539e-11
0.000626691
1.18193e-11
0.000626691
1.28283e-11
0.000626691
1.39138e-11
0.000626691
1.48517e-11
0.000626691
1.59895e-11
0.000626691
1.6429e-11
0.000626691
1.85797e-11
0.000626691
1.55509e-11
0.000626691
2.62968e-11
0.000626691
3.28544e-12
0.000626691
5.84371e-11
0.000626691
-4.24771e-11
0.000626691
1.11182e-10
0.000626691
-2.23145e-11
0.000626691
-2.73639e-11
0.000626691
2.26093e-10
0.000626691
-2.29511e-11
5.77784e-11
0.000668852
5.49317e-10
0.000668851
5.06376e-10
0.000668851
4.49469e-10
0.000668851
4.02844e-10
0.000668851
3.69597e-10
0.000668851
3.40509e-10
0.00066885
3.12095e-10
0.00066885
2.85694e-10
0.00066885
2.61587e-10
0.00066885
2.39605e-10
0.00066885
2.19412e-10
0.00066885
2.01005e-10
0.00066885
1.84123e-10
0.00066885
1.68766e-10
0.00066885
1.54681e-10
0.00066885
1.41887e-10
0.000668849
1.30146e-10
0.000668849
1.19498e-10
0.000668849
1.09722e-10
0.000668849
1.00874e-10
0.000668849
9.27476e-11
0.000668849
8.54144e-11
0.000668849
7.86788e-11
0.000668849
7.26241e-11
0.000668849
6.7063e-11
0.000668849
6.20874e-11
0.000668849
5.75168e-11
0.000668849
5.34491e-11
0.000668849
4.97085e-11
0.000668849
4.63986e-11
0.000668849
4.33472e-11
0.000668849
4.06628e-11
0.000668849
3.81759e-11
0.000668849
3.60001e-11
0.000668849
3.3967e-11
0.000668849
3.2196e-11
0.000668849
3.05186e-11
0.000668849
2.90605e-11
0.000668849
2.76539e-11
0.000668849
2.64311e-11
0.000668849
2.52255e-11
0.000668849
2.41767e-11
0.000668849
2.3121e-11
0.000668849
2.22063e-11
0.000668849
2.12704e-11
0.000668849
2.04618e-11
0.000668849
1.96133e-11
0.000668849
1.88831e-11
0.000668849
1.81143e-11
0.000668849
1.74697e-11
0.000668849
1.67956e-11
0.000668849
1.62578e-11
0.000668849
1.5706e-11
0.000668849
1.53085e-11
0.000668849
1.49192e-11
0.000668849
1.47018e-11
0.000668849
1.45046e-11
0.000668849
1.449e-11
0.000668849
1.45074e-11
0.000668849
1.47201e-11
0.000668849
1.49796e-11
0.000668849
1.54455e-11
0.000668849
1.59671e-11
0.000668849
1.67001e-11
0.000668849
1.74913e-11
0.000668849
1.8494e-11
0.000668849
1.9552e-11
0.000668849
2.08174e-11
0.000668849
2.21279e-11
0.000668849
2.36318e-11
0.000668849
2.51619e-11
0.000668849
2.68756e-11
0.000668848
2.85987e-11
0.000668848
3.05148e-11
0.000668848
3.24214e-11
0.000668848
3.45603e-11
0.000668848
3.65649e-11
0.000668848
3.91748e-11
0.000668848
4.07516e-11
0.000668848
4.54084e-11
0.000668848
4.39572e-11
0.000668848
5.59597e-11
0.000668848
4.67226e-11
0.000668848
6.73669e-11
0.000668848
6.80854e-11
0.000668848
6.47841e-11
0.000668848
1.0483e-10
0.000668848
1.01703e-10
1.30204e-10
0.000669569
7.86458e-10
0.000669569
7.25898e-10
0.000669568
6.60696e-10
0.000669568
5.92437e-10
0.000669568
5.3874e-10
0.000669568
4.95114e-10
0.000669568
4.53847e-10
0.000669568
4.14907e-10
0.000669567
3.79398e-10
0.000669567
3.47152e-10
0.000669567
3.17708e-10
0.000669567
2.90842e-10
0.000669567
2.66323e-10
0.000669567
2.43979e-10
0.000669567
2.23588e-10
0.000669567
2.05007e-10
0.000669567
1.88047e-10
0.000669567
1.72598e-10
0.000669567
1.58496e-10
0.000669567
1.45657e-10
0.000669567
1.33942e-10
0.000669567
1.23286e-10
0.000669567
1.13568e-10
0.000669567
1.04739e-10
0.000669566
9.66928e-11
0.000669566
8.93949e-11
0.000669566
8.27485e-11
0.000669566
7.67308e-11
0.000669566
7.12542e-11
0.000669566
6.63048e-11
0.000669566
6.18018e-11
0.000669566
5.77396e-11
0.000669566
5.40434e-11
0.000669566
5.07139e-11
0.000669566
4.7681e-11
0.000669566
4.49516e-11
0.000669566
4.24603e-11
0.000669566
4.02191e-11
0.000669566
3.81662e-11
0.000669566
3.63194e-11
0.000669566
3.46211e-11
0.000669566
3.3094e-11
0.000669566
3.1684e-11
0.000669566
3.04192e-11
0.000669566
2.92491e-11
0.000669566
2.82059e-11
0.000669566
2.72419e-11
0.000669566
2.63946e-11
0.000669566
2.56211e-11
0.000669566
2.49627e-11
0.000669566
2.43789e-11
0.000669566
2.39144e-11
0.000669566
2.353e-11
0.000669566
2.3272e-11
0.000669566
2.31014e-11
0.000669566
2.30644e-11
0.000669566
2.31294e-11
0.000669566
2.33435e-11
0.000669566
2.36707e-11
0.000669566
2.41542e-11
0.000669566
2.47581e-11
0.000669566
2.55249e-11
0.000669566
2.64182e-11
0.000669566
2.74797e-11
0.000669566
2.86723e-11
0.000669566
3.00366e-11
0.000669566
3.15322e-11
0.000669566
3.32018e-11
0.000669566
3.5002e-11
0.000669566
3.69784e-11
0.000669566
3.90932e-11
0.000669566
4.13907e-11
0.000669566
4.382e-11
0.000669566
4.64394e-11
0.000669566
4.92022e-11
0.000669566
5.21891e-11
0.000669566
5.5336e-11
0.000669566
5.88126e-11
0.000669566
6.23881e-11
0.000669566
6.67158e-11
0.000669566
7.0689e-11
0.000669566
7.70657e-11
0.000669566
8.24737e-11
0.000669566
9.05393e-11
0.000669566
9.99831e-11
0.000669566
1.099e-10
0.000669566
1.16173e-10
0.000669566
1.40713e-10
1.5247e-10
0.000669577
9.97461e-10
0.000669576
9.21369e-10
0.000669576
8.41904e-10
0.000669576
7.57884e-10
0.000669576
6.87962e-10
0.000669576
6.30289e-10
0.000669576
5.77108e-10
0.000669576
5.2743e-10
0.000669576
4.82171e-10
0.000669575
4.41083e-10
0.000669575
4.03642e-10
0.000669575
3.69472e-10
0.000669575
3.3832e-10
0.000669575
3.09907e-10
0.000669575
2.84008e-10
0.000669575
2.60385e-10
0.000669575
2.38855e-10
0.000669575
2.19218e-10
0.000669575
2.01324e-10
0.000669575
1.85005e-10
0.000669575
1.70142e-10
0.000669575
1.56591e-10
0.000669575
1.44256e-10
0.000669575
1.33014e-10
0.000669575
1.2279e-10
0.000669575
1.13477e-10
0.000669575
1.05016e-10
0.000669575
9.73136e-11
0.000669575
9.03232e-11
0.000669575
8.39652e-11
0.000669575
7.82017e-11
0.000669575
7.29632e-11
0.000669575
6.82212e-11
0.000669574
6.39139e-11
0.000669574
6.00202e-11
0.000669574
5.64853e-11
0.000669574
5.3295e-11
0.000669574
5.04001e-11
0.000669574
4.77922e-11
0.000669574
4.54275e-11
0.000669574
4.33031e-11
0.000669574
4.13803e-11
0.000669574
3.96609e-11
0.000669574
3.81106e-11
0.000669574
3.67365e-11
0.000669574
3.55084e-11
0.000669574
3.44369e-11
0.000669574
3.34961e-11
0.000669574
3.2701e-11
0.000669574
3.20293e-11
0.000669574
3.14989e-11
0.000669574
3.10902e-11
0.000669574
3.0824e-11
0.000669574
3.06829e-11
0.000669574
3.0689e-11
0.000669574
3.08264e-11
0.000669574
3.11184e-11
0.000669574
3.15491e-11
0.000669574
3.21407e-11
0.000669574
3.28775e-11
0.000669574
3.37823e-11
0.000669574
3.48396e-11
0.000669574
3.6072e-11
0.000669574
3.74636e-11
0.000669574
3.90369e-11
0.000669574
4.07758e-11
0.000669574
4.27028e-11
0.000669574
4.48024e-11
0.000669574
4.70979e-11
0.000669574
4.95746e-11
0.000669574
5.22562e-11
0.000669574
5.51296e-11
0.000669574
5.82208e-11
0.000669574
6.15254e-11
0.000669574
6.50767e-11
0.000669574
6.88808e-11
0.000669574
7.29807e-11
0.000669574
7.73965e-11
0.000669574
8.21909e-11
0.000669574
8.73575e-11
0.000669574
9.31647e-11
0.000669574
9.90418e-11
0.000669574
1.07244e-10
0.000669574
1.1345e-10
0.000669574
1.23479e-10
0.000669574
1.36141e-10
0.000669574
1.34182e-10
0.000669574
1.65032e-10
1.73868e-10
0.000669576
1.1701e-09
0.000669576
1.07758e-09
0.000669576
9.85739e-10
0.000669576
8.91554e-10
0.000669576
8.10091e-10
0.000669576
7.40893e-10
0.000669576
6.77732e-10
0.000669575
6.19312e-10
0.000669575
5.661e-10
0.000669575
5.1778e-10
0.000669575
4.73785e-10
0.000669575
4.33681e-10
0.000669575
3.97131e-10
0.000669575
3.63815e-10
0.000669575
3.33448e-10
0.000669575
3.05762e-10
0.000669575
2.80524e-10
0.000669575
2.57514e-10
0.000669575
2.36539e-10
0.000669575
2.17418e-10
0.000669575
1.99993e-10
0.000669575
1.84111e-10
0.000669575
1.69642e-10
0.000669575
1.56459e-10
0.000669575
1.44456e-10
0.000669575
1.33526e-10
0.000669575
1.2358e-10
0.000669575
1.14529e-10
0.000669575
1.063e-10
0.000669575
9.88179e-11
0.000669575
9.20221e-11
0.000669575
8.58497e-11
0.000669575
8.02505e-11
0.000669575
7.51714e-11
0.000669575
7.05714e-11
0.000669575
6.64056e-11
0.000669575
6.26405e-11
0.000669575
5.92382e-11
0.000669575
5.6172e-11
0.000669574
5.34102e-11
0.000669574
5.0932e-11
0.000669574
4.87112e-11
0.000669574
4.67324e-11
0.000669574
4.49744e-11
0.000669574
4.34269e-11
0.000669574
4.2073e-11
0.000669574
4.09068e-11
0.000669574
3.99157e-11
0.000669574
3.90976e-11
0.000669574
3.84435e-11
0.000669574
3.79545e-11
0.000669574
3.76246e-11
0.000669574
3.7457e-11
0.000669574
3.74481e-11
0.000669574
3.76026e-11
0.000669574
3.79183e-11
0.000669574
3.84012e-11
0.000669574
3.90503e-11
0.000669574
3.9872e-11
0.000669574
4.08659e-11
0.000669574
4.20387e-11
0.000669574
4.33904e-11
0.000669574
4.49281e-11
0.000669574
4.66524e-11
0.000669574
4.85707e-11
0.000669574
5.06844e-11
0.000669574
5.30017e-11
0.000669574
5.55245e-11
0.000669574
5.82624e-11
0.000669574
6.12187e-11
0.000669574
6.44052e-11
0.000669574
6.78279e-11
0.000669574
7.1502e-11
0.000669574
7.54381e-11
0.000669574
7.96583e-11
0.000669574
8.41797e-11
0.000669574
8.90361e-11
0.000669574
9.42424e-11
0.000669574
9.98793e-11
0.000669574
1.05848e-10
0.000669574
1.12596e-10
0.000669574
1.19047e-10
0.000669574
1.27922e-10
0.000669574
1.33958e-10
0.000669574
1.4435e-10
0.000669574
1.57513e-10
0.000669574
1.53428e-10
0.000669574
1.86435e-10
1.93729e-10
0.000669576
1.2957e-09
0.000669576
1.1898e-09
0.000669576
1.08824e-09
0.000669576
9.87731e-10
0.000669575
8.98872e-10
0.000669575
8.21583e-10
0.000669575
7.5122e-10
0.000669575
6.86528e-10
0.000669575
6.27611e-10
0.000669575
5.74074e-10
0.000669575
5.25342e-10
0.000669575
4.80947e-10
0.000669575
4.40499e-10
0.000669575
4.0364e-10
0.000669575
3.70046e-10
0.000669575
3.39423e-10
0.000669575
3.11507e-10
0.000669575
2.86056e-10
0.000669575
2.62854e-10
0.000669575
2.41703e-10
0.000669575
2.22422e-10
0.000669575
2.04848e-10
0.000669575
1.88833e-10
0.000669575
1.74241e-10
0.000669575
1.60948e-10
0.000669575
1.48841e-10
0.000669575
1.37819e-10
0.000669575
1.27787e-10
0.000669575
1.1866e-10
0.000669575
1.10361e-10
0.000669575
1.02818e-10
0.000669575
9.59672e-11
0.000669575
8.97495e-11
0.000669575
8.41113e-11
0.000669575
7.9004e-11
0.000669575
7.43827e-11
0.000669575
7.02076e-11
0.000669574
6.64415e-11
0.000669574
6.30518e-11
0.000669574
6.00081e-11
0.000669574
5.72843e-11
0.000669574
5.48558e-11
0.000669574
5.27024e-11
0.000669574
5.08048e-11
0.000669574
4.91479e-11
0.000669574
4.77171e-11
0.000669574
4.65019e-11
0.000669574
4.5492e-11
0.000669574
4.46806e-11
0.000669574
4.40611e-11
0.000669574
4.36298e-11
0.000669574
4.33829e-11
0.000669574
4.33192e-11
0.000669574
4.34373e-11
0.000669574
4.37372e-11
0.000669574
4.42197e-11
0.000669574
4.48859e-11
0.000669574
4.5738e-11
0.000669574
4.67777e-11
0.000669574
4.80084e-11
0.000669574
4.94326e-11
0.000669574
5.10545e-11
0.000669574
5.28775e-11
0.000669574
5.49067e-11
0.000669574
5.71464e-11
0.000669574
5.96029e-11
0.000669574
6.22814e-11
0.000669574
6.51896e-11
0.000669574
6.83343e-11
0.000669574
7.17246e-11
0.000669574
7.53702e-11
0.000669574
7.92824e-11
0.000669574
8.34746e-11
0.000669574
8.79612e-11
0.000669574
9.27616e-11
0.000669574
9.78931e-11
0.000669574
1.03385e-10
0.000669574
1.09243e-10
0.000669574
1.15545e-10
0.000669574
1.22152e-10
0.000669574
1.29563e-10
0.000669574
1.36502e-10
0.000669574
1.46039e-10
0.000669574
1.52254e-10
0.000669574
1.63158e-10
0.000669574
1.76822e-10
0.000669574
1.71286e-10
0.000669574
2.0671e-10
2.14591e-10
0.000669575
1.3679e-09
0.000669575
1.25373e-09
0.000669575
1.14634e-09
0.000669575
1.04281e-09
0.000669575
9.50316e-10
0.000669575
8.68632e-10
0.000669575
7.94275e-10
0.000669575
7.2613e-10
0.000669575
6.64068e-10
0.000669575
6.07631e-10
0.000669575
5.56246e-10
0.000669575
5.0943e-10
0.000669575
4.66771e-10
0.000669575
4.27892e-10
0.000669575
3.92453e-10
0.000669575
3.60145e-10
0.000669575
3.30689e-10
0.000669575
3.03831e-10
0.000669575
2.79342e-10
0.000669575
2.57015e-10
0.000669575
2.36659e-10
0.000669575
2.18102e-10
0.000669575
2.01188e-10
0.000669575
1.85773e-10
0.000669575
1.71727e-10
0.000669575
1.58933e-10
0.000669575
1.47281e-10
0.000669575
1.36674e-10
0.000669575
1.27021e-10
0.000669575
1.18242e-10
0.000669575
1.10262e-10
0.000669575
1.03013e-10
0.000669575
9.64338e-11
0.000669575
9.0469e-11
0.000669574
8.50672e-11
0.000669574
8.01826e-11
0.000669574
7.57728e-11
0.000669574
7.18e-11
0.000669574
6.82297e-11
0.000669574
6.50311e-11
0.000669574
6.21764e-11
0.000669574
5.96409e-11
0.000669574
5.7403e-11
0.000669574
5.54434e-11
0.000669574
5.37459e-11
0.000669574
5.22959e-11
0.000669574
5.1082e-11
0.000669574
5.00938e-11
0.000669574
4.93235e-11
0.000669574
4.87644e-11
0.000669574
4.84117e-11
0.000669574
4.82615e-11
0.000669574
4.83114e-11
0.000669574
4.85597e-11
0.000669574
4.90056e-11
0.000669574
4.96496e-11
0.000669574
5.04916e-11
0.000669574
5.15341e-11
0.000669574
5.27779e-11
0.000669574
5.4227e-11
0.000669574
5.58828e-11
0.000669574
5.7751e-11
0.000669574
5.9834e-11
0.000669574
6.21386e-11
0.000669574
6.46685e-11
0.000669574
6.7432e-11
0.000669574
7.04341e-11
0.000669574
7.36845e-11
0.000669574
7.71903e-11
0.000669574
8.09627e-11
0.000669574
8.50116e-11
0.000669574
8.93501e-11
0.000669574
9.39918e-11
0.000669574
9.89518e-11
0.000669574
1.04248e-10
0.000669574
1.09897e-10
0.000669574
1.15925e-10
0.000669574
1.22332e-10
0.000669574
1.29197e-10
0.000669574
1.36358e-10
0.000669574
1.44353e-10
0.000669574
1.51778e-10
0.000669574
1.61981e-10
0.000669574
1.68465e-10
0.000669574
1.80001e-10
0.000669574
1.94393e-10
0.000669574
1.87874e-10
0.000669574
2.25824e-10
2.34097e-10
0.000669575
1.38353e-09
0.000669575
1.26659e-09
0.000669575
1.1578e-09
0.000669575
1.05493e-09
0.000669575
9.62615e-10
0.000669575
8.80278e-10
0.000669575
8.05249e-10
0.000669575
7.36597e-10
0.000669575
6.74059e-10
0.000669575
6.17141e-10
0.000669575
5.6529e-10
0.000669575
5.1803e-10
0.000669575
4.74949e-10
0.000669575
4.35671e-10
0.000669575
3.99856e-10
0.000669575
3.67195e-10
0.000669575
3.37408e-10
0.000669575
3.10242e-10
0.000669575
2.85465e-10
0.000669575
2.6287e-10
0.000669575
2.42264e-10
0.000669575
2.23476e-10
0.000669575
2.06345e-10
0.000669575
1.9073e-10
0.000669575
1.76496e-10
0.000669575
1.63528e-10
0.000669575
1.51713e-10
0.000669575
1.40955e-10
0.000669574
1.31163e-10
0.000669574
1.22256e-10
0.000669574
1.14159e-10
0.000669574
1.06805e-10
0.000669574
1.00131e-10
0.000669574
9.4082e-11
0.000669574
8.86064e-11
0.000669574
8.36584e-11
0.000669574
7.91954e-11
0.000669574
7.51799e-11
0.000669574
7.15771e-11
0.000669574
6.83563e-11
0.000669574
6.54898e-11
0.000669574
6.29531e-11
0.000669574
6.07249e-11
0.000669574
5.87859e-11
0.000669574
5.71205e-11
0.000669574
5.5714e-11
0.000669574
5.45553e-11
0.000669574
5.36341e-11
0.000669574
5.29428e-11
0.000669574
5.24743e-11
0.000669574
5.22242e-11
0.000669574
5.21881e-11
0.000669574
5.23634e-11
0.000669574
5.27484e-11
0.000669574
5.33417e-11
0.000669574
5.41437e-11
0.000669574
5.51542e-11
0.000669574
5.63755e-11
0.000669574
5.78081e-11
0.000669574
5.94563e-11
0.000669574
6.13214e-11
0.000669574
6.34096e-11
0.000669574
6.57232e-11
0.000669574
6.82702e-11
0.000669574
7.10542e-11
0.000669574
7.40848e-11
0.000669574
7.73675e-11
0.000669574
8.09132e-11
0.000669574
8.47297e-11
0.000669574
8.88295e-11
0.000669574
9.32235e-11
0.000669574
9.79258e-11
0.000669574
1.0295e-10
0.000669574
1.08313e-10
0.000669574
1.14032e-10
0.000669574
1.20123e-10
0.000669574
1.26611e-10
0.000669574
1.33494e-10
0.000669574
1.40851e-10
0.000669574
1.48507e-10
0.000669574
1.57035e-10
0.000669574
1.64927e-10
0.000669574
1.7577e-10
0.000669574
1.82602e-10
0.000669574
1.94835e-10
0.000669574
2.10122e-10
0.000669574
2.0295e-10
0.000669574
2.43554e-10
2.51708e-10
0.000669574
1.34213e-09
0.000669574
1.22767e-09
0.000669574
1.12213e-09
0.000669574
1.02405e-09
0.000669574
9.35836e-10
0.000669574
8.5647e-10
0.000669574
7.84017e-10
0.000669574
7.17779e-10
0.000669574
6.5742e-10
0.000669574
6.02431e-10
0.000669574
5.52296e-10
0.000669574
5.06569e-10
0.000669574
4.64858e-10
0.000669574
4.26808e-10
0.000669574
3.92092e-10
0.000669574
3.60418e-10
0.000669574
3.31518e-10
0.000669574
3.0515e-10
0.000669574
2.81092e-10
0.000669574
2.59145e-10
0.000669574
2.39125e-10
0.000669574
2.20865e-10
0.000669574
2.04211e-10
0.000669574
1.89027e-10
0.000669574
1.75182e-10
0.000669574
1.62563e-10
0.000669574
1.51062e-10
0.000669574
1.40586e-10
0.000669574
1.31044e-10
0.000669574
1.22361e-10
0.000669574
1.14466e-10
0.000669574
1.07297e-10
0.000669574
1.00792e-10
0.000669574
9.49e-11
0.000669574
8.95701e-11
0.000669574
8.47582e-11
0.000669574
8.04229e-11
0.000669574
7.65281e-11
0.000669574
7.30402e-11
0.000669574
6.99299e-11
0.000669574
6.71704e-11
0.000669574
6.47387e-11
0.000669574
6.26142e-11
0.000669574
6.07793e-11
0.000669574
5.92188e-11
0.000669574
5.79195e-11
0.000669574
5.68708e-11
0.000669574
5.60633e-11
0.000669574
5.54897e-11
0.000669574
5.51439e-11
0.000669574
5.50211e-11
0.000669574
5.51179e-11
0.000669574
5.54312e-11
0.000669574
5.59601e-11
0.000669574
5.67025e-11
0.000669574
5.76596e-11
0.000669574
5.88304e-11
0.000669574
6.02182e-11
0.000669574
6.18227e-11
0.000669574
6.36493e-11
0.000669574
6.56986e-11
0.000669574
6.79781e-11
0.000669574
7.04899e-11
0.000669574
7.3243e-11
0.000669574
7.62411e-11
0.000669574
7.94953e-11
0.000669574
8.30113e-11
0.000669574
8.68015e-11
0.000669574
9.08742e-11
0.000669574
9.52434e-11
0.000669574
9.99204e-11
0.000669574
1.04921e-10
0.000669574
1.10259e-10
0.000669574
1.15953e-10
0.000669574
1.2202e-10
0.000669574
1.28477e-10
0.000669574
1.35351e-10
0.000669574
1.42642e-10
0.000669574
1.50434e-10
0.000669574
1.58543e-10
0.000669574
1.67585e-10
0.000669574
1.75963e-10
0.000669574
1.87499e-10
0.000669574
1.9481e-10
0.000669574
2.07885e-10
0.000669574
2.24258e-10
0.000669574
2.16637e-10
0.000669574
2.59869e-10
2.67835e-10
0.000669574
1.24573e-09
0.000669574
1.13822e-09
0.000669574
1.04054e-09
0.000669574
9.52066e-10
0.000669574
8.71998e-10
0.000669574
7.98861e-10
0.000669574
7.31912e-10
0.000669574
6.70832e-10
0.000669574
6.15172e-10
0.000669574
5.64396e-10
0.000669574
5.18052e-10
0.000669574
4.75743e-10
0.000669574
4.37118e-10
0.000669574
4.01851e-10
0.000669574
3.69653e-10
0.000669574
3.40252e-10
0.000669574
3.13413e-10
0.000669574
2.88908e-10
0.000669574
2.66542e-10
0.000669574
2.46126e-10
0.000669574
2.27497e-10
0.000669574
2.10497e-10
0.000669574
1.94989e-10
0.000669574
1.80842e-10
0.000669574
1.67941e-10
0.000669574
1.56178e-10
0.000669574
1.45456e-10
0.000669574
1.35682e-10
0.000669574
1.26779e-10
0.000669574
1.18668e-10
0.000669574
1.11288e-10
0.000669574
1.04579e-10
0.000669574
9.84955e-11
0.000669574
9.29863e-11
0.000669574
8.80115e-11
0.000669574
8.35236e-11
0.000669574
7.94901e-11
0.000669574
7.58703e-11
0.000669574
7.26403e-11
0.000669574
6.97652e-11
0.000669574
6.72285e-11
0.000669574
6.50012e-11
0.000669574
6.3073e-11
0.000669574
6.14198e-11
0.000669574
6.00368e-11
0.000669574
5.89037e-11
0.000669574
5.802e-11
0.000669574
5.73689e-11
0.000669574
5.6953e-11
0.000669574
5.67581e-11
0.000669574
5.67891e-11
0.000669574
5.70342e-11
0.000669574
5.74998e-11
0.000669574
5.81762e-11
0.000669574
5.90709e-11
0.000669574
6.01762e-11
0.000669574
6.15004e-11
0.000669574
6.30381e-11
0.000669574
6.47981e-11
0.000669574
6.67773e-11
0.000669574
6.89856e-11
0.000669574
7.14222e-11
0.000669574
7.40983e-11
0.000669574
7.70151e-11
0.000669574
8.01857e-11
0.000669574
8.36133e-11
0.000669574
8.73131e-11
0.000669574
9.12902e-11
0.000669574
9.55622e-11
0.000669574
1.00136e-10
0.000669574
1.05032e-10
0.000669574
1.1026e-10
0.000669574
1.15843e-10
0.000669574
1.21791e-10
0.000669574
1.28134e-10
0.000669574
1.34881e-10
0.000669574
1.42072e-10
0.000669574
1.49698e-10
0.000669574
1.57864e-10
0.000669574
1.66371e-10
0.000669574
1.75887e-10
0.000669574
1.84718e-10
0.000669574
1.96954e-10
0.000669574
2.04749e-10
0.000669574
2.18821e-10
0.000669574
2.36609e-10
0.000669574
2.29134e-10
0.000669574
2.7541e-10
2.8385e-10
0.000669573
1.09927e-09
0.000669573
1.00172e-09
0.000669573
9.15725e-10
0.000669573
8.42711e-10
0.000669574
7.74995e-10
0.000669574
7.1071e-10
0.000669574
6.51675e-10
0.000669574
5.98199e-10
0.000669574
5.49468e-10
0.000669574
5.04939e-10
0.000669574
4.64229e-10
0.000669574
4.27052e-10
0.000669574
3.93062e-10
0.000669574
3.62015e-10
0.000669574
3.33624e-10
0.000669574
3.07697e-10
0.000669574
2.83987e-10
0.000669574
2.62344e-10
0.000669574
2.42554e-10
0.000669574
2.24498e-10
0.000669574
2.0799e-10
0.000669574
1.92937e-10
0.000669574
1.79177e-10
0.000669574
1.66639e-10
0.000669574
1.55178e-10
0.000669574
1.44744e-10
0.000669574
1.35209e-10
0.000669574
1.26537e-10
0.000669574
1.18613e-10
0.000669574
1.11415e-10
0.000669574
1.04839e-10
0.000669574
9.88725e-11
0.000669574
9.3432e-11
0.000669574
8.85255e-11
0.000669574
8.40782e-11
0.000669574
8.00981e-11
0.000669574
7.65078e-11
0.000669574
7.33192e-11
0.000669574
7.04605e-11
0.000669574
6.79512e-11
0.000669574
6.57258e-11
0.000669574
6.38107e-11
0.000669574
6.21457e-11
0.000669574
6.07625e-11
0.000669574
5.96054e-11
0.000669574
5.871e-11
0.000669574
5.80237e-11
0.000669574
5.75858e-11
0.000669574
5.73456e-11
0.000669574
5.73452e-11
0.000669574
5.75352e-11
0.000669574
5.796e-11
0.000669574
5.8571e-11
0.000669574
5.94152e-11
0.000669574
6.04443e-11
0.000669574
6.17074e-11
0.000669574
6.31569e-11
0.000669574
6.4844e-11
0.000669574
6.67217e-11
0.000669574
6.88436e-11
0.000669574
7.11637e-11
0.000669574
7.37382e-11
0.000669574
7.65226e-11
0.000669574
7.9575e-11
0.000669574
8.28534e-11
0.000669574
8.64176e-11
0.000669574
9.02282e-11
0.000669574
9.43467e-11
0.000669574
9.87367e-11
0.000669574
1.03461e-10
0.000669574
1.08487e-10
0.000669574
1.13879e-10
0.000669574
1.19608e-10
0.000669574
1.25742e-10
0.000669574
1.32254e-10
0.000669574
1.39216e-10
0.000669574
1.46613e-10
0.000669574
1.54502e-10
0.000669574
1.6294e-10
0.000669574
1.71787e-10
0.000669574
1.81714e-10
0.000669574
1.90985e-10
0.000669574
2.03969e-10
0.000669574
2.12319e-10
0.000669574
2.27622e-10
0.000669574
2.46997e-10
0.000669574
2.39749e-10
0.000669574
2.89678e-10
3.00439e-10
0.000669573
9.11067e-10
0.000669573
8.254e-10
0.000669573
7.54951e-10
0.000669573
7.02212e-10
0.000669573
6.4926e-10
0.000669573
5.9543e-10
0.000669573
5.46589e-10
0.000669574
5.03011e-10
0.000669574
4.63233e-10
0.000669574
4.26704e-10
0.000669574
3.93288e-10
0.000669574
3.62712e-10
0.000669574
3.34744e-10
0.000669574
3.09133e-10
0.000669574
2.85707e-10
0.000669574
2.64258e-10
0.000669574
2.44647e-10
0.000669574
2.26697e-10
0.000669574
2.10292e-10
0.000669574
1.9528e-10
0.000669574
1.8157e-10
0.000669574
1.69026e-10
0.000669574
1.57578e-10
0.000669574
1.47107e-10
0.000669574
1.37557e-10
0.000669574
1.28826e-10
0.000669574
1.20871e-10
0.000669574
1.13602e-10
0.000669574
1.06986e-10
0.000669574
1.00945e-10
0.000669574
9.54551e-11
0.000669574
9.04466e-11
0.000669574
8.59014e-11
0.000669574
8.17626e-11
0.000669574
7.80361e-11
0.000669574
7.46815e-11
0.000669574
7.16976e-11
0.000669574
6.90309e-11
0.000669574
6.66845e-11
0.000669574
6.46083e-11
0.000669574
6.28148e-11
0.000669574
6.12587e-11
0.000669574
5.99598e-11
0.000669574
5.8876e-11
0.000669574
5.80322e-11
0.000669574
5.73885e-11
0.000669574
5.69738e-11
0.000669574
5.67498e-11
0.000669574
5.67478e-11
0.000669574
5.69304e-11
0.000669574
5.73304e-11
0.000669574
5.79117e-11
0.000669574
5.87084e-11
0.000669574
5.96863e-11
0.000669574
6.08797e-11
0.000669574
6.22564e-11
0.000669574
6.38509e-11
0.000669574
6.56332e-11
0.000669574
6.76382e-11
0.000669574
6.98384e-11
0.000669574
7.227e-11
0.000669574
7.49082e-11
0.000669574
7.77909e-11
0.000669574
8.08956e-11
0.000669574
8.42624e-11
0.000669574
8.78709e-11
0.000669574
9.17637e-11
0.000669574
9.5922e-11
0.000669574
1.00392e-10
0.000669574
1.05155e-10
0.000669574
1.10263e-10
0.000669574
1.15698e-10
0.000669574
1.21515e-10
0.000669574
1.27699e-10
0.000669574
1.34313e-10
0.000669574
1.4134e-10
0.000669574
1.4886e-10
0.000669574
1.56843e-10
0.000669574
1.65457e-10
0.000669574
1.7446e-10
0.000669574
1.84702e-10
0.000669574
1.94223e-10
0.000669574
2.079e-10
0.000669574
2.16599e-10
0.000669574
2.3321e-10
0.000669574
2.53816e-10
0.000669574
2.47431e-10
0.000669574
3.01281e-10
3.15802e-10
0.000669572
6.90722e-10
0.000669572
6.11243e-10
0.000669573
5.69839e-10
0.000669573
5.4145e-10
0.000669573
5.00086e-10
0.000669573
4.57113e-10
0.000669573
4.21125e-10
0.000669573
3.89454e-10
0.000669573
3.60111e-10
0.000669574
3.32988e-10
0.000669574
3.08215e-10
0.000669574
2.8548e-10
0.000669574
2.6467e-10
0.000669574
2.45526e-10
0.000669574
2.28011e-10
0.000669574
2.11894e-10
0.000669574
1.97164e-10
0.000669574
1.83608e-10
0.000669574
1.71234e-10
0.000669574
1.59842e-10
0.000669574
1.49461e-10
0.000669574
1.39899e-10
0.000669574
1.31201e-10
0.000669574
1.23185e-10
0.000669574
1.15909e-10
0.000669574
1.092e-10
0.000669574
1.03125e-10
0.000669574
9.7519e-11
0.000669574
9.24598e-11
0.000669574
8.77877e-11
0.000669574
8.35902e-11
0.000669574
7.97086e-11
0.000669574
7.62361e-11
0.000669574
7.30214e-11
0.000669574
7.0176e-11
0.000669574
6.75659e-11
0.000669574
6.53108e-11
0.000669574
6.32584e-11
0.000669574
6.15203e-11
0.000669574
5.99493e-11
0.000669574
5.86636e-11
0.000669574
5.75226e-11
0.000669574
5.66502e-11
0.000669574
5.59083e-11
0.000669574
5.5425e-11
0.000669574
5.50639e-11
0.000669574
5.49572e-11
0.000669574
5.49682e-11
0.000669574
5.52314e-11
0.000669574
5.56077e-11
0.000669574
5.62335e-11
0.000669574
5.697e-11
0.000669574
5.79583e-11
0.000669574
5.90587e-11
0.000669574
6.04142e-11
0.000669574
6.1884e-11
0.000669574
6.3613e-11
0.000669574
6.54604e-11
0.000669574
6.75731e-11
0.000669574
6.9812e-11
0.000669574
7.23254e-11
0.000669574
7.49774e-11
0.000669574
7.79181e-11
0.000669574
8.10147e-11
0.000669574
8.44186e-11
0.000669574
8.80005e-11
0.000669574
9.19127e-11
0.000669574
9.60289e-11
0.000669574
1.00504e-10
0.000669574
1.05213e-10
0.000669574
1.10316e-10
0.000669574
1.15687e-10
0.000669574
1.21493e-10
0.000669574
1.27607e-10
0.000669574
1.34204e-10
0.000669574
1.41154e-10
0.000669574
1.48653e-10
0.000669574
1.56547e-10
0.000669574
1.65139e-10
0.000669574
1.74045e-10
0.000669574
1.84326e-10
0.000669574
1.93791e-10
0.000669574
2.07847e-10
0.000669574
2.16738e-10
0.000669574
2.3436e-10
0.000669574
2.55778e-10
0.000669574
2.50103e-10
0.000669574
3.05883e-10
3.24273e-10
0.000669572
4.25961e-10
0.000669572
3.9109e-10
0.000669572
3.8462e-10
0.000669573
3.55276e-10
0.000669573
3.22212e-10
0.000669573
3.00262e-10
0.000669573
2.80889e-10
0.000669573
2.61463e-10
0.000669573
2.43547e-10
0.000669573
2.27246e-10
0.000669574
2.1237e-10
0.000669574
1.98555e-10
0.000669574
1.85854e-10
0.000669574
1.7402e-10
0.000669574
1.6315e-10
0.000669574
1.53013e-10
0.000669574
1.4373e-10
0.000669574
1.3508e-10
0.000669574
1.2719e-10
0.000669574
1.19833e-10
0.000669574
1.13147e-10
0.000669574
1.06908e-10
0.000669574
1.0126e-10
0.000669574
9.59834e-11
0.000669574
9.12291e-11
0.000669574
8.67784e-11
0.000669574
8.279e-11
0.000669574
7.90468e-11
0.000669574
7.57122e-11
0.000669574
7.2569e-11
0.000669574
6.97961e-11
0.000669574
6.71801e-11
0.000669574
6.48839e-11
0.000669574
6.27075e-11
0.000669574
6.08396e-11
0.000669574
5.90902e-11
0.000669574
5.76445e-11
0.000669574
5.62961e-11
0.000669574
5.52263e-11
0.000669574
5.42253e-11
0.000669574
5.34874e-11
0.000669574
5.28107e-11
0.000669574
5.23954e-11
0.000669574
5.20343e-11
0.000669574
5.19326e-11
0.000669574
5.18841e-11
0.000669574
5.21002e-11
0.000669574
5.23712e-11
0.000669574
5.29112e-11
0.000669574
5.35024e-11
0.000669574
5.43536e-11
0.000669574
5.52492e-11
0.000669574
5.64122e-11
0.000669574
5.76255e-11
0.000669574
5.9113e-11
0.000669574
6.06571e-11
0.000669574
6.24822e-11
0.000669574
6.43712e-11
0.000669574
6.65489e-11
0.000669574
6.87998e-11
0.000669574
7.13492e-11
0.000669574
7.39845e-11
0.000669574
7.69315e-11
0.000669574
7.99808e-11
0.000669574
8.33596e-11
0.000669574
8.68617e-11
0.000669574
9.07162e-11
0.000669574