/*--------------------------------*- C++ -*----------------------------------*\
| =========                 |                                                 |
| \\      /  F ield         | OpenFOAM: The Open Source CFD Toolbox           |
|  \\    /   O peration     | Version:  2312                                  |
|   \\  /    A nd           | Website:  www.openfoam.com                      |
|    \\/     M anipulation  |                                                 |
\*---------------------------------------------------------------------------*/
FoamFile
{
    version     2.0;
    format      ascii;
    arch        "LSB;label=32;scalar=64";
    class       volScalarField;
    location    "114000";
    object      p;
}
// * * * * * * * * * * * * * * * * * * * * * * * * * * * * * * * * * * * * * //

dimensions      [0 2 -2 0 0 0 0];

internalField   nonuniform List<scalar> 
10800
(
5.34961e-07
5.20837e-07
5.07069e-07
4.9649e-07
4.89065e-07
4.83671e-07
4.79217e-07
4.75134e-07
4.71254e-07
4.67584e-07
4.64163e-07
4.60992e-07
4.5804e-07
4.55256e-07
4.52594e-07
4.5002e-07
4.47513e-07
4.4506e-07
4.4265e-07
4.40274e-07
4.37923e-07
4.35591e-07
4.3327e-07
4.30955e-07
4.2864e-07
4.26324e-07
4.24002e-07
4.21671e-07
4.19331e-07
4.16979e-07
4.14613e-07
4.12234e-07
4.09839e-07
4.0743e-07
4.05005e-07
4.02565e-07
4.0011e-07
3.9764e-07
3.95155e-07
3.92656e-07
3.90144e-07
3.87619e-07
3.8508e-07
3.82528e-07
3.79963e-07
3.77384e-07
3.74791e-07
3.72181e-07
3.69557e-07
3.66904e-07
3.64243e-07
3.61524e-07
3.58827e-07
3.5598e-07
3.53287e-07
3.50106e-07
3.477e-07
3.43241e-07
3.42884e-07
3.32229e-07
4.86921e-07
4.85193e-07
4.82547e-07
4.7942e-07
4.76202e-07
4.73105e-07
4.70178e-07
4.67388e-07
4.64682e-07
4.62031e-07
4.59428e-07
4.56879e-07
4.5439e-07
4.51962e-07
4.49589e-07
4.4726e-07
4.44967e-07
4.42701e-07
4.40458e-07
4.38231e-07
4.36017e-07
4.33812e-07
4.31611e-07
4.29412e-07
4.27212e-07
4.25008e-07
4.22797e-07
4.20577e-07
4.18348e-07
4.16108e-07
4.13855e-07
4.11589e-07
4.0931e-07
4.07015e-07
4.04708e-07
4.02384e-07
4.00047e-07
3.97694e-07
3.9533e-07
3.92947e-07
3.90555e-07
3.88143e-07
3.85727e-07
3.83283e-07
3.80844e-07
3.78368e-07
3.7591e-07
3.73397e-07
3.70927e-07
3.68374e-07
3.65914e-07
3.63322e-07
3.60924e-07
3.58311e-07
3.56111e-07
3.53546e-07
3.51877e-07
3.49438e-07
3.48911e-07
3.46184e-07
4.78189e-07
4.77438e-07
4.76023e-07
4.7407e-07
4.71783e-07
4.69361e-07
4.66927e-07
4.64534e-07
4.62184e-07
4.59864e-07
4.57566e-07
4.55288e-07
4.53036e-07
4.50816e-07
4.48628e-07
4.46471e-07
4.44341e-07
4.42233e-07
4.40142e-07
4.38065e-07
4.35997e-07
4.33937e-07
4.31881e-07
4.29828e-07
4.27774e-07
4.25718e-07
4.23657e-07
4.21591e-07
4.19518e-07
4.17436e-07
4.15346e-07
4.13244e-07
4.11133e-07
4.0901e-07
4.06876e-07
4.04729e-07
4.02572e-07
4.004e-07
3.98219e-07
3.96022e-07
3.93818e-07
3.91595e-07
3.89368e-07
3.87119e-07
3.84871e-07
3.82595e-07
3.80329e-07
3.78027e-07
3.75749e-07
3.73422e-07
3.71144e-07
3.68798e-07
3.66542e-07
3.64187e-07
3.61988e-07
3.59638e-07
3.57547e-07
3.55207e-07
3.53264e-07
3.50842e-07
4.66463e-07
4.6603e-07
4.65243e-07
4.64151e-07
4.62825e-07
4.61334e-07
4.59737e-07
4.58072e-07
4.56361e-07
4.54614e-07
4.52838e-07
4.51038e-07
4.49221e-07
4.47392e-07
4.45557e-07
4.43719e-07
4.41879e-07
4.40036e-07
4.38192e-07
4.36346e-07
4.34496e-07
4.32643e-07
4.30785e-07
4.28923e-07
4.27055e-07
4.2518e-07
4.233e-07
4.21411e-07
4.19515e-07
4.17611e-07
4.15698e-07
4.13776e-07
4.11846e-07
4.09906e-07
4.07957e-07
4.05999e-07
4.04032e-07
4.02054e-07
4.00069e-07
3.98072e-07
3.96068e-07
3.94051e-07
3.92027e-07
3.89988e-07
3.87942e-07
3.85878e-07
3.83807e-07
3.81713e-07
3.79611e-07
3.77479e-07
3.75339e-07
3.73159e-07
3.70974e-07
3.68739e-07
3.66504e-07
3.64205e-07
3.61916e-07
3.59546e-07
3.57202e-07
3.54775e-07
4.59778e-07
4.59564e-07
4.59132e-07
4.58485e-07
4.57639e-07
4.56623e-07
4.5547e-07
4.5421e-07
4.52867e-07
4.51459e-07
4.49998e-07
4.48493e-07
4.46951e-07
4.45378e-07
4.43782e-07
4.42165e-07
4.40533e-07
4.38887e-07
4.3723e-07
4.35563e-07
4.33887e-07
4.32202e-07
4.3051e-07
4.28811e-07
4.27104e-07
4.25391e-07
4.23671e-07
4.21945e-07
4.20212e-07
4.18474e-07
4.16729e-07
4.14979e-07
4.13223e-07
4.11461e-07
4.09694e-07
4.07923e-07
4.06146e-07
4.04364e-07
4.02578e-07
4.00786e-07
3.9899e-07
3.97188e-07
3.95381e-07
3.93567e-07
3.91747e-07
3.89919e-07
3.88082e-07
3.86235e-07
3.84376e-07
3.82502e-07
3.80607e-07
3.78685e-07
3.76725e-07
3.74716e-07
3.72638e-07
3.7048e-07
3.68232e-07
3.65905e-07
3.63501e-07
3.61117e-07
4.54275e-07
4.54112e-07
4.53786e-07
4.53301e-07
4.52666e-07
4.51898e-07
4.51015e-07
4.50034e-07
4.48972e-07
4.4784e-07
4.4665e-07
4.45408e-07
4.44121e-07
4.42795e-07
4.41435e-07
4.40046e-07
4.38632e-07
4.37197e-07
4.35742e-07
4.3427e-07
4.32784e-07
4.31284e-07
4.29773e-07
4.2825e-07
4.26718e-07
4.25178e-07
4.2363e-07
4.22075e-07
4.20514e-07
4.18947e-07
4.17376e-07
4.158e-07
4.14221e-07
4.12638e-07
4.11054e-07
4.09467e-07
4.07878e-07
4.06288e-07
4.04697e-07
4.03105e-07
4.01511e-07
3.99916e-07
3.98319e-07
3.96719e-07
3.95114e-07
3.93504e-07
3.91883e-07
3.90253e-07
3.88605e-07
3.86943e-07
3.85257e-07
3.83553e-07
3.81821e-07
3.80066e-07
3.78265e-07
3.76423e-07
3.745e-07
3.7252e-07
3.7048e-07
3.68508e-07
4.49949e-07
4.49829e-07
4.49591e-07
4.49234e-07
4.48762e-07
4.48183e-07
4.47504e-07
4.46737e-07
4.45892e-07
4.44977e-07
4.44e-07
4.42969e-07
4.41889e-07
4.40765e-07
4.39601e-07
4.38404e-07
4.37175e-07
4.3592e-07
4.3464e-07
4.33339e-07
4.3202e-07
4.30684e-07
4.29334e-07
4.27971e-07
4.26598e-07
4.25215e-07
4.23824e-07
4.22426e-07
4.21023e-07
4.19616e-07
4.18206e-07
4.16794e-07
4.15381e-07
4.13968e-07
4.12556e-07
4.11147e-07
4.09739e-07
4.08336e-07
4.06936e-07
4.05541e-07
4.0415e-07
4.02765e-07
4.01385e-07
4.0001e-07
3.9864e-07
3.97275e-07
3.95913e-07
3.94554e-07
3.93194e-07
3.9183e-07
3.90451e-07
3.89055e-07
3.87629e-07
3.86179e-07
3.84692e-07
3.8318e-07
3.81623e-07
3.80043e-07
3.7844e-07
3.76927e-07
4.4652e-07
4.46427e-07
4.46241e-07
4.45961e-07
4.45589e-07
4.45128e-07
4.44583e-07
4.4396e-07
4.43267e-07
4.42508e-07
4.4169e-07
4.40818e-07
4.39896e-07
4.38931e-07
4.37925e-07
4.36884e-07
4.3581e-07
4.34708e-07
4.3358e-07
4.3243e-07
4.31259e-07
4.30071e-07
4.28868e-07
4.27652e-07
4.26424e-07
4.25187e-07
4.23943e-07
4.22694e-07
4.2144e-07
4.20184e-07
4.18927e-07
4.17671e-07
4.16417e-07
4.15166e-07
4.1392e-07
4.12681e-07
4.11448e-07
4.10225e-07
4.09011e-07
4.07807e-07
4.06615e-07
4.05436e-07
4.04269e-07
4.03115e-07
4.01974e-07
4.00845e-07
3.99728e-07
3.98624e-07
3.97531e-07
3.9645e-07
3.95377e-07
3.94313e-07
3.93244e-07
3.92172e-07
3.91086e-07
3.89995e-07
3.88889e-07
3.87795e-07
3.86719e-07
3.85766e-07
4.43781e-07
4.43705e-07
4.43553e-07
4.43324e-07
4.43018e-07
4.42638e-07
4.42186e-07
4.41667e-07
4.41085e-07
4.40444e-07
4.39749e-07
4.39003e-07
4.3821e-07
4.37375e-07
4.36501e-07
4.35592e-07
4.34651e-07
4.33681e-07
4.32685e-07
4.31667e-07
4.30628e-07
4.29572e-07
4.285e-07
4.27416e-07
4.26321e-07
4.25217e-07
4.24108e-07
4.22993e-07
4.21877e-07
4.2076e-07
4.19645e-07
4.18534e-07
4.17427e-07
4.16328e-07
4.15238e-07
4.14159e-07
4.13092e-07
4.12039e-07
4.11003e-07
4.09984e-07
4.08984e-07
4.08005e-07
4.07048e-07
4.06115e-07
4.05206e-07
4.04324e-07
4.03468e-07
4.02639e-07
4.01837e-07
4.0106e-07
4.00306e-07
3.9958e-07
3.98876e-07
3.982e-07
3.97544e-07
3.96916e-07
3.96308e-07
3.95744e-07
3.95234e-07
3.94867e-07
4.41607e-07
4.41543e-07
4.41414e-07
4.41221e-07
4.40962e-07
4.40639e-07
4.40255e-07
4.39813e-07
4.39314e-07
4.38762e-07
4.38161e-07
4.37514e-07
4.36823e-07
4.36093e-07
4.35326e-07
4.34524e-07
4.33693e-07
4.32833e-07
4.31948e-07
4.31041e-07
4.30115e-07
4.29171e-07
4.28213e-07
4.27243e-07
4.26264e-07
4.25277e-07
4.24285e-07
4.23291e-07
4.22296e-07
4.21303e-07
4.20315e-07
4.19333e-07
4.18359e-07
4.17397e-07
4.16448e-07
4.15515e-07
4.14599e-07
4.13704e-07
4.12831e-07
4.11983e-07
4.11162e-07
4.1037e-07
4.0961e-07
4.08885e-07
4.08195e-07
4.07545e-07
4.06936e-07
4.0637e-07
4.05845e-07
4.05367e-07
4.04936e-07
4.04557e-07
4.04229e-07
4.03956e-07
4.03737e-07
4.0358e-07
4.03483e-07
4.03466e-07
4.03543e-07
4.03789e-07
4.39908e-07
4.39852e-07
4.39741e-07
4.39573e-07
4.39348e-07
4.39068e-07
4.38733e-07
4.38347e-07
4.3791e-07
4.37426e-07
4.36897e-07
4.36326e-07
4.35715e-07
4.35066e-07
4.34383e-07
4.33668e-07
4.32925e-07
4.32154e-07
4.3136e-07
4.30545e-07
4.29712e-07
4.28862e-07
4.27999e-07
4.27126e-07
4.26244e-07
4.25356e-07
4.24465e-07
4.23574e-07
4.22684e-07
4.21799e-07
4.2092e-07
4.20051e-07
4.19195e-07
4.18353e-07
4.17528e-07
4.16724e-07
4.15943e-07
4.15188e-07
4.14462e-07
4.13768e-07
4.13109e-07
4.12488e-07
4.11909e-07
4.11374e-07
4.10888e-07
4.10454e-07
4.10074e-07
4.09751e-07
4.0949e-07
4.09295e-07
4.09171e-07
4.09122e-07
4.09153e-07
4.09267e-07
4.09469e-07
4.09768e-07
4.10166e-07
4.10683e-07
4.11334e-07
4.12178e-07
4.38621e-07
4.38572e-07
4.38473e-07
4.38323e-07
4.38123e-07
4.37873e-07
4.37575e-07
4.37229e-07
4.36838e-07
4.36404e-07
4.35929e-07
4.35415e-07
4.34864e-07
4.34278e-07
4.3366e-07
4.33012e-07
4.32336e-07
4.31636e-07
4.30914e-07
4.30172e-07
4.29413e-07
4.28639e-07
4.27852e-07
4.27057e-07
4.26255e-07
4.25448e-07
4.2464e-07
4.23833e-07
4.2303e-07
4.22233e-07
4.21446e-07
4.20672e-07
4.19912e-07
4.19171e-07
4.18451e-07
4.17756e-07
4.17089e-07
4.16453e-07
4.15851e-07
4.15289e-07
4.14768e-07
4.14293e-07
4.13869e-07
4.13499e-07
4.13188e-07
4.12941e-07
4.1276e-07
4.12653e-07
4.12624e-07
4.12681e-07
4.1283e-07
4.13077e-07
4.13427e-07
4.1389e-07
4.14472e-07
4.15183e-07
4.16032e-07
4.17037e-07
4.18215e-07
4.19609e-07
4.37701e-07
4.37656e-07
4.37566e-07
4.37429e-07
4.37246e-07
4.37017e-07
4.36744e-07
4.36428e-07
4.36069e-07
4.35671e-07
4.35234e-07
4.3476e-07
4.34252e-07
4.33712e-07
4.33141e-07
4.32542e-07
4.31918e-07
4.3127e-07
4.30601e-07
4.29913e-07
4.29209e-07
4.28492e-07
4.27764e-07
4.27028e-07
4.26287e-07
4.25542e-07
4.24797e-07
4.24055e-07
4.23319e-07
4.22591e-07
4.21875e-07
4.21173e-07
4.2049e-07
4.19827e-07
4.19189e-07
4.18579e-07
4.18001e-07
4.17459e-07
4.16956e-07
4.16497e-07
4.16086e-07
4.15728e-07
4.15428e-07
4.15189e-07
4.15019e-07
4.14921e-07
4.14903e-07
4.14971e-07
4.15133e-07
4.15395e-07
4.15767e-07
4.16255e-07
4.16869e-07
4.17618e-07
4.18514e-07
4.19568e-07
4.20794e-07
4.22206e-07
4.23825e-07
4.2568e-07
4.37116e-07
4.37074e-07
4.36989e-07
4.3686e-07
4.36688e-07
4.36473e-07
4.36216e-07
4.35918e-07
4.35581e-07
4.35205e-07
4.34793e-07
4.34346e-07
4.33867e-07
4.33356e-07
4.32816e-07
4.3225e-07
4.31659e-07
4.31045e-07
4.30412e-07
4.29761e-07
4.29095e-07
4.28416e-07
4.27727e-07
4.27031e-07
4.26331e-07
4.25628e-07
4.24927e-07
4.24229e-07
4.23539e-07
4.22858e-07
4.22191e-07
4.2154e-07
4.20908e-07
4.203e-07
4.19719e-07
4.19169e-07
4.18653e-07
4.18176e-07
4.17742e-07
4.17356e-07
4.17022e-07
4.16745e-07
4.16532e-07
4.16386e-07
4.16314e-07
4.16323e-07
4.16421e-07
4.16613e-07
4.1691e-07
4.17318e-07
4.17848e-07
4.18509e-07
4.19312e-07
4.20267e-07
4.2139e-07
4.22691e-07
4.24188e-07
4.25895e-07
4.27835e-07
4.30026e-07
4.36846e-07
4.36805e-07
4.36723e-07
4.36598e-07
4.36432e-07
4.36224e-07
4.35974e-07
4.35686e-07
4.35358e-07
4.34994e-07
4.34595e-07
4.34161e-07
4.33696e-07
4.332e-07
4.32676e-07
4.32126e-07
4.31552e-07
4.30956e-07
4.30341e-07
4.29709e-07
4.29062e-07
4.28403e-07
4.27735e-07
4.2706e-07
4.26381e-07
4.257e-07
4.25021e-07
4.24347e-07
4.2368e-07
4.23025e-07
4.22383e-07
4.21758e-07
4.21154e-07
4.20575e-07
4.20024e-07
4.19505e-07
4.19022e-07
4.1858e-07
4.18183e-07
4.17835e-07
4.17542e-07
4.17309e-07
4.17141e-07
4.17044e-07
4.17026e-07
4.17092e-07
4.17251e-07
4.17511e-07
4.17879e-07
4.18365e-07
4.1898e-07
4.19733e-07
4.20637e-07
4.21703e-07
4.22946e-07
4.24379e-07
4.26022e-07
4.27888e-07
4.29999e-07
4.3237e-07
4.36881e-07
4.3684e-07
4.36758e-07
4.36633e-07
4.36467e-07
4.36259e-07
4.3601e-07
4.35722e-07
4.35395e-07
4.35031e-07
4.34632e-07
4.34199e-07
4.33735e-07
4.3324e-07
4.32717e-07
4.32167e-07
4.31594e-07
4.30999e-07
4.30385e-07
4.29754e-07
4.29108e-07
4.28451e-07
4.27783e-07
4.2711e-07
4.26432e-07
4.25753e-07
4.25076e-07
4.24403e-07
4.23738e-07
4.23084e-07
4.22445e-07
4.21822e-07
4.21221e-07
4.20644e-07
4.20095e-07
4.19579e-07
4.19098e-07
4.18659e-07
4.18264e-07
4.1792e-07
4.1763e-07
4.174e-07
4.17236e-07
4.17143e-07
4.1713e-07
4.17201e-07
4.17364e-07
4.17627e-07
4.18e-07
4.18491e-07
4.19111e-07
4.1987e-07
4.20779e-07
4.21851e-07
4.23101e-07
4.24541e-07
4.26191e-07
4.28064e-07
4.30183e-07
4.32562e-07
4.3722e-07
4.37178e-07
4.37093e-07
4.36965e-07
4.36794e-07
4.3658e-07
4.36323e-07
4.36026e-07
4.3569e-07
4.35316e-07
4.34905e-07
4.3446e-07
4.33983e-07
4.33474e-07
4.32937e-07
4.32373e-07
4.31784e-07
4.31173e-07
4.30543e-07
4.29895e-07
4.29233e-07
4.28557e-07
4.27873e-07
4.27181e-07
4.26485e-07
4.25787e-07
4.2509e-07
4.24398e-07
4.23713e-07
4.23038e-07
4.22376e-07
4.21731e-07
4.21106e-07
4.20505e-07
4.19931e-07
4.19388e-07
4.18881e-07
4.18412e-07
4.17987e-07
4.1761e-07
4.17285e-07
4.17019e-07
4.16816e-07
4.16682e-07
4.16622e-07
4.16644e-07
4.16754e-07
4.16959e-07
4.1727e-07
4.17693e-07
4.18239e-07
4.18916e-07
4.19736e-07
4.2071e-07
4.21852e-07
4.23173e-07
4.24691e-07
4.26421e-07
4.28384e-07
4.30598e-07
4.37873e-07
4.37828e-07
4.37738e-07
4.37602e-07
4.37421e-07
4.37193e-07
4.36921e-07
4.36606e-07
4.3625e-07
4.35854e-07
4.3542e-07
4.34949e-07
4.34444e-07
4.33907e-07
4.3334e-07
4.32745e-07
4.32125e-07
4.31482e-07
4.30818e-07
4.30135e-07
4.29438e-07
4.28727e-07
4.28005e-07
4.27276e-07
4.26541e-07
4.25804e-07
4.25067e-07
4.24334e-07
4.23606e-07
4.22888e-07
4.22182e-07
4.2149e-07
4.20817e-07
4.20166e-07
4.1954e-07
4.18943e-07
4.18378e-07
4.1785e-07
4.17361e-07
4.16918e-07
4.16522e-07
4.16181e-07
4.15897e-07
4.15677e-07
4.15526e-07
4.15449e-07
4.15452e-07
4.15543e-07
4.15728e-07
4.16015e-07
4.16412e-07
4.16927e-07
4.17569e-07
4.18349e-07
4.19277e-07
4.20364e-07
4.21624e-07
4.23072e-07
4.24729e-07
4.26623e-07
4.38859e-07
4.38811e-07
4.38712e-07
4.38564e-07
4.38365e-07
4.38117e-07
4.3782e-07
4.37477e-07
4.37089e-07
4.36658e-07
4.36187e-07
4.35676e-07
4.35129e-07
4.34548e-07
4.33935e-07
4.33293e-07
4.32624e-07
4.3193e-07
4.31215e-07
4.3048e-07
4.29728e-07
4.28963e-07
4.28186e-07
4.274e-07
4.26607e-07
4.25811e-07
4.25014e-07
4.24219e-07
4.23428e-07
4.22644e-07
4.21871e-07
4.21111e-07
4.20366e-07
4.19641e-07
4.18938e-07
4.1826e-07
4.17611e-07
4.16994e-07
4.16412e-07
4.1587e-07
4.15371e-07
4.14919e-07
4.14519e-07
4.14174e-07
4.13889e-07
4.13669e-07
4.13519e-07
4.13443e-07
4.13447e-07
4.13538e-07
4.13721e-07
4.14005e-07
4.14394e-07
4.14898e-07
4.15523e-07
4.1628e-07
4.17177e-07
4.18231e-07
4.19461e-07
4.20907e-07
4.4021e-07
4.40155e-07
4.40044e-07
4.39878e-07
4.39655e-07
4.39377e-07
4.39045e-07
4.38661e-07
4.38228e-07
4.37748e-07
4.37224e-07
4.36657e-07
4.36052e-07
4.35409e-07
4.34733e-07
4.34025e-07
4.33289e-07
4.32527e-07
4.31742e-07
4.30936e-07
4.30112e-07
4.29273e-07
4.28422e-07
4.2756e-07
4.26691e-07
4.25816e-07
4.2494e-07
4.24063e-07
4.23189e-07
4.2232e-07
4.21458e-07
4.20607e-07
4.1977e-07
4.18948e-07
4.18144e-07
4.17362e-07
4.16604e-07
4.15873e-07
4.15172e-07
4.14504e-07
4.13872e-07
4.1328e-07
4.12731e-07
4.12228e-07
4.11775e-07
4.11375e-07
4.11032e-07
4.10749e-07
4.10529e-07
4.10377e-07
4.10296e-07
4.10294e-07
4.10373e-07
4.10539e-07
4.10795e-07
4.1115e-07
4.11608e-07
4.12186e-07
4.12902e-07
4.1381e-07
4.41969e-07
4.41906e-07
4.41779e-07
4.41586e-07
4.4133e-07
4.4101e-07
4.40629e-07
4.4019e-07
4.39695e-07
4.39149e-07
4.38553e-07
4.37912e-07
4.37228e-07
4.36505e-07
4.35745e-07
4.34953e-07
4.3413e-07
4.3328e-07
4.32406e-07
4.3151e-07
4.30596e-07
4.29665e-07
4.2872e-07
4.27765e-07
4.268e-07
4.25829e-07
4.24854e-07
4.23877e-07
4.22901e-07
4.21928e-07
4.2096e-07
4.2e-07
4.19049e-07
4.18111e-07
4.17187e-07
4.1628e-07
4.15391e-07
4.14525e-07
4.13682e-07
4.12865e-07
4.12077e-07
4.1132e-07
4.10597e-07
4.09909e-07
4.09259e-07
4.0865e-07
4.08083e-07
4.07562e-07
4.07087e-07
4.0666e-07
4.06281e-07
4.05957e-07
4.05686e-07
4.05474e-07
4.05318e-07
4.05228e-07
4.05201e-07
4.05256e-07
4.05409e-07
4.05731e-07
4.44201e-07
4.44126e-07
4.43975e-07
4.43747e-07
4.43444e-07
4.43067e-07
4.42619e-07
4.42104e-07
4.41527e-07
4.40892e-07
4.40202e-07
4.39463e-07
4.38678e-07
4.37851e-07
4.36986e-07
4.36087e-07
4.35156e-07
4.34198e-07
4.33215e-07
4.32209e-07
4.31184e-07
4.30143e-07
4.29087e-07
4.28019e-07
4.26941e-07
4.25856e-07
4.24766e-07
4.23672e-07
4.22577e-07
4.21483e-07
4.20391e-07
4.19305e-07
4.18225e-07
4.17153e-07
4.16092e-07
4.15042e-07
4.14007e-07
4.12988e-07
4.11986e-07
4.11003e-07
4.10041e-07
4.09101e-07
4.08186e-07
4.07296e-07
4.06433e-07
4.05598e-07
4.04792e-07
4.04016e-07
4.03268e-07
4.0255e-07
4.01856e-07
4.01191e-07
4.00553e-07
3.99945e-07
3.99361e-07
3.98808e-07
3.98279e-07
3.97797e-07
3.97372e-07
3.97091e-07
4.46992e-07
4.469e-07
4.46715e-07
4.46437e-07
4.46068e-07
4.4561e-07
4.45069e-07
4.44452e-07
4.43764e-07
4.43012e-07
4.422e-07
4.41336e-07
4.40423e-07
4.39467e-07
4.38471e-07
4.37441e-07
4.36379e-07
4.3529e-07
4.34176e-07
4.3304e-07
4.31885e-07
4.30714e-07
4.29528e-07
4.2833e-07
4.27122e-07
4.25906e-07
4.24684e-07
4.23457e-07
4.22227e-07
4.20997e-07
4.19766e-07
4.18538e-07
4.17313e-07
4.16094e-07
4.1488e-07
4.13674e-07
4.12477e-07
4.11291e-07
4.10115e-07
4.08952e-07
4.07803e-07
4.06668e-07
4.05547e-07
4.04442e-07
4.03351e-07
4.02276e-07
4.01214e-07
4.00168e-07
3.99134e-07
3.98116e-07
3.97109e-07
3.96114e-07
3.95119e-07
3.94123e-07
3.93117e-07
3.92109e-07
3.91089e-07
3.90084e-07
3.89101e-07
3.88242e-07
4.50468e-07
4.5035e-07
4.50113e-07
4.49758e-07
4.49289e-07
4.48713e-07
4.4804e-07
4.47278e-07
4.46439e-07
4.4553e-07
4.44562e-07
4.43539e-07
4.42468e-07
4.41355e-07
4.40203e-07
4.39017e-07
4.37802e-07
4.3656e-07
4.35296e-07
4.34011e-07
4.32709e-07
4.31391e-07
4.3006e-07
4.28718e-07
4.27366e-07
4.26005e-07
4.24638e-07
4.23266e-07
4.21889e-07
4.2051e-07
4.19129e-07
4.17748e-07
4.16367e-07
4.14988e-07
4.13611e-07
4.12239e-07
4.1087e-07
4.09507e-07
4.0815e-07
4.06799e-07
4.05454e-07
4.04118e-07
4.02788e-07
4.01466e-07
4.0015e-07
3.98842e-07
3.97539e-07
3.96242e-07
3.94946e-07
3.93651e-07
3.92345e-07
3.91027e-07
3.89682e-07
3.88316e-07
3.86914e-07
3.8549e-07
3.84025e-07
3.82541e-07
3.81037e-07
3.79625e-07
4.54837e-07
4.54675e-07
4.54351e-07
4.53868e-07
4.53237e-07
4.52473e-07
4.51594e-07
4.50619e-07
4.49564e-07
4.4844e-07
4.47258e-07
4.46025e-07
4.44749e-07
4.43434e-07
4.42087e-07
4.40711e-07
4.39311e-07
4.37891e-07
4.36452e-07
4.34998e-07
4.3353e-07
4.3205e-07
4.30559e-07
4.29059e-07
4.2755e-07
4.26034e-07
4.24512e-07
4.22984e-07
4.21451e-07
4.19914e-07
4.18374e-07
4.16832e-07
4.15287e-07
4.13741e-07
4.12194e-07
4.10647e-07
4.091e-07
4.07554e-07
4.06008e-07
4.04464e-07
4.0292e-07
4.01377e-07
3.99834e-07
3.98291e-07
3.96745e-07
3.95197e-07
3.93642e-07
3.9208e-07
3.90504e-07
3.88916e-07
3.87308e-07
3.85684e-07
3.84033e-07
3.82362e-07
3.80648e-07
3.78896e-07
3.77071e-07
3.75196e-07
3.73263e-07
3.71397e-07
4.60376e-07
4.60163e-07
4.59732e-07
4.59088e-07
4.58246e-07
4.57234e-07
4.56086e-07
4.54832e-07
4.53496e-07
4.52097e-07
4.50645e-07
4.49149e-07
4.47619e-07
4.46058e-07
4.44475e-07
4.42872e-07
4.41255e-07
4.39626e-07
4.37986e-07
4.36338e-07
4.34681e-07
4.33018e-07
4.31348e-07
4.29671e-07
4.27989e-07
4.26302e-07
4.2461e-07
4.22912e-07
4.2121e-07
4.19503e-07
4.17792e-07
4.16076e-07
4.14357e-07
4.12634e-07
4.10908e-07
4.09178e-07
4.07446e-07
4.0571e-07
4.03972e-07
4.02231e-07
4.00487e-07
3.9874e-07
3.9699e-07
3.95236e-07
3.93478e-07
3.91714e-07
3.89945e-07
3.88168e-07
3.86381e-07
3.84582e-07
3.82765e-07
3.80925e-07
3.7905e-07
3.77132e-07
3.7515e-07
3.73096e-07
3.70953e-07
3.68734e-07
3.66441e-07
3.64167e-07
4.67094e-07
4.66661e-07
4.65875e-07
4.64787e-07
4.63464e-07
4.61978e-07
4.60386e-07
4.58728e-07
4.57024e-07
4.55286e-07
4.5352e-07
4.51731e-07
4.49925e-07
4.48109e-07
4.46288e-07
4.44465e-07
4.4264e-07
4.40815e-07
4.38989e-07
4.37162e-07
4.35333e-07
4.33502e-07
4.31667e-07
4.29829e-07
4.27987e-07
4.2614e-07
4.24288e-07
4.22429e-07
4.20565e-07
4.18694e-07
4.16816e-07
4.14931e-07
4.13039e-07
4.11139e-07
4.09233e-07
4.07319e-07
4.05398e-07
4.03469e-07
4.01534e-07
3.9959e-07
3.97641e-07
3.95682e-07
3.93718e-07
3.91742e-07
3.89761e-07
3.87765e-07
3.85765e-07
3.83746e-07
3.81721e-07
3.7967e-07
3.77614e-07
3.75522e-07
3.73429e-07
3.71289e-07
3.69153e-07
3.66956e-07
3.6477e-07
3.62506e-07
3.60268e-07
3.57952e-07
4.7884e-07
4.7809e-07
4.76677e-07
4.74727e-07
4.72444e-07
4.70027e-07
4.676e-07
4.65214e-07
4.62872e-07
4.60561e-07
4.58273e-07
4.56006e-07
4.53767e-07
4.5156e-07
4.49387e-07
4.47246e-07
4.45133e-07
4.43042e-07
4.40971e-07
4.38913e-07
4.36867e-07
4.3483e-07
4.32798e-07
4.3077e-07
4.28743e-07
4.26714e-07
4.24684e-07
4.22649e-07
4.20608e-07
4.18561e-07
4.16506e-07
4.14443e-07
4.12371e-07
4.1029e-07
4.08199e-07
4.06098e-07
4.03989e-07
4.01867e-07
3.99738e-07
3.97595e-07
3.95448e-07
3.93285e-07
3.9112e-07
3.88935e-07
3.86754e-07
3.84548e-07
3.82355e-07
3.80128e-07
3.77928e-07
3.75683e-07
3.7349e-07
3.71232e-07
3.69067e-07
3.66808e-07
3.64707e-07
3.62461e-07
3.60477e-07
3.5825e-07
3.56424e-07
3.5412e-07
4.87591e-07
4.85864e-07
4.8322e-07
4.80096e-07
4.76882e-07
4.7379e-07
4.7087e-07
4.68087e-07
4.6539e-07
4.62748e-07
4.60156e-07
4.57619e-07
4.55144e-07
4.5273e-07
4.50371e-07
4.48058e-07
4.45782e-07
4.43535e-07
4.41311e-07
4.39105e-07
4.36913e-07
4.34731e-07
4.32555e-07
4.30382e-07
4.28209e-07
4.26033e-07
4.23853e-07
4.21665e-07
4.19469e-07
4.17264e-07
4.15048e-07
4.12821e-07
4.10582e-07
4.0833e-07
4.06067e-07
4.0379e-07
4.01503e-07
3.99201e-07
3.9689e-07
3.94563e-07
3.9223e-07
3.89878e-07
3.87526e-07
3.85149e-07
3.82779e-07
3.80375e-07
3.77991e-07
3.75556e-07
3.73167e-07
3.70697e-07
3.68324e-07
3.65822e-07
3.63517e-07
3.61001e-07
3.58901e-07
3.5644e-07
3.54879e-07
3.52553e-07
3.5214e-07
3.49532e-07
5.35638e-07
5.21516e-07
5.0775e-07
4.97174e-07
4.89754e-07
4.84366e-07
4.79918e-07
4.75843e-07
4.71973e-07
4.68313e-07
4.64903e-07
4.61745e-07
4.58806e-07
4.56037e-07
4.5339e-07
4.50833e-07
4.48343e-07
4.45909e-07
4.43518e-07
4.41163e-07
4.38835e-07
4.36526e-07
4.3423e-07
4.31941e-07
4.29654e-07
4.27366e-07
4.25074e-07
4.22776e-07
4.20469e-07
4.18152e-07
4.15823e-07
4.13483e-07
4.11129e-07
4.08762e-07
4.06383e-07
4.03989e-07
4.01583e-07
3.99165e-07
3.96734e-07
3.94292e-07
3.91839e-07
3.89375e-07
3.869e-07
3.84415e-07
3.81919e-07
3.79412e-07
3.76895e-07
3.74362e-07
3.71819e-07
3.69249e-07
3.66676e-07
3.64046e-07
3.61442e-07
3.58692e-07
3.56096e-07
3.53019e-07
3.50716e-07
3.46369e-07
3.46122e-07
3.35581e-07
3.71974e-07
3.21347e-07
3.00248e-07
2.82545e-07
2.6477e-07
2.46873e-07
2.26874e-07
2.05568e-07
1.80696e-07
1.54019e-07
1.22994e-07
9.06177e-08
5.3824e-08
1.70065e-08
-2.36475e-08
-6.22632e-08
-1.04031e-07
-1.41464e-07
-1.81664e-07
-2.15351e-07
-2.51906e-07
-2.80141e-07
-3.11962e-07
-3.33575e-07
-3.61017e-07
-3.73939e-07
-4.01455e-07
-4.01383e-07
-4.35254e-07
-5.35548e-07
3.58021e-07
3.0282e-07
2.88702e-07
2.73579e-07
2.56483e-07
2.39007e-07
2.19323e-07
1.98181e-07
1.73514e-07
1.47211e-07
1.16831e-07
8.53264e-08
4.97164e-08
1.42313e-08
-2.4891e-08
-6.20379e-08
-1.02016e-07
-1.37981e-07
-1.76359e-07
-2.09087e-07
-2.44376e-07
-2.71951e-07
-3.03631e-07
-3.24649e-07
-3.52745e-07
-3.66394e-07
-3.90742e-07
-4.04053e-07
-4.09449e-07
-5.55824e-07
3.45782e-07
3.00325e-07
2.87244e-07
2.72617e-07
2.55029e-07
2.36566e-07
2.16361e-07
1.94878e-07
1.70166e-07
1.43741e-07
1.13601e-07
8.22013e-08
4.7157e-08
1.20344e-08
-2.61858e-08
-6.27291e-08
-1.01707e-07
-1.37301e-07
-1.75077e-07
-2.07394e-07
-2.42182e-07
-2.69689e-07
-3.00121e-07
-3.22858e-07
-3.48082e-07
-3.67829e-07
-3.86023e-07
-4.13729e-07
-3.94895e-07
-4.94734e-07
3.35553e-07
2.96164e-07
2.80996e-07
2.66885e-07
2.49992e-07
2.32147e-07
2.1214e-07
1.90502e-07
1.65847e-07
1.3928e-07
1.0947e-07
7.81058e-08
4.38183e-08
8.92446e-09
-2.80838e-08
-6.43851e-08
-1.01829e-07
-1.37298e-07
-1.72924e-07
-2.05744e-07
-2.37794e-07
-2.67417e-07
-2.94883e-07
-3.20976e-07
-3.42e-07
-3.67838e-07
-3.76592e-07
-4.13806e-07
-3.90323e-07
-4.57084e-07
3.2567e-07
2.93512e-07
2.77478e-07
2.64517e-07
2.48182e-07
2.29545e-07
2.09017e-07
1.86817e-07
1.62124e-07
1.35157e-07
1.05595e-07
7.39754e-08
4.03771e-08
5.4124e-09
-3.04176e-08
-6.67214e-08
-1.02539e-07
-1.38126e-07
-1.718e-07
-2.05335e-07
-2.35278e-07
-2.66288e-07
-2.90859e-07
-3.19758e-07
-3.36824e-07
-3.66119e-07
-3.71641e-07
-4.06169e-07
-3.96268e-07
-4.30271e-07
3.17008e-07
2.91723e-07
2.74863e-07
2.61434e-07
2.45364e-07
2.26631e-07
2.05921e-07
1.8324e-07
1.58423e-07
1.31032e-07
1.01589e-07
6.96685e-08
3.65868e-08
1.5116e-09
-3.33302e-08
-6.96251e-08
-1.04004e-07
-1.39659e-07
-1.71606e-07
-2.05485e-07
-2.33521e-07
-2.65162e-07
-2.88016e-07
-3.17667e-07
-3.33848e-07
-3.62267e-07
-3.70854e-07
-3.97406e-07
-4.01751e-07
-4.18235e-07
3.09906e-07
2.9015e-07
2.7319e-07
2.58897e-07
2.42941e-07
2.24141e-07
2.03181e-07
1.79933e-07
1.54809e-07
1.26948e-07
9.74308e-08
6.52217e-08
3.24096e-08
-2.68309e-09
-3.68572e-08
-7.29114e-08
-1.06296e-07
-1.41573e-07
-1.72425e-07
-2.05836e-07
-2.32998e-07
-2.64029e-07
-2.86772e-07
-3.15177e-07
-3.32996e-07
-3.58192e-07
-3.71615e-07
-3.91808e-07
-4.03167e-07
-4.1541e-07
3.04594e-07
2.88679e-07
2.72224e-07
2.5696e-07
2.40758e-07
2.21804e-07
2.00526e-07
1.76722e-07
1.51124e-07
1.22809e-07
9.30215e-08
6.06053e-08
2.78012e-08
-7.14997e-09
-4.09989e-08
-7.65319e-08
-1.09391e-07
-1.43822e-07
-1.74206e-07
-2.06478e-07
-2.33602e-07
-2.63144e-07
-2.86725e-07
-3.13028e-07
-3.33037e-07
-3.55287e-07
-3.72137e-07
-3.89316e-07
-4.03172e-07
-4.14787e-07
3.01153e-07
2.87303e-07
2.715e-07
2.55577e-07
2.38822e-07
2.19544e-07
1.97854e-07
1.73518e-07
1.4732e-07
1.18558e-07
8.83385e-08
5.57736e-08
2.27793e-08
-1.19204e-08
-4.56903e-08
-8.05274e-08
-1.13158e-07
-1.46497e-07
-1.76725e-07
-2.07602e-07
-2.34909e-07
-2.62846e-07
-2.87145e-07
-3.11765e-07
-3.33061e-07
-3.53891e-07
-3.72044e-07
-3.88674e-07
-4.03108e-07
-4.15471e-07
2.99334e-07
2.86091e-07
2.70861e-07
2.54554e-07
2.37086e-07
2.17293e-07
1.95071e-07
1.70204e-07
1.43335e-07
1.14107e-07
8.33589e-08
5.06475e-08
1.73689e-08
-1.70617e-08
-5.08465e-08
-8.49685e-08
-1.17434e-07
-1.49694e-07
-1.79741e-07
-2.09336e-07
-2.36612e-07
-2.63273e-07
-2.87774e-07
-3.11373e-07
-3.33043e-07
-3.53358e-07
-3.71874e-07
-3.8863e-07
-4.03521e-07
-4.16651e-07
2.98656e-07
2.85185e-07
2.7017e-07
2.53603e-07
2.35417e-07
2.14968e-07
1.92096e-07
1.66659e-07
1.39094e-07
1.09362e-07
7.80501e-08
4.51452e-08
1.15748e-08
-2.26427e-08
-5.64172e-08
-8.99122e-08
-1.22125e-07
-1.53458e-07
-1.8314e-07
-2.11697e-07
-2.38625e-07
-2.64354e-07
-2.88614e-07
-3.11584e-07
-3.33162e-07
-3.5328e-07
-3.71919e-07
-3.88938e-07
-4.04338e-07
-4.18173e-07
2.98536e-07
2.84624e-07
2.69446e-07
2.52527e-07
2.33636e-07
2.12455e-07
1.88848e-07
1.62781e-07
1.34511e-07
1.04228e-07
7.23511e-08
3.91894e-08
5.35621e-09
-2.87251e-08
-6.24214e-08
-9.53992e-08
-1.27244e-07
-1.57797e-07
-1.86942e-07
-2.14638e-07
-2.41001e-07
-2.65974e-07
-2.8977e-07
-3.12241e-07
-3.33567e-07
-3.53541e-07
-3.72242e-07
-3.89517e-07
-4.05382e-07
-4.19932e-07
2.9857e-07
2.8426e-07
2.68645e-07
2.51196e-07
2.31584e-07
2.09634e-07
1.85247e-07
1.58479e-07
1.29489e-07
9.86076e-08
6.61688e-08
3.2692e-08
-1.37469e-09
-3.53836e-08
-6.8944e-08
-1.01483e-07
-1.32876e-07
-1.62736e-07
-1.91242e-07
-2.1815e-07
-2.43844e-07
-2.68101e-07
-2.91348e-07
-3.13309e-07
-3.34341e-07
-3.54108e-07
-3.72873e-07
-3.90294e-07
-4.06639e-07
-4.21735e-07
2.9851e-07
2.83881e-07
2.67679e-07
2.49548e-07
2.29166e-07
2.06416e-07
1.81209e-07
1.53668e-07
1.23921e-07
9.23869e-08
5.93791e-08
2.55375e-08
-8.74854e-09
-4.27299e-08
-7.6119e-08
-1.08262e-07
-1.39153e-07
-1.68351e-07
-1.96159e-07
-2.22295e-07
-2.47253e-07
-2.70784e-07
-2.93415e-07
-3.14835e-07
-3.35507e-07
-3.55023e-07
-3.73776e-07
-3.91305e-07
-4.08024e-07
-4.23623e-07
2.98268e-07
2.83295e-07
2.6646e-07
2.47562e-07
2.26351e-07
2.02739e-07
1.76648e-07
1.48247e-07
1.17682e-07
8.54293e-08
5.18244e-08
1.75727e-08
-1.6937e-08
-5.0919e-08
-8.41187e-08
-1.15875e-07
-1.46232e-07
-1.74763e-07
-2.01827e-07
-2.27167e-07
-2.51333e-07
-2.74094e-07
-2.96043e-07
-3.16859e-07
-3.37097e-07
-3.56292e-07
-3.74965e-07
-3.9252e-07
-4.09556e-07
-4.25534e-07
2.97904e-07
2.82464e-07
2.64974e-07
2.4526e-07
2.23134e-07
1.98552e-07
1.71466e-07
1.42091e-07
1.10616e-07
7.75635e-08
4.33118e-08
8.60356e-09
-2.61454e-08
-6.01437e-08
-9.31386e-08
-1.24496e-07
-1.5428e-07
-1.82112e-07
-2.08379e-07
-2.32874e-07
-2.56177e-07
-2.78106e-07
-2.9928e-07
-3.19423e-07
-3.39119e-07
-3.57926e-07
-3.76402e-07
-3.93931e-07
-4.11175e-07
-4.27475e-07
2.97599e-07
2.81474e-07
2.63265e-07
2.42663e-07
2.19494e-07
1.93775e-07
1.6553e-07
1.3503e-07
1.02524e-07
6.85746e-08
3.3611e-08
-1.59955e-09
-3.66038e-08
-7.0618e-08
-1.03383e-07
-1.34304e-07
-1.63464e-07
-1.90536e-07
-2.15938e-07
-2.39513e-07
-2.61872e-07
-2.82878e-07
-3.03178e-07
-3.22549e-07
-3.41583e-07
-3.59905e-07
-3.78056e-07
-3.9549e-07
-4.12813e-07
-4.29411e-07
2.97601e-07
2.80489e-07
2.6138e-07
2.39724e-07
2.15312e-07
1.88236e-07
1.58625e-07
1.26823e-07
9.31471e-08
5.81947e-08
2.24516e-08
-1.3298e-08
-4.85607e-08
-8.25695e-08
-1.15058e-07
-1.45481e-07
-1.73944e-07
-2.00173e-07
-2.24626e-07
-2.47185e-07
-2.68508e-07
-2.8848e-07
-3.07802e-07
-3.26267e-07
-3.44522e-07
-3.62215e-07
-3.79916e-07
-3.97122e-07
-4.14419e-07
-4.31219e-07
2.98029e-07
2.79619e-07
2.59269e-07
2.36247e-07
2.10315e-07
1.81631e-07
1.50432e-07
1.17142e-07
8.21521e-08
4.6095e-08
9.51474e-09
-2.67924e-08
-6.22954e-08
-9.62539e-08
-1.28397e-07
-1.58241e-07
-1.8591e-07
-2.11197e-07
-2.34596e-07
-2.5603e-07
-2.76208e-07
-2.9502e-07
-3.13246e-07
-3.30653e-07
-3.47994e-07
-3.64881e-07
-3.8198e-07
-3.98779e-07
-4.15885e-07
-4.32752e-07
2.98645e-07
2.78667e-07
2.56602e-07
2.31794e-07
2.0403e-07
1.73491e-07
1.40497e-07
1.05541e-07
6.91001e-08
3.18492e-08
-5.60763e-09
-4.24682e-08
-7.81693e-08
-1.12009e-07
-1.43716e-07
-1.7288e-07
-1.99641e-07
-2.23871e-07
-2.46087e-07
-2.66271e-07
-2.85167e-07
-3.02675e-07
-3.19657e-07
-3.35826e-07
-3.52097e-07
-3.67947e-07
-3.84281e-07
-4.0038e-07
-4.17118e-07
-4.33712e-07
2.98686e-07
2.76869e-07
2.52734e-07
2.25779e-07
1.95867e-07
1.63214e-07
1.2821e-07
9.14126e-08
5.33934e-08
1.48727e-08
-2.34803e-08
-6.08662e-08
-9.66947e-08
-1.30318e-07
-1.61471e-07
-1.8983e-07
-2.15547e-07
-2.38586e-07
-2.59459e-07
-2.78238e-07