/*--------------------------------*- C++ -*----------------------------------*\
| =========                 |                                                 |
| \\      /  F ield         | OpenFOAM: The Open Source CFD Toolbox           |
|  \\    /   O peration     | Version:  2312                                  |
|   \\  /    A nd           | Website:  www.openfoam.com                      |
|    \\/     M anipulation  |                                                 |
\*---------------------------------------------------------------------------*/
FoamFile
{
    version     2.0;
    format      ascii;
    arch        "LSB;label=32;scalar=64";
    class       surfaceScalarField;
    location    "114000";
    object      phi;
}
// * * * * * * * * * * * * * * * * * * * * * * * * * * * * * * * * * * * * * //

dimensions      [0 3 -1 0 0 0 0];

oriented        oriented;

internalField   nonuniform List<scalar> 
21240
(
0.000664975
1.69206e-06
0.000661073
3.90183e-06
0.000655753
5.31992e-06
0.000649518
6.23507e-06
0.000642644
6.87339e-06
0.000635275
7.36956e-06
0.000627501
7.77406e-06
0.000619401
8.09996e-06
0.000611048
8.35325e-06
0.000602505
8.54292e-06
0.000593823
8.68128e-06
0.000585043
8.78063e-06
0.000576192
8.8506e-06
0.000567295
8.8975e-06
0.000558369
8.92517e-06
0.000549433
8.93605e-06
0.000540501
8.93199e-06
0.000531587
8.91455e-06
0.000522702
8.88505e-06
0.000513857
8.84458e-06
0.000505063
8.79395e-06
0.00049633
8.73375e-06
0.000487665
8.6644e-06
0.000479079
8.58621e-06
0.00047058
8.49937e-06
0.000462176
8.40404e-06
0.000453875
8.30033e-06
0.000445687
8.18825e-06
0.000437619
8.06791e-06
0.00042968
7.93918e-06
0.000421878
7.80228e-06
0.000414221
7.65684e-06
0.000406717
7.50336e-06
0.000399376
7.34109e-06
0.000392205
7.17109e-06
0.000385213
6.99185e-06
0.000378408
6.80554e-06
0.000371799
6.60919e-06
0.000365392
6.40704e-06
0.000359198
6.1934e-06
0.000353222
5.97629e-06
0.000347477
5.74493e-06
0.000341963
5.5143e-06
0.000336698
5.26421e-06
0.000331676
5.02236e-06
0.000326925
4.75122e-06
0.000322423
4.50172e-06
0.000318219
4.20437e-06
0.000314266
3.95301e-06
0.000310648
3.61805e-06
0.000307273
3.37516e-06
0.000304296
2.97623e-06
0.000301532
2.7648e-06
0.000299297
2.23415e-06
0.000297183
2.11469e-06
0.000295944
1.23908e-06
0.000294471
1.47218e-06
0.000294689
-2.17921e-07
0.000293535
1.15412e-06
-3.20698e-06
0.000296742
0.000667556
8.02636e-07
0.000669121
2.33687e-06
0.000670855
3.58571e-06
0.000672527
4.56298e-06
0.000674058
5.34309e-06
0.000675432
5.99481e-06
0.000676647
6.55978e-06
0.00067769
7.05642e-06
0.000678552
7.49176e-06
0.000679224
7.87027e-06
0.000679708
8.19755e-06
0.000680008
8.48053e-06
0.000680133
8.72625e-06
0.000680089
8.94055e-06
0.000679887
9.12776e-06
0.000679532
9.2908e-06
0.000679032
9.43184e-06
0.000678394
9.55244e-06
0.000677625
9.65406e-06
0.000676732
9.73776e-06
0.000675722
9.80465e-06
0.0006746
9.8553e-06
0.000673374
9.89053e-06
0.00067205
9.91039e-06
0.000670633
9.91564e-06
0.000669132
9.90586e-06
0.00066755
9.88194e-06
0.000665895
9.84294e-06
0.000664173
9.79014e-06
0.00066239
9.72184e-06
0.000660553
9.64015e-06
0.000658667
9.54215e-06
0.000656739
9.43138e-06
0.000654777
9.30304e-06
0.000652785
9.16304e-06
0.000650774
9.00351e-06
0.000648745
8.83434e-06
0.000646711
8.64255e-06
0.000644674
8.44465e-06
0.000642648
8.2192e-06
0.000640631
7.99367e-06
0.000638643
7.73259e-06
0.000636676
7.4815e-06
0.000634758
7.18177e-06
0.000632872
6.90879e-06
0.000631057
6.56557e-06
0.000629282
6.2768e-06
0.000627605
5.88215e-06
0.00062597
5.58761e-06
0.000624459
5.12862e-06
0.00062299
4.8447e-06
0.000621665
4.30088e-06
0.000620376
4.05406e-06
0.000619215
3.39468e-06
0.000618104
3.22589e-06
0.000616932
2.41149e-06
0.000616028
2.37564e-06
0.000614422
1.38821e-06
0.000614042
1.53448e-06
4.42733e-07
0.000610392
0.000666951
5.18182e-07
0.000667819
1.46873e-06
0.00066906
2.34494e-06
0.000670486
3.13687e-06
0.000671989
3.84041e-06
0.00067352
4.46317e-06
0.000675063
5.0174e-06
0.000676605
5.5142e-06
0.000678135
5.96139e-06
0.000679642
6.36387e-06
0.000681114
6.72519e-06
0.000682546
7.04861e-06
0.000683935
7.33768e-06
0.000685279
7.59585e-06
0.000686581
7.82641e-06
0.00068784
8.03199e-06
0.000689057
8.21482e-06
0.000690233
8.37644e-06
0.000691368
8.51835e-06
0.000692465
8.64145e-06
0.000693522
8.74691e-06
0.000694543
8.83514e-06
0.000695526
8.90715e-06
0.000696473
8.96286e-06
0.000697386
9.00323e-06
0.000698264
9.02765e-06
0.000699109
9.03726e-06
0.000699921
9.03082e-06
0.000700701
9.00988e-06
0.000701451
8.9724e-06
0.00070217
8.9207e-06
0.000702861
8.85158e-06
0.000703523
8.76863e-06
0.000704159
8.66696e-06
0.00070477
8.55211e-06
0.000705357
8.41675e-06
0.000705922
8.26935e-06
0.000706466
8.099e-06
0.000706992
7.91849e-06
0.000707499
7.71175e-06
0.000707995
7.4978e-06
0.000708475
7.25316e-06
0.00070895
7.00579e-06
0.00070941
6.72175e-06
0.000709878
6.44141e-06
0.000710327
6.1166e-06
0.000710799
5.80435e-06
0.000711243
5.43784e-06
0.000711736
5.09529e-06
0.000712177
4.68709e-06
0.000712706
4.31615e-06
0.000713138
3.86838e-06
0.000713722
3.47077e-06
0.000714125
2.9909e-06
0.000714783
2.56774e-06
0.000715119
2.07643e-06
0.000715867
1.62752e-06
0.00071608
1.17528e-06
0.000716926
6.88398e-07
3.77441e-07
0.000716991
0.000666854
3.30893e-07
0.000667309
1.01355e-06
0.000667973
1.6809e-06
0.000668798
2.31225e-06
0.00066974
2.8984e-06
0.000670767
3.43644e-06
0.000671856
3.92795e-06
0.000672994
4.37659e-06
0.000674169
4.78626e-06
0.000675372
5.1602e-06
0.000676597
5.50092e-06
0.000677835
5.81047e-06
0.000679082
6.09086e-06
0.000680333
6.34404e-06
0.000681588
6.57204e-06
0.000682843
6.7767e-06
0.000684098
6.95969e-06
0.000685352
7.12234e-06
0.000686605
7.26587e-06
0.000687855
7.3911e-06
0.000689103
7.49895e-06
0.000690348
7.58991e-06
0.000691591
7.66467e-06
0.00069283
7.72346e-06
0.000694067
7.7668e-06
0.0006953
7.79467e-06
0.000696529
7.80747e-06
0.000697755
7.80494e-06
0.000698978
7.78743e-06
0.000700196
7.75448e-06
0.00070141
7.7064e-06
0.000702619
7.6426e-06
0.000703824
7.56332e-06
0.000705023
7.46794e-06
0.000706219
7.35651e-06
0.000707407
7.22862e-06
0.000708593
7.08387e-06
0.000709769
6.92248e-06
0.000710945
6.74303e-06
0.000712109
6.54718e-06
0.000713275
6.33142e-06
0.000714428
6.10037e-06
0.000715588
5.84643e-06
0.000716729
5.57987e-06
0.000717885
5.28544e-06
0.000719018
4.98383e-06
0.000720177
4.64597e-06
0.000721303
4.31122e-06
0.000722472
3.92621e-06
0.000723596
3.56301e-06
0.000724786
3.12631e-06
0.00072591
2.74427e-06
0.000727131
2.24999e-06
0.000728256
1.86614e-06
0.000729518
1.30551e-06
0.000730646
9.48244e-07
0.000731964
3.09864e-07
0.00073311
2.95063e-08
0.000734565
-7.66918e-07
-9.30697e-07
0.000735873
0.000666739
2.59055e-07
0.00066697
7.81891e-07
0.000667357
1.29389e-06
0.000667881
1.78806e-06
0.000668521
2.25851e-06
0.000669256
2.70167e-06
0.000670068
3.11607e-06
0.000670943
3.50181e-06
0.000671869
3.85976e-06
0.000672838
4.19106e-06
0.000673842
4.4968e-06
0.000674875
4.77795e-06
0.00067593
5.03546e-06
0.000677004
5.27032e-06
0.000678093
5.48354e-06
0.000679193
5.67617e-06
0.000680304
5.84919e-06
0.000681422
6.00351e-06
0.000682548
6.13992e-06
0.00068368
6.25911e-06
0.000684818
6.36162e-06
0.00068596
6.448e-06
0.000687106
6.51856e-06
0.000688255
6.57374e-06
0.000689409
6.61364e-06
0.000690565
6.63865e-06
0.000691724
6.64859e-06
0.000692885
6.6439e-06
0.000694048
6.62405e-06
0.000695213
6.58967e-06
0.000696379
6.53976e-06
0.000697547
6.47533e-06
0.000698715
6.39469e-06
0.000699884
6.29957e-06
0.000701053
6.18718e-06
0.000702221
6.06054e-06
0.00070339
5.91505e-06
0.000704556
5.75594e-06
0.000705724
5.57567e-06
0.000706888
5.38316e-06
0.000708053
5.1661e-06
0.000709214
4.93942e-06
0.000710377
4.68314e-06
0.000711535
4.42199e-06
0.000712697
4.12359e-06
0.000713852
3.82847e-06
0.000715014
3.48425e-06
0.000716169
3.15671e-06
0.000717334
2.76123e-06
0.000718493
2.4039e-06
0.000719671
1.94857e-06
0.000720849
1.5659e-06
0.000722061
1.03781e-06
0.000723289
6.37842e-07
0.000724587
7.56335e-09
0.000725902
-3.66096e-07
0.000727284
-1.07235e-06
0.000728746
-1.43235e-06
0.000730276
-2.29733e-06
-2.60682e-06
0.000731952
0.000666724
2.01554e-07
0.0006669
6.06428e-07
0.000667185
1.00855e-06
0.000667572
1.40141e-06
0.000668049
1.78131e-06
0.000668605
2.14532e-06
0.00066923
2.4914e-06
0.000669913
2.81832e-06
0.000670648
3.12552e-06
0.000671426
3.41287e-06
0.000672242
3.68047e-06
0.000673091
3.92858e-06
0.000673969
4.15756e-06
0.000674872
4.36786e-06
0.000675795
4.55994e-06
0.000676737
4.73435e-06
0.000677695
4.89156e-06
0.000678666
5.03215e-06
0.00067965
5.15654e-06
0.000680643
5.26523e-06
0.000681647
5.35849e-06
0.000682658
5.43678e-06
0.000683676
5.5002e-06
0.000684701
5.54916e-06
0.000685731
5.58358e-06
0.000686766
5.60387e-06
0.000687804
5.6097e-06
0.000688847
5.60158e-06
0.000689892
5.57883e-06
0.00069094
5.54219e-06
0.000691989
5.49049e-06
0.000693039
5.42487e-06
0.00069409
5.34348e-06
0.000695142
5.24817e-06
0.000696193
5.13599e-06
0.000697244
5.01001e-06
0.000698293
4.86562e-06
0.000699341
4.70782e-06
0.000700387
4.52942e-06
0.000701432
4.33852e-06
0.000702474
4.12387e-06
0.000703515
3.89854e-06
0.000704553
3.64488e-06
0.000705592
3.38376e-06
0.000706628
3.0875e-06
0.000707667
2.78934e-06
0.000708705
2.44603e-06
0.000709751
2.11047e-06
0.000710797
1.71531e-06
0.000711857
1.34424e-06
0.000712913
8.92304e-07
0.000713988
4.91045e-07
0.000715044
-1.82372e-08
0.00071615
-4.68176e-07
0.000717241
-1.08361e-06
0.000718418
-1.54272e-06
0.000719606
-2.26093e-06
0.000720902
-2.72834e-06
0.000722193
-3.58804e-06
-4.04182e-06
0.000723628
0.000666709
1.59711e-07
0.000666834
4.80858e-07
0.000667042
8.01102e-07
0.000667327
1.1159e-06
0.000667686
1.42271e-06
0.000668112
1.71942e-06
0.000668599
2.00432e-06
0.000669141
2.27617e-06
0.000669732
2.53421e-06
0.000670367
2.77812e-06
0.000671041
3.00651e-06
0.00067175
3.21952e-06
0.00067249
3.41727e-06
0.000673258
3.59989e-06
0.000674051
3.76748e-06
0.000674865
3.92024e-06
0.000675698
4.05838e-06
0.000676548
4.18216e-06
0.000677413
4.29176e-06
0.00067829
4.38748e-06
0.000679179
4.46942e-06
0.000680078
4.53784e-06
0.000680986
4.59277e-06
0.000681901
4.63445e-06
0.000682821
4.66275e-06
0.000683747
4.67794e-06
0.000684677
4.67972e-06
0.00068561
4.66841e-06
0.000686546
4.64346e-06
0.000687483
4.60533e-06
0.00068842
4.55312e-06
0.000689357
4.48757e-06
0.000690294
4.40726e-06
0.000691228
4.3134e-06
0.00069216
4.2038e-06
0.00069309
4.08047e-06
0.000694016
3.94007e-06
0.000694938
3.78586e-06
0.000695854
3.61274e-06
0.000696767
3.42599e-06
0.000697673
3.2178e-06
0.000698575
2.99669e-06
0.000699469
2.75063e-06
0.000700359
2.49332e-06
0.000701241
2.20613e-06
0.000702119
1.91077e-06
0.000702987
1.57803e-06
0.000703856
1.24182e-06
0.000704715
8.56144e-07
0.000705585
4.74327e-07
0.000706455
2.20247e-08
0.000707343
-3.96885e-07
0.000708235
-9.09547e-07
0.000709147
-1.38083e-06
0.000710045
-1.98122e-06
0.000711001
-2.49936e-06
0.000711945
-3.20433e-06
0.000712982
-3.76517e-06
0.000713996
-4.60277e-06
-5.19569e-06
0.00071515
0.000666699
1.27569e-07
0.000666796
3.83708e-07
0.000666958
6.3949e-07
0.000667182
8.91738e-07
0.000667466
1.13872e-06
0.000667806
1.37891e-06
0.0006682
1.61099e-06
0.000668642
1.83389e-06
0.000669129
2.04671e-06
0.000669659
2.24876e-06
0.000670226
2.4394e-06
0.000670827
2.61825e-06
0.000671459
2.78509e-06
0.000672119
2.93981e-06
0.000672804
3.08234e-06
0.000673512
3.21269e-06
0.00067424
3.33083e-06
0.000674985
3.43683e-06
0.000675746
3.53071e-06
0.000676521
3.61257e-06
0.000677308
3.68242e-06
0.000678105
3.74035e-06
0.000678912
3.78634e-06
0.000679726
3.82047e-06
0.000680546
3.84263e-06
0.000681371
3.85289e-06
0.0006822
3.85104e-06
0.000683031
3.83717e-06
0.000683863
3.81091e-06
0.000684696
3.77241e-06
0.000685528
3.72108e-06
0.000686359
3.65719e-06
0.000687186
3.57984e-06
0.00068801
3.48952e-06
0.000688829
3.3849e-06
0.000689643
3.26682e-06
0.000690449
3.13333e-06
0.000691249
2.98586e-06
0.000692041
2.82152e-06
0.000692824
2.64269e-06
0.000693597
2.44507e-06
0.000694361
2.23254e-06
0.000695113
1.99864e-06
0.000695856
1.74963e-06
0.000696587
1.47577e-06
0.00069731
1.18721e-06
0.000698019
8.69292e-07
0.000698722
5.38529e-07
0.000699405
1.73515e-07
0.000700086
-2.06271e-07
0.000700744
-6.36185e-07
0.000701417
-1.06974e-06
0.000702071
-1.56364e-06
0.000702744
-2.05426e-06
0.000703391
-2.62798e-06
0.000704075
-3.18296e-06
0.000704723
-3.8528e-06
0.000705434
-4.47585e-06
0.000706092
-5.26141e-06
-5.95242e-06
0.000706849
0.000666693
1.01298e-07
0.000666772
3.0455e-07
0.000666904
5.07664e-07
0.000667087
7.08328e-07
0.000667321
9.05322e-07
0.000667602
1.09754e-06
0.000667929
1.28397e-06
0.000668299
1.46375e-06
0.00066871
1.6361e-06
0.000669158
1.80041e-06
0.000669641
1.95615e-06
0.000670157
2.1029e-06
0.000670702
2.24032e-06
0.000671273
2.36819e-06
0.000671869
2.4863e-06
0.000672487
2.59453e-06
0.000673125
2.69277e-06
0.000673781
2.78094e-06
0.000674453
2.85899e-06
0.000675139
2.92687e-06
0.000675837
2.98455e-06
0.000676545
3.03198e-06
0.000677262
3.06912e-06
0.000677987
3.09592e-06
0.000678717
3.11228e-06
0.000679452
3.11816e-06
0.00068019
3.11339e-06
0.000680929
3.0979e-06
0.000681668
3.07145e-06
0.000682407
3.03395e-06
0.000683143
2.98508e-06
0.000683875
2.92471e-06
0.000684603
2.8524e-06
0.000685324
2.76803e-06
0.000686038
2.67099e-06
0.000686744
2.5612e-06
0.000687439
2.43782e-06
0.000688124
2.30085e-06
0.000688797
2.14913e-06
0.000689456
1.98282e-06
0.000690101
1.80036e-06
0.000690732
1.60215e-06
0.000691344
1.38604e-06
0.000691941
1.15286e-06
0.000692517
8.99626e-07
0.000693076
6.27761e-07
0.000693613
3.33148e-07
0.000694132
1.9541e-08
0.000694631
-3.25703e-07
0.000695117
-6.92641e-07
0.000695572
-1.09118e-06
0.000696017
-1.51459e-06
0.000696429
-1.97567e-06
0.000696838
-2.46354e-06
0.000697208
-2.99765e-06
0.000697585
-3.56037e-06
0.000697913
-4.18084e-06
0.000698268
-4.83003e-06
0.000698558
-5.55218e-06
-6.29866e-06
0.000698905
0.000666689
7.91437e-08
0.000666755
2.37877e-07
0.000666867
3.96569e-07
0.000667021
5.53508e-07
0.000667219
7.07817e-07
0.000667458
8.58687e-07
0.000667736
1.00537e-06
0.000668053
1.1472e-06
0.000668405
1.28356e-06
0.000668792
1.41395e-06
0.00066921
1.53789e-06
0.000669658
1.65501e-06
0.000670133
1.76498e-06
0.000670634
1.86752e-06
0.000671158
1.96241e-06
0.000671703
2.04945e-06
0.000672267
2.1285e-06
0.000672849
2.19942e-06
0.000673446
2.26209e-06
0.000674056
2.31643e-06
0.000674678
2.36233e-06
0.000675311
2.39972e-06
0.000675951
2.4285e-06
0.000676599
2.44857e-06
0.000677251
2.45984e-06
0.000677907
2.46217e-06
0.000678565
2.45545e-06
0.000679223
2.4395e-06
0.000679881
2.41419e-06
0.000680535
2.37926e-06
0.000681186
2.33457e-06
0.000681831
2.27976e-06
0.000682469
2.21468e-06
0.000683098
2.13884e-06
0.000683717
2.05212e-06
0.000684324
1.95383e-06
0.000684918
1.8439e-06
0.000685497
1.72139e-06
0.00068606
1.58637e-06
0.000686605
1.43746e-06
0.000687131
1.27503e-06
0.000687636
1.09708e-06
0.000688117
9.04509e-07
0.000688576
6.94356e-07
0.000689007
4.68584e-07
0.000689412
2.22962e-07
0.000689784
-3.86586e-08
0.000690134
-3.30471e-07
0.000690447
-6.39176e-07
0.000690732
-9.7722e-07
0.000690975
-1.33453e-06
0.000691189
-1.72889e-06
0.000691356
-2.14263e-06
0.000691496
-2.60359e-06
0.000691581
-3.08222e-06
0.000691643
-3.62271e-06
0.000691638
-4.17611e-06
0.000691621
-4.81226e-06
0.000691519
-5.45036e-06
-6.20002e-06
0.00069142
0.000666686
5.99425e-08
0.000666744
1.80133e-07
0.00066684
3.00319e-07
0.000666974
4.19252e-07
0.000667146
5.36302e-07
0.000667353
6.50887e-07
0.000667596
7.62464e-07
0.000667873
8.70528e-07
0.000668182
9.74625e-07
0.000668522
1.07434e-06
0.00066889
1.16931e-06
0.000669286
1.2592e-06
0.000669707
1.34374e-06
0.000670152
1.42266e-06
0.000670619
1.49575e-06
0.000671105
1.56283e-06
0.00067161
1.62372e-06
0.000672131
1.67829e-06
0.000672667
1.72641e-06
0.000673215
1.76795e-06
0.000673775
1.80282e-06
0.000674344
1.83089e-06
0.00067492
1.85208e-06
0.000675502
1.86625e-06
0.000676089
1.87333e-06
0.000676678
1.87313e-06
0.000677268
1.86558e-06
0.000677857
1.85046e-06
0.000678443
1.8277e-06
0.000679026
1.79696e-06
0.000679602
1.75822e-06
0.000680171
1.71102e-06
0.00068073
1.65538e-06
0.000681278
1.59064e-06
0.000681814
1.51695e-06
0.000682334
1.43335e-06
0.000682838
1.34022e-06
0.000683323
1.23612e-06
0.000683787
1.12184e-06
0.00068423
9.95241e-07
0.000684647
8.57791e-07
0.000685038
7.06261e-07
0.000685399
5.43275e-07
0.000685729
3.63918e-07
0.000686025
1.72832e-07
0.000686286
-3.75744e-08
0.000686511
-2.64374e-07
0.000686696
-5.14983e-07
0.000686834
-7.77531e-07
0.000686929
-1.07164e-06
0.00068697
-1.37629e-06
0.000686964
-1.72233e-06
0.000686896
-2.07516e-06
0.000686777
-2.48386e-06
0.000686586
-2.89166e-06
0.00068634
-3.37695e-06
0.000686011
-3.84688e-06
0.000685626
-4.42685e-06
0.00068514
-4.96495e-06
-5.66151e-06
0.000684602
0.000666684
4.28603e-08
0.000666735
1.28784e-07
0.000666821
2.14714e-07
0.00066694
2.99778e-07
0.000667093
3.83541e-07
0.000667278
4.65598e-07
0.000667495
5.4557e-07
0.000667743
6.23101e-07
0.000668019
6.97863e-07
0.000668324
7.69553e-07
0.000668656
8.37897e-07
0.000669012
9.02646e-07
0.000669392
9.63577e-07
0.000669794
1.02049e-06
0.000670217
1.0732e-06
0.000670658
1.12155e-06
0.000671117
1.16541e-06
0.00067159
1.20463e-06
0.000672077
1.23911e-06
0.000672577
1.26873e-06
0.000673086
1.29339e-06
0.000673604
1.31298e-06
0.000674129
1.32742e-06
0.000674658
1.33659e-06
0.000675191
1.3404e-06
0.000675726
1.3387e-06
0.00067626
1.33144e-06
0.000676792
1.31838e-06
0.00067732
1.2995e-06
0.000677843
1.27448e-06
0.000678357
1.24335e-06
0.000678863
1.20565e-06
0.000679357
1.16148e-06
0.000679837
1.11018e-06
0.000680302
1.05203e-06
0.000680749
9.86026e-07
0.000681177
9.12725e-07
0.000681582
8.30646e-07
0.000681963
7.40805e-07
0.000682318
6.40962e-07
0.000682643
5.32922e-07
0.000682936
4.13261e-07
0.000683194
2.8513e-07
0.000683414
1.43375e-07
0.000683593
-5.71351e-09
0.000683732
-1.7648e-07
0.000683822
-3.54506e-07
0.000683861
-5.54364e-07
0.000683845
-7.61655e-07
0.000683771
-9.97608e-07
0.000683633
-1.2384e-06
0.000683429
-1.51784e-06
0.000683151
-1.79684e-06
0.000682796
-2.12946e-06
0.000682356
-2.4517e-06
0.00068183
-2.85037e-06
0.000681204
-3.22074e-06
0.000680479
-3.70263e-06
0.000679639
-4.12429e-06
-4.71103e-06
0.000678688
0.000666682
2.72514e-08
0.000666729
8.18781e-08
0.000666807
1.36509e-07
0.000666917
1.90594e-07
0.000667056
2.43862e-07
0.000667226
2.96058e-07
0.000667424
3.46945e-07
0.000667651
3.96295e-07
0.000667905
4.43898e-07
0.000668185
4.89558e-07
0.00066849
5.33096e-07
0.000668818
5.74343e-07
0.000669169
6.13152e-07
0.00066954
6.49382e-07
0.00066993
6.82911e-07
0.000670338
7.13621e-07
0.000670762
7.41415e-07
0.0006712
7.66188e-07
0.000671652
7.87864e-07
0.000672114
8.06348e-07
0.000672586
8.21574e-07
0.000673065
8.33447e-07
0.000673551
8.41915e-07
0.000674041
8.46866e-07
0.000674533
8.4826e-07
0.000675026
8.45957e-07
0.000675517
8.39931e-07
0.000676005
8.29998e-07
0.000676489
8.16155e-07
0.000676965
7.98146e-07
0.000677432
7.7601e-07
0.000677889
7.49385e-07
0.000678332
7.18386e-07
0.00067876
6.82483e-07
0.00067917
6.41931e-07
0.00067956
5.95941e-07
0.000679927
5.45003e-07
0.00068027
4.8793e-07
0.000680585
4.25615e-07
0.00068087
3.56246e-07
0.000681122
2.81385e-07
0.000681337
1.98256e-07
0.000681512
1.09573e-07
0.000681644
1.1491e-08
0.000681733
-9.43253e-08
0.000681769
-2.12702e-07
0.000681751
-3.36296e-07
0.000681672
-4.76169e-07
0.000681531
-6.20232e-07
0.000681319
-7.85999e-07
0.000681035
-9.53532e-07
0.000680667
-1.15074e-06
0.000680216
-1.34491e-06
0.000679667
-1.58087e-06
0.00067902
-1.80503e-06
0.00067826
-2.08964e-06
0.000677386
-2.34687e-06
0.000676377
-2.69356e-06
0.000675238
-2.98526e-06
-3.41136e-06
0.000673938
0.000666681
1.25786e-08
0.000666725
3.77961e-08
0.000666799
6.301e-08
0.000666902
8.79628e-08
0.000667033
1.12528e-07
0.000667192
1.36586e-07
0.000667379
1.60025e-07
0.000667593
1.8274e-07
0.000667832
2.0463e-07
0.000668096
2.25601e-07
0.000668384
2.45567e-07
0.000668693
2.64447e-07
0.000669024
2.82168e-07
0.000669375
2.98661e-07
0.000669744
3.13864e-07
0.00067013
3.27717e-07
0.000670531
3.4017e-07
0.000670946
3.51169e-07
0.000671374
3.60671e-07
0.000671811
3.68626e-07
0.000672258
3.74998e-07
0.000672712
3.79735e-07
0.000673171
3.82807e-07
0.000673633
3.84151e-07
0.000674098
3.83746e-07
0.000674562
3.81513e-07
0.000675025
3.77436e-07
0.000675483
3.71413e-07
0.000675936
3.63442e-07
0.000676381
3.5338e-07
0.000676816
3.4125e-07
0.000677238
3.2685e-07
0.000677646
3.10248e-07
0.000678038
2.91146e-07
0.00067841
2.69692e-07
0.00067876
2.45446e-07
0.000679087
2.1869e-07
0.000679386
1.88761e-07
0.000679655
1.56172e-07
0.000679892
1.19921e-07
0.000680092
8.09123e-08
0.000680253
3.76626e-08
0.000680371
-8.21972e-09
0.000680443
-6.05484e-08
0.000680464
-1.15543e-07
0.000680428
-1.77288e-07
0.000680334
-2.41678e-07
0.000680172
-3.14852e-07
0.000679942
-3.89973e-07
0.000679633
-4.76817e-07
0.000679244
-5.64161e-07
0.000678761
-6.6766e-07
0.000678185
-7.68905e-07
0.000677497
-8.93053e-07
0.000676702
-1.00991e-06
0.000675772
-1.16011e-06
0.000674719
-1.29408e-06
0.000673503
-1.47774e-06
0.000672148
-1.62932e-06
-1.85606e-06
0.000670592
0.000666681
-1.62573e-09
0.000666724
-4.89266e-09
0.000666795
-8.16192e-09
0.000666894
-1.14264e-08
0.000667021
-1.46745e-08
0.000667176
-1.7896e-08
0.000667357
-2.10817e-08
0.000667564
-2.42234e-08
0.000667796
-2.73138e-08
0.000668052
-3.03461e-08
0.000668331
-3.33142e-08
0.000668631
-3.62125e-08
0.000668953
-3.90361e-08
0.000669293
-4.1781e-08
0.000669651
-4.44441e-08
0.000670026
-4.70234e-08
0.000670416
-4.95178e-08
0.000670819
-5.19268e-08
0.000671234
-5.42507e-08
0.000671659
-5.64908e-08
0.000672092
-5.86485e-08
0.000672533
-6.07264e-08
0.000672978
-6.27274e-08
0.000673427
-6.46557e-08
0.000673878
-6.65155e-08
0.000674327
-6.83125e-08
0.000674775
-7.0052e-08
0.000675218
-7.17417e-08
0.000675655
-7.33875e-08
0.000676083
-7.49973e-08
0.000676501
-7.65795e-08
0.000676906
-7.81428e-08
0.000677296
-7.9696e-08
0.000677668
-8.1248e-08
0.000678021
-8.28085e-08
0.000678351
-8.43893e-08
0.000678655
-8.59958e-08
0.000678932
-8.76413e-08
0.000679177
-8.93303e-08
0.000679388
-9.10766e-08
0.000679562
-9.28988e-08
0.000679695
-9.48353e-08
0.000679783
-9.69673e-08
0.000679822
-9.93605e-08
0.000679808
-1.01844e-07
0.000679736
-1.04456e-07
0.000679601
-1.07184e-07
0.000679396
-1.09983e-07
0.000679119
-1.1297e-07
0.000678759
-1.16196e-07
0.000678314
-1.19688e-07
0.00067777
-1.23412e-07
0.000677128
-1.27425e-07
0.000676367
-1.31688e-07
0.000675493
-1.36301e-07
0.000674475
-1.41182e-07
0.000673327
-1.4648e-07
0.000672001
-1.52049e-07
0.00067053
-1.58098e-07
-1.64387e-07
0.000668838
0.000666681
-1.58186e-08
0.000666723
-4.75172e-08
0.000666795
-7.92402e-08
0.000666894
-1.10688e-07
0.000667021
-1.41715e-07
0.000667175
-1.72181e-07
0.000667356
-2.01959e-07
0.000667563
-2.30924e-07
0.000667794
-2.58962e-07
0.00066805
-2.85965e-07
0.000668329
-3.11836e-07
0.000668629
-3.36482e-07
0.00066895
-3.5982e-07
0.00066929
-3.81772e-07
0.000669647
-4.02272e-07
0.000670022
-4.21255e-07
0.000670411
-4.38669e-07
0.000670813
-4.54458e-07
0.000671228
-4.68581e-07
0.000671652
-4.8099e-07
0.000672085
-4.91652e-07
0.000672525
-5.00519e-07
0.00067297
-5.07569e-07
0.000673418
-5.12746e-07
0.000673867
-5.16037e-07
0.000674316
-5.17375e-07
0.000674763
-5.16755e-07
0.000675205
-5.14089e-07
0.000675641
-5.09388e-07
0.000676069
-5.02524e-07
0.000676486
-4.93538e-07
0.00067689
-4.82244e-07
0.000677279
-4.68726e-07
0.000677651
-4.52709e-07
0.000678002
-4.34356e-07
0.000678331
-4.13252e-07
0.000678635
-3.89695e-07
0.00067891
-3.63048e-07
0.000679155
-3.33837e-07
0.000679365
-3.0108e-07
0.000679537
-2.65672e-07
0.000679669
-2.26083e-07
0.000679755
-1.83807e-07
0.000679793
-1.36458e-07
0.000679777
-8.65909e-08
0.000679703
-3.05223e-08
0.000679568
2.84137e-08
0.000679362
9.62445e-08
0.000679083
1.65403e-07
0.000678721
2.45863e-07
0.000678275
3.26329e-07
0.000677729
4.22505e-07
0.000677086
5.15819e-07
0.000676323
6.31559e-07
0.000675447
7.39276e-07
0.000674426
8.79866e-07
0.000673276
1.00332e-06
0.000671948
1.17602e-06
0.000670475
1.31555e-06
1.52992e-06
0.00066878
0.000666681
-3.04365e-08
0.000666725
-9.14393e-08
0.000666798
-1.52476e-07
0.000666901
-2.12954e-07
0.000667032
-2.72581e-07
0.00066719
-3.31084e-07
0.000667377
-3.88207e-07
0.00066759
-4.43708e-07
0.000667828
-4.9736e-07
0.000668091
-5.48954e-07
0.000668377
-5.983e-07
0.000668686
-6.45218e-07
0.000669016
-6.8955e-07
0.000669365
-7.31148e-07
0.000669733
-7.69884e-07
0.000670117
-8.05636e-07
0.000670517
-8.38304e-07
0.00067093
-8.67784e-07
0.000671356
-8.94e-07
0.000671791
-9.16857e-07
0.000672236
-9.36296e-07
0.000672688
-9.52224e-07
0.000673145
-9.64595e-07
0.000673605
-9.73307e-07
0.000674068
-9.78326e-07
0.00067453
-9.79525e-07
0.00067499
-9.76888e-07
0.000675446
-9.70245e-07
0.000675896
-9.59605e-07
0.000676339
-9.44729e-07
0.000676771
-9.25671e-07
0.000677191
-9.02085e-07
0.000677596
-8.74104e-07
0.000677984
-8.41219e-07
0.000678354
-8.03699e-07
0.000678701
-7.60778e-07
0.000679025
-7.12964e-07
0.000679321
-6.59091e-07
0.000679587
-6.00065e-07
0.00067982
-5.34097e-07
0.000680017
-4.62759e-07
0.000680174
-3.83282e-07
0.000680289
-2.98347e-07
0.000680356
-2.03642e-07
0.000680373
-1.03732e-07
0.000680335
7.84531e-09
0.000680236
1.27211e-07
0.00068007
2.61861e-07
0.000679835
4.00186e-07
0.000679521
5.59767e-07
0.000679127
7.2059e-07
0.000678639
9.10694e-07
0.000678058
1.09716e-06
0.000677364
1.32501e-06
0.000676563
1.54028e-06
0.000675627
1.81568e-06
0.000674568
2.06265e-06
0.000673345
2.39894e-06
0.000671982
2.67882e-06
3.09335e-06
0.000670418
0.000666682
-4.59606e-08
0.000666729
-1.3809e-07
0.000666807
-2.30256e-07
0.000666915
-3.21541e-07
0.000667054
-4.11493e-07
0.000667223
-4.99687e-07
0.00066742
-5.85727e-07
0.000667646
-6.69241e-07
0.000667898
-7.49886e-07
0.000668177
-8.27347e-07
0.00066848
-9.01339e-07
0.000668806
-9.71599e-07
0.000669154
-1.0379e-06
0.000669523
-1.10002e-06
0.000669911
-1.1578e-06
0.000670317
-1.21105e-06
0.000670738
-1.25964e-06
0.000671174
-1.30343e-06
0.000671622
-1.34231e-06
0.000672081
-1.37617e-06
0.00067255
-1.40491e-06
0.000673026
-1.42843e-06
0.000673508
-1.44666e-06
0.000673994
-1.45946e-06
0.000674483
-1.46679e-06
0.000674972
-1.46848e-06
0.000675459
-1.46449e-06
0.000675944
-1.45461e-06
0.000676423
-1.43883e-06
0.000676895
-1.41683e-06
0.000677358
-1.38867e-06
0.00067781
-1.3539e-06
0.000678248
-1.31264e-06
0.000678671
-1.26424e-06
0.000679077
-1.20901e-06
0.000679462
-1.14596e-06
0.000679825
-1.07566e-06
0.000680162
-9.96663e-07
0.000680472
-9.09992e-07
0.000680751
-8.13433e-07
0.000680997
-7.08802e-07
0.000681207
-5.92687e-07
0.000681377
-4.68227e-07
0.000681503
-3.30161e-07
0.000681583
-1.839e-07
0.000681613
-2.18605e-08
0.000681588
1.5204e-07
0.000681503
3.46994e-07
0.000681355
5.48776e-07
0.000681135
7.78875e-07
0.000680843
1.01333e-06
0.000680467
1.28608e-06
0.000680007
1.55775e-06
0.000679449
1.88276e-06
0.000678793
2.19652e-06
0.000678022
2.58662e-06
0.000677137
2.94715e-06
0.000676117
3.41952e-06
0.000674966
3.82972e-06
4.40612e-06
0.000673653
0.000666684
-6.29262e-08
0.000666735
-1.89088e-07
0.00066682
-3.15273e-07
0.000666938
-4.40191e-07
0.00066709
-5.63195e-07
0.000667274
-6.83682e-07
0.000667489
-8.01092e-07
0.000667735
-9.14908e-07
0.00066801
-1.02466e-06
0.000668312
-1.12992e-06
0.000668641
-1.23031e-06
0.000668995
-1.3255e-06
0.000669373
-1.41519e-06
0.000669772
-1.49911e-06
0.000670191
-1.57706e-06
0.000670629
-1.64883e-06
0.000671083
-1.71427e-06
0.000671553
-1.77321e-06
0.000672036
-1.82555e-06
0.000672531
-1.87115e-06
0.000673036
-1.90993e-06
0.00067355
-1.94176e-06
0.00067407
-1.96656e-06
0.000674594
-1.98421e-06
0.000675122
-1.99463e-06
0.000675651
-1.99767e-06
0.00067618
-1.99324e-06
0.000676707
-1.98115e-06
0.000677229
-1.96132e-06
0.000677746
-1.93346e-06
0.000678255
-1.89754e-06
0.000678754
-1.85312e-06
0.000679241
-1.80024e-06
0.000679715
-1.73825e-06
0.000680174
-1.66732e-06
0.000680614
-1.58652e-06
0.000681035
-1.49622e-06
0.000681433
-1.39504e-06
0.000681807
-1.28375e-06
0.000682154
-1.16026e-06
0.000682471
-1.02603e-06
0.000682756
-8.77863e-07
0.000683006
-7.18364e-07
0.000683219
-5.4263e-07
0.00068339
-3.55191e-07
0.000683517
-1.48654e-07
0.000683598
7.05269e-08
0.000683628
3.17088e-07
0.000683602
5.74651e-07
0.000683518
8.63322e-07
0.000683369
1.16201e-06
0.000683154
1.50186e-06
0.000682864
1.84782e-06
0.000682497
2.24958e-06
0.000682044
2.64942e-06
0.000681503
3.127e-06
0.000680863
3.58761e-06
0.000680123
4.1592e-06
0.000679267
4.68631e-06
5.37412e-06
0.000678299
0.000666686
-8.19794e-08
0.000666743
-2.46388e-07
0.000666839
-4.1078e-07
0.000666972
-5.73405e-07
0.000667142
-7.33369e-07
0.000667348
-8.89844e-07
0.000667589
-1.04207e-06
0.000667863
-1.18935e-06
0.00066817
-1.33108e-06
0.000668507
-1.46673e-06
0.000668872
-1.59582e-06
0.000669265
-1.71796e-06
0.000669682
-1.83281e-06
0.000670123
-1.94009e-06
0.000670586
-2.03957e-06
0.000671068
-2.13105e-06
0.000671568
-2.21439e-06
0.000672084
-2.28944e-06
0.000672615
-2.3561e-06
0.000673158
-2.41427e-06
0.000673712
-2.46386e-06
0.000674275
-2.50479e-06
0.000674845
-2.53697e-06
0.000675422
-2.56031e-06
0.000676002
-2.57473e-06
0.000676584
-2.58009e-06
0.000677167
-2.57631e-06
0.000677749
-2.56319e-06
0.000678328
-2.54063e-06
0.000678903
-2.50839e-06
0.000679472
-2.46633e-06
0.000680033
-2.41411e-06
0.000680585
-2.35159e-06
0.000681125
-2.27832e-06
0.000681651
-2.19416e-06
0.000682163
-2.09847e-06
0.000682658
-1.99118e-06
0.000683135
-1.87137e-06
0.00068359
-1.73912e-06
0.000684023
-1.5931e-06
0.000684431
-1.43366e-06
0.000684812
-1.25886e-06
0.000685163
-1.06955e-06
0.000685483
-8.62842e-07
0.000685768
-6.4059e-07
0.000686018
-3.98454e-07
0.000686229
-1.40424e-07
0.000686402
1.43795e-07
0.000686529
4.48437e-07
0.00068661
7.81736e-07
0.000686639
1.13362e-06
0.000686618
1.5224e-06
0.000686536
1.92982e-06
0.000686401
2.38462e-06
0.000686194
2.8559e-06
0.000685932
3.38969e-06
0.000685585
3.93437e-06
0.000685181
4.56347e-06
0.000684676
5.1911e-06
5.93385e-06
0.000684116
0.000666689
-1.03956e-07
0.000666755
-3.12527e-07
0.000666865
-5.20984e-07
0.000667019