/*--------------------------------*- C++ -*----------------------------------*\
| =========                 |                                                 |
| \\      /  F ield         | OpenFOAM: The Open Source CFD Toolbox           |
|  \\    /   O peration     | Version:  2312                                  |
|   \\  /    A nd           | Website:  www.openfoam.com                      |
|    \\/     M anipulation  |                                                 |
\*---------------------------------------------------------------------------*/
FoamFile
{
    version     2.0;
    format      ascii;
    arch        "LSB;label=32;scalar=64";
    class       volScalarField;
    location    "196000";
    object      p;
}
// * * * * * * * * * * * * * * * * * * * * * * * * * * * * * * * * * * * * * //

dimensions      [0 2 -2 0 0 0 0];

internalField   nonuniform List<scalar> 
10800
(
6.81021e-07
6.66886e-07
6.53095e-07
6.42482e-07
6.35012e-07
6.29561e-07
6.2504e-07
6.2088e-07
6.16912e-07
6.13146e-07
6.09617e-07
6.06329e-07
6.03251e-07
6.00331e-07
5.97524e-07
5.94796e-07
5.92126e-07
5.895e-07
5.86908e-07
5.84339e-07
5.81786e-07
5.79241e-07
5.76695e-07
5.74144e-07
5.71581e-07
5.69003e-07
5.66405e-07
5.63785e-07
5.61139e-07
5.58464e-07
5.55759e-07
5.53022e-07
5.50251e-07
5.47446e-07
5.44604e-07
5.41727e-07
5.38813e-07
5.35862e-07
5.32875e-07
5.29851e-07
5.26792e-07
5.23697e-07
5.20566e-07
5.174e-07
5.142e-07
5.10964e-07
5.07693e-07
5.04383e-07
5.0104e-07
4.97647e-07
4.94228e-07
4.90728e-07
4.87235e-07
4.83566e-07
4.80043e-07
4.75995e-07
4.72737e-07
4.6736e-07
4.66113e-07
4.54543e-07
6.33052e-07
6.31316e-07
6.28651e-07
6.25494e-07
6.22236e-07
6.19088e-07
6.161e-07
6.13237e-07
6.1045e-07
6.07706e-07
6.05001e-07
6.02341e-07
5.99731e-07
5.97171e-07
5.94657e-07
5.92177e-07
5.89723e-07
5.87287e-07
5.84863e-07
5.82446e-07
5.8003e-07
5.77612e-07
5.75187e-07
5.72751e-07
5.70301e-07
5.67834e-07
5.65346e-07
5.62835e-07
5.60298e-07
5.57734e-07
5.5514e-07
5.52515e-07
5.49858e-07
5.47167e-07
5.44442e-07
5.4168e-07
5.38885e-07
5.36051e-07
5.33185e-07
5.30278e-07
5.2734e-07
5.24359e-07
5.21353e-07
5.18297e-07
5.15225e-07
5.12092e-07
5.08957e-07
5.05744e-07
5.02556e-07
4.99259e-07
4.96039e-07
4.92659e-07
4.89459e-07
4.86014e-07
4.82968e-07
4.79518e-07
4.76956e-07
4.73583e-07
4.72115e-07
4.68401e-07
6.24506e-07
6.23746e-07
6.22312e-07
6.20329e-07
6.18004e-07
6.15533e-07
6.13042e-07
6.10581e-07
6.08153e-07
6.05746e-07
6.0335e-07
6.00966e-07
5.98597e-07
5.9625e-07
5.93926e-07
5.91623e-07
5.89336e-07
5.8706e-07
5.84791e-07
5.82525e-07
5.80258e-07
5.77986e-07
5.75706e-07
5.73417e-07
5.71114e-07
5.68796e-07
5.66459e-07
5.64102e-07
5.61723e-07
5.5932e-07
5.56891e-07
5.54434e-07
5.5195e-07
5.49436e-07
5.46892e-07
5.44315e-07
5.41709e-07
5.39067e-07
5.36396e-07
5.33687e-07
5.3095e-07
5.28172e-07
5.25369e-07
5.2252e-07
5.19651e-07
5.16729e-07
5.13797e-07
5.10803e-07
5.07812e-07
5.04747e-07
5.01709e-07
4.98576e-07
4.9551e-07
4.92314e-07
4.8925e-07
4.86003e-07
4.82989e-07
4.79698e-07
4.76777e-07
4.73358e-07
6.12977e-07
6.12536e-07
6.11732e-07
6.10615e-07
6.09254e-07
6.07719e-07
6.06069e-07
6.04342e-07
6.02559e-07
6.00731e-07
5.98864e-07
5.96963e-07
5.95036e-07
5.93087e-07
5.91121e-07
5.89142e-07
5.87151e-07
5.85147e-07
5.83131e-07
5.81101e-07
5.79057e-07
5.76997e-07
5.74921e-07
5.72827e-07
5.70715e-07
5.68584e-07
5.66432e-07
5.64258e-07
5.62061e-07
5.59841e-07
5.57596e-07
5.55326e-07
5.5303e-07
5.50707e-07
5.48356e-07
5.45977e-07
5.4357e-07
5.41133e-07
5.38667e-07
5.36169e-07
5.33642e-07
5.31081e-07
5.2849e-07
5.25861e-07
5.23202e-07
5.205e-07
5.17766e-07
5.14982e-07
5.12165e-07
5.0929e-07
5.06381e-07
5.03406e-07
5.00401e-07
4.97321e-07
4.94218e-07
4.91027e-07
4.87817e-07
4.84485e-07
4.81139e-07
4.77693e-07
6.06603e-07
6.06383e-07
6.05936e-07
6.05265e-07
6.04387e-07
6.03329e-07
6.02125e-07
6.00805e-07
5.99393e-07
5.97908e-07
5.9636e-07
5.94759e-07
5.93111e-07
5.91424e-07
5.89703e-07
5.87952e-07
5.86174e-07
5.84374e-07
5.82551e-07
5.80707e-07
5.78843e-07
5.76959e-07
5.75056e-07
5.73133e-07
5.7119e-07
5.69227e-07
5.67245e-07
5.65242e-07
5.63218e-07
5.61173e-07
5.59107e-07
5.57019e-07
5.54909e-07
5.52777e-07
5.50622e-07
5.48443e-07
5.46241e-07
5.44015e-07
5.41764e-07
5.39488e-07
5.37186e-07
5.34857e-07
5.32501e-07
5.30116e-07
5.27702e-07
5.25257e-07
5.2278e-07
5.20268e-07
5.17717e-07
5.15121e-07
5.12472e-07
5.09758e-07
5.06965e-07
5.0408e-07
5.011e-07
4.98018e-07
4.94821e-07
4.91523e-07
4.88123e-07
4.84723e-07
6.01439e-07
6.01268e-07
6.00925e-07
6.00415e-07
5.99749e-07
5.98941e-07
5.98011e-07
5.96974e-07
5.95848e-07
5.94645e-07
5.93373e-07
5.92041e-07
5.90656e-07
5.89222e-07
5.87745e-07
5.86229e-07
5.84678e-07
5.83096e-07
5.81484e-07
5.79844e-07
5.7818e-07
5.7649e-07
5.74777e-07
5.73042e-07
5.71285e-07
5.69507e-07
5.67708e-07
5.65888e-07
5.64049e-07
5.6219e-07
5.6031e-07
5.58412e-07
5.56493e-07
5.54556e-07
5.52598e-07
5.50621e-07
5.48624e-07
5.46607e-07
5.4457e-07
5.42511e-07
5.4043e-07
5.38326e-07
5.36197e-07
5.34042e-07
5.31856e-07
5.29639e-07
5.27386e-07
5.25097e-07
5.22767e-07
5.20401e-07
5.17993e-07
5.15537e-07
5.13017e-07
5.10436e-07
5.07759e-07
5.0499e-07
5.02102e-07
4.99129e-07
4.9607e-07
4.93062e-07
5.97519e-07
5.97393e-07
5.97141e-07
5.96763e-07
5.96263e-07
5.95647e-07
5.94925e-07
5.94107e-07
5.93202e-07
5.9222e-07
5.91169e-07
5.90054e-07
5.88882e-07
5.87657e-07
5.86384e-07
5.85068e-07
5.83711e-07
5.82318e-07
5.80891e-07
5.79433e-07
5.77946e-07
5.76432e-07
5.74893e-07
5.73329e-07
5.71744e-07
5.70136e-07
5.68509e-07
5.66862e-07
5.65196e-07
5.63513e-07
5.61812e-07
5.60095e-07
5.58362e-07
5.56614e-07
5.5485e-07
5.53071e-07
5.51278e-07
5.4947e-07
5.47647e-07
5.4581e-07
5.43958e-07
5.42091e-07
5.40208e-07
5.3831e-07
5.36395e-07
5.34461e-07
5.32503e-07
5.30517e-07
5.28482e-07
5.26414e-07
5.24298e-07
5.22142e-07
5.19934e-07
5.17674e-07
5.1534e-07
5.12939e-07
5.10446e-07
5.07892e-07
5.0528e-07
5.02739e-07
5.94547e-07
5.94448e-07
5.94249e-07
5.9395e-07
5.93551e-07
5.93056e-07
5.92471e-07
5.91801e-07
5.91053e-07
5.90233e-07
5.89345e-07
5.88395e-07
5.87389e-07
5.8633e-07
5.85224e-07
5.84073e-07
5.82881e-07
5.81652e-07
5.80388e-07
5.79093e-07
5.77767e-07
5.76415e-07
5.75037e-07
5.73635e-07
5.72211e-07
5.70767e-07
5.69303e-07
5.67823e-07
5.66325e-07
5.64813e-07
5.63286e-07
5.61747e-07
5.60195e-07
5.58632e-07
5.57058e-07
5.55474e-07
5.53882e-07
5.5228e-07
5.50671e-07
5.49053e-07
5.47427e-07
5.45792e-07
5.44148e-07
5.42496e-07
5.40834e-07
5.39165e-07
5.37482e-07
5.35783e-07
5.34078e-07
5.32348e-07
5.30587e-07
5.28799e-07
5.26973e-07
5.25112e-07
5.23201e-07
5.21248e-07
5.19237e-07
5.17196e-07
5.15136e-07
5.13177e-07
5.92312e-07
5.92231e-07
5.92067e-07
5.9182e-07
5.9149e-07
5.91079e-07
5.90591e-07
5.9003e-07
5.89398e-07
5.88702e-07
5.87943e-07
5.87128e-07
5.86259e-07
5.8534e-07
5.84375e-07
5.83367e-07
5.8232e-07
5.81235e-07
5.80117e-07
5.78967e-07
5.77788e-07
5.76583e-07
5.75353e-07
5.741e-07
5.72827e-07
5.71535e-07
5.70226e-07
5.68901e-07
5.67563e-07
5.66213e-07
5.64852e-07
5.63482e-07
5.62105e-07
5.6072e-07
5.59331e-07
5.57937e-07
5.56541e-07
5.55143e-07
5.53745e-07
5.52347e-07
5.50949e-07
5.49554e-07
5.48163e-07
5.46774e-07
5.45384e-07
5.4399e-07
5.42599e-07
5.41211e-07
5.39824e-07
5.38437e-07
5.37044e-07
5.35646e-07
5.34237e-07
5.3282e-07
5.31383e-07
5.29936e-07
5.28467e-07
5.27003e-07
5.25555e-07
5.2423e-07
5.90684e-07
5.90615e-07
5.90477e-07
5.90267e-07
5.89988e-07
5.89639e-07
5.89222e-07
5.88742e-07
5.882e-07
5.87599e-07
5.86943e-07
5.86235e-07
5.85477e-07
5.84673e-07
5.83825e-07
5.82937e-07
5.82011e-07
5.8105e-07
5.80057e-07
5.79034e-07
5.77984e-07
5.76908e-07
5.75809e-07
5.7469e-07
5.73552e-07
5.72398e-07
5.71229e-07
5.70048e-07
5.68856e-07
5.67656e-07
5.66449e-07
5.65237e-07
5.64023e-07
5.62806e-07
5.6159e-07
5.60375e-07
5.59164e-07
5.5796e-07
5.56766e-07
5.5558e-07
5.54404e-07
5.53238e-07
5.52081e-07
5.50939e-07
5.49812e-07
5.48702e-07
5.47609e-07
5.46536e-07
5.45483e-07
5.4445e-07
5.43436e-07
5.42443e-07
5.41468e-07
5.40514e-07
5.39576e-07
5.38662e-07
5.37768e-07
5.36915e-07
5.36121e-07
5.35476e-07
5.89571e-07
5.89511e-07
5.89391e-07
5.89209e-07
5.88967e-07
5.88664e-07
5.88302e-07
5.87883e-07
5.87409e-07
5.86883e-07
5.86307e-07
5.85684e-07
5.85015e-07
5.84304e-07
5.83552e-07
5.82763e-07
5.81939e-07
5.81082e-07
5.80196e-07
5.79281e-07
5.78341e-07
5.77378e-07
5.76395e-07
5.75393e-07
5.74376e-07
5.73344e-07
5.72301e-07
5.71248e-07
5.70189e-07
5.69124e-07
5.68056e-07
5.66991e-07
5.65927e-07
5.64867e-07
5.63813e-07
5.62768e-07
5.61733e-07
5.60709e-07
5.59698e-07
5.58705e-07
5.57732e-07
5.56781e-07
5.55855e-07
5.54955e-07
5.54086e-07
5.53248e-07
5.52446e-07
5.5168e-07
5.50954e-07
5.5027e-07
5.4963e-07
5.49037e-07
5.48493e-07
5.48001e-07
5.47562e-07
5.47184e-07
5.46869e-07
5.46637e-07
5.46506e-07
5.46549e-07
5.88901e-07
5.88849e-07
5.88742e-07
5.88582e-07
5.88367e-07
5.88099e-07
5.87778e-07
5.87406e-07
5.86985e-07
5.86516e-07
5.86002e-07
5.85445e-07
5.84847e-07
5.84209e-07
5.83535e-07
5.82827e-07
5.82087e-07
5.81316e-07
5.80518e-07
5.79695e-07
5.78848e-07
5.77982e-07
5.77097e-07
5.76197e-07
5.75283e-07
5.74359e-07
5.73426e-07
5.72487e-07
5.71545e-07
5.70602e-07
5.6966e-07
5.6872e-07
5.67786e-07
5.66861e-07
5.65949e-07
5.65051e-07
5.6417e-07
5.63309e-07
5.62471e-07
5.61658e-07
5.60875e-07
5.60124e-07
5.5941e-07
5.58735e-07
5.58103e-07
5.57517e-07
5.56983e-07
5.56503e-07
5.56082e-07
5.55725e-07
5.55435e-07
5.55219e-07
5.55081e-07
5.55027e-07
5.55062e-07
5.55195e-07
5.55433e-07
5.55796e-07
5.56301e-07
5.57007e-07
5.88627e-07
5.88579e-07
5.88483e-07
5.88338e-07
5.88143e-07
5.87901e-07
5.8761e-07
5.87274e-07
5.86892e-07
5.86468e-07
5.86002e-07
5.85496e-07
5.84952e-07
5.84372e-07
5.83759e-07
5.83113e-07
5.82438e-07
5.81735e-07
5.81008e-07
5.80258e-07
5.79488e-07
5.787e-07
5.77896e-07
5.77079e-07
5.76252e-07
5.75417e-07
5.74576e-07
5.73732e-07
5.72887e-07
5.72045e-07
5.71208e-07
5.70378e-07
5.69558e-07
5.68753e-07
5.67964e-07
5.67196e-07
5.66451e-07
5.65732e-07
5.65044e-07
5.64389e-07
5.63772e-07
5.63197e-07
5.62668e-07
5.6219e-07
5.61766e-07
5.61403e-07
5.61104e-07
5.60877e-07
5.60726e-07
5.60658e-07
5.60679e-07
5.60798e-07
5.6102e-07
5.61356e-07
5.61813e-07
5.62403e-07
5.63137e-07
5.64031e-07
5.65108e-07
5.66407e-07
5.88708e-07
5.88663e-07
5.88574e-07
5.88439e-07
5.88259e-07
5.88034e-07
5.87766e-07
5.87454e-07
5.87101e-07
5.86707e-07
5.86276e-07
5.85807e-07
5.85303e-07
5.84766e-07
5.84197e-07
5.83599e-07
5.82974e-07
5.82323e-07
5.8165e-07
5.80957e-07
5.80245e-07
5.79518e-07
5.78778e-07
5.78027e-07
5.77267e-07
5.76502e-07
5.75735e-07
5.74967e-07
5.74201e-07
5.73441e-07
5.72689e-07
5.71949e-07
5.71223e-07
5.70515e-07
5.69829e-07
5.69167e-07
5.68534e-07
5.67932e-07
5.67367e-07
5.66843e-07
5.66363e-07
5.65933e-07
5.65557e-07
5.6524e-07
5.64989e-07
5.64808e-07
5.64704e-07
5.64685e-07
5.64756e-07
5.64926e-07
5.65203e-07
5.65596e-07
5.66116e-07
5.66771e-07
5.67574e-07
5.68537e-07
5.69676e-07
5.71006e-07
5.72549e-07
5.74331e-07
5.89113e-07
5.89071e-07
5.88987e-07
5.88859e-07
5.88689e-07
5.88475e-07
5.88221e-07
5.87925e-07
5.8759e-07
5.87217e-07
5.86808e-07
5.86364e-07
5.85886e-07
5.85377e-07
5.84839e-07
5.84273e-07
5.83682e-07
5.83067e-07
5.82432e-07
5.81778e-07
5.81108e-07
5.80424e-07
5.79728e-07
5.79024e-07
5.78314e-07
5.77601e-07
5.76887e-07
5.76175e-07
5.75468e-07
5.7477e-07
5.74082e-07
5.73409e-07
5.72754e-07
5.7212e-07
5.7151e-07
5.70929e-07
5.70381e-07
5.69869e-07
5.69397e-07
5.68971e-07
5.68595e-07
5.68274e-07
5.68014e-07
5.6782e-07
5.67697e-07
5.67654e-07
5.67696e-07
5.67831e-07
5.68068e-07
5.68414e-07
5.68879e-07
5.69473e-07
5.70208e-07
5.71095e-07
5.72147e-07
5.73379e-07
5.74806e-07
5.76445e-07
5.78316e-07
5.80437e-07
5.89829e-07
5.89788e-07
5.89706e-07
5.89582e-07
5.89416e-07
5.89208e-07
5.8896e-07
5.88672e-07
5.88346e-07
5.87982e-07
5.87584e-07
5.87152e-07
5.86687e-07
5.86193e-07
5.8567e-07
5.85121e-07
5.84548e-07
5.83953e-07
5.83338e-07
5.82706e-07
5.8206e-07
5.81401e-07
5.80733e-07
5.80058e-07
5.79378e-07
5.78696e-07
5.78016e-07
5.7734e-07
5.7667e-07
5.76011e-07
5.75365e-07
5.74736e-07
5.74127e-07
5.73541e-07
5.72983e-07
5.72455e-07
5.71963e-07
5.7151e-07
5.711e-07
5.70739e-07
5.70431e-07
5.70182e-07
5.69996e-07
5.69881e-07
5.69842e-07
5.69885e-07
5.70019e-07
5.7025e-07
5.70588e-07
5.71041e-07
5.71619e-07
5.72332e-07
5.73192e-07
5.74212e-07
5.75404e-07
5.76783e-07
5.78367e-07
5.80168e-07
5.82209e-07
5.84501e-07
5.9085e-07
5.90809e-07
5.90727e-07
5.90602e-07
5.90435e-07
5.90226e-07
5.89976e-07
5.89687e-07
5.89359e-07
5.88995e-07
5.88595e-07
5.88162e-07
5.87697e-07
5.87203e-07
5.86681e-07
5.86133e-07
5.85562e-07
5.8497e-07
5.8436e-07
5.83733e-07
5.83092e-07
5.82441e-07
5.81781e-07
5.81115e-07
5.80445e-07
5.79776e-07
5.79109e-07
5.78447e-07
5.77794e-07
5.77152e-07
5.76524e-07
5.75915e-07
5.75327e-07
5.74764e-07
5.7423e-07
5.73727e-07
5.73262e-07
5.72836e-07
5.72456e-07
5.72125e-07
5.71848e-07
5.71631e-07
5.71479e-07
5.71398e-07
5.71393e-07
5.71472e-07
5.71642e-07
5.71909e-07
5.72283e-07
5.72771e-07
5.73384e-07
5.74132e-07
5.75025e-07
5.76075e-07
5.77297e-07
5.78701e-07
5.80305e-07
5.82121e-07
5.84164e-07
5.86451e-07
5.92178e-07
5.92136e-07
5.9205e-07
5.9192e-07
5.91746e-07
5.91529e-07
5.9127e-07
5.9097e-07
5.9063e-07
5.90253e-07
5.8984e-07
5.89393e-07
5.88913e-07
5.88404e-07
5.87867e-07
5.87305e-07
5.8672e-07
5.86114e-07
5.8549e-07
5.8485e-07
5.84197e-07
5.83534e-07
5.82863e-07
5.82187e-07
5.81509e-07
5.80831e-07
5.80156e-07
5.79488e-07
5.78829e-07
5.78181e-07
5.7755e-07
5.76936e-07
5.76345e-07
5.75779e-07
5.75242e-07
5.74737e-07
5.74268e-07
5.7384e-07
5.73456e-07
5.73122e-07
5.7284e-07
5.72617e-07
5.72457e-07
5.72366e-07
5.72349e-07
5.72413e-07
5.72563e-07
5.72808e-07
5.73153e-07
5.73608e-07
5.7418e-07
5.74879e-07
5.75714e-07
5.76697e-07
5.7784e-07
5.79156e-07
5.80661e-07
5.82373e-07
5.84243e-07
5.86355e-07
5.93825e-07
5.93779e-07
5.93687e-07
5.93547e-07
5.93361e-07
5.93128e-07
5.9285e-07
5.92528e-07
5.92165e-07
5.91762e-07
5.91322e-07
5.90846e-07
5.90337e-07
5.89797e-07
5.89229e-07
5.88635e-07
5.88018e-07
5.87381e-07
5.86725e-07
5.86054e-07
5.85371e-07
5.84677e-07
5.83976e-07
5.8327e-07
5.82563e-07
5.81856e-07
5.81154e-07
5.80457e-07
5.79771e-07
5.79096e-07
5.78437e-07
5.77796e-07
5.77177e-07
5.76583e-07
5.76017e-07
5.75483e-07
5.74984e-07
5.74523e-07
5.74105e-07
5.73734e-07
5.73413e-07
5.73147e-07
5.72941e-07
5.72799e-07
5.72727e-07
5.72729e-07
5.7281e-07
5.72978e-07
5.73237e-07
5.73594e-07
5.74056e-07
5.74631e-07
5.75325e-07
5.76146e-07
5.77102e-07
5.78201e-07
5.7945e-07
5.80861e-07
5.82518e-07
5.84372e-07
5.95814e-07
5.95763e-07
5.95661e-07
5.95506e-07
5.95299e-07
5.9504e-07
5.94733e-07
5.94377e-07
5.93977e-07
5.93534e-07
5.9305e-07
5.92529e-07
5.91974e-07
5.91386e-07
5.90769e-07
5.90125e-07
5.89458e-07
5.8877e-07
5.88064e-07
5.87343e-07
5.86609e-07
5.85866e-07
5.85115e-07
5.84361e-07
5.83604e-07
5.82849e-07
5.82098e-07
5.81353e-07
5.80618e-07
5.79895e-07
5.79187e-07
5.78496e-07
5.77827e-07
5.77181e-07
5.76562e-07
5.75972e-07
5.75416e-07
5.74896e-07
5.74415e-07
5.73978e-07
5.73587e-07
5.73246e-07
5.7296e-07
5.72731e-07
5.72564e-07
5.72464e-07
5.72434e-07
5.72479e-07
5.72604e-07
5.72813e-07
5.73112e-07
5.73506e-07
5.73999e-07
5.74599e-07
5.7531e-07
5.76135e-07
5.77093e-07
5.78195e-07
5.79452e-07
5.80898e-07
5.98184e-07
5.98125e-07
5.98008e-07
5.9783e-07
5.97593e-07
5.97298e-07
5.96946e-07
5.96542e-07
5.96087e-07
5.95586e-07
5.95041e-07
5.94456e-07
5.93833e-07
5.93177e-07
5.92491e-07
5.91777e-07
5.9104e-07
5.90282e-07
5.89505e-07
5.88714e-07
5.87911e-07
5.87098e-07
5.86279e-07
5.85455e-07
5.84631e-07
5.83808e-07
5.82988e-07
5.82176e-07
5.81372e-07
5.8058e-07
5.79802e-07
5.79041e-07
5.783e-07
5.77581e-07
5.76886e-07
5.76219e-07
5.75582e-07
5.74979e-07
5.74411e-07
5.73881e-07
5.73394e-07
5.72951e-07
5.72555e-07
5.7221e-07
5.71918e-07
5.71683e-07
5.71507e-07
5.71395e-07
5.71347e-07
5.71369e-07
5.71462e-07
5.7163e-07
5.71873e-07
5.72199e-07
5.72607e-07
5.73116e-07
5.73716e-07
5.74422e-07
5.75246e-07
5.76234e-07
6.00991e-07
6.00921e-07
6.00781e-07
6.00571e-07
6.00291e-07
5.99942e-07
5.99529e-07
5.99056e-07
5.98526e-07
5.97944e-07
5.97314e-07
5.96641e-07
5.95929e-07
5.95181e-07
5.94403e-07
5.93596e-07
5.92767e-07
5.91916e-07
5.91048e-07
5.90166e-07
5.89272e-07
5.8837e-07
5.87462e-07
5.86551e-07
5.85639e-07
5.84728e-07
5.83822e-07
5.82922e-07
5.82032e-07
5.81152e-07
5.80286e-07
5.79435e-07
5.78603e-07
5.77791e-07
5.77001e-07
5.76237e-07
5.755e-07
5.74792e-07
5.74116e-07
5.73474e-07
5.72868e-07
5.72301e-07
5.71775e-07
5.71291e-07
5.70851e-07
5.70459e-07
5.70115e-07
5.69821e-07
5.69579e-07
5.69391e-07
5.69257e-07
5.69181e-07
5.69159e-07
5.69196e-07
5.69281e-07
5.6943e-07
5.69634e-07
5.69915e-07
5.70275e-07
5.70775e-07
6.04316e-07
6.0423e-07
6.04058e-07
6.038e-07
6.03456e-07
6.03031e-07
6.0253e-07
6.01959e-07
6.01325e-07
6.00634e-07
5.99891e-07
5.99102e-07
5.98273e-07
5.97408e-07
5.96511e-07
5.95588e-07
5.94641e-07
5.93676e-07
5.92694e-07
5.91699e-07
5.90694e-07
5.89683e-07
5.88666e-07
5.87647e-07
5.86629e-07
5.85613e-07
5.84601e-07
5.83596e-07
5.826e-07
5.81615e-07
5.80643e-07
5.79685e-07
5.78744e-07
5.77821e-07
5.76919e-07
5.7604e-07
5.75184e-07
5.74355e-07
5.73553e-07
5.72781e-07
5.7204e-07
5.71332e-07
5.70657e-07
5.70018e-07
5.69415e-07
5.6885e-07
5.68322e-07
5.67833e-07
5.67381e-07
5.66969e-07
5.66591e-07
5.6625e-07
5.6594e-07
5.65667e-07
5.65427e-07
5.65224e-07
5.65049e-07
5.64907e-07
5.64808e-07
5.64835e-07
6.0828e-07
6.08168e-07
6.07945e-07
6.07612e-07
6.07172e-07
6.06632e-07
6.06002e-07
6.05293e-07
6.04513e-07
6.03673e-07
6.0278e-07
6.01842e-07
6.00864e-07
5.99852e-07
5.9881e-07
5.97744e-07
5.96657e-07
5.95553e-07
5.94436e-07
5.93309e-07
5.92175e-07
5.91035e-07
5.89893e-07
5.8875e-07
5.87609e-07
5.86472e-07
5.8534e-07
5.84215e-07
5.83099e-07
5.81993e-07
5.809e-07
5.79821e-07
5.78757e-07
5.77709e-07
5.76681e-07
5.75672e-07
5.74685e-07
5.7372e-07
5.72779e-07
5.71864e-07
5.70975e-07
5.70114e-07
5.69281e-07
5.68477e-07
5.67703e-07
5.66958e-07
5.66242e-07
5.65557e-07
5.64899e-07
5.6427e-07
5.63666e-07
5.63088e-07
5.62527e-07
5.61988e-07
5.6145e-07
5.60917e-07
5.60359e-07
5.59813e-07
5.59278e-07
5.58844e-07
6.13084e-07
6.12931e-07
6.12624e-07
6.12166e-07
6.11568e-07
6.10845e-07
6.10015e-07
6.09098e-07
6.08108e-07
6.07059e-07
6.0596e-07
6.04821e-07
6.03646e-07
6.02443e-07
6.01216e-07
5.99971e-07
5.98712e-07
5.97442e-07
5.96165e-07
5.94883e-07
5.93598e-07
5.92312e-07
5.91027e-07
5.89745e-07
5.88467e-07
5.87194e-07
5.85929e-07
5.84671e-07
5.83423e-07
5.82185e-07
5.80959e-07
5.79747e-07
5.78548e-07
5.77365e-07
5.76198e-07
5.7505e-07
5.73919e-07
5.72809e-07
5.7172e-07
5.70652e-07
5.69606e-07
5.68584e-07
5.67586e-07
5.66611e-07
5.6566e-07
5.64733e-07
5.63827e-07
5.62945e-07
5.62081e-07
5.61236e-07
5.60401e-07
5.5958e-07
5.58759e-07
5.57942e-07
5.57114e-07
5.56285e-07
5.55438e-07
5.54594e-07
5.53739e-07
5.52952e-07
6.18991e-07
6.18785e-07
6.1837e-07
6.17751e-07
6.16943e-07
6.15975e-07
6.14881e-07
6.1369e-07
6.12426e-07
6.11108e-07
6.09747e-07
6.08353e-07
6.06933e-07
6.05494e-07
6.04041e-07
6.02581e-07
6.01116e-07
5.99649e-07
5.98184e-07
5.96721e-07
5.95261e-07
5.93807e-07
5.92358e-07
5.90917e-07
5.89482e-07
5.88056e-07
5.86639e-07
5.85232e-07
5.83835e-07
5.82449e-07
5.81076e-07
5.79714e-07
5.78367e-07
5.77033e-07
5.75715e-07
5.74413e-07
5.73129e-07
5.71861e-07
5.70613e-07
5.69383e-07
5.68174e-07
5.66984e-07
5.65816e-07
5.64669e-07
5.63544e-07
5.6244e-07
5.61357e-07
5.60294e-07
5.5925e-07
5.58224e-07
5.57213e-07
5.56214e-07
5.55222e-07
5.5423e-07
5.53228e-07
5.52206e-07
5.51145e-07
5.50041e-07
5.48887e-07
5.47735e-07
6.26045e-07
6.25621e-07
6.24853e-07
6.23792e-07
6.22506e-07
6.21066e-07
6.19531e-07
6.1794e-07
6.16313e-07
6.14662e-07
6.12993e-07
6.11312e-07
6.09625e-07
6.07938e-07
6.06256e-07
6.04583e-07
6.0292e-07
6.01268e-07
5.99627e-07
5.97996e-07
5.96376e-07
5.94765e-07
5.93165e-07
5.91575e-07
5.89994e-07
5.88423e-07
5.86862e-07
5.8531e-07
5.83768e-07
5.82237e-07
5.80716e-07
5.79206e-07
5.77707e-07
5.76221e-07
5.74748e-07
5.73287e-07
5.71842e-07
5.70411e-07
5.68997e-07
5.67597e-07
5.66217e-07
5.64851e-07
5.63507e-07
5.62178e-07
5.60872e-07
5.5958e-07
5.58314e-07
5.5706e-07
5.55834e-07
5.54618e-07
5.53433e-07
5.5225e-07
5.51105e-07
5.4995e-07
5.48838e-07
5.477e-07
5.46608e-07
5.45462e-07
5.44371e-07
5.43207e-07
6.38007e-07
6.37267e-07
6.35875e-07
6.33957e-07
6.31716e-07
6.29351e-07
6.26987e-07
6.24674e-07
6.22416e-07
6.202e-07
6.18018e-07
6.15867e-07
6.13755e-07
6.11685e-07
6.0966e-07
6.07679e-07
6.05736e-07
6.03828e-07
6.0195e-07
6.00099e-07
5.98271e-07
5.96464e-07
5.94676e-07
5.92906e-07
5.91151e-07
5.8941e-07
5.87682e-07
5.85965e-07
5.8426e-07
5.82566e-07
5.80883e-07
5.7921e-07
5.77549e-07
5.75897e-07
5.74259e-07
5.72632e-07
5.71019e-07
5.69417e-07
5.67832e-07
5.66258e-07
5.64704e-07
5.6316e-07
5.61641e-07
5.60129e-07
5.58649e-07
5.57172e-07
5.55735e-07
5.54297e-07
5.52915e-07
5.51521e-07
5.50211e-07
5.48875e-07
5.47668e-07
5.46411e-07
5.45359e-07
5.44212e-07
5.43382e-07
5.42357e-07
5.41786e-07
5.40742e-07
6.4696e-07
6.45243e-07
6.4262e-07
6.39528e-07
6.36358e-07
6.33322e-07
6.30469e-07
6.27765e-07
6.25158e-07
6.22617e-07
6.20136e-07
6.17722e-07
6.1538e-07
6.1311e-07
6.10907e-07
6.08761e-07
6.06662e-07
6.04603e-07
6.02579e-07
6.00585e-07
5.98617e-07
5.96672e-07
5.94745e-07
5.92836e-07
5.90941e-07
5.89058e-07
5.87187e-07
5.85325e-07
5.83473e-07
5.8163e-07
5.79796e-07
5.77971e-07
5.76156e-07
5.7435e-07
5.72556e-07
5.70772e-07
5.69001e-07
5.67241e-07
5.65497e-07
5.63763e-07
5.6205e-07
5.60345e-07
5.58665e-07
5.5699e-07
5.55347e-07
5.53701e-07
5.52101e-07
5.50481e-07
5.48933e-07
5.4734e-07
5.45868e-07
5.44306e-07
5.42966e-07
5.41464e-07
5.40404e-07
5.39054e-07
5.3863e-07
5.37509e-07
5.38355e-07
5.37066e-07
6.95086e-07
6.80977e-07
6.67235e-07
6.56697e-07
6.49327e-07
6.44001e-07
6.39626e-07
6.35636e-07
6.31862e-07
6.2831e-07
6.25018e-07
6.21989e-07
6.1919e-07
6.1657e-07
6.14084e-07
6.11698e-07
6.09391e-07
6.07149e-07
6.04962e-07
6.02822e-07
6.00721e-07
5.98651e-07
5.96607e-07
5.94583e-07
5.92576e-07
5.90583e-07
5.88602e-07
5.86631e-07
5.8467e-07
5.82717e-07
5.80772e-07
5.78836e-07
5.76909e-07
5.74991e-07
5.73083e-07
5.71186e-07
5.69302e-07
5.6743e-07
5.65571e-07
5.63728e-07
5.619e-07
5.60088e-07
5.58293e-07
5.56515e-07
5.54755e-07
5.5301e-07
5.51283e-07
5.49568e-07
5.47872e-07
5.46179e-07
5.44509e-07
5.42817e-07
5.41173e-07
5.39427e-07
5.37845e-07
5.35847e-07
5.34597e-07
5.31425e-07
5.32311e-07
5.22895e-07
4.92849e-07
4.38735e-07
4.14671e-07
3.93846e-07
3.72997e-07
3.51769e-07
3.28782e-07
3.04412e-07
2.7745e-07
2.48981e-07
2.18087e-07
1.86768e-07
1.54224e-07
1.23214e-07
9.28691e-08
6.64506e-08
4.26374e-08
2.44343e-08
9.92202e-09
1.67958e-09
-3.00418e-09
-1.5754e-09
2.42186e-09
1.25193e-08
2.40499e-08
4.25361e-08
5.93433e-08
8.58071e-08
1.06892e-07
1.02707e-07
4.77428e-07
4.1817e-07
4.01298e-07
3.83181e-07
3.63094e-07
3.42368e-07
3.19952e-07
2.96049e-07
2.69585e-07
2.4182e-07
2.11849e-07
1.8167e-07
1.50398e-07
1.20817e-07
9.19216e-08
6.65353e-08
4.3562e-08
2.58262e-08
1.14141e-08
2.88954e-09
-2.45914e-09
-1.98843e-09
6.95098e-10
9.10429e-09
1.84514e-08
3.45621e-08
4.9921e-08
7.09461e-08
1.02564e-07
6.14478e-08
4.64102e-07
4.15015e-07
3.99287e-07
3.81686e-07
3.61174e-07
3.39657e-07
3.16691e-07
2.92473e-07
2.66021e-07
2.38294e-07
2.08589e-07
1.78677e-07
1.47875e-07
1.18621e-07
9.00435e-08
6.51493e-08
4.25278e-08
2.50884e-08
1.06818e-08
2.19402e-09
-3.44207e-09
-3.16008e-09
-9.87067e-10
7.0852e-09
1.60386e-08
3.06763e-08
4.59758e-08
6.13173e-08
1.02749e-07
6.8812e-08
4.52723e-07
4.09573e-07
3.91567e-07
3.74457e-07
3.54642e-07
3.33715e-07
3.1106e-07
2.86933e-07
2.60589e-07
2.32945e-07
2.03479e-07
1.73825e-07
1.43427e-07
1.14612e-07
8.6599e-08
6.21137e-08
3.98483e-08
2.25304e-08
8.23458e-09
-4.06602e-10
-6.08339e-09
-6.27011e-09
-4.15027e-09
2.70009e-09
1.16572e-08
2.35536e-08
4.09809e-08
4.83123e-08
9.44803e-08
7.05217e-08
4.41544e-07
4.05755e-07
3.86881e-07
3.71062e-07
3.51835e-07
3.3011e-07
3.0685e-07
2.8222e-07
2.55751e-07
2.27831e-07
1.9842e-07
1.68633e-07
1.38509e-07
1.09692e-07
8.2075e-08
5.75159e-08
3.55874e-08
1.80658e-08
4.03762e-09
-5.05654e-09
-1.04706e-08
-1.14039e-08
-8.81206e-09
-3.07968e-09
7.04022e-09
1.68401e-08
3.69095e-08
4.33287e-08
8.36175e-08
7.97027e-08
4.31521e-07
4.02765e-07
3.82861e-07
3.66446e-07
3.47428e-07
3.25686e-07
3.02221e-07
2.77181e-07
2.50507e-07
2.22211e-07
1.92718e-07
1.62614e-07
1.32597e-07
1.03522e-07
7.61419e-08
5.1332e-08
2.97567e-08
1.18402e-08
-1.86276e-09
-1.15683e-08
-1.65929e-08
-1.8328e-08
-1.50256e-08
-1.01694e-08
1.09237e-09
1.00325e-08
3.05072e-08
3.92438e-08
7.09017e-08
8.04713e-08
4.22946e-07
3.99872e-07
3.79688e-07
3.62352e-07
3.43424e-07
3.216e-07
2.97792e-07
2.72126e-07
2.45025e-07
2.1619e-07
1.86428e-07
1.5586e-07
1.25748e-07
9.62932e-08
6.90059e-08
4.38428e-08
2.24614e-08
4.09613e-09
-9.38848e-09
-1.96654e-08
-2.44542e-08
-2.67461e-08
-2.31042e-08
-1.85281e-08
-6.98416e-09
2.62504e-09
2.18467e-08
3.44514e-08
5.96721e-08
7.64948e-08
4.16013e-07
3.9696e-07
3.77142e-07
3.58671e-07
3.39397e-07
3.17367e-07
2.93138e-07
2.6681e-07
2.3911e-07
2.09662e-07
1.7944e-07
1.48347e-07
1.17926e-07
8.80509e-08
6.06287e-08
3.51186e-08
1.36851e-08
-4.98829e-09
-1.85296e-08
-2.9144e-08
-3.40838e-08
-3.65757e-08
-3.31563e-08
-2.83425e-08
-1.72594e-08
-6.42176e-09
1.12992e-08
2.69512e-08
4.91841e-08
6.86717e-08
4.10792e-07
3.94005e-07
3.74696e-07
3.55353e-07
3.35381e-07
3.12942e-07
2.88191e-07
2.6118e-07
2.3272e-07
2.02587e-07
1.71715e-07
1.40059e-07
1.09128e-07
7.88319e-08
5.10458e-08
2.52498e-08
3.50928e-09
-1.53428e-08
-2.92089e-08
-3.99727e-08
-4.53867e-08
-4.79026e-08
-4.50465e-08
-3.99248e-08
-2.9501e-08
-1.77488e-08
-9.05839e-10
1.63086e-08
3.77123e-08
5.79957e-08
4.07026e-07
3.91032e-07
3.72165e-07
3.52221e-07
3.31332e-07
3.08251e-07
2.82838e-07
2.55113e-07
2.25777e-07
1.94886e-07
1.63218e-07
1.30953e-07
9.93687e-08
6.86368e-08
4.03289e-08
1.4269e-08
-7.92579e-09
-2.69356e-08
-4.12806e-08
-5.21791e-08
-5.81731e-08
-6.08023e-08
-5.85776e-08
-5.34237e-08
-4.35965e-08
-3.14892e-08
-1.50658e-08
2.77282e-09
2.40471e-08
4.46486e-08
4.04233e-07
3.88136e-07
3.69424e-07
3.48977e-07
3.27115e-07
3.03205e-07
2.76984e-07
2.48484e-07
2.18206e-07
1.86476e-07
1.53919e-07
1.2098e-07
8.86607e-08
5.74488e-08
2.85527e-08
2.18171e-09
-2.0515e-08
-3.97641e-08
-5.46127e-08
-6.57499e-08
-7.23134e-08
-7.52544e-08
-7.36624e-08
-6.87947e-08
-5.95491e-08
-4.75486e-08
-3.14989e-08
-1.3534e-08
7.62049e-09
2.83345e-08
4.01901e-07
3.85362e-07
3.66408e-07
3.45388e-07
3.22556e-07
2.97695e-07
2.7055e-07
2.41183e-07
2.09919e-07
1.77268e-07
1.43766e-07
1.1007e-07
7.69835e-08
4.52265e-08
1.57364e-08
-1.10217e-08
-3.4208e-08
-5.38051e-08
-6.91517e-08
-8.06477e-08
-8.77678e-08
-9.11977e-08
-9.02743e-08
-8.5958e-08
-7.739e-08
-6.58632e-08
-5.03453e-08
-3.26399e-08
-1.18245e-08
8.69102e-09
3.99595e-07
3.82589e-07
3.63066e-07
3.41297e-07
3.17478e-07
2.91597e-07
2.63443e-07
2.33103e-07
2.00807e-07
1.67154e-07
1.32669e-07
9.81294e-08
6.42608e-08
3.18834e-08
1.81183e-09
-2.54006e-08
-4.90541e-08
-6.90633e-08
-8.48884e-08
-9.68788e-08
-1.04573e-07
-1.08617e-07
-1.08439e-07
-1.0488e-07
-9.71627e-08
-8.64047e-08
-7.16914e-08
-5.45914e-08
-3.44453e-08
-1.44239e-08
3.97054e-07
3.7959e-07
3.59299e-07
3.3661e-07
3.11754e-07
2.84788e-07
2.55549e-07
2.24126e-07
1.90733e-07
1.55991e-07
1.20478e-07
8.50125e-08
5.03418e-08
1.72756e-08
-1.33749e-08
-4.10974e-08
-6.52053e-08
-8.56665e-08
-1.01969e-07
-1.14501e-07
-1.2282e-07
-1.27582e-07
-1.2824e-07
-1.25612e-07
-1.18931e-07
-1.09222e-07
-9.56021e-08
-7.94829e-08
-6.03371e-08
-4.12424e-08
3.94136e-07
3.76147e-07
3.54983e-07
3.31261e-07
3.05295e-07
2.77159e-07
2.46733e-07
2.14098e-07
1.79509e-07
1.43579e-07
1.06973e-07
7.05021e-08
3.49886e-08
1.17782e-09
-3.00674e-08
-5.83335e-08
-8.28963e-08
-1.03834e-07
-1.20615e-07
-1.33721e-07
-1.42688e-07
-1.48254e-07
-1.49832e-07
-1.48281e-07
-1.42815e-07
-1.3442e-07
-1.22195e-07
-1.07451e-07
-8.9691e-08
-7.1974e-08
3.90801e-07
3.72139e-07
3.50049e-07
3.25211e-07
2.98027e-07
2.68581e-07
2.36816e-07
2.0281e-07
1.6689e-07
1.29652e-07
9.18592e-08
5.42984e-08
1.78808e-08
-1.67218e-08
-4.85896e-08
-7.7413e-08
-1.02437e-07
-1.23852e-07
-1.4111e-07
-1.54801e-07
-1.64443e-07
-1.70853e-07
-1.73425e-07
-1.73067e-07
-1.68984e-07
-1.6214e-07
-1.51634e-07
-1.38671e-07
-1.22779e-07
-1.06921e-07
3.87145e-07
3.6757e-07
3.44475e-07
3.18416e-07
2.89843e-07
2.58879e-07
2.25559e-07
1.89984e-07
1.52558e-07
1.1387e-07
7.47728e-08
3.60329e-08
-1.36087e-09
-3.67926e-08
-6.93095e-08
-9.86843e-08
-1.24168e-07
-1.46032e-07
-1.63756e-07
-1.7801e-07
-1.88337e-07
-1.95609e-07
-1.99248e-07
-2.00169e-07
-1.97624e-07
-1.9253e-07
-1.84055e-07
-1.73281e-07
-1.5982e-07
-1.46419e-07
3.83312e-07
3.62504e-07
3.38211e-07
3.1074e-07
2.8053e-07
2.47778e-07
2.12634e-07
1.75257e-07
1.36123e-07
9.58314e-08
5.52979e-08
1.5294e-08
-2.31433e-08
-5.94224e-08
-9.26001e-08
-1.22493e-07
-1.48414e-07
-1.7067e-07
-1.88831e-07
-2.03591e-07
-2.14591e-07
-2.22698e-07
-2.27454e-07
-2.29715e-07
-2.28862e-07
-2.25684e-07
-2.19538e-07
-2.11316e-07
-2.00865e-07
-1.9059e-07
3.79392e-07
3.57002e-07
3.31133e-07
3.01904e-07
2.69724e-07
2.34871e-07
1.9761e-07
1.58183e-07
1.17126e-07
7.50716e-08
3.29744e-08
-8.36193e-09
-4.78919e-08
-8.50086e-08
-1.18835e-07
-1.49182e-07
-1.75494e-07
-1.98054e-07
-2.16599e-07
-2.31765e-07
-2.43393e-07
-2.52247e-07
-2.58113e-07
-2.61699e-07
-2.62656e-07
-2.61557e-07
-2.58034e-07
-2.52712e-07
-2.45784e-07
-2.39288e-07
3.75091e-07
3.50796e-07
3.22849e-07
2.91397e-07
2.56862e-07
2.1959e-07
1.79925e-07
1.38201e-07
9.50047e-08
5.1035e-08
7.25806e-09
-3.54565e-08
-7.61034e-08
-1.14017e-07
-1.4845e-07
-1.79157e-07
-2.05785e-07
-2.28531e-07
-2.47377e-07
-2.62821e-07
-2.74988e-07
-2.84461e-07
-2.91353e-07
-2.96165e-07
-2.98922e-07
-2.99953e-07
-2.99246e-07
-2.97154e-07
-2.94221e-07
-2.9213e-07
3.6964e-07
3.4311e-07
3.12625e-07
2.78486e-07
2.41195e-07
2.01173e-07
1.58808e-07
1.14536e-07
6.89818e-08
2.29491e-08
-2.26108e-08
-6.67294e-08
-1.08487e-07
-1.47127e-07
-1.82083e-07
-2.13022e-07
-2.3985e-07
-2.6264e-07
-2.81667e-07
-2.97239e-07
-3.09805e-07
-3.19717e-07
-3.27462e-07
-3.33316e-07
-3.3771e-07
-3.40769e-07
-3.42867e-07
-3.44126e-07