/*--------------------------------*- C++ -*----------------------------------*\
| =========                 |                                                 |
| \\      /  F ield         | OpenFOAM: The Open Source CFD Toolbox           |
|  \\    /   O peration     | Version:  2312                                  |
|   \\  /    A nd           | Website:  www.openfoam.com                      |
|    \\/     M anipulation  |                                                 |
\*---------------------------------------------------------------------------*/
FoamFile
{
    version     2.0;
    format      ascii;
    arch        "LSB;label=32;scalar=64";
    class       volVectorField;
    location    "196000";
    object      U;
}
// * * * * * * * * * * * * * * * * * * * * * * * * * * * * * * * * * * * * * //

dimensions      [0 1 -1 0 0 0 0];

internalField   nonuniform List<vector> 
10800
(
(0.000992484 4.93479e-06 0)
(0.000990052 1.24358e-05 0)
(0.000986912 1.74414e-05 0)
(0.00098058 2.06085e-05 0)
(0.000971222 2.26741e-05 0)
(0.000960002 2.41495e-05 0)
(0.000947986 2.52698e-05 0)
(0.00093571 2.61099e-05 0)
(0.000923316 2.66944e-05 0)
(0.000910782 2.70486e-05 0)
(0.000898065 2.72103e-05 0)
(0.000885158 2.72228e-05 0)
(0.000872099 2.71243e-05 0)
(0.000858942 2.69431e-05 0)
(0.000845738 2.66979e-05 0)
(0.000832524 2.64004e-05 0)
(0.000819325 2.6059e-05 0)
(0.000806157 2.56804e-05 0)
(0.000793035 2.52703e-05 0)
(0.000779972 2.48337e-05 0)
(0.000766982 2.43746e-05 0)
(0.000754078 2.38961e-05 0)
(0.000741273 2.34002e-05 0)
(0.000728579 2.28888e-05 0)
(0.000716007 2.23627e-05 0)
(0.000703568 2.18231e-05 0)
(0.000691274 2.12699e-05 0)
(0.000679135 2.07041e-05 0)
(0.000667162 2.01248e-05 0)
(0.000655367 1.95333e-05 0)
(0.000643761 1.89276e-05 0)
(0.000632356 1.83098e-05 0)
(0.000621164 1.76767e-05 0)
(0.000610197 1.70317e-05 0)
(0.000599469 1.63699e-05 0)
(0.00058899 1.56971e-05 0)
(0.000578778 1.50057e-05 0)
(0.00056884 1.43057e-05 0)
(0.000559198 1.35844e-05 0)
(0.000549853 1.28591e-05 0)
(0.000540838 1.21085e-05 0)
(0.000532138 1.13622e-05 0)
(0.000523811 1.05833e-05 0)
(0.000515801 9.82274e-06 0)
(0.00050823 9.01628e-06 0)
(0.000500942 8.25073e-06 0)
(0.000494217 7.41494e-06 0)
(0.000487636 6.65471e-06 0)
(0.000481922 5.78345e-06 0)
(0.000475911 5.03126e-06 0)
(0.000471594 4.11908e-06 0)
(0.000465634 3.33116e-06 0)
(0.000463797 2.42272e-06 0)
(0.000456199 1.34637e-06 0)
(0.000460055 7.89746e-07 0)
(0.000445588 -1.66595e-06 0)
(0.000464634 -1.90746e-07 0)
(0.000428135 -8.12796e-06 0)
(0.000487693 1.78987e-06 0)
(0.000391789 -2.4622e-05 0)
(0.00100003 5.77658e-06 0)
(0.00100173 1.49135e-05 0)
(0.00100426 2.13885e-05 0)
(0.00100712 2.58939e-05 0)
(0.0010099 2.91927e-05 0)
(0.00101237 3.18134e-05 0)
(0.00101446 3.4004e-05 0)
(0.00101622 3.58514e-05 0)
(0.0010177 3.73886e-05 0)
(0.00101892 3.86468e-05 0)
(0.0010199 3.96677e-05 0)
(0.00102063 4.04979e-05 0)
(0.00102111 4.11782e-05 0)
(0.00102134 4.17396e-05 0)
(0.00102133 4.22024e-05 0)
(0.00102109 4.258e-05 0)
(0.00102064 4.28815e-05 0)
(0.00101999 4.31142e-05 0)
(0.00101914 4.32841e-05 0)
(0.00101812 4.33964e-05 0)
(0.00101692 4.3455e-05 0)
(0.00101556 4.34629e-05 0)
(0.00101404 4.34223e-05 0)
(0.00101237 4.33343e-05 0)
(0.00101058 4.32002e-05 0)
(0.00100864 4.30196e-05 0)
(0.0010066 4.27936e-05 0)
(0.00100442 4.25202e-05 0)
(0.00100217 4.22011e-05 0)
(0.000999781 4.18324e-05 0)
(0.000997355 4.14173e-05 0)
(0.000994787 4.0949e-05 0)
(0.000992231 4.04339e-05 0)
(0.000989507 3.98602e-05 0)
(0.00098687 3.92411e-05 0)
(0.00098401 3.85552e-05 0)
(0.000981353 3.78288e-05 0)
(0.000978364 3.70232e-05 0)
(0.000975767 3.61885e-05 0)
(0.000972638 3.52542e-05 0)
(0.000970213 3.43141e-05 0)
(0.000966896 3.32397e-05 0)
(0.00096481 3.22037e-05 0)
(0.00096119 3.09724e-05 0)
(0.000959701 2.98602e-05 0)
(0.000955549 2.84445e-05 0)
(0.000955071 2.72924e-05 0)
(0.000949953 2.56437e-05 0)
(0.000951171 2.45143e-05 0)
(0.000944295 2.25462e-05 0)
(0.000948354 2.15443e-05 0)
(0.000938304 1.91049e-05 0)
(0.000947131 1.84008e-05 0)
(0.000931414 1.52353e-05 0)
(0.000948255 1.50887e-05 0)
(0.000922527 1.08086e-05 0)
(0.000952855 1.1536e-05 0)
(0.000909629 5.71973e-06 0)
(0.000962791 7.2952e-06 0)
(0.000889641 4.02051e-07 0)
(0.000999989 1.92478e-06 0)
(0.00100079 5.64698e-06 0)
(0.00100227 9.08945e-06 0)
(0.0010043 1.21688e-05 0)
(0.00100665 1.48825e-05 0)
(0.00100914 1.72764e-05 0)
(0.00101163 1.94056e-05 0)
(0.00101407 2.13137e-05 0)
(0.00101648 2.30285e-05 0)
(0.00101884 2.45675e-05 0)
(0.00102117 2.59445e-05 0)
(0.00102347 2.71735e-05 0)
(0.00102572 2.82696e-05 0)
(0.00102792 2.92474e-05 0)
(0.00103006 3.012e-05 0)
(0.00103215 3.08977e-05 0)
(0.00103418 3.15895e-05 0)
(0.00103615 3.22016e-05 0)
(0.00103807 3.27401e-05 0)
(0.00103994 3.32087e-05 0)
(0.00104177 3.36126e-05 0)
(0.00104354 3.39531e-05 0)
(0.00104527 3.42348e-05 0)
(0.00104695 3.44567e-05 0)
(0.00104859 3.46235e-05 0)
(0.00105016 3.47315e-05 0)
(0.00105172 3.47865e-05 0)
(0.00105321 3.47812e-05 0)
(0.00105469 3.47242e-05 0)
(0.00105607 3.46031e-05 0)
(0.00105749 3.44318e-05 0)
(0.00105877 3.419e-05 0)
(0.00106013 3.39003e-05 0)
(0.00106131 3.35309e-05 0)
(0.00106263 3.31184e-05 0)
(0.0010637 3.26129e-05 0)
(0.001065 3.20735e-05 0)
(0.00106594 3.14222e-05 0)
(0.00106726 3.07531e-05 0)
(0.00106804 2.99456e-05 0)
(0.00106945 2.91468e-05 0)
(0.00107 2.81714e-05 0)
(0.00107158 2.72465e-05 0)
(0.00107184 2.60907e-05 0)
(0.00107373 2.50484e-05 0)
(0.00107354 2.36983e-05 0)
(0.00107594 2.25534e-05 0)
(0.0010751 2.0994e-05 0)
(0.00107831 1.97688e-05 0)
(0.00107647 1.7986e-05 0)
(0.00108094 1.67102e-05 0)
(0.00107757 1.46951e-05 0)
(0.00108398 1.3405e-05 0)
(0.00107826 1.11688e-05 0)
(0.00108763 9.90393e-06 0)
(0.00107831 7.51659e-06 0)
(0.00109215 6.31466e-06 0)
(0.00107736 4.00513e-06 0)
(0.00109796 2.86855e-06 0)
(0.00107494 1.18895e-06 0)
(0.00100001 1.69154e-06 0)
(0.00100048 5.00357e-06 0)
(0.00100131 8.1538e-06 0)
(0.00100245 1.10666e-05 0)
(0.00100384 1.3702e-05 0)
(0.00100541 1.60579e-05 0)
(0.0010071 1.81569e-05 0)
(0.00100887 2.00294e-05 0)
(0.0010107 2.17035e-05 0)
(0.00101259 2.32006e-05 0)
(0.00101451 2.45372e-05 0)
(0.00101648 2.57269e-05 0)
(0.00101847 2.67829e-05 0)
(0.00102048 2.77177e-05 0)
(0.00102251 2.85439e-05 0)
(0.00102455 2.92722e-05 0)
(0.00102661 2.99125e-05 0)
(0.00102866 3.04722e-05 0)
(0.00103073 3.09583e-05 0)
(0.0010328 3.13753e-05 0)
(0.00103487 3.17286e-05 0)
(0.00103695 3.20205e-05 0)
(0.00103903 3.22552e-05 0)
(0.00104112 3.24333e-05 0)
(0.00104321 3.25584e-05 0)
(0.00104529 3.26287e-05 0)
(0.00104739 3.26482e-05 0)
(0.00104948 3.26127e-05 0)
(0.00105158 3.25271e-05 0)
(0.00105367 3.23843e-05 0)
(0.00105578 3.2191e-05 0)
(0.00105785 3.19366e-05 0)
(0.00105997 3.1631e-05 0)
(0.00106203 3.1259e-05 0)
(0.00106415 3.08348e-05 0)
(0.00106619 3.03375e-05 0)
(0.00106832 2.97874e-05 0)
(0.00107033 2.91567e-05 0)
(0.00107248 2.8473e-05 0)
(0.00107445 2.77007e-05 0)
(0.00107663 2.68754e-05 0)
(0.00107854 2.59546e-05 0)
(0.00108076 2.49794e-05 0)
(0.00108259 2.39053e-05 0)
(0.00108488 2.27719e-05 0)
(0.00108661 2.15436e-05 0)
(0.00108902 2.02421e-05 0)
(0.0010906 1.88662e-05 0)
(0.00109318 1.73842e-05 0)
(0.00109457 1.58801e-05 0)
(0.0010974 1.42023e-05 0)
(0.00109852 1.26138e-05 0)
(0.00110171 1.07211e-05 0)
(0.00110245 9.1342e-06 0)
(0.00110614 6.99809e-06 0)
(0.00110633 5.55743e-06 0)
(0.00111074 3.12141e-06 0)
(0.00111019 2.05384e-06 0)
(0.0011156 -8.04739e-07 0)
(0.00111394 -1.1736e-06 0)
(0.001 1.08879e-06 0)
(0.00100023 3.23247e-06 0)
(0.0010007 5.30519e-06 0)
(0.00100139 7.27619e-06 0)
(0.00100229 9.12501e-06 0)
(0.00100338 1.08423e-05 0)
(0.00100461 1.24275e-05 0)
(0.00100596 1.38857e-05 0)
(0.00100741 1.52238e-05 0)
(0.00100893 1.6449e-05 0)
(0.00101052 1.75675e-05 0)
(0.00101216 1.85852e-05 0)
(0.00101386 1.95078e-05 0)
(0.00101559 2.03408e-05 0)
(0.00101736 2.10902e-05 0)
(0.00101915 2.17614e-05 0)
(0.00102097 2.23596e-05 0)
(0.00102282 2.28892e-05 0)
(0.00102468 2.33543e-05 0)
(0.00102657 2.37579e-05 0)
(0.00102847 2.4103e-05 0)
(0.00103038 2.43916e-05 0)
(0.00103231 2.46256e-05 0)
(0.00103425 2.48063e-05 0)
(0.0010362 2.49348e-05 0)
(0.00103817 2.50114e-05 0)
(0.00104014 2.50363e-05 0)
(0.00104213 2.50095e-05 0)
(0.00104412 2.49302e-05 0)
(0.00104613 2.4798e-05 0)
(0.00104814 2.46113e-05 0)
(0.00105016 2.43697e-05 0)
(0.00105218 2.40701e-05 0)
(0.00105421 2.37135e-05 0)
(0.00105625 2.32939e-05 0)
(0.00105828 2.28155e-05 0)
(0.00106033 2.22673e-05 0)
(0.00106237 2.166e-05 0)
(0.00106443 2.09734e-05 0)
(0.00106647 2.02304e-05 0)
(0.00106853 1.93944e-05 0)
(0.00107057 1.85102e-05 0)
(0.00107264 1.75125e-05 0)
(0.00107468 1.64848e-05 0)
(0.00107675 1.53113e-05 0)
(0.00107879 1.4143e-05 0)
(0.00108086 1.2777e-05 0)
(0.00108291 1.14789e-05 0)
(0.00108498 9.89761e-06 0)
(0.00108706 8.49061e-06 0)
(0.00108914 6.65855e-06 0)
(0.00109128 5.17885e-06 0)
(0.00109339 3.04372e-06 0)
(0.00109566 1.55855e-06 0)
(0.0010978 -9.4752e-07 0)
(0.00110027 -2.31792e-06 0)
(0.00110241 -5.2928e-06 0)
(0.00110514 -6.35899e-06 0)
(0.00110718 -9.97411e-06 0)
(0.00111017 -1.04845e-05 0)
(0.001 8.53286e-07 0)
(0.00100018 2.54317e-06 0)
(0.00100054 4.19899e-06 0)
(0.00100106 5.80287e-06 0)
(0.00100174 7.33837e-06 0)
(0.00100256 8.79267e-06 0)
(0.00100351 1.01576e-05 0)
(0.00100457 1.14295e-05 0)
(0.00100571 1.26078e-05 0)
(0.00100694 1.36942e-05 0)
(0.00100824 1.46912e-05 0)
(0.00100959 1.56019e-05 0)
(0.00101101 1.64294e-05 0)
(0.00101247 1.71775e-05 0)
(0.00101398 1.78497e-05 0)
(0.00101553 1.84499e-05 0)
(0.00101711 1.89817e-05 0)
(0.00101872 1.94486e-05 0)
(0.00102036 1.98538e-05 0)
(0.00102202 2.02001e-05 0)
(0.00102371 2.04898e-05 0)
(0.00102542 2.07252e-05 0)
(0.00102715 2.09075e-05 0)
(0.00102889 2.10386e-05 0)
(0.00103065 2.11186e-05 0)
(0.00103243 2.11491e-05 0)
(0.00103421 2.11291e-05 0)
(0.00103601 2.106e-05 0)
(0.00103782 2.09396e-05 0)
(0.00103964 2.07695e-05 0)
(0.00104146 2.05457e-05 0)
(0.0010433 2.02711e-05 0)
(0.00104513 1.9939e-05 0)
(0.00104698 1.95545e-05 0)
(0.00104883 1.91071e-05 0)
(0.00105068 1.86062e-05 0)
(0.00105253 1.80349e-05 0)
(0.00105439 1.741e-05 0)
(0.00105624 1.67047e-05 0)
(0.00105811 1.59482e-05 0)
(0.00105996 1.5097e-05 0)
(0.00106183 1.42018e-05 0)
(0.00106368 1.3191e-05 0)
(0.00106557 1.2151e-05 0)
(0.00106741 1.09645e-05 0)
(0.00106931 9.77658e-06 0)
(0.00107115 8.39526e-06 0)
(0.00107309 7.06262e-06 0)
(0.00107492 5.4656e-06 0)
(0.0010769 4.00306e-06 0)
(0.00107871 2.15998e-06 0)
(0.00108077 5.90168e-07 0)
(0.00108255 -1.54595e-06 0)
(0.00108475 -3.19145e-06 0)
(0.0010865 -5.70072e-06 0)
(0.00108893 -7.36646e-06 0)
(0.00109064 -1.03615e-05 0)
(0.0010934 -1.19487e-05 0)
(0.0010949 -1.55929e-05 0)
(0.00109793 -1.69534e-05 0)
(0.001 6.47345e-07 0)
(0.00100013 1.9257e-06 0)
(0.0010004 3.17592e-06 0)
(0.00100078 4.38667e-06 0)
(0.0010013 5.54795e-06 0)
(0.00100193 6.65186e-06 0)
(0.00100266 7.69293e-06 0)
(0.0010035 8.668e-06 0)
(0.00100442 9.57581e-06 0)
(0.00100543 1.04166e-05 0)
(0.0010065 1.11913e-05 0)
(0.00100764 1.19018e-05 0)
(0.00100884 1.25496e-05 0)
(0.00101009 1.31368e-05 0)
(0.0010114 1.36655e-05 0)
(0.00101274 1.41376e-05 0)
(0.00101412 1.45554e-05 0)
(0.00101554 1.49208e-05 0)
(0.001017 1.52356e-05 0)
(0.00101848 1.55016e-05 0)
(0.00101998 1.57201e-05 0)
(0.00102151 1.58925e-05 0)
(0.00102306 1.60193e-05 0)
(0.00102463 1.61016e-05 0)
(0.00102621 1.61391e-05 0)
(0.00102781 1.61328e-05 0)
(0.00102943 1.60812e-05 0)
(0.00103105 1.59854e-05 0)
(0.00103268 1.58428e-05 0)
(0.00103432 1.56547e-05 0)
(0.00103597 1.54169e-05 0)
(0.00103762 1.51317e-05 0)
(0.00103927 1.47927e-05 0)
(0.00104093 1.44038e-05 0)
(0.00104259 1.39557e-05 0)
(0.00104425 1.34552e-05 0)
(0.0010459 1.28882e-05 0)
(0.00104756 1.2267e-05 0)
(0.00104921 1.15697e-05 0)
(0.00105086 1.0818e-05 0)
(0.0010525 9.97703e-06 0)
(0.00105415 9.08462e-06 0)
(0.00105577 8.08467e-06 0)
(0.00105742 7.04149e-06 0)
(0.00105902 5.86395e-06 0)
(0.00106066 4.6597e-06 0)
(0.00106226 3.28027e-06 0)
(0.00106392 1.90647e-06 0)
(0.00106551 2.95142e-07 0)
(0.0010672 -1.25095e-06 0)
(0.00106878 -3.126e-06 0)
(0.00107054 -4.83274e-06 0)
(0.00107212 -7.01438e-06 0)
(0.00107396 -8.86017e-06 0)
(0.00107552 -1.14177e-05 0)
(0.00107753 -1.33684e-05 0)
(0.00107905 -1.64085e-05 0)
(0.00108126 -1.84079e-05 0)
(0.00108262 -2.20889e-05 0)
(0.00108498 -2.40298e-05 0)
(0.001 4.88655e-07 0)
(0.00100011 1.45114e-06 0)
(0.00100031 2.39229e-06 0)
(0.00100062 3.30568e-06 0)
(0.00100103 4.18532e-06 0)
(0.00100153 5.02599e-06 0)
(0.00100213 5.82355e-06 0)
(0.00100282 6.57497e-06 0)
(0.00100358 7.27832e-06 0)
(0.00100442 7.93267e-06 0)
(0.00100533 8.53786e-06 0)
(0.0010063 9.09427e-06 0)
(0.00100733 9.60253e-06 0)
(0.00100841 1.00635e-05 0)
(0.00100954 1.04781e-05 0)
(0.00101071 1.08474e-05 0)
(0.00101193 1.11724e-05 0)
(0.00101318 1.14543e-05 0)
(0.00101446 1.1694e-05 0)
(0.00101577 1.18927e-05 0)
(0.00101711 1.20508e-05 0)
(0.00101847 1.21693e-05 0)
(0.00101986 1.22483e-05 0)
(0.00102126 1.22883e-05 0)
(0.00102268 1.2289e-05 0)
(0.00102412 1.22506e-05 0)
(0.00102556 1.2172e-05 0)
(0.00102702 1.20532e-05 0)
(0.00102848 1.18925e-05 0)
(0.00102995 1.16897e-05 0)
(0.00103142 1.14421e-05 0)
(0.0010329 1.11498e-05 0)
(0.00103437 1.08087e-05 0)
(0.00103585 1.04196e-05 0)
(0.00103732 9.97651e-06 0)
(0.00103879 9.48172e-06 0)
(0.00104026 8.92631e-06 0)
(0.00104172 8.31536e-06 0)
(0.00104316 7.63542e-06 0)
(0.00104461 6.89647e-06 0)
(0.00104604 6.07792e-06 0)
(0.00104747 5.19826e-06 0)
(0.00104887 4.22482e-06 0)
(0.00105028 3.1907e-06 0)
(0.00105166 2.04387e-06 0)
(0.00105305 8.43184e-07 0)
(0.00105441 -4.97195e-07 0)
(0.00105578 -1.87751e-06 0)
(0.00105711 -3.44144e-06 0)
(0.00105849 -5.01858e-06 0)
(0.00105981 -6.84309e-06 0)
(0.0010612 -8.62951e-06 0)
(0.0010625 -1.07636e-05 0)
(0.00106393 -1.27648e-05 0)
(0.00106522 -1.52686e-05 0)
(0.00106673 -1.74808e-05 0)
(0.00106797 -2.04422e-05 0)
(0.00106958 -2.28478e-05 0)
(0.00107066 -2.639e-05 0)
(0.00107227 -2.89398e-05 0)
(0.001 3.62197e-07 0)
(0.00100009 1.07195e-06 0)
(0.00100026 1.76324e-06 0)
(0.00100051 2.43229e-06 0)
(0.00100085 3.07545e-06 0)
(0.00100127 3.68948e-06 0)
(0.00100177 4.27162e-06 0)
(0.00100234 4.81973e-06 0)
(0.00100299 5.33224e-06 0)
(0.0010037 5.80815e-06 0)
(0.00100448 6.24687e-06 0)
(0.00100531 6.64822e-06 0)
(0.0010062 7.01234e-06 0)
(0.00100714 7.33966e-06 0)
(0.00100812 7.6307e-06 0)
(0.00100915 7.88616e-06 0)
(0.00101021 8.10669e-06 0)
(0.00101132 8.29304e-06 0)
(0.00101245 8.44582e-06 0)
(0.00101362 8.56564e-06 0)
(0.00101481 8.65286e-06 0)
(0.00101602 8.70786e-06 0)
(0.00101725 8.73065e-06 0)
(0.00101851 8.72127e-06 0)
(0.00101977 8.67933e-06 0)
(0.00102106 8.60451e-06 0)
(0.00102235 8.49593e-06 0)
(0.00102365 8.35293e-06 0)
(0.00102495 8.17407e-06 0)
(0.00102626 7.95834e-06 0)
(0.00102758 7.70369e-06 0)
(0.00102889 7.40884e-06 0)
(0.0010302 7.071e-06 0)
(0.0010315 6.68877e-06 0)
(0.0010328 6.25856e-06 0)
(0.00103409 5.77914e-06 0)
(0.00103537 5.24568e-06 0)
(0.00103664 4.65744e-06 0)
(0.00103789 4.00751e-06 0)
(0.00103913 3.29628e-06 0)
(0.00104036 2.51401e-06 0)
(0.00104157 1.66459e-06 0)
(0.00104275 7.33143e-07 0)
(0.00104392 -2.70624e-07 0)
(0.00104507 -1.37067e-06 0)
(0.0010462 -2.5464e-06 0)
(0.00104731 -3.83764e-06 0)
(0.00104841 -5.20512e-06 0)
(0.00104947 -6.71512e-06 0)
(0.00105052 -8.29568e-06 0)
(0.00105155 -1.00615e-05 0)
(0.00105257 -1.18805e-05 0)
(0.00105355 -1.39474e-05 0)
(0.00105455 -1.60283e-05 0)
(0.00105549 -1.84535e-05 0)
(0.00105649 -2.08173e-05 0)
(0.00105736 -2.36757e-05 0)
(0.00105835 -2.63362e-05 0)
(0.00105906 -2.97255e-05 0)
(0.00105994 -3.26749e-05 0)
(0.001 2.56845e-07 0)
(0.00100007 7.55579e-07 0)
(0.00100022 1.23721e-06 0)
(0.00100043 1.69961e-06 0)
(0.00100072 2.14079e-06 0)
(0.00100108 2.55888e-06 0)
(0.0010015 2.95232e-06 0)
(0.00100199 3.31982e-06 0)
(0.00100255 3.66041e-06 0)
(0.00100316 3.9735e-06 0)
(0.00100383 4.25875e-06 0)
(0.00100456 4.51611e-06 0)
(0.00100533 4.74574e-06 0)
(0.00100615 4.94793e-06 0)
(0.00100702 5.12309e-06 0)
(0.00100792 5.27166e-06 0)
(0.00100886 5.39414e-06 0)
(0.00100984 5.49098e-06 0)
(0.00101085 5.56261e-06 0)
(0.00101188 5.60932e-06 0)
(0.00101294 5.63133e-06 0)
(0.00101402 5.62866e-06 0)
(0.00101512 5.60124e-06 0)
(0.00101624 5.54875e-06 0)
(0.00101737 5.47079e-06 0)
(0.00101852 5.36662e-06 0)
(0.00101967 5.2355e-06 0)
(0.00102083 5.07623e-06 0)
(0.00102199 4.88775e-06 0)
(0.00102315 4.66829e-06 0)
(0.00102432 4.41652e-06 0)
(0.00102548 4.13001e-06 0)
(0.00102663 3.80674e-06 0)
(0.00102778 3.44373e-06 0)
(0.00102891 3.03923e-06 0)
(0.00103003 2.58925e-06 0)
(0.00103114 2.09205e-06 0)
(0.00103223 1.54268e-06 0)
(0.0010333 9.39761e-07 0)
(0.00103435 2.77421e-07 0)
(0.00103538 -4.4587e-07 0)
(0.00103638 -1.23763e-06 0)
(0.00103736 -2.09889e-06 0)
(0.0010383 -3.03826e-06 0)
(0.00103922 -4.05754e-06 0)
(0.00104011 -5.16706e-06 0)
(0.00104096 -6.36987e-06 0)
(0.00104177 -7.67509e-06 0)
(0.00104256 -9.08913e-06 0)
(0.00104329 -1.06176e-05 0)
(0.00104401 -1.2276e-05 0)
(0.00104466 -1.40599e-05 0)
(0.00104529 -1.60031e-05 0)
(0.00104587 -1.80789e-05 0)
(0.00104641 -2.0356e-05 0)
(0.0010469 -2.2764e-05 0)
(0.00104734 -2.54352e-05 0)
(0.00104773 -2.82176e-05 0)
(0.00104797 -3.13554e-05 0)
(0.00104815 -3.45469e-05 0)
(0.001 1.6681e-07 0)
(0.00100006 4.85093e-07 0)
(0.00100019 7.87051e-07 0)
(0.00100037 1.07175e-06 0)
(0.00100062 1.33832e-06 0)
(0.00100093 1.58597e-06 0)
(0.0010013 1.81403e-06 0)
(0.00100173 2.022e-06 0)
(0.00100222 2.20956e-06 0)
(0.00100275 2.3766e-06 0)
(0.00100334 2.5232e-06 0)
(0.00100398 2.6496e-06 0)
(0.00100466 2.75614e-06 0)
(0.00100538 2.84321e-06 0)
(0.00100615 2.91124e-06 0)
(0.00100695 2.96064e-06 0)
(0.00100779 2.99182e-06 0)
(0.00100866 3.00516e-06 0)
(0.00100956 3.00103e-06 0)
(0.00101048 2.97961e-06 0)
(0.00101143 2.94104e-06 0)
(0.00101239 2.88517e-06 0)
(0.00101338 2.81188e-06 0)
(0.00101438 2.72067e-06 0)
(0.00101539 2.61113e-06 0)
(0.00101641 2.48227e-06 0)
(0.00101744 2.33344e-06 0)
(0.00101847 2.1631e-06 0)
(0.0010195 1.97036e-06 0)
(0.00102054 1.75299e-06 0)
(0.00102157 1.51003e-06 0)
(0.00102259 1.23849e-06 0)
(0.0010236 9.37857e-07 0)
(0.0010246 6.03873e-07 0)
(0.00102558 2.35876e-07 0)
(0.00102655 -1.71708e-07 0)
(0.0010275 -6.1878e-07 0)
(0.00102843 -1.11278e-06 0)
(0.00102933 -1.65202e-06 0)
(0.0010302 -2.24634e-06 0)
(0.00103105 -2.89215e-06 0)
(0.00103186 -3.60384e-06 0)
(0.00103264 -4.37454e-06 0)
(0.00103337 -5.22433e-06 0)
(0.00103407 -6.14092e-06 0)
(0.00103472 -7.15206e-06 0)
(0.00103533 -8.23764e-06 0)
(0.00103588 -9.43665e-06 0)
(0.00103639 -1.07175e-05 0)
(0.00103682 -1.21351e-05 0)
(0.00103722 -1.36416e-05 0)
(0.00103752 -1.53146e-05 0)
(0.0010378 -1.70825e-05 0)
(0.00103796 -1.90544e-05 0)
(0.00103811 -2.11253e-05 0)
(0.00103811 -2.34486e-05 0)
(0.00103809 -2.58707e-05 0)
(0.0010379 -2.86066e-05 0)
(0.00103763 -3.14315e-05 0)
(0.00103714 -3.46446e-05 0)
(0.001 8.80105e-08 0)
(0.00100006 2.48227e-07 0)
(0.00100017 3.92541e-07 0)
(0.00100033 5.20948e-07 0)
(0.00100055 6.33481e-07 0)
(0.00100083 7.30198e-07 0)
(0.00100115 8.112e-07 0)
(0.00100153 8.76651e-07 0)
(0.00100196 9.26837e-07 0)
(0.00100244 9.62155e-07 0)
(0.00100296 9.83115e-07 0)
(0.00100353 9.90278e-07 0)
(0.00100414 9.84245e-07 0)
(0.00100479 9.65599e-07 0)
(0.00100547 9.34958e-07 0)
(0.00100619 8.92877e-07 0)
(0.00100694 8.39917e-07 0)
(0.00100772 7.76437e-07 0)
(0.00100853 7.02779e-07 0)
(0.00100936 6.19089e-07 0)
(0.00101021 5.25523e-07 0)
(0.00101108 4.21903e-07 0)
(0.00101196 3.08145e-07 0)
(0.00101286 1.83673e-07 0)
(0.00101377 4.81444e-08 0)
(0.00101468 -9.94706e-08 0)
(0.0010156 -2.59769e-07 0)
(0.00101652 -4.34348e-07 0)
(0.00101744 -6.23958e-07 0)
(0.00101836 -8.30929e-07 0)
(0.00101927 -1.05601e-06 0)
(0.00102017 -1.30236e-06 0)
(0.00102106 -1.57011e-06 0)
(0.00102193 -1.86376e-06 0)
(0.00102279 -2.18339e-06 0)
(0.00102362 -2.53502e-06 0)
(0.00102443 -2.91768e-06 0)
(0.00102521 -3.33968e-06 0)
(0.00102596 -3.79846e-06 0)
(0.00102668 -4.306e-06 0)
(0.00102736 -4.85633e-06 0)
(0.001028 -5.46605e-06 0)
(0.0010286 -6.1245e-06 0)
(0.00102914 -6.85576e-06 0)
(0.00102964 -7.64127e-06 0)
(0.00103008 -8.5163e-06 0)
(0.00103046 -9.45007e-06 0)
(0.00103077 -1.04949e-05 0)
(0.00103102 -1.1601e-05 0)
(0.00103118 -1.28465e-05 0)
(0.00103129 -1.4152e-05 0)
(0.00103127 -1.56352e-05 0)
(0.00103122 -1.7171e-05 0)
(0.001031 -1.89375e-05 0)
(0.00103076 -2.07379e-05 0)
(0.00103031 -2.28439e-05 0)
(0.00102984 -2.4946e-05 0)
(0.00102912 -2.74611e-05 0)
(0.00102835 -2.98999e-05 0)
(0.00102724 -3.29037e-05 0)
(0.001 1.75772e-08 0)
(0.00100005 3.68685e-08 0)
(0.00100015 4.086e-08 0)
(0.0010003 3.0202e-08 0)
(0.0010005 5.55664e-09 0)
(0.00100075 -3.23952e-08 0)
(0.00100104 -8.29266e-08 0)
(0.00100138 -1.45265e-07 0)
(0.00100177 -2.18604e-07 0)
(0.0010022 -3.02123e-07 0)
(0.00100268 -3.94963e-07 0)
(0.00100319 -4.9625e-07 0)
(0.00100374 -6.05068e-07 0)
(0.00100433 -7.20524e-07 0)
(0.00100495 -8.4172e-07 0)
(0.0010056 -9.67842e-07 0)
(0.00100629 -1.09814e-06 0)
(0.00100699 -1.23212e-06 0)
(0.00100773 -1.36932e-06 0)
(0.00100848 -1.50952e-06 0)
(0.00100925 -1.65249e-06 0)
(0.00101004 -1.79836e-06 0)
(0.00101084 -1.94713e-06 0)
(0.00101166 -2.09933e-06 0)
(0.00101248 -2.25523e-06 0)
(0.0010133 -2.41575e-06 0)
(0.00101413 -2.5814e-06 0)
(0.00101496 -2.75368e-06 0)
(0.00101579 -2.93323e-06 0)
(0.00101661 -3.12217e-06 0)
(0.00101742 -3.3212e-06 0)
(0.00101821 -3.53329e-06 0)
(0.001019 -3.75937e-06 0)
(0.00101976 -4.00333e-06 0)
(0.00102051 -4.26524e-06 0)
(0.00102123 -4.55064e-06 0)
(0.00102192 -4.85867e-06 0)
(0.00102258 -5.19703e-06 0)
(0.0010232 -5.5632e-06 0)
(0.00102378 -5.96799e-06 0)
(0.00102432 -6.40595e-06 0)
(0.00102482 -6.89247e-06 0)
(0.00102526 -7.41727e-06 0)
(0.00102564 -8.00285e-06 0)
(0.00102597 -8.63132e-06 0)
(0.00102622 -9.33605e-06 0)
(0.00102641 -1.0087e-05 0)
(0.00102651 -1.09343e-05 0)
(0.00102655 -1.18286e-05 0)
(0.00102647 -1.28461e-05 0)
(0.00102633 -1.39068e-05 0)
(0.00102604 -1.5128e-05 0)
(0.00102569 -1.63805e-05 0)
(0.00102515 -1.78464e-05 0)
(0.00102456 -1.93182e-05 0)
(0.00102374 -2.10803e-05 0)
(0.00102286 -2.27992e-05 0)
(0.00102169 -2.4923e-05 0)
(0.00102045 -2.69116e-05 0)
(0.00101884 -2.94744e-05 0)
(0.001 -4.62358e-08 0)
(0.00100005 -1.54569e-07 0)
(0.00100014 -2.77672e-07 0)
(0.00100028 -4.14376e-07 0)
(0.00100046 -5.63488e-07 0)
(0.00100069 -7.23767e-07 0)
(0.00100096 -8.93926e-07 0)
(0.00100128 -1.07267e-06 0)
(0.00100164 -1.25874e-06 0)
(0.00100203 -1.45088e-06 0)
(0.00100247 -1.64784e-06 0)
(0.00100294 -1.84833e-06 0)
(0.00100345 -2.05111e-06 0)
(0.00100399 -2.25498e-06 0)
(0.00100457 -2.45883e-06 0)
(0.00100517 -2.66172e-06 0)
(0.0010058 -2.86278e-06 0)
(0.00100645 -3.06124e-06 0)
(0.00100713 -3.25641e-06 0)
(0.00100782 -3.44785e-06 0)
(0.00100853 -3.63522e-06 0)
(0.00100926 -3.81842e-06 0)
(0.00100999 -3.99743e-06 0)
(0.00101074 -4.17256e-06 0)
(0.00101149 -4.34404e-06 0)
(0.00101225 -4.51266e-06 0)
(0.00101301 -4.6789e-06 0)
(0.00101376 -4.84402e-06 0)
(0.00101451 -5.00872e-06 0)
(0.00101525 -5.17475e-06 0)
(0.00101599 -5.34299e-06 0)
(0.0010167 -5.51588e-06 0)
(0.0010174 -5.69427e-06 0)
(0.00101808 -5.88145e-06 0)
(0.00101874 -6.07795e-06 0)
(0.00101937 -6.28812e-06 0)
(0.00101996 -6.5119e-06 0)
(0.00102052 -6.75519e-06 0)
(0.00102104 -7.01673e-06 0)
(0.00102152 -7.3046e-06 0)
(0.00102195 -7.6156e-06 0)
(0.00102233 -7.9611e-06 0)
(0.00102265 -8.33449e-06 0)
(0.00102291 -8.75214e-06 0)
(0.0010231 -9.20209e-06 0)
(0.00102321 -9.70843e-06 0)
(0.00102325 -1.02505e-05 0)
(0.00102319 -1.08644e-05 0)
(0.00102305 -1.15155e-05 0)
(0.00102279 -1.22587e-05 0)
(0.00102245 -1.30373e-05 0)
(0.00102195 -1.39356e-05 0)
(0.00102136 -1.48611e-05 0)
(0.00102059 -1.5946e-05 0)
(0.00101971 -1.7039e-05 0)
(0.00101861 -1.83494e-05 0)
(0.00101739 -1.963e-05 0)
(0.00101589 -2.12153e-05 0)
(0.00101427 -2.26982e-05 0)
(0.00101229 -2.46169e-05 0)
(0.001 -1.0584e-07 0)
(0.00100004 -3.33503e-07 0)
(0.00100013 -5.7558e-07 0)
(0.00100026 -8.30383e-07 0)
(0.00100044 -1.09614e-06 0)
(0.00100065 -1.37103e-06 0)
(0.00100091 -1.65324e-06 0)
(0.00100121 -1.94103e-06 0)
(0.00100155 -2.23267e-06 0)
(0.00100192 -2.52645e-06 0)
(0.00100233 -2.82067e-06 0)
(0.00100278 -3.11365e-06 0)
(0.00100326 -3.40385e-06 0)
(0.00100377 -3.68982e-06 0)
(0.00100431 -3.97026e-06 0)
(0.00100488 -4.244e-06 0)
(0.00100547 -4.50997e-06 0)
(0.00100608 -4.76722e-06 0)
(0.00100672 -5.01493e-06 0)
(0.00100737 -5.25245e-06 0)
(0.00100804 -5.47928e-06 0)
(0.00100872 -5.69515e-06 0)
(0.00100941 -5.8999e-06 0)
(0.00101011 -6.09364e-06 0)
(0.00101081 -6.27656e-06 0)
(0.00101151 -6.44915e-06 0)
(0.00101222 -6.61192e-06 0)
(0.00101292 -6.76571e-06 0)
(0.00101362 -6.91131e-06 0)
(0.0010143 -7.04998e-06 0)
(0.00101498 -7.18273e-06 0)
(0.00101564 -7.3113e-06 0)
(0.00101628 -7.43682e-06 0)
(0.00101689 -7.56152e-06 0)
(0.00101748 -7.68657e-06 0)
(0.00101805 -7.81474e-06 0)
(0.00101858 -7.94707e-06 0)
(0.00101907 -8.087e-06 0)
(0.00101952 -8.23527e-06 0)
(0.00101992 -8.39625e-06 0)
(0.00102027 -8.57001e-06 0)
(0.00102057 -8.76217e-06 0)
(0.00102081 -8.97172e-06 0)
(0.00102098 -9.20609e-06 0)
(0.00102108 -9.46245e-06 0)
(0.00102109 -9.7509e-06 0)
(0.00102103 -1.00657e-05 0)
(0.00102086 -1.04211e-05 0)
(0.00102061 -1.08068e-05 0)
(0.00102023 -1.12431e-05 0)
(0.00101974 -1.17126e-05 0)
(0.00101912 -1.22455e-05 0)
(0.00101836 -1.28122e-05 0)
(0.00101744 -1.34593e-05 0)
(0.00101637 -1.41371e-05 0)
(0.00101509 -1.49189e-05 0)
(0.00101365 -1.57213e-05 0)
(0.00101196 -1.6662e-05 -5.31702e-38)
(0.00101006 -1.7599e-05 0)
(0.00100787 -1.8725e-05 0)
(0.001 -1.63655e-07 0)
(0.00100004 -5.06656e-07 0)
(0.00100013 -8.63304e-07 0)
(0.00100025 -1.23143e-06 0)
(0.00100042 -1.6088e-06 0)
(0.00100063 -1.99311e-06 0)
(0.00100088 -2.38213e-06 0)
(0.00100117 -2.77366e-06 0)
(0.0010015 -3.16558e-06 0)
(0.00100186 -3.55577e-06 0)
(0.00100226 -3.94219e-06 0)
(0.00100269 -4.32288e-06 0)
(0.00100316 -4.69597e-06 0)
(0.00100365 -5.05975e-06 0)
(0.00100417 -5.41262e-06 0)
(0.00100472 -5.75314e-06 0)
(0.00100529 -6.08001e-06 0)
(0.00100588 -6.39208e-06 0)
(0.00100649 -6.6884e-06 0)
(0.00100712 -6.96816e-06 0)
(0.00100776 -7.23076e-06 0)
(0.00100842 -7.47576e-06 0)
(0.00100908 -7.7029e-06 0)
(0.00100975 -7.91205e-06 0)
(0.00101042 -8.10332e-06 0)
(0.0010111 -8.27689e-06 0)
(0.00101177 -8.43322e-06 0)
(0.00101244 -8.57281e-06 0)
(0.0010131 -8.69647e-06 0)
(0.00101375 -8.80498e-06 0)
(0.00101439 -8.89946e-06 0)
(0.00101502 -8.98087e-06 0)
(0.00101562 -9.05066e-06 0)
(0.0010162 -9.10989e-06 0)
(0.00101676 -9.16037e-06 0)
(0.00101728 -9.20315e-06 0)
(0.00101777 -9.24046e-06 0)
(0.00101822 -9.27313e-06 0)
(0.00101863 -9.30397e-06 0)
(0.001019 -9.33334e-06 0)
(0.00101931 -9.36485e-06 0)
(0.00101956 -9.39787e-06 0)
(0.00101975 -9.43742e-06 0)
(0.00101988 -9.48116e-06 0)
(0.00101993 -9.53632e-06 0)
(0.0010199 -9.59761e-06 0)
(0.00101979 -9.67592e-06 0)
(0.00101958 -9.76098e-06 0)
(0.00101926 -9.86987e-06 0)
(0.00101884 -9.98411e-06 0)
(0.00101829 -1.0131e-05 0)
(0.00101761 -1.02784e-05 0)
(0.00101678 -1.04703e-05 0)
(0.00101581 -1.0653e-05 0)
(0.00101464 -1.08973e-05 0)
(0.00101332 -1.11141e-05 0)
(0.00101177 -1.14181e-05 0)
(0.00101003 -1.16639e-05 5.31702e-38)
(0.00100801 -1.20351e-05 0)
(0.00100578 -1.22966e-05 0)
(0.001 -2.21087e-07 0)
(0.00100004 -6.78498e-07 0)
(0.00100013 -1.14858e-06 0)
(0.00100026 -1.62866e-06 0)
(0.00100042 -2.11603e-06 0)
(0.00100063 -2.60795e-06 0)
(0.00100088 -3.10174e-06 0)
(0.00100117 -3.59481e-06 0)
(0.0010015 -4.08462e-06 0)
(0.00100187 -4.5687e-06 0)
(0.00100226 -5.04469e-06 0)
(0.00100269 -5.51029e-06 0)
(0.00100316 -5.9634e-06 0)
(0.00100365 -6.40201e-06 0)
(0.00100416 -6.82434e-06 0)
(0.00100471 -7.22871e-06 0)
(0.00100527 -7.61367e-06 0)
(0.00100586 -7.97789e-06 0)
(0.00100646 -8.32027e-06 0)
(0.00100708 -8.63984e-06 0)
(0.00100772 -8.93589e-06 0)
(0.00100836 -9.20779e-06 0)
(0.00100901 -9.4552e-06 0)
(0.00100967 -9.67778e-06 0)
(0.00101034 -9.87555e-06 0)
(0.001011 -1.00485e-05 0)
(0.00101166 -1.01969e-05 0)
(0.00101232 -1.03211e-05 0)
(0.00101297 -1.04218e-05 0)
(0.00101361 -1.04993e-05 0)
(0.00101424 -1.05547e-05 0)
(0.00101485 -1.05883e-05 0)
(0.00101544 -1.06018e-05 0)
(0.00101601 -1.05952e-05 0)
(0.00101656 -1.05709e-05 0)
(0.00101707 -1.05283e-05 0)
(0.00101755 -1.04706e-05 0)
(0.001018 -1.03964e-05 0)
(0.0010184 -1.03102e-05 0)
(0.00101876 -1.02088e-05 0)
(0.00101906 -1.00987e-05 0)
(0.00101932 -9.97383e-06 0)
(0.0010195 -9.84416e-06 0)
(0.00101963 -9.6988e-06 0)
(0.00101968 -9.55348e-06 0)
(0.00101966 -9.38931e-06 0)
(0.00101954 -9.23164e-06 0)
(0.00101935 -9.04845e-06 0)
(0.00101904 -8.88098e-06 0)
(0.00101864 -8.67562e-06 0)
(0.00101809 -8.5e-06 0)
(0.00101745 -8.26514e-06 0)
(0.00101663 -8.08224e-06 0)
(0.00101571 -7.8046e-06 0)
(0.00101457 -7.61519e-06 0)
(0.00101332 -7.27287e-06 0)
(0.00101178 -7.0787e-06 0)
(0.00101015 -6.63717e-06 0)
(0.00100815 -6.44093e-06 0)
(0.00100608 -5.84664e-06 0)
(0.001 -2.79787e-07 0)
(0.00100005 -8.53942e-07 0)
(0.00100013 -1.43959e-06 0)
(0.00100027 -2.03355e-06 0)
(0.00100044 -2.63259e-06 0)
(0.00100066 -3.23351e-06 0)
(0.00100092 -3.83316e-06 0)
(0.00100122 -4.42851e-06 0)
(0.00100155 -5.01665e-06 0)
(0.00100193 -5.59476e-06 0)
(0.00100234 -6.16014e-06 0)
(0.00100278 -6.71024e-06 0)
(0.00100325 -7.24268e-06 0)
(0.00100376 -7.75527e-06 0)
(0.00100429 -8.24601e-06 0)
(0.00100484 -8.71308e-06 0)
(0.00100542 -9.15487e-06 0)
(0.00100602 -9.56992e-06 0)
(0.00100663 -9.95704e-06 0)
(0.00100726 -1.03151e-05 0)
(0.00100791 -1.06433e-05 0)
(0.00100856 -1.0941e-05 0)
(0.00100922 -1.12076e-05 0)
(0.00100989 -1.14428e-05 0)
(0.00101057 -1.16464e-05 0)
(0.00101124 -1.18183e-05 0)
(0.00101191 -1.19588e-05 0)
(0.00101258 -1.20678e-05 0)
(0.00101324 -1.2146e-05 0)
(0.00101389 -1.21933e-05 0)
(0.00101453 -1.22109e-05 0)
(0.00101516 -1.21984e-05 0)
(0.00101576 -1.21576e-05 0)
(0.00101635 -1.20878e-05 0)
(0.00101691 -1.19914e-05 0)
(0.00101744 -1.1867e-05 0)
(0.00101794 -1.1718e-05 0)
(0.0010184 -1.15416e-05 0)
(0.00101883 -1.13429e-05 0)
(0.00101921 -1.11164e-05 0)
(0.00101955 -1.08702e-05 0)
(0.00101984 -1.05947e-05 0)
(0.00102006 -1.03026e-05 0)
(0.00102023 -9.97745e-06 0)
(0.00102033 -9.63989e-06 0)
(0.00102036 -9.26232e-06 0)
(0.0010203 -8.87859e-06 0)