/*--------------------------------*- C++ -*----------------------------------*\
| =========                 |                                                 |
| \\      /  F ield         | OpenFOAM: The Open Source CFD Toolbox           |
|  \\    /   O peration     | Version:  2312                                  |
|   \\  /    A nd           | Website:  www.openfoam.com                      |
|    \\/     M anipulation  |                                                 |
\*---------------------------------------------------------------------------*/
FoamFile
{
    version     2.0;
    format      ascii;
    arch        "LSB;label=32;scalar=64";
    class       surfaceScalarField;
    location    "20000";
    object      phi;
}
// * * * * * * * * * * * * * * * * * * * * * * * * * * * * * * * * * * * * * //

dimensions      [0 3 -1 0 0 0 0];

oriented        oriented;

internalField   nonuniform List<scalar> 
5250
(
0.000239975
-1.13632e-06
0.000240433
-4.58373e-07
0.000240234
1.98727e-07
0.000239444
7.89853e-07
0.000238427
1.01731e-06
0.000237486
9.4085e-07
0.000236799
6.87654e-07
0.000236428
3.70621e-07
0.000236378
5.02906e-08
0.000236608
-2.30212e-07
0.000237102
-4.94436e-07
0.000237842
-7.39843e-07
0.000238802
-9.59719e-07
0.000239951
-1.14882e-06
0.000241257
-1.30608e-06
0.000242689
-1.43203e-06
0.000244213
-1.52465e-06
0.000245794
-1.58019e-06
0.000247392
-1.59806e-06
0.000248976
-1.58445e-06
0.000250527
-1.5507e-06
0.000252033
-1.50577e-06
0.000253483
-1.45072e-06
0.000254862
-1.37854e-06
0.000256143
-1.28139e-06
0.000257308
-1.16497e-06
0.000258363
-1.05468e-06
0.000259348
-9.84786e-07
0.000260323
-9.75556e-07
0.000261339
-1.01576e-06
0.000262407
-1.06842e-06
0.000263503
-1.09524e-06
0.000264576
-1.07363e-06
0.000265562
-9.86125e-07
0.00026642
-8.57936e-07
0.000267146
-7.26023e-07
0.000267766
-6.19375e-07
0.000268312
-5.46369e-07
0.000268808
-4.95926e-07
0.00026927
-4.62452e-07
0.000269716
-4.45241e-07
0.000270159
-4.43145e-07
0.000270621
-4.62085e-07
0.000271131
-5.09657e-07
0.000271711
-5.80667e-07
0.000272378
-6.66732e-07
0.000273136
-7.58084e-07
0.000273979
-8.42669e-07
0.00027489
-9.11693e-07
0.000275851
-9.60562e-07
0.000276838
-9.87248e-07
0.000277829
-9.90381e-07
0.000278797
-9.68222e-07
0.000279716
-9.18936e-07
0.000280559
-8.42737e-07
0.000281302
-7.43419e-07
0.000281927
-6.25431e-07
0.000282423
-4.95673e-07
0.000282786
-3.62924e-07
0.000283022
-2.3632e-07
0.000283146
-1.23993e-07
0.000283179
-3.24718e-08
0.00028314
3.86732e-08
0.000283055
8.52821e-08
0.000282946
1.08685e-07
0.000282833
1.13598e-07
0.000282727
1.05256e-07
0.000282639
8.87856e-08
0.00028257
6.86834e-08
0.000282522
4.83197e-08
0.000282492
2.98656e-08
0.000282477
1.44525e-08
0.000282475
2.35161e-09
0.000282481
-5.86431e-09
0.000282492
-1.13845e-08
0.000282507
-1.46342e-08
0.000282523
-1.61775e-08
0.000282539
-1.64778e-08
0.000282555
-1.59643e-08
0.00028257
-1.49662e-08
0.000282584
-1.37041e-08
0.000282596
-1.23309e-08
0.000282607
-1.09664e-08
0.000282617
-9.68071e-09
0.000282625
-8.50803e-09
0.000282633
-7.46043e-09
0.000282639
-6.53676e-09
0.000282645
-5.72882e-09
0.00028265
-5.02478e-09
-4.41253e-09
0.000636351
1.2752e-05
0.000623726
1.21668e-05
0.000612542
1.13829e-05
0.000602811
1.05203e-05
0.00059426
9.56844e-06
0.000586661
8.53996e-06
0.000579873
7.47596e-06
0.000573818
6.42498e-06
0.000568449
5.41992e-06
0.000563748
4.47055e-06
0.000559682
3.57153e-06
0.000556225
2.7169e-06
0.000553358
1.90763e-06
0.000551059
1.14988e-06
0.0005493
4.52628e-07
0.000548045
-1.76318e-07
0.000547244
-7.23946e-07
0.000546846
-1.18186e-06
0.000546806
-1.55829e-06
0.00054708
-1.85836e-06
0.000547614
-2.08523e-06
0.000548349
-2.24078e-06
0.000549231
-2.33227e-06
0.000550227
-2.3748e-06
0.000551329
-2.38298e-06
0.000552532
-2.36795e-06
0.000553812
-2.33453e-06
0.000555117
-2.28988e-06
0.000556385
-2.24362e-06
0.00055757
-2.20066e-06
0.000558659
-2.15747e-06
0.000559663
-2.09958e-06
0.000560603
-2.01395e-06
0.000561532
-1.91444e-06
0.000562478
-1.80394e-06
0.000563447
-1.69491e-06
0.000564427
-1.60022e-06
0.000565408
-1.52661e-06
0.00056639
-1.4777e-06
0.00056737
-1.44329e-06
0.000568332
-1.40693e-06
0.000569257
-1.36833e-06
0.000570125
-1.33014e-06
0.000570914
-1.29793e-06
0.00057161
-1.27691e-06
0.000572227
-1.28409e-06
0.000572799
-1.33043e-06
0.000573375
-1.41775e-06
0.000574006
-1.54297e-06
0.00057474
-1.69493e-06
0.000575608
-1.8547e-06
0.000576616
-1.9984e-06
0.000577749
-2.10151e-06
0.000578973
-2.14331e-06
0.000580241
-2.11065e-06
0.000581498
-2.00026e-06
0.000582691
-1.81845e-06
0.000583774
-1.57829e-06
0.000584709
-1.29771e-06
0.000585473
-1.00034e-06
0.000586058
-7.09275e-07
0.00058647
-4.44264e-07
0.000586728
-2.19882e-07
0.000586857
-4.34594e-08
0.000586889
7.61391e-08
0.000586852
1.50629e-07
0.000586771
1.86844e-07
0.000586666
1.93355e-07
0.000586556
1.79436e-07
0.00058645
1.53363e-07
0.000586359
1.21806e-07
0.000586283
8.96441e-08
0.000586226
6.00503e-08
0.000586185
3.48237e-08
0.000586159
1.46702e-08
0.000586145
-5.24886e-10
0.00058614
-1.16556e-08
0.000586142
-1.85736e-08
0.000586149
-2.24946e-08
0.000586158
-2.42641e-08
0.000586169
-2.45084e-08
0.00058618
-2.37416e-08
0.000586192
-2.23605e-08
0.000586203
-2.0654e-08
0.000586213
-1.88213e-08
0.000586223
-1.69921e-08
0.000586231
-1.52446e-08
0.000586239
-1.36216e-08
0.000586246
-1.21418e-08
-1.08083e-08
0.000802126
2.33791e-05
0.000791534
2.2759e-05
0.000781161
2.17561e-05
0.000771215
2.04658e-05
0.000761765
1.90186e-05
0.000752787
1.75181e-05
0.000744243
1.60196e-05
0.000736125
1.45433e-05
0.000728454
1.30904e-05
0.000721268
1.16569e-05
0.000714597
1.02422e-05
0.00070846
8.85385e-06
0.00070286
7.50777e-06
0.000697788
6.22219e-06
0.000693228
5.01258e-06
0.00068916
3.89172e-06
0.000685565
2.87083e-06
0.000682426
1.95711e-06
0.000679717
1.15095e-06
0.000677412
4.46207e-07
0.000675485
-1.57901e-07
0.000673896
-6.51732e-07
0.00067262
-1.05595e-06
0.000671621
-1.37614e-06
0.000670865
-1.62739e-06
0.000670323
-1.82519e-06
0.000669966
-1.97793e-06
0.000669761
-2.0844e-06
0.000669663
-2.14632e-06
0.000669636
-2.17314e-06
0.00066966
-2.18131e-06
0.000669747
-2.18677e-06
0.000669927
-2.19444e-06
0.000670209
-2.19604e-06
0.000670574
-2.16861e-06
0.000670972
-2.09369e-06
0.000671357
-1.98539e-06
0.000671705
-1.87462e-06
0.000672023
-1.79491e-06
0.000672349
-1.76933e-06
0.000672735
-1.79322e-06
0.000673203
-1.83661e-06
0.000673735
-1.86191e-06
0.000674279
-1.84175e-06
0.000674774
-1.77174e-06
0.000675165
-1.67504e-06
0.000675427
-1.59263e-06
0.000675575
-1.56548e-06
0.000675651
-1.61958e-06
0.000675713
-1.75657e-06
0.000675811
-1.95316e-06
0.000675981
-2.16852e-06
0.000676236
-2.35588e-06
0.000676567
-2.47473e-06
0.000676956
-2.49987e-06
0.000677379
-2.42324e-06
0.000677811
-2.25031e-06
0.000678232
-1.99887e-06
0.000678628
-1.69421e-06
0.000678992
-1.36419e-06
0.000679318
-1.03504e-06
0.000679602
-7.28739e-07
0.000679844
-4.61438e-07
0.000680043
-2.42819e-07
0.000680196
-7.65831e-08
0.000680303
4.35996e-08
0.00068037
1.20155e-07
0.000680405
1.58389e-07
0.000680416
1.68205e-07
0.000680411
1.58352e-07
0.000680396
1.36464e-07
0.000680377
1.08684e-07
0.000680358
7.95572e-08
0.000680341
5.21576e-08
0.000680327
2.82871e-08
0.000680318
8.75692e-09
0.000680312
-6.10834e-09
0.00068031
-1.69901e-08
0.000680312
-2.42803e-08
0.000680317
-2.86724e-08
0.000680323
-3.08303e-08
0.000680331
-3.13495e-08
0.000680339
-3.07301e-08
0.000680348
-2.93683e-08
0.000680356
-2.75645e-08
0.000680365
-2.55361e-08
0.000680373
-2.34342e-08
0.000680381
-2.13584e-08
0.000680388
-1.93713e-08
-1.7507e-08
0.000848279
3.36737e-05
0.000838581
3.24561e-05
0.000829288
3.10496e-05
0.00082032
2.94339e-05
0.000811658
2.76806e-05
0.000803314
2.58621e-05
0.000795317
2.40161e-05
0.00078771
2.21502e-05
0.000780535
2.02662e-05
0.000773817
1.83743e-05
0.000767563
1.64964e-05
0.000761753
1.46637e-05
0.000756351
1.291e-05
0.000751311
1.12621e-05
0.000746591
9.7331e-06
0.000742157
8.32488e-06
0.000737994
7.03469e-06
0.000734092
5.85843e-06
0.000730454
4.78945e-06
0.000727081
3.81934e-06
0.000723979
2.94345e-06
0.000721164
2.16324e-06
0.000718626
1.48218e-06
0.000716353
8.97504e-07
0.000714326
3.98786e-07
0.000712522
-2.13133e-08
0.000710957
-4.12096e-07
0.000709594
-7.21509e-07
0.000708405
-9.57218e-07
0.000707361
-1.12954e-06
0.00070644
-1.26036e-06
0.000705625
-1.37174e-06
0.000704905
-1.47433e-06
0.00070427
-1.56073e-06
0.000703714
-1.61336e-06
0.000703242
-1.62096e-06
0.000702849
-1.5929e-06
0.000702532
-1.55734e-06
0.000702283
-1.54565e-06
0.000702088
-1.57447e-06
0.00070193
-1.63562e-06
0.000701793
-1.69988e-06
0.000701664
-1.73206e-06
0.000701531
-1.70878e-06
0.000701389
-1.63041e-06
0.000701238
-1.52331e-06
0.000701075
-1.43054e-06
0.000700905
-1.39486e-06
0.000700728
-1.44323e-06
0.00070055
-1.578e-06
0.000700373
-1.7766e-06
0.000700204
-1.99874e-06
0.000700046
-2.19814e-06
0.000699905
-2.33402e-06
0.000699785
-2.37935e-06
0.000699686
-2.32432e-06
0.000699611
-2.17529e-06
0.000699563
-1.95076e-06
0.000699544
-1.67598e-06
0.000699558
-1.37781e-06
0.000699604
-1.08064e-06
0.000699679
-8.03939e-07
0.000699778
-5.61071e-07
0.000699895
-3.59414e-07
0.00070002
-2.01182e-07
0.000700147
-8.43119e-08
0.000700271
-3.31947e-09
0.000700386
4.33922e-08
0.000700486
6.81968e-08
0.000700568
7.58651e-08
0.000700633
7.19087e-08
0.000700681
6.09182e-08
0.000700714
4.64439e-08
0.000700735
3.10973e-08
0.000700747
1.66135e-08
0.000700751
4.02472e-09
0.000700752
-6.66953e-09
0.00070075
-1.47006e-08
0.000700746
-2.04445e-08
0.000700741
-2.42663e-08
0.000700737
-2.64995e-08
0.000700733
-2.74777e-08
0.00070073
-2.75097e-08
0.000700727
-2.68612e-08
0.000700726
-2.57501e-08
0.000700724
-2.43468e-08
0.000700724
-2.27806e-08
0.000700724
-2.11455e-08
0.000700724
-1.9508e-08
-1.79124e-08
0.000864684
4.6115e-05
0.000853063
4.40769e-05
0.00084217
4.19428e-05
0.000831894
3.97106e-05
0.000822292
3.72822e-05
0.000813412
3.47423e-05
0.000805285
3.2143e-05
0.000797908
2.9527e-05
0.000791235
2.69389e-05
0.000785184
2.44257e-05
0.00077965
2.20305e-05
0.000774528
1.97856e-05
0.000769729
1.77086e-05
0.000765189
1.58022e-05
0.000760864
1.40579e-05
0.000756727
1.24618e-05
0.000752764
1.09982e-05
0.000748972
9.65085e-06
0.000745357
8.404e-06
0.00074193
7.24647e-06
0.000738698
6.17526e-06
0.000735667
5.19386e-06
0.000732845
4.30496e-06
0.000730237
3.50494e-06
0.00072785
2.78602e-06
0.000725685
2.14325e-06
0.000723695
1.5787e-06
0.000721875
1.09822e-06
0.000720219
6.98886e-07
0.000718723
3.66445e-07
0.000717384
7.85243e-08
0.000716179
-1.66354e-07
0.000715084
-3.79411e-07
0.000714083
-5.6012e-07
0.000713169
-6.99179e-07
0.000712345
-7.97243e-07
0.000711621
-8.68908e-07
0.000710999
-9.35303e-07
0.000710466
-1.01297e-06
0.000709996
-1.10429e-06
0.000709556
-1.1956e-06
0.00070912
-1.26405e-06
0.000708678
-1.28978e-06
0.000708236
-1.26692e-06
0.000707815
-1.20912e-06
0.000707438
-1.14629e-06
0.000707121
-1.11363e-06
0.000706865
-1.13917e-06
0.000706656
-1.23429e-06
0.000706468
-1.39007e-06
0.000706272
-1.5801e-06
0.000706042
-1.76867e-06
0.000705764
-1.92047e-06
0.000705438
-2.00819e-06
0.000705076
-2.01723e-06
0.000704698
-1.94651e-06
0.000704329
-1.80631e-06
0.000703993
-1.61432e-06
0.000703708
-1.39142e-06
0.000703488
-1.15768e-06
0.000703338
-9.29964e-07
0.000703254
-7.20735e-07
0.000703231
-5.37843e-07
0.000703257
-3.85e-07
0.000703318
-2.62602e-07
0.000703403
-1.68613e-07
0.000703499
-9.97256e-08
0.000703595
-5.22999e-08
0.000703685
-2.19166e-08
0.000703765
-4.6429e-09
0.000703834
3.60082e-09
0.000703889
5.29726e-09
0.000703933
2.69353e-09
0.000703966
-1.92672e-09
0.00070399
-7.33667e-09
0.000704007
-1.28545e-08
0.000704018
-1.79023e-08
0.000704025
-2.21234e-08
0.00070403
-2.53175e-08
0.000704034
-2.74738e-08
0.000704036
-2.87051e-08
0.000704037
-2.91529e-08
0.000704039
-2.89664e-08
0.00070404
-2.82891e-08
0.000704042
-2.72501e-08
0.000704043
-2.596e-08
0.000704045
-2.45098e-08
0.000704047
-2.2972e-08
0.000704049
-2.14023e-08
-1.98421e-08
0.000874854
5.82555e-05
0.000863189
5.57414e-05
0.000852087
5.30449e-05
0.000841624
5.01733e-05
0.000831764
4.71428e-05
0.000822502
4.40039e-05
0.000813819
4.08264e-05
0.000805666
3.76794e-05
0.000797993
3.46118e-05
0.00079077
3.1649e-05
0.000783995
2.88056e-05
0.000777686
2.60944e-05
0.000771865
2.35299e-05
0.00076654
2.11276e-05
0.000761695
1.89028e-05
0.000757291
1.68652e-05
0.000753276
1.50133e-05
0.000749593
1.33335e-05
0.000746192
1.18055e-05
0.000743028
1.04106e-05
0.000740067
9.13607e-06
0.000737289
7.9719e-06
0.000734686
6.90784e-06
0.000732257
5.93407e-06
0.000729998
5.0452e-06
0.000727899
4.24233e-06
0.000725949
3.52831e-06
0.000724144
2.90294e-06
0.000722484
2.35935e-06
0.000720965
1.88566e-06
0.000719573
1.47059e-06
0.000718298
1.10798e-06
0.000717124
7.95141e-07
0.000716033
5.30662e-07
0.000715025
3.08899e-07
0.000714108
1.19772e-07
0.000713291
-5.21415e-08
0.00071258
-2.24212e-07
0.000711949
-3.81939e-07
0.000711364
-5.19404e-07
0.000710794
-6.25329e-07
0.000710222
-6.92227e-07
0.000709654
-7.21633e-07
0.000709113
-7.26127e-07
0.000708631
-7.27395e-07
0.000708234
-7.48698e-07
0.000707927
-8.0724e-07
0.000707698
-9.0989e-07
0.000707515
-1.05121e-06
0.00070734
-1.21458e-06
0.000707136
-1.37675e-06
0.000706881
-1.51377e-06
0.000706567
-1.60613e-06
0.000706201
-1.64211e-06
0.000705803
-1.61888e-06
0.000705398
-1.54155e-06
0.000705012
-1.42091e-06
0.000704669
-1.27071e-06
0.000704382
-1.10505e-06
0.000704161
-9.36475e-07
0.000704006
-7.74931e-07
0.000703913
-6.2732e-07
0.000703872
-4.97684e-07
0.000703875
-3.87674e-07
0.00070391
-2.97151e-07
0.000703966
-2.24759e-07
0.000704034
-1.6849e-07
0.000704108
-1.26004e-07
0.000704181
-9.48005e-08
0.000704249
-7.25557e-08
0.00070431
-5.72392e-08
0.000704362
-4.71178e-08
0.000704406
-4.07522e-08
0.000704441
-3.6942e-08
0.000704468
-3.47844e-08
0.000704489
-3.36505e-08
0.000704504
-3.3074e-08
0.000704515
-3.27041e-08
0.000704522
-3.23163e-08
0.000704526
-3.17901e-08
0.000704528
-3.10723e-08
0.000704529
-3.01522e-08
0.000704529
-2.90461e-08
0.000704529
-2.77854e-08
0.000704528
-2.64077e-08
0.000704527
-2.49517e-08
0.000704526
-2.34532e-08
0.000704525
-2.19433e-08
0.000704524
-2.0448e-08
-1.89877e-08
0.000850253
6.80975e-05
0.000841082
6.49122e-05
0.0008325
6.16268e-05
0.000824375
5.82976e-05
0.000816554
5.49646e-05
0.000808907
5.16505e-05
0.000801375
4.83587e-05
0.000793978
4.50762e-05
0.000786804
4.17855e-05
0.000779972
3.84813e-05
0.000773595
3.51831e-05
0.000767754
3.19348e-05
0.000762489
2.87947e-05
0.000757794
2.58234e-05
0.000753624
2.30727e-05
0.000749914
2.05747e-05
0.000746592
1.83356e-05
0.000743586
1.63395e-05
0.000740833
1.45587e-05
0.00073828
1.29633e-05
0.000735891
1.15253e-05
0.000733643
1.02198e-05
0.000731525
9.02604e-06
0.000729529
7.93001e-06
0.000727648
6.9257e-06
0.000725878
6.01224e-06
0.000724218
5.18891e-06
0.000722669
4.45199e-06
0.000721233
3.79514e-06
0.000719907
3.21179e-06
0.00071868
2.69679e-06
0.000717543
2.24556e-06
0.000716486
1.85181e-06
0.000715511
1.50601e-06
0.000714623
1.19677e-06
0.000713828
9.1489e-07
0.000713119
6.56796e-07
0.000712469
4.25914e-07
0.000711859
2.28287e-07
0.000711271
6.83412e-08
0.000710697
-5.10957e-08
0.00071014
-1.35514e-07
0.000709622
-2.03359e-07
0.000709166
-2.7029e-07
0.000708789
-3.50803e-07
0.000708494
-4.53479e-07
0.000708266
-5.79653e-07
0.000708081
-7.24127e-07
0.000707905
-8.7529e-07
0.000707708
-1.01794e-06
0.000707469
-1.13726e-06
0.000707176
-1.2217e-06
0.000706835
-1.26462e-06
0.000706458
-1.26476e-06
0.000706064
-1.22567e-06
0.000705677
-1.15436e-06
0.000705316
-1.05976e-06
0.000704996
-9.51146e-07
0.000704728
-8.36959e-07
0.000704516
-7.24073e-07
0.000704359
-6.17486e-07
0.000704252
-5.20376e-07
0.000704188
-4.34375e-07
0.000704161
-3.59938e-07
0.00070416
-2.96713e-07
0.000704179
-2.43854e-07
0.000704211
-2.00284e-07
0.00070425
-1.64827e-07
0.000704291
-1.36301e-07
0.000704332
-1.13607e-07
0.000704371
-9.57309e-08
0.000704406
-8.17649e-08
0.000704436
-7.09306e-08
0.000704461
-6.25446e-08
0.000704483
-5.60324e-08
0.0007045
-5.0934e-08
0.000704514
-4.68764e-08
0.000704525
-4.35609e-08
0.000704533
-4.07578e-08
0.000704539
-3.82994e-08
0.000704544
-3.60688e-08
0.000704548
-3.39878e-08
0.000704551
-3.20074e-08
0.000704554
-3.00992e-08
0.000704555
-2.82494e-08
0.000704557
-2.64536e-08
0.000704558
-2.47127e-08
0.000704559
-2.30308e-08
0.00070456
-2.14129e-08
-1.98639e-08
0.000814077
8.16781e-05
0.000802173
7.68164e-05
0.000791845
7.19548e-05
0.000782972
6.71701e-05
0.00077542
6.25164e-05
0.000769048
5.80227e-05
0.000763713
5.36937e-05
0.000759267
4.95221e-05
0.000755549
4.55033e-05
0.000752389
4.16421e-05
0.000749621
3.79508e-05
0.000747111
3.44448e-05
0.000744764
3.11417e-05
0.000742527
2.80604e-05
0.00074038
2.52193e-05
0.000738325
2.26303e-05
0.000736367
2.02939e-05
0.000734508
1.81984e-05
0.000732743
1.63231e-05
0.000731065
1.4642e-05
0.000729463
1.31273e-05
0.00072793
1.17523e-05
0.000726461
1.04951e-05
0.000725051
9.34034e-06
0.000723697
8.2791e-06
0.000722403
7.30655e-06
0.000721172
6.4197e-06
0.000720008
5.61603e-06
0.00071891
4.89306e-06
0.000717875
4.24757e-06
0.000716897
3.67433e-06
0.000715977
3.16518e-06
0.000715119
2.70972e-06
0.000714328
2.29788e-06
0.000713601
1.92296e-06
0.000712933
1.58339e-06
0.000712308
1.28196e-06
0.000711712
1.02204e-06
0.000711135
8.0459e-07
0.000710578
6.25657e-07
0.000710051
4.76007e-07
0.000709573
3.4279e-07
0.000709156
2.13652e-07
0.000708806
7.96744e-08
0.000708522
-6.71336e-08
0.000708292
-2.24027e-07
0.000708094
-3.81446e-07
0.000707903
-5.32401e-07
0.000707695
-6.67392e-07
0.000707455
-7.78344e-07
0.000707178
-8.59965e-07
0.000706866
-9.09893e-07
0.00070653
-9.28653e-07
0.000706185
-9.19282e-07
0.000705845
-8.86581e-07
0.000705527
-8.36258e-07
0.000705242
-7.74134e-07
0.000704996
-7.05524e-07
0.000704794
-6.34838e-07
0.000704635
-5.65408e-07
0.000704517
-4.99505e-07
0.000704435
-4.38487e-07
0.000704384
-3.83006e-07
0.000704357
-3.33227e-07
0.00070435
-2.89016e-07
0.000704356
-2.50072e-07
0.000704372
-2.1602e-07
0.000704393
-1.86457e-07
0.000704418
-1.6097e-07
0.000704443
-1.39148e-07
0.000704468
-1.20585e-07
0.000704491
-1.04888e-07
0.000704512
-9.16817e-08
0.00070453
-8.06087e-08
0.000704546
-7.13355e-08
0.000704558
-6.3561e-08
0.000704568
-5.70184e-08
0.000704576
-5.14759e-08
0.000704582
-4.67373e-08
0.000704587
-4.26412e-08
0.00070459
-3.90577e-08
0.000704591
-3.58847e-08
0.000704592
-3.30427e-08
0.000704593
-3.04712e-08
0.000704593
-2.81246e-08
0.000704592
-2.59687e-08
0.000704591
-2.39782e-08
0.000704591
-2.21338e-08
0.00070459
-2.04212e-08
-1.8829e-08
0.000811452
0.000101896
0.000793787
9.44821e-05
0.000778748
8.69937e-05
0.000766319
7.95994e-05
0.000756375
7.24603e-05
0.000748681
6.57168e-05
0.000742901
5.94734e-05
0.00073864
5.37835e-05
0.000735496
4.86472e-05
0.000733118
4.40201e-05
0.000731237
3.98318e-05
0.000729672
3.6009e-05
0.00072832
3.24941e-05
0.000727125
2.92551e-05
0.000726062
2.62826e-05
0.000725114
2.35784e-05
0.000724264
2.11437e-05
0.000723491
1.89713e-05
0.000722771
1.70429e-05
0.000722082
1.53312e-05
0.000721405
1.38042e-05
0.000720727
1.24304e-05
0.00072004
1.11826e-05
0.00071934
1.00402e-05
0.000718629
8.98953e-06
0.000717913
8.02287e-06
0.000717196
7.13677e-06
0.000716482
6.32949e-06
0.000715777
5.59865e-06
0.000715085
4.93945e-06
0.000714415
4.34441e-06
0.000713775
3.80484e-06
0.000713172
3.31335e-06
0.000712604
2.86582e-06
0.000712066
2.46045e-06
0.000711551
2.09837e-06
0.000711052
1.78076e-06
0.000710569
1.50579e-06
0.000710105
1.26768e-06
0.000709674
1.05722e-06
0.000709286
8.63952e-07
0.00070895
6.78799e-07
0.000708668
4.95843e-07
0.000708434
3.13347e-07
0.000708233
1.3375e-07
0.000708045
-3.61727e-08
0.000707854
-1.90014e-07
0.000707648
-3.26165e-07
0.000707419
-4.3886e-07
0.000707167
-5.25829e-07
0.000706894
-5.86961e-07
0.000706608
-6.23806e-07
0.000706318
-6.39109e-07
0.000706035
-6.36374e-07
0.000705768
-6.19434e-07
0.000705524
-5.92077e-07
0.000705307
-5.57762e-07
0.000705121
-5.19419e-07
0.000704966
-4.79352e-07
0.00070484
-4.39234e-07
0.00070474
-4.00175e-07
0.000704665
-3.62836e-07
0.000704609
-3.2757e-07
0.000704571
-2.94532e-07
0.000704545
-2.63778e-07
0.000704531
-2.35323e-07
0.000704524
-2.09166e-07
0.000704523
-1.85302e-07
0.000704525
-1.6371e-07
0.00070453
-1.44344e-07
0.000704537
-1.2713e-07
0.000704544
-1.11959e-07
0.000704551
-9.86942e-08
0.000704558
-8.71716e-08
0.000704564
-7.72125e-08
0.000704569
-6.86324e-08
0.000704573
-6.12498e-08
0.000704576
-5.48932e-08
0.000704579
-4.94053e-08
0.000704581
-4.46467e-08
0.000704582
-4.0497e-08
0.000704583
-3.6854e-08
0.000704584
-3.36329e-08
0.000704584
-3.07641e-08
0.000704584
-2.81913e-08
0.000704584
-2.58691e-08
0.000704584
-2.37614e-08
0.000704584
-2.18393e-08
0.000704583
-2.00795e-08
-1.84634e-08
0.000828591
0.000121595
0.000810168
0.000112905
0.00079322
0.000103941
0.000777907
9.49123e-05
0.000764341
8.60266e-05
0.000752585
7.74721e-05
0.000742652
6.9407e-05
0.000734491
6.19443e-05
0.000727998
5.51398e-05
0.000723022
4.89964e-05
0.000719372
4.3482e-05
0.000716831
3.85494e-05
0.000715175
3.41504e-05
0.000714186
3.02442e-05
0.000713671
2.67973e-05
0.000713471
2.37786e-05
0.00071346
2.11545e-05
0.000713547
1.88848e-05
0.000713666
1.69236e-05
0.000713775
1.52219e-05
0.000713848
1.37316e-05
0.000713869
1.24093e-05
0.000713832
1.12193e-05
0.000713737
1.01354e-05
0.000713586
9.14042e-06
0.000713384
8.22493e-06
0.000713137
7.38411e-06
0.000712852
6.61455e-06
0.000712539
5.9119e-06
0.000712208
5.27036e-06
0.000711868
4.6836e-06
0.000711527
4.14638e-06
0.000711185
3.65558e-06
0.00071084
3.21006e-06
0.000710492
2.8093e-06
0.000710138
2.45195e-06
0.000709784
2.13445e-06
0.000709439
1.85071e-06
0.000709114
1.59293e-06
0.000708818
1.35327e-06
0.000708556
1.1257e-06
0.000708328
9.06999e-07
0.000708127
6.96974e-07
0.000707942
4.98122e-07
0.000707762
3.14057e-07
0.000707577
1.48359e-07
0.000707382
5.57065e-09
0.000707176
-1.20231e-07
0.000706957
-2.19645e-07
0.000706727
-2.96421e-07
0.000706493
-3.52579e-07
0.00070626
-3.90514e-07
0.000706033
-4.12958e-07
0.00070582
-4.22711e-07
0.000705623
-4.22435e-07
0.000705445
-4.14553e-07
0.000705289
-4.01179e-07
0.000705153
-3.84056e-07
0.000705039
-3.64534e-07
0.000704943
-3.43594e-07
0.000704865
-3.21907e-07
0.000704802
-2.99909e-07
0.000704752
-2.77889e-07
0.000704714
-2.56065e-07
0.000704684
-2.34627e-07
0.000704663
-2.13768e-07
0.000704647
-1.93686e-07
0.000704637
-1.74573e-07
0.00070463
-1.56603e-07
0.000704625
-1.39915e-07
0.000704623
-1.24601e-07
0.000704621
-1.10704e-07
0.000704621
-9.82203e-08
0.000704621
-8.71031e-08
0.000704621
-7.72744e-08
0.000704621
-6.86334e-08
0.000704621
-6.10667e-08
0.00070462
-5.44565e-08
0.00070462
-4.86866e-08
0.000704619
-4.36476e-08
0.000704617
-3.92391e-08
0.000704616
-3.5372e-08
0.000704614
-3.19679e-08
0.000704612
-2.89597e-08
0.00070461
-2.62901e-08
0.000704608
-2.39107e-08
0.000704606
-2.17811e-08
0.000704604
-1.98675e-08
0.000704603
-1.81417e-08
-1.658e-08
0.000789512
0.000131831
0.000779335
0.000123083
0.000769384
0.000113893
0.000759797
0.000104499
0.000750729
9.50942e-05
0.000742364
8.58375e-05
0.000734888
7.68827e-05
0.000728454
6.83789e-05
0.000723137
6.04562e-05
0.000718925
5.32089e-05
0.000715721
4.66861e-05
0.000713376
4.08945e-05
0.000711719
3.58069e-05
0.000710588
3.13751e-05
0.000709845
2.75408e-05
0.000709382
2.42417e-05
0.000709121
2.14153e-05
0.000709006
1.89992e-05
0.000708998
1.69321e-05
0.000709065
1.51549e-05
0.000709184
1.3613e-05
0.000709334
1.22592e-05
0.000709498
1.10555e-05
0.000709659
9.97435e-06
0.000709802
8.99704e-06
0.000709915
8.11152e-06
0.000709991
7.30904e-06
0.000710023
6.58184e-06
0.000710013
5.92215e-06
0.000709961
5.32248e-06
0.000709868
4.7764e-06
0.000709735
4.27902e-06
0.000709564
3.82665e-06
0.000709358
3.41597e-06
0.000709125
3.0431e-06
0.000708873
2.70311e-06
0.000708618
2.39015e-06
0.00070837
2.09828e-06
0.000708141
1.82247e-06
0.000707934
1.55944e-06
0.000707752
1.30819e-06
0.000707589
1.06972e-06
0.00070744
8.46459e-07
0.000707297
6.4136e-07
0.000707154
4.56942e-07
0.000707007
2.94957e-07
0.000706856
1.56482e-07
0.000706695
4.078e-08
0.000706529
-5.38131e-08
0.000706361
-1.28436e-07
0.000706194
-1.85606e-07
0.000706032
-2.27706e-07
0.000705876
-2.57099e-07
0.000705729
-2.75993e-07
0.000705593
-2.86409e-07
0.000705469
-2.90153e-07
0.000705356
-2.88782e-07
0.000705256
-2.83569e-07
0.000705167
-2.75505e-07
0.000705088
-2.65321e-07
0.00070502
-2.53536e-07
0.000704961
-2.40524e-07
0.000704909
-2.26568e-07
0.000704865
-2.11914e-07
0.000704827
-1.96805e-07
0.000704795
-1.81494e-07
0.000704768
-1.66239e-07
0.000704744
-1.51294e-07
0.000704725
-1.36892e-07
0.000704708
-1.23231e-07
0.000704694
-1.1046e-07
0.000704682
-9.8681e-08
0.000704671
-8.7945e-08
0.000704663
-7.82606e-08
0.000704655
-6.96003e-08
0.000704648
-6.19098e-08
0.000704642
-5.51172e-08
0.000704637
-4.91405e-08
0.000704632
-4.38939e-08
0.000704628
-3.92929e-08
0.000704624
-3.52572e-08
0.00070462
-3.1713e-08
0.000704617
-2.8594e-08
0.000704614
-2.58416e-08
0.000704611
-2.34049e-08
0.000704608
-2.12401e-08
0.000704606
-1.93097e-08
0.000704603
-1.7582e-08
0.000704601
-1.60301e-08
-1.46314e-08
0.000681987
0.000124738
0.000687886
0.000117184
0.000692553
0.000109226
0.000696046
0.000101006
0.000698513
9.26275e-05
0.000700139
8.42115e-05
0.00070111
7.59114e-05
0.000701594
6.78945e-05
0.000701737
6.03137e-05
0.000701661
5.32852e-05
0.000701469
4.68776e-05
0.000701249
4.11145e-05
0.00070107
3.59862e-05
0.000700983
3.14624e-05
0.000701021
2.75028e-05
0.0007012
2.40627e-05
0.00070152
2.10944e-05
0.000701973
1.85472e-05
0.000702536
1.63684e-05
0.000703186
1.45052e-05
0.000703891
1.29076e-05
0.000704619
1.15312e-05
0.000705336
1.03391e-05
0.000706008
9.30157e-06
0.00070661
8.39495e-06
0.000707122
7.59966e-06
0.000707533
6.89859e-06
0.000707838
6.2764e-06
0.000708041
5.71944e-06
0.000708147
5.21607e-06
0.000708167
4.75672e-06
0.000708112
4.33368e-06
0.000707999
3.94052e-06
0.000707843
3.57166e-06
0.000707664
3.22219e-06
0.000707479
2.88797e-06
0.000707303
2.56607e-06
0.000707146
2.25509e-06
0.000707013
1.95523e-06
0.000706905
1.66826e-06
0.000706816
1.39695e-06
0.000706741
1.14456e-06
0.000706673
9.14072e-07
0.000706607
7.07771e-07
0.000706537
5.26842e-07
0.000706461
3.71331e-07
0.000706377
2.40286e-07
0.000706286
1.31878e-07
0.000706188
4.4009e-08
0.000706086
-2.66807e-08
0.000705983
-8.19804e-08
0.000705879
-1.23859e-07
0.000705776
-1.54697e-07
0.000705677
-1.76439e-07
0.000705581
-1.9084e-07
0.00070549
-1.99431e-07
0.000705405
-2.03484e-07
0.000705326
-2.0402e-07
0.000705252
-2.01822e-07
0.000705184
-1.97467e-07
0.000705122
-1.91374e-07
0.000705065
-1.83848e-07
0.000705014
-1.75137e-07
0.000704967
-1.65467e-07
0.000704926
-1.55066e-07
0.000704888
-1.44173e-07
0.000704855
-1.33032e-07
0.000704826
-1.21884e-07
0.0007048
-1.10949e-07
0.000704777
-1.00418e-07
0.000704757
-9.04425e-08
0.000704739
-8.11313e-08
0.000704724
-7.2552e-08
0.00070471
-6.47345e-08
0.000704699
-5.76776e-08
0.000704688
-5.1356e-08
0.000704679
-4.57278e-08
0.00070467
-4.074e-08
0.000704663
-3.63342e-08
0.000704656
-3.24507e-08
0.00070465
-2.9031e-08
0.000704644
-2.60199e-08
0.000704639
-2.33668e-08
0.000704634
-2.1026e-08
0.000704629
-1.89567e-08
0.000704625
-1.71235e-08
0.000704621
-1.54951e-08
0.000704618
-1.40449e-08
0.000704615
-1.27496e-08
-1.15895e-08
0.000506779
9.98719e-05
0.000529655
9.43074e-05
0.000550499
8.83817e-05
0.000569349
8.21565e-05
0.000586265
7.57118e-05
0.000601316
6.91606e-05
0.00061459
6.26368e-05
0.000626208
5.62762e-05
0.000636323
5.01988e-05
0.000645112
4.44966e-05
0.000652759
3.92306e-05
0.00065944
3.44338e-05
0.000665308
3.01179e-05
0.00067049
2.62799e-05
0.000675088
2.29054e-05
0.00067918
1.99709e-05
0.000682829
1.7445e-05
0.000686086
1.52897e-05
0.000688992
1.34628e-05
0.000691576
1.19209e-05
0.000693862
1.06222e-05
0.000695865
9.52832e-06
0.000697599
8.60497e-06
0.000699078
7.82216e-06
0.00070032
7.15364e-06
0.000701343
6.57634e-06
0.000702171
6.07015e-06
0.00070283
5.61783e-06
0.000703344
5.20504e-06
0.00070374
4.82023e-06
0.000704042
4.45449e-06
0.000704275
4.10119e-06
0.00070446
3.75573e-06
0.000704616
3.41531e-06
0.000704759
3.0789e-06
0.0007049
2.74709e-06
0.000705044
2.42201e-06
0.000705192
2.1069e-06
0.000705342
1.80569e-06
0.000705488
1.52248e-06
0.000705624
1.26097e-06
0.000705744
1.02404e-06
0.000705845
8.13445e-07
0.000705923
6.29772e-07
0.000705977
4.72469e-07
0.000706008
3.40086e-07
0.000706018
2.30499e-07
0.000706009
1.41157e-07
0.000705984
6.93841e-08
0.000705944
1.28044e-08
0.000705894
-3.18003e-08
0.000705836
-6.55432e-08
0.000705771
-9.05314e-08
0.000705704
-1.08508e-07
0.000705634
-1.20903e-07
0.000705563
-1.28901e-07
0.000705493
-1.33465e-07
0.000705424
-1.35356e-07
0.000705358
-1.35148e-07
0.000705293
-1.33261e-07
0.000705232
-1.30001e-07
0.000705174
-1.25595e-07
0.000705119
-1.20228e-07
0.000705068
-1.14073e-07
0.00070502
-1.07302e-07
0.000704976
-1.00095e-07
0.000704935
-9.26345e-08
0.000704899
-8.50994e-08
0.000704865
-7.76538e-08
0.000704835
-7.04397e-08
0.000704808
-6.3571e-08
0.000704784
-5.71311e-08
0.000704763
-5.1174e-08
0.000704744
-4.57266e-08
0.000704727
-4.07935e-08
0.000704712
-3.63618e-08
0.000704699
-3.24061e-08
0.000704687
-2.88927e-08
0.000704676
-2.57834e-08
0.000704667
-2.30385e-08
0.000704659
-2.06185e-08
0.000704651
-1.84858e-08
0.000704644
-1.66056e-08
0.000704638
-1.49462e-08
0.000704633
-1.34793e-08
0.000704628
-1.21798e-08
0.000704623
-1.10258e-08
0.000704619
-9.99834e-09
0.000704616
-9.0809e-09
-8.25937e-09
0.000297897
5.66166e-05
0.000338792
5.34127e-05
0.000377144
5.00289e-05
0.000412807
4.6494e-05
0.000445668
4.28504e-05
0.00047567
3.91589e-05
0.000502817
3.54896e-05
0.000527181
3.19121e-05
0.000548891
2.84885e-05
0.000568119
2.52688e-05
0.00058506
2.22899e-05
0.000599919
1.95751e-05
0.0006129
1.71363e-05
0.000624205
1.49753e-05
0.000634025
1.30854e-05
0.000642543
1.14528e-05
0.00064993
1.00579e-05
0.000656343
8.87704e-06
0.000661921
7.8846e-06
0.000666787
7.05445e-06
0.000671048
6.3614e-06
0.000674794
5.78205e-06
0.000678104
5.29523e-06
0.000681044
4.88211e-06
0.000683672
4.52622e-06
0.000686035
4.21336e-06
0.000688173
3.93153e-06
0.00069012
3.67083e-06
0.000691902
3.4234e-06