/*--------------------------------*- C++ -*----------------------------------*\
| =========                 |                                                 |
| \\      /  F ield         | OpenFOAM: The Open Source CFD Toolbox           |
|  \\    /   O peration     | Version:  2312                                  |
|   \\  /    A nd           | Website:  www.openfoam.com                      |
|    \\/     M anipulation  |                                                 |
\*---------------------------------------------------------------------------*/
FoamFile
{
    version     2.0;
    format      ascii;
    arch        "LSB;label=32;scalar=64";
    class       volScalarField;
    location    "113000";
    object      p;
}
// * * * * * * * * * * * * * * * * * * * * * * * * * * * * * * * * * * * * * //

dimensions      [0 2 -2 0 0 0 0];

internalField   nonuniform List<scalar> 
2715
(
5.34996e-07
5.20873e-07
5.07105e-07
4.96526e-07
4.89101e-07
4.83707e-07
4.79253e-07
4.7517e-07
4.7129e-07
4.67621e-07
4.642e-07
4.6103e-07
4.58078e-07
4.55294e-07
4.52632e-07
4.50058e-07
4.47552e-07
4.45098e-07
4.42688e-07
4.40313e-07
4.37962e-07
4.3563e-07
4.33309e-07
4.30994e-07
4.2868e-07
4.26363e-07
4.24041e-07
4.21711e-07
4.1937e-07
4.17018e-07
4.14653e-07
4.12273e-07
4.09878e-07
4.07469e-07
4.05043e-07
4.02603e-07
4.00148e-07
3.97677e-07
3.95192e-07
3.92693e-07
3.90181e-07
3.87655e-07
3.85116e-07
3.82564e-07
3.79998e-07
3.77419e-07
3.74826e-07
3.72215e-07
3.69591e-07
3.66937e-07
3.64277e-07
3.61557e-07
3.5886e-07
3.56013e-07
3.53319e-07
3.50138e-07
3.47732e-07
3.43273e-07
3.42915e-07
3.32259e-07
4.86956e-07
4.85228e-07
4.82582e-07
4.79455e-07
4.76237e-07
4.7314e-07
4.70214e-07
4.67424e-07
4.64718e-07
4.62067e-07
4.59464e-07
4.56915e-07
4.54427e-07
4.51999e-07
4.49626e-07
4.47297e-07
4.45004e-07
4.42739e-07
4.40495e-07
4.38269e-07
4.36055e-07
4.3385e-07
4.3165e-07
4.29451e-07
4.27251e-07
4.25046e-07
4.22835e-07
4.20616e-07
4.18387e-07
4.16146e-07
4.13893e-07
4.11627e-07
4.09347e-07
4.07053e-07
4.04745e-07
4.02421e-07
4.00084e-07
3.97731e-07
3.95366e-07
3.92983e-07
3.90591e-07
3.88178e-07
3.85762e-07
3.83318e-07
3.80879e-07
3.78403e-07
3.75944e-07
3.73431e-07
3.70961e-07
3.68408e-07
3.65948e-07
3.63355e-07
3.60958e-07
3.58345e-07
3.56145e-07
3.5358e-07
3.51911e-07
3.49473e-07
3.48947e-07
3.4622e-07
4.78224e-07
4.77473e-07
4.76058e-07
4.74105e-07
4.71818e-07
4.69396e-07
4.66963e-07
4.6457e-07
4.62219e-07
4.599e-07
4.57601e-07
4.55324e-07
4.53072e-07
4.50852e-07
4.48664e-07
4.46507e-07
4.44378e-07
4.4227e-07
4.40179e-07
4.38101e-07
4.36034e-07
4.33974e-07
4.31918e-07
4.29864e-07
4.27811e-07
4.25754e-07
4.23694e-07
4.21628e-07
4.19555e-07
4.17473e-07
4.15382e-07
4.13281e-07
4.11169e-07
4.09046e-07
4.06912e-07
4.04764e-07
4.02607e-07
4.00435e-07
3.98254e-07
3.96057e-07
3.93852e-07
3.91629e-07
3.89402e-07
3.87153e-07
3.84905e-07
3.82629e-07
3.80362e-07
3.7806e-07
3.75781e-07
3.73454e-07
3.71176e-07
3.68831e-07
3.66574e-07
3.6422e-07
3.6202e-07
3.59671e-07
3.5758e-07
3.55242e-07
3.533e-07
3.50879e-07
4.66498e-07
4.66065e-07
4.65277e-07
4.64186e-07
4.62859e-07
4.61369e-07
4.59772e-07
4.58107e-07
4.56396e-07
4.54649e-07
4.52873e-07
4.51073e-07
4.49256e-07
4.47428e-07
4.45593e-07
4.43754e-07
4.41914e-07
4.40072e-07
4.38228e-07
4.36381e-07
4.34532e-07
4.32678e-07
4.30821e-07
4.28958e-07
4.2709e-07
4.25216e-07
4.23335e-07
4.21447e-07
4.1955e-07
4.17646e-07
4.15733e-07
4.13811e-07
4.11881e-07
4.09941e-07
4.07992e-07
4.06033e-07
4.04066e-07
4.02089e-07
4.00103e-07
3.98106e-07
3.96101e-07
3.94085e-07
3.9206e-07
3.90021e-07
3.87975e-07
3.85911e-07
3.8384e-07
3.81746e-07
3.79644e-07
3.77512e-07
3.75372e-07
3.73193e-07
3.71008e-07
3.68774e-07
3.66539e-07
3.64241e-07
3.61952e-07
3.59582e-07
3.57238e-07
3.54811e-07
4.59812e-07
4.59598e-07
4.59166e-07
4.58519e-07
4.57674e-07
4.56658e-07
4.55504e-07
4.54244e-07
4.52901e-07
4.51493e-07
4.50032e-07
4.48527e-07
4.46985e-07
4.45413e-07
4.43816e-07
4.422e-07
4.40567e-07
4.38922e-07
4.37265e-07
4.35598e-07
4.33921e-07
4.32237e-07
4.30545e-07
4.28845e-07
4.27139e-07
4.25425e-07
4.23705e-07
4.21979e-07
4.20246e-07
4.18508e-07
4.16763e-07
4.15012e-07
4.13256e-07
4.11495e-07
4.09728e-07
4.07956e-07
4.06179e-07
4.04397e-07
4.02611e-07
4.00819e-07
3.99023e-07
3.97221e-07
3.95413e-07
3.93599e-07
3.91779e-07
3.8995e-07
3.88114e-07
3.86266e-07
3.84407e-07
3.82532e-07
3.80637e-07
3.78715e-07
3.76755e-07
3.74746e-07
3.72669e-07
3.70512e-07
3.68266e-07
3.6594e-07
3.63536e-07
3.61154e-07
4.54309e-07
4.54146e-07
4.5382e-07
4.53335e-07
4.527e-07
4.51932e-07
4.51048e-07
4.50068e-07
4.49006e-07
4.47874e-07
4.46684e-07
4.45442e-07
4.44155e-07
4.42829e-07
4.41469e-07
4.4008e-07
4.38666e-07
4.37231e-07
4.35776e-07
4.34304e-07
4.32818e-07
4.31318e-07
4.29806e-07
4.28284e-07
4.26752e-07
4.25212e-07
4.23664e-07
4.22108e-07
4.20547e-07
4.18981e-07
4.17409e-07
4.15833e-07
4.14254e-07
4.12671e-07
4.11086e-07
4.095e-07
4.07911e-07
4.06321e-07
4.04729e-07
4.03137e-07
4.01543e-07
3.99948e-07
3.98351e-07
3.96751e-07
3.95146e-07
3.93536e-07
3.91916e-07
3.90285e-07
3.88638e-07
3.86975e-07
3.85289e-07
3.83584e-07
3.81851e-07
3.80099e-07
3.78299e-07
3.76456e-07
3.74533e-07
3.72554e-07
3.70515e-07
3.68543e-07
4.49982e-07
4.49863e-07
4.49625e-07
4.49268e-07
4.48796e-07
4.48216e-07
4.47538e-07
4.46771e-07
4.45925e-07
4.4501e-07
4.44033e-07
4.43002e-07
4.41922e-07
4.40798e-07
4.39635e-07
4.38437e-07
4.37208e-07
4.35953e-07
4.34673e-07
4.33373e-07
4.32053e-07
4.30717e-07
4.29367e-07
4.28004e-07
4.26631e-07
4.25248e-07
4.23856e-07
4.22459e-07
4.21056e-07
4.19649e-07
4.18238e-07
4.16826e-07
4.15413e-07
4.14e-07
4.12589e-07
4.11179e-07
4.09771e-07
4.08368e-07
4.06968e-07
4.05573e-07
4.04182e-07
4.02797e-07
4.01416e-07
4.00042e-07
3.98671e-07
3.97306e-07
3.95944e-07
3.94586e-07
3.93225e-07
3.91862e-07
3.90484e-07
3.8909e-07
3.87665e-07
3.86213e-07
3.84726e-07
3.83214e-07
3.81657e-07
3.80078e-07
3.78475e-07
3.76962e-07
4.46553e-07
4.4646e-07
4.46274e-07
4.45994e-07
4.45622e-07
4.45161e-07
4.44616e-07
4.43993e-07
4.433e-07
4.42541e-07
4.41723e-07
4.40851e-07
4.39929e-07
4.38964e-07
4.37958e-07
4.36916e-07
4.35843e-07
4.34741e-07
4.33613e-07
4.32462e-07
4.31292e-07
4.30104e-07
4.289e-07
4.27684e-07
4.26457e-07
4.2522e-07
4.23976e-07
4.22726e-07
4.21472e-07
4.20216e-07
4.18959e-07
4.17703e-07
4.16449e-07
4.15198e-07
4.13952e-07
4.12712e-07
4.1148e-07
4.10256e-07
4.09042e-07
4.07839e-07
4.06647e-07
4.05467e-07
4.043e-07
4.03147e-07
4.02005e-07
4.00877e-07
3.99761e-07
3.98657e-07
3.97563e-07
3.96483e-07
3.9541e-07
3.94346e-07
3.93277e-07
3.92205e-07
3.91119e-07
3.90029e-07
3.88923e-07
3.87829e-07
3.86753e-07
3.858e-07
4.43814e-07
4.43738e-07
4.43586e-07
4.43357e-07
4.43051e-07
4.4267e-07
4.42219e-07
4.417e-07
4.41118e-07
4.40477e-07
4.39781e-07
4.39035e-07
4.38242e-07
4.37407e-07
4.36533e-07
4.35624e-07
4.34683e-07
4.33713e-07
4.32717e-07
4.31699e-07
4.3066e-07
4.29604e-07
4.28532e-07
4.27448e-07
4.26353e-07
4.25249e-07
4.24139e-07
4.23025e-07
4.21909e-07
4.20792e-07
4.19677e-07
4.18565e-07
4.17459e-07
4.1636e-07
4.15269e-07
4.1419e-07
4.13123e-07
4.12071e-07
4.11034e-07
4.10015e-07
4.09015e-07
4.08036e-07
4.07079e-07
4.06146e-07
4.05237e-07
4.04355e-07
4.03499e-07
4.02671e-07
4.01869e-07
4.01093e-07
4.00339e-07
3.99612e-07
3.98909e-07
3.98233e-07
3.97577e-07
3.96949e-07
3.96341e-07
3.95777e-07
3.95268e-07
3.94902e-07
4.41639e-07
4.41575e-07
4.41446e-07
4.41253e-07
4.40994e-07
4.40672e-07
4.40288e-07
4.39845e-07
4.39346e-07
4.38794e-07
4.38193e-07
4.37546e-07
4.36855e-07
4.36125e-07
4.35358e-07
4.34556e-07
4.33725e-07
4.32865e-07
4.3198e-07
4.31073e-07
4.30147e-07
4.29203e-07
4.28245e-07
4.27275e-07
4.26295e-07
4.25308e-07
4.24316e-07
4.23322e-07
4.22327e-07
4.21334e-07
4.20346e-07
4.19364e-07
4.1839e-07
4.17428e-07
4.16479e-07
4.15546e-07
4.1463e-07
4.13735e-07
4.12862e-07
4.12014e-07
4.11193e-07
4.10401e-07
4.09641e-07
4.08916e-07
4.08226e-07
4.07576e-07
4.06967e-07
4.06401e-07
4.05878e-07
4.054e-07
4.04969e-07
4.04589e-07
4.04261e-07
4.03989e-07
4.0377e-07
4.03613e-07
4.03516e-07
4.03499e-07
4.03577e-07
4.03823e-07
4.3994e-07
4.39884e-07
4.39773e-07
4.39605e-07
4.3938e-07
4.391e-07
4.38765e-07
4.38379e-07
4.37942e-07
4.37458e-07
4.36929e-07
4.36358e-07
4.35746e-07
4.35098e-07
4.34415e-07
4.337e-07
4.32956e-07
4.32186e-07
4.31392e-07
4.30577e-07
4.29743e-07
4.28894e-07
4.28031e-07
4.27157e-07
4.26275e-07
4.25388e-07
4.24497e-07
4.23605e-07
4.22715e-07
4.2183e-07
4.20951e-07
4.20082e-07
4.19226e-07
4.18384e-07
4.17559e-07
4.16755e-07
4.15974e-07
4.15219e-07
4.14493e-07
4.13799e-07
4.1314e-07
4.12519e-07
4.11939e-07
4.11405e-07
4.10919e-07
4.10485e-07
4.10105e-07
4.09783e-07
4.09521e-07
4.09326e-07
4.09203e-07
4.09154e-07
4.09185e-07
4.093e-07
4.09502e-07
4.098e-07
4.10199e-07
4.10716e-07
4.11368e-07
4.12212e-07
4.38653e-07
4.38603e-07
4.38504e-07
4.38355e-07
4.38155e-07
4.37905e-07
4.37606e-07
4.37261e-07
4.3687e-07
4.36436e-07
4.3596e-07
4.35446e-07
4.34895e-07
4.34309e-07
4.33691e-07
4.33043e-07
4.32368e-07
4.31668e-07
4.30945e-07
4.30203e-07
4.29444e-07
4.2867e-07
4.27884e-07
4.27088e-07
4.26286e-07
4.25479e-07
4.24671e-07
4.23864e-07
4.23061e-07
4.22264e-07
4.21477e-07
4.20702e-07
4.19943e-07
4.19202e-07
4.18482e-07
4.17787e-07
4.1712e-07
4.16484e-07
4.15882e-07
4.1532e-07
4.14799e-07
4.14324e-07
4.139e-07
4.1353e-07
4.13219e-07
4.12971e-07
4.12791e-07
4.12683e-07
4.12655e-07
4.12713e-07
4.12862e-07
4.13108e-07
4.13459e-07
4.13922e-07
4.14504e-07
4.15216e-07
4.16065e-07
4.1707e-07
4.18248e-07
4.19643e-07
4.37732e-07
4.37687e-07
4.37597e-07
4.3746e-07
4.37277e-07
4.37048e-07
4.36775e-07
4.36458e-07
4.361e-07
4.35702e-07
4.35265e-07
4.34791e-07
4.34283e-07
4.33743e-07
4.33172e-07
4.32573e-07
4.31949e-07
4.313e-07
4.30631e-07
4.29944e-07
4.2924e-07
4.28523e-07
4.27795e-07
4.27059e-07
4.26317e-07
4.25573e-07
4.24828e-07
4.24086e-07
4.2335e-07
4.22622e-07
4.21906e-07
4.21204e-07
4.2052e-07
4.19858e-07
4.1922e-07
4.1861e-07
4.18032e-07
4.1749e-07
4.16987e-07
4.16528e-07
4.16117e-07
4.15759e-07
4.15459e-07
4.15221e-07
4.1505e-07
4.14953e-07
4.14934e-07
4.15003e-07
4.15164e-07
4.15427e-07
4.15798e-07
4.16286e-07
4.16901e-07
4.1765e-07
4.18547e-07
4.19601e-07
4.20826e-07
4.22239e-07
4.23858e-07
4.25714e-07
4.37147e-07
4.37105e-07
4.3702e-07
4.36891e-07
4.36719e-07
4.36504e-07
4.36247e-07
4.35949e-07
4.35611e-07
4.35236e-07
4.34824e-07
4.34377e-07
4.33897e-07
4.33386e-07
4.32847e-07
4.3228e-07
4.31689e-07
4.31076e-07
4.30442e-07
4.29791e-07
4.29125e-07
4.28447e-07
4.27758e-07
4.27062e-07
4.26361e-07
4.25659e-07
4.24957e-07
4.2426e-07
4.23569e-07
4.22889e-07
4.22221e-07
4.2157e-07
4.20939e-07
4.20331e-07
4.1975e-07
4.19199e-07
4.18684e-07
4.18207e-07
4.17773e-07
4.17386e-07
4.17053e-07
4.16776e-07
4.16563e-07
4.16417e-07
4.16346e-07
4.16355e-07
4.16452e-07
4.16645e-07
4.16942e-07
4.1735e-07
4.1788e-07
4.18541e-07
4.19344e-07
4.203e-07
4.21422e-07
4.22723e-07
4.24221e-07
4.25928e-07
4.27868e-07
4.30059e-07
4.36877e-07
4.36836e-07
4.36753e-07
4.36629e-07
4.36462e-07
4.36254e-07
4.36005e-07
4.35716e-07
4.35389e-07
4.35024e-07
4.34625e-07
4.34191e-07
4.33726e-07
4.3323e-07
4.32707e-07
4.32157e-07
4.31582e-07
4.30987e-07
4.30371e-07
4.29739e-07
4.29092e-07
4.28433e-07
4.27765e-07
4.2709e-07
4.26411e-07
4.2573e-07
4.25052e-07
4.24377e-07
4.23711e-07
4.23055e-07
4.22413e-07
4.21789e-07
4.21185e-07
4.20606e-07
4.20055e-07
4.19536e-07
4.19053e-07
4.18611e-07
4.18214e-07
4.17866e-07
4.17573e-07
4.1734e-07
4.17173e-07
4.17076e-07
4.17058e-07
4.17124e-07
4.17283e-07
4.17542e-07
4.17911e-07
4.18397e-07
4.19012e-07
4.19765e-07
4.20669e-07
4.21735e-07
4.22978e-07
4.24412e-07
4.26054e-07
4.2792e-07
4.30032e-07
4.32403e-07
4.36911e-07
4.3687e-07
4.36788e-07
4.36663e-07
4.36497e-07
4.36289e-07
4.3604e-07
4.35752e-07
4.35425e-07
4.35061e-07
4.34662e-07
4.34229e-07
4.33764e-07
4.3327e-07
4.32746e-07
4.32197e-07
4.31624e-07
4.31029e-07
4.30415e-07
4.29784e-07
4.29138e-07
4.28481e-07
4.27813e-07
4.2714e-07
4.26462e-07
4.25783e-07
4.25106e-07
4.24433e-07
4.23769e-07
4.23115e-07
4.22475e-07
4.21852e-07
4.21251e-07
4.20674e-07
4.20125e-07
4.19609e-07
4.19129e-07
4.18689e-07
4.18295e-07
4.1795e-07
4.17661e-07
4.17431e-07
4.17267e-07
4.17175e-07
4.17162e-07
4.17233e-07
4.17395e-07
4.17659e-07
4.18031e-07
4.18523e-07
4.19143e-07
4.19901e-07
4.20811e-07
4.21883e-07
4.23133e-07
4.24573e-07
4.26223e-07
4.28096e-07
4.30215e-07
4.32594e-07
4.3725e-07
4.37208e-07
4.37123e-07
4.36995e-07
4.36823e-07
4.36609e-07
4.36353e-07
4.36056e-07
4.35719e-07
4.35345e-07
4.34935e-07
4.3449e-07
4.34012e-07
4.33503e-07
4.32966e-07
4.32402e-07
4.31814e-07
4.31203e-07
4.30573e-07
4.29925e-07
4.29262e-07
4.28587e-07
4.27902e-07
4.27211e-07
4.26514e-07
4.25817e-07
4.2512e-07
4.24428e-07
4.23742e-07
4.23068e-07
4.22406e-07
4.21761e-07
4.21137e-07
4.20535e-07
4.19962e-07
4.19419e-07
4.18911e-07
4.18442e-07
4.18017e-07
4.1764e-07
4.17316e-07
4.17049e-07
4.16846e-07
4.16712e-07
4.16652e-07
4.16673e-07
4.16784e-07
4.1699e-07
4.17301e-07
4.17724e-07
4.1827e-07
4.18947e-07
4.19768e-07
4.20742e-07
4.21883e-07
4.23205e-07
4.24723e-07
4.26453e-07
4.28416e-07
4.3063e-07
4.37902e-07
4.37857e-07
4.37767e-07
4.37631e-07
4.3745e-07
4.37222e-07
4.3695e-07
4.36636e-07
4.36279e-07
4.35883e-07
4.35449e-07
4.34978e-07
4.34473e-07
4.33936e-07
4.33369e-07
4.32775e-07
4.32154e-07
4.31511e-07
4.30847e-07
4.30165e-07
4.29467e-07
4.28756e-07
4.28035e-07
4.27305e-07
4.26571e-07
4.25834e-07
4.25097e-07
4.24364e-07
4.23636e-07
4.22918e-07
4.22211e-07
4.2152e-07
4.20847e-07
4.20196e-07
4.19571e-07
4.18973e-07
4.18409e-07
4.1788e-07
4.17392e-07
4.16948e-07
4.16553e-07
4.16211e-07
4.15928e-07
4.15708e-07
4.15557e-07
4.1548e-07
4.15484e-07
4.15574e-07
4.15759e-07
4.16046e-07
4.16443e-07
4.16958e-07
4.176e-07
4.1838e-07
4.19308e-07
4.20395e-07
4.21655e-07
4.23104e-07
4.24761e-07
4.26655e-07
4.38888e-07
4.38839e-07
4.38741e-07
4.38592e-07
4.38393e-07
4.38145e-07
4.37849e-07
4.37506e-07
4.37118e-07
4.36687e-07
4.36215e-07
4.35705e-07
4.35158e-07
4.34577e-07
4.33964e-07
4.33322e-07
4.32653e-07
4.31959e-07
4.31244e-07
4.30509e-07
4.29758e-07
4.28992e-07
4.28215e-07
4.27429e-07
4.26636e-07
4.2584e-07
4.25043e-07
4.24248e-07
4.23457e-07
4.22674e-07
4.21901e-07
4.2114e-07
4.20396e-07
4.19671e-07
4.18967e-07
4.1829e-07
4.17641e-07
4.17024e-07
4.16442e-07
4.159e-07
4.15401e-07
4.1495e-07
4.14549e-07
4.14204e-07
4.13919e-07
4.13699e-07
4.13549e-07
4.13473e-07
4.13477e-07
4.13568e-07
4.13752e-07
4.14035e-07
4.14425e-07
4.14929e-07
4.15554e-07
4.1631e-07
4.17207e-07
4.18262e-07
4.19491e-07
4.20938e-07
4.40238e-07
4.40183e-07
4.40073e-07
4.39906e-07
4.39683e-07
4.39405e-07
4.39073e-07
4.38689e-07
4.38256e-07
4.37776e-07
4.37252e-07
4.36686e-07
4.3608e-07
4.35438e-07
4.34761e-07
4.34054e-07
4.33317e-07
4.32555e-07
4.3177e-07
4.30965e-07
4.30141e-07
4.29302e-07
4.28451e-07
4.27589e-07
4.2672e-07
4.25845e-07
4.24969e-07
4.24092e-07
4.23218e-07
4.22349e-07
4.21488e-07
4.20637e-07
4.19799e-07
4.18977e-07
4.18174e-07
4.17391e-07
4.16633e-07
4.15903e-07
4.15202e-07
4.14534e-07
4.13902e-07
4.1331e-07
4.12761e-07
4.12258e-07
4.11805e-07
4.11406e-07
4.11062e-07
4.10779e-07
4.10559e-07
4.10407e-07
4.10326e-07
4.10324e-07
4.10403e-07
4.10569e-07
4.10825e-07
4.1118e-07
4.11638e-07
4.12216e-07
4.12932e-07
4.1384e-07
4.41997e-07
4.41934e-07
4.41806e-07
4.41614e-07
4.41358e-07
4.41038e-07
4.40657e-07
4.40218e-07
4.39723e-07
4.39177e-07
4.38581e-07
4.3794e-07
4.37256e-07
4.36533e-07
4.35773e-07
4.34981e-07
4.34158e-07
4.33308e-07
4.32434e-07
4.31539e-07
4.30624e-07
4.29693e-07
4.28749e-07
4.27793e-07
4.26828e-07
4.25858e-07
4.24883e-07
4.23906e-07
4.2293e-07
4.21957e-07
4.20989e-07
4.20029e-07
4.19078e-07
4.1814e-07
4.17216e-07
4.16309e-07
4.15421e-07
4.14554e-07
4.13711e-07
4.12895e-07
4.12107e-07
4.1135e-07
4.10626e-07
4.09938e-07
4.09289e-07
4.08679e-07
4.08113e-07
4.07592e-07
4.07117e-07
4.06689e-07
4.06311e-07
4.05987e-07
4.05715e-07
4.05503e-07
4.05348e-07
4.05257e-07
4.0523e-07
4.05285e-07
4.05438e-07
4.0576e-07
4.44228e-07
4.44153e-07
4.44002e-07
4.43775e-07
4.43471e-07
4.43094e-07
4.42646e-07
4.42131e-07
4.41554e-07
4.40919e-07
4.4023e-07
4.3949e-07
4.38706e-07
4.37879e-07
4.37014e-07
4.36115e-07
4.35184e-07
4.34226e-07
4.33242e-07
4.32237e-07
4.31212e-07
4.3017e-07
4.29114e-07
4.28047e-07
4.26969e-07
4.25884e-07
4.24794e-07
4.237e-07
4.22605e-07
4.21511e-07
4.2042e-07
4.19333e-07
4.18253e-07
4.17182e-07
4.1612e-07
4.15071e-07
4.14036e-07
4.13017e-07
4.12015e-07
4.11032e-07
4.1007e-07
4.09131e-07
4.08215e-07
4.07325e-07
4.06462e-07
4.05627e-07
4.04821e-07
4.04045e-07
4.03298e-07
4.02579e-07
4.01885e-07
4.0122e-07
4.00582e-07
3.99974e-07
3.9939e-07
3.98837e-07
3.98308e-07
3.97825e-07
3.974e-07
3.97119e-07
4.47019e-07
4.46927e-07
4.46742e-07
4.46464e-07
4.46095e-07
4.45637e-07
4.45096e-07
4.44479e-07
4.43791e-07
4.43038e-07
4.42227e-07
4.41363e-07
4.4045e-07
4.39494e-07
4.38498e-07
4.37468e-07
4.36406e-07
4.35317e-07
4.34203e-07
4.33067e-07
4.31912e-07
4.30741e-07
4.29555e-07
4.28357e-07
4.27149e-07
4.25934e-07
4.24711e-07
4.23485e-07
4.22255e-07
4.21025e-07
4.19794e-07
4.18566e-07
4.17341e-07
4.16122e-07
4.14908e-07
4.13702e-07
4.12506e-07
4.11319e-07
4.10144e-07
4.08981e-07
4.07831e-07
4.06696e-07
4.05576e-07
4.0447e-07
4.0338e-07
4.02305e-07
4.01243e-07
4.00197e-07
3.99163e-07
3.98145e-07
3.97138e-07
3.96143e-07
3.95147e-07
3.94151e-07
3.93144e-07
3.92137e-07
3.91117e-07
3.90111e-07
3.89128e-07
3.88268e-07
4.50495e-07
4.50376e-07
4.5014e-07
4.49785e-07
4.49316e-07
4.4874e-07
4.48066e-07
4.47304e-07
4.46465e-07
4.45557e-07
4.44588e-07
4.43565e-07
4.42495e-07
4.41381e-07
4.40229e-07
4.39044e-07
4.37828e-07
4.36587e-07
4.35322e-07
4.34038e-07
4.32736e-07
4.31418e-07
4.30087e-07
4.28745e-07
4.27393e-07
4.26032e-07
4.24665e-07
4.23293e-07
4.21916e-07
4.20537e-07
4.19156e-07
4.17775e-07
4.16394e-07
4.15015e-07
4.13639e-07
4.12266e-07
4.10898e-07
4.09535e-07
4.08177e-07
4.06827e-07
4.05482e-07
4.04146e-07
4.02816e-07
4.01494e-07
4.00178e-07
3.98871e-07
3.97568e-07
3.96271e-07
3.94975e-07
3.9368e-07
3.92373e-07
3.91054e-07
3.8971e-07
3.88342e-07
3.8694e-07
3.85517e-07
3.84051e-07
3.82567e-07
3.81063e-07
3.7965e-07
4.54863e-07
4.54701e-07
4.54377e-07
4.53894e-07
4.53263e-07
4.52499e-07
4.5162e-07
4.50645e-07
4.4959e-07
4.48466e-07
4.47284e-07
4.46051e-07
4.44775e-07
4.4346e-07
4.42113e-07
4.40737e-07
4.39337e-07
4.37916e-07
4.36478e-07
4.35024e-07
4.33556e-07
4.32076e-07
4.30585e-07
4.29084e-07
4.27576e-07
4.2606e-07
4.24538e-07
4.2301e-07
4.21477e-07
4.19941e-07
4.18401e-07
4.16858e-07
4.15314e-07
4.13768e-07
4.12221e-07
4.10674e-07
4.09127e-07
4.07581e-07
4.06035e-07
4.04491e-07
4.02947e-07
4.01404e-07
3.99861e-07
3.98318e-07
3.96773e-07
3.95224e-07
3.93669e-07
3.92107e-07
3.90531e-07
3.88943e-07
3.87334e-07
3.8571e-07
3.84059e-07
3.82388e-07
3.80675e-07
3.78922e-07
3.77097e-07
3.75221e-07
3.73287e-07
3.71421e-07
4.60401e-07
4.60188e-07
4.59758e-07
4.59113e-07
4.58271e-07
4.5726e-07
4.56111e-07
4.54857e-07
4.53522e-07
4.52122e-07
4.5067e-07
4.49175e-07
4.47644e-07
4.46084e-07
4.445e-07
4.42898e-07
4.4128e-07
4.39651e-07
4.38011e-07
4.36363e-07
4.34706e-07
4.33043e-07
4.31373e-07
4.29696e-07
4.28014e-07
4.26327e-07
4.24635e-07
4.22937e-07
4.21235e-07
4.19528e-07
4.17817e-07
4.16102e-07
4.14383e-07
4.1266e-07
4.10934e-07
4.09204e-07
4.07472e-07
4.05736e-07
4.03998e-07
4.02257e-07
4.00513e-07
3.98766e-07
3.97016e-07
3.95262e-07
3.93504e-07
3.91741e-07
3.89972e-07
3.88195e-07
3.86408e-07
3.84609e-07
3.82792e-07
3.80952e-07
3.79077e-07
3.77158e-07
3.75176e-07
3.73121e-07
3.70977e-07
3.68757e-07
3.66463e-07
3.64189e-07
4.67118e-07
4.66686e-07
4.659e-07
4.64811e-07
4.63489e-07
4.62002e-07
4.60411e-07
4.58753e-07
4.57049e-07
4.55311e-07
4.53544e-07
4.51755e-07
4.4995e-07
4.48134e-07
4.46312e-07
4.44489e-07
4.42664e-07
4.40839e-07
4.39013e-07
4.37186e-07
4.35357e-07
4.33526e-07
4.31691e-07
4.29853e-07
4.28011e-07
4.26164e-07
4.24312e-07
4.22453e-07
4.20589e-07
4.18718e-07
4.1684e-07
4.14955e-07
4.13063e-07
4.11164e-07
4.09257e-07
4.07343e-07
4.05423e-07
4.03494e-07
4.01559e-07
3.99615e-07
3.97666e-07
3.95707e-07
3.93743e-07
3.91767e-07
3.89786e-07
3.87791e-07
3.85791e-07
3.83771e-07
3.81746e-07
3.79694e-07
3.77638e-07
3.75546e-07
3.73452e-07
3.71312e-07
3.69175e-07
3.66978e-07
3.64792e-07
3.62527e-07
3.60289e-07
3.57972e-07
4.78864e-07
4.78114e-07
4.76702e-07
4.74751e-07
4.72469e-07
4.70051e-07
4.67624e-07
4.65238e-07
4.62896e-07
4.60585e-07
4.58297e-07
4.5603e-07
4.53791e-07
4.51584e-07
4.4941e-07
4.47269e-07
4.45156e-07
4.43066e-07
4.40994e-07
4.38936e-07
4.3689e-07
4.34852e-07
4.32821e-07
4.30792e-07
4.28765e-07
4.26737e-07
4.24706e-07
4.22671e-07
4.20631e-07
4.18584e-07
4.16529e-07
4.14466e-07
4.12394e-07
4.10313e-07
4.08223e-07
4.06121e-07
4.04012e-07
4.0189e-07
3.99762e-07
3.97619e-07
3.95472e-07
3.93309e-07
3.91144e-07
3.8896e-07
3.86779e-07
3.84573e-07
3.8238e-07
3.80153e-07
3.77953e-07
3.75708e-07
3.73515e-07
3.71257e-07
3.69092e-07
3.66832e-07
3.64731e-07
3.62484e-07
3.605e-07
3.58272e-07
3.56444e-07
3.54139e-07
4.87615e-07
4.85888e-07
4.83244e-07
4.8012e-07
4.76906e-07
4.73814e-07
4.70894e-07
4.68111e-07
4.65414e-07
4.62772e-07
4.60179e-07
4.57642e-07
4.55166e-07
4.52752e-07
4.50393e-07
4.48081e-07
4.45804e-07
4.43557e-07
4.41333e-07
4.39127e-07
4.36935e-07
4.34753e-07
4.32577e-07
4.30403e-07
4.2823e-07
4.26054e-07
4.23874e-07
4.21686e-07
4.1949e-07
4.17285e-07
4.15069e-07
4.12842e-07
4.10603e-07
4.08351e-07
4.06088e-07
4.03812e-07
4.01524e-07
3.99222e-07
3.96912e-07
3.94585e-07
3.92252e-07
3.89901e-07
3.87549e-07
3.85172e-07
3.82802e-07
3.80398e-07
3.78014e-07
3.75579e-07
3.7319e-07
3.70721e-07
3.68347e-07
3.65845e-07
3.6354e-07
3.61024e-07
3.58923e-07
3.56463e-07
3.54901e-07
3.52574e-07
3.5216e-07
3.49552e-07
5.35662e-07
5.2154e-07
5.07774e-07
4.97198e-07
4.89778e-07
4.8439e-07
4.79942e-07
4.75867e-07
4.71996e-07
4.68336e-07
4.64926e-07
4.61767e-07
4.58828e-07
4.56059e-07
4.53412e-07
4.50854e-07
4.48365e-07
4.4593e-07
4.43539e-07
4.41184e-07
4.38855e-07
4.36546e-07
4.3425e-07
4.3196e-07
4.29674e-07
4.27386e-07
4.25094e-07
4.22795e-07
4.20489e-07
4.18172e-07
4.15843e-07
4.13502e-07
4.11149e-07
4.08782e-07
4.06403e-07
4.0401e-07
4.01604e-07
3.99186e-07
3.96755e-07
3.94313e-07
3.9186e-07
3.89396e-07
3.86922e-07
3.84437e-07
3.81942e-07
3.79435e-07
3.76917e-07
3.74385e-07
3.71842e-07
3.69272e-07
3.66699e-07
3.6407e-07
3.61466e-07
3.58715e-07
3.5612e-07
3.53042e-07
3.5074e-07
3.46393e-07
3.46146e-07
3.35607e-07
3.3853e-07
3.37079e-07
3.32167e-07
3.26004e-07
3.19983e-07
3.15008e-07
3.11572e-07
3.09785e-07
3.0942e-07
3.09986e-07
3.10873e-07
3.11593e-07
3.11887e-07
3.11815e-07
3.11678e-07
3.47669e-07
3.43857e-07
3.37426e-07
3.31335e-07
3.26806e-07
3.24018e-07
3.22751e-07
3.2262e-07
3.23191e-07
3.23906e-07
3.24328e-07
3.24363e-07
3.2426e-07
3.24413e-07
3.25148e-07
3.26664e-07
3.2889e-07
3.31684e-07
3.34716e-07
3.37614e-07
3.40377e-07
3.43222e-07
3.45944e-07
3.47638e-07
3.46852e-07
3.42268e-07
3.29704e-07
3.00291e-07
2.65883e-07
8.62473e-08
3.48899e-07
3.45527e-07
3.41616e-07
3.38247e-07
3.35958e-07
3.34664e-07
3.33936e-07
3.33342e-07
3.32686e-07
3.32134e-07
3.32139e-07
3.33072e-07
3.34965e-07
3.37563e-07
3.40561e-07
3.43796e-07
3.4721e-07
3.50723e-07
3.54381e-07
3.58358e-07
3.63029e-07
3.68317e-07
3.73544e-07
3.77896e-07
3.80592e-07
3.80395e-07
3.73249e-07
3.55034e-07
3.21374e-07
1.79063e-07
3.52496e-07
3.50283e-07
3.48381e-07
3.46888e-07
3.45854e-07
3.45219e-07
3.44851e-07
3.44683e-07
3.44807e-07
3.4549e-07
3.46934e-07
3.4917e-07
3.52066e-07
3.55339e-07
3.58714e-07
3.62099e-07
3.65669e-07
3.69772e-07
3.7477e-07
3.8089e-07
3.87977e-07
3.95502e-07
4.02867e-07
4.09918e-07
4.16267e-07
4.20573e-07
4.19509e-07
4.09774e-07
3.80765e-07
2.71773e-07
3.58917e-07
3.57381e-07
3.56505e-07
3.56055e-07
3.55873e-07
3.55924e-07
3.5625e-07
3.5693e-07
3.58058e-07
3.59687e-07
3.61781e-07
3.64226e-07
3.66916e-07
3.69884e-07
3.73362e-07
3.77716e-07
3.83201e-07
3.89817e-07
3.97394e-07
4.0574e-07
4.14533e-07
4.23608e-07
4.3317e-07
4.43364e-07
4.53595e-07
4.62409e-07
4.67305e-07
4.64974e-07
4.43755e-07
3.63854e-07
3.66775e-07
3.6583e-07
3.65656e-07
3.65974e-07
3.6657e-07
3.67383e-07
3.68457e-07
3.69875e-07
3.71697e-07
3.7394e-07
3.76599e-07
3.79686e-07
3.83279e-07
3.87561e-07
3.92722e-07
3.98851e-07
4.05937e-07
4.1383e-07
4.22328e-07
4.31379e-07
4.41211e-07
4.5227e-07
4.6483e-07
4.78536e-07
4.92469e-07
5.05558e-07
5.16054e-07
5.20696e-07
5.08511e-07
4.5281e-07
3.75689e-07
3.75303e-07
3.75729e-07
3.76686e-07
3.77951e-07
3.79439e-07
3.8118e-07
3.83249e-07
3.85723e-07
3.88661e-07
3.92113e-07
3.96138e-07
4.00811e-07
4.062e-07
4.12351e-07
4.19256e-07
4.26882e-07
4.35284e-07
4.44697e-07
4.555e-07
4.68012e-07
4.82257e-07
4.9795e-07
5.14559e-07
5.31669e-07
5.48903e-07
5.64842e-07
5.76178e-07
5.73444e-07
5.37897e-07
3.85118e-07
3.85302e-07
3.8628e-07
3.87799e-07
3.89649e-07
3.91748e-07
3.94119e-07
3.9684e-07
3.99998e-07
4.03668e-07
4.07911e-07
4.12779e-07
4.18324e-07
4.24594e-07
4.31645e-07
4.39559e-07
4.48466e-07
4.5858e-07
4.70124e-07
4.8321e-07
4.97844e-07
5.1389e-07
5.31229e-07
5.49992e-07
5.7038e-07
5.91957e-07
6.13074e-07
6.30596e-07
6.3666e-07
6.17264e-07
3.9482e-07
3.95562e-07
3.9706e-07
3.99091e-07
4.01475e-07
4.04143e-07
4.07119e-07
4.10482e-07
4.14317e-07
4.18702e-07
4.23702e-07
4.29374e-07
4.35778e-07
4.42987e-07
4.51092e-07
4.60205e-07
4.70453e-07
4.81967e-07
4.94867e-07
5.09233e-07
5.25117e-07
5.42668e-07
5.62231e-07
5.84121e-07
6.08255e-07
6.33861e-07
6.59426e-07
6.82407e-07
6.96457e-07
6.90002e-07
4.0436e-07
4.05642e-07
4.07615e-07
4.10104e-07
4.12967e-07
4.16153e-07
4.19691e-07
4.23654e-07
4.28127e-07
4.33184e-07
4.38895e-07
4.45323e-07
4.5254e-07
4.60628e-07
4.69687e-07
4.79825e-07
4.91167e-07
5.03843e-07
5.18002e-07
5.33823e-07
5.51537e-07
5.71408e-07
5.93631e-07
6.18194e-07
6.44888e-07
6.73249e-07
7.02463e-07
7.30349e-07
7.51284e-07
7.54665e-07
4.13348e-07
4.15132e-07
4.17533e-07
4.20427e-07
4.23715e-07
4.27368e-07
4.31417e-07
4.35931e-07
4.40988e-07
4.46663e-07
4.53026e-07
4.60149e-07
4.68111e-07
4.77002e-07
4.86928e-07
4.98008e-07
5.10382e-07
5.24203e-07
5.39652e-07
5.56921e-07
5.76221e-07
5.97744e-07
6.21651e-07
6.48015e-07
6.76853e-07
7.08012e-07
7.40853e-07
7.73103e-07
7.99725e-07
8.10315e-07
4.21327e-07
4.23556e-07
4.26322e-07
4.29556e-07
4.33203e-07
4.37252e-07
4.41739e-07
4.46726e-07
4.52285e-07
4.5849e-07
4.65414e-07
4.73132e-07
4.81731e-07
4.91308e-07
5.01973e-07
5.13856e-07
5.27102e-07
5.41875e-07
5.58359e-07
5.76752e-07
5.97271e-07
6.20135e-07
6.45576e-07
6.73787e-07
7.04879e-07
7.3862e-07
7.7426e-07
8.09601e-07
8.40433e-07
8.55906e-07
4.27856e-07
4.30447e-07
4.33504e-07
4.37005e-07
4.40933e-07
4.45297e-07
4.50133e-07
4.55499e-07
4.61461e-07
4.6809e-07
4.75463e-07
4.83658e-07
4.92767e-07
5.02892e-07
5.14149e-07
5.26672e-07
5.40613e-07
5.56142e-07
5.73452e-07
5.92754e-07
6.14283e-07
6.38281e-07
6.64995e-07
6.94613e-07
7.27232e-07
7.62632e-07
8.00184e-07
8.37855e-07
8.71952e-07
8.90899e-07
4.32533e-07
4.35383e-07
4.38643e-07
4.42329e-07
4.46451e-07
4.51033e-07
4.56114e-07
4.61745e-07
4.67989e-07
4.74916e-07
4.82602e-07
4.9113e-07
5.00594e-07
5.111e-07
5.22769e-07
5.35736e-07
5.50157e-07
5.66208e-07
5.84088e-07
6.04013e-07
6.26227e-07
6.50977e-07
6.78518e-07
7.09047e-07
7.4269e-07
7.7927e-07
8.18217e-07
8.57527e-07
8.93749e-07
9.1487e-07
4.35054e-07
4.38041e-07
4.41407e-07
4.45188e-07
4.49412e-07
4.54108e-07
4.59316e-07
4.65086e-07
4.71477e-07
4.78559e-07
4.86408e-07
4.95109e-07
5.04759e-07
5.15463e-07
5.27345e-07
5.40542e-07
5.55213e-07
5.71535e-07
5.8971e-07
6.09958e-07
6.32525e-07
6.57664e-07
6.85635e-07
7.16645e-07
7.5083e-07
7.88014e-07
8.27643e-07
8.67738e-07
9.0499e-07
9.27188e-07
4.35253e-07
4.38245e-07
4.41615e-07
4.454e-07
4.49626e-07
4.54326e-07
4.59539e-07
4.65313e-07
4.71709e-07
4.78796e-07
4.86649e-07
4.95355e-07
5.05009e-07
5.15719e-07
5.27606e-07
5.40809e-07
5.55486e-07
5.71815e-07
5.89996e-07
6.10252e-07
6.32827e-07
6.57975e-07
6.85956e-07
7.16977e-07
7.51175e-07
7.88375e-07
8.28024e-07
8.68143e-07
9.05429e-07
9.27665e-07
4.33126e-07
4.35991e-07
4.39263e-07
4.42959e-07
4.47091e-07
4.51685e-07
4.56778e-07
4.62423e-07
4.68681e-07
4.75622e-07
4.83322e-07
4.91864e-07
5.01343e-07
5.11865e-07
5.2355e-07
5.36533e-07
5.50973e-07
5.67043e-07
5.84943e-07
6.0489e-07
6.27128e-07
6.51905e-07
6.79476e-07
7.10039e-07
7.43722e-07
7.80351e-07
8.19357e-07
8.58741e-07
8.95064e-07
9.163e-07
4.28832e-07
4.3145e-07
4.34526e-07
4.38044e-07
4.41989e-07
4.46372e-07
4.5123e-07
4.56618e-07
4.62603e-07
4.69256e-07
4.76651e-07
4.84871e-07
4.94005e-07
5.04155e-07
5.1544e-07
5.27991e-07
5.41962e-07
5.57523e-07
5.74867e-07
5.94205e-07
6.15774e-07
6.39816e-07
6.6658e-07
6.96255e-07
7.2894e-07
7.64421e-07
8.02075e-07
8.39873e-07
8.74142e-07
8.93282e-07
4.22671e-07
4.24936e-07
4.27729e-07
4.30987e-07
4.34658e-07
4.38735e-07
4.43252e-07
4.4827e-07
4.53862e-07
4.60099e-07
4.67055e-07
4.74808e-07
4.83442e-07
4.93054e-07
5.03758e-07
5.1568e-07
5.28968e-07
5.43786e-07
5.60317e-07
5.78762e-07
5.99338e-07
6.22264e-07
6.47776e-07
6.76067e-07
7.07252e-07
7.41104e-07
7.76883e-07
8.12406e-07
8.43488e-07
8.59243e-07
4.15037e-07
4.16868e-07
4.19303e-07
4.22228e-07
4.25549e-07
4.29237e-07
4.33325e-07
4.3788e-07
4.42978e-07
4.48694e-07
4.55099e-07
4.62266e-07
4.70273e-07
4.79211e-07
4.89186e-07
5.00317e-07
5.12745e-07
5.26624e-07
5.42133e-07
5.59468e-07
5.7884e-07
6.00443e-07
6.24441e-07
6.50912e-07
6.79874e-07
7.11178e-07
7.44197e-07
7.76678e-07
8.03624e-07
8.14613e-07
4.06369e-07
4.07707e-07
4.09722e-07
4.1225e-07
4.15153e-07
4.18382e-07
4.21968e-07
4.25981e-07
4.30504e-07
4.35612e-07
4.41375e-07
4.47856e-07
4.55128e-07
4.63274e-07
4.72392e-07
4.82594e-07
4.94002e-07
5.0675e-07
5.20985e-07
5.36887e-07
5.54689e-07
5.74657e-07
5.96988e-07
6.21677e-07
6.48523e-07
6.77068e-07
7.06507e-07
7.34678e-07
7.5601e-07
7.59927e-07
3.97119e-07
3.97926e-07
3.99475e-07
4.01553e-07
4.03985e-07
4.06705e-07
4.09738e-07
4.13159e-07
4.17054e-07
4.21499e-07
4.26561e-07
4.32295e-07
4.38765e-07
4.46042e-07
4.54218e-07
4.63404e-07
4.7373e-07
4.85327e-07
4.98316e-07
5.12779e-07
5.2877e-07
5.4644e-07
5.66135e-07
5.88173e-07
6.12482e-07
6.38303e-07
6.64138e-07
6.87464e-07
7.01994e-07
6.96225e-07
3.87676e-07
3.87934e-07
3.88972e-07