/*--------------------------------*- C++ -*----------------------------------*\
| =========                 |                                                 |
| \\      /  F ield         | OpenFOAM: The Open Source CFD Toolbox           |
|  \\    /   O peration     | Version:  2312                                  |
|   \\  /    A nd           | Website:  www.openfoam.com                      |
|    \\/     M anipulation  |                                                 |
\*---------------------------------------------------------------------------*/
FoamFile
{
    version     2.0;
    format      ascii;
    arch        "LSB;label=32;scalar=64";
    class       volScalarField;
    location    "195000";
    object      p;
}
// * * * * * * * * * * * * * * * * * * * * * * * * * * * * * * * * * * * * * //

dimensions      [0 2 -2 0 0 0 0];

internalField   nonuniform List<scalar> 
2715
(
6.73886e-07
6.5975e-07
6.45956e-07
6.35338e-07
6.27861e-07
6.22403e-07
6.17873e-07
6.13702e-07
6.09722e-07
6.05941e-07
6.02396e-07
5.99091e-07
5.95993e-07
5.93052e-07
5.90221e-07
5.87467e-07
5.84767e-07
5.82109e-07
5.79482e-07
5.76876e-07
5.74281e-07
5.71691e-07
5.69096e-07
5.66492e-07
5.63873e-07
5.61233e-07
5.5857e-07
5.5588e-07
5.53159e-07
5.50406e-07
5.47617e-07
5.44792e-07
5.41928e-07
5.39025e-07
5.36082e-07
5.33099e-07
5.30075e-07
5.27009e-07
5.23904e-07
5.20757e-07
5.17571e-07
5.14345e-07
5.11079e-07
5.07774e-07
5.04429e-07
5.01044e-07
4.9762e-07
4.94152e-07
4.90644e-07
4.87081e-07
4.83485e-07
4.79803e-07
4.76118e-07
4.72254e-07
4.68522e-07
4.64266e-07
4.60779e-07
4.55182e-07
4.53698e-07
4.41853e-07
6.25927e-07
6.24189e-07
6.21521e-07
6.1836e-07
6.15095e-07
6.11939e-07
6.08941e-07
6.06067e-07
6.03266e-07
6.00508e-07
5.97786e-07
5.95106e-07
5.92475e-07
5.89893e-07
5.87353e-07
5.84845e-07
5.82361e-07
5.79892e-07
5.77432e-07
5.74975e-07
5.72517e-07
5.70053e-07
5.67579e-07
5.6509e-07
5.62584e-07
5.60055e-07
5.57502e-07
5.54922e-07
5.52312e-07
5.4967e-07
5.46994e-07
5.44283e-07
5.41535e-07
5.38749e-07
5.35925e-07
5.3306e-07
5.30157e-07
5.27212e-07
5.24231e-07
5.21204e-07
5.18144e-07
5.15035e-07
5.11897e-07
5.08706e-07
5.05493e-07
5.02216e-07
4.98931e-07
4.95564e-07
4.92215e-07
4.88754e-07
4.85361e-07
4.81804e-07
4.78418e-07
4.74782e-07
4.71537e-07
4.67883e-07
4.6511e-07
4.61521e-07
4.59837e-07
4.559e-07
6.17408e-07
6.16645e-07
6.15207e-07
6.1322e-07
6.10888e-07
6.08408e-07
6.05906e-07
6.03432e-07
6.0099e-07
5.98567e-07
5.96153e-07
5.93748e-07
5.91357e-07
5.88985e-07
5.86634e-07
5.84301e-07
5.81982e-07
5.79673e-07
5.77366e-07
5.7506e-07
5.72749e-07
5.70431e-07
5.68103e-07
5.6576e-07
5.63402e-07
5.61023e-07
5.58623e-07
5.56199e-07
5.53749e-07
5.5127e-07
5.48763e-07
5.46223e-07
5.43652e-07
5.41047e-07
5.38408e-07
5.35732e-07
5.33023e-07
5.30274e-07
5.27491e-07
5.24667e-07
5.2181e-07
5.18907e-07
5.15975e-07
5.12993e-07
5.09985e-07
5.06921e-07
5.0384e-07
5.00693e-07
4.97543e-07
4.94313e-07
4.91106e-07
4.87797e-07
4.8455e-07
4.81169e-07
4.77916e-07
4.74474e-07
4.71263e-07
4.67765e-07
4.64638e-07
4.61004e-07
6.0591e-07
6.05467e-07
6.0466e-07
6.03538e-07
6.0217e-07
6.00627e-07
5.98966e-07
5.97226e-07
5.95429e-07
5.93584e-07
5.91699e-07
5.89778e-07
5.87827e-07
5.85853e-07
5.83861e-07
5.81852e-07
5.79829e-07
5.77791e-07
5.75737e-07
5.73667e-07
5.7158e-07
5.69475e-07
5.6735e-07
5.65205e-07
5.63038e-07
5.60848e-07
5.58635e-07
5.56396e-07
5.54131e-07
5.51839e-07
5.49519e-07
5.4717e-07
5.44791e-07
5.42381e-07
5.3994e-07
5.37466e-07
5.34961e-07
5.32422e-07
5.2985e-07
5.27242e-07
5.24601e-07
5.21921e-07
5.19207e-07
5.16452e-07
5.13662e-07
5.10825e-07
5.07952e-07
5.05025e-07
5.0206e-07
4.99032e-07
4.95964e-07
4.92823e-07
4.89644e-07
4.86379e-07
4.83083e-07
4.7969e-07
4.76278e-07
4.72759e-07
4.69223e-07
4.65577e-07
5.99587e-07
5.99364e-07
5.98914e-07
5.98238e-07
5.97352e-07
5.96286e-07
5.95071e-07
5.93738e-07
5.92312e-07
5.9081e-07
5.89244e-07
5.87622e-07
5.85952e-07
5.84239e-07
5.82491e-07
5.8071e-07
5.78901e-07
5.77066e-07
5.75207e-07
5.73324e-07
5.71419e-07
5.6949e-07
5.6754e-07
5.65567e-07
5.63571e-07
5.61553e-07
5.59511e-07
5.57446e-07
5.55357e-07
5.53244e-07
5.51106e-07
5.48943e-07
5.46754e-07
5.4454e-07
5.42298e-07
5.4003e-07
5.37735e-07
5.35412e-07
5.3306e-07
5.30679e-07
5.28268e-07
5.25826e-07
5.23352e-07
5.20845e-07
5.18304e-07
5.15726e-07
5.13111e-07
5.10456e-07
5.07759e-07
5.05013e-07
5.02213e-07
4.99348e-07
4.96403e-07
4.93364e-07
4.90215e-07
4.86958e-07
4.83575e-07
4.80062e-07
4.76451e-07
4.72841e-07
5.94483e-07
5.94309e-07
5.93963e-07
5.93448e-07
5.92775e-07
5.91959e-07
5.91018e-07
5.8997e-07
5.88829e-07
5.8761e-07
5.8632e-07
5.84969e-07
5.83561e-07
5.82103e-07
5.806e-07
5.79056e-07
5.77475e-07
5.7586e-07
5.74214e-07
5.72537e-07
5.70833e-07
5.69101e-07
5.67344e-07
5.65561e-07
5.63754e-07
5.61923e-07
5.60069e-07
5.58191e-07
5.56291e-07
5.54367e-07
5.52421e-07
5.50452e-07
5.4846e-07
5.46445e-07
5.44408e-07
5.42348e-07
5.40264e-07
5.38156e-07
5.36025e-07
5.33868e-07
5.31686e-07
5.29476e-07
5.27239e-07
5.24971e-07
5.22669e-07
5.20333e-07
5.17956e-07
5.15536e-07
5.13068e-07
5.10554e-07
5.07989e-07
5.0538e-07
5.02699e-07
4.99949e-07
4.97107e-07
4.94168e-07
4.91104e-07
4.87946e-07
4.84697e-07
4.81494e-07
5.90636e-07
5.90508e-07
5.90253e-07
5.8987e-07
5.89363e-07
5.88739e-07
5.88008e-07
5.87178e-07
5.8626e-07
5.85262e-07
5.84193e-07
5.8306e-07
5.81867e-07
5.80619e-07
5.79322e-07
5.77979e-07
5.76593e-07
5.7517e-07
5.7371e-07
5.72217e-07
5.70693e-07
5.69139e-07
5.67558e-07
5.65951e-07
5.64319e-07
5.62662e-07
5.60983e-07
5.59282e-07
5.5756e-07
5.55817e-07
5.54055e-07
5.52273e-07
5.50472e-07
5.48652e-07
5.46814e-07
5.44958e-07
5.43085e-07
5.41193e-07
5.39283e-07
5.37355e-07
5.35408e-07
5.33441e-07
5.31455e-07
5.29448e-07
5.27418e-07
5.25366e-07
5.23288e-07
5.21181e-07
5.19035e-07
5.16843e-07
5.14599e-07
5.12296e-07
5.09937e-07
5.07521e-07
5.05028e-07
5.02461e-07
4.99797e-07
4.97066e-07
4.94271e-07
4.91545e-07
5.87748e-07
5.87647e-07
5.87445e-07
5.87141e-07
5.86736e-07
5.86234e-07
5.8564e-07
5.8496e-07
5.84199e-07
5.83365e-07
5.82461e-07
5.81494e-07
5.80469e-07
5.79389e-07
5.7826e-07
5.77085e-07
5.75867e-07
5.7461e-07
5.73316e-07
5.71988e-07
5.70629e-07
5.6924e-07
5.67824e-07
5.66382e-07
5.64916e-07
5.63427e-07
5.61917e-07
5.60387e-07
5.58839e-07
5.57273e-07
5.5569e-07
5.54091e-07
5.52478e-07
5.5085e-07
5.49209e-07
5.47556e-07
5.4589e-07
5.44213e-07
5.42525e-07
5.40825e-07
5.39114e-07
5.37392e-07
5.35657e-07
5.3391e-07
5.32147e-07
5.3037e-07
5.28575e-07
5.26774e-07
5.24947e-07
5.23099e-07
5.21215e-07
5.19296e-07
5.17333e-07
5.1533e-07
5.13271e-07
5.11163e-07
5.08992e-07
5.06785e-07
5.04554e-07
5.02423e-07
5.85608e-07
5.85525e-07
5.85359e-07
5.85108e-07
5.84772e-07
5.84355e-07
5.83859e-07
5.83288e-07
5.82645e-07
5.81936e-07
5.81163e-07
5.80332e-07
5.79446e-07
5.78508e-07
5.77523e-07
5.76493e-07
5.75422e-07
5.74312e-07
5.73167e-07
5.71988e-07
5.70779e-07
5.69541e-07
5.68277e-07
5.66988e-07
5.65677e-07
5.64345e-07
5.62995e-07
5.61627e-07
5.60243e-07
5.58846e-07
5.57435e-07
5.56013e-07
5.5458e-07
5.53139e-07
5.5169e-07
5.50234e-07
5.48772e-07
5.47306e-07
5.45837e-07
5.44365e-07
5.42891e-07
5.41417e-07
5.39943e-07
5.38469e-07
5.36997e-07
5.35523e-07
5.34044e-07
5.3255e-07
5.31054e-07
5.29555e-07
5.28048e-07
5.26532e-07
5.24999e-07
5.23453e-07
5.21883e-07
5.20295e-07
5.18681e-07
5.17065e-07
5.15462e-07
5.1398e-07
5.84085e-07
5.84015e-07
5.83874e-07
5.83661e-07
5.83377e-07
5.83022e-07
5.82599e-07
5.8211e-07
5.81558e-07
5.80946e-07
5.80278e-07
5.79556e-07
5.78783e-07
5.77962e-07
5.77097e-07
5.76189e-07
5.75243e-07
5.7426e-07
5.73243e-07
5.72195e-07
5.71117e-07
5.70013e-07
5.68885e-07
5.67735e-07
5.66564e-07
5.65376e-07
5.64171e-07
5.62953e-07
5.61723e-07
5.60482e-07
5.59232e-07
5.57975e-07
5.56713e-07
5.55447e-07
5.5418e-07
5.52912e-07
5.51646e-07
5.50383e-07
5.49124e-07
5.47871e-07
5.46623e-07
5.45383e-07
5.44172e-07
5.42966e-07
5.41766e-07
5.40578e-07
5.39403e-07
5.38241e-07
5.37096e-07
5.35966e-07
5.34853e-07
5.33756e-07
5.32673e-07
5.31606e-07
5.30551e-07
5.29514e-07
5.28492e-07
5.27506e-07
5.26575e-07
5.25791e-07
5.83085e-07
5.83024e-07
5.82902e-07
5.82718e-07
5.82472e-07
5.82164e-07
5.81796e-07
5.8137e-07
5.80888e-07
5.80353e-07
5.79766e-07
5.79131e-07
5.7845e-07
5.77725e-07
5.76958e-07
5.76153e-07
5.75311e-07
5.74436e-07
5.73529e-07
5.72593e-07
5.71631e-07
5.70644e-07
5.69635e-07
5.68607e-07
5.67561e-07
5.665e-07
5.65427e-07
5.64346e-07
5.63256e-07
5.6216e-07
5.61059e-07
5.59955e-07
5.58851e-07
5.57749e-07
5.56651e-07
5.55559e-07
5.54476e-07
5.53405e-07
5.52354e-07
5.51318e-07
5.503e-07
5.49302e-07
5.48307e-07
5.47342e-07
5.46405e-07
5.45498e-07
5.44624e-07
5.43784e-07
5.42981e-07
5.42217e-07
5.41494e-07
5.40814e-07
5.40179e-07
5.39592e-07
5.39055e-07
5.38574e-07
5.38151e-07
5.37806e-07
5.3756e-07
5.37486e-07
5.82536e-07
5.82483e-07
5.82375e-07
5.82212e-07
5.81994e-07
5.81722e-07
5.81396e-07
5.81019e-07
5.80591e-07
5.80116e-07
5.79594e-07
5.79028e-07
5.7842e-07
5.77772e-07
5.77086e-07
5.76364e-07
5.7561e-07
5.74824e-07
5.7401e-07
5.7317e-07
5.72305e-07
5.71419e-07
5.70513e-07
5.6959e-07
5.68651e-07
5.67698e-07
5.66733e-07
5.65782e-07
5.64821e-07
5.63855e-07
5.62888e-07
5.61922e-07
5.60961e-07
5.60008e-07
5.59065e-07
5.58136e-07
5.57223e-07
5.56327e-07
5.55448e-07
5.54594e-07
5.53768e-07
5.52973e-07
5.5221e-07
5.51484e-07
5.508e-07
5.5016e-07
5.4957e-07
5.49032e-07
5.48551e-07
5.4813e-07
5.47776e-07
5.47491e-07
5.47281e-07
5.47152e-07
5.47109e-07
5.4716e-07
5.47314e-07
5.47587e-07
5.48001e-07
5.48614e-07
5.8239e-07
5.82342e-07
5.82244e-07
5.82097e-07
5.81901e-07
5.81655e-07
5.81361e-07
5.8102e-07
5.80635e-07
5.80205e-07
5.79733e-07
5.79221e-07
5.7867e-07
5.78083e-07
5.77462e-07
5.76808e-07
5.76124e-07
5.75412e-07
5.74674e-07
5.73913e-07
5.73132e-07
5.72332e-07
5.71517e-07
5.70689e-07
5.6985e-07
5.69005e-07
5.68156e-07
5.67282e-07
5.66412e-07
5.65547e-07
5.64688e-07
5.63837e-07
5.62997e-07
5.6217e-07
5.61359e-07
5.60567e-07
5.59797e-07
5.59052e-07
5.58336e-07
5.57651e-07
5.57003e-07
5.56396e-07
5.55833e-07
5.55319e-07
5.54859e-07
5.54458e-07
5.5412e-07
5.53851e-07
5.53657e-07
5.53544e-07
5.53519e-07
5.53589e-07
5.53761e-07
5.54043e-07
5.54445e-07
5.54976e-07
5.55649e-07
5.5648e-07
5.57492e-07
5.58725e-07
5.82599e-07
5.82554e-07
5.82465e-07
5.82329e-07
5.82148e-07
5.81921e-07
5.8165e-07
5.81336e-07
5.80981e-07
5.80584e-07
5.80149e-07
5.79677e-07
5.79169e-07
5.78628e-07
5.78055e-07
5.77452e-07
5.76822e-07
5.76166e-07
5.75487e-07
5.74788e-07
5.7407e-07
5.73336e-07
5.72589e-07
5.71831e-07
5.71064e-07
5.70291e-07
5.69514e-07
5.68734e-07
5.67956e-07
5.67184e-07
5.66419e-07
5.65666e-07
5.64927e-07
5.64206e-07
5.63506e-07
5.6283e-07
5.62182e-07
5.61565e-07
5.60984e-07
5.60442e-07
5.59945e-07
5.59496e-07
5.59101e-07
5.58764e-07
5.58491e-07
5.58289e-07
5.58163e-07
5.58119e-07
5.58166e-07
5.5831e-07
5.5856e-07
5.58925e-07
5.59415e-07
5.60039e-07
5.6081e-07
5.6174e-07
5.62844e-07
5.64137e-07
5.65642e-07
5.67387e-07
5.83137e-07
5.83094e-07
5.8301e-07
5.82882e-07
5.82711e-07
5.82498e-07
5.82242e-07
5.81946e-07
5.81611e-07
5.81237e-07
5.80827e-07
5.80382e-07
5.79903e-07
5.79393e-07
5.78854e-07
5.78286e-07
5.77694e-07
5.77078e-07
5.76441e-07
5.75786e-07
5.75114e-07
5.74429e-07
5.73732e-07
5.73026e-07
5.72314e-07
5.71598e-07
5.70882e-07
5.70167e-07
5.69456e-07
5.68754e-07
5.68063e-07
5.67386e-07
5.66727e-07
5.66089e-07
5.65476e-07
5.64891e-07
5.64339e-07
5.63822e-07
5.63347e-07
5.62917e-07
5.62536e-07
5.6221e-07
5.61945e-07
5.61746e-07
5.61618e-07
5.61569e-07
5.61606e-07
5.61735e-07
5.61965e-07
5.62305e-07
5.62763e-07
5.6335e-07
5.64078e-07
5.64957e-07
5.66002e-07
5.67225e-07
5.68644e-07
5.70273e-07
5.72136e-07
5.7425e-07
5.83985e-07
5.83945e-07
5.83863e-07
5.83739e-07
5.83574e-07
5.83367e-07
5.8312e-07
5.82833e-07
5.82507e-07
5.82146e-07
5.81749e-07
5.81318e-07
5.80855e-07
5.80363e-07
5.79842e-07
5.79295e-07
5.78725e-07
5.78133e-07
5.77521e-07
5.76893e-07
5.7625e-07
5.75595e-07
5.7493e-07
5.74259e-07
5.73583e-07
5.72906e-07
5.7223e-07
5.71558e-07
5.70893e-07
5.70239e-07
5.69598e-07
5.68974e-07
5.68371e-07
5.67791e-07
5.67239e-07
5.66718e-07
5.66233e-07
5.65787e-07
5.65386e-07
5.65033e-07
5.64734e-07
5.64493e-07
5.64317e-07
5.64212e-07
5.64183e-07
5.64237e-07
5.64382e-07
5.64626e-07
5.64976e-07
5.65442e-07
5.66034e-07
5.66761e-07
5.67637e-07
5.68672e-07
5.69881e-07
5.71277e-07
5.72878e-07
5.74699e-07
5.7676e-07
5.79076e-07
5.85138e-07
5.85098e-07
5.85016e-07
5.84892e-07
5.84727e-07
5.8452e-07
5.84272e-07
5.83986e-07
5.83661e-07
5.833e-07
5.82904e-07
5.82475e-07
5.82015e-07
5.81526e-07
5.81009e-07
5.80468e-07
5.79903e-07
5.79318e-07
5.78715e-07
5.78096e-07
5.77464e-07
5.76821e-07
5.7617e-07
5.75514e-07
5.74855e-07
5.74196e-07
5.73541e-07
5.72891e-07
5.7225e-07
5.71621e-07
5.71008e-07
5.70413e-07
5.6984e-07
5.69292e-07
5.68774e-07
5.68289e-07
5.67842e-07
5.67435e-07
5.67075e-07
5.66765e-07
5.6651e-07
5.66315e-07
5.66187e-07
5.6613e-07
5.66152e-07
5.66258e-07
5.66456e-07
5.66753e-07
5.67158e-07
5.67679e-07
5.68326e-07
5.69108e-07
5.70039e-07
5.71127e-07
5.72388e-07
5.73834e-07
5.7548e-07
5.77341e-07
5.79437e-07
5.81781e-07
5.86596e-07
5.86554e-07
5.86469e-07
5.86341e-07
5.8617e-07
5.85956e-07
5.857e-07
5.85404e-07
5.85069e-07
5.84697e-07
5.8429e-07
5.8385e-07
5.83378e-07
5.82877e-07
5.82349e-07
5.81796e-07
5.81221e-07
5.80626e-07
5.80014e-07
5.79387e-07
5.78747e-07
5.78098e-07
5.77442e-07
5.76782e-07
5.7612e-07
5.75459e-07
5.74803e-07
5.74153e-07
5.73514e-07
5.72888e-07
5.72278e-07
5.71688e-07
5.71121e-07
5.7058e-07
5.70069e-07
5.69592e-07
5.69152e-07
5.68754e-07
5.68402e-07
5.681e-07
5.67853e-07
5.67666e-07
5.67544e-07
5.67492e-07
5.67516e-07
5.67623e-07
5.67819e-07
5.6811e-07
5.68505e-07
5.69011e-07
5.69637e-07
5.70393e-07
5.71288e-07
5.72335e-07
5.73547e-07
5.74913e-07
5.7647e-07
5.78232e-07
5.80211e-07
5.8242e-07
5.88367e-07
5.88322e-07
5.88231e-07
5.88094e-07
5.87911e-07
5.87682e-07
5.87409e-07
5.87093e-07
5.86737e-07
5.86341e-07
5.85909e-07
5.85442e-07
5.84944e-07
5.84415e-07
5.83859e-07
5.83278e-07
5.82675e-07
5.82052e-07
5.81413e-07
5.80759e-07
5.80093e-07
5.79418e-07
5.78737e-07
5.78053e-07
5.77368e-07
5.76685e-07
5.76007e-07
5.75337e-07
5.74678e-07
5.74032e-07
5.73403e-07
5.72794e-07
5.72207e-07
5.71648e-07
5.71118e-07
5.70621e-07
5.70161e-07
5.69741e-07
5.69366e-07
5.6904e-07
5.68766e-07
5.68549e-07
5.68394e-07
5.68306e-07
5.68289e-07
5.68349e-07
5.68491e-07
5.68722e-07
5.69047e-07
5.69474e-07
5.70008e-07
5.70657e-07
5.71427e-07
5.7233e-07
5.73369e-07
5.74581e-07
5.75951e-07
5.77496e-07
5.79229e-07
5.81174e-07
5.90476e-07
5.90426e-07
5.90325e-07
5.90173e-07
5.8997e-07
5.89717e-07
5.89415e-07
5.89067e-07
5.88675e-07
5.88241e-07
5.87768e-07
5.87259e-07
5.86716e-07
5.86142e-07
5.8554e-07
5.84912e-07
5.84262e-07
5.83593e-07
5.82907e-07
5.82207e-07
5.81496e-07
5.80776e-07
5.80051e-07
5.79323e-07
5.78595e-07
5.77869e-07
5.77149e-07
5.76437e-07
5.75736e-07
5.75049e-07
5.74379e-07
5.73728e-07
5.73099e-07
5.72496e-07
5.71922e-07
5.7138e-07
5.70873e-07
5.70404e-07
5.69977e-07
5.69596e-07
5.69263e-07
5.68984e-07
5.68761e-07
5.68599e-07
5.68502e-07
5.68474e-07
5.6852e-07
5.68645e-07
5.68853e-07
5.6915e-07
5.6954e-07
5.7003e-07
5.70625e-07
5.71324e-07
5.72142e-07
5.7309e-07
5.74168e-07
5.75394e-07
5.76776e-07
5.78349e-07
5.92958e-07
5.929e-07
5.92785e-07
5.92611e-07
5.92378e-07
5.92089e-07
5.91745e-07
5.91349e-07
5.90904e-07
5.90414e-07
5.89881e-07
5.89309e-07
5.88702e-07
5.88063e-07
5.87394e-07
5.867e-07
5.85983e-07
5.85247e-07
5.84494e-07
5.83728e-07
5.82952e-07
5.82167e-07
5.81378e-07
5.80586e-07
5.79795e-07
5.79007e-07
5.78225e-07
5.77451e-07
5.76688e-07
5.75939e-07
5.75206e-07
5.74492e-07
5.738e-07
5.73132e-07
5.72491e-07
5.7188e-07
5.71302e-07
5.70759e-07
5.70254e-07
5.69792e-07
5.69373e-07
5.69003e-07
5.68682e-07
5.68416e-07
5.68206e-07
5.68057e-07
5.67971e-07
5.67952e-07
5.68003e-07
5.68127e-07
5.68328e-07
5.68611e-07
5.68978e-07
5.69424e-07
5.6996e-07
5.70596e-07
5.7133e-07
5.72179e-07
5.73148e-07
5.74286e-07
5.95868e-07
5.958e-07
5.95663e-07
5.95456e-07
5.95181e-07
5.9484e-07
5.94435e-07
5.93971e-07
5.93452e-07
5.92883e-07
5.92267e-07
5.91609e-07
5.90914e-07
5.90186e-07
5.89427e-07
5.88643e-07
5.87837e-07
5.87012e-07
5.86171e-07
5.85318e-07
5.84455e-07
5.83585e-07
5.82712e-07
5.81837e-07
5.80963e-07
5.80093e-07
5.79229e-07
5.78374e-07
5.7753e-07
5.767e-07
5.75885e-07
5.75089e-07
5.74313e-07
5.73559e-07
5.72832e-07
5.72131e-07
5.71461e-07
5.70824e-07
5.70221e-07
5.69655e-07
5.69128e-07
5.68644e-07
5.68203e-07
5.67809e-07
5.67463e-07
5.67168e-07
5.66926e-07
5.66738e-07
5.66607e-07
5.66534e-07
5.66519e-07
5.66565e-07
5.66665e-07
5.66844e-07
5.67073e-07
5.67373e-07
5.67733e-07
5.68175e-07
5.687e-07
5.69369e-07
5.99287e-07
5.99202e-07
5.99034e-07
5.9878e-07
5.98442e-07
5.98024e-07
5.97533e-07
5.96973e-07
5.96351e-07
5.95673e-07
5.94946e-07
5.94175e-07
5.93364e-07
5.9252e-07
5.91646e-07
5.90747e-07
5.89827e-07
5.88889e-07
5.87937e-07
5.86975e-07
5.86004e-07
5.85029e-07
5.8405e-07
5.83072e-07
5.82097e-07
5.81126e-07
5.80161e-07
5.79207e-07
5.78263e-07
5.77333e-07
5.76418e-07
5.7552e-07
5.74642e-07
5.73786e-07
5.72952e-07
5.72145e-07
5.71364e-07
5.70613e-07
5.69892e-07
5.69205e-07
5.68552e-07
5.67936e-07
5.67357e-07
5.66817e-07
5.66318e-07
5.65861e-07
5.65445e-07
5.65072e-07
5.6474e-07
5.64453e-07
5.64205e-07
5.64001e-07
5.63836e-07
5.6372e-07
5.63641e-07
5.63601e-07
5.63581e-07
5.63613e-07
5.63698e-07
5.63911e-07
6.03334e-07
6.03224e-07
6.03004e-07
6.02676e-07
6.02242e-07
6.0171e-07
6.0109e-07
6.00392e-07
5.99626e-07
5.98801e-07
5.97925e-07
5.97005e-07
5.96048e-07
5.95058e-07
5.94041e-07
5.93002e-07
5.91943e-07
5.9087e-07
5.89786e-07
5.88694e-07
5.87596e-07
5.86496e-07
5.85396e-07
5.84298e-07
5.83204e-07
5.82115e-07
5.81035e-07
5.79965e-07
5.78906e-07
5.77861e-07
5.76831e-07
5.75817e-07
5.74822e-07
5.73847e-07
5.72894e-07
5.71964e-07
5.71058e-07
5.70179e-07
5.69328e-07
5.68505e-07
5.67713e-07
5.66952e-07
5.66223e-07
5.65528e-07
5.64866e-07
5.6424e-07
5.63646e-07
5.63089e-07
5.62563e-07
5.62074e-07
5.61613e-07
5.61185e-07
5.60778e-07
5.60392e-07
5.6001e-07
5.59637e-07
5.59261e-07
5.58909e-07
5.58575e-07
5.58338e-07
6.0821e-07
6.08058e-07
6.07755e-07
6.07302e-07
6.0671e-07
6.05996e-07
6.05176e-07
6.04271e-07
6.03295e-07
6.02262e-07
6.01181e-07
6.00061e-07
5.98908e-07
5.97729e-07
5.96528e-07
5.95311e-07
5.94082e-07
5.92844e-07
5.91602e-07
5.90357e-07
5.89112e-07
5.87868e-07
5.86628e-07
5.85393e-07
5.84165e-07
5.82945e-07
5.81735e-07
5.80536e-07
5.7935e-07
5.78177e-07
5.77019e-07
5.75877e-07
5.74753e-07
5.73648e-07
5.72562e-07
5.71498e-07
5.70456e-07
5.69438e-07
5.68444e-07
5.67476e-07
5.66534e-07
5.6562e-07
5.64733e-07
5.63874e-07
5.63043e-07
5.62241e-07
5.61465e-07
5.60717e-07
5.59992e-07
5.5929e-07
5.58605e-07
5.57938e-07
5.57278e-07
5.56633e-07
5.55983e-07
5.55346e-07
5.54696e-07
5.54055e-07
5.53392e-07
5.52798e-07
6.14176e-07
6.13971e-07
6.1356e-07
6.12946e-07
6.12145e-07
6.11186e-07
6.10102e-07
6.08924e-07
6.07675e-07
6.06373e-07
6.05031e-07
6.03657e-07
6.02259e-07
6.00845e-07
5.99419e-07
5.97987e-07
5.96554e-07
5.95121e-07
5.93692e-07
5.92268e-07
5.9085e-07
5.8944e-07
5.88038e-07
5.86646e-07
5.85265e-07
5.83895e-07
5.82537e-07
5.81191e-07
5.7986e-07
5.78543e-07
5.77241e-07
5.75956e-07
5.74687e-07
5.73437e-07
5.72205e-07
5.70993e-07
5.69803e-07
5.68633e-07
5.67486e-07
5.66363e-07
5.65264e-07
5.64189e-07
5.6314e-07
5.62117e-07
5.61119e-07
5.60148e-07
5.59203e-07
5.58283e-07
5.57389e-07
5.56517e-07
5.55667e-07
5.54835e-07
5.54014e-07
5.532e-07
5.52378e-07
5.51541e-07
5.50668e-07
5.49755e-07
5.48792e-07
5.47848e-07
6.21278e-07
6.20857e-07
6.20092e-07
6.19035e-07
6.17756e-07
6.16325e-07
6.14801e-07
6.13222e-07
6.1161e-07
6.09975e-07
6.08324e-07
6.06663e-07
6.04998e-07
6.03336e-07
6.01681e-07
6.00037e-07
5.98406e-07
5.96788e-07
5.95184e-07
5.93593e-07
5.92015e-07
5.9045e-07
5.88898e-07
5.87359e-07
5.85833e-07
5.8432e-07
5.8282e-07
5.81333e-07
5.7986e-07
5.784e-07
5.76955e-07
5.75524e-07
5.74109e-07
5.72709e-07
5.71327e-07
5.69962e-07
5.68616e-07
5.67287e-07
5.6598e-07
5.64692e-07
5.63427e-07
5.62181e-07
5.60961e-07
5.59761e-07
5.58588e-07
5.57434e-07
5.5631e-07
5.55204e-07
5.54131e-07
5.53072e-07
5.52049e-07
5.51035e-07
5.50062e-07
5.49087e-07
5.4816e-07
5.47215e-07
5.46322e-07
5.45385e-07
5.44506e-07
5.4356e-07
6.33272e-07
6.32534e-07
6.31146e-07
6.29232e-07
6.26999e-07
6.24642e-07
6.22288e-07
6.19988e-07
6.17745e-07
6.15545e-07
6.1338e-07
6.11249e-07
6.09159e-07
6.07113e-07
6.05115e-07
6.03163e-07
6.01252e-07
5.99377e-07
5.97536e-07
5.95724e-07
5.93939e-07
5.92178e-07
5.90439e-07
5.88721e-07
5.87022e-07
5.85341e-07
5.83676e-07
5.82026e-07
5.80392e-07
5.78773e-07
5.77168e-07
5.75578e-07
5.74004e-07
5.72444e-07
5.70901e-07
5.69372e-07
5.67863e-07
5.66369e-07
5.64896e-07
5.63438e-07
5.62005e-07
5.60586e-07
5.59197e-07
5.57819e-07
5.56478e-07
5.55145e-07
5.53858e-07
5.52574e-07
5.51352e-07
5.50123e-07
5.48984e-07
5.47824e-07
5.46799e-07
5.45729e-07
5.44868e-07
5.43919e-07
5.43288e-07
5.4247e-07
5.42104e-07
5.41273e-07
6.42251e-07
6.40535e-07
6.37915e-07
6.34827e-07
6.31664e-07
6.28636e-07
6.25793e-07
6.231e-07
6.20505e-07
6.17979e-07
6.15515e-07
6.13119e-07
6.10798e-07
6.08551e-07
6.06373e-07
6.04254e-07
6.02185e-07
6.00159e-07
5.9817e-07
5.96215e-07
5.94289e-07
5.92388e-07
5.90511e-07
5.88654e-07
5.86816e-07
5.84993e-07
5.83187e-07
5.81394e-07
5.79615e-07
5.7785e-07
5.76098e-07
5.74359e-07
5.72634e-07
5.70923e-07
5.69228e-07
5.67546e-07
5.65883e-07
5.64234e-07
5.62606e-07
5.60992e-07
5.59403e-07
5.57826e-07
5.56279e-07
5.5474e-07
5.53239e-07
5.51738e-07
5.5029e-07
5.48826e-07
5.47441e-07
5.46016e-07
5.44718e-07
5.43336e-07
5.42184e-07
5.40874e-07
5.40014e-07
5.38866e-07
5.38651e-07
5.37746e-07
5.38804e-07
5.37738e-07
6.90386e-07
6.76278e-07
6.6254e-07
6.52006e-07
6.44642e-07
6.39323e-07
6.34958e-07
6.30978e-07
6.27216e-07
6.23678e-07
6.20401e-07
6.1739e-07
6.1461e-07
6.12011e-07
6.09549e-07
6.07188e-07
6.0491e-07
6.02699e-07
6.00546e-07
5.98444e-07
5.96383e-07
5.94358e-07
5.92362e-07
5.90391e-07
5.8844e-07
5.86508e-07
5.84592e-07
5.82691e-07
5.80803e-07
5.78929e-07
5.77068e-07
5.7522e-07
5.73385e-07
5.71564e-07
5.69758e-07
5.67967e-07
5.66193e-07
5.64435e-07
5.62696e-07
5.60975e-07
5.59275e-07
5.57595e-07
5.55935e-07
5.54298e-07
5.52682e-07
5.51087e-07
5.49514e-07
5.4796e-07
5.46429e-07
5.44908e-07
5.43416e-07
5.41908e-07
5.40457e-07
5.38908e-07
5.37536e-07
5.35749e-07
5.3473e-07
5.3178e-07
5.32907e-07
5.23768e-07
4.46856e-07
4.44191e-07
4.37975e-07
4.30392e-07
4.22856e-07
4.16273e-07
4.11126e-07
4.07506e-07
4.05184e-07
4.0367e-07
4.02361e-07
4.00754e-07
3.98593e-07
3.95918e-07
3.92961e-07
4.56081e-07
4.51038e-07
4.43343e-07
4.35891e-07
4.29902e-07
4.25561e-07
4.22649e-07
4.20773e-07
4.19505e-07
4.18293e-07
4.16691e-07
4.14571e-07
4.12138e-07
4.0974e-07
4.07692e-07
4.06191e-07
4.05128e-07
4.04302e-07
4.03364e-07
4.01888e-07
3.99752e-07
3.97037e-07
3.93468e-07
3.88e-07
3.78743e-07
3.64163e-07
3.39189e-07
2.9215e-07
2.42703e-07
9.71216e-09
4.57772e-07
4.53135e-07
4.47955e-07
4.4326e-07
4.39567e-07
4.36792e-07
4.34514e-07
4.32313e-07
4.29974e-07
4.27623e-07
4.25659e-07
4.24429e-07
4.23982e-07
4.24081e-07
4.24421e-07
4.24805e-07
4.25136e-07
4.25295e-07
4.25271e-07
4.25167e-07
4.25277e-07
4.2547e-07
4.24999e-07
4.22848e-07
4.17932e-07
4.08781e-07
3.90284e-07
3.57819e-07
3.08007e-07
1.22386e-07
4.62014e-07
4.58535e-07
4.55381e-07
4.52615e-07
4.50251e-07
4.48211e-07
4.46357e-07
4.44621e-07
4.43077e-07
4.41972e-07
4.41505e-07
4.41704e-07
4.42437e-07
4.43418e-07
4.44346e-07
4.45088e-07
4.45781e-07
4.46739e-07
4.48284e-07
4.50626e-07
4.53556e-07
4.56492e-07
4.58727e-07
4.59925e-07
4.59501e-07
4.55833e-07
4.44837e-07
4.22965e-07
3.78066e-07
2.34076e-07
4.69356e-07
4.66587e-07
4.64518e-07
4.62871e-07
4.61444e-07
4.60171e-07
4.5908e-07
4.58251e-07
4.57778e-07
4.57717e-07
4.58034e-07
4.58614e-07
4.59331e-07
4.6019e-07
4.61372e-07
4.63206e-07
4.65949e-07
4.69617e-07
4.74035e-07
4.78964e-07
4.84027e-07
4.88981e-07
4.93944e-07
4.98942e-07
5.0322e-07
5.05026e-07
5.0135e-07
4.88457e-07
4.52562e-07
3.44495e-07
4.78482e-07
4.76348e-07
4.75051e-07
4.74256e-07
4.7369e-07
4.73254e-07
4.72984e-07
4.7297e-07
4.73283e-07
4.73946e-07
4.74949e-07
4.7629e-07
4.78022e-07
4.80298e-07
4.8331e-07
4.87143e-07
4.91776e-07
4.97051e-07
5.02734e-07
5.08718e-07
5.15193e-07
5.22582e-07
5.31095e-07
5.40273e-07
5.4903e-07
5.56048e-07
5.59196e-07
5.54651e-07
5.29461e-07
4.51003e-07
4.89056e-07
4.87538e-07
4.86919e-07
4.86851e-07
4.87042e-07
4.87371e-07
4.87862e-07
4.88603e-07
4.89686e-07
4.91171e-07
4.931e-07
4.95517e-07
4.98479e-07
5.02045e-07
5.06255e-07
5.11105e-07
5.16552e-07
5.22619e-07
5.29499e-07
5.37544e-07
5.47077e-07
5.58114e-07
5.70298e-07
5.82985e-07
5.95636e-07
6.07692e-07
6.17393e-07
6.20841e-07
6.06944e-07
5.53119e-07
5.00568e-07
4.99688e-07
4.99706e-07
5.00292e-07
5.01166e-07
5.02207e-07
5.03435e-07
5.04941e-07
5.06826e-07
5.09168e-07
5.1202e-07
5.15423e-07
5.19416e-07
5.24041e-07
5.29353e-07
5.35427e-07
5.42384e-07
5.50415e-07
5.59742e-07
5.70469e-07
5.82565e-07
5.95859e-07
6.10172e-07
6.25591e-07
6.42239e-07
6.595e-07
6.75388e-07
6.86261e-07
6.82959e-07
6.48931e-07
5.12793e-07
5.12555e-07
5.13186e-07
5.14384e-07
5.15895e-07
5.17612e-07
5.19557e-07
5.21822e-07
5.24511e-07
5.27705e-07
5.31463e-07
5.35832e-07
5.40865e-07
5.46628e-07
5.53211e-07
5.60718e-07
5.69269e-07
5.78986e-07
5.89978e-07
6.02314e-07
6.16037e-07
6.31253e-07
6.48286e-07
6.67423e-07
6.88482e-07
7.10514e-07
7.31746e-07
7.49255e-07
7.55654e-07
7.37678e-07
5.25313e-07
5.2571e-07
5.26915e-07
5.28672e-07
5.30767e-07
5.33114e-07
5.35738e-07
5.38731e-07
5.42191e-07
5.46201e-07
5.50824e-07
5.56115e-07
5.62138e-07
5.68971e-07
5.76708e-07
5.85459e-07
5.95342e-07
6.06484e-07
6.1903e-07
6.33152e-07
6.49076e-07
6.67052e-07
6.87252e-07
7.09602e-07
7.33788e-07
7.59259e-07
7.85032e-07
8.08593e-07
8.23416e-07
8.17888e-07
5.3772e-07
5.38729e-07
5.40463e-07
5.42727e-07
5.45354e-07
5.48281e-07
5.5154e-07
5.55214e-07
5.59398e-07
5.64172e-07
5.69603e-07
5.75755e-07
5.827e-07
5.90526e-07
5.99338e-07
6.09257e-07
6.20421e-07
6.32983e-07
6.4712e-07
6.63022e-07
6.80888e-07
7.00895e-07
7.2318e-07
7.47781e-07
7.74681e-07
8.03665e-07
8.33917e-07
8.62844e-07
8.847e-07
8.88706e-07
5.49531e-07
5.51104e-07
5.53309e-07
5.56013e-07
5.59104e-07
5.62542e-07
5.66365e-07
5.70646e-07
5.75473e-07
5.80925e-07
5.87071e-07
5.93982e-07
6.0174e-07
6.10439e-07
6.20193e-07
6.31132e-07
6.43401e-07
6.57165e-07
6.72607e-07
6.89922e-07
7.09324e-07
7.31028e-07
7.55261e-07
7.82202e-07
8.11936e-07
8.44149e-07
8.77921e-07
9.10831e-07
9.38128e-07
9.49035e-07
5.60254e-07
5.62319e-07
5.64921e-07
5.6799e-07
5.71464e-07
5.75331e-07
5.79627e-07
5.84422e-07
5.89793e-07
5.95815e-07
6.02561e-07
6.1011e-07
6.18548e-07
6.27977e-07
6.38517e-07
6.50303e-07
6.63489e-07
6.78249e-07
6.94777e-07
7.13287e-07
7.34017e-07
7.5721e-07
7.83111e-07
8.11896e-07
8.43634e-07
8.78046e-07
9.1441e-07
9.50542e-07
9.82351e-07
9.98258e-07
5.69419e-07
5.71878e-07
5.74789e-07
5.78137e-07
5.81905e-07
5.86102e-07
5.90768e-07
5.95961e-07
6.01752e-07
6.08213e-07
6.15421e-07
6.23456e-07
6.32413e-07
6.42397e-07
6.53532e-07
6.65959e-07
6.79836e-07
6.95343e-07
7.12684e-07
7.32082e-07
7.53784e-07
7.78045e-07
8.05121e-07
8.3521e-07
8.68428e-07
9.04573e-07
9.43019e-07
9.81641e-07
1.01671e-06
1.03601e-06
5.76638e-07
5.79374e-07
5.82497e-07
5.86031e-07
5.89995e-07
5.94415e-07
5.99329e-07
6.04792e-07
6.10865e-07
6.17619e-07
6.25131e-07
6.33487e-07
6.42784e-07
6.53131e-07
6.64654e-07
6.77496e-07
6.91819e-07
7.07808e-07
7.2567e-07
7.45636e-07
7.6796e-07
7.92906e-07
8.20745e-07
8.51695e-07
8.85894e-07
9.23162e-07
9.62915e-07
1.00309e-06
1.04021e-06
1.06174e-06
5.81657e-07
5.84539e-07
5.8777e-07
5.91396e-07
5.95455e-07
5.99984e-07
6.05021e-07
6.10614e-07
6.16821e-07
6.23711e-07
6.31362e-07
6.39862e-07
6.49311e-07
6.59818e-07
6.7151e-07
6.8453e-07
6.99043e-07
7.15233e-07
7.33312e-07
7.53513e-07
7.76094e-07
8.01325e-07
8.29483e-07
8.60795e-07
8.95415e-07
9.33182e-07
9.73547e-07
1.01448e-06
1.05262e-06
1.07531e-06
5.84379e-07
5.87276e-07
5.90512e-07
5.94135e-07
5.98188e-07
6.02712e-07
6.07744e-07
6.13329e-07
6.19523e-07
6.26392e-07
6.34017e-07
6.42486e-07
6.51898e-07
6.62362e-07
6.74004e-07
6.86966e-07
7.0141e-07
7.17522e-07
7.35513e-07
7.55614e-07
7.78087e-07
8.03201e-07
8.31235e-07
8.62418e-07
8.96908e-07
9.34562e-07
9.74849e-07
1.01575e-06
1.05387e-06
1.07666e-06
5.84881e-07
5.87664e-07
5.90803e-07
5.94333e-07
5.98287e-07
6.02699e-07
6.07606e-07
6.13053e-07
6.19093e-07
6.25795e-07
6.33238e-07
6.41509e-07
6.50705e-07
6.60933e-07
6.72316e-07
6.84993e-07
6.99125e-07
7.14894e-07
7.32507e-07
7.52193e-07
7.74207e-07
7.98818e-07
8.26305e-07
8.56897e-07
8.90747e-07
9.27695e-07
9.6719e-07
1.00722e-06
1.04425e-06
1.06603e-06
5.83363e-07
5.85929e-07
5.88888e-07
5.92245e-07
5.96013e-07
6.00217e-07
6.04891e-07
6.10081e-07
6.15843e-07
6.22245e-07
6.29364e-07
6.37286e-07
6.46104e-07
6.55922e-07
6.66856e-07
6.79042e-07
6.92635e-07
7.07813e-07
7.24778e-07
7.43751e-07
7.64974e-07
7.88699e-07
8.15192e-07
8.44686e-07
8.7735e-07
9.13043e-07
9.51161e-07
9.89619e-07
1.02448e-06
1.04402e-06
5.80162e-07
5.82424e-07
5.85128e-07
5.88242e-07
5.91751e-07
5.95665e-07
6.00016e-07
6.04852e-07
6.10232e-07
6.16224e-07
6.22904e-07
6.30353e-07
6.3866e-07
6.47922e-07
6.5825e-07
6.69774e-07
6.82639e-07
6.97016e-07
7.13101e-07
7.31112e-07
7.51293e-07
7.73881e-07
7.99099e-07
8.27086e-07
8.57913e-07
8.91468e-07
9.27276e-07
9.63291e-07
9.94964e-07
1.01106e-06
5.7566e-07
5.77554e-07
5.79943e-07
5.82754e-07
5.85941e-07
5.89496e-07
5.9345e-07
5.97853e-07
6.02767e-07
6.0826e-07
6.14406e-07
6.21279e-07
6.28961e-07
6.37543e-07
6.47131e-07
6.57845e-07
6.69822e-07
6.83211e-07
6.98179e-07
7.14921e-07
7.33692e-07
7.54788e-07
7.78477e-07
8.04865e-07
8.33873e-07
8.65121e-07
8.97902e-07
9.30238e-07
9.57148e-07
9.67802e-07
5.70267e-07
5.71752e-07
5.73782e-07
5.76245e-07
5.79061e-07
5.8221e-07
5.85717e-07
5.89635e-07
5.94028e-07
5.98967e-07
6.04519e-07
6.10753e-07
6.1774e-07
6.25561e-07
6.3431e-07
6.44109e-07
6.55099e-07
6.67437e-07
6.8127e-07
6.96722e-07
7.13888e-07
7.32934e-07
7.54215e-07
7.78115e-07
8.0474e-07
8.33544e-07
8.6321e-07
8.91374e-07
9.12393e-07
9.1513e-07
5.6434e-07
5.65395e-07