/*--------------------------------*- C++ -*----------------------------------*\
| =========                 |                                                 |
| \\      /  F ield         | OpenFOAM: The Open Source CFD Toolbox           |
|  \\    /   O peration     | Version:  2312                                  |
|   \\  /    A nd           | Website:  www.openfoam.com                      |
|    \\/     M anipulation  |                                                 |
\*---------------------------------------------------------------------------*/
FoamFile
{
    version     2.0;
    format      ascii;
    arch        "LSB;label=32;scalar=64";
    class       surfaceScalarField;
    location    "8000";
    object      phi;
}
// * * * * * * * * * * * * * * * * * * * * * * * * * * * * * * * * * * * * * //

dimensions      [0 3 -1 0 0 0 0];

oriented        oriented;

internalField   nonuniform List<scalar> 
5250
(
0.000432348
-2.21007e-10
0.000432348
-2.04302e-10
0.000432348
-1.91625e-10
0.000432348
-1.74897e-10
0.000432349
-1.60658e-10
0.000432349
-1.51715e-10
0.000432349
-1.38029e-10
0.000432349
-1.22087e-10
0.000432349
-1.10517e-10
0.000432349
-1.04061e-10
0.000432349
-9.77339e-11
0.000432349
-8.94413e-11
0.000432349
-8.07879e-11
0.00043235
-7.25353e-11
0.00043235
-6.49444e-11
0.00043235
-5.84246e-11
0.00043235
-5.24904e-11
0.00043235
-4.61114e-11
0.00043235
-3.95398e-11
0.00043235
-3.39108e-11
0.00043235
-2.95889e-11
0.00043235
-2.61833e-11
0.00043235
-2.33083e-11
0.00043235
-2.08846e-11
0.00043235
-1.88928e-11
0.00043235
-1.72159e-11
0.00043235
-1.57321e-11
0.00043235
-1.43824e-11
0.00043235
-1.31523e-11
0.00043235
-1.20269e-11
0.00043235
-1.09892e-11
0.00043235
-1.00241e-11
0.00043235
-9.12462e-12
0.00043235
-8.2851e-12
0.00043235
-7.5032e-12
0.00043235
-6.77463e-12
0.00043235
-6.09735e-12
0.00043235
-5.46646e-12
0.00043235
-4.87863e-12
0.00043235
-4.3275e-12
0.00043235
-3.80895e-12
0.00043235
-3.31613e-12
0.00043235
-2.84573e-12
0.00043235
-2.39098e-12
0.00043235
-1.95172e-12
0.00043235
-1.519e-12
0.00043235
-1.09811e-12
0.00043235
-6.71668e-13
0.00043235
-2.7366e-13
0.00043235
1.44943e-13
0.00043235
4.75053e-13
0.00043235
9.28815e-13
0.00043235
1.13808e-12
0.00043235
1.71419e-12
0.00043235
1.64358e-12
0.00043235
2.51927e-12
0.00043235
1.92041e-12
0.00043235
3.34188e-12
0.00043235
2.00544e-12
0.00043235
3.97163e-12
0.00043235
2.23086e-12
0.00043235
3.83243e-12
0.00043235
3.26088e-12
0.00043235
2.32405e-12
0.00043235
5.26971e-12
0.00043235
4.23981e-13
0.00043235
6.21739e-12
0.00043235
1.04202e-12
0.00043235
2.85985e-12
0.00043235
5.96859e-12
0.00043235
-2.83494e-12
0.00043235
8.98732e-12
0.00043235
-1.10007e-12
0.00043235
1.58962e-12
0.00043235
8.91259e-12
0.00043235
-7.19587e-12
0.00043235
1.18344e-11
0.00043235
-9.53165e-13
0.00043235
-6.34877e-13
0.00043235
1.2898e-11
0.00043235
-7.69584e-12
0.00043235
9.21825e-12
0.00043235
9.16699e-12
0.00043235
-6.80399e-12
0.00043235
1.36097e-11
0.00043235
8.32758e-12
0.00043235
-3.30588e-13
0.00043235
1.08243e-11
1.14226e-11
0.000653734
-3.29097e-11
0.000653734
-3.56353e-11
0.000653734
-4.08795e-11
0.000653734
-4.30904e-11
0.000653733
-4.30683e-11
0.000653733
-4.47124e-11
0.000653733
-4.60206e-11
0.000653733
-4.32417e-11
0.000653733
-3.97948e-11
0.000653733
-3.93892e-11
0.000653733
-3.96724e-11
0.000653733
-3.78485e-11
0.000653733
-3.48752e-11
0.000653733
-3.2279e-11
0.000653733
-3.01039e-11
0.000653733
-2.7986e-11
0.000653733
-2.558e-11
0.000653733
-2.24429e-11
0.000653733
-1.86656e-11
0.000653733
-1.50497e-11
0.000653733
-1.22908e-11
0.000653733
-1.04459e-11
0.000653733
-9.24658e-12
0.000653733
-8.48333e-12
0.000653733
-8.03684e-12
0.000653733
-7.77651e-12
0.000653733
-7.57666e-12
0.000653733
-7.36269e-12
0.000653733
-7.11434e-12
0.000653733
-6.8275e-12
0.000653733
-6.5023e-12
0.000653733
-6.13883e-12
0.000653733
-5.74399e-12
0.000653733
-5.32465e-12
0.000653733
-4.89058e-12
0.000653733
-4.44769e-12
0.000653733
-4.00294e-12
0.000653733
-3.55945e-12
0.000653733
-3.12026e-12
0.000653733
-2.68459e-12
0.000653733
-2.25324e-12
0.000653733
-1.82327e-12
0.000653733
-1.3952e-12
0.000653733
-9.65766e-13
0.000653733
-5.39057e-13
0.000653733
-1.1315e-13
0.000653733
3.51193e-13
0.000653733
8.12711e-13
0.000653733
1.24723e-12
0.000653733
1.72217e-12
0.000653733
2.11569e-12
0.000653733
2.63403e-12
0.000653733
2.91743e-12
0.000653733
3.55136e-12
0.000653733
3.5897e-12
0.000653733
4.47456e-12
0.000653733
4.08554e-12
0.000653733
5.35358e-12
0.000653733
4.48732e-12
0.000653733
5.94166e-12
0.000653733
5.18688e-12
0.000653733
5.66373e-12
0.000653733
6.79223e-12
0.000653733
4.14863e-12
0.000653733
9.07358e-12
0.000653733
2.76345e-12
0.000653732
9.35923e-12
0.000653732
5.19476e-12
0.000653732
4.49514e-12
0.000653732
1.20464e-11
0.000653732
-1.04037e-12
0.000653732
1.35031e-11
0.000653732
4.63916e-12
0.000653732
2.5805e-12
0.000653732
1.74031e-11
0.000653732
-2.77777e-12
0.000653732
1.29417e-11
0.000653732
1.18891e-11
0.000653732
-3.61969e-13
0.000653732
1.87923e-11
0.000653732
7.14511e-12
0.000653732
6.86294e-12
0.000653732
1.98674e-11
0.000653732
6.92917e-12
0.000653732
1.47008e-11
0.000653732
1.93423e-11
0.000653732
1.29672e-11
0.000653732
1.78212e-11
2.1719e-11
0.000683109
3.2378e-10
0.000683109
2.83641e-10
0.000683108
2.47183e-10
0.000683108
2.14979e-10
0.000683108
1.87659e-10
0.000683108
1.63509e-10
0.000683107
1.41033e-10
0.000683107
1.21945e-10
0.000683107
1.06717e-10
0.000683107
9.30413e-11
0.000683107
8.01003e-11
0.000683107
6.92088e-11
0.000683107
6.045e-11
0.000683107
5.26632e-11
0.000683107
4.55706e-11
0.000683106
3.97134e-11
0.000683106
3.51883e-11
0.000683106
3.16101e-11
0.000683106
2.86767e-11
0.000683106
2.61889e-11
0.000683106
2.38846e-11
0.000683106
2.15435e-11
0.000683106
1.91243e-11
0.000683106
1.67111e-11
0.000683106
1.4397e-11
0.000683106
1.22506e-11
0.000683106
1.03201e-11
0.000683106
8.6342e-12
0.000683106
7.19537e-12
0.000683106
5.98884e-12
0.000683106
4.99083e-12
0.000683106
4.17698e-12
0.000683106
3.5224e-12
0.000683106
3.00502e-12
0.000683106
2.60436e-12
0.000683106
2.30407e-12
0.000683106
2.08959e-12
0.000683106
1.95007e-12
0.000683106
1.87582e-12
0.000683106
1.86004e-12
0.000683106
1.8962e-12
0.000683106
1.97996e-12
0.000683106
2.10629e-12
0.000683106
2.27237e-12
0.000683106
2.47301e-12
0.000683106
2.70753e-12
0.000683106
2.97132e-12
0.000683106
3.26478e-12
0.000683106
3.57004e-12
0.000683106
3.90728e-12
0.000683106
4.2304e-12
0.000683106
4.6078e-12
0.000683106
4.91595e-12
0.000683106
5.34332e-12
0.000683106
5.58906e-12
0.000683106
6.09061e-12
0.000683106
6.22658e-12
0.000683106
6.80938e-12
0.000683106
6.85242e-12
0.000683106
7.40658e-12
0.000683106
7.57083e-12
0.000683106
7.73895e-12
0.000683106
8.50223e-12
0.000683106
7.79774e-12
0.000683106
9.46389e-12
0.000683106
8.11122e-12
0.000683106
9.68211e-12
0.000683106
9.58074e-12
0.000683106
8.75275e-12
0.000683106
1.17944e-11
0.000683106
8.51415e-12
0.000683106
1.18933e-11
0.000683106
1.17702e-11
0.000683106
9.30524e-12
0.000683106
1.57095e-11
0.000683106
1.01838e-11
0.000683106
1.39178e-11
0.000683106
1.6729e-11
0.000683106
1.1624e-11
0.000683106
1.85011e-11
0.000683106
1.79445e-11
0.000683106
1.48684e-11
0.000683106
2.32697e-11
0.000683106
1.95609e-11
0.000683106
2.09564e-11
0.000683106
2.58842e-11
0.000683106
2.55293e-11
0.000683106
2.54647e-11
3.02262e-11
0.000685734
6.93485e-10
0.000685733
6.14976e-10
0.000685733
5.4529e-10
0.000685733
4.8294e-10
0.000685733
4.27688e-10
0.000685732
3.78992e-10
0.000685732
3.35043e-10
0.000685732
2.95563e-10
0.000685732
2.61351e-10
0.000685732
2.31554e-10
0.000685732
2.04807e-10
0.000685732
1.81149e-10
0.000685731
1.60608e-10
0.000685731
1.42239e-10
0.000685731
1.25557e-10
0.000685731
1.11004e-10
0.000685731
9.86978e-11
0.000685731
8.80454e-11
0.000685731
7.85507e-11
0.000685731
7.01351e-11
0.000685731
6.27274e-11
0.000685731
5.60647e-11
0.000685731
4.99143e-11
0.000685731
4.42207e-11
0.000685731
3.90188e-11
0.000685731
3.43264e-11
0.000685731
3.01318e-11
0.000685731
2.64156e-11
0.000685731
2.31539e-11
0.000685731
2.03124e-11
0.000685731
1.78495e-11
0.000685731
1.57224e-11
0.000685731
1.3892e-11
0.000685731
1.23229e-11
0.000685731
1.0984e-11
0.000685731
9.84793e-12
0.000685731
8.89112e-12
0.000685731
8.09307e-12
0.000685731
7.43614e-12
0.000685731
6.90489e-12
0.000685731
6.486e-12
0.000685731
6.16767e-12
0.000685731
5.93949e-12
0.000685731
5.79235e-12
0.000685731
5.71766e-12
0.000685731
5.70865e-12
0.000685731
5.75736e-12
0.000685731
5.85903e-12
0.000685731
6.00316e-12
0.000685731
6.19124e-12
0.000685731
6.40547e-12
0.000685731
6.66153e-12
0.000685731
6.92194e-12
0.000685731
7.23286e-12
0.000685731
7.51718e-12
0.000685731
7.87261e-12
0.000685731
8.16805e-12
0.000685731
8.5483e-12
0.000685731
8.87122e-12
0.000685731
9.22415e-12
0.000685731
9.63981e-12
0.000685731
9.88135e-12
0.000685731
1.04631e-11
0.000685731
1.0584e-11
0.000685731
1.12411e-11
0.000685731
1.15167e-11
0.000685731
1.18514e-11
0.000685731
1.27513e-11
0.000685731
1.25256e-11
0.000685731
1.38461e-11
0.000685731
1.3978e-11
0.000685731
1.43043e-11
0.000685731
1.62266e-11
0.000685731
1.50289e-11
0.000685731
1.78233e-11
0.000685731
1.75504e-11
0.000685731
1.83312e-11
0.000685731
2.07019e-11
0.000685731
2.03825e-11
0.000685731
2.19957e-11
0.000685731
2.47575e-11
0.00068573
2.34016e-11
0.00068573
2.76942e-11
0.00068573
2.80359e-11
0.00068573
2.96497e-11
0.00068573
3.17207e-11
0.00068573
3.48966e-11
0.00068573
3.44361e-11
3.90198e-11
0.00068591
1.02156e-09
0.00068591
9.09504e-10
0.00068591
8.09755e-10
0.000685909
7.20599e-10
0.000685909
6.41001e-10
0.000685909
5.70346e-10
0.000685909
5.07143e-10
0.000685909
4.50308e-10
0.000685909
3.99906e-10
0.000685908
3.55508e-10
0.000685908
3.16011e-10
0.000685908
2.80924e-10
0.000685908
2.49956e-10
0.000685908
2.22232e-10
0.000685908
1.97153e-10
0.000685908
1.74952e-10
0.000685908
1.55731e-10
0.000685908
1.38888e-10
0.000685908
1.23781e-10
0.000685908
1.1024e-10
0.000685908
9.82429e-11
0.000685908
8.75778e-11
0.000685908
7.79595e-11
0.000685908
6.92381e-11
0.000685908
6.13786e-11
0.000685908
5.43504e-11
0.000685908
4.80942e-11
0.000685907
4.25455e-11
0.000685907
3.76461e-11
0.000685907
3.33383e-11
0.000685907
2.95618e-11
0.000685907
2.62581e-11
0.000685907
2.33738e-11
0.000685907
2.08618e-11
0.000685907
1.86803e-11
0.000685907
1.67925e-11
0.000685907
1.51661e-11
0.000685907
1.37727e-11
0.000685907
1.25871e-11
0.000685907
1.15874e-11
0.000685907
1.07538e-11
0.000685907
1.0069e-11
0.000685907
9.51744e-12
0.000685907
9.08519e-12
0.000685907
8.75978e-12
0.000685907
8.53011e-12
0.000685907
8.38581e-12
0.000685907
8.31808e-12
0.000685907
8.31771e-12
0.000685907
8.37851e-12
0.000685907
8.49155e-12
0.000685907
8.6539e-12
0.000685907
8.85594e-12
0.000685907
9.09793e-12
0.000685907
9.3712e-12
0.000685907
9.67343e-12
0.000685907
1.00095e-11
0.000685907
1.03514e-11
0.000685907
1.07542e-11
0.000685907
1.11149e-11
0.000685907
1.15919e-11
0.000685907
1.1973e-11
0.000685907
1.24957e-11
0.000685907
1.29754e-11
0.000685907
1.34325e-11
0.000685907
1.41642e-11
0.000685907
1.44621e-11
0.000685907
1.54357e-11
0.000685907
1.58426e-11
0.000685907
1.65785e-11
0.000685907
1.77384e-11
0.000685907
1.77862e-11
0.000685907
1.97105e-11
0.000685907
1.97406e-11
0.000685907
2.13888e-11
0.000685907
2.2338e-11
0.000685907
2.35222e-11
0.000685907
2.48084e-11
0.000685907
2.65515e-11
0.000685907
2.73378e-11
0.000685907
3.01341e-11
0.000685907
3.03437e-11
0.000685907
3.37594e-11
0.000685907
3.45447e-11
0.000685907
3.74581e-11
0.000685907
3.85601e-11
0.000685907
4.28844e-11
0.000685907
4.28047e-11
4.80529e-11
0.000685919
1.28441e-09
0.000685919
1.14577e-09
0.000685919
1.02203e-09
0.000685919
9.11455e-10
0.000685918
8.12553e-10
0.000685918
7.24348e-10
0.000685918
6.45525e-10
0.000685918
5.74818e-10
0.000685918
5.11713e-10
0.000685918
4.55672e-10
0.000685918
4.05782e-10
0.000685918
3.61413e-10
0.000685918
3.22061e-10
0.000685917
2.86845e-10
0.000685917
2.55086e-10
0.000685917
2.26788e-10
0.000685917
2.01964e-10
0.000685917
1.80076e-10
0.000685917
1.60476e-10
0.000685917
1.42895e-10
0.000685917
1.2726e-10
0.000685917
1.13373e-10
0.000685917
1.00944e-10
0.000685917
8.97704e-11
0.000685917
7.97557e-11
0.000685917
7.08243e-11
0.000685917
6.28828e-11
0.000685917
5.58354e-11
0.000685917
4.95971e-11
0.000685917
4.409e-11
0.000685917
3.92389e-11
0.000685917
3.49725e-11
0.000685917
3.12268e-11
0.000685917
2.79447e-11
0.000685917
2.50756e-11
0.000685917
2.25748e-11
0.000685917
2.04026e-11
0.000685917
1.8524e-11
0.000685917
1.69079e-11
0.000685917
1.55265e-11
0.000685917
1.43553e-11
0.000685917
1.33723e-11
0.000685917
1.25578e-11
0.000685917
1.18945e-11
0.000685917
1.13665e-11
0.000685917
1.09598e-11
0.000685917
1.06618e-11
0.000685917
1.04611e-11
0.000685917
1.03479e-11
0.000685917
1.03127e-11
0.000685917
1.03482e-11
0.000685917
1.04458e-11
0.000685917
1.06026e-11
0.000685917
1.08065e-11
0.000685917
1.10658e-11
0.000685917
1.1353e-11
0.000685917
1.17057e-11
0.000685917
1.20555e-11
0.000685917
1.25011e-11
0.000685917
1.29009e-11
0.000685917
1.34317e-11
0.000685917
1.39038e-11
0.000685917
1.44675e-11
0.000685917
1.51073e-11
0.000685917
1.5593e-11
0.000685917
1.6518e-11
0.000685917
1.69114e-11
0.000685917
1.79927e-11
0.000685917
1.86796e-11
0.000685917
1.9381e-11
0.000685917
2.09197e-11
0.000685917
2.1049e-11
0.000685917
2.30807e-11
0.000685917
2.35932e-11
0.000685917
2.51129e-11
0.000685917
2.64579e-11
0.000685917
2.80471e-11
0.000685917
2.90577e-11
0.000685917
3.16232e-11
0.000685917
3.23802e-11
0.000685917
3.52729e-11
0.000685917
3.61558e-11
0.000685917
3.96597e-11
0.000685917
4.04661e-11
0.000685917
4.43116e-11
0.000685917
4.51995e-11
0.000685917
5.01264e-11
0.000685917
5.03336e-11
5.61886e-11
0.000685919
1.46739e-09
0.000685919
1.31052e-09
0.000685919
1.17027e-09
0.000685919
1.04483e-09
0.000685918
9.32534e-10
0.000685918
8.32196e-10
0.000685918
7.42494e-10
0.000685918
6.62127e-10
0.000685918
5.90292e-10
0.000685918
5.26261e-10
0.000685918
4.6914e-10
0.000685918
4.18247e-10
0.000685918
3.72981e-10
0.000685918
3.32483e-10
0.000685918
2.96053e-10
0.000685918
2.63519e-10
0.000685918
2.34767e-10
0.000685918
2.09301e-10
0.000685918
1.86524e-10
0.000685918
1.66117e-10
0.000685918
1.47935e-10
0.000685917
1.31766e-10
0.000685917
1.17331e-10
0.000685917
1.04408e-10
0.000685917
9.28604e-11
0.000685917
8.2577e-11
0.000685917
7.34395e-11
0.000685917
6.53317e-11
0.000685917
5.81498e-11
0.000685917
5.18004e-11
0.000685917
4.61961e-11
0.000685917
4.12564e-11
0.000685917
3.69089e-11
0.000685917
3.30891e-11
0.000685917
2.97402e-11
0.000685917
2.68115e-11
0.000685917
2.42583e-11
0.000685917
2.2041e-11
0.000685917
2.01241e-11
0.000685917
1.84765e-11
0.000685917
1.70701e-11
0.000685917
1.588e-11
0.000685917
1.48838e-11
0.000685917
1.40616e-11
0.000685917
1.33955e-11
0.000685917
1.28695e-11
0.000685917
1.24694e-11
0.000685917
1.21822e-11
0.000685917
1.19969e-11
0.000685917
1.19026e-11
0.000685917
1.18921e-11
0.000685917
1.19543e-11
0.000685917
1.20882e-11
0.000685917
1.22777e-11
0.000685917
1.25358e-11
0.000685917
1.28277e-11
0.000685917
1.32004e-11
0.000685917
1.35733e-11
0.000685917
1.40588e-11
0.000685917
1.45021e-11
0.000685917
1.50892e-11
0.000685917
1.56308e-11
0.000685917
1.62605e-11
0.000685917
1.70029e-11
0.000685917
1.75612e-11
0.000685917
1.86167e-11
0.000685917
1.91058e-11
0.000685917
2.03154e-11
0.000685917
2.11561e-11
0.000685917
2.19567e-11
0.000685917
2.37028e-11
0.000685917
2.39499e-11
0.000685917
2.61594e-11
0.000685917
2.68791e-11
0.000685917
2.85497e-11
0.000685917
3.00775e-11
0.000685917
3.19645e-11
0.000685917
3.30275e-11
0.000685917
3.59578e-11
0.000685917
3.68792e-11
0.000685917
4.00015e-11
0.000685917
4.11141e-11
0.000685917
4.50076e-11
0.000685917
4.58485e-11
0.000685917
5.02389e-11
0.000685917
5.12171e-11
0.000685917
5.6653e-11
0.000685917
5.69639e-11
6.35096e-11
0.000685918
1.56075e-09
0.000685918
1.39488e-09
0.000685918
1.24644e-09
0.000685918
1.11355e-09
0.000685918
9.94577e-10
0.000685918
8.88181e-10
0.000685918
7.9299e-10
0.000685918
7.07743e-10
0.000685918
6.31522e-10
0.000685918
5.6344e-10
0.000685918
5.02593e-10
0.000685918
4.48301e-10
0.000685918
3.99921e-10
0.000685918
3.56633e-10
0.000685918
3.17779e-10
0.000685918
2.83072e-10
0.000685918
2.5226e-10
0.000685917
2.24861e-10
0.000685917
2.00365e-10
0.000685917
1.78455e-10
0.000685917
1.58927e-10
0.000685917
1.41539e-10
0.000685917
1.26027e-10
0.000685917
1.12175e-10
0.000685917
9.98238e-11
0.000685917
8.88381e-11
0.000685917
7.90829e-11
0.000685917
7.04313e-11
0.000685917
6.27692e-11
0.000685917
5.59932e-11
0.000685917
5.00087e-11
0.000685917
4.47294e-11
0.000685917
4.00784e-11
0.000685917
3.59876e-11
0.000685917
3.23964e-11
0.000685917
2.92515e-11
0.000685917
2.65057e-11
0.000685917
2.41171e-11
0.000685917
2.20486e-11
0.000685917
2.02672e-11
0.000685917
1.87435e-11
0.000685917
1.7451e-11
0.000685917
1.63663e-11
0.000685917
1.54683e-11
0.000685917
1.47379e-11
0.000685917
1.41584e-11
0.000685917
1.37146e-11
0.000685917
1.33928e-11
0.000685917
1.31815e-11
0.000685917
1.3069e-11
0.000685917
1.30478e-11
0.000685917
1.31062e-11
0.000685917
1.32437e-11
0.000685917
1.34424e-11
0.000685917
1.37176e-11
0.000685917
1.40311e-11
0.000685917
1.44346e-11
0.000685917
1.48409e-11
0.000685917
1.53715e-11
0.000685917
1.58608e-11
0.000685917
1.65067e-11
0.000685917
1.71105e-11
0.000685917
1.78086e-11
0.000685917
1.86362e-11
0.000685917
1.92659e-11
0.000685917
2.04348e-11
0.000685917
2.10011e-11
0.000685917
2.23381e-11
0.000685917
2.32901e-11
0.000685917
2.4197e-11
0.000685917
2.61154e-11
0.000685917
2.64479e-11
0.000685917
2.88513e-11
0.000685917
2.96987e-11
0.000685917
3.15364e-11
0.000685917
3.32229e-11
0.000685917
3.53243e-11
0.000685917
3.64954e-11
0.000685917
3.96986e-11
0.000685917
4.07562e-11
0.000685917
4.41309e-11
0.000685917
4.53822e-11
0.000685917
4.96386e-11
0.000685917
5.05351e-11
0.000685917
5.53369e-11
0.000685917
5.64288e-11
0.000685917
6.2305e-11
0.000685917
6.26805e-11
6.98039e-11
0.000685917
1.55993e-09
0.000685917
1.39475e-09
0.000685917
1.24683e-09
0.000685917
1.11434e-09
0.000685917
9.95713e-10
0.000685917
8.8952e-10
0.000685917
7.94437e-10
0.000685917
7.09377e-10
0.000685917
6.33349e-10
0.000685917
5.65326e-10
0.000685917
5.0445e-10
0.000685917
4.50076e-10
0.000685917
4.01529e-10
0.000685917
3.58086e-10
0.000685917
3.192e-10
0.000685917
2.84485e-10
0.000685917
2.53538e-10
0.000685917
2.25909e-10
0.000685917
2.01221e-10
0.000685917
1.79187e-10
0.000685917
1.59548e-10
0.000685917
1.4204e-10
0.000685917
1.26429e-10
0.000685917
1.12522e-10
0.000685917
1.00153e-10
0.000685917
8.91678e-11
0.000685917
7.94249e-11
0.000685917
7.07944e-11
0.000685917
6.31584e-11
0.000685917
5.64091e-11
0.000685917
5.04492e-11
0.000685917
4.51913e-11
0.000685917
4.05581e-11
0.000685917
3.64817e-11
0.000685917
3.29019e-11
0.000685917
2.97661e-11
0.000685917
2.70276e-11
0.000685917
2.46455e-11
0.000685917
2.25831e-11
0.000685917
2.08081e-11
0.000685917
1.92916e-11
0.000685917
1.80077e-11
0.000685917
1.69332e-11
0.000685917
1.60471e-11
0.000685917
1.53307e-11
0.000685917
1.47672e-11
0.000685917
1.43415e-11
0.000685917
1.40399e-11
0.000685917
1.3851e-11
0.000685917
1.3763e-11
0.000685917
1.37685e-11
0.000685917
1.38556e-11
0.000685917
1.40243e-11
0.000685917
1.42562e-11
0.000685917
1.45681e-11
0.000685917
1.49195e-11
0.000685917
1.53664e-11
0.000685917
1.58159e-11
0.000685917
1.6398e-11
0.000685917
1.69368e-11
0.000685917
1.76429e-11
0.000685917
1.83058e-11
0.000685917
1.907e-11
0.000685917
1.99741e-11
0.000685917
2.06687e-11
0.000685917
2.19393e-11
0.000685917
2.25697e-11
0.000685917
2.40225e-11
0.000685917
2.50654e-11
0.000685917
2.60636e-11
0.000685917
2.81352e-11
0.000685917
2.85241e-11
0.000685917
3.11117e-11
0.000685917
3.20471e-11
0.000685917
3.40332e-11
0.000685917
3.58576e-11
0.000685917
3.81218e-11
0.000685917
3.93965e-11
0.000685917
4.28256e-11
0.000685917
4.39795e-11
0.000685917
4.75871e-11
0.000685917
4.89387e-11
0.000685917
5.34889e-11
0.000685917
5.4455e-11
0.000685917
5.95737e-11
0.000685917
6.07562e-11
0.000685917
6.70033e-11
0.000685917
6.74198e-11
7.50161e-11
0.000685917
1.46578e-09
0.000685917
1.31089e-09
0.000685917
1.172e-09
0.000685917
1.04758e-09
0.000685917
9.36251e-10
0.000685917
8.36502e-10
0.000685917
7.47199e-10
0.000685917
6.67441e-10
0.000685917
5.96087e-10
0.000685917
5.32098e-10
0.000685917
4.74846e-10
0.000685917
4.23693e-10
0.000685917
3.7789e-10
0.000685917
3.36918e-10
0.000685917
3.00406e-10
0.000685917
2.67825e-10
0.000685917
2.38607e-10
0.000685917
2.12419e-10
0.000685917
1.89064e-10
0.000685917
1.68277e-10
0.000685917
1.49734e-10
0.000685917
1.33184e-10
0.000685917
1.18453e-10
0.000685917
1.0538e-10
0.000685917
9.37919e-11
0.000685917
8.35254e-11
0.000685917
7.44392e-11
0.000685917
6.64073e-11
0.000685917
5.93125e-11
0.000685917
5.30481e-11
0.000685917
4.75193e-11
0.000685917
4.26433e-11
0.000685917
3.83475e-11
0.000685917
3.45685e-11
0.000685917
3.12507e-11
0.000685917
2.8346e-11
0.000685917
2.58119e-11
0.000685917
2.36113e-11
0.000685917
2.17108e-11
0.000685917
2.00811e-11
0.000685917
1.86955e-11
0.000685917
1.75303e-11
0.000685917
1.65641e-11
0.000685917
1.57775e-11
0.000685917
1.51529e-11
0.000685917
1.46746e-11
0.000685917
1.43283e-11
0.000685917
1.41011e-11
0.000685917
1.39822e-11
0.000685917
1.39606e-11
0.000685917
1.40296e-11
0.000685917
1.41774e-11
0.000685917
1.4405e-11
0.000685917
1.46933e-11
0.000685917
1.50613e-11
0.000685917
1.54664e-11
0.000685917
1.59692e-11
0.000685917
1.64714e-11
0.000685917
1.71119e-11
0.000685917
1.77036e-11
0.000685917
1.8472e-11
0.000685917
1.91918e-11
0.000685917
2.00196e-11
0.000685917
2.09934e-11
0.000685917
2.17461e-11
0.000685917
2.31077e-11
0.000685917
2.37914e-11
0.000685917
2.53448e-11
0.000685917
2.64657e-11
0.000685917
2.75333e-11
0.000685917
2.97456e-11
0.000685917
3.01616e-11
0.000685917
3.29181e-11
0.000685917
3.39116e-11
0.000685917
3.60199e-11
0.000685917
3.79572e-11
0.000685917
4.03475e-11
0.000685917
4.16999e-11
0.000685917
4.53133e-11
0.000685917
4.6533e-11
0.000685917
5.03229e-11
0.000685917
5.17457e-11
0.000685917
5.65235e-11
0.000685917
5.75397e-11
0.000685917
6.28997e-11
0.000685917
6.41611e-11
0.000685917
7.0703e-11
0.000685917
7.11391e-11
7.90675e-11
0.000685916
1.28433e-09
0.000685916
1.1486e-09
0.000685916
1.02675e-09
0.000685916
9.17706e-10
0.000685916
8.20059e-10
0.000685916
7.32453e-10
0.000685917
6.54347e-10
0.000685917
5.84796e-10
0.000685917
5.22243e-10
0.000685917
4.65961e-10
0.000685917
4.15774e-10
0.000685917
3.70895e-10
0.000685917
3.30527e-10
0.000685917
2.94559e-10
0.000685917
2.62753e-10
0.000685917
2.34271e-10
0.000685917
2.08457e-10
0.000685917
1.85257e-10
0.000685917
1.64671e-10
0.000685917
1.46383e-10
0.000685917
1.30023e-10
0.000685917
1.15419e-10
0.000685917
1.02493e-10
0.000685917
9.1106e-11
0.000685917
8.10689e-11
0.000685917
7.22149e-11
0.000685917
6.44108e-11
0.000685917
5.7537e-11
0.000685917
5.14798e-11
0.000685917
4.61382e-11
0.000685917
4.14263e-11
0.000685917
3.7272e-11
0.000685917
3.36125e-11
0.000685917
3.03944e-11
0.000685917
2.75712e-11
0.000685917
2.51032e-11
0.000685917
2.29554e-11
0.000685917
2.10975e-11
0.000685917
1.95022e-11
0.000685917
1.81454e-11
0.000685917
1.70046e-11
0.000685917
1.60601e-11
0.000685917
1.5293e-11
0.000685917
1.46869e-11
0.000685917
1.42263e-11
0.000685917
1.38977e-11
0.000685917
1.36883e-11
0.000685917
1.35866e-11
0.000685917
1.35825e-11
0.000685917
1.36664e-11
0.000685917
1.38324e-11
0.000685917
1.407e-11
0.000685917
1.43814e-11
0.000685917
1.47478e-11
0.000685917
1.51899e-11
0.000685917
1.56634e-11
0.000685917
1.62335e-11
0.000685917
1.67965e-11
0.000685917
1.75015e-11
0.000685917
1.81492e-11
0.000685917
1.89817e-11
0.000685917
1.97569e-11
0.000685917
2.0646e-11
0.000685917
2.16832e-11
0.000685917
2.24878e-11
0.000685917
2.39291e-11
0.000685917
2.46567e-11
0.000685917
2.62935e-11
0.000685917
2.74822e-11
0.000685917
2.85942e-11
0.000685917
3.09365e-11
0.000685917
3.13502e-11
0.000685917
3.42583e-11
0.000685917
3.5283e-11
0.000685917
3.74844e-11
0.000685917
3.95089e-11
0.000685917
4.199e-11
0.000685917
4.33901e-11
0.000685917
4.71452e-11
0.000685917
4.84047e-11
0.000685917
5.23203e-11
0.000685917
5.37901e-11
0.000685917
5.87258e-11
0.000685917
5.97669e-11
0.000685917
6.52764e-11
0.000685917
6.66013e-11
0.000685917
7.33334e-11
0.000685917
7.3798e-11
8.19269e-11
0.000685915
1.02655e-09
0.000685915
9.17576e-10
0.000685916
8.1968e-10
0.000685916
7.3254e-10
0.000685916
6.54312e-10
0.000685916
5.83932e-10
0.000685916
5.21706e-10
0.000685916
4.66372e-10
0.000685916
4.1609e-10
0.000685917
3.70898e-10
0.000685917
3.30916e-10
0.000685917
2.94922e-10
0.000685917
2.6233e-10
0.000685917
2.33658e-10
0.000685917
2.08592e-10
0.000685917
1.85872e-10
0.000685917
1.64939e-10
0.000685917
1.46139e-10
0.000685917
1.2959e-10
0.000685917
1.14876e-10
0.000685917
1.01655e-10
0.000685917
8.98996e-11
0.000685917
7.962e-11
0.000685917
7.06751e-11
0.000685917
6.28627e-11
0.000685917
5.60222e-11
0.000685917
5.00339e-11
0.000685917
4.4786e-11
0.000685917
4.01748e-11
0.000685917
3.61131e-11
0.000685917
3.25331e-11
0.000685917
2.93787e-11
0.000685917
2.66036e-11
0.000685917
2.41677e-11
0.000685917
2.2038e-11
0.000685917
2.01855e-11
0.000685917
1.85857e-11
0.000685917
1.72159e-11
0.000685917
1.60566e-11
0.000685917
1.50893e-11
0.000685917
1.42983e-11
0.000685917
1.36678e-11
0.000685917
1.31839e-11
0.000685917
1.28327e-11
0.000685917
1.26024e-11
0.000685917
1.24813e-11
0.000685917
1.24601e-11
0.000685917
1.25287e-11
0.000685917
1.26801e-11
0.000685917
1.2905e-11
0.000685917
1.31996e-11
0.000685917
1.35531e-11
0.000685917
1.39703e-11
0.000685917
1.44323e-11
0.000685917
1.49637e-11
0.000685917
1.55181e-11
0.000685917
1.6166e-11
0.000685917
1.67971e-11
0.000685917
1.75715e-11
0.000685917
1.82773e-11
0.000685917
1.91739e-11
0.000685917
2.00018e-11
0.000685917
2.09493e-11
0.000685917
2.20422e-11
0.000685917
2.28942e-11
0.000685917
2.44015e-11
0.000685917
2.51677e-11
0.000685917
2.68681e-11
0.000685917
2.81157e-11
0.000685917
2.92512e-11
0.000685917
3.17045e-11
0.000685917
3.20984e-11
0.000685917
3.51276e-11
0.000685917
3.61651e-11
0.000685917
3.8426e-11
0.000685917
4.05109e-11
0.000685917
4.30447e-11
0.000685917
4.44669e-11
0.000685917
4.83079e-11
0.000685917
4.95884e-11
0.000685917
5.35623e-11
0.000685917
5.50617e-11
0.000685917
6.00817e-11
0.000685917
6.11391e-11
0.000685917
6.6712e-11
0.000685917
6.80823e-11
0.000685917
7.48847e-11
0.000685917
7.53565e-11
8.35938e-11
0.000685915
7.07364e-10
0.000685915
6.31206e-10
0.000685915
5.63235e-10
0.000685915
5.03035e-10
0.000685916
4.48691e-10
0.000685916
4.00157e-10
0.000685916
3.57569e-10
0.000685916
3.1909e-10
0.000685916
2.83772e-10
0.000685916
2.52714e-10
0.000685916
2.25457e-10
0.000685917
2.00342e-10
0.000685917
1.77613e-10
0.000685917
1.58214e-10
0.000685917
1.41326e-10
0.000685917
1.25511e-10
0.000685917
1.10667e-10
0.000685917
9.74473e-11
0.000685917
8.59072e-11
0.000685917
7.56184e-11
0.000685917
6.63953e-11
0.000685917
5.83195e-11
0.000685917
5.13972e-11
0.000685917
4.54701e-11
0.000685917
4.03642e-11
0.000685917
3.59576e-11
0.000685917
3.2156e-11
0.000685917
2.88624e-11
0.000685917
2.59925e-11
0.000685917
2.3479e-11
0.000685917
2.12757e-11
0.000685917
1.9344e-11
0.000685917
1.76561e-11
0.000685917
1.61869e-11
0.000685917
1.49183e-11
0.000685917
1.38327e-11
0.000685917
1.29178e-11
0.000685917
1.21596e-11
0.000685917
1.1548e-11
0.000685917
1.10708e-11
0.000685917
1.07193e-11
0.000685917
1.04823e-11
0.000685917
1.03523e-11
0.000685917
1.03192e-11
0.000685917
1.03759e-11
0.000685917
1.05125e-11
0.000685917
1.07229e-11
0.000685917
1.09986e-11
0.000685917
1.13362e-11
0.000685917
1.17281e-11
0.000685917
1.21745e-11
0.000685917
1.26651e-11
0.000685917
1.32068e-11
0.000685917
1.37795e-11
0.000685917
1.44111e-11
0.000685917
1.50543e-11
0.000685917
1.57856e-11
0.000685917
1.64907e-11
0.000685917
1.73371e-11
0.000685917
1.8104e-11
0.000685917
1.9063e-11
0.000685917
1.99425e-11
0.000685917
2.09438e-11
0.000685917
2.20842e-11
0.000685917
2.29797e-11
0.000685917
2.45344e-11
0.000685917
2.53371e-11
0.000685917
2.70776e-11
0.000685917
2.83721e-11
0.000685917
2.95202e-11
0.000685917
3.20455e-11
0.000685917
3.24281e-11
0.000685917
3.5524e-11
0.000685917
3.65725e-11
0.000685917
3.88544e-11
0.000685917
4.09743e-11
0.000685917
4.35197e-11
0.000685917
4.49497e-11
0.000685917
4.8809e-11
0.000685917
5.00958e-11
0.000685917
5.40601e-11
0.000685917
5.55637e-11
0.000685917
6.05818e-11
0.000685917
6.16403e-11
0.000685917
6.71862e-11
0.000685917
6.85854e-11
0.000685917
7.53679e-11
0.000685917
7.58461e-11
8.39977e-11
0.000685914
3.4529e-10
0.000685915
3.06111e-10
0.000685915
2.72664e-10
0.000685915
2.42962e-10
0.000685915
2.15488e-10
0.000685916
1.91787e-10
0.000685916
1.70916e-10
0.000685916
1.51131e-10
0.000685916
1.33324e-10
0.000685916
1.1875e-10
0.000685916
1.05597e-10
0.000685916
9.26507e-11
0.000685917
8.14008e-11
0.000685917
7.25655e-11
0.000685917
6.47377e-11
0.000685917
5.67225e-11
0.000685917
4.9026e-11
0.000685917
4.23683e-11
0.000685917
3.67001e-11
0.000685917
3.1731e-11
0.000685917
2.73785e-11
0.000685917
2.3627e-11
0.000685917
2.03841e-11
0.000685917
1.75587e-11
0.000685917
1.51443e-11
0.000685917
1.31539e-11
0.000685917
1.15678e-11
0.000685917
1.03222e-11
0.000685917
9.34668e-12
0.000685917
8.57291e-12
0.000685917
7.95198e-12
0.000685917
7.44543e-12
0.000685917
7.03411e-12
0.000685917
6.70378e-12
0.000685917
6.45154e-12
0.000685917
6.27193e-12
0.000685917
6.16586e-12
0.000685917
6.12916e-12
0.000685917
6.16279e-12
0.000685917
6.26231e-12
0.000685917
6.42773e-12
0.000685917
6.65255e-12
0.000685917
6.93521e-12
0.000685917
7.26996e-12
0.000685917
7.65641e-12
0.000685917
8.08848e-12
0.000685917
8.56549e-12
0.000685917
9.08045e-12
0.000685917
9.63265e-12
0.000685917
1.02146e-11
0.000685917
1.08294e-11
0.000685917
1.1469e-11
0.000685917
1.21451e-11
0.000685917
1.28389e-11
0.000685917
1.35794e-11
0.000685917
1.43187e-11
0.000685917
1.5135e-11
0.000685917
1.59156e-11
0.000685917
1.68295e-11
0.000685917
1.7658e-11
0.000685917
1.86722e-11
0.000685917
1.96017e-11
0.000685917
2.06493e-11
0.000685917
2.18284e-11
0.000685917
2.27656e-11