/*--------------------------------*- C++ -*----------------------------------*\
| =========                 |                                                 |
| \\      /  F ield         | OpenFOAM: The Open Source CFD Toolbox           |
|  \\    /   O peration     | Version:  2312                                  |
|   \\  /    A nd           | Website:  www.openfoam.com                      |
|    \\/     M anipulation  |                                                 |
\*---------------------------------------------------------------------------*/
FoamFile
{
    version     2.0;
    format      ascii;
    arch        "LSB;label=32;scalar=64";
    class       volVectorField;
    location    "22000";
    object      U;
}
// * * * * * * * * * * * * * * * * * * * * * * * * * * * * * * * * * * * * * //

dimensions      [0 1 -1 0 0 0 0];

internalField   nonuniform List<vector> 
10800
(
(0.000992484 4.94159e-06 0)
(0.000990039 1.24568e-05 0)
(0.000986874 1.74774e-05 0)
(0.000980503 2.06604e-05 0)
(0.000971093 2.27426e-05 0)
(0.000959807 2.42352e-05 0)
(0.00094771 2.53731e-05 0)
(0.000935339 2.62311e-05 0)
(0.000922836 2.68334e-05 0)
(0.000910179 2.7205e-05 0)
(0.000897323 2.73838e-05 0)
(0.000884266 2.74124e-05 0)
(0.000871043 2.73289e-05 0)
(0.00085771 2.71613e-05 0)
(0.000844318 2.69277e-05 0)
(0.000830907 2.66398e-05 0)
(0.000817502 2.63054e-05 0)
(0.000804122 2.59311e-05 0)
(0.000790783 2.55224e-05 0)
(0.0007775 2.5084e-05 0)
(0.000764288 2.46196e-05 0)
(0.000751164 2.41322e-05 0)
(0.000738142 2.36238e-05 0)
(0.000725237 2.30963e-05 0)
(0.000712462 2.25504e-05 0)
(0.000699831 2.19875e-05 0)
(0.000687358 2.14077e-05 0)
(0.000675054 2.08124e-05 0)
(0.000662936 2.02006e-05 0)
(0.000651014 1.95743e-05 0)
(0.000639304 1.8932e-05 0)
(0.000627817 1.82761e-05 0)
(0.00061657 1.76037e-05 0)
(0.000605573 1.69191e-05 0)
(0.000594845 1.62178e-05 0)
(0.000584392 1.55064e-05 0)
(0.000574239 1.47766e-05 0)
(0.000564384 1.40398e-05 0)
(0.000554864 1.32837e-05 0)
(0.00054566 1.25269e-05 0)
(0.00053683 1.17456e-05 0)
(0.000528325 1.09703e-05 0)
(0.000520249 1.01638e-05 0)
(0.000512484 9.38099e-06 0)
(0.000505232 8.55655e-06 0)
(0.000498224 7.77448e-06 0)
(0.000491898 6.91954e-06 0)
(0.000485616 6.13385e-06 0)
(0.000480402 5.24552e-06 0)
(0.000474675 4.4795e-06 0)
(0.000470993 3.59773e-06 0)
(0.000465233 2.83051e-06 0)
(0.000464203 2.01562e-06 0)
(0.00045664 9.47083e-07 0)
(0.000461507 5.00465e-07 0)
(0.000446905 -2.00902e-06 0)
(0.000467035 -4.74254e-07 0)
(0.000430539 -8.38475e-06 0)
(0.000490781 1.45222e-06 0)
(0.000395716 -2.43931e-05 0)
(0.00100003 5.80122e-06 0)
(0.00100172 1.49895e-05 0)
(0.00100423 2.15177e-05 0)
(0.00100706 2.6078e-05 0)
(0.00100979 2.94331e-05 0)
(0.0010122 3.21111e-05 0)
(0.00101422 3.43597e-05 0)
(0.0010159 3.62652e-05 0)
(0.00101728 3.78603e-05 0)
(0.00101839 3.91754e-05 0)
(0.00101925 4.02519e-05 0)
(0.00101985 4.11355e-05 0)
(0.00102018 4.18666e-05 0)
(0.00102024 4.24753e-05 0)
(0.00102006 4.29814e-05 0)
(0.00101964 4.33975e-05 0)
(0.001019 4.37321e-05 0)
(0.00101815 4.39919e-05 0)
(0.0010171 4.41823e-05 0)
(0.00101586 4.43077e-05 0)
(0.00101444 4.43718e-05 0)
(0.00101285 4.43769e-05 0)
(0.00101111 4.4325e-05 0)
(0.00100921 4.42168e-05 0)
(0.00100718 4.40534e-05 0)
(0.00100501 4.38344e-05 0)
(0.00100273 4.35605e-05 0)
(0.00100032 4.32305e-05 0)
(0.000997848 4.28455e-05 0)
(0.000995242 4.24028e-05 0)
(0.000992605 4.1905e-05 0)
(0.000989834 4.13469e-05 0)
(0.000987087 4.07342e-05 0)
(0.000984181 4.00577e-05 0)
(0.000981378 3.93285e-05 0)
(0.000978361 3.853e-05 0)
(0.00097557 3.76835e-05 0)
(0.000972456 3.6759e-05 0)
(0.000969761 3.57971e-05 0)
(0.000966544 3.47419e-05 0)
(0.000964061 3.36691e-05 0)
(0.000960698 3.24757e-05 0)
(0.000958593 3.13018e-05 0)
(0.000954976 2.99587e-05 0)
(0.000953504 2.87032e-05 0)
(0.000949417 2.71884e-05 0)
(0.000948982 2.58837e-05 0)
(0.000944009 2.41541e-05 0)
(0.000945264 2.2858e-05 0)
(0.00093864 2.08395e-05 0)
(0.000942686 1.96511e-05 0)
(0.000933064 1.72092e-05 0)
(0.000941772 1.62856e-05 0)
(0.000926772 1.31863e-05 0)
(0.000943273 1.27731e-05 0)
(0.000918697 8.65795e-06 0)
(0.000948265 9.06922e-06 0)
(0.000906836 3.54867e-06 0)
(0.000958586 4.78207e-06 0)
(0.000888151 -1.67252e-06 0)
(0.000999989 1.96146e-06 0)
(0.00100078 5.76056e-06 0)
(0.00100224 9.28298e-06 0)
(0.00100423 1.24448e-05 0)
(0.00100654 1.52433e-05 0)
(0.00100897 1.77235e-05 0)
(0.0010114 1.99401e-05 0)
(0.00101377 2.1936e-05 0)
(0.00101608 2.37384e-05 0)
(0.00101834 2.5364e-05 0)
(0.00102056 2.68257e-05 0)
(0.00102274 2.8137e-05 0)
(0.00102486 2.93121e-05 0)
(0.00102691 3.03647e-05 0)
(0.0010289 3.13072e-05 0)
(0.00103083 3.21491e-05 0)
(0.00103268 3.28986e-05 0)
(0.00103447 3.35611e-05 0)
(0.00103621 3.4142e-05 0)
(0.00103788 3.46445e-05 0)
(0.0010395 3.50729e-05 0)
(0.00104105 3.54283e-05 0)
(0.00104256 3.57145e-05 0)
(0.00104401 3.59306e-05 0)
(0.00104541 3.60804e-05 0)
(0.00104675 3.61609e-05 0)
(0.00104805 3.61768e-05 0)
(0.00104929 3.61219e-05 0)
(0.0010505 3.60039e-05 0)
(0.00105163 3.58122e-05 0)
(0.00105277 3.55591e-05 0)
(0.0010538 3.52271e-05 0)
(0.00105486 3.48366e-05 0)
(0.00105579 3.43599e-05 0)
(0.0010568 3.383e-05 0)
(0.00105761 3.32038e-05 0)
(0.0010586 3.25326e-05 0)
(0.00105929 3.17511e-05 0)
(0.00106029 3.09381e-05 0)
(0.00106083 2.99956e-05 0)
(0.0010619 2.90431e-05 0)
(0.00106225 2.79323e-05 0)
(0.00106345 2.68458e-05 0)
(0.00106354 2.55579e-05 0)
(0.00106501 2.43488e-05 0)
(0.00106472 2.28737e-05 0)
(0.00106663 2.15588e-05 0)
(0.00106578 1.98851e-05 0)
(0.00106839 1.84884e-05 0)
(0.00106668 1.66073e-05 0)
(0.00107041 1.51624e-05 0)
(0.00106735 1.30691e-05 0)
(0.00107282 1.1616e-05 0)
(0.00106767 9.313e-06 0)
(0.00107582 7.89639e-06 0)
(0.00106741 5.43099e-06 0)
(0.00107968 4.10451e-06 0)
(0.00106623 1.67644e-06 0)
(0.00108483 4.72823e-07 0)
(0.00106369 -1.39595e-06 0)
(0.00100001 1.74032e-06 0)
(0.00100047 5.15521e-06 0)
(0.00100128 8.41299e-06 0)
(0.00100239 1.14373e-05 0)
(0.00100374 1.41873e-05 0)
(0.00100526 1.666e-05 0)
(0.00100689 1.88769e-05 0)
(0.00100859 2.08677e-05 0)
(0.00101034 2.26596e-05 0)
(0.00101212 2.42732e-05 0)
(0.00101395 2.5724e-05 0)
(0.00101579 2.70248e-05 0)
(0.00101765 2.81879e-05 0)
(0.00101953 2.9225e-05 0)
(0.00102141 3.01477e-05 0)
(0.00102329 3.09662e-05 0)
(0.00102517 3.16894e-05 0)
(0.00102705 3.2324e-05 0)
(0.00102893 3.28763e-05 0)
(0.0010308 3.33506e-05 0)
(0.00103267 3.37511e-05 0)
(0.00103454 3.40802e-05 0)
(0.0010364 3.43414e-05 0)
(0.00103825 3.45352e-05 0)
(0.00104011 3.46647e-05 0)
(0.00104195 3.47287e-05 0)
(0.00104379 3.47302e-05 0)
(0.00104562 3.4666e-05 0)
(0.00104745 3.45403e-05 0)
(0.00104926 3.43472e-05 0)
(0.00105108 3.40929e-05 0)
(0.00105287 3.37681e-05 0)
(0.00105468 3.33823e-05 0)
(0.00105645 3.2922e-05 0)
(0.00105824 3.24007e-05 0)
(0.00105997 3.18004e-05 0)
(0.00106176 3.11393e-05 0)
(0.00106345 3.03942e-05 0)
(0.00106523 2.95882e-05 0)
(0.00106688 2.8694e-05 0)
(0.00106865 2.77391e-05 0)
(0.00107025 2.66921e-05 0)
(0.00107203 2.55844e-05 0)
(0.00107355 2.43821e-05 0)
(0.00107537 2.31176e-05 0)
(0.0010768 2.17608e-05 0)
(0.00107867 2.03354e-05 0)
(0.00107999 1.88319e-05 0)
(0.00108197 1.72399e-05 0)
(0.00108314 1.56071e-05 0)
(0.00108527 1.38394e-05 0)
(0.00108623 1.21131e-05 0)
(0.00108861 1.01608e-05 0)
(0.00108928 8.41176e-06 0)
(0.00109202 6.26438e-06 0)
(0.00109226 4.61549e-06 0)
(0.00109554 2.24339e-06 0)
(0.00109518 8.88047e-07 0)
(0.00109925 -1.79693e-06 0)
(0.00109799 -2.58741e-06 0)
(0.001 1.15164e-06 0)
(0.00100023 3.42728e-06 0)
(0.00100067 5.63714e-06 0)
(0.00100134 7.74948e-06 0)
(0.0010022 9.7429e-06 0)
(0.00100324 1.1607e-05 0)
(0.00100441 1.33405e-05 0)
(0.00100569 1.49473e-05 0)
(0.00100705 1.64335e-05 0)
(0.00100848 1.7805e-05 0)
(0.00100997 1.90673e-05 0)
(0.00101149 2.0225e-05 0)
(0.00101306 2.1283e-05 0)
(0.00101465 2.2246e-05 0)
(0.00101627 2.31188e-05 0)
(0.00101791 2.39063e-05 0)
(0.00101957 2.46126e-05 0)
(0.00102124 2.52418e-05 0)
(0.00102291 2.57969e-05 0)
(0.0010246 2.62807e-05 0)
(0.0010263 2.66954e-05 0)
(0.001028 2.70429e-05 0)
(0.0010297 2.73247e-05 0)
(0.00103142 2.75418e-05 0)
(0.00103313 2.76951e-05 0)
(0.00103485 2.77851e-05 0)
(0.00103657 2.78119e-05 0)
(0.0010383 2.77757e-05 0)
(0.00104002 2.7676e-05 0)
(0.00104175 2.75127e-05 0)
(0.00104348 2.72847e-05 0)
(0.0010452 2.69919e-05 0)
(0.00104693 2.66323e-05 0)
(0.00104865 2.62067e-05 0)
(0.00105037 2.57112e-05 0)
(0.00105208 2.51492e-05 0)
(0.00105379 2.45126e-05 0)
(0.0010555 2.381e-05 0)
(0.00105719 2.30259e-05 0)
(0.00105889 2.21794e-05 0)
(0.00106056 2.12411e-05 0)
(0.00106224 2.02486e-05 0)
(0.00106389 1.91484e-05 0)
(0.00106556 1.80095e-05 0)
(0.00106718 1.67377e-05 0)
(0.00106884 1.54561e-05 0)
(0.00107043 1.40022e-05 0)
(0.00107208 1.25885e-05 0)
(0.00107362 1.09377e-05 0)
(0.00107529 9.41011e-06 0)
(0.0010768 7.53788e-06 0)
(0.00107853 5.92758e-06 0)
(0.00107999 3.79638e-06 0)
(0.00108186 2.15587e-06 0)
(0.00108328 -2.89829e-07 0)
(0.00108537 -1.87043e-06 0)
(0.00108672 -4.70887e-06 0)
(0.00108912 -6.07927e-06 0)
(0.00109027 -9.43494e-06 0)
(0.00109298 -1.03853e-05 0)
(0.001 9.25595e-07 0)
(0.00100017 2.76781e-06 0)
(0.00100051 4.58256e-06 0)
(0.001001 6.35092e-06 0)
(0.00100165 8.0554e-06 0)
(0.00100242 9.68207e-06 0)
(0.00100331 1.12216e-05 0)
(0.0010043 1.26691e-05 0)
(0.00100537 1.4023e-05 0)
(0.00100651 1.52837e-05 0)
(0.0010077 1.64525e-05 0)
(0.00100895 1.75314e-05 0)
(0.00101024 1.85225e-05 0)
(0.00101158 1.94284e-05 0)
(0.00101294 2.02517e-05 0)
(0.00101434 2.09954e-05 0)
(0.00101576 2.16622e-05 0)
(0.0010172 2.22549e-05 0)
(0.00101866 2.2776e-05 0)
(0.00102013 2.32278e-05 0)
(0.00102162 2.3612e-05 0)
(0.00102312 2.39305e-05 0)
(0.00102463 2.41844e-05 0)
(0.00102615 2.43753e-05 0)
(0.00102768 2.45033e-05 0)
(0.00102921 2.457e-05 0)
(0.00103075 2.45745e-05 0)
(0.00103229 2.45185e-05 0)
(0.00103384 2.44001e-05 0)
(0.00103538 2.42213e-05 0)
(0.00103693 2.3979e-05 0)
(0.00103848 2.36759e-05 0)
(0.00104002 2.3307e-05 0)
(0.00104157 2.2877e-05 0)
(0.0010431 2.23779e-05 0)
(0.00104464 2.18177e-05 0)
(0.00104616 2.11835e-05 0)
(0.00104769 2.04892e-05 0)
(0.0010492 1.97139e-05 0)
(0.00105072 1.88814e-05 0)
(0.00105221 1.79581e-05 0)
(0.00105371 1.69843e-05 0)
(0.00105517 1.59045e-05 0)
(0.00105668 1.47866e-05 0)
(0.00105811 1.35396e-05 0)
(0.00105961 1.22769e-05 0)
(0.00106101 1.08503e-05 0)
(0.00106253 9.44554e-06 0)
(0.00106389 7.82299e-06 0)
(0.00106545 6.28375e-06 0)
(0.00106674 4.44349e-06 0)
(0.00106837 2.78762e-06 0)
(0.00106958 6.99984e-07 0)
(0.00107131 -1.04433e-06 0)
(0.00107242 -3.43522e-06 0)
(0.00107437 -5.23574e-06 0)
(0.00107535 -8.02688e-06 0)
(0.00107763 -9.83251e-06 0)
(0.00107836 -1.31544e-05 0)
(0.00108096 -1.486e-05 0)
(0.001 7.31184e-07 0)
(0.00100013 2.18676e-06 0)
(0.00100037 3.62254e-06 0)
(0.00100074 5.02581e-06 0)
(0.00100121 6.38513e-06 0)
(0.0010018 7.69112e-06 0)
(0.00100248 8.93685e-06 0)
(0.00100326 1.01178e-05 0)
(0.00100411 1.12313e-05 0)
(0.00100503 1.22763e-05 0)
(0.00100601 1.32524e-05 0)
(0.00100704 1.41601e-05 0)
(0.00100812 1.49999e-05 0)
(0.00100925 1.57728e-05 0)
(0.00101042 1.64796e-05 0)
(0.00101162 1.71216e-05 0)
(0.00101284 1.76999e-05 0)
(0.0010141 1.82158e-05 0)
(0.00101538 1.86704e-05 0)
(0.00101667 1.9065e-05 0)
(0.00101799 1.94002e-05 0)
(0.00101932 1.96773e-05 0)
(0.00102066 1.98965e-05 0)
(0.00102201 2.00587e-05 0)
(0.00102337 2.01637e-05 0)
(0.00102474 2.02125e-05 0)
(0.00102611 2.0204e-05 0)
(0.00102749 2.01393e-05 0)
(0.00102887 2.00166e-05 0)
(0.00103025 1.98374e-05 0)
(0.00103163 1.95985e-05 0)
(0.001033 1.93023e-05 0)
(0.00103437 1.8944e-05 0)
(0.00103574 1.85277e-05 0)
(0.0010371 1.80456e-05 0)
(0.00103846 1.75048e-05 0)
(0.0010398 1.68934e-05 0)
(0.00104114 1.6223e-05 0)
(0.00104246 1.54754e-05 0)
(0.00104378 1.46698e-05 0)
(0.00104507 1.37778e-05 0)
(0.00104637 1.28308e-05 0)
(0.00104763 1.1784e-05 0)
(0.0010489 1.06892e-05 0)
(0.00105012 9.47465e-06 0)
(0.00105138 8.22581e-06 0)
(0.00105255 6.82757e-06 0)
(0.0010538 5.41891e-06 0)
(0.00105491 3.81483e-06 0)
(0.00105618 2.24019e-06 0)
(0.00105725 3.99926e-07 0)
(0.00105856 -1.34176e-06 0)
(0.00105959 -3.45194e-06 0)
(0.001061 -5.34427e-06 0)
(0.00106194 -7.76773e-06 0)
(0.00106349 -9.78749e-06 0)
(0.00106431 -1.26027e-05 0)
(0.00106606 -1.47243e-05 0)
(0.00106665 -1.80573e-05 0)
(0.00106857 -2.0224e-05 0)
(0.001 5.8231e-07 0)
(0.0010001 1.74269e-06 0)
(0.00100029 2.8909e-06 0)
(0.00100057 4.01903e-06 0)
(0.00100095 5.11956e-06 0)
(0.00100142 6.18575e-06 0)
(0.00100196 7.21193e-06 0)
(0.00100259 8.19363e-06 0)
(0.00100329 9.12747e-06 0)
(0.00100405 1.00111e-05 0)
(0.00100486 1.08429e-05 0)
(0.00100574 1.16219e-05 0)
(0.00100666 1.23475e-05 0)
(0.00100762 1.30193e-05 0)
(0.00100863 1.36372e-05 0)
(0.00100966 1.42012e-05 0)
(0.00101073 1.47114e-05 0)
(0.00101183 1.51681e-05 0)
(0.00101295 1.55715e-05 0)
(0.00101409 1.59222e-05 0)
(0.00101525 1.62202e-05 0)
(0.00101643 1.6466e-05 0)
(0.00101762 1.66595e-05 0)
(0.00101882 1.68012e-05 0)
(0.00102002 1.68907e-05 0)
(0.00102124 1.69283e-05 0)
(0.00102246 1.69133e-05 0)
(0.00102368 1.6846e-05 0)
(0.00102491 1.67251e-05 0)
(0.00102613 1.65513e-05 0)
(0.00102735 1.63222e-05 0)
(0.00102857 1.6039e-05 0)
(0.00102978 1.56982e-05 0)
(0.00103099 1.5302e-05 0)
(0.00103218 1.48451e-05 0)
(0.00103336 1.43311e-05 0)
(0.00103453 1.37523e-05 0)
(0.00103569 1.31146e-05 0)
(0.00103683 1.24069e-05 0)
(0.00103796 1.16386e-05 0)
(0.00103906 1.07935e-05 0)
(0.00104016 9.88671e-06 0)
(0.00104122 8.89345e-06 0)
(0.00104228 7.83906e-06 0)
(0.00104329 6.68493e-06 0)
(0.00104432 5.47335e-06 0)
(0.00104528 4.14337e-06 0)
(0.00104628 2.76408e-06 0)
(0.00104718 1.23926e-06 0)
(0.00104816 -3.20108e-07 0)
(0.00104899 -2.06496e-06 0)
(0.00104996 -3.81849e-06 0)
(0.00105072 -5.82195e-06 0)
(0.00105172 -7.78884e-06 0)
(0.0010524 -1.01018e-05 0)
(0.00105347 -1.22958e-05 0)
(0.00105403 -1.49805e-05 0)
(0.0010552 -1.74071e-05 0)
(0.00105552 -2.05488e-05 0)
(0.00105671 -2.32005e-05 0)
(0.001 4.64939e-07 0)
(0.00100008 1.392e-06 0)
(0.00100024 2.3109e-06 0)
(0.00100047 3.21626e-06 0)
(0.00100078 4.10279e-06 0)
(0.00100116 4.96558e-06 0)
(0.00100161 5.80022e-06 0)
(0.00100214 6.60297e-06 0)
(0.00100272 7.37069e-06 0)
(0.00100336 8.10085e-06 0)
(0.00100405 8.79135e-06 0)
(0.0010048 9.44057e-06 0)
(0.00100559 1.00472e-05 0)
(0.00100642 1.06104e-05 0)
(0.00100729 1.11294e-05 0)
(0.00100819 1.16039e-05 0)
(0.00100913 1.20334e-05 0)
(0.00101009 1.24178e-05 0)
(0.00101108 1.27569e-05 0)
(0.00101208 1.30508e-05 0)
(0.00101311 1.32993e-05 0)
(0.00101415 1.35023e-05 0)
(0.00101521 1.36598e-05 0)
(0.00101627 1.37716e-05 0)
(0.00101735 1.38373e-05 0)
(0.00101843 1.3857e-05 0)
(0.00101951 1.38299e-05 0)
(0.0010206 1.37558e-05 0)
(0.00102168 1.3634e-05 0)
(0.00102277 1.3464e-05 0)
(0.00102385 1.32445e-05 0)
(0.00102492 1.29755e-05 0)
(0.00102598 1.26547e-05 0)
(0.00102703 1.22824e-05 0)
(0.00102807 1.18556e-05 0)
(0.0010291 1.13748e-05 0)
(0.00103011 1.08359e-05 0)
(0.0010311 1.024e-05 0)
(0.00103207 9.58165e-06 0)
(0.00103302 8.86281e-06 0)
(0.00103394 8.07603e-06 0)
(0.00103485 7.22467e-06 0)
(0.00103571 6.29812e-06 0)
(0.00103656 5.30253e-06 0)
(0.00103736 4.22229e-06 0)
(0.00103815 3.06847e-06 0)
(0.00103888 1.81723e-06 0)
(0.00103961 4.87839e-07 0)
(0.00104026 -9.55586e-07 0)
(0.00104095 -2.47928e-06 0)
(0.00104152 -4.13742e-06 0)
(0.00104215 -5.87496e-06 0)
(0.00104262 -7.77902e-06 0)
(0.00104322 -9.76008e-06 0)
(0.00104358 -1.19559e-05 0)
(0.00104416 -1.42159e-05 0)
(0.00104437 -1.67588e-05 0)
(0.00104495 -1.93321e-05 0)
(0.00104493 -2.22863e-05 0)
(0.00104541 -2.51993e-05 0)
(0.001 3.67819e-07 0)
(0.00100007 1.10142e-06 0)
(0.0010002 1.82922e-06 0)
(0.0010004 2.54739e-06 0)
(0.00100066 3.25214e-06 0)
(0.00100098 3.93987e-06 0)
(0.00100137 4.60722e-06 0)
(0.00100181 5.2512e-06 0)
(0.00100231 5.86918e-06 0)
(0.00100286 6.45887e-06 0)
(0.00100346 7.01832e-06 0)
(0.0010041 7.5459e-06 0)
(0.00100479 8.04025e-06 0)
(0.00100552 8.50027e-06 0)
(0.00100628 8.9251e-06 0)
(0.00100707 9.31401e-06 0)
(0.0010079 9.66645e-06 0)
(0.00100875 9.98194e-06 0)
(0.00100962 1.02601e-05 0)
(0.00101052 1.05006e-05 0)
(0.00101143 1.07031e-05 0)
(0.00101236 1.08673e-05 0)
(0.0010133 1.09929e-05 0)
(0.00101425 1.10795e-05 0)
(0.00101521 1.11268e-05 0)
(0.00101617 1.11343e-05 0)
(0.00101714 1.11016e-05 0)
(0.0010181 1.10279e-05 0)
(0.00101907 1.09128e-05 0)
(0.00102003 1.07554e-05 0)
(0.00102098 1.05549e-05 0)
(0.00102193 1.03102e-05 0)
(0.00102286 1.00204e-05 0)
(0.00102378 9.68408e-06 0)
(0.00102468 9.30023e-06 0)
(0.00102557 8.86681e-06 0)
(0.00102643 8.38285e-06 0)
(0.00102727 7.84546e-06 0)
(0.00102808 7.25406e-06 0)
(0.00102887 6.60436e-06 0)
(0.00102962 5.89664e-06 0)
(0.00103034 5.12426e-06 0)
(0.00103103 4.28919e-06 0)
(0.00103168 3.38144e-06 0)
(0.00103228 2.40595e-06 0)
(0.00103285 1.34773e-06 0)
(0.00103336 2.16263e-07 0)
(0.00103385 -1.01121e-06 0)
(0.00103425 -2.31751e-06 0)
(0.00103465 -3.73805e-06 0)
(0.00103494 -5.24441e-06 0)
(0.00103524 -6.89051e-06 0)
(0.0010354 -8.62607e-06 0)
(0.0010356 -1.05348e-05 0)
(0.0010356 -1.25342e-05 0)
(0.00103571 -1.47538e-05 0)
(0.00103553 -1.70589e-05 0)
(0.00103553 -1.96473e-05 0)
(0.00103507 -2.23007e-05 0)
(0.00103488 -2.53206e-05 0)
(0.001 2.84969e-07 0)
(0.00100006 8.53422e-07 0)
(0.00100017 1.41768e-06 0)
(0.00100034 1.97501e-06 0)
(0.00100057 2.52265e-06 0)
(0.00100085 3.05796e-06 0)
(0.00100119 3.57844e-06 0)
(0.00100157 4.08179e-06 0)
(0.00100201 4.56592e-06 0)
(0.00100249 5.02896e-06 0)
(0.00100302 5.4693e-06 0)
(0.00100359 5.88548e-06 0)
(0.0010042 6.27628e-06 0)
(0.00100484 6.64062e-06 0)
(0.00100552 6.97761e-06 0)
(0.00100622 7.28644e-06 0)
(0.00100696 7.56649e-06 0)
(0.00100772 7.81712e-06 0)
(0.0010085 8.03787e-06 0)
(0.00100931 8.22822e-06 0)
(0.00101013 8.38779e-06 0)
(0.00101096 8.51607e-06 0)
(0.00101181 8.61276e-06 0)
(0.00101266 8.67729e-06 0)
(0.00101352 8.70935e-06 0)
(0.00101439 8.70823e-06 0)
(0.00101525 8.67364e-06 0)
(0.00101612 8.60466e-06 0)
(0.00101698 8.501e-06 0)
(0.00101783 8.36143e-06 0)
(0.00101868 8.18568e-06 0)
(0.00101951 7.97207e-06 0)
(0.00102033 7.72051e-06 0)
(0.00102113 7.42862e-06 0)
(0.00102191 7.09666e-06 0)
(0.00102267 6.72118e-06 0)
(0.00102341 6.30315e-06 0)
(0.00102411 5.83742e-06 0)
(0.00102479 5.32645e-06 0)
(0.00102543 4.76236e-06 0)
(0.00102603 4.15012e-06 0)
(0.00102659 3.47747e-06 0)
(0.00102711 2.75372e-06 0)
(0.00102758 1.95982e-06 0)
(0.00102799 1.11241e-06 0)
(0.00102836 1.81705e-07 0)
(0.00102866 -8.03781e-07 0)
(0.00102892 -1.8906e-06 0)
(0.00102909 -3.03154e-06 0)
(0.00102922 -4.30064e-06 0)
(0.00102924 -5.6191e-06 0)
(0.00102922 -7.10372e-06 0)
(0.00102907 -8.62411e-06 0)
(0.00102889 -1.03662e-05 0)
(0.00102855 -1.21168e-05 0)
(0.0010282 -1.41717e-05 0)
(0.00102761 -1.61834e-05 0)
(0.00102707 -1.86216e-05 0)
(0.00102617 -2.09207e-05 0)
(0.00102533 -2.38264e-05 0)
(0.001 2.12339e-07 0)
(0.00100005 6.35953e-07 0)
(0.00100015 1.05659e-06 0)
(0.00100031 1.47229e-06 0)
(0.00100051 1.88113e-06 0)
(0.00100076 2.28119e-06 0)
(0.00100106 2.67066e-06 0)
(0.0010014 3.04785e-06 0)
(0.00100179 3.41119e-06 0)
(0.00100223 3.75927e-06 0)
(0.0010027 4.09081e-06 0)
(0.00100321 4.40463e-06 0)
(0.00100376 4.69972e-06 0)
(0.00100434 4.97515e-06 0)
(0.00100495 5.23015e-06 0)
(0.00100559 5.46395e-06 0)
(0.00100626 5.67597e-06 0)
(0.00100695 5.8656e-06 0)
(0.00100766 6.03236e-06 0)
(0.00100839 6.17573e-06 0)
(0.00100914 6.29532e-06 0)
(0.0010099 6.39062e-06 0)
(0.00101067 6.46131e-06 0)
(0.00101144 6.50681e-06 0)
(0.00101223 6.52686e-06 0)
(0.00101301 6.52072e-06 0)
(0.0010138 6.48819e-06 0)
(0.00101458 6.42832e-06 0)
(0.00101535 6.34099e-06 0)
(0.00101612 6.22488e-06 0)
(0.00101688 6.08005e-06 0)
(0.00101762 5.90465e-06 0)
(0.00101835 5.69903e-06 0)
(0.00101905 5.46057e-06 0)
(0.00101973 5.19019e-06 0)
(0.00102039 4.88398e-06 0)
(0.00102101 4.54392e-06 0)
(0.0010216 4.16412e-06 0)
(0.00102216 3.74848e-06 0)
(0.00102268 3.28788e-06 0)
(0.00102315 2.78951e-06 0)
(0.00102357 2.23903e-06 0)
(0.00102394 1.64924e-06 0)
(0.00102426 9.97553e-07 0)
(0.00102452 3.0611e-07 0)
(0.00102471 -4.60804e-07 0)
(0.00102483 -1.26606e-06 0)
(0.00102488 -2.16647e-06 0)
(0.00102485 -3.10123e-06 0)
(0.00102473 -4.16018e-06 0)
(0.00102451 -5.24231e-06 0)
(0.00102421 -6.49072e-06 0)
(0.00102378 -7.73949e-06 0)
(0.00102327 -9.21826e-06 0)
(0.0010226 -1.06555e-05 0)
(0.00102184 -1.24198e-05 0)
(0.00102088 -1.40671e-05 0)
(0.00101984 -1.61895e-05 0)
(0.00101851 -1.80608e-05 0)
(0.00101711 -2.06326e-05 0)
(0.001 1.46923e-07 0)
(0.00100005 4.40048e-07 0)
(0.00100014 7.31171e-07 0)
(0.00100028 1.01899e-06 0)
(0.00100046 1.3022e-06 0)
(0.00100069 1.57951e-06 0)
(0.00100097 1.84971e-06 0)
(0.00100128 2.11162e-06 0)
(0.00100164 2.36417e-06 0)
(0.00100204 2.60634e-06 0)
(0.00100247 2.83723e-06 0)
(0.00100294 3.05598e-06 0)
(0.00100345 3.26185e-06 0)
(0.00100398 3.45413e-06 0)
(0.00100455 3.63222e-06 0)
(0.00100514 3.79553e-06 0)
(0.00100576 3.94358e-06 0)
(0.0010064 4.07589e-06 0)
(0.00100706 4.19207e-06 0)
(0.00100773 4.29166e-06 0)
(0.00100843 4.37437e-06 0)
(0.00100913 4.43974e-06 0)
(0.00100984 4.48754e-06 0)
(0.00101056 4.51724e-06 0)
(0.00101128 4.52867e-06 0)
(0.00101201 4.52119e-06 0)
(0.00101273 4.49468e-06 0)
(0.00101345 4.44831e-06 0)
(0.00101416 4.38208e-06 0)
(0.00101486 4.29484e-06 0)
(0.00101555 4.18675e-06 0)
(0.00101622 4.05621e-06 0)
(0.00101687 3.90371e-06 0)
(0.0010175 3.72691e-06 0)
(0.00101811 3.5269e-06 0)
(0.00101868 3.30018e-06 0)
(0.00101922 3.04886e-06 0)
(0.00101973 2.76765e-06 0)
(0.00102019 2.46046e-06 0)
(0.00102061 2.11909e-06 0)
(0.00102098 1.75051e-06 0)
(0.00102129 1.34183e-06 0)
(0.00102155 9.05172e-07 0)
(0.00102174 4.20187e-07 0)
(0.00102187 -9.24141e-08 0)
(0.00102192 -6.64947e-07 0)
(0.0010219 -1.263e-06 0)
(0.00102179 -1.93846e-06 0)
(0.00102158 -2.63401e-06 0)
(0.00102127 -3.43221e-06 0)
(0.00102085 -4.23834e-06 0)
(0.00102033 -5.18463e-06 0)
(0.00101966 -6.11556e-06 0)
(0.00101888 -7.24419e-06 0)
(0.00101793 -8.31551e-06 0)
(0.00101684 -9.67326e-06 0)
(0.00101555 -1.08991e-05 0)
(0.00101411 -1.25487e-05 0)
(0.00101241 -1.39349e-05 0)
(0.00101054 -1.59578e-05 0)
(0.001 8.6321e-08 0)
(0.00100005 2.58543e-07 0)
(0.00100013 4.2961e-07 0)
(0.00100026 5.98768e-07 0)
(0.00100044 7.65268e-07 0)
(0.00100065 9.28365e-07 0)
(0.00100091 1.08735e-06 0)
(0.00100121 1.24153e-06 0)
(0.00100155 1.39029e-06 0)
(0.00100192 1.53301e-06 0)
(0.00100233 1.66916e-06 0)
(0.00100277 1.79822e-06 0)
(0.00100325 1.91973e-06 0)
(0.00100376 2.03326e-06 0)
(0.00100429 2.13843e-06 0)
(0.00100485 2.23486e-06 0)
(0.00100544 2.32227e-06 0)
(0.00100604 2.40032e-06 0)
(0.00100667 2.46877e-06 0)
(0.00100731 2.52732e-06 0)
(0.00100796 2.57578e-06 0)
(0.00100863 2.61385e-06 0)
(0.0010093 2.64137e-06 0)
(0.00100998 2.658e-06 0)
(0.00101067 2.66363e-06 0)
(0.00101135 2.65783e-06 0)
(0.00101203 2.64055e-06 0)
(0.00101271 2.61121e-06 0)
(0.00101337 2.56985e-06 0)
(0.00101403 2.5157e-06 0)
(0.00101467 2.44891e-06 0)
(0.0010153 2.36838e-06 0)
(0.0010159 2.27452e-06 0)
(0.00101648 2.16573e-06 0)
(0.00101703 2.04285e-06 0)
(0.00101755 1.90345e-06 0)
(0.00101803 1.74913e-06 0)
(0.00101847 1.57621e-06 0)
(0.00101887 1.38757e-06 0)
(0.00101922 1.17751e-06 0)
(0.00101952 9.51071e-07 0)
(0.00101976 6.99307e-07 0)
(0.00101994 4.30866e-07 0)
(0.00102005 1.31659e-07 0)
(0.00102009 -1.83719e-07 0)
(0.00102004 -5.37717e-07 0)
(0.00101991 -9.06138e-07 0)
(0.00101968 -1.325e-06 0)
(0.00101935 -1.75404e-06 0)
(0.00101891 -2.25058e-06 0)
(0.00101835 -2.74817e-06 0)
(0.00101767 -3.339e-06 0)
(0.00101683 -3.91395e-06 0)
(0.00101585 -4.62187e-06 0)
(0.0010147 -5.28351e-06 0)
(0.00101338 -6.13981e-06 0)
(0.00101186 -6.896e-06 0)
(0.00101013 -7.94322e-06 0)
(0.00100816 -8.79574e-06 0)
(0.00100595 -1.00901e-05 0)
(0.001 2.84871e-08 0)
(0.00100004 8.53208e-08 0)
(0.00100013 1.41773e-07 0)
(0.00100025 1.976e-07 0)
(0.00100042 2.52553e-07 0)
(0.00100063 3.06391e-07 0)
(0.00100088 3.5888e-07 0)
(0.00100117 4.09795e-07 0)
(0.0010015 4.58927e-07 0)
(0.00100186 5.06078e-07 0)
(0.00100226 5.51065e-07 0)
(0.00100269 5.93718e-07 0)
(0.00100315 6.33881e-07 0)
(0.00100365 6.71409e-07 0)
(0.00100417 7.06173e-07 0)
(0.00100471 7.38047e-07 0)
(0.00100528 7.66929e-07 0)
(0.00100587 7.92706e-07 0)
(0.00100648 8.15296e-07 0)
(0.0010071 8.34594e-07 0)
(0.00100773 8.50534e-07 0)
(0.00100838 8.63009e-07 0)
(0.00100904 8.71967e-07 0)
(0.0010097 8.77288e-07 0)
(0.00101036 8.78935e-07 0)
(0.00101102 8.76757e-07 0)
(0.00101168 8.70737e-07 0)
(0.00101234 8.60677e-07 0)
(0.00101298 8.46591e-07 0)
(0.00101362 8.28205e-07 0)
(0.00101424 8.05583e-07 0)
(0.00101484 7.78336e-07 0)
(0.00101541 7.46619e-07 0)
(0.00101597 7.09861e-07 0)
(0.00101649 6.68374e-07 0)
(0.00101698 6.21302e-07 0)
(0.00101743 5.69225e-07 0)
(0.00101785 5.1084e-07 0)
(0.00101821 4.47185e-07 0)
(0.00101853 3.76238e-07 0)
(0.00101879 2.99815e-07 0)
(0.00101899 2.14732e-07 0)
(0.00101913 1.24112e-07 0)
(0.0010192 2.29172e-08 0)
(0.00101919 -8.35889e-08 0)
(0.00101909 -2.03451e-07 0)
(0.00101891 -3.27986e-07 0)
(0.00101862 -4.70002e-07 0)
(0.00101823 -6.15061e-07 0)
(0.00101772 -7.83623e-07 0)
(0.00101708 -9.5191e-07 0)
(0.00101631 -1.15287e-06 0)
(0.00101539 -1.3474e-06 0)
(0.00101431 -1.58873e-06 0)
(0.00101306 -1.81257e-06 0)
(0.00101161 -2.10525e-06 0)
(0.00100996 -2.36092e-06 0)
(0.00100809 -2.72003e-06 -3.72441e-38)
(0.00100597 -3.00787e-06 0)
(0.00100359 -3.4535e-06 0)
(0.001 -2.84431e-08 0)
(0.00100004 -8.51978e-08 0)
(0.00100013 -1.4158e-07 0)
(0.00100025 -1.97344e-07 0)
(0.00100042 -2.52243e-07 0)
(0.00100063 -3.06035e-07 0)
(0.00100088 -3.58486e-07 0)
(0.00100117 -4.0937e-07 0)
(0.0010015 -4.58479e-07 0)
(0.00100186 -5.05614e-07 0)
(0.00100226 -5.50592e-07 0)
(0.00100269 -5.93242e-07 0)
(0.00100315 -6.3341e-07 0)
(0.00100365 -6.70948e-07 0)
(0.00100417 -7.05728e-07 0)
(0.00100471 -7.37625e-07 0)
(0.00100528 -7.66534e-07 0)
(0.00100587 -7.92344e-07 0)
(0.00100648 -8.14972e-07 0)
(0.0010071 -8.34313e-07 0)
(0.00100773 -8.50301e-07 0)
(0.00100838 -8.62828e-07 0)
(0.00100904 -8.71843e-07 0)
(0.0010097 -8.77224e-07 0)
(0.00101036 -8.78934e-07 0)
(0.00101102 -8.76823e-07 0)
(0.00101168 -8.70872e-07 0)
(0.00101234 -8.60886e-07 0)
(0.00101298 -8.46877e-07 0)
(0.00101362 -8.28571e-07 0)
(0.00101424 -8.06033e-07 0)
(0.00101484 -7.78872e-07 0)
(0.00101541 -7.47244e-07 0)
(0.00101597 -7.1058e-07 0)
(0.00101649 -6.69189e-07 0)
(0.00101698 -6.22214e-07 0)
(0.00101743 -5.70231e-07 0)
(0.00101785 -5.11939e-07 0)
(0.00101821 -4.48381e-07 0)
(0.00101853 -3.77535e-07 0)
(0.00101879 -3.01215e-07 0)
(0.00101899 -2.16232e-07 0)
(0.00101913 -1.25707e-07 0)
(0.0010192 -2.4609e-08 0)
(0.00101919 8.17897e-08 0)
(0.00101909 2.01532e-07 0)
(0.00101891 3.25941e-07 0)
(0.00101862 4.67837e-07 0)
(0.00101823 6.12787e-07 0)
(0.00101772 7.81243e-07 0)
(0.00101708 9.49406e-07 0)
(0.00101631 1.15021e-06 0)
(0.00101539 1.34456e-06 0)
(0.00101431 1.58572e-06 0)
(0.00101306 1.80942e-06 0)
(0.00101161 2.10198e-06 0)
(0.00100996 2.35754e-06 0)
(0.00100809 2.71649e-06 3.72441e-38)
(0.00100597 3.0041e-06 0)
(0.00100359 3.44942e-06 0)
(0.001 -8.62774e-08 0)
(0.00100005 -2.58422e-07 0)
(0.00100013 -4.29418e-07 0)
(0.00100026 -5.98515e-07 0)
(0.00100044 -7.64961e-07 0)
(0.00100065 -9.28013e-07 0)
(0.00100091 -1.08696e-06 0)
(0.00100121 -1.24111e-06 0)
(0.00100155 -1.38985e-06 0)
(0.00100192 -1.53256e-06 0)
(0.00100233 -1.6687e-06 0)
(0.00100277 -1.79775e-06 0)
(0.00100325 -1.91927e-06 0)
(0.00100376 -2.03281e-06 0)
(0.00100429 -2.13799e-06 0)
(0.00100485 -2.23445e-06 0)
(0.00100544 -2.32188e-06 0)
(0.00100604 -2.39996e-06 0)
(0.00100667 -2.46845e-06 0)
(0.00100731 -2.52705e-06 0)
(0.00100796 -2.57556e-06 0)
(0.00100863 -2.61368e-06 0)
(0.0010093 -2.64126e-06 0)
(0.00100998 -2.65795e-06 0)
(0.00101067 -2.66364e-06 0)
(0.00101135 -2.6579e-06 0)
(0.00101203 -2.64069e-06 0)
(0.00101271 -2.61142e-06 0)
(0.00101337 -2.57014e-06 0)
(0.00101403 -2.51607e-06 0)
(0.00101467 -2.44936e-06 0)
(0.0010153 -2.36892e-06 0)
(0.0010159 -2.27515e-06 0)
(0.00101648 -2.16645e-06 0)
(0.00101703 -2.04366e-06 0)
(0.00101755 -1.90436e-06 0)
(0.00101803 -1.75013e-06 0)
(0.00101847 -1.57731e-06 0)
(0.00101887 -1.38876e-06 0)
(0.00101922 -1.1788e-06 0)
(0.00101952 -9.52466e-07 0)
(0.00101976 -7.00801e-07 0)
(0.00101994 -4.32453e-07 0)
(0.00102005 -1.3334e-07 0)
(0.00102009 1.81933e-07 0)
(0.00102004 5.35816e-07 0)
(0.00101991 9.04113e-07 0)
(0.00101968 1.32285e-06 0)
(0.00101935 1.75179e-06 0)
(0.00101891 2.24822e-06 0)
(0.00101835 2.74568e-06 0)
(0.00101767 3.33637e-06 0)
(0.00101683 3.91114e-06 0)
(0.00101585 4.61889e-06 0)
(0.0010147 5.28038e-06 0)
(0.00101338 6.13657e-06 0)
(0.00101186 6.89265e-06 0)
(0.00101013 7.93971e-06 0)
(0.00100816 8.792e-06 0)
(0.00100595 1.00861e-05 0)
(0.001 -1.4688e-07 0)
(0.00100005 -4.39929e-07 0)
(0.00100014 -7.30985e-07 0)
(0.00100028 -1.01874e-06 0)
(0.00100046 -1.3019e-06 0)
(0.00100069 -1.57917e-06 0)
(0.00100097 -1.84933e-06 0)
(0.00100128 -2.11121e-06 0)
(0.00100164 -2.36373e-06 0)
(0.00100204 -2.60589e-06 0)
(0.00100247 -2.83677e-06 0)
(0.00100294 -3.05552e-06 0)
(0.00100345 -3.2614e-06 0)
(0.00100399 -3.45369e-06 0)
(0.00100455 -3.63179e-06 0)
(0.00100514 -3.79513e-06 0)
(0.00100576 -3.94321e-06 0)
(0.0010064 -4.07555e-06 0)
(0.00100706 -4.19176e-06 0)
(0.00100773 -4.2914e-06 0)
(0.00100843 -4.37416e-06 0)
(0.00100913 -4.43958e-06 0)
(0.00100984 -4.48743e-06 0)
(0.00101056 -4.51719e-06 0)
(0.00101128 -4.52868e-06 0)
(0.00101201 -4.52127e-06 0)
(0.00101273 -4.49482e-06 0)
(0.00101345 -4.44853e-06 0)
(0.00101416 -4.38237e-06 0)
(0.00101486 -4.29521e-06 0)
(0.00101555 -4.18721e-06 0)
(0.00101622 -4.05675e-06 0)
(0.00101687 -3.90433e-06 0)
(0.0010175 -3.72763e-06 0)
(0.00101811 -3.52771e-06 0)
(0.00101868 -3.30109e-06 0)
(0.00101922 -3.04986e-06 0)
(0.00101973 -2.76874e-06 0)
(0.00102019 -2.46164e-06 0)
(0.00102061 -2.12037e-06 0)
(0.00102098 -1.7519e-06 0)
(0.00102129 -1.34331e-06 0)
(0.00102155 -9.06749e-07 0)
(0.00102174 -4.21857e-07 0)
(0.00102187 9.06414e-08 0)
(0.00102192 6.63057e-07 0)
(0.0010219 1.26099e-06 0)
(0.00102179 1.93633e-06 0)
(0.00102158 2.63178e-06 0)
(0.00102127 3.42987e-06 0)
(0.00102085 4.23588e-06 0)
(0.00102033 5.18203e-06 0)
(0.00101966 6.11279e-06 0)
(0.00101888 7.24125e-06 0)