/*--------------------------------*- C++ -*----------------------------------*\
| =========                 |                                                 |
| \\      /  F ield         | OpenFOAM: The Open Source CFD Toolbox           |
|  \\    /   O peration     | Version:  2312                                  |
|   \\  /    A nd           | Website:  www.openfoam.com                      |
|    \\/     M anipulation  |                                                 |
\*---------------------------------------------------------------------------*/
FoamFile
{
    version     2.0;
    format      ascii;
    arch        "LSB;label=32;scalar=64";
    class       volScalarField;
    location    "15000";
    object      p;
}
// * * * * * * * * * * * * * * * * * * * * * * * * * * * * * * * * * * * * * //

dimensions      [0 2 -2 0 0 0 0];

internalField   nonuniform List<scalar> 
2715
(
3.97342e-07
3.45268e-07
3.21852e-07
3.03534e-07
2.86097e-07
2.68727e-07
2.49576e-07
2.2893e-07
2.05536e-07
1.80103e-07
1.51608e-07
1.21701e-07
8.92698e-08
5.71609e-08
2.4044e-08
-6.54025e-09
-3.6372e-08
-6.16879e-08
-8.50718e-08
-1.02457e-07
-1.17632e-07
-1.26091e-07
-1.33027e-07
-1.3291e-07
-1.33176e-07
-1.24877e-07
-1.21226e-07
-1.0478e-07
-9.81171e-08
-1.3358e-07
3.81445e-07
3.26099e-07
3.09453e-07
2.9463e-07
2.78262e-07
2.61073e-07
2.42347e-07
2.21941e-07
1.98765e-07
1.73743e-07
1.45888e-07
1.16908e-07
8.55719e-08
5.47711e-08
2.29543e-08
-6.3499e-09
-3.50976e-08
-5.95064e-08
-8.24246e-08
-9.95649e-08
-1.15009e-07
-1.23817e-07
-1.31792e-07
-1.32303e-07
-1.34149e-07
-1.27371e-07
-1.24072e-07
-1.14098e-07
-9.31285e-08
-1.66678e-07
3.68078e-07
3.23963e-07
3.0865e-07
2.94308e-07
2.77478e-07
2.59508e-07
2.39891e-07
2.18974e-07
1.95653e-07
1.70595e-07
1.42839e-07
1.14063e-07
8.30555e-08
5.26691e-08
2.13208e-08
-7.47606e-09
-3.58705e-08
-5.98884e-08
-8.26164e-08
-9.94652e-08
-1.1506e-07
-1.23763e-07
-1.32042e-07
-1.32971e-07
-1.3465e-07
-1.29684e-07
-1.24938e-07
-1.22377e-07
-8.92822e-08
-1.4445e-07
3.57204e-07
3.19927e-07
3.02713e-07
2.88801e-07
2.72632e-07
2.55036e-07
2.3566e-07
2.14761e-07
1.91388e-07
1.66269e-07
1.38587e-07
1.09981e-07
7.93285e-08
4.93354e-08
1.85065e-08
-9.88561e-09
-3.77714e-08
-6.15232e-08
-8.39446e-08
-1.00927e-07
-1.16323e-07
-1.25644e-07
-1.33478e-07
-1.35726e-07
-1.36121e-07
-1.34104e-07
-1.25549e-07
-1.2937e-07
-9.27155e-08
-1.29917e-07
3.46819e-07
3.1683e-07
2.99418e-07
2.86497e-07
2.70777e-07
2.52672e-07
2.32678e-07
2.11232e-07
1.87567e-07
1.62156e-07
1.34438e-07
1.05731e-07
7.53321e-08
4.54011e-08
1.50525e-08
-1.32992e-08
-4.06653e-08
-6.46488e-08
-8.65483e-08
-1.04201e-07
-1.18944e-07
-1.29482e-07
-1.36324e-07
-1.40281e-07
-1.38752e-07
-1.38944e-07
-1.26959e-07
-1.30646e-07
-9.99067e-08
-1.12195e-07
3.37772e-07
3.14359e-07
2.96927e-07
2.83317e-07
2.67644e-07
2.49543e-07
2.29326e-07
2.07484e-07
1.83552e-07
1.57801e-07
1.30002e-07
1.01072e-07
7.086e-08
4.08027e-08
1.08733e-08
-1.76495e-08
-4.44815e-08
-6.88559e-08
-9.02165e-08
-1.08639e-07
-1.22798e-07
-1.34531e-07
-1.4052e-07
-1.45902e-07
-1.43009e-07
-1.43875e-07
-1.31214e-07
-1.31009e-07
-1.08914e-07
-1.0579e-07
3.30435e-07
3.12051e-07
2.95065e-07
2.80522e-07
2.64774e-07
2.46633e-07
2.26142e-07
2.03797e-07
1.7948e-07
1.53286e-07
1.25312e-07
9.60571e-08
6.59345e-08
3.56569e-08
6.04484e-09
-2.26882e-08
-4.91019e-08
-7.38362e-08
-9.48309e-08
-1.13879e-07
-1.2776e-07
-1.40363e-07
-1.46107e-07
-1.521e-07
-1.49207e-07
-1.49337e-07
-1.3816e-07
-1.33661e-07
-1.17329e-07
-1.06779e-07
3.24927e-07
3.09811e-07
2.93444e-07
2.78123e-07
2.62014e-07
2.43671e-07
2.22866e-07
1.99995e-07
1.75227e-07
1.48532e-07
1.20297e-07
9.06782e-08
6.05298e-08
3.00189e-08
5.69194e-10
-2.83166e-08
-5.45144e-08
-7.94643e-08
-1.00355e-07
-1.19784e-07
-1.33828e-07
-1.46813e-07
-1.53084e-07
-1.59067e-07
-1.57242e-07
-1.56154e-07
-1.47009e-07
-1.39326e-07
-1.25644e-07
-1.12468e-07
3.21088e-07
3.07615e-07
2.91899e-07
2.76053e-07
2.59367e-07
2.40635e-07
2.19452e-07
1.96038e-07
1.70761e-07
1.43524e-07
1.14931e-07
8.49294e-08
5.46302e-08
2.39099e-08
-5.54052e-09
-3.45017e-08
-6.06796e-08
-8.57081e-08
-1.06743e-07
-1.26358e-07
-1.40933e-07
-1.54051e-07
-1.61268e-07
-1.67133e-07
-1.6667e-07
-1.64834e-07
-1.57191e-07
-1.4812e-07
-1.35112e-07
-1.21457e-07
3.18527e-07
3.05558e-07
2.90333e-07
2.74144e-07
2.56789e-07
2.37498e-07
2.15844e-07
1.91861e-07
1.66028e-07
1.38215e-07
1.09171e-07
7.87753e-08
4.82136e-08
1.73035e-08
-1.22705e-08
-4.12663e-08
-6.75529e-08
-9.25913e-08
-1.13928e-07
-1.33641e-07
-1.48885e-07
-1.62213e-07
-1.70502e-07
-1.76522e-07
-1.77317e-07
-1.75443e-07
-1.68794e-07
-1.59487e-07
-1.46663e-07
-1.33009e-07
3.16787e-07
3.03745e-07
2.8871e-07
2.72212e-07
2.54182e-07
2.3421e-07
2.11989e-07
1.87397e-07
1.6096e-07
1.32546e-07
1.02967e-07
7.21556e-08
4.125e-08
1.01401e-08
-1.9622e-08
-4.86605e-08
-7.51153e-08
-1.00157e-07
-1.21848e-07
-1.41693e-07
-1.57619e-07
-1.71334e-07
-1.80677e-07
-1.87235e-07
-1.89194e-07
-1.87867e-07
-1.82101e-07
-1.73214e-07
-1.60669e-07
-1.47204e-07
3.15469e-07
3.02178e-07
2.8702e-07
2.70117e-07
2.5142e-07
2.30702e-07
2.0783e-07
1.82578e-07
1.55476e-07
1.26433e-07
9.62498e-08
6.49826e-08
3.36875e-08
2.33509e-09
-2.76374e-08
-5.67475e-08
-8.33923e-08
-1.08465e-07
-1.30486e-07
-1.5056e-07
-1.67126e-07
-1.81385e-07
-1.91766e-07
-1.99189e-07
-2.02359e-07
-2.02074e-07
-1.9731e-07
-1.8928e-07
-1.77349e-07
-1.64341e-07
3.14304e-07
3.0074e-07
2.85232e-07
2.67786e-07
2.48402e-07
2.26904e-07
2.03301e-07
1.77327e-07
1.49485e-07
1.19764e-07
8.89285e-08
5.71416e-08
2.54327e-08
-6.21306e-09
-3.64127e-08
-6.5613e-08
-9.24458e-08
-1.17595e-07
-1.39894e-07
-1.60264e-07
-1.77448e-07
-1.92361e-07
-2.03791e-07
-2.12352e-07
-2.16862e-07
-2.17983e-07
-2.14569e-07
-2.07717e-07
-1.96901e-07
-1.84616e-07
3.13167e-07
2.99273e-07
2.83281e-07
2.6519e-07
2.45073e-07
2.22753e-07
1.98325e-07
1.71548e-07
1.42879e-07
1.12405e-07
8.08747e-08
4.84952e-08
1.63409e-08
-1.56302e-08
-4.6083e-08
-7.53822e-08
-1.02372e-07
-1.2763e-07
-1.50166e-07
-1.70847e-07
-1.88632e-07
-2.04294e-07
-2.16785e-07
-2.26686e-07
-2.32738e-07
-2.35552e-07
-2.33932e-07
-2.28684e-07
-2.1946e-07
-2.0842e-07
3.12019e-07
2.97683e-07
2.81131e-07
2.62326e-07
2.41402e-07
2.18185e-07
1.92812e-07
1.65116e-07
1.35526e-07
1.04196e-07
7.19143e-08
3.88808e-08
6.2277e-09
-2.60794e-08
-5.68026e-08
-8.62063e-08
-1.13307e-07
-1.38663e-07
-1.61401e-07
-1.82371e-07
-2.00716e-07
-2.17182e-07
-2.3078e-07
-2.4213e-07
-2.49972e-07
-2.54771e-07
-2.55389e-07
-2.5231e-07
-2.45245e-07
-2.36101e-07
3.10922e-07
2.9598e-07
2.78787e-07
2.59201e-07
2.37352e-07
2.13111e-07
1.86642e-07
1.57875e-07
1.27249e-07
9.4952e-08
6.18337e-08
2.81033e-08
-5.1091e-09
-3.77554e-08
-6.87432e-08
-9.82394e-08
-1.25408e-07
-1.50794e-07
-1.7369e-07
-1.94889e-07
-2.13742e-07
-2.30979e-07
-2.45744e-07
-2.58601e-07
-2.68447e-07
-2.75556e-07
-2.78845e-07
-2.78594e-07
-2.74402e-07
-2.68095e-07
3.1e-07
2.9424e-07
2.76273e-07
2.55784e-07
2.32842e-07
2.07389e-07
1.79641e-07
1.49627e-07
1.17821e-07
8.44546e-08
5.03938e-08
1.59322e-08
-1.78864e-08
-5.0867e-08
-8.20993e-08
-1.11633e-07
-1.38832e-07
-1.64132e-07
-1.87118e-07
-2.08427e-07
-2.27725e-07
-2.45619e-07
-2.61563e-07
-2.75944e-07
-2.87942e-07
-2.97647e-07
-3.04057e-07
-3.07309e-07
-3.06868e-07
-3.04513e-07
3.0936e-07
2.92537e-07
2.73565e-07
2.51951e-07
2.27687e-07
2.00797e-07
1.7156e-07
1.40117e-07
1.06966e-07
7.2432e-08
3.73241e-08
2.10165e-09
-3.23524e-08
-6.56375e-08
-9.709e-08
-1.26559e-07
-1.53735e-07
-1.78796e-07
-2.01772e-07
-2.23006e-07
-2.42646e-07
-2.61015e-07
-2.78074e-07
-2.93913e-07
-3.08152e-07
-3.2062e-07
-3.30591e-07
-3.37935e-07
-3.42239e-07
-3.4492e-07
3.08976e-07
2.9083e-07
2.70507e-07
2.47442e-07
2.21576e-07
1.9301e-07
1.62061e-07
1.2901e-07
9.43403e-08
5.85388e-08
2.22933e-08
-1.37097e-08
-4.88103e-08
-8.23423e-08
-1.13972e-07
-1.43247e-07
-1.70307e-07
-1.94957e-07
-2.17769e-07
-2.38701e-07
-2.58486e-07
-2.77079e-07
-2.95068e-07
-3.12189e-07
-3.28654e-07
-3.43914e-07
-3.5779e-07
-3.69683e-07
-3.79656e-07
-3.88415e-07
3.08493e-07
2.8878e-07
2.66731e-07
2.41854e-07
2.14078e-07
1.83585e-07
1.50694e-07
1.15848e-07
7.94925e-08
4.23148e-08
4.86468e-09
-3.19347e-08
-6.76562e-08
-1.01374e-07
-1.33079e-07
-1.62047e-07
-1.88816e-07
-2.12893e-07
-2.35297e-07
-2.55678e-07
-2.75285e-07
-2.93762e-07
-3.1232e-07
-3.30378e-07
-3.48854e-07
-3.6676e-07
-3.84692e-07
-4.01428e-07
-4.1779e-07
-4.33613e-07
3.07415e-07
2.85858e-07
2.61735e-07
2.34687e-07
2.04663e-07
1.71945e-07
1.36859e-07
9.99995e-08
6.18006e-08
2.31196e-08
-1.55655e-08
-5.31853e-08
-8.94351e-08
-1.23286e-07
-1.54881e-07
-1.83438e-07
-2.09662e-07
-2.33005e-07
-2.54671e-07
-2.74221e-07
-2.932e-07
-3.11107e-07
-3.29659e-07
-3.48062e-07
-3.68005e-07
-3.88093e-07
-4.09859e-07
-4.31413e-07
-4.54541e-07
-4.78194e-07
3.05488e-07
2.81712e-07
2.55105e-07
2.25431e-07
1.92726e-07
1.57381e-07
1.19784e-07
8.06345e-08
4.04341e-08
1.07417e-10
-3.98043e-08
-7.82523e-08
-1.14872e-07
-1.48761e-07
-1.79991e-07
-2.07988e-07
-2.33369e-07
-2.5579e-07
-2.76355e-07
-2.94753e-07
-3.12551e-07
-3.29309e-07
-3.47051e-07
-3.64935e-07
-3.85319e-07
-4.06598e-07
-4.31323e-07
-4.56976e-07
-4.86563e-07
-5.17832e-07
3.02299e-07
2.75718e-07
2.46074e-07
2.13205e-07
1.77285e-07
1.38822e-07
9.83455e-08
5.66036e-08
1.42445e-08
-2.78286e-08
-6.89228e-08
-1.08115e-07
-1.44895e-07
-1.78598e-07
-2.09164e-07
-2.36328e-07
-2.6056e-07
-2.81808e-07
-3.0095e-07
-3.1788e-07
-3.33914e-07
-3.48858e-07
-3.64721e-07
-3.80968e-07
-4.00214e-07
-4.21057e-07
-4.46778e-07
-4.74617e-07
-5.08882e-07
-5.4551e-07
2.97184e-07
2.66994e-07
2.33433e-07
1.96572e-07
1.56786e-07
1.14682e-07
7.09338e-08
2.63354e-08
-1.83168e-08
-6.21392e-08
-1.04316e-07
-1.44028e-07
-1.80685e-07
-2.13818e-07
-2.43333e-07
-2.69233e-07
-2.91937e-07
-3.11675e-07
-3.29099e-07
-3.4432e-07
-3.58144e-07
-3.70657e-07
-3.83412e-07
-3.96626e-07
-4.12618e-07
-4.30805e-07
-4.54212e-07
-4.80818e-07
-5.15366e-07
-5.52379e-07
2.88568e-07
2.54077e-07
2.155e-07
1.73571e-07
1.29073e-07
8.27199e-08
3.52712e-08
-1.24133e-08
-5.94393e-08
-1.04904e-07
-1.47944e-07
-1.87793e-07
-2.23884e-07
-2.55887e-07
-2.83782e-07
-3.07788e-07
-3.28385e-07
-3.46065e-07
-3.61369e-07
-3.74587e-07
-3.86015e-07
-3.95741e-07
-4.04462e-07
-4.13051e-07
-4.23335e-07
-4.35983e-07
-4.52959e-07
-4.73801e-07
-5.02109e-07
-5.33258e-07
2.71579e-07
2.30776e-07
1.8652e-07
1.39065e-07
8.92219e-08
3.81005e-08
-1.32554e-08
-6.39319e-08
-1.13036e-07
-1.59658e-07
-2.02941e-07
-2.42174e-07
-2.76896e-07
-3.06929e-07
-3.32392e-07
-3.53658e-07
-3.7131e-07
-3.86017e-07
-3.98403e-07
-4.08898e-07
-4.17641e-07
-4.24509e-07
-4.29229e-07
-4.3224e-07
-4.34732e-07
-4.38492e-07
-4.45081e-07
-4.55221e-07
-4.70565e-07
-4.89837e-07
2.53528e-07
2.06191e-07
1.52043e-07
9.49052e-08
3.72007e-08
-1.99357e-08
-7.58598e-08
-1.2989e-07
-1.81174e-07
-2.28766e-07
-2.7182e-07
-3.09724e-07
-3.42228e-07
-3.69429e-07
-3.91725e-07
-4.09628e-07
-4.23691e-07
-4.34485e-07
-4.42581e-07
-4.48512e-07
-4.52883e-07
-4.56136e-07
-4.57888e-07
-4.56636e-07
-4.51633e-07
-4.44021e-07
-4.37897e-07
-4.36013e-07
-4.35862e-07
-4.3766e-07
1.87561e-07
1.2893e-07
6.89022e-08
7.21024e-09
-5.52718e-08
-1.17034e-07
-1.76575e-07
-2.32611e-07
-2.84046e-07
-3.29938e-07
-3.69592e-07
-4.02696e-07
-4.29458e-07
-4.50634e-07
-4.67381e-07
-4.80716e-07
-4.90802e-07
-4.97538e-07
-5.00352e-07
-4.98772e-07
-4.93585e-07
-4.87819e-07
-4.8558e-07
-4.84826e-07
-4.78061e-07
-4.60992e-07
-4.39354e-07
-4.26275e-07
-4.24991e-07
-4.27217e-07
1.5717e-07
8.55758e-08
7.59165e-09
-6.96123e-08
-1.42718e-07
-2.11103e-07
-2.7466e-07
-3.32772e-07
-3.84376e-07
-4.28359e-07
-4.63926e-07
-4.90841e-07
-5.09605e-07
-5.21556e-07
-5.28951e-07
-5.3487e-07
-5.42792e-07
-5.52868e-07
-5.59889e-07
-5.56422e-07
-5.39752e-07
-5.15194e-07
-4.93901e-07
-4.83987e-07
-4.83088e-07
-4.81182e-07
-4.74909e-07
-4.6724e-07
-4.60102e-07
-4.57168e-07
-9.36102e-08
-1.74055e-07
-2.55563e-07
-3.3636e-07
-4.11911e-07
-4.78764e-07
-5.35119e-07
-5.80055e-07
-6.12959e-07
-6.33469e-07
-6.41724e-07
-6.38638e-07
-6.26051e-07
-6.06784e-07
-5.84743e-07
-5.64539e-07
-5.50603e-07
-5.45283e-07
-5.4775e-07
-5.5258e-07
-5.53519e-07
-5.47703e-07
-5.37539e-07
-5.24428e-07
-5.09222e-07
-4.93776e-07
-4.83084e-07
-4.78743e-07
-4.79139e-07
-4.81633e-07
3.23952e-07
3.24074e-07
3.24725e-07
3.257e-07
3.26573e-07
3.27012e-07
3.26999e-07
3.26337e-07
3.24286e-07
3.19079e-07
3.08532e-07
2.91798e-07
2.44885e-07
2.13471e-07
-9.13612e-09
-1.7395e-07
-2.55453e-07
-3.36245e-07
-4.11791e-07
-4.7864e-07
-5.3499e-07
-5.79923e-07
-6.12825e-07
-6.33334e-07
-6.41588e-07
-6.38503e-07
-6.25918e-07
-6.06654e-07
-5.84616e-07
-5.64416e-07
-5.50484e-07
-5.45166e-07
-5.47632e-07
-5.52459e-07
-5.53394e-07
-5.47577e-07
-5.37413e-07
-5.24303e-07
-5.09099e-07
-4.93657e-07
-4.82968e-07
-4.78629e-07
-4.79024e-07
-4.81517e-07
8.56498e-08
7.67116e-09
-6.95274e-08
-1.42628e-07
-2.11009e-07
-2.74562e-07
-3.32669e-07
-3.84269e-07
-4.28249e-07
-4.63814e-07
-4.90727e-07
-5.0949e-07
-5.21441e-07
-5.28835e-07
-5.34754e-07
-5.42675e-07
-5.52749e-07
-5.59764e-07
-5.56292e-07
-5.3962e-07
-5.15064e-07
-4.93778e-07
-4.8387e-07
-4.82973e-07
-4.81067e-07
-4.74796e-07
-4.67129e-07
-4.59993e-07
-4.57062e-07
1.28996e-07
6.89725e-08
7.28511e-09
-5.51922e-08
-1.1695e-07
-1.76486e-07
-2.32519e-07
-2.8395e-07
-3.29839e-07
-3.6949e-07
-4.02592e-07
-4.29352e-07
-4.50526e-07
-4.67272e-07
-4.80606e-07
-4.9069e-07
-4.97424e-07
-5.00235e-07
-4.98654e-07
-4.93466e-07
-4.87702e-07
-4.85465e-07
-4.84711e-07
-4.77946e-07
-4.60878e-07
-4.39249e-07
-4.26179e-07
-4.249e-07
-4.27124e-07
2.06246e-07
1.52102e-07
9.49687e-08
3.72686e-08
-1.98636e-08
-7.57838e-08
-1.2981e-07
-1.8109e-07
-2.2868e-07
-2.71729e-07
-3.09632e-07
-3.42132e-07
-3.69331e-07
-3.91625e-07
-4.09527e-07
-4.23587e-07
-4.3438e-07
-4.42475e-07
-4.48405e-07
-4.52775e-07
-4.56029e-07
-4.57781e-07
-4.56529e-07
-4.51527e-07
-4.43918e-07
-4.37797e-07
-4.35914e-07
-4.35764e-07
-4.37566e-07
2.30825e-07
1.86572e-07
1.39121e-07
8.92822e-08
3.81648e-08
-1.31873e-08
-6.38602e-08
-1.1296e-07
-1.5958e-07
-2.02859e-07
-2.4209e-07
-2.76808e-07
-3.06839e-07
-3.323e-07
-3.53564e-07
-3.71214e-07
-3.8592e-07
-3.98305e-07
-4.08799e-07
-4.17542e-07
-4.24409e-07
-4.29129e-07
-4.32141e-07
-4.34634e-07
-4.38395e-07
-4.44984e-07
-4.55123e-07
-4.70466e-07
-4.89736e-07
2.54121e-07
2.15547e-07
1.73621e-07
1.29127e-07
8.27777e-08
3.53327e-08
-1.23483e-08
-5.93709e-08
-1.04832e-07
-1.47869e-07
-1.87715e-07
-2.23804e-07
-2.55804e-07
-2.83697e-07
-3.07701e-07
-3.28297e-07
-3.45975e-07
-3.61278e-07
-3.74495e-07
-3.85923e-07
-3.95648e-07
-4.04369e-07
-4.12959e-07
-4.23243e-07
-4.35891e-07
-4.52867e-07
-4.73707e-07
-5.02012e-07
-5.33157e-07
2.67033e-07
2.33475e-07
1.96617e-07
1.56835e-07
1.14735e-07
7.09899e-08
2.63949e-08
-1.8254e-08
-6.20731e-08
-1.04247e-07
-1.43956e-07
-1.80611e-07
-2.1374e-07
-2.43253e-07
-2.69151e-07
-2.91854e-07
-3.1159e-07
-3.29014e-07
-3.44234e-07
-3.58058e-07
-3.7057e-07
-3.83325e-07
-3.9654e-07
-4.12533e-07
-4.30719e-07
-4.54125e-07
-4.8073e-07
-5.15277e-07
-5.52286e-07
2.75754e-07
2.46113e-07
2.13247e-07
1.7733e-07
1.38871e-07
9.83973e-08
5.66586e-08
1.43027e-08
-2.77673e-08
-6.88585e-08
-1.08047e-07
-1.44825e-07
-1.78526e-07
-2.0909e-07
-2.36252e-07
-2.60482e-07
-2.81729e-07
-3.0087e-07
-3.17799e-07
-3.33833e-07
-3.48778e-07
-3.6464e-07
-3.80888e-07
-4.00134e-07
-4.20978e-07
-4.46699e-07
-4.74538e-07
-5.08802e-07
-5.4543e-07
2.81746e-07
2.55141e-07
2.2547e-07
1.92767e-07
1.57426e-07
1.19833e-07
8.06858e-08
4.04883e-08
1.64633e-10
-3.97442e-08
-7.81895e-08
-1.14806e-07
-1.48693e-07
-1.79921e-07
-2.07916e-07
-2.33296e-07
-2.55715e-07
-2.7628e-07
-2.94677e-07
-3.12475e-07
-3.29233e-07
-3.46976e-07
-3.6486e-07
-3.85245e-07
-4.06525e-07
-4.31252e-07
-4.56906e-07
-4.86495e-07
-5.17766e-07
2.85889e-07
2.61769e-07
2.34723e-07
2.04702e-07
1.71987e-07
1.36904e-07
1.00048e-07
6.18515e-08
2.31734e-08
-1.55089e-08
-5.31261e-08
-8.93733e-08
-1.23222e-07
-1.54815e-07
-1.83371e-07
-2.09593e-07
-2.32935e-07
-2.546e-07
-2.7415e-07
-2.93128e-07
-3.11036e-07
-3.29589e-07
-3.47993e-07
-3.67937e-07
-3.88027e-07
-4.09795e-07
-4.31352e-07
-4.54483e-07
-4.7814e-07
2.8881e-07
2.66762e-07
2.41888e-07
2.14115e-07
1.83624e-07
1.50736e-07
1.15894e-07
7.95405e-08
4.23656e-08
4.91817e-09
-3.18786e-08
-6.75977e-08
-1.01313e-07
-1.33017e-07
-1.61982e-07
-1.88751e-07
-2.12826e-07
-2.3523e-07
-2.55611e-07
-2.75218e-07
-2.93696e-07
-3.12255e-07
-3.30314e-07
-3.48792e-07
-3.66701e-07
-3.84635e-07
-4.01375e-07
-4.17741e-07
-4.33569e-07
2.90858e-07
2.70536e-07
2.47474e-07
2.2161e-07
1.93047e-07
1.62101e-07
1.29053e-07
9.43858e-08
5.8587e-08
2.23442e-08
-1.36564e-08
-4.87548e-08
-8.22845e-08
-1.13912e-07
-1.43186e-07
-1.70245e-07
-1.94894e-07
-2.17706e-07
-2.38637e-07
-2.58423e-07
-2.77017e-07
-2.95008e-07
-3.1213e-07
-3.28597e-07
-3.4386e-07
-3.5774e-07
-3.69636e-07
-3.79615e-07
-3.88378e-07
2.92564e-07
2.73593e-07
2.51981e-07
2.2772e-07
2.00833e-07
1.71598e-07
1.40158e-07
1.07009e-07
7.2478e-08
3.73725e-08
2.15255e-09
-3.22993e-08
-6.55824e-08
-9.70333e-08
-1.265e-07
-1.53676e-07
-1.78736e-07
-2.01712e-07
-2.22946e-07
-2.42587e-07
-2.60957e-07
-2.78017e-07
-2.93858e-07
-3.081e-07
-3.20571e-07
-3.30545e-07
-3.37895e-07
-3.42203e-07
-3.4489e-07
2.94265e-07
2.763e-07
2.55813e-07
2.32873e-07
2.07423e-07
1.79677e-07
1.49666e-07
1.17862e-07
8.44985e-08
5.04401e-08
1.59809e-08
-1.78355e-08
-5.08143e-08
-8.2045e-08
-1.11578e-07
-1.38775e-07
-1.64074e-07
-1.8706e-07
-2.0837e-07
-2.27669e-07
-2.45564e-07
-2.6151e-07
-2.75893e-07
-2.87894e-07
-2.97603e-07
-3.04017e-07
-3.07272e-07
-3.06837e-07
-3.04488e-07
2.96005e-07
2.78813e-07
2.59229e-07
2.37382e-07
2.13143e-07
1.86677e-07
1.57913e-07
1.27288e-07
9.49942e-08
6.18782e-08
2.81501e-08
-5.06024e-09
-3.77048e-08
-6.8691e-08
-9.8186e-08
-1.25354e-07
-1.50739e-07
-1.73636e-07
-1.94835e-07
-2.13689e-07
-2.30927e-07
-2.45694e-07
-2.58554e-07
-2.68403e-07
-2.75515e-07
-2.78808e-07
-2.78561e-07
-2.74375e-07
-2.68073e-07
2.97707e-07
2.81156e-07
2.62353e-07
2.41431e-07
2.18216e-07
1.92845e-07
1.65152e-07
1.35564e-07
1.04236e-07
7.19572e-08
3.89259e-08
6.27477e-09
-2.60306e-08
-5.67523e-08
-8.6155e-08
-1.13255e-07
-1.3861e-07
-1.61349e-07
-1.8232e-07
-2.00666e-07
-2.17134e-07
-2.30733e-07
-2.42086e-07
-2.49931e-07
-2.54733e-07
-2.55355e-07
-2.52281e-07
-2.4522e-07
-2.36081e-07
2.99296e-07
2.83305e-07
2.65216e-07
2.45102e-07
2.22784e-07
1.98357e-07
1.71583e-07
1.42916e-07
1.12444e-07
8.09162e-08
4.85388e-08
1.63863e-08
-1.55831e-08
-4.60345e-08
-7.53327e-08
-1.02322e-07
-1.2758e-07
-1.50116e-07
-1.70798e-07
-1.88584e-07
-2.04248e-07
-2.1674e-07
-2.26645e-07
-2.32699e-07
-2.35517e-07
-2.33901e-07
-2.28657e-07
-2.19438e-07
-2.08401e-07
3.00762e-07
2.85255e-07
2.67812e-07
2.48429e-07
2.26934e-07
2.03332e-07
1.77361e-07
1.4952e-07
1.19802e-07
8.89687e-08
5.71839e-08
2.54767e-08
-6.16733e-09
-3.63658e-08
-6.55652e-08
-9.23973e-08
-1.17546e-07
-1.39846e-07
-1.60217e-07
-1.77402e-07
-1.92317e-07
-2.03749e-07
-2.12313e-07
-2.16826e-07
-2.1795e-07
-2.1454e-07
-2.07692e-07
-1.9688e-07
-1.84599e-07
3.022e-07
2.87043e-07
2.70142e-07
2.51446e-07
2.30731e-07
2.07861e-07
1.82611e-07
1.55511e-07
1.2647e-07
9.62889e-08
6.50236e-08
3.37303e-08
2.37948e-09
-2.75918e-08
-5.67011e-08
-8.33454e-08
-1.08419e-07
-1.3044e-07
-1.50514e-07
-1.67082e-07
-1.81343e-07
-1.91726e-07
-1.99152e-07
-2.02325e-07
-2.02043e-07
-1.97283e-07
-1.89257e-07
-1.77329e-07
-1.64325e-07
3.03765e-07
2.88732e-07
2.72236e-07
2.54207e-07
2.34237e-07
2.12019e-07
1.87429e-07
1.60994e-07
1.32582e-07
1.03005e-07
7.21955e-08
4.12917e-08
1.01833e-08
-1.95777e-08
-4.86154e-08
-7.50698e-08
-1.00112e-07
-1.21803e-07
-1.41649e-07
-1.57577e-07
-1.71294e-07
-1.80639e-07
-1.872e-07
-1.89162e-07
-1.87838e-07
-1.82076e-07
-1.73192e-07
-1.60651e-07
-1.47189e-07
3.05578e-07
2.90355e-07
2.74167e-07
2.56814e-07
2.37525e-07
2.15873e-07
1.91892e-07
1.66061e-07
1.3825e-07
1.09208e-07
7.88142e-08
4.82542e-08
1.73456e-08
-1.22274e-08
-4.12223e-08
-6.75087e-08
-9.25474e-08
-1.13885e-07
-1.33599e-07
-1.48845e-07
-1.62175e-07
-1.70466e-07
-1.76488e-07
-1.77286e-07
-1.75416e-07
-1.6877e-07
-1.59466e-07
-1.46645e-07
-1.32994e-07
3.07635e-07
2.9192e-07
2.76075e-07
2.59391e-07
2.40661e-07
2.1948e-07
1.96068e-07
1.70793e-07
1.43558e-07
1.14967e-07
8.49674e-08
5.46699e-08
2.39509e-08
-5.49838e-09
-3.44589e-08
-6.06365e-08
-8.56654e-08
-1.06701e-07
-1.26317e-07
-1.40894e-07
-1.54014e-07
-1.61233e-07
-1.67101e-07
-1.66641e-07
-1.64808e-07
-1.57168e-07
-1.481e-07
-1.35094e-07
-1.21441e-07
3.0983e-07
2.93464e-07
2.78145e-07
2.62038e-07
2.43696e-07
2.22893e-07
2.00025e-07
1.75258e-07
1.48566e-07
1.20332e-07
9.07154e-08
6.05687e-08
3.00591e-08
6.10438e-10
-2.82748e-08
-5.44724e-08
-7.94226e-08
-1.00314e-07
-1.19744e-07
-1.3379e-07
-1.46777e-07
-1.5305e-07
-1.59037e-07
-1.57215e-07
-1.56129e-07
-1.46987e-07
-1.39306e-07
-1.25627e-07
-1.12453e-07
3.1207e-07
2.95085e-07
2.80544e-07
2.64797e-07
2.46658e-07
2.26169e-07
2.03826e-07
1.79511e-07
1.53319e-07
1.25347e-07
9.60936e-08
6.59727e-08
3.56963e-08
6.08529e-09
-2.26472e-08
-4.90608e-08
-7.37955e-08
-9.4791e-08
-1.1384e-07
-1.27723e-07
-1.40329e-07
-1.46074e-07
-1.5207e-07
-1.4918e-07
-1.49312e-07
-1.38139e-07
-1.33642e-07
-1.17312e-07
-1.06763e-07
3.14377e-07
2.96947e-07
2.83338e-07
2.67667e-07
2.49568e-07
2.29352e-07
2.07512e-07
1.83582e-07
1.57834e-07
1.30036e-07
1.01107e-07
7.08976e-08
4.08415e-08
1.0913e-08
-1.76093e-08
-4.44412e-08
-6.88161e-08
-9.01775e-08
-1.08601e-07
-1.22762e-07
-1.34497e-07
-1.40489e-07
-1.45874e-07
-1.42983e-07
-1.43851e-07
-1.31193e-07
-1.3099e-07
-1.08897e-07
-1.05775e-07
3.16848e-07
2.99437e-07
2.86518e-07
2.70799e-07
2.52695e-07
2.32704e-07
2.1126e-07
1.87597e-07
1.62188e-07
1.34471e-07
1.05766e-07
7.53691e-08
4.54393e-08
1.50917e-08
-1.32596e-08
-4.06257e-08
-6.46097e-08
-8.65101e-08
-1.04164e-07
-1.18909e-07
-1.29449e-07
-1.36294e-07
-1.40254e-07
-1.38726e-07
-1.38922e-07
-1.26938e-07
-1.30627e-07
-9.98893e-08
-1.1218e-07
3.19944e-07
3.02732e-07
2.88821e-07
2.72654e-07
2.5506e-07
2.35685e-07
2.14788e-07
1.91417e-07
1.663e-07
1.3862e-07
1.10015e-07
7.9365e-08
4.93731e-08
1.85451e-08
-9.84646e-09
-3.77324e-08
-6.14847e-08
-8.39069e-08
-1.00891e-07
-1.16288e-07
-1.25611e-07
-1.33449e-07
-1.35699e-07
-1.36096e-07
-1.34082e-07
-1.25528e-07
-1.29351e-07
-9.26985e-08
-1.29903e-07
3.23979e-07
3.08668e-07
2.94327e-07
2.77499e-07
2.59531e-07
2.39916e-07
2.19001e-07
1.95682e-07
1.70625e-07
1.42871e-07
1.14097e-07
8.30915e-08
5.27065e-08
2.13591e-08
-7.43719e-09
-3.58318e-08
-5.98499e-08
-8.25793e-08
-9.94296e-08
-1.15027e-07
-1.23731e-07
-1.32014e-07
-1.32945e-07
-1.34626e-07
-1.29662e-07
-1.24917e-07
-1.22359e-07
-8.92664e-08
-1.44438e-07
3.26115e-07
3.09471e-07
2.9465e-07
2.78283e-07
2.61095e-07
2.42372e-07
2.21967e-07
1.98794e-07
1.73774e-07
1.4592e-07
1.16942e-07
8.56078e-08
5.48083e-08
2.29924e-08
-6.31115e-09
-3.5059e-08
-5.94684e-08
-8.23878e-08
-9.95296e-08
-1.14975e-07
-1.23786e-07
-1.31763e-07
-1.32276e-07
-1.34124e-07
-1.27348e-07
-1.24052e-07
-1.14079e-07
-9.31135e-08
-1.6667e-07
3.45282e-07
3.21868e-07
3.03553e-07
2.86117e-07
2.68748e-07
2.496e-07
2.28956e-07
2.05563e-07
1.80133e-07
1.5164e-07
1.21735e-07
8.93054e-08
5.71981e-08
2.40821e-08
-6.50157e-09
-3.63335e-08
-6.165e-08
-8.50352e-08
-1.02422e-07
-1.17599e-07
-1.2606e-07
-1.32999e-07
-1.32884e-07
-1.33153e-07
-1.24855e-07
-1.21207e-07
-1.04763e-07
-9.81044e-08
-1.33573e-07
-4.84927e-07
-4.62762e-07
-4.38884e-07
-4.61022e-07
-5.208e-07
-5.74172e-07
-5.9856e-07
-5.90719e-07
-5.56948e-07
-5.08281e-07
-4.54313e-07
-4.00605e-07
-3.4999e-07
-3.04063e-07
-2.63686e-07
-2.2889e-07
-1.99149e-07
-1.73752e-07
-1.52157e-07
-1.34152e-07
-1.19425e-07
-1.07731e-07
-9.88224e-08
-9.25264e-08
-8.89883e-08
-8.62813e-08
-8.106e-08
-6.35513e-08
-3.14769e-08
5.65719e-09
-4.89281e-07
-4.73989e-07
-4.5512e-07
-4.78144e-07
-5.36447e-07
-6.03671e-07
-6.43589e-07
-6.46595e-07
-6.15784e-07
-5.63739e-07
-5.03342e-07
-4.42527e-07
-3.84999e-07
-3.32466e-07
-2.85988e-07
-2.45917e-07
-2.11737e-07
-1.82633e-07
-1.57755e-07
-1.36663e-07
-1.19189e-07
-1.0471e-07
-9.30566e-08
-8.32288e-08
-7.48819e-08
-6.71507e-08
-6.01374e-08
-5.56308e-08
-5.09797e-08
-4.47837e-08
-4.94172e-07
-4.87521e-07
-4.82369e-07
-5.09504e-07
-5.63781e-07
-6.31557e-07
-6.86753e-07
-7.07357e-07
-6.89761e-07
-6.41403e-07
-5.76905e-07
-5.08407e-07
-4.42554e-07
-3.82147e-07
-3.28147e-07
-2.80794e-07
-2.39832e-07
-2.04623e-07
-1.7457e-07
-1.48866e-07
-1.27275e-07
-1.08946e-07
-9.33444e-08
-8.00169e-08
-6.83061e-08
-5.883e-08
-5.04325e-08
-4.37306e-08
-3.3499e-08
-1.99659e-08
-5.0009e-07
-5.02737e-07
-5.15532e-07
-5.51731e-07
-6.07809e-07
-6.72674e-07
-7.32579e-07
-7.68281e-07
-7.67463e-07
-7.30624e-07
-6.67559e-07
-5.92306e-07
-5.15672e-07
-4.43627e-07
-3.7896e-07
-3.22425e-07
-2.73646e-07
-2.31413e-07
-1.94977e-07
-1.63666e-07
-1.37053e-07
-1.14705e-07
-9.55429e-08
-7.95462e-08
-6.54647e-08
-5.37996e-08
-4.28706e-08
-3.29356e-08
-2.23077e-08
-1.20801e-08
-5.07304e-07
-5.187e-07
-5.49723e-07
-5.99346e-07
-6.63099e-07
-7.29125e-07
-7.89659e-07
-8.31793e-07
-8.43302e-07
-8.19485e-07
-7.6421e-07
-6.88217e-07
-6.03258e-07
-5.18417e-07
-4.39458e-07
-3.6968e-07
-3.10233e-07
-2.59772e-07
-2.16423e-07
-1.79279e-07
-1.47358e-07
-1.20581e-07
-9.77571e-08
-7.87656e-08
-6.2354e-08
-4.84866e-08
-3.61149e-08
-2.52642e-08
-1.53735e-08
-6.31836e-09
-5.14818e-07
-5.3329e-07
-5.8002e-07
-6.44116e-07
-7.19344e-07
-7.94419e-07
-8.58856e-07
-9.04372e-07
-9.21635e-07
-9.05906e-07
-8.58559e-07
-7.86797e-07
-6.99855e-07
-6.06477e-07
-5.14394e-07
-4.29353e-07
-3.5482e-07
-2.92048e-07
-2.39447e-07
-1.95461e-07
-1.58068e-07
-1.26678e-07
-1.00044e-07
-7.77346e-08
-5.87994e-08
-4.28514e-08
-2.92319e-08
-1.75794e-08
-7.35555e-09
1.97199e-09
-5.19624e-07
-5.42923e-07
-6.01926e-07
-6.79116e-07
-7.68174e-07
-8.56349e-07
-9.32106e-07
-9.84906e-07
-1.00671e-06
-9.9434e-07
-9.50615e-07
-8.82286e-07
-7.96737e-07
-7.00498e-07
-6.00062e-07
-5.02152e-07
-4.12194e-07
-3.33851e-07
-2.67811e-07
-2.13285e-07
-1.68193e-07
-1.31076e-07
-1.00254e-07
-7.46527e-08
-5.32255e-08
-3.52937e-08
-2.02202e-08
-7.46105e-09
3.52604e-09
1.33427e-08
-5.17569e-07
-5.43802e-07
-6.11495e-07
-6.98874e-07
-8.00751e-07
-9.03984e-07
-9.95591e-07
-1.06139e-06
-1.09231e-06
-1.08452e-06
-1.04186e-06
-9.73958e-07
-8.88678e-07
-7.91534e-07
-6.87097e-07
-5.8087e-07
-4.78468e-07
-3.84953e-07
-3.03504e-07
-2.35207e-07
-1.79112e-07
-1.33589e-07
-9.6763e-08
-6.69664e-08
-4.27021e-08
-2.28101e-08
-6.39766e-09
7.26432e-09
1.87824e-08
2.88397e-08
-5.05098e-07
-5.3372e-07
-6.06432e-07
-7.00612e-07
-8.11282e-07
-9.2699e-07
-1.03358e-06
-1.11583e-06
-1.16022e-06
-1.1622e-06
-1.12434e-06
-1.05739e-06
-9.71184e-07
-8.72319e-07
-7.6504e-07
-6.53571e-07
-5.42683e-07
-4.37393e-07
-3.42079e-07
-2.59537e-07
-1.90668e-07
-1.34651e-07
-8.98502e-08
-5.43481e-08
-2.62856e-08
-4.02518e-09
1.37313e-08
2.80403e-08
3.97351e-08
4.96739e-08
-4.8075e-07
-5.12253e-07
-5.86724e-07
-6.843e-07
-7.99345e-07
-9.21456e-07
-1.03749e-06
-1.13194e-06
-1.19063e-06
-1.20582e-06
-1.17799e-06
-1.11706e-06
-1.03307e-06
-9.33635e-07
-8.24092e-07
-7.08629e-07
-5.91706e-07
-4.77887e-07
-3.71833e-07
-2.77192e-07
-1.96262e-07
-1.29572e-07
-7.61591e-08
-3.42311e-08
-1.77144e-09
2.317e-08
4.2284e-08
5.69684e-08
6.84031e-08
7.76715e-08
-4.46267e-07
-4.80629e-07
-5.55051e-07
-6.528e-07
-7.67594e-07
-8.89923e-07
-1.00814e-06
-1.10764e-06
-1.17437e-06
-1.20094e-06
-1.18491e-06
-1.13278e-06
-1.0551e-06
-9.58687e-07
-8.4942e-07
-7.32046e-07
-6.11442e-07
-4.92039e-07
-3.78666e-07
-2.75401e-07
-1.85243e-07
-1.09734e-07
-4.8775e-08
-9.94147e-10
3.55305e-08
6.28487e-08
8.29171e-08
9.74438e-08
1.07918e-07
1.15702e-07
-4.0628e-07
-4.42865e-07
-5.16617e-07
-6.12357e-07
-7.23375e-07
-8.40731e-07
-9.54017e-07
-1.05008e-06
-1.11637e-06
-1.14586e-06
-1.13698e-06
-1.09467e-06
-1.02303e-06
-9.30633e-07
-8.22817e-07
-7.05439e-07
-5.83856e-07
-4.6233e-07
-3.4602e-07
-2.39294e-07
-1.45243e-07
-6.56329e-08
-8.94085e-10
4.98421e-08
8.82194e-08
1.16238e-07
1.35938e-07
1.49232e-07
1.57743e-07
1.63088e-07
-3.67322e-07
-4.05282e-07
-4.78384e-07
-5.71448e-07
-6.77354e-07
-7.87271e-07
-8.91522e-07
-9.78513e-07
-1.03753e-06
-1.06208e-06
-1.05124e-06
-1.00788e-06
-9.38052e-07
-8.46966e-07
-7.40349e-07
-6.241e-07
-5.03543e-07
-3.83818e-07
-2.69554e-07
-1.65406e-07
-7.39788e-08
3.16652e-09
6.58129e-08
1.14647e-07
1.51109e-07
1.77113e-07
1.94561e-07
2.05388e-07
2.11135e-07
2.13459e-07
-3.36209e-07
-3.75026e-07
-4.47629e-07
-5.38486e-07
-6.401e-07
-7.4348e-07
-8.39209e-07
-9.16742e-07
-9.67019e-07
-9.84617e-07
-9.68612e-07
-9.21233e-07
-8.47537e-07
-7.53491e-07
-6.45048e-07
-5.28353e-07
-4.09016e-07
-2.92371e-07
-1.82785e-07
-8.363e-08
2.6942e-09
7.32906e-08
1.31072e-07
1.75542e-07
2.08142e-07
2.30807e-07
2.45206e-07
2.5327e-07
2.56311e-07
2.55932e-07
-3.18891e-07
-3.58102e-07
-4.30386e-07
-5.19985e-07
-6.19202e-07
-7.18932e-07
-8.0982e-07
-8.81754e-07
-9.26428e-07
-9.39098e-07
-9.19179e-07
-8.68857e-07
-7.92568e-07
-6.96565e-07
-5.8697e-07
-4.6999e-07
-3.51525e-07
-2.36886e-07
-1.30241e-07
-3.47773e-08
4.74653e-08
1.15544e-07
1.69731e-07
2.10717e-07
2.40399e-07
2.60648e-07
2.7295e-07
2.79204e-07
2.80576e-07
2.78608e-07
-3.18863e-07
-3.58074e-07
-4.30356e-07
-5.19953e-07
-6.19165e-07
-7.1889e-07
-8.09774e-07
-8.81704e-07
-9.26376e-07
-9.39047e-07
-9.19132e-07
-8.68814e-07
-7.92528e-07
-6.96529e-07
-5.86941e-07
-4.69967e-07
-3.51509e-07
-2.36876e-07
-1.30236e-07
-3.4775e-08
4.7465e-08
1.1554e-07
1.69725e-07
2.10712e-07
2.40395e-07
2.60645e-07
2.72948e-07
2.79203e-07
2.80577e-07
2.7861e-07
-3.36128e-07
-3.74946e-07
-4.47544e-07
-5.38391e-07
-6.39994e-07
-7.4336e-07
-8.39077e-07
-9.16602e-07
-9.66875e-07
-9.84474e-07
-9.68476e-07
-9.2111e-07
-8.47429e-07
-7.53397e-07
-6.44971e-07
-5.28294e-07
-4.08975e-07
-2.92346e-07
-1.82772e-07
-8.36234e-08
2.70048e-09
7.32627e-08
1.3105e-07
1.75525e-07
2.08129e-07
2.30798e-07
2.45202e-07
2.53268e-07
2.56312e-07
2.55936e-07
-3.67197e-07
-4.05158e-07
-4.78251e-07
-5.713e-07
-6.77189e-07
-7.87086e-07
-8.9132e-07
-9.78299e-07
-1.03731e-06
-1.06187e-06
-1.05104e-06
-1.0077e-06
-9.37895e-07
-8.46834e-07
-7.40245e-07
-6.24024e-07
-5.03494e-07
-3.83795e-07
-2.69552e-07
-1.65418e-07
-7.40018e-08