/*--------------------------------*- C++ -*----------------------------------*\
| =========                 |                                                 |
| \\      /  F ield         | OpenFOAM: The Open Source CFD Toolbox           |
|  \\    /   O peration     | Version:  2312                                  |
|   \\  /    A nd           | Website:  www.openfoam.com                      |
|    \\/     M anipulation  |                                                 |
\*---------------------------------------------------------------------------*/
FoamFile
{
    version     2.0;
    format      ascii;
    arch        "LSB;label=32;scalar=64";
    class       surfaceScalarField;
    location    "65000";
    object      phi;
}
// * * * * * * * * * * * * * * * * * * * * * * * * * * * * * * * * * * * * * //

dimensions      [0 3 -1 0 0 0 0];

oriented        oriented;

internalField   nonuniform List<scalar> 
21240
(
0.000664974
1.69224e-06
0.000661072
3.90236e-06
0.000655751
5.32079e-06
0.000649515
6.23628e-06
0.00064264
6.87494e-06
0.000635269
7.37146e-06
0.000627492
7.7763e-06
0.00061939
8.10253e-06
0.000611034
8.35615e-06
0.000602487
8.54615e-06
0.000593803
8.68482e-06
0.000585018
8.78447e-06
0.000576163
8.85472e-06
0.000567262
8.9019e-06
0.000558332
8.92982e-06
0.000549391
8.94093e-06
0.000540454
8.93708e-06
0.000531534
8.91982e-06
0.000522643
8.89048e-06
0.000513793
8.85014e-06
0.000504994
8.79961e-06
0.000496254
8.73948e-06
0.000487584
8.67017e-06
0.000478992
8.59198e-06
0.000470487
8.50512e-06
0.000462077
8.40972e-06
0.000453771
8.30592e-06
0.000445578
8.19372e-06
0.000437504
8.07324e-06
0.00042956
7.94433e-06
0.000421753
7.80724e-06
0.000414091
7.66158e-06
0.000406583
7.50787e-06
0.000399238
7.34535e-06
0.000392063
7.17509e-06
0.000385067
6.99559e-06
0.000378258
6.80901e-06
0.000371646
6.6124e-06
0.000365236
6.40999e-06
0.00035904
6.19611e-06
0.000353061
5.97875e-06
0.000347314
5.74718e-06
0.000341798
5.51632e-06
0.000336531
5.26608e-06
0.000331507
5.02402e-06
0.000326755
4.75278e-06
0.000322252
4.50309e-06
0.000318046
4.2057e-06
0.000314092
3.95415e-06
0.000310472
3.61922e-06
0.000307096
3.37612e-06
0.000304119
2.97729e-06
0.000301354
2.76559e-06
0.000299118
2.23512e-06
0.000297003
2.11523e-06
0.000295763
1.23996e-06
0.000294291
1.47261e-06
0.000294508
-2.17095e-07
0.000293353
1.15481e-06
-3.20778e-06
0.000296561
0.000667556
8.02947e-07
0.00066912
2.33783e-06
0.000670854
3.58734e-06
0.000672525
4.56527e-06
0.000674054
5.34603e-06
0.000675427
5.9984e-06
0.000676639
6.56402e-06
0.00067768
7.0613e-06
0.000678539
7.49727e-06
0.000679209
7.87638e-06
0.00067969
8.20426e-06
0.000679986
8.48782e-06
0.000680107
8.73409e-06
0.00068006
8.94892e-06
0.000679853
9.13662e-06
0.000679494
9.30014e-06
0.000678989
9.44161e-06
0.000678347
9.5626e-06
0.000677572
9.66458e-06
0.000676674
9.74858e-06
0.000675658
9.81575e-06
0.000674531
9.86661e-06
0.000673299
9.90201e-06
0.000671969
9.92201e-06
0.000670547
9.92733e-06
0.000669039
9.91758e-06
0.000667451
9.89364e-06
0.00066579
9.85457e-06
0.000664062
9.80166e-06
0.000662273
9.7332e-06
0.000660429
9.65131e-06
0.000658537
9.55308e-06
0.000656603
9.44203e-06
0.000654635
9.3134e-06
0.000652637
9.17307e-06
0.00065062
9.0132e-06
0.000648585
8.84365e-06
0.000646546
8.6515e-06
0.000644503
8.45319e-06
0.000642471
8.22738e-06
0.000640449
8.00141e-06
0.000638456
7.73999e-06
0.000636484
7.48846e-06
0.000634561
7.18844e-06
0.00063267
6.91499e-06
0.000630852
6.57154e-06
0.000629072
6.28227e-06
0.000627391
5.88747e-06
0.000625752
5.59238e-06
0.000624238
5.13333e-06
0.000622766
4.84879e-06
0.000621438
4.305e-06
0.000620146
4.05746e-06
0.000618983
3.39815e-06
0.00061787
3.22855e-06
0.000616696
2.41417e-06
0.000615791
2.37756e-06
0.000614184
1.38985e-06
0.000613803
1.53566e-06
4.42797e-07
0.000610152
0.000666951
5.18653e-07
0.000667819
1.47016e-06
0.000669059
2.3473e-06
0.000670484
3.14019e-06
0.000671985
3.84465e-06
0.000673515
4.46834e-06
0.000675056
5.02348e-06
0.000676596
5.52118e-06
0.000678124
5.96925e-06
0.000679628
6.37259e-06
0.000681097
6.73475e-06
0.000682526
7.05898e-06
0.000683911
7.34883e-06
0.000685252
7.60774e-06
0.00068655
7.83902e-06
0.000687805
8.04527e-06
0.000689018
8.22873e-06
0.000690189
8.39093e-06
0.000691321
8.53339e-06
0.000692412
8.65699e-06
0.000693465
8.76289e-06
0.00069448
8.85151e-06
0.000695458
8.92387e-06
0.0006964
8.97986e-06
0.000697307
9.02047e-06
0.00069818
9.04507e-06
0.000699019
9.05481e-06
0.000699825
9.04844e-06
0.000700599
9.02753e-06
0.000701342
8.99002e-06
0.000702055
8.93825e-06
0.000702739
8.86902e-06
0.000703395
8.7859e-06
0.000704025
8.68405e-06
0.000704629
8.56895e-06
0.000705209
8.43336e-06
0.000705767
8.28564e-06
0.000706303
8.11502e-06
0.000706822
7.93414e-06
0.000707323
7.7271e-06
0.000707811
7.51274e-06
0.000708283
7.26781e-06
0.000708752
7.01998e-06
0.000709205
6.73566e-06
0.000709665
6.45484e-06
0.000710107
6.12979e-06
0.000710572
5.81701e-06
0.000711009
5.45029e-06
0.000711494
5.10717e-06
0.000711929
4.69876e-06
0.00071245
4.32722e-06
0.000712876
3.87921e-06
0.000713453
3.48101e-06
0.00071385
3.00078e-06
0.000714501
2.57712e-06
0.00071483
2.08515e-06
0.000715572
1.63588e-06
0.00071578
1.18238e-06
0.000716619
6.95723e-07
3.82465e-07
0.00071668
0.000666854
3.31494e-07
0.000667309
1.01536e-06
0.000667972
1.68393e-06
0.000668796
2.31649e-06
0.000669736
2.90385e-06
0.000670762
3.44309e-06
0.000671849
3.93577e-06
0.000672985
4.38556e-06
0.000674158
4.79636e-06
0.000675359
5.1714e-06
0.000676581
5.5132e-06
0.000677816
5.8238e-06
0.00067906
6.10518e-06
0.000680308
6.35932e-06
0.000681559
6.58825e-06
0.00068281
6.79378e-06
0.000684061
6.9776e-06
0.000685311
7.14102e-06
0.000686559
7.28527e-06
0.000687805
7.41118e-06
0.000689048
7.51964e-06
0.000690289
7.61117e-06
0.000691526
7.68643e-06
0.00069276
7.74568e-06
0.000693991
7.78942e-06
0.000695219
7.81763e-06
0.000696443
7.83071e-06
0.000697663
7.82842e-06
0.000698879
7.81109e-06
0.000700091
7.77828e-06
0.000701299
7.73028e-06
0.000702502
7.66653e-06
0.0007037
7.58723e-06
0.000704893
7.49183e-06
0.000706081
7.38031e-06
0.000707262
7.25233e-06
0.00070844
7.10742e-06
0.00070961
6.94589e-06
0.000710777
6.76622e-06
0.000711934
6.57021e-06
0.000713093
6.35418e-06
0.000714238
6.12295e-06
0.000715389
5.86871e-06
0.000716523
5.60195e-06
0.00071767
5.3072e-06
0.000718795
5.00539e-06
0.000719945
4.66718e-06
0.000721063
4.33222e-06
0.000722223
3.94687e-06
0.000723338
3.58341e-06
0.000724519
3.14639e-06
0.000725634
2.76395e-06
0.000726846
2.2694e-06
0.000727962
1.88491e-06
0.000729215
1.32406e-06
0.000730335
9.65594e-07
0.000731643
3.27031e-07
0.000732782
4.38991e-08
0.000734228
-7.5015e-07
-9.17242e-07
0.000735527
0.000666738
2.59747e-07
0.00066697
7.84062e-07
0.000667356
1.29755e-06
0.000667879
1.79321e-06
0.000668518
2.26513e-06
0.000669251
2.70974e-06
0.000670062
3.12558e-06
0.000670934
3.51272e-06
0.000671859
3.87205e-06
0.000672826
4.20469e-06
0.000673827
4.51173e-06
0.000674857
4.79415e-06
0.000675909
5.05288e-06
0.000676979
5.28891e-06
0.000678064
5.50326e-06
0.000679161
5.69696e-06
0.000680268
5.871e-06
0.000681382
6.02629e-06
0.000682504
6.1636e-06
0.000683632
6.28364e-06
0.000684764
6.38694e-06
0.000685902
6.47405e-06
0.000687043
6.54529e-06
0.000688187
6.60109e-06
0.000689335
6.64154e-06
0.000690486
6.66705e-06
0.000691639
6.67744e-06
0.000692794
6.67313e-06
0.000693952
6.65363e-06
0.00069511
6.61953e-06
0.000696271
6.56986e-06
0.000697432
6.50564e-06
0.000698594
6.42514e-06
0.000699756
6.33016e-06
0.000700918
6.21783e-06
0.000702079
6.09126e-06
0.000703241
5.94577e-06
0.0007044
5.78668e-06
0.00070556
5.60637e-06
0.000706716
5.41383e-06
0.000707874
5.19669e-06
0.000709027
4.96996e-06
0.000710182
4.71358e-06
0.000711331
4.45235e-06
0.000712485
4.15383e-06
0.000713632
3.8586e-06
0.000714785
3.51423e-06
0.00071593
3.18653e-06
0.000717086
2.79091e-06
0.000718236
2.43336e-06
0.000719405
1.97799e-06
0.000720574
1.59501e-06
0.000721776
1.067e-06
0.000722994
6.6649e-07
0.000724279
3.97487e-08
0.000725584
-3.39343e-07
0.000726955
-1.04455e-06
0.000728405
-1.40627e-06
0.000729925
-2.26997e-06
-2.58268e-06
0.000731591
0.000666724
2.02409e-07
0.000666899
6.08997e-07
0.000667184
1.01285e-06
0.00066757
1.40743e-06
0.000668046
1.78903e-06
0.000668601
2.15474e-06
0.000669224
2.50249e-06
0.000669905
2.83105e-06
0.000670638
3.13986e-06
0.000671414
3.42878e-06
0.000672227
3.69791e-06
0.000673074
3.94751e-06
0.000673949
4.17793e-06
0.000674848
4.38961e-06
0.000675768
4.58302e-06
0.000676707
4.7587e-06
0.000677661
4.91713e-06
0.000678628
5.05887e-06
0.000679607
5.18435e-06
0.000680597
5.29406e-06
0.000681595
5.3883e-06
0.000682602
5.46748e-06
0.000683616
5.53175e-06
0.000684635
5.58148e-06
0.00068566
5.61662e-06
0.00068669
5.63757e-06
0.000687723
5.644e-06
0.00068876
5.63643e-06
0.000689799
5.61417e-06
0.000690841
5.57797e-06
0.000691884
5.52667e-06
0.000692928
5.46141e-06
0.000693973
5.38033e-06
0.000695018
5.28529e-06
0.000696062
5.17335e-06
0.000697106
5.04759e-06
0.000698148
4.90338e-06
0.000699189
4.74575e-06
0.000700228
4.56748e-06
0.000701265
4.37672e-06
0.0007023
4.16218e-06
0.000703333
3.93697e-06
0.000704363
3.6834e-06
0.000705393
3.42238e-06
0.000706421
3.12622e-06
0.000707451
2.82817e-06
0.00070848
2.48499e-06
0.000709517
2.14952e-06
0.000710554
1.75449e-06
0.000711604
1.38337e-06
0.00071265
9.31467e-07
0.000713715
5.29741e-07
0.000714762
2.09435e-08
0.000715856
-4.2834e-07
0.00071694
-1.04361e-06
0.000718104
-1.50386e-06
0.000719281
-2.2213e-06
0.000720565
-2.69022e-06
0.000721843
-3.54833e-06
-4.00485e-06
0.000723265
0.000666708
1.60677e-07
0.000666834
4.83763e-07
0.000667041
8.0596e-07
0.000667325
1.12271e-06
0.000667683
1.43146e-06
0.000668107
1.7301e-06
0.000668593
2.01689e-06
0.000669133
2.29061e-06
0.000669723
2.55048e-06
0.000670355
2.79618e-06
0.000671027
3.02633e-06
0.000671734
3.24103e-06
0.000672471
3.44043e-06
0.000673236
3.62464e-06
0.000674025
3.79375e-06
0.000674836
3.94799e-06
0.000675666
4.08752e-06
0.000676512
4.21264e-06
0.000677373
4.32351e-06
0.000678246
4.42043e-06
0.000679131
4.50351e-06
0.000680026
4.573e-06
0.000680928
4.62893e-06
0.000681838
4.67155e-06
0.000682754
4.70073e-06
0.000683675
4.71674e-06
0.0006846
4.71927e-06
0.000685527
4.70866e-06
0.000686457
4.68435e-06
0.000687388
4.64682e-06
0.00068832
4.59516e-06
0.000689251
4.53011e-06
0.000690181
4.45026e-06
0.00069111
4.35683e-06
0.000692036
4.24764e-06
0.000692958
4.12468e-06
0.000693877
3.98463e-06
0.000694792
3.83075e-06
0.000695702
3.65794e-06
0.000696607
3.47151e-06
0.000697505
3.26361e-06
0.0006984
3.0428e-06
0.000699286
2.79702e-06
0.000700168
2.53999e-06
0.000701042
2.25309e-06
0.000701912
1.958e-06
0.000702771
1.62558e-06
0.000703631
1.28967e-06
0.000704481
9.04485e-07
0.000705341
5.23163e-07
0.0007062
7.28485e-08
0.000707078
-3.47998e-07
0.000707958
-8.59609e-07
0.000708861
-1.33075e-06
0.000709747
-1.93011e-06
0.000710692
-2.44864e-06
0.000711623
-3.15245e-06
0.000712647
-3.7144e-06
0.000713649
-4.55004e-06
-5.14507e-06
0.000714789
0.000666699
1.28639e-07
0.000666796
3.86927e-07
0.000666957
6.44874e-07
0.00066718
8.99285e-07
0.000667463
1.14842e-06
0.000667802
1.39075e-06
0.000668194
1.62494e-06
0.000668635
1.84991e-06
0.000669121
2.06478e-06
0.000669648
2.26882e-06
0.000670213
2.46142e-06
0.000670812
2.64217e-06
0.000671442
2.81084e-06
0.000672099
2.96734e-06
0.000672781
3.1116e-06
0.000673485
3.24359e-06
0.00067421
3.36331e-06
0.000674951
3.47082e-06
0.000675709
3.56614e-06
0.00067648
3.64937e-06
0.000677263
3.72052e-06
0.000678056
3.77969e-06
0.000678858
3.82684e-06
0.000679668
3.86206e-06
0.000680483
3.88524e-06
0.000681303
3.89647e-06
0.000682127
3.89553e-06
0.000682953
3.88251e-06
0.000683781
3.85704e-06
0.000684608
3.81929e-06
0.000685435
3.76866e-06
0.000686259
3.70542e-06
0.000687081
3.62869e-06
0.000687899
3.53896e-06
0.000688712
3.4349e-06
0.000689519
3.31735e-06
0.000690319
3.18438e-06
0.000691112
3.03741e-06
0.000691897
2.87358e-06
0.000692673
2.69524e-06
0.000693439
2.49811e-06
0.000694195
2.28608e-06
0.00069494
2.0527e-06
0.000695675
1.80421e-06
0.000696398
1.5309e-06
0.000697113
1.24286e-06
0.000697813
9.25509e-07
0.000698507
5.9519e-07
0.000699181
2.30431e-07
0.000699852
-1.47063e-07
0.000700501
-5.76695e-07
0.000701163
-1.00992e-06
0.000701806
-1.50284e-06
0.000702469
-1.99304e-06
0.000703104
-2.56542e-06
0.000703775
-3.12022e-06
0.000704411
-3.78832e-06
0.000705109
-4.41175e-06
0.000705753
-5.19485e-06
-5.88713e-06
0.000706496
0.000666693
1.02464e-07
0.000666772
3.08055e-07
0.000666903
5.13526e-07
0.000667086
7.16546e-07
0.000667318
9.15886e-07
0.000667599
1.11043e-06
0.000667924
1.29917e-06
0.000668293
1.48121e-06
0.000668702
1.6558e-06
0.000669149
1.8223e-06
0.00066963
1.98017e-06
0.000670143
2.129e-06
0.000670685
2.26844e-06
0.000671255
2.39826e-06
0.000671848
2.51826e-06
0.000672463
2.62831e-06
0.000673098
2.7283e-06
0.000673751
2.81814e-06
0.000674419
2.89779e-06
0.000675101
2.9672e-06
0.000675796
3.02633e-06
0.0006765
3.07515e-06
0.000677213
3.1136e-06
0.000677934
3.14164e-06
0.00067866
3.15918e-06
0.00067939
3.16617e-06
0.000680123
3.16245e-06
0.000680858
3.14795e-06
0.000681592
3.12244e-06
0.000682326
3.08584e-06
0.000683057
3.0378e-06
0.000683784
2.97825e-06
0.000684506
2.9067e-06
0.000685222
2.82308e-06
0.00068593
2.72676e-06
0.00068663
2.61767e-06
0.000687319
2.49497e-06
0.000687998
2.35868e-06
0.000688664
2.20764e-06
0.000689317
2.04202e-06
0.000689955
1.86025e-06
0.000690578
1.66275e-06
0.000691183
1.44738e-06
0.000691773
1.21495e-06
0.000692341
9.62531e-07
0.000692892
6.91522e-07
0.00069342
3.97821e-07
0.000693931
8.43562e-08
0.00069442
-2.58627e-07
0.000694898
-6.24704e-07
0.000695343
-1.02207e-06
0.000695778
-1.44454e-06
0.000696179
-1.90423e-06
0.000696577
-2.39116e-06
0.000696935
-2.92349e-06
0.0006973
-3.4854e-06
0.000697616
-4.1036e-06
0.000697956
-4.75233e-06
0.000698233
-5.47151e-06
-6.21824e-06
0.000698564
0.000666689
8.0393e-08
0.000666755
2.41635e-07
0.000666866
4.02853e-07
0.00066702
5.62319e-07
0.000667217
7.19145e-07
0.000667455
8.72514e-07
0.000667732
1.02167e-06
0.000668047
1.16594e-06
0.000668399
1.3047e-06
0.000668783
1.43744e-06
0.0006692
1.56368e-06
0.000669646
1.68305e-06
0.000670119
1.7952e-06
0.000670618
1.89985e-06
0.000671139
1.99679e-06
0.000671682
2.0858e-06
0.000672243
2.16675e-06
0.000672822
2.23948e-06
0.000673416
2.30391e-06
0.000674023
2.35992e-06
0.000674642
2.40742e-06
0.000675271
2.44633e-06
0.000675908
2.47656e-06
0.000676551
2.49801e-06
0.0006772
2.51059e-06
0.000677852
2.51417e-06
0.000678506
2.50864e-06
0.00067916
2.49382e-06
0.000679813
2.46959e-06
0.000680463
2.43569e-06
0.000681109
2.39198e-06
0.000681749
2.33812e-06
0.000682382
2.27396e-06
0.000683006
2.19902e-06
0.000683619
2.11317e-06
0.000684221
2.01574e-06
0.000684809
1.90667e-06
0.000685383
1.78501e-06
0.00068594
1.65084e-06
0.000686479
1.50281e-06
0.000686998
1.34128e-06
0.000687497
1.16424e-06
0.000687971
9.72626e-07
0.000688423
7.63446e-07
0.000688847
5.38646e-07
0.000689244
2.93887e-07
0.000689608
3.39793e-08
0.000689949
-2.56153e-07
0.000690254
-5.63636e-07
0.000690529
-9.0042e-07
0.000690763
-1.25615e-06
0.000690968
-1.64906e-06
0.000691125
-2.0609e-06
0.000691254
-2.52034e-06
0.000691327
-2.99672e-06
0.000691377
-3.53569e-06
0.00069136
-4.0863e-06
0.000691329
-4.72107e-06
0.000691213
-5.35563e-06
-6.10437e-06
0.000691099
0.000666686
6.12635e-08
0.000666743
1.84106e-07
0.000666839
3.06964e-07
0.000666973
4.2857e-07
0.000667144
5.48285e-07
0.000667351
6.65516e-07
0.000667593
7.79712e-07
0.000667868
8.90361e-07
0.000668176
9.97002e-07
0.000668514
1.09921e-06
0.000668881
1.19663e-06
0.000669275
1.2889e-06
0.000669695
1.37576e-06
0.000670138
1.45693e-06
0.000670602
1.53221e-06
0.000671087
1.60139e-06
0.000671589
1.66432e-06
0.000672108
1.72084e-06
0.000672641
1.77084e-06
0.000673187
1.81418e-06
0.000673743
1.85077e-06
0.000674309
1.88049e-06
0.000674882
1.90326e-06
0.000675462
1.91894e-06
0.000676045
1.92745e-06
0.00067663
1.92862e-06
0.000677216
1.92239e-06
0.000677802
1.90853e-06
0.000678384
1.88697e-06
0.000678963
1.85739e-06
0.000679535
1.81977e-06
0.000680099
1.77366e-06
0.000680654
1.71908e-06
0.000681198
1.65537e-06
0.000681728
1.58271e-06
0.000682244
1.50013e-06
0.000682743
1.40801e-06
0.000683223
1.30494e-06
0.000683682
1.1917e-06
0.000684118
1.06616e-06
0.00068453
9.29796e-07
0.000684915
7.79367e-07
0.00068527
6.17518e-07
0.000685594
4.39299e-07
0.000685883
2.49381e-07
0.000686137
4.0754e-08
0.000686354
-1.83844e-07
0.000686531
-4.3313e-07
0.000686662
-6.94054e-07
0.000686748
-9.86447e-07
0.000686781
-1.2891e-06
0.000686765
-1.63321e-06
0.000686688
-1.98372e-06
0.000686558
-2.39031e-06
0.000686356
-2.79537e-06
0.000686099
-3.2784e-06
0.000685758
-3.74502e-06
0.000685359
-4.32268e-06
0.00068486
-4.85673e-06
-5.55114e-06
0.000684307
0.000666684
4.42399e-08
0.000666735
1.32934e-07
0.00066682
2.21656e-07
0.000666939
3.09513e-07
0.000667091
3.9606e-07
0.000667276
4.80883e-07
0.000667492
5.63595e-07
0.000667739
6.43831e-07
0.000668014
7.21257e-07
0.000668318
7.95563e-07
0.000668648
8.66469e-07
0.000669003
9.33719e-07
0.000669382
9.97087e-07
0.000669783
1.05637e-06
0.000670204
1.11138e-06
0.000670643
1.16195e-06
0.000671099
1.20795e-06
0.000671571
1.24924e-06
0.000672056
1.28571e-06
0.000672553
1.31723e-06
0.00067306
1.34373e-06
0.000673575
1.36508e-06
0.000674098
1.38121e-06
0.000674624
1.39199e-06
0.000675155
1.39735e-06
0.000675686
1.39714e-06
0.000676217
1.3913e-06
0.000676746
1.37961e-06
0.000677271
1.36206e-06
0.00067779
1.33832e-06
0.000678301
1.30843e-06
0.000678803
1.27194e-06
0.000679293
1.22896e-06
0.00067977
1.17883e-06
0.000680231
1.12184e-06
0.000680674
1.057e-06
0.000681097
9.84874e-07
0.000681498
9.03981e-07
0.000681874
8.15356e-07
0.000682224
7.16762e-07
0.000682543
6.10022e-07
0.000682831
4.91705e-07
0.000683084
3.64963e-07
0.000683298
2.2452e-07
0.000683472
7.59689e-08
0.000683604
-9.0967e-08
0.000683687
-2.67567e-07
0.00068372
-4.65668e-07
0.000683697
-6.70924e-07
0.000683615
-9.04769e-07
0.000683469
-1.1432e-06
0.000683256
-1.42027e-06
0.000682969
-1.69652e-06
0.000682605
-2.02647e-06
0.000682155
-2.34549e-06
0.000681618
-2.7412e-06
0.000680981
-3.10777e-06
0.000680245
-3.58646e-06
0.000679391
-4.00357e-06
-4.58699e-06
0.000678427
0.000666682
2.8676e-08
0.000666729
8.61638e-08
0.000666807
1.43678e-07
0.000666916
2.00648e-07
0.000667055
2.56792e-07
0.000667224
3.11847e-07
0.000667422
3.65565e-07
0.000667648
4.17713e-07
0.000667901
4.68072e-07
0.000668181
5.1644e-07
0.000668484
5.62631e-07
0.000668812
6.06472e-07
0.000669161
6.47809e-07
0.000669531
6.86498e-07
0.00066992
7.22413e-07
0.000670326
7.55435e-07
0.000670749
7.85463e-07
0.000671186
8.12393e-07
0.000671635
8.36149e-07
0.000672096
8.56634e-07
0.000672566
8.73785e-07
0.000673043
8.87509e-07
0.000673527
8.97754e-07
0.000674014
9.04413e-07
0.000674504
9.07448e-07
0.000674995
9.06725e-07
0.000675484
9.02222e-07
0.00067597
8.9376e-07
0.00067645
8.81341e-07
0.000676924
8.64716e-07
0.000677388
8.43932e-07
0.000677842
8.18631e-07
0.000678282
7.88939e-07
0.000678706
7.54332e-07
0.000679113
7.15071e-07
0.0006795
6.70378e-07
0.000679864
6.20749e-07
0.000680203
5.65005e-07
0.000680514
5.04041e-07
0.000680795
4.36055e-07
0.000681042
3.62609e-07
0.000681253
2.80932e-07
0.000681424
1.93716e-07
0.000681552
9.67341e-08
0.000681633
-4.98749e-09
0.000681664
-1.22242e-07
0.00068164
-2.43839e-07
0.000681556
-3.81554e-07
0.000681409
-5.23275e-07
0.000681191
-6.86595e-07
0.000680899
-8.51421e-07
0.000680524
-1.04582e-06
0.000680065
-1.23685e-06
0.000679508
-1.46961e-06
0.000678852
-1.69013e-06
0.000678082
-1.97114e-06
0.000677199
-2.22411e-06
0.000676179
-2.5668e-06
0.000675029
-2.85351e-06
-3.27524e-06
0.000673717
0.000666681
1.40355e-08
0.000666725
4.21762e-08
0.000666799
7.03351e-08
0.000666901
9.82345e-08
0.000667032
1.25738e-07
0.000667191
1.52717e-07
0.000667378
1.79051e-07
0.000667591
2.04626e-07
0.00066783
2.29335e-07
0.000668093
2.53077e-07
0.00066838
2.7576e-07
0.000668689
2.97297e-07
0.000669019
3.1761e-07
0.000669369
3.36626e-07
0.000669737
3.5428e-07
0.000670122
3.7051e-07
0.000670522
3.85263e-07
0.000670936
3.98485e-07
0.000671362
4.10133e-07
0.000671799
4.20157e-07
0.000672244
4.28524e-07
0.000672696
4.35181e-07
0.000673154
4.40101e-07
0.000673615
4.43227e-07
0.000674078
4.44538e-07
0.000674541
4.43961e-07
0.000675002
4.41486e-07
0.000675458
4.37016e-07
0.000675909
4.30554e-07
0.000676352
4.21965e-07
0.000676784
4.11279e-07
0.000677205
3.983e-07
0.000677611
3.83105e-07
0.000678
3.65405e-07
0.000678369
3.45355e-07
0.000678717
3.22525e-07
0.000679041
2.97205e-07
0.000679337
2.68742e-07
0.000679603
2.37654e-07
0.000679836
2.02942e-07
0.000680034
1.65502e-07
0.000680191
1.23788e-07
0.000680305
7.93283e-08
0.000680372
2.97806e-08
0.00068039
-2.27643e-08
0.00068035
-8.25653e-08
0.000680251
-1.44705e-07
0.000680085
-2.1545e-07
0.00067985
-2.87928e-07
0.000679535
-3.71979e-07
0.00067914
-4.56301e-07
0.000678651
-5.56624e-07
0.000678068
-6.54391e-07
0.000677373
-7.74911e-07
0.000676571
-8.87752e-07
0.000675634
-1.03383e-06
0.000674573
-1.16315e-06
0.000673348
-1.34213e-06
0.000671983
-1.48835e-06
-1.70984e-06
0.000670418
0.000666681
-1.5572e-10
0.000666723
-4.59643e-10
0.000666795
-7.55095e-10
0.000666894
-1.04202e-09
0.000667021
-1.32001e-09
0.000667175
-1.58871e-09
0.000667356
-1.84769e-09
0.000667563
-2.09658e-09
0.000667795
-2.33507e-09
0.00066805
-2.56296e-09
0.000668329
-2.78018e-09
0.000668629
-2.98669e-09
0.00066895
-3.18258e-09
0.00066929
-3.36793e-09
0.000669648
-3.54287e-09
0.000670022
-3.7076e-09
0.000670411
-3.86232e-09
0.000670813
-4.00736e-09
0.000671228
-4.14311e-09
0.000671652
-4.26998e-09
0.000672085
-4.38846e-09
0.000672525
-4.49896e-09
0.000672969
-4.60201e-09
0.000673417
-4.69805e-09
0.000673867
-4.78775e-09
0.000674316
-4.87168e-09
0.000674762
-4.95062e-09
0.000675204
-5.02518e-09
0.00067564
-5.09615e-09
0.000676067
-5.16427e-09
0.000676483
-5.23054e-09
0.000676887
-5.29555e-09
0.000677275
-5.36001e-09
0.000677646
-5.42511e-09
0.000677997
-5.49125e-09
0.000678325
-5.55931e-09
0.000678628
-5.63022e-09
0.000678902
-5.7048e-09
0.000679146
-5.78306e-09
0.000679355
-5.86718e-09
0.000679526
-5.95722e-09
0.000679656
-6.05907e-09
0.000679741
-6.17538e-09
0.000679778
-6.30935e-09
0.000679761
-6.45679e-09
0.000679685
-6.59633e-09
0.000679547
-6.7431e-09
0.000679339
-6.90949e-09
0.000679058
-7.09677e-09
0.000678693
-7.30066e-09
0.000678244
-7.52123e-09
0.000677696
-7.7595e-09
0.000677049
-8.0184e-09
0.000676283
-8.29719e-09
0.000675403
-8.60066e-09
0.000674379
-8.92493e-09
0.000673225
-9.27964e-09
0.000671892
-9.65465e-09
0.000670414
-1.00653e-08
-1.04925e-08
0.000668715
0.000666681
-1.43457e-08
0.000666723
-4.30893e-08
0.000666795
-7.18364e-08
0.000666894
-1.00307e-07
0.000667021
-1.28363e-07
0.000667175
-1.55876e-07
0.000667356
-1.82726e-07
0.000667563
-2.08796e-07
0.000667794
-2.33979e-07
0.00066805
-2.58174e-07
0.000668329
-2.8129e-07
0.000668629
-3.03237e-07
0.00066895
-3.2394e-07
0.000669289
-3.43325e-07
0.000669647
-3.61327e-07
0.000670021
-3.77884e-07
0.000670411
-3.92945e-07
0.000670813
-4.06455e-07
0.000671227
-4.18373e-07
0.000671652
-4.28649e-07
0.000672084
-4.37251e-07
0.000672524
-4.44127e-07
0.000672969
-4.49252e-07
0.000673417
-4.52569e-07
0.000673866
-4.54058e-07
0.000674315
-4.53648e-07
0.000674761
-4.5133e-07
0.000675203
-4.47007e-07
0.000675639
-4.40686e-07
0.000676066
-4.32232e-07
0.000676482
-4.21678e-07
0.000676886
-4.08828e-07
0.000677274
-3.9376e-07
0.000677645
-3.76189e-07
0.000677996
-3.56271e-07
0.000678324
-3.33576e-07
0.000678626
-3.08397e-07
0.000678901
-2.80083e-07
0.000679144
-2.49152e-07
0.000679353
-2.14607e-07
0.000679524
-1.77343e-07
0.000679654
-1.35816e-07
0.000679739
-9.15461e-08
0.000679775
-4.21743e-08
0.000679759
9.82275e-09
0.000679683
6.94605e-08
0.000679545
1.31298e-07
0.000679336
2.01703e-07
0.000679055
2.73819e-07
0.000678691
3.57478e-07
0.000678242
4.41369e-07
0.000677693
5.41224e-07
0.000677046
6.3848e-07
0.000676279
7.58451e-07
0.0006754
8.70691e-07
0.000674375
1.01613e-06
0.000673221
1.14475e-06
0.000671888
1.32299e-06
0.00067041
1.4684e-06
1.68905e-06
0.00066871
0.000666681
-2.89809e-08
0.000666725
-8.70615e-08
0.000666799
-1.45154e-07
0.000666901
-2.02686e-07
0.000667032
-2.59374e-07
0.000667191
-3.14955e-07
0.000667378
-3.6918e-07
0.000667591
-4.21815e-07
0.000667829
-4.72641e-07
0.000668092
-5.21454e-07
0.000668379
-5.6807e-07
0.000668688
-6.12314e-07
0.000669018
-6.54034e-07
0.000669368
-6.93085e-07
0.000669736
-7.29342e-07
0.000670121
-7.62685e-07
0.000670521
-7.93015e-07
0.000670935
-8.20228e-07
0.000671361
-8.44248e-07
0.000671797
-8.6498e-07
0.000672242
-8.82363e-07
0.000672694
-8.96301e-07
0.000673152
-9.06746e-07
0.000673613
-9.13592e-07
0.000674076
-9.16801e-07
0.000674538
-9.16241e-07
0.000674999
-9.11891e-07
0.000675455
-9.03573e-07
0.000675906
-8.91291e-07
0.000676348
-8.74798e-07
0.000676781
-8.54142e-07
0.000677201
-8.28967e-07
0.000677607
-7.99399e-07
0.000677995
-7.64917e-07
0.000678365
-7.25784e-07
0.000678713
-6.81223e-07
0.000679036
-6.31731e-07
0.000679332
-5.76132e-07
0.000679598
-5.15321e-07
0.000679831
-4.47499e-07
0.000680028
-3.74229e-07
0.000680185
-2.92742e-07
0.000680299
-2.05725e-07
0.000680366
-1.08936e-07
0.000680383
-7.43154e-09
0.000680343
1.09354e-07
0.000680244
2.30697e-07
0.000680077
3.6811e-07
0.000679842
5.09482e-07
0.000679527
6.72411e-07
0.000679131
8.36816e-07
0.000678642
1.03076e-06
0.000678059
1.2213e-06
0.000677364
1.45354e-06
0.000676561
1.67347e-06
0.000675623
1.95388e-06
0.000674562
2.20617e-06
0.000673337
2.54816e-06
0.000671971
2.83408e-06
3.25502e-06
0.000670405
0.000666682
-4.45364e-08
0.000666729
-1.33807e-07
0.000666807
-2.23092e-07
0.000666916
-3.11495e-07
0.000667055
-3.98571e-07
0.000667224
-4.83906e-07
0.000667422
-5.6711e-07
0.000667648
-6.4782e-07
0.000667901
-7.25699e-07
0.00066818
-8.00438e-07
0.000668484
-8.71756e-07
0.000668811
-9.39399e-07
0.00066916
-1.00314e-06
0.000669529
-1.06277e-06
0.000669918
-1.11811e-06
0.000670324
-1.169e-06
0.000670747
-1.21529e-06
0.000671183
-1.25685e-06
0.000671633
-1.29358e-06
0.000672093
-1.32534e-06
0.000672563
-1.35206e-06
0.00067304
-1.37362e-06
0.000673523
-1.38994e-06
0.000674011
-1.4009e-06
0.0006745
-1.40643e-06
0.00067499
-1.40637e-06
0.000675479
-1.40068e-06
0.000675965
-1.38913e-06
0.000676445
-1.37171e-06
0.000676918
-1.3481e-06
0.000677383
-1.31833e-06
0.000677836
-1.28196e-06
0.000678275
-1.2391e-06
0.000678699
-1.18909e-06
0.000679106
-1.13222e-06
0.000679492
-1.06751e-06
0.000679856
-9.95506e-07
0.000680195
-9.14751e-07
0.000680506
-8.2627e-07
0.000680786
-7.27831e-07
0.000681033
-6.21256e-07
0.000681243
-5.03113e-07
0.000681414
-3.76556e-07
0.000681541
-2.36308e-07
0.000681622
-8.79261e-08
0.000681653
7.85072e-08
0.000681629
2.54886e-07
0.000681544
4.52689e-07
0.000681396
6.57616e-07
0.000681177
8.91103e-07
0.000680885
1.12914e-06
0.00068051
1.40579e-06
0.00068005
1.68158e-06
0.000679492
2.01103e-06
0.000678836
2.3295e-06
0.000678065
2.72465e-06
0.000677181
3.09057e-06
0.00067616
3.56863e-06
0.000675009
3.98498e-06
4.56771e-06
0.000673697
0.000666684
-6.15486e-08
0.000666735
-1.84946e-07
0.00066682
-3.08345e-07
0.000666939
-4.30476e-07
0.000667091
-5.50699e-07
0.000667276
-6.68421e-07
0.000667492
-7.8309e-07
0.000667738
-8.94194e-07
0.000668014
-1.00127e-06
0.000668317
-1.1039e-06
0.000668647
-1.2017e-06
0.000669002
-1.29436e-06
0.00066938
-1.38157e-06
0.000669781
-1.46308e-06
0.000670201
-1.53867e-06
0.00067064
-1.60815e-06
0.000671097
-1.67136e-06
0.000671568
-1.72814e-06
0.000672053
-1.77839e-06
0.000672549
-1.82196e-06
0.000673056
-1.85876e-06
0.000673571
-1.88868e-06
0.000674093
-1.91163e-06
0.000674619
-1.92748e-06
0.000675149
-1.93615e-06
0.00067568
-1.93747e-06
0.000676211
-1.93138e-06
0.000676739
-1.91764e-06
0.000677264
-1.8962e-06
0.000677782
-1.86675e-06
0.000678293
-1.82924e-06
0.000678795
-1.78324e-06
0.000679284
-1.72877e-06
0.00067976
-1.66517e-06
0.000680221
-1.59262e-06
0.000680663
-1.51016e-06
0.000681086
-1.41816e-06
0.000681487
-1.31522e-06
0.000681862
-1.20211e-06
0.000682211
-1.07672e-06
0.000682531
-9.40509e-07
0.000682818
-7.9025e-07
0.00068307
-6.28581e-07
0.000683284
-4.50558e-07
0.000683457
-2.60836e-07
0.000683588
-5.23096e-08
0.000683671
1.71758e-07
0.000683703
4.20798e-07
0.000683679
6.81423e-07
0.000683597
9.73484e-07
0.00068345
1.27578e-06
0.000683236
1.6195e-06
0.000682948
1.96958e-06
0.000682583
2.37572e-06
0.000682133
2.78028e-06
0.000681595
3.2628e-06
0.000680956
3.72882e-06
0.000680219
4.30593e-06
0.000679365
4.83925e-06
5.53309e-06
0.000678399
0.000666686
-8.06636e-08
0.000666743
-2.42432e-07
0.000666839
-4.04163e-07
0.000666973
-5.64127e-07
0.000667143
-7.21436e-07
0.00066735
-8.75271e-07
0.000667592
-1.02488e-06
0.000667867
-1.16957e-06
0.000668175
-1.30875e-06
0.000668513
-1.44188e-06
0.00066888
-1.5685e-06
0.000669274
-1.68822e-06
0.000669693
-1.80071e-06
0.000670135
-1.90568e-06
0.0006706
-2.00291e-06
0.000671084
-2.09221e-06
0.000671586
-2.17341e-06
0.000672104
-2.2464e-06
0.000672637
-2.31105e-06
0.000673182
-2.36727e-06
0.000673738
-2.41498e-06
0.000674304
-2.45407e-06
0.000674876
-2.48447e-06
0.000675455
-2.50608e-06
0.000676038
-2.51881e-06
0.000676623
-2.52252e-06
0.000677208
-2.51712e-06
0.000677793
-2.50242e-06
0.000678375
-2.4783e-06
0.000678953
-2.44451e-06
0.000679525
-2.40091e-06
0.000680089
-2.34715e-06
0.000680643
-2.28309e-06
0.000681186
-2.20825e-06
0.000681716
-2.12249e-06
0.000682231
-2.02517e-06
0.000682729
-1.91621e-06
0.000683208
-1.79467e-06
0.000683667
-1.66062e-06
0.000684103
-1.51272e-06
0.000684514
-1.35133e-06
0.000684898
-1.17445e-06
0.000685252
-9.82998e-07
0.000685576
-7.73999e-07
0.000685864
-5.49389e-07
0.000686117
-3.04827e-07
0.000686334
-4.4961e-08
0.00068651
2.44576e-07
0.000686639
5.51831e-07
0.000686725
8.88329e-07
0.000686757
1.24373e-06
0.00068674
1.63629e-06
0.000686662
2.04775e-06
0.000686531
2.5068e-06
0.000686328
2.98272e-06
0.00068607
3.52125e-06
0.000685727
4.07131e-06
0.000685328
4.70562e-06
0.000684827
5.3395e-06
6.08779e-06
0.000684273
0.000666689
-1.02717e-07
0.000666755
-3.088e-07
0.000666866
-5.14752e-07
0.00066702
-7.18238e-07
0.000667216
-9.18029e-07