/*--------------------------------*- C++ -*----------------------------------*\
| =========                 |                                                 |
| \\      /  F ield         | OpenFOAM: The Open Source CFD Toolbox           |
|  \\    /   O peration     | Version:  2312                                  |
|   \\  /    A nd           | Website:  www.openfoam.com                      |
|    \\/     M anipulation  |                                                 |
\*---------------------------------------------------------------------------*/
FoamFile
{
    version     2.0;
    format      ascii;
    arch        "LSB;label=32;scalar=64";
    class       volScalarField;
    location    "106000";
    object      p;
}
// * * * * * * * * * * * * * * * * * * * * * * * * * * * * * * * * * * * * * //

dimensions      [0 2 -2 0 0 0 0];

internalField   nonuniform List<scalar> 
10800
(
5.33298e-07
5.19175e-07
5.05408e-07
4.94831e-07
4.87409e-07
4.82019e-07
4.77569e-07
4.73491e-07
4.69617e-07
4.65954e-07
4.6254e-07
4.59378e-07
4.56434e-07
4.53659e-07
4.51007e-07
4.48443e-07
4.45947e-07
4.43506e-07
4.41108e-07
4.38745e-07
4.36408e-07
4.3409e-07
4.31784e-07
4.29485e-07
4.27187e-07
4.24888e-07
4.22584e-07
4.20273e-07
4.17952e-07
4.15621e-07
4.13277e-07
4.10921e-07
4.0855e-07
4.06166e-07
4.03768e-07
4.01355e-07
3.98929e-07
3.96489e-07
3.94036e-07
3.9157e-07
3.89093e-07
3.86603e-07
3.84102e-07
3.81589e-07
3.79065e-07
3.76529e-07
3.7398e-07
3.71416e-07
3.68839e-07
3.66236e-07
3.63627e-07
3.60961e-07
3.58318e-07
3.55529e-07
3.52893e-07
3.49774e-07
3.47428e-07
3.43036e-07
3.42744e-07
3.32154e-07
4.85253e-07
4.83526e-07
4.80881e-07
4.77756e-07
4.7454e-07
4.71447e-07
4.68524e-07
4.65739e-07
4.63038e-07
4.60393e-07
4.57797e-07
4.55255e-07
4.52775e-07
4.50356e-07
4.47992e-07
4.45673e-07
4.4339e-07
4.41136e-07
4.38905e-07
4.36691e-07
4.3449e-07
4.32299e-07
4.30114e-07
4.27931e-07
4.25747e-07
4.23559e-07
4.21367e-07
4.19166e-07
4.16957e-07
4.14737e-07
4.12507e-07
4.10263e-07
4.08008e-07
4.05739e-07
4.03457e-07
4.01161e-07
3.98853e-07
3.9653e-07
3.94197e-07
3.91847e-07
3.89491e-07
3.87114e-07
3.84735e-07
3.82331e-07
3.79933e-07
3.775e-07
3.75085e-07
3.72619e-07
3.70197e-07
3.67694e-07
3.65285e-07
3.62746e-07
3.60404e-07
3.5785e-07
3.55709e-07
3.53207e-07
3.51602e-07
3.49232e-07
3.48773e-07
3.46118e-07
4.76509e-07
4.75758e-07
4.74345e-07
4.72393e-07
4.7011e-07
4.6769e-07
4.65261e-07
4.62872e-07
4.60527e-07
4.58213e-07
4.55921e-07
4.5365e-07
4.51406e-07
4.49194e-07
4.47015e-07
4.44868e-07
4.42748e-07
4.40651e-07
4.38572e-07
4.36506e-07
4.34452e-07
4.32405e-07
4.30364e-07
4.28326e-07
4.26288e-07
4.24249e-07
4.22206e-07
4.20159e-07
4.18105e-07
4.16044e-07
4.13974e-07
4.11896e-07
4.09808e-07
4.07709e-07
4.05601e-07
4.03481e-07
4.01352e-07
3.9921e-07
3.9706e-07
3.94895e-07
3.92724e-07
3.90537e-07
3.88346e-07
3.86136e-07
3.83927e-07
3.81693e-07
3.7947e-07
3.77212e-07
3.74981e-07
3.72702e-07
3.70475e-07
3.68182e-07
3.6598e-07
3.63682e-07
3.61542e-07
3.59255e-07
3.57229e-07
3.54959e-07
3.53087e-07
3.50738e-07
4.6477e-07
4.64338e-07
4.63551e-07
4.62461e-07
4.61137e-07
4.59649e-07
4.58055e-07
4.56395e-07
4.54688e-07
4.52947e-07
4.51176e-07
4.49383e-07
4.47573e-07
4.45752e-07
4.43926e-07
4.42096e-07
4.40266e-07
4.38434e-07
4.36601e-07
4.34766e-07
4.32929e-07
4.31089e-07
4.29245e-07
4.27397e-07
4.25545e-07
4.23687e-07
4.21823e-07
4.19953e-07
4.18075e-07
4.16191e-07
4.14299e-07
4.12399e-07
4.10491e-07
4.08575e-07
4.06652e-07
4.04719e-07
4.0278e-07
4.00831e-07
3.98876e-07
3.9691e-07
3.94939e-07
3.92956e-07
3.90968e-07
3.88966e-07
3.86959e-07
3.84937e-07
3.82908e-07
3.80858e-07
3.78803e-07
3.7672e-07
3.74631e-07
3.72504e-07
3.70375e-07
3.68198e-07
3.66023e-07
3.63785e-07
3.61558e-07
3.59252e-07
3.56971e-07
3.54611e-07
4.58065e-07
4.57851e-07
4.5742e-07
4.56774e-07
4.55931e-07
4.54918e-07
4.53768e-07
4.52511e-07
4.51173e-07
4.4977e-07
4.48314e-07
4.46815e-07
4.4528e-07
4.43715e-07
4.42126e-07
4.40518e-07
4.38895e-07
4.37259e-07
4.35612e-07
4.33956e-07
4.32292e-07
4.3062e-07
4.28941e-07
4.27255e-07
4.25564e-07
4.23866e-07
4.22162e-07
4.20453e-07
4.18739e-07
4.17019e-07
4.15294e-07
4.13565e-07
4.11831e-07
4.10092e-07
4.08349e-07
4.06602e-07
4.04852e-07
4.03098e-07
4.0134e-07
3.99578e-07
3.97813e-07
3.96044e-07
3.94271e-07
3.92493e-07
3.9071e-07
3.8892e-07
3.87124e-07
3.85318e-07
3.83502e-07
3.81673e-07
3.79824e-07
3.77951e-07
3.76043e-07
3.74088e-07
3.7207e-07
3.69976e-07
3.67793e-07
3.65532e-07
3.63196e-07
3.6088e-07
4.52539e-07
4.52377e-07
4.52052e-07
4.51568e-07
4.50936e-07
4.5017e-07
4.49289e-07
4.48312e-07
4.47254e-07
4.46127e-07
4.44942e-07
4.43705e-07
4.42425e-07
4.41106e-07
4.39753e-07
4.38372e-07
4.36967e-07
4.3554e-07
4.34095e-07
4.32634e-07
4.31159e-07
4.29671e-07
4.28171e-07
4.26662e-07
4.25144e-07
4.23618e-07
4.22086e-07
4.20547e-07
4.19003e-07
4.17454e-07
4.15901e-07
4.14345e-07
4.12787e-07
4.11226e-07
4.09664e-07
4.08101e-07
4.06537e-07
4.04973e-07
4.03409e-07
4.01845e-07
4.00281e-07
3.98718e-07
3.97153e-07
3.95587e-07
3.94018e-07
3.92445e-07
3.90864e-07
3.89275e-07
3.87672e-07
3.86055e-07
3.84416e-07
3.8276e-07
3.81076e-07
3.79372e-07
3.77624e-07
3.75835e-07
3.73972e-07
3.72056e-07
3.70082e-07
3.68176e-07
4.48186e-07
4.48068e-07
4.4783e-07
4.47475e-07
4.47004e-07
4.46427e-07
4.45751e-07
4.44988e-07
4.44146e-07
4.43235e-07
4.42263e-07
4.41237e-07
4.40162e-07
4.39044e-07
4.37888e-07
4.36698e-07
4.35477e-07
4.3423e-07
4.32959e-07
4.31668e-07
4.30359e-07
4.29034e-07
4.27695e-07
4.26345e-07
4.24984e-07
4.23614e-07
4.22238e-07
4.20855e-07
4.19468e-07
4.18077e-07
4.16685e-07
4.15291e-07
4.13897e-07
4.12505e-07
4.11114e-07
4.09726e-07
4.08342e-07
4.06963e-07
4.05588e-07
4.0422e-07
4.02857e-07
4.01501e-07
4.00151e-07
3.98808e-07
3.9747e-07
3.96139e-07
3.94812e-07
3.93491e-07
3.92169e-07
3.90847e-07
3.89513e-07
3.88165e-07
3.8679e-07
3.85391e-07
3.83956e-07
3.82498e-07
3.80996e-07
3.79475e-07
3.77933e-07
3.76481e-07
4.44728e-07
4.44636e-07
4.44451e-07
4.44172e-07
4.43801e-07
4.43342e-07
4.42799e-07
4.4218e-07
4.4149e-07
4.40735e-07
4.39921e-07
4.39053e-07
4.38137e-07
4.37177e-07
4.36178e-07
4.35143e-07
4.34076e-07
4.32982e-07
4.31862e-07
4.3072e-07
4.29559e-07
4.28381e-07
4.27188e-07
4.25983e-07
4.24767e-07
4.23543e-07
4.22312e-07
4.21076e-07
4.19837e-07
4.18596e-07
4.17355e-07
4.16115e-07
4.14879e-07
4.13646e-07
4.1242e-07
4.11201e-07
4.09989e-07
4.08788e-07
4.07597e-07
4.06418e-07
4.05252e-07
4.04099e-07
4.0296e-07
4.01835e-07
4.00725e-07
3.99629e-07
3.98546e-07
3.97477e-07
3.96419e-07
3.95376e-07
3.94344e-07
3.93322e-07
3.92298e-07
3.91273e-07
3.90236e-07
3.89196e-07
3.88143e-07
3.87103e-07
3.86084e-07
3.85188e-07
4.41957e-07
4.41881e-07
4.4173e-07
4.41502e-07
4.41197e-07
4.40819e-07
4.4037e-07
4.39853e-07
4.39274e-07
4.38637e-07
4.37945e-07
4.37203e-07
4.36415e-07
4.35584e-07
4.34716e-07
4.33813e-07
4.32878e-07
4.31915e-07
4.30926e-07
4.29916e-07
4.28885e-07
4.27838e-07
4.26775e-07
4.25701e-07
4.24616e-07
4.23524e-07
4.22426e-07
4.21324e-07
4.2022e-07
4.19117e-07
4.18016e-07
4.16919e-07
4.15829e-07
4.14746e-07
4.13673e-07
4.12612e-07
4.11564e-07
4.10532e-07
4.09516e-07
4.08519e-07
4.07542e-07
4.06587e-07
4.05655e-07
4.04748e-07
4.03866e-07
4.03013e-07
4.02187e-07
4.01391e-07
4.00622e-07
3.99881e-07
3.99164e-07
3.98475e-07
3.97812e-07
3.97178e-07
3.96566e-07
3.95984e-07
3.95425e-07
3.94911e-07
3.94454e-07
3.9414e-07
4.39747e-07
4.39684e-07
4.39556e-07
4.39363e-07
4.39106e-07
4.38785e-07
4.38403e-07
4.37962e-07
4.37466e-07
4.36917e-07
4.36319e-07
4.35675e-07
4.34989e-07
4.34263e-07
4.335e-07
4.32704e-07
4.31878e-07
4.31024e-07
4.30146e-07
4.29245e-07
4.28326e-07
4.2739e-07
4.2644e-07
4.25479e-07
4.24508e-07
4.23531e-07
4.22549e-07
4.21565e-07
4.20582e-07
4.19601e-07
4.18624e-07
4.17655e-07
4.16696e-07
4.15748e-07
4.14814e-07
4.13896e-07
4.12997e-07
4.12119e-07
4.11265e-07
4.10436e-07
4.09635e-07
4.08864e-07
4.08126e-07
4.07424e-07
4.06758e-07
4.06133e-07
4.05549e-07
4.05011e-07
4.04517e-07
4.04071e-07
4.03672e-07
4.03326e-07
4.03033e-07
4.02798e-07
4.02618e-07
4.02502e-07
4.02448e-07
4.02476e-07
4.02601e-07
4.02894e-07
4.38011e-07
4.37956e-07
4.37845e-07
4.37678e-07
4.37454e-07
4.37175e-07
4.36842e-07
4.36457e-07
4.36023e-07
4.35541e-07
4.35015e-07
4.34447e-07
4.33839e-07
4.33194e-07
4.32515e-07
4.31804e-07
4.31065e-07
4.303e-07
4.29511e-07
4.28701e-07
4.27874e-07
4.27031e-07
4.26175e-07
4.25308e-07
4.24434e-07
4.23554e-07
4.22672e-07
4.21789e-07
4.20909e-07
4.20033e-07
4.19165e-07
4.18307e-07
4.17462e-07
4.16632e-07
4.1582e-07
4.15029e-07
4.14262e-07
4.13522e-07
4.12811e-07
4.12133e-07
4.1149e-07
4.10887e-07
4.10326e-07
4.09811e-07
4.09345e-07
4.08932e-07
4.08575e-07
4.08277e-07
4.08041e-07
4.07872e-07
4.07775e-07
4.07756e-07
4.07816e-07
4.07962e-07
4.08198e-07
4.08531e-07
4.08967e-07
4.09522e-07
4.10213e-07
4.11098e-07
4.36685e-07
4.36636e-07
4.36537e-07
4.36388e-07
4.36189e-07
4.3594e-07
4.35643e-07
4.35299e-07
4.3491e-07
4.34478e-07
4.34005e-07
4.33493e-07
4.32944e-07
4.32361e-07
4.31746e-07
4.31101e-07
4.3043e-07
4.29734e-07
4.29015e-07
4.28278e-07
4.27523e-07
4.26754e-07
4.25973e-07
4.25184e-07
4.24387e-07
4.23587e-07
4.22786e-07
4.21986e-07
4.2119e-07
4.20401e-07
4.19623e-07
4.18857e-07
4.18106e-07
4.17375e-07
4.16665e-07
4.1598e-07
4.15324e-07
4.147e-07
4.14111e-07
4.13561e-07
4.13053e-07
4.12593e-07
4.12183e-07
4.11828e-07
4.11533e-07
4.11303e-07
4.11141e-07
4.11054e-07
4.11046e-07
4.11124e-07
4.11294e-07
4.11564e-07
4.11939e-07
4.12427e-07
4.13036e-07
4.13775e-07
4.14655e-07
4.15691e-07
4.16901e-07
4.18328e-07
4.35724e-07
4.3568e-07
4.35589e-07
4.35453e-07
4.35271e-07
4.35043e-07
4.3477e-07
4.34455e-07
4.34098e-07
4.33701e-07
4.33265e-07
4.32794e-07
4.32288e-07
4.31749e-07
4.31181e-07
4.30584e-07
4.29962e-07
4.29317e-07
4.28651e-07
4.27967e-07
4.27267e-07
4.26553e-07
4.25829e-07
4.25097e-07
4.2436e-07
4.2362e-07
4.2288e-07
4.22143e-07
4.21412e-07
4.2069e-07
4.1998e-07
4.19285e-07
4.18608e-07
4.17952e-07
4.17322e-07
4.1672e-07
4.1615e-07
4.15616e-07
4.15122e-07
4.14672e-07
4.14271e-07
4.13924e-07
4.13634e-07
4.13407e-07
4.13248e-07
4.13164e-07
4.13159e-07
4.13242e-07
4.13418e-07
4.13695e-07
4.14083e-07
4.14588e-07
4.1522e-07
4.15989e-07
4.16905e-07
4.1798e-07
4.19228e-07
4.20663e-07
4.22306e-07
4.24186e-07
4.35098e-07
4.35056e-07
4.34971e-07
4.34842e-07
4.34671e-07
4.34456e-07
4.342e-07
4.33902e-07
4.33565e-07
4.33191e-07
4.3278e-07
4.32334e-07
4.31855e-07
4.31346e-07
4.30808e-07
4.30243e-07
4.29653e-07
4.29041e-07
4.2841e-07
4.27761e-07
4.27097e-07
4.2642e-07
4.25734e-07
4.25041e-07
4.24343e-07
4.23643e-07
4.22945e-07
4.2225e-07
4.21563e-07
4.20886e-07
4.20222e-07
4.19575e-07
4.18948e-07
4.18344e-07
4.17768e-07
4.17222e-07
4.16711e-07
4.16239e-07
4.15811e-07
4.15431e-07
4.15103e-07
4.14833e-07
4.14626e-07
4.14487e-07
4.14424e-07
4.14441e-07
4.14546e-07
4.14748e-07
4.15053e-07
4.15471e-07
4.16011e-07
4.16683e-07
4.17497e-07
4.18465e-07
4.196e-07
4.20914e-07
4.22425e-07
4.24147e-07
4.26102e-07
4.28308e-07
4.34785e-07
4.34744e-07
4.34662e-07
4.34538e-07
4.34371e-07
4.34163e-07
4.33914e-07
4.33625e-07
4.33298e-07
4.32935e-07
4.32535e-07
4.32102e-07
4.31637e-07
4.31142e-07
4.30619e-07
4.30069e-07
4.29496e-07
4.28901e-07
4.28286e-07
4.27655e-07
4.27008e-07
4.2635e-07
4.25683e-07
4.25009e-07
4.2433e-07
4.23651e-07
4.22973e-07
4.223e-07
4.21635e-07
4.2098e-07
4.2034e-07
4.19717e-07
4.19114e-07
4.18537e-07
4.17987e-07
4.1747e-07
4.16989e-07
4.16549e-07
4.16153e-07
4.15808e-07
4.15517e-07
4.15286e-07
4.15121e-07
4.15028e-07
4.15013e-07
4.15083e-07
4.15245e-07
4.15507e-07
4.15879e-07
4.16369e-07
4.16987e-07
4.17744e-07
4.18652e-07
4.19723e-07
4.20971e-07
4.22409e-07
4.24057e-07
4.25929e-07
4.28046e-07
4.30423e-07
4.34777e-07
4.34736e-07
4.34654e-07
4.3453e-07
4.34363e-07
4.34155e-07
4.33906e-07
4.33617e-07
4.3329e-07
4.32926e-07
4.32527e-07
4.32094e-07
4.31629e-07
4.31133e-07
4.3061e-07
4.3006e-07
4.29487e-07
4.28891e-07
4.28276e-07
4.27645e-07
4.26998e-07
4.2634e-07
4.25672e-07
4.24998e-07
4.24319e-07
4.2364e-07
4.22962e-07
4.22288e-07
4.21622e-07
4.20968e-07
4.20327e-07
4.19703e-07
4.19101e-07
4.18522e-07
4.17973e-07
4.17455e-07
4.16973e-07
4.16533e-07
4.16137e-07
4.15791e-07
4.15499e-07
4.15268e-07
4.15102e-07
4.15007e-07
4.14991e-07
4.15059e-07
4.15221e-07
4.15482e-07
4.15853e-07
4.16342e-07
4.16959e-07
4.17715e-07
4.18622e-07
4.19691e-07
4.20938e-07
4.22375e-07
4.24022e-07
4.25891e-07
4.28007e-07
4.30382e-07
4.35074e-07
4.35032e-07
4.34947e-07
4.34818e-07
4.34647e-07
4.34432e-07
4.34175e-07
4.33878e-07
4.3354e-07
4.33165e-07
4.32754e-07
4.32308e-07
4.31829e-07
4.3132e-07
4.30781e-07
4.30215e-07
4.29625e-07
4.29013e-07
4.28381e-07
4.27731e-07
4.27067e-07
4.2639e-07
4.25703e-07
4.25008e-07
4.2431e-07
4.23609e-07
4.2291e-07
4.22215e-07
4.21526e-07
4.20848e-07
4.20183e-07
4.19535e-07
4.18906e-07
4.18301e-07
4.17723e-07
4.17176e-07
4.16664e-07
4.1619e-07
4.1576e-07
4.15378e-07
4.15048e-07
4.14776e-07
4.14567e-07
4.14426e-07
4.1436e-07
4.14374e-07
4.14477e-07
4.14676e-07
4.14979e-07
4.15394e-07
4.1593e-07
4.16598e-07
4.17409e-07
4.18372e-07
4.19503e-07
4.20813e-07
4.22319e-07
4.24037e-07
4.25986e-07
4.28188e-07
4.35685e-07
4.3564e-07
4.3555e-07
4.35413e-07
4.35231e-07
4.35003e-07
4.3473e-07
4.34414e-07
4.34057e-07
4.33659e-07
4.33223e-07
4.32751e-07
4.32244e-07
4.31705e-07
4.31136e-07
4.30539e-07
4.29916e-07
4.2927e-07
4.28603e-07
4.27918e-07
4.27217e-07
4.26502e-07
4.25777e-07
4.25044e-07
4.24305e-07
4.23563e-07
4.22822e-07
4.22084e-07
4.21351e-07
4.20627e-07
4.19915e-07
4.19218e-07
4.18539e-07
4.17881e-07
4.17248e-07
4.16644e-07
4.16071e-07
4.15535e-07
4.15038e-07
4.14585e-07
4.14181e-07
4.1383e-07
4.13537e-07
4.13306e-07
4.13144e-07
4.13055e-07
4.13045e-07
4.13122e-07
4.13294e-07
4.13567e-07
4.13948e-07
4.14448e-07
4.15074e-07
4.15836e-07
4.16745e-07
4.17813e-07
4.19053e-07
4.2048e-07
4.22115e-07
4.23987e-07
4.3663e-07
4.36581e-07
4.36482e-07
4.36333e-07
4.36134e-07
4.35885e-07
4.35587e-07
4.35242e-07
4.34853e-07
4.3442e-07
4.33946e-07
4.33434e-07
4.32884e-07
4.323e-07
4.31684e-07
4.31039e-07
4.30366e-07
4.29668e-07
4.28949e-07
4.2821e-07
4.27454e-07
4.26683e-07
4.25901e-07
4.25109e-07
4.24311e-07
4.23509e-07
4.22705e-07
4.21903e-07
4.21105e-07
4.20314e-07
4.19533e-07
4.18764e-07
4.18011e-07
4.17276e-07
4.16563e-07
4.15875e-07
4.15215e-07
4.14587e-07
4.13994e-07
4.1344e-07
4.12928e-07
4.12463e-07
4.12048e-07
4.11689e-07
4.11389e-07
4.11153e-07
4.10984e-07
4.10889e-07
4.10874e-07
4.10945e-07
4.11108e-07
4.1137e-07
4.11737e-07
4.12216e-07
4.12816e-07
4.13545e-07
4.14414e-07
4.15439e-07
4.16638e-07
4.18054e-07
4.37941e-07
4.37886e-07
4.37775e-07
4.37608e-07
4.37384e-07
4.37104e-07
4.36771e-07
4.36385e-07
4.3595e-07
4.35468e-07
4.34941e-07
4.34371e-07
4.33762e-07
4.33117e-07
4.32436e-07
4.31724e-07
4.30984e-07
4.30217e-07
4.29426e-07
4.28615e-07
4.27786e-07
4.26941e-07
4.26082e-07
4.25214e-07
4.24337e-07
4.23455e-07
4.2257e-07
4.21684e-07
4.20801e-07
4.19922e-07
4.19051e-07
4.18189e-07
4.1734e-07
4.16506e-07
4.15691e-07
4.14895e-07
4.14124e-07
4.13379e-07
4.12663e-07
4.11979e-07
4.11332e-07
4.10723e-07
4.10156e-07
4.09634e-07
4.09162e-07
4.08741e-07
4.08376e-07
4.08069e-07
4.07824e-07
4.07646e-07
4.0754e-07
4.07511e-07
4.0756e-07
4.07696e-07
4.0792e-07
4.08241e-07
4.08663e-07
4.09205e-07
4.09882e-07
4.10752e-07
4.39663e-07
4.396e-07
4.39472e-07
4.39279e-07
4.39021e-07
4.38699e-07
4.38316e-07
4.37875e-07
4.37378e-07
4.36829e-07
4.3623e-07
4.35585e-07
4.34897e-07
4.34169e-07
4.33405e-07
4.32608e-07
4.3178e-07
4.30924e-07
4.30044e-07
4.29141e-07
4.2822e-07
4.27281e-07
4.26329e-07
4.25365e-07
4.24391e-07
4.23411e-07
4.22426e-07
4.21439e-07
4.20451e-07
4.19467e-07
4.18487e-07
4.17513e-07
4.16549e-07
4.15597e-07
4.14658e-07
4.13735e-07
4.12831e-07
4.11947e-07
4.11086e-07
4.10251e-07
4.09443e-07
4.08666e-07
4.07921e-07
4.0721e-07
4.06537e-07
4.05903e-07
4.05311e-07
4.04763e-07
4.04259e-07
4.03801e-07
4.03391e-07
4.03033e-07
4.02728e-07
4.0248e-07
4.02286e-07
4.02155e-07
4.02086e-07
4.02098e-07
4.02205e-07
4.02481e-07
4.41859e-07
4.41784e-07
4.41632e-07
4.41404e-07
4.41099e-07
4.4072e-07
4.4027e-07
4.39752e-07
4.39172e-07
4.38534e-07
4.37841e-07
4.37097e-07
4.36308e-07
4.35476e-07
4.34606e-07
4.337e-07
4.32764e-07
4.31798e-07
4.30808e-07
4.29795e-07
4.28762e-07
4.27711e-07
4.26646e-07
4.25568e-07
4.2448e-07
4.23384e-07
4.22282e-07
4.21177e-07
4.20069e-07
4.18961e-07
4.17856e-07
4.16754e-07
4.15659e-07
4.14571e-07
4.13492e-07
4.12425e-07
4.11371e-07
4.10332e-07
4.09309e-07
4.08305e-07
4.0732e-07
4.06357e-07
4.05417e-07
4.04501e-07
4.03611e-07
4.02747e-07
4.01911e-07
4.01104e-07
4.00323e-07
3.9957e-07
3.98839e-07
3.98137e-07
3.9746e-07
3.96811e-07
3.96183e-07
3.95585e-07
3.95008e-07
3.94476e-07
3.94e-07
3.93667e-07
4.44618e-07
4.44525e-07
4.4434e-07
4.44061e-07
4.4369e-07
4.4323e-07
4.42686e-07
4.42066e-07
4.41375e-07
4.40619e-07
4.39804e-07
4.38934e-07
4.38016e-07
4.37054e-07
4.36053e-07
4.35016e-07
4.33947e-07
4.3285e-07
4.31728e-07
4.30583e-07
4.29419e-07
4.28238e-07
4.27041e-07
4.25833e-07
4.24613e-07
4.23385e-07
4.22149e-07
4.20909e-07
4.19665e-07
4.18419e-07
4.17173e-07
4.15928e-07
4.14686e-07
4.13448e-07
4.12215e-07
4.10989e-07
4.09771e-07
4.08562e-07
4.07364e-07
4.06176e-07
4.05001e-07
4.0384e-07
4.02691e-07
4.01557e-07
4.00436e-07
3.99329e-07
3.98234e-07
3.97153e-07
3.96083e-07
3.95027e-07
3.93981e-07
3.92944e-07
3.91903e-07
3.90861e-07
3.89806e-07
3.88748e-07
3.87675e-07
3.86616e-07
3.85576e-07
3.8466e-07
4.48064e-07
4.47946e-07
4.47708e-07
4.47352e-07
4.46881e-07
4.46303e-07
4.45626e-07
4.44861e-07
4.44018e-07
4.43106e-07
4.42133e-07
4.41105e-07
4.40028e-07
4.38908e-07
4.3775e-07
4.36557e-07
4.35334e-07
4.34084e-07
4.3281e-07
4.31516e-07
4.30203e-07
4.28875e-07
4.27533e-07
4.26178e-07
4.24813e-07
4.23439e-07
4.22057e-07
4.2067e-07
4.19278e-07
4.17882e-07
4.16483e-07
4.15084e-07
4.13684e-07
4.12285e-07
4.10887e-07
4.09492e-07
4.081e-07
4.06713e-07
4.0533e-07
4.03953e-07
4.02581e-07
4.01215e-07
3.99855e-07
3.98501e-07
3.97153e-07
3.95811e-07
3.94472e-07
3.93139e-07
3.91804e-07
3.90467e-07
3.89117e-07
3.87751e-07
3.86356e-07
3.84937e-07
3.83483e-07
3.82006e-07
3.80485e-07
3.78943e-07
3.77377e-07
3.75903e-07
4.52406e-07
4.52244e-07
4.51919e-07
4.51434e-07
4.50801e-07
4.50034e-07
4.49153e-07
4.48174e-07
4.47115e-07
4.45986e-07
4.44799e-07
4.43561e-07
4.42278e-07
4.40957e-07
4.39602e-07
4.38218e-07
4.3681e-07
4.3538e-07
4.33932e-07
4.32467e-07
4.30988e-07
4.29496e-07
4.27993e-07
4.26479e-07
4.24957e-07
4.23426e-07
4.21888e-07
4.20344e-07
4.18794e-07
4.1724e-07
4.15681e-07
4.14118e-07
4.12553e-07
4.10985e-07
4.09416e-07
4.07845e-07
4.06273e-07
4.047e-07
4.03127e-07
4.01554e-07
3.9998e-07
3.98406e-07
3.9683e-07
3.95253e-07
3.93671e-07
3.92085e-07
3.9049e-07
3.88886e-07
3.87266e-07
3.85633e-07
3.83977e-07
3.82303e-07
3.80603e-07
3.78883e-07
3.77117e-07
3.75311e-07
3.73426e-07
3.71485e-07
3.69485e-07
3.67553e-07
4.57923e-07
4.57709e-07
4.57278e-07
4.56632e-07
4.55787e-07
4.54773e-07
4.53622e-07
4.52364e-07
4.51024e-07
4.49619e-07
4.48161e-07
4.4666e-07
4.45122e-07
4.43555e-07
4.41963e-07
4.40352e-07
4.38726e-07
4.37087e-07
4.35436e-07
4.33777e-07
4.32108e-07
4.30432e-07
4.28749e-07
4.27058e-07
4.25362e-07
4.23659e-07
4.2195e-07
4.20235e-07
4.18514e-07
4.16788e-07
4.15057e-07
4.13321e-07
4.1158e-07
4.09833e-07
4.08083e-07
4.06328e-07
4.04569e-07
4.02806e-07
4.01038e-07
3.99267e-07
3.97492e-07
3.95712e-07
3.93927e-07
3.92137e-07
3.90342e-07
3.88539e-07
3.86729e-07
3.8491e-07
3.8308e-07
3.81235e-07
3.79371e-07
3.77482e-07
3.75555e-07
3.7358e-07
3.71539e-07
3.69419e-07
3.6721e-07
3.64923e-07
3.62561e-07
3.6022e-07
4.6462e-07
4.64187e-07
4.634e-07
4.62309e-07
4.60984e-07
4.59495e-07
4.579e-07
4.56238e-07
4.5453e-07
4.52786e-07
4.51014e-07
4.49218e-07
4.47405e-07
4.45582e-07
4.43752e-07
4.41919e-07
4.40085e-07
4.3825e-07
4.36413e-07
4.34574e-07
4.32732e-07
4.30887e-07
4.29039e-07
4.27186e-07
4.25328e-07
4.23464e-07
4.21595e-07
4.19718e-07
4.17835e-07
4.15944e-07
4.14045e-07
4.12138e-07
4.10223e-07
4.08299e-07
4.06367e-07
4.04426e-07
4.02478e-07
4.00519e-07
3.98554e-07
3.96578e-07
3.94596e-07
3.92602e-07
3.90602e-07
3.88588e-07
3.86568e-07
3.84531e-07
3.82487e-07
3.80422e-07
3.7835e-07
3.76249e-07
3.74141e-07
3.71995e-07
3.69844e-07
3.67645e-07
3.65448e-07
3.63188e-07
3.60939e-07
3.5861e-07
3.56308e-07
3.53924e-07
4.76352e-07
4.75602e-07
4.74188e-07
4.72236e-07
4.69951e-07
4.6753e-07
4.65099e-07
4.62709e-07
4.60361e-07
4.58045e-07
4.5575e-07
4.53477e-07
4.5123e-07
4.49014e-07
4.46832e-07
4.44681e-07
4.42558e-07
4.40456e-07
4.38373e-07
4.36303e-07
4.34244e-07
4.32192e-07
4.30146e-07
4.28102e-07
4.26059e-07
4.24013e-07
4.21965e-07
4.19911e-07
4.17851e-07
4.15782e-07
4.13706e-07
4.1162e-07
4.09525e-07
4.07418e-07
4.05301e-07
4.03172e-07
4.01034e-07
3.98883e-07
3.96723e-07
3.94547e-07
3.92366e-07
3.90167e-07
3.87965e-07
3.85741e-07
3.8352e-07
3.81271e-07
3.79034e-07
3.76761e-07
3.74514e-07
3.7222e-07
3.69975e-07
3.67664e-07
3.65443e-07
3.63125e-07
3.60963e-07
3.58653e-07
3.56602e-07
3.54304e-07
3.52403e-07
3.50025e-07
4.85091e-07
4.83364e-07
4.80718e-07
4.77592e-07
4.74376e-07
4.71281e-07
4.68357e-07
4.65569e-07
4.62866e-07
4.60218e-07
4.57619e-07
4.55075e-07
4.52591e-07
4.50168e-07
4.478e-07
4.45477e-07
4.4319e-07
4.40931e-07
4.38695e-07
4.36476e-07
4.34271e-07
4.32074e-07
4.29883e-07
4.27694e-07
4.25504e-07
4.23311e-07
4.21112e-07
4.18905e-07
4.16689e-07
4.14462e-07
4.12224e-07
4.09974e-07
4.07711e-07
4.05433e-07
4.03143e-07
4.00838e-07
3.98521e-07
3.96189e-07
3.93846e-07
3.91485e-07
3.89117e-07
3.86729e-07
3.84338e-07
3.81921e-07
3.79509e-07
3.77061e-07
3.74632e-07
3.7215e-07
3.69712e-07
3.67192e-07
3.64765e-07
3.62208e-07
3.59847e-07
3.57272e-07
3.5511e-07
3.52584e-07
3.50957e-07
3.48561e-07
3.48076e-07
3.45393e-07
5.33134e-07
5.19011e-07
5.05243e-07
4.94665e-07
4.87242e-07
4.8185e-07
4.77398e-07
4.73318e-07
4.69441e-07
4.65776e-07
4.62358e-07
4.59192e-07
4.56244e-07
4.53466e-07
4.50809e-07
4.48241e-07
4.45741e-07
4.43294e-07
4.40891e-07
4.38523e-07
4.36181e-07
4.33857e-07
4.31545e-07
4.2924e-07
4.26936e-07
4.24631e-07
4.22321e-07
4.20003e-07
4.17676e-07
4.15337e-07
4.12986e-07
4.10622e-07
4.08244e-07
4.05852e-07
4.03445e-07
4.01024e-07
3.98588e-07
3.96139e-07
3.93676e-07
3.912e-07
3.88712e-07
3.86211e-07
3.83698e-07
3.81172e-07
3.78635e-07
3.76085e-07
3.73522e-07
3.70942e-07
3.6835e-07
3.6573e-07
3.63104e-07
3.6042e-07
3.5776e-07
3.54951e-07
3.52296e-07
3.49155e-07
3.46791e-07
3.42375e-07
3.42061e-07
3.31454e-07
3.72014e-07
3.21672e-07
3.00852e-07
2.83421e-07
2.65941e-07
2.48367e-07
2.2872e-07
2.07796e-07
1.83334e-07
1.57096e-07
1.26523e-07
9.46235e-08
5.82913e-08
2.19576e-08
-1.82672e-08
-5.64313e-08
-9.78466e-08
-1.349e-07
-1.74879e-07
-2.08277e-07
-2.44796e-07
-2.72884e-07
-3.04885e-07
-3.2654e-07
-3.54445e-07
-3.67601e-07
-3.96029e-07
-3.96237e-07
-4.31711e-07
-5.3426e-07
3.58186e-07
3.03322e-07
2.89476e-07
2.74615e-07
2.57809e-07
2.40641e-07
2.21305e-07
2.00536e-07
1.7627e-07
1.50391e-07
1.20447e-07
8.9399e-08
5.42311e-08
1.92065e-08
-1.95066e-08
-5.62242e-08
-9.58709e-08
-1.31464e-07
-1.69625e-07
-2.02076e-07
-2.37274e-07
-2.64727e-07
-2.96514e-07
-3.17554e-07
-3.46017e-07
-3.59839e-07
-3.84897e-07
-3.98711e-07
-4.05111e-07
-5.53976e-07
3.46038e-07
3.00872e-07
2.88054e-07
2.73681e-07
2.56388e-07
2.38254e-07
2.184e-07
1.97288e-07
1.72973e-07
1.46966e-07
1.17258e-07
8.63039e-08
5.16983e-08
1.70218e-08
-2.0789e-08
-5.69195e-08
-9.55503e-08
-1.30791e-07
-1.68321e-07
-2.00408e-07
-2.35105e-07
-2.62467e-07
-2.92991e-07
-3.15783e-07
-3.41298e-07
-3.61382e-07
-3.80101e-07
-4.08528e-07
-3.90209e-07
-4.91675e-07
3.35901e-07
2.96812e-07
2.81932e-07
2.68081e-07
2.51473e-07
2.33938e-07
2.14277e-07
1.93003e-07
1.68743e-07
1.4258e-07
1.13199e-07
8.22613e-08
4.84113e-08
1.39376e-08
-2.26553e-08
-5.85734e-08
-9.5654e-08
-1.30814e-07
-1.66168e-07
-1.98791e-07
-2.30662e-07
-2.60235e-07
-2.87661e-07
-3.13929e-07
-3.35071e-07
-3.6138e-07
-3.70345e-07
-4.08493e-07
-3.85321e-07
-4.53171e-07
3.26119e-07
2.94245e-07
2.78488e-07
2.65775e-07
2.49734e-07
2.31415e-07
2.11239e-07
1.89399e-07
1.651e-07
1.38527e-07
1.09393e-07
7.81835e-08
4.50236e-08
1.04576e-08
-2.495e-08
-6.08981e-08
-9.6336e-08
-1.31645e-07
-1.65004e-07
-1.98374e-07
-2.28083e-07
-2.59102e-07
-2.83545e-07
-3.12675e-07
-3.29732e-07
-3.59562e-07
-3.65213e-07
-4.00597e-07
-3.91296e-07
-4.26068e-07
3.17556e-07
2.92537e-07
2.75959e-07
2.62789e-07
2.47016e-07
2.28597e-07
2.08237e-07
1.85911e-07
1.61486e-07
1.3448e-07
1.05461e-07
7.39382e-08
4.12942e-08
6.59977e-09
-2.78154e-08
-6.37757e-08
-9.77608e-08
-1.33159e-07
-1.64765e-07
-1.98498e-07
-2.2627e-07
-2.57924e-07
-2.80621e-07
-3.10483e-07
-3.2667e-07
-3.55541e-07
-3.6442e-07
-3.91529e-07
-3.96594e-07
-4.1384e-07
3.10553e-07
2.91047e-07
2.74371e-07
2.60347e-07
2.44689e-07
2.26201e-07
2.0559e-07
1.82695e-07
1.57961e-07
1.30479e-07
1.01382e-07
6.95614e-08
3.71818e-08
2.46057e-09
-3.12915e-08
-6.7018e-08
-1.00012e-07
-1.35031e-07
-1.65544e-07
-1.98796e-07
-2.25702e-07
-2.56701e-07
-2.7931e-07
-3.07845e-07
-3.25728e-07
-3.51246e-07
-3.65036e-07
-3.85725e-07
-3.97844e-07
-4.10833e-07
3.05341e-07
2.89661e-07
2.7349e-07
2.58505e-07
2.42604e-07
2.23962e-07
2.03031e-07
1.79579e-07
1.54368e-07
1.2643e-07
9.70547e-08
6.50243e-08
3.2641e-08
-1.93853e-09
-3.53803e-08
-7.05788e-08
-1.03066e-07
-1.3722e-07
-1.67289e-07
-1.99364e-07
-2.26261e-07
-2.55707e-07
-2.79196e-07
-3.05537e-07
-3.25658e-07
-3.48128e-07
-3.6537e-07
-3.83013e-07
-3.97554e-07
-4.09915e-07
3.01997e-07
2.88373e-07
2.72856e-07
2.5722e-07
2.40769e-07
2.21805e-07
2.00459e-07
1.76476e-07
1.50659e-07
1.22274e-07
9.24567e-08
6.02799e-08
2.76905e-08
-6.63147e-09
-4.00149e-08
-7.45041e-08
-1.06788e-07
-1.39826e-07
-1.69768e-07
-2.00406e-07
-2.27515e-07
-2.55299e-07
-2.79527e-07
-3.0412e-07
-3.25528e-07
-3.4652e-07
-3.65022e-07
-3.82081e-07
-3.97134e-07
-4.10205e-07
3.00275e-07
2.8725e-07
2.72302e-07
2.56297e-07
2.39138e-07
2.19662e-07
1.97779e-07
1.73266e-07
1.46771e-07
1.17924e-07
8.75668e-08
5.5247e-08
2.23573e-08
-1.1689e-08
-4.51072e-08
-7.88696e-08
-1.1101e-07
-1.42949e-07
-1.7273e-07
-2.02058e-07
-2.29147e-07
-2.5562e-07
-2.80044e-07
-3.03575e-07
-3.25322e-07
-3.45756e-07
-3.64561e-07
-3.81694e-07
-3.97137e-07
-4.10904e-07
2.99695e-07
2.86442e-07
2.71708e-07
2.55449e-07
2.37575e-07
2.17447e-07
1.9491e-07
1.6983e-07
1.42632e-07
1.13284e-07
8.23534e-08
4.98422e-08
1.66477e-08
-1.71827e-08
-5.06055e-08
-8.37358e-08
-1.15637e-07
-1.4664e-07
-1.76064e-07
-2.0434e-07
-2.31077e-07
-2.56597e-07
-2.80758e-07
-3.03629e-07
-3.25242e-07
-3.4543e-07
-3.64297e-07
-3.81619e-07
-3.97493e-07
-4.11868e-07
2.99673e-07
2.85982e-07
2.71087e-07
2.54479e-07
2.35904e-07
2.15047e-07
1.91774e-07
1.66063e-07
1.38157e-07
1.08259e-07
7.67563e-08
4.39873e-08
1.0521e-08
-2.31751e-08
-5.65289e-08
-8.91442e-08
-1.20683e-07
-1.50907e-07
-1.79793e-07
-2.07203e-07
-2.33365e-07
-2.58113e-07
-2.81786e-07
-3.04127e-07
-3.25446e-07
-3.45435e-07
-3.64301e-07
-3.81794e-07
-3.98041e-07
-4.13012e-07
2.9981e-07
2.85723e-07
2.70393e-07
2.53259e-07
2.33964e-07
2.12343e-07
1.88289e-07
1.61878e-07
1.33248e-07
1.0275e-07
7.06823e-08
3.75945e-08
3.88929e-09
-2.97405e-08
-6.29636e-08
-9.51476e-08
-1.26237e-07
-1.55772e-07
-1.84016e-07
-2.10639e-07
-2.36117e-07
-2.60139e-07
-2.83236e-07
-3.05039e-07
-3.2602e-07
-3.45746e-07
-3.64608e-07
-3.82159e-07
-3.98785e-07
-4.14172e-07
2.99858e-07
2.85454e-07
2.69539e-07
2.51725e-07
2.31666e-07
2.09246e-07
1.84373e-07
1.57188e-07
1.27801e-07
9.66471e-08
6.4008e-08
3.055e-08
-3.37809e-09
-3.69887e-08
-7.00438e-08
-1.01841e-07
-1.32429e-07
-1.61312e-07
-1.88852e-07
-2.14706e-07
-2.39435e-07
-2.62724e-07
-2.85177e-07
-3.06414e-07
-3.26987e-07
-3.46414e-07
-3.65189e-07
-3.82763e-07
-3.99654e-07
-4.15416e-07
2.9973e-07
2.84984e-07
2.68438e-07
2.49861e-07
2.28975e-07
2.05696e-07
1.79941e-07
1.51895e-07
1.2169e-07
8.98144e-08
5.6577e-08
2.27026e-08
-1.14517e-08
-4.50725e-08
-7.79411e-08
-1.09362e-07
-1.39418e-07
-1.67643e-07
-1.94436e-07
-2.19498e-07
-2.43422e-07
-2.65937e-07
-2.8768e-07
-3.08293e-07
-3.28384e-07
-3.47445e-07
-3.66064e-07
-3.83587e-07
-4.00683e-07
-4.16704e-07
2.99485e-07
2.84277e-07
2.67078e-07
2.47688e-07
2.25891e-07
2.01644e-07
1.74898e-07
1.45877e-07
1.14763e-07
8.20836e-08
4.81988e-08
1.38613e-08
-2.05348e-08
-5.41815e-08
-8.68489e-08
-1.17882e-07
-1.47368e-07
-1.74903e-07
-2.00897e-07
-2.25121e-07
-2.48172e-07
-2.6985e-07
-2.90795e-07
-3.10717e-07
-3.3022e-07
-3.48854e-07
-3.67202e-07
-3.84629e-07
-4.01823e-07
-4.18061e-07
2.99308e-07
2.83419e-07
2.65504e-07
2.45228e-07
2.22393e-07
1.97013e-07
1.69111e-07
1.38967e-07
1.06822e-07
7.32432e-08
3.86457e-08
3.79952e-09
-3.08549e-08
-6.45269e-08
-9.69689e-08
-1.27576e-07
-1.56443e-07
-1.83228e-07
-2.0836e-07
-2.31669e-07
-2.53772e-07
-2.74524e-07
-2.94578e-07
-3.13709e-07
-3.32513e-07
-3.50624e-07
-3.6858e-07
-3.85848e-07
-4.03018e-07
-4.19462e-07
2.99447e-07
2.82577e-07
2.63764e-07
2.42438e-07
2.18367e-07
1.91635e-07
1.62371e-07
1.30925e-07
9.76127e-08
6.30282e-08
2.76501e-08
-7.74114e-09
-4.26578e-08
-7.63338e-08
-1.08506e-07
-1.38627e-07
-1.66803e-07
-1.92756e-07
-2.16945e-07
-2.39243e-07
-2.60311e-07
-2.80026e-07
-2.99093e-07
-3.17301e-07
-3.353e-07
-3.52744e-07
-3.70198e-07
-3.87172e-07
-4.04232e-07
-4.20789e-07
3.00024e-07
2.81864e-07
2.61817e-07
2.39129e-07
2.13544e-07
1.85208e-07
1.54362e-07
1.2143e-07
8.68047e-08
5.11135e-08
1.48965e-08
-2.10583e-08
-5.62202e-08
-8.98555e-08
-1.2169e-07
-1.51243e-07
-1.78635e-07
-2.03658e-07
-2.26801e-07
-2.47985e-07
-2.67912e-07
-2.86469e-07
-3.04436e-07
-3.21574e-07
-3.38642e-07
-3.55246e-07
-3.72058e-07
-3.88563e-07
-4.05362e-07
-4.21899e-07
3.00789e-07
2.8106e-07
2.59327e-07
2.34869e-07
2.07456e-07
1.77268e-07
1.44631e-07
1.10036e-07
7.39626e-08
3.7076e-08
-1.98997e-11
-3.6534e-08
-7.19004e-08
-1.05427e-07
-1.36835e-07
-1.65722e-07
-1.92217e-07
-2.16198e-07
-2.38169e-07
-2.58115e-07
-2.76768e-07
-2.9403e-07
-3.10754e-07
-3.2665e-07
-3.42637e-07
-3.58179e-07
-3.74198e-07
-3.8995e-07
-4.06325e-07
-4.22506e-07
3.01026e-07
2.79481e-07
2.55667e-07
2.29061e-07
1.99509e-07
1.67216e-07
1.32576e-07
9.61447e-08
5.84943e-08
2.03369e-08
-1.76584e-08
-5.4704e-08
-9.02059e-08
-1.23527e-07
-1.54393e-07
-1.8249e-07
-2.07954e-07
-2.30762e-07