/*--------------------------------*- C++ -*----------------------------------*\
| =========                 |                                                 |
| \\      /  F ield         | OpenFOAM: The Open Source CFD Toolbox           |
|  \\    /   O peration     | Version:  2312                                  |
|   \\  /    A nd           | Website:  www.openfoam.com                      |
|    \\/     M anipulation  |                                                 |
\*---------------------------------------------------------------------------*/
FoamFile
{
    version     2.0;
    format      ascii;
    arch        "LSB;label=32;scalar=64";
    class       surfaceScalarField;
    location    "106000";
    object      phi;
}
// * * * * * * * * * * * * * * * * * * * * * * * * * * * * * * * * * * * * * //

dimensions      [0 3 -1 0 0 0 0];

oriented        oriented;

internalField   nonuniform List<scalar> 
21240
(
0.000664974
1.69233e-06
0.000661072
3.90265e-06
0.00065575
5.32128e-06
0.000649513
6.23698e-06
0.000642638
6.87588e-06
0.000635265
7.37264e-06
0.000627487
7.77775e-06
0.000619383
8.10426e-06
0.000611025
8.35817e-06
0.000602476
8.54848e-06
0.000593789
8.68747e-06
0.000585001
8.78745e-06
0.000576143
8.85805e-06
0.000567238
8.90558e-06
0.000558304
8.93386e-06
0.000549359
8.94534e-06
0.000540417
8.94186e-06
0.000531492
8.92498e-06
0.000522596
8.89602e-06
0.00051374
8.85606e-06
0.000504934
8.8059e-06
0.000496188
8.74614e-06
0.00048751
8.67719e-06
0.000478911
8.59936e-06
0.000470398
8.51284e-06
0.00046198
8.41778e-06
0.000453666
8.31431e-06
0.000445464
8.20242e-06
0.000437381
8.08223e-06
0.000429428
7.95361e-06
0.000421611
7.81679e-06
0.00041394
7.67139e-06
0.000406422
7.51792e-06
0.000399066
7.35564e-06
0.00039188
7.18561e-06
0.000384874
7.00632e-06
0.000378054
6.81996e-06
0.000371431
6.62357e-06
0.000365009
6.42137e-06
0.000358802
6.2077e-06
0.000352811
5.99056e-06
0.000347052
5.75922e-06
0.000341523
5.52861e-06
0.000336245
5.27862e-06
0.000331208
5.03684e-06
0.000326442
4.76589e-06
0.000321925
4.51653e-06
0.000317706
4.21946e-06
0.000313738
3.96828e-06
0.000310104
3.63371e-06
0.000306713
3.39102e-06
0.00030372
2.99254e-06
0.000300939
2.78122e-06
0.000298688
2.25107e-06
0.000296557
2.13079e-06
0.000295301
1.25618e-06
0.000293812
1.4886e-06
0.000294012
-1.99222e-07
0.000292841
1.17073e-06
-3.19515e-06
0.000296036
0.000667556
8.031e-07
0.00066912
2.33833e-06
0.000670853
3.58822e-06
0.000672524
4.56656e-06
0.000674052
5.34776e-06
0.000675424
6.00059e-06
0.000676635
6.5667e-06
0.000677675
7.06448e-06
0.000678532
7.50099e-06
0.0006792
7.88067e-06
0.000679678
8.20913e-06
0.000679972
8.4933e-06
0.00068009
8.7402e-06
0.00068004
8.95566e-06
0.00067983
9.14403e-06
0.000679467
9.30822e-06
0.000678958
9.45037e-06
0.000678311
9.57206e-06
0.000677533
9.67474e-06
0.000676629
9.75945e-06
0.000675608
9.82732e-06
0.000674475
9.87889e-06
0.000673237
9.915e-06
0.000671901
9.93569e-06
0.000670472
9.94171e-06
0.000668957
9.93265e-06
0.000667362
9.90938e-06
0.000665693
9.87098e-06
0.000663957
9.81872e-06
0.00066216
9.75091e-06
0.000660307
9.66964e-06
0.000658406
9.57203e-06
0.000656463
9.46159e-06
0.000654485
9.33356e-06
0.000652476
9.19381e-06
0.000650448
9.03453e-06
0.000648403
8.86556e-06
0.000646352
8.67399e-06
0.000644297
8.47627e-06
0.000642254
8.25105e-06
0.000640219
8.02569e-06
0.000638213
7.76488e-06
0.000636228
7.514e-06
0.000634292
7.21462e-06
0.000632387
6.9419e-06
0.000630553
6.59912e-06
0.000628759
6.31068e-06
0.000627062
5.91655e-06
0.000625408
5.62246e-06
0.000623878
5.16402e-06
0.000622388
4.88073e-06
0.000621043
4.33732e-06
0.000619733
4.09142e-06
0.000618552
3.43202e-06
0.000617418
3.26479e-06
0.000616225
2.44935e-06
0.000615297
2.41659e-06
0.000613671
1.4264e-06
0.000613263
1.57902e-06
4.82509e-07
0.000609585
0.000666951
5.18878e-07
0.000667818
1.47088e-06
0.000669058
2.34856e-06
0.000670483
3.14201e-06
0.000671983
3.84708e-06
0.000673512
4.4714e-06
0.000675052
5.02721e-06
0.000676591
5.52561e-06
0.000678117
5.97442e-06
0.000679619
6.37852e-06
0.000681087
6.74147e-06
0.000682514
7.06652e-06
0.000683897
7.3572e-06
0.000685236
7.61697e-06
0.000686531
7.84913e-06
0.000687782
8.05627e-06
0.000688992
8.24064e-06
0.00069016
8.40378e-06
0.000691288
8.54717e-06
0.000692376
8.6717e-06
0.000693425
8.77856e-06
0.000694435
8.86813e-06
0.000695409
8.94144e-06
0.000696346
8.99839e-06
0.000697248
9.03995e-06
0.000698115
9.06551e-06
0.000698948
9.07619e-06
0.000699748
9.07077e-06
0.000700516
9.05079e-06
0.000701253
9.01422e-06
0.000701959
8.96337e-06
0.000702636
8.89506e-06
0.000703285
8.81286e-06
0.000703907
8.71192e-06
0.000704503
8.59774e-06
0.000705074
8.46305e-06
0.000705624
8.31626e-06
0.000706151
8.14656e-06
0.000706661
7.96663e-06
0.000707151
7.76052e-06
0.00070763
7.54716e-06
0.000708091
7.30317e-06
0.000708549
7.05642e-06
0.000708991
6.77307e-06
0.000709439
6.49344e-06
0.000709869
6.16936e-06
0.000710322
5.85793e-06
0.000710746
5.49214e-06
0.000711218
5.15062e-06
0.000711639
4.74306e-06
0.000712146
4.37352e-06
0.000712557
3.92619e-06
0.000713118
3.53062e-06
0.000713499
3.05077e-06
0.000714133
2.6307e-06
0.000714444
2.13852e-06
0.000715166
1.69422e-06
0.000715353
1.23963e-06
0.000716172
7.60238e-07
4.44839e-07
0.00071621
0.000666854
3.31776e-07
0.000667308
1.01626e-06
0.000667971
1.68549e-06
0.000668795
2.31877e-06
0.000669735
2.90688e-06
0.000670759
3.44692e-06
0.000671846
3.94044e-06
0.000672981
4.39111e-06
0.000674152
4.80282e-06
0.000675352
5.17881e-06
0.000676572
5.52158e-06
0.000677805
5.83318e-06
0.000679047
6.1156e-06
0.000680293
6.37079e-06
0.000681541
6.60079e-06
0.00068279
6.80742e-06
0.000684038
6.99235e-06
0.000685285
7.1569e-06
0.00068653
7.30228e-06
0.000687773
7.42933e-06
0.000689012
7.53895e-06
0.000690249
7.63163e-06
0.000691482
7.70806e-06
0.000692712
7.76847e-06
0.000693939
7.81337e-06
0.000695161
7.84275e-06
0.000696381
7.857e-06
0.000697595
7.85588e-06
0.000698806
7.83971e-06
0.000700013
7.80807e-06
0.000701215
7.76123e-06
0.000702411
7.69865e-06
0.000703604
7.62052e-06
0.000704789
7.52629e-06
0.000705971
7.41595e-06
0.000707145
7.28916e-06
0.000708316
7.14546e-06
0.000709477
6.98514e-06
0.000710637
6.80672e-06
0.000711786
6.61194e-06
0.000712935
6.39724e-06
0.000714071
6.16728e-06
0.000715213
5.91446e-06
0.000716337
5.64904e-06
0.000717475
5.35585e-06
0.000718589
5.05543e-06
0.000719728
4.71903e-06
0.000720834
4.3855e-06
0.000721983
4.00224e-06
0.000723086
3.64022e-06
0.000724254
3.20562e-06
0.000725355
2.82449e-06
0.000726553
2.33278e-06
0.000727655
1.94932e-06
0.000728893
1.39193e-06
0.000729998
1.034e-06
0.000731293
3.99099e-07
0.000732419
1.13455e-07
0.000733847
-6.67667e-07
-8.36206e-07
0.000735128
0.000666738
2.60057e-07
0.00066697
7.85101e-07
0.000667356
1.29939e-06
0.000667879
1.79589e-06
0.000668517
2.26872e-06
0.000669249
2.71428e-06
0.000670059
3.13111e-06
0.00067093
3.5193e-06
0.000671854
3.87971e-06
0.000672819
4.21347e-06
0.000673819
4.52166e-06
0.000674847
4.80526e-06
0.000675897
5.06521e-06
0.000676965
5.30247e-06
0.000678048
5.51808e-06
0.000679143
5.71306e-06
0.000680247
5.88839e-06
0.000681358
6.04499e-06
0.000682477
6.18363e-06
0.000683601
6.305e-06
0.000684731
6.40965e-06
0.000685864
6.49811e-06
0.000687002
6.57069e-06
0.000688142
6.62785e-06
0.000689286
6.66967e-06
0.000690432
6.69654e-06
0.000691581
6.70829e-06
0.000692731
6.70535e-06
0.000693884
6.68721e-06
0.000695037
6.65449e-06
0.000696192
6.6062e-06
0.000697348
6.54335e-06
0.000698504
6.46424e-06
0.00069966
6.37065e-06
0.000700816
6.25973e-06
0.00070197
6.13457e-06
0.000703125
5.99054e-06
0.000704278
5.83289e-06
0.00070543
5.65409e-06
0.000706579
5.46304e-06
0.000707729
5.24748e-06
0.000708874
5.02231e-06
0.000710021
4.7676e-06
0.000711162
4.50799e-06
0.000712306
4.21127e-06
0.000713444
3.9177e-06
0.000714588
3.5753e-06
0.000715724
3.24932e-06
0.00071687
2.85596e-06
0.00071801
2.50024e-06
0.000719168
2.04761e-06
0.000720326
1.66666e-06
0.000721517
1.14217e-06
0.000722722
7.4404e-07
0.000723989
1.25018e-07
0.000725282
-2.59506e-07
0.00072664
-9.5859e-07
0.000728072
-1.31849e-06
0.00072958
-2.17562e-06
-2.48717e-06
0.000731231
0.000666724
2.02788e-07
0.000666899
6.10202e-07
0.000667183
1.01495e-06
0.000667569
1.4105e-06
0.000668044
1.79313e-06
0.000668599
2.15992e-06
0.000669221
2.50881e-06
0.000669902
2.83855e-06
0.000670633
3.1486e-06
0.000671407
3.4388e-06
0.00067222
3.70924e-06
0.000673065
3.96019e-06
0.000673938
4.19199e-06
0.000674836
4.40508e-06
0.000675754
4.59993e-06
0.00067669
4.77706e-06
0.000677641
4.93696e-06
0.000678606
5.08019e-06
0.000679582
5.20717e-06
0.000680569
5.3184e-06
0.000681564
5.41415e-06
0.000682568
5.49487e-06
0.000683578
5.56067e-06
0.000684594
5.61195e-06
0.000685615
5.64862e-06
0.00068664
5.67112e-06
0.000687669
5.6791e-06
0.000688702
5.67308e-06
0.000689736
5.65238e-06
0.000690773
5.61774e-06
0.000691811
5.56801e-06
0.00069285
5.50432e-06
0.00069389
5.42482e-06
0.000694929
5.33138e-06
0.000695968
5.22105e-06
0.000697005
5.09692e-06
0.000698042
4.95436e-06
0.000699076
4.7984e-06
0.000700108
4.62185e-06
0.000701139
4.43283e-06
0.000702166
4.22009e-06
0.000703192
3.9967e-06
0.000704214
3.74507e-06
0.000705236
3.48599e-06
0.000706255
3.19195e-06
0.000707277
2.89599e-06
0.000708297
2.55517e-06
0.000709325
2.22189e-06
0.000710351
1.82941e-06
0.000711391
1.46046e-06
0.000712427
1.01118e-06
0.000713483
6.11248e-07
0.000714523
1.02002e-07
0.000715605
-3.38367e-07
0.000716681
-9.50789e-07
0.000717831
-1.40929e-06
0.000718995
-2.12227e-06
0.000720265
-2.58907e-06
0.000721531
-3.44124e-06
-3.89598e-06
0.00072294
0.000666708
1.61094e-07
0.000666833
4.85092e-07
0.00066704
8.08284e-07
0.000667325
1.1261e-06
0.000667682
1.436e-06
0.000668106
1.73584e-06
0.000668591
2.0239e-06
0.00066913
2.29894e-06
0.000669719
2.56019e-06
0.00067035
2.8073e-06
0.000671021
3.03891e-06
0.000671726
3.25512e-06
0.000672461
3.45606e-06
0.000673225
3.64183e-06
0.000674012
3.81254e-06
0.000674821
3.96839e-06
0.000675648
4.10957e-06
0.000676492
4.23634e-06
0.00067735
4.34888e-06
0.000678221
4.44748e-06
0.000679103
4.53224e-06
0.000679995
4.60344e-06
0.000680894
4.66107e-06
0.000681801
4.70539e-06
0.000682713
4.73628e-06
0.00068363
4.75401e-06
0.000684551
4.75826e-06
0.000685475
4.74937e-06
0.0006864
4.72679e-06
0.000687327
4.69099e-06
0.000688254
4.64106e-06
0.000689181
4.57776e-06
0.000690106
4.49967e-06
0.000691029
4.40801e-06
0.00069195
4.30061e-06
0.000692867
4.17946e-06
0.00069378
4.04124e-06
0.000694689
3.88923e-06
0.000695593
3.71832e-06
0.000696492
3.53382e-06
0.000697384
3.32791e-06
0.000698272
3.10912e-06
0.000699151
2.86544e-06
0.000700027
2.6105e-06
0.000700893
2.32582e-06
0.000701756
2.03294e-06
0.000702608
1.70298e-06
0.00070346
1.36957e-06
0.000704302
9.87331e-07
0.000705154
6.08983e-07
0.000706002
1.63124e-07
0.000706871
-2.57815e-07
0.000707738
-7.65333e-07
0.000708633
-1.23314e-06
0.00070951
-1.82811e-06
0.000710445
-2.34357e-06
0.000711365
-3.04262e-06
0.000712378
-3.60194e-06
0.000713369
-4.43184e-06
-5.02422e-06
0.000714497
0.000666699
1.29089e-07
0.000666795
3.88365e-07
0.000666956
6.47392e-07
0.000667179
9.02965e-07
0.000667462
1.15334e-06
0.000667801
1.39698e-06
0.000668192
1.63255e-06
0.000668632
1.85897e-06
0.000669117
2.07533e-06
0.000669643
2.28093e-06
0.000670207
2.47512e-06
0.000670805
2.65751e-06
0.000671433
2.82786e-06
0.000672089
2.98607e-06
0.000672769
3.13206e-06
0.000673472
3.26581e-06
0.000674194
3.38732e-06
0.000674934
3.49663e-06
0.000675689
3.59377e-06
0.000676458
3.67883e-06
0.000677238
3.75181e-06
0.000678029
3.81283e-06
0.000678828
3.86183e-06
0.000679634
3.89892e-06
0.000680447
3.92396e-06
0.000681264
3.93706e-06
0.000682084
3.93798e-06
0.000682907
3.92683e-06
0.00068373
3.90324e-06
0.000684554
3.86737e-06
0.000685376
3.81862e-06
0.000686197
3.75728e-06
0.000687014
3.68247e-06
0.000687827
3.59465e-06
0.000688635
3.49254e-06
0.000689438
3.37696e-06
0.000690233
3.24598e-06
0.000691021
3.10103e-06
0.0006918
2.93925e-06
0.000692571
2.76301e-06
0.000693331
2.56804e-06
0.000694082
2.3582e-06
0.00069482
2.12709e-06
0.00069555
1.88092e-06
0.000696266
1.61003e-06
0.000696974
1.32441e-06
0.000697668
1.00957e-06
0.000698355
6.81639e-07
0.000699024
3.19162e-07
0.000699685
-5.22139e-08
0.000700328
-4.8017e-07
0.000700981
-9.10664e-07
0.000701616
-1.40008e-06
0.00070227
-1.88703e-06
0.000702897
-2.45518e-06
0.00070356
-3.00649e-06
0.000704187
-3.66975e-06
0.000704874
-4.2897e-06
0.00070551
-5.06715e-06
-5.756e-06
0.000706242
0.000666693
1.02942e-07
0.000666772
3.09585e-07
0.000666903
5.16208e-07
0.000667085
7.20469e-07
0.000667317
9.21135e-07
0.000667597
1.11708e-06
0.000667923
1.3073e-06
0.000668291
1.49089e-06
0.000668699
1.66708e-06
0.000669145
1.83524e-06
0.000669625
1.99482e-06
0.000670137
2.14541e-06
0.000670678
2.28665e-06
0.000671246
2.4183e-06
0.000671838
2.54016e-06
0.000672452
2.6521e-06
0.000673085
2.754e-06
0.000673736
2.84578e-06
0.000674402
2.92737e-06
0.000675082
2.99874e-06
0.000675774
3.05984e-06
0.000676476
3.11064e-06
0.000677187
3.15106e-06
0.000677905
3.1811e-06
0.000678628
3.20062e-06
0.000679356
3.20961e-06
0.000680086
3.20788e-06
0.000680817
3.19538e-06
0.000681549
3.17188e-06
0.000682279
3.13728e-06
0.000683006
3.09126e-06
0.00068373
3.03373e-06
0.000684448
2.96422e-06
0.00068516
2.88265e-06
0.000685864
2.78839e-06
0.00068656
2.6814e-06
0.000687245
2.56081e-06
0.000687919
2.42667e-06
0.000688581
2.27782e-06
0.000689229
2.11442e-06
0.000689862
1.93493e-06
0.000690481
1.73974e-06
0.000691081
1.52676e-06
0.000691665
1.29677e-06
0.000692228
1.04688e-06
0.000692774
7.78472e-07
0.000693296
4.87501e-07
0.000693802
1.76505e-07
0.000694283
-1.62112e-07
0.000694756
-5.25327e-07
0.000695195
-9.19452e-07
0.000695623
-1.33873e-06
0.000696018
-1.79478e-06
0.000696409
-2.27821e-06
0.00069676
-2.80635e-06
0.000697118
-3.36443e-06
0.000697426
-3.9778e-06
0.000697759
-4.62252e-06
0.000698028
-5.33614e-06
-6.07875e-06
0.000698351
0.000666689
8.08939e-08
0.000666755
2.4324e-07
0.000666866
4.05668e-07
0.00066702
5.6644e-07
0.000667216
7.24663e-07
0.000667454
8.79512e-07
0.000667731
1.03023e-06
0.000668046
1.17612e-06
0.000668396
1.31658e-06
0.00066878
1.45107e-06
0.000669196
1.57912e-06
0.000669641
1.70034e-06
0.000670113
1.81439e-06
0.000670611
1.92098e-06
0.000671131
2.01988e-06
0.000671672
2.11089e-06
0.000672232
2.19386e-06
0.000672809
2.26863e-06
0.000673402
2.33511e-06
0.000674007
2.39319e-06
0.000674624
2.44277e-06
0.000675251
2.48376e-06
0.000675886
2.51608e-06
0.000676527
2.53963e-06
0.000677174
2.5543e-06
0.000677823
2.55998e-06
0.000678475
2.55655e-06
0.000679126
2.54384e-06
0.000679776
2.52171e-06
0.000680424
2.48992e-06
0.000681067
2.44832e-06
0.000681704
2.39659e-06
0.000682334
2.33456e-06
0.000682954
2.26176e-06
0.000683565
2.17807e-06
0.000684163
2.08283e-06
0.000684748
1.97597e-06
0.000685318
1.85655e-06
0.000685871
1.72467e-06
0.000686407
1.57896e-06
0.000686922
1.41979e-06
0.000687417
1.24518e-06
0.000687887
1.05605e-06
0.000688335
8.49399e-07
0.000688754
6.27182e-07
0.000689148
3.84971e-07
0.000689508
1.26897e-07
0.000689843
-1.57788e-07
0.000690143
-4.62646e-07
0.000690414
-7.96416e-07
0.000690644
-1.14879e-06
0.000690843
-1.53825e-06
0.000690995
-1.94634e-06
0.000691119
-2.40204e-06
0.000691187
-2.87422e-06
0.000691231
-3.40912e-06
0.000691208
-3.95497e-06
0.000691171
-4.58534e-06
0.00069105
-5.21449e-06
-5.95858e-06
0.000690929
0.000666686
6.17815e-08
0.000666743
1.85768e-07
0.000666839
3.09882e-07
0.000666973
4.32845e-07
0.000667143
5.54011e-07
0.00066735
6.72782e-07
0.000667592
7.88599e-07
0.000667867
9.00945e-07
0.000668174
1.00935e-06
0.000668512
1.11339e-06
0.000668878
1.21268e-06
0.000669272
1.3069e-06
0.00066969
1.39573e-06
0.000670132
1.47892e-06
0.000670596
1.55625e-06
0.000671079
1.62751e-06
0.000671581
1.69254e-06
0.000672098
1.75119e-06
0.00067263
1.80332e-06
0.000673174
1.84882e-06
0.000673729
1.88757e-06
0.000674294
1.91946e-06
0.000674865
1.9444e-06
0.000675443
1.96226e-06
0.000676024
1.97295e-06
0.000676608
1.9763e-06
0.000677192
1.97225e-06
0.000677775
1.96056e-06
0.000678356
1.94118e-06
0.000678932
1.91379e-06
0.000679502
1.87835e-06
0.000680064
1.83443e-06
0.000680617
1.78205e-06
0.000681158
1.72056e-06
0.000681686
1.65012e-06
0.000682199
1.56978e-06
0.000682695
1.47993e-06
0.000683172
1.37916e-06
0.000683629
1.26825e-06
0.000684063
1.14508e-06
0.000684471
1.01113e-06
0.000684853
8.63182e-07
0.000685206
7.03852e-07
0.000685527
5.28197e-07
0.000685813
3.40806e-07
0.000686064
1.34236e-07
0.000686276
-8.5312e-08
0.00068645
-3.32061e-07
0.000686578
-5.8996e-07
0.00068666
-8.79143e-07
0.00068669
-1.17837e-06
0.000686671
-1.51895e-06
0.00068659
-1.86567e-06
0.000686456
-2.2684e-06
0.000686251
-2.66926e-06
0.00068599
-3.14805e-06
0.000685645
-3.60997e-06
0.000685243
-4.183e-06
0.00068474
-4.71177e-06
-5.40116e-06
0.000684183
0.000666684
4.47694e-08
0.000666735
1.34635e-07
0.00066682
2.24645e-07
0.000666939
3.13895e-07
0.000667091
4.01934e-07
0.000667276
4.8834e-07
0.000667491
5.72719e-07
0.000667738
6.54701e-07
0.000668013
7.33943e-07
0.000668316
8.10129e-07
0.000668646
8.82975e-07
0.000669001
9.52216e-07
0.000669379
1.01762e-06
0.000669779
1.07898e-06
0.000670199
1.1361e-06
0.000670638
1.18881e-06
0.000671093
1.23698e-06
0.000671564
1.28045e-06
0.000672048
1.31912e-06
0.000672544
1.35286e-06
0.00067305
1.38158e-06
0.000673564
1.40516e-06
0.000674085
1.42352e-06
0.000674611
1.43653e-06
0.00067514
1.44413e-06
0.00067567
1.44614e-06
0.0006762
1.44253e-06
0.000676727
1.43307e-06
0.000677251
1.41775e-06
0.000677768
1.39624e-06
0.000678278
1.36858e-06
0.000678778
1.33431e-06
0.000679266
1.29358e-06
0.000679741
1.2457e-06
0.0006802
1.19097e-06
0.000680642
1.1284e-06
0.000681063
1.05857e-06
0.000681462
9.79998e-07
0.000681837
8.93716e-07
0.000682185
7.97492e-07
0.000682503
6.93149e-07
0.000682788
5.77251e-07
0.000683039
4.52952e-07
0.000683253
3.14962e-07
0.000683425
1.68724e-07
0.000683552
6.98644e-09
0.000683634
-1.67593e-07
0.000683665
-3.62812e-07
0.00068364
-5.64939e-07
0.000683556
-7.9552e-07
0.000683408
-1.03055e-06
0.000683194
-1.30407e-06
0.000682904
-1.57657e-06
0.000682539
-1.90261e-06
0.000682087
-2.21747e-06
0.000681548
-2.60888e-06
0.000680909
-2.97083e-06
0.00068017
-3.44477e-06
0.000679315
-3.85675e-06
-4.43494e-06
0.000678349
0.000666682
2.92118e-08
0.000666729
8.78871e-08
0.000666807
1.46708e-07
0.000666916
2.05093e-07
0.000667055
2.62753e-07
0.000667224
3.19417e-07
0.000667422
3.74832e-07
0.000667648
4.28756e-07
0.000667901
4.80964e-07
0.00066818
5.31247e-07
0.000668483
5.79411e-07
0.00066881
6.25279e-07
0.000669159
6.6869e-07
0.000669528
7.09492e-07
0.000669917
7.47557e-07
0.000670323
7.82756e-07
0.000670745
8.14986e-07
0.000671181
8.44139e-07
0.00067163
8.70131e-07
0.00067209
8.92864e-07
0.00067256
9.12272e-07
0.000673037
9.28256e-07
0.000673519
9.40763e-07
0.000674006
9.49685e-07
0.000674495
9.54981e-07
0.000674985
9.56516e-07
0.000675473
9.54267e-07
0.000675958
9.48055e-07
0.000676438
9.37883e-07
0.000676911
9.23503e-07
0.000677374
9.04962e-07
0.000677827
8.81906e-07
0.000678266
8.54461e-07
0.00067869
8.22107e-07
0.000679095
7.85109e-07
0.000679481
7.42691e-07
0.000679844
6.95356e-07
0.000680182
6.41925e-07
0.000680493
5.83305e-07
0.000680773
5.17691e-07
0.000681019
4.46659e-07
0.000681229
3.67426e-07
0.000681399
2.82677e-07
0.000681526
1.88098e-07
0.000681606
8.82733e-08
0.000681637
-2.38021e-08
0.000681613
-1.43075e-07
0.000681528
-2.78005e-07
0.00068138
-4.16728e-07
0.000681161
-5.76866e-07
0.000680869
-7.38328e-07
0.000680494
-9.29208e-07
0.000680034
-1.11655e-06
0.000679477
-1.34546e-06
0.000678821
-1.56192e-06
0.000678051
-1.83867e-06
0.000677167
-2.08714e-06
0.000676148
-2.4251e-06
0.000674998
-2.70684e-06
-3.12331e-06
0.000673686
0.000666681
1.45729e-08
0.000666725
4.39056e-08
0.000666799
7.3377e-08
0.000666901
1.02699e-07
0.000667032
1.31727e-07
0.000667191
1.60326e-07
0.000667378
1.88367e-07
0.000667591
2.1573e-07
0.000667829
2.42301e-07
0.000668093
2.67971e-07
0.000668379
2.92642e-07
0.000668688
3.1622e-07
0.000669018
3.38621e-07
0.000669368
3.59765e-07
0.000669736
3.79582e-07
0.000670121
3.98003e-07
0.000670521
4.14971e-07
0.000670935
4.30427e-07
0.00067136
4.44323e-07
0.000671797
4.56606e-07
0.000672242
4.67237e-07
0.000672694
4.76161e-07
0.000673151
4.8335e-07
0.000673612
4.88742e-07
0.000674075
4.92316e-07
0.000674537
4.93996e-07
0.000674998
4.93773e-07
0.000675454
4.91548e-07
0.000675905
4.87325e-07
0.000676347
4.8097e-07
0.00067678
4.72514e-07
0.0006772
4.61762e-07
0.000677606
4.48794e-07
0.000677995
4.33322e-07
0.000678364
4.15507e-07
0.000678712
3.9492e-07
0.000679035
3.71856e-07
0.000679332
3.45669e-07
0.000679598
3.16878e-07
0.000679831
2.84491e-07
0.000680029
2.49398e-07
0.000680186
2.10054e-07
0.000680301
1.67963e-07
0.000680368
1.20715e-07
0.000680385
7.08833e-08
0.000680347
1.48744e-08
0.000680248
-4.44967e-08
0.000680083
-1.12557e-07
0.000679848
-1.82109e-07
0.000679534
-2.6308e-07
0.00067914
-3.44163e-07
0.000678652
-4.41109e-07
0.000678071
-5.35328e-07
0.000677377
-6.52133e-07
0.000676577
-7.61058e-07
0.000675641
-9.03022e-07
0.000674582
-1.02802e-06
0.000673359
-1.20242e-06
0.000671996
-1.34384e-06
-1.56023e-06
0.000670433
0.000666681
3.76233e-10
0.000666724
1.25973e-09
0.000666795
2.26891e-09
0.000666894
3.39769e-09
0.000667021
4.63843e-09
0.000667175
5.9837e-09
0.000667356
7.4264e-09
0.000667563
8.95963e-09
0.000667795
1.05765e-08
0.00066805
1.22703e-08
0.000668329
1.40341e-08
0.000668629
1.58613e-08
0.00066895
1.77453e-08
0.00066929
1.96796e-08
0.000669648
2.16582e-08
0.000670023
2.36751e-08
0.000670412
2.57244e-08
0.000670815
2.7801e-08
0.000671229
2.98997e-08
0.000671654
3.2016e-08
0.000672087
3.41456e-08
0.000672527
3.62848e-08
0.000672971
3.84299e-08
0.00067342
4.05781e-08
0.000673869
4.27267e-08
0.000674318
4.48735e-08
0.000674765
4.70169e-08
0.000675207
4.91556e-08
0.000675644
5.1289e-08
0.000676071
5.34166e-08
0.000676488
5.55387e-08
0.000676892
5.76559e-08
0.000677281
5.97694e-08
0.000677653
6.18804e-08
0.000678004
6.39908e-08
0.000678333
6.61018e-08
0.000678637
6.82156e-08
0.000678912
7.03321e-08
0.000679156
7.24548e-08
0.000679366
7.45879e-08
0.000679539
7.67478e-08
0.00067967
7.89583e-08
0.000679757
8.12783e-08
0.000679794
8.37905e-08
0.000679778
8.63187e-08
0.000679704
8.88608e-08
0.000679568
9.14171e-08
0.000679362
9.39729e-08
0.000679083
9.65971e-08
0.000678721
9.93073e-08
0.000678274
1.02165e-07
0.000677728
1.05129e-07
0.000677084
1.08253e-07
0.000676321
1.11481e-07
0.000675445
1.149e-07
0.000674423
1.18437e-07
0.000673273
1.22203e-07
0.000671945
1.26096e-07
0.000670471
1.30241e-07
1.34521e-07
0.000668776
0.000666681
-1.38216e-08
0.000666724
-4.13997e-08
0.000666795
-6.8861e-08
0.000666894
-9.59358e-08
0.000667021
-1.22495e-07
0.000667176
-1.48417e-07
0.000667357
-1.73587e-07
0.000667563
-1.97899e-07
0.000667795
-2.21252e-07
0.000668051
-2.43551e-07
0.00066833
-2.64712e-07
0.00066863
-2.84653e-07
0.000668951
-3.03305e-07
0.000669292
-3.206e-07
0.00066965
-3.3648e-07
0.000670024
-3.50888e-07
0.000670414
-3.63778e-07
0.000670817
-3.75102e-07
0.000671231
-3.84823e-07
0.000671656
-3.92895e-07
0.00067209
-3.99289e-07
0.00067253
-4.03958e-07
0.000672975
-4.0688e-07
0.000673424
-4.07998e-07
0.000673874
-4.07298e-07
0.000674324
-4.04708e-07
0.000674771
-4.00222e-07
0.000675214
-3.93743e-07
0.00067565
-3.85277e-07
0.000676078
-3.7469e-07
0.000676496
-3.62013e-07
0.000676901
-3.47051e-07
0.00067729
-3.29879e-07
0.000677662
-3.1021e-07
0.000678015
-2.88197e-07
0.000678344
-2.63409e-07
0.000678648
-2.36134e-07
0.000678924
-2.05719e-07
0.00067917
-1.7268e-07
0.00067938
-1.36023e-07
0.000679554
-9.66495e-08
0.000679686
-5.30575e-08
0.000679774
-6.94712e-09
0.000679812
4.54294e-08
0.000679798
1.00499e-07
0.000679725
1.62209e-07
0.00067959
2.26471e-07
0.000679384
2.99408e-07
0.000679107
3.74187e-07
0.000678745
4.60566e-07
0.0006783
5.47337e-07
0.000677755
6.50134e-07
0.000677113
7.50545e-07
0.000676351
8.73718e-07
0.000675476
9.89439e-07
0.000674456
1.13838e-06
0.000673307
1.27088e-06
0.000671981
1.45296e-06
0.000670508
1.60271e-06
1.82758e-06
0.000668815
0.000666681
-2.84711e-08
0.000666725
-8.54161e-08
0.000666799
-1.42255e-07
0.000666901
-1.98424e-07
0.000667032
-2.5365e-07
0.000667192
-3.07677e-07
0.000667378
-3.60262e-07
0.000667592
-4.11179e-07
0.000667831
-4.60217e-07
0.000668094
-5.07179e-07
0.000668381
-5.51886e-07
0.000668691
-5.94173e-07
0.000669021
-6.33891e-07
0.000669372
-6.70904e-07
0.00066974
-7.05091e-07
0.000670126
-7.3634e-07
0.000670527
-7.64556e-07
0.000670941
-7.89642e-07
0.000671368
-8.11525e-07
0.000671805
-8.30115e-07
0.000672251
-8.45354e-07
0.000672704
-8.57151e-07
0.000673163
-8.65461e-07
0.000673625
-8.70179e-07
0.000674089
-8.71272e-07
0.000674553
-8.68607e-07
0.000675015
-8.62167e-07
0.000675473
-8.51773e-07
0.000675925
-8.3743e-07
0.000676369
-8.18891e-07
0.000676803
-7.96204e-07
0.000677225
-7.6901e-07
0.000677633
-7.37436e-07
0.000678024
-7.00959e-07
0.000678395
-6.59839e-07
0.000678745
-6.13296e-07
0.000679071
-5.61828e-07
0.00067937
-5.04256e-07
0.000679638
-4.41476e-07
0.000679874
-3.71688e-07
0.000680074
-2.96456e-07
0.000680234
-2.13016e-07
0.000680351
-1.24074e-07
0.000680422
-2.56261e-08
0.000680442
8.00065e-08
0.000680406
1.98415e-07
0.000680311
3.21924e-07
0.000680149
4.61627e-07
0.000679917
6.05435e-07
0.000679607
7.70813e-07
0.000679217
9.37835e-07
0.000678732
1.1344e-06
0.000678155
1.32781e-06
0.000677466
1.56288e-06
0.000676669
1.78601e-06
0.000675738
2.06947e-06
0.000674684
2.32534e-06
0.000673466
2.67061e-06
0.000672108
2.9606e-06
3.38504e-06
0.000670551
0.000666682
-4.40448e-08
0.000666729
-1.32219e-07
0.000666807
-2.20293e-07
0.000666916
-3.07379e-07
0.000667055
-3.93042e-07
0.000667225
-4.76874e-07
0.000667423
-5.58494e-07
0.000667649
-6.37543e-07
0.000667903
-7.13694e-07
0.000668182
-7.86644e-07
0.000668486
-8.56119e-07
0.000668814
-9.2187e-07
0.000669164
-9.83678e-07
0.000669534
-1.04134e-06
0.000669924
-1.09469e-06
0.000670331
-1.14355e-06
0.000670754
-1.18781e-06
0.000671192
-1.22733e-06
0.000671643
-1.26199e-06
0.000672104
-1.2917e-06
0.000672575
-1.31637e-06
0.000673054
-1.33587e-06
0.000673539
-1.35015e-06
0.000674027
-1.35907e-06
0.000674519
-1.36258e-06
0.000675011
-1.36051e-06
0.000675501
-1.35283e-06
0.000675989
-1.33931e-06
0.000676471
-1.31993e-06
0.000676947
-1.29438e-06
0.000677413
-1.2627e-06
0.000677869
-1.22442e-06
0.000678311
-1.17967e-06
0.000678738
-1.1278e-06
0.000679147
-1.06907e-06
0.000679536
-1.00251e-06
0.000679903
-9.28667e-07
0.000680245
-8.4608e-07
0.000680559
-7.5576e-07
0.000680843
-6.55484e-07
0.000681094
-5.4705e-07
0.000681308
-4.27059e-07
0.000681482
-2.98647e-07
0.000681613
-1.56664e-07
0.000681701
-7.32175e-09
0.000681736
1.63284e-07
0.000681716
3.41331e-07
0.000681637
5.41027e-07
0.000681494
7.48084e-07
0.000681281
9.83712e-07
0.000680995
1.22411e-06
0.000680626
1.50302e-06
0.000680173
1.78138e-06
0.000679623
2.11322e-06
0.000678974
2.43456e-06
0.000678211
2.83223e-06
0.000677335
3.2014e-06
0.000676324
3.68207e-06
0.000675182
4.10218e-06
4.68756e-06
0.00067388
0.000666684
-6.10789e-08
0.000666735
-1.83428e-07
0.00066682
-3.05669e-07
0.000666939
-4.26541e-07
0.000667092
-5.45412e-07
0.000667277
-6.61697e-07
0.000667493
-7.7485e-07
0.00066774
-8.84367e-07
0.000668016
-9.89791e-07
0.00066832
-1.09071e-06
0.000668651
-1.18675e-06
0.000669006
-1.2776e-06
0.000669386
-1.36297e-06
0.000669787
-1.4426e-06
0.000670209
-1.51629e-06
0.000670649
-1.58385e-06
0.000671106
-1.64512e-06
0.000671579
-1.69996e-06
0.000672065
-1.74824e-06
0.000672563
-1.78986e-06
0.000673072
-1.82471e-06
0.000673588
-1.85269e-06
0.000674112
-1.8737e-06
0.00067464
-1.88763e-06
0.000675172
-1.89439e-06
0.000675706
-1.89382e-06
0.000676239
-1.88586e-06
0.00067677
-1.87027e-06
0.000677297
-1.847e-06
0.000677818
-1.81574e-06
0.000678332
-1.77644e-06
0.000678836
-1.72867e-06
0.000679329
-1.67245e-06
0.000679808
-1.60713e-06
0.000680272
-1.53287e-06
0.000680718
-1.44871e-06
0.000681144
-1.35503e-06
0.000681549
-1.25041e-06
0.000681929
-1.13564e-06
0.000682282
-1.0086e-06
0.000682605
-8.70741e-07
0.000682897
-7.18861e-07
0.000683154
-5.55559e-07
0.000683373
-3.75944e-07
0.000683551
-1.84653e-07
0.000683688
2.56033e-08
0.000683777
2.52582e-07
0.000683815
5.03156e-07
0.000683798
7.65593e-07
0.000683722
1.05941e-06
0.000683582
1.36373e-06
0.000683376
1.70932e-06
0.000683096
2.06165e-06
0.000682739
2.46971e-06
0.000682297
2.87678e-06
0.000681768
3.36123e-06
0.000681139
3.83014e-06
0.000680412
4.40913e-06
0.000679569
4.94588e-06
5.64141e-06
0.000678615
0.000666686
-8.02195e-08
0.000666743
-2.40997e-07
0.000666839
-4.01632e-07
0.000666973
-5.60406e-07
0.000667144
-7.16436e-07
0.000667351
-8.68912e-07
0.000667594
-1.01709e-06
0.00066787
-1.16028e-06
0.000668178
-1.2979e-06
0.000668516
-1.42941e-06
0.000668884
-1.55437e-06
0.000669279
-1.67239e-06
0.000669699
-1.78313e-06
0.000670143
-1.88634e-06
0.000670608
-1.98177e-06
0.000671094
-2.06926e-06
0.000671597
-2.14865e-06
0.000672117
-2.2198e-06
0.000672651
-2.28262e-06
0.000673198
-2.33701e-06
0.000673757
-2.38288e-06
0.000674324
-2.42016e-06
0.000674899
-2.44875e-06
0.00067548
-2.46857e-06
0.000676065
-2.47952e-06
0.000676653
-2.48148e-06
0.000677241
-2.47434e-06
0.000677829
-2.45793e-06
0.000678414
-2.43212e-06
0.000678995
-2.39667e-06
0.00067957
-2.35142e-06
0.000680137
-2.29605e-06
0.000680695
-2.23039e-06
0.000681242
-2.15398e-06
0.000681776
-2.06668e-06
0.000682295
-1.96783e-06
0.000682798
-1.85736e-06
0.000683281
-1.73433e-06
0.000683745
-1.59881e-06
0.000684185
-1.44944e-06
0.000684601
-1.28659e-06
0.000684991
-1.10827e-06
0.00068535
-9.15363e-07
0.00068568
-7.04959e-07
0.000685974
-4.78949e-07
0.000686233
-2.3317e-07
0.000686457
2.83348e-08
0.00068664
3.20294e-07
0.000686776
6.28941e-07
0.000686869
9.66827e-07
0.000686909
1.32395e-06
0.0006869
1.71795e-06
0.00068683
2.1313e-06
0.000686708
2.59174e-06
0.000686515
3.06982e-06
0.000686267
3.60966e-06
0.000685935
4.16225e-06
0.000685546
4.79766e-06
0.000685058
5.43463e-06
6.18362e-06
0.000684515
0.000666689
-1.02302e-07
0.000666755
-3.07459e-07
0.000666866
-5.12387e-07
0.00066702
-7.14761e-07
0.000667217
-9.13358e-07
0.000667455
-1.10707e-06
0.000667733
-1.29489e-06