/*--------------------------------*- C++ -*----------------------------------*\
| =========                 |                                                 |
| \\      /  F ield         | OpenFOAM: The Open Source CFD Toolbox           |
|  \\    /   O peration     | Version:  2312                                  |
|   \\  /    A nd           | Website:  www.openfoam.com                      |
|    \\/     M anipulation  |                                                 |
\*---------------------------------------------------------------------------*/
FoamFile
{
    version     2.0;
    format      ascii;
    arch        "LSB;label=32;scalar=64";
    class       volVectorField;
    location    "106000";
    object      U;
}
// * * * * * * * * * * * * * * * * * * * * * * * * * * * * * * * * * * * * * //

dimensions      [0 1 -1 0 0 0 0];

internalField   nonuniform List<vector> 
10800
(
(0.000992484 4.94195e-06 0)
(0.000990038 1.24579e-05 0)
(0.000986872 1.74794e-05 0)
(0.000980499 2.06634e-05 0)
(0.000971086 2.27467e-05 0)
(0.000959796 2.42405e-05 0)
(0.000947695 2.53798e-05 0)
(0.000935317 2.62394e-05 0)
(0.000922807 2.68435e-05 0)
(0.000910141 2.72172e-05 0)
(0.000897275 2.73982e-05 0)
(0.000884205 2.74293e-05 0)
(0.000870968 2.73487e-05 0)
(0.000857619 2.71843e-05 0)
(0.000844209 2.69543e-05 0)
(0.000830776 2.66704e-05 0)
(0.000817346 2.63406e-05 0)
(0.000803938 2.59714e-05 0)
(0.000790567 2.55683e-05 0)
(0.000777248 2.51361e-05 0)
(0.000763997 2.46787e-05 0)
(0.000750827 2.41992e-05 0)
(0.000737754 2.36995e-05 0)
(0.000724792 2.31816e-05 0)
(0.000711954 2.26463e-05 0)
(0.000699251 2.20952e-05 0)
(0.000686698 2.15284e-05 0)
(0.000674307 2.09473e-05 0)
(0.00066209 2.03514e-05 0)
(0.000650059 1.97425e-05 0)
(0.000638228 1.9119e-05 0)
(0.000626607 1.84837e-05 0)
(0.000615213 1.78339e-05 0)
(0.000604053 1.71737e-05 0)
(0.000593145 1.64986e-05 0)
(0.000582496 1.58153e-05 0)
(0.000572125 1.51163e-05 0)
(0.000562036 1.44123e-05 0)
(0.000552254 1.36907e-05 0)
(0.000542773 1.29694e-05 0)
(0.00053363 1.22266e-05 0)
(0.000524802 1.14924e-05 0)
(0.000516353 1.07293e-05 0)
(0.000508215 9.98795e-06 0)
(0.000500523 9.20394e-06 0)
(0.000493097 8.4626e-06 0)
(0.000486245 7.65365e-06 0)
(0.000479512 6.91923e-06 0)
(0.00047366 6.07643e-06 0)
(0.000467479 5.34748e-06 0)
(0.000463004 4.46194e-06 0)
(0.000456869 3.69161e-06 0)
(0.000454826 2.80079e-06 0)
(0.000447106 1.74141e-06 0)
(0.000450619 1.16932e-06 0)
(0.000436248 -1.24104e-06 0)
(0.000454603 1.24099e-07 0)
(0.000418676 -7.70617e-06 0)
(0.000476936 2.03869e-06 0)
(0.000382271 -2.44874e-05 0)
(0.00100003 5.80245e-06 0)
(0.00100172 1.49934e-05 0)
(0.00100423 2.15245e-05 0)
(0.00100706 2.60881e-05 0)
(0.00100979 2.94467e-05 0)
(0.00101219 3.21286e-05 0)
(0.00101421 3.43816e-05 0)
(0.00101588 3.62919e-05 0)
(0.00101725 3.78923e-05 0)
(0.00101836 3.92133e-05 0)
(0.00101921 4.02964e-05 0)
(0.0010198 4.11872e-05 0)
(0.00102012 4.19264e-05 0)
(0.00102017 4.25441e-05 0)
(0.00101998 4.30601e-05 0)
(0.00101954 4.34872e-05 0)
(0.00101889 4.38341e-05 0)
(0.00101801 4.41074e-05 0)
(0.00101694 4.43127e-05 0)
(0.00101567 4.44546e-05 0)
(0.00101423 4.4537e-05 0)
(0.00101261 4.45623e-05 0)
(0.00101083 4.45326e-05 0)
(0.00100889 4.4449e-05 0)
(0.00100682 4.43126e-05 0)
(0.0010046 4.41232e-05 0)
(0.00100228 4.38819e-05 0)
(0.000999813 4.35875e-05 0)
(0.000997274 4.32418e-05 0)
(0.000994598 4.28416e-05 0)
(0.000991887 4.23906e-05 0)
(0.000989031 4.1883e-05 0)
(0.000986194 4.13259e-05 0)
(0.000983187 4.07085e-05 0)
(0.000980277 4.00447e-05 0)
(0.00097714 3.93148e-05 0)
(0.000974221 3.85448e-05 0)
(0.000970965 3.76989e-05 0)
(0.000968119 3.68254e-05 0)
(0.000964734 3.58584e-05 0)
(0.000962075 3.48873e-05 0)
(0.000958516 3.37913e-05 0)
(0.000956208 3.27337e-05 0)
(0.000952364 3.14946e-05 0)
(0.000950659 3.03704e-05 0)
(0.000946306 2.89624e-05 0)
(0.000945609 2.7806e-05 0)
(0.000940326 2.61815e-05 0)
(0.000941302 2.50517e-05 0)
(0.000934317 2.31236e-05 0)
(0.000938078 2.21205e-05 0)
(0.00092801 1.97337e-05 0)
(0.000936439 1.90233e-05 0)
(0.000920839 1.59136e-05 0)
(0.000937123 1.57572e-05 0)
(0.000911695 1.15119e-05 0)
(0.000941254 1.22451e-05 0)
(0.000898535 6.39014e-06 0)
(0.000950732 8.03876e-06 0)
(0.000878206 9.63971e-07 0)
(0.000999989 1.9632e-06 0)
(0.00100078 5.76608e-06 0)
(0.00100224 9.29263e-06 0)
(0.00100423 1.2459e-05 0)
(0.00100654 1.52625e-05 0)
(0.00100897 1.77481e-05 0)
(0.00101139 1.99707e-05 0)
(0.00101376 2.19733e-05 0)
(0.00101606 2.3783e-05 0)
(0.00101832 2.54166e-05 0)
(0.00102054 2.68872e-05 0)
(0.00102271 2.82082e-05 0)
(0.00102482 2.93941e-05 0)
(0.00102687 3.04585e-05 0)
(0.00102885 3.14141e-05 0)
(0.00103076 3.22704e-05 0)
(0.00103261 3.30358e-05 0)
(0.00103439 3.37157e-05 0)
(0.00103611 3.43158e-05 0)
(0.00103777 3.48394e-05 0)
(0.00103937 3.5291e-05 0)
(0.00104091 3.56718e-05 0)
(0.0010424 3.5986e-05 0)
(0.00104383 3.62327e-05 0)
(0.00104522 3.64162e-05 0)
(0.00104653 3.65332e-05 0)
(0.00104782 3.65894e-05 0)
(0.00104903 3.65782e-05 0)
(0.00105023 3.65081e-05 0)
(0.00105132 3.63681e-05 0)
(0.00105244 3.61714e-05 0)
(0.00105343 3.59005e-05 0)
(0.00105448 3.55762e-05 0)
(0.00105536 3.51708e-05 0)
(0.00105637 3.47178e-05 0)
(0.00105713 3.41736e-05 0)
(0.00105811 3.35913e-05 0)
(0.00105874 3.2903e-05 0)
(0.00105974 3.2192e-05 0)
(0.0010602 3.13531e-05 0)
(0.00106129 3.05162e-05 0)
(0.00106154 2.95188e-05 0)
(0.0010628 2.85613e-05 0)
(0.00106276 2.73954e-05 0)
(0.00106432 2.63266e-05 0)
(0.00106386 2.49793e-05 0)
(0.00106591 2.38138e-05 0)
(0.00106484 2.2269e-05 0)
(0.00106766 2.10277e-05 0)
(0.00106564 1.92672e-05 0)
(0.00106969 1.79798e-05 0)
(0.0010662 1.59871e-05 0)
(0.00107212 1.46931e-05 0)
(0.00106637 1.24674e-05 0)
(0.00107515 1.12177e-05 0)
(0.00106591 8.8105e-06 0)
(0.00107905 7.66837e-06 0)
(0.00106444 5.27892e-06 0)
(0.00108425 4.27732e-06 0)
(0.00106149 2.40873e-06 0)
(0.00100001 1.74244e-06 0)
(0.00100047 5.162e-06 0)
(0.00100128 8.4249e-06 0)
(0.00100239 1.14548e-05 0)
(0.00100374 1.4211e-05 0)
(0.00100526 1.66903e-05 0)
(0.00100688 1.89145e-05 0)
(0.00100858 2.09134e-05 0)
(0.00101032 2.2714e-05 0)
(0.00101211 2.43371e-05 0)
(0.00101393 2.57983e-05 0)
(0.00101577 2.71103e-05 0)
(0.00101763 2.82857e-05 0)
(0.0010195 2.93362e-05 0)
(0.00102137 3.02735e-05 0)
(0.00102325 3.11079e-05 0)
(0.00102512 3.18484e-05 0)
(0.00102699 3.25018e-05 0)
(0.00102886 3.30747e-05 0)
(0.00103073 3.35711e-05 0)
(0.00103259 3.39959e-05 0)
(0.00103445 3.43513e-05 0)
(0.0010363 3.46412e-05 0)
(0.00103815 3.4866e-05 0)
(0.00103999 3.50293e-05 0)
(0.00104182 3.51296e-05 0)
(0.00104366 3.51706e-05 0)
(0.00104548 3.51491e-05 0)
(0.00104731 3.50693e-05 0)
(0.00104911 3.4926e-05 0)
(0.00105093 3.47246e-05 0)
(0.00105271 3.44577e-05 0)
(0.00105453 3.41325e-05 0)
(0.00105628 3.37388e-05 0)
(0.00105809 3.32863e-05 0)
(0.00105982 3.27618e-05 0)
(0.00106162 3.21781e-05 0)
(0.00106331 3.15183e-05 0)
(0.00106513 3.07987e-05 0)
(0.00106677 2.99992e-05 0)
(0.0010686 2.91387e-05 0)
(0.00107019 2.8196e-05 0)
(0.00107205 2.71892e-05 0)
(0.00107356 2.61008e-05 0)
(0.00107549 2.49415e-05 0)
(0.0010769 2.37084e-05 0)
(0.00107892 2.2389e-05 0)
(0.00108021 2.10172e-05 0)
(0.00108238 1.95278e-05 0)
(0.00108349 1.80332e-05 0)
(0.00108588 1.63605e-05 0)
(0.00108675 1.47775e-05 0)
(0.00108947 1.29041e-05 0)
(0.00109 1.13004e-05 0)
(0.00109319 9.20415e-06 0)
(0.00109323 7.70422e-06 0)
(0.00109708 5.35065e-06 0)
(0.00109642 4.1601e-06 0)
(0.00110121 1.46525e-06 0)
(0.0010995 8.70929e-07 0)
(0.001 1.15417e-06 0)
(0.00100023 3.43532e-06 0)
(0.00100067 5.65119e-06 0)
(0.00100134 7.77006e-06 0)
(0.0010022 9.77057e-06 0)
(0.00100323 1.16424e-05 0)
(0.0010044 1.33842e-05 0)
(0.00100568 1.5e-05 0)
(0.00100704 1.6496e-05 0)
(0.00100847 1.78781e-05 0)
(0.00100995 1.91518e-05 0)
(0.00101148 2.03219e-05 0)
(0.00101304 2.13932e-05 0)
(0.00101463 2.23706e-05 0)
(0.00101625 2.3259e-05 0)
(0.00101788 2.40632e-05 0)
(0.00101953 2.47877e-05 0)
(0.0010212 2.54364e-05 0)
(0.00102287 2.60126e-05 0)
(0.00102456 2.65191e-05 0)
(0.00102625 2.69583e-05 0)
(0.00102794 2.73323e-05 0)
(0.00102965 2.76424e-05 0)
(0.00103136 2.78901e-05 0)
(0.00103307 2.80761e-05 0)
(0.00103479 2.82015e-05 0)
(0.00103651 2.82659e-05 0)
(0.00103823 2.82705e-05 0)
(0.00103996 2.82138e-05 0)
(0.00104169 2.80973e-05 0)
(0.00104342 2.79181e-05 0)
(0.00104515 2.76788e-05 0)
(0.00104689 2.73741e-05 0)
(0.00104862 2.70095e-05 0)
(0.00105036 2.65751e-05 0)
(0.00105209 2.60816e-05 0)
(0.00105382 2.55124e-05 0)
(0.00105555 2.48864e-05 0)
(0.00105728 2.41757e-05 0)
(0.00105901 2.34141e-05 0)
(0.00106073 2.25542e-05 0)
(0.00106245 2.16545e-05 0)
(0.00106417 2.06361e-05 0)
(0.00106589 1.95982e-05 0)
(0.0010676 1.84097e-05 0)
(0.00106932 1.72373e-05 0)
(0.00107102 1.58642e-05 0)
(0.00107275 1.4567e-05 0)
(0.00107443 1.29902e-05 0)
(0.0010762 1.1588e-05 0)
(0.00107786 9.78022e-06 0)
(0.00107969 8.30645e-06 0)
(0.00108133 6.22603e-06 0)
(0.00108329 4.73468e-06 0)
(0.00108492 2.31671e-06 0)
(0.0010871 8.97391e-07 0)
(0.00108871 -1.94967e-06 0)
(0.0010912 -3.14595e-06 0)
(0.00109268 -6.56125e-06 0)
(0.00109548 -7.31758e-06 0)
(0.001 9.28214e-07 0)
(0.00100017 2.77618e-06 0)
(0.00100051 4.59722e-06 0)
(0.001001 6.37243e-06 0)
(0.00100165 8.08435e-06 0)
(0.00100242 9.71909e-06 0)
(0.00100331 1.12674e-05 0)
(0.0010043 1.27243e-05 0)
(0.00100536 1.40884e-05 0)
(0.0010065 1.536e-05 0)
(0.00100769 1.65407e-05 0)
(0.00100894 1.76323e-05 0)
(0.00101023 1.8637e-05 0)
(0.00101156 1.95575e-05 0)
(0.00101293 2.03965e-05 0)
(0.00101432 2.1157e-05 0)
(0.00101574 2.18418e-05 0)
(0.00101718 2.24538e-05 0)
(0.00101863 2.29954e-05 0)
(0.00102011 2.34692e-05 0)
(0.00102159 2.38769e-05 0)
(0.00102309 2.42207e-05 0)
(0.0010246 2.45013e-05 0)
(0.00102612 2.47208e-05 0)
(0.00102765 2.48792e-05 0)
(0.00102919 2.49784e-05 0)
(0.00103073 2.50172e-05 0)
(0.00103228 2.4998e-05 0)
(0.00103383 2.49181e-05 0)
(0.00103538 2.47808e-05 0)
(0.00103694 2.45813e-05 0)
(0.0010385 2.43247e-05 0)
(0.00104005 2.40031e-05 0)
(0.00104161 2.3625e-05 0)
(0.00104317 2.31775e-05 0)
(0.00104473 2.26746e-05 0)
(0.00104628 2.2096e-05 0)
(0.00104784 2.14646e-05 0)
(0.00104938 2.07483e-05 0)
(0.00105094 1.99841e-05 0)
(0.00105247 1.9122e-05 0)
(0.00105403 1.82214e-05 0)
(0.00105554 1.72034e-05 0)
(0.00105711 1.61635e-05 0)
(0.0010586 1.49771e-05 0)
(0.00106018 1.37967e-05 0)
(0.00106165 1.24261e-05 0)
(0.00106326 1.1107e-05 0)
(0.00106471 9.53161e-06 0)
(0.00106637 8.08133e-06 0)
(0.00106778 6.27414e-06 0)
(0.00106954 4.71034e-06 0)
(0.00107089 2.63537e-06 0)
(0.00107277 9.88796e-07 0)
(0.00107403 -1.41151e-06 0)
(0.00107614 -3.10093e-06 0)
(0.00107728 -5.92688e-06 0)
(0.00107973 -7.6021e-06 0)
(0.00108063 -1.10008e-05 0)
(0.00108341 -1.2561e-05 0)
(0.001 7.33929e-07 0)
(0.00100013 2.19557e-06 0)
(0.00100037 3.63801e-06 0)
(0.00100073 5.04856e-06 0)
(0.00100121 6.41579e-06 0)
(0.0010018 7.73034e-06 0)
(0.00100248 8.98531e-06 0)
(0.00100325 1.01762e-05 0)
(0.0010041 1.13003e-05 0)
(0.00100502 1.23567e-05 0)
(0.001006 1.33451e-05 0)
(0.00100704 1.42658e-05 0)
(0.00100812 1.51196e-05 0)
(0.00100925 1.59072e-05 0)
(0.00101041 1.66298e-05 0)
(0.00101161 1.72886e-05 0)
(0.00101284 1.78847e-05 0)
(0.00101409 1.84195e-05 0)
(0.00101537 1.88942e-05 0)
(0.00101667 1.93101e-05 0)
(0.00101799 1.96679e-05 0)
(0.00101932 1.99689e-05 0)
(0.00102066 2.02134e-05 0)
(0.00102202 2.04025e-05 0)
(0.00102338 2.05357e-05 0)
(0.00102475 2.06145e-05 0)
(0.00102613 2.06373e-05 0)
(0.00102752 2.06061e-05 0)
(0.0010289 2.0518e-05 0)
(0.00103029 2.03758e-05 0)
(0.00103168 2.0175e-05 0)
(0.00103308 1.99197e-05 0)
(0.00103446 1.96029e-05 0)
(0.00103585 1.92312e-05 0)
(0.00103723 1.8794e-05 0)
(0.00103861 1.83017e-05 0)
(0.00103998 1.77379e-05 0)
(0.00104136 1.71199e-05 0)
(0.00104271 1.64223e-05 0)
(0.00104407 1.56728e-05 0)
(0.0010454 1.4832e-05 0)
(0.00104675 1.39446e-05 0)
(0.00104806 1.29494e-05 0)
(0.0010494 1.19173e-05 0)
(0.00105068 1.07535e-05 0)
(0.00105201 9.57018e-06 0)
(0.00105325 8.21967e-06 0)
(0.00105459 6.87914e-06 0)
(0.00105579 5.31803e-06 0)
(0.00105715 3.8151e-06 0)
(0.00105832 2.01039e-06 0)
(0.00105974 3.42581e-07 0)
(0.00106086 -1.748e-06 0)
(0.0010624 -3.57001e-06 0)
(0.00106346 -5.99692e-06 0)
(0.00106515 -7.94735e-06 0)
(0.0010661 -1.07907e-05 0)
(0.00106801 -1.28357e-05 0)
(0.00106873 -1.62267e-05 0)
(0.00107082 -1.83092e-05 0)
(0.001 5.85061e-07 0)
(0.0010001 1.75153e-06 0)
(0.00100029 2.90645e-06 0)
(0.00100057 4.04189e-06 0)
(0.00100095 5.15034e-06 0)
(0.00100142 6.2251e-06 0)
(0.00100196 7.2605e-06 0)
(0.00100259 8.25209e-06 0)
(0.00100329 9.1965e-06 0)
(0.00100405 1.00914e-05 0)
(0.00100487 1.09352e-05 0)
(0.00100574 1.1727e-05 0)
(0.00100666 1.24661e-05 0)
(0.00100762 1.31523e-05 0)
(0.00100863 1.37854e-05 0)
(0.00100967 1.43655e-05 0)
(0.00101074 1.48927e-05 0)
(0.00101183 1.53673e-05 0)
(0.00101296 1.57897e-05 0)
(0.0010141 1.61603e-05 0)
(0.00101526 1.64793e-05 0)
(0.00101644 1.67472e-05 0)
(0.00101764 1.69639e-05 0)
(0.00101884 1.713e-05 0)
(0.00102006 1.7245e-05 0)
(0.00102128 1.73095e-05 0)
(0.00102251 1.73225e-05 0)
(0.00102374 1.72847e-05 0)
(0.00102497 1.71943e-05 0)
(0.00102621 1.70525e-05 0)
(0.00102744 1.68565e-05 0)
(0.00102868 1.6608e-05 0)
(0.00102991 1.63028e-05 0)
(0.00103113 1.5944e-05 0)
(0.00103235 1.55248e-05 0)
(0.00103356 1.50507e-05 0)
(0.00103475 1.45115e-05 0)
(0.00103594 1.39161e-05 0)
(0.00103711 1.32492e-05 0)
(0.00103828 1.25253e-05 0)
(0.00103942 1.17212e-05 0)
(0.00104057 1.08604e-05 0)
(0.00104167 9.90761e-06 0)
(0.00104279 8.90018e-06 0)
(0.00104385 7.78439e-06 0)
(0.00104495 6.61952e-06 0)
(0.00104597 5.32327e-06 0)
(0.00104704 3.98932e-06 0)
(0.00104801 2.49106e-06 0)
(0.00104908 9.75931e-07 0)
(0.00104998 -7.51792e-07 0)
(0.00105105 -2.46116e-06 0)
(0.00105189 -4.45781e-06 0)
(0.001053 -6.37975e-06 0)
(0.00105377 -8.70129e-06 0)
(0.00105496 -1.08508e-05 0)
(0.00105562 -1.35656e-05 0)
(0.00105692 -1.59474e-05 0)
(0.00105734 -1.91485e-05 0)
(0.00105867 -2.17532e-05 0)
(0.001 4.67633e-07 0)
(0.00100008 1.40069e-06 0)
(0.00100024 2.32621e-06 0)
(0.00100047 3.2388e-06 0)
(0.00100078 4.13319e-06 0)
(0.00100116 5.00446e-06 0)
(0.00100162 5.84822e-06 0)
(0.00100214 6.66073e-06 0)
(0.00100272 7.43887e-06 0)
(0.00100336 8.1801e-06 0)
(0.00100406 8.88236e-06 0)
(0.0010048 9.54403e-06 0)
(0.00100559 1.01638e-05 0)
(0.00100643 1.07409e-05 0)
(0.0010073 1.12746e-05 0)
(0.0010082 1.17644e-05 0)
(0.00100914 1.22101e-05 0)
(0.0010101 1.26115e-05 0)
(0.00101109 1.29684e-05 0)
(0.0010121 1.32809e-05 0)
(0.00101313 1.35489e-05 0)
(0.00101418 1.37724e-05 0)
(0.00101524 1.39511e-05 0)
(0.00101631 1.40851e-05 0)
(0.00101739 1.41739e-05 0)
(0.00101848 1.42177e-05 0)
(0.00101958 1.42156e-05 0)
(0.00102067 1.41676e-05 0)
(0.00102177 1.40725e-05 0)
(0.00102287 1.39305e-05 0)
(0.00102396 1.37398e-05 0)
(0.00102505 1.35006e-05 0)
(0.00102613 1.32102e-05 0)
(0.00102721 1.28695e-05 0)
(0.00102827 1.24746e-05 0)
(0.00102932 1.20269e-05 0)
(0.00103035 1.15211e-05 0)
(0.00103138 1.09596e-05 0)
(0.00103237 1.0335e-05 0)
(0.00103336 9.65156e-06 0)
(0.00103432 8.89835e-06 0)
(0.00103526 8.08292e-06 0)
(0.00103617 7.18921e-06 0)
(0.00103707 6.22975e-06 0)
(0.00103792 5.18081e-06 0)
(0.00103877 4.06272e-06 0)
(0.00103955 2.8401e-06 0)
(0.00104035 1.54563e-06 0)
(0.00104106 1.26396e-07 0)
(0.00104181 -1.36453e-06 0)
(0.00104244 -3.00632e-06 0)
(0.00104316 -4.71471e-06 0)
(0.0010437 -6.61218e-06 0)
(0.00104439 -8.56684e-06 0)
(0.00104481 -1.07676e-05 0)
(0.00104549 -1.30041e-05 0)
(0.00104578 -1.55674e-05 0)
(0.00104646 -1.81208e-05 0)
(0.0010465 -2.11166e-05 0)
(0.0010471 -2.40128e-05 0)
(0.001 3.70409e-07 0)
(0.00100007 1.10981e-06 0)
(0.0010002 1.84403e-06 0)
(0.0010004 2.56924e-06 0)
(0.00100066 3.28164e-06 0)
(0.00100098 3.97762e-06 0)
(0.00100137 4.65384e-06 0)
(0.00100181 5.3073e-06 0)
(0.00100231 5.93537e-06 0)
(0.00100286 6.53577e-06 0)
(0.00100346 7.10655e-06 0)
(0.00100411 7.64608e-06 0)
(0.0010048 8.153e-06 0)
(0.00100553 8.62624e-06 0)
(0.00100629 9.06491e-06 0)
(0.00100709 9.46832e-06 0)
(0.00100792 9.83591e-06 0)
(0.00100877 1.01672e-05 0)
(0.00100965 1.04618e-05 0)
(0.00101055 1.07195e-05 0)
(0.00101146 1.09398e-05 0)
(0.0010124 1.11225e-05 0)
(0.00101335 1.12673e-05 0)
(0.0010143 1.13739e-05 0)
(0.00101527 1.14418e-05 0)
(0.00101624 1.14707e-05 0)
(0.00101722 1.14599e-05 0)
(0.0010182 1.1409e-05 0)
(0.00101917 1.13172e-05 0)
(0.00102015 1.11838e-05 0)
(0.00102112 1.10079e-05 0)
(0.00102208 1.07886e-05 0)
(0.00102303 1.05246e-05 0)
(0.00102397 1.02146e-05 0)
(0.00102489 9.85747e-06 0)
(0.0010258 9.45131e-06 0)
(0.00102668 8.99466e-06 0)
(0.00102755 8.48518e-06 0)
(0.00102839 7.92128e-06 0)
(0.00102921 7.29974e-06 0)
(0.00103 6.61908e-06 0)
(0.00103076 5.87476e-06 0)
(0.00103148 5.06576e-06 0)
(0.00103218 4.18553e-06 0)
(0.00103282 3.23417e-06 0)
(0.00103344 2.20198e-06 0)
(0.00103399 1.09141e-06 0)
(0.00103453 -1.12229e-07 0)
(0.00103499 -1.402e-06 0)
(0.00103544 -2.80096e-06 0)
(0.00103578 -4.29539e-06 0)
(0.00103615 -5.92232e-06 0)
(0.00103636 -7.65384e-06 0)
(0.00103663 -9.54773e-06 0)
(0.00103669 -1.15531e-05 0)
(0.00103687 -1.37617e-05 0)
(0.00103675 -1.60843e-05 0)
(0.00103683 -1.86656e-05 0)
(0.00103643 -2.13528e-05 0)
(0.00103631 -2.437e-05 0)
(0.001 2.87415e-07 0)
(0.00100006 8.61381e-07 0)
(0.00100017 1.43177e-06 0)
(0.00100034 1.99582e-06 0)
(0.00100057 2.55079e-06 0)
(0.00100085 3.09401e-06 0)
(0.00100119 3.62298e-06 0)
(0.00100158 4.13539e-06 0)
(0.00100201 4.62915e-06 0)
(0.0010025 5.10239e-06 0)
(0.00100303 5.55347e-06 0)
(0.0010036 5.98096e-06 0)
(0.00100421 6.3836e-06 0)
(0.00100485 6.76034e-06 0)
(0.00100553 7.11026e-06 0)
(0.00100624 7.43258e-06 0)
(0.00100698 7.72663e-06 0)
(0.00100775 7.99182e-06 0)
(0.00100854 8.22765e-06 0)
(0.00100934 8.43362e-06 0)
(0.00101017 8.60933e-06 0)
(0.00101101 8.7543e-06 0)
(0.00101186 8.86818e-06 0)
(0.00101272 8.95043e-06 0)
(0.00101359 9.00071e-06 0)
(0.00101447 9.01833e-06 0)
(0.00101535 9.00296e-06 0)
(0.00101622 8.9537e-06 0)
(0.0010171 8.87021e-06 0)
(0.00101796 8.75125e-06 0)
(0.00101882 8.59653e-06 0)
(0.00101967 8.40435e-06 0)
(0.00102051 8.17456e-06 0)
(0.00102133 7.90473e-06 0)
(0.00102213 7.59509e-06 0)
(0.00102291 7.24211e-06 0)
(0.00102367 6.84671e-06 0)
(0.0010244 6.40374e-06 0)
(0.0010251 5.91535e-06 0)
(0.00102577 5.3739e-06 0)
(0.0010264 4.78375e-06 0)
(0.001027 4.13331e-06 0)
(0.00102755 3.43077e-06 0)
(0.00102806 2.65832e-06 0)
(0.00102851 1.83057e-06 0)
(0.00102892 9.1989e-07 0)
(0.00102926 -4.8436e-08 0)
(0.00102956 -1.11761e-06 0)
(0.00102977 -2.24441e-06 0)
(0.00102995 -3.49776e-06 0)
(0.00103001 -4.80578e-06 0)
(0.00103005 -6.27759e-06 0)
(0.00102994 -7.79336e-06 0)
(0.00102982 -9.52657e-06 0)
(0.00102952 -1.12795e-05 0)
(0.00102922 -1.33292e-05 0)
(0.00102868 -1.53513e-05 0)
(0.00102819 -1.77886e-05 0)
(0.00102733 -2.01095e-05 0)
(0.00102656 -2.30196e-05 0)
(0.001 2.1461e-07 0)
(0.00100005 6.43376e-07 0)
(0.00100015 1.06976e-06 0)
(0.00100031 1.49181e-06 0)
(0.00100051 1.90755e-06 0)
(0.00100076 2.31508e-06 0)
(0.00100106 2.71256e-06 0)
(0.00100141 3.09829e-06 0)
(0.0010018 3.4707e-06 0)
(0.00100223 3.82836e-06 0)
(0.00100271 4.16995e-06 0)
(0.00100322 4.49433e-06 0)
(0.00100377 4.80044e-06 0)
(0.00100436 5.08737e-06 0)
(0.00100497 5.3543e-06 0)
(0.00100562 5.60049e-06 0)
(0.00100629 5.82533e-06 0)
(0.00100698 6.0282e-06 0)
(0.0010077 6.20863e-06 0)
(0.00100844 6.36607e-06 0)
(0.00100919 6.50014e-06 0)
(0.00100995 6.61031e-06 0)
(0.00101073 6.69625e-06 0)
(0.00101152 6.75737e-06 0)
(0.00101231 6.79339e-06 0)
(0.0010131 6.80359e-06 0)
(0.0010139 6.78774e-06 0)
(0.00101469 6.74486e-06 0)
(0.00101548 6.67484e-06 0)
(0.00101626 6.57632e-06 0)
(0.00101703 6.44935e-06 0)
(0.00101779 6.29203e-06 0)
(0.00101853 6.10474e-06 0)
(0.00101926 5.8847e-06 0)
(0.00101996 5.63294e-06 0)
(0.00102063 5.34535e-06 0)
(0.00102128 5.02404e-06 0)
(0.0010219 4.66286e-06 0)
(0.00102248 4.26583e-06 0)
(0.00102302 3.82358e-06 0)
(0.00102352 3.34332e-06 0)
(0.00102397 2.81067e-06 0)
(0.00102438 2.23818e-06 0)
(0.00102473 1.60352e-06 0)
(0.00102501 9.28048e-07 0)
(0.00102524 1.76796e-07 0)
(0.0010254 -6.14357e-07 0)
(0.00102549 -1.5007e-06 0)
(0.00102548 -2.42314e-06 0)
(0.00102541 -3.46965e-06 0)
(0.00102523 -4.5423e-06 0)
(0.00102497 -5.78101e-06 0)
(0.00102458 -7.02454e-06 0)
(0.00102411 -8.49674e-06 0)
(0.00102347 -9.93347e-06 0)
(0.00102276 -1.16942e-05 0)
(0.00102183 -1.33466e-05 0)
(0.00102083 -1.54692e-05 0)
(0.00101953 -1.73534e-05 0)
(0.00101816 -1.99298e-05 0)
(0.001 1.48992e-07 0)
(0.00100005 4.46852e-07 0)
(0.00100014 7.43294e-07 0)
(0.00100028 1.03699e-06 0)
(0.00100047 1.32662e-06 0)
(0.0010007 1.61088e-06 0)
(0.00100097 1.88853e-06 0)
(0.00100129 2.15838e-06 0)
(0.00100165 2.41933e-06 0)
(0.00100205 2.67037e-06 0)
(0.00100248 2.91055e-06 0)
(0.00100296 3.13902e-06 0)
(0.00100346 3.35501e-06 0)
(0.001004 3.5578e-06 0)
(0.00100457 3.74677e-06 0)
(0.00100517 3.92131e-06 0)
(0.00100579 4.08094e-06 0)
(0.00100644 4.22516e-06 0)
(0.0010071 4.35355e-06 0)
(0.00100778 4.46567e-06 0)
(0.00100848 4.5612e-06 0)
(0.00100919 4.63966e-06 0)
(0.00100991 4.70081e-06 0)
(0.00101064 4.74412e-06 0)
(0.00101137 4.76939e-06 0)
(0.00101211 4.77599e-06 0)
(0.00101284 4.76378e-06 0)
(0.00101357 4.7319e-06 0)
(0.00101429 4.68036e-06 0)
(0.00101501 4.60796e-06 0)
(0.00101571 4.5149e-06 0)
(0.0010164 4.39948e-06 0)
(0.00101707 4.26226e-06 0)
(0.00101772 4.10075e-06 0)
(0.00101834 3.91617e-06 0)
(0.00101893 3.70479e-06 0)
(0.0010195 3.46894e-06 0)
(0.00102002 3.20299e-06 0)
(0.00102051 2.91112e-06 0)
(0.00102095 2.58473e-06 0)
(0.00102135 2.23111e-06 0)
(0.00102169 1.83695e-06 0)
(0.00102198 1.41466e-06 0)
(0.0010222 9.43501e-07 0)
(0.00102236 4.44347e-07 0)
(0.00102244 -1.15426e-07 0)
(0.00102244 -7.01057e-07 0)
(0.00102237 -1.36438e-06 0)
(0.00102219 -2.04852e-06 0)
(0.00102192 -2.83581e-06 0)
(0.00102153 -3.6324e-06 0)
(0.00102104 -4.56974e-06 0)
(0.00102041 -5.49373e-06 0)
(0.00101966 -6.61549e-06 0)
(0.00101873 -7.68263e-06 0)
(0.00101768 -9.0355e-06 0)
(0.00101642 -1.02604e-05 0)
(0.00101501 -1.19077e-05 0)
(0.00101333 -1.32976e-05 0)
(0.00101148 -1.53211e-05 0)
(0.001 8.81701e-08 0)
(0.00100005 2.64665e-07 0)
(0.00100013 4.40561e-07 0)
(0.00100026 6.15083e-07 0)
(0.00100044 7.87454e-07 0)
(0.00100065 9.5691e-07 0)
(0.00100091 1.12271e-06 0)
(0.00100121 1.28416e-06 0)
(0.00100155 1.4406e-06 0)
(0.00100193 1.59141e-06 0)
(0.00100234 1.73601e-06 0)
(0.00100279 1.87388e-06 0)
(0.00100327 2.00454e-06 0)
(0.00100378 2.12752e-06 0)
(0.00100432 2.24244e-06 0)
(0.00100488 2.34891e-06 0)
(0.00100547 2.44659e-06 0)
(0.00100608 2.53516e-06 0)
(0.00100671 2.61435e-06 0)
(0.00100736 2.68386e-06 0)
(0.00100802 2.74346e-06 0)
(0.00100869 2.79285e-06 0)
(0.00100938 2.83185e-06 0)
(0.00101007 2.86011e-06 0)
(0.00101076 2.87751e-06 0)
(0.00101145 2.88361e-06 0)
(0.00101215 2.87834e-06 0)
(0.00101284 2.86113e-06 0)
(0.00101352 2.83199e-06 0)
(0.00101419 2.79013e-06 0)
(0.00101484 2.73572e-06 0)
(0.00101548 2.66761e-06 0)
(0.0010161 2.58626e-06 0)
(0.0010167 2.48996e-06 0)
(0.00101727 2.37963e-06 0)
(0.00101781 2.25274e-06 0)
(0.00101831 2.11098e-06 0)
(0.00101878 1.95052e-06 0)
(0.0010192 1.77438e-06 0)
(0.00101958 1.57665e-06 0)
(0.0010199 1.36257e-06 0)
(0.00102017 1.12296e-06 0)
(0.00102037 8.66669e-07 0)
(0.00102051 5.79319e-07 0)
(0.00102057 2.75681e-07 0)
(0.00102056 -6.69902e-08 0)
(0.00102045 -4.24256e-07 0)
(0.00102026 -8.32214e-07 0)
(0.00101996 -1.25046e-06 0)
(0.00101955 -1.73656e-06 0)
(0.00101902 -2.22407e-06 0)
(0.00101836 -2.80524e-06 0)
(0.00101756 -3.37113e-06 0)
(0.00101661 -4.07024e-06 0)
(0.00101548 -4.72388e-06 0)
(0.00101419 -5.5721e-06 0)
(0.00101268 -6.3216e-06 0)
(0.00101098 -7.36174e-06 0)
(0.00100903 -8.20948e-06 0)
(0.00100684 -9.49787e-06 0)
(0.001 3.00961e-08 0)
(0.00100004 9.06922e-08 0)
(0.00100013 1.51431e-07 0)
(0.00100026 2.12043e-07 0)
(0.00100042 2.72254e-07 0)
(0.00100064 3.31794e-07 0)
(0.00100089 3.90404e-07 0)
(0.00100118 4.47833e-07 0)
(0.00100151 5.03846e-07 0)
(0.00100187 5.58219e-07 0)
(0.00100227 6.10744e-07 0)
(0.00100271 6.61225e-07 0)
(0.00100317 7.09483e-07 0)
(0.00100367 7.55346e-07 0)
(0.00100419 7.98665e-07 0)
(0.00100474 8.3929e-07 0)
(0.00100532 8.77097e-07 0)
(0.00100591 9.11954e-07 0)
(0.00100652 9.43758e-07 0)
(0.00100715 9.72388e-07 0)
(0.0010078 9.9776e-07 0)
(0.00100845 1.01975e-06 0)
(0.00100912 1.0383e-06 0)
(0.00100979 1.05327e-06 0)
(0.00101046 1.06461e-06 0)
(0.00101114 1.07217e-06 0)
(0.00101181 1.07591e-06 0)
(0.00101248 1.07564e-06 0)
(0.00101314 1.07136e-06 0)
(0.00101378 1.06278e-06 0)
(0.00101442 1.04999e-06 0)
(0.00101503 1.03257e-06 0)
(0.00101563 1.0107e-06 0)
(0.0010162 9.83775e-07 0)
(0.00101674 9.52145e-07 0)
(0.00101725 9.14916e-07 0)
(0.00101773 8.72717e-07 0)
(0.00101816 8.24191e-07 0)
(0.00101855 7.70445e-07 0)
(0.0010189 7.09395e-07 0)
(0.00101918 6.42937e-07 0)
(0.00101941 5.67847e-07 0)
(0.00101958 4.87333e-07 0)
(0.00101967 3.96346e-07 0)
(0.00101969 3.00237e-07 0)
(0.00101962 1.90833e-07 0)
(0.00101946 7.68824e-08 0)
(0.00101921 -5.45668e-08 0)
(0.00101885 -1.88879e-07 0)
(0.00101837 -3.4664e-07 0)
(0.00101776 -5.03852e-07 0)
(0.00101702 -6.93648e-07 0)
(0.00101613 -8.76744e-07 0)
(0.00101507 -1.1065e-06 0)
(0.00101384 -1.31848e-06 0)
(0.00101242 -1.59903e-06 0)
(0.0010108 -1.84236e-06 0)
(0.00100894 -2.18868e-06 -3.91587e-38)
(0.00100684 -2.46372e-06 0)
(0.00100448 -2.89577e-06 0)
(0.001 -2.70848e-08 0)
(0.00100004 -8.06133e-08 0)
(0.00100013 -1.33282e-07 0)
(0.00100026 -1.84874e-07 0)
(0.00100042 -2.35173e-07 0)
(0.00100064 -2.83965e-07 0)
(0.00100089 -3.31047e-07 0)
(0.00100118 -3.76224e-07 0)
(0.00100151 -4.19315e-07 0)
(0.00100187 -4.60151e-07 0)
(0.00100227 -4.98578e-07 0)
(0.00100271 -5.34454e-07 0)
(0.00100318 -5.67651e-07 0)
(0.00100367 -5.9805e-07 0)
(0.0010042 -6.2555e-07 0)
(0.00100475 -6.5005e-07 0)
(0.00100532 -6.71469e-07 0)
(0.00100591 -6.89721e-07 0)
(0.00100653 -7.04741e-07 0)
(0.00100716 -7.16445e-07 0)
(0.0010078 -7.24785e-07 0)
(0.00100846 -7.29668e-07 0)
(0.00100912 -7.31056e-07 0)
(0.00100979 -7.2884e-07 0)
(0.00101047 -7.22993e-07 0)
(0.00101114 -7.13371e-07 0)
(0.00101182 -6.99965e-07 0)
(0.00101248 -6.82574e-07 0)
(0.00101314 -6.61217e-07 0)
(0.00101379 -6.3561e-07 0)
(0.00101443 -6.05824e-07 0)
(0.00101505 -5.71445e-07 0)
(0.00101564 -5.32635e-07 0)
(0.00101621 -4.88786e-07 0)
(0.00101676 -4.4022e-07 0)
(0.00101727 -3.86029e-07 0)
(0.00101775 -3.2681e-07 0)
(0.00101818 -2.61188e-07 0)
(0.00101857 -1.90227e-07 0)
(0.00101892 -1.11827e-07 0)
(0.00101921 -2.78201e-08 0)
(0.00101944 6.50362e-08 0)
(0.0010196 1.63649e-07 0)
(0.0010197 2.73113e-07 0)
(0.00101972 3.88291e-07 0)
(0.00101965 5.17393e-07 0)
(0.0010195 6.51679e-07 0)
(0.00101924 8.039e-07 0)
(0.00101888 9.59657e-07 0)
(0.0010184 1.13942e-06 0)
(0.0010178 1.31961e-06 0)
(0.00101706 1.53311e-06 0)
(0.00101617 1.74117e-06 0)
(0.00101512 1.99672e-06 0)
(0.00101389 2.23603e-06 0)
(0.00101247 2.54481e-06 0)
(0.00101085 2.81823e-06 0)
(0.00100899 3.19568e-06 3.91587e-38)
(0.0010069 3.50395e-06 0)
(0.00100453 3.9704e-06 0)
(0.001 -8.51781e-08 0)
(0.00100005 -2.54654e-07 0)
(0.00100013 -4.22537e-07 0)
(0.00100026 -5.88107e-07 0)
(0.00100044 -7.50645e-07 0)
(0.00100066 -9.09442e-07 0)
(0.00100091 -1.06382e-06 0)
(0.00100121 -1.21313e-06 0)
(0.00100155 -1.35676e-06 0)
(0.00100193 -1.49416e-06 0)
(0.00100234 -1.62481e-06 0)
(0.00100279 -1.74822e-06 0)
(0.00100327 -1.86396e-06 0)
(0.00100378 -1.97164e-06 0)
(0.00100432 -2.07091e-06 0)
(0.00100489 -2.16141e-06 0)
(0.00100548 -2.24289e-06 0)
(0.00100609 -2.31503e-06 0)
(0.00100672 -2.37762e-06 0)
(0.00100737 -2.43038e-06 0)
(0.00100803 -2.47314e-06 0)
(0.00100871 -2.5056e-06 0)
(0.00100939 -2.52763e-06 0)
(0.00101008 -2.5389e-06 0)
(0.00101078 -2.5393e-06 0)
(0.00101148 -2.52841e-06 0)
(0.00101217 -2.50618e-06 0)
(0.00101286 -2.47203e-06 0)
(0.00101355 -2.42601e-06 0)
(0.00101422 -2.3673e-06 0)
(0.00101488 -2.29608e-06 0)
(0.00101552 -2.21119e-06 0)
(0.00101614 -2.11308e-06 0)
(0.00101674 -2.00002e-06 0)
(0.00101731 -1.87293e-06 0)
(0.00101786 -1.72924e-06 0)
(0.00101836 -1.57063e-06 0)
(0.00101883 -1.39321e-06 0)
(0.00101926 -1.19999e-06 0)
(0.00101964 -9.8502e-07 0)
(0.00101997 -7.53492e-07 0)
(0.00102024 -4.96192e-07 0)
(0.00102044 -2.21967e-07 0)
(0.00102059 8.35789e-08 0)
(0.00102066 4.05662e-07 0)
(0.00102064 7.67191e-07 0)
(0.00102055 1.14403e-06 0)
(0.00102036 1.57215e-06 0)
(0.00102006 2.01142e-06 0)
(0.00101966 2.51908e-06 0)
(0.00101913 3.0292e-06 0)
(0.00101848 3.63359e-06 0)
(0.00101768 4.22404e-06 0)
(0.00101673 4.94831e-06 0)
(0.00101562 5.6289e-06 0)
(0.00101433 6.50461e-06 0)
(0.00101283 7.28387e-06 0)
(0.00101114 8.35416e-06 0)
(0.00100919 9.23494e-06 0)
(0.00100701 1.05565e-05 0)
(0.001 -1.46052e-07 0)
(0.00100005 -4.3702e-07 0)
(0.00100014 -7.25599e-07 0)
(0.00100028 -1.01052e-06 0)
(0.00100047 -1.29051e-06 0)
(0.0010007 -1.56432e-06 0)
(0.00100097 -1.83077e-06 0)
(0.00100129 -2.08872e-06 0)
(0.00100165 -2.33713e-06 0)
(0.00100205 -2.57504e-06 0)
(0.00100249 -2.80155e-06 0)
(0.00100296 -3.01586e-06 0)
(0.00100347 -3.21725e-06 0)
(0.00100401 -3.40505e-06 0)
(0.00100458 -3.57869e-06 0)
(0.00100518 -3.73761e-06 0)
(0.0010058 -3.88137e-06 0)
(0.00100645 -4.0095e-06 0)
(0.00100712 -4.12165e-06 0)
(0.0010078 -4.21738e-06 0)
(0.0010085 -4.29642e-06 0)
(0.00100921 -4.35832e-06 0)
(0.00100994 -4.40286e-06 0)
(0.00101067 -4.42955e-06 0)
(0.0010114 -4.4382e-06 0)
(0.00101214 -4.42818e-06 0)
(0.00101288 -4.39938e-06 0)
(0.00101361 -4.35096e-06 0)
(0.00101434 -4.28291e-06 0)
(0.00101506 -4.19405e-06 0)
(0.00101577 -4.08457e-06 0)
(0.00101646 -3.95277e-06 0)
(0.00101713 -3.79919e-06 0)
(0.00101779 -3.62134e-06 0)
(0.00101841 -3.4204e-06 0)
(0.00101901 -3.19266e-06 0)
(0.00101958 -2.94037e-06 0)
(0.00102011 -2.65793e-06 0)
(0.00102061 -2.34943e-06 0)
(0.00102106 -2.00632e-06 0)
(0.00102146 -1.63575e-06 0)
(0.00102181 -1.22449e-06 0)
(0.0010221 -7.84778e-07 0)
(0.00102233 -2.9602e-07 0)
(0.00102249 2.21208e-07 0)
(0.00102259 7.99102e-07 0)
(0.0010226 1.40366e-06 0)
(0.00102253 2.08654e-06 0)
(0.00102236 2.79126e-06 0)
(0.0010221 3.59958e-06 0)
(0.00102172 4.41832e-06 0)
(0.00102123 5.37806e-06 0)
(0.00102061 6.32603e-06 0)
(0.00101987 7.47188e-06 0)
(0.00101896 8.56534e-06 0)