/*--------------------------------*- C++ -*----------------------------------*\
| =========                 |                                                 |
| \\      /  F ield         | OpenFOAM: The Open Source CFD Toolbox           |
|  \\    /   O peration     | Version:  2312                                  |
|   \\  /    A nd           | Website:  www.openfoam.com                      |
|    \\/     M anipulation  |                                                 |
\*---------------------------------------------------------------------------*/
FoamFile
{
    version     2.0;
    format      ascii;
    arch        "LSB;label=32;scalar=64";
    class       volVectorField;
    location    "184000";
    object      U;
}
// * * * * * * * * * * * * * * * * * * * * * * * * * * * * * * * * * * * * * //

dimensions      [0 1 -1 0 0 0 0];

internalField   nonuniform List<vector> 
2715
(
(0.000265198 2.97573e-05 1.43084e-24)
(0.000273783 -2.74149e-06 0)
(0.000237401 -1.72791e-06 0)
(0.000220616 -2.50506e-06 0)
(0.000211969 -2.57634e-06 -3.88695e-23)
(0.000214756 -3.064e-06 3.8e-23)
(0.00021612 -3.26249e-06 0)
(0.000227075 -4.00103e-06 1.12932e-24)
(0.000232915 -3.75047e-06 0)
(0.000248463 -4.13558e-06 0)
(0.000255651 -3.45877e-06 -4.8317e-25)
(0.000272246 -3.46517e-06 0)
(0.000277736 -2.31099e-06 -2.0443e-25)
(0.000291913 -1.94598e-06 0)
(0.000292781 -4.04557e-07 -1.03546e-23)
(0.000301673 1.94237e-07 1.03543e-23)
(0.000295949 1.62967e-06 0)
(0.000297933 1.83265e-06 9.93695e-26)
(0.000284907 3.38391e-06 0)
(0.00028012 3.17776e-06 0)
(0.000260537 4.38557e-06 0)
(0.000250177 3.63382e-06 0)
(0.000225828 4.60245e-06 -8.80552e-26)
(0.00021176 3.19146e-06 0)
(0.000185164 4.25356e-06 -2.03237e-25)
(0.000169501 2.62272e-06 2.14493e-25)
(0.000144339 2.29631e-06 0)
(0.000123911 3.31617e-06 0)
(0.000133164 1.17596e-05 0)
(-2.61591e-05 -9.77975e-06 2.69509e-25)
(0.000528187 4.89495e-05 8.64435e-23)
(0.000577324 1.37936e-05 -9.15177e-23)
(0.000549888 1.63943e-05 2.58821e-24)
(0.000541525 8.91944e-06 0)
(0.000532263 3.41409e-06 0)
(0.000543243 -1.02973e-06 3.97391e-23)
(0.000543628 -2.49251e-06 -1.40762e-24)
(0.000567312 -5.32383e-06 -3.88409e-23)
(0.00057404 -5.27611e-06 -1.10304e-24)
(0.000606567 -7.27546e-06 0)
(0.000616042 -5.97899e-06 -1.3738e-23)
(0.000652403 -7.32221e-06 1.52773e-23)
(0.000660659 -4.87311e-06 -6.15572e-24)
(0.000695487 -5.65237e-06 3.53581e-24)
(0.000698216 -2.15341e-06 -2.90181e-23)
(0.00072648 -2.55298e-06 3.40222e-23)
(0.000719648 1.83377e-06 1.48207e-24)
(0.00073779 1.44457e-06 -3.72457e-24)
(0.000718805 6.42903e-06 4.81903e-24)
(0.000724407 5.75905e-06 -5.0694e-24)
(0.000691852 1.12125e-05 0)
(0.000683986 9.70187e-06 1.52256e-25)
(0.000638353 1.54449e-05 -2.47763e-24)
(0.000616596 1.27141e-05 1.22285e-24)
(0.000562375 1.83785e-05 1.30295e-24)
(0.000522916 1.35609e-05 0)
(0.000480838 2.25969e-05 0)
(0.00037656 1.29923e-06 1.25821e-25)
(0.000476712 5.11445e-05 1.16871e-23)
(6.70488e-05 1.1406e-06 -1.1913e-23)
(0.000704666 4.88858e-05 5.76049e-24)
(0.000753308 3.70782e-06 -8.22138e-23)
(0.000744369 4.71263e-06 8.31754e-23)
(0.000751933 -8.52009e-07 5.21302e-24)
(0.000749115 -5.54871e-06 0)
(0.000768988 -1.191e-05 0)
(0.00077054 -1.38524e-05 -2.42808e-24)
(0.000800746 -1.85395e-05 0)
(0.000806949 -1.83261e-05 -1.86992e-23)
(0.00084609 -2.20214e-05 1.06791e-24)
(0.000855359 -1.9496e-05 3.22081e-23)
(0.000899421 -2.18857e-05 -1.55809e-23)
(0.000908571 -1.67811e-05 0)
(0.000952698 -1.78422e-05 0)
(0.000957803 -1.02444e-05 -5.45481e-23)
(0.000997233 -1.04356e-05 5.45354e-23)
(0.000994506 -6.25119e-07 2.51744e-25)
(0.00102525 -4.77102e-07 0)
(0.00101164 1.07604e-05 -4.98626e-24)
(0.00103033 1.01308e-05 8.87347e-24)
(0.00100428 2.29367e-05 -9.31304e-25)
(0.00100716 2.06572e-05 -2.77948e-24)
(0.000969964 3.54017e-05 0)
(0.000949798 2.90367e-05 1.36186e-25)
(0.000911132 4.87997e-05 0)
(0.000847077 2.98622e-05 0)
(0.00084741 6.96724e-05 1.15121e-25)
(0.000662894 1.04502e-05 -3.26447e-24)
(0.000831614 0.000112498 3.18314e-24)
(0.000363071 -1.01079e-05 1.0531e-24)
(0.000836712 3.60101e-05 8.41975e-23)
(0.00087727 -1.24124e-06 -1.77652e-22)
(0.000877756 -8.74193e-07 5.01444e-23)
(0.000891889 -5.12172e-06 3.77895e-23)
(0.000893282 -9.64889e-06 0)
(0.000916865 -1.76979e-05 5.10835e-24)
(0.000921745 -2.03294e-05 -2.46637e-24)
(0.000953559 -2.71195e-05 0)
(0.000962268 -2.69718e-05 2.31444e-24)
(0.00100113 -3.25606e-05 -1.69212e-23)
(0.00101291 -2.92236e-05 1.59747e-23)
(0.00105585 -3.32619e-05 0)
(0.00106847 -2.63666e-05 -6.60792e-24)
(0.00111163 -2.89014e-05 3.66709e-24)
(0.00112216 -1.84371e-05 -7.4698e-23)
(0.00116148 -2.00077e-05 7.98987e-23)
(0.00116722 -6.17031e-06 1.30742e-24)
(0.0011987 -7.88585e-06 -3.80237e-24)
(0.00119811 9.37564e-06 0)
(0.00121747 6.11932e-06 4.31547e-24)
(0.00121135 2.76438e-05 -4.00966e-24)
(0.0012117 2.04464e-05 -3.27107e-25)
(0.00120519 4.89272e-05 0)
(0.00117298 3.22013e-05 1.18266e-25)
(0.00118194 7.48898e-05 0)
(0.00108695 3.60594e-05 -5.1134e-26)
(0.00115345 0.000109618 -2.00187e-24)
(0.000934619 2.46606e-05 -1.41966e-24)
(0.00113924 0.000147113 1.23984e-23)
(0.000724657 3.85648e-05 -9.7497e-24)
(0.000940025 2.21824e-05 0)
(0.000970908 -6.49716e-06 7.72827e-23)
(0.000975571 -1.07639e-05 -1.38753e-22)
(0.000990488 -1.61363e-05 3.87227e-23)
(0.00099515 -2.06573e-05 0)
(0.00101874 -2.98223e-05 -5.25544e-24)
(0.00102744 -3.22822e-05 5.10746e-24)
(0.0010569 -3.99544e-05 0)
(0.00106938 -3.91882e-05 4.68839e-24)
(0.00110386 -4.5837e-05 0)
(0.00112008 -4.14486e-05 2.07906e-24)
(0.00115711 -4.66496e-05 0)
(0.00117554 -3.79019e-05 0)
(0.00121167 -4.17245e-05 0)
(0.0012304 -2.82932e-05 -1.01329e-22)
(0.00126171 -3.15706e-05 1.01326e-22)
(0.00127942 -1.33019e-05 0)
(0.00130161 -1.75873e-05 0)
(0.00131872 6.26367e-06 0)
(0.00132636 -1.33133e-06 -5.64576e-25)
(0.00134615 2.98155e-05 0)
(0.00133077 1.51856e-05 -6.21993e-25)
(0.00136118 5.79345e-05 0)
(0.00130822 2.99506e-05 -2.65811e-25)
(0.00136515 9.16389e-05 0)
(0.00125034 4.05455e-05 5.25898e-26)
(0.00136053 0.000130089 -2.27933e-24)
(0.00115225 4.66397e-05 6.42591e-24)
(0.00135097 0.000155474 -5.08078e-24)
(0.00101881 7.42499e-05 0)
(0.00102099 7.69018e-06 8.14066e-23)
(0.00104353 -1.26068e-05 -1.85255e-22)
(0.00105073 -2.0368e-05 1.36712e-22)
(0.00106508 -2.66014e-05 -3.96952e-23)
(0.00107198 -2.99771e-05 -4.33586e-23)
(0.00109314 -3.94292e-05 3.84167e-23)
(0.00110469 -4.23001e-05 4.08571e-23)
(0.00113048 -5.10867e-05 -8.04379e-23)
(0.00114632 -5.03912e-05 3.47002e-23)
(0.00117554 -5.7961e-05 0)
(0.00119588 -5.30766e-05 -2.14339e-24)
(0.00122621 -5.91706e-05 1.95445e-24)
(0.00125011 -4.91771e-05 -6.81095e-24)
(0.00127817 -5.40269e-05 3.78733e-24)
(0.00130449 -3.83575e-05 -1.22181e-22)
(0.00132633 -4.31058e-05 1.27519e-22)
(0.00135477 -2.13085e-05 1.59369e-24)
(0.00136595 -2.79335e-05 -3.88358e-24)
(0.00139794 9.16537e-07 -7.114e-25)
(0.00139311 -1.02694e-05 5.82041e-25)
(0.00143245 2.76773e-05 0)
(0.00140457 8.60478e-06 4.8088e-24)
(0.00145769 5.90072e-05 -6.59655e-24)
(0.00139692 2.80452e-05 2.43897e-24)
(0.00147313 9.44049e-05 -2.54914e-25)
(0.00136754 4.76647e-05 3.06542e-25)
(0.00147696 0.000129038 2.54348e-24)
(0.0013158 7.11298e-05 -9.21354e-24)
(0.00146754 0.000147525 1.36136e-23)
(0.00124191 0.000108257 -8.44372e-24)
(0.00108275 -6.19724e-06 -8.30864e-23)
(0.00109918 -1.98294e-05 1.4962e-23)
(0.00110768 -2.92023e-05 9.45695e-23)
(0.00112131 -3.69923e-05 -1.15026e-23)
(0.0011297 -4.07167e-05 4.45379e-23)
(0.00114839 -5.02178e-05 -2.84173e-23)
(0.00116173 -5.35189e-05 0)
(0.00118438 -6.27086e-05 0)
(0.00120227 -6.23218e-05 0)
(0.00122737 -7.00779e-05 4.62319e-24)
(0.00125007 -6.51345e-05 2.15708e-24)
(0.00127545 -7.13366e-05 -2.01719e-24)
(0.00130235 -6.0844e-05 0)
(0.00132477 -6.58115e-05 8.05933e-25)
(0.00135514 -4.91031e-05 -1.4912e-22)
(0.00137086 -5.40872e-05 1.49114e-22)
(0.0014047 -3.07316e-05 -5.23556e-25)
(0.00140981 -3.77273e-05 0)
(0.00144835 -7.06723e-06 7.34234e-25)
(0.00143883 -1.83396e-05 -5.41111e-25)
(0.00148468 2.08939e-05 -8.31659e-25)
(0.00145615 3.34633e-06 0)
(0.00151286 5.2364e-05 0)
(0.00146045 2.76739e-05 0)
(0.00153158 8.58051e-05 7.28674e-25)
(0.00145057 5.56581e-05 -7.61886e-25)
(0.00153906 0.000116638 0)
(0.00142512 8.99447e-05 -6.41679e-24)
(0.00153365 0.000137094 -1.21474e-24)
(0.00138203 0.000129127 9.62896e-24)
(0.00112698 -1.88178e-05 0)
(0.0011396 -2.83634e-05 -1.21988e-23)
(0.00114861 -3.78214e-05 4.74305e-23)
(0.0011617 -4.69774e-05 -3.61501e-23)
(0.00117118 -5.16584e-05 0)
(0.00118805 -6.0936e-05 -1.13895e-23)
(0.00120228 -6.481e-05 0)
(0.0012228 -7.38607e-05 0)
(0.0012415 -7.41873e-05 0)
(0.00126409 -8.15647e-05 1.35209e-23)
(0.00128733 -7.71757e-05 -3.75756e-23)
(0.00131008 -8.27528e-05 2.27564e-23)
(0.00133732 -7.2692e-05 -7.77296e-24)
(0.00135734 -7.67729e-05 -8.32851e-25)
(0.00138783 -6.04558e-05 -1.73347e-22)
(0.00140194 -6.41789e-05 1.73263e-22)
(0.00143541 -4.14822e-05 5.41042e-25)
(0.00144063 -4.64925e-05 -3.17765e-24)
(0.0014776 -1.7434e-05 8.88985e-24)
(0.00147142 -2.51367e-05 -8.27945e-24)
(0.00151309 1.02623e-05 4.66903e-24)
(0.00149336 -5.3934e-07 0)
(0.00154114 4.0469e-05 0)
(0.00150575 2.79903e-05 0)
(0.00156073 7.16835e-05 -1.57676e-26)
(0.00150761 6.16903e-05 0)
(0.00157055 0.000101347 3.56806e-24)
(0.00149722 0.00010085 -3.52523e-24)
(0.00156849 0.000127153 -1.30469e-24)
(0.00147403 0.000140923 0)
(0.00115512 -3.01629e-05 1.2683e-23)
(0.00116585 -3.79439e-05 9.92595e-23)
(0.00117503 -4.68303e-05 -5.16215e-23)
(0.00118771 -5.66777e-05 -1.38781e-24)
(0.00119808 -6.265e-05 -4.87435e-23)
(0.00121382 -7.16277e-05 0)
(0.00122848 -7.62456e-05 4.41811e-23)
(0.0012477 -8.47462e-05 -2.39109e-24)
(0.00126652 -8.60806e-05 -3.74106e-23)
(0.0012878 -9.26293e-05 -1.86592e-23)
(0.00131057 -8.92995e-05 1.87725e-23)
(0.0013323 -9.36158e-05 2.08298e-24)
(0.00135835 -8.47774e-05 1.84552e-24)
(0.00137815 -8.7064e-05 -8.17003e-25)
(0.0014065 -7.23781e-05 -1.95889e-22)
(0.0014218 -7.35084e-05 1.95907e-22)
(0.00145177 -5.33244e-05 5.16428e-25)
(0.00146043 -5.4433e-05 -8.35792e-25)
(0.00149195 -2.95326e-05 -7.17597e-25)
(0.00149251 -3.12061e-05 3.64663e-24)
(0.00152602 -2.67593e-06 -3.62462e-24)
(0.00151744 -4.25921e-06 -3.37581e-24)
(0.00155356 2.61917e-05 1.85452e-24)
(0.00153479 2.70114e-05 1.05893e-24)
(0.00157381 5.63555e-05 0)
(0.00154362 6.34474e-05 3.41976e-24)
(0.00158565 8.70905e-05 1.12857e-24)
(0.00154292 0.000103803 6.62471e-24)
(0.00158651 0.000117997 -1.11929e-23)
(0.00153288 0.000144999 1.81441e-24)
(0.00116871 -4.03589e-05 -1.16545e-22)
(0.00117893 -4.8084e-05 1.1791e-22)
(0.00118831 -5.65479e-05 -3.77479e-23)
(0.00120068 -6.63735e-05 8.8338e-23)
(0.00121192 -7.36096e-05 -5.03456e-23)
(0.00122709 -8.22998e-05 -3.51566e-23)
(0.00124215 -8.77872e-05 3.60759e-23)
(0.00126059 -9.55079e-05 0)
(0.00127945 -9.79886e-05 -1.05721e-23)
(0.00130007 -0.00010343 4.91604e-24)
(0.00132226 -0.000101474 0)
(0.00134374 -0.000104124 -7.94712e-24)
(0.00136839 -9.70254e-05 7.92834e-24)
(0.00138877 -9.69342e-05 2.59292e-26)
(0.00141466 -8.46686e-05 -2.18332e-22)
(0.00143186 -8.24244e-05 2.18378e-22)
(0.00145804 -6.58002e-05 -2.68343e-26)
(0.00147046 -6.21089e-05 3.08595e-24)
(0.00149659 -4.24756e-05 -3.02384e-24)
(0.0015033 -3.74529e-05 0)
(0.00152957 -1.64127e-05 -6.59874e-25)
(0.00153001 -9.06613e-06 8.02655e-25)
(0.00155685 1.15651e-05 0)
(0.00155042 2.33045e-05 -1.6275e-24)
(0.00157804 4.15181e-05 2.0009e-24)
(0.00156393 6.02584e-05 4.38324e-24)
(0.00159166 7.37138e-05 -1.12837e-23)
(0.00156971 0.000100832 5.52156e-24)
(0.00159566 0.00010806 -1.3647e-23)
(0.00156801 0.000143787 1.10616e-23)
(0.00116991 -4.98741e-05 -1.06942e-22)
(0.00118043 -5.83992e-05 2.01068e-22)
(0.00119027 -6.69663e-05 -1.34007e-22)
(0.00120252 -7.63984e-05 7.75328e-23)
(0.00121471 -8.46293e-05 -5.20592e-23)
(0.00122973 -9.3048e-05 -1.2464e-23)
(0.00124542 -9.94576e-05 5.87189e-23)
(0.00126348 -0.000106354 -4.71516e-23)
(0.00128268 -0.000109983 5.4471e-24)
(0.001303 -0.000114226 -5.09454e-24)
(0.0013251 -0.00011374 0)
(0.00134653 -0.000114596 8.03491e-24)
(0.00137049 -0.000109416 -2.85164e-24)
(0.00139136 -0.000106778 -7.13672e-24)
(0.00141578 -9.71632e-05 -2.40716e-22)
(0.00143433 -9.14223e-05 2.40349e-22)
(0.00145811 -7.85055e-05 -3.72165e-24)
(0.00147307 -7.01566e-05 1.59935e-24)
(0.00149572 -5.55525e-05 2.91536e-24)
(0.00150648 -4.46293e-05 0)
(0.00152809 -2.9976e-05 6.83827e-25)
(0.00153447 -1.56965e-05 -3.72271e-25)
(0.00155527 -2.42425e-06 3.77169e-25)
(0.00155723 1.67328e-05 -1.18039e-25)
(0.00157698 2.74755e-05 -6.56634e-25)
(0.00157454 5.30885e-05 5.43879e-24)
(0.00159194 6.04752e-05 -2.31595e-24)
(0.00158574 9.35728e-05 1.40182e-23)
(0.00159798 9.68349e-05 -3.39227e-23)
(0.00159087 0.000138082 1.75879e-23)
(0.00116197 -5.95633e-05 -8.26976e-23)
(0.001173 -6.88697e-05 1.65947e-23)
(0.00118361 -7.7966e-05 1.25069e-22)
(0.00119603 -8.70318e-05 -2.70475e-23)
(0.00120927 -9.59713e-05 0)
(0.00122451 -0.000104115 1.28067e-23)
(0.00124115 -0.000111418 1.23074e-23)
(0.00125922 -0.000117579 5.7224e-23)
(0.00127921 -0.000122271 -2.46084e-23)
(0.00129954 -0.000125374 -1.63946e-23)
(0.00132224 -0.000126274 -1.80338e-23)
(0.00134375 -0.000125428 1.42568e-23)
(0.00136798 -0.000122054 8.14471e-24)
(0.00138909 -0.000117038 8.53379e-25)
(0.00141336 -0.000109849 -2.6063e-22)
(0.00143247 -0.00010098 2.60929e-22)
(0.0014556 -9.1271e-05 -5.15564e-25)
(0.00147162 -7.9046e-05 2.79135e-24)
(0.00149308 -6.84704e-05 1.3461e-24)
(0.00150562 -5.30752e-05 -4.10276e-24)
(0.00152544 -4.31239e-05 -2.02785e-24)
(0.00153461 -2.41188e-05 7.08311e-25)
(0.00155292 -1.58235e-05 9.95587e-25)
(0.00155903 7.79471e-06 6.68635e-25)
(0.00157553 1.38904e-05 1.12936e-24)
(0.00157893 4.33473e-05 0)
(0.00159234 4.70026e-05 -3.65482e-24)
(0.00159365 8.33549e-05 -1.67608e-23)
(0.0016017 8.43171e-05 -2.7552e-24)
(0.00160249 0.000128737 2.35833e-23)
(0.00114874 -7.01221e-05 5.67323e-23)
(0.00116032 -7.98715e-05 -1.31108e-22)
(0.00117192 -8.96078e-05 -1.42489e-23)
(0.00118482 -9.84909e-05 1.40134e-23)
(0.00119929 -0.000107989 0)
(0.00121506 -0.000115888 -1.32853e-23)
(0.00123295 -0.000123997 -1.27735e-23)
(0.00125146 -0.000129577 -1.21528e-23)
(0.00127266 -0.000135193 2.18e-23)
(0.00129342 -0.00013731 -2.73002e-23)
(0.00131725 -0.000139379 0)
(0.00133914 -0.000137058 8.03666e-24)
(0.0013643 -0.000135173 -8.20553e-24)
(0.00138574 -0.000128135 8.16239e-25)
(0.00141067 -0.000122872 -2.78965e-22)
(0.00143008 -0.000111468 2.78952e-22)
(0.00145358 -0.000104173 -4.61757e-25)
(0.00147 -8.90289e-05 -2.62295e-24)
(0.00149151 -8.12996e-05 1.57128e-24)
(0.00150472 -6.28355e-05 0)
(0.00152425 -5.60004e-05 -6.26552e-25)
(0.00153459 -3.40892e-05 1.11108e-24)
(0.0015523 -2.89317e-05 -1.78241e-25)
(0.00156031 -2.87622e-06 -6.93947e-25)
(0.00157599 3.85789e-07 -1.17154e-24)
(0.00158218 3.16618e-05 0)
(0.00159486 3.31106e-05 2.01978e-24)
(0.00159962 7.09334e-05 -2.65547e-24)
(0.00160773 7.05105e-05 2.1608e-23)
(0.00161171 0.000116682 -3.10573e-23)
(0.00113525 -8.21231e-05 -5.88817e-23)
(0.00114716 -9.19486e-05 2.54202e-22)
(0.00115976 -0.00010222 -1.05129e-22)
(0.00117332 -0.000111096 5.6938e-23)
(0.00118902 -0.000121111 -5.77553e-23)
(0.00120558 -0.000128855 1.36282e-23)
(0.00122484 -0.000137654 -1.30287e-23)
(0.00124421 -0.000142816 4.78217e-23)
(0.00126681 -0.000149174 -5.98149e-23)
(0.00128845 -0.00015049 -2.04249e-23)
(0.00131361 -0.000153425 2.11773e-24)
(0.00133631 -0.000149892 2.23341e-23)
(0.00136259 -0.000149058 -1.08274e-24)
(0.00138466 -0.000140404 -8.03283e-24)
(0.00141043 -0.000136436 -2.94514e-22)
(0.0014303 -0.000123119 2.94499e-22)
(0.00145434 -0.000117373 -2.768e-24)
(0.0014711 -0.000100198 8.25366e-25)
(0.00149292 -9.42109e-05 6.78129e-24)
(0.00150645 -7.38254e-05 -1.38296e-24)
(0.00152617 -6.88195e-05 -1.65225e-24)
(0.0015369 -4.53414e-05 9.89915e-25)
(0.00155487 -4.1973e-05 -1.12366e-24)
(0.00156342 -1.48787e-05 -1.21336e-24)
(0.0015798 -1.32769e-05 1.7028e-24)
(0.00158659 1.85758e-05 6.93378e-24)
(0.00160102 1.85489e-05 -8.96365e-24)
(0.00160606 5.68229e-05 2.77174e-23)
(0.00161789 5.52723e-05 -4.96411e-23)
(0.00162098 0.000102433 4.25284e-23)
(0.00112529 -9.58058e-05 -6.27564e-23)
(0.00113744 -0.000105549 -9.1465e-23)
(0.00115089 -0.000116216 1.84904e-22)
(0.00116519 -0.000125234 -6.1268e-23)
(0.00118205 -0.000135759 0)
(0.00119959 -0.000143488 -2.82373e-23)
(0.00122019 -0.000152834 6.57013e-23)
(0.0012407 -0.000157732 -5.27597e-23)
(0.00126465 -0.000164589 1.19897e-23)
(0.00128748 -0.000165289 2.07103e-23)
(0.00131386 -0.000168705 -2.08741e-23)
(0.00133764 -0.000164223 0)
(0.00136482 -0.000163907 0)
(0.00138773 -0.000154033 0)
(0.00141403 -0.000150664 -3.06411e-22)
(0.00143449 -0.000136008 3.06329e-22)
(0.00145872 -0.000130957 0)
(0.00147587 -0.000112512 5.87328e-25)
(0.00149766 -0.0001073 0)
(0.00151144 -8.58844e-05 -1.30626e-24)
(0.00153111 -8.17228e-05 1.06005e-24)
(0.00154199 -5.75795e-05 1.513e-25)
(0.00156018 -5.51669e-05 4.57664e-24)
(0.00156872 -2.78004e-05 -3.25971e-24)
(0.0015861 -2.73559e-05 -3.81057e-24)
(0.00159254 4.51203e-06 2.24442e-24)
(0.00160953 3.03772e-06 1.23358e-23)
(0.00161351 4.14533e-05 -4.04271e-23)
(0.00163044 3.81394e-05 3.55717e-23)
(0.00163107 8.61748e-05 -1.66965e-23)
(0.00112181 -0.00011136 -9.6226e-23)
(0.00113402 -0.000121102 2.58516e-22)
(0.00114798 -0.000132068 -1.45481e-22)
(0.00116292 -0.000141329 6.1071e-23)
(0.00118065 -0.000152298 -1.21086e-22)
(0.00119916 -0.000160162 3.25343e-23)
(0.0012208 -0.000169845 3.78079e-24)
(0.00124249 -0.000174619 1.04262e-22)
(0.00126749 -0.000181628 -5.06159e-23)
(0.00129149 -0.000181895 5.44016e-24)
(0.0013187 -0.000185297 -1.8669e-23)
(0.00134345 -0.000180133 2.69583e-23)
(0.00137112 -0.0001797 -1.21957e-24)
(0.00139469 -0.000169012 -8.54772e-24)
(0.00142108 -0.000165484 -3.12011e-22)
(0.00144188 -0.000150045 3.11992e-22)
(0.00146589 -0.000144858 -1.97859e-24)
(0.00148316 -0.000125811 2.61419e-25)
(0.00150456 -0.000120544 3.85125e-24)
(0.0015183 -9.87935e-05 -2.02567e-24)
(0.00153761 -9.47333e-05 0)
(0.00154832 -7.05631e-05 3.83412e-24)
(0.00156644 -6.85358e-05 -9.83429e-24)
(0.00157473 -4.14302e-05 -2.20823e-25)
(0.00159266 -4.18267e-05 2.45417e-24)
(0.00159883 -1.03919e-05 2.19751e-23)
(0.00161744 -1.32979e-05 -8.48407e-24)
(0.00162124 2.47566e-05 2.79027e-23)
(0.00164123 1.9408e-05 -6.63067e-23)
(0.00164207 6.74365e-05 4.40831e-23)
(0.00112392 -0.00012841 0)
(0.00113621 -0.000138488 -3.36674e-23)
(0.00115034 -0.000149751 1.65926e-23)
(0.0011658 -0.000159394 6.33014e-23)
(0.00118401 -0.000170694 -6.43386e-23)
(0.00120343 -0.000178847 -7.33825e-23)
(0.0012257 -0.000188598 5.90792e-23)
(0.00124847 -0.000193393 0)
(0.00127398 -0.000200126 -1.12749e-23)
(0.001299 -0.000200152 1.79455e-23)
(0.00132644 -0.000202975 -4.85788e-24)
(0.00135195 -0.000197414 -1.22734e-23)
(0.0013795 -0.000196188 8.09845e-24)
(0.00140349 -0.000185096 1.61166e-24)
(0.00142942 -0.000180675 -3.10228e-22)
(0.00145034 -0.000164977 3.10206e-22)
(0.00147367 -0.000158913 -1.40148e-25)
(0.00149082 -0.000139857 1.40606e-24)
(0.0015115 -0.00013383 -1.05229e-24)
(0.00152497 -0.000112361 -2.75077e-26)
(0.00154367 -0.000107751 -1.60046e-24)
(0.00155403 -8.41686e-05 2.91155e-24)
(0.00157182 -8.19304e-05 0)
(0.00157971 -5.57363e-05 -1.18191e-23)
(0.0015978 -5.64109e-05 7.14176e-24)
(0.0016037 -2.62133e-05 1.36895e-23)
(0.00162321 -2.99906e-05 -1.69664e-23)
(0.00162717 6.5393e-06 3.97372e-24)
(0.00164903 -2.57876e-07 -8.96612e-24)
(0.00165084 4.59315e-05 0)
(0.00112684 -0.00014662 -1.39955e-22)
(0.0011396 -0.000157491 2.45537e-22)
(0.00115391 -0.000169155 -1.75064e-22)
(0.00117004 -0.000179327 0)
(0.00118858 -0.000190791 -6.30926e-23)
(0.001209 -0.000199324 4.87118e-23)
(0.00123155 -0.000208843 1.44828e-23)
(0.00125541 -0.000213749 5.19565e-23)
(0.00128095 -0.000219785 -5.30605e-23)
(0.00130697 -0.000219708 0)
(0.00133406 -0.000221441 5.09652e-24)
(0.0013604 -0.000215703 1.22881e-23)
(0.00138716 -0.000213126 3.24032e-25)
(0.0014118 -0.000201957 -5.16813e-24)
(0.00143659 -0.000196073 -2.97986e-22)
(0.00145803 -0.000180545 2.97963e-22)
(0.00147999 -0.000173037 -2.95827e-24)
(0.00149762 -0.000154484 6.78927e-25)
(0.00151683 -0.000147111 5.17213e-25)
(0.00153083 -0.000126514 2.88584e-26)
(0.00154802 -0.00012071 0)
(0.00155903 -9.84064e-05 8.17486e-24)
(0.00157529 -9.52029e-05 -7.57952e-24)
(0.00158412 -7.07808e-05 0)
(0.00160065 -7.08249e-05 -1.70148e-23)
(0.00160806 -4.30213e-05 1.34388e-23)
(0.00162599 -4.65768e-05 0)
(0.00163253 -1.32138e-05 2.94723e-23)
(0.00165271 -2.01782e-05 -9.14989e-23)
(0.00165881 2.18516e-05 4.225e-23)
(0.00112688 -0.000166195 -1.46341e-22)
(0.00114037 -0.000178086 1.85981e-22)
(0.00115495 -0.000190196 3.60433e-23)
(0.00117193 -0.000200932 6.8084e-23)
(0.00119077 -0.000212365 -6.93136e-23)
(0.00121229 -0.000221236 1.61439e-23)
(0.00123503 -0.000230274 -1.51915e-23)
(0.00126012 -0.000235283 0)
(0.00128553 -0.000240351 -1.2862e-23)
(0.00131281 -0.000240204 -5.43879e-24)
(0.00133934 -0.000240557 -1.80275e-23)
(0.00136696 -0.000234738 2.17736e-23)
(0.00139269 -0.000230519 -7.79633e-24)
(0.00141866 -0.000219446 -1.44804e-24)
(0.00144193 -0.000211806 -2.71954e-22)
(0.00146481 -0.000196706 2.71851e-22)
(0.00148484 -0.000187425 5.13083e-25)
(0.00150411 -0.000169719 -4.40495e-26)
(0.00152103 -0.000160587 -1.27964e-24)
(0.00153695 -0.000141308 1.20068e-24)
(0.00155152 -0.000133762 -1.01101e-24)
(0.00156477 -0.00011331 -1.98771e-24)
(0.00157801 -0.000108416 0)
(0.00158952 -8.65192e-05 0)
(0.00160256 -8.50066e-05 3.51954e-24)
(0.00161338 -6.06209e-05 1.75801e-23)
(0.00162725 -6.28519e-05 -1.7268e-23)
(0.00163847 -3.40554e-05 9.75922e-24)
(0.00165381 -4.00138e-05 -3.5818e-23)
(0.0016666 -3.9663e-06 4.5706e-23)
(0.00111736 -0.000186638 -1.9241e-22)
(0.00113242 -0.000199604 1.1818e-22)
(0.00114826 -0.00021229 0)
(0.00116692 -0.000223695 0)
(0.00118694 -0.000235137 -6.7146e-23)
(0.00121025 -0.000244355 6.83538e-23)
(0.001234 -0.000252924 5.82762e-23)
(0.00126096 -0.000258017 -7.28584e-23)
(0.00128704 -0.000262118 0)
(0.00131621 -0.00026185 1.10563e-23)
(0.00134291 -0.000260806 -1.73459e-23)
(0.00137242 -0.00025484 2.16587e-23)
(0.00139765 -0.000248944 -3.13898e-24)
(0.00142555 -0.00023792 0)
(0.00144758 -0.000228459 -2.26642e-22)
(0.00147254 -0.000213781 2.26537e-22)
(0.00149058 -0.000202599 0)
(0.00151222 -0.000185794 -8.09541e-26)
(0.00152642 -0.000174671 -2.54036e-24)
(0.00154512 -0.000156844 3.95879e-24)
(0.00155624 -0.00014719 2.51443e-24)
(0.00157272 -0.00012883 0)
(0.0015818 -0.000121727 1.12745e-23)
(0.00159695 -0.000102703 -1.49477e-23)
(0.00160514 -9.8997e-05 -1.84264e-23)
(0.00162004 -7.84712e-05 1.81006e-23)
(0.00162842 -7.87579e-05 0)
(0.00164434 -5.50382e-05 0)
(0.00165354 -5.96098e-05 -6.2267e-23)
(0.001672 -3.01493e-05 3.61568e-23)
(0.00110417 -0.000211143 8.19824e-23)
(0.00112117 -0.00022483 4.0248e-23)
(0.00113905 -0.000237976 1.94641e-23)
(0.00115997 -0.000249927 -1.86858e-23)
(0.0011821 -0.000261356 1.77017e-23)
(0.00120774 -0.000270733 -4.76786e-23)
(0.00123352 -0.000278775 6.53358e-23)
(0.00126274 -0.000283675 8.21906e-25)
(0.00129051 -0.000286739 1.11681e-23)
(0.00132169 -0.000286006 -4.36802e-23)
(0.00134943 -0.000283493 1.99516e-23)
(0.00138066 -0.000276992 6.42169e-24)
(0.00140611 -0.000269365 -1.39866e-24)
(0.00143549 -0.000257999 -4.78853e-24)
(0.00145681 -0.000246699 -1.55164e-22)
(0.00148327 -0.000232086 1.55142e-22)
(0.00149964 -0.000218997 6.40263e-25)
(0.0015231 -0.000202785 7.11464e-25)
(0.00153465 -0.000189624 -1.61406e-24)
(0.00155574 -0.000173 -7.55193e-24)
(0.00156315 -0.000161119 1.43206e-23)
(0.00158272 -0.000144687 -1.1953e-23)
(0.00158696 -0.000135148 -7.92846e-25)
(0.00160584 -0.00011891 -2.02683e-23)
(0.00160806 -0.000112661 2.54508e-23)
(0.00162703 -9.59512e-05 5.77305e-24)
(0.00162847 -9.39288e-05 0)
(0.0016482 -7.51961e-05 6.25852e-24)
(0.00164977 -7.83437e-05 1.27089e-23)
(0.00167097 -5.51057e-05 2.72951e-23)
(0.00109948 -0.000240999 -4.30733e-23)
(0.00111773 -0.000255129 0)
(0.00113734 -0.000268598 5.8413e-23)
(0.00115999 -0.000280891 -6.09569e-23)
(0.00118419 -0.000292196 -3.67385e-23)
(0.00121166 -0.000301396 -8.22845e-23)
(0.00123955 -0.000308707 1.39735e-22)
(0.00127037 -0.00031294 -5.85247e-23)
(0.00129998 -0.00031473 1.26717e-23)
(0.00133228 -0.000312971 1.30379e-23)
(0.00136133 -0.000308789 -2.95624e-23)
(0.00139307 -0.000301153 9.33147e-24)
(0.00141913 -0.000291695 1.14304e-23)
(0.00144855 -0.000279399 -3.7029e-24)
(0.00146975 -0.000266311 -4.79982e-23)
(0.00149611 -0.000251217 4.79832e-23)
(0.00151162 -0.000236426 1.96321e-24)
(0.0015353 -0.000220273 -3.63648e-24)
(0.00154506 -0.000205353 -6.69042e-24)
(0.00156713 -0.000189377 1.88589e-23)
(0.00157144 -0.000175527 -1.09664e-23)
(0.00159316 -0.000160493 4.75507e-24)
(0.0015924 -0.00014865 2.23945e-23)
(0.00161482 -0.000134761 -4.10676e-23)
(0.00160945 -0.000125774 1.82199e-23)
(0.00163304 -0.000112627 -1.28592e-23)
(0.00162378 -0.000107641 2.7022e-23)
(0.00164788 -9.39035e-05 -3.30229e-23)
(0.00163572 -9.46441e-05 0)
(0.00165801 -7.76361e-05 -1.44029e-23)
(0.00109589 -0.000275644 -4.50871e-23)
(0.00111572 -0.000290295 2.18036e-23)
(0.00113737 -0.00030406 -2.08593e-23)
(0.0011619 -0.000316483 0)
(0.00118849 -0.00032747 -5.20395e-23)
(0.00121774 -0.000336125 7.26807e-23)
(0.00124796 -0.000342398 -1.59911e-23)
(0.0012801 -0.000345455 1.415e-23)
(0.00131176 -0.000345628 0)
(0.00134465 -0.000342275 0)
(0.0013753 -0.000336152 -4.00977e-24)
(0.00140675 -0.000326815 -4.10224e-24)
(0.00143395 -0.000315416 3.13924e-24)
(0.00146229 -0.000301657 0)
(0.00148429 -0.000286905 1.0862e-22)
(0.00150906 -0.000270828 -1.0871e-22)
(0.00152515 -0.000254719 0)
(0.00154718 -0.000238083 -5.52565e-24)
(0.00155713 -0.000221978 3.83545e-24)
(0.00157789 -0.000205918 -2.55778e-24)
(0.00158121 -0.000190731 0)
(0.00160247 -0.000176147 0)
(0.00159815 -0.000162582 6.56454e-24)
(0.00162168 -0.000149981 -6.82306e-24)
(0.00160769 -0.000138424 -3.041e-23)
(0.0016345 -0.000127913 3.69325e-23)
(0.00160801 -0.000119123 0)
(0.00163753 -0.000110292 -7.94653e-24)
(0.00159594 -0.000105976 7.91975e-24)
(0.00162375 -9.65721e-05 -1.55779e-23)
(0.00108701 -0.000314428 2.40371e-23)
(0.00110942 -0.000329934 -2.30472e-23)
(0.00113415 -0.000344157 2.20808e-23)
(0.00116161 -0.000356647 -7.76652e-23)
(0.00119142 -0.000367132 7.95345e-23)
(0.00122325 -0.000374912 6.30921e-23)
(0.00125638 -0.000379794 -6.44501e-23)
(0.00129043 -0.000381219 -1.15183e-23)
(0.00132451 -0.000379377 0)
(0.00135836 -0.000373955 0)
(0.00139084 -0.000365557 0)
(0.00142211 -0.000354086 -2.18192e-24)
(0.00145066 -0.000340542 2.20031e-24)
(0.00147767 -0.000324941 0)
(0.00150087 -0.000308509 3.32815e-22)
(0.00152331 -0.000291106 -3.32689e-22)
(0.00154089 -0.000273906 0)
(0.00155971 -0.000256397 -6.8685e-24)
(0.00157156 -0.00023958 9.99738e-24)
(0.00158801 -0.000222754 0)
(0.00159287 -0.000206834 0)
(0.0016082 -0.000191428 0)
(0.00160324 -0.000176927 -9.86025e-24)
(0.00161915 -0.000163625 3.69494e-23)
(0.00159852 -0.00015036 -3.617e-23)
(0.00161661 -0.000139718 -3.64886e-23)
(0.00156995 -0.000127544 3.5631e-23)
(0.00159313 -0.000120987 8.41132e-24)
(0.0015058 -0.00010995 -8.37102e-24)
(0.00153882 -0.000108491 7.88549e-24)
(0.00107654 -0.000363114 2.16024e-22)
(0.00110261 -0.000378228 -1.96402e-22)
(0.00113156 -0.000392133 0)
(0.00116299 -0.000404063 0)
(0.00119662 -0.000413434 -6.8638e-23)
(0.00123184 -0.000419678 5.54496e-23)
(0.00126819 -0.000422531 0)
(0.00130478 -0.000421693 1.23315e-23)
(0.00134122 -0.000417246 0)
(0.00137651 -0.000409176 0)
(0.00141042 -0.000397953 -6.30119e-25)
(0.00144191 -0.000383831 0)
(0.00147109 -0.000367648 -1.82081e-24)
(0.00149706 -0.00034976 2.70643e-24)
(0.00152042 -0.000331198 6.52604e-22)
(0.00154058 -0.00031208 -6.52606e-22)
(0.00155829 -0.000293399 8.75048e-24)
(0.00157329 -0.000274691 -1.13426e-23)
(0.00158544 -0.000256903 0)
(0.00159529 -0.000238932 -5.93809e-24)
(0.00159984 -0.000222091 0)
(0.00160297 -0.000204876 -6.21682e-24)
(0.00159526 -0.00018928 1.05554e-23)
(0.00159029 -0.000173174 0)
(0.00156179 -0.000158638 -4.52101e-23)
(0.00154785 -0.000144028 4.41255e-23)
(0.00148193 -0.000130281 0)
(0.00146449 -0.000119773 0)
(0.0013307 -0.000105191 7.76457e-23)
(0.00134088 -0.000106471 -6.65037e-23)
(0.00106684 -0.000423461 0)
(0.00109693 -0.000440321 0)
(0.00112989 -0.000454531 0)
(0.0011658 -0.000465578 0)
(0.00120408 -0.000473038 0)
(0.0012437 -0.000476568 1.59479e-23)
(0.00128389 -0.000476009 0)
(0.00132376 -0.000471348 2.13147e-23)
(0.00136276 -0.000462722 -2.04324e-23)
(0.00139999 -0.000450406 -9.60137e-24)
(0.001435 -0.000434885 -1.29978e-24)
(0.00146692 -0.000416757 3.83408e-24)
(0.00149563 -0.000396774 -9.40827e-25)
(0.00152048 -0.00037561 0)
(0.00154184 -0.000353978 1.10879e-21)
(0.0015591 -0.000332292 -1.1078e-21)
(0.00157302 -0.000311068 0)
(0.00158247 -0.000290311 2.86465e-24)
(0.00158817 -0.000270371 2.78483e-23)
(0.00158773 -0.00025068 -4.98144e-23)
(0.00158151 -0.000231762 5.75241e-23)
(0.00156553 -0.000212354 2.8731e-23)
(0.00154001 -0.0001938 -7.30318e-23)
(0.00150112 -0.000173893 0)
(0.00144729 -0.000156141 0)
(0.00137989 -0.0001366 0)
(0.00128407 -0.000121424 0)
(0.00118846 -0.000102132 0)
(0.00102121 -9.07129e-05 0)
(0.00094835 -8.25311e-05 0)
(0.00105719 -0.000490425 2.41504e-23)
(0.00109524 -0.000503336 0)
(0.00113742 -0.000515313 0)
(0.00118148 -0.000524179 5.05938e-23)
(0.00122606 -0.000528821 -1.53411e-23)
(0.00127044 -0.000528919 -9.28561e-23)
(0.00131416 -0.000524505 3.9742e-23)
(0.00135658 -0.000515758 6.73166e-24)
(0.00139702 -0.000502969 0)
(0.00143463 -0.000486571 -3.32604e-24)
(0.00146873 -0.000467168 0)
(0.00149858 -0.000445492 0)
(0.0015238 -0.000422317 0)
(0.00154397 -0.000398315 0)
(0.00155884 -0.000373927 1.77561e-21)
(0.00156795 -0.000349342 -1.77625e-21)
(0.00157059 -0.000324695 0)
(0.0015658 -0.000300059 0)
(0.00155213 -0.000275536 0)
(0.00152819 -0.000251556 0)
(0.0014921 -0.000228647 9.83495e-24)
(0.00144184 -0.00020637 8.54216e-24)
(0.00137413 -0.000183205 1.69108e-23)
(0.00128552 -0.000158727 -7.00342e-23)
(0.0011764 -0.000135476 1.35419e-22)
(0.00104364 -0.000114269 -7.20824e-25)
(0.000891451 -9.50645e-05 -7.87472e-23)
(0.000719866 -7.0169e-05 0)
(0.000522678 -6.13428e-05 0)
(0.000330262 -2.63081e-05 1.33861e-23)