/*--------------------------------*- C++ -*----------------------------------*\
| =========                 |                                                 |
| \\      /  F ield         | OpenFOAM: The Open Source CFD Toolbox           |
|  \\    /   O peration     | Version:  2312                                  |
|   \\  /    A nd           | Website:  www.openfoam.com                      |
|    \\/     M anipulation  |                                                 |
\*---------------------------------------------------------------------------*/
FoamFile
{
    version     2.0;
    format      ascii;
    arch        "LSB;label=32;scalar=64";
    class       surfaceScalarField;
    location    "150000";
    object      phi;
}
// * * * * * * * * * * * * * * * * * * * * * * * * * * * * * * * * * * * * * //

dimensions      [0 3 -1 0 0 0 0];

oriented        oriented;

internalField   nonuniform List<scalar> 
21240
(
0.000664973
1.69324e-06
0.000661068
3.9054e-06
0.000655742
5.32594e-06
0.000649498
6.24366e-06
0.000642614
6.88468e-06
0.00063523
7.38369e-06
0.000627439
7.79114e-06
0.000619319
8.12008e-06
0.000610942
8.37651e-06
0.000602373
8.56939e-06
0.000593662
8.71102e-06
0.000584848
8.81369e-06
0.000575961
8.88701e-06
0.000567024
8.93728e-06
0.000558056
8.9683e-06
0.000549073
8.9825e-06
0.000540091
8.98169e-06
0.000531124
8.96743e-06
0.000522183
8.94102e-06
0.000513279
8.90352e-06
0.000504424
8.85571e-06
0.000495626
8.79818e-06
0.000486894
8.73133e-06
0.000478239
8.65545e-06
0.000469668
8.57073e-06
0.000461191
8.47731e-06
0.000452815
8.3753e-06
0.000444551
8.26471e-06
0.000436405
8.14566e-06
0.000428387
8.01801e-06
0.000420505
7.88201e-06
0.000412768
7.73729e-06
0.000405183
7.58439e-06
0.000397761
7.42256e-06
0.000390508
7.25289e-06
0.000383434
7.07392e-06
0.000376546
6.88782e-06
0.000369854
6.69171e-06
0.000363365
6.48977e-06
0.000357088
6.27647e-06
0.000351029
6.0597e-06
0.0003452
5.82892e-06
0.000339601
5.59887e-06
0.000334251
5.34973e-06
0.000329142
5.10877e-06
0.000324303
4.83902e-06
0.000319712
4.59077e-06
0.000315417
4.29527e-06
0.000311372
4.04549e-06
0.000307659
3.71279e-06
0.000304187
3.47167e-06
0.000301112
3.07527e-06
0.000298247
2.86516e-06
0.00029591
2.33709e-06
0.000293697
2.21305e-06
0.000292354
1.34309e-06
0.000290781
1.57296e-06
0.000290884
-1.03369e-07
0.000289628
1.25555e-06
-3.13543e-06
0.000292764
0.000667555
8.04621e-07
0.000669117
2.34323e-06
0.000670847
3.59675e-06
0.000672511
4.57893e-06
0.000674032
5.36415e-06
0.000675394
6.02116e-06
0.000676594
6.59162e-06
0.00067762
7.09392e-06
0.000678462
7.53509e-06
0.000679111
7.91955e-06
0.00067957
8.25289e-06
0.000679841
8.54202e-06
0.000679934
8.79394e-06
0.000679857
9.01447e-06
0.000679617
9.20792e-06
0.000679223
9.37718e-06
0.00067868
9.52438e-06
0.000677996
9.65105e-06
0.000677179
9.75863e-06
0.000676234
9.84815e-06
0.000675169
9.9207e-06
0.000673991
9.97681e-06
0.000672705
1.00173e-05
0.000671318
1.00422e-05
0.000669836
1.00522e-05
0.000668267
1.00469e-05
0.000666615
1.00272e-05
0.000664887
9.9922e-06
0.00066309
9.94308e-06
0.00066123
9.87822e-06
0.000659312
9.79966e-06
0.000657345
9.70461e-06
0.000655333
9.5965e-06
0.000653285
9.4707e-06
0.000651205
9.33298e-06
0.000649103
9.17571e-06
0.000646982
9.00856e-06
0.000644855
8.8189e-06
0.000642722
8.62292e-06
0.000640598
8.39964e-06
0.000638482
8.17608e-06
0.000636394
7.91738e-06
0.000634324
7.66849e-06
0.000632302
7.3715e-06
0.00063031
7.10111e-06
0.000628388
6.76105e-06
0.000626503
6.47544e-06
0.000624714
6.0843e-06
0.000622966
5.79374e-06
0.00062134
5.3382e-06
0.000619753
5.05952e-06
0.00061831
4.51814e-06
0.000616896
4.2787e-06
0.000615614
3.61886e-06
0.000614366
3.46176e-06
0.000613068
2.64077e-06
0.000612015
2.62613e-06
0.00061029
1.62189e-06
0.000609736
1.80877e-06
6.88169e-07
0.000605913
0.00066695
5.21134e-07
0.000667815
1.47799e-06
0.000669051
2.36079e-06
0.000670471
3.15963e-06
0.000671964
3.87033e-06
0.000673485
4.50051e-06
0.000675014
5.06237e-06
0.000676541
5.56701e-06
0.000678054
6.02222e-06
0.000679541
6.43287e-06
0.000680991
6.80248e-06
0.000682399
7.13429e-06
0.000683761
7.4318e-06
0.000685077
7.69845e-06
0.000686348
7.9375e-06
0.000687573
8.15153e-06
0.000688755
8.34276e-06
0.000689893
8.51271e-06
0.000690989
8.66284e-06
0.000692043
8.79401e-06
0.000693056
8.90739e-06
0.00069403
9.00335e-06
0.000694964
9.08289e-06
0.00069586
9.14591e-06
0.000696719
9.19334e-06
0.000697542
9.22459e-06
0.000698328
9.24075e-06
0.00069908
9.24062e-06
0.000699797
9.22572e-06
0.000700481
9.19404e-06
0.000701133
9.14786e-06
0.000701754
9.08409e-06
0.000702344
9.00619e-06
0.000702905
8.90947e-06
0.000703439
8.79931e-06
0.000703946
8.66863e-06
0.000704429
8.52567e-06
0.000704888
8.35985e-06
0.000705327
8.1837e-06
0.000705745
7.98147e-06
0.000706149
7.77198e-06
0.000706535
7.53197e-06
0.000706914
7.28937e-06
0.000707275
7.01015e-06
0.000707641
6.73516e-06
0.000707987
6.4153e-06
0.000708353
6.1093e-06
0.00070869
5.74766e-06
0.000709071
5.41279e-06
0.0007094
5.00895e-06
0.000709811
4.64808e-06
0.000710126
4.20353e-06
0.000710585
3.81995e-06
0.000710863
3.34089e-06
0.000711386
2.938e-06
0.000711584
2.44268e-06
0.000712187
2.02348e-06
0.00071225
1.55925e-06
0.000712941
1.11762e-06
7.82869e-07
0.000712846
0.000666853
3.34618e-07
0.000667306
1.02517e-06
0.000667966
1.70089e-06
0.000668785
2.34099e-06
0.000669719
2.93625e-06
0.000670735
3.4837e-06
0.000671813
3.98488e-06
0.000672937
4.44342e-06
0.000674096
4.86319e-06
0.000675281
5.24739e-06
0.000676485
5.59851e-06
0.000677701
5.91856e-06
0.000678923
6.20949e-06
0.000680148
6.47324e-06
0.000681374
6.71181e-06
0.000682599
6.92699e-06
0.000683821
7.12043e-06
0.00068504
7.29345e-06
0.000686256
7.4472e-06
0.000687467
7.58253e-06
0.000688674
7.70029e-06
0.000689877
7.80099e-06
0.000691074
7.88527e-06
0.000692267
7.95337e-06
0.000693454
8.00579e-06
0.000694636
8.0425e-06
0.000695813
8.06389e-06
0.000696984
8.06974e-06
0.00069815
8.06034e-06
0.000699308
8.03531e-06
0.000700461
7.99489e-06
0.000701607
7.9386e-06
0.000702746
7.8666e-06
0.000703877
7.77839e-06
0.000705003
7.67396e-06
0.000706118
7.55302e-06
0.000707229
7.41511e-06
0.000708328
7.26057e-06
0.000709424
7.08796e-06
0.000710506
6.899e-06
0.000711588
6.6903e-06
0.000712654
6.46628e-06
0.000713723
6.21987e-06
0.000714773
5.96059e-06
0.000715834
5.67452e-06
0.000716868
5.38048e-06
0.000717925
5.05226e-06
0.000718948
4.72527e-06
0.000720009
4.35168e-06
0.000721022
3.99593e-06
0.000722097
3.57288e-06
0.000723104
3.19693e-06
0.000724204
2.71921e-06
0.000725207
2.33872e-06
0.000726346
1.79892e-06
0.000727348
1.44014e-06
0.000728545
8.26399e-07
0.000729573
5.31085e-07
0.000730878
-1.86899e-07
-3.74147e-07
0.000732035
0.000666738
2.63247e-07
0.000666968
7.95578e-07
0.000667351
1.31771e-06
0.000667869
1.82243e-06
0.000668502
2.30384e-06
0.000669227
2.7583e-06
0.000670028
3.18431e-06
0.000670889
3.58192e-06
0.0006718
3.95197e-06
0.000672752
4.29555e-06
0.000673737
4.61369e-06
0.000674748
4.90735e-06
0.00067578
5.17743e-06
0.000676829
5.42487e-06
0.00067789
5.65066e-06
0.000678961
5.8558e-06
0.00068004
6.04125e-06
0.000681126
6.2079e-06
0.000682217
6.35648e-06
0.000683311
6.48769e-06
0.00068441
6.60203e-06
0.000685511
6.70005e-06
0.000686614
6.78202e-06
0.000687719
6.8484e-06
0.000688825
6.89926e-06
0.000689933
6.935e-06
0.000691041
6.95542e-06
0.00069215
6.96099e-06
0.000693259
6.95116e-06
0.000694368
6.92661e-06
0.000695477
6.88631e-06
0.000696584
6.83133e-06
0.00069769
6.75997e-06
0.000698795
6.67403e-06
0.000699898
6.57068e-06
0.000700998
6.45305e-06
0.000702097
6.31652e-06
0.000703191
6.16637e-06
0.000704284
5.99516e-06
0.000705371
5.81171e-06
0.000706457
5.60399e-06
0.000707537
5.38659e-06
0.000708617
5.14017e-06
0.000709689
4.88856e-06
0.000710762
4.60075e-06
0.000711828
4.31539e-06
0.000712897
3.98284e-06
0.000713957
3.66528e-06
0.000715025
3.28336e-06
0.000716085
2.93651e-06
0.000717159
2.49813e-06
0.00071823
2.12665e-06
0.000719328
1.62069e-06
0.000720434
1.23247e-06
0.000721592
6.41785e-07
0.000722783
2.49158e-07
0.000724039
-4.29523e-07
0.000725354
-7.84249e-07
0.000726769
-1.60237e-06
-1.9176e-06
0.000728313
0.000666723
2.06699e-07
0.000666896
6.22476e-07
0.000667178
1.03616e-06
0.000667559
1.44113e-06
0.000668029
1.83361e-06
0.000668577
2.21063e-06
0.000669191
2.57007e-06
0.000669863
2.91067e-06
0.000670583
3.23181e-06
0.000671345
3.53332e-06
0.000672143
3.81524e-06
0.000672973
4.07778e-06
0.000673829
4.32126e-06
0.000674708
4.54608e-06
0.000675606
4.75265e-06
0.00067652
4.94149e-06
0.000677448
5.11305e-06
0.000678388
5.26787e-06
0.000679339
5.40632e-06
0.000680297
5.5289e-06
0.000681264
5.63586e-06
0.000682236
5.72763e-06
0.000683214
5.80431e-06
0.000684196
5.86629e-06
0.000685182
5.91348e-06
0.00068617
5.94631e-06
0.000687161
5.96443e-06
0.000688154
5.96837e-06
0.000689148
5.95746e-06
0.000690142
5.93245e-06
0.000691136
5.89219e-06
0.000692129
5.83786e-06
0.000693122
5.7676e-06
0.000694112
5.68333e-06
0.000695101
5.5821e-06
0.000696087
5.46705e-06
0.00069707
5.33358e-06
0.00069805
5.18673e-06
0.000699025
5.01941e-06
0.000699997
4.83966e-06
0.000700965
4.63648e-06
0.000701929
4.42267e-06
0.000702888
4.18115e-06
0.000703844
3.93214e-06
0.000704796
3.64913e-06
0.000705747
3.36388e-06
0.000706695
3.03528e-06
0.000707647
2.71318e-06
0.000708596
2.33398e-06
0.000709557
1.97578e-06
0.000710515
1.54041e-06
0.000711492
1.14953e-06
0.000712461
6.51708e-07
0.000713457
2.36257e-07
0.000714448
-3.48902e-07
0.000715499
-8.02026e-07
0.000716559
-1.48966e-06
0.000717725
-1.95012e-06
0.000718889
-2.76651e-06
-3.2198e-06
0.000720191
0.000666708
1.65448e-07
0.000666832
4.98778e-07
0.000667036
8.31952e-07
0.000667317
1.16031e-06
0.000667669
1.48125e-06
0.000668087
1.79257e-06
0.000668565
2.0925e-06
0.000669096
2.37973e-06
0.000669674
2.65343e-06
0.000670294
2.91324e-06
0.000670952
3.15777e-06
0.000671642
3.38702e-06
0.000672362
3.60109e-06
0.000673108
3.80005e-06
0.000673877
3.98396e-06
0.000674666
4.15298e-06
0.000675471
4.30727e-06
0.000676292
4.44707e-06
0.000677126
4.57253e-06
0.000677971
4.68392e-06
0.000678826
4.78131e-06
0.000679688
4.86497e-06
0.000680558
4.93489e-06
0.000681433
4.99131e-06
0.000682312
5.0341e-06
0.000683195
5.06353e-06
0.00068408
5.07929e-06
0.000684967
5.08174e-06
0.000685854
5.0703e-06
0.000686741
5.04549e-06
0.000687626
5.0064e-06
0.000688511
4.95383e-06
0.000689392
4.88635e-06
0.00069027
4.80525e-06
0.000691144
4.70833e-06
0.000692013
4.59768e-06
0.000692877
4.46998e-06
0.000693735
4.32854e-06
0.000694586
4.16832e-06
0.000695431
3.99463e-06
0.000696268
3.79978e-06
0.000697098
3.59215e-06
0.000697919
3.36006e-06
0.000698735
3.1167e-06
0.00069954
2.84426e-06
0.00070034
2.56341e-06
0.000701128
2.24686e-06
0.000701915
1.92663e-06
0.000702688
1.5605e-06
0.000703466
1.19789e-06
0.000704233
7.73338e-07
0.000705019
3.63527e-07
0.000705801
-1.29708e-07
0.000706616
-5.78939e-07
0.000707415
-1.14792e-06
0.000708262
-1.64898e-06
0.000709092
-2.3194e-06
0.00071001
-2.8681e-06
0.000710905
-3.66224e-06
-4.24689e-06
0.000711932
0.000666698
1.3385e-07
0.000666794
4.03342e-07
0.000666952
6.73303e-07
0.000667172
9.4043e-07
0.000667451
1.20291e-06
0.000667784
1.45916e-06
0.000668169
1.70776e-06
0.000668601
1.94758e-06
0.000669077
2.17767e-06
0.000669593
2.39725e-06
0.000670145
2.60564e-06
0.000670729
2.80238e-06
0.000671343
2.98719e-06
0.000671983
3.15991e-06
0.000672647
3.32043e-06
0.000673331
3.4687e-06
0.000674034
3.60465e-06
0.000674753
3.72833e-06
0.000675485
3.83971e-06
0.00067623
3.93887e-06
0.000676986
4.0258e-06
0.00067775
4.10059e-06
0.000678522
4.16316e-06
0.0006793
4.21363e-06
0.000680082
4.25184e-06
0.000680868
4.27791e-06
0.000681655
4.2916e-06
0.000682444
4.29304e-06
0.000683232
4.28184e-06
0.00068402
4.25821e-06
0.000684805
4.22155e-06
0.000685586
4.17219e-06
0.000686363
4.10923e-06
0.000687135
4.03323e-06
0.000687901
3.94287e-06
0.000688659
3.83907e-06
0.00068941
3.7199e-06
0.000690151
3.58684e-06
0.000690882
3.43709e-06
0.000691604
3.27302e-06
0.000692313
3.09049e-06
0.000693012
2.89332e-06
0.000693697
2.67531e-06
0.000694371
2.4425e-06
0.00069503
2.18567e-06
0.000695679
1.9142e-06
0.000696311
1.61441e-06
0.000696937
1.3009e-06
0.000697544
9.53458e-07
0.000698147
5.94981e-07
0.000698724
1.9617e-07
0.000699303
-2.15415e-07
0.00069986
-6.8629e-07
0.000700437
-1.15621e-06
0.000700988
-1.69869e-06
0.00070157
-2.23153e-06
0.000702115
-2.86447e-06
0.000702715
-3.46757e-06
0.000703261
-4.20849e-06
-4.88319e-06
0.000703897
0.000666692
1.08063e-07
0.00066677
3.25702e-07
0.000666899
5.44099e-07
0.000667079
7.6081e-07
0.000667307
9.74531e-07
0.000667582
1.18407e-06
0.000667902
1.38836e-06
0.000668263
1.58643e-06
0.000668663
1.77745e-06
0.0006691
1.96071e-06
0.00066957
2.13564e-06
0.00067007
2.30174e-06
0.000670599
2.45861e-06
0.000671153
2.60596e-06
0.00067173
2.74355e-06
0.000672327
2.87119e-06
0.000672943
2.98873e-06
0.000673575
3.09607e-06
0.000674222
3.1931e-06
0.000674881
3.27977e-06
0.000675551
3.35598e-06
0.00067623
3.42172e-06
0.000676916
3.47688e-06
0.000677608
3.52145e-06
0.000678305
3.55529e-06
0.000679004
3.57839e-06
0.000679705
3.59056e-06
0.000680407
3.59176e-06
0.000681107
3.58177e-06
0.000681804
3.56052e-06
0.000682498
3.52769e-06
0.000683187
3.48323e-06
0.00068387
3.4267e-06
0.000684545
3.35805e-06
0.000685211
3.27667e-06
0.000685868
3.18257e-06
0.000686513
3.07494e-06
0.000687146
2.95384e-06
0.000687765
2.81818e-06
0.000688369
2.66816e-06
0.000688958
2.50231e-06
0.00068953
2.321e-06
0.000690083
2.12231e-06
0.000690619
1.90686e-06
0.000691132
1.67213e-06
0.000691627
1.41912e-06
0.000692097
1.14451e-06
0.000692548
8.49765e-07
0.000692971
5.30568e-07
0.000693377
1.89126e-07
0.000693756
-1.8287e-07
0.000694124
-5.82963e-07
0.000694453
-1.01603e-06
0.000694776
-1.47912e-06
0.000695058
-1.98067e-06
0.000695344
-2.51699e-06
0.000695578
-3.09879e-06
0.000695832
-3.72152e-06
0.000696021
-4.39766e-06
-5.11966e-06
0.000696258
0.000666688
8.63202e-08
0.000666754
2.60328e-07
0.000666863
4.35251e-07
0.000667014
6.09242e-07
0.000667207
7.81332e-07
0.000667441
9.50628e-07
0.000667713
1.1163e-06
0.000668022
1.27759e-06
0.000668365
1.43382e-06
0.000668742
1.58439e-06
0.000669149
1.72878e-06
0.000669584
1.86652e-06
0.000670045
1.99721e-06
0.000670531
2.12053e-06
0.000671038
2.23619e-06
0.000671565
2.34395e-06
0.00067211
2.4436e-06
0.000672671
2.53498e-06
0.000673247
2.61793e-06
0.000673834
2.69232e-06
0.000674432
2.75805e-06
0.000675039
2.81499e-06
0.000675653
2.86306e-06
0.000676272
2.90214e-06
0.000676895
2.93212e-06
0.00067752
2.95289e-06
0.000678147
2.96433e-06
0.000678772
2.96628e-06
0.000679395
2.95862e-06
0.000680015
2.94114e-06
0.000680629
2.91369e-06
0.000681236
2.87598e-06
0.000681835
2.82787e-06
0.000682424
2.76895e-06
0.000683001
2.69909e-06
0.000683566
2.61772e-06
0.000684116
2.52478e-06
0.000684651
2.4194e-06
0.000685167
2.3017e-06
0.000685665
2.1704e-06
0.000686142
2.02591e-06
0.000686596
1.86627e-06
0.000687026
1.69251e-06
0.000687431
1.50156e-06
0.000687808
1.29554e-06
0.000688158
1.06959e-06
0.000688474
8.27784e-07
0.000688762
5.62475e-07
0.000689011
2.81339e-07
0.000689227
-2.71612e-08
0.000689405
-3.6039e-07
0.00068955
-7.28703e-07
0.000689646
-1.11206e-06
0.000689711
-1.54428e-06
0.000689719
-1.98826e-06
0.0006897
-2.49803e-06
0.000689613
-3.01122e-06
0.000689506
-3.61509e-06
0.000689314
-4.20591e-06
-4.92325e-06
0.000689118
0.000666686
6.74583e-08
0.000666742
2.03654e-07
0.000666837
3.40856e-07
0.000666968
4.77671e-07
0.000667136
6.13376e-07
0.000667339
7.47298e-07
0.000667577
8.78805e-07
0.000667847
1.00731e-06
0.000668149
1.13227e-06
0.00066848
1.2532e-06
0.000668839
1.36964e-06
0.000669224
1.48121e-06
0.000669634
1.58754e-06
0.000670066
1.68831e-06
0.000670519
1.78326e-06
0.000670991
1.87213e-06
0.00067148
1.95472e-06
0.000671984
2.03082e-06
0.000672502
2.10029e-06
0.000673031
2.16296e-06
0.00067357
2.21871e-06
0.000674118
2.26739e-06
0.000674672
2.30892e-06
0.000675231
2.34312e-06
0.000675793
2.36994e-06
0.000676357
2.38919e-06
0.000676921
2.40082e-06
0.000677482
2.40459e-06
0.00067804
2.40047e-06
0.000678593
2.38817e-06
0.000679139
2.36766e-06
0.000679677
2.33854e-06
0.000680204
2.30087e-06
0.000680719
2.25403e-06
0.00068122
2.19822e-06
0.000681705
2.13254e-06
0.000682172
2.05741e-06
0.00068262
1.97148e-06
0.000683046
1.87558e-06
0.000683449
1.76765e-06
0.000683826
1.64919e-06
0.000684175
1.51705e-06
0.000684494
1.3739e-06
0.00068478
1.21478e-06
0.000685031
1.04438e-06
0.000685246
8.5481e-07
0.00068542
6.54157e-07
0.000685552
4.29886e-07
0.000685638
1.95794e-07
0.00068568
-6.93316e-08
0.000685667
-3.46796e-07
0.000685602
-6.64319e-07
0.000685475
-9.85056e-07
0.000685293
-1.36201e-06
0.000685038
-1.73336e-06
0.000684724
-2.18403e-06
0.000684325
-2.61218e-06
0.000683865
-3.15482e-06
0.000683303
-3.64463e-06
-4.30197e-06
0.000682682
0.000666683
5.06404e-08
0.000666734
1.5314e-07
0.000666818
2.56699e-07
0.000666936
3.60294e-07
0.000667086
4.63394e-07
0.000667267
5.65501e-07
0.00066748
6.66144e-07
0.000667722
7.64879e-07
0.000667993
8.61291e-07
0.000668292
9.54993e-07
0.000668616
1.04563e-06
0.000668964
1.13288e-06
0.000669335
1.21645e-06
0.000669727
1.29605e-06
0.000670139
1.37147e-06
0.000670569
1.44246e-06
0.000671015
1.50886e-06
0.000671475
1.57046e-06
0.000671948
1.62713e-06
0.000672432
1.67871e-06
0.000672926
1.72509e-06
0.000673427
1.76612e-06
0.000673934
1.80171e-06
0.000674446
1.83172e-06
0.00067496
1.85608e-06
0.000675474
1.87462e-06
0.000675988
1.88731e-06
0.000676498
1.89392e-06
0.000677004
1.89447e-06
0.000677504
1.88865e-06
0.000677995
1.87652e-06
0.000678476
1.85766e-06
0.000678945
1.83223e-06
0.000679399
1.7996e-06
0.000679837
1.76009e-06
0.000680257
1.71279e-06
0.000680656
1.65829e-06
0.000681032
1.59518e-06
0.000681383
1.52455e-06
0.000681707
1.44421e-06
0.000682
1.35605e-06
0.00068226
1.25667e-06
0.000682485
1.14928e-06
0.000682671
1.02856e-06
0.000682816
8.99903e-07
0.000682916
7.54882e-07
0.000682967
6.0257e-07
0.000682968
4.29575e-07
0.000682912
2.51095e-07
0.000682796
4.65045e-08
0.000682615
-1.65157e-07
0.000682365
-4.14253e-07
0.00068204
-6.59946e-07
0.000681636
-9.58704e-07
0.000681146
-1.24313e-06
0.000680566
-1.60408e-06
0.000679885
-1.93127e-06
0.000679102
-2.37157e-06
0.000678201
-2.74395e-06
-3.28569e-06
0.000677185
0.000666682
3.52206e-08
0.000666728
1.06831e-07
0.000666806
1.79525e-07
0.000666913
2.52603e-07
0.000667051
3.25693e-07
0.000667218
3.98447e-07
0.000667414
4.70532e-07
0.000667637
5.4163e-07
0.000667887
6.11442e-07
0.000668162
6.79686e-07
0.000668462
7.46101e-07
0.000668784
8.10439e-07
0.000669128
8.72477e-07
0.000669492
9.32005e-07
0.000669875
9.88836e-07
0.000670274
1.04279e-06
0.000670689
1.09373e-06
0.000671118
1.14149e-06
0.00067156
1.18595e-06
0.000672011
1.227e-06
0.000672472
1.26452e-06
0.00067294
1.29842e-06
0.000673413
1.32861e-06
0.000673889
1.35498e-06
0.000674368
1.37747e-06
0.000674847
1.39597e-06
0.000675324
1.41045e-06
0.000675797
1.42074e-06
0.000676264
1.42685e-06
0.000676724
1.42858e-06
0.000677175
1.42597e-06
0.000677614
1.41872e-06
0.000678039
1.40699e-06
0.000678448
1.39029e-06
0.00067884
1.36892e-06
0.00067921
1.34217e-06
0.000679558
1.31058e-06
0.00067988
1.27304e-06
0.000680174
1.23051e-06
0.000680437
1.18123e-06
0.000680666
1.12684e-06
0.000680858
1.0646e-06
0.00068101
9.97257e-07
0.000681119
9.20471e-07
0.00068118
8.38813e-07
0.000681189
7.45406e-07
0.000681144
6.47802e-07
0.000681038
5.3504e-07
0.00068087
4.19576e-07
0.000680633
2.83871e-07
0.000680319
1.4867e-07
0.000679918
-1.36622e-08
0.000679433
-1.75231e-07
0.00067885
-3.756e-07
0.000678168
-5.60668e-07
0.000677369
-8.05293e-07
0.000676456
-1.01851e-06
0.000675406
-1.3209e-06
0.000674225
-1.5629e-06
-1.93987e-06
0.000672879
0.000666681
2.06614e-08
0.000666725
6.31043e-08
0.000666798
1.06635e-07
0.0006669
1.50849e-07
0.00066703
1.9552e-07
0.000667188
2.40432e-07
0.000667373
2.85379e-07
0.000667584
3.30159e-07
0.000667821
3.74585e-07
0.000668082
4.18474e-07
0.000668367
4.61657e-07
0.000668673
5.03973e-07
0.000669001
5.45272e-07
0.000669347
5.85414e-07
0.000669712
6.24271e-07
0.000670093
6.61724e-07
0.000670489
6.97668e-07
0.000670898
7.32e-07
0.00067132
7.64636e-07
0.000671751
7.9549e-07
0.000672191
8.24498e-07
0.000672638
8.51585e-07
0.00067309
8.76707e-07
0.000673545
8.99791e-07
0.000674002
9.20809e-07
0.000674458
9.39689e-07
0.000674912
9.56423e-07
0.000675362
9.70921e-07
0.000675806
9.83204e-07
0.000676241
9.93158e-07
0.000676666
1.00084e-06
0.000677079
1.00609e-06
0.000677477
1.00903e-06
0.000677858
1.00941e-06
0.000678219
1.00743e-06
0.000678559
1.00271e-06
0.000678874
9.95602e-07
0.000679161
9.85512e-07
0.000679419
9.73024e-07
0.000679643
9.57201e-07
0.00067983
9.39015e-07
0.000679978
9.16969e-07
0.000680083
8.92677e-07
0.000680139
8.63745e-07
0.000680145
8.32822e-07
0.000680095
7.96089e-07
0.000679985
7.5787e-07
0.000679808
7.12061e-07
0.000679561
6.6573e-07
0.000679236
6.0902e-07
0.000678831
5.53563e-07
0.000678335
4.83171e-07
0.000677743
4.16787e-07
0.000677038
3.29386e-07
0.000676225
2.52294e-07
0.000675275
1.44312e-07
0.0006742
5.63652e-08
0.00067296
-8.12583e-08
0.000671581
-1.83081e-07
-3.5847e-07
0.000669999
0.000666681
6.46722e-09
0.000666723
2.05157e-08
0.000666794
3.56209e-08
0.000666894
5.16913e-08
0.000667021
6.86314e-08
0.000667175
8.63506e-08
0.000667355
1.04761e-07
0.000667562
1.23778e-07
0.000667793
1.43318e-07
0.000668048
1.63301e-07
0.000668326
1.83648e-07
0.000668626
2.04285e-07
0.000668946
2.2514e-07
0.000669285
2.46144e-07
0.000669642
2.67236e-07
0.000670016
2.88355e-07
0.000670404
3.09449e-07
0.000670805
3.30468e-07
0.000671219
3.51369e-07
0.000671642
3.72111e-07
0.000672074
3.92663e-07
0.000672512
4.12997e-07
0.000672956
4.33097e-07
0.000673403
4.52968e-07
0.000673851
4.7262e-07
0.000674299
4.92017e-07
0.000674744
5.11152e-07
0.000675185
5.30037e-07
0.000675619
5.48688e-07
0.000676045
5.67126e-07
0.000676461
5.85378e-07
0.000676863
6.03476e-07
0.000677251
6.21461e-07
0.000677621
6.3938e-07
0.000677971
6.57289e-07
0.000678299
6.75249e-07
0.000678601
6.93313e-07
0.000678875
7.11534e-07
0.000679118
7.29991e-07
0.000679326
7.48739e-07
0.000679498
7.67866e-07
0.000679627
7.87442e-07
0.000679712
8.07591e-07
0.000679748
8.28367e-07
0.00067973
8.49919e-07
0.000679654
8.7226e-07
0.000679517
8.95595e-07
0.000679309
9.1987e-07
0.000679029
9.45384e-07
0.000678666
9.72015e-07
0.000678219
1.00018e-06
0.000677673
1.02972e-06
0.000677028
1.06122e-06
0.000676264
1.09412e-06
0.000675387
1.12927e-06
0.000674365
1.16592e-06
0.000673216
1.20502e-06
0.00067189
1.24547e-06
0.000670418
1.28895e-06
1.33421e-06
0.000668725
0.000666681
-7.76785e-09
0.000666724
-2.2307e-08
0.000666795
-3.57631e-08
0.000666895
-4.79974e-08
0.000667022
-5.89639e-08
0.000667177
-6.86224e-08
0.000667359
-7.6938e-08
0.000667567
-8.38806e-08
0.000667799
-8.94261e-08
0.000668056
-9.35546e-08
0.000668336
-9.6252e-08
0.000668638
-9.75067e-08
0.00066896
-9.73126e-08
0.000669302
-9.56634e-08
0.000669662
-9.25586e-08
0.000670038
-8.79937e-08
0.00067043
-8.19708e-08
0.000670835
-7.4484e-08
0.000671252
-6.5536e-08
0.000671679
-5.51154e-08
0.000672115
-4.32276e-08
0.000672558
-2.98587e-08
0.000673006
-1.50344e-08
0.000673458
1.24584e-09
0.000673911
1.94374e-08
0.000674364
3.91384e-08
0.000674814
6.04584e-08
0.000675261
8.35165e-08
0.000675701
1.08323e-07
0.000676133
1.35036e-07
0.000676555
1.63642e-07
0.000676964
1.94366e-07
0.000677358
2.27158e-07
0.000677735
2.62344e-07
0.000678093
2.9982e-07
0.000678428
3.40111e-07
0.000678738
3.83069e-07
0.00067902
4.29389e-07
0.000679272
4.78565e-07
0.000679489
5.31627e-07
0.000679669
5.87796e-07
0.000679808
6.48701e-07
0.000679902
7.12984e-07
0.000679948
7.83138e-07
0.000679941
8.56832e-07
0.000679875
9.3792e-07
0.000679748
1.02248e-06
0.000679551
1.11656e-06
0.000679283
1.21367e-06
0.000678932
1.32336e-06
0.000678497
1.4349e-06
0.000677963
1.56352e-06
0.000677333
1.69153e-06
0.000676584
1.84332e-06
0.000675723
1.9899e-06
0.000674718
2.17075e-06
0.000673585
2.33809e-06
0.000672275
2.55598e-06
0.000670819
2.74504e-06
3.00978e-06
0.000669143
0.000666681
-2.25265e-08
0.000666726
-6.66526e-08
0.0006668
-1.09721e-07
0.000666903
-1.51298e-07
0.000667035
-1.91192e-07
0.000667196
-2.29227e-07
0.000667384
-2.6524e-07
0.000667599
-2.99081e-07
0.000667841
-3.30614e-07
0.000668107
-3.59715e-07
0.000668397
-3.86276e-07
0.000668709
-4.102e-07
0.000669044
-4.31402e-07
0.000669398
-4.49805e-07
0.00066977
-4.65348e-07
0.00067016
-4.77967e-07
0.000670566
-4.87617e-07
0.000670986
-4.94244e-07
0.000671418
-4.97813e-07
0.000671861
-4.98268e-07
0.000672314
-4.95581e-07
0.000672773
-4.89681e-07
0.000673239
-4.80536e-07
0.000673708
-4.68034e-07
0.00067418
-4.52133e-07
0.000674652
-4.32735e-07
0.000675122
-4.09823e-07
0.000675589
-3.83208e-07
0.00067605
-3.5288e-07
0.000676503
-3.1857e-07
0.000676947
-2.80304e-07
0.000677379
-2.37701e-07
0.000677798
-1.90872e-07
0.000678199
-1.39292e-07
0.000678582
-8.32599e-08
0.000678944
-2.21529e-08
0.000679283
4.4434e-08
0.000679595
1.17573e-07
0.000679878
1.95913e-07
0.000680128
2.81544e-07
0.000680342
3.73137e-07
0.000680518
4.7346e-07
0.000680651
5.79968e-07
0.000680737
6.9705e-07
0.000680773
8.20508e-07
0.000680754
9.57243e-07
0.000680676
1.10019e-06
0.000680532
1.26012e-06
0.000680321
1.42538e-06
0.000680031
1.61301e-06
0.000679662
1.80381e-06
0.000679201
2.02494e-06
0.000678647
2.24491e-06
0.000677983
2.50719e-06
0.000677213
2.7602e-06
0.00067631
3.07387e-06
0.000675285
3.36358e-06
0.000674098
3.74229e-06
0.000672773
4.07066e-06
4.53181e-06
0.000671251
0.000666682
-3.82552e-08
0.00066673
-1.13951e-07
0.000666809
-1.88624e-07
0.000666919
-2.61512e-07
0.00066706
-3.32258e-07
0.000667231
-4.00533e-07
0.000667432
-4.66033e-07
0.000667661
-5.28476e-07
0.000667918
-5.87606e-07
0.000668202
-6.43191e-07
0.000668511
-6.95028e-07
0.000668843
-7.42934e-07
0.000669199
-7.8675e-07
0.000669575
-8.26336e-07
0.000669971
-8.61574e-07
0.000670386
-8.92354e-07
0.000670817
-9.1859e-07
0.000671263
-9.40191e-07
0.000671722
-9.57092e-07
0.000672193
-9.69206e-07
0.000672674
-9.7648e-07
0.000673163
-9.78815e-07
0.000673659
-9.76162e-07
0.000674159
-9.68401e-07
0.000674662
-9.55489e-07
0.000675167
-9.37254e-07
0.000675671
-9.13661e-07
0.000676172
-8.84474e-07
0.000676669
-8.49673e-07
0.000677159
-8.08922e-07
0.000677641
-7.6224e-07
0.000678112
-7.09146e-07
0.000678571
-6.4974e-07
0.000679015
-5.83322e-07
0.000679442
-5.10118e-07
0.000679849
-4.29072e-07
0.000680234
-3.40662e-07
0.000680595
-2.43508e-07
0.00068093
-1.38779e-07
0.000681236
-2.46395e-08
0.00068151
9.95404e-08
0.000681747
2.35832e-07
0.000681946
3.81041e-07
0.000682103
5.40681e-07
0.000682213
7.09768e-07
0.000682274
8.96596e-07
0.000682282
1.09281e-06
0.00068223
1.31148e-06
0.000682117
1.53879e-06
0.000681935
1.79524e-06
0.00068168
2.05813e-06
0.000681345
2.35994e-06
0.000680927
2.66351e-06
0.000680413
3.02053e-06
0.000679803
3.37032e-06
0.000679081
3.7956e-06
0.000678248
4.19718e-06
0.000677282
4.70792e-06
0.000676188
5.16528e-06
5.78288e-06
0.000674936
0.000666684
-5.55017e-08
0.000666736
-1.65834e-07
0.000666822
-2.75174e-07
0.000666943
-3.8238e-07
0.000667098
-4.86898e-07
0.000667286
-5.88216e-07
0.000667505
-6.85864e-07
0.000667756
-7.79411e-07
0.000668037
-8.6847e-07
0.000668347
-9.52697e-07
0.000668683
-1.03179e-06
0.000669046
-1.10549e-06
0.000669433
-1.17358e-06
0.000669842
-1.23586e-06
0.000670273
-1.29217e-06
0.000670723
-1.34236e-06
0.000671191
-1.38635e-06
0.000671675
-1.424e-06
0.000672173
-1.45526e-06
0.000672683
-1.48001e-06
0.000673205
-1.49821e-06
0.000673736
-1.50974e-06
0.000674275
-1.51456e-06
0.000674819
-1.51253e-06
0.000675367
-1.5036e-06
0.000675917
-1.4876e-06
0.000676468
-1.46446e-06
0.000677017
-1.43395e-06
0.000677564
-1.39599e-06
0.000678105
-1.35026e-06
0.00067864
-1.2967e-06
0.000679165
-1.23484e-06
0.00067968
-1.16468e-06
0.000680182
-1.08553e-06
0.00068067
-9.97521e-07
0.00068114
-8.99651e-07
0.000681592
-7.9228e-07
0.000682022
-6.7396e-07
0.000682429
-5.45375e-07
0.000682809
-4.04397e-07
0.000683161
-2.52493e-07
0.000683484
-8.69767e-08
0.000683773
9.12723e-08
0.000684026
2.87936e-07
0.000684239
4.96977e-07
0.000684409
7.26324e-07
0.000684533
9.69043e-07
0.000684608
1.23686e-06
0.000684628
1.51803e-06
0.000684593
1.83091e-06
0.000684495
2.1562e-06
0.000684332
2.52262e-06
0.000684097
2.89849e-06
0.000683788
3.32915e-06
0.000683396
3.76296e-06
0.000682919
4.2718e-06
0.000682345
4.77148e-06
0.000681677
5.37632e-06
0.000680893
5.94892e-06
6.67103e-06
0.000680005
0.000666686
-7.49084e-08
0.000666744
-2.24247e-07
0.000666842
-3.72607e-07
0.000666978
-5.1838e-07
0.000667152
-6.60759e-07
0.000667363
-7.99006e-07
0.000667609
-9.32443e-07
0.00066789
-1.06046e-06
0.000668204
-1.18253e-06
0.00066855
-1.2982e-06
0.000668925
-1.40707e-06
0.000669328
-1.50881e-06
0.000669758
-1.60317e-06
0.000670212
-1.68991e-06
0.000670689
-1.76887e-06
0.000671186
-1.83991e-06
0.000671703
-1.90292e-06
0.000672237
-1.95781e-06
0.000672786
-2.00451e-06
0.000673349
-2.04295e-06
0.000673924
-2.07308e-06
0.000674509
-2.09482e-06
0.000675102
-2.10812e-06
0.000675703
-2.11289e-06
0.000676308
-2.10905e-06
0.000676917
-2.09647e-06
0.000677528
-2.07505e-06
0.000678138
-2.0446e-06
0.000678747
-2.005e-06
0.000679353
-1.95596e-06
0.000679954
-1.89735e-06
0.000680548
-1.82878e-06
0.000681133
-1.75009e-06
0.000681708
-1.66076e-06
0.000682271
-1.56064e-06
0.000682821
-1.44902e-06
0.000683354
-1.3258e-06
0.00068387
-1.18999e-06
0.000684366
-1.0416e-06
0.000684841
-8.79301e-07
0.000685292
-7.03326e-07
0.000685717
-5.11766e-07
0.000686114
-3.05519e-07
0.000686484
-8.25674e-08
0.000686822
1.59104e-07
0.000687126
4.22637e-07
0.000687391
7.039e-07
0.000687618
1.00945e-06
0.000687802
1.33483e-06
0.000687943
1.68975e-06
0.000688033
2.06618e-06
0.000688077
2.47861e-06
0.000688062
2.91362e-06
0.000687997
3.39367e-06
0.000687863
3.89661e-06
0.000687678
4.45711e-06
0.000687411
5.03867e-06
0.000687092
5.69509e-06
0.000686675
6.36641e-06
7.13558e-06
0.00068621
0.000666689
-9.7308e-08
0.000666757
-2.91716e-07
0.000666869
-4.8511e-07
0.000667026
-6.75276e-07
0.000667226
-8.6106e-07
0.000667469
-1.04142e-06
0.000667752
-1.21541e-06
0.000668073
-1.38223e-06
0.000668432
-1.54117e-06
0.000668826
-1.69167e-06
0.000669252