/*--------------------------------*- C++ -*----------------------------------*\
| =========                 |                                                 |
| \\      /  F ield         | OpenFOAM: The Open Source CFD Toolbox           |
|  \\    /   O peration     | Version:  2312                                  |
|   \\  /    A nd           | Website:  www.openfoam.com                      |
|    \\/     M anipulation  |                                                 |
\*---------------------------------------------------------------------------*/
FoamFile
{
    version     2.0;
    format      ascii;
    arch        "LSB;label=32;scalar=64";
    class       volVectorField;
    location    "150000";
    object      U;
}
// * * * * * * * * * * * * * * * * * * * * * * * * * * * * * * * * * * * * * //

dimensions      [0 1 -1 0 0 0 0];

internalField   nonuniform List<vector> 
10800
(
(0.000992484 4.94342e-06 0)
(0.000990035 1.24625e-05 0)
(0.000986864 1.74874e-05 0)
(0.000980483 2.06749e-05 0)
(0.000971058 2.27621e-05 0)
(0.000959753 2.42601e-05 0)
(0.000947633 2.54037e-05 0)
(0.000935234 2.62679e-05 0)
(0.000922698 2.68767e-05 0)
(0.000910003 2.72553e-05 0)
(0.000897103 2.74414e-05 0)
(0.000883996 2.74777e-05 0)
(0.000870718 2.74022e-05 0)
(0.000857323 2.7243e-05 0)
(0.000843863 2.70182e-05 0)
(0.000830377 2.67393e-05 0)
(0.000816889 2.64144e-05 0)
(0.00080342 2.60499e-05 0)
(0.000789983 2.56513e-05 0)
(0.000776595 2.52234e-05 0)
(0.00076327 2.47698e-05 0)
(0.000750024 2.42938e-05 0)
(0.000736871 2.37972e-05 0)
(0.000723826 2.3282e-05 0)
(0.000710902 2.2749e-05 0)
(0.000698112 2.21998e-05 0)
(0.000685468 2.16344e-05 0)
(0.000672984 2.10542e-05 0)
(0.000660673 2.04589e-05 0)
(0.000648546 1.98501e-05 0)
(0.000636618 1.92265e-05 0)
(0.000624899 1.85907e-05 0)
(0.000613405 1.79402e-05 0)
(0.000602145 1.72792e-05 0)
(0.000591136 1.66033e-05 0)
(0.000580386 1.59191e-05 0)
(0.000569914 1.52193e-05 0)
(0.000559723 1.45147e-05 0)
(0.000549838 1.37928e-05 0)
(0.000540254 1.30714e-05 0)
(0.000531008 1.23291e-05 0)
(0.000522076 1.15956e-05 0)
(0.000513522 1.08341e-05 0)
(0.000505279 1.00943e-05 0)
(0.000497478 9.31308e-06 0)
(0.000489945 8.57421e-06 0)
(0.00048298 7.76917e-06 0)
(0.00047614 7.03788e-06 0)
(0.000470164 6.19974e-06 0)
(0.000463879 5.47445e-06 0)
(0.000459263 4.59291e-06 0)
(0.000453043 3.82783e-06 0)
(0.000450813 2.9356e-06 0)
(0.000443064 1.88848e-06 0)
(0.000446294 1.29574e-06 0)
(0.000432036 -1.08148e-06 0)
(0.000449914 2.14965e-07 0)
(0.000414331 -7.55827e-06 0)
(0.00047184 2.10226e-06 0)
(0.000377775 -2.45099e-05 0)
(0.00100003 5.8077e-06 0)
(0.00100172 1.50098e-05 0)
(0.00100422 2.15527e-05 0)
(0.00100704 2.61285e-05 0)
(0.00100976 2.95001e-05 0)
(0.00101215 3.21956e-05 0)
(0.00101416 3.44626e-05 0)
(0.00101581 3.63875e-05 0)
(0.00101716 3.8003e-05 0)
(0.00101825 3.93395e-05 0)
(0.00101907 4.04383e-05 0)
(0.00101962 4.13452e-05 0)
(0.0010199 4.21007e-05 0)
(0.00101992 4.27347e-05 0)
(0.00101968 4.32672e-05 0)
(0.0010192 4.37106e-05 0)
(0.00101849 4.40737e-05 0)
(0.00101757 4.43629e-05 0)
(0.00101644 4.45839e-05 0)
(0.00101511 4.47411e-05 0)
(0.0010136 4.48382e-05 0)
(0.00101192 4.48777e-05 0)
(0.00101007 4.48616e-05 0)
(0.00100806 4.47907e-05 0)
(0.00100591 4.46663e-05 0)
(0.00100361 4.44882e-05 0)
(0.0010012 4.42573e-05 0)
(0.000998649 4.39724e-05 0)
(0.00099602 4.36352e-05 0)
(0.000993251 4.32429e-05 0)
(0.000990444 4.27988e-05 0)
(0.00098749 4.22973e-05 0)
(0.000984551 4.17455e-05 0)
(0.00098144 4.1133e-05 0)
(0.000978423 4.04733e-05 0)
(0.000975177 3.97472e-05 0)
(0.000972146 3.89805e-05 0)
(0.000968778 3.81379e-05 0)
(0.000965813 3.72673e-05 0)
(0.000962314 3.63039e-05 0)
(0.000959529 3.53357e-05 0)
(0.000955853 3.42441e-05 0)
(0.00095341 3.31899e-05 0)
(0.000949451 3.19567e-05 0)
(0.000947599 3.08369e-05 0)
(0.000943138 2.94367e-05 0)
(0.000942276 2.8286e-05 0)
(0.000936895 2.66715e-05 0)
(0.000937681 2.55491e-05 0)
(0.000930618 2.3633e-05 0)
(0.000934154 2.26397e-05 0)
(0.000924039 2.02648e-05 0)
(0.000932193 1.9569e-05 0)
(0.000916589 1.64649e-05 0)
(0.000932537 1.63336e-05 0)
(0.000907149 1.20732e-05 0)
(0.00093631 1.28562e-05 0)
(0.000893655 6.93498e-06 0)
(0.000945438 8.68776e-06 0)
(0.000872908 1.45869e-06 0)
(0.000999989 1.97093e-06 0)
(0.00100078 5.79028e-06 0)
(0.00100223 9.33426e-06 0)
(0.00100422 1.2519e-05 0)
(0.00100652 1.53416e-05 0)
(0.00100893 1.78473e-05 0)
(0.00101134 2.00907e-05 0)
(0.00101369 2.21148e-05 0)
(0.00101598 2.39467e-05 0)
(0.00101822 2.5603e-05 0)
(0.00102041 2.70968e-05 0)
(0.00102255 2.84414e-05 0)
(0.00102463 2.96511e-05 0)
(0.00102665 3.07396e-05 0)
(0.00102859 3.17194e-05 0)
(0.00103047 3.25999e-05 0)
(0.00103227 3.33893e-05 0)
(0.00103401 3.40931e-05 0)
(0.00103568 3.47169e-05 0)
(0.00103729 3.52637e-05 0)
(0.00103885 3.5738e-05 0)
(0.00104033 3.6141e-05 0)
(0.00104177 3.64768e-05 0)
(0.00104313 3.67443e-05 0)
(0.00104446 3.69479e-05 0)
(0.00104571 3.70842e-05 0)
(0.00104693 3.71588e-05 0)
(0.00104806 3.71652e-05 0)
(0.00104918 3.71117e-05 0)
(0.00105021 3.69877e-05 0)
(0.00105124 3.6806e-05 0)
(0.00105215 3.65494e-05 0)
(0.00105312 3.62385e-05 0)
(0.00105391 3.58462e-05 0)
(0.00105482 3.54053e-05 0)
(0.00105548 3.48733e-05 0)
(0.00105637 3.43024e-05 0)
(0.00105689 3.36258e-05 0)
(0.00105779 3.29259e-05 0)
(0.00105815 3.20988e-05 0)
(0.00105912 3.12732e-05 0)
(0.00105927 3.02882e-05 0)
(0.0010604 2.9343e-05 0)
(0.00106026 2.81903e-05 0)
(0.00106167 2.71356e-05 0)
(0.00106111 2.58022e-05 0)
(0.00106301 2.46534e-05 0)
(0.00106183 2.31224e-05 0)
(0.0010645 2.1902e-05 0)
(0.00106237 2.0153e-05 0)
(0.00106624 1.88927e-05 0)
(0.00106265 1.69057e-05 0)
(0.00106838 1.56491e-05 0)
(0.00106252 1.34174e-05 0)
(0.00107109 1.22236e-05 0)
(0.00106172 9.79107e-06 0)
(0.00107466 8.7381e-06 0)
(0.00105989 6.29333e-06 0)
(0.00107951 5.4349e-06 0)
(0.00105655 3.46357e-06 0)
(0.00100001 1.75257e-06 0)
(0.00100046 5.1938e-06 0)
(0.00100127 8.47975e-06 0)
(0.00100238 1.1534e-05 0)
(0.00100372 1.43157e-05 0)
(0.00100523 1.68215e-05 0)
(0.00100684 1.90732e-05 0)
(0.00100852 2.11003e-05 0)
(0.00101025 2.29299e-05 0)
(0.00101201 2.45826e-05 0)
(0.00101381 2.60738e-05 0)
(0.00101562 2.74163e-05 0)
(0.00101746 2.86224e-05 0)
(0.0010193 2.97038e-05 0)
(0.00102114 3.06721e-05 0)
(0.00102298 3.15374e-05 0)
(0.00102482 3.23087e-05 0)
(0.00102665 3.29927e-05 0)
(0.00102847 3.35959e-05 0)
(0.00103029 3.41222e-05 0)
(0.00103211 3.45764e-05 0)
(0.00103391 3.49607e-05 0)
(0.00103572 3.52788e-05 0)
(0.00103751 3.55312e-05 0)
(0.0010393 3.57213e-05 0)
(0.00104107 3.58479e-05 0)
(0.00104284 3.59142e-05 0)
(0.0010446 3.59174e-05 0)
(0.00104636 3.58614e-05 0)
(0.00104809 3.57413e-05 0)
(0.00104984 3.55623e-05 0)
(0.00105154 3.53172e-05 0)
(0.00105328 3.5013e-05 0)
(0.00105496 3.46401e-05 0)
(0.00105668 3.42077e-05 0)
(0.00105832 3.37031e-05 0)
(0.00106004 3.31388e-05 0)
(0.00106164 3.24985e-05 0)
(0.00106336 3.17983e-05 0)
(0.0010649 3.10183e-05 0)
(0.00106663 3.01778e-05 0)
(0.00106811 2.92548e-05 0)
(0.00106987 2.82694e-05 0)
(0.00107127 2.72014e-05 0)
(0.00107308 2.6066e-05 0)
(0.00107438 2.48537e-05 0)
(0.00107628 2.35621e-05 0)
(0.00107744 2.22112e-05 0)
(0.00107948 2.07557e-05 0)
(0.00108046 1.92809e-05 0)
(0.00108272 1.7651e-05 0)
(0.00108345 1.6084e-05 0)
(0.00108602 1.4266e-05 0)
(0.00108641 1.26693e-05 0)
(0.00108944 1.06454e-05 0)
(0.00108934 9.13472e-06 0)
(0.00109304 6.87793e-06 0)
(0.00109222 5.65053e-06 0)
(0.00109686 3.095e-06 0)
(0.00109498 2.42952e-06 0)
(0.001 1.16703e-06 0)
(0.00100022 3.47564e-06 0)
(0.00100067 5.72052e-06 0)
(0.00100133 7.86982e-06 0)
(0.00100218 9.90203e-06 0)
(0.00100321 1.18067e-05 0)
(0.00100437 1.35825e-05 0)
(0.00100563 1.52331e-05 0)
(0.00100697 1.67646e-05 0)
(0.00100838 1.8183e-05 0)
(0.00100984 1.94934e-05 0)
(0.00101134 2.07007e-05 0)
(0.00101288 2.18095e-05 0)
(0.00101444 2.28244e-05 0)
(0.00101603 2.37504e-05 0)
(0.00101763 2.45922e-05 0)
(0.00101924 2.5354e-05 0)
(0.00102087 2.60398e-05 0)
(0.0010225 2.66527e-05 0)
(0.00102414 2.71955e-05 0)
(0.00102579 2.76705e-05 0)
(0.00102744 2.80796e-05 0)
(0.00102909 2.84242e-05 0)
(0.00103075 2.87058e-05 0)
(0.00103241 2.8925e-05 0)
(0.00103407 2.90828e-05 0)
(0.00103573 2.9179e-05 0)
(0.00103739 2.92146e-05 0)
(0.00103906 2.91881e-05 0)
(0.00104072 2.91013e-05 0)
(0.00104238 2.89509e-05 0)
(0.00104404 2.87402e-05 0)
(0.00104571 2.84633e-05 0)
(0.00104736 2.81261e-05 0)
(0.00104902 2.77189e-05 0)
(0.00105067 2.72523e-05 0)
(0.00105232 2.67098e-05 0)
(0.00105396 2.61106e-05 0)
(0.00105561 2.5427e-05 0)
(0.00105724 2.46923e-05 0)
(0.00105887 2.38603e-05 0)
(0.0010605 2.29883e-05 0)
(0.00106212 2.19995e-05 0)
(0.00106373 2.09901e-05 0)
(0.00106534 1.9834e-05 0)
(0.00106695 1.86908e-05 0)
(0.00106854 1.73541e-05 0)
(0.00107016 1.60865e-05 0)
(0.00107172 1.45516e-05 0)
(0.00107337 1.31783e-05 0)
(0.0010749 1.1421e-05 0)
(0.00107661 9.97485e-06 0)
(0.00107811 7.9588e-06 0)
(0.00107993 6.49322e-06 0)
(0.00108141 4.16131e-06 0)
(0.00108344 2.7601e-06 0)
(0.00108488 2.38249e-08 0)
(0.00108722 -1.17712e-06 0)
(0.00108854 -4.45342e-06 0)
(0.0010912 -5.25178e-06 0)
(0.001 9.42784e-07 0)
(0.00100017 2.82195e-06 0)
(0.0010005 4.67609e-06 0)
(0.00100099 6.48614e-06 0)
(0.00100163 8.23449e-06 0)
(0.00100239 9.90711e-06 0)
(0.00100327 1.14946e-05 0)
(0.00100424 1.29918e-05 0)
(0.0010053 1.43971e-05 0)
(0.00100642 1.57108e-05 0)
(0.00100759 1.69341e-05 0)
(0.00100882 1.80689e-05 0)
(0.00101008 1.91172e-05 0)
(0.00101139 2.00815e-05 0)
(0.00101272 2.09643e-05 0)
(0.00101408 2.17685e-05 0)
(0.00101547 2.24968e-05 0)
(0.00101687 2.31521e-05 0)
(0.00101829 2.37367e-05 0)
(0.00101972 2.42529e-05 0)
(0.00102117 2.47025e-05 0)
(0.00102262 2.50875e-05 0)
(0.00102408 2.54088e-05 0)
(0.00102555 2.56683e-05 0)
(0.00102703 2.58659e-05 0)
(0.00102851 2.60036e-05 0)
(0.00103 2.60802e-05 0)
(0.00103148 2.60981e-05 0)
(0.00103297 2.60545e-05 0)
(0.00103447 2.5953e-05 0)
(0.00103596 2.57886e-05 0)
(0.00103745 2.55666e-05 0)
(0.00103894 2.52792e-05 0)
(0.00104043 2.49349e-05 0)
(0.00104191 2.45209e-05 0)
(0.00104339 2.40514e-05 0)
(0.00104486 2.35062e-05 0)
(0.00104634 2.29081e-05 0)
(0.0010478 2.22256e-05 0)
(0.00104928 2.14954e-05 0)
(0.00105071 2.06681e-05 0)
(0.00105218 1.98024e-05 0)
(0.0010536 1.88212e-05 0)
(0.00105507 1.78175e-05 0)
(0.00105646 1.66711e-05 0)
(0.00105794 1.55285e-05 0)
(0.0010593 1.42022e-05 0)
(0.00106081 1.29228e-05 0)
(0.00106213 1.13976e-05 0)
(0.00106369 9.98786e-06 0)
(0.00106497 8.23809e-06 0)
(0.00106661 6.71242e-06 0)
(0.00106784 4.70292e-06 0)
(0.00106961 3.08871e-06 0)
(0.00107074 7.68716e-07 0)
(0.00107272 -8.92499e-07 0)
(0.00107371 -3.60933e-06 0)
(0.00107601 -5.26466e-06 0)
(0.00107675 -8.51925e-06 0)
(0.0010794 -1.0084e-05 0)
(0.001 7.50572e-07 0)
(0.00100013 2.24799e-06 0)
(0.00100037 3.72853e-06 0)
(0.00100073 5.17928e-06 0)
(0.0010012 6.5886e-06 0)
(0.00100178 7.94691e-06 0)
(0.00100245 9.24708e-06 0)
(0.00100321 1.04844e-05 0)
(0.00100404 1.16561e-05 0)
(0.00100495 1.27608e-05 0)
(0.00100591 1.37982e-05 0)
(0.00100692 1.47685e-05 0)
(0.00100798 1.56721e-05 0)
(0.00100909 1.65098e-05 0)
(0.00101022 1.72825e-05 0)
(0.00101139 1.79912e-05 0)
(0.00101259 1.8637e-05 0)
(0.00101381 1.92213e-05 0)
(0.00101505 1.97449e-05 0)
(0.00101631 2.02092e-05 0)
(0.00101759 2.06148e-05 0)
(0.00101888 2.0963e-05 0)
(0.00102018 2.12538e-05 0)
(0.00102149 2.14886e-05 0)
(0.0010228 2.16668e-05 0)
(0.00102413 2.17897e-05 0)
(0.00102545 2.18559e-05 0)
(0.00102678 2.18673e-05 0)
(0.00102811 2.18212e-05 0)
(0.00102944 2.17203e-05 0)
(0.00103077 2.15602e-05 0)
(0.0010321 2.13451e-05 0)
(0.00103342 2.10681e-05 0)
(0.00103475 2.07359e-05 0)
(0.00103606 2.03379e-05 0)
(0.00103737 1.98849e-05 0)
(0.00103866 1.93604e-05 0)
(0.00103996 1.8782e-05 0)
(0.00104124 1.81243e-05 0)
(0.00104252 1.74152e-05 0)
(0.00104377 1.66159e-05 0)
(0.00104504 1.57702e-05 0)
(0.00104625 1.48188e-05 0)
(0.00104751 1.38305e-05 0)
(0.00104869 1.2714e-05 0)
(0.00104994 1.15769e-05 0)
(0.00105108 1.02784e-05 0)
(0.00105232 8.98692e-06 0)
(0.00105342 7.48461e-06 0)
(0.00105468 6.03429e-06 0)
(0.00105572 4.29866e-06 0)
(0.00105703 2.68693e-06 0)
(0.00105802 6.77143e-07 0)
(0.00105944 -1.093e-06 0)
(0.00106036 -3.43035e-06 0)
(0.00106194 -5.33883e-06 0)
(0.00106275 -8.07337e-06 0)
(0.00106454 -1.00852e-05 0)
(0.00106511 -1.33329e-05 0)
(0.00106708 -1.53988e-05 0)
(0.001 6.03404e-07 0)
(0.0010001 1.80932e-06 0)
(0.00100029 3.0062e-06 0)
(0.00100057 4.18592e-06 0)
(0.00100094 5.34071e-06 0)
(0.0010014 6.46363e-06 0)
(0.00100193 7.54882e-06 0)
(0.00100255 8.59157e-06 0)
(0.00100323 9.58834e-06 0)
(0.00100398 1.05365e-05 0)
(0.00100478 1.14344e-05 0)
(0.00100563 1.22809e-05 0)
(0.00100654 1.30751e-05 0)
(0.00100748 1.38167e-05 0)
(0.00100846 1.45051e-05 0)
(0.00100947 1.51405e-05 0)
(0.00101051 1.57228e-05 0)
(0.00101158 1.62523e-05 0)
(0.00101267 1.6729e-05 0)
(0.00101378 1.71534e-05 0)
(0.0010149 1.75256e-05 0)
(0.00101605 1.7846e-05 0)
(0.0010172 1.81145e-05 0)
(0.00101836 1.83317e-05 0)
(0.00101953 1.84969e-05 0)
(0.00102071 1.86109e-05 0)
(0.00102189 1.86726e-05 0)
(0.00102307 1.86827e-05 0)
(0.00102425 1.86396e-05 0)
(0.00102544 1.85444e-05 0)
(0.00102662 1.83944e-05 0)
(0.00102779 1.81916e-05 0)
(0.00102896 1.79315e-05 0)
(0.00103012 1.76176e-05 0)
(0.00103128 1.72431e-05 0)
(0.00103242 1.68138e-05 0)
(0.00103355 1.63194e-05 0)
(0.00103467 1.57692e-05 0)
(0.00103577 1.5148e-05 0)
(0.00103687 1.44704e-05 0)
(0.00103794 1.37136e-05 0)
(0.001039 1.29009e-05 0)
(0.00104003 1.1998e-05 0)
(0.00104107 1.1041e-05 0)
(0.00104204 9.97867e-06 0)
(0.00104305 8.86726e-06 0)
(0.00104398 7.62912e-06 0)
(0.00104497 6.35166e-06 0)
(0.00104584 4.91734e-06 0)
(0.00104681 3.46141e-06 0)
(0.00104761 1.80482e-06 0)
(0.00104859 1.56935e-07 0)
(0.00104931 -1.75671e-06 0)
(0.00105032 -3.61251e-06 0)
(0.00105096 -5.83319e-06 0)
(0.00105205 -7.91647e-06 0)
(0.00105256 -1.0512e-05 0)
(0.00105376 -1.28355e-05 0)
(0.00105404 -1.58911e-05 0)
(0.00105526 -1.84512e-05 0)
(0.001 4.87486e-07 0)
(0.00100008 1.46329e-06 0)
(0.00100023 2.43436e-06 0)
(0.00100046 3.39505e-06 0)
(0.00100077 4.33984e-06 0)
(0.00100114 5.26354e-06 0)
(0.00100159 6.16154e-06 0)
(0.0010021 7.02983e-06 0)
(0.00100267 7.86506e-06 0)
(0.0010033 8.66449e-06 0)
(0.00100398 9.42583e-06 0)
(0.00100471 1.01472e-05 0)
(0.00100548 1.08273e-05 0)
(0.0010063 1.14649e-05 0)
(0.00100715 1.20591e-05 0)
(0.00100803 1.26095e-05 0)
(0.00100894 1.31155e-05 0)
(0.00100988 1.35769e-05 0)
(0.00101084 1.39934e-05 0)
(0.00101182 1.43649e-05 0)
(0.00101282 1.46912e-05 0)
(0.00101383 1.49722e-05 0)
(0.00101485 1.52077e-05 0)
(0.00101589 1.53978e-05 0)
(0.00101693 1.55418e-05 0)
(0.00101798 1.56399e-05 0)
(0.00101903 1.56913e-05 0)
(0.00102008 1.56961e-05 0)
(0.00102113 1.56531e-05 0)
(0.00102218 1.55625e-05 0)
(0.00102322 1.54225e-05 0)
(0.00102426 1.52335e-05 0)
(0.00102529 1.49931e-05 0)
(0.00102631 1.4702e-05 0)
(0.00102732 1.43566e-05 0)
(0.00102831 1.39585e-05 0)
(0.00102928 1.35025e-05 0)
(0.00103025 1.29912e-05 0)
(0.00103118 1.24174e-05 0)
(0.00103211 1.17854e-05 0)
(0.00103299 1.10848e-05 0)
(0.00103387 1.0323e-05 0)
(0.00103471 9.48475e-06 0)
(0.00103554 8.58192e-06 0)
(0.00103631 7.59244e-06 0)
(0.00103709 6.53499e-06 0)
(0.00103779 5.37747e-06 0)
(0.00103851 4.14869e-06 0)
(0.00103913 2.80195e-06 0)
(0.0010398 1.38135e-06 0)
(0.00104033 -1.81413e-07 0)
(0.00104096 -1.81839e-06 0)
(0.00104139 -3.62849e-06 0)
(0.00104199 -5.50727e-06 0)
(0.00104231 -7.60357e-06 0)
(0.0010429 -9.75953e-06 0)
(0.00104306 -1.21989e-05 0)
(0.00104364 -1.4674e-05 0)
(0.00104356 -1.75215e-05 0)
(0.00104406 -2.03477e-05 0)
(0.001 3.91583e-07 0)
(0.00100007 1.17663e-06 0)
(0.0010002 1.95953e-06 0)
(0.00100039 2.73619e-06 0)
(0.00100065 3.50253e-06 0)
(0.00100097 4.25468e-06 0)
(0.00100135 4.98902e-06 0)
(0.00100178 5.7023e-06 0)
(0.00100227 6.39162e-06 0)
(0.00100281 7.05446e-06 0)
(0.0010034 7.68864e-06 0)
(0.00100403 8.29231e-06 0)
(0.00100471 8.86388e-06 0)
(0.00100542 9.40207e-06 0)
(0.00100616 9.90581e-06 0)
(0.00100694 1.03742e-05 0)
(0.00100774 1.08066e-05 0)
(0.00100858 1.12023e-05 0)
(0.00100943 1.15609e-05 0)
(0.0010103 1.18819e-05 0)
(0.00101119 1.21649e-05 0)
(0.0010121 1.24095e-05 0)
(0.00101301 1.26154e-05 0)
(0.00101394 1.27822e-05 0)
(0.00101487 1.29095e-05 0)
(0.00101581 1.29969e-05 0)
(0.00101675 1.30438e-05 0)
(0.00101769 1.30497e-05 0)
(0.00101862 1.30141e-05 0)
(0.00101956 1.29361e-05 0)
(0.00102048 1.28151e-05 0)
(0.0010214 1.26501e-05 0)
(0.0010223 1.244e-05 0)
(0.00102319 1.21839e-05 0)
(0.00102407 1.18804e-05 0)
(0.00102493 1.1528e-05 0)
(0.00102576 1.11254e-05 0)
(0.00102658 1.06704e-05 0)
(0.00102736 1.01617e-05 0)
(0.00102813 9.59616e-06 0)
(0.00102886 8.97269e-06 0)
(0.00102956 8.28673e-06 0)
(0.00103022 7.53799e-06 0)
(0.00103085 6.71938e-06 0)
(0.00103143 5.83242e-06 0)
(0.00103199 4.866e-06 0)
(0.00103247 3.82507e-06 0)
(0.00103295 2.69201e-06 0)
(0.00103332 1.47817e-06 0)
(0.00103371 1.54871e-07 0)
(0.00103396 -1.25449e-06 0)
(0.00103425 -2.7978e-06 0)
(0.00103437 -4.43167e-06 0)
(0.00103457 -6.23527e-06 0)
(0.00103453 -8.12943e-06 0)
(0.00103463 -1.02431e-05 0)
(0.0010344 -1.24371e-05 0)
(0.0010344 -1.49207e-05 0)
(0.00103388 -1.74562e-05 0)
(0.00103369 -2.03778e-05 0)
(0.001 3.09693e-07 0)
(0.00100006 9.31725e-07 0)
(0.00100017 1.55343e-06 0)
(0.00100034 2.17174e-06 0)
(0.00100056 2.78363e-06 0)
(0.00100084 3.38615e-06 0)
(0.00100117 3.9765e-06 0)
(0.00100155 4.5521e-06 0)
(0.00100198 5.11059e-06 0)
(0.00100246 5.64984e-06 0)
(0.00100297 6.16796e-06 0)
(0.00100353 6.66326e-06 0)
(0.00100413 7.13428e-06 0)
(0.00100476 7.57972e-06 0)
(0.00100543 7.99849e-06 0)
(0.00100612 8.3896e-06 0)
(0.00100684 8.75223e-06 0)
(0.00100759 9.08564e-06 0)
(0.00100835 9.38919e-06 0)
(0.00100914 9.66227e-06 0)
(0.00100994 9.90439e-06 0)
(0.00101076 1.0115e-05 0)
(0.00101159 1.02937e-05 0)
(0.00101242 1.04398e-05 0)
(0.00101326 1.05531e-05 0)
(0.00101411 1.06329e-05 0)
(0.00101495 1.06788e-05 0)
(0.0010158 1.069e-05 0)
(0.00101664 1.06661e-05 0)
(0.00101747 1.06062e-05 0)
(0.0010183 1.05098e-05 0)
(0.00101911 1.03755e-05 0)
(0.00101991 1.02033e-05 0)
(0.00102069 9.99079e-06 0)
(0.00102145 9.7384e-06 0)
(0.00102219 9.44284e-06 0)
(0.00102291 9.10512e-06 0)
(0.0010236 8.72039e-06 0)
(0.00102425 8.29094e-06 0)
(0.00102488 7.80942e-06 0)
(0.00102546 7.28039e-06 0)
(0.00102601 6.69249e-06 0)
(0.0010265 6.05429e-06 0)
(0.00102696 5.34793e-06 0)
(0.00102736 4.58889e-06 0)
(0.00102772 3.74884e-06 0)
(0.001028 2.85487e-06 0)
(0.00102825 1.86178e-06 0)
(0.00102839 8.1606e-07 0)
(0.00102851 -3.54832e-07 0)
(0.00102851 -1.57189e-06 0)
(0.00102848 -2.95199e-06 0)
(0.0010283 -4.36506e-06 0)
(0.00102812 -5.99874e-06 0)
(0.00102773 -7.63588e-06 0)
(0.00102737 -9.5784e-06 0)
(0.00102674 -1.14677e-05 0)
(0.00102618 -1.37906e-05 0)
(0.00102522 -1.5957e-05 0)
(0.00102438 -1.87484e-05 0)
(0.001 2.37769e-07 0)
(0.00100005 7.16544e-07 0)
(0.00100015 1.19635e-06 0)
(0.0010003 1.67492e-06 0)
(0.0010005 2.14997e-06 0)
(0.00100075 2.61931e-06 0)
(0.00100105 3.0808e-06 0)
(0.00100139 3.53244e-06 0)
(0.00100177 3.97239e-06 0)
(0.0010022 4.39893e-06 0)
(0.00100267 4.8105e-06 0)
(0.00100317 5.20567e-06 0)
(0.00100371 5.58319e-06 0)
(0.00100428 5.94188e-06 0)
(0.00100489 6.28073e-06 0)
(0.00100552 6.59881e-06 0)
(0.00100618 6.89532e-06 0)
(0.00100686 7.1695e-06 0)
(0.00100756 7.42073e-06 0)
(0.00100828 7.64834e-06 0)
(0.00100901 7.85186e-06 0)
(0.00100976 8.03068e-06 0)
(0.00101051 8.1844e-06 0)
(0.00101128 8.31241e-06 0)
(0.00101205 8.4144e-06 0)
(0.00101282 8.48964e-06 0)
(0.00101359 8.53792e-06 0)
(0.00101436 8.55834e-06 0)
(0.00101512 8.5508e-06 0)
(0.00101588 8.51406e-06 0)
(0.00101662 8.44825e-06 0)
(0.00101735 8.35161e-06 0)
(0.00101806 8.22463e-06 0)
(0.00101876 8.06472e-06 0)
(0.00101943 7.87301e-06 0)
(0.00102007 7.64565e-06 0)
(0.00102069 7.3849e-06 0)
(0.00102127 7.08486e-06 0)
(0.00102181 6.74974e-06 0)
(0.00102232 6.37044e-06 0)
(0.00102278 5.95439e-06 0)
(0.0010232 5.48752e-06 0)
(0.00102356 4.98257e-06 0)
(0.00102388 4.41746e-06 0)
(0.00102412 3.814e-06 0)
(0.00102431 3.137e-06 0)
(0.00102442 2.42352e-06 0)
(0.00102447 1.61718e-06 0)
(0.00102441 7.79885e-07 0)
(0.0010243 -1.78149e-07 0)
(0.00102406 -1.15552e-06 0)
(0.00102376 -2.29544e-06 0)
(0.0010233 -3.43089e-06 0)
(0.00102279 -4.79506e-06 0)
(0.00102208 -6.11141e-06 0)
(0.00102132 -7.75434e-06 0)
(0.00102032 -9.26989e-06 0)
(0.00101927 -1.12639e-05 0)
(0.00101789 -1.29914e-05 0)
(0.00101648 -1.543e-05 0)
(0.001 1.72806e-07 0)
(0.00100005 5.2212e-07 0)
(0.00100014 8.73549e-07 0)
(0.00100028 1.22545e-06 0)
(0.00100046 1.57619e-06 0)
(0.00100069 1.92414e-06 0)
(0.00100096 2.26776e-06 0)
(0.00100127 2.60556e-06 0)
(0.00100163 2.93616e-06 0)
(0.00100202 3.25824e-06 0)
(0.00100246 3.5706e-06 0)
(0.00100292 3.87212e-06 0)
(0.00100342 4.16178e-06 0)
(0.00100395 4.43862e-06 0)
(0.00100451 4.70181e-06 0)
(0.0010051 4.95055e-06 0)
(0.00100571 5.18417e-06 0)
(0.00100635 5.40198e-06 0)
(0.001007 5.60347e-06 0)
(0.00100767 5.78803e-06 0)
(0.00100835 5.95525e-06 0)
(0.00100905 6.10459e-06 0)
(0.00100976 6.23573e-06 0)
(0.00101047 6.3481e-06 0)
(0.00101119 6.44149e-06 0)
(0.00101191 6.51525e-06 0)
(0.00101262 6.56928e-06 0)
(0.00101334 6.60277e-06 0)
(0.00101404 6.61577e-06 0)
(0.00101474 6.60718e-06 0)
(0.00101542 6.5773e-06 0)
(0.00101609 6.52457e-06 0)
(0.00101674 6.44966e-06 0)
(0.00101737 6.35029e-06 0)
(0.00101797 6.2278e-06 0)
(0.00101854 6.07871e-06 0)
(0.00101908 5.9055e-06 0)
(0.00101958 5.70283e-06 0)
(0.00102004 5.47505e-06 0)
(0.00102046 5.21388e-06 0)
(0.00102083 4.92681e-06 0)
(0.00102115 4.60084e-06 0)
(0.00102141 4.24868e-06 0)
(0.0010216 3.84977e-06 0)
(0.00102173 3.4254e-06 0)
(0.00102179 2.94293e-06 0)
(0.00102176 2.43772e-06 0)
(0.00102165 1.85771e-06 0)
(0.00102144 1.26131e-06 0)
(0.00102114 5.65212e-07 0)
(0.00102072 -1.34231e-07 0)
(0.0010202 -9.70731e-07 0)
(0.00101952 -1.78507e-06 0)
(0.00101874 -2.79277e-06 0)
(0.00101777 -3.73489e-06 0)
(0.00101668 -4.96071e-06 0)
(0.00101537 -6.04436e-06 0)
(0.00101393 -7.5509e-06 0)
(0.0010122 -8.78168e-06 0)
(0.00101032 -1.06518e-05 0)
(0.001 1.12398e-07 0)
(0.00100004 3.41268e-07 0)
(0.00100013 5.7316e-07 0)
(0.00100026 8.06978e-07 0)
(0.00100044 1.04162e-06 0)
(0.00100065 1.276e-06 0)
(0.00100091 1.50908e-06 0)
(0.00100121 1.73983e-06 0)
(0.00100154 1.9673e-06 0)
(0.00100192 2.19058e-06 0)
(0.00100233 2.40883e-06 0)
(0.00100277 2.62123e-06 0)
(0.00100324 2.82706e-06 0)
(0.00100375 3.02561e-06 0)
(0.00100428 3.21627e-06 0)
(0.00100484 3.39844e-06 0)
(0.00100543 3.57162e-06 0)
(0.00100603 3.73529e-06 0)
(0.00100665 3.88905e-06 0)
(0.0010073 4.03245e-06 0)
(0.00100795 4.16519e-06 0)
(0.00100861 4.28686e-06 0)
(0.00100929 4.39723e-06 0)
(0.00100997 4.49592e-06 0)
(0.00101065 4.58277e-06 0)
(0.00101134 4.65736e-06 0)
(0.00101202 4.71963e-06 0)
(0.0010127 4.76904e-06 0)
(0.00101337 4.80567e-06 0)
(0.00101403 4.82883e-06 0)
(0.00101468 4.83879e-06 0)
(0.00101531 4.83453e-06 0)
(0.00101592 4.81664e-06 0)
(0.0010165 4.78362e-06 0)
(0.00101706 4.73655e-06 0)
(0.00101758 4.67311e-06 0)
(0.00101808 4.59522e-06 0)
(0.00101853 4.49927e-06 0)
(0.00101894 4.38853e-06 0)
(0.0010193 4.25734e-06 0)
(0.00101961 4.11122e-06 0)
(0.00101986 3.94122e-06 0)
(0.00102005 3.75658e-06 0)
(0.00102017 3.54308e-06 0)
(0.00102022 3.316e-06 0)
(0.00102019 3.05278e-06 0)
(0.00102007 2.7784e-06 0)
(0.00101986 2.45696e-06 0)
(0.00101954 2.12951e-06 0)
(0.00101911 1.73799e-06 0)
(0.00101856 1.35059e-06 0)
(0.00101789 8.72845e-07 0)
(0.00101707 4.17468e-07 0)
(0.00101611 -1.65726e-07 0)
(0.00101496 -6.94398e-07 0)
(0.00101365 -1.41288e-06 0)
(0.00101212 -2.02201e-06 0)
(0.0010104 -2.91697e-06 0)
(0.00100842 -3.60514e-06 0)
(0.00100621 -4.72995e-06 0)
(0.001 5.44635e-08 0)
(0.00100004 1.67753e-07 0)
(0.00100013 2.84851e-07 0)
(0.00100026 4.05164e-07 0)
(0.00100042 5.28095e-07 0)
(0.00100063 6.53054e-07 0)
(0.00100089 7.79462e-07 0)
(0.00100118 9.0676e-07 0)
(0.0010015 1.03441e-06 0)
(0.00100187 1.16188e-06 0)
(0.00100227 1.2887e-06 0)
(0.0010027 1.41438e-06 0)
(0.00100317 1.5385e-06 0)
(0.00100366 1.66063e-06 0)
(0.00100419 1.7804e-06 0)
(0.00100473 1.89745e-06 0)
(0.00100531 2.01145e-06 0)
(0.0010059 2.12212e-06 0)
(0.00100651 2.22919e-06 0)
(0.00100714 2.3324e-06 0)
(0.00100778 2.43157e-06 0)
(0.00100843 2.52647e-06 0)
(0.00100909 2.61699e-06 0)
(0.00100976 2.70294e-06 0)
(0.00101043 2.78428e-06 0)
(0.00101111 2.86085e-06 0)
(0.00101178 2.93263e-06 0)
(0.00101244 2.99944e-06 0)
(0.0010131 3.06135e-06 0)
(0.00101375 3.11817e-06 0)
(0.00101438 3.17007e-06 0)
(0.00101499 3.21677e-06 0)
(0.00101559 3.25859e-06 0)
(0.00101615 3.29511e-06 0)
(0.00101669 3.32686e-06 0)
(0.0010172 3.35319e-06 0)
(0.00101768 3.37498e-06 0)
(0.00101811 3.3911e-06 0)
(0.0010185 3.40294e-06 0)
(0.00101884 3.40863e-06 0)
(0.00101912 3.41041e-06 0)
(0.00101935 3.40524e-06 0)
(0.00101951 3.39675e-06 0)
(0.0010196 3.38001e-06 0)
(0.00101962 3.36091e-06 0)
(0.00101955 3.33144e-06 0)
(0.00101939 3.3012e-06 0)
(0.00101913 3.25713e-06 0)
(0.00101876 3.21487e-06 0)
(0.00101828 3.15341e-06 0)
(0.00101768 3.09781e-06 0)
(0.00101693 3.01445e-06 0)
(0.00101604 2.94377e-06 0)
(0.00101499 2.83079e-06 0)
(0.00101376 2.74332e-06 0)
(0.00101234 2.59345e-06 0)
(0.00101071 2.49048e-06 0)
(0.00100886 2.29146e-06 -4.42625e-38)
(0.00100676 2.17563e-06 0)
(0.0010044 1.91038e-06 0)
(0.001 -2.73102e-09 0)
(0.00100004 -3.57934e-09 0)
(0.00100013 1.06433e-10 0)
(0.00100026 8.21652e-09 0)
(0.00100043 2.06382e-08 0)
(0.00100064 3.72605e-08 0)
(0.00100089 5.79687e-08 0)
(0.00100118 8.26455e-08 0)
(0.00100151 1.11166e-07 0)
(0.00100188 1.43405e-07 0)
(0.00100228 1.79228e-07 0)
(0.00100272 2.18507e-07 0)
(0.00100319 2.61108e-07 0)
(0.00100369 3.06906e-07 0)
(0.00100421 3.55777e-07 0)
(0.00100477 4.07613e-07 0)
(0.00100534 4.62304e-07 0)
(0.00100594 5.1977e-07 0)
(0.00100656 5.79922e-07 0)
(0.00100719 6.42719e-07 0)
(0.00100784 7.08098e-07 0)
(0.0010085 7.76066e-07 0)
(0.00100917 8.46572e-07 0)
(0.00100984 9.19681e-07 0)
(0.00101052 9.95347e-07 0)
(0.0010112 1.07372e-06 0)
(0.00101188 1.15484e-06 0)
(0.00101255 1.23897e-06 0)
(0.00101322 1.32615e-06 0)
(0.00101387 1.41672e-06 0)
(0.00101451 1.51073e-06 0)
(0.00101514 1.60869e-06 0)
(0.00101574 1.71055e-06 0)
(0.00101632 1.8171e-06 0)
(0.00101687 1.92816e-06 0)
(0.00101739 2.04489e-06 0)
(0.00101788 2.16699e-06 0)
(0.00101832 2.29608e-06 0)
(0.00101872 2.43142e-06 0)
(0.00101907 2.57537e-06 0)
(0.00101937 2.72644e-06 0)
(0.00101961 2.88813e-06 0)
(0.00101979 3.05773e-06 0)
(0.00101989 3.24052e-06 0)
(0.00101992 3.43181e-06 0)
(0.00101987 3.63976e-06 0)
(0.00101973 3.85643e-06 0)
(0.00101949 4.0945e-06 0)
(0.00101914 4.3407e-06 0)
(0.00101867 4.61499e-06 0)
(0.00101809 4.8953e-06 0)
(0.00101736 5.21346e-06 0)
(0.00101649 5.53293e-06 0)
(0.00101545 5.90499e-06 0)
(0.00101425 6.2696e-06 0)
(0.00101285 6.7094e-06 0)
(0.00101125 7.12432e-06 0)
(0.00100942 7.64884e-06 4.42625e-38)
(0.00100735 8.11512e-06 0)
(0.00100501 8.74484e-06 0)
(0.001 -6.10655e-08 0)
(0.00100005 -1.7838e-07 0)
(0.00100013 -2.9047e-07 0)
(0.00100027 -3.96945e-07 0)
(0.00100044 -4.97417e-07 0)
(0.00100066 -5.91497e-07 0)
(0.00100092 -6.78824e-07 0)
(0.00100123 -7.59056e-07 0)
(0.00100157 -8.31894e-07 0)
(0.00100195 -8.97063e-07 0)
(0.00100237 -9.54332e-07 0)
(0.00100282 -1.00349e-06 0)
(0.0010033 -1.04436e-06 0)
(0.00100382 -1.07678e-06 0)
(0.00100437 -1.10063e-06 0)
(0.00100494 -1.11578e-06 0)
(0.00100554 -1.12212e-06 0)
(0.00100615 -1.11954e-06 0)
(0.00100679 -1.10796e-06 0)
(0.00100745 -1.08723e-06 0)
(0.00100812 -1.05728e-06 0)
(0.00100881 -1.01792e-06 0)
(0.0010095 -9.69074e-07 0)
(0.0010102 -9.1047e-07 0)
(0.00101091 -8.42071e-07 0)
(0.00101162 -7.63448e-07 0)
(0.00101233 -6.74509e-07 0)
(0.00101303 -5.74627e-07 0)
(0.00101373 -4.63777e-07 0)
(0.00101441 -3.41066e-07 0)
(0.00101509 -2.06578e-07 0)
(0.00101574 -5.9029e-08 0)
(0.00101638 1.01271e-07 0)
(0.001017 2.76172e-07 0)
(0.00101759 4.64919e-07 0)
(0.00101815 6.70192e-07 0)
(0.00101867 8.90389e-07 0)
(0.00101916 1.12962e-06 0)
(0.00101961 1.38517e-06 0)
(0.00102001 1.66328e-06 0)
(0.00102036 1.95948e-06 0)
(0.00102065 2.28312e-06 0)
(0.00102088 2.62595e-06 0)
(0.00102105 3.00248e-06 0)
(0.00102114 3.39865e-06 0)
(0.00102115 3.83701e-06 0)
(0.00102108 4.29414e-06 0)
(0.00102092 4.8056e-06 0)
(0.00102065 5.3327e-06 0)
(0.00102028 5.93177e-06 0)
(0.00101978 6.53913e-06 0)
(0.00101916 7.2446e-06 0)
(0.0010184 7.94361e-06 0)
(0.00101749 8.78019e-06 0)
(0.00101642 9.58252e-06 0)
(0.00101516 1.0583e-05 0)
(0.00101371 1.14993e-05 0)
(0.00101206 1.27082e-05 0)
(0.00101016 1.37436e-05 0)
(0.00100802 1.52189e-05 0)
(0.001 -1.22488e-07 0)
(0.00100005 -3.62494e-07 0)
(0.00100014 -5.9657e-07 0)
(0.00100028 -8.23767e-07 0)
(0.00100047 -1.04313e-06 0)
(0.0010007 -1.25374e-06 0)
(0.00100098 -1.4547e-06 0)
(0.00100131 -1.64519e-06 0)
(0.00100167 -1.82446e-06 0)
(0.00100208 -1.99183e-06 0)
(0.00100252 -2.14669e-06 0)
(0.001003 -2.2885e-06 0)
(0.00100352 -2.41678e-06 0)
(0.00100407 -2.53111e-06 0)
(0.00100465 -2.63114e-06 0)
(0.00100526 -2.71652e-06 0)
(0.00100589 -2.78698e-06 0)
(0.00100655 -2.84222e-06 0)
(0.00100723 -2.88205e-06 0)
(0.00100793 -2.90617e-06 0)
(0.00100864 -2.91439e-06 0)
(0.00100937 -2.90638e-06 0)
(0.00101011 -2.88196e-06 0)
(0.00101086 -2.84068e-06 0)
(0.00101161 -2.78236e-06 0)
(0.00101237 -2.70637e-06 0)
(0.00101312 -2.6126e-06 0)
(0.00101388 -2.50017e-06 0)
(0.00101463 -2.36901e-06 0)
(0.00101537 -2.21787e-06 0)
(0.0010161 -2.04683e-06 0)
(0.00101681 -1.85406e-06 0)
(0.00101751 -1.64e-06 0)
(0.00101819 -1.402e-06 0)
(0.00101884 -1.14108e-06 0)
(0.00101947 -8.5341e-07 0)
(0.00102006 -5.41155e-07 0)
(0.00102063 -1.98482e-07 0)
(0.00102115 1.70638e-07 0)
(0.00102163 5.75054e-07 0)
(0.00102206 1.00765e-06 0)
(0.00102245 1.48205e-06 0)
(0.00102278 1.98681e-06 0)
(0.00102304 2.54263e-06 0)
(0.00102324 3.12989e-06 0)
(0.00102337 3.78085e-06 0)
(0.00102343 4.4623e-06 0)
(0.00102339 5.22475e-06 0)
(0.00102327 6.01358e-06 0)
(0.00102305 6.90862e-06 0)
(0.00102272 7.82018e-06 0)
(0.00102228 8.8752e-06 0)
(0.00102172 9.92677e-06 0)
(0.00102102 1.11777e-05 0)
(0.00102018 1.23878e-05 0)
(0.00101918 1.38827e-05 0)
(0.001018 1.52692e-05 0)
(0.00101666 1.70724e-05 0)
(0.00101507 1.8646e-05 0)