/*--------------------------------*- C++ -*----------------------------------*\
| =========                 |                                                 |
| \\      /  F ield         | OpenFOAM: The Open Source CFD Toolbox           |
|  \\    /   O peration     | Version:  2312                                  |
|   \\  /    A nd           | Website:  www.openfoam.com                      |
|    \\/     M anipulation  |                                                 |
\*---------------------------------------------------------------------------*/
FoamFile
{
    version     2.0;
    format      ascii;
    arch        "LSB;label=32;scalar=64";
    class       volVectorField;
    location    "170000";
    object      U;
}
// * * * * * * * * * * * * * * * * * * * * * * * * * * * * * * * * * * * * * //

dimensions      [0 1 -1 0 0 0 0];

internalField   nonuniform List<vector> 
2685
(
(0.000663072 -1.3772e-05 0)
(0.000664102 -1.58772e-06 0)
(0.00063742 8.36259e-06 0)
(0.000609658 1.8334e-05 0)
(0.000582324 2.71307e-05 0)
(0.000552778 3.35676e-05 0)
(0.000519454 3.71247e-05 0)
(0.000483013 3.76992e-05 0)
(0.000445123 3.55145e-05 0)
(0.00040728 3.11058e-05 0)
(0.000370413 2.52472e-05 0)
(0.000335102 1.88049e-05 0)
(0.000301815 1.2541e-05 0)
(0.000270952 6.96922e-06 0)
(0.000242817 2.35782e-06 0)
(0.000217483 -1.18886e-06 0)
(0.00019488 -3.61073e-06 0)
(0.000174844 -4.96788e-06 0)
(0.00015721 -5.4514e-06 0)
(0.000141807 -5.30066e-06 0)
(0.000128456 -4.71984e-06 0)
(0.000116966 -3.88104e-06 0)
(0.000107141 -2.92422e-06 0)
(9.87782e-05 -1.94658e-06 0)
(9.16817e-05 -9.94372e-07 0)
(8.56943e-05 -6.14523e-08 0)
(8.0681e-05 8.81824e-07 0)
(7.64857e-05 1.90367e-06 0)
(7.29161e-05 3.11157e-06 0)
(6.976e-05 4.61369e-06 0)
(6.6781e-05 6.43914e-06 0)
(6.38118e-05 8.4578e-06 0)
(6.07612e-05 1.03502e-05 0)
(5.76382e-05 1.16673e-05 0)
(5.46134e-05 1.20019e-05 0)
(5.19502e-05 1.11516e-05 0)
(5.00537e-05 9.15386e-06 0)
(4.92694e-05 6.17005e-06 0)
(4.96216e-05 2.40852e-06 0)
(5.13792e-05 -1.76031e-06 0)
(5.45463e-05 -5.95289e-06 0)
(5.91283e-05 -9.9678e-06 0)
(6.50758e-05 -1.37612e-05 0)
(7.23026e-05 -1.73526e-05 0)
(8.0704e-05 -2.07742e-05 0)
(9.01578e-05 -2.40546e-05 0)
(0.000100528 -2.72064e-05 0)
(0.000111676 -3.02188e-05 0)
(0.000123447 -3.30611e-05 0)
(0.000135665 -3.56872e-05 0)
(0.000148149 -3.8025e-05 0)
(0.000160719 -3.99715e-05 0)
(0.0001731 -4.14175e-05 0)
(0.000184878 -4.2208e-05 0)
(0.000195574 -4.21571e-05 0)
(0.000204733 -4.10783e-05 0)
(0.000212081 -3.88189e-05 0)
(0.000217658 -3.52961e-05 0)
(0.000221836 -3.06491e-05 0)
(0.000225262 -2.51608e-05 0)
(0.000228763 -1.92015e-05 0)
(0.000233203 -1.31508e-05 0)
(0.000239295 -7.31479e-06 0)
(0.00024742 -1.90411e-06 0)
(0.00025745 2.90357e-06 0)
(0.00026865 6.87013e-06 0)
(0.000280032 9.97975e-06 0)
(0.000290585 1.20293e-05 0)
(0.000299286 1.25741e-05 0)
(0.000305407 1.13787e-05 0)
(0.000308689 8.53792e-06 0)
(0.00030914 4.55964e-06 0)
(0.000306788 3.22991e-07 0)
(0.000301815 -3.1074e-06 0)
(0.000294757 -4.93031e-06 0)
(0.000285955 -4.84129e-06 0)
(0.000275434 -2.94844e-06 0)
(0.00026323 5.15909e-07 0)
(0.000249485 5.10371e-06 0)
(0.000234375 1.02225e-05 0)
(0.000218091 1.52543e-05 0)
(0.000200801 1.96531e-05 0)
(0.000182625 2.30155e-05 0)
(0.000163616 2.51699e-05 0)
(0.00014395 2.62714e-05 0)
(0.000124014 2.6507e-05 0)
(0.000104213 2.60148e-05 0)
(8.49027e-05 2.49431e-05 0)
(6.64169e-05 2.34273e-05 0)
(4.9077e-05 2.15858e-05 0)
(0.0012742 5.01769e-05 0)
(0.00125964 6.19671e-05 0)
(0.00124907 7.31682e-05 0)
(0.00123749 8.45137e-05 0)
(0.0012231 9.53761e-05 0)
(0.00120576 0.000105131 0)
(0.00118581 0.000113438 0)
(0.00116358 0.000120103 0)
(0.00113916 0.000124982 0)
(0.00111246 0.000127941 0)
(0.00108331 0.000128919 0)
(0.00105161 0.000127956 0)
(0.00101756 0.000125102 0)
(0.00098173 0.000120457 0)
(0.000944588 0.000114255 0)
(0.000906516 0.000106734 0)
(0.000868277 9.81756e-05 0)
(0.000830598 8.89244e-05 0)
(0.000793951 7.93227e-05 0)
(0.000758843 6.97195e-05 0)
(0.000725783 6.04034e-05 0)
(0.000695148 5.16081e-05 0)
(0.000667156 4.34982e-05 0)
(0.000641936 3.61399e-05 0)
(0.000619567 2.95559e-05 0)
(0.000600005 2.37673e-05 0)
(0.000583129 1.87656e-05 0)
(0.000568824 1.45155e-05 0)
(0.000556975 1.09689e-05 0)
(0.000547453 8.05894e-06 0)
(0.000540185 5.71379e-06 0)
(0.00053505 3.84749e-06 0)
(0.000532026 2.33031e-06 0)
(0.000531064 9.95023e-07 0)
(0.000531967 -3.39964e-07 0)
(0.000534401 -1.81222e-06 0)
(0.000537945 -3.49645e-06 0)
(0.00054253 -5.38979e-06 0)
(0.000547669 -7.48006e-06 0)
(0.000553279 -9.73876e-06 0)
(0.000559384 -1.20758e-05 0)
(0.00056594 -1.43759e-05 0)
(0.000572831 -1.65234e-05 0)
(0.000579933 -1.84171e-05 0)
(0.000587144 -1.99557e-05 0)
(0.000594347 -2.10322e-05 0)
(0.000601387 -2.15843e-05 0)
(0.000608088 -2.16087e-05 0)
(0.000614261 -2.10522e-05 0)
(0.000619714 -1.97541e-05 0)
(0.000624213 -1.75951e-05 0)
(0.000627341 -1.4618e-05 0)
(0.000628714 -1.08287e-05 0)
(0.000628236 -5.96551e-06 0)
(0.000625977 7.95394e-08 0)
(0.000622097 6.70731e-06 0)
(0.00061683 1.26041e-05 0)
(0.000610268 1.62491e-05 0)
(0.00060258 1.64918e-05 0)
(0.000594139 1.26859e-05 0)
(0.000585337 4.74429e-06 0)
(0.000576451 -6.78151e-06 0)
(0.00056769 -2.06748e-05 0)
(0.000558986 -3.52095e-05 0)
(0.000550138 -4.81427e-05 0)
(0.000541549 -5.70763e-05 0)
(0.000533242 -6.02966e-05 0)
(0.000524319 -5.70581e-05 0)
(0.000514342 -4.77942e-05 0)
(0.000503717 -3.41734e-05 0)
(0.000493319 -1.82561e-05 0)
(0.000484234 -1.89763e-06 0)
(0.00047728 1.36056e-05 0)
(0.000472292 2.74811e-05 0)
(0.000468038 3.91608e-05 0)
(0.000462747 4.83758e-05 0)
(0.000455149 5.51747e-05 0)
(0.000444454 5.96272e-05 0)
(0.000430017 6.19705e-05 0)
(0.000411703 6.26522e-05 0)
(0.000389963 6.22787e-05 0)
(0.000365655 6.14684e-05 0)
(0.000339926 6.06736e-05 0)
(0.000314135 6.00623e-05 0)
(0.000289187 5.94592e-05 0)
(0.000265308 5.86125e-05 0)
(0.000242647 5.73323e-05 0)
(0.000221415 5.54262e-05 0)
(0.000201773 5.27151e-05 0)
(0.000183856 4.90766e-05 0)
(0.00153877 4.70156e-05 0)
(0.00153341 6.32137e-05 0)
(0.001531 7.8905e-05 0)
(0.00152822 9.38739e-05 0)
(0.00152328 0.000108222 0)
(0.00151557 0.000121885 0)
(0.00150508 0.000134588 0)
(0.00149204 0.000145941 0)
(0.00147663 0.00015557 0)
(0.0014589 0.000163224 0)
(0.00143877 0.000168798 0)
(0.00141614 0.000172317 0)
(0.00139099 0.000173875 0)
(0.00136349 0.000173577 0)
(0.00133384 0.000171544 0)
(0.00130235 0.000167957 0)
(0.00126952 0.000162969 0)
(0.00123587 0.000156645 0)
(0.00120182 0.000149063 0)
(0.00116778 0.000140411 0)
(0.00113399 0.000130921 0)
(0.00110076 0.000120841 0)
(0.00106845 0.000110404 0)
(0.00103741 9.98061e-05 0)
(0.00100797 8.91991e-05 0)
(0.000980355 7.87149e-05 0)
(0.000954774 6.84953e-05 0)
(0.000931358 5.86815e-05 0)
(0.000910197 4.93991e-05 0)
(0.000891335 4.07372e-05 0)
(0.000874786 3.27249e-05 0)
(0.000860522 2.53451e-05 0)
(0.000848494 1.8503e-05 0)
(0.000838679 1.20472e-05 0)
(0.00083086 5.8031e-06 0)
(0.000824977 -3.5719e-07 0)
(0.00082101 -6.47906e-06 0)
(0.000818743 -1.26157e-05 0)
(0.000817921 -1.87098e-05 0)
(0.000818366 -2.46617e-05 0)
(0.000819918 -3.03126e-05 0)
(0.000822412 -3.55346e-05 0)
(0.000825702 -4.02309e-05 0)
(0.000829649 -4.43367e-05 0)
(0.000834143 -4.78061e-05 0)
(0.000839139 -5.05942e-05 0)
(0.000844646 -5.26507e-05 0)
(0.000850677 -5.39118e-05 0)
(0.000857231 -5.42947e-05 0)
(0.000864339 -5.37034e-05 0)
(0.00087207 -5.20123e-05 0)
(0.000880511 -4.90531e-05 0)
(0.000889843 -4.46987e-05 0)
(0.000900242 -3.90142e-05 0)
(0.00091185 -3.22307e-05 0)
(0.000924759 -2.45161e-05 0)
(0.000938697 -1.60794e-05 0)
(0.000953338 -7.47095e-06 0)
(0.000968283 8.24804e-07 0)
(0.00098256 8.54178e-06 0)
(0.000995012 1.53937e-05 0)
(0.00100441 2.13158e-05 0)
(0.00100962 2.69649e-05 0)
(0.00100991 3.294e-05 0)
(0.00100518 3.86295e-05 0)
(0.000995012 4.36022e-05 0)
(0.000979024 4.90049e-05 0)
(0.000958403 5.60426e-05 0)
(0.000934216 6.27858e-05 0)
(0.000907064 6.45462e-05 0)
(0.000877963 5.855e-05 0)
(0.00084769 4.66462e-05 0)
(0.000816766 3.34276e-05 0)
(0.000785771 2.30501e-05 0)
(0.000755879 1.81652e-05 0)
(0.000728389 2.0086e-05 0)
(0.000703403 2.93364e-05 0)
(0.000680161 4.49211e-05 0)
(0.000658519 6.4317e-05 0)
(0.000638633 8.4484e-05 0)
(0.000620637 0.000102825 0)
(0.00060428 0.000117669 0)
(0.000588622 0.00012821 0)
(0.000571956 0.000134158 0)
(0.000553089 0.0001357 0)
(0.000532195 0.000133486 0)
(0.000509847 0.000128289 0)
(0.000486499 0.000120859 0)
(0.000462761 0.000111753 0)
(0.000439412 0.000101293 0)
(0.00165257 4.7675e-05 0)
(0.00165316 6.6058e-05 0)
(0.00165495 8.44974e-05 0)
(0.00165755 0.000102498 0)
(0.00165983 0.000120088 0)
(0.00166075 0.000137333 0)
(0.00165963 0.000154182 0)
(0.00165618 0.000170416 0)
(0.00165041 0.000185701 0)
(0.00164232 0.000199689 0)
(0.00163184 0.000212069 0)
(0.00161878 0.000222556 0)
(0.00160298 0.000230903 0)
(0.00158437 0.000236947 0)
(0.00156292 0.000240569 0)
(0.00153865 0.000241692 0)
(0.00151158 0.000240306 0)
(0.00148188 0.000236454 0)
(0.00144993 0.000230246 0)
(0.00141623 0.000221873 0)
(0.00138128 0.000211594 0)
(0.00134564 0.000199697 0)
(0.00130986 0.000186493 0)
(0.00127442 0.00017234 0)
(0.00123976 0.000157638 0)
(0.00120629 0.000142763 0)
(0.00117435 0.00012803 0)
(0.00114416 0.000113688 0)
(0.00111591 9.99061e-05 0)
(0.00108977 8.67518e-05 0)
(0.00106588 7.4217e-05 0)
(0.00104431 6.22527e-05 0)
(0.00102507 5.08045e-05 0)
(0.00100813 3.9824e-05 0)
(0.000993426 2.9262e-05 0)
(0.000980963 1.90998e-05 0)
(0.000970535 9.32691e-06 0)
(0.000961916 -4.32245e-08 0)
(0.000954936 -8.88662e-06 0)
(0.000949456 -1.70246e-05 0)
(0.000945305 -2.43791e-05 0)
(0.000942166 -3.08922e-05 0)
(0.0009398 -3.65554e-05 0)
(0.000938023 -4.14043e-05 0)
(0.000936747 -4.55429e-05 0)
(0.000936066 -4.90437e-05 0)
(0.000936178 -5.19261e-05 0)
(0.000937298 -5.42135e-05 0)
(0.000939633 -5.59038e-05 0)
(0.000943368 -5.69385e-05 0)
(0.000948643 -5.72853e-05 0)
(0.000955589 -5.69429e-05 0)
(0.000964307 -5.59177e-05 0)
(0.000974701 -5.42755e-05 0)
(0.000986512 -5.21803e-05 0)
(0.000999705 -4.98036e-05 0)
(0.00101442 -4.71933e-05 0)
(0.00103065 -4.44316e-05 0)
(0.00104824 -4.17847e-05 0)
(0.00106696 -3.92519e-05 0)
(0.00108651 -3.65048e-05 0)
(0.00110652 -3.32307e-05 0)
(0.0011268 -2.89744e-05 0)
(0.00114696 -2.27188e-05 0)
(0.00116647 -1.35661e-05 0)
(0.0011853 -1.40332e-06 0)
(0.00120348 1.39278e-05 0)
(0.00122087 3.25683e-05 0)
(0.00123765 5.36118e-05 0)
(0.00125322 7.53549e-05 0)
(0.00126544 9.63788e-05 0)
(0.00127163 0.000116053 0)
(0.00127034 0.000133668 0)
(0.00126134 0.000148481 0)
(0.0012433 0.000159984 0)
(0.00121507 0.000167899 0)
(0.00117885 0.000172637 0)
(0.00113742 0.000174641 0)
(0.00109253 0.000173198 0)
(0.00104562 0.000167547 0)
(0.000997957 0.000158906 0)
(0.000950558 0.000150338 0)
(0.000904572 0.000144506 0)
(0.000861782 0.000142117 0)
(0.000823438 0.000142491 0)
(0.000789086 0.000144486 0)
(0.000757743 0.000146653 0)
(0.000728825 0.000147469 0)
(0.000701853 0.00014554 0)
(0.000676525 0.000139838 0)
(0.00164273 4.00334e-05 0)
(0.00164855 5.523e-05 0)
(0.00165421 7.22992e-05 0)
(0.00165995 9.06304e-05 0)
(0.0016655 0.000109632 0)
(0.00167028 0.000128889 0)
(0.00167379 0.000148138 0)
(0.00167571 0.000167202 0)
(0.00167594 0.000185871 0)
(0.00167453 0.000203853 0)
(0.00167144 0.00022083 0)
(0.00166652 0.000236558 0)
(0.00165969 0.000250843 0)
(0.00165091 0.000263453 0)
(0.00164002 0.000274108 0)
(0.00162682 0.000282529 0)
(0.00161127 0.000288439 0)
(0.00159334 0.000291615 0)
(0.00157297 0.000291933 0)
(0.00155012 0.000289346 0)
(0.00152476 0.000283869 0)
(0.00149687 0.000275691 0)
(0.0014667 0.000265156 0)
(0.00143473 0.000252567 0)
(0.00140153 0.000238136 0)
(0.00136755 0.000222168 0)
(0.0013333 0.000205108 0)
(0.00129939 0.000187363 0)
(0.00126642 0.000169203 0)
(0.00123479 0.000150872 0)
(0.0012047 0.000132686 0)
(0.00117636 0.000114962 0)
(0.00114996 9.79055e-05 0)
(0.00112569 8.15695e-05 0)
(0.00110363 6.5905e-05 0)
(0.00108377 5.0846e-05 0)
(0.00106597 3.64017e-05 0)
(0.00105008 2.2708e-05 0)
(0.00103589 9.97337e-06 0)
(0.00102283 -1.52718e-06 0)
(0.00101022 -1.16341e-05 0)
(0.000997772 -2.02465e-05 0)
(0.000985565 -2.73853e-05 0)
(0.0009739 -3.33796e-05 0)
(0.000963303 -3.88241e-05 0)
(0.000954525 -4.43324e-05 0)
(0.000948125 -5.01334e-05 0)
(0.000944321 -5.62252e-05 0)
(0.000943129 -6.2485e-05 0)
(0.000944337 -6.86498e-05 0)
(0.000947639 -7.43898e-05 0)
(0.000952803 -7.93656e-05 0)
(0.000959655 -8.32411e-05 0)
(0.000968202 -8.59149e-05 0)
(0.000978598 -8.74697e-05 0)
(0.000990964 -8.79749e-05 0)
(0.00100536 -8.74945e-05 0)
(0.00102178 -8.61476e-05 0)
(0.00104014 -8.40139e-05 0)
(0.00106021 -8.10298e-05 0)
(0.00108179 -7.70847e-05 0)
(0.00110473 -7.21373e-05 0)
(0.00112882 -6.6093e-05 0)
(0.00115387 -5.87509e-05 0)
(0.00117988 -4.98634e-05 0)
(0.00120694 -3.92962e-05 0)
(0.00123486 -2.69737e-05 0)
(0.00126357 -1.28354e-05 0)
(0.00129329 2.83016e-06 0)
(0.00132408 1.95384e-05 0)
(0.00135557 3.71634e-05 0)
(0.00138675 5.58097e-05 0)
(0.00141638 7.59524e-05 0)
(0.00144336 9.82994e-05 0)
(0.00146703 0.000123045 0)
(0.00148762 0.000150048 0)
(0.00150468 0.000179022 0)
(0.00151673 0.000208726 0)
(0.00152227 0.00023716 0)
(0.00151992 0.000262318 0)
(0.00150821 0.000282616 0)
(0.00148634 0.000296824 0)
(0.001455 0.000304387 0)
(0.00141512 0.000305344 0)
(0.0013673 0.000299754 0)
(0.00131353 0.000288602 0)
(0.00125664 0.000273877 0)
(0.00119909 0.000256963 0)
(0.00114279 0.000237969 0)
(0.00108935 0.00021628 0)
(0.0017056 2.38323e-05 0)
(0.00171279 4.20035e-05 0)
(0.00171893 6.22155e-05 0)
(0.00172307 8.40573e-05 0)
(0.00172462 0.000106906 0)
(0.00172345 0.000130168 0)
(0.00171965 0.000153289 0)
(0.00171334 0.000175765 0)
(0.00170464 0.000197183 0)
(0.00169374 0.000217196 0)
(0.00168111 0.000235503 0)
(0.00166735 0.000251944 0)
(0.00165288 0.000266562 0)
(0.00163789 0.000279499 0)
(0.00162257 0.000290839 0)
(0.00160713 0.000300613 0)
(0.00159167 0.000308905 0)
(0.00157621 0.000315769 0)
(0.00156073 0.000320986 0)
(0.00154506 0.000324211 0)
(0.00152899 0.000325253 0)
(0.0015123 0.000323879 0)
(0.00149449 0.000319638 0)
(0.00147481 0.000312381 0)
(0.00145286 0.000302538 0)
(0.00142882 0.00029049 0)
(0.001403 0.000276135 0)
(0.0013754 0.00025946 0)
(0.00134599 0.000241116 0)
(0.00131534 0.000222007 0)
(0.00128448 0.000202575 0)
(0.00125421 0.000182789 0)
(0.00122487 0.000162641 0)
(0.00119656 0.000142351 0)
(0.00116942 0.000122244 0)
(0.00114353 0.000102642 0)
(0.00111869 8.39122e-05 0)
(0.00109437 6.66324e-05 0)
(0.0010699 5.15859e-05 0)
(0.00104492 3.93276e-05 0)
(0.00101988 2.96939e-05 0)
(0.000996107 2.16668e-05 0)
(0.000974858 1.38395e-05 0)
(0.00095668 4.75805e-06 0)
(0.000941774 -6.53782e-06 0)
(0.000930632 -1.97938e-05 0)
(0.000923381 -3.36624e-05 0)
(0.000919082 -4.64727e-05 0)
(0.000916691 -5.75355e-05 0)
(0.000915488 -6.72527e-05 0)
(0.000915019 -7.61162e-05 0)
(0.000915202 -8.42348e-05 0)
(0.000915879 -9.15365e-05 0)
(0.000916756 -9.79169e-05 0)
(0.000918043 -0.000103416 0)
(0.000920394 -0.000108219 0)
(0.000924581 -0.000112552 0)
(0.000931338 -0.000116606 0)
(0.00094122 -0.000120413 0)
(0.000954543 -0.000123823 0)
(0.000971424 -0.000126563 0)
(0.000991811 -0.000128305 0)
(0.00101555 -0.000128659 0)
(0.00104247 -0.000127193 0)
(0.00107238 -0.000123588 0)
(0.00110518 -0.000117596 0)
(0.00114095 -0.000109025 0)
(0.00117977 -9.7769e-05 0)
(0.00122146 -8.39092e-05 0)
(0.00126556 -6.75622e-05 0)
(0.00131135 -4.87624e-05 0)
(0.00135859 -2.76119e-05 0)
(0.00140721 -3.9638e-06 0)
(0.00145657 2.24898e-05 0)
(0.00150591 5.18815e-05 0)
(0.00155474 8.39043e-05 0)
(0.00160218 0.000117967 0)
(0.00164676 0.000153346 0)
(0.00168727 0.00018926 0)
(0.00172258 0.000224896 0)
(0.00175151 0.000259362 0)
(0.00177296 0.000291682 0)
(0.00178601 0.000320786 0)
(0.00178959 0.000345591 0)
(0.00178313 0.000365057 0)
(0.00176727 0.000378283 0)
(0.00174257 0.000384602 0)
(0.00170915 0.000383486 0)
(0.00166798 0.000374621 0)
(0.00162064 0.000358018 0)
(0.00183435 -3.66924e-06 0)
(0.00184602 2.21538e-05 0)
(0.00185733 4.91495e-05 0)
(0.00186628 7.75719e-05 0)
(0.00187194 0.000107426 0)
(0.00187364 0.000138297 0)
(0.00187077 0.00016959 0)
(0.001863 0.000200566 0)
(0.00185021 0.000230465 0)
(0.00183238 0.000258606 0)
(0.00180967 0.000284383 0)
(0.00178262 0.000307249 0)
(0.00175189 0.000326663 0)
(0.00171804 0.000342071 0)
(0.00168176 0.000353195 0)
(0.00164406 0.000360244 0)
(0.0016063 0.000363546 0)
(0.00156983 0.000363589 0)
(0.00153564 0.000361578 0)
(0.00150453 0.000358717 0)
(0.00147695 0.000355276 0)
(0.00145262 0.000351418 0)
(0.00143099 0.000347774 0)
(0.00141187 0.000344089 0)
(0.00139454 0.000338736 0)
(0.00137729 0.000330787 0)
(0.00135885 0.000321276 0)
(0.00133941 0.00031123 0)
(0.00131958 0.000299647 0)
(0.00129884 0.000284672 0)
(0.00127589 0.000266084 0)
(0.00125021 0.000245521 0)
(0.00122257 0.000224545 0)
(0.00119395 0.000203553 0)
(0.00116436 0.000182652 0)
(0.00113318 0.000162652 0)
(0.0011003 0.000144932 0)
(0.00106652 0.000130557 0)
(0.00103301 0.00011932 0)
(0.00100087 0.000109002 0)
(0.000971449 9.62506e-05 0)
(0.000946337 7.94477e-05 0)
(0.000926381 6.00715e-05 0)
(0.000911397 4.02534e-05 0)
(0.000901325 2.00525e-05 0)
(0.000895871 -1.27763e-06 0)
(0.000893402 -2.28444e-05 0)
(0.00089021 -4.25133e-05 0)
(0.000881451 -5.87854e-05 0)
(0.000864509 -7.08297e-05 0)
(0.000840407 -7.82366e-05 0)
(0.000812307 -8.16811e-05 0)
(0.000783997 -8.31313e-05 0)
(0.000758762 -8.48901e-05 0)
(0.000738663 -8.88043e-05 0)
(0.000724795 -9.58454e-05 0)
(0.000717629 -0.00010589 0)
(0.000717239 -0.000118118 0)
(0.000723385 -0.000131452 0)
(0.000735598 -0.000144834 0)
(0.000753274 -0.000157369 0)
(0.00077578 -0.000168345 0)
(0.00080251 -0.000177266 0)
(0.000832952 -0.000183829 0)
(0.000866732 -0.00018788 0)
(0.000903608 -0.000189356 0)
(0.000943451 -0.000188315 0)
(0.000986257 -0.000184896 0)
(0.0010321 -0.000179219 0)
(0.00108119 -0.000171217 0)
(0.00113376 -0.000160652 0)
(0.00118993 -0.000147047 0)
(0.00124962 -0.00012995 0)
(0.00131259 -0.000108873 0)
(0.00137862 -8.3468e-05 0)
(0.00144685 -5.35928e-05 0)
(0.00151592 -1.91837e-05 0)
(0.00158503 1.96825e-05 0)
(0.00165365 6.25424e-05 0)
(0.00172032 0.000108517 0)
(0.00178319 0.00015659 0)
(0.0018409 0.000205542 0)
(0.0018922 0.000253956 0)
(0.00193589 0.000300382 0)
(0.00197083 0.000343341 0)
(0.001996 0.000381194 0)
(0.0020104 0.000412264 0)
(0.00201329 0.000435137 0)
(0.00200446 0.00044867 0)
(0.00198414 0.00045203 0)
(0.00179053 -4.08605e-05 0)
(0.00181118 -1.3359e-05 0)
(0.00183253 1.7318e-05 0)
(0.00185515 5.07839e-05 0)
(0.00187675 8.68077e-05 0)
(0.00189554 0.000125139 0)
(0.00191043 0.000165256 0)
(0.00192058 0.00020647 0)
(0.00192539 0.000248033 0)
(0.00192452 0.000288997 0)
(0.00191764 0.000328375 0)
(0.00190402 0.000365288 0)
(0.00188295 0.000398566 0)
(0.00185426 0.000427003 0)
(0.00181794 0.000449894 0)
(0.00177441 0.000466321 0)
(0.00172478 0.000475422 0)
(0.00167045 0.00047754 0)
(0.00161327 0.0004729 0)
(0.00155564 0.000461484 0)
(0.00149961 0.000445626 0)
(0.00144738 0.000428291 0)
(0.00140142 0.000409986 0)
(0.00136236 0.000391855 0)
(0.00132927 0.000377521 0)
(0.00130198 0.000367795 0)
(0.00128024 0.000358145 0)
(0.0012612 0.000344688 0)
(0.00124093 0.000329489 0)
(0.0012181 0.000317078 0)
(0.00119409 0.000307715 0)
(0.00116976 0.000297244 0)
(0.00114385 0.000282893 0)
(0.00111487 0.000266532 0)
(0.00108322 0.000251563 0)
(0.00105078 0.000238507 0)
(0.00101905 0.000224917 0)
(0.000988142 0.000208852 0)
(0.000957791 0.0001904 0)
(0.000929236 0.000169692 0)
(0.000906502 0.000145519 0)
(0.00089423 0.000117565 0)
(0.000892965 8.78894e-05 0)
(0.000896097 5.71914e-05 0)
(0.000891684 2.4419e-05 0)
(0.000870075 -5.44962e-06 0)
(0.000830039 -2.06026e-05 0)
(0.000776522 -1.42467e-05 0)
(0.00071625 7.70358e-06 0)
(0.000655899 3.11111e-05 0)
(0.000600714 4.40225e-05 0)
(0.000554468 4.19011e-05 0)
(0.00051965 2.61884e-05 0)
(0.000497097 6.5919e-07 0)
(0.000486049 -3.09381e-05 0)
(0.000485435 -6.53505e-05 0)
(0.000494063 -0.000100209 0)
(0.000510364 -0.000133818 0)
(0.000532727 -0.000165014 0)
(0.00055971 -0.000192999 0)
(0.000590055 -0.000217312 0)
(0.000622738 -0.000237754 0)
(0.000656954 -0.000254355 0)
(0.000692127 -0.000267307 0)
(0.000727907 -0.000276936 0)
(0.000764184 -0.00028367 0)
(0.000801137 -0.000287953 0)
(0.000839196 -0.000290211 0)
(0.000879036 -0.000290712 0)
(0.000921494 -0.000289499 0)
(0.000967448 -0.000286371 0)
(0.00101772 -0.000280818 0)
(0.00107296 -0.000272068 0)
(0.00113358 -0.000259144 0)
(0.00119962 -0.000241067 0)
(0.00127066 -0.000217104 0)
(0.00134587 -0.000186617 0)
(0.00142412 -0.000149338 0)
(0.00150411 -0.000105594 0)
(0.00158469 -5.62198e-05 0)
(0.00166465 -2.16367e-06 0)
(0.00174257 5.5415e-05 0)
(0.00181702 0.000115131 0)
(0.00188649 0.000175553 0)
(0.00194957 0.00023527 0)
(0.00200502 0.000292673 0)
(0.00205171 0.000345985 0)
(0.00208848 0.000393585 0)
(0.00211431 0.000433942 0)
(0.00212845 0.000465631 0)
(0.00152985 -0.000102598 0)
(0.00156593 -7.82045e-05 0)
(0.00160324 -4.78165e-05 0)
(0.00164124 -1.24142e-05 0)
(0.00167946 2.72764e-05 0)
(0.0017167 7.07681e-05 0)
(0.00175152 0.000117534 0)
(0.00178287 0.000167051 0)
(0.0018101 0.000218574 0)
(0.00183264 0.000271145 0)
(0.00184976 0.000323839 0)
(0.00186069 0.000375506 0)
(0.00186475 0.00042483 0)
(0.00186104 0.000470898 0)
(0.00184876 0.000512389 0)
(0.00182759 0.000547438 0)
(0.00179699 0.000575233 0)
(0.00175668 0.000594591 0)
(0.00170759 0.000603253 0)
(0.00165049 0.000601594 0)
(0.00158658 0.000590516 0)
(0.0015192 0.000568315 0)
(0.00145107 0.0005378 0)
(0.00138406 0.000506046 0)
(0.00132244 0.000473497 0)
(0.00126973 0.000438536 0)
(0.00122395 0.000409118 0)
(0.00118215 0.000394174 0)
(0.00114567 0.000388917 0)
(0.00111659 0.000380678 0)
(0.00109237 0.000365264 0)
(0.00106811 0.000349436 0)
(0.00104196 0.000339011 0)
(0.00101545 0.0003309 0)
(0.00098936 0.000318396 0)
(0.000962243 0.000300095 0)
(0.000933869 0.000280668 0)
(0.000908043 0.000264292 0)
(0.000890875 0.000248039 0)
(0.000885627 0.00022145 0)
(0.000888262 0.000174308 0)
(0.000887487 0.000111085 0)
(0.000870653 5.86822e-05 0)
(0.000830542 4.84524e-05 0)
(0.00076729 8.48378e-05 0)
(0.000686872 0.000140599 0)
(0.000600078 0.000184059 0)
(0.000519889 0.000201482 0)
(0.000455742 0.00019494 0)
(0.000411137 0.00017046 0)
(0.00038543 0.000133123 0)
(0.000376036 8.70392e-05 0)
(0.000379791 3.58064e-05 0)
(0.000393615 -1.75351e-05 0)
(0.000415451 -7.04185e-05 0)
(0.000443864 -0.000120886 0)
(0.000477215 -0.000167594 0)
(0.000514199 -0.000209598 0)
(0.000553652 -0.000246274 0)
(0.000594481 -0.000277277 0)
(0.000635641 -0.00030255 0)
(0.000676172 -0.000322298 0)
(0.000715209 -0.000337001 0)
(0.000752045 -0.000347347 0)
(0.000786138 -0.00035421 0)
(0.000817123 -0.00035863 0)
(0.000844942 -0.000361732 0)
(0.000869974 -0.000364641 0)
(0.000893231 -0.000368251 0)
(0.000916316 -0.000373036 0)
(0.000941259 -0.000378808 0)
(0.000970143 -0.000384686 0)
(0.00100478 -0.000389132 0)
(0.00104647 -0.000390209 0)
(0.0010958 -0.000385869 0)
(0.00115269 -0.000374294 0)
(0.00121639 -0.00035417 0)
(0.00128572 -0.000324835 0)
(0.00135933 -0.000286297 0)
(0.0014358 -0.00023916 0)
(0.00151381 -0.000184548 0)
(0.0015921 -0.000123816 0)
(0.00166957 -5.84019e-05 0)
(0.00174535 1.03032e-05 0)
(0.0018184 8.08606e-05 0)
(0.00188711 0.000151743 0)
(0.00195023 0.000221635 0)
(0.00200682 0.000288882 0)
(0.00205565 0.000351662 0)
(0.00209534 0.000408202 0)
(0.00119641 -0.000197686 0)
(0.00124528 -0.000175667 0)
(0.00129573 -0.000146541 0)
(0.00134706 -0.000110663 0)
(0.00139816 -6.87844e-05 0)
(0.00144808 -2.17234e-05 0)
(0.00149603 2.98679e-05 0)
(0.00154125 8.53797e-05 0)
(0.00158315 0.000144219 0)
(0.00162144 0.00020581 0)
(0.00165581 0.000269173 0)
(0.00168583 0.000333247 0)
(0.00171076 0.000397163 0)
(0.00172968 0.000459755 0)
(0.00174178 0.00051919 0)
(0.00174592 0.000574197 0)
(0.00174083 0.000623383 0)
(0.00172603 0.000663829 0)
(0.00170087 0.000694305 0)
(0.00166456 0.000714591 0)
(0.00161845 0.000721076 0)
(0.00156368 0.000713348 0)
(0.00149998 0.000695964 0)
(0.00143107 0.000666537 0)
(0.00136201 0.000623544 0)
(0.00129281 0.000581164 0)
(0.00122513 0.000549635 0)
(0.00116752 0.000517636 0)
(0.00112453 0.00047612 0)
(0.00108943 0.000438059 0)
(0.00105373 0.00041851 0)
(0.00101758 0.000411718 0)
(0.000985805 0.000401559 0)
(0.000958426 0.000384633 0)
(0.000930855 0.000370233 0)
(0.000902153 0.000360971 0)
(0.000878818 0.00034387 0)
(0.0008684 0.000304021 0)
(0.00087055 0.000242212 0)
(0.000873968 0.000179265 0)
(0.000860595 0.000146002 0)
(0.000815428 0.000161306 0)
(0.000737604 0.000214765 0)
(0.000642432 0.000276746 0)
(0.000550212 0.000322191 0)
(0.000474619 0.000339872 0)
(0.000420338 0.000329327 0)
(0.000386163 0.000296189 0)
(0.000368889 0.000247521 0)
(0.000365517 0.000189062 0)
(0.000373579 0.000124814 0)
(0.000390912 5.76361e-05 0)
(0.000415674 -1.00722e-05 0)
(0.000446735 -7.63468e-05 0)
(0.000483078 -0.000139425 0)
(0.000523528 -0.000198012 0)
(0.000567209 -0.000250975 0)
(0.000613329 -0.000297389 0)
(0.000661123 -0.000336548 0)
(0.000709784 -0.000367999 0)
(0.000758451 -0.000391568 0)
(0.000806161 -0.000407449 0)
(0.000851935 -0.000416207 0)
(0.000894851 -0.000418696 0)
(0.000934036 -0.000415982 0)
(0.00096846 -0.00040952 0)
(0.000996835 -0.000401456 0)
(0.00101788 -0.000394704 0)
(0.00103118 -0.000392282 0)
(0.00103783 -0.000396352 0)
(0.00104064 -0.000407462 0)
(0.00104343 -0.000424457 0)
(0.00105014 -0.000444707 0)
(0.00106404 -0.000464597 0)
(0.00108721 -0.000480075 0)
(0.00112041 -0.000487385 0)
(0.0011632 -0.000483711 0)
(0.00121427 -0.000467513 0)
(0.00127182 -0.000438612 0)
(0.00133406 -0.000397848 0)
(0.0013994 -0.000346712 0)
(0.00146652 -0.000286975 0)
(0.00153434 -0.000220408 0)
(0.00160192 -0.000148598 0)
(0.00166857 -7.29967e-05 0)
(0.00173416 5.00813e-06 0)
(0.00179779 8.40043e-05 0)
(0.00185776 0.000162516 0)
(0.00191295 0.000239255 0)
(0.00196232 0.000312615 0)
(0.000864133 -0.000320118 0)
(0.000926282 -0.00030015 0)
(0.000989343 -0.000271183 0)
(0.00105238 -0.000233909 0)
(0.00111445 -0.000189072 0)
(0.00117465 -0.000137614 0)
(0.00123219 -8.05476e-05 0)
(0.00128659 -1.87385e-05 0)
(0.00133771 4.70276e-05 0)
(0.00138495 0.000115861 0)
(0.00142804 0.000187222 0)
(0.00146725 0.000260382 0)
(0.00150245 0.000334439 0)
(0.00153331 0.000408293 0)
(0.00155923 0.000480971 0)
(0.00157931 0.000551411 0)
(0.00159288 0.000617469 0)
(0.00159912 0.000677335 0)
(0.0015967 0.00073007 0)
(0.00158523 0.000772242 0)
(0.00156469 0.00080095 0)
(0.00153357 0.00081768 0)
(0.00149259 0.000819471 0)
(0.00144473 0.00080142 0)
(0.00138911 0.000771769 0)
(0.00132657 0.000737142 0)
(0.00126612 0.000685966 0)
(0.001212 0.000618075 0)
(0.00115632 0.000562281 0)
(0.00109518 0.000536689 0)
(0.00103853 0.000522554 0)
(0.000996049 0.00049753 0)
(0.000963926 0.000467676 0)
(0.000932447 0.000450293 0)
(0.000901126 0.000441224 0)
(0.000879782 0.000415309 0)
(0.000874499 0.000357754 0)
(0.0008765 0.000285836 0)
(0.000865792 0.000238098 0)
(0.000825309 0.000242907 0)
(0.000753204 0.000295752 0)
(0.000663004 0.000366703 0)
(0.000573194 0.000425508 0)
(0.00049732 0.000456392 0)
(0.000441259 0.000456549 0)
(0.000405377 0.000429476 0)
(0.000387136 0.000380664 0)
(0.000383025 0.000316101 0)
(0.00038975 0.000241407 0)
(0.000404714 0.000161192 0)
(0.000426017 7.89097e-05 0)
(0.000452468 -2.94989e-06 0)
(0.000483119 -8.27134e-05 0)
(0.000517258 -0.000158964 0)
(0.00055456 -0.000230599 0)
(0.000594746 -0.000296521 0)
(0.000637522 -0.000355666 0)
(0.00068254 -0.000407071 0)
(0.000729387 -0.000449903 0)
(0.0007776 -0.000483482 0)
(0.000826653 -0.000507314 0)
(0.000875832 -0.00052132 0)
(0.000924263 -0.000526028 0)
(0.000971199 -0.000522397 0)
(0.00101638 -0.000511074 0)
(0.00105968 -0.000492101 0)
(0.0011001 -0.00046594 0)
(0.00113489 -0.00043553 0)
(0.00116008 -0.000407219 0)
(0.00117249 -0.000388985 0)
(0.00117197 -0.000386891 0)
(0.00116194 -0.000402538 0)
(0.00114819 -0.000432858 0)
(0.00113697 -0.000471504 0)
(0.0011333 -0.000510663 0)
(0.00114019 -0.000542777 0)
(0.0011585 -0.000561926 0)
(0.00118737 -0.000564674 0)
(0.00122491 -0.000550164 0)
(0.00126901 -0.000519516 0)
(0.00131762 -0.000475013 0)
(0.00136922 -0.000419244 0)
(0.00142267 -0.00035464 0)
(0.00147716 -0.000283233 0)
(0.00153204 -0.000206683 0)
(0.00158667 -0.000126369 0)
(0.00164086 -4.35937e-05 0)
(0.00169451 4.0634e-05 0)
(0.0017462 0.000125042 0)
(0.00179464 0.000208191 0)
(0.000506423 -0.000468927 0)
(0.000580867 -0.000452599 0)
(0.000656899 -0.000424556 0)
(0.000733084 -0.000385643 0)
(0.000808337 -0.000336732 0)
(0.000881469 -0.000279135 0)
(0.000951462 -0.000214346 0)
(0.00101738 -0.000143812 0)
(0.00107864 -6.87838e-05 0)
(0.00113575 9.55533e-06 0)
(0.00118872 9.01963e-05 0)
(0.0012366 0.000172334 0)
(0.00127958 0.000255502 0)
(0.00131806 0.000338921 0)
(0.00135206 0.000421959 0)
(0.00138146 0.000503556 0)
(0.001406 0.000582371 0)
(0.00142491 0.000657184 0)
(0.00143748 0.000725647 0)
(0.00144317 0.000784641 0)
(0.00144059 0.000832948 0)
(0.00142889 0.000868214 0)
(0.00140893 0.000885594 0)
(0.00137973 0.000886398 0)
(0.00134009 0.000873747 0)
(0.00129439 0.000840957 0)
(0.00124521 0.000790268 0)
(0.00118717 0.000746222 0)
(0.00112172 0.000719382 0)
(0.00106435 0.000685937 0)
(0.00102516 0.000629462 0)
(0.000995363 0.000571543 0)
(0.000961759 0.000539118 0)
(0.000926175 0.000522699 0)
(0.000902084 0.000487962 0)
(0.000894579 0.000421794 0)
(0.000890113 0.000351853 0)
(0.000866661 0.000320927 0)
(0.000811943 0.000348494 0)
(0.000731835 0.000417945 0)
(0.000643498 0.000494959 0)
(0.000563414 0.000551187 0)
(0.000500951 0.000573571 0)
(0.000458574 0.000561401 0)
(0.000434588 0.000520247 0)
(0.000425475 0.000457528 0)
(0.000427386 0.000380364 0)
(0.000436991 0.000294674 0)
(0.000451905 0.000204864 0)
(0.000470808 0.000113886 0)
(0.000493082 2.35272e-05 0)
(0.000518007 -6.52971e-05 0)
(0.000545358 -0.000151642 0)
(0.000575597 -0.000234486 0)
(0.000608826 -0.000312681 0)
(0.000644953 -0.000384918 0)
(0.000683715 -0.000449791 0)
(0.000724628 -0.000505995 0)
(0.000767004 -0.000552558 0)
(0.000810144 -0.000588803 0)
(0.000853549 -0.000614078 0)
(0.000896754 -0.00062788 0)