/*--------------------------------*- C++ -*----------------------------------*\
| =========                 |                                                 |
| \\      /  F ield         | OpenFOAM: The Open Source CFD Toolbox           |
|  \\    /   O peration     | Version:  2312                                  |
|   \\  /    A nd           | Website:  www.openfoam.com                      |
|    \\/     M anipulation  |                                                 |
\*---------------------------------------------------------------------------*/
FoamFile
{
    version     2.0;
    format      ascii;
    arch        "LSB;label=32;scalar=64";
    class       volVectorField;
    location    "197000";
    object      U;
}
// * * * * * * * * * * * * * * * * * * * * * * * * * * * * * * * * * * * * * //

dimensions      [0 1 -1 0 0 0 0];

internalField   nonuniform List<vector> 
2685
(
(0.000277277 7.44144e-06 0)
(0.000277181 7.51632e-06 0)
(0.000276827 6.8805e-06 0)
(0.000276499 5.40805e-06 0)
(0.00027648 3.15187e-06 0)
(0.000276939 3.80973e-07 0)
(0.000277887 -2.49264e-06 0)
(0.000279207 -5.0258e-06 0)
(0.000280605 -6.86532e-06 0)
(0.000281687 -7.85533e-06 0)
(0.000282071 -8.00126e-06 0)
(0.00028156 -7.42469e-06 0)
(0.000280224 -6.31465e-06 0)
(0.000278374 -4.9202e-06 0)
(0.000276423 -3.45665e-06 0)
(0.000274691 -2.06358e-06 0)
(0.00027327 -8.26008e-07 0)
(0.000272014 1.6776e-07 0)
(0.000270619 8.59995e-07 0)
(0.00026884 1.27307e-06 0)
(0.000266597 1.46206e-06 0)
(0.00026392 1.54938e-06 0)
(0.000260865 1.63942e-06 0)
(0.000257465 1.76003e-06 0)
(0.000253756 1.90366e-06 0)
(0.000249799 2.04411e-06 0)
(0.000245665 2.15545e-06 0)
(0.000241429 2.22476e-06 0)
(0.000237175 2.25219e-06 0)
(0.000232987 2.2473e-06 0)
(0.000228938 2.22527e-06 0)
(0.000225081 2.20233e-06 0)
(0.000221436 2.18969e-06 0)
(0.000217994 2.18884e-06 0)
(0.000214714 2.18968e-06 0)
(0.000211532 2.17527e-06 0)
(0.000208395 2.13069e-06 0)
(0.000205263 2.04266e-06 0)
(0.000202099 1.91561e-06 0)
(0.000198868 1.77625e-06 0)
(0.000195538 1.66392e-06 0)
(0.000192068 1.61371e-06 0)
(0.000188396 1.65382e-06 0)
(0.000184455 1.80076e-06 0)
(0.000180183 2.05301e-06 0)
(0.00017553 2.39311e-06 0)
(0.00017046 2.7936e-06 0)
(0.000164959 3.22387e-06 0)
(0.000159034 3.65573e-06 0)
(0.000152717 4.06627e-06 0)
(0.000146058 4.43787e-06 0)
(0.000139125 4.75718e-06 0)
(0.000131998 5.01707e-06 0)
(0.00012477 5.21458e-06 0)
(0.000117539 5.34687e-06 0)
(0.00011041 5.40998e-06 0)
(0.000103481 5.39983e-06 0)
(9.68452e-05 5.31408e-06 0)
(9.05779e-05 5.15348e-06 0)
(8.47351e-05 4.92212e-06 0)
(7.93513e-05 4.62753e-06 0)
(7.44492e-05 4.2801e-06 0)
(7.00491e-05 3.88795e-06 0)
(6.6168e-05 3.45381e-06 0)
(6.28196e-05 2.9782e-06 0)
(6.00193e-05 2.46164e-06 0)
(5.77864e-05 1.90551e-06 0)
(5.61432e-05 1.31318e-06 0)
(5.51143e-05 6.89232e-07 0)
(5.4728e-05 3.90045e-08 0)
(5.49727e-05 -6.3854e-07 0)
(5.58322e-05 -1.31362e-06 0)
(5.73161e-05 -1.96942e-06 0)
(5.94103e-05 -2.58965e-06 0)
(6.20883e-05 -3.1597e-06 0)
(6.53055e-05 -3.66307e-06 0)
(6.90093e-05 -4.08644e-06 0)
(7.31254e-05 -4.41286e-06 0)
(7.758e-05 -4.63375e-06 0)
(8.22691e-05 -4.73193e-06 0)
(8.71084e-05 -4.71188e-06 0)
(9.1962e-05 -4.55782e-06 0)
(9.6758e-05 -4.29944e-06 0)
(0.000101312 -3.9133e-06 0)
(0.000105643 -3.47518e-06 0)
(0.000109453 -2.91862e-06 0)
(0.000113061 -2.43239e-06 0)
(0.000115724 -1.81396e-06 0)
(0.000118912 -1.51989e-06 0)
(0.000637355 -7.99946e-06 0)
(0.000630101 -6.63008e-06 0)
(0.000621856 -5.49511e-06 0)
(0.000613695 -4.75108e-06 0)
(0.00060696 -4.37334e-06 0)
(0.000602808 -4.10582e-06 0)
(0.000601792 -3.48995e-06 0)
(0.000603632 -2.08831e-06 0)
(0.000607284 4.01953e-07 0)
(0.000611264 3.98758e-06 0)
(0.000614238 8.20495e-06 0)
(0.000615312 1.20969e-05 0)
(0.000614122 1.44996e-05 0)
(0.000610908 1.46937e-05 0)
(0.000606439 1.28212e-05 0)
(0.000601472 9.87463e-06 0)
(0.000596308 7.18502e-06 0)
(0.000590914 5.76055e-06 0)
(0.000585276 5.86432e-06 0)
(0.000579475 7.1022e-06 0)
(0.000573701 8.91731e-06 0)
(0.000568087 1.08583e-05 0)
(0.00056243 1.26456e-05 0)
(0.000556441 1.41752e-05 0)
(0.000549975 1.53653e-05 0)
(0.000543018 1.61932e-05 0)
(0.000535658 1.66864e-05 0)
(0.000528032 1.68587e-05 0)
(0.000520278 1.67027e-05 0)
(0.000512513 1.62288e-05 0)
(0.000504823 1.54909e-05 0)
(0.00049724 1.45851e-05 0)
(0.000489742 1.36316e-05 0)
(0.000482264 1.27506e-05 0)
(0.000474736 1.2041e-05 0)
(0.00046713 1.15694e-05 0)
(0.000459448 1.13687e-05 0)
(0.000451733 1.14382e-05 0)
(0.00044406 1.17598e-05 0)
(0.000436487 1.23117e-05 0)
(0.000429002 1.30721e-05 0)
(0.00042152 1.40165e-05 0)
(0.000413918 1.51231e-05 0)
(0.00040605 1.63736e-05 0)
(0.000397776 1.77454e-05 0)
(0.000389001 1.92037e-05 0)
(0.000379691 2.06981e-05 0)
(0.000369872 2.21653e-05 0)
(0.00035962 2.35359e-05 0)
(0.000349036 2.47428e-05 0)
(0.000338235 2.57276e-05 0)
(0.00032734 2.6443e-05 0)
(0.000316476 2.68466e-05 0)
(0.000305758 2.68996e-05 0)
(0.000295285 2.65722e-05 0)
(0.000285154 2.5855e-05 0)
(0.000275461 2.47665e-05 0)
(0.000266297 2.33556e-05 0)
(0.000257742 2.16953e-05 0)
(0.000249858 1.98703e-05 0)
(0.000242685 1.79576e-05 0)
(0.00023624 1.60143e-05 0)
(0.000230522 1.4076e-05 0)
(0.000225526 1.21535e-05 0)
(0.000221263 1.02378e-05 0)
(0.00021775 8.30946e-06 0)
(0.000215018 6.34816e-06 0)
(0.000213096 4.33977e-06 0)
(0.000212016 2.28122e-06 0)
(0.00021179 1.91762e-07 0)
(0.000212461 -1.93682e-06 0)
(0.000214041 -4.0713e-06 0)
(0.00021651 -6.17554e-06 0)
(0.000219827 -8.20302e-06 0)
(0.000223968 -1.01149e-05 0)
(0.000228855 -1.1861e-05 0)
(0.00023445 -1.34047e-05 0)
(0.000240612 -1.46897e-05 0)
(0.000247318 -1.57e-05 0)
(0.000254324 -1.63583e-05 0)
(0.000261676 -1.67001e-05 0)
(0.000268955 -1.66213e-05 0)
(0.00027644 -1.62464e-05 0)
(0.000283332 -1.5409e-05 0)
(0.000290508 -1.44427e-05 0)
(0.000296303 -1.29379e-05 0)
(0.000302863 -1.16714e-05 0)
(0.000306908 -9.59311e-06 0)
(0.00031302 -7.95141e-06 0)
(0.000976911 3.73608e-05 0)
(0.000971664 4.40734e-05 0)
(0.000964486 4.65127e-05 0)
(0.000955817 4.19403e-05 0)
(0.000945814 3.02437e-05 0)
(0.000934581 1.41036e-05 0)
(0.00092254 -2.29112e-06 0)
(0.000910517 -1.51148e-05 0)
(0.000899528 -2.20456e-05 0)
(0.000889432 -2.24416e-05 0)
(0.000878511 -1.72525e-05 0)
(0.000864885 -8.5036e-06 0)
(0.000848697 1.09126e-06 0)
(0.000832604 8.91621e-06 0)
(0.000820234 1.37207e-05 0)
(0.000814129 1.64463e-05 0)
(0.000814281 1.91919e-05 0)
(0.000818034 2.3028e-05 0)
(0.000821417 2.68428e-05 0)
(0.000821522 2.88288e-05 0)
(0.00081758 2.85564e-05 0)
(0.000810382 2.73435e-05 0)
(0.000801472 2.69199e-05 0)
(0.000792081 2.78968e-05 0)
(0.000782903 2.98301e-05 0)
(0.000774422 3.19405e-05 0)
(0.000766755 3.3689e-05 0)
(0.000759705 3.48592e-05 0)
(0.000753068 3.54036e-05 0)
(0.000746764 3.54246e-05 0)
(0.000740787 3.51406e-05 0)
(0.000735108 3.48228e-05 0)
(0.000729626 3.47208e-05 0)
(0.000724144 3.49788e-05 0)
(0.000718388 3.55679e-05 0)
(0.000712052 3.62767e-05 0)
(0.000704862 3.67984e-05 0)
(0.000696645 3.6895e-05 0)
(0.00068736 3.65325e-05 0)
(0.000677102 3.5912e-05 0)
(0.000666063 3.53923e-05 0)
(0.000654476 3.535e-05 0)
(0.000642544 3.604e-05 0)
(0.000630398 3.7523e-05 0)
(0.000618074 3.96726e-05 0)
(0.000605536 4.22302e-05 0)
(0.000592714 4.48809e-05 0)
(0.00057955 4.73222e-05 0)
(0.000566027 4.93128e-05 0)
(0.000552186 5.07033e-05 0)
(0.00053812 5.14467e-05 0)
(0.000523944 5.15776e-05 0)
(0.000509773 5.11663e-05 0)
(0.000495746 5.02774e-05 0)
(0.00048205 4.8948e-05 0)
(0.000468915 4.71905e-05 0)
(0.000456582 4.5017e-05 0)
(0.000445268 4.24654e-05 0)
(0.000435128 3.96042e-05 0)
(0.000426215 3.65255e-05 0)
(0.000418499 3.33215e-05 0)
(0.000411906 3.00537e-05 0)
(0.000406359 2.67292e-05 0)
(0.000401784 2.33216e-05 0)
(0.000398133 1.97873e-05 0)
(0.000395386 1.60839e-05 0)
(0.000393575 1.218e-05 0)
(0.000392738 8.06569e-06 0)
(0.000392974 3.74672e-06 0)
(0.000394255 -7.4055e-07 0)
(0.000396595 -5.29252e-06 0)
(0.000399993 -9.82449e-06 0)
(0.000404513 -1.42614e-05 0)
(0.000410042 -1.85053e-05 0)
(0.000416628 -2.24946e-05 0)
(0.000424072 -2.61302e-05 0)
(0.000432474 -2.93662e-05 0)
(0.000441466 -3.20569e-05 0)
(0.00045131 -3.42461e-05 0)
(0.000461304 -3.56451e-05 0)
(0.000472066 -3.65087e-05 0)
(0.000482306 -3.63968e-05 0)
(0.000493358 -3.58483e-05 0)
(0.000502924 -3.41787e-05 0)
(0.000513519 -3.24039e-05 0)
(0.000521577 -2.9308e-05 0)
(0.000530898 -2.6437e-05 0)
(0.000536788 -2.30304e-05 0)
(0.000545185 -1.75117e-05 0)
(0.00111987 6.60918e-06 0)
(0.00113587 1.61687e-05 0)
(0.00115175 2.38951e-05 0)
(0.00116673 3.01821e-05 0)
(0.00117937 3.63222e-05 0)
(0.00118807 4.20743e-05 0)
(0.0011917 4.49586e-05 0)
(0.00119016 4.37189e-05 0)
(0.00118473 4.20937e-05 0)
(0.00117696 4.71336e-05 0)
(0.00116736 6.21958e-05 0)
(0.00115487 8.15607e-05 0)
(0.00113803 9.29754e-05 0)
(0.00111741 8.63989e-05 0)
(0.00109577 6.15029e-05 0)
(0.00107511 2.8298e-05 0)
(0.0010542 1.07359e-06 0)
(0.00102973 -1.01304e-05 0)
(0.00100097 -4.40087e-06 0)
(0.000972324 1.12435e-05 0)
(0.00095041 2.8273e-05 0)
(0.000938664 4.227e-05 0)
(0.000934405 5.21238e-05 0)
(0.000931848 5.70265e-05 0)
(0.00092676 5.69904e-05 0)
(0.000918115 5.39965e-05 0)
(0.00090721 5.05788e-05 0)
(0.000895768 4.78808e-05 0)
(0.00088512 4.5744e-05 0)
(0.000876223 4.36401e-05 0)
(0.000869617 4.13538e-05 0)
(0.000865503 3.90936e-05 0)
(0.000863825 3.73335e-05 0)
(0.000864283 3.66175e-05 0)
(0.000866304 3.73492e-05 0)
(0.000869089 3.96271e-05 0)
(0.000871715 4.32038e-05 0)
(0.000873279 4.7592e-05 0)
(0.000873052 5.22078e-05 0)
(0.000870587 5.65177e-05 0)
(0.00086577 6.018e-05 0)
(0.000858784 6.31197e-05 0)
(0.000850029 6.55122e-05 0)
(0.000839999 6.76834e-05 0)
(0.000829166 6.99631e-05 0)
(0.000817886 7.25561e-05 0)
(0.00080636 7.54828e-05 0)
(0.000794646 7.85997e-05 0)
(0.000782697 8.16738e-05 0)
(0.000770415 8.44647e-05 0)
(0.000757688 8.67627e-05 0)
(0.000744434 8.83729e-05 0)
(0.00073064 8.90793e-05 0)
(0.000716389 8.86353e-05 0)
(0.000701846 8.6793e-05 0)
(0.000687247 8.33915e-05 0)
(0.000672873 7.8447e-05 0)
(0.000659017 7.22027e-05 0)
(0.000645946 6.50861e-05 0)
(0.000633859 5.75974e-05 0)
(0.000622941 5.01669e-05 0)
(0.000613278 4.30765e-05 0)
(0.000604929 3.6418e-05 0)
(0.000597905 3.01283e-05 0)
(0.000592297 2.40506e-05 0)
(0.000588142 1.79958e-05 0)
(0.000585546 1.1815e-05 0)
(0.000584504 5.40541e-06 0)
(0.000585081 -1.28029e-06 0)
(0.000587364 -8.17656e-06 0)
(0.000591419 -1.51933e-05 0)
(0.000597039 -2.2159e-05 0)
(0.000604123 -2.90114e-05 0)
(0.000612512 -3.5566e-05 0)
(0.000622105 -4.1769e-05 0)
(0.000632767 -4.74981e-05 0)
(0.000644488 -5.25917e-05 0)
(0.00065688 -5.68745e-05 0)
(0.000670434 -6.04068e-05 0)
(0.000683951 -6.2488e-05 0)
(0.000698821 -6.38428e-05 0)
(0.000712675 -6.32956e-05 0)
(0.000728026 -6.21951e-05 0)
(0.00074146 -5.89205e-05 0)
(0.000756107 -5.55754e-05 0)
(0.000768458 -5.04039e-05 0)
(0.000781611 -4.41545e-05 0)
(0.000790915 -4.00647e-05 0)
(0.000804393 -2.9255e-05 0)
(0.00111964 -3.03597e-05 0)
(0.00113893 -2.23849e-05 0)
(0.00115797 -1.61936e-05 0)
(0.00117642 -1.22579e-05 0)
(0.00119448 -9.56624e-06 0)
(0.00121251 -6.12352e-06 0)
(0.00123015 -9.26604e-07 0)
(0.00124607 4.74246e-06 0)
(0.00125936 9.15563e-06 0)
(0.00127138 1.40923e-05 0)
(0.00128504 2.55619e-05 0)
(0.0013019 4.73224e-05 0)
(0.0013201 7.3637e-05 0)
(0.00133543 9.19264e-05 0)
(0.00134421 9.64805e-05 0)
(0.00134401 9.79117e-05 0)
(0.00133164 0.000112564 0)
(0.00130484 0.000140677 0)
(0.00126687 0.00016109 0)
(0.00122521 0.000151696 0)
(0.00118471 0.000112811 0)
(0.00114394 6.75524e-05 0)
(0.0011003 4.07484e-05 0)
(0.0010566 3.98667e-05 0)
(0.00102015 5.45859e-05 0)
(0.000995416 7.11622e-05 0)
(0.000979753 8.18431e-05 0)
(0.000967384 8.43727e-05 0)
(0.000954789 7.97621e-05 0)
(0.000941858 7.05781e-05 0)
(0.000930353 5.92858e-05 0)
(0.000922123 4.77184e-05 0)
(0.000918363 3.73353e-05 0)
(0.000919423 2.94636e-05 0)
(0.000924763 2.51684e-05 0)
(0.000933099 2.49692e-05 0)
(0.000942821 2.86288e-05 0)
(0.000952365 3.53605e-05 0)
(0.0009604 4.40761e-05 0)
(0.000965969 5.35632e-05 0)
(0.000968541 6.28075e-05 0)
(0.000967975 7.11125e-05 0)
(0.000964456 7.81399e-05 0)
(0.000958402 8.38904e-05 0)
(0.000950359 8.86108e-05 0)
(0.0009409 9.26509e-05 0)
(0.000930533 9.63227e-05 0)
(0.000919649 9.98091e-05 0)
(0.000908506 0.000103145 0)
(0.000897244 0.000106255 0)
(0.000885922 0.000109 0)
(0.000874559 0.000111209 0)
(0.00086316 0.000112675 0)
(0.00085172 0.000113158 0)
(0.000840241 0.000112389 0)
(0.000828705 0.000110148 0)
(0.000817129 0.000106327 0)
(0.000805521 0.000101012 0)
(0.000793985 9.44398e-05 0)
(0.000782631 8.6962e-05 0)
(0.000771694 7.88733e-05 0)
(0.0007614 7.03895e-05 0)
(0.00075206 6.15509e-05 0)
(0.000743987 5.2318e-05 0)
(0.000737448 4.25787e-05 0)
(0.000732803 3.22467e-05 0)
(0.000730117 2.13456e-05 0)
(0.00072975 9.94305e-06 0)
(0.000731622 -1.68434e-06 0)
(0.000736268 -1.33037e-05 0)
(0.000743155 -2.46565e-05 0)
(0.000752702 -3.55915e-05 0)
(0.000764243 -4.5897e-05 0)
(0.000778166 -5.55546e-05 0)
(0.000793599 -6.43103e-05 0)
(0.000810886 -7.25983e-05 0)
(0.000829297 -7.96189e-05 0)
(0.000848252 -8.59669e-05 0)
(0.000868524 -9.14941e-05 0)
(0.000887648 -9.47867e-05 0)
(0.000908243 -9.8135e-05 0)
(0.000926406 -9.81157e-05 0)
(0.000945919 -9.81305e-05 0)
(0.000962572 -9.51182e-05 0)
(0.000979804 -9.0402e-05 0)
(0.000994422 -8.65068e-05 0)
(0.00101029 -7.4938e-05 0)
(0.00102028 -7.25464e-05 0)
(0.0010386 -5.40507e-05 0)
(0.00112327 -7.85793e-05 0)
(0.00114631 -6.8977e-05 0)
(0.00116888 -6.01891e-05 0)
(0.0011907 -5.27173e-05 0)
(0.00121153 -4.64573e-05 0)
(0.00123153 -4.02335e-05 0)
(0.00125121 -3.26202e-05 0)
(0.00127073 -2.37714e-05 0)
(0.00128948 -1.57571e-05 0)
(0.00130681 -9.68706e-06 0)
(0.00132338 -2.47926e-06 0)
(0.0013411 1.1058e-05 0)
(0.0013611 3.07807e-05 0)
(0.0013817 4.84205e-05 0)
(0.0013995 5.72745e-05 0)
(0.00141273 6.41946e-05 0)
(0.0014231 8.45845e-05 0)
(0.00143358 0.000121132 0)
(0.00144528 0.000156299 0)
(0.00145492 0.0001761 0)
(0.00145274 0.000191948 0)
(0.00142773 0.000220548 0)
(0.00137968 0.000249418 0)
(0.00131939 0.000246653 0)
(0.00125579 0.000203914 0)
(0.00119151 0.000148376 0)
(0.00112905 0.000110959 0)
(0.00107383 9.84617e-05 0)
(0.00103043 9.78555e-05 0)
(0.000999004 9.51849e-05 0)
(0.000976536 8.44036e-05 0)
(0.000960506 6.60656e-05 0)
(0.000950278 4.41126e-05 0)
(0.000946218 2.33468e-05 0)
(0.000948329 7.81143e-06 0)
(0.000955472 -6.92047e-08 0)
(0.000965737 3.17158e-07 0)
(0.000977114 7.93761e-06 0)
(0.000987557 2.0814e-05 0)
(0.000995552 3.67552e-05 0)
(0.00100039 5.37195e-05 0)
(0.00100185 7.00696e-05 0)
(0.00100004 8.4709e-05 0)
(0.000995372 9.70835e-05 0)
(0.000988381 0.000107108 0)
(0.000979659 0.000115026 0)
(0.000969755 0.000121246 0)
(0.000959119 0.000126194 0)
(0.000948064 0.000130212 0)
(0.000936764 0.000133525 0)
(0.000925274 0.000136219 0)
(0.000913566 0.000138261 0)
(0.000901579 0.00013949 0)
(0.000889226 0.000139665 0)
(0.000876449 0.000138481 0)
(0.000863183 0.000135706 0)
(0.000849415 0.000131187 0)
(0.00083516 0.000125012 0)
(0.000820519 0.000117331 0)
(0.000805731 0.000108467 0)
(0.000791053 9.85629e-05 0)
(0.000777033 8.78173e-05 0)
(0.000763943 7.6147e-05 0)
(0.000752621 6.35288e-05 0)
(0.000743065 4.98793e-05 0)
(0.000736363 3.50526e-05 0)
(0.000732011 1.93644e-05 0)
(0.000731305 2.56175e-06 0)
(0.000733373 -1.446e-05 0)
(0.00073962 -3.21274e-05 0)
(0.000748843 -4.93642e-05 0)
(0.000762156 -6.64974e-05 0)
(0.000778748 -8.26311e-05 0)
(0.000798972 -9.78552e-05 0)
(0.000822196 -0.000111182 0)
(0.000848616 -0.000123931 0)
(0.000877329 -0.00013302 0)
(0.000907823 -0.000141081 0)
(0.000940468 -0.000147582 0)
(0.000972928 -0.000148093 0)
(0.00100729 -0.000150742 0)
(0.00103874 -0.000146689 0)
(0.00107314 -0.000141681 0)
(0.00110134 -0.000136327 0)
(0.00113291 -0.000123733 0)
(0.00115614 -0.000119222 0)
(0.00118535 -0.000101165 0)
(0.00119936 -9.85448e-05 0)
(0.00123024 -7.69919e-05 0)
(0.00113438 -0.000130074 0)
(0.00116286 -0.000119179 0)
(0.00119059 -0.000109485 0)
(0.00121764 -0.000101094 0)
(0.00124393 -9.40954e-05 0)
(0.0012695 -8.81965e-05 0)
(0.00129471 -8.23509e-05 0)
(0.0013201 -7.52659e-05 0)
(0.00134568 -6.67481e-05 0)
(0.0013706 -5.79494e-05 0)
(0.00139407 -4.9029e-05 0)
(0.00141666 -3.70475e-05 0)
(0.00143984 -1.91649e-05 0)
(0.00146359 1.98095e-06 0)
(0.0014851 2.09136e-05 0)
(0.00150179 3.91428e-05 0)
(0.00151434 6.49151e-05 0)
(0.0015257 9.9251e-05 0)
(0.00153702 0.000131429 0)
(0.00154512 0.000156344 0)
(0.00154706 0.0001843 0)
(0.0015455 0.000222433 0)
(0.00154524 0.000260599 0)
(0.00154407 0.000289491 0)
(0.00152977 0.000316085 0)
(0.00149017 0.000341772 0)
(0.00142633 0.000345648 0)
(0.00134966 0.000310751 0)
(0.00127013 0.000249417 0)
(0.00119397 0.000187972 0)
(0.00112616 0.000139577 0)
(0.00107071 0.000100779 0)
(0.00102935 6.49909e-05 0)
(0.00100148 3.12688e-05 0)
(0.000985384 3.41661e-06 0)
(0.000978928 -1.4144e-05 0)
(0.000979369 -1.90852e-05 0)
(0.000983599 -1.20151e-05 0)
(0.00098908 4.22157e-06 0)
(0.000993888 2.59653e-05 0)
(0.000996701 4.97151e-05 0)
(0.000997016 7.27221e-05 0)
(0.000994895 9.31984e-05 0)
(0.000990673 0.000110259 0)
(0.000984758 0.000123759 0)
(0.000977535 0.00013406 0)
(0.000969288 0.000141801 0)
(0.000960191 0.000147694 0)
(0.000950306 0.000152378 0)
(0.000939599 0.000156336 0)
(0.000927982 0.000159846 0)
(0.000915324 0.000163003 0)
(0.000901498 0.000165699 0)
(0.000886372 0.000167733 0)
(0.000869836 0.000168774 0)
(0.000851826 0.000168577 0)
(0.000832295 0.00016682 0)
(0.000811412 0.000163414 0)
(0.000789316 0.000158071 0)
(0.000766655 0.000150812 0)
(0.000743752 0.000141245 0)
(0.000721834 0.000129412 0)
(0.000701056 0.000114946 0)
(0.000683125 9.78843e-05 0)
(0.000667591 7.83727e-05 0)
(0.000656523 5.62008e-05 0)
(0.000648663 3.25794e-05 0)
(0.000646307 6.63845e-06 0)
(0.00064765 -1.91904e-05 0)
(0.00065459 -4.68706e-05 0)
(0.000665622 -7.32968e-05 0)
(0.00068131 -0.000100656 0)
(0.000702246 -0.000125775 0)
(0.000725682 -0.000150125 0)
(0.000755547 -0.000172037 0)
(0.00078634 -0.000192367 0)
(0.000822944 -0.000207834 0)
(0.000859686 -0.000221858 0)
(0.000901619 -0.000232851 0)
(0.000941671 -0.000236549 0)
(0.000987605 -0.000239944 0)
(0.00102787 -0.000239079 0)
(0.00107593 -0.000230405 0)
(0.00111447 -0.000224911 0)
(0.00116182 -0.000207382 0)
(0.00119492 -0.000199659 0)
(0.00124251 -0.000171952 0)
(0.00126291 -0.000166985 0)
(0.00131341 -0.000130913 0)
(0.00114291 -0.000203366 0)
(0.00117691 -0.000190767 0)
(0.00121065 -0.000179457 0)
(0.00124432 -0.000169408 0)
(0.00127798 -0.00016043 0)
(0.00131156 -0.000152245 0)
(0.00134494 -0.000144411 0)
(0.00137814 -0.000136186 0)
(0.00141125 -0.000126729 0)
(0.00144401 -0.000115635 0)
(0.00147556 -0.000102914 0)
(0.00150521 -8.79632e-05 0)
(0.00153321 -6.93139e-05 0)
(0.00156014 -4.67109e-05 0)
(0.00158527 -2.21204e-05 0)
(0.00160613 3.79356e-06 0)
(0.00162224 3.39744e-05 0)
(0.00163644 7.01352e-05 0)
(0.00165005 0.000108106 0)
(0.00166055 0.000144236 0)
(0.00166576 0.000182133 0)
(0.00166737 0.000225033 0)
(0.00166684 0.000267546 0)
(0.00166172 0.000304267 0)
(0.00165061 0.000338127 0)
(0.00163733 0.000372226 0)
(0.00162368 0.000402879 0)
(0.00160186 0.000424895 0)
(0.0015602 0.000432424 0)
(0.00149523 0.000414278 0)
(0.00141394 0.000362305 0)
(0.00132637 0.000283887 0)
(0.00124116 0.000197446 0)
(0.00116563 0.000118734 0)
(0.00110513 5.583e-05 0)
(0.00106184 1.23593e-05 0)
(0.00103459 -1.02908e-05 0)
(0.00101967 -1.33186e-05 0)
(0.0010125 -7.4549e-07 0)
(0.00100917 2.17294e-05 0)
(0.00100698 4.855e-05 0)
(0.00100446 7.54281e-05 0)
(0.00100098 9.96864e-05 0)
(0.000996389 0.000120082 0)
(0.00099064 0.000136462 0)
(0.000983701 0.000149342 0)
(0.000975461 0.000159576 0)
(0.000965763 0.000168069 0)
(0.00095441 0.000175596 0)
(0.0009412 0.000182719 0)
(0.000925929 0.00018973 0)
(0.000908415 0.0001967 0)
(0.000888494 0.000203448 0)
(0.000866071 0.000209704 0)
(0.000841086 0.000214972 0)
(0.000813724 0.000218872 0)
(0.00078418 0.000220722 0)
(0.000753191 0.00022017 0)
(0.000721273 0.000216356 0)
(0.000689831 0.000209093 0)
(0.000659333 0.000197491 0)
(0.000631737 0.000181727 0)
(0.000606829 0.000161343 0)
(0.000587023 0.000136639 0)
(0.000571009 0.000108326 0)
(0.000561547 7.58693e-05 0)
(0.000556517 4.20572e-05 0)
(0.000558346 4.28573e-06 0)
(0.00056472 -3.21091e-05 0)
(0.000575757 -7.22869e-05 0)
(0.00059295 -0.000108511 0)
(0.000612678 -0.000147936 0)
(0.000640181 -0.000181289 0)
(0.000667524 -0.000215851 0)
(0.000704042 -0.000246211 0)
(0.00073801 -0.000272123 0)
(0.000781252 -0.000296235 0)
(0.000821702 -0.000313568 0)
(0.00086937 -0.000329668 0)
(0.00091433 -0.000336158 0)
(0.000965963 -0.000341284 0)
(0.0010128 -0.000340818 0)
(0.00106627 -0.000331188 0)
(0.00111256 -0.000324426 0)
(0.00116772 -0.000300239 0)
(0.00120661 -0.000292221 0)
(0.00126542 -0.000252296 0)
(0.00128941 -0.000246582 0)
(0.00135399 -0.000195924 0)
(0.00118403 -0.000280648 0)
(0.00122089 -0.00026783 0)
(0.00125779 -0.000256915 0)
(0.00129501 -0.000247791 0)
(0.00133275 -0.000240014 0)
(0.00137103 -0.000232972 0)
(0.00140969 -0.000225955 0)
(0.00144847 -0.000218115 0)
(0.00148706 -0.000208491 0)
(0.00152513 -0.000196249 0)
(0.00156212 -0.000180829 0)
(0.00159735 -0.000161707 0)
(0.00163041 -0.000138278 0)
(0.00166125 -0.000110342 0)
(0.00168954 -7.85063e-05 0)
(0.00171434 -4.33995e-05 0)
(0.00173477 -4.58777e-06 0)
(0.00175118 3.80418e-05 0)
(0.00176417 8.3119e-05 0)
(0.00177283 0.000129055 0)
(0.00177614 0.000175781 0)
(0.0017754 0.000223038 0)
(0.00177299 0.000269568 0)
(0.00176903 0.000315183 0)
(0.00176196 0.000360058 0)
(0.0017512 0.000401702 0)
(0.00173692 0.000437277 0)
(0.00171894 0.000467345 0)
(0.00169713 0.000492212 0)
(0.00166986 0.00050755 0)
(0.00163143 0.000506036 0)
(0.0015746 0.000479303 0)
(0.00149754 0.000420677 0)
(0.00140682 0.00033301 0)
(0.00131396 0.000232393 0)
(0.00123037 0.000140337 0)
(0.00116354 7.29535e-05 0)
(0.0011155 3.62503e-05 0)
(0.00108362 2.74164e-05 0)
(0.00106309 3.85616e-05 0)
(0.00104924 6.07412e-05 0)
(0.00103869 8.66535e-05 0)
(0.0010294 0.000111697 0)
(0.00102028 0.000133716 0)
(0.00101067 0.000152294 0)
(0.0010001 0.000167959 0)
(0.000988122 0.000181622 0)
(0.000974329 0.000194203 0)
(0.000958305 0.000206435 0)
(0.000939696 0.000218823 0)
(0.000918161 0.000231575 0)
(0.000893468 0.000244697 0)
(0.000865477 0.000257843 0)
(0.000834301 0.000270532 0)
(0.000800239 0.000281843 0)
(0.000764076 0.000290888 0)
(0.000726607 0.000296273 0)
(0.000689366 0.00029719 0)
(0.000653226 0.000292109 0)
(0.000620216 0.000281029 0)
(0.000590554 0.000262756 0)
(0.000566599 0.000238156 0)
(0.00054724 0.000207229 0)
(0.000535194 0.000170185 0)
(0.000528021 0.000129856 0)
(0.000528445 8.33902e-05 0)
(0.000533866 3.79061e-05 0)
(0.000545283 -1.43246e-05 0)
(0.000561657 -6.1646e-05 0)
(0.000581752 -0.000114759 0)
(0.000608132 -0.00016151 0)
(0.000635006 -0.000210044 0)
(0.000669403 -0.000254148 0)
(0.000701768 -0.000295028 0)
(0.000742154 -0.000334273 0)
(0.000778634 -0.000365207 0)
(0.000823333 -0.000397203 0)
(0.000863557 -0.000417325 0)
(0.000910307 -0.000439148 0)
(0.00095371 -0.00044924 0)
(0.00100189 -0.000456527 0)
(0.00104712 -0.000458825 0)
(0.00109686 -0.00044811 0)
(0.00114091 -0.000445436 0)
(0.00119548 -0.000413497 0)
(0.00123259 -0.000409455 0)
(0.00129535 -0.000356542 0)
(0.00131844 -0.00035378 0)
(0.00139245 -0.000284206 0)
(0.00121567 -0.000366741 0)
(0.00125561 -0.000353693 0)
(0.00129606 -0.000343362 0)
(0.0013374 -0.000335445 0)
(0.0013798 -0.000329149 0)
(0.0014232 -0.000323383 0)
(0.00146732 -0.000317048 0)
(0.00151167 -0.000309102 0)
(0.00155574 -0.000298414 0)
(0.00159891 -0.0002839 0)
(0.00164054 -0.000264866 0)
(0.00167995 -0.000240955 0)
(0.00171657 -0.000211811 0)
(0.00174996 -0.000177347 0)
(0.00177971 -0.000138063 0)
(0.0018054 -9.44345e-05 0)
(0.00182698 -4.65363e-05 0)
(0.00184468 4.83125e-06 0)
(0.00185803 5.79736e-05 0)
(0.0018667 0.000112391 0)
(0.00187123 0.00016859 0)
(0.00187177 0.000225378 0)
(0.00186806 0.000279965 0)
(0.00186012 0.000331689 0)
(0.00184874 0.000381688 0)
(0.00183465 0.000428773 0)
(0.00181789 0.000469999 0)
(0.0017986 0.000504727 0)
(0.00177746 0.000534325 0)
(0.00175435 0.000558822 0)
(0.00172741 0.000575845 0)
(0.00169325 0.000580586 0)
(0.00164718 0.000565031 0)
(0.00158453 0.000519939 0)
(0.00150499 0.000442209 0)
(0.00141563 0.000342165 0)
(0.00132806 0.000241492 0)
(0.00125247 0.000161782 0)
(0.0011936 0.000114128 0)
(0.00115073 9.72123e-05 0)
(0.00112001 0.000102243 0)
(0.00109707 0.000119087 0)
(0.00107844 0.000140089 0)
(0.00106183 0.000161013 0)
(0.0010458 0.000180358 0)
(0.00102939 0.000198186 0)
(0.00101183 0.000215211 0)
(0.000992497 0.000232241 0)
(0.00097079 0.000249926 0)
(0.000946236 0.000268651 0)
(0.000918517 0.000288458 0)
(0.000887541 0.000308964 0)
(0.000853561 0.000329291 0)
(0.000817255 0.000348218 0)
(0.000779525 0.000363839 0)
(0.000741909 0.00037485 0)
(0.000705544 0.000378778 0)
(0.000672438 0.000375342 0)
(0.000643211 0.000362501 0)
(0.000619968 0.000341066 0)
(0.000602091 0.000310855 0)
(0.000591831 0.000271911 0)
(0.000586962 0.000227894 0)
(0.000590145 0.000175209 0)
(0.000597801 0.000122568 0)
(0.000612722 6.19616e-05 0)
(0.000630809 5.1462e-06 0)
(0.000654 -5.75851e-05 0)
(0.000680937 -0.000114903 0)
(0.000710987 -0.000174509 0)
(0.000745415 -0.000229372 0)
(0.000779287 -0.00028221 0)
(0.000819677 -0.000332669 0)
(0.000855554 -0.000375632 0)
(0.000899786 -0.000420072 0)
(0.000937015 -0.000451616 0)
(0.000982241 -0.000487229 0)
(0.00102082 -0.000507539 0)
(0.0010645 -0.000530723 0)
(0.0011036 -0.000541738 0)
(0.00114428 -0.000548204 0)
(0.00118225 -0.000553101 0)
(0.00122062 -0.000539118 0)
(0.00125403 -0.000542161 0)
(0.00129433 -0.000504894 0)
(0.00131971 -0.000508389 0)
(0.00136845 -0.000447383 0)
(0.0013826 -0.000451168 0)
(0.00144421 -0.000372499 0)
(0.00122854 -0.000456859 0)
(0.00126937 -0.000445332 0)
(0.00131145 -0.000437574 0)
(0.00135505 -0.000432722 0)
(0.00140014 -0.000429421 0)
(0.0014464 -0.000426042 0)
(0.00149331 -0.000420986 0)
(0.00154019 -0.000412884 0)
(0.00158632 -0.000400545 0)
(0.00163103 -0.000382902 0)
(0.00167373 -0.000359251 0)
(0.00171387 -0.000329401 0)
(0.00175099 -0.00029331 0)
(0.00178478 -0.000250953 0)
(0.00181497 -0.000202846 0)
(0.00184129 -0.000149862 0)
(0.0018635 -9.23242e-05 0)
(0.00188162 -3.07773e-05 0)
(0.00189578 3.28019e-05 0)
(0.00190548 9.70005e-05 0)
(0.00191074 0.000161773 0)
(0.00191215 0.000227055 0)
(0.00190947 0.000290659 0)
(0.00190249 0.000350444 0)
(0.00189201 0.000406806 0)
(0.00187887 0.0004605 0)
(0.00186264 0.000509778 0)
(0.00184255 0.000551757 0)
(0.0018191 0.000585376 0)
(0.00179376 0.000611824 0)
(0.00176752 0.000632845 0)
(0.00173967 0.000648543 0)
(0.00170715 0.000654833 0)
(0.00166499 0.000642347 0)
(0.00160869 0.000600385 0)
(0.00153764 0.000525525 0)
(0.00145705 0.00042794 0)
(0.00137623 0.000328568 0)
(0.00130401 0.000248323 0)
(0.00124509 0.000198134 0)
(0.00119949 0.000176932 0)
(0.00116443 0.000176497 0)
(0.0011364 0.000187683 0)
(0.00111248 0.0002039 0)
(0.00109055 0.000221883 0)
(0.00106914 0.000240639 0)
(0.00104714 0.000260437 0)
(0.00102372 0.000281796 0)
(0.000998285 0.000305104 0)
(0.00097044 0.000330347 0)
(0.000940159 0.000356753 0)
(0.00090784 0.000383377 0)
(0.000874169 0.000407862 0)
(0.0008404 0.000428848 0)
(0.000807715 0.000443031 0)
(0.000777772 0.00044947 0)
(0.000751587 0.000445703 0)
(0.000730827 0.000431178 0)
(0.000715414 0.000406318 0)
(0.000707214 0.000369714 0)
(0.000704304 0.000325925 0)
(0.000709286 0.000271232 0)
(0.000718199 0.000214006 0)
(0.00073468 0.000148076 0)
(0.00075351 8.37471e-05 0)
(0.000778273 1.34825e-05 0)
(0.000804614 -5.26778e-05 0)
(0.000835091 -0.000121581 0)
(0.000868451 -0.000185698 0)
(0.000902406 -0.000248878 0)
(0.000941209 -0.000309288 0)
(0.00097718 -0.00036341 0)
(0.00102003 -0.000418387 0)
(0.00105733 -0.000461261 0)
(0.00110265 -0.000508417 0)
(0.0011409 -0.000538962 0)
(0.00118615 -0.000574908 0)
(0.00122531 -0.000593846 0)
(0.00126742 -0.000613878 0)
(0.00130651 -0.0006232 0)
(0.00134313 -0.000622639 0)
(0.00137899 -0.000625895 0)
(0.00140901 -0.000602251 0)
(0.00143678 -0.000604606 0)
(0.00146106 -0.000559298 0)
(0.00147701 -0.000565465 0)
(0.00149982 -0.000502367 0)
(0.0015053 -0.000509553 0)
(0.00153226 -0.000434384 0)
(0.00123657 -0.000545905 0)
(0.00127587 -0.000537149 0)
(0.00131678 -0.000533128 0)
(0.00135933 -0.000532065 0)
(0.00140315 -0.000531824 0)
(0.00144767 -0.000530261 0)
(0.00149225 -0.000525474 0)
(0.00153624 -0.000515954 0)
(0.00157905 -0.000500587 0)
(0.00162017 -0.000478568 0)
(0.00165923 -0.000449438 0)
(0.00169591 -0.000413131 0)
(0.00172983 -0.000369793 0)
(0.0017607 -0.000319649 0)
(0.0017883 -0.000263323 0)
(0.00181245 -0.000201842 0)
(0.00183302 -0.000135872 0)
(0.00184989 -6.5778e-05 0)
(0.00186364 6.91591e-06 0)
(0.00187383 7.98783e-05 0)
(0.00187996 0.00015254 0)
(0.00188277 0.000225291 0)
(0.00188239 0.000297104 0)
(0.00187853 0.000365469 0)
(0.00187135 0.000429213 0)
(0.00186139 0.000489044 0)
(0.00184866 0.000544802 0)
(0.00183256 0.000594154 0)
(0.00181267 0.000634526 0)
(0.00178946 0.000665285 0)
(0.00176403 0.000688186 0)
(0.00173748 0.000706333 0)
(0.0017096 0.000721043 0)
(0.0016778 0.000727429 0)
(0.00163772 0.000713754 0)
(0.00158596 0.000668501 0)
(0.00152293 0.000590597 0)
(0.00145345 0.000493353 0)
(0.00138459 0.000398204 0)
(0.00132254 0.000323352 0)
(0.00127038 0.000276481 0)
(0.00122809 0.000255029 0)
(0.00119369 0.000251661 0)
(0.00116476 0.000259184 0)
(0.00113913 0.000272951 0)
(0.0011151 0.000290857 0)
(0.00109145 0.000312087 0)
(0.00106729 0.000336674 0)
(0.00104217 0.000363869 0)
(0.00101595 0.000393299 0)
(0.000988958 0.000422793 0)
(0.000961819 0.000450987 0)
(0.00093552 0.000474694 0)
(0.000911173 0.000491855 0)
(0.000889777 0.000499997 0)
(0.000872743 0.000496871 0)
(0.000860033 0.000482615 0)
(0.000853565 0.000454852 0)
(0.000851479 0.000417286 0)
(0.000856435 0.00036684 0)
(0.000864758 0.00031049 0)
(0.000879821 0.000243887 0)
(0.000897032 0.000176048 0)
(0.000919723 0.000101169 0)
(0.000943764 2.88242e-05 0)
(0.000971393 -4.75348e-05 0)
(0.00100051 -0.000119631 0)
(0.00103151 -0.000192358 0)
(0.00106505 -0.000261594 0)
(0.00109827 -0.000327414 0)