/*--------------------------------*- C++ -*----------------------------------*\
| =========                 |                                                 |
| \\      /  F ield         | OpenFOAM: The Open Source CFD Toolbox           |
|  \\    /   O peration     | Version:  2312                                  |
|   \\  /    A nd           | Website:  www.openfoam.com                      |
|    \\/     M anipulation  |                                                 |
\*---------------------------------------------------------------------------*/
FoamFile
{
    version     2.0;
    format      ascii;
    arch        "LSB;label=32;scalar=64";
    class       surfaceScalarField;
    location    "32000";
    object      phi;
}
// * * * * * * * * * * * * * * * * * * * * * * * * * * * * * * * * * * * * * //

dimensions      [0 3 -1 0 0 0 0];

oriented        oriented;

internalField   nonuniform List<scalar> 
5309
(
7.48525e-05
2.77821e-05
6.94322e-05
5.42034e-06
6.31192e-05
6.31302e-06
5.99018e-05
3.21741e-06
5.87748e-05
1.12695e-06
5.95156e-05
-7.40799e-07
6.07243e-05
-1.20873e-06
6.32361e-05
-2.51173e-06
6.56196e-05
-2.38351e-06
6.90906e-05
-3.47102e-06
7.18843e-05
-2.79367e-06
7.56048e-05
-3.72056e-06
7.80947e-05
-2.48987e-06
8.13776e-05
-3.2829e-06
8.29009e-05
-1.52334e-06
8.52324e-05
-2.3315e-06
8.52295e-05
2.95579e-09
8.61624e-05
-9.32924e-07
8.43395e-05
1.82289e-06
8.35642e-05
7.75354e-07
7.96633e-05
3.90087e-06
7.71423e-05
2.52097e-06
7.10337e-05
6.10859e-06
6.69571e-05
4.07662e-06
5.89681e-05
7.98903e-06
5.43251e-05
4.64303e-06
4.47692e-05
9.55582e-06
4.50744e-05
-3.05165e-07
1.35958e-05
3.14786e-05
-1.16088e-05
2.52046e-05
0.000149052
3.36297e-05
0.000146793
7.67894e-06
0.000144532
8.57422e-06
0.000143296
4.45278e-06
0.000143092
1.33145e-06
0.00014486
-2.5087e-06
0.000147339
-3.68756e-06
0.000151616
-6.78926e-06
0.000155964
-6.73139e-06
0.000161986
-9.49348e-06
0.000167367
-8.17457e-06
0.00017426
-1.06136e-05
0.000179708
-7.93762e-06
0.000186528
-1.01027e-05
0.000191081
-6.07624e-06
0.000196897
-8.14725e-06
0.000199702
-2.80215e-06
0.000203864
-5.09519e-06
0.00020419
1.49704e-06
0.000206311
-1.34586e-06
0.000203317
6.89461e-06
0.00020292
2.91851e-06
0.00019575
1.32784e-05
0.000192916
6.9106e-06
0.000179729
2.11756e-05
0.000176657
7.71583e-06
0.000150601
3.56111e-05
0.000154856
-4.56025e-06
0.000114699
7.16363e-05
-1.63089e-05
0.000119399
0.000198211
3.14898e-05
0.000199029
6.86151e-06
0.000200517
7.08612e-06
0.000201554
3.41591e-06
0.00020287
1.47253e-08
0.000205363
-5.00155e-06
0.000208336
-6.66035e-06
0.000212879
-1.1332e-05
0.000217464
-1.13162e-05
0.000223729
-1.57593e-05
0.00022946
-1.39048e-05
0.000236871
-1.80252e-05
0.000243016
-1.4082e-05
0.000250886
-1.79732e-05
0.000256649
-1.18393e-05
0.00026435
-1.58478e-05
0.000269005
-7.45699e-06
0.000276097
-1.21873e-05
0.000278779
-1.18492e-06
0.000284783
-7.35048e-06
0.00028465
7.02771e-06
0.000289377
-1.8085e-06
0.000284824
1.78315e-05
0.000288688
3.04629e-06
0.000276801
3.30626e-05
0.000281022
3.49523e-06
0.000260565
5.60682e-05
0.000261088
-5.08354e-06
0.000244589
8.81348e-05
2.19485e-06
0.000226086
0.000235074
2.68601e-05
0.000235201
6.73459e-06
0.000237332
4.95433e-06
0.000239558
1.19026e-06
0.000241403
-1.83074e-06
0.000244762
-8.35977e-06
0.00024812
-1.0019e-05
0.000252875
-1.60866e-05
0.000257409
-1.58504e-05
0.000263504
-2.18543e-05
0.00026898
-1.93808e-05
0.000276123
-2.51684e-05
0.000282093
-2.00514e-05
0.000289891
-2.5772e-05
0.00029582
-1.77678e-05
0.000303935
-2.3963e-05
0.000309271
-1.27926e-05
0.00031742
-2.03366e-05
0.000321558
-5.32281e-06
0.00032968
-1.54722e-05
0.000331837
4.87057e-06
0.000339917
-9.8889e-06
0.000339159
1.859e-05
0.000346714
-4.5093e-06
0.000343186
3.65912e-05
0.000347598
-9.17314e-07
0.000345182
5.8484e-05
0.000339419
6.79712e-07
0.000351914
7.56403e-05
2.41825e-05
0.000329926
0.000263761
2.21288e-05
0.000263459
7.03683e-06
0.000265321
3.09167e-06
0.000268076
-1.56424e-06
0.000270474
-4.22899e-06
0.000273463
-1.1349e-05
0.000276659
-1.32151e-05
0.000280891
-2.03185e-05
0.000285141
-2.01001e-05
0.000290464
-2.7177e-05
0.000295571
-2.44881e-05
0.000301802
-3.13992e-05
0.000307491
-2.574e-05
0.000314399
-3.26803e-05
0.000320339
-2.37075e-05
0.000327721
-3.13452e-05
0.00033361
-1.86816e-05
0.000341278
-2.80045e-05
0.000346943
-1.09878e-05
0.00035464
-2.31694e-05
0.000359987
-4.76882e-07
0.000367192
-1.7093e-05
0.000372636
1.31454e-05
0.000378176
-1.00492e-05
0.000385084
2.96834e-05
0.00038635
-2.18329e-06
0.000397898
4.69357e-05
0.000389484
9.09376e-06
0.000409755
5.53698e-05
3.60508e-05
0.000397886
0.000286494
1.81666e-05
0.000286137
7.39344e-06
0.000287449
1.77984e-06
0.000289645
-3.76057e-06
0.000291905
-6.48859e-06
0.00029447
-1.39137e-05
0.000297535
-1.628e-05
0.000301049
-2.38332e-05
0.000305109
-2.41597e-05
0.000309431
-3.14989e-05
0.000314325
-2.93824e-05
0.00031934
-3.64146e-05
0.000324949
-3.13485e-05
0.000330497
-3.82287e-05
0.0003367
-2.99098e-05
0.000342597
-3.7243e-05
0.000349356
-2.54403e-05
0.0003554
-3.40485e-05
0.000362808
-1.83962e-05
0.000368692
-2.90528e-05
0.000377062
-8.847e-06
0.000382235
-2.2266e-05
0.000392218
3.16251e-06
0.000395541
-1.33726e-05
0.000408456
1.6769e-05
0.000407804
-1.5322e-06
0.000425252
2.94882e-05
0.000419153
1.51926e-05
0.000438962
3.5561e-05
3.84116e-05
0.000436601
0.000304197
1.52096e-05
0.000304215
7.37584e-06
0.000304887
1.10829e-06
0.000306411
-5.28493e-06
0.000308612
-8.68925e-06
0.000310618
-1.59197e-05
0.000313503
-1.91652e-05
0.000316164
-2.6494e-05
0.000319978
-2.79738e-05
0.000323263
-3.47843e-05
0.000327925
-3.40439e-05
0.00033174
-4.02295e-05
0.000337223
-3.68323e-05
0.000341458
-4.24637e-05
0.000347772
-3.62231e-05
0.000352281
-4.17518e-05
0.00035952
-3.26793e-05
0.000364127
-3.86558e-05
0.000372506
-2.67749e-05
0.000376958
-3.35049e-05
0.000386878
-1.8767e-05
0.000390714
-2.61027e-05
0.000402735
-8.8582e-06
0.000405228
-1.58655e-05
0.000419894
2.10268e-06
0.00042035
-1.98731e-06
0.000437262
1.25761e-05
0.000436886
1.55685e-05
0.000451765
2.06821e-05
3.4125e-05
0.000456051
0.000317363
1.32235e-05
0.000317684
7.05544e-06
0.000318152
6.39741e-07
0.000319073
-6.20592e-06
0.000321087
-1.07024e-05
0.00032261
-1.74432e-05
0.00032525
-2.18049e-05
0.000327215
-2.84596e-05
0.000330695
-3.1454e-05
0.000333149
-3.72381e-05
0.000337459
-3.8354e-05
0.00034033
-4.31001e-05
0.000345503
-4.2005e-05
0.000348733
-4.56944e-05
0.000354848
-4.23376e-05
0.000358354
-4.52582e-05
0.000365559
-3.98841e-05
0.000369242
-4.23384e-05
0.000377766
-3.52995e-05
0.000381501
-3.72394e-05
0.000391657
-2.89236e-05
0.000395268
-2.97134e-05
0.000407304
-2.08941e-05
0.000410652
-1.92133e-05
0.000424311
-1.15569e-05
0.000427781
-5.45656e-06
0.000441761
-1.40472e-06
0.000446859
1.0471e-05
0.000457891
9.64996e-06
2.62837e-05
0.000465732
0.000326439
1.20582e-05
0.000326933
6.56212e-06
0.000327506
6.60494e-08
0.000328054
-6.75355e-06
0.000329781
-1.24296e-05
0.00033097
-1.86321e-05
0.000333297
-2.4132e-05
0.000334798
-2.99604e-05
0.000337841
-3.44968e-05
0.000339741
-3.91387e-05
0.000343554
-4.2167e-05
0.000345819
-4.53644e-05
0.000350467
-4.66531e-05
0.000353094
-4.83214e-05
0.000358692
-4.79362e-05
0.000361677
-4.82428e-05
0.00036838
-4.65876e-05
0.000371733
-4.5691e-05
0.000379724
-4.32901e-05
0.000383489
-4.10052e-05
0.000392936
-3.83705e-05
0.000397228
-3.40053e-05
0.000408102
-3.17678e-05
0.000413183
-2.4294e-05
0.000424955
-2.33287e-05
0.00043146
-1.19617e-05
0.000443002
-1.29468e-05
0.000451463
2.00985e-06
0.000461817
-7.03963e-07
1.71235e-05
0.000470977
0.000331938
1.1463e-05
0.000332535
5.96552e-06
0.00033328
-6.79279e-07
0.000333712
-7.18562e-06
0.000335133
-1.38506e-05
0.000336139
-1.96373e-05
0.000338116
-2.61093e-05
0.000339379
-3.12233e-05
0.000341933
-3.70507e-05
0.000343549
-4.07546e-05
0.00034678
-4.53985e-05
0.000348758
-4.73425e-05
0.00035275
-5.06452e-05
0.00035514
-5.07105e-05
0.000360023
-5.28196e-05
0.000362899
-5.11188e-05
0.000368816
-5.2505e-05
0.000372294
-4.91687e-05
0.000379381
-5.03765e-05
0.00038364
-4.52648e-05
0.000391976
-4.67061e-05
0.000397291
-3.9321e-05
0.000406782
-4.12585e-05
0.000413505
-3.10173e-05
0.000423808
-3.36314e-05
0.000432168
-2.03212e-05
0.000442849
-2.36281e-05
0.000452428
-7.56898e-06
0.000463464
-1.17399e-05
7.35204e-06
0.000473235
0.000334551
1.11419e-05
0.000335141
5.37582e-06
0.000335996
-1.53412e-06
0.000336536
-7.72599e-06
0.000337717
-1.50313e-05
0.000338664
-2.0585e-05
0.000340315
-2.77603e-05
0.000341522
-3.24302e-05
0.000343625
-3.91538e-05
0.000345167
-4.22962e-05
0.000347841
-4.80723e-05
0.000349771
-4.92733e-05
0.00035311
-5.39839e-05
0.000355519
-5.3119e-05
0.00035966
-5.69608e-05
0.000362681
-5.41405e-05
0.000367766
-5.75896e-05
0.000371581
-5.2984e-05
0.000377738
-5.65335e-05
0.000382585
-5.0112e-05
0.000389908
-5.40288e-05
0.000396073
-4.54855e-05
0.000404581
-4.97672e-05
0.000412285
-3.87208e-05
0.000421913
-4.32598e-05
0.000431069
-2.94767e-05
0.000441778
-3.43379e-05
0.000451899
-1.76894e-05
0.000463551
-2.33923e-05
-3.12575e-06
0.000474029
0.000335067
1.07714e-05
0.000335676
4.76699e-06
0.000336554
-2.41163e-06
0.000337273
-8.44506e-06
0.000338316
-1.60747e-05
0.00033931
-2.15786e-05
0.00034072
-2.9171e-05
0.000341994
-3.37037e-05
0.000343765
-4.09248e-05
0.00034537
-4.39016e-05
0.000347611
-5.03126e-05
0.000349634
-5.12969e-05
0.000352446
-5.67959e-05
0.000355001
-5.56742e-05
0.000358526
-6.04856e-05
0.00036178
-5.73945e-05
0.000366173
-6.19827e-05
0.000370331
-5.71412e-05
0.000375754
-6.19566e-05
0.000381052
-5.54107e-05
0.00038767
-6.0646e-05
0.000394345
-5.21607e-05
0.000402311
-5.77336e-05
0.000410483
-4.68929e-05
0.000419907
-5.26838e-05
0.000429471
-3.90408e-05
0.000440369
-4.52352e-05
0.000451016
-2.83372e-05
0.000463129
-3.55052e-05
-1.44344e-05
0.000474438
0.000334446
1.01957e-05
0.000335162
4.05101e-06
0.000336041
-3.29078e-06
0.000336934
-9.33868e-06
0.000337942
-1.70824e-05
0.000339058
-2.26943e-05
0.00034035
-3.04636e-05
0.00034176
-3.51139e-05
0.000343352
-4.25161e-05
0.000345092
-4.56422e-05
0.000347068
-5.22883e-05
0.000349235
-5.34641e-05
0.000351703
-5.92633e-05
0.00035442
-5.83919e-05
0.000357523
-6.35885e-05
0.000360966
-6.08376e-05
0.000364881
-6.58973e-05
0.00036926
-6.15204e-05
0.000374188
-6.68852e-05
0.000379732
-6.09541e-05
0.000385904
-6.68182e-05
0.000392825
-5.90818e-05
0.000400476
-6.53849e-05
0.000408909
-5.53259e-05
0.00041821
-6.19844e-05
0.000428148
-4.89785e-05
0.000439091
-5.61787e-05
0.000450351
-3.9597e-05
0.000462691
-4.78455e-05
-2.66936e-05
0.00047495
0.000334059
9.45858e-06
0.000334874
3.23538e-06
0.000335737
-4.15319e-06
0.000336752
-1.03542e-05
0.000337778
-1.81084e-05
0.000339037
-2.39536e-05
0.000340307
-3.17334e-05
0.000341865
-3.66713e-05
0.000343393
-4.40443e-05
0.000345271
-4.75198e-05
0.000347115
-5.41326e-05
0.000349399
-5.57483e-05
0.000351663
-6.15268e-05
0.000354478
-6.12073e-05
0.000357305
-6.64152e-05
0.000360827
-6.43602e-05
0.000364409
-6.94786e-05
0.000368853
-6.59646e-05
0.000373419
-7.14516e-05
0.000379022
-6.65567e-05
0.000384838
-7.26341e-05
0.000391841
-6.6085e-05
0.000399182
-7.27255e-05
0.000407792
-6.39366e-05
0.000416856
-7.10481e-05
0.000427168
-5.92907e-05
0.00043797
-6.698e-05
0.000449891
-5.15189e-05
0.000462254
-6.02083e-05
-4.0015e-05
0.000475576
0.000335024
8.70442e-06
0.00033587
2.38981e-06
0.000336699
-4.98257e-06
0.000337778
-1.14335e-05
0.000338829
-1.9159e-05
0.000340199
-2.53232e-05
0.000341479
-3.30139e-05
0.000343139
-3.83309e-05
0.000344635
-4.55411e-05
0.000346587
-4.94718e-05
0.000348332
-5.58769e-05
0.000350643
-5.80597e-05
0.000352729
-6.36125e-05
0.00035552
-6.39987e-05
0.000358097
-6.89919e-05
0.000361546
-6.78095e-05
0.000364821
-7.27529e-05
0.00036915
-7.02935e-05
0.000373368
-7.56701e-05
0.000378835
-7.20238e-05
0.000384283
-7.80823e-05
0.000391179
-7.29805e-05
0.000398157
-7.97036e-05
0.00040677
-7.25494e-05
0.000415518
-7.9796e-05
0.000426047
-6.98199e-05
0.000436641
-7.75746e-05
0.000449098
-6.39751e-05
0.000461409
-7.25199e-05
-5.42463e-05
0.000475641
0.000338153
8.13115e-06
-0.00033758
0.000338907
1.63615e-06
0.000339646
-5.72119e-06
0.00034069
-1.24781e-05
0.000341701
-2.01699e-05
0.000343071
-2.66929e-05
0.000344301
-3.42441e-05
0.000345938
-3.9968e-05
0.000347333
-4.69354e-05
0.000349217
-5.1356e-05
0.000350783
-5.74429e-05
0.000352965
-6.02422e-05
0.00035479
-6.54372e-05
0.000357393
-6.66015e-05
0.000359638
-7.12372e-05
0.000362847
-7.10181e-05
0.000365736
-7.56422e-05
0.000369782
-7.43401e-05
0.000373583
-7.94707e-05
0.000378741
-7.71812e-05
0.000383763
-8.31044e-05
0.000390353
-7.95709e-05
0.000396934
-8.6284e-05
0.000405308
-8.09234e-05
0.000413744
-8.82327e-05
0.000424207
-8.02825e-05
0.000434652
-8.80198e-05
0.000447348
-7.66714e-05
0.000459706
-8.48774e-05
-6.90868e-05
0.000474546
0.000343197
7.84245e-06
-0.000342908
0.000343761
1.07163e-06
0.000344363
-6.32263e-06
0.000345272
-1.33876e-05
0.000346155
-2.10527e-05
0.000347377
-2.79149e-05
0.000348448
-3.53147e-05
0.000349891
-4.1411e-05
0.000351063
-4.81076e-05
0.000352693
-5.29862e-05
0.00035396
-5.87099e-05
0.00035583
-6.21118e-05
0.000357281
-6.68882e-05
0.000359529
-6.88504e-05
0.000361342
-7.30498e-05
0.000364176
-7.38523e-05
0.000366591
-7.80566e-05
0.000370253
-7.80028e-05
0.000373554
-8.27714e-05
0.000378318
-8.19456e-05
0.000382841
-8.76269e-05
0.00038903
-8.57599e-05
0.000395164
-9.24183e-05
0.000403146
-8.89058e-05
0.000411279
-9.63648e-05
0.000421421
-9.04252e-05
0.000431805
-9.84032e-05
0.000444375
-8.92421e-05
0.000456997
-9.74986e-05
-8.41565e-05
0.000472066
0.000348838
7.72484e-06
-0.000348721
0.000349244
6.66279e-07
0.000349741
-6.82018e-06
0.000350488
-1.41342e-05
0.000351203
-2.17684e-05
0.000352171
-2.88821e-05
0.000353001
-3.61454e-05
0.000354109
-4.25188e-05
0.000354974
-4.89722e-05
0.000356198
-5.42105e-05
0.000357097
-5.96092e-05
0.000358517
-6.35311e-05
0.000359556
-6.79273e-05
0.000361346
-7.06405e-05
0.000362716
-7.44198e-05
0.000365114
-7.625e-05
0.000367055
-7.99982e-05
0.000370318
-8.12657e-05
0.000373106
-8.55587e-05
0.000377502
-8.63418e-05
0.000381468
-9.15932e-05
0.000387303
-9.15948e-05
0.000392879
-9.79943e-05
0.000400499
-9.65263e-05
0.000408186
-0.000104051
0.000417944
-0.000100183
0.000428171
-0.000108631
0.000440376
-0.000101446
0.000453325
-0.000110448
-9.90686e-05
0.000468237
0.00035408
7.67473e-06
-0.00035403
0.000354364
3.82612e-07
0.000354758
-7.21486e-06
0.000355311
-1.46872e-05
0.000355832
-2.22888e-05
0.000356495
-2.95451e-05
0.000357059
-3.67099e-05
0.000357783
-4.32426e-05
0.000358341
-4.95306e-05
0.000359127
-5.49961e-05
0.000359705
-6.0187e-05
0.000360659
-6.44858e-05
0.00036138
-6.86478e-05
0.000362709
-7.19695e-05
0.000363763
-7.5474e-05
0.000365724
-7.82112e-05
0.000367326
-8.15999e-05
0.000370191
-8.4131e-05
0.000372563
-8.79304e-05
0.000376608
-9.03869e-05
0.000380021
-9.50063e-05
0.000385554
-9.71277e-05
0.000390409
-0.000102849
0.000397777
-0.000103894
0.000404642
-0.000110916
0.000414157
-0.000109698
0.000423695
-0.000118168
0.000435575
-0.000113327
0.000448342
-0.000123215
-0.000113578
0.000462851
0.000357171
7.3536e-06
-0.00035685
0.000357616
-6.30608e-08
0.000358104
-7.70262e-06
0.000358659
-1.52425e-05
0.000359173
-2.28019e-05
0.000359725
-3.00972e-05
0.000360198
-3.71829e-05
0.000360714
-4.37589e-05
0.000361131
-4.99474e-05
0.000361635
-5.55009e-05
0.000362051
-6.06027e-05
0.000362666
-6.51003e-05
0.000363223
-6.9205e-05
0.000364159
-7.29055e-05
0.00036505
-7.63648e-05
0.000366567
-7.97287e-05
0.000367982
-8.30151e-05
0.000370357
-8.65056e-05
0.000372461
-9.00345e-05
0.000375986
-9.39115e-05
0.000378948
-9.79682e-05
0.000383973
-0.000102153
0.000388065
-0.000106941
0.000395026
-0.000110855
0.00040071
-0.000116601
0.000410004
-0.000118992
0.000417995
-0.000126159
0.000429785
-0.000125116
0.000440993
-0.000134424
-0.000127708
0.000455124
0.00036027
6.73993e-06
-0.000359656
0.000360936
-7.29449e-07
0.000361591
-8.35754e-06
0.00036227
-1.59215e-05
0.000362894
-2.34262e-05
0.00036348
-3.06834e-05
0.000363966
-3.76687e-05
0.000364398
-4.41909e-05
0.000364733
-5.02822e-05
0.00036504
-5.58081e-05
0.000365302
-6.08643e-05
0.000365612
-6.54104e-05
0.000365971
-6.95645e-05
0.000366498
-7.34319e-05
0.000367175
-7.70425e-05
0.000368168
-8.07217e-05
0.000369368
-8.4215e-05
0.000371078
-8.82148e-05
0.000372948
-9.19053e-05
0.000375645
-9.66086e-05
0.000378285
-0.000100608
0.000382331
-0.000106198
0.000385848
-0.000110458
0.000391776
-0.000116783
0.000396349
-0.000121175
0.000404776
-0.000127419
0.000410695
-0.000132078
0.000421981
-0.000136402
0.000429892
-0.000142334
-0.000141468
0.000443652
0.000367007
6.18287e-06
-0.00036645
0.000367583
-1.30591e-06
0.00036816
-8.93462e-06
0.000368735
-1.64963e-05
0.000369236
-2.39274e-05
0.000369649
-3.10964e-05
0.000369924
-3.7943e-05
0.00037008
-4.4347e-05
0.000370102
-5.03043e-05
0.000370034
-5.57408e-05
0.000369904
-6.07338e-05
0.000369761
-6.52677e-05
0.000369686
-6.94893e-05
0.000369699
-7.34451e-05
0.000369943
-7.72856e-05
0.000370355
-8.11339e-05
0.000371148
-8.50083e-05
0.000372146
-8.92127e-05
0.000373641
-9.34005e-05
0.000375386
-9.83532e-05
0.000377678
-0.000102901
0.000380393
-0.000108913
0.000383494
-0.000113559
0.000387577
-0.000120866
0.00039135
-0.000124948
0.000397409
-0.000133478
0.000401357
-0.000136026
0.000409972
-0.000145018
0.000413128
-0.00014549
-0.0001525
0.000424159
0.000375287
5.64582e-06
-0.00037475
0.000375795
-1.81362e-06
0.000376271
-9.41039e-06
0.000376666
-1.68921e-05
0.000376926
-2.41869e-05
0.000377029
-3.11999e-05
0.000376941
-3.78543e-05
0.000376675
-4.40812e-05
0.00037623
-4.98595e-05
0.000375661
-5.51718e-05
0.000374997
-6.007e-05
0.000374317
-6.4587e-05
0.000373681
-6.88534e-05
0.000373159
-7.29235e-05
0.000372849
-7.69755e-05
0.000372744
-8.10293e-05
0.000372997
-8.5261e-05
0.00037343
-8.96459e-05
0.000374341
-9.43113e-05
0.000375292
-9.93044e-05
0.000376903
-0.000104512
0.000378309
-0.000110319
0.000380546
-0.000115796
0.000382241
-0.000122562
0.000384698
-0.000127405
0.000386541
-0.000135321
0.000388029
-0.000137514
0.000389981
-0.000146969
0.000387508
-0.000143017
-0.000154931
0.000389939
0.000383275
4.78311e-06
-0.000382412
0.000383977
-2.51546e-06
0.000384523
-9.95665e-06
0.000384871
-1.72402e-05
0.000384988
-2.43033e-05
0.000384845
-3.10573e-05
0.000384428
-3.74367e-05
0.000383754
-4.34071e-05
0.000382849
-4.89553e-05
0.000381773
-5.40958e-05
0.000380574
-5.8871e-05
0.000379342
-6.33546e-05
0.000378137
-6.76487e-05
0.000377068
-7.18547e-05
0.000376186
-7.60931e-05
0.000375571
-8.04146e-05
0.000375228
-8.49182e-05
0.000375138
-8.95557e-05
0.000375271
-9.44444e-05
0.000375427
-9.94602e-05
0.000375748
-0.000104833
0.000375712
-0.000110283
0.000375815
-0.000115899
0.000374589
-0.000121335
0.000373429
-0.000126245
0.000369371
-0.000131263
0.000365336
-0.000133479
0.000356409
-0.000138042
0.000345953
-0.000132561
-0.000140637
0.000331659
0.000393471
3.8547e-06
-0.000392542
0.000394293
-3.33712e-06
0.000394762
-1.04257e-05
0.000394964
-1.74422e-05
0.000394877
-2.42168e-05
0.000394411
-3.05913e-05
0.000393572
-3.6598e-05
0.000392398
-4.22327e-05
0.000390939
-4.74958e-05
0.000389255
-5.24117e-05
0.000387421
-5.70376e-05
0.000385524
-6.14577e-05
0.000383649
-6.5774e-05
0.000381891
-7.00967e-05
0.000380314
-7.45156e-05
0.000378981
-7.90819e-05
0.000377859
-8.37961e-05
0.000376914
-8.86106e-05
0.000375923
-9.34531e-05
0.000374669
-9.82065e-05
0.000372775
-0.000102938
0.000370065
-0.000107574
0.000366118
-0.000111951
0.000360136
-0.000115353
0.000351796
-0.000117906
0.000339445
-0.000118912
0.000324239
-0.000118272
0.000301602
-0.000115404
0.000277376
-0.000108336
-0.000105282
0.000242021
0.000407138
2.61489e-06
-0.000405898
0.000407923
-4.12203e-06
0.000408439
-1.09422e-05
0.000408428
-1.74307e-05
0.000407832
-2.36217e-05
0.000406751
-2.95095e-05
0.000405228
-3.50756e-05
0.000403306
-4.03105e-05
0.000401043
-4.52326e-05
0.000398515
-4.98841e-05
0.000395814
-5.43358e-05
0.000393025
-5.86696e-05
0.00039023
-6.29786e-05
0.00038748
-6.73462e-05
0.000384807
-7.18433e-05
0.000382204
-7.64791e-05
0.000379599
-8.1191e-05
0.000376807
-8.58187e-05
0.000373509
-9.01544e-05
0.000369239
-9.39368e-05
0.000363261
-9.69607e-05
0.000355137
-9.94492e-05
0.00034412
-0.000100934
0.000329553
-0.000100786
0.000310295
-9.8648e-05
0.000285461
-9.40776e-05
0.000254277
-8.70891e-05
0.00021623
-7.73571e-05
0.000174337
-6.64429e-05
-6.02825e-05
0.000129338
0.000422838
2.1522e-08
-0.000420244
0.000424245
-5.52966e-06
0.00042468
-1.13768e-05
0.000424403
-1.7154e-05
0.00042347
-2.26883e-05
0.000421873
-2.79123e-05
0.000419632
-3.28345e-05
0.000416809
-3.74874e-05
0.000413488
-4.1912e-05
0.000409763
-4.61592e-05
0.000405726
-5.0299e-05
0.00040146
-5.44029e-05
0.000397015
-5.85337e-05
0.00039238
-6.27112e-05
0.000387444
-6.69078e-05
0.000382045
-7.10796e-05
0.000375932
-7.50786e-05
0.000368736
-7.86225e-05
0.000359999
-8.14175e-05
0.00034926
-8.31976e-05
0.000335744
-8.34448e-05
0.00031823
-8.19349e-05
0.000295785
-7.84891e-05
0.000267898
-7.28992e-05
0.000234629
-6.53793e-05
0.000195224
-5.46726e-05
0.00014849
-4.03548e-05
9.98165e-05
-2.86838e-05
5.86922e-05
-2.53186e-05
-3.20426e-05
3.04523e-05
0.000448178
-2.12368e-07
-0.000447944
0.000448695
-6.0465e-06
0.000448485
-1.11674e-05
0.000447268
-1.59374e-05
0.000445007
-2.04273e-05
0.000441769
-2.46736e-05
0.000437623
-2.8689e-05
0.000432632
-3.24962e-05
0.000426857
-3.61365e-05
0.000420365
-3.96675e-05
0.000413228
-4.3162e-05
0.000405498
-4.66727e-05
0.000397203
-5.02385e-05
0.000388272
-5.37807e-05
0.00037831
-5.69461e-05
0.000366821
-5.95901e-05
0.00035333
-6.15873e-05
0.000337071
-6.23636e-05
0.000317387
-6.17334e-05
0.000294087
-5.98977e-05
0.000268169
-5.75267e-05
0.000237949
-5.17152e-05
0.000201639
-4.21789e-05
0.000159212
-3.04727e-05
0.000112917
-1.90843e-05
6.80376e-05
-9.79312e-06
2.98775e-05
-2.19464e-06
1.29285e-06
-9.91902e-08
-1.77639e-05
-6.26181e-06
-1.81226e-05
-3.16839e-05
0.000482017
-2.76752e-06
-0.000479461
0.000481699
-5.72921e-06
0.000479417
-8.88553e-06
0.000475501
-1.20214e-05
0.000470059
-1.49847e-05
0.000463116
-1.77309e-05
0.000454695
-2.02674e-05
0.000444819
-2.26209e-05
0.000433497
-2.48146e-05
0.000420707
-2.68771e-05
0.000406381
-2.88361e-05
0.000390418
-3.07093e-05
0.000372677
-3.24978e-05
0.000353033
-3.41371e-05
0.000331658
-3.55711e-05
0.000308827
-3.67591e-05
0.000282851
-3.56111e-05
0.0002524
-3.19124e-05
0.000216763
-2.60964e-05
0.000176622
-1.97573e-05
0.000133067
-1.39713e-05
9.08263e-05
-9.47442e-06
5.34703e-05
-4.82294e-06
2.3037e-05
-3.94058e-08
-2.40232e-07
4.19297e-06
-1.61623e-05
6.12895e-06
-2.49346e-05
6.57766e-06
-3.05889e-05
5.55514e-06
-3.89034e-05
2.05264e-06
-3.40722e-06
-5.36188e-05
0.000458322
-0.000461089
0.000452593
0.000443707
0.000431686
0.000416701
0.00039897
0.000378703
0.000356082
0.000331267
0.00030439
0.000275554
0.000244845
0.000212347
0.00017821
0.000142639
0.00010588
7.02685e-05
3.83561e-05
1.22597e-05
-7.49768e-06
-2.1469e-05
-3.09434e-05
-3.57663e-05
-3.58057e-05
-3.16128e-05
-2.54838e-05
-1.89061e-05
-1.3351e-05
-1.12984e-05
-1.47056e-05
0.000397557
0.000375771
0.000353126
0.000328289
0.000301642
0.000275768
0.000250849
0.000224835
0.000197724
0.000170011
0.000140151
0.000111521
7.52278e-05
4.0478e-05
0.000452624
5.73057e-06
0.000443737
8.88692e-06
0.000431715
1.20228e-05
0.000416728
1.49862e-05
0.000398996
1.77324e-05
0.000378727
2.02689e-05
0.000356105
2.26225e-05
0.000331288
2.48162e-05
0.00030441
2.68787e-05
0.000275572
2.88378e-05
0.000244861
3.07111e-05
0.000212361
3.24998e-05
0.000178222
3.41394e-05
0.000142648
3.55738e-05
0.000105885
3.67624e-05
7.02706e-05
3.56149e-05
3.83542e-05
3.19164e-05
1.22542e-05
2.61e-05
-7.50613e-06
1.97603e-05
-2.14794e-05
1.39732e-05
-3.09553e-05
9.47599e-06
-3.57795e-05
4.82416e-06
-3.58191e-05
3.96112e-08
-3.16239e-05
-4.19517e-06
-2.54912e-05
-6.13272e-06
-1.89089e-05
-6.58234e-06
-1.33488e-05
-5.56013e-06
-1.12915e-05
-2.05724e-06
3.40441e-06
-1.46959e-05
0.000481732
6.04913e-06
0.000479449
1.11699e-05
0.000475532
1.59399e-05
0.000470089
2.04298e-05
0.000463145
2.4676e-05
0.000454722
2.86914e-05
0.000444846
3.24987e-05
0.000433523
3.6139e-05
0.000420732
3.967e-05
0.000406405
4.31645e-05
0.000390441
4.66754e-05
0.000372699
5.02413e-05
0.000353055
5.37837e-05
0.000331679
5.69499e-05
0.000308848
5.95939e-05
0.000282871
6.15915e-05
0.000252419
6.23682e-05
0.000216781
6.17382e-05
0.000176639
5.99026e-05
0.00013308
5.75319e-05
9.08345e-05
5.17213e-05
5.34736e-05
4.21851e-05
2.30357e-05
3.04775e-05
-2.45999e-07
1.90866e-05
-1.6172e-05
9.79326e-06
-2.49469e-05
2.19262e-06
-3.06029e-05
9.58443e-08
-3.89194e-05
6.25921e-06
1.81255e-05
-5.36405e-05
0.000448724
5.53285e-06
0.000448514
1.13801e-05
0.000447296
1.71573e-05
0.000445035
2.26916e-05
0.000441795
2.79155e-05
0.000437649
3.28377e-05
0.000432657
3.74905e-05
0.000426881
4.19151e-05
0.000420389
4.61623e-05
0.000413251
5.03021e-05
0.00040552
5.4406e-05
0.000397225
5.85369e-05
0.000388294
6.27146e-05
0.000378332
6.69114e-05
0.000366843
7.10834e-05
0.000353352
7.50827e-05
0.000337093
7.86269e-05
0.000317409
8.14223e-05
0.000294109
8.32028e-05
0.00026819
8.34505e-05
0.000237971
8.19409e-05
0.00020166
7.84955e-05
0.000159232
7.2906e-05
0.000112932
6.53866e-05
6.80438e-05
5.46812e-05
2.98742e-05
4.03622e-05
1.2813e-06
2.86888e-05
-1.77833e-05
2.53238e-05
3.20517e-05
-3.17095e-05
0.000424272
4.12608e-06
0.000424706
1.09461e-05
0.000424429
1.74345e-05
0.000423495
2.36255e-05
0.000421897
2.95133e-05
0.000419656
3.50794e-05
0.000416832
4.03141e-05
0.000413511
4.52362e-05
0.000409786
4.98876e-05
0.000405749
5.43392e-05
0.000401482
5.8673e-05
0.000397036
6.2982e-05
0.000392401
6.73497e-05
0.000387466
7.18468e-05
0.000382067
7.64827e-05
0.000375954
8.11948e-05
0.000368759
8.58227e-05
0.000360022
9.01588e-05
0.000349283
9.39415e-05
0.000335768
9.69656e-05
0.000318255
9.94545e-05
0.00029581
0.00010094
0.000267923
0.000100794
0.000234653
9.86565e-05
0.000195246
9.40878e-05
0.000148507
8.71013e-05
9.98244e-05
7.73716e-05
5.8689e-05
6.64592e-05
6.03006e-05
3.04401e-05
0.000407948
3.34135e-06
0.000408464
1.043e-05
0.000408452
1.74466e-05
0.000407856
2.42211e-05
0.000406774
3.05955e-05
0.000405251
3.66021e-05
0.000403328
4.22367e-05
0.000401065
4.74997e-05
0.000398537
5.24155e-05
0.000395835
5.70413e-05
0.000393047
6.14613e-05
0.000390251
6.57775e-05
0.000387501
7.01002e-05
0.000384828
7.45191e-05
0.000382226
7.90854e-05
0.000379621
8.37997e-05
0.000376829
8.86143e-05
0.000373531
9.34569e-05
0.000369262
9.82105e-05
0.000363285
0.000102943
0.000355161
0.000107578
0.000344145
0.000111956
0.000329579
0.00011536
0.000310321
0.000117914
0.000285487
0.000118922
0.000254304
0.000118285
0.000216254
0.000115421
0.000174359
0.000108355
0.000105307
0.000129353
0.000394316
2.52021e-06
0.000394784
9.96133e-06
0.000394986
1.72449e-05
0.000394899
2.43079e-05
0.000394433
3.10619e-05
0.000393594
3.74411e-05
0.000392419
4.34114e-05
0.000390959
4.89595e-05
0.000389275
5.40998e-05
0.000387441
5.88749e-05
0.000385545
6.33583e-05
0.00038367
6.76523e-05
0.000381912
7.18582e-05
0.000380334
7.60965e-05
0.000379002
8.0418e-05
0.00037788
8.49215e-05
0.000376935
8.9559e-05
0.000375945
9.44477e-05
0.000374691
9.94635e-05
0.000372798
0.000104836
0.000370089
0.000110287
0.000366142
0.000115903
0.000360161
0.000121341
0.000351824
0.000126251
0.000339474
0.000131271
0.00032427
0.000133489
0.000301635
0.000138056
0.000277412
0.000132578
0.000140659
0.000242059
0.000383998
1.81858e-06
0.000384544
9.41531e-06
0.000384892
1.68969e-05
0.000385008
2.41918e-05
0.000384866
3.12046e-05
0.000384448
3.78589e-05
0.000383774
4.40858e-05
0.000382869
4.98639e-05
0.000381793
5.51759e-05
0.000380594
6.0074e-05
0.000379361
6.45908e-05
0.000378157
6.8857e-05
0.000377088
7.29269e-05
0.000376206
7.69788e-05
0.000375591
8.10324e-05
0.000375249
8.52639e-05
0.000375159
8.96488e-05
0.000375293
9.4314e-05
0.000375449
9.93073e-05
0.000375771
0.000104514
0.000375736
0.000110322
0.00037584
0.000115799
0.000374615
0.000122566
0.000373457
0.000127409
0.000369401
0.000135327
0.000365369
0.000137521
0.000356447
0.000146978
0.000345996
0.000143029
0.000154944
0.000331712
0.000375815
1.31101e-06
0.000376291
8.93969e-06
0.000376686
1.65014e-05
0.000376946
2.39325e-05
0.000377049
3.11013e-05
0.00037696
3.79478e-05
0.000376694
4.43517e-05
0.000376249
5.03088e-05
0.00037568
5.57451e-05
0.000375016
6.07379e-05
0.000374335
6.52715e-05
0.0003737
6.94929e-05
0.000373178
7.34484e-05
0.000372868
7.72885e-05
0.000372764
8.11367e-05
0.000373017
8.50108e-05
0.000373451
8.92151e-05
0.000374362
9.34026e-05
0.000375314
9.83554e-05
0.000376926
0.000102903
0.000378333
0.000108915
0.00038057
0.000113561
0.000382268
0.000120868
0.000384726
0.000124951
0.000386574
0.00013348
0.000388064
0.00013603
0.000390023
0.00014502
0.000387555
0.000145497
0.000152501
0.000389997
0.000367602
7.34696e-07
0.000368179
8.36276e-06
0.000368754
1.59267e-05
0.000369255
2.34313e-05
0.000369668
3.06884e-05
0.000369942
3.76737e-05
0.000370098
4.41956e-05
0.00037012
5.02868e-05
0.000370053
5.58124e-05
0.000369922
6.08683e-05
0.00036978
6.54142e-05
0.000369705
6.95679e-05
0.000369718
7.34349e-05
0.000369961
7.70452e-05
0.000370374
8.07242e-05
0.000371168
8.42172e-05
0.000372166
8.82165e-05
0.000373662
9.1907e-05
0.000375407
9.66097e-05
0.000377701
0.000100609
0.000380417
0.000106199
0.000383519
0.00011046
0.000387605
0.000116783
0.00039138
0.000121176
0.000397443
0.000127417
0.000401393
0.000132079
0.000410015
0.000136398
0.000413178
0.000142334
0.000141461
0.000424219
0.000360953
6.85774e-08
0.000361608
7.70779e-06
0.000362287
1.52477e-05
0.000362912
2.28071e-05
0.000363498
3.01023e-05
0.000363984
3.71878e-05
0.000364416
4.37636e-05
0.00036475
4.9952e-05
0.000365058
5.5505e-05
0.000365319
6.06068e-05
0.00036563
6.51039e-05
0.000365989
6.92084e-05
0.000366516
7.29082e-05
0.000367194
7.63674e-05
0.000368187
7.97305e-05
0.000369388
8.3017e-05
0.000371098
8.65064e-05
0.000372969
9.00358e-05
0.000375667
9.39112e-05
0.000378308
9.7969e-05
0.000382355
0.000102151
0.000385873
0.000106941
0.000391804
0.000110852
0.00039638
0.0001166
0.00040481
0.000118986
0.000410734
0.000126156
0.000422025
0.000125106
0.000429943