/*--------------------------------*- C++ -*----------------------------------*\
| =========                 |                                                 |
| \\      /  F ield         | OpenFOAM: The Open Source CFD Toolbox           |
|  \\    /   O peration     | Version:  2312                                  |
|   \\  /    A nd           | Website:  www.openfoam.com                      |
|    \\/     M anipulation  |                                                 |
\*---------------------------------------------------------------------------*/
FoamFile
{
    version     2.0;
    format      ascii;
    arch        "LSB;label=32;scalar=64";
    class       volVectorField;
    location    "142000";
    object      U;
}
// * * * * * * * * * * * * * * * * * * * * * * * * * * * * * * * * * * * * * //

dimensions      [0 1 -1 0 0 0 0];

internalField   nonuniform List<vector> 
10800
(
(0.000992484 4.94202e-06 0)
(0.000990038 1.24579e-05 0)
(0.000986872 1.74791e-05 0)
(0.0009805 2.06624e-05 0)
(0.000971088 2.27448e-05 0)
(0.000959799 2.42375e-05 0)
(0.000947701 2.53753e-05 0)
(0.000935328 2.62331e-05 0)
(0.000922823 2.68352e-05 0)
(0.000910165 2.72065e-05 0)
(0.000897308 2.73849e-05 0)
(0.00088425 2.74131e-05 0)
(0.000871027 2.73293e-05 0)
(0.000857694 2.71615e-05 0)
(0.000844303 2.69279e-05 0)
(0.000830892 2.66401e-05 0)
(0.000817488 2.63063e-05 0)
(0.000804108 2.5933e-05 0)
(0.000790768 2.55258e-05 0)
(0.000777484 2.50894e-05 0)
(0.00076427 2.46278e-05 0)
(0.000751142 2.41442e-05 0)
(0.000738114 2.36405e-05 0)
(0.0007252 2.31188e-05 0)
(0.000712413 2.258e-05 0)
(0.000699765 2.20257e-05 0)
(0.00068727 2.14559e-05 0)
(0.000674939 2.08723e-05 0)
(0.000662786 2.02742e-05 0)
(0.000650821 1.96635e-05 0)
(0.000639058 1.90388e-05 0)
(0.000627508 1.84027e-05 0)
(0.000616186 1.77525e-05 0)
(0.0006051 1.70925e-05 0)
(0.000594267 1.64181e-05 0)
(0.000583695 1.57359e-05 0)
(0.000573401 1.50384e-05 0)
(0.00056339 1.43363e-05 0)
(0.000553686 1.36169e-05 0)
(0.000544282 1.28981e-05 0)
(0.000535219 1.21579e-05 0)
(0.000526467 1.14267e-05 0)
(0.000518097 1.06663e-05 0)
(0.000510034 9.92821e-06 0)
(0.000502419 9.14681e-06 0)
(0.000495066 8.40878e-06 0)
(0.000488292 7.60222e-06 0)
(0.000481626 6.87106e-06 0)
(0.000475856 6.03061e-06 0)
(0.000469729 5.30451e-06 0)
(0.00046535 4.42248e-06 0)
(0.000459245 3.65305e-06 0)
(0.000457329 2.77087e-06 0)
(0.000449582 1.70549e-06 0)
(0.000453295 1.1575e-06 0)
(0.000438785 -1.27566e-06 0)
(0.00045747 1.45561e-07 0)
(0.000421242 -7.72142e-06 0)
(0.000479982 2.08848e-06 0)
(0.00038488 -2.43822e-05 0)
(0.00100003 5.80279e-06 0)
(0.00100172 1.49935e-05 0)
(0.00100423 2.15236e-05 0)
(0.00100706 2.60851e-05 0)
(0.00100979 2.94408e-05 0)
(0.00101219 3.2119e-05 0)
(0.00101421 3.43673e-05 0)
(0.00101589 3.62721e-05 0)
(0.00101726 3.78662e-05 0)
(0.00101838 3.918e-05 0)
(0.00101924 4.0255e-05 0)
(0.00101983 4.11371e-05 0)
(0.00102016 4.18667e-05 0)
(0.00102023 4.24741e-05 0)
(0.00102005 4.29792e-05 0)
(0.00101963 4.33947e-05 0)
(0.00101899 4.37295e-05 0)
(0.00101814 4.39902e-05 0)
(0.00101709 4.41825e-05 0)
(0.00101585 4.43112e-05 0)
(0.00101443 4.43799e-05 0)
(0.00101284 4.43915e-05 0)
(0.0010111 4.43481e-05 0)
(0.0010092 4.42508e-05 0)
(0.00100717 4.41008e-05 0)
(0.00100499 4.38981e-05 0)
(0.00100271 4.36439e-05 0)
(0.0010003 4.3337e-05 0)
(0.00099781 4.29792e-05 0)
(0.000995189 4.25677e-05 0)
(0.000992536 4.21061e-05 0)
(0.000989741 4.15886e-05 0)
(0.000986968 4.10224e-05 0)
(0.000984027 4.03968e-05 0)
(0.000981188 3.97258e-05 0)
(0.000978121 3.89895e-05 0)
(0.000975279 3.82143e-05 0)
(0.000972097 3.73638e-05 0)
(0.000969335 3.6487e-05 0)
(0.000966027 3.55172e-05 0)
(0.000963459 3.45445e-05 0)
(0.000959977 3.34472e-05 0)
(0.000957768 3.23897e-05 0)
(0.000954 3.11505e-05 0)
(0.000952405 3.00277e-05 0)
(0.000948123 2.86205e-05 0)
(0.00094755 2.74664e-05 0)
(0.000942326 2.58435e-05 0)
(0.000943444 2.47163e-05 0)
(0.000936502 2.2791e-05 0)
(0.000940431 2.17894e-05 0)
(0.000930381 1.94086e-05 0)
(0.000939007 1.86965e-05 0)
(0.000923399 1.56003e-05 0)
(0.00093991 1.54346e-05 0)
(0.000914451 1.12199e-05 0)
(0.000944257 1.19275e-05 0)
(0.000901511 6.13741e-06 0)
(0.000953934 7.72969e-06 0)
(0.000881465 7.71842e-07 0)
(0.000999989 1.96392e-06 0)
(0.00100078 5.76688e-06 0)
(0.00100224 9.2922e-06 0)
(0.00100423 1.2456e-05 0)
(0.00100654 1.52556e-05 0)
(0.00100897 1.77362e-05 0)
(0.00101139 1.99524e-05 0)
(0.00101376 2.19474e-05 0)
(0.00101607 2.37483e-05 0)
(0.00101833 2.53719e-05 0)
(0.00102055 2.68315e-05 0)
(0.00102273 2.81403e-05 0)
(0.00102485 2.93129e-05 0)
(0.0010269 3.03632e-05 0)
(0.00102889 3.13037e-05 0)
(0.00103082 3.2144e-05 0)
(0.00103268 3.28926e-05 0)
(0.00103447 3.35551e-05 0)
(0.00103621 3.41372e-05 0)
(0.00103788 3.46422e-05 0)
(0.00103951 3.50748e-05 0)
(0.00104107 3.54364e-05 0)
(0.00104259 3.57311e-05 0)
(0.00104404 3.59581e-05 0)
(0.00104545 3.61221e-05 0)
(0.0010468 3.62196e-05 0)
(0.00104812 3.62566e-05 0)
(0.00104936 3.62265e-05 0)
(0.00105059 3.6138e-05 0)
(0.00105173 3.59801e-05 0)
(0.00105289 3.57662e-05 0)
(0.00105392 3.54786e-05 0)
(0.00105501 3.51386e-05 0)
(0.00105594 3.47182e-05 0)
(0.001057 3.42511e-05 0)
(0.0010578 3.36937e-05 0)
(0.00105885 3.30992e-05 0)
(0.00105953 3.23996e-05 0)
(0.00106059 3.16782e-05 0)
(0.00106111 3.083e-05 0)
(0.00106227 2.99842e-05 0)
(0.00106258 2.89796e-05 0)
(0.00106391 2.80144e-05 0)
(0.00106394 2.68435e-05 0)
(0.00106558 2.57677e-05 0)
(0.0010652 2.44181e-05 0)
(0.00106733 2.32452e-05 0)
(0.00106633 2.17017e-05 0)
(0.00106925 2.04516e-05 0)
(0.0010673 1.86975e-05 0)
(0.00107145 1.73978e-05 0)
(0.00106804 1.54193e-05 0)
(0.00107407 1.41064e-05 0)
(0.00106841 1.19058e-05 0)
(0.00107729 1.06254e-05 0)
(0.00106816 8.2586e-06 0)
(0.00108139 7.06642e-06 0)
(0.00106692 4.73768e-06 0)
(0.00108679 3.65747e-06 0)
(0.00106425 1.87655e-06 0)
(0.00100001 1.74361e-06 0)
(0.00100047 5.1637e-06 0)
(0.00100128 8.42537e-06 0)
(0.00100239 1.14524e-05 0)
(0.00100374 1.42038e-05 0)
(0.00100526 1.66768e-05 0)
(0.00100688 1.88931e-05 0)
(0.00100858 2.08824e-05 0)
(0.00101033 2.26721e-05 0)
(0.00101211 2.42827e-05 0)
(0.00101394 2.57301e-05 0)
(0.00101578 2.70271e-05 0)
(0.00101765 2.81861e-05 0)
(0.00101952 2.92191e-05 0)
(0.00102141 3.01379e-05 0)
(0.00102329 3.09528e-05 0)
(0.00102518 3.16728e-05 0)
(0.00102706 3.23051e-05 0)
(0.00102895 3.2856e-05 0)
(0.00103082 3.33299e-05 0)
(0.0010327 3.37317e-05 0)
(0.00103458 3.40637e-05 0)
(0.00103645 3.43299e-05 0)
(0.00103832 3.45308e-05 0)
(0.00104019 3.467e-05 0)
(0.00104204 3.47464e-05 0)
(0.00104391 3.47634e-05 0)
(0.00104575 3.47183e-05 0)
(0.00104761 3.46151e-05 0)
(0.00104944 3.44488e-05 0)
(0.0010513 3.42249e-05 0)
(0.00105311 3.39361e-05 0)
(0.00105496 3.35895e-05 0)
(0.00105676 3.31752e-05 0)
(0.00105861 3.27027e-05 0)
(0.00106038 3.21591e-05 0)
(0.00106223 3.15567e-05 0)
(0.00106397 3.08797e-05 0)
(0.00106583 3.01428e-05 0)
(0.00106752 2.93281e-05 0)
(0.00106941 2.84515e-05 0)
(0.00107105 2.74956e-05 0)
(0.00107297 2.64733e-05 0)
(0.00107454 2.53743e-05 0)
(0.00107653 2.41996e-05 0)
(0.00107801 2.29586e-05 0)
(0.0010801 2.16227e-05 0)
(0.00108146 2.02464e-05 0)
(0.0010837 1.87379e-05 0)
(0.0010849 1.72435e-05 0)
(0.00108737 1.55474e-05 0)
(0.00108833 1.39716e-05 0)
(0.00109112 1.20687e-05 0)
(0.00109175 1.04827e-05 0)
(0.00109501 8.34806e-06 0)
(0.00109516 6.88026e-06 0)
(0.00109907 4.47359e-06 0)
(0.00109855 3.33095e-06 0)
(0.00110338 5.59647e-07 0)
(0.00110186 3.1839e-08 0)
(0.001 1.15586e-06 0)
(0.00100023 3.43809e-06 0)
(0.00100067 5.65279e-06 0)
(0.00100133 7.76831e-06 0)
(0.0010022 9.76336e-06 0)
(0.00100323 1.16277e-05 0)
(0.0010044 1.33601e-05 0)
(0.00100568 1.49645e-05 0)
(0.00100705 1.64473e-05 0)
(0.00100847 1.78146e-05 0)
(0.00100996 1.90718e-05 0)
(0.00101149 2.02239e-05 0)
(0.00101305 2.12758e-05 0)
(0.00101465 2.22324e-05 0)
(0.00101628 2.30989e-05 0)
(0.00101792 2.388e-05 0)
(0.00101958 2.45804e-05 0)
(0.00102126 2.52041e-05 0)
(0.00102294 2.57545e-05 0)
(0.00102464 2.62346e-05 0)
(0.00102635 2.66467e-05 0)
(0.00102806 2.69931e-05 0)
(0.00102979 2.72754e-05 0)
(0.00103151 2.74949e-05 0)
(0.00103325 2.76527e-05 0)
(0.00103499 2.77497e-05 0)
(0.00103674 2.77859e-05 0)
(0.00103849 2.77624e-05 0)
(0.00104024 2.76778e-05 0)
(0.001042 2.75338e-05 0)
(0.00104376 2.73274e-05 0)
(0.00104553 2.70615e-05 0)
(0.0010473 2.67305e-05 0)
(0.00104907 2.63404e-05 0)
(0.00105084 2.58809e-05 0)
(0.00105261 2.53634e-05 0)
(0.00105439 2.47701e-05 0)
(0.00105616 2.41217e-05 0)
(0.00105794 2.33882e-05 0)
(0.00105971 2.26057e-05 0)
(0.00106148 2.17239e-05 0)
(0.00106325 2.08054e-05 0)
(0.00106503 1.97656e-05 0)
(0.0010668 1.87111e-05 0)
(0.00106857 1.75013e-05 0)
(0.00107035 1.63147e-05 0)
(0.00107211 1.49196e-05 0)
(0.0010739 1.36115e-05 0)
(0.00107565 1.20104e-05 0)
(0.00107748 1.06007e-05 0)
(0.00107922 8.76399e-06 0)
(0.00108112 7.28638e-06 0)
(0.00108284 5.16854e-06 0)
(0.00108489 3.67784e-06 0)
(0.00108661 1.21184e-06 0)
(0.00108889 -1.96942e-07 0)
(0.00109057 -3.10288e-06 0)
(0.00109318 -4.27186e-06 0)
(0.00109472 -7.75969e-06 0)
(0.00109766 -8.46974e-06 0)
(0.001 9.30429e-07 0)
(0.00100017 2.78017e-06 0)
(0.00100051 4.6004e-06 0)
(0.001001 6.37228e-06 0)
(0.00100164 8.07844e-06 0)
(0.00100242 9.70506e-06 0)
(0.00100331 1.1243e-05 0)
(0.0010043 1.26874e-05 0)
(0.00100536 1.40368e-05 0)
(0.0010065 1.52917e-05 0)
(0.0010077 1.64538e-05 0)
(0.00100895 1.75251e-05 0)
(0.00101025 1.8508e-05 0)
(0.00101158 1.9405e-05 0)
(0.00101295 2.02192e-05 0)
(0.00101435 2.09535e-05 0)
(0.00101578 2.1611e-05 0)
(0.00101723 2.21947e-05 0)
(0.0010187 2.27071e-05 0)
(0.00102019 2.31509e-05 0)
(0.00102169 2.35279e-05 0)
(0.0010232 2.38404e-05 0)
(0.00102473 2.40893e-05 0)
(0.00102627 2.42769e-05 0)
(0.00102782 2.4403e-05 0)
(0.00102938 2.44699e-05 0)
(0.00103094 2.44764e-05 0)
(0.00103251 2.4425e-05 0)
(0.00103409 2.4313e-05 0)
(0.00103567 2.41439e-05 0)
(0.00103726 2.39129e-05 0)
(0.00103885 2.36253e-05 0)
(0.00104044 2.32731e-05 0)
(0.00104204 2.2865e-05 0)
(0.00104363 2.23878e-05 0)
(0.00104523 2.18561e-05 0)
(0.00104682 2.12489e-05 0)
(0.00104842 2.059e-05 0)
(0.00105001 1.9846e-05 0)
(0.00105161 1.9056e-05 0)
(0.00105319 1.8167e-05 0)
(0.0010548 1.72421e-05 0)
(0.00105636 1.61978e-05 0)
(0.00105798 1.51352e-05 0)
(0.00105953 1.39224e-05 0)
(0.00106117 1.27211e-05 0)
(0.0010627 1.13233e-05 0)
(0.00106438 9.98559e-06 0)
(0.00106589 8.3814e-06 0)
(0.00106762 6.91616e-06 0)
(0.00106909 5.07831e-06 0)
(0.00107091 3.50523e-06 0)
(0.00107233 1.3958e-06 0)
(0.00107429 -2.54789e-07 0)
(0.00107562 -2.69941e-06 0)
(0.00107782 -4.38892e-06 0)
(0.00107904 -7.27309e-06 0)
(0.0010816 -8.93922e-06 0)
(0.00108256 -1.24111e-05 0)
(0.00108547 -1.3948e-05 0)
(0.001 7.36667e-07 0)
(0.00100013 2.2007e-06 0)
(0.00100037 3.64252e-06 0)
(0.00100073 5.04952e-06 0)
(0.00100121 6.41035e-06 0)
(0.0010018 7.71576e-06 0)
(0.00100248 8.95896e-06 0)
(0.00100325 1.01355e-05 0)
(0.0010041 1.12431e-05 0)
(0.00100502 1.22805e-05 0)
(0.00100601 1.32478e-05 0)
(0.00100704 1.41456e-05 0)
(0.00100813 1.49744e-05 0)
(0.00100926 1.57356e-05 0)
(0.00101043 1.643e-05 0)
(0.00101164 1.70592e-05 0)
(0.00101288 1.76244e-05 0)
(0.00101414 1.81273e-05 0)
(0.00101543 1.85689e-05 0)
(0.00101674 1.89509e-05 0)
(0.00101807 1.92741e-05 0)
(0.00101942 1.95399e-05 0)
(0.00102078 1.97486e-05 0)
(0.00102215 1.99015e-05 0)
(0.00102353 1.99984e-05 0)
(0.00102493 2.00406e-05 0)
(0.00102633 2.00269e-05 0)
(0.00102774 1.99591e-05 0)
(0.00102915 1.98347e-05 0)
(0.00103057 1.96563e-05 0)
(0.00103198 1.94197e-05 0)
(0.00103341 1.91289e-05 0)
(0.00103483 1.87769e-05 0)
(0.00103625 1.83706e-05 0)
(0.00103766 1.78991e-05 0)
(0.00103908 1.73733e-05 0)
(0.00104049 1.67762e-05 0)
(0.0010419 1.61259e-05 0)
(0.0010433 1.53957e-05 0)
(0.0010447 1.46151e-05 0)
(0.00104608 1.37426e-05 0)
(0.00104748 1.28254e-05 0)
(0.00104883 1.17988e-05 0)
(0.00105022 1.07383e-05 0)
(0.00105155 9.54302e-06 0)
(0.00105294 8.33267e-06 0)
(0.00105424 6.94977e-06 0)
(0.00105563 5.58342e-06 0)
(0.00105689 3.98749e-06 0)
(0.00105832 2.45976e-06 0)
(0.00105955 6.16154e-07 0)
(0.00106105 -1.07263e-06 0)
(0.00106224 -3.20442e-06 0)
(0.00106385 -5.03955e-06 0)
(0.00106498 -7.5124e-06 0)
(0.00106675 -9.4691e-06 0)
(0.00106777 -1.237e-05 0)
(0.00106978 -1.44153e-05 0)
(0.00107056 -1.78805e-05 0)
(0.00107277 -1.99525e-05 0)
(0.001 5.88306e-07 0)
(0.0010001 1.75784e-06 0)
(0.00100029 2.91246e-06 0)
(0.00100057 4.04436e-06 0)
(0.00100095 5.14614e-06 0)
(0.00100141 6.2112e-06 0)
(0.00100196 7.23401e-06 0)
(0.00100259 8.21023e-06 0)
(0.00100328 9.13665e-06 0)
(0.00100405 1.00111e-05 0)
(0.00100487 1.0832e-05 0)
(0.00100574 1.15988e-05 0)
(0.00100667 1.23109e-05 0)
(0.00100764 1.29682e-05 0)
(0.00100865 1.35706e-05 0)
(0.00100969 1.41184e-05 0)
(0.00101077 1.46119e-05 0)
(0.00101188 1.50515e-05 0)
(0.00101301 1.54377e-05 0)
(0.00101416 1.57712e-05 0)
(0.00101534 1.60522e-05 0)
(0.00101653 1.62814e-05 0)
(0.00101774 1.64588e-05 0)
(0.00101896 1.65852e-05 0)
(0.0010202 1.66601e-05 0)
(0.00102144 1.66843e-05 0)
(0.00102269 1.66568e-05 0)
(0.00102394 1.65785e-05 0)
(0.0010252 1.64478e-05 0)
(0.00102646 1.62659e-05 0)
(0.00102772 1.60299e-05 0)
(0.00102898 1.57418e-05 0)
(0.00103024 1.53973e-05 0)
(0.0010315 1.49997e-05 0)
(0.00103274 1.4542e-05 0)
(0.00103399 1.403e-05 0)
(0.00103522 1.34531e-05 0)
(0.00103645 1.28209e-05 0)
(0.00103766 1.21172e-05 0)
(0.00103887 1.13575e-05 0)
(0.00104005 1.05173e-05 0)
(0.00104124 9.62188e-06 0)
(0.00104239 8.63329e-06 0)
(0.00104356 7.59238e-06 0)
(0.00104467 6.44081e-06 0)
(0.00104582 5.24378e-06 0)
(0.00104689 3.9113e-06 0)
(0.00104802 2.54691e-06 0)
(0.00104904 1.01137e-06 0)
(0.00105016 -5.31955e-07 0)
(0.00105112 -2.29936e-06 0)
(0.00105226 -4.03633e-06 0)
(0.00105316 -6.07928e-06 0)
(0.00105435 -8.02757e-06 0)
(0.00105518 -1.04019e-05 0)
(0.00105645 -1.25723e-05 0)
(0.00105717 -1.53479e-05 0)
(0.00105856 -1.77437e-05 0)
(0.00105904 -2.10182e-05 0)
(0.00106049 -2.36283e-05 0)
(0.001 4.7135e-07 0)
(0.00100008 1.40809e-06 0)
(0.00100024 2.33363e-06 0)
(0.00100047 3.24268e-06 0)
(0.00100078 4.1301e-06 0)
(0.00100116 4.9911e-06 0)
(0.00100161 5.82142e-06 0)
(0.00100213 6.61745e-06 0)
(0.00100272 7.37622e-06 0)
(0.00100336 8.09536e-06 0)
(0.00100406 8.77295e-06 0)
(0.00100481 9.40753e-06 0)
(0.0010056 9.998e-06 0)
(0.00100644 1.05436e-05 0)
(0.00100731 1.1044e-05 0)
(0.00100823 1.14987e-05 0)
(0.00100917 1.19077e-05 0)
(0.00101014 1.2271e-05 0)
(0.00101114 1.25886e-05 0)
(0.00101216 1.28606e-05 0)
(0.0010132 1.30872e-05 0)
(0.00101426 1.32684e-05 0)
(0.00101533 1.34042e-05 0)
(0.00101642 1.34948e-05 0)
(0.00101752 1.35399e-05 0)
(0.00101863 1.35396e-05 0)
(0.00101974 1.34932e-05 0)
(0.00102086 1.3401e-05 0)
(0.00102197 1.32617e-05 0)
(0.00102309 1.30757e-05 0)
(0.00102421 1.2841e-05 0)
(0.00102533 1.25582e-05 0)
(0.00102643 1.22246e-05 0)
(0.00102754 1.1841e-05 0)
(0.00102863 1.14036e-05 0)
(0.00102971 1.09139e-05 0)
(0.00103078 1.03663e-05 0)
(0.00103183 9.76383e-06 0)
(0.00103287 9.09819e-06 0)
(0.00103389 8.37465e-06 0)
(0.00103489 7.58103e-06 0)
(0.00103587 6.72637e-06 0)
(0.00103682 5.79251e-06 0)
(0.00103776 4.79454e-06 0)
(0.00103866 3.7051e-06 0)
(0.00103955 2.54898e-06 0)
(0.00104038 1.28469e-06 0)
(0.00104123 -4.73738e-08 0)
(0.00104199 -1.50897e-06 0)
(0.0010428 -3.03461e-06 0)
(0.00104349 -4.71924e-06 0)
(0.00104426 -6.4607e-06 0)
(0.00104486 -8.40588e-06 0)
(0.00104561 -1.03934e-05 0)
(0.0010461 -1.26489e-05 0)
(0.00104685 -1.49158e-05 0)
(0.00104719 -1.75416e-05 0)
(0.00104796 -2.01207e-05 0)
(0.00104805 -2.31898e-05 0)
(0.00104876 -2.61055e-05 0)
(0.001 3.74546e-07 0)
(0.00100007 1.11818e-06 0)
(0.0010002 1.85269e-06 0)
(0.0010004 2.57436e-06 0)
(0.00100066 3.27953e-06 0)
(0.00100098 3.96472e-06 0)
(0.00100137 4.62673e-06 0)
(0.00100181 5.26272e-06 0)
(0.00100231 5.8702e-06 0)
(0.00100286 6.44706e-06 0)
(0.00100347 6.99154e-06 0)
(0.00100411 7.50216e-06 0)
(0.00100481 7.97776e-06 0)
(0.00100554 8.41743e-06 0)
(0.00100631 8.82047e-06 0)
(0.00100711 9.18637e-06 0)
(0.00100794 9.51474e-06 0)
(0.0010088 9.80529e-06 0)
(0.00100969 1.00578e-05 0)
(0.0010106 1.02722e-05 0)
(0.00101152 1.04482e-05 0)
(0.00101247 1.05857e-05 0)
(0.00101343 1.06846e-05 0)
(0.0010144 1.07446e-05 0)
(0.00101538 1.07655e-05 0)
(0.00101637 1.07471e-05 0)
(0.00101736 1.06889e-05 0)
(0.00101836 1.05904e-05 0)
(0.00101935 1.04511e-05 0)
(0.00102035 1.02702e-05 0)
(0.00102134 1.00471e-05 0)
(0.00102232 9.78066e-06 0)
(0.00102329 9.4699e-06 0)
(0.00102426 9.11361e-06 0)
(0.00102521 8.71037e-06 0)
(0.00102614 8.25864e-06 0)
(0.00102706 7.75667e-06 0)
(0.00102796 7.20244e-06 0)
(0.00102883 6.59393e-06 0)
(0.00102968 5.92844e-06 0)
(0.0010305 5.20371e-06 0)
(0.0010313 4.41614e-06 0)
(0.00103205 3.56333e-06 0)
(0.00103279 2.64036e-06 0)
(0.00103347 1.64516e-06 0)
(0.00103413 5.70758e-07 0)
(0.00103473 -5.83746e-07 0)
(0.00103531 -1.8282e-06 0)
(0.00103582 -3.16259e-06 0)
(0.00103632 -4.60283e-06 0)
(0.00103671 -6.14578e-06 0)
(0.00103713 -7.81436e-06 0)
(0.00103739 -9.59793e-06 0)
(0.00103772 -1.15327e-05 0)
(0.00103783 -1.35952e-05 0)
(0.00103808 -1.58434e-05 0)
(0.001038 -1.82303e-05 0)
(0.00103816 -2.08491e-05 0)
(0.0010378 -2.36102e-05 0)
(0.00103779 -2.66613e-05 0)
(0.001 2.91909e-07 0)
(0.00100006 8.70576e-07 0)
(0.00100017 1.44149e-06 0)
(0.00100034 2.00201e-06 0)
(0.00100057 2.54953e-06 0)
(0.00100085 3.08152e-06 0)
(0.00100119 3.59564e-06 0)
(0.00100158 4.08972e-06 0)
(0.00100201 4.56186e-06 0)
(0.0010025 5.01036e-06 0)
(0.00100303 5.43376e-06 0)
(0.0010036 5.83081e-06 0)
(0.00100421 6.20045e-06 0)
(0.00100486 6.54179e-06 0)
(0.00100555 6.85414e-06 0)
(0.00100626 7.13687e-06 0)
(0.00100701 7.38953e-06 0)
(0.00100778 7.61168e-06 0)
(0.00100857 7.80303e-06 0)
(0.00100939 7.96322e-06 0)
(0.00101022 8.09205e-06 0)
(0.00101107 8.18918e-06 0)
(0.00101193 8.25443e-06 0)
(0.00101281 8.2874e-06 0)
(0.00101369 8.2879e-06 0)
(0.00101458 8.25537e-06 0)
(0.00101547 8.18961e-06 0)
(0.00101636 8.08982e-06 0)
(0.00101725 7.95577e-06 0)
(0.00101813 7.78631e-06 0)
(0.00101901 7.58124e-06 0)
(0.00101988 7.33891e-06 0)
(0.00102074 7.05922e-06 0)
(0.00102158 6.73983e-06 0)
(0.0010224 6.38092e-06 0)
(0.00102321 5.97908e-06 0)
(0.00102399 5.53512e-06 0)
(0.00102475 5.04405e-06 0)
(0.00102547 4.50777e-06 0)
(0.00102617 3.91888e-06 0)
(0.00102683 3.28133e-06 0)
(0.00102746 2.58398e-06 0)
(0.00102804 1.83423e-06 0)
(0.00102858 1.01526e-06 0)
(0.00102906 1.40035e-07 0)
(0.00102951 -8.16798e-07 0)
(0.00102989 -1.83213e-06 0)
(0.00103023 -2.9463e-06 0)
(0.00103048 -4.12159e-06 0)
(0.0010307 -5.42134e-06 0)
(0.0010308 -6.78103e-06 0)
(0.00103088 -8.30011e-06 0)
(0.00103082 -9.87071e-06 0)
(0.00103075 -1.16514e-05 0)
(0.00103049 -1.34635e-05 0)
(0.00103026 -1.5561e-05 0)
(0.00102975 -1.76489e-05 0)
(0.00102934 -2.0134e-05 0)
(0.00102851 -2.25292e-05 0)
(0.00102782 -2.54862e-05 0)
(0.001 2.19392e-07 0)
(0.00100005 6.53238e-07 0)
(0.00100015 1.08034e-06 0)
(0.00100031 1.49885e-06 0)
(0.00100051 1.90696e-06 0)
(0.00100076 2.30289e-06 0)
(0.00100106 2.68499e-06 0)
(0.00100141 3.05171e-06 0)
(0.0010018 3.40165e-06 0)
(0.00100223 3.73356e-06 0)
(0.00100271 4.04634e-06 0)
(0.00100322 4.33901e-06 0)
(0.00100378 4.61072e-06 0)
(0.00100436 4.86074e-06 0)
(0.00100498 5.08846e-06 0)
(0.00100563 5.29334e-06 0)
(0.00100631 5.47495e-06 0)
(0.00100701 5.63287e-06 0)
(0.00100773 5.76681e-06 0)
(0.00100847 5.8764e-06 0)
(0.00100923 5.96143e-06 0)
(0.00101 6.02155e-06 0)
(0.00101079 6.05658e-06 0)
(0.00101158 6.0661e-06 0)
(0.00101238 6.04998e-06 0)
(0.00101319 6.00762e-06 0)
(0.001014 5.93893e-06 0)
(0.0010148 5.84305e-06 0)
(0.0010156 5.71996e-06 0)
(0.0010164 5.56841e-06 0)
(0.00101718 5.38854e-06 0)
(0.00101796 5.17849e-06 0)
(0.00101872 4.93871e-06 0)
(0.00101946 4.66647e-06 0)
(0.00102018 4.36279e-06 0)
(0.00102087 4.02362e-06 0)
(0.00102154 3.65103e-06 0)
(0.00102218 3.23896e-06 0)
(0.00102278 2.79128e-06 0)
(0.00102334 2.29884e-06 0)
(0.00102387 1.76845e-06 0)
(0.00102434 1.18623e-06 0)
(0.00102477 5.63739e-07 0)
(0.00102515 -1.20151e-07 0)
(0.00102546 -8.45084e-07 0)
(0.00102572 -1.64467e-06 0)
(0.00102591 -2.48585e-06 0)
(0.00102603 -3.42202e-06 0)
(0.00102606 -4.39695e-06 0)
(0.00102602 -5.49461e-06 0)
(0.00102587 -6.62191e-06 0)
(0.00102565 -7.91264e-06 0)
(0.00102529 -9.21363e-06 0)
(0.00102487 -1.07391e-05 0)
(0.00102426 -1.22376e-05 0)
(0.0010236 -1.40533e-05 0)
(0.0010227 -1.57732e-05 0)
(0.00102177 -1.79526e-05 0)
(0.00102049 -1.99117e-05 0)
(0.0010192 -2.25466e-05 0)
(0.001 1.53989e-07 0)
(0.00100005 4.57204e-07 0)
(0.00100014 7.54484e-07 0)
(0.00100028 1.04463e-06 0)
(0.00100046 1.32647e-06 0)
(0.00100069 1.59885e-06 0)
(0.00100097 1.8607e-06 0)
(0.00100129 2.11099e-06 0)
(0.00100165 2.34882e-06 0)
(0.00100205 2.57334e-06 0)
(0.00100249 2.78383e-06 0)
(0.00100296 2.97961e-06 0)
(0.00100347 3.16011e-06 0)
(0.00100401 3.32482e-06 0)
(0.00100458 3.47332e-06 0)
(0.00100518 3.60521e-06 0)
(0.0010058 3.7202e-06 0)
(0.00100645 3.81798e-06 0)
(0.00100712 3.89833e-06 0)
(0.00100781 3.96099e-06 0)
(0.00100851 4.00581e-06 0)
(0.00100923 4.03251e-06 0)
(0.00100995 4.041e-06 0)
(0.00101069 4.03091e-06 0)
(0.00101143 4.00219e-06 0)
(0.00101217 3.95435e-06 0)
(0.00101291 3.88739e-06 0)
(0.00101365 3.80057e-06 0)
(0.00101439 3.694e-06 0)
(0.00101511 3.56659e-06 0)
(0.00101583 3.41861e-06 0)
(0.00101652 3.24845e-06 0)
(0.00101721 3.0567e-06 0)
(0.00101787 2.84097e-06 0)
(0.0010185 2.6024e-06 0)
(0.00101911 2.33742e-06 0)
(0.00101969 2.04821e-06 0)
(0.00102023 1.72913e-06 0)
(0.00102073 1.3842e-06 0)
(0.0010212 1.00523e-06 0)
(0.00102161 5.9911e-07 0)
(0.00102197 1.53022e-07 0)
(0.00102227 -3.21033e-07 0)
(0.00102252 -8.4333e-07 0)
(0.0010227 -1.39387e-06 0)
(0.00102281 -2.00503e-06 0)
(0.00102283 -2.6438e-06 0)
(0.00102278 -3.36044e-06 0)
(0.00102262 -4.0997e-06 0)
(0.00102238 -4.94148e-06 0)
(0.00102202 -5.795e-06 0)
(0.00102155 -6.78819e-06 0)
(0.00102095 -7.77192e-06 0)
(0.00102023 -8.95169e-06 0)
(0.00101933 -1.00826e-05 0)
(0.00101832 -1.14962e-05 0)
(0.00101708 -1.27902e-05 0)
(0.00101572 -1.45016e-05 0)
(0.00101406 -1.59672e-05 0)
(0.00101227 -1.80588e-05 0)
(0.001 9.33024e-08 0)
(0.00100005 2.75321e-07 0)
(0.00100013 4.5212e-07 0)
(0.00100026 6.23057e-07 0)
(0.00100044 7.87503e-07 0)
(0.00100065 9.44852e-07 0)
(0.00100091 1.09454e-06 0)
(0.00100121 1.23603e-06 0)
(0.00100155 1.36886e-06 0)
(0.00100193 1.49259e-06 0)
(0.00100234 1.60685e-06 0)
(0.00100279 1.71132e-06 0)
(0.00100327 1.80571e-06 0)
(0.00100378 1.88978e-06 0)
(0.00100432 1.96333e-06 0)
(0.00100489 2.02619e-06 0)
(0.00100548 2.07823e-06 0)
(0.00100609 2.11932e-06 0)
(0.00100673 2.14938e-06 0)
(0.00100738 2.16829e-06 0)
(0.00100804 2.17603e-06 0)
(0.00100872 2.17245e-06 0)
(0.00100941 2.15755e-06 0)
(0.0010101 2.13114e-06 0)
(0.0010108 2.09326e-06 0)
(0.0010115 2.04359e-06 0)
(0.0010122 1.98222e-06 0)
(0.00101289 1.90868e-06 0)
(0.00101358 1.82311e-06 0)
(0.00101425 1.72479e-06 0)
(0.00101492 1.614e-06 0)
(0.00101557 1.48964e-06 0)
(0.00101619 1.35223e-06 0)
(0.0010168 1.2001e-06 0)
(0.00101738 1.03423e-06 0)
(0.00101792 8.52087e-07 0)
(0.00101844 6.55347e-07 0)
(0.00101891 4.40453e-07 0)
(0.00101935 2.10187e-07 0)
(0.00101973 -4.13115e-08 0)
(0.00102007 -3.08999e-07 0)
(0.00102035 -6.01944e-07 0)
(0.00102057 -9.11387e-07 0)
(0.00102072 -1.25187e-06 0)
(0.0010208 -1.60955e-06 0)
(0.0010208 -2.00665e-06 0)
(0.00102071 -2.41933e-06 0)
(0.00102053 -2.88282e-06 0)
(0.00102024 -3.35794e-06 0)
(0.00101985 -3.90098e-06 0)
(0.00101934 -4.44738e-06 0)
(0.0010187 -5.08743e-06 0)
(0.00101791 -5.71499e-06 0)
(0.00101698 -6.47556e-06 0)
(0.00101588 -7.19461e-06 0)
(0.00101461 -8.10773e-06 0)
(0.00101313 -8.92743e-06 0)
(0.00101145 -1.00369e-05 0)
(0.00100951 -1.09609e-05 0)
(0.00100737 -1.23242e-05 0)
(0.001 3.52756e-08 0)
(0.00100004 1.01451e-07 0)
(0.00100013 1.63113e-07 0)
(0.00100026 2.20119e-07 0)
(0.00100042 2.72341e-07 0)
(0.00100064 3.19669e-07 0)
(0.00100089 3.62005e-07 0)
(0.00100118 3.99277e-07 0)
(0.00100151 4.31436e-07 0)
(0.00100187 4.58452e-07 0)
(0.00100227 4.80315e-07 0)
(0.00100271 4.97031e-07 0)
(0.00100318 5.08626e-07 0)
(0.00100367 5.15136e-07 0)
(0.0010042 5.16619e-07 0)
(0.00100475 5.13134e-07 0)
(0.00100532 5.0476e-07 0)
(0.00100592 4.91567e-07 0)
(0.00100653 4.73647e-07 0)
(0.00100716 4.51068e-07 0)
(0.00100781 4.2393e-07 0)
(0.00100846 3.92291e-07 0)
(0.00100913 3.56257e-07 0)
(0.0010098 3.15855e-07 0)
(0.00101048 2.71193e-07 0)
(0.00101116 2.22253e-07 0)
(0.00101183 1.69145e-07 0)
(0.0010125 1.11786e-07 0)
(0.00101316 5.02916e-08 0)
(0.00101381 -1.55158e-08 0)
(0.00101445 -8.54961e-08 0)
(0.00101507 -1.59965e-07 0)
(0.00101567 -2.38705e-07 0)
(0.00101624 -3.22255e-07 0)
(0.00101679 -4.10209e-07 0)
(0.00101731 -5.03443e-07 0)
(0.00101779 -6.01308e-07 0)
(0.00101823 -7.04941e-07 0)
(0.00101862 -8.13412e-07 0)
(0.00101897 -9.2897e-07 0)
(0.00101926 -1.04985e-06 0)
(0.0010195 -1.17937e-06 0)
(0.00101967 -1.31482e-06 0)
(0.00101977 -1.4611e-06 0)
(0.00101979 -1.6132e-06 0)
(0.00101973 -1.77885e-06 0)
(0.00101958 -1.94978e-06 0)
(0.00101933 -2.13843e-06 0)
(0.00101898 -2.33106e-06 0)
(0.0010185 -2.54764e-06 0)
(0.00101791 -2.76538e-06 0)
(0.00101717 -3.01615e-06 0)
(0.00101629 -3.26258e-06 0)
(0.00101525 -3.55635e-06 0)
(0.00101403 -3.83536e-06 0)
(0.00101263 -4.18395e-06 0)
(0.00101101 -4.49904e-06 0)
(0.00100917 -4.91845e-06 -4.23466e-38)
(0.00100708 -5.27072e-06 0)
(0.00100473 -5.78219e-06 0)
(0.001 -2.19323e-08 0)
(0.00100004 -6.99364e-08 0)
(0.00100013 -1.2174e-07 0)
(0.00100026 -1.76994e-07 0)
(0.00100043 -2.35338e-07 0)
(0.00100064 -2.96399e-07 0)
(0.00100089 -3.59809e-07 0)
(0.00100118 -4.25199e-07 0)
(0.00100151 -4.92199e-07 0)
(0.00100187 -5.60448e-07 0)
(0.00100228 -6.29595e-07 0)
(0.00100271 -6.99294e-07 0)
(0.00100318 -7.69216e-07 0)
(0.00100367 -8.39033e-07 0)
(0.0010042 -9.08436e-07 0)
(0.00100475 -9.77118e-07 0)
(0.00100532 -1.04479e-06 0)
(0.00100591 -1.11118e-06 0)
(0.00100653 -1.17601e-06 0)
(0.00100716 -1.23901e-06 0)
(0.0010078 -1.29996e-06 0)
(0.00100846 -1.35858e-06 0)
(0.00100912 -1.41466e-06 0)
(0.00100979 -1.46793e-06 0)
(0.00101047 -1.51822e-06 0)
(0.00101114 -1.56522e-06 0)
(0.00101181 -1.6088e-06 0)
(0.00101248 -1.64864e-06 0)
(0.00101314 -1.68463e-06 0)
(0.00101379 -1.71641e-06 0)
(0.00101442 -1.74395e-06 0)
(0.00101504 -1.76677e-06 0)
(0.00101563 -1.78497e-06 0)
(0.0010162 -1.79787e-06 0)
(0.00101675 -1.80582e-06 0)
(0.00101726 -1.80781e-06 0)
(0.00101773 -1.80451e-06 0)
(0.00101817 -1.79472e-06 0)
(0.00101856 -1.77954e-06 0)
(0.0010189 -1.75674e-06 0)
(0.00101919 -1.72838e-06 0)
(0.00101942 -1.69114e-06 0)
(0.00101958 -1.64842e-06 0)
(0.00101968 -1.59491e-06 0)
(0.00101969 -1.53621e-06 0)
(0.00101963 -1.46392e-06 0)
(0.00101947 -1.38729e-06 0)
(0.00101921 -1.29294e-06 0)
(0.00101885 -1.19581e-06 0)
(0.00101837 -1.07483e-06 0)
(0.00101777 -9.54808e-07 0)
(0.00101703 -8.02175e-07 0)
(0.00101614 -6.57303e-07 0)
(0.00101509 -4.66158e-07 0)
(0.00101386 -2.9435e-07 0)
(0.00101245 -5.45432e-08 0)
(0.00101082 1.4627e-07 0)
(0.00100897 4.49114e-07 4.23466e-38)
(0.00100688 6.79143e-07 0)
(0.00100451 1.0644e-06 0)
(0.001 -8.01283e-08 0)
(0.00100005 -2.44246e-07 0)
(0.00100013 -4.11393e-07 0)
(0.00100026 -5.80715e-07 0)
(0.00100044 -7.51347e-07 0)
(0.00100066 -9.22421e-07 0)
(0.00100092 -1.09309e-06 0)
(0.00100122 -1.26253e-06 0)
(0.00100156 -1.42996e-06 0)
(0.00100193 -1.59462e-06 0)
(0.00100235 -1.75579e-06 0)
(0.00100279 -1.9128e-06 0)
(0.00100327 -2.06502e-06 0)
(0.00100378 -2.21183e-06 0)
(0.00100432 -2.35268e-06 0)
(0.00100489 -2.48703e-06 0)
(0.00100548 -2.6144e-06 0)
(0.00100609 -2.73429e-06 0)
(0.00100672 -2.84629e-06 0)
(0.00100736 -2.94994e-06 0)
(0.00100802 -3.04487e-06 0)
(0.0010087 -3.13064e-06 0)
(0.00100938 -3.20692e-06 0)
(0.00101007 -3.27323e-06 0)
(0.00101076 -3.32931e-06 0)
(0.00101145 -3.3746e-06 0)
(0.00101214 -3.40891e-06 0)
(0.00101283 -3.43156e-06 0)
(0.00101351 -3.44246e-06 0)
(0.00101417 -3.44073e-06 0)
(0.00101483 -3.42645e-06 0)
(0.00101547 -3.3984e-06 0)
(0.00101608 -3.35698e-06 0)
(0.00101668 -3.30044e-06 0)
(0.00101724 -3.22968e-06 0)
(0.00101778 -3.14213e-06 0)
(0.00101828 -3.03951e-06 0)
(0.00101874 -2.91793e-06 0)
(0.00101916 -2.78043e-06 0)
(0.00101953 -2.62101e-06 0)
(0.00101985 -2.44501e-06 0)
(0.00102012 -2.24312e-06 0)
(0.00102032 -2.02435e-06 0)
(0.00102045 -1.77417e-06 0)
(0.00102051 -1.50758e-06 0)
(0.00102049 -1.20167e-06 0)
(0.00102038 -8.812e-07 0)
(0.00102018 -5.09712e-07 0)
(0.00101988 -1.28348e-07 0)
(0.00101947 3.21455e-07 0)
(0.00101893 7.71746e-07 0)
(0.00101827 1.3155e-06 0)
(0.00101746 1.84251e-06 0)
(0.00101651 2.50261e-06 0)
(0.00101538 3.1153e-06 0)
(0.00101408 3.92247e-06 0)
(0.00101257 4.62864e-06 0)
(0.00101086 5.62512e-06 0)
(0.00100891 6.42678e-06 0)
(0.00100671 7.66802e-06 0)
(0.001 -1.41192e-07 0)
(0.00100005 -4.27075e-07 0)
(0.00100014 -7.15086e-07 0)
(0.00100028 -1.00383e-06 0)
(0.00100047 -1.29188e-06 0)
(0.0010007 -1.57786e-06 0)
(0.00100097 -1.86039e-06 0)
(0.00100129 -2.13819e-06 0)
(0.00100165 -2.41003e-06 0)
(0.00100205 -2.67476e-06 0)
(0.00100249 -2.93129e-06 0)
(0.00100296 -3.17863e-06 0)
(0.00100347 -3.41585e-06 0)
(0.00100401 -3.64209e-06 0)
(0.00100458 -3.85658e-06 0)
(0.00100517 -4.05856e-06 0)
(0.0010058 -4.24738e-06 0)
(0.00100644 -4.42239e-06 0)
(0.0010071 -4.58305e-06 0)
(0.00100778 -4.72874e-06 0)
(0.00100848 -4.859e-06 0)
(0.00100919 -4.97323e-06 0)
(0.00100991 -5.07103e-06 0)
(0.00101063 -5.15175e-06 0)
(0.00101136 -5.21506e-06 0)
(0.00101209 -5.26019e-06 0)
(0.00101282 -5.28691e-06 0)
(0.00101355 -5.29426e-06 0)
(0.00101427 -5.28211e-06 0)
(0.00101498 -5.24921e-06 0)
(0.00101568 -5.19567e-06 0)
(0.00101636 -5.11971e-06 0)
(0.00101702 -5.02186e-06 0)
(0.00101767 -4.89957e-06 0)
(0.00101828 -4.754e-06 0)
(0.00101887 -4.58141e-06 0)
(0.00101943 -4.38408e-06 0)
(0.00101995 -4.15637e-06 0)
(0.00102043 -3.90246e-06 0)
(0.00102086 -3.61371e-06 0)
(0.00102125 -3.29749e-06 0)
(0.00102158 -2.94038e-06 0)
(0.00102186 -2.555e-06 0)
(0.00102208 -2.12038e-06 0)
(0.00102222 -1.65772e-06 0)
(0.0010223 -1.13401e-06 0)
(0.00102229 -5.84518e-07 0)
(0.00102221 4.29664e-08 0)
(0.00102202 6.90418e-07 0)
(0.00102174 1.4411e-06 0)
(0.00102134 2.19934e-06 0)
(0.00102084 3.09873e-06 0)
(0.0010202 3.98267e-06 0)