/*--------------------------------*- C++ -*----------------------------------*\
| =========                 |                                                 |
| \\      /  F ield         | OpenFOAM: The Open Source CFD Toolbox           |
|  \\    /   O peration     | Version:  2312                                  |
|   \\  /    A nd           | Website:  www.openfoam.com                      |
|    \\/     M anipulation  |                                                 |
\*---------------------------------------------------------------------------*/
FoamFile
{
    version     2.0;
    format      ascii;
    arch        "LSB;label=32;scalar=64";
    class       volScalarField;
    location    "130000";
    object      p;
}
// * * * * * * * * * * * * * * * * * * * * * * * * * * * * * * * * * * * * * //

dimensions      [0 2 -2 0 0 0 0];

internalField   nonuniform List<scalar> 
10800
(
5.3929e-07
5.25167e-07
5.114e-07
5.00824e-07
4.93402e-07
4.88011e-07
4.83561e-07
4.79483e-07
4.75609e-07
4.71946e-07
4.68532e-07
4.65369e-07
4.62425e-07
4.5965e-07
4.56997e-07
4.54433e-07
4.51936e-07
4.49494e-07
4.47094e-07
4.4473e-07
4.42392e-07
4.40071e-07
4.37763e-07
4.35461e-07
4.3316e-07
4.30858e-07
4.2855e-07
4.26234e-07
4.23909e-07
4.21573e-07
4.19224e-07
4.16861e-07
4.14484e-07
4.12093e-07
4.09687e-07
4.07267e-07
4.04833e-07
4.02385e-07
3.99923e-07
3.97448e-07
3.94961e-07
3.92462e-07
3.89951e-07
3.87428e-07
3.84893e-07
3.82346e-07
3.79787e-07
3.7721e-07
3.74623e-07
3.72007e-07
3.69386e-07
3.66708e-07
3.64052e-07
3.6125e-07
3.586e-07
3.55468e-07
3.53106e-07
3.48703e-07
3.48396e-07
3.37783e-07
4.91245e-07
4.89518e-07
4.86873e-07
4.83748e-07
4.80532e-07
4.77438e-07
4.74516e-07
4.7173e-07
4.69029e-07
4.66384e-07
4.63787e-07
4.61245e-07
4.58764e-07
4.56344e-07
4.53979e-07
4.51659e-07
4.49375e-07
4.4712e-07
4.44887e-07
4.42671e-07
4.40469e-07
4.38275e-07
4.36087e-07
4.33901e-07
4.31714e-07
4.29523e-07
4.27326e-07
4.25122e-07
4.22908e-07
4.20683e-07
4.18447e-07
4.16197e-07
4.13936e-07
4.1166e-07
4.09372e-07
4.07068e-07
4.04753e-07
4.02421e-07
4.0008e-07
3.97721e-07
3.95356e-07
3.9297e-07
3.90582e-07
3.88168e-07
3.8576e-07
3.83316e-07
3.80891e-07
3.78414e-07
3.75982e-07
3.73468e-07
3.71047e-07
3.68498e-07
3.66144e-07
3.63578e-07
3.61426e-07
3.58913e-07
3.57299e-07
3.54918e-07
3.54451e-07
3.51787e-07
4.82501e-07
4.81751e-07
4.80337e-07
4.78385e-07
4.76101e-07
4.73681e-07
4.71251e-07
4.68862e-07
4.66517e-07
4.64202e-07
4.61909e-07
4.59637e-07
4.57392e-07
4.55179e-07
4.52999e-07
4.5085e-07
4.48729e-07
4.4663e-07
4.44549e-07
4.42481e-07
4.40424e-07
4.38375e-07
4.36331e-07
4.3429e-07
4.32248e-07
4.30205e-07
4.28159e-07
4.26107e-07
4.24048e-07
4.21982e-07
4.19907e-07
4.17822e-07
4.15729e-07
4.13623e-07
4.11509e-07
4.09381e-07
4.07245e-07
4.05095e-07
4.02937e-07
4.00763e-07
3.98584e-07
3.96387e-07
3.94188e-07
3.91967e-07
3.89749e-07
3.87504e-07
3.85271e-07
3.83003e-07
3.8076e-07
3.78471e-07
3.76232e-07
3.73928e-07
3.71715e-07
3.69406e-07
3.67256e-07
3.64959e-07
3.62926e-07
3.60647e-07
3.5877e-07
3.56412e-07
4.70763e-07
4.70331e-07
4.69544e-07
4.68454e-07
4.67129e-07
4.65641e-07
4.64047e-07
4.62385e-07
4.60678e-07
4.58936e-07
4.57165e-07
4.5537e-07
4.53559e-07
4.51737e-07
4.49909e-07
4.48077e-07
4.46245e-07
4.44411e-07
4.42576e-07
4.40739e-07
4.38899e-07
4.37056e-07
4.35209e-07
4.33358e-07
4.31502e-07
4.2964e-07
4.27772e-07
4.25897e-07
4.24015e-07
4.22125e-07
4.20228e-07
4.18322e-07
4.16409e-07
4.14486e-07
4.12556e-07
4.10617e-07
4.0867e-07
4.06714e-07
4.04751e-07
4.02778e-07
4.00798e-07
3.98807e-07
3.96809e-07
3.94799e-07
3.92783e-07
3.90751e-07
3.88713e-07
3.86654e-07
3.84589e-07
3.82496e-07
3.80398e-07
3.78262e-07
3.76123e-07
3.73936e-07
3.71751e-07
3.69502e-07
3.67264e-07
3.64944e-07
3.6265e-07
3.60279e-07
4.64059e-07
4.63846e-07
4.63414e-07
4.62768e-07
4.61924e-07
4.60911e-07
4.5976e-07
4.58503e-07
4.57163e-07
4.55759e-07
4.54302e-07
4.52802e-07
4.51265e-07
4.49699e-07
4.48108e-07
4.46498e-07
4.44873e-07
4.43235e-07
4.41586e-07
4.39928e-07
4.3826e-07
4.36585e-07
4.34903e-07
4.33214e-07
4.31519e-07
4.29817e-07
4.28109e-07
4.26396e-07
4.24676e-07
4.22952e-07
4.21222e-07
4.19486e-07
4.17746e-07
4.16002e-07
4.14253e-07
4.12499e-07
4.10742e-07
4.0898e-07
4.07215e-07
4.05445e-07
4.03672e-07
4.01894e-07
4.00113e-07
3.98325e-07
3.96533e-07
3.94733e-07
3.92927e-07
3.91111e-07
3.89284e-07
3.87443e-07
3.85584e-07
3.837e-07
3.81781e-07
3.79817e-07
3.77791e-07
3.75689e-07
3.73498e-07
3.71226e-07
3.6888e-07
3.66551e-07
4.58536e-07
4.58374e-07
4.58049e-07
4.57564e-07
4.56931e-07
4.56165e-07
4.55284e-07
4.54306e-07
4.53247e-07
4.52119e-07
4.50932e-07
4.49695e-07
4.48413e-07
4.47092e-07
4.45738e-07
4.44355e-07
4.42947e-07
4.41518e-07
4.40071e-07
4.38607e-07
4.37129e-07
4.35638e-07
4.34135e-07
4.32623e-07
4.31101e-07
4.29571e-07
4.28034e-07
4.26491e-07
4.24942e-07
4.23389e-07
4.21831e-07
4.2027e-07
4.18705e-07
4.17139e-07
4.1557e-07
4.14001e-07
4.1243e-07
4.1086e-07
4.09288e-07
4.07717e-07
4.06146e-07
4.04574e-07
4.03001e-07
4.01427e-07
3.9985e-07
3.98268e-07
3.96679e-07
3.95081e-07
3.93469e-07
3.91842e-07
3.90193e-07
3.88526e-07
3.8683e-07
3.85111e-07
3.83349e-07
3.81548e-07
3.79675e-07
3.77751e-07
3.75767e-07
3.73849e-07
4.54186e-07
4.54067e-07
4.5383e-07
4.53474e-07
4.53003e-07
4.52425e-07
4.51749e-07
4.50984e-07
4.50141e-07
4.49229e-07
4.48256e-07
4.47229e-07
4.46153e-07
4.45033e-07
4.43875e-07
4.42682e-07
4.4146e-07
4.4021e-07
4.38937e-07
4.37644e-07
4.36332e-07
4.35004e-07
4.33662e-07
4.32308e-07
4.30944e-07
4.2957e-07
4.28189e-07
4.26803e-07
4.25411e-07
4.24016e-07
4.22618e-07
4.21219e-07
4.1982e-07
4.18422e-07
4.17026e-07
4.15632e-07
4.14241e-07
4.12855e-07
4.11474e-07
4.10098e-07
4.08728e-07
4.07364e-07
4.06006e-07
4.04655e-07
4.03308e-07
4.01968e-07
4.00632e-07
3.993e-07
3.97968e-07
3.96636e-07
3.95293e-07
3.93937e-07
3.92553e-07
3.91145e-07
3.89699e-07
3.88228e-07
3.86713e-07
3.85179e-07
3.83625e-07
3.8216e-07
4.50732e-07
4.50639e-07
4.50454e-07
4.50175e-07
4.49804e-07
4.49344e-07
4.48801e-07
4.48181e-07
4.47489e-07
4.46734e-07
4.45918e-07
4.45049e-07
4.44132e-07
4.4317e-07
4.42169e-07
4.41132e-07
4.40064e-07
4.38967e-07
4.37845e-07
4.36701e-07
4.35537e-07
4.34356e-07
4.3316e-07
4.31952e-07
4.30733e-07
4.29505e-07
4.2827e-07
4.2703e-07
4.25786e-07
4.24541e-07
4.23296e-07
4.22051e-07
4.2081e-07
4.19572e-07
4.1834e-07
4.17115e-07
4.15898e-07
4.1469e-07
4.13493e-07
4.12307e-07
4.11134e-07
4.09974e-07
4.08827e-07
4.07695e-07
4.06577e-07
4.05473e-07
4.04382e-07
4.03304e-07
4.02237e-07
4.01184e-07
4.0014e-07
3.99107e-07
3.98073e-07
3.97039e-07
3.95992e-07
3.94941e-07
3.93875e-07
3.92822e-07
3.91789e-07
3.9088e-07
4.47965e-07
4.4789e-07
4.47738e-07
4.4751e-07
4.47205e-07
4.46826e-07
4.46376e-07
4.45858e-07
4.45279e-07
4.4464e-07
4.43947e-07
4.43204e-07
4.42414e-07
4.41583e-07
4.40713e-07
4.39807e-07
4.38871e-07
4.37906e-07
4.36915e-07
4.35902e-07
4.34869e-07
4.33819e-07
4.32754e-07
4.31676e-07
4.30589e-07
4.29493e-07
4.28391e-07
4.27286e-07
4.26178e-07
4.25071e-07
4.23966e-07
4.22865e-07
4.2177e-07
4.20682e-07
4.19604e-07
4.18538e-07
4.17484e-07
4.16446e-07
4.15424e-07
4.14421e-07
4.13437e-07
4.12475e-07
4.11536e-07
4.10621e-07
4.09732e-07
4.0887e-07
4.08036e-07
4.07231e-07
4.06455e-07
4.05706e-07
4.04981e-07
4.04283e-07
4.03609e-07
4.02964e-07
4.02341e-07
4.01747e-07
4.01176e-07
4.0065e-07
4.00179e-07
3.99852e-07
4.45761e-07
4.45697e-07
4.45569e-07
4.45376e-07
4.45118e-07
4.44797e-07
4.44414e-07
4.43973e-07
4.43476e-07
4.42926e-07
4.42328e-07
4.41683e-07
4.40995e-07
4.40267e-07
4.39503e-07
4.38706e-07
4.37878e-07
4.37022e-07
4.36142e-07
4.35239e-07
4.34318e-07
4.33379e-07
4.32427e-07
4.31463e-07
4.30489e-07
4.29509e-07
4.28524e-07
4.27537e-07
4.2655e-07
4.25565e-07
4.24585e-07
4.23612e-07
4.22649e-07
4.21696e-07
4.20758e-07
4.19835e-07
4.18931e-07
4.18048e-07
4.17188e-07
4.16353e-07
4.15546e-07
4.14769e-07
4.14025e-07
4.13315e-07
4.12643e-07
4.1201e-07
4.11418e-07
4.10871e-07
4.1037e-07
4.09917e-07
4.0951e-07
4.09155e-07
4.08853e-07
4.08607e-07
4.08417e-07
4.0829e-07
4.08225e-07
4.0824e-07
4.08352e-07
4.08632e-07
4.44031e-07
4.43976e-07
4.43865e-07
4.43697e-07
4.43473e-07
4.43194e-07
4.4286e-07
4.42475e-07
4.4204e-07
4.41557e-07
4.4103e-07
4.40461e-07
4.39852e-07
4.39206e-07
4.38525e-07
4.37813e-07
4.37073e-07
4.36306e-07
4.35515e-07
4.34704e-07
4.33874e-07
4.33029e-07
4.32171e-07
4.31302e-07
4.30425e-07
4.29543e-07
4.28658e-07
4.27772e-07
4.26889e-07
4.2601e-07
4.25139e-07
4.24277e-07
4.23428e-07
4.22595e-07
4.21779e-07
4.20984e-07
4.20212e-07
4.19467e-07
4.18751e-07
4.18068e-07
4.17421e-07
4.16812e-07
4.16245e-07
4.15724e-07
4.15251e-07
4.14832e-07
4.14468e-07
4.14164e-07
4.1392e-07
4.13744e-07
4.13639e-07
4.13611e-07
4.13662e-07
4.13799e-07
4.14025e-07
4.14349e-07
4.14774e-07
4.15318e-07
4.15997e-07
4.16869e-07
4.42712e-07
4.42662e-07
4.42564e-07
4.42414e-07
4.42215e-07
4.41966e-07
4.41668e-07
4.41323e-07
4.40934e-07
4.40501e-07
4.40027e-07
4.39514e-07
4.38965e-07
4.38381e-07
4.37765e-07
4.37119e-07
4.36446e-07
4.35749e-07
4.35029e-07
4.3429e-07
4.33533e-07
4.32763e-07
4.3198e-07
4.31189e-07
4.3039e-07
4.29588e-07
4.28784e-07
4.27982e-07
4.27183e-07
4.26392e-07
4.25611e-07
4.24842e-07
4.24088e-07
4.23353e-07
4.2264e-07
4.21952e-07
4.21292e-07
4.20664e-07
4.20071e-07
4.19516e-07
4.19004e-07
4.18539e-07
4.18124e-07
4.17764e-07
4.17464e-07
4.17227e-07
4.17059e-07
4.16967e-07
4.16953e-07
4.17024e-07
4.17188e-07
4.1745e-07
4.17817e-07
4.18297e-07
4.18897e-07
4.19628e-07
4.20498e-07
4.21524e-07
4.22724e-07
4.2414e-07
4.41758e-07
4.41713e-07
4.41623e-07
4.41486e-07
4.41304e-07
4.41076e-07
4.40803e-07
4.40487e-07
4.40129e-07
4.39732e-07
4.39296e-07
4.38824e-07
4.38317e-07
4.37778e-07
4.37208e-07
4.36611e-07
4.35988e-07
4.35342e-07
4.34675e-07
4.33989e-07
4.33288e-07
4.32573e-07
4.31848e-07
4.31114e-07
4.30375e-07
4.29633e-07
4.28892e-07
4.28153e-07
4.2742e-07
4.26696e-07
4.25983e-07
4.25286e-07
4.24606e-07
4.23948e-07
4.23315e-07
4.2271e-07
4.22137e-07
4.216e-07
4.21103e-07
4.2065e-07
4.20245e-07
4.19894e-07
4.196e-07
4.19369e-07
4.19206e-07
4.19117e-07
4.19108e-07
4.19185e-07
4.19355e-07
4.19627e-07
4.20009e-07
4.20508e-07
4.21134e-07
4.21896e-07
4.22805e-07
4.23872e-07
4.25111e-07
4.26538e-07
4.28173e-07
4.30043e-07
4.41139e-07
4.41097e-07
4.41012e-07
4.40883e-07
4.40712e-07
4.40497e-07
4.4024e-07
4.39942e-07
4.39605e-07
4.3923e-07
4.38819e-07
4.38373e-07
4.37894e-07
4.37384e-07
4.36845e-07
4.36279e-07
4.35689e-07
4.35077e-07
4.34444e-07
4.33794e-07
4.33129e-07
4.32452e-07
4.31765e-07
4.3107e-07
4.30371e-07
4.2967e-07
4.28971e-07
4.28275e-07
4.27586e-07
4.26908e-07
4.26242e-07
4.25593e-07
4.24964e-07
4.24359e-07
4.2378e-07
4.23232e-07
4.22719e-07
4.22245e-07
4.21814e-07
4.21431e-07
4.21101e-07
4.20828e-07
4.20619e-07
4.20478e-07
4.20411e-07
4.20425e-07
4.20527e-07
4.20723e-07
4.21023e-07
4.21437e-07
4.21972e-07
4.22639e-07
4.23448e-07
4.24411e-07
4.2554e-07
4.26849e-07
4.28353e-07
4.30068e-07
4.32016e-07
4.34216e-07
4.40834e-07
4.40793e-07
4.40711e-07
4.40586e-07
4.4042e-07
4.40212e-07
4.39963e-07
4.39674e-07
4.39347e-07
4.38983e-07
4.38583e-07
4.3815e-07
4.37685e-07
4.37189e-07
4.36666e-07
4.36116e-07
4.35542e-07
4.34947e-07
4.34332e-07
4.337e-07
4.33053e-07
4.32394e-07
4.31726e-07
4.31051e-07
4.30373e-07
4.29692e-07
4.29014e-07
4.2834e-07
4.27674e-07
4.27018e-07
4.26377e-07
4.25753e-07
4.2515e-07
4.24571e-07
4.2402e-07
4.23502e-07
4.23019e-07
4.22577e-07
4.2218e-07
4.21833e-07
4.2154e-07
4.21308e-07
4.21141e-07
4.21046e-07
4.21029e-07
4.21097e-07
4.21258e-07
4.21518e-07
4.21887e-07
4.22373e-07
4.22988e-07
4.23741e-07
4.24645e-07
4.25712e-07
4.26956e-07
4.2839e-07
4.30034e-07
4.319e-07
4.34012e-07
4.36384e-07
4.40834e-07
4.40793e-07
4.40711e-07
4.40587e-07
4.4042e-07
4.40212e-07
4.39963e-07
4.39674e-07
4.39347e-07
4.38983e-07
4.38584e-07
4.38151e-07
4.37686e-07
4.3719e-07
4.36667e-07
4.36117e-07
4.35543e-07
4.34948e-07
4.34333e-07
4.33701e-07
4.33055e-07
4.32397e-07
4.31729e-07
4.31054e-07
4.30376e-07
4.29696e-07
4.29018e-07
4.28344e-07
4.27678e-07
4.27023e-07
4.26382e-07
4.25758e-07
4.25155e-07
4.24577e-07
4.24026e-07
4.23508e-07
4.23026e-07
4.22585e-07
4.22188e-07
4.21842e-07
4.21549e-07
4.21316e-07
4.21149e-07
4.21054e-07
4.21037e-07
4.21105e-07
4.21266e-07
4.21527e-07
4.21896e-07
4.22383e-07
4.22999e-07
4.23752e-07
4.24657e-07
4.25724e-07
4.26969e-07
4.28404e-07
4.30048e-07
4.31915e-07
4.34027e-07
4.364e-07
4.41139e-07
4.41097e-07
4.41012e-07
4.40884e-07
4.40712e-07
4.40497e-07
4.40241e-07
4.39943e-07
4.39606e-07
4.39231e-07
4.3882e-07
4.38374e-07
4.37896e-07
4.37386e-07
4.36848e-07
4.36283e-07
4.35693e-07
4.35081e-07
4.34449e-07
4.338e-07
4.33136e-07
4.32459e-07
4.31772e-07
4.31078e-07
4.3038e-07
4.2968e-07
4.28981e-07
4.28286e-07
4.27598e-07
4.26921e-07
4.26256e-07
4.25608e-07
4.2498e-07
4.24376e-07
4.23798e-07
4.23251e-07
4.22739e-07
4.22266e-07
4.21837e-07
4.21455e-07
4.21126e-07
4.20854e-07
4.20645e-07
4.20504e-07
4.20437e-07
4.20452e-07
4.20555e-07
4.20755e-07
4.21058e-07
4.21473e-07
4.22009e-07
4.22677e-07
4.23487e-07
4.24451e-07
4.25581e-07
4.26891e-07
4.28397e-07
4.30114e-07
4.32063e-07
4.34264e-07
4.41758e-07
4.41713e-07
4.41623e-07
4.41487e-07
4.41304e-07
4.41076e-07
4.40804e-07
4.40488e-07
4.40131e-07
4.39734e-07
4.39298e-07
4.38827e-07
4.3832e-07
4.37782e-07
4.37213e-07
4.36617e-07
4.35994e-07
4.35349e-07
4.34683e-07
4.33998e-07
4.33298e-07
4.32584e-07
4.3186e-07
4.31127e-07
4.30389e-07
4.29649e-07
4.28909e-07
4.28171e-07
4.2744e-07
4.26717e-07
4.26006e-07
4.2531e-07
4.24632e-07
4.23975e-07
4.23344e-07
4.22741e-07
4.2217e-07
4.21634e-07
4.21139e-07
4.20688e-07
4.20285e-07
4.19936e-07
4.19644e-07
4.19415e-07
4.19253e-07
4.19164e-07
4.19157e-07
4.19236e-07
4.19409e-07
4.19684e-07
4.20068e-07
4.20569e-07
4.21196e-07
4.2196e-07
4.22871e-07
4.2394e-07
4.25182e-07
4.26611e-07
4.28247e-07
4.30121e-07
4.42711e-07
4.42662e-07
4.42563e-07
4.42414e-07
4.42215e-07
4.41966e-07
4.41669e-07
4.41324e-07
4.40935e-07
4.40503e-07
4.4003e-07
4.39518e-07
4.38969e-07
4.38386e-07
4.37771e-07
4.37126e-07
4.36454e-07
4.35758e-07
4.35039e-07
4.34301e-07
4.33547e-07
4.32777e-07
4.31996e-07
4.31206e-07
4.30409e-07
4.29608e-07
4.28807e-07
4.28006e-07
4.2721e-07
4.2642e-07
4.25641e-07
4.24874e-07
4.24123e-07
4.2339e-07
4.22679e-07
4.21994e-07
4.21336e-07
4.2071e-07
4.20119e-07
4.19568e-07
4.19059e-07
4.18596e-07
4.18184e-07
4.17828e-07
4.1753e-07
4.17296e-07
4.1713e-07
4.17038e-07
4.17026e-07
4.171e-07
4.17267e-07
4.17532e-07
4.17902e-07
4.18385e-07
4.18987e-07
4.19721e-07
4.20593e-07
4.21622e-07
4.22825e-07
4.24244e-07
4.44029e-07
4.43974e-07
4.43863e-07
4.43696e-07
4.43472e-07
4.43193e-07
4.4286e-07
4.42475e-07
4.42041e-07
4.41559e-07
4.41033e-07
4.40464e-07
4.39856e-07
4.39211e-07
4.38532e-07
4.37821e-07
4.37082e-07
4.36316e-07
4.35527e-07
4.34717e-07
4.3389e-07
4.33046e-07
4.3219e-07
4.31323e-07
4.30448e-07
4.29568e-07
4.28685e-07
4.27802e-07
4.26921e-07
4.26044e-07
4.25175e-07
4.24317e-07
4.2347e-07
4.22639e-07
4.21826e-07
4.21034e-07
4.20266e-07
4.19524e-07
4.18811e-07
4.18132e-07
4.17487e-07
4.16882e-07
4.16319e-07
4.15802e-07
4.15333e-07
4.14917e-07
4.14555e-07
4.14252e-07
4.14011e-07
4.13838e-07
4.13737e-07
4.13712e-07
4.13767e-07
4.13908e-07
4.14137e-07
4.14463e-07
4.14891e-07
4.15438e-07
4.16121e-07
4.16998e-07
4.45758e-07
4.45694e-07
4.45566e-07
4.45374e-07
4.45116e-07
4.44795e-07
4.44413e-07
4.43972e-07
4.43476e-07
4.42927e-07
4.42329e-07
4.41685e-07
4.40999e-07
4.40272e-07
4.39509e-07
4.38713e-07
4.37887e-07
4.37033e-07
4.36154e-07
4.35254e-07
4.34334e-07
4.33398e-07
4.32447e-07
4.31485e-07
4.30514e-07
4.29536e-07
4.28554e-07
4.2757e-07
4.26586e-07
4.25604e-07
4.24627e-07
4.23657e-07
4.22696e-07
4.21747e-07
4.20812e-07
4.19893e-07
4.18993e-07
4.18114e-07
4.17257e-07
4.16426e-07
4.15623e-07
4.14851e-07
4.1411e-07
4.13405e-07
4.12737e-07
4.12109e-07
4.11522e-07
4.10979e-07
4.10479e-07
4.10027e-07
4.09623e-07
4.09272e-07
4.08974e-07
4.08733e-07
4.08546e-07
4.08423e-07
4.0836e-07
4.0838e-07
4.08495e-07
4.08779e-07
4.4796e-07
4.47885e-07
4.47733e-07
4.47505e-07
4.47201e-07
4.46822e-07
4.46372e-07
4.45856e-07
4.45277e-07
4.44639e-07
4.43947e-07
4.43205e-07
4.42417e-07
4.41586e-07
4.40717e-07
4.39814e-07
4.38879e-07
4.37915e-07
4.36927e-07
4.35916e-07
4.34885e-07
4.33837e-07
4.32774e-07
4.317e-07
4.30614e-07
4.29522e-07
4.28423e-07
4.2732e-07
4.26216e-07
4.25112e-07
4.2401e-07
4.22913e-07
4.21821e-07
4.20738e-07
4.19664e-07
4.18601e-07
4.17552e-07
4.16518e-07
4.155e-07
4.14501e-07
4.13522e-07
4.12565e-07
4.11631e-07
4.10722e-07
4.09838e-07
4.08982e-07
4.08153e-07
4.07352e-07
4.06577e-07
4.05829e-07
4.05105e-07
4.04411e-07
4.03742e-07
4.03102e-07
4.02483e-07
4.01893e-07
4.01325e-07
4.00803e-07
4.00336e-07
4.00013e-07
4.50724e-07
4.50632e-07
4.50446e-07
4.50168e-07
4.49797e-07
4.49337e-07
4.48795e-07
4.48175e-07
4.47485e-07
4.4673e-07
4.45916e-07
4.45048e-07
4.44131e-07
4.43171e-07
4.42171e-07
4.41136e-07
4.40069e-07
4.38974e-07
4.37854e-07
4.36712e-07
4.35551e-07
4.34372e-07
4.33179e-07
4.31973e-07
4.30757e-07
4.29532e-07
4.283e-07
4.27063e-07
4.25823e-07
4.24582e-07
4.2334e-07
4.221e-07
4.20862e-07
4.19629e-07
4.18401e-07
4.17181e-07
4.15968e-07
4.14765e-07
4.13573e-07
4.12392e-07
4.11223e-07
4.10068e-07
4.08927e-07
4.07799e-07
4.06685e-07
4.05585e-07
4.04498e-07
4.03425e-07
4.02365e-07
4.0132e-07
4.00283e-07
3.99255e-07
3.98222e-07
3.97189e-07
3.96143e-07
3.95095e-07
3.94034e-07
3.92985e-07
3.91956e-07
3.91051e-07
4.54175e-07
4.54056e-07
4.53819e-07
4.53463e-07
4.52993e-07
4.52415e-07
4.51739e-07
4.50975e-07
4.50133e-07
4.49222e-07
4.4825e-07
4.47224e-07
4.46149e-07
4.4503e-07
4.43874e-07
4.42683e-07
4.41462e-07
4.40214e-07
4.38943e-07
4.37651e-07
4.36342e-07
4.35016e-07
4.33677e-07
4.32326e-07
4.30964e-07
4.29594e-07
4.28217e-07
4.26834e-07
4.25446e-07
4.24055e-07
4.22661e-07
4.21267e-07
4.19872e-07
4.18478e-07
4.17087e-07
4.15698e-07
4.14312e-07
4.12932e-07
4.11556e-07
4.10185e-07
4.08821e-07
4.07463e-07
4.0611e-07
4.04765e-07
4.03425e-07
4.02092e-07
4.00763e-07
3.99439e-07
3.98113e-07
3.96784e-07
3.95442e-07
3.94084e-07
3.92699e-07
3.91293e-07
3.89852e-07
3.88388e-07
3.86878e-07
3.85348e-07
3.83795e-07
3.82333e-07
4.58521e-07
4.58359e-07
4.58034e-07
4.57549e-07
4.56917e-07
4.56151e-07
4.5527e-07
4.54292e-07
4.53234e-07
4.52106e-07
4.5092e-07
4.49684e-07
4.48402e-07
4.47083e-07
4.4573e-07
4.44348e-07
4.42942e-07
4.41515e-07
4.40069e-07
4.38607e-07
4.37131e-07
4.35642e-07
4.34142e-07
4.32632e-07
4.31114e-07
4.29587e-07
4.28054e-07
4.26514e-07
4.24969e-07
4.2342e-07
4.21866e-07
4.2031e-07
4.1875e-07
4.17188e-07
4.15625e-07
4.14061e-07
4.12496e-07
4.10931e-07
4.09365e-07
4.078e-07
4.06234e-07
4.04668e-07
4.03101e-07
4.01533e-07
3.9996e-07
3.98384e-07
3.96798e-07
3.95204e-07
3.93596e-07
3.91974e-07
3.90331e-07
3.88672e-07
3.86986e-07
3.85279e-07
3.83524e-07
3.81726e-07
3.7985e-07
3.77921e-07
3.75934e-07
3.74017e-07
4.6404e-07
4.63827e-07
4.63395e-07
4.6275e-07
4.61906e-07
4.60892e-07
4.59742e-07
4.58485e-07
4.57146e-07
4.55742e-07
4.54286e-07
4.52786e-07
4.5125e-07
4.49684e-07
4.48094e-07
4.46485e-07
4.44861e-07
4.43224e-07
4.41577e-07
4.3992e-07
4.38255e-07
4.36582e-07
4.34902e-07
4.33215e-07
4.31523e-07
4.29824e-07
4.2812e-07
4.2641e-07
4.24695e-07
4.22974e-07
4.21249e-07
4.19518e-07
4.17784e-07
4.16044e-07
4.14301e-07
4.12553e-07
4.10802e-07
4.09047e-07
4.07288e-07
4.05525e-07
4.03759e-07
4.01988e-07
4.00213e-07
3.98433e-07
3.96648e-07
3.94857e-07
3.93058e-07
3.9125e-07
3.89432e-07
3.87599e-07
3.85746e-07
3.83868e-07
3.81951e-07
3.79987e-07
3.77957e-07
3.75851e-07
3.73658e-07
3.71387e-07
3.69039e-07
3.66714e-07
4.70739e-07
4.70306e-07
4.6952e-07
4.68429e-07
4.67105e-07
4.65616e-07
4.64022e-07
4.6236e-07
4.60653e-07
4.58911e-07
4.57139e-07
4.55345e-07
4.53534e-07
4.51712e-07
4.49884e-07
4.48053e-07
4.46221e-07
4.44388e-07
4.42554e-07
4.40717e-07
4.38879e-07
4.37037e-07
4.35192e-07
4.33343e-07
4.3149e-07
4.29631e-07
4.27766e-07
4.25894e-07
4.24016e-07
4.22131e-07
4.20238e-07
4.18337e-07
4.16429e-07
4.14512e-07
4.12588e-07
4.10655e-07
4.08715e-07
4.06765e-07
4.04809e-07
4.02843e-07
4.0087e-07
3.98886e-07
3.96896e-07
3.94892e-07
3.92883e-07
3.90857e-07
3.88825e-07
3.86772e-07
3.84711e-07
3.82622e-07
3.80527e-07
3.78395e-07
3.76258e-07
3.74074e-07
3.71891e-07
3.69648e-07
3.67414e-07
3.65102e-07
3.62815e-07
3.60445e-07
4.82473e-07
4.81723e-07
4.80309e-07
4.78357e-07
4.76073e-07
4.73652e-07
4.71222e-07
4.68832e-07
4.66486e-07
4.6417e-07
4.61876e-07
4.59604e-07
4.57358e-07
4.55144e-07
4.52964e-07
4.50815e-07
4.48693e-07
4.46594e-07
4.44513e-07
4.42446e-07
4.40389e-07
4.38341e-07
4.36298e-07
4.34258e-07
4.32219e-07
4.30178e-07
4.28135e-07
4.26086e-07
4.24031e-07
4.21969e-07
4.19899e-07
4.1782e-07
4.15731e-07
4.13632e-07
4.11524e-07
4.09403e-07
4.07274e-07
4.05132e-07
4.02981e-07
4.00816e-07
3.98645e-07
3.96457e-07
3.94266e-07
3.92054e-07
3.89845e-07
3.87609e-07
3.85384e-07
3.83125e-07
3.80892e-07
3.78611e-07
3.76381e-07
3.74084e-07
3.71878e-07
3.69575e-07
3.67428e-07
3.65132e-07
3.63095e-07
3.60813e-07
3.58926e-07
3.56562e-07
4.91213e-07
4.89485e-07
4.8684e-07
4.83714e-07
4.80498e-07
4.77403e-07
4.74479e-07
4.71692e-07
4.6899e-07
4.66343e-07
4.63744e-07
4.612e-07
4.58718e-07
4.56296e-07
4.53929e-07
4.51608e-07
4.49322e-07
4.47066e-07
4.44831e-07
4.42615e-07
4.40412e-07
4.38218e-07
4.36031e-07
4.33845e-07
4.3166e-07
4.29471e-07
4.27277e-07
4.25075e-07
4.22865e-07
4.20644e-07
4.18413e-07
4.16169e-07
4.13914e-07
4.11644e-07
4.09363e-07
4.07067e-07
4.04759e-07
4.02436e-07
4.00104e-07
3.97753e-07
3.95397e-07
3.9302e-07
3.90641e-07
3.88236e-07
3.85837e-07
3.83402e-07
3.80986e-07
3.78517e-07
3.76094e-07
3.73588e-07
3.71176e-07
3.68634e-07
3.66289e-07
3.6373e-07
3.61585e-07
3.59076e-07
3.57466e-07
3.55087e-07
3.54619e-07
3.51952e-07
5.39255e-07
5.25132e-07
5.11365e-07
5.00787e-07
4.93364e-07
4.87972e-07
4.83521e-07
4.79441e-07
4.75564e-07
4.71899e-07
4.68481e-07
4.65316e-07
4.62369e-07
4.59591e-07
4.56936e-07
4.54369e-07
4.5187e-07
4.49425e-07
4.47024e-07
4.44658e-07
4.42318e-07
4.39997e-07
4.37688e-07
4.35387e-07
4.33087e-07
4.30786e-07
4.2848e-07
4.26168e-07
4.23847e-07
4.21514e-07
4.1917e-07
4.16814e-07
4.14443e-07
4.12059e-07
4.09661e-07
4.07249e-07
4.04824e-07
4.02385e-07
3.99932e-07
3.97468e-07
3.94991e-07
3.92501e-07
3.90001e-07
3.87488e-07
3.84964e-07
3.82427e-07
3.79879e-07
3.77313e-07
3.74736e-07
3.72132e-07
3.69522e-07
3.66854e-07
3.64211e-07
3.61419e-07
3.58784e-07
3.55661e-07
3.53318e-07
3.4892e-07
3.48628e-07
3.38048e-07
3.77588e-07
3.27338e-07
3.06547e-07
2.8913e-07
2.71653e-07
2.54104e-07
2.34497e-07
2.13652e-07
1.89311e-07
1.63264e-07
1.32954e-07
1.01423e-07
6.55724e-08
2.98641e-08
-9.57572e-09
-4.67806e-08
-8.7043e-08
-1.22755e-07
-1.61194e-07
-1.92928e-07
-2.27657e-07
-2.5389e-07
-2.84128e-07
-3.04022e-07
-3.30642e-07
-3.42414e-07
-3.70454e-07
-3.70392e-07
-4.05846e-07
-5.10293e-07
3.63793e-07
3.09031e-07
2.95203e-07
2.80347e-07
2.63543e-07
2.46387e-07
2.27098e-07
2.06422e-07
1.82286e-07
1.56607e-07
1.26932e-07
9.62524e-08
6.15602e-08
2.71464e-08
-1.08061e-08
-4.65991e-08
-8.51441e-08
-1.19475e-07
-1.56198e-07
-1.8706e-07
-2.20583e-07
-2.46262e-07
-2.76286e-07
-2.95701e-07
-3.22585e-07
-3.3543e-07
-3.59289e-07
-3.73352e-07
-3.7888e-07
-5.25573e-07
3.51661e-07
3.06558e-07
2.93748e-07
2.7937e-07
2.62081e-07
2.44012e-07
2.24212e-07
2.03188e-07
1.79007e-07
1.53203e-07
1.23764e-07
9.31775e-08
5.9041e-08
2.49663e-08
-1.21019e-08
-4.73317e-08
-8.48885e-08
-1.1889e-07
-1.54982e-07
-1.85513e-07
-2.18487e-07
-2.44158e-07
-2.72836e-07
-2.94063e-07
-3.17882e-07
-3.36904e-07
-3.54271e-07
-3.82444e-07
-3.6392e-07
-4.62739e-07
3.41533e-07
3.025e-07
2.87648e-07
2.73809e-07
2.57207e-07
2.39686e-07
2.20078e-07
1.98909e-07
1.74789e-07
1.48833e-07
1.19718e-07
8.91472e-08
5.57544e-08
2.18738e-08
-1.39994e-08
-4.90346e-08
-8.50697e-08
-1.19013e-07
-1.52966e-07
-1.84066e-07
-2.1423e-07
-2.42095e-07
-2.67666e-07
-2.92266e-07
-3.11597e-07
-3.36611e-07
-3.44221e-07
-3.81317e-07
-3.58697e-07
-4.23911e-07
3.3176e-07
2.99923e-07
2.8418e-07
2.71472e-07
2.55435e-07
2.37152e-07
2.17042e-07
1.95313e-07
1.71152e-07
1.44787e-07
1.15912e-07
8.50673e-08
5.23492e-08
1.83692e-08
-1.63478e-08
-5.14223e-08
-8.58561e-08
-1.19953e-07
-1.51963e-07
-1.83775e-07
-2.11818e-07
-2.41023e-07
-2.63647e-07
-2.9086e-07
-3.06242e-07
-3.34251e-07
-3.38936e-07
-3.72568e-07
-3.64229e-07
-3.96822e-07
3.23203e-07
2.98199e-07
2.81636e-07
2.68475e-07
2.52712e-07
2.34336e-07
2.1404e-07
1.91823e-07
1.67535e-07
1.40735e-07
1.11968e-07
8.08056e-08
4.85841e-08
1.44693e-08
-1.92898e-08
-5.43799e-08
-8.74121e-08
-1.21586e-07
-1.51907e-07
-1.84028e-07
-2.10216e-07
-2.39916e-07
-2.60887e-07
-2.88566e-07
-3.03191e-07
-3.29812e-07
-3.37772e-07
-3.62814e-07
-3.67734e-07
-3.83786e-07
3.16199e-07
2.96693e-07
2.80029e-07
2.66021e-07
2.50375e-07
2.31929e-07
2.11381e-07
1.88596e-07
1.63995e-07
1.36718e-07
1.07862e-07
7.63963e-08
4.44179e-08
1.02672e-08
-2.28635e-08
-5.77273e-08
-8.98168e-08
-1.23605e-07
-1.52889e-07
-1.84495e-07
-2.09868e-07
-2.38827e-07
-2.59719e-07
-2.85917e-07
-3.0215e-07
-3.25292e-07
-3.37773e-07
-3.56484e-07
-3.67699e-07
-3.79536e-07
3.10979e-07
2.9529e-07
2.79124e-07
2.64159e-07
2.48275e-07
2.29676e-07
2.08807e-07
1.85461e-07
1.6038e-07
1.32641e-07
1.03496e-07
7.18086e-08
3.98077e-08
5.78061e-09
-2.70676e-08
-6.14256e-08
-9.30424e-08
-1.25987e-07
-1.54856e-07
-1.85295e-07
-2.10654e-07
-2.38047e-07
-2.59731e-07
-2.83724e-07
-3.01941e-07
-3.22058e-07
-3.37519e-07
-3.53201e-07
-3.6623e-07
-3.77138e-07
3.0762e-07
2.93984e-07
2.78469e-07
2.62851e-07
2.46421e-07
2.27499e-07
2.06213e-07
1.8233e-07
1.56638e-07
1.28443e-07
9.88468e-08
6.69943e-08
3.4772e-08
9.74016e-10
-3.18357e-08
-6.55235e-08
-9.69547e-08
-1.28831e-07
-1.57574e-07
-1.86629e-07
-2.12154e-07
-2.37937e-07
-2.60228e-07
-2.82517e-07
-3.01764e-07
-3.20389e-07
-3.36729e-07
-3.51664e-07
-3.648e-07
-3.76049e-07
3.05876e-07
2.9284e-07
2.77884e-07
2.619e-07
2.44767e-07
2.25331e-07
2.03505e-07
1.79084e-07
1.52708e-07
1.24037e-07
9.3892e-08
6.18727e-08
2.93366e-08
-4.22239e-09
-3.70824e-08
-7.00944e-08
-1.01393e-07
-1.32236e-07
-1.60812e-07
-1.88629e-07
-2.1409e-07
-2.38624e-07
-2.61008e-07
-2.8225e-07
-3.01656e-07
-3.1964e-07
-3.36031e-07
-3.508e-07
-3.63993e-07
-3.75565e-07
3.0527e-07
2.92009e-07
2.77268e-07
2.61021e-07
2.43174e-07
2.23084e-07
2.006e-07
1.75601e-07
1.48516e-07
1.19327e-07
8.85992e-08
5.63613e-08
2.35056e-08
-9.87811e-09
-4.27602e-08
-7.51958e-08
-1.06272e-07
-1.36248e-07
-1.64473e-07
-1.91309e-07
-2.16404e-07
-2.40035e-07
-2.62101e-07
-2.82676e-07
-3.01833e-07
-3.19466e-07
-3.35719e-07
-3.50443e-07
-3.63752e-07
-3.75597e-07
3.05219e-07
2.91522e-07
2.76618e-07
2.60018e-07
2.41467e-07
2.20644e-07
1.9742e-07
1.7178e-07
1.43977e-07
1.1422e-07
8.29072e-08
5.03832e-08
1.72368e-08
-1.60542e-08
-4.88915e-08
-8.08673e-08
-1.1161e-07
-1.40872e-07
-1.68588e-07
-1.94624e-07
-2.1916e-07
-2.42064e-07
-2.63626e-07
-2.83663e-07
-3.02451e-07
-3.19791e-07
-3.35872e-07
-3.5056e-07
-3.63955e-07
-3.76092e-07
3.05325e-07
2.91231e-07
2.75892e-07
2.58761e-07
2.39487e-07
2.17894e-07
1.93883e-07
1.67531e-07
1.38994e-07
1.08617e-07
7.67227e-08
4.38506e-08
1.04416e-08
-2.28247e-08
-5.55634e-08
-8.71625e-08
-1.17496e-07
-1.46136e-07
-1.73255e-07
-1.98572e-07
-2.22464e-07
-2.44693e-07
-2.65693e-07
-2.85199e-07
-3.03601e-07
-3.20609e-07
-3.36541e-07
-3.51114e-07
-3.64634e-07
-3.7693e-07
3.05343e-07
2.90928e-07
2.75002e-07
2.57187e-07
2.37143e-07
2.14744e-07
1.89906e-07
1.62768e-07
1.33461e-07
1.02407e-07
6.99215e-08
3.66492e-08
2.98871e-09
-3.03006e-08
-6.29109e-08
-9.41782e-08
-1.24063e-07
-1.52118e-07
-1.78594e-07
-2.03217e-07
-2.26421e-07
-2.47981e-07
-2.68374e-07
-2.87342e-07
-3.05318e-07
-3.21982e-07
-3.37719e-07
-3.52176e-07
-3.65747e-07
-3.78204e-07
3.05183e-07
2.90422e-07
2.73861e-07
2.55278e-07
2.344e-07
2.11134e-07
1.85405e-07
1.57392e-07
1.27251e-07
9.54539e-08
6.23463e-08
2.86267e-08
-5.29379e-09
-3.86365e-08
-7.11071e-08
-1.02056e-07
-1.31469e-07
-1.58939e-07
-1.84744e-07
-2.08658e-07
-2.31138e-07
-2.52003e-07
-2.71752e-07
-2.90144e-07
-3.07656e-07
-3.23939e-07
-3.39452e-07
-3.53749e-07
-3.67361e-07
-3.79896e-07
3.04904e-07
2.89676e-07
2.72456e-07
2.53051e-07
2.31255e-07
2.07013e-07
1.80281e-07
1.5128e-07
1.2021e-07
8.75874e-08
5.38048e-08
1.95898e-08
-1.46115e-08
-4.80252e-08
-8.03483e-08
-1.1097e-07
-1.39884e-07
-1.66743e-07
-1.91838e-07
-2.15007e-07
-2.36715e-07
-2.56842e-07
-2.75887e-07
-2.93664e-07
-3.10644e-07
-3.26516e-07
-3.4174e-07
-3.55867e-07
-3.69464e-07
-3.82075e-07
3.04688e-07
2.88775e-07
2.70831e-07
2.50532e-07
2.27688e-07
2.02303e-07
1.74403e-07
1.44262e-07
1.12141e-07
7.85941e-08
4.40672e-08
9.30913e-09
-2.51947e-08
-5.86814e-08
-9.08394e-08
-1.21101e-07
-1.49475e-07
-1.75669e-07
-2.00004e-07
-2.22365e-07
-2.43244e-07
-2.62565e-07
-2.80843e-07
-2.97938e-07
-3.14317e-07
-3.29724e-07
-3.4459e-07
-3.58528e-07
-3.7205e-07
-3.84761e-07
3.04781e-07
2.87884e-07
2.69032e-07
2.47673e-07
2.23583e-07
1.96835e-07
1.67559e-07
1.36099e-07
1.02786e-07
6.82071e-08
3.28639e-08
-2.47644e-09
-3.72918e-08
-7.08335e-08
-1.02788e-07
-1.32632e-07
-1.60404e-07
-1.85859e-07
-2.09363e-07
-2.30835e-07
-2.50819e-07
-2.69248e-07
-2.86692e-07
-3.03014e-07
-3.18728e-07
-3.33582e-07
-3.48031e-07
-3.6171e-07
-3.7513e-07
-3.87911e-07
3.05302e-07
2.87112e-07
2.67018e-07
2.4429e-07
2.18675e-07
1.9031e-07
1.59434e-07
1.26468e-07
9.18143e-08
5.60994e-08
1.98777e-08
-1.60667e-08
-5.11811e-08
-8.47368e-08
-1.16426e-07
-1.45776e-07
-1.72859e-07
-1.97484e-07
-2.20068e-07
-2.40559e-07
-2.59563e-07
-2.77004e-07
-2.93535e-07
-3.08979e-07
-3.23948e-07
-3.38143e-07
-3.52096e-07
-3.65426e-07
-3.78658e-07
-3.91476e-07
3.06012e-07
2.86253e-07
2.64465e-07
2.39957e-07
2.125e-07
1.82266e-07
1.49577e-07
1.14924e-07
7.87912e-08
4.18478e-08
4.70388e-09
-3.18447e-08
-6.72215e-08
-1.00727e-07
-1.32066e-07
-1.60828e-07
-1.87117e-07
-2.10806e-07
-2.32357e-07
-2.51756e-07
-2.69669e-07
-2.86007e-07
-3.01521e-07
-3.15958e-07
-3.30093e-07
-3.43473e-07
-3.56856e-07
-3.69651e-07
-3.82624e-07
-3.95272e-07
3.06182e-07
2.84586e-07
2.60732e-07
2.34076e-07
2.04463e-07
1.72102e-07
1.37384e-07
1.00867e-07
6.31233e-08
2.48715e-08
-1.32187e-08
-5.03484e-08
-8.59219e-08
-1.19286e-07
-1.50162e-07
-1.78217e-07