/*--------------------------------*- C++ -*----------------------------------*\
| =========                 |                                                 |
| \\      /  F ield         | OpenFOAM: The Open Source CFD Toolbox           |
|  \\    /   O peration     | Version:  2312                                  |
|   \\  /    A nd           | Website:  www.openfoam.com                      |
|    \\/     M anipulation  |                                                 |
\*---------------------------------------------------------------------------*/
FoamFile
{
    version     2.0;
    format      ascii;
    arch        "LSB;label=32;scalar=64";
    class       volVectorField;
    location    "116000";
    object      U;
}
// * * * * * * * * * * * * * * * * * * * * * * * * * * * * * * * * * * * * * //

dimensions      [0 1 -1 0 0 0 0];

internalField   nonuniform List<vector> 
10800
(
(0.000992484 4.94156e-06 0)
(0.000990039 1.24567e-05 0)
(0.000986874 1.74773e-05 0)
(0.000980504 2.06602e-05 0)
(0.000971094 2.27425e-05 0)
(0.000959807 2.42352e-05 0)
(0.000947711 2.53733e-05 0)
(0.00093534 2.62316e-05 0)
(0.000922836 2.68344e-05 0)
(0.000910178 2.72067e-05 0)
(0.000897322 2.73863e-05 0)
(0.000884262 2.7416e-05 0)
(0.000871036 2.73339e-05 0)
(0.0008577 2.7168e-05 0)
(0.000844303 2.69365e-05 0)
(0.000830886 2.66511e-05 0)
(0.000817472 2.63198e-05 0)
(0.000804082 2.59492e-05 0)
(0.000790729 2.55447e-05 0)
(0.00077743 2.51113e-05 0)
(0.000764199 2.46526e-05 0)
(0.000751051 2.41719e-05 0)
(0.000738002 2.36712e-05 0)
(0.000725063 2.31524e-05 0)
(0.000712249 2.26164e-05 0)
(0.000699572 2.20646e-05 0)
(0.000687046 2.14973e-05 0)
(0.000674681 2.09159e-05 0)
(0.000662492 2.03197e-05 0)
(0.000650489 1.97106e-05 0)
(0.000638686 1.90872e-05 0)
(0.000627095 1.8452e-05 0)
(0.00061573 1.78024e-05 0)
(0.000604599 1.71425e-05 0)
(0.000593721 1.64679e-05 0)
(0.000583102 1.5785e-05 0)
(0.000572761 1.50864e-05 0)
(0.000562702 1.4383e-05 0)
(0.00055295 1.36618e-05 0)
(0.000543498 1.29409e-05 0)
(0.000534386 1.21984e-05 0)
(0.000525587 1.14645e-05 0)
(0.000517169 1.07015e-05 0)
(0.00050906 9.96032e-06 0)
(0.000501398 9.17614e-06 0)
(0.000494002 8.43476e-06 0)
(0.000487181 7.62537e-06 0)
(0.000480477 6.89077e-06 0)
(0.000474657 6.04735e-06 0)
(0.000468503 5.31808e-06 0)
(0.000464066 4.43215e-06 0)
(0.000457952 3.66103e-06 0)
(0.000455958 2.7714e-06 0)
(0.00044824 1.70913e-06 0)
(0.00045183 1.14372e-06 0)
(0.000437421 -1.27565e-06 0)
(0.000455906 1.09203e-07 0)
(0.000419875 -7.73699e-06 0)
(0.00047834 2.03153e-06 0)
(0.000383498 -2.44713e-05 0)
(0.00100003 5.80105e-06 0)
(0.00100172 1.4989e-05 0)
(0.00100423 2.1517e-05 0)
(0.00100706 2.60772e-05 0)
(0.00100979 2.94322e-05 0)
(0.0010122 3.21105e-05 0)
(0.00101422 3.43596e-05 0)
(0.0010159 3.62658e-05 0)
(0.00101728 3.78621e-05 0)
(0.0010184 3.91788e-05 0)
(0.00101925 4.02574e-05 0)
(0.00101985 4.11437e-05 0)
(0.00102018 4.18782e-05 0)
(0.00102024 4.24912e-05 0)
(0.00102006 4.30025e-05 0)
(0.00101964 4.34248e-05 0)
(0.00101899 4.37669e-05 0)
(0.00101813 4.40354e-05 0)
(0.00101708 4.42361e-05 0)
(0.00101583 4.43734e-05 0)
(0.0010144 4.44513e-05 0)
(0.0010128 4.44722e-05 0)
(0.00101104 4.44384e-05 0)
(0.00100912 4.43507e-05 0)
(0.00100708 4.42105e-05 0)
(0.00100488 4.40175e-05 0)
(0.00100258 4.3773e-05 0)
(0.00100014 4.34755e-05 0)
(0.000997626 4.31269e-05 0)
(0.000994977 4.27242e-05 0)
(0.000992293 4.22709e-05 0)
(0.000989466 4.17613e-05 0)
(0.000986658 4.12024e-05 0)
(0.000983681 4.05835e-05 0)
(0.000980802 3.99184e-05 0)
(0.000977696 3.91874e-05 0)
(0.00097481 3.84167e-05 0)
(0.000971586 3.75699e-05 0)
(0.000968776 3.6696e-05 0)
(0.000965424 3.57284e-05 0)
(0.000962802 3.4757e-05 0)
(0.000959276 3.36605e-05 0)
(0.000957007 3.26027e-05 0)
(0.000953195 3.1363e-05 0)
(0.000951533 3.02386e-05 0)
(0.000947212 2.88296e-05 0)
(0.000946562 2.7673e-05 0)
(0.000941306 2.6047e-05 0)
(0.000942336 2.49169e-05 0)
(0.000935372 2.29869e-05 0)
(0.000939198 2.19829e-05 0)
(0.000929141 1.95945e-05 0)
(0.000937648 1.88822e-05 0)
(0.000922047 1.57724e-05 0)
(0.000938425 1.56115e-05 0)
(0.000912982 1.13717e-05 0)
(0.000942652 1.20943e-05 0)
(0.000899909 6.25809e-06 0)
(0.000952221 7.88226e-06 0)
(0.00087969 8.49304e-07 0)
(0.000999989 1.96114e-06 0)
(0.00100078 5.75961e-06 0)
(0.00100224 9.28148e-06 0)
(0.00100423 1.24429e-05 0)
(0.00100655 1.52411e-05 0)
(0.00100898 1.77213e-05 0)
(0.0010114 1.99382e-05 0)
(0.00101377 2.19348e-05 0)
(0.00101609 2.37384e-05 0)
(0.00101835 2.53657e-05 0)
(0.00102057 2.68298e-05 0)
(0.00102275 2.81442e-05 0)
(0.00102487 2.93233e-05 0)
(0.00102693 3.03808e-05 0)
(0.00102892 3.13295e-05 0)
(0.00103084 3.21788e-05 0)
(0.0010327 3.29372e-05 0)
(0.00103449 3.36101e-05 0)
(0.00103622 3.42033e-05 0)
(0.0010379 3.47199e-05 0)
(0.00103952 3.51647e-05 0)
(0.00104107 3.55388e-05 0)
(0.00104258 3.58465e-05 0)
(0.00104402 3.60868e-05 0)
(0.00104543 3.62642e-05 0)
(0.00104676 3.63752e-05 0)
(0.00104807 3.64257e-05 0)
(0.00104929 3.6409e-05 0)
(0.00105051 3.63337e-05 0)
(0.00105163 3.61888e-05 0)
(0.00105278 3.59874e-05 0)
(0.00105379 3.5712e-05 0)
(0.00105487 3.53836e-05 0)
(0.00105577 3.49743e-05 0)
(0.0010568 3.45176e-05 0)
(0.00105759 3.39699e-05 0)
(0.0010586 3.33844e-05 0)
(0.00105925 3.26929e-05 0)
(0.00106029 3.19791e-05 0)
(0.00106078 3.11373e-05 0)
(0.0010619 3.02977e-05 0)
(0.00106218 2.92975e-05 0)
(0.00106347 2.83374e-05 0)
(0.00106347 2.71687e-05 0)
(0.00106506 2.60972e-05 0)
(0.00106464 2.47472e-05 0)
(0.00106673 2.35785e-05 0)
(0.00106569 2.20316e-05 0)
(0.00106856 2.07863e-05 0)
(0.00106657 1.90247e-05 0)
(0.00107066 1.77319e-05 0)
(0.00106721 1.57403e-05 0)
(0.00107318 1.44385e-05 0)
(0.00106746 1.22177e-05 0)
(0.0010763 1.09557e-05 0)
(0.00106709 8.55946e-06 0)
(0.00108029 7.39654e-06 0)
(0.00106572 5.02694e-06 0)
(0.00108559 3.99001e-06 0)
(0.00106289 2.15338e-06 0)
(0.00100001 1.73975e-06 0)
(0.00100047 5.15351e-06 0)
(0.00100128 8.41023e-06 0)
(0.00100239 1.14336e-05 0)
(0.00100375 1.41828e-05 0)
(0.00100526 1.66549e-05 0)
(0.00100689 1.88716e-05 0)
(0.00100859 2.08627e-05 0)
(0.00101034 2.26553e-05 0)
(0.00101213 2.42702e-05 0)
(0.00101396 2.57229e-05 0)
(0.00101581 2.70265e-05 0)
(0.00101767 2.81931e-05 0)
(0.00101955 2.92348e-05 0)
(0.00102143 3.01634e-05 0)
(0.00102332 3.09888e-05 0)
(0.00102521 3.17204e-05 0)
(0.00102709 3.23649e-05 0)
(0.00102897 3.29289e-05 0)
(0.00103085 3.34166e-05 0)
(0.00103272 3.38327e-05 0)
(0.00103459 3.41795e-05 0)
(0.00103646 3.44609e-05 0)
(0.00103832 3.46774e-05 0)
(0.00104018 3.48325e-05 0)
(0.00104203 3.49249e-05 0)
(0.00104389 3.49582e-05 0)
(0.00104572 3.49292e-05 0)
(0.00104757 3.4842e-05 0)
(0.00104939 3.46916e-05 0)
(0.00105123 3.44834e-05 0)
(0.00105304 3.42098e-05 0)
(0.00105487 3.38782e-05 0)
(0.00105665 3.34783e-05 0)
(0.00105848 3.30199e-05 0)
(0.00106023 3.24895e-05 0)
(0.00106207 3.19001e-05 0)
(0.00106378 3.12348e-05 0)
(0.00106562 3.05098e-05 0)
(0.00106729 2.97051e-05 0)
(0.00106915 2.88393e-05 0)
(0.00107077 2.78914e-05 0)
(0.00107266 2.68792e-05 0)
(0.00107421 2.5786e-05 0)
(0.00107616 2.46209e-05 0)
(0.00107761 2.33832e-05 0)
(0.00107967 2.20571e-05 0)
(0.00108099 2.0681e-05 0)
(0.0010832 1.91834e-05 0)
(0.00108435 1.76854e-05 0)
(0.00108678 1.60022e-05 0)
(0.00108769 1.44171e-05 0)
(0.00109046 1.25302e-05 0)
(0.00109103 1.09276e-05 0)
(0.00109426 8.81336e-06 0)
(0.00109434 7.32041e-06 0)
(0.00109824 4.94229e-06 0)
(0.00109762 3.76656e-06 0)
(0.00110245 1.03615e-06 0)
(0.00110079 4.68378e-07 0)
(0.001 1.15075e-06 0)
(0.00100023 3.42457e-06 0)
(0.00100067 5.63266e-06 0)
(0.00100134 7.74333e-06 0)
(0.0010022 9.73525e-06 0)
(0.00100324 1.15981e-05 0)
(0.00100442 1.33307e-05 0)
(0.0010057 1.49369e-05 0)
(0.00100706 1.6423e-05 0)
(0.0010085 1.77951e-05 0)
(0.00100998 1.90585e-05 0)
(0.00101151 2.02182e-05 0)
(0.00101308 2.1279e-05 0)
(0.00101468 2.22457e-05 0)
(0.00101631 2.31234e-05 0)
(0.00101795 2.39169e-05 0)
(0.00101961 2.46306e-05 0)
(0.00102129 2.52685e-05 0)
(0.00102297 2.5834e-05 0)
(0.00102467 2.63299e-05 0)
(0.00102637 2.67586e-05 0)
(0.00102808 2.71221e-05 0)
(0.0010298 2.74219e-05 0)
(0.00103152 2.76595e-05 0)
(0.00103325 2.78355e-05 0)
(0.00103498 2.79511e-05 0)
(0.00103672 2.80059e-05 0)
(0.00103846 2.80011e-05 0)
(0.00104021 2.79352e-05 0)
(0.00104196 2.78097e-05 0)
(0.00104371 2.76216e-05 0)
(0.00104546 2.73738e-05 0)
(0.00104722 2.70606e-05 0)
(0.00104897 2.66877e-05 0)
(0.00105073 2.62453e-05 0)
(0.00105248 2.57438e-05 0)
(0.00105424 2.51667e-05 0)
(0.001056 2.45331e-05 0)
(0.00105775 2.38147e-05 0)
(0.0010595 2.30455e-05 0)
(0.00106126 2.21779e-05 0)
(0.001063 2.12708e-05 0)
(0.00106475 2.02444e-05 0)
(0.0010665 1.91993e-05 0)
(0.00106824 1.80024e-05 0)
(0.00106999 1.68229e-05 0)
(0.00107172 1.54407e-05 0)
(0.00107349 1.41369e-05 0)
(0.0010752 1.25499e-05 0)
(0.001077 1.11417e-05 0)
(0.0010787 9.32164e-06 0)
(0.00108056 7.84274e-06 0)
(0.00108225 5.74617e-06 0)
(0.00108424 4.25059e-06 0)
(0.00108592 1.81089e-06 0)
(0.00108814 3.90207e-07 0)
(0.0010898 -2.48503e-06 0)
(0.00109234 -3.67572e-06 0)
(0.00109387 -7.12622e-06 0)
(0.00109671 -7.86489e-06 0)
(0.001 9.24347e-07 0)
(0.00100017 2.76398e-06 0)
(0.00100051 4.57616e-06 0)
(0.00100101 6.34198e-06 0)
(0.00100165 8.04404e-06 0)
(0.00100243 9.66849e-06 0)
(0.00100332 1.12061e-05 0)
(0.00100431 1.2652e-05 0)
(0.00100538 1.40047e-05 0)
(0.00100652 1.52647e-05 0)
(0.00100772 1.64334e-05 0)
(0.00100898 1.75129e-05 0)
(0.00101027 1.85054e-05 0)
(0.00101161 1.94136e-05 0)
(0.00101298 2.02401e-05 0)
(0.00101438 2.09881e-05 0)
(0.00101581 2.16603e-05 0)
(0.00101726 2.22598e-05 0)
(0.00101873 2.2789e-05 0)
(0.00102021 2.32504e-05 0)
(0.00102171 2.36457e-05 0)
(0.00102322 2.39772e-05 0)
(0.00102475 2.42458e-05 0)
(0.00102628 2.44534e-05 0)
(0.00102782 2.46e-05 0)
(0.00102938 2.46876e-05 0)
(0.00103093 2.4715e-05 0)
(0.0010325 2.46846e-05 0)
(0.00103406 2.45937e-05 0)
(0.00103564 2.44455e-05 0)
(0.00103721 2.42353e-05 0)
(0.00103879 2.39682e-05 0)
(0.00104037 2.36363e-05 0)
(0.00104195 2.3248e-05 0)
(0.00104352 2.27905e-05 0)
(0.00104511 2.22777e-05 0)
(0.00104668 2.16892e-05 0)
(0.00104827 2.1048e-05 0)
(0.00104983 2.03218e-05 0)
(0.00105141 1.95481e-05 0)
(0.00105297 1.8676e-05 0)
(0.00105456 1.77658e-05 0)
(0.0010561 1.67375e-05 0)
(0.00105769 1.5688e-05 0)
(0.00105921 1.44908e-05 0)
(0.00106082 1.33006e-05 0)
(0.00106233 1.19183e-05 0)
(0.00106397 1.05894e-05 0)
(0.00106545 9.00088e-06 0)
(0.00106715 7.54128e-06 0)
(0.00106859 5.71974e-06 0)
(0.00107038 4.14849e-06 0)
(0.00107177 2.05774e-06 0)
(0.00107369 4.06332e-07 0)
(0.00107499 -2.01385e-06 0)
(0.00107713 -3.70665e-06 0)
(0.00107832 -6.56014e-06 0)
(0.00108081 -8.2347e-06 0)
(0.00108176 -1.16703e-05 0)
(0.00108458 -1.32228e-05 0)
(0.001 7.29511e-07 0)
(0.00100013 2.1816e-06 0)
(0.00100037 3.61383e-06 0)
(0.00100074 5.01355e-06 0)
(0.00100122 6.36938e-06 0)
(0.0010018 7.67204e-06 0)
(0.00100249 8.91466e-06 0)
(0.00100327 1.00928e-05 0)
(0.00100412 1.12039e-05 0)
(0.00100504 1.22468e-05 0)
(0.00100603 1.32215e-05 0)
(0.00100707 1.41284e-05 0)
(0.00100816 1.49681e-05 0)
(0.00100929 1.57416e-05 0)
(0.00101046 1.645e-05 0)
(0.00101167 1.70944e-05 0)
(0.00101291 1.76762e-05 0)
(0.00101417 1.81968e-05 0)
(0.00101546 1.86572e-05 0)
(0.00101677 1.90589e-05 0)
(0.00101809 1.94027e-05 0)
(0.00101944 1.96898e-05 0)
(0.00102079 1.99204e-05 0)
(0.00102216 2.00959e-05 0)
(0.00102354 2.02156e-05 0)
(0.00102493 2.02811e-05 0)
(0.00102632 2.02908e-05 0)
(0.00102772 2.02466e-05 0)
(0.00102912 2.01459e-05 0)
(0.00103053 1.99911e-05 0)
(0.00103194 1.97779e-05 0)
(0.00103335 1.95103e-05 0)
(0.00103475 1.91814e-05 0)
(0.00103616 1.87977e-05 0)
(0.00103756 1.83485e-05 0)
(0.00103897 1.78444e-05 0)
(0.00104036 1.72689e-05 0)
(0.00104175 1.66392e-05 0)
(0.00104313 1.59297e-05 0)
(0.00104451 1.51685e-05 0)
(0.00104587 1.43157e-05 0)
(0.00104724 1.34165e-05 0)
(0.00104858 1.24089e-05 0)
(0.00104994 1.13647e-05 0)
(0.00105125 1.01879e-05 0)
(0.00105261 8.99225e-06 0)
(0.00105388 7.62771e-06 0)
(0.00105525 6.27436e-06 0)
(0.00105648 4.69744e-06 0)
(0.00105787 3.18098e-06 0)
(0.00105907 1.35778e-06 0)
(0.00106053 -3.23219e-07 0)
(0.00106169 -2.43445e-06 0)
(0.00106326 -4.26746e-06 0)
(0.00106436 -6.71776e-06 0)
(0.00106609 -8.67604e-06 0)
(0.00106708 -1.1548e-05 0)
(0.00106903 -1.35972e-05 0)
(0.0010698 -1.70258e-05 0)
(0.00107192 -1.91061e-05 0)
(0.001 5.80189e-07 0)
(0.0010001 1.73613e-06 0)
(0.00100029 2.87979e-06 0)
(0.00100058 4.0033e-06 0)
(0.00100095 5.09922e-06 0)
(0.00100142 6.16088e-06 0)
(0.00100197 7.18268e-06 0)
(0.0010026 8.16023e-06 0)
(0.0010033 9.09021e-06 0)
(0.00100406 9.97032e-06 0)
(0.00100489 1.07991e-05 0)
(0.00100577 1.15755e-05 0)
(0.00100669 1.22992e-05 0)
(0.00100766 1.29698e-05 0)
(0.00100867 1.35871e-05 0)
(0.00100972 1.41514e-05 0)
(0.0010108 1.46627e-05 0)
(0.0010119 1.51215e-05 0)
(0.00101304 1.5528e-05 0)
(0.00101419 1.58829e-05 0)
(0.00101536 1.61862e-05 0)
(0.00101655 1.64386e-05 0)
(0.00101776 1.66399e-05 0)
(0.00101897 1.67908e-05 0)
(0.0010202 1.68907e-05 0)
(0.00102144 1.69403e-05 0)
(0.00102268 1.69385e-05 0)
(0.00102393 1.68861e-05 0)
(0.00102518 1.67813e-05 0)
(0.00102643 1.66253e-05 0)
(0.00102768 1.64151e-05 0)
(0.00102893 1.61528e-05 0)
(0.00103017 1.58337e-05 0)
(0.00103142 1.54611e-05 0)
(0.00103265 1.50283e-05 0)
(0.00103388 1.45406e-05 0)
(0.0010351 1.39878e-05 0)
(0.00103631 1.33788e-05 0)
(0.0010375 1.26983e-05 0)
(0.00103869 1.19607e-05 0)
(0.00103985 1.11427e-05 0)
(0.00104102 1.0268e-05 0)
(0.00104215 9.30083e-06 0)
(0.00104329 8.27918e-06 0)
(0.00104438 7.14835e-06 0)
(0.0010455 5.96895e-06 0)
(0.00104655 4.65686e-06 0)
(0.00104765 3.30827e-06 0)
(0.00104865 1.79317e-06 0)
(0.00104974 2.63499e-07 0)
(0.00105068 -1.48276e-06 0)
(0.00105178 -3.20761e-06 0)
(0.00105265 -5.22685e-06 0)
(0.0010538 -7.16522e-06 0)
(0.00105461 -9.51352e-06 0)
(0.00105583 -1.16777e-05 0)
(0.00105653 -1.44237e-05 0)
(0.00105786 -1.68169e-05 0)
(0.00105833 -2.00568e-05 0)
(0.00105969 -2.26679e-05 0)
(0.001 4.62356e-07 0)
(0.00100008 1.38399e-06 0)
(0.00100024 2.29729e-06 0)
(0.00100047 3.19691e-06 0)
(0.00100078 4.07765e-06 0)
(0.00100117 4.93466e-06 0)
(0.00100162 5.7636e-06 0)
(0.00100215 6.5608e-06 0)
(0.00100273 7.32318e-06 0)
(0.00100338 8.04828e-06 0)
(0.00100408 8.73408e-06 0)
(0.00100483 9.37902e-06 0)
(0.00100562 9.98188e-06 0)
(0.00100646 1.05418e-05 0)
(0.00100734 1.10582e-05 0)
(0.00100825 1.15307e-05 0)
(0.00100919 1.1959e-05 0)
(0.00101017 1.2343e-05 0)
(0.00101116 1.26826e-05 0)
(0.00101218 1.29779e-05 0)
(0.00101322 1.32287e-05 0)
(0.00101428 1.3435e-05 0)
(0.00101535 1.35968e-05 0)
(0.00101643 1.37141e-05 0)
(0.00101752 1.37863e-05 0)
(0.00101863 1.38136e-05 0)
(0.00101973 1.37952e-05 0)
(0.00102084 1.37311e-05 0)
(0.00102195 1.36201e-05 0)
(0.00102306 1.34623e-05 0)
(0.00102417 1.3256e-05 0)
(0.00102528 1.30012e-05 0)
(0.00102637 1.26955e-05 0)
(0.00102746 1.23395e-05 0)
(0.00102854 1.19293e-05 0)
(0.00102961 1.14664e-05 0)
(0.00103066 1.09454e-05 0)
(0.0010317 1.03687e-05 0)
(0.00103272 9.72861e-06 0)
(0.00103373 9.02971e-06 0)
(0.0010347 8.26076e-06 0)
(0.00103567 7.4295e-06 0)
(0.0010366 6.51945e-06 0)
(0.00103752 5.54359e-06 0)
(0.00103839 4.47735e-06 0)
(0.00103927 3.34203e-06 0)
(0.00104007 2.10065e-06 0)
(0.0010409 7.8799e-07 0)
(0.00104163 -6.51387e-07 0)
(0.00104241 -2.16049e-06 0)
(0.00104307 -3.82354e-06 0)
(0.00104382 -5.55061e-06 0)
(0.00104439 -7.47228e-06 0)
(0.00104511 -9.44637e-06 0)
(0.00104557 -1.16754e-05 0)
(0.00104628 -1.39312e-05 0)
(0.0010466 -1.65279e-05 0)
(0.00104732 -1.90989e-05 0)
(0.0010474 -2.21349e-05 0)
(0.00104803 -2.5045e-05 0)
(0.001 3.64774e-07 0)
(0.00100007 1.09197e-06 0)
(0.0010002 1.81311e-06 0)
(0.0010004 2.52443e-06 0)
(0.00100066 3.2222e-06 0)
(0.00100099 3.90289e-06 0)
(0.00100137 4.56322e-06 0)
(0.00100182 5.20025e-06 0)
(0.00100232 5.8114e-06 0)
(0.00100288 6.39447e-06 0)
(0.00100348 6.94757e-06 0)
(0.00100413 7.46912e-06 0)
(0.00100483 7.95783e-06 0)
(0.00100556 8.41266e-06 0)
(0.00100633 8.83279e-06 0)
(0.00100713 9.21756e-06 0)
(0.00100796 9.56647e-06 0)
(0.00100882 9.87908e-06 0)
(0.00100971 1.01551e-05 0)
(0.00101062 1.03941e-05 0)
(0.00101154 1.05959e-05 0)
(0.00101248 1.07603e-05 0)
(0.00101344 1.08868e-05 0)
(0.00101441 1.09753e-05 0)
(0.00101538 1.10253e-05 0)
(0.00101637 1.10363e-05 0)
(0.00101735 1.1008e-05 0)
(0.00101834 1.09396e-05 0)
(0.00101933 1.08306e-05 0)
(0.00102032 1.06801e-05 0)
(0.0010213 1.04872e-05 0)
(0.00102227 1.02509e-05 0)
(0.00102324 9.97017e-06 0)
(0.00102419 9.64354e-06 0)
(0.00102513 9.26971e-06 0)
(0.00102605 8.84689e-06 0)
(0.00102695 8.37354e-06 0)
(0.00102784 7.84727e-06 0)
(0.0010287 7.26645e-06 0)
(0.00102953 6.62783e-06 0)
(0.00103034 5.92983e-06 0)
(0.00103112 5.16792e-06 0)
(0.00103185 4.34089e-06 0)
(0.00103257 3.44235e-06 0)
(0.00103323 2.47198e-06 0)
(0.00103387 1.42057e-06 0)
(0.00103445 2.89764e-07 0)
(0.00103501 -9.33849e-07 0)
(0.00103549 -2.24508e-06 0)
(0.00103597 -3.66523e-06 0)
(0.00103634 -5.18369e-06 0)
(0.00103673 -6.83304e-06 0)
(0.00103697 -8.5912e-06 0)
(0.00103727 -1.05085e-05 0)
(0.00103736 -1.25442e-05 0)
(0.00103757 -1.47769e-05 0)
(0.00103748 -1.71346e-05 0)
(0.00103759 -1.97399e-05 0)
(0.00103722 -2.24687e-05 0)
(0.00103714 -2.5508e-05 0)
(0.001 2.81476e-07 0)
(0.00100006 8.42564e-07 0)
(0.00100017 1.39915e-06 0)
(0.00100035 1.94854e-06 0)
(0.00100057 2.48805e-06 0)
(0.00100086 3.01511e-06 0)
(0.00100119 3.52727e-06 0)
(0.00100158 4.02229e-06 0)
(0.00100202 4.49816e-06 0)
(0.00100251 4.95306e-06 0)
(0.00100304 5.38543e-06 0)
(0.00100362 5.79388e-06 0)
(0.00100423 6.17723e-06 0)
(0.00100488 6.53447e-06 0)
(0.00100556 6.86474e-06 0)
(0.00100628 7.1673e-06 0)
(0.00100702 7.44155e-06 0)
(0.00100779 7.68692e-06 0)
(0.00100859 7.90295e-06 0)
(0.0010094 8.08917e-06 0)
(0.00101023 8.24523e-06 0)
(0.00101108 8.37065e-06 0)
(0.00101194 8.46512e-06 0)
(0.00101281 8.5281e-06 0)
(0.00101369 8.55927e-06 0)
(0.00101457 8.55795e-06 0)
(0.00101546 8.5238e-06 0)
(0.00101634 8.45592e-06 0)
(0.00101723 8.35396e-06 0)
(0.00101811 8.21668e-06 0)
(0.00101898 8.04377e-06 0)
(0.00101984 7.8335e-06 0)
(0.00102069 7.58571e-06 0)
(0.00102152 7.29793e-06 0)
(0.00102233 6.97035e-06 0)
(0.00102313 6.59942e-06 0)
(0.0010239 6.18599e-06 0)
(0.00102464 5.72489e-06 0)
(0.00102536 5.21821e-06 0)
(0.00102604 4.65825e-06 0)
(0.00102669 4.04928e-06 0)
(0.0010273 3.37974e-06 0)
(0.00102786 2.65758e-06 0)
(0.00102839 1.86516e-06 0)
(0.00102886 1.0167e-06 0)
(0.00102929 8.50161e-08 0)
(0.00102965 -9.05001e-07 0)
(0.00102997 -1.9958e-06 0)
(0.0010302 -3.1459e-06 0)
(0.00103039 -4.42281e-06 0)
(0.00103048 -5.75687e-06 0)
(0.00103054 -7.25413e-06 0)
(0.00103046 -8.79875e-06 0)
(0.00103036 -1.0559e-05 0)
(0.00103008 -1.23443e-05 0)
(0.00102981 -1.44227e-05 0)
(0.0010293 -1.64818e-05 0)
(0.00102884 -1.89489e-05 0)
(0.00102801 -2.13129e-05 0)
(0.00102726 -2.42528e-05 0)
(0.001 2.08423e-07 0)
(0.00100005 6.23767e-07 0)
(0.00100015 1.03576e-06 0)
(0.00100031 1.4425e-06 0)
(0.00100051 1.84212e-06 0)
(0.00100076 2.23277e-06 0)
(0.00100106 2.6127e-06 0)
(0.00100141 2.98027e-06 0)
(0.00100181 3.33399e-06 0)
(0.00100224 3.67247e-06 0)
(0.00100272 3.9945e-06 0)
(0.00100324 4.29897e-06 0)
(0.00100379 4.5849e-06 0)
(0.00100438 4.85143e-06 0)
(0.001005 5.0978e-06 0)
(0.00100564 5.32331e-06 0)
(0.00100632 5.52741e-06 0)
(0.00100702 5.70951e-06 0)
(0.00100774 5.86919e-06 0)
(0.00100848 6.00593e-06 0)
(0.00100924 6.11939e-06 0)
(0.00101001 6.20904e-06 0)
(0.00101079 6.27461e-06 0)
(0.00101159 6.31549e-06 0)
(0.00101238 6.33144e-06 0)
(0.00101319 6.32171e-06 0)
(0.00101399 6.28611e-06 0)
(0.00101479 6.22363e-06 0)
(0.00101559 6.13417e-06 0)
(0.00101638 6.01633e-06 0)
(0.00101715 5.87018e-06 0)
(0.00101792 5.69377e-06 0)
(0.00101867 5.48746e-06 0)
(0.00101941 5.24845e-06 0)
(0.00102012 4.97771e-06 0)
(0.0010208 4.67111e-06 0)
(0.00102146 4.3307e-06 0)
(0.00102209 3.9503e-06 0)
(0.00102268 3.53384e-06 0)
(0.00102323 3.07195e-06 0)
(0.00102375 2.57172e-06 0)
(0.00102421 2.01877e-06 0)
(0.00102463 1.42551e-06 0)
(0.00102499 7.6965e-07 0)
(0.00102529 7.2341e-08 0)
(0.00102554 -7.01042e-07 0)
(0.00102571 -1.51529e-06 0)
(0.00102581 -2.42552e-06 0)
(0.00102583 -3.37343e-06 0)
(0.00102577 -4.4459e-06 0)
(0.00102561 -5.54647e-06 0)
(0.00102537 -6.81312e-06 0)
(0.00102499 -8.08736e-06 0)
(0.00102454 -9.5897e-06 0)
(0.00102392 -1.10607e-05 0)
(0.00102323 -1.2854e-05 0)
(0.00102232 -1.45451e-05 0)
(0.00102135 -1.67026e-05 0)
(0.00102008 -1.86311e-05 0)
(0.00101873 -2.12442e-05 0)
(0.001 1.42615e-07 0)
(0.00100005 4.26636e-07 0)
(0.00100014 7.08226e-07 0)
(0.00100028 9.8614e-07 0)
(0.00100047 1.25913e-06 0)
(0.0010007 1.52597e-06 0)
(0.00100097 1.7855e-06 0)
(0.00100129 2.03659e-06 0)
(0.00100165 2.27824e-06 0)
(0.00100205 2.50948e-06 0)
(0.00100249 2.72944e-06 0)
(0.00100297 2.93734e-06 0)
(0.00100348 3.13247e-06 0)
(0.00100402 3.31417e-06 0)
(0.00100459 3.48187e-06 0)
(0.00100519 3.63503e-06 0)
(0.00100581 3.7732e-06 0)
(0.00100646 3.89592e-06 0)
(0.00100713 4.00284e-06 0)
(0.00100782 4.09352e-06 0)
(0.00100852 4.16769e-06 0)
(0.00100923 4.22491e-06 0)
(0.00100996 4.26494e-06 0)
(0.00101069 4.28727e-06 0)
(0.00101143 4.29172e-06 0)
(0.00101217 4.27764e-06 0)
(0.0010129 4.24492e-06 0)
(0.00101364 4.19269e-06 0)
(0.00101437 4.12094e-06 0)
(0.00101509 4.02847e-06 0)
(0.0010158 3.91544e-06 0)
(0.0010165 3.78015e-06 0)
(0.00101717 3.62312e-06 0)
(0.00101783 3.44183e-06 0)
(0.00101846 3.23745e-06 0)
(0.00101906 3.00623e-06 0)
(0.00101963 2.75042e-06 0)
(0.00102016 2.46438e-06 0)
(0.00102066 2.1522e-06 0)
(0.00102111 1.80528e-06 0)
(0.00102151 1.43074e-06 0)
(0.00102187 1.01535e-06 0)
(0.00102216 5.7123e-07 0)
(0.0010224 7.78349e-08 0)
(0.00102256 -4.44137e-07 0)
(0.00102266 -1.02716e-06 0)
(0.00102267 -1.63729e-06 0)
(0.00102261 -2.32607e-06 0)
(0.00102244 -3.03711e-06 0)
(0.00102218 -3.85203e-06 0)
(0.00102181 -4.67796e-06 0)
(0.00102133 -5.64523e-06 0)
(0.00102071 -6.60147e-06 0)
(0.00101997 -7.75586e-06 0)
(0.00101907 -8.85885e-06 0)
(0.00101803 -1.02474e-05 0)
(0.00101679 -1.15126e-05 0)
(0.00101539 -1.31989e-05 0)
(0.00101374 -1.46343e-05 0)
(0.0010119 -1.67002e-05 0)
(0.001 8.16609e-08 0)
(0.00100005 2.44025e-07 0)
(0.00100013 4.04753e-07 0)
(0.00100026 5.63151e-07 0)
(0.00100044 7.18522e-07 0)
(0.00100066 8.7018e-07 0)
(0.00100092 1.01747e-06 0)
(0.00100122 1.15975e-06 0)
(0.00100156 1.29645e-06 0)
(0.00100193 1.42702e-06 0)
(0.00100235 1.55096e-06 0)
(0.0010028 1.6678e-06 0)
(0.00100328 1.77713e-06 0)
(0.00100379 1.87855e-06 0)
(0.00100433 1.97172e-06 0)
(0.0010049 2.05631e-06 0)
(0.00100549 2.13205e-06 0)
(0.0010061 2.19863e-06 0)
(0.00100673 2.25585e-06 0)
(0.00100738 2.30342e-06 0)
(0.00100804 2.34117e-06 0)
(0.00100872 2.3688e-06 0)
(0.00100941 2.38618e-06 0)
(0.0010101 2.39296e-06 0)
(0.00101079 2.38902e-06 0)
(0.00101149 2.37393e-06 0)
(0.00101219 2.34764e-06 0)
(0.00101288 2.30955e-06 0)
(0.00101356 2.25967e-06 0)
(0.00101424 2.1972e-06 0)
(0.0010149 2.12229e-06 0)
(0.00101554 2.03376e-06 0)
(0.00101617 1.93203e-06 0)
(0.00101677 1.81536e-06 0)
(0.00101734 1.68465e-06 0)
(0.00101789 1.53728e-06 0)
(0.00101839 1.37495e-06 0)
(0.00101887 1.19371e-06 0)
(0.00101929 9.96566e-07 0)
(0.00101967 7.77514e-07 0)
(0.00102 5.41761e-07 0)
(0.00102028 2.80066e-07 0)
(0.00102049 1.28413e-09 0)
(0.00102063 -3.08959e-07 0)
(0.0010207 -6.36192e-07 0)
(0.00102069 -1.00328e-06 0)
(0.0010206 -1.38599e-06 0)
(0.00102041 -1.8203e-06 0)
(0.00102012 -2.2662e-06 0)
(0.00101972 -2.78094e-06 0)
(0.00101919 -3.29867e-06 0)
(0.00101854 -3.91109e-06 0)
(0.00101775 -4.51028e-06 0)
(0.00101681 -5.24374e-06 0)
(0.00101569 -5.93441e-06 0)
(0.00101441 -6.82056e-06 0)
(0.00101292 -7.61142e-06 0)
(0.00101123 -8.69353e-06 0)
(0.00100928 -9.58767e-06 0)
(0.00100711 -1.09224e-05 0)
(0.001 2.35323e-08 0)
(0.00100004 6.98778e-08 0)
(0.00100013 1.15318e-07 0)
(0.00100026 1.59661e-07 0)
(0.00100042 2.02714e-07 0)
(0.00100064 2.44285e-07 0)
(0.00100089 2.84192e-07 0)
(0.00100118 3.22261e-07 0)
(0.00100151 3.58331e-07 0)
(0.00100187 3.9225e-07 0)
(0.00100228 4.23882e-07 0)
(0.00100271 4.53099e-07 0)
(0.00100318 4.79786e-07 0)
(0.00100367 5.03836e-07 0)
(0.0010042 5.25154e-07 0)
(0.00100475 5.43647e-07 0)
(0.00100532 5.59239e-07 0)
(0.00100592 5.71845e-07 0)
(0.00100653 5.81405e-07 0)
(0.00100716 5.87832e-07 0)
(0.00100781 5.91077e-07 0)
(0.00100846 5.91045e-07 0)
(0.00100913 5.8769e-07 0)
(0.0010098 5.80896e-07 0)
(0.00101047 5.70625e-07 0)
(0.00101115 5.56722e-07 0)
(0.00101182 5.39163e-07 0)
(0.00101249 5.17736e-07 0)
(0.00101315 4.92444e-07 0)
(0.0010138 4.62986e-07 0)
(0.00101444 4.29414e-07 0)
(0.00101506 3.91297e-07 0)
(0.00101565 3.48774e-07 0)
(0.00101623 3.01218e-07 0)
(0.00101677 2.48924e-07 0)
(0.00101728 1.90965e-07 0)
(0.00101776 1.2791e-07 0)
(0.0010182 5.83602e-08 0)
(0.00101859 -1.66385e-08 0)
(0.00101893 -9.92271e-08 0)
(0.00101922 -1.87549e-07 0)
(0.00101945 -2.84938e-07 0)
(0.00101962 -3.88185e-07 0)
(0.00101972 -5.02586e-07 0)
(0.00101974 -6.23141e-07 0)
(0.00101967 -7.58002e-07 0)
(0.00101952 -8.98487e-07 0)
(0.00101927 -1.05738e-06 0)
(0.00101891 -1.22021e-06 0)
(0.00101843 -1.40739e-06 0)
(0.00101783 -1.5955e-06 0)
(0.00101709 -1.81742e-06 0)
(0.0010162 -2.03458e-06 0)
(0.00101515 -2.29976e-06 0)
(0.00101393 -2.54951e-06 0)
(0.00101251 -2.8693e-06 0)
(0.00101089 -3.1547e-06 0)
(0.00100904 -3.54468e-06 -3.93286e-38)
(0.00100694 -3.86664e-06 0)
(0.00100458 -4.34727e-06 0)
(0.001 -3.36529e-08 0)
(0.00100004 -1.0144e-07 0)
(0.00100013 -1.69416e-07 0)
(0.00100026 -2.37286e-07 0)
(0.00100042 -3.04752e-07 0)
(0.00100064 -3.71524e-07 0)
(0.00100089 -4.37319e-07 0)
(0.00100118 -5.01867e-07 0)
(0.00100151 -5.64912e-07 0)
(0.00100187 -6.26214e-07 0)
(0.00100227 -6.85548e-07 0)
(0.00100271 -7.42702e-07 0)
(0.00100317 -7.97485e-07 0)
(0.00100367 -8.49714e-07 0)
(0.00100419 -8.99231e-07 0)
(0.00100474 -9.45881e-07 0)
(0.00100532 -9.89534e-07 0)
(0.00100591 -1.03006e-06 0)
(0.00100652 -1.06734e-06 0)
(0.00100715 -1.10127e-06 0)
(0.0010078 -1.13176e-06 0)
(0.00100845 -1.1587e-06 0)
(0.00100911 -1.18201e-06 0)
(0.00100978 -1.20159e-06 0)
(0.00101046 -1.21738e-06 0)
(0.00101113 -1.22925e-06 0)
(0.00101181 -1.23718e-06 0)
(0.00101247 -1.24098e-06 0)
(0.00101313 -1.24067e-06 0)
(0.00101378 -1.23599e-06 0)
(0.00101441 -1.22702e-06 0)
(0.00101503 -1.21338e-06 0)
(0.00101563 -1.19526e-06 0)
(0.0010162 -1.17209e-06 0)
(0.00101674 -1.14423e-06 0)
(0.00101725 -1.11082e-06 0)
(0.00101773 -1.0725e-06 0)
(0.00101816 -1.02794e-06 0)
(0.00101855 -9.78277e-07 0)
(0.00101889 -9.21451e-07 0)
(0.00101918 -8.5942e-07 0)
(0.00101941 -7.88967e-07 0)
(0.00101957 -7.13463e-07 0)
(0.00101967 -6.27817e-07 0)
(0.00101968 -5.37328e-07 0)
(0.00101962 -4.33825e-07 0)
(0.00101946 -3.26158e-07 0)
(0.0010192 -2.01309e-07 0)
(0.00101884 -7.40196e-08 0)
(0.00101836 7.62425e-08 0)
(0.00101776 2.25394e-07 0)
(0.00101701 4.06582e-07 0)
(0.00101612 5.80421e-07 0)
(0.00101507 8.00341e-07 0)
(0.00101384 1.00173e-06 0)
(0.00101242 1.27102e-06 0)
(0.00101079 1.50219e-06 0)
(0.00100894 1.83567e-06 3.93286e-38)
(0.00100684 2.09684e-06 0)
(0.00100448 2.51435e-06 0)
(0.001 -9.17022e-08 0)
(0.00100005 -2.75339e-07 0)
(0.00100013 -4.58419e-07 0)
(0.00100026 -6.40144e-07 0)
(0.00100044 -8.19714e-07 0)
(0.00100065 -9.96341e-07 0)
(0.00100091 -1.16927e-06 0)
(0.00100121 -1.33778e-06 0)
(0.00100155 -1.50119e-06 0)
(0.00100193 -1.65886e-06 0)
(0.00100234 -1.81021e-06 0)
(0.00100279 -1.95469e-06 0)
(0.00100327 -2.09181e-06 0)
(0.00100378 -2.22111e-06 0)
(0.00100431 -2.34217e-06 0)
(0.00100488 -2.4546e-06 0)
(0.00100547 -2.55808e-06 0)
(0.00100608 -2.65226e-06 0)
(0.00100671 -2.73689e-06 0)
(0.00100735 -2.81165e-06 0)
(0.00100801 -2.87633e-06 0)
(0.00100869 -2.93062e-06 0)
(0.00100937 -2.97436e-06 0)
(0.00101006 -3.0072e-06 0)
(0.00101075 -3.02903e-06 0)
(0.00101144 -3.03942e-06 0)
(0.00101213 -3.03832e-06 0)
(0.00101282 -3.02516e-06 0)
(0.0010135 -2.99998e-06 0)
(0.00101417 -2.962e-06 0)
(0.00101483 -2.91142e-06 0)
(0.00101547 -2.84709e-06 0)
(0.00101609 -2.7695e-06 0)
(0.00101668 -2.67696e-06 0)
(0.00101725 -2.57042e-06 0)
(0.00101779 -2.44737e-06 0)
(0.00101829 -2.30953e-06 0)
(0.00101876 -2.15308e-06 0)
(0.00101918 -1.98109e-06 0)
(0.00101955 -1.78768e-06 0)
(0.00101987 -1.57811e-06 0)
(0.00102014 -1.34323e-06 0)
(0.00102034 -1.0919e-06 0)
(0.00102048 -8.09778e-07 0)
(0.00102054 -5.1157e-07 0)
(0.00102053 -1.74609e-07 0)
(0.00102042 1.76598e-07 0)
(0.00102023 5.7816e-07 0)
(0.00101993 9.89446e-07 0)
(0.00101952 1.46797e-06 0)
(0.00101898 1.94733e-06 0)
(0.00101832 2.51987e-06 0)
(0.00101752 3.07649e-06 0)
(0.00101657 3.76575e-06 0)
(0.00101544 4.40876e-06 0)
(0.00101414 5.24576e-06 0)
(0.00101264 5.98307e-06 0)
(0.00101094 7.01046e-06 0)
(0.00100898 7.84428e-06 0)
(0.00100679 9.11833e-06 0)
(0.001 -1.52455e-07 0)
(0.00100005 -4.57315e-07 0)
(0.00100014 -7.60798e-07 0)
(0.00100028 -1.06156e-06 0)
(0.00100046 -1.35824e-06 0)
(0.00100069 -1.64953e-06 0)
(0.00100097 -1.93415e-06 0)
(0.00100129 -2.21092e-06 0)
(0.00100165 -2.4787e-06 0)
(0.00100204 -2.73647e-06 0)
(0.00100248 -2.98326e-06 0)
(0.00100295 -3.21821e-06 0)
(0.00100346 -3.44054e-06 0)
(0.001004 -3.6495e-06 0)
(0.00100457 -3.84449e-06 0)
(0.00100516 -4.02489e-06 0)
(0.00100578 -4.1902e-06 0)
(0.00100643 -4.33992e-06 0)
(0.00100709 -4.47364e-06 0)
(0.00100777 -4.59092e-06 0)
(0.00100847 -4.69142e-06 0)
(0.00100917 -4.7747e-06 0)
(0.00100989 -4.84049e-06 0)
(0.00101062 -4.8883e-06 0)
(0.00101135 -4.91792e-06 0)
(0.00101208 -4.92873e-06 0)
(0.00101282 -4.92061e-06 0)
(0.00101355 -4.89273e-06 0)
(0.00101427 -4.84508e-06 0)
(0.00101498 -4.7765e-06 0)
(0.00101568 -4.6872e-06 0)
(0.00101637 -4.5755e-06 0)
(0.00101704 -4.44199e-06 0)
(0.00101768 -4.2842e-06 0)
(0.0010183 -4.10336e-06 0)
(0.0010189 -3.89577e-06 0)
(0.00101946 -3.66378e-06 0)
(0.00101998 -3.4018e-06 0)
(0.00102047 -3.11403e-06 0)
(0.00102091 -2.7919e-06 0)
(0.0010213 -2.44271e-06 0)
(0.00102164 -2.05321e-06 0)
(0.00102193 -1.63581e-06 0)
(0.00102215 -1.16983e-06 0)
(0.0010223 -6.76142e-07 0)
(0.00102239 -1.22188e-07 0)
(0.00102239 4.57337e-07 0)
(0.00102231 1.11416e-06 0)
(0.00102213 1.7914e-06 0)
(0.00102185 2.57136e-06 0)
(0.00102146 3.36006e-06 0)
(0.00102097 4.28901e-06 0)
(0.00102033 5.20396e-06 0)