/*--------------------------------*- C++ -*----------------------------------*\
| =========                 |                                                 |
| \\      /  F ield         | OpenFOAM: The Open Source CFD Toolbox           |
|  \\    /   O peration     | Version:  2312                                  |
|   \\  /    A nd           | Website:  www.openfoam.com                      |
|    \\/     M anipulation  |                                                 |
\*---------------------------------------------------------------------------*/
FoamFile
{
    version     2.0;
    format      ascii;
    arch        "LSB;label=32;scalar=64";
    class       volScalarField;
    location    "36000";
    object      p;
}
// * * * * * * * * * * * * * * * * * * * * * * * * * * * * * * * * * * * * * //

dimensions      [0 2 -2 0 0 0 0];

internalField   nonuniform List<scalar> 
10800
(
4.92916e-07
4.78793e-07
4.65026e-07
4.54448e-07
4.47026e-07
4.41635e-07
4.37183e-07
4.33104e-07
4.29228e-07
4.25564e-07
4.22147e-07
4.18983e-07
4.16037e-07
4.1326e-07
4.10605e-07
4.08039e-07
4.0554e-07
4.03095e-07
4.00694e-07
3.98328e-07
3.95988e-07
3.93666e-07
3.91357e-07
3.89054e-07
3.86752e-07
3.84449e-07
3.82141e-07
3.79826e-07
3.77501e-07
3.75165e-07
3.72817e-07
3.70455e-07
3.6808e-07
3.65691e-07
3.63288e-07
3.6087e-07
3.58438e-07
3.55993e-07
3.53535e-07
3.51064e-07
3.48581e-07
3.46086e-07
3.43579e-07
3.41061e-07
3.38531e-07
3.35989e-07
3.33435e-07
3.30865e-07
3.28284e-07
3.25675e-07
3.23061e-07
3.20391e-07
3.17744e-07
3.1495e-07
3.1231e-07
3.09186e-07
3.06839e-07
3.02442e-07
3.02144e-07
2.91562e-07
4.44872e-07
4.43145e-07
4.405e-07
4.37374e-07
4.34158e-07
4.31064e-07
4.2814e-07
4.25353e-07
4.22652e-07
4.20005e-07
4.17407e-07
4.14864e-07
4.12381e-07
4.0996e-07
4.07593e-07
4.05272e-07
4.02987e-07
4.0073e-07
3.98496e-07
3.96279e-07
3.94075e-07
3.91881e-07
3.89692e-07
3.87505e-07
3.85317e-07
3.83126e-07
3.8093e-07
3.78725e-07
3.76512e-07
3.74288e-07
3.72053e-07
3.69805e-07
3.67545e-07
3.65271e-07
3.62984e-07
3.60683e-07
3.5837e-07
3.56042e-07
3.53703e-07
3.51348e-07
3.48986e-07
3.46603e-07
3.44219e-07
3.41809e-07
3.39405e-07
3.36966e-07
3.34545e-07
3.32073e-07
3.29645e-07
3.27136e-07
3.24721e-07
3.22177e-07
3.19829e-07
3.17268e-07
3.1512e-07
3.1261e-07
3.10997e-07
3.08617e-07
3.08147e-07
3.05478e-07
4.36131e-07
4.35381e-07
4.33967e-07
4.32015e-07
4.29731e-07
4.2731e-07
4.2488e-07
4.2249e-07
4.20144e-07
4.17829e-07
4.15535e-07
4.13263e-07
4.11017e-07
4.08803e-07
4.06622e-07
4.04473e-07
4.02351e-07
4.00251e-07
3.98169e-07
3.96101e-07
3.94044e-07
3.91994e-07
3.8995e-07
3.87909e-07
3.85868e-07
3.83825e-07
3.81779e-07
3.79727e-07
3.7767e-07
3.75605e-07
3.73531e-07
3.71448e-07
3.69356e-07
3.67253e-07
3.65141e-07
3.63016e-07
3.60882e-07
3.58735e-07
3.5658e-07
3.5441e-07
3.52234e-07
3.50041e-07
3.47846e-07
3.45629e-07
3.43415e-07
3.41175e-07
3.38946e-07
3.36683e-07
3.34445e-07
3.32161e-07
3.29927e-07
3.27627e-07
3.25418e-07
3.23112e-07
3.20963e-07
3.18665e-07
3.16628e-07
3.14344e-07
3.12457e-07
3.10093e-07
4.24396e-07
4.23963e-07
4.23177e-07
4.22086e-07
4.20762e-07
4.19273e-07
4.17679e-07
4.16017e-07
4.1431e-07
4.12567e-07
4.10795e-07
4.09001e-07
4.07189e-07
4.05367e-07
4.03538e-07
4.01707e-07
3.99874e-07
3.98041e-07
3.96205e-07
3.94368e-07
3.92528e-07
3.90685e-07
3.88839e-07
3.86988e-07
3.85133e-07
3.83272e-07
3.81405e-07
3.79531e-07
3.7765e-07
3.75762e-07
3.73866e-07
3.71962e-07
3.70051e-07
3.68131e-07
3.66203e-07
3.64266e-07
3.62322e-07
3.60369e-07
3.58408e-07
3.56438e-07
3.54461e-07
3.52474e-07
3.5048e-07
3.48473e-07
3.4646e-07
3.44431e-07
3.42395e-07
3.40339e-07
3.38276e-07
3.36185e-07
3.34087e-07
3.31952e-07
3.29813e-07
3.27626e-07
3.25441e-07
3.23194e-07
3.20957e-07
3.1864e-07
3.1635e-07
3.13978e-07
4.17696e-07
4.17482e-07
4.17051e-07
4.16405e-07
4.15561e-07
4.14547e-07
4.13396e-07
4.12139e-07
4.108e-07
4.09396e-07
4.07939e-07
4.06439e-07
4.04902e-07
4.03336e-07
4.01745e-07
4.00136e-07
3.98511e-07
3.96873e-07
3.95224e-07
3.93566e-07
3.919e-07
3.90225e-07
3.88544e-07
3.86856e-07
3.85161e-07
3.83461e-07
3.81754e-07
3.80042e-07
3.78325e-07
3.76602e-07
3.74874e-07
3.73141e-07
3.71403e-07
3.6966e-07
3.67914e-07
3.66163e-07
3.64408e-07
3.6265e-07
3.60888e-07
3.59122e-07
3.57352e-07
3.55578e-07
3.53799e-07
3.52016e-07
3.50227e-07
3.48432e-07
3.4663e-07
3.44819e-07
3.42997e-07
3.41161e-07
3.39306e-07
3.37426e-07
3.35509e-07
3.33545e-07
3.31515e-07
3.29409e-07
3.27213e-07
3.24939e-07
3.22589e-07
3.20259e-07
4.12175e-07
4.12013e-07
4.11688e-07
4.11204e-07
4.10571e-07
4.09805e-07
4.08924e-07
4.07946e-07
4.06887e-07
4.05759e-07
4.04573e-07
4.03335e-07
4.02054e-07
4.00733e-07
3.99379e-07
3.97997e-07
3.9659e-07
3.95162e-07
3.93715e-07
3.92252e-07
3.90775e-07
3.89284e-07
3.87783e-07
3.86272e-07
3.84751e-07
3.83223e-07
3.81688e-07
3.80146e-07
3.78599e-07
3.77048e-07
3.75492e-07
3.73933e-07
3.72371e-07
3.70807e-07
3.69241e-07
3.67674e-07
3.66106e-07
3.64539e-07
3.6297e-07
3.61402e-07
3.59834e-07
3.58265e-07
3.56696e-07
3.55125e-07
3.5355e-07
3.51971e-07
3.50384e-07
3.48788e-07
3.47177e-07
3.45552e-07
3.43905e-07
3.42241e-07
3.4055e-07
3.38839e-07
3.37083e-07
3.35285e-07
3.33411e-07
3.31483e-07
3.29495e-07
3.27575e-07
4.07829e-07
4.0771e-07
4.07472e-07
4.07117e-07
4.06646e-07
4.06068e-07
4.05392e-07
4.04628e-07
4.03785e-07
4.02874e-07
4.01901e-07
4.00874e-07
3.99798e-07
3.9868e-07
3.97522e-07
3.9633e-07
3.95108e-07
3.9386e-07
3.92588e-07
3.91295e-07
3.89984e-07
3.88658e-07
3.87317e-07
3.85964e-07
3.84601e-07
3.8323e-07
3.81851e-07
3.80466e-07
3.79076e-07
3.77683e-07
3.76288e-07
3.74891e-07
3.73495e-07
3.72099e-07
3.70705e-07
3.69314e-07
3.67927e-07
3.66544e-07
3.65165e-07
3.63793e-07
3.62426e-07
3.61066e-07
3.59711e-07
3.58363e-07
3.57021e-07
3.55685e-07
3.54354e-07
3.53027e-07
3.517e-07
3.50371e-07
3.49029e-07
3.47673e-07
3.46288e-07
3.44879e-07
3.43435e-07
3.41968e-07
3.40456e-07
3.38925e-07
3.37371e-07
3.35907e-07
4.04377e-07
4.04285e-07
4.041e-07
4.03821e-07
4.0345e-07
4.0299e-07
4.02447e-07
4.01827e-07
4.01137e-07
4.00381e-07
3.99567e-07
3.98698e-07
3.97781e-07
3.9682e-07
3.9582e-07
3.94784e-07
3.93716e-07
3.9262e-07
3.91499e-07
3.90356e-07
3.89194e-07
3.88014e-07
3.8682e-07
3.85613e-07
3.84395e-07
3.83169e-07
3.81936e-07
3.80698e-07
3.79457e-07
3.78213e-07
3.7697e-07
3.75728e-07
3.74489e-07
3.73254e-07
3.72025e-07
3.70803e-07
3.69589e-07
3.68384e-07
3.6719e-07
3.66008e-07
3.64837e-07
3.63681e-07
3.62538e-07
3.61409e-07
3.60294e-07
3.59193e-07
3.58105e-07
3.57031e-07
3.55968e-07
3.54919e-07
3.5388e-07
3.52851e-07
3.51819e-07
3.50786e-07
3.49741e-07
3.48692e-07
3.4763e-07
3.4658e-07
3.45551e-07
3.44645e-07
4.01613e-07
4.01538e-07
4.01386e-07
4.01158e-07
4.00853e-07
4.00474e-07
4.00025e-07
3.99508e-07
3.98928e-07
3.9829e-07
3.97598e-07
3.96855e-07
3.96067e-07
3.95236e-07
3.94366e-07
3.93462e-07
3.92526e-07
3.91562e-07
3.90573e-07
3.89561e-07
3.8853e-07
3.87481e-07
3.86417e-07
3.85341e-07
3.84255e-07
3.83161e-07
3.82061e-07
3.80958e-07
3.79853e-07
3.78748e-07
3.77645e-07
3.76546e-07
3.75453e-07
3.74368e-07
3.73293e-07
3.72229e-07
3.71179e-07
3.70144e-07
3.69125e-07
3.68125e-07
3.67145e-07
3.66187e-07
3.65251e-07
3.64341e-07
3.63456e-07
3.62598e-07
3.61768e-07
3.60967e-07
3.60194e-07
3.59447e-07
3.58724e-07
3.5803e-07
3.5736e-07
3.5672e-07
3.56101e-07
3.55511e-07
3.54944e-07
3.54421e-07
3.53955e-07
3.53632e-07
3.99411e-07
3.99347e-07
3.9922e-07
3.99027e-07
3.98769e-07
3.98448e-07
3.98066e-07
3.97625e-07
3.97128e-07
3.96579e-07
3.95981e-07
3.95336e-07
3.94649e-07
3.93923e-07
3.93159e-07
3.92363e-07
3.91536e-07
3.90681e-07
3.89802e-07
3.88901e-07
3.8798e-07
3.87044e-07
3.86093e-07
3.8513e-07
3.84158e-07
3.8318e-07
3.82197e-07
3.81211e-07
3.80226e-07
3.79244e-07
3.78266e-07
3.77296e-07
3.76334e-07
3.75385e-07
3.74449e-07
3.73529e-07
3.72628e-07
3.71748e-07
3.70891e-07
3.7006e-07
3.69256e-07
3.68483e-07
3.67742e-07
3.67037e-07
3.66368e-07
3.6574e-07
3.65153e-07
3.64611e-07
3.64113e-07
3.63662e-07
3.63259e-07
3.62908e-07
3.6261e-07
3.6237e-07
3.62184e-07
3.62062e-07
3.62001e-07
3.62022e-07
3.62139e-07
3.62425e-07
3.97683e-07
3.97628e-07
3.97517e-07
3.97349e-07
3.97126e-07
3.96846e-07
3.96513e-07
3.96128e-07
3.95694e-07
3.95212e-07
3.94685e-07
3.94116e-07
3.93508e-07
3.92863e-07
3.92183e-07
3.91472e-07
3.90732e-07
3.89966e-07
3.89177e-07
3.88367e-07
3.87539e-07
3.86695e-07
3.85838e-07
3.84971e-07
3.84095e-07
3.83215e-07
3.82332e-07
3.81448e-07
3.80566e-07
3.7969e-07
3.78821e-07
3.77961e-07
3.77115e-07
3.76284e-07
3.75471e-07
3.74678e-07
3.7391e-07
3.73168e-07
3.72455e-07
3.71775e-07
3.71131e-07
3.70526e-07
3.69963e-07
3.69446e-07
3.68978e-07
3.68562e-07
3.68202e-07
3.67901e-07
3.67661e-07
3.6749e-07
3.6739e-07
3.67366e-07
3.67423e-07
3.67565e-07
3.67797e-07
3.68125e-07
3.68556e-07
3.69106e-07
3.69792e-07
3.70671e-07
3.96365e-07
3.96316e-07
3.96217e-07
3.96068e-07
3.95869e-07
3.9562e-07
3.95323e-07
3.94978e-07
3.94589e-07
3.94157e-07
3.93683e-07
3.93171e-07
3.92622e-07
3.92039e-07
3.91424e-07
3.90779e-07
3.90107e-07
3.8941e-07
3.88692e-07
3.87954e-07
3.87199e-07
3.86429e-07
3.85648e-07
3.84858e-07
3.84061e-07
3.8326e-07
3.82458e-07
3.81657e-07
3.80861e-07
3.80072e-07
3.79292e-07
3.78525e-07
3.77774e-07
3.77042e-07
3.76331e-07
3.75646e-07
3.74989e-07
3.74363e-07
3.73773e-07
3.73222e-07
3.72714e-07
3.72252e-07
3.71841e-07
3.71485e-07
3.71189e-07
3.70957e-07
3.70793e-07
3.70703e-07
3.70693e-07
3.70769e-07
3.70937e-07
3.71205e-07
3.71577e-07
3.72063e-07
3.72669e-07
3.73406e-07
3.74282e-07
3.75315e-07
3.76522e-07
3.77946e-07
3.95413e-07
3.95368e-07
3.95278e-07
3.95141e-07
3.94959e-07
3.94731e-07
3.94459e-07
3.94143e-07
3.93786e-07
3.93388e-07
3.92953e-07
3.92481e-07
3.91975e-07
3.91437e-07
3.90868e-07
3.90271e-07
3.89649e-07
3.89004e-07
3.88338e-07
3.87653e-07
3.86953e-07
3.86239e-07
3.85515e-07
3.84783e-07
3.84045e-07
3.83305e-07
3.82565e-07
3.81828e-07
3.81096e-07
3.80374e-07
3.79664e-07
3.78968e-07
3.78291e-07
3.77635e-07
3.77004e-07
3.76402e-07
3.75831e-07
3.75297e-07
3.74803e-07
3.74353e-07
3.73951e-07
3.73603e-07
3.73312e-07
3.73085e-07
3.72926e-07
3.72841e-07
3.72836e-07
3.72917e-07
3.73093e-07
3.73369e-07
3.73756e-07
3.7426e-07
3.74891e-07
3.75659e-07
3.76574e-07
3.77648e-07
3.78894e-07
3.80328e-07
3.8197e-07
3.83849e-07
3.94794e-07
3.94752e-07
3.94667e-07
3.94539e-07
3.94367e-07
3.94153e-07
3.93896e-07
3.93599e-07
3.93262e-07
3.92887e-07
3.92476e-07
3.92031e-07
3.91552e-07
3.91043e-07
3.90504e-07
3.89939e-07
3.8935e-07
3.88738e-07
3.88107e-07
3.87458e-07
3.86794e-07
3.86117e-07
3.85431e-07
3.84738e-07
3.8404e-07
3.8334e-07
3.82642e-07
3.81948e-07
3.81261e-07
3.80584e-07
3.7992e-07
3.79273e-07
3.78646e-07
3.78042e-07
3.77466e-07
3.76921e-07
3.7641e-07
3.75938e-07
3.7551e-07
3.7513e-07
3.74803e-07
3.74533e-07
3.74326e-07
3.74188e-07
3.74125e-07
3.74142e-07
3.74248e-07
3.74449e-07
3.74755e-07
3.75174e-07
3.75714e-07
3.76386e-07
3.77201e-07
3.78169e-07
3.79304e-07
3.80619e-07
3.82131e-07
3.83853e-07
3.85809e-07
3.88016e-07
3.9449e-07
3.94449e-07
3.94367e-07
3.94243e-07
3.94076e-07
3.93868e-07
3.93619e-07
3.93331e-07
3.93004e-07
3.9264e-07
3.92241e-07
3.91808e-07
3.91343e-07
3.90848e-07
3.90325e-07
3.89776e-07
3.89202e-07
3.88607e-07
3.87993e-07
3.87362e-07
3.86716e-07
3.86058e-07
3.85391e-07
3.84717e-07
3.84039e-07
3.8336e-07
3.82683e-07
3.8201e-07
3.81345e-07
3.80691e-07
3.80051e-07
3.79429e-07
3.78827e-07
3.7825e-07
3.77702e-07
3.77185e-07
3.76705e-07
3.76265e-07
3.75871e-07
3.75526e-07
3.75237e-07
3.75007e-07
3.74843e-07
3.74751e-07
3.74736e-07
3.74807e-07
3.7497e-07
3.75234e-07
3.75607e-07
3.76099e-07
3.76719e-07
3.77478e-07
3.78388e-07
3.7946e-07
3.8071e-07
3.82151e-07
3.83801e-07
3.85675e-07
3.87795e-07
3.90175e-07
3.94491e-07
3.9445e-07
3.94367e-07
3.94243e-07
3.94077e-07
3.93868e-07
3.9362e-07
3.93331e-07
3.93004e-07
3.92641e-07
3.92241e-07
3.91809e-07
3.91344e-07
3.90849e-07
3.90325e-07
3.89776e-07
3.89203e-07
3.88608e-07
3.87994e-07
3.87362e-07
3.86717e-07
3.86059e-07
3.85392e-07
3.84718e-07
3.8404e-07
3.83361e-07
3.82684e-07
3.82011e-07
3.81346e-07
3.80692e-07
3.80052e-07
3.7943e-07
3.78828e-07
3.78251e-07
3.77702e-07
3.77186e-07
3.76706e-07
3.76266e-07
3.75872e-07
3.75527e-07
3.75238e-07
3.75008e-07
3.74844e-07
3.74752e-07
3.74737e-07
3.74808e-07
3.74971e-07
3.75235e-07
3.75608e-07
3.761e-07
3.7672e-07
3.77479e-07
3.78389e-07
3.79462e-07
3.80712e-07
3.82153e-07
3.83803e-07
3.85677e-07
3.87797e-07
3.90177e-07
3.94796e-07
3.94753e-07
3.94668e-07
3.9454e-07
3.94368e-07
3.94154e-07
3.93897e-07
3.936e-07
3.93263e-07
3.92888e-07
3.92477e-07
3.92032e-07
3.91553e-07
3.91044e-07
3.90506e-07
3.89941e-07
3.89351e-07
3.8874e-07
3.88108e-07
3.87459e-07
3.86795e-07
3.86119e-07
3.85433e-07
3.84739e-07
3.84042e-07
3.83342e-07
3.82644e-07
3.8195e-07
3.81263e-07
3.80586e-07
3.79922e-07
3.79275e-07
3.78648e-07
3.78045e-07
3.77468e-07
3.76923e-07
3.76412e-07
3.75941e-07
3.75513e-07
3.75133e-07
3.74805e-07
3.74536e-07
3.74329e-07
3.74191e-07
3.74128e-07
3.74145e-07
3.74251e-07
3.74453e-07
3.74759e-07
3.75178e-07
3.75718e-07
3.7639e-07
3.77205e-07
3.78173e-07
3.79309e-07
3.80624e-07
3.82136e-07
3.83859e-07
3.85815e-07
3.88022e-07
3.95415e-07
3.9537e-07
3.95279e-07
3.95143e-07
3.94961e-07
3.94733e-07
3.9446e-07
3.94145e-07
3.93788e-07
3.9339e-07
3.92955e-07
3.92483e-07
3.91977e-07
3.91439e-07
3.9087e-07
3.90273e-07
3.89651e-07
3.89006e-07
3.8834e-07
3.87655e-07
3.86955e-07
3.86242e-07
3.85517e-07
3.84785e-07
3.84048e-07
3.83308e-07
3.82568e-07
3.81831e-07
3.81099e-07
3.80377e-07
3.79667e-07
3.78971e-07
3.78294e-07
3.77639e-07
3.77008e-07
3.76405e-07
3.75835e-07
3.75301e-07
3.74807e-07
3.74357e-07
3.73956e-07
3.73608e-07
3.73317e-07
3.7309e-07
3.72931e-07
3.72846e-07
3.72842e-07
3.72923e-07
3.73099e-07
3.73376e-07
3.73763e-07
3.74267e-07
3.74899e-07
3.75667e-07
3.76582e-07
3.77656e-07
3.78903e-07
3.80337e-07
3.8198e-07
3.83859e-07
3.96368e-07
3.96318e-07
3.9622e-07
3.96071e-07
3.95871e-07
3.95622e-07
3.95325e-07
3.94981e-07
3.94592e-07
3.94159e-07
3.93686e-07
3.93174e-07
3.92625e-07
3.92042e-07
3.91427e-07
3.90782e-07
3.9011e-07
3.89413e-07
3.88695e-07
3.87957e-07
3.87202e-07
3.86433e-07
3.85651e-07
3.84861e-07
3.84064e-07
3.83264e-07
3.82462e-07
3.81661e-07
3.80865e-07
3.80076e-07
3.79297e-07
3.7853e-07
3.77779e-07
3.77047e-07
3.76337e-07
3.75651e-07
3.74994e-07
3.74369e-07
3.73779e-07
3.73228e-07
3.7272e-07
3.72259e-07
3.71848e-07
3.71492e-07
3.71196e-07
3.70965e-07
3.70801e-07
3.70712e-07
3.70702e-07
3.70778e-07
3.70947e-07
3.71215e-07
3.71588e-07
3.72074e-07
3.72681e-07
3.73418e-07
3.74295e-07
3.75328e-07
3.76535e-07
3.7796e-07
3.97686e-07
3.97631e-07
3.9752e-07
3.97353e-07
3.97129e-07
3.9685e-07
3.96516e-07
3.96131e-07
3.95697e-07
3.95215e-07
3.94688e-07
3.9412e-07
3.93511e-07
3.92866e-07
3.92187e-07
3.91476e-07
3.90736e-07
3.8997e-07
3.89181e-07
3.88371e-07
3.87543e-07
3.86699e-07
3.85842e-07
3.84975e-07
3.841e-07
3.8322e-07
3.82337e-07
3.81453e-07
3.80572e-07
3.79695e-07
3.78826e-07
3.77967e-07
3.77121e-07
3.7629e-07
3.75477e-07
3.74685e-07
3.73917e-07
3.73175e-07
3.72463e-07
3.71783e-07
3.71139e-07
3.70535e-07
3.69972e-07
3.69455e-07
3.68987e-07
3.68572e-07
3.68212e-07
3.67911e-07
3.67673e-07
3.67501e-07
3.67402e-07
3.67379e-07
3.67436e-07
3.67579e-07
3.67811e-07
3.6814e-07
3.68571e-07
3.69122e-07
3.69809e-07
3.70689e-07
3.99415e-07
3.99351e-07
3.99223e-07
3.9903e-07
3.98773e-07
3.98452e-07
3.98069e-07
3.97628e-07
3.97132e-07
3.96583e-07
3.95985e-07
3.95341e-07
3.94654e-07
3.93927e-07
3.93164e-07
3.92367e-07
3.9154e-07
3.90686e-07
3.89807e-07
3.88906e-07
3.87985e-07
3.87049e-07
3.86098e-07
3.85135e-07
3.84164e-07
3.83185e-07
3.82203e-07
3.81218e-07
3.80233e-07
3.79251e-07
3.78273e-07
3.77303e-07
3.76342e-07
3.75392e-07
3.74457e-07
3.73538e-07
3.72637e-07
3.71757e-07
3.709e-07
3.70069e-07
3.69266e-07
3.68493e-07
3.67753e-07
3.67048e-07
3.6638e-07
3.65752e-07
3.65165e-07
3.64624e-07
3.64126e-07
3.63676e-07
3.63273e-07
3.62923e-07
3.62626e-07
3.62386e-07
3.62201e-07
3.62079e-07
3.62019e-07
3.62041e-07
3.62159e-07
3.62446e-07
4.01617e-07
4.01542e-07
4.0139e-07
4.01162e-07
4.00858e-07
4.00479e-07
4.00029e-07
3.99512e-07
3.98933e-07
3.98295e-07
3.97603e-07
3.9686e-07
3.96071e-07
3.95241e-07
3.94371e-07
3.93467e-07
3.92532e-07
3.91568e-07
3.90578e-07
3.89567e-07
3.88535e-07
3.87487e-07
3.86423e-07
3.85348e-07
3.84262e-07
3.83168e-07
3.82068e-07
3.80965e-07
3.7986e-07
3.78755e-07
3.77653e-07
3.76554e-07
3.75462e-07
3.74377e-07
3.73302e-07
3.72239e-07
3.71189e-07
3.70154e-07
3.69136e-07
3.68136e-07
3.67156e-07
3.66198e-07
3.65263e-07
3.64353e-07
3.63469e-07
3.62612e-07
3.61783e-07
3.60982e-07
3.60209e-07
3.59463e-07
3.58741e-07
3.58047e-07
3.57378e-07
3.56738e-07
3.5612e-07
3.55531e-07
3.54965e-07
3.54443e-07
3.53978e-07
3.53656e-07
4.04382e-07
4.0429e-07
4.04104e-07
4.03825e-07
4.03454e-07
4.02995e-07
4.02452e-07
4.01832e-07
4.01142e-07
4.00386e-07
3.99572e-07
3.98703e-07
3.97786e-07
3.96826e-07
3.95825e-07
3.94789e-07
3.93722e-07
3.92626e-07
3.91506e-07
3.90363e-07
3.892e-07
3.88021e-07
3.86827e-07
3.8562e-07
3.84402e-07
3.83176e-07
3.81944e-07
3.80706e-07
3.79465e-07
3.78222e-07
3.76979e-07
3.75737e-07
3.74499e-07
3.73264e-07
3.72035e-07
3.70813e-07
3.696e-07
3.68395e-07
3.67202e-07
3.6602e-07
3.6485e-07
3.63694e-07
3.62551e-07
3.61423e-07
3.60308e-07
3.59208e-07
3.58121e-07
3.57047e-07
3.55985e-07
3.54937e-07
3.53899e-07
3.52871e-07
3.51839e-07
3.50807e-07
3.49762e-07
3.48715e-07
3.47653e-07
3.46605e-07
3.45576e-07
3.44671e-07
4.07834e-07
4.07715e-07
4.07478e-07
4.07122e-07
4.06651e-07
4.06074e-07
4.05397e-07
4.04633e-07
4.03791e-07
4.02879e-07
4.01907e-07
4.0088e-07
3.99804e-07
3.98686e-07
3.97528e-07
3.96337e-07
3.95115e-07
3.93866e-07
3.92594e-07
3.91302e-07
3.89991e-07
3.88665e-07
3.87324e-07
3.85972e-07
3.84609e-07
3.83238e-07
3.81859e-07
3.80474e-07
3.79085e-07
3.77692e-07
3.76297e-07
3.74901e-07
3.73505e-07
3.7211e-07
3.70716e-07
3.69326e-07
3.67939e-07
3.66556e-07
3.65178e-07
3.63806e-07
3.6244e-07
3.6108e-07
3.59726e-07
3.58379e-07
3.57037e-07
3.55702e-07
3.54371e-07
3.53045e-07
3.51719e-07
3.5039e-07
3.4905e-07
3.47694e-07
3.4631e-07
3.44902e-07
3.43459e-07
3.41992e-07
3.40482e-07
3.38951e-07
3.37398e-07
3.35936e-07
4.12181e-07
4.12019e-07
4.11694e-07
4.1121e-07
4.10577e-07
4.0981e-07
4.08929e-07
4.07952e-07
4.06893e-07
4.05765e-07
4.04579e-07
4.03342e-07
4.0206e-07
4.0074e-07
3.99386e-07
3.98004e-07
3.96597e-07
3.95169e-07
3.93722e-07
3.92259e-07
3.90782e-07
3.89292e-07
3.87791e-07
3.8628e-07
3.8476e-07
3.83232e-07
3.81697e-07
3.80156e-07
3.78609e-07
3.77058e-07
3.75502e-07
3.73943e-07
3.72382e-07
3.70818e-07
3.69253e-07
3.67687e-07
3.66119e-07
3.64552e-07
3.62984e-07
3.61417e-07
3.59849e-07
3.58281e-07
3.56712e-07
3.55141e-07
3.53567e-07
3.51989e-07
3.50403e-07
3.48807e-07
3.47197e-07
3.45573e-07
3.43927e-07
3.42264e-07
3.40573e-07
3.38864e-07
3.37108e-07
3.35312e-07
3.33439e-07
3.31511e-07
3.29525e-07
3.27606e-07
4.17702e-07
4.17488e-07
4.17057e-07
4.16411e-07
4.15567e-07
4.14553e-07
4.13402e-07
4.12145e-07
4.10806e-07
4.09402e-07
4.07945e-07
4.06445e-07
4.04909e-07
4.03342e-07
4.01752e-07
4.00143e-07
3.98518e-07
3.9688e-07
3.95232e-07
3.93574e-07
3.91908e-07
3.90234e-07
3.88553e-07
3.86865e-07
3.8517e-07
3.8347e-07
3.81764e-07
3.80052e-07
3.78335e-07
3.76612e-07
3.74885e-07
3.73152e-07
3.71415e-07
3.69673e-07
3.67927e-07
3.66176e-07
3.64422e-07
3.62664e-07
3.60902e-07
3.59137e-07
3.57368e-07
3.55594e-07
3.53816e-07
3.52034e-07
3.50246e-07
3.48451e-07
3.4665e-07
3.44839e-07
3.43018e-07
3.41183e-07
3.39329e-07
3.3745e-07
3.35534e-07
3.33571e-07
3.31542e-07
3.29436e-07
3.27242e-07
3.24969e-07
3.2262e-07
3.20292e-07
4.24402e-07
4.2397e-07
4.23183e-07
4.22093e-07
4.20768e-07
4.1928e-07
4.17685e-07
4.16024e-07
4.14316e-07
4.12574e-07
4.10802e-07
4.09008e-07
4.07196e-07
4.05374e-07
4.03546e-07
4.01715e-07
3.99882e-07
3.98048e-07
3.96213e-07
3.94376e-07
3.92537e-07
3.90694e-07
3.88848e-07
3.86997e-07
3.85142e-07
3.83281e-07
3.81415e-07
3.79541e-07
3.77661e-07
3.75773e-07
3.73878e-07
3.71974e-07
3.70063e-07
3.68143e-07
3.66216e-07
3.6428e-07
3.62336e-07
3.60384e-07
3.58424e-07
3.56454e-07
3.54478e-07
3.52491e-07
3.50497e-07
3.48491e-07
3.46479e-07
3.4445e-07
3.42416e-07
3.4036e-07
3.38298e-07
3.36208e-07
3.34111e-07
3.31977e-07
3.29839e-07
3.27653e-07
3.25469e-07
3.23223e-07
3.20987e-07
3.18672e-07
3.16382e-07
3.14011e-07
4.36138e-07
4.35387e-07
4.33974e-07
4.32022e-07
4.29737e-07
4.27317e-07
4.24887e-07
4.22497e-07
4.20151e-07
4.17836e-07
4.15542e-07
4.1327e-07
4.11024e-07
4.0881e-07
4.06629e-07
4.0448e-07
4.02359e-07
4.00259e-07
3.98178e-07
3.9611e-07
3.94053e-07
3.92003e-07
3.89959e-07
3.87918e-07
3.85877e-07
3.83835e-07
3.81789e-07
3.79738e-07
3.77681e-07
3.75616e-07
3.73543e-07
3.71461e-07
3.69369e-07
3.67266e-07
3.65154e-07
3.6303e-07
3.60897e-07
3.5875e-07
3.56596e-07
3.54426e-07
3.52251e-07
3.50059e-07
3.47864e-07
3.45648e-07
3.43435e-07
3.41196e-07
3.38968e-07
3.36705e-07
3.34468e-07
3.32185e-07
3.29952e-07
3.27653e-07
3.25445e-07
3.2314e-07
3.20992e-07
3.18695e-07
3.16659e-07
3.14376e-07
3.12491e-07
3.10127e-07
4.44879e-07
4.43152e-07
4.40507e-07
4.37381e-07
4.34165e-07
4.3107e-07
4.28147e-07
4.2536e-07
4.22659e-07
4.20012e-07
4.17414e-07
4.14871e-07
4.12389e-07
4.09968e-07
4.07601e-07
4.0528e-07
4.02995e-07
4.00738e-07
3.98504e-07
3.96287e-07
3.94084e-07
3.9189e-07
3.89701e-07
3.87515e-07
3.85327e-07
3.83136e-07
3.8094e-07
3.78736e-07
3.76523e-07
3.74299e-07
3.72065e-07
3.69817e-07
3.67558e-07
3.65284e-07
3.62998e-07
3.60697e-07
3.58385e-07
3.56057e-07
3.5372e-07
3.51365e-07
3.49003e-07
3.46621e-07
3.44238e-07
3.41829e-07
3.39425e-07
3.36987e-07
3.34567e-07
3.32096e-07
3.29669e-07
3.27161e-07
3.24747e-07
3.22203e-07
3.19856e-07
3.17297e-07
3.1515e-07
3.12641e-07
3.11029e-07
3.0865e-07
3.08181e-07
3.05514e-07
4.92922e-07
4.788e-07
4.65032e-07
4.54455e-07
4.47032e-07
4.41641e-07
4.3719e-07
4.33111e-07
4.29235e-07
4.25571e-07
4.22155e-07
4.1899e-07
4.16044e-07
4.13267e-07
4.10612e-07
4.08047e-07
4.05548e-07
4.03104e-07
4.00703e-07
3.98337e-07
3.95997e-07
3.93676e-07
3.91366e-07
3.89063e-07
3.86762e-07
3.84459e-07
3.82152e-07
3.79836e-07
3.77512e-07
3.75177e-07
3.72829e-07
3.70468e-07
3.68093e-07
3.65705e-07
3.63302e-07
3.60884e-07
3.58453e-07
3.56009e-07
3.53551e-07
3.51081e-07
3.48598e-07
3.46104e-07
3.43598e-07
3.41081e-07
3.38552e-07
3.3601e-07
3.33458e-07
3.30888e-07
3.28308e-07
3.257e-07
3.23087e-07
3.20417e-07
3.17772e-07
3.14979e-07
3.1234e-07
3.09218e-07
3.06871e-07
3.02476e-07
3.02179e-07
2.91598e-07
3.3142e-07
2.80935e-07
2.6005e-07
2.42533e-07
2.24996e-07
2.07319e-07
1.87599e-07
1.66532e-07
1.41973e-07
1.15549e-07
8.48632e-08
5.27587e-08
1.63736e-08
-2.00882e-08
-6.00991e-08
-9.80762e-08
-1.38579e-07
-1.74622e-07
-2.12101e-07
-2.43043e-07
-2.7427e-07
-2.97202e-07
-3.20346e-07
-3.3365e-07
-3.48254e-07
-3.51337e-07
-3.60741e-07
-3.54369e-07
-3.65646e-07
-4.29846e-07
3.1754e-07
2.62518e-07
2.48621e-07
2.3368e-07
2.16828e-07
1.99558e-07
1.80149e-07
1.59232e-07
1.34872e-07
1.08807e-07
7.87563e-08
4.75108e-08
1.22948e-08
-2.28471e-08
-6.13509e-08
-9.78761e-08
-1.36631e-07
-1.71368e-07
-2.07294e-07
-2.37406e-07
-2.68408e-07
-2.91026e-07
-3.15059e-07
-3.28485e-07
-3.4504e-07
-3.47937e-07
-3.57832e-07
-3.55338e-07
-3.48327e-07
-4.74849e-07
3.05361e-07
2.60068e-07
2.47211e-07
2.32753e-07
2.15406e-07
1.97149e-07
1.77225e-07
1.5596e-07
1.31553e-07
1.0536e-07
7.55359e-08
4.43961e-08
9.7046e-09
-2.50652e-08
-6.27758e-08
-9.86983e-08
-1.36748e-07
-1.71056e-07
-2.06891e-07
-2.3642e-07
-2.67274e-07
-2.89949e-07
-3.13874e-07
-3.28091e-07
-3.44384e-07
-3.50801e-07
-3.58592e-07
-3.68057e-07
-3.4146e-07
-4.40334e-07
2.95197e-07
2.55982e-07
2.41056e-07
2.27101e-07
2.10462e-07
1.92809e-07
1.73071e-07
1.51639e-07
1.27276e-07
1.00932e-07
7.14056e-08
4.0296e-08
6.28837e-09
-2.82492e-08
-6.49152e-08
-1.00585e-07
-1.37426e-07
-1.71585e-07
-2.05929e-07
-2.36034e-07
-2.6572e-07
-2.89961e-07
-3.12921e-07
-3.30323e-07
-3.44703e-07
-3.5723e-07
-3.59153e-07
-3.80775e-07
-3.44246e-07
-4.15682e-07
2.85391e-07
2.534e-07
2.37613e-07
2.24787e-07
2.08704e-07
1.90251e-07
1.69998e-07
1.4799e-07
1.23582e-07
9.68132e-08
6.75189e-08
3.61117e-08
2.75405e-09
-3.19281e-08
-6.75177e-08
-1.03326e-07
-1.38769e-07
-1.73333e-07
-2.062e-07
-2.37548e-07
-2.6569e-07
-2.92259e-07
-3.13318e-07
-3.34943e-07
-3.46049e-07
-3.65213e-07
-3.6061e-07
-3.85881e-07
-3.55575e-07
-3.9076e-07
2.76816e-07
2.51679e-07
2.35069e-07
2.21764e-07
2.05946e-07
1.8739e-07
1.66957e-07
1.44443e-07
1.19917e-07
9.26724e-08
6.35096e-08
3.17064e-08
-1.12182e-09
-3.60867e-08
-7.06938e-08
-1.06799e-07
-1.40877e-07
-1.76055e-07
-2.0736e-07
-2.39982e-07
-2.66381e-07
-2.95357e-07
-3.14558e-07
-3.39577e-07
-3.48749e-07
-3.70852e-07
-3.66623e-07
-3.87373e-07
-3.72941e-07
-3.85743e-07
2.69807e-07
2.50168e-07
2.33447e-07
2.19283e-07
2.03596e-07
1.84948e-07
1.64271e-07
1.41152e-07
1.16343e-07
8.85554e-08
5.9356e-08
2.71315e-08
-5.37624e-09
-4.05962e-08
-7.4475e-08
-1.10758e-07
-1.43792e-07
-1.79301e-07
-2.0947e-07
-2.42809e-07
-2.68301e-07
-2.98479e-07
-3.17398e-07
-3.43595e-07
-3.54048e-07
-3.75312e-07
-3.76841e-07
-3.91318e-07
-3.89049e-07
-3.93081e-07
2.6458e-07
2.48749e-07
2.32536e-07
2.17405e-07
2.01483e-07
1.82658e-07
1.61666e-07
1.37956e-07
1.12691e-07
8.43857e-08
5.494e-08
2.23887e-08
-1.00818e-08
-4.53727e-08
-7.89068e-08
-1.15037e-07
-1.47555e-07
-1.8283e-07
-2.12624e-07
-2.45789e-07
-2.71517e-07
-3.01521e-07
-3.2195e-07
-3.47442e-07
-3.61606e-07
-3.80491e-07
-3.88527e-07
-3.98713e-07
-4.02752e-07
-4.05765e-07
2.612e-07
2.47428e-07
2.31863e-07
2.16082e-07
1.99606e-07
1.80446e-07
1.59036e-07
1.34773e-07
1.08904e-07
8.01176e-08
5.02236e-08
1.74555e-08
-1.52444e-08
-5.04065e-08
-8.39529e-08
-1.19605e-07
-1.5209e-07
-1.86638e-07
-2.16687e-07
-2.49003e-07
-2.75727e-07
-3.04785e-07
-3.27403e-07
-3.51753e-07
-3.69433e-07
-3.87198e-07
-3.99368e-07
-4.09396e-07
-4.15815e-07
-4.20321e-07
2.59418e-07
2.46276e-07
2.31269e-07
2.15119e-07
1.97919e-07
1.78249e-07
1.56289e-07
1.31494e-07
1.04918e-07
7.56695e-08
4.51829e-08
1.22626e-08
-2.08367e-08
-5.57558e-08
-8.95205e-08
-1.24528e-07
-1.57211e-07
-1.90824e-07
-2.21333e-07
-2.5262e-07
-2.80377e-07
-3.08538e-07
-3.32955e-07
-3.56834e-07
-3.76948e-07
-3.95124e-07
-4.09668e-07
-4.21166e-07
-4.29514e-07
-4.35986e-07
2.58764e-07
2.45426e-07
2.30626e-07
2.14229e-07
1.96292e-07
1.75983e-07
1.53345e-07
1.28e-07
1.00668e-07
7.09446e-08
3.98003e-08
6.72181e-09
-2.68255e-08
-6.15007e-08
-9.5509e-08
-1.29885e-07
-1.62728e-07
-1.95476e-07
-2.26274e-07
-2.56726e-07
-2.85127e-07
-3.12815e-07
-3.38362e-07
-3.62474e-07
-3.84151e-07
-4.03451e-07
-4.19851e-07
-4.33275e-07
-4.43799e-07
-4.52436e-07
2.58677e-07
2.44916e-07
2.29957e-07
2.13222e-07
1.94558e-07
1.73537e-07
1.50131e-07
1.24182e-07
9.60825e-08
6.58428e-08
3.40375e-08
7.44226e-10
-3.32158e-08
-6.77193e-08
-1.01883e-07
-1.35736e-07
-1.68569e-07
-2.00618e-07
-2.31423e-07
-2.6128e-07
-2.89922e-07
-3.17444e-07
-3.43654e-07
-3.68308e-07
-3.9119e-07
-4.11845e-07
-4.30042e-07
-4.45525e-07
-4.58382e-07
-4.69473e-07
2.5876e-07
2.44614e-07
2.29216e-07
2.11971e-07
1.92563e-07
1.70791e-07
1.46572e-07
1.19948e-07
9.10746e-08
6.0264e-08
2.78168e-08
-5.76029e-09
-4.00753e-08
-7.44886e-08
-1.08696e-07
-1.42133e-07
-1.74783e-07
-2.06253e-07
-2.36837e-07
-2.66213e-07
-2.94838e-07
-3.22278e-07
-3.48931e-07
-3.74159e-07
-3.98158e-07
-4.20159e-07
-4.40225e-07
-4.57745e-07
-4.73116e-07
-4.86717e-07
2.58772e-07
2.44312e-07
2.28323e-07
2.1041e-07
1.90217e-07
1.67657e-07
1.42593e-07
1.15212e-07
8.55429e-08
5.40978e-08
2.10214e-08
-1.29028e-08
-4.75267e-08
-8.19098e-08
-1.16077e-07
-1.49149e-07
-1.81498e-07
-2.12421e-07
-2.42632e-07
-2.71524e-07
-2.99966e-07
-3.2728e-07
-3.54237e-07
-3.7997e-07
-4.05018e-07
-4.28317e-07
-4.50275e-07
-4.69852e-07
-4.87827e-07
-5.04051e-07
2.58626e-07
2.43822e-07
2.27192e-07
2.0852e-07
1.87488e-07
1.64072e-07
1.38109e-07
1.09877e-07
7.93655e-08
4.72106e-08
1.3499e-08
-2.08304e-08
-5.57357e-08
-9.01263e-08
-1.24191e-07
-1.56907e-07
-1.8886e-07
-2.1921e-07
-2.48922e-07
-2.77263e-07
-3.0537e-07
-3.32451e-07
-3.59559e-07
-3.85686e-07
-4.11663e-07
-4.36202e-07
-4.60016e-07
-4.81697e-07
-5.02341e-07
-5.21314e-07
2.58374e-07
2.43102e-07
2.25808e-07
2.06321e-07
1.84372e-07
1.59989e-07
1.33026e-07
1.03822e-07
7.23915e-08
3.94369e-08
5.06188e-09
-2.97278e-08
-6.49004e-08
-9.93166e-08
-1.33221e-07
-1.65558e-07
-1.9702e-07
-2.26731e-07
-2.55809e-07
-2.83486e-07
-3.11083e-07
-3.37778e-07
-3.64832e-07
-3.91199e-07
-4.17913e-07
-4.4361e-07
-4.69173e-07
-4.93016e-07
-5.16381e-07
-5.38285e-07
2.58192e-07
2.42234e-07
2.24216e-07
2.03838e-07
1.80849e-07
1.5533e-07
1.27214e-07
9.68838e-08
6.44268e-08
3.05694e-08
-4.51421e-09
-3.9814e-08
-7.52406e-08
-1.0968e-07
-1.43357e-07
-1.75264e-07
-2.06118e-07
-2.35091e-07
-2.63376e-07
-2.90233e-07
-3.17114e-07
-3.43213e-07
-3.69963e-07
-3.96341e-07
-4.2354e-07
-4.50235e-07
-4.77366e-07
-5.03401e-07
-5.29475e-07
-5.54602e-07
2.58323e-07
2.4138e-07
2.22461e-07
2.01028e-07
1.76806e-07
1.49931e-07
1.20462e-07
8.88277e-08
5.52165e-08
2.03495e-08
-1.54926e-08
-5.13382e-08
-8.69941e-08
-1.21429e-07
-1.5479e-07
-1.86185e-07
-2.16292e-07
-2.44395e-07
-2.71703e-07
-2.97545e-07
-3.23478e-07
-3.48706e-07
-3.74871e-07
-4.00922e-07
-4.28317e-07
-4.55691e-07
-4.8418e-07
-5.12254e-07
-5.41013e-07
-5.69499e-07
2.58888e-07
2.40651e-07
2.205e-07
1.97702e-07
1.71973e-07
1.43495e-07
1.12458e-07
7.93353e-08
4.44343e-08
8.4592e-09
-2.81845e-08
-6.45886e-08
-1.00431e-07
-1.34805e-07
-1.67738e-07
-1.98516e-07
-2.2771e-07
-2.54791e-07
-2.809e-07
-3.05517e-07
-3.30216e-07
-3.5427e-07
-3.79498e-07
-4.04804e-07
-4.32019e-07
-4.5959e-07
-4.89138e-07
-5.18845e-07
-5.50158e-07
-5.81785e-07
2.59648e-07
2.39848e-07
2.18003e-07
1.93429e-07
1.65885e-07
1.35559e-07
1.0275e-07
6.79675e-08
3.16468e-08
-5.51702e-09
-4.29913e-08
-7.99378e-08
-1.15905e-07
-1.5013e-07
-1.8251e-07
-2.12538e-07
-2.40634e-07
-2.66522e-07
-2.91172e-07
-3.14333e-07
-3.37439e-07
-3.59995e-07
-3.83819e-07
-4.07923e-07
-4.34411e-07
-4.61576e-07
-4.9167e-07
-5.22315e-07
-5.55827e-07
-5.89849e-07
2.59864e-07
2.38236e-07
2.14336e-07
1.87628e-07
1.57957e-07
1.25532e-07
9.07384e-08
5.41295e-08
1.62644e-08
-2.21506e-08
-6.04696e-08
-9.7912e-08
-1.33923e-07
-1.67875e-07
-1.99558e-07
-2.28671e-07