/*--------------------------------*- C++ -*----------------------------------*\
| =========                 |                                                 |
| \\      /  F ield         | OpenFOAM: The Open Source CFD Toolbox           |
|  \\    /   O peration     | Version:  2312                                  |
|   \\  /    A nd           | Website:  www.openfoam.com                      |
|    \\/     M anipulation  |                                                 |
\*---------------------------------------------------------------------------*/
FoamFile
{
    version     2.0;
    format      ascii;
    arch        "LSB;label=32;scalar=64";
    class       volVectorField;
    location    "36000";
    object      U;
}
// * * * * * * * * * * * * * * * * * * * * * * * * * * * * * * * * * * * * * //

dimensions      [0 1 -1 0 0 0 0];

internalField   nonuniform List<vector> 
10800
(
(0.000992484 4.94183e-06 0)
(0.000990038 1.24575e-05 0)
(0.000986873 1.74788e-05 0)
(0.000980501 2.06623e-05 0)
(0.000971089 2.27453e-05 0)
(0.000959799 2.42387e-05 0)
(0.0009477 2.53776e-05 0)
(0.000935325 2.62367e-05 0)
(0.000922817 2.68403e-05 0)
(0.000910154 2.72134e-05 0)
(0.000897291 2.73938e-05 0)
(0.000884225 2.74244e-05 0)
(0.000870992 2.73431e-05 0)
(0.000857647 2.7178e-05 0)
(0.000844242 2.69474e-05 0)
(0.000830816 2.66628e-05 0)
(0.000817392 2.63322e-05 0)
(0.000803991 2.59623e-05 0)
(0.000790628 2.55584e-05 0)
(0.000777317 2.51255e-05 0)
(0.000764074 2.46673e-05 0)
(0.000750914 2.4187e-05 0)
(0.000737851 2.36865e-05 0)
(0.000724899 2.31678e-05 0)
(0.000712072 2.26318e-05 0)
(0.000699382 2.208e-05 0)
(0.000686841 2.15124e-05 0)
(0.000674463 2.09306e-05 0)
(0.00066226 2.03339e-05 0)
(0.000650243 1.97242e-05 0)
(0.000638427 1.91e-05 0)
(0.000626823 1.84639e-05 0)
(0.000615445 1.78132e-05 0)
(0.000604302 1.71522e-05 0)
(0.000593412 1.64762e-05 0)
(0.000582782 1.5792e-05 0)
(0.000572431 1.5092e-05 0)
(0.000562362 1.4387e-05 0)
(0.000552601 1.36642e-05 0)
(0.000543142 1.29417e-05 0)
(0.000534023 1.21976e-05 0)
(0.000525218 1.1462e-05 0)
(0.000516795 1.06974e-05 0)
(0.000508683 9.95459e-06 0)
(0.000501018 9.1689e-06 0)
(0.00049362 8.42598e-06 0)
(0.000486799 7.6153e-06 0)
(0.000480095 6.87928e-06 0)
(0.000474279 6.0349e-06 0)
(0.000468125 5.30437e-06 0)
(0.000463694 4.418e-06 0)
(0.000457582 3.64587e-06 0)
(0.000455596 2.75641e-06 0)
(0.000447883 1.694e-06 0)
(0.000451477 1.12878e-06 0)
(0.000437084 -1.28749e-06 0)
(0.000455556 9.50882e-08 0)
(0.000419567 -7.73952e-06 0)
(0.000477977 2.02445e-06 0)
(0.000383229 -2.44629e-05 0)
(0.00100003 5.80203e-06 0)
(0.00100172 1.49921e-05 0)
(0.00100423 2.15222e-05 0)
(0.00100706 2.60845e-05 0)
(0.00100979 2.94419e-05 0)
(0.00101219 3.21226e-05 0)
(0.00101421 3.43741e-05 0)
(0.00101589 3.62829e-05 0)
(0.00101726 3.78818e-05 0)
(0.00101837 3.92011e-05 0)
(0.00101923 4.02824e-05 0)
(0.00101982 4.11713e-05 0)
(0.00102014 4.19086e-05 0)
(0.0010202 4.25242e-05 0)
(0.00102001 4.30382e-05 0)
(0.00101958 4.34631e-05 0)
(0.00101892 4.38077e-05 0)
(0.00101806 4.40787e-05 0)
(0.00101699 4.42816e-05 0)
(0.00101573 4.44212e-05 0)
(0.00101429 4.4501e-05 0)
(0.00101268 4.45238e-05 0)
(0.00101091 4.44916e-05 0)
(0.00100898 4.44054e-05 0)
(0.00100692 4.42664e-05 0)
(0.00100471 4.40743e-05 0)
(0.00100239 4.38304e-05 0)
(0.000999941 4.35333e-05 0)
(0.000997414 4.31848e-05 0)
(0.00099475 4.27818e-05 0)
(0.000992052 4.2328e-05 0)
(0.000989209 4.18175e-05 0)
(0.000986386 4.12574e-05 0)
(0.000983394 4.0637e-05 0)
(0.000980499 3.997e-05 0)
(0.000977378 3.92369e-05 0)
(0.000974476 3.84636e-05 0)
(0.000971237 3.76142e-05 0)
(0.000968411 3.67371e-05 0)
(0.000965044 3.57664e-05 0)
(0.000962406 3.47912e-05 0)
(0.000958866 3.36913e-05 0)
(0.000956581 3.26292e-05 0)
(0.000952757 3.13859e-05 0)
(0.000951078 3.02566e-05 0)
(0.000946747 2.88443e-05 0)
(0.000946078 2.76823e-05 0)
(0.000940816 2.60533e-05 0)
(0.000941824 2.49174e-05 0)
(0.00093486 2.29853e-05 0)
(0.000938659 2.1975e-05 0)
(0.00092861 1.95858e-05 0)
(0.00093708 1.88669e-05 0)
(0.0009215 1.5758e-05 0)
(0.000937829 1.55907e-05 0)
(0.000912424 1.13532e-05 0)
(0.000942026 1.2071e-05 0)
(0.000899344 6.23739e-06 0)
(0.000951569 7.86188e-06 0)
(0.00087912 8.28495e-07 0)
(0.000999989 1.96259e-06 0)
(0.00100078 5.7641e-06 0)
(0.00100224 9.28915e-06 0)
(0.00100423 1.24539e-05 0)
(0.00100654 1.52556e-05 0)
(0.00100897 1.77393e-05 0)
(0.00101139 1.99599e-05 0)
(0.00101376 2.19603e-05 0)
(0.00101607 2.37677e-05 0)
(0.00101833 2.53988e-05 0)
(0.00102055 2.68669e-05 0)
(0.00102272 2.81853e-05 0)
(0.00102483 2.93683e-05 0)
(0.00102689 3.04299e-05 0)
(0.00102887 3.13825e-05 0)
(0.00103079 3.22357e-05 0)
(0.00103264 3.29979e-05 0)
(0.00103442 3.36745e-05 0)
(0.00103615 3.42713e-05 0)
(0.00103781 3.47915e-05 0)
(0.00103942 3.52396e-05 0)
(0.00104097 3.56168e-05 0)
(0.00104247 3.59274e-05 0)
(0.0010439 3.61703e-05 0)
(0.00104529 3.63501e-05 0)
(0.00104661 3.64632e-05 0)
(0.00104791 3.65155e-05 0)
(0.00104912 3.65004e-05 0)
(0.00105033 3.64263e-05 0)
(0.00105144 3.62822e-05 0)
(0.00105256 3.60814e-05 0)
(0.00105356 3.58062e-05 0)
(0.00105463 3.54775e-05 0)
(0.00105551 3.50678e-05 0)
(0.00105653 3.46101e-05 0)
(0.0010573 3.40613e-05 0)
(0.0010583 3.34741e-05 0)
(0.00105893 3.27809e-05 0)
(0.00105995 3.20647e-05 0)
(0.00106042 3.12207e-05 0)
(0.00106152 3.03781e-05 0)
(0.00106179 2.93752e-05 0)
(0.00106305 2.84116e-05 0)
(0.00106304 2.724e-05 0)
(0.0010646 2.61646e-05 0)
(0.00106417 2.48117e-05 0)
(0.00106622 2.36389e-05 0)
(0.00106517 2.20888e-05 0)
(0.001068 2.08396e-05 0)
(0.00106601 1.90746e-05 0)
(0.00107006 1.77786e-05 0)
(0.0010666 1.57833e-05 0)
(0.00107252 1.44797e-05 0)
(0.00106681 1.22542e-05 0)
(0.00107559 1.09932e-05 0)
(0.00106639 8.59026e-06 0)
(0.00107952 7.4334e-06 0)
(0.00106497 5.05344e-06 0)
(0.00108475 4.03106e-06 0)
(0.00106208 2.17838e-06 0)
(0.00100001 1.74166e-06 0)
(0.00100047 5.15945e-06 0)
(0.00100128 8.4204e-06 0)
(0.00100239 1.14482e-05 0)
(0.00100374 1.4202e-05 0)
(0.00100526 1.66789e-05 0)
(0.00100689 1.89005e-05 0)
(0.00100858 2.08965e-05 0)
(0.00101033 2.26942e-05 0)
(0.00101212 2.43142e-05 0)
(0.00101394 2.57721e-05 0)
(0.00101578 2.70808e-05 0)
(0.00101764 2.82527e-05 0)
(0.00101951 2.92996e-05 0)
(0.00102139 3.02332e-05 0)
(0.00102327 3.10638e-05 0)
(0.00102515 3.18003e-05 0)
(0.00102702 3.24498e-05 0)
(0.0010289 3.30186e-05 0)
(0.00103077 3.35108e-05 0)
(0.00103264 3.39314e-05 0)
(0.0010345 3.42825e-05 0)
(0.00103636 3.4568e-05 0)
(0.0010382 3.47884e-05 0)
(0.00104006 3.49471e-05 0)
(0.00104189 3.50429e-05 0)
(0.00104374 3.50793e-05 0)
(0.00104556 3.50531e-05 0)
(0.0010474 3.49685e-05 0)
(0.00104921 3.48205e-05 0)
(0.00105103 3.46142e-05 0)
(0.00105282 3.43423e-05 0)
(0.00105464 3.40121e-05 0)
(0.00105641 3.36132e-05 0)
(0.00105822 3.31556e-05 0)
(0.00105996 3.26257e-05 0)
(0.00106178 3.20366e-05 0)
(0.00106347 3.13713e-05 0)
(0.0010653 3.0646e-05 0)
(0.00106695 2.98408e-05 0)
(0.00106879 2.89743e-05 0)
(0.00107038 2.80256e-05 0)
(0.00107226 2.70125e-05 0)
(0.00107378 2.5918e-05 0)
(0.00107571 2.4752e-05 0)
(0.00107714 2.35126e-05 0)
(0.00107917 2.21861e-05 0)
(0.00108047 2.0808e-05 0)
(0.00108264 1.93109e-05 0)
(0.00108377 1.78102e-05 0)
(0.00108617 1.6129e-05 0)
(0.00108706 1.45404e-05 0)
(0.00108978 1.26577e-05 0)
(0.00109033 1.10497e-05 0)
(0.00109352 8.94287e-06 0)
(0.00109359 7.44101e-06 0)
(0.00109743 5.07555e-06 0)
(0.0010968 3.88595e-06 0)
(0.00110158 1.17581e-06 0)
(0.00109991 5.85803e-07 0)
(0.001 1.15319e-06 0)
(0.00100023 3.43215e-06 0)
(0.00100067 5.6456e-06 0)
(0.00100134 7.76184e-06 0)
(0.0010022 9.7595e-06 0)
(0.00100323 1.16283e-05 0)
(0.00100441 1.33669e-05 0)
(0.00100569 1.49793e-05 0)
(0.00100705 1.64717e-05 0)
(0.00100848 1.78501e-05 0)
(0.00100996 1.91199e-05 0)
(0.00101149 2.0286e-05 0)
(0.00101305 2.13531e-05 0)
(0.00101465 2.23262e-05 0)
(0.00101627 2.32102e-05 0)
(0.0010179 2.401e-05 0)
(0.00101956 2.47299e-05 0)
(0.00102123 2.53739e-05 0)
(0.0010229 2.59453e-05 0)
(0.00102459 2.6447e-05 0)
(0.00102629 2.68813e-05 0)
(0.00102799 2.72502e-05 0)
(0.0010297 2.75553e-05 0)
(0.00103141 2.77979e-05 0)
(0.00103313 2.79787e-05 0)
(0.00103485 2.80989e-05 0)
(0.00103658 2.81581e-05 0)
(0.00103831 2.81574e-05 0)
(0.00104004 2.80953e-05 0)
(0.00104178 2.79734e-05 0)
(0.00104352 2.77887e-05 0)
(0.00104525 2.75439e-05 0)
(0.001047 2.72336e-05 0)
(0.00104874 2.68632e-05 0)
(0.00105048 2.64232e-05 0)
(0.00105222 2.59238e-05 0)
(0.00105396 2.53487e-05 0)
(0.0010557 2.47166e-05 0)
(0.00105744 2.39999e-05 0)
(0.00105917 2.32319e-05 0)
(0.0010609 2.23658e-05 0)
(0.00106263 2.14596e-05 0)
(0.00106436 2.04347e-05 0)
(0.00106608 1.939e-05 0)
(0.0010678 1.81949e-05 0)
(0.00106953 1.70155e-05 0)
(0.00107124 1.56356e-05 0)
(0.00107298 1.43314e-05 0)
(0.00107467 1.27476e-05 0)
(0.00107644 1.13383e-05 0)
(0.00107811 9.52327e-06 0)
(0.00107994 8.04259e-06 0)
(0.0010816 5.95401e-06 0)
(0.00108356 4.45551e-06 0)
(0.00108521 2.02757e-06 0)
(0.0010874 6.01238e-07 0)
(0.00108902 -2.25734e-06 0)
(0.00109152 -3.4586e-06 0)
(0.00109301 -6.88604e-06 0)
(0.00109582 -7.64364e-06 0)
(0.001 9.27129e-07 0)
(0.00100017 2.77265e-06 0)
(0.00100051 4.59098e-06 0)
(0.001001 6.36323e-06 0)
(0.00100165 8.07194e-06 0)
(0.00100242 9.70324e-06 0)
(0.00100331 1.12479e-05 0)
(0.0010043 1.2701e-05 0)
(0.00100537 1.4061e-05 0)
(0.00100651 1.53284e-05 0)
(0.0010077 1.65046e-05 0)
(0.00100895 1.75916e-05 0)
(0.00101024 1.85916e-05 0)
(0.00101158 1.95072e-05 0)
(0.00101294 2.03413e-05 0)
(0.00101434 2.10966e-05 0)
(0.00101576 2.17762e-05 0)
(0.0010172 2.23829e-05 0)
(0.00101866 2.29192e-05 0)
(0.00102014 2.33876e-05 0)
(0.00102163 2.37897e-05 0)
(0.00102313 2.41279e-05 0)
(0.00102465 2.44029e-05 0)
(0.00102617 2.46167e-05 0)
(0.00102771 2.47694e-05 0)
(0.00102925 2.48628e-05 0)
(0.00103079 2.48958e-05 0)
(0.00103235 2.48708e-05 0)
(0.0010339 2.4785e-05 0)
(0.00103546 2.46418e-05 0)
(0.00103702 2.44363e-05 0)
(0.00103859 2.41737e-05 0)
(0.00104015 2.38461e-05 0)
(0.00104172 2.34619e-05 0)
(0.00104328 2.30083e-05 0)
(0.00104485 2.24992e-05 0)
(0.00104641 2.19144e-05 0)
(0.00104798 2.12765e-05 0)
(0.00104952 2.05539e-05 0)
(0.00105109 1.97833e-05 0)
(0.00105263 1.89147e-05 0)
(0.00105419 1.80074e-05 0)
(0.00105571 1.69827e-05 0)
(0.00105729 1.59359e-05 0)
(0.00105879 1.47428e-05 0)
(0.00106037 1.35552e-05 0)
(0.00106186 1.21777e-05 0)
(0.00106347 1.08513e-05 0)
(0.00106493 9.2686e-06 0)
(0.0010666 7.8111e-06 0)
(0.00106802 5.99653e-06 0)
(0.00106978 4.4261e-06 0)
(0.00107114 2.34394e-06 0)
(0.00107303 6.91635e-07 0)
(0.0010743 -1.71629e-06 0)
(0.00107641 -3.4112e-06 0)
(0.00107757 -6.24705e-06 0)
(0.00108002 -7.9273e-06 0)
(0.00108094 -1.13382e-05 0)
(0.00108373 -1.29018e-05 0)
(0.001 7.32712e-07 0)
(0.00100013 2.19159e-06 0)
(0.00100037 3.63096e-06 0)
(0.00100074 5.03813e-06 0)
(0.00100121 6.40169e-06 0)
(0.0010018 7.71232e-06 0)
(0.00100248 8.96311e-06 0)
(0.00100326 1.01496e-05 0)
(0.00100411 1.12691e-05 0)
(0.00100503 1.23207e-05 0)
(0.00100601 1.3304e-05 0)
(0.00100705 1.42196e-05 0)
(0.00100813 1.5068e-05 0)
(0.00100926 1.58502e-05 0)
(0.00101043 1.65671e-05 0)
(0.00101163 1.72202e-05 0)
(0.00101286 1.78104e-05 0)
(0.00101412 1.83394e-05 0)
(0.0010154 1.88081e-05 0)
(0.0010167 1.92179e-05 0)
(0.00101802 1.95696e-05 0)
(0.00101935 1.98645e-05 0)
(0.0010207 2.01027e-05 0)
(0.00102206 2.02855e-05 0)
(0.00102343 2.04125e-05 0)
(0.00102481 2.04849e-05 0)
(0.00102619 2.05015e-05 0)
(0.00102758 2.04638e-05 0)
(0.00102897 2.03694e-05 0)
(0.00103037 2.02208e-05 0)
(0.00103176 2.00136e-05 0)
(0.00103316 1.97517e-05 0)
(0.00103455 1.94285e-05 0)
(0.00103595 1.90503e-05 0)
(0.00103733 1.86064e-05 0)
(0.00103872 1.81075e-05 0)
(0.0010401 1.75371e-05 0)
(0.00104148 1.69124e-05 0)
(0.00104284 1.6208e-05 0)
(0.00104421 1.54516e-05 0)
(0.00104554 1.4604e-05 0)
(0.0010469 1.37095e-05 0)
(0.00104821 1.27072e-05 0)
(0.00104956 1.16679e-05 0)
(0.00105085 1.04968e-05 0)
(0.00105219 9.30601e-06 0)
(0.00105344 7.94789e-06 0)
(0.00105478 6.59951e-06 0)
(0.00105599 5.03015e-06 0)
(0.00105736 3.51888e-06 0)
(0.00105853 1.70503e-06 0)
(0.00105996 2.88401e-08 0)
(0.0010611 -2.07142e-06 0)
(0.00106264 -3.90082e-06 0)
(0.00106371 -6.33733e-06 0)
(0.00106541 -8.2937e-06 0)
(0.00106637 -1.11475e-05 0)
(0.00106829 -1.31976e-05 0)
(0.00106902 -1.66018e-05 0)
(0.00107112 -1.86878e-05 0)
(0.001 5.83744e-07 0)
(0.0010001 1.74722e-06 0)
(0.00100029 2.8988e-06 0)
(0.00100057 4.03057e-06 0)
(0.00100095 5.13505e-06 0)
(0.00100142 6.20553e-06 0)
(0.00100197 7.2364e-06 0)
(0.00100259 8.22319e-06 0)
(0.00100329 9.16257e-06 0)
(0.00100405 1.00522e-05 0)
(0.00100487 1.08906e-05 0)
(0.00100575 1.16767e-05 0)
(0.00100667 1.241e-05 0)
(0.00100764 1.30903e-05 0)
(0.00100864 1.37173e-05 0)
(0.00100968 1.42912e-05 0)
(0.00101075 1.4812e-05 0)
(0.00101185 1.52803e-05 0)
(0.00101298 1.56961e-05 0)
(0.00101413 1.60602e-05 0)
(0.00101529 1.63725e-05 0)
(0.00101647 1.66337e-05 0)
(0.00101767 1.68437e-05 0)
(0.00101888 1.70031e-05 0)
(0.0010201 1.71113e-05 0)
(0.00102133 1.7169e-05 0)
(0.00102256 1.71751e-05 0)
(0.0010238 1.71305e-05 0)
(0.00102503 1.70333e-05 0)
(0.00102628 1.68846e-05 0)
(0.00102751 1.66817e-05 0)
(0.00102875 1.64264e-05 0)
(0.00102999 1.61143e-05 0)
(0.00103122 1.57485e-05 0)
(0.00103244 1.53224e-05 0)
(0.00103365 1.48413e-05 0)
(0.00103485 1.42951e-05 0)
(0.00103605 1.36926e-05 0)
(0.00103723 1.30186e-05 0)
(0.00103841 1.22875e-05 0)
(0.00103955 1.14763e-05 0)
(0.0010407 1.06081e-05 0)
(0.00104181 9.64795e-06 0)
(0.00104294 8.63301e-06 0)
(0.00104401 7.50972e-06 0)
(0.00104511 6.33722e-06 0)
(0.00104614 5.03331e-06 0)
(0.00104722 3.69174e-06 0)
(0.00104819 2.18571e-06 0)
(0.00104926 6.6306e-07 0)
(0.00105018 -1.07266e-06 0)
(0.00105125 -2.78986e-06 0)
(0.0010521 -4.79571e-06 0)
(0.00105323 -6.72604e-06 0)
(0.001054 -9.05829e-06 0)
(0.0010552 -1.1216e-05 0)
(0.00105587 -1.39426e-05 0)
(0.00105718 -1.63316e-05 0)
(0.00105761 -1.95463e-05 0)
(0.00105895 -2.2157e-05 0)
(0.001 4.66233e-07 0)
(0.00100008 1.39609e-06 0)
(0.00100024 2.31804e-06 0)
(0.00100047 3.2267e-06 0)
(0.00100078 4.11681e-06 0)
(0.00100116 4.98348e-06 0)
(0.00100162 5.82235e-06 0)
(0.00100214 6.6297e-06 0)
(0.00100272 7.4024e-06 0)
(0.00100337 8.13797e-06 0)
(0.00100406 8.83434e-06 0)
(0.00100481 9.48992e-06 0)
(0.0010056 1.01035e-05 0)
(0.00100644 1.06741e-05 0)
(0.00100731 1.12012e-05 0)
(0.00100822 1.16843e-05 0)
(0.00100915 1.21232e-05 0)
(0.00101012 1.25176e-05 0)
(0.00101111 1.28676e-05 0)
(0.00101213 1.3173e-05 0)
(0.00101316 1.34339e-05 0)
(0.00101421 1.36501e-05 0)
(0.00101527 1.38216e-05 0)
(0.00101635 1.39484e-05 0)
(0.00101743 1.403e-05 0)
(0.00101852 1.40665e-05 0)
(0.00101962 1.40571e-05 0)
(0.00102072 1.40018e-05 0)
(0.00102182 1.38995e-05 0)
(0.00102292 1.37502e-05 0)
(0.00102402 1.35522e-05 0)
(0.00102512 1.33056e-05 0)
(0.0010262 1.3008e-05 0)
(0.00102728 1.266e-05 0)
(0.00102835 1.22578e-05 0)
(0.0010294 1.18027e-05 0)
(0.00103044 1.12895e-05 0)
(0.00103147 1.07206e-05 0)
(0.00103248 1.00885e-05 0)
(0.00103347 9.3975e-06 0)
(0.00103443 8.63672e-06 0)
(0.00103538 7.81359e-06 0)
(0.00103629 6.91213e-06 0)
(0.0010372 5.94479e-06 0)
(0.00103805 4.88785e-06 0)
(0.00103891 3.76163e-06 0)
(0.0010397 2.53062e-06 0)
(0.0010405 1.22769e-06 0)
(0.00104122 -2.00429e-07 0)
(0.00104198 -1.69981e-06 0)
(0.00104262 -3.35079e-06 0)
(0.00104334 -5.06783e-06 0)
(0.00104389 -6.97536e-06 0)
(0.00104458 -8.93903e-06 0)
(0.00104502 -1.11512e-05 0)
(0.00104571 -1.33967e-05 0)
(0.00104601 -1.59728e-05 0)
(0.0010467 -1.85347e-05 0)
(0.00104675 -2.15451e-05 0)
(0.00104735 -2.4449e-05 0)
(0.001 3.68941e-07 0)
(0.00100007 1.10498e-06 0)
(0.0010002 1.83542e-06 0)
(0.0010004 2.55647e-06 0)
(0.00100066 3.26434e-06 0)
(0.00100098 3.95545e-06 0)
(0.00100137 4.62648e-06 0)
(0.00100181 5.27445e-06 0)
(0.00100231 5.89675e-06 0)
(0.00100287 6.49112e-06 0)
(0.00100347 7.05565e-06 0)
(0.00100412 7.5887e-06 0)
(0.00100481 8.08897e-06 0)
(0.00100554 8.55537e-06 0)
(0.0010063 8.98706e-06 0)
(0.0010071 9.38336e-06 0)
(0.00100793 9.74371e-06 0)
(0.00100878 1.00677e-05 0)
(0.00100966 1.03549e-05 0)
(0.00101057 1.06051e-05 0)
(0.00101149 1.08178e-05 0)
(0.00101242 1.0993e-05 0)
(0.00101337 1.11302e-05 0)
(0.00101433 1.12291e-05 0)
(0.0010153 1.12894e-05 0)
(0.00101628 1.13106e-05 0)
(0.00101726 1.12921e-05 0)
(0.00101824 1.12336e-05 0)
(0.00101922 1.11341e-05 0)
(0.0010202 1.09931e-05 0)
(0.00102117 1.08096e-05 0)
(0.00102213 1.05825e-05 0)
(0.00102309 1.03109e-05 0)
(0.00102403 9.99333e-06 0)
(0.00102496 9.62851e-06 0)
(0.00102587 9.21465e-06 0)
(0.00102676 8.75031e-06 0)
(0.00102763 8.23306e-06 0)
(0.00102848 7.66137e-06 0)
(0.0010293 7.03196e-06 0)
(0.00103009 6.34335e-06 0)
(0.00103086 5.59099e-06 0)
(0.00103158 4.77384e-06 0)
(0.00103229 3.88534e-06 0)
(0.00103293 2.92553e-06 0)
(0.00103356 1.88481e-06 0)
(0.00103412 7.65409e-07 0)
(0.00103466 -4.47042e-07 0)
(0.00103513 -1.74587e-06 0)
(0.00103559 -3.15392e-06 0)
(0.00103594 -4.65822e-06 0)
(0.00103631 -6.29465e-06 0)
(0.00103653 -8.0368e-06 0)
(0.0010368 -9.94052e-06 0)
(0.00103687 -1.19576e-05 0)
(0.00103706 -1.41763e-05 0)
(0.00103694 -1.65121e-05 0)
(0.00103703 -1.91037e-05 0)
(0.00103664 -2.1806e-05 0)
(0.00103653 -2.48332e-05 0)
(0.001 2.85893e-07 0)
(0.00100006 8.56361e-07 0)
(0.00100017 1.42282e-06 0)
(0.00100034 1.98253e-06 0)
(0.00100057 2.53276e-06 0)
(0.00100085 3.07088e-06 0)
(0.00100119 3.59442e-06 0)
(0.00100158 4.10107e-06 0)
(0.00100202 4.58879e-06 0)
(0.0010025 5.05572e-06 0)
(0.00100303 5.50024e-06 0)
(0.0010036 5.92094e-06 0)
(0.00100421 6.31661e-06 0)
(0.00100486 6.68618e-06 0)
(0.00100554 7.02878e-06 0)
(0.00100625 7.34364e-06 0)
(0.00100699 7.63012e-06 0)
(0.00100776 7.88763e-06 0)
(0.00100855 8.1157e-06 0)
(0.00100936 8.31384e-06 0)
(0.00101019 8.48166e-06 0)
(0.00101103 8.61871e-06 0)
(0.00101188 8.72463e-06 0)
(0.00101275 8.7989e-06 0)
(0.00101362 8.84119e-06 0)
(0.0010145 8.85083e-06 0)
(0.00101538 8.82747e-06 0)
(0.00101625 8.77023e-06 0)
(0.00101713 8.67876e-06 0)
(0.001018 8.55183e-06 0)
(0.00101886 8.38916e-06 0)
(0.00101972 8.18901e-06 0)
(0.00102056 7.95128e-06 0)
(0.00102138 7.67349e-06 0)
(0.00102219 7.35589e-06 0)
(0.00102297 6.99492e-06 0)
(0.00102373 6.59152e-06 0)
(0.00102447 6.14048e-06 0)
(0.00102517 5.644e-06 0)
(0.00102585 5.09437e-06 0)
(0.00102648 4.49596e-06 0)
(0.00102708 3.83713e-06 0)
(0.00102763 3.12605e-06 0)
(0.00102815 2.34489e-06 0)
(0.0010286 1.50822e-06 0)
(0.00102902 5.88442e-07 0)
(0.00102936 -3.89146e-07 0)
(0.00102967 -1.4674e-06 0)
(0.00102989 -2.60368e-06 0)
(0.00103007 -3.86658e-06 0)
(0.00103014 -5.1849e-06 0)
(0.00103018 -6.66692e-06 0)
(0.00103008 -8.19394e-06 0)
(0.00102996 -9.93791e-06 0)
(0.00102966 -1.17032e-05 0)
(0.00102938 -1.37642e-05 0)
(0.00102884 -1.58001e-05 0)
(0.00102836 -1.82494e-05 0)
(0.00102751 -2.0586e-05 0)
(0.00102674 -2.35082e-05 0)
(0.001 2.1305e-07 0)
(0.00100005 6.38221e-07 0)
(0.00100015 1.06056e-06 0)
(0.00100031 1.47812e-06 0)
(0.00100051 1.88898e-06 0)
(0.00100076 2.29123e-06 0)
(0.00100106 2.68309e-06 0)
(0.00100141 3.06287e-06 0)
(0.0010018 3.42902e-06 0)
(0.00100223 3.78013e-06 0)
(0.00100271 4.11493e-06 0)
(0.00100322 4.43228e-06 0)
(0.00100378 4.73116e-06 0)
(0.00100436 5.01066e-06 0)
(0.00100498 5.27001e-06 0)
(0.00100562 5.50847e-06 0)
(0.00100629 5.72546e-06 0)
(0.00100699 5.92038e-06 0)
(0.00100771 6.09277e-06 0)
(0.00100845 6.2421e-06 0)
(0.0010092 6.36801e-06 0)
(0.00100997 6.46997e-06 0)
(0.00101075 6.54769e-06 0)
(0.00101153 6.60056e-06 0)
(0.00101233 6.62833e-06 0)
(0.00101312 6.63027e-06 0)
(0.00101392 6.60617e-06 0)
(0.00101472 6.55505e-06 0)
(0.00101551 6.4768e-06 0)
(0.00101629 6.37006e-06 0)
(0.00101706 6.23489e-06 0)
(0.00101782 6.06936e-06 0)
(0.00101857 5.87389e-06 0)
(0.00101929 5.64566e-06 0)
(0.00102 5.3857e-06 0)
(0.00102068 5.08988e-06 0)
(0.00102133 4.76033e-06 0)
(0.00102195 4.39086e-06 0)
(0.00102253 3.98549e-06 0)
(0.00102307 3.53483e-06 0)
(0.00102358 3.04611e-06 0)
(0.00102403 2.5049e-06 0)
(0.00102444 1.92377e-06 0)
(0.00102479 1.28033e-06 0)
(0.00102508 5.95983e-07 0)
(0.00102532 -1.64353e-07 0)
(0.00102547 -9.64843e-07 0)
(0.00102557 -1.86081e-06 0)
(0.00102557 -2.79345e-06 0)
(0.0010255 -3.85034e-06 0)
(0.00102532 -4.93398e-06 0)
(0.00102507 -6.18363e-06 0)
(0.00102468 -7.43896e-06 0)
(0.00102422 -8.92279e-06 0)
(0.00102358 -1.03724e-05 0)
(0.00102288 -1.21457e-05 0)
(0.00102195 -1.38124e-05 0)
(0.00102096 -1.59483e-05 0)
(0.00101966 -1.78486e-05 0)
(0.0010183 -2.04392e-05 0)
(0.001 1.4741e-07 0)
(0.00100005 4.41612e-07 0)
(0.00100014 7.33924e-07 0)
(0.00100028 1.02305e-06 0)
(0.00100047 1.30768e-06 0)
(0.0010007 1.58655e-06 0)
(0.00100097 1.85844e-06 0)
(0.00100129 2.12219e-06 0)
(0.00100165 2.37674e-06 0)
(0.00100205 2.62107e-06 0)
(0.00100249 2.85429e-06 0)
(0.00100296 3.07556e-06 0)
(0.00100347 3.28413e-06 0)
(0.00100401 3.47931e-06 0)
(0.00100458 3.6605e-06 0)
(0.00100517 3.82713e-06 0)
(0.0010058 3.97872e-06 0)
(0.00100644 4.11478e-06 0)
(0.00100711 4.23495e-06 0)
(0.00100779 4.33876e-06 0)
(0.00100849 4.42593e-06 0)
(0.0010092 4.49599e-06 0)
(0.00100992 4.54872e-06 0)
(0.00101065 4.58359e-06 0)
(0.00101138 4.60043e-06 0)
(0.00101212 4.59858e-06 0)
(0.00101285 4.57794e-06 0)
(0.00101359 4.53764e-06 0)
(0.00101431 4.4777e-06 0)
(0.00101503 4.3969e-06 0)
(0.00101573 4.29547e-06 0)
(0.00101642 4.17168e-06 0)
(0.00101709 4.0261e-06 0)
(0.00101774 3.85624e-06 0)
(0.00101837 3.66328e-06 0)
(0.00101896 3.44353e-06 0)
(0.00101953 3.19924e-06 0)
(0.00102005 2.92484e-06 0)
(0.00102054 2.62443e-06 0)
(0.00102099 2.28947e-06 0)
(0.00102138 1.92714e-06 0)
(0.00102173 1.52423e-06 0)
(0.00102202 1.09301e-06 0)
(0.00102224 6.12886e-07 0)
(0.0010224 1.04506e-07 0)
(0.00102249 -4.64487e-07 0)
(0.00102249 -1.05979e-06 0)
(0.00102242 -1.73313e-06 0)
(0.00102224 -2.42782e-06 0)
(0.00102198 -3.22587e-06 0)
(0.00102159 -4.03374e-06 0)
(0.0010211 -4.98248e-06 0)
(0.00102047 -5.91862e-06 0)
(0.00101972 -7.05264e-06 0)
(0.00101881 -8.13309e-06 0)
(0.00101776 -9.49925e-06 0)
(0.0010165 -1.07389e-05 0)
(0.00101509 -1.24006e-05 0)
(0.00101342 -1.38069e-05 0)
(0.00101157 -1.58461e-05 0)
(0.001 8.65792e-08 0)
(0.00100005 2.59387e-07 0)
(0.00100013 4.31112e-07 0)
(0.00100026 6.01006e-07 0)
(0.00100044 7.6832e-07 0)
(0.00100066 9.32316e-07 0)
(0.00100091 1.09229e-06 0)
(0.00100121 1.24756e-06 0)
(0.00100155 1.39749e-06 0)
(0.00100193 1.5415e-06 0)
(0.00100234 1.67905e-06 0)
(0.00100279 1.80961e-06 0)
(0.00100327 1.93274e-06 0)
(0.00100378 2.04801e-06 0)
(0.00100432 2.15504e-06 0)
(0.00100488 2.25347e-06 0)
(0.00100547 2.343e-06 0)
(0.00100608 2.42331e-06 0)
(0.00100672 2.49415e-06 0)
(0.00100736 2.55524e-06 0)
(0.00100802 2.60638e-06 0)
(0.0010087 2.64726e-06 0)
(0.00100938 2.67774e-06 0)
(0.00101007 2.69746e-06 0)
(0.00101077 2.70632e-06 0)
(0.00101146 2.70387e-06 0)
(0.00101215 2.69008e-06 0)
(0.00101284 2.66435e-06 0)
(0.00101352 2.62672e-06 0)
(0.00101419 2.57638e-06 0)
(0.00101485 2.5135e-06 0)
(0.00101549 2.43695e-06 0)
(0.00101611 2.34715e-06 0)
(0.00101671 2.24241e-06 0)
(0.00101728 2.12363e-06 0)
(0.00101782 1.98826e-06 0)
(0.00101832 1.838e-06 0)
(0.00101879 1.66899e-06 0)
(0.00101921 1.48421e-06 0)
(0.00101959 1.27777e-06 0)
(0.00101991 1.05483e-06 0)
(0.00102018 8.0624e-07 0)
(0.00102039 5.40763e-07 0)
(0.00102053 2.44087e-07 0)
(0.00102059 -6.91e-08 0)
(0.00102058 -4.21358e-07 0)
(0.00102048 -7.88397e-07 0)
(0.00102028 -1.20636e-06 0)
(0.00101998 -1.63506e-06 0)
(0.00101957 -2.13194e-06 0)
(0.00101904 -2.6308e-06 0)
(0.00101839 -3.22366e-06 0)
(0.00101758 -3.80189e-06 0)
(0.00101663 -4.51366e-06 0)
(0.00101551 -5.18083e-06 0)
(0.00101422 -6.04289e-06 0)
(0.00101272 -6.80731e-06 0)
(0.00101102 -7.86267e-06 0)
(0.00100906 -8.72693e-06 0)
(0.00100688 -1.00321e-05 0)
(0.001 2.85144e-08 0)
(0.00100004 8.5437e-08 0)
(0.00100013 1.42014e-07 0)
(0.00100026 1.98001e-07 0)
(0.00100042 2.53153e-07 0)
(0.00100064 3.07227e-07 0)
(0.00100089 3.59993e-07 0)
(0.00100118 4.11226e-07 0)
(0.00100151 4.60719e-07 0)
(0.00100187 5.08275e-07 0)
(0.00100227 5.53711e-07 0)
(0.00100271 5.96858e-07 0)
(0.00100317 6.37562e-07 0)
(0.00100367 6.75679e-07 0)
(0.00100419 7.11081e-07 0)
(0.00100474 7.43643e-07 0)
(0.00100532 7.73262e-07 0)
(0.00100591 7.99828e-07 0)
(0.00100652 8.23256e-07 0)
(0.00100715 8.43444e-07 0)
(0.0010078 8.60325e-07 0)
(0.00100845 8.73792e-07 0)
(0.00100912 8.83792e-07 0)
(0.00100979 8.90203e-07 0)
(0.00101046 8.92988e-07 0)
(0.00101113 8.91995e-07 0)
(0.00101181 8.87204e-07 0)
(0.00101247 8.78414e-07 0)
(0.00101313 8.65638e-07 0)
(0.00101378 8.48591e-07 0)
(0.00101441 8.27345e-07 0)
(0.00101503 8.01489e-07 0)
(0.00101563 7.71191e-07 0)
(0.0010162 7.35847e-07 0)
(0.00101674 6.95792e-07 0)
(0.00101725 6.50121e-07 0)
(0.00101772 5.99454e-07 0)
(0.00101816 5.42416e-07 0)
(0.00101855 4.80104e-07 0)
(0.00101889 4.10405e-07 0)
(0.00101918 3.35214e-07 0)
(0.0010194 2.5125e-07 0)
(0.00101957 1.6172e-07 0)
(0.00101966 6.14741e-08 0)
(0.00101968 -4.41453e-08 0)
(0.00101961 -1.6332e-07 0)
(0.00101946 -2.87315e-07 0)
(0.0010192 -4.29017e-07 0)
(0.00101884 -5.73951e-07 0)
(0.00101835 -7.42667e-07 0)
(0.00101775 -9.11372e-07 0)
(0.001017 -1.11304e-06 0)
(0.00101611 -1.30862e-06 0)
(0.00101506 -1.55128e-06 0)
(0.00101383 -1.77692e-06 0)
(0.00101241 -2.0716e-06 0)
(0.00101078 -2.32998e-06 0)
(0.00100893 -2.6919e-06 -3.54595e-38)
(0.00100683 -2.98354e-06 0)
(0.00100446 -3.43285e-06 0)
(0.001 -2.86468e-08 0)
(0.00100004 -8.58099e-08 0)
(0.00100013 -1.42603e-07 0)
(0.00100026 -1.98781e-07 0)
(0.00100042 -2.541e-07 0)
(0.00100064 -3.08319e-07 0)
(0.00100089 -3.61205e-07 0)
(0.00100118 -4.12537e-07 0)
(0.00100151 -4.62106e-07 0)
(0.00100187 -5.09717e-07 0)
(0.00100227 -5.55189e-07 0)
(0.00100271 -5.98353e-07 0)
(0.00100317 -6.39057e-07 0)
(0.00100367 -6.77154e-07 0)
(0.00100419 -7.12519e-07 0)
(0.00100474 -7.45028e-07 0)
(0.00100532 -7.74579e-07 0)
(0.00100591 -8.01062e-07 0)
(0.00100652 -8.24397e-07 0)
(0.00100715 -8.44479e-07 0)
(0.0010078 -8.61243e-07 0)
(0.00100845 -8.74582e-07 0)
(0.00100912 -8.84445e-07 0)
(0.00100979 -8.90711e-07 0)
(0.00101046 -8.93342e-07 0)
(0.00101113 -8.92187e-07 0)
(0.00101181 -8.87229e-07 0)
(0.00101247 -8.78266e-07 0)
(0.00101313 -8.65314e-07 0)
(0.00101378 -8.48088e-07 0)
(0.00101441 -8.26659e-07 0)
(0.00101503 -8.00619e-07 0)
(0.00101563 -7.70136e-07 0)
(0.0010162 -7.34606e-07 0)
(0.00101674 -6.94367e-07 0)
(0.00101725 -6.48511e-07 0)
(0.00101772 -5.97662e-07 0)
(0.00101816 -5.40443e-07 0)
(0.00101855 -4.77953e-07 0)
(0.00101889 -4.08081e-07 0)
(0.00101918 -3.3272e-07 0)
(0.0010194 -2.4859e-07 0)
(0.00101957 -1.58898e-07 0)
(0.00101966 -5.84964e-08 0)
(0.00101968 4.72778e-08 0)
(0.00101961 1.66602e-07 0)
(0.00101946 2.90747e-07 0)
(0.0010192 4.32597e-07 0)
(0.00101884 5.77679e-07 0)
(0.00101835 7.46536e-07 0)
(0.00101775 9.15379e-07 0)
(0.001017 1.11718e-06 0)
(0.00101611 1.31289e-06 0)
(0.00101506 1.55566e-06 0)
(0.00101383 1.78143e-06 0)
(0.00101241 2.07622e-06 0)
(0.00101078 2.33471e-06 0)
(0.00100893 2.69674e-06 3.54595e-38)
(0.00100683 2.98849e-06 0)
(0.00100446 3.43791e-06 0)
(0.001 -8.67103e-08 0)
(0.00100005 -2.59757e-07 0)
(0.00100013 -4.31695e-07 0)
(0.00100026 -6.01778e-07 0)
(0.00100044 -7.69257e-07 0)
(0.00100066 -9.33396e-07 0)
(0.00100091 -1.09349e-06 0)
(0.00100121 -1.24885e-06 0)
(0.00100155 -1.39886e-06 0)
(0.00100193 -1.54293e-06 0)
(0.00100234 -1.68051e-06 0)
(0.00100279 -1.81109e-06 0)
(0.00100327 -1.93422e-06 0)
(0.00100378 -2.04946e-06 0)
(0.00100432 -2.15646e-06 0)
(0.00100488 -2.25483e-06 0)
(0.00100547 -2.3443e-06 0)
(0.00100608 -2.42452e-06 0)
(0.00100672 -2.49527e-06 0)
(0.00100736 -2.55626e-06 0)
(0.00100802 -2.60728e-06 0)
(0.0010087 -2.64804e-06 0)
(0.00100938 -2.67837e-06 0)
(0.00101007 -2.69795e-06 0)
(0.00101076 -2.70665e-06 0)
(0.00101146 -2.70405e-06 0)
(0.00101215 -2.69009e-06 0)
(0.00101284 -2.66419e-06 0)
(0.00101352 -2.62639e-06 0)
(0.00101419 -2.57587e-06 0)
(0.00101485 -2.51281e-06 0)
(0.00101549 -2.43608e-06 0)
(0.00101611 -2.34609e-06 0)
(0.00101671 -2.24117e-06 0)
(0.00101728 -2.1222e-06 0)
(0.00101782 -1.98666e-06 0)
(0.00101832 -1.83621e-06 0)
(0.00101879 -1.66702e-06 0)
(0.00101921 -1.48207e-06 0)
(0.00101959 -1.27545e-06 0)
(0.00101991 -1.05234e-06 0)
(0.00102018 -8.03579e-07 0)
(0.00102039 -5.37936e-07 0)
(0.00102053 -2.41098e-07 0)
(0.00102059 7.22474e-08 0)
(0.00102058 4.24658e-07 0)
(0.00102048 7.91845e-07 0)
(0.00102028 1.20995e-06 0)
(0.00101998 1.63878e-06 0)
(0.00101957 2.1358e-06 0)
(0.00101904 2.63479e-06 0)
(0.00101839 3.22777e-06 0)
(0.00101758 3.80613e-06 0)
(0.00101663 4.51801e-06 0)
(0.00101551 5.1853e-06 0)
(0.00101422 6.04747e-06 0)
(0.00101272 6.812e-06 0)
(0.00101102 7.86746e-06 0)
(0.00100906 8.73183e-06 0)
(0.00100688 1.00371e-05 0)
(0.001 -1.47538e-07 0)
(0.00100005 -4.41973e-07 0)
(0.00100014 -7.34492e-07 0)
(0.00100028 -1.0238e-06 0)
(0.00100047 -1.30859e-06 0)
(0.0010007 -1.5876e-06 0)
(0.00100097 -1.85961e-06 0)
(0.00100129 -2.12346e-06 0)
(0.00100165 -2.37807e-06 0)
(0.00100205 -2.62246e-06 0)
(0.00100249 -2.85572e-06 0)
(0.00100296 -3.077e-06 0)
(0.00100347 -3.28557e-06 0)
(0.00100401 -3.48073e-06 0)
(0.00100458 -3.66188e-06 0)
(0.00100517 -3.82846e-06 0)
(0.0010058 -3.97998e-06 0)
(0.00100644 -4.11596e-06 0)
(0.00100711 -4.23603e-06 0)
(0.00100779 -4.33974e-06 0)
(0.00100849 -4.4268e-06 0)
(0.0010092 -4.49674e-06 0)
(0.00100992 -4.54933e-06 0)
(0.00101065 -4.58406e-06 0)
(0.00101138 -4.60074e-06 0)
(0.00101212 -4.59874e-06 0)
(0.00101285 -4.57794e-06 0)
(0.00101359 -4.53747e-06 0)
(0.00101431 -4.47735e-06 0)
(0.00101503 -4.39639e-06 0)
(0.00101573 -4.29477e-06 0)
(0.00101642 -4.17081e-06 0)
(0.00101709 -4.02505e-06 0)
(0.00101774 -3.85501e-06 0)
(0.00101836 -3.66187e-06 0)
(0.00101896 -3.44193e-06 0)
(0.00101952 -3.19747e-06 0)
(0.00102005 -2.92289e-06 0)
(0.00102054 -2.62231e-06 0)
(0.00102099 -2.28718e-06 0)
(0.00102138 -1.92468e-06 0)
(0.00102173 -1.5216e-06 0)
(0.00102202 -1.09021e-06 0)
(0.00102224 -6.09936e-07 0)
(0.0010224 -1.01402e-07 0)
(0.00102249 4.67742e-07 0)
(0.00102249 1.06319e-06 0)
(0.00102242 1.73667e-06 0)
(0.00102224 2.43149e-06 0)
(0.00102198 3.22967e-06 0)
(0.00102159 4.03767e-06 0)
(0.0010211 4.98654e-06 0)
(0.00102047 5.92281e-06 0)
(0.00101972 7.05694e-06 0)
(0.00101881 8.13751e-06 0)