/*--------------------------------*- C++ -*----------------------------------*\
| =========                 |                                                 |
| \\      /  F ield         | OpenFOAM: The Open Source CFD Toolbox           |
|  \\    /   O peration     | Version:  2312                                  |
|   \\  /    A nd           | Website:  www.openfoam.com                      |
|    \\/     M anipulation  |                                                 |
\*---------------------------------------------------------------------------*/
FoamFile
{
    version     2.0;
    format      ascii;
    arch        "LSB;label=32;scalar=64";
    class       surfaceScalarField;
    location    "56000";
    object      phi;
}
// * * * * * * * * * * * * * * * * * * * * * * * * * * * * * * * * * * * * * //

dimensions      [0 3 -1 0 0 0 0];

oriented        oriented;

internalField   nonuniform List<scalar> 
21240
(
0.000664974
1.69227e-06
0.000661072
3.90245e-06
0.000655751
5.32093e-06
0.000649515
6.23647e-06
0.000642639
6.87518e-06
0.000635268
7.37175e-06
0.000627491
7.77665e-06
0.000619388
8.10293e-06
0.000611031
8.3566e-06
0.000602485
8.54664e-06
0.000593799
8.68536e-06
0.000585014
8.78506e-06
0.000576159
8.85535e-06
0.000567256
8.90257e-06
0.000558326
8.93053e-06
0.000549384
8.94169e-06
0.000540446
8.93787e-06
0.000531526
8.92065e-06
0.000522634
8.89133e-06
0.000513783
8.85102e-06
0.000504983
8.80051e-06
0.000496242
8.7404e-06
0.000487571
8.6711e-06
0.000478978
8.59293e-06
0.000470472
8.50607e-06
0.000462062
8.41068e-06
0.000453755
8.30689e-06
0.00044556
8.19468e-06
0.000437486
8.0742e-06
0.000429541
7.94529e-06
0.000421732
7.80818e-06
0.00041407
7.66251e-06
0.000406561
7.50879e-06
0.000399215
7.34625e-06
0.000392039
7.17598e-06
0.000385042
6.99646e-06
0.000378233
6.80986e-06
0.000371619
6.61325e-06
0.000365209
6.41082e-06
0.000359012
6.19693e-06
0.000353032
5.97955e-06
0.000347284
5.74798e-06
0.000341767
5.51712e-06
0.0003365
5.26687e-06
0.000331475
5.0248e-06
0.000326722
4.75357e-06
0.000322218
4.50388e-06
0.000318011
4.2065e-06
0.000314056
3.95495e-06
0.000310436
3.62004e-06
0.000307059
3.37693e-06
0.000304081
2.97812e-06
0.000301315
2.76641e-06
0.000299079
2.23596e-06
0.000296963
2.11602e-06
0.000295722
1.24078e-06
0.000294249
1.47339e-06
0.000294465
-2.16301e-07
0.000293309
1.15565e-06
-3.20763e-06
0.000296517
0.000667556
8.02995e-07
0.00066912
2.33798e-06
0.000670854
3.58759e-06
0.000672525
4.56562e-06
0.000674053
5.34649e-06
0.000675426
5.99896e-06
0.000676638
6.56467e-06
0.000677679
7.06204e-06
0.000678537
7.49811e-06
0.000679207
7.87732e-06
0.000679687
8.20529e-06
0.000679983
8.48894e-06
0.000680103
8.73529e-06
0.000680055
8.9502e-06
0.000679848
9.13798e-06
0.000679488
9.30157e-06
0.000678983
9.44311e-06
0.000678339
9.56417e-06
0.000677564
9.66621e-06
0.000676665
9.75028e-06
0.000675648
9.81749e-06
0.00067452
9.8684e-06
0.000673287
9.90385e-06
0.000671956
9.92388e-06
0.000670533
9.92923e-06
0.000669024
9.91951e-06
0.000667436
9.89559e-06
0.000665774
9.85653e-06
0.000664044
9.80364e-06
0.000662255
9.73519e-06
0.000660409
9.6533e-06
0.000658517
9.55507e-06
0.000656582
9.44402e-06
0.000654613
9.31538e-06
0.000652613
9.17504e-06
0.000650595
9.01516e-06
0.000648559
8.8456e-06
0.000646519
8.65344e-06
0.000644475
8.45512e-06
0.000642442
8.2293e-06
0.000640418
8.00331e-06
0.000638424
7.74189e-06
0.000636451
7.49034e-06
0.000634528
7.19032e-06
0.000632636
6.91686e-06
0.000630816
6.57342e-06
0.000629036
6.28413e-06
0.000627353
5.88935e-06
0.000625713
5.59425e-06
0.000624198
5.13521e-06
0.000622725
4.85066e-06
0.000621396
4.30688e-06
0.000620103
4.05932e-06
0.000618939
3.4e-06
0.000617824
3.2304e-06
0.000616649
2.41596e-06
0.000615743
2.37938e-06
0.000614135
1.39152e-06
0.000613754
1.53751e-06
4.44333e-07
0.000610102
0.000666951
5.18727e-07
0.000667819
1.47038e-06
0.000669058
2.34767e-06
0.000670483
3.1407e-06
0.000671985
3.84531e-06
0.000673514
4.46914e-06
0.000675055
5.02441e-06
0.000676594
5.52225e-06
0.000678122
5.97045e-06
0.000679625
6.37392e-06
0.000681095
6.7362e-06
0.000682523
7.06056e-06
0.000683908
7.35053e-06
0.000685248
7.60956e-06
0.000686545
7.84094e-06
0.0006878
8.0473e-06
0.000689012
8.23086e-06
0.000690183
8.39316e-06
0.000691313
8.53571e-06
0.000692404
8.65939e-06
0.000693456
8.76538e-06
0.000694471
8.85408e-06
0.000695448
8.9265e-06
0.000696389
8.98255e-06
0.000697295
9.02322e-06
0.000698167
9.04787e-06
0.000699005
9.05766e-06
0.00069981
9.05133e-06
0.000700583
9.03045e-06
0.000701326
8.99298e-06
0.000702038
8.94123e-06
0.000702721
8.87203e-06
0.000703376
8.78892e-06
0.000704004
8.68709e-06
0.000704607
8.572e-06
0.000705186
8.43642e-06
0.000705743
8.28871e-06
0.000706278
8.1181e-06
0.000706796
7.93722e-06
0.000707295
7.73019e-06
0.000707783
7.51583e-06
0.000708254
7.27091e-06
0.000708721
7.02308e-06
0.000709172
6.73878e-06
0.000709631
6.45796e-06
0.000710072
6.13292e-06
0.000710536
5.82014e-06
0.000710972
5.45343e-06
0.000711456
5.11032e-06
0.000711889
4.70191e-06
0.000712409
4.33039e-06
0.000712834
3.88237e-06
0.000713409
3.4842e-06
0.000713805
3.00394e-06
0.000714455
2.58035e-06
0.000714783
2.08828e-06
0.000715523
1.63914e-06
0.000715729
1.18543e-06
0.000716567
6.9904e-07
3.85412e-07
0.000716626
0.000666854
3.31588e-07
0.000667309
1.01564e-06
0.000667972
1.6844e-06
0.000668795
2.31715e-06
0.000669736
2.90469e-06
0.000670761
3.44411e-06
0.000671848
3.93697e-06
0.000672984
4.38693e-06
0.000674156
4.7979e-06
0.000675357
5.17311e-06
0.000676578
5.51507e-06
0.000677813
5.82582e-06
0.000679056
6.10736e-06
0.000680304
6.36165e-06
0.000681554
6.59071e-06
0.000682805
6.79638e-06
0.000684056
6.98033e-06
0.000685305
7.14388e-06
0.000686553
7.28824e-06
0.000687798
7.41427e-06
0.00068904
7.52283e-06
0.00069028
7.61446e-06
0.000691516
7.68982e-06
0.00069275
7.74915e-06
0.00069398
7.79297e-06
0.000695207
7.82126e-06
0.00069643
7.83441e-06
0.000697649
7.83219e-06
0.000698865
7.81492e-06
0.000700075
7.78216e-06
0.000701283
7.73422e-06
0.000702484
7.67051e-06
0.000703682
7.59126e-06
0.000704873
7.49589e-06
0.00070606
7.38441e-06
0.00070724
7.25647e-06
0.000708418
7.11159e-06
0.000709586
6.9501e-06
0.000710752
6.77045e-06
0.000711908
6.57447e-06
0.000713065
6.35847e-06
0.000714209
6.12727e-06
0.000715359
5.87305e-06
0.000716492
5.60634e-06
0.000717638
5.3116e-06
0.000718761
5.00983e-06
0.000719909
4.67166e-06
0.000721026
4.33673e-06
0.000722185
3.95142e-06
0.000723299
3.58799e-06
0.000724478
3.15102e-06
0.000725592
2.76859e-06
0.000726802
2.27409e-06
0.000727917
1.88956e-06
0.000729168
1.32881e-06
0.000730286
9.70225e-07
0.000731594
3.31751e-07
0.000732731
4.81738e-08
0.000734175
-7.45114e-07
-9.12648e-07
0.000735473
0.000666738
2.59856e-07
0.00066697
7.84401e-07
0.000667356
1.29812e-06
0.000667879
1.794e-06
0.000668518
2.26615e-06
0.000669251
2.71098e-06
0.000670061
3.12703e-06
0.000670933
3.51438e-06
0.000671857
3.87391e-06
0.000672824
4.20676e-06
0.000673825
4.51399e-06
0.000674854
4.7966e-06
0.000675906
5.05552e-06
0.000676976
5.29173e-06
0.00067806
5.50624e-06
0.000679156
5.70011e-06
0.000680262
5.87431e-06
0.000681376
6.02975e-06
0.000682498
6.1672e-06
0.000683624
6.28738e-06
0.000684756
6.39082e-06
0.000685893
6.47805e-06
0.000687033
6.5494e-06
0.000688177
6.60532e-06
0.000689324
6.64588e-06
0.000690474
6.67149e-06
0.000691626
6.68197e-06
0.000692781
6.67775e-06
0.000693937
6.65833e-06
0.000695095
6.62432e-06
0.000696255
6.57472e-06
0.000697415
6.51056e-06
0.000698576
6.43014e-06
0.000699737
6.33522e-06
0.000700898
6.22295e-06
0.000702058
6.09644e-06
0.000703219
5.95101e-06
0.000704377
5.79197e-06
0.000705535
5.61172e-06
0.000706691
5.41923e-06
0.000707847
5.20215e-06
0.000708999
4.97548e-06
0.000710153
4.71915e-06
0.000711301
4.45798e-06
0.000712453
4.1595e-06
0.000713599
3.86433e-06
0.00071475
3.52002e-06
0.000715895
3.19237e-06
0.000717049
2.79681e-06
0.000718198
2.4393e-06
0.000719365
1.98401e-06
0.000720532
1.60108e-06
0.000721733
1.0732e-06
0.00072295
6.72732e-07
0.000724232
4.65874e-08
0.000725536
-3.33251e-07
0.000726906
-1.03815e-06
0.000728354
-1.4e-06
0.000729872
-2.26334e-06
-2.57637e-06
0.000731536
0.000666724
2.02543e-07
0.000666899
6.09397e-07
0.000667184
1.01351e-06
0.000667569
1.40835e-06
0.000668045
1.79022e-06
0.0006686
2.15618e-06
0.000669223
2.50418e-06
0.000669904
2.83298e-06
0.000670636
3.14203e-06
0.000671412
3.43119e-06
0.000672225
3.70055e-06
0.000673071
3.95037e-06
0.000673946
4.181e-06
0.000674845
4.3929e-06
0.000675764
4.58651e-06
0.000676702
4.76237e-06
0.000677655
4.92099e-06
0.000678622
5.06291e-06
0.000679601
5.18856e-06
0.00068059
5.29844e-06
0.000681588
5.39283e-06
0.000682594
5.47217e-06
0.000683607
5.53657e-06
0.000684625
5.58644e-06
0.00068565
5.62171e-06
0.000686678
5.64278e-06
0.000687711
5.64933e-06
0.000688747
5.64187e-06
0.000689785
5.61972e-06
0.000690826
5.58362e-06
0.000691868
5.53242e-06
0.000692912
5.46725e-06
0.000693956
5.38626e-06
0.000695
5.29131e-06
0.000696043
5.17946e-06
0.000697086
5.05378e-06
0.000698127
4.90965e-06
0.000699167
4.7521e-06
0.000700205
4.57391e-06
0.000701241
4.38323e-06
0.000702274
4.16877e-06
0.000703306
3.94365e-06
0.000704335
3.69016e-06
0.000705364
3.42924e-06
0.00070639
3.13316e-06
0.000707419
2.83521e-06
0.000708447
2.49213e-06
0.000709483
2.15676e-06
0.000710518
1.76184e-06
0.000711566
1.3908e-06
0.000712611
9.39006e-07
0.000713675
5.37305e-07
0.00071472
2.81003e-08
0.000715813
-4.20355e-07
0.000716895
-1.03554e-06
0.000718058
-1.49586e-06
0.000719233
-2.21309e-06
0.000720515
-2.68211e-06
0.000721791
-3.53987e-06
-3.99665e-06
0.000723212
0.000666708
1.60828e-07
0.000666834
4.84215e-07
0.00066704
8.06711e-07
0.000667325
1.12375e-06
0.000667682
1.43281e-06
0.000668107
1.73173e-06
0.000668592
2.01881e-06
0.000669132
2.2928e-06
0.000669721
2.55295e-06
0.000670354
2.79892e-06
0.000671025
3.02932e-06
0.000671731
3.24428e-06
0.000672468
3.44392e-06
0.000673233
3.62836e-06
0.000674021
3.79771e-06
0.000674832
3.95216e-06
0.000675661
4.09191e-06
0.000676506
4.21723e-06
0.000677367
4.3283e-06
0.00067824
4.42541e-06
0.000679124
4.50866e-06
0.000680018
4.57833e-06
0.00068092
4.63443e-06
0.000681829
4.6772e-06
0.000682744
4.70653e-06
0.000683664
4.72269e-06
0.000684588
4.72536e-06
0.000685515
4.71489e-06
0.000686444
4.69071e-06
0.000687375
4.6533e-06
0.000688305
4.60176e-06
0.000689236
4.53683e-06
0.000690165
4.45709e-06
0.000691092
4.36377e-06
0.000692017
4.25468e-06
0.000692939
4.13183e-06
0.000693857
3.99188e-06
0.000694771
3.83812e-06
0.000695679
3.66541e-06
0.000696584
3.47909e-06
0.000697481
3.27129e-06
0.000698374
3.0506e-06
0.000699259
2.80493e-06
0.000700141
2.54801e-06
0.000701013
2.26122e-06
0.000701881
1.96625e-06
0.00070274
1.63395e-06
0.000703598
1.29818e-06
0.000704447
9.13149e-07
0.000705306
5.31996e-07
0.000706163
8.20254e-08
0.000707039
-3.39019e-07
0.000707918
-8.50395e-07
0.000708819
-1.32138e-06
0.000709703
-1.92048e-06
0.000710647
-2.43894e-06
0.000711576
-3.14248e-06
0.000712598
-3.70447e-06
0.000713598
-4.53972e-06
-5.13492e-06
0.000714736
0.000666699
1.28807e-07
0.000666795
3.87427e-07
0.000666956
6.45706e-07
0.00066718
9.00445e-07
0.000667463
1.14991e-06
0.000667802
1.39255e-06
0.000668194
1.62706e-06
0.000668634
1.85234e-06
0.00066912
2.06751e-06
0.000669647
2.27185e-06
0.000670211
2.46474e-06
0.00067081
2.64577e-06
0.000671439
2.81471e-06
0.000672096
2.97148e-06
0.000672777
3.11598e-06
0.000673481
3.24822e-06
0.000674205
3.36818e-06
0.000674946
3.47592e-06
0.000675703
3.57146e-06
0.000676474
3.6549e-06
0.000677256
3.72626e-06
0.000678049
3.78562e-06
0.00067885
3.83296e-06
0.000679659
3.86836e-06
0.000680474
3.89172e-06
0.000681294
3.90312e-06
0.000682117
3.90233e-06
0.000682942
3.88947e-06
0.000683769
3.86415e-06
0.000684595
3.82654e-06
0.000685421
3.77605e-06
0.000686245
3.71295e-06
0.000687066
3.63636e-06
0.000687883
3.54676e-06
0.000688695
3.44283e-06
0.000689501
3.32542e-06
0.0006903
3.19258e-06
0.000691093
3.04574e-06
0.000691876
2.88203e-06
0.000692651
2.70383e-06
0.000693416
2.50684e-06
0.000694171
2.29495e-06
0.000694915
2.06171e-06
0.000695649
1.81337e-06
0.00069637
1.54021e-06
0.000697084
1.25233e-06
0.000697783
9.35124e-07
0.000698476
6.04946e-07
0.000699149
2.40298e-07
0.000699818
-1.36712e-07
0.000700466
-5.66259e-07
0.000701126
-9.99338e-07
0.000701768
-1.49204e-06
0.000702429
-1.98208e-06
0.000703062
-2.55417e-06
0.000703732
-3.10883e-06
0.000704366
-3.77658e-06
0.000705062
-4.39994e-06
0.000705705
-5.18259e-06
-5.87493e-06
0.000706445
0.000666693
1.02646e-07
0.000666772
3.08599e-07
0.000666903
5.1443e-07
0.000667086
7.17808e-07
0.000667318
9.17502e-07
0.000667598
1.11239e-06
0.000667924
1.30148e-06
0.000668292
1.48386e-06
0.000668701
1.65878e-06
0.000669147
1.82559e-06
0.000669628
1.98378e-06
0.000670141
2.13291e-06
0.000670683
2.27266e-06
0.000671252
2.40276e-06
0.000671845
2.52304e-06
0.00067246
2.63336e-06
0.000673094
2.73361e-06
0.000673746
2.82371e-06
0.000674414
2.9036e-06
0.000675096
2.97325e-06
0.00067579
3.0326e-06
0.000676494
3.08163e-06
0.000677206
3.12029e-06
0.000677926
3.14853e-06
0.000678651
3.16627e-06
0.000679381
3.17344e-06
0.000680114
3.1699e-06
0.000680847
3.15558e-06
0.000681581
3.13024e-06
0.000682314
3.0938e-06
0.000683044
3.04593e-06
0.000683771
2.98653e-06
0.000684492
2.91515e-06
0.000685207
2.83168e-06
0.000685914
2.73551e-06
0.000686613
2.62658e-06
0.000687302
2.50403e-06
0.000687979
2.36789e-06
0.000688645
2.21702e-06
0.000689297
2.05155e-06
0.000689934
1.86995e-06
0.000690556
1.67261e-06
0.00069116
1.45742e-06
0.000691749
1.22517e-06
0.000692316
9.72932e-07
0.000692866
7.02112e-07
0.000693393
4.08611e-07
0.000693902
9.53029e-08
0.00069439
-2.4729e-07
0.000694866
-6.1316e-07
0.00069531
-1.01028e-06
0.000695743
-1.43253e-06
0.000696143
-1.89193e-06
0.00069654
-2.37863e-06
0.000696896
-2.91062e-06
0.00069726
-3.4723e-06
0.000697573
-4.09009e-06
0.000697912
-4.73864e-06
0.000698187
-5.45731e-06
-6.20395e-06
0.000698516
0.000666689
8.0588e-08
0.000666755
2.42217e-07
0.000666866
4.03821e-07
0.00066702
5.6367e-07
0.000667216
7.20875e-07
0.000667454
8.74618e-07
0.000667732
1.02414e-06
0.000668047
1.16877e-06
0.000668398
1.30789e-06
0.000668782
1.44097e-06
0.000669198
1.56755e-06
0.000669644
1.68725e-06
0.000670117
1.79972e-06
0.000670615
1.90468e-06
0.000671136
2.00192e-06
0.000671678
2.09122e-06
0.00067224
2.17245e-06
0.000672818
2.24546e-06
0.000673411
2.31015e-06
0.000674018
2.36641e-06
0.000674637
2.41416e-06
0.000675265
2.4533e-06
0.000675901
2.48376e-06
0.000676544
2.50543e-06
0.000677193
2.51822e-06
0.000677844
2.52201e-06
0.000678497
2.51668e-06
0.000679151
2.50205e-06
0.000679803
2.47801e-06
0.000680452
2.4443e-06
0.000681098
2.40077e-06
0.000681737
2.34709e-06
0.000682369
2.2831e-06
0.000682992
2.20834e-06
0.000683605
2.12266e-06
0.000684206
2.02541e-06
0.000684794
1.91651e-06
0.000685367
1.79504e-06
0.000685923
1.66106e-06
0.000686461
1.51321e-06
0.000686979
1.35187e-06
0.000687477
1.17503e-06
0.000687951
9.83622e-07
0.000688401
7.74653e-07
0.000688824
5.5007e-07
0.000689221
3.05521e-07
0.000689584
4.56582e-08
0.000689923
-2.43851e-07
0.000690226
-5.51113e-07
0.000690501
-8.87641e-07
0.000690734
-1.24307e-06
0.000690937
-1.63568e-06
0.000691092
-2.04718e-06
0.00069122
-2.5063e-06
0.000691291
-2.98228e-06
0.00069134
-3.52093e-06
0.000691321
-4.07107e-06
0.000691288
-4.70553e-06
0.00069117
-5.33952e-06
-6.08801e-06
0.000691054
0.000666686
6.14695e-08
0.000666743
1.84721e-07
0.000666839
3.07987e-07
0.000666973
4.29997e-07
0.000667144
5.50112e-07
0.00066735
6.67738e-07
0.000667592
7.82323e-07
0.000667868
8.93355e-07
0.000668175
1.00037e-06
0.000668513
1.10295e-06
0.00066888
1.20072e-06
0.000669274
1.29334e-06
0.000669693
1.38054e-06
0.000670136
1.46204e-06
0.0006706
1.53764e-06
0.000671084
1.60713e-06
0.000671586
1.67036e-06
0.000672105
1.72717e-06
0.000672637
1.77745e-06
0.000673183
1.82106e-06
0.000673739
1.85792e-06
0.000674304
1.88789e-06
0.000674877
1.9109e-06
0.000675456
1.92681e-06
0.000676038
1.93556e-06
0.000676623
1.93695e-06
0.000677209
1.93094e-06
0.000677794
1.91728e-06
0.000678376
1.89593e-06
0.000678954
1.86656e-06
0.000679525
1.82914e-06
0.000680089
1.78322e-06
0.000680644
1.72883e-06
0.000681187
1.66532e-06
0.000681716
1.59285e-06
0.000682231
1.51047e-06
0.000682729
1.41855e-06
0.000683209
1.31568e-06
0.000683667
1.20265e-06
0.000684103
1.07732e-06
0.000684514
9.41175e-07
0.000684898
7.90974e-07
0.000685252
6.29359e-07
0.000685575
4.5138e-07
0.000685864
2.61696e-07
0.000686116
5.31884e-08
0.000686332
-1.70818e-07
0.000686508
-4.1985e-07
0.000686638
-6.80467e-07
0.000686723
-9.72536e-07
0.000686754
-1.27483e-06
0.000686737
-1.61859e-06
0.000686659
-1.96869e-06
0.000686527
-2.37489e-06
0.000686325
-2.77948e-06
0.000686066
-3.2621e-06
0.000685723
-3.72817e-06
0.000685323
-4.30541e-06
0.000684822
-4.8388e-06
-5.53281e-06
0.000684267
0.000666684
4.44548e-08
0.000666735
1.33576e-07
0.00066682
2.22723e-07
0.000666939
3.11002e-07
0.000667091
3.97966e-07
0.000667276
4.83202e-07
0.000667492
5.6632e-07
0.000667738
6.46955e-07
0.000668014
7.24772e-07
0.000668317
7.99461e-07
0.000668647
8.70741e-07
0.000669002
9.38356e-07
0.000669381
1.00208e-06
0.000669781
1.0617e-06
0.000670202
1.11705e-06
0.000670641
1.16795e-06
0.000671097
1.21426e-06
0.000671568
1.25586e-06
0.000672053
1.29262e-06
0.00067255
1.32443e-06
0.000673056
1.35121e-06
0.000673571
1.37282e-06
0.000674093
1.38921e-06
0.00067462
1.40024e-06
0.000675149
1.40585e-06
0.00067568
1.40587e-06
0.000676211
1.40026e-06
0.00067674
1.3888e-06
0.000677264
1.37147e-06
0.000677783
1.34795e-06
0.000678294
1.31827e-06
0.000678795
1.28199e-06
0.000679284
1.23922e-06
0.00067976
1.18931e-06
0.000680221
1.13253e-06
0.000680663
1.06791e-06
0.000681086
9.95998e-07
0.000681486
9.15329e-07
0.000681862
8.26931e-07
0.000682211
7.2857e-07
0.00068253
6.22068e-07
0.000682817
5.03994e-07
0.000683069
3.77501e-07
0.000683283
2.37311e-07
0.000683455
8.89824e-08
0.000683586
-7.73691e-08
0.000683669
-2.53714e-07
0.0006837
-4.51485e-07
0.000683676
-6.56381e-07
0.000683594
-8.89854e-07
0.000683447
-1.12788e-06
0.000683233
-1.40453e-06
0.000682944
-1.68033e-06
0.000682579
-2.00981e-06
0.000682128
-2.3283e-06
0.000681589
-2.7235e-06
0.000680951
-3.08946e-06
0.000680213
-3.5676e-06
0.000679358
-3.98399e-06
-4.56685e-06
0.000678392
0.000666682
2.88977e-08
0.000666729
8.68257e-08
0.000666807
1.44779e-07
0.000666916
2.02184e-07
0.000667055
2.58758e-07
0.000667224
3.14239e-07
0.000667422
3.68377e-07
0.000667648
4.20936e-07
0.000667901
4.717e-07
0.00066818
5.20463e-07
0.000668484
5.67041e-07
0.000668811
6.11259e-07
0.00066916
6.52963e-07
0.00066953
6.92009e-07
0.000669918
7.28271e-07
0.000670325
7.61629e-07
0.000670747
7.91984e-07
0.000671184
8.19231e-07
0.000671633
8.43293e-07
0.000672093
8.64075e-07
0.000672563
8.81515e-07
0.00067304
8.95517e-07
0.000673523
9.06032e-07
0.000674011
9.12954e-07
0.0006745
9.16244e-07
0.00067499
9.1577e-07
0.000675479
9.11509e-07
0.000675965
9.03285e-07
0.000676445
8.91099e-07
0.000676918
8.74704e-07
0.000677382
8.54148e-07
0.000677835
8.29074e-07
0.000678275
7.99608e-07
0.000678699
7.65227e-07
0.000679105
7.26195e-07
0.000679492
6.81733e-07
0.000679855
6.3234e-07
0.000680194
5.76837e-07
0.000680504
5.16122e-07
0.000680785
4.48392e-07
0.000681032
3.75213e-07
0.000681242
2.93811e-07
0.000681412
2.06874e-07
0.000681539
1.10155e-07
0.00068162
8.68424e-09
0.00068165
-1.07968e-07
0.000681626
-2.29256e-07
0.000681541
-3.66626e-07
0.000681393
-5.07957e-07
0.000681174
-6.70853e-07
0.000680881
-8.35218e-07
0.000680506
-1.02914e-06
0.000680045
-1.21966e-06
0.000679487
-1.45189e-06
0.000678831
-1.67182e-06
0.000678059
-1.95225e-06
0.000677174
-2.20454e-06
0.000676153
-2.54657e-06
0.000675002
-2.83251e-06
-3.25353e-06
0.000673689
0.000666681
1.4262e-08
0.000666725
4.28521e-08
0.000666799
7.14587e-08
0.000666901
9.9802e-08
0.000667032
1.27745e-07
0.000667191
1.55158e-07
0.000667378
1.8192e-07
0.000667591
2.07915e-07
0.000667829
2.33037e-07
0.000668092
2.57183e-07
0.000668379
2.8026e-07
0.000668688
3.02183e-07
0.000669018
3.22872e-07
0.000669368
3.42253e-07
0.000669736
3.60262e-07
0.000670121
3.76837e-07
0.000670521
3.91925e-07
0.000670935
4.05471e-07
0.000671361
4.17434e-07
0.000671797
4.27763e-07
0.000672242
4.36426e-07
0.000672694
4.4337e-07
0.000673152
4.48569e-07
0.000673613
4.51966e-07
0.000674075
4.53541e-07
0.000674538
4.53221e-07
0.000674998
4.50998e-07
0.000675455
4.46775e-07
0.000675905
4.40556e-07
0.000676348
4.32207e-07
0.00067678
4.21759e-07
0.0006772
4.09018e-07
0.000677606
3.9406e-07
0.000677995
3.76598e-07
0.000678364
3.56789e-07
0.000678712
3.34204e-07
0.000679035
3.09133e-07
0.000679331
2.80926e-07
0.000679597
2.501e-07
0.000679829
2.15657e-07
0.000680026
1.78491e-07
0.000680183
1.37059e-07
0.000680297
9.28806e-08
0.000680363
4.35949e-08
0.00068038
-8.25517e-09
0.00068034
-6.78402e-08
0.000680241
-1.29602e-07
0.000680074
-1.99932e-07
0.000679838
-2.71976e-07
0.000679523
-3.55575e-07
0.000679127
-4.3941e-07
0.000678637
-5.39218e-07
0.000678054
-6.36426e-07
0.000677358
-7.56363e-07
0.000676555
-8.68568e-07
0.000675617
-1.01399e-06
0.000674555
-1.14259e-06
0.000673329
-1.32082e-06
0.000671963
-1.46622e-06
-1.68689e-06
0.000670396
0.000666681
7.2556e-11
0.000666723
2.23576e-10
0.000666795
3.79704e-10
0.000666894
5.40873e-10
0.000667021
7.06641e-10
0.000667175
8.76289e-10
0.000667356
1.04914e-09
0.000667563
1.22474e-09
0.000667794
1.40272e-09
0.00066805
1.58272e-09
0.000668328
1.7643e-09
0.000668629
1.94705e-09
0.000668949
2.13064e-09
0.000669289
2.31479e-09
0.000669647
2.49927e-09
0.000670021
2.68381e-09
0.00067041
2.8682e-09
0.000670813
3.05223e-09
0.000671227
3.23576e-09
0.000671651
3.41871e-09
0.000672084
3.60101e-09
0.000672524
3.78263e-09
0.000672968
3.96355e-09
0.000673416
4.14379e-09
0.000673865
4.32342e-09
0.000674314
4.50257e-09
0.00067476
4.68135e-09
0.000675202
4.85996e-09
0.000675638
5.03854e-09
0.000676065
5.2173e-09
0.000676481
5.39647e-09
0.000676885
5.57632e-09
0.000677273
5.75715e-09
0.000677644
5.93934e-09
0.000677994
6.12323e-09
0.000678322
6.30914e-09
0.000678625
6.4973e-09
0.000678899
6.68794e-09
0.000679142
6.88149e-09
0.000679351
7.07888e-09
0.000679522
7.2821e-09
0.000679652
7.49513e-09
0.000679737
7.72648e-09
0.000679772
7.97312e-09
0.000679756
8.22841e-09
0.00067968
8.47103e-09
0.000679541
8.71773e-09
0.000679332
8.97509e-09
0.000679051
9.24836e-09
0.000678686
9.53502e-09
0.000678237
9.83712e-09
0.000677687
1.01512e-08
0.00067704
1.04832e-08
0.000676273
1.08288e-08
0.000675394
1.11964e-08
0.000674368
1.15789e-08
0.000673213
1.19873e-08
0.00067188
1.24107e-08
0.000670401
1.28636e-08
1.3331e-08
0.000668701
0.000666681
-1.41173e-08
0.000666723
-4.24077e-08
0.000666795
-7.07034e-08
0.000666894
-9.8726e-08
0.000667021
-1.26339e-07
0.000667175
-1.53415e-07
0.000667356
-1.79833e-07
0.000667563
-2.05479e-07
0.000667794
-2.30246e-07
0.00066805
-2.54033e-07
0.000668329
-2.7675e-07
0.000668629
-2.98309e-07
0.00066895
-3.18632e-07
0.00066929
-3.37647e-07
0.000669647
-3.55289e-07
0.000670021
-3.71497e-07
0.000670411
-3.86218e-07
0.000670813
-3.99398e-07
0.000671227
-4.10996e-07
0.000671652
-4.20961e-07
0.000672084
-4.29261e-07
0.000672524
-4.35844e-07
0.000672969
-4.40684e-07
0.000673417
-4.43722e-07
0.000673866
-4.44939e-07
0.000674315
-4.44264e-07
0.000674761
-4.41685e-07
0.000675203
-4.37106e-07
0.000675639
-4.30532e-07
0.000676066
-4.21828e-07
0.000676482
-4.11024e-07
0.000676886
-3.97925e-07
0.000677274
-3.82607e-07
0.000677645
-3.64783e-07
0.000677995
-3.44608e-07
0.000678323
-3.21653e-07
0.000678626
-2.96207e-07
0.0006789
-2.67619e-07
0.000679144
-2.36405e-07
0.000679352
-2.01568e-07
0.000679524
-1.64002e-07
0.000679653
-1.22166e-07
0.000679739
-7.75883e-08
0.000679774
-2.79342e-08
0.000679758
2.47833e-08
0.000679682
8.46874e-08
0.000679543
1.46933e-07
0.000679335
2.17781e-07
0.000679054
2.90371e-07
0.000678689
3.74534e-07
0.000678239
4.58965e-07
0.00067769
5.59392e-07
0.000677043
6.57259e-07
0.000676276
7.77877e-07
0.000675397
8.90813e-07
0.000674371
1.03698e-06
0.000673217
1.1664e-06
0.000671884
1.34547e-06
0.000670405
1.49177e-06
1.71336e-06
0.000668705
0.000666681
-2.87553e-08
0.000666725
-8.63883e-08
0.000666799
-1.44035e-07
0.000666901
-2.01124e-07
0.000667032
-2.57374e-07
0.000667191
-3.12522e-07
0.000667378
-3.66321e-07
0.000667591
-4.18537e-07
0.000667829
-4.68951e-07
0.000668093
-5.17362e-07
0.00066838
-5.63584e-07
0.000668689
-6.07444e-07
0.000669019
-6.48788e-07
0.000669369
-6.87474e-07
0.000669737
-7.23375e-07
0.000670122
-7.56372e-07
0.000670522
-7.86365e-07
0.000670936
-8.13252e-07
0.000671362
-8.36955e-07
0.000671798
-8.57379e-07
0.000672243
-8.74462e-07
0.000672695
-8.88109e-07
0.000673153
-8.9827e-07
0.000673614
-9.04839e-07
0.000674077
-9.07779e-07
0.00067454
-9.06954e-07
0.000675
-9.02344e-07
0.000675457
-8.9377e-07
0.000675908
-8.81236e-07
0.00067635
-8.64492e-07
0.000676783
-8.43586e-07
0.000677203
-8.1816e-07
0.000677609
-7.88341e-07
0.000677998
-7.53604e-07
0.000678367
-7.14214e-07
0.000678715
-6.69389e-07
0.000679039
-6.19627e-07
0.000679335
-5.63751e-07
0.000679601
-5.02655e-07
0.000679834
-4.34537e-07
0.000680031
-3.60962e-07
0.000680188
-2.79157e-07
0.000680302
-1.91812e-07
0.000680369
-9.47052e-08
0.000680386
7.27308e-09
0.000680346
1.24575e-07
0.000680247
2.46302e-07
0.000680081
3.84156e-07
0.000679845
5.26012e-07
0.00067953
6.89456e-07
0.000679135
8.54404e-07
0.000678645
1.04893e-06
0.000678062
1.24009e-06
0.000677367
1.47298e-06
0.000676564
1.69362e-06
0.000675627
1.97477e-06
0.000674565
2.22786e-06
0.00067334
2.57069e-06
0.000671974
2.85752e-06
3.2794e-06
0.000670408
0.000666682
-4.4316e-08
0.000666729
-1.33149e-07
0.000666807
-2.21998e-07
0.000666916
-3.09969e-07
0.000667055
-3.96617e-07
0.000667224
-4.81529e-07
0.000667422
-5.64317e-07
0.000667648
-6.44617e-07
0.000667901
-7.22094e-07
0.00066818
-7.96439e-07
0.000668484
-8.67373e-07
0.000668811
-9.34639e-07
0.000669161
-9.98012e-07
0.00066953
-1.05728e-06
0.000669919
-1.11228e-06
0.000670326
-1.16283e-06
0.000670748
-1.20879e-06
0.000671185
-1.25003e-06
0.000671634
-1.28645e-06
0.000672095
-1.31791e-06
0.000672565
-1.34434e-06
0.000673042
-1.36561e-06
0.000673526
-1.38166e-06
0.000674013
-1.39234e-06
0.000674503
-1.39761e-06
0.000674993
-1.39729e-06
0.000675482
-1.39134e-06
0.000675968
-1.37954e-06
0.000676449
-1.36187e-06
0.000676922
-1.33801e-06
0.000677387
-1.308e-06
0.00067784
-1.27137e-06
0.00067828
-1.22827e-06
0.000678704
-1.17801e-06
0.000679111
-1.12088e-06
0.000679497
-1.05591e-06
0.000679861
-9.83639e-07
0.0006802
-9.02608e-07
0.000680511
-8.13842e-07
0.000680792
-7.15107e-07
0.000681039
-6.08225e-07
0.00068125
-4.89765e-07
0.000681421
-3.6288e-07
0.000681549
-2.22301e-07
0.000681629
-7.36249e-08
0.000681661
9.35188e-08
0.000681637
2.70249e-07
0.000681552
4.68485e-07
0.000681404
6.73886e-07
0.000681186
9.0788e-07
0.000680894
1.14647e-06
0.000680519
1.42369e-06
0.000680059
1.70009e-06
0.000679502
2.0302e-06
0.000678846
2.34937e-06
0.000678076
2.74525e-06
0.000677192
3.11197e-06
0.000676171
3.59084e-06
0.000675021
4.00811e-06
4.59174e-06
0.000673709
0.000666684
-6.13356e-08
0.000666735
-1.8431e-07
0.00066682
-3.07288e-07
0.000666939
-4.29001e-07
0.000667091
-5.48811e-07
0.000667276
-6.66125e-07
0.000667492
-7.80392e-07
0.000667739
-8.91101e-07
0.000668014
-9.97789e-07
0.000668318
-1.10004e-06
0.000668648
-1.19747e-06
0.000669003
-1.28976e-06
0.000669382
-1.37662e-06
0.000669782
-1.45778e-06
0.000670203
-1.53304e-06
0.000670642
-1.60219e-06
0.000671099
-1.66509e-06
0.00067157
-1.72156e-06
0.000672055
-1.7715e-06
0.000672552
-1.81478e-06
0.000673059
-1.8513e-06
0.000673574
-1.88095e-06
0.000674096
-1.90363e-06
0.000674623
-1.91921e-06
0.000675153
-1.92763e-06
0.000675685
-1.9287e-06
0.000676216
-1.92236e-06
0.000676744
-1.90838e-06
0.000677269
-1.8867e-06
0.000677788
-1.857e-06
0.0006783
-1.81926e-06
0.000678801
-1.77301e-06
0.000679291
-1.7183e-06
0.000679768
-1.65446e-06
0.000680228
-1.58166e-06
0.000680671
-1.49894e-06
0.000681094
-1.40668e-06
0.000681495
-1.30346e-06
0.000681872
-1.19008e-06
0.000682221
-1.0644e-06
0.000682541
-9.27883e-07
0.000682828
-7.77307e-07
0.00068308
-6.1531e-07
0.000683295
-4.36944e-07
0.000683468
-2.46878e-07
0.0006836
-3.81309e-08
0.000683684
1.86708e-07
0.000683716
4.3614e-07
0.000683693
6.97223e-07
0.000683611
9.89775e-07
0.000683465
1.2926e-06
0.000683251
1.63687e-06
0.000682964
1.98756e-06
0.0006826
2.39433e-06
0.00068215
2.79957e-06
0.000681612
3.28279e-06
0.000680974
3.7496e-06
0.000680238
4.32748e-06
0.000679384
4.86172e-06
5.55639e-06
0.00067842
0.000666686
-8.04603e-08
0.000666743
-2.41825e-07
0.000666839
-4.03155e-07
0.000666973
-5.62721e-07
0.000667144
-7.19635e-07
0.000667351
-8.73081e-07
0.000667593
-1.0223e-06
0.000667868
-1.16662e-06
0.000668176
-1.30543e-06
0.000668514
-1.4382e-06
0.000668881
-1.56446e-06
0.000669275
-1.68384e-06
0.000669694
-1.79599e-06
0.000670137
-1.90063e-06
0.000670602
-1.99754e-06
0.000671086
-2.08653e-06
0.000671588
-2.16743e-06
0.000672107
-2.24013e-06
0.00067264
-2.30449e-06
0.000673186
-2.36044e-06
0.000673742
-2.40787e-06
0.000674308
-2.4467e-06
0.000674881
-2.47684e-06
0.00067546
-2.4982e-06
0.000676043
-2.51069e-06
0.000676629
-2.51416e-06
0.000677215
-2.50852e-06
0.0006778
-2.49359e-06
0.000678383
-2.46924e-06
0.000678961
-2.43522e-06
0.000679533
-2.39139e-06
0.000680097
-2.3374e-06
0.000680652
-2.2731e-06
0.000681196
-2.19803e-06
0.000681726
-2.11204e-06
0.000682242
-2.01447e-06
0.00068274
-1.90526e-06
0.00068322
-1.78346e-06
0.000683679
-1.64914e-06
0.000684116
-1.50096e-06
0.000684527
-1.33928e-06
0.000684912
-1.16209e-06
0.000685267
-9.7032e-07
0.000685591
-7.60986e-07
0.00068588
-5.36027e-07
0.000686133
-2.91119e-07
0.000686351
-3.11058e-08
0.000686528
2.59305e-07
0.000686658
5.66949e-07
0.000686744
9.03895e-07
0.000686777
1.2598e-06
0.000686761
1.65289e-06
0.000686683
2.06493e-06
0.000686553
2.52456e-06
0.000686352
3.00115e-06
0.000686094
3.54033e-06
0.000685752
4.09116e-06
0.000685354
4.72617e-06
0.000684855
5.36097e-06
6.10998e-06
0.000684301
0.000666689
-1.02526e-07
0.000666755
-3.0823e-07
0.000666866
-5.13803e-07
0.00066702
-7.16915e-07
0.000667217
-9.16336e-07
0.000667455
-1.11095e-06
0.000667732
-1.29975e-06