/*--------------------------------*- C++ -*----------------------------------*\
| =========                 |                                                 |
| \\      /  F ield         | OpenFOAM: The Open Source CFD Toolbox           |
|  \\    /   O peration     | Version:  2312                                  |
|   \\  /    A nd           | Website:  www.openfoam.com                      |
|    \\/     M anipulation  |                                                 |
\*---------------------------------------------------------------------------*/
FoamFile
{
    version     2.0;
    format      ascii;
    arch        "LSB;label=32;scalar=64";
    class       volScalarField;
    location    "7000";
    object      p;
}
// * * * * * * * * * * * * * * * * * * * * * * * * * * * * * * * * * * * * * //

dimensions      [0 2 -2 0 0 0 0];

internalField   nonuniform List<scalar> 
2715
(
5.00423e-07
4.43648e-07
4.14412e-07
3.93334e-07
3.75018e-07
3.57745e-07
3.40945e-07
3.23618e-07
3.04411e-07
2.82172e-07
2.56689e-07
2.2919e-07
2.00307e-07
1.72259e-07
1.44638e-07
1.20883e-07
9.86124e-08
8.26818e-08
6.82646e-08
6.13634e-08
5.53622e-08
5.62239e-08
5.69806e-08
6.34349e-08
6.72672e-08
7.76144e-08
7.79354e-08
9.21424e-08
8.70145e-08
4.13763e-08
4.79658e-07
4.21983e-07
3.9966e-07
3.83927e-07
3.67766e-07
3.51169e-07
3.34678e-07
3.17775e-07
2.98591e-07
2.76439e-07
2.51373e-07
2.24729e-07
1.969e-07
1.70217e-07
1.43711e-07
1.21047e-07
9.93623e-08
8.40695e-08
6.95998e-08
6.2515e-08
5.60727e-08
5.6088e-08
5.63685e-08
6.14749e-08
6.51375e-08
7.43322e-08
7.74383e-08
8.44955e-08
9.48761e-08
3.7271e-08
4.63092e-07
4.19213e-07
3.99948e-07
3.84852e-07
3.68103e-07
3.50531e-07
3.33166e-07
3.15282e-07
2.95544e-07
2.73189e-07
2.48206e-07
2.21902e-07
1.94452e-07
1.68162e-07
1.41962e-07
1.19952e-07
9.85736e-08
8.37069e-08
6.9476e-08
6.23953e-08
5.62669e-08
5.56999e-08
5.64491e-08
6.09058e-08
6.5261e-08
7.19446e-08
7.79774e-08
7.9404e-08
9.89141e-08
6.52047e-08
4.50709e-07
4.15391e-07
3.9519e-07
3.80209e-07
3.64021e-07
3.47083e-07
3.29989e-07
3.11806e-07
2.91394e-07
2.68603e-07
2.43521e-07
2.17452e-07
1.90337e-07
1.64641e-07
1.39032e-07
1.17577e-07
9.6807e-08
8.21584e-08
6.85709e-08
6.12275e-08
5.58819e-08
5.46204e-08
5.62027e-08
5.94157e-08
6.51703e-08
6.99085e-08
7.91653e-08
7.80017e-08
9.82176e-08
8.06538e-08
4.3974e-07
4.11797e-07
3.92333e-07
3.78096e-07
3.62862e-07
3.45914e-07
3.27877e-07
3.08605e-07
2.8736e-07
2.64118e-07
2.3891e-07
2.12965e-07
1.86139e-07
1.60751e-07
1.3566e-07
1.14345e-07
9.42505e-08
7.94899e-08
6.68144e-08
5.90537e-08
5.46224e-08
5.294e-08
5.51751e-08
5.80192e-08
6.4658e-08
6.86352e-08
7.90106e-08
7.94603e-08
9.43102e-08
9.08817e-08
4.30666e-07
4.08818e-07
3.90449e-07
3.75728e-07
3.6035e-07
3.43305e-07
3.24857e-07
3.04949e-07
2.83064e-07
2.59424e-07
2.34054e-07
2.08121e-07
1.81467e-07
1.56188e-07
1.3154e-07
1.10242e-07
9.09227e-08
7.58723e-08
6.4183e-08
5.61553e-08
5.23285e-08
5.071e-08
5.32157e-08
5.61693e-08
6.32455e-08
6.75643e-08
7.75569e-08
8.09116e-08
9.136e-08
9.50082e-08
4.23664e-07
4.06158e-07
3.88682e-07
3.7335e-07
3.57766e-07
3.40589e-07
3.21745e-07
3.01201e-07
2.78658e-07
2.54573e-07
2.28977e-07
2.02949e-07
1.76406e-07
1.51098e-07
1.2692e-07
1.05478e-07
8.69074e-08
7.16344e-08
6.06101e-08
5.26088e-08
4.8978e-08
4.77955e-08
5.03103e-08
5.36566e-08
6.09093e-08
6.60584e-08
7.52457e-08
8.11778e-08
8.95527e-08
9.55318e-08
4.18489e-07
4.03551e-07
3.86896e-07
3.71127e-07
3.55121e-07
3.37631e-07
3.18323e-07
2.97173e-07
2.74008e-07
2.49465e-07
2.23616e-07
1.97405e-07
1.70928e-07
1.45467e-07
1.21699e-07
1.00044e-07
8.2072e-08
6.66922e-08
5.60161e-08
4.83198e-08
4.45977e-08
4.39776e-08
4.65183e-08
5.02522e-08
5.76534e-08
6.3795e-08
7.23587e-08
8.0032e-08
8.79692e-08
9.48223e-08
4.14709e-07
4.00998e-07
3.85023e-07
3.68967e-07
3.52412e-07
3.34417e-07
3.14569e-07
2.92856e-07
2.6911e-07
2.44071e-07
2.17925e-07
1.91425e-07
1.6497e-07
1.39243e-07
1.15794e-07
9.39292e-08
7.63294e-08
6.10212e-08
5.03615e-08
4.31377e-08
3.92357e-08
3.90567e-08
4.18257e-08
4.58576e-08
5.34456e-08
6.05781e-08
6.89448e-08
7.75773e-08
8.60593e-08
9.32002e-08
4.11854e-07
3.98578e-07
3.83035e-07
3.66754e-07
3.49601e-07
3.30958e-07
3.10502e-07
2.88239e-07
2.63929e-07
2.38325e-07
2.11819e-07
1.8492e-07
1.5844e-07
1.32367e-07
1.09105e-07
8.70816e-08
6.95817e-08
5.45049e-08
4.36178e-08
3.68737e-08
3.28899e-08
3.29009e-08
3.60931e-08
4.04193e-08
4.81493e-08
5.62514e-08
6.48203e-08
7.40385e-08
8.32876e-08
9.09572e-08
4.09523e-07
3.96343e-07
3.80939e-07
3.6437e-07
3.46617e-07
3.27268e-07
3.06133e-07
2.83279e-07
2.58389e-07
2.32133e-07
2.05192e-07
1.77788e-07
1.51215e-07
1.24757e-07
1.01507e-07
7.94148e-08
6.17431e-08
4.69949e-08
3.57562e-08
2.9348e-08
2.54957e-08
2.54501e-08
2.91137e-08
3.38422e-08
4.16472e-08
5.06382e-08
5.97719e-08
6.94328e-08
7.95062e-08
8.78989e-08
4.07462e-07
3.94267e-07
3.78738e-07
3.61748e-07
3.43397e-07
3.23337e-07
3.01441e-07
2.77895e-07
2.52389e-07
2.25397e-07
1.97934e-07
1.69928e-07
1.43155e-07
1.16319e-07
9.28757e-08
7.0808e-08
5.27436e-08
3.83142e-08
2.67726e-08
2.04115e-08
1.68803e-08
1.6654e-08
2.06565e-08
2.59491e-08
3.38187e-08
4.35426e-08
5.35168e-08
6.36751e-08
7.45333e-08
8.38085e-08
4.05542e-07
3.92242e-07
3.76409e-07
3.5887e-07
3.39889e-07
3.19109e-07
2.9637e-07
2.7199e-07
2.45814e-07
2.18009e-07
1.8992e-07
1.61227e-07
1.34098e-07
1.0693e-07
8.30723e-08
6.10943e-08
4.2515e-08
2.82716e-08
1.65775e-08
9.95171e-09
6.80135e-09
6.42808e-09
1.05303e-08
1.64843e-08
2.45119e-08
3.4772e-08
4.57353e-08
5.65832e-08
6.81798e-08
7.84536e-08
4.03686e-07
3.90149e-07
3.73917e-07
3.55734e-07
3.36035e-07
3.14484e-07
2.90829e-07
2.6546e-07
2.38519e-07
2.09833e-07
1.81e-07
1.51552e-07
1.2387e-07
9.6431e-08
7.19702e-08
5.00766e-08
3.09868e-08
1.6681e-08
5.00888e-09
-2.11854e-09
-5.01269e-09
-5.39115e-09
-1.43407e-09
5.12588e-09
1.34879e-08
2.41201e-08
3.6081e-08
4.78365e-08
6.02135e-08
7.1483e-08
4.0185e-07
3.87906e-07
3.71218e-07
3.52325e-07
3.3177e-07
3.09335e-07
2.84694e-07
2.58178e-07
2.30326e-07
2.00695e-07
1.70991e-07
1.40744e-07
1.12296e-07
8.46201e-08
5.94467e-08
3.75242e-08
1.80374e-08
3.36929e-09
-8.179e-09
-1.58741e-08
-1.88037e-08
-1.90697e-08
-1.54125e-08
-8.4643e-09
4.02029e-10
1.13402e-08
2.4173e-08
3.70215e-08
5.02937e-08
6.25962e-08
4.00047e-07
3.85494e-07
3.68274e-07
3.48595e-07
3.2701e-07
3.03509e-07
2.77791e-07
2.4999e-07
2.21026e-07
1.90379e-07
1.59666e-07
1.28593e-07
9.91848e-08
7.12337e-08
4.53511e-08
2.31823e-08
3.46285e-09
-1.18034e-08
-2.32807e-08
-3.14561e-08
-3.47828e-08
-3.49203e-08
-3.16293e-08
-2.46234e-08
-1.52004e-08
-3.91873e-09
9.60546e-09
2.36056e-08
3.79377e-08
5.12602e-08
3.98324e-07
3.82936e-07
3.65021e-07
3.44437e-07
3.21634e-07
2.96826e-07
2.69887e-07
2.4069e-07
2.10379e-07
1.78613e-07
1.46747e-07
1.1482e-07
8.43206e-08
5.5952e-08
2.94631e-08
6.79234e-09
-1.30379e-08
-2.89842e-08
-4.06075e-08
-4.9115e-08
-5.31159e-08
-5.33595e-08
-5.03798e-08
-4.36896e-08
-3.38795e-08
-2.21626e-08
-8.09627e-09
6.97482e-09
2.25067e-08
3.69273e-08
3.96702e-07
3.80231e-07
3.61358e-07
3.39668e-07
3.15452e-07
2.89066e-07
2.60683e-07
2.29986e-07
1.98095e-07
1.6506e-07
1.31897e-07
9.9062e-08
6.74405e-08
3.84166e-08
1.14546e-08
-1.19053e-08
-3.18606e-08
-4.84019e-08
-6.04651e-08
-6.92109e-08
-7.40039e-08
-7.47066e-08
-7.20491e-08
-6.59251e-08
-5.619e-08
-4.41034e-08
-2.95845e-08
-1.35951e-08
3.21191e-09
1.87671e-08
3.95103e-07
3.77273e-07
3.57083e-07
3.34006e-07
3.0817e-07
2.79939e-07
2.49799e-07
2.17469e-07
1.83799e-07
1.49295e-07
1.14705e-07
8.08523e-08
4.81779e-08
1.82516e-08
-9.11632e-09
-3.31943e-08
-5.34412e-08
-7.04147e-08
-8.31586e-08
-9.22274e-08
-9.77566e-08
-9.93232e-08
-9.71855e-08
-9.17811e-08
-8.25488e-08
-7.04684e-08
-5.57413e-08
-3.90818e-08
-2.10451e-08
-4.0165e-09
3.93352e-07
3.73878e-07
3.51945e-07
3.2712e-07
2.99394e-07
2.69054e-07
2.36782e-07
2.0259e-07
1.66986e-07
1.30788e-07
9.46525e-08
5.96103e-08
2.59969e-08
-4.94812e-09
-3.2783e-08
-5.74508e-08
-7.81867e-08
-9.5502e-08
-1.09003e-07
-1.18692e-07
-1.24908e-07
-1.27577e-07
-1.26378e-07
-1.21896e-07
-1.13644e-07
-1.02084e-07
-8.73573e-08
-7.05663e-08
-5.17802e-08
-3.3616e-08
3.91165e-07
3.69709e-07
3.45611e-07
3.18576e-07
2.88577e-07
2.55834e-07
2.21044e-07
1.84635e-07
1.46942e-07
1.08839e-07
7.10549e-08
3.46389e-08
1.38795e-10
-3.17332e-08
-6.01487e-08
-8.52328e-08
-1.06502e-07
-1.24199e-07
-1.38378e-07
-1.49003e-07
-1.56112e-07
-1.60035e-07
-1.60243e-07
-1.57112e-07
-1.50275e-07
-1.40006e-07
-1.26059e-07
-1.0952e-07
-9.05282e-08
-7.1687e-08
3.88239e-07
3.64437e-07
3.3767e-07
3.07814e-07
2.74991e-07
2.39448e-07
2.01781e-07
1.62714e-07
1.22702e-07
8.25125e-08
4.29965e-08
5.10374e-09
-3.03384e-08
-6.29304e-08
-9.19141e-08
-1.17295e-07
-1.38941e-07
-1.57066e-07
-1.71819e-07
-1.83497e-07
-1.91861e-07
-1.97336e-07
-1.99432e-07
-1.98347e-07
-1.93562e-07
-1.85381e-07
-1.73183e-07
-1.5788e-07
-1.39546e-07
-1.20873e-07
3.83786e-07
3.57134e-07
3.27117e-07
2.93798e-07
2.57514e-07
2.1866e-07
1.77763e-07
1.35627e-07
9.2978e-08
5.05376e-08
9.22161e-09
-3.01158e-08
-6.65331e-08
-9.96575e-08
-1.28989e-07
-1.54525e-07
-1.76291e-07
-1.94736e-07
-2.1e-07
-2.22694e-07
-2.32572e-07
-2.40037e-07
-2.44559e-07
-2.46366e-07
-2.44659e-07
-2.39759e-07
-2.30733e-07
-2.18263e-07
-2.02105e-07
-1.8508e-07
3.76913e-07
3.46561e-07
3.12434e-07
2.74846e-07
2.34363e-07
1.91566e-07
1.47037e-07
1.01528e-07
5.59515e-08
1.11258e-08
-3.20042e-08
-7.26297e-08
-1.09863e-07
-1.43291e-07
-1.726e-07
-1.97947e-07
-2.1949e-07
-2.37922e-07
-2.53538e-07
-2.67136e-07
-2.78676e-07
-2.88556e-07
-2.96228e-07
-3.0186e-07
-3.04588e-07
-3.04596e-07
-3.00885e-07
-2.93771e-07
-2.82816e-07
-2.70318e-07
3.66528e-07
3.31996e-07
2.92776e-07
2.49694e-07
2.0387e-07
1.56182e-07
1.07336e-07
5.80572e-08
9.27299e-09
-3.80678e-08
-8.29861e-08
-1.24658e-07
-1.62341e-07
-1.95625e-07
-2.24388e-07
-2.48918e-07
-2.69681e-07
-2.87446e-07
-3.02944e-07
-3.16962e-07
-3.30059e-07
-3.42517e-07
-3.54241e-07
-3.64779e-07
-3.73697e-07
-3.80464e-07
-3.84948e-07
-3.86449e-07
-3.85564e-07
-3.82697e-07
3.46564e-07
3.04797e-07
2.59679e-07
2.11155e-07
1.59827e-07
1.06806e-07
5.3207e-08
-2.43521e-11
-5.19528e-08
-1.01551e-07
-1.47834e-07
-1.89919e-07
-2.27235e-07
-2.59432e-07
-2.86693e-07
-3.09371e-07
-3.28391e-07
-3.44454e-07
-3.58864e-07
-3.72177e-07
-3.85774e-07
-3.99773e-07
-4.15461e-07
-4.31709e-07
-4.4902e-07
-4.64846e-07
-4.80541e-07
-4.93588e-07
-5.07394e-07
-5.19518e-07
3.28396e-07
2.80468e-07
2.24478e-07
1.64775e-07
1.04154e-07
4.38601e-08
-1.55008e-08
-7.32889e-08
-1.28681e-07
-1.80609e-07
-2.28063e-07
-2.70106e-07
-3.06301e-07
-3.36454e-07
-3.61091e-07
-3.80812e-07
-3.96939e-07
-4.10291e-07
-4.22411e-07
-4.33693e-07
-4.45551e-07
-4.57957e-07
-4.72996e-07
-4.90942e-07
-5.14734e-07
-5.41414e-07
-5.71105e-07
-5.98182e-07
-6.27732e-07
-6.54171e-07
2.5587e-07
1.94506e-07
1.31916e-07
6.75382e-08
1.7774e-09
-6.40974e-08
-1.28583e-07
-1.90236e-07
-2.47779e-07
-3.00003e-07
-3.45906e-07
-3.84699e-07
-4.16101e-07
-4.4031e-07
-4.58241e-07
-4.71298e-07
-4.81339e-07
-4.89812e-07
-4.97959e-07
-5.05866e-07
-5.13444e-07
-5.2007e-07
-5.26188e-07
-5.33285e-07
-5.46358e-07
-5.70217e-07
-6.0543e-07
-6.46007e-07
-6.88924e-07
-7.20334e-07
2.26306e-07
1.52166e-07
7.01602e-08
-1.20805e-08
-9.09159e-08
-1.65723e-07
-2.36527e-07
-3.02753e-07
-3.63237e-07
-4.16585e-07
-4.61553e-07
-4.97248e-07
-5.23298e-07
-5.39974e-07
-5.48296e-07
-5.50216e-07
-5.48598e-07
-5.47604e-07
-5.51375e-07
-5.59546e-07
-5.6905e-07
-5.75026e-07
-5.72789e-07
-5.60737e-07
-5.41255e-07
-5.19938e-07
-5.08591e-07
-5.13642e-07
-5.42073e-07
-5.70172e-07
-3.79273e-08
-1.23366e-07
-2.10949e-07
-2.9924e-07
-3.83724e-07
-4.60847e-07
-5.28696e-07
-5.86207e-07
-6.32497e-07
-6.66726e-07
-6.88294e-07
-6.97087e-07
-6.93661e-07
-6.79341e-07
-6.5622e-07
-6.2733e-07
-5.96449e-07
-5.68135e-07
-5.4618e-07
-5.34546e-07
-5.34312e-07
-5.43686e-07
-5.57639e-07
-5.71222e-07
-5.81779e-07
-5.90443e-07
-5.98971e-07
-6.1048e-07
-6.27374e-07
-6.47682e-07
4.12477e-07
4.11801e-07
4.11415e-07
4.11177e-07
4.10903e-07
4.10422e-07
4.09445e-07
4.07384e-07
4.0357e-07
3.96576e-07
3.8417e-07
3.66451e-07
3.152e-07
2.83827e-07
5.09868e-08
-1.23207e-07
-2.10786e-07
-2.99073e-07
-3.83552e-07
-4.60671e-07
-5.28517e-07
-5.86025e-07
-6.32312e-07
-6.66539e-07
-6.88104e-07
-6.96894e-07
-6.93466e-07
-6.79144e-07
-6.56021e-07
-6.2713e-07
-5.96249e-07
-5.67936e-07
-5.45982e-07
-5.34352e-07
-5.34122e-07
-5.43503e-07
-5.5746e-07
-5.71043e-07
-5.81597e-07
-5.90257e-07
-5.98786e-07
-6.10304e-07
-6.27215e-07
-6.47536e-07
1.52278e-07
7.02775e-08
-1.19578e-08
-9.07882e-08
-1.65591e-07
-2.36389e-07
-3.0261e-07
-3.63089e-07
-4.16432e-07
-4.61395e-07
-4.97086e-07
-5.2313e-07
-5.39802e-07
-5.4812e-07
-5.50036e-07
-5.48415e-07
-5.47419e-07
-5.51188e-07
-5.59358e-07
-5.6886e-07
-5.74833e-07
-5.72589e-07
-5.60525e-07
-5.41025e-07
-5.19697e-07
-5.08352e-07
-5.13413e-07
-5.41945e-07
-5.70053e-07
1.94606e-07
1.32021e-07
6.7649e-08
1.89405e-09
-6.39755e-08
-1.28457e-07
-1.90105e-07
-2.47643e-07
-2.99863e-07
-3.45761e-07
-3.8455e-07
-4.15949e-07
-4.40153e-07
-4.58081e-07
-4.71136e-07
-4.81173e-07
-4.89645e-07
-4.9779e-07
-5.05696e-07
-5.13272e-07
-5.19895e-07
-5.2601e-07
-5.33104e-07
-5.4618e-07
-5.70047e-07
-6.05271e-07
-6.45861e-07
-6.88785e-07
-7.20187e-07
2.80549e-07
2.24567e-07
1.6487e-07
1.04254e-07
4.39656e-08
-1.53903e-08
-7.31736e-08
-1.28561e-07
-1.80484e-07
-2.27934e-07
-2.69973e-07
-3.06165e-07
-3.36314e-07
-3.60947e-07
-3.80666e-07
-3.96791e-07
-4.10141e-07
-4.2226e-07
-4.33541e-07
-4.45399e-07
-4.57805e-07
-4.72845e-07
-4.90795e-07
-5.14594e-07
-5.41285e-07
-5.70987e-07
-5.98077e-07
-6.27644e-07
-6.54106e-07
3.04871e-07
2.59757e-07
2.11238e-07
1.59916e-07
1.06901e-07
5.3307e-08
8.05109e-11
-5.18432e-08
-1.01437e-07
-1.47716e-07
-1.89797e-07
-2.2711e-07
-2.59303e-07
-2.86562e-07
-3.09238e-07
-3.28256e-07
-3.44318e-07
-3.58727e-07
-3.72041e-07
-3.85639e-07
-3.99641e-07
-4.15334e-07
-4.31587e-07
-4.48907e-07
-4.64744e-07
-4.80452e-07
-4.93514e-07
-5.07339e-07
-5.19483e-07
3.3206e-07
2.92845e-07
2.49769e-07
2.0395e-07
1.56267e-07
1.07426e-07
5.81527e-08
9.3731e-09
-3.79634e-08
-8.28776e-08
-1.24546e-07
-1.62226e-07
-1.95507e-07
-2.24268e-07
-2.48796e-07
-2.69557e-07
-2.87322e-07
-3.0282e-07
-3.1684e-07
-3.29939e-07
-3.42402e-07
-3.54131e-07
-3.64675e-07
-3.73602e-07
-3.80379e-07
-3.84875e-07
-3.86389e-07
-3.85517e-07
-3.82662e-07
3.46619e-07
3.12496e-07
2.74913e-07
2.34436e-07
1.91644e-07
1.4712e-07
1.01616e-07
5.60436e-08
1.12222e-08
-3.19041e-08
-7.25261e-08
-1.09757e-07
-1.43182e-07
-1.72489e-07
-1.97835e-07
-2.19376e-07
-2.37808e-07
-2.53425e-07
-2.67026e-07
-2.78569e-07
-2.88454e-07
-2.96131e-07
-3.0177e-07
-3.04505e-07
-3.04522e-07
-3.00821e-07
-2.93716e-07
-2.8277e-07
-2.7028e-07
3.57186e-07
3.27174e-07
2.9386e-07
2.57581e-07
2.18731e-07
1.7784e-07
1.35708e-07
9.30634e-08
5.06271e-08
9.31473e-09
-3.00196e-08
-6.64344e-08
-9.95565e-08
-1.28886e-07
-1.5442e-07
-1.76186e-07
-1.94631e-07
-2.09897e-07
-2.22595e-07
-2.32476e-07
-2.39945e-07
-2.44473e-07
-2.46286e-07
-2.44586e-07
-2.39693e-07
-2.30674e-07
-2.18211e-07
-2.02059e-07
-1.85039e-07
3.64486e-07
3.37723e-07
3.07871e-07
2.75052e-07
2.39514e-07
2.01851e-07
1.6279e-07
1.22782e-07
8.2596e-08
4.30836e-08
5.19345e-09
-3.02464e-08
-6.28362e-08
-9.18181e-08
-1.17198e-07
-1.38844e-07
-1.56969e-07
-1.71725e-07
-1.83406e-07
-1.91774e-07
-1.97254e-07
-1.99354e-07
-1.98276e-07
-1.93496e-07
-1.85321e-07
-1.73128e-07
-1.57831e-07
-1.395e-07
-1.20832e-07
3.69754e-07
3.45659e-07
3.18629e-07
2.88634e-07
2.55896e-07
2.2111e-07
1.84706e-07
1.47017e-07
1.08917e-07
7.11367e-08
3.4723e-08
2.2523e-10
-3.16449e-08
-6.00587e-08
-8.51416e-08
-1.06411e-07
-1.24109e-07
-1.38291e-07
-1.4892e-07
-1.56033e-07
-1.59959e-07
-1.60173e-07
-1.57047e-07
-1.50215e-07
-1.3995e-07
-1.26008e-07
-1.09473e-07
-9.0485e-08
-7.16495e-08
3.73921e-07
3.51991e-07
3.2717e-07
2.99448e-07
2.69112e-07
2.36844e-07
2.02657e-07
1.67056e-07
1.30863e-07
9.47296e-08
5.96896e-08
2.60786e-08
-4.86476e-09
-3.26982e-08
-5.7365e-08
-7.81011e-08
-9.54184e-08
-1.08922e-07
-1.18615e-07
-1.24835e-07
-1.27508e-07
-1.26314e-07
-1.21836e-07
-1.13588e-07
-1.02032e-07
-8.73098e-08
-7.05235e-08
-5.17426e-08
-3.35852e-08
3.77314e-07
3.57127e-07
3.34053e-07
3.08221e-07
2.79994e-07
2.49858e-07
2.17532e-07
1.83865e-07
1.49366e-07
1.14778e-07
8.09279e-08
4.82556e-08
1.83306e-08
-9.03601e-09
-3.31133e-08
-5.33608e-08
-7.03365e-08
-8.30834e-08
-9.21561e-08
-9.76889e-08
-9.92595e-08
-9.71262e-08
-9.17252e-08
-8.24966e-08
-7.04213e-08
-5.56997e-08
-3.90456e-08
-2.10159e-08
-3.9973e-09
3.80271e-07
3.61401e-07
3.39713e-07
3.155e-07
2.89118e-07
2.60739e-07
2.30046e-07
1.98158e-07
1.65127e-07
1.31967e-07
9.91344e-08
6.75147e-08
3.84917e-08
1.15309e-08
-1.18285e-08
-3.17848e-08
-4.83283e-08
-6.03949e-08
-6.91443e-08
-7.39405e-08
-7.46475e-08
-7.19941e-08
-6.5873e-08
-5.61427e-08
-4.40611e-08
-2.95466e-08
-1.35609e-08
3.24338e-09
1.88013e-08
3.82975e-07
3.65062e-07
3.44481e-07
3.21681e-07
2.96875e-07
2.69941e-07
2.40747e-07
2.1044e-07
1.78678e-07
1.46814e-07
1.1489e-07
8.43915e-08
5.60237e-08
2.95361e-08
6.86529e-09
-1.2966e-08
-2.89146e-08
-4.05416e-08
-4.90523e-08
-5.30562e-08
-5.33047e-08
-5.03286e-08
-4.36414e-08
-3.3836e-08
-2.21238e-08
-8.06102e-09
7.00665e-09
2.25356e-08
3.69547e-08
3.85532e-07
3.68313e-07
3.48637e-07
3.27055e-07
3.03556e-07
2.77842e-07
2.50045e-07
2.21084e-07
1.9044e-07
1.5973e-07
1.28661e-07
9.92527e-08
7.13026e-08
4.54212e-08
2.32519e-08
3.53161e-09
-1.17372e-08
-2.32185e-08
-3.13966e-08
-3.47267e-08
-3.48692e-08
-3.15809e-08
-2.45782e-08
-1.51603e-08
-3.88254e-09
9.63846e-09
2.36346e-08
3.79634e-08
5.12843e-08
3.87943e-07
3.71257e-07
3.52366e-07
3.31814e-07
3.09381e-07
2.84743e-07
2.58231e-07
2.30382e-07
2.00754e-07
1.71053e-07
1.40809e-07
1.12362e-07
8.46868e-08
5.95142e-08
3.75908e-08
1.81034e-08
3.43209e-09
-8.11999e-09
-1.58173e-08
-1.87511e-08
-1.90218e-08
-1.53663e-08
-8.42225e-09
4.39439e-10
1.13746e-08
2.42037e-08
3.70473e-08
5.03157e-08
6.26141e-08
3.90185e-07
3.73954e-07
3.55774e-07
3.36078e-07
3.14529e-07
2.90877e-07
2.6551e-07
2.38573e-07
2.0989e-07
1.81061e-07
1.51615e-07
1.23933e-07
9.64958e-08
7.20351e-08
5.01407e-08
3.10504e-08
1.67406e-08
5.06518e-09
-2.06418e-09
-4.96306e-09
-5.34514e-09
-1.39008e-09
5.1651e-09
1.35237e-08
2.41533e-08
3.61093e-08
4.78596e-08
6.02332e-08
7.15005e-08
3.92277e-07
3.76446e-07
3.58909e-07
3.39931e-07
3.19152e-07
2.96416e-07
2.72039e-07
2.45866e-07
2.18064e-07
1.89979e-07
1.61288e-07
1.34159e-07
1.06993e-07
8.31348e-08
6.11564e-08
4.25763e-08
2.83284e-08
1.66316e-08
1.00036e-08
6.84878e-09
6.47287e-09
1.05722e-08
1.65214e-08
2.45468e-08
3.48037e-08
4.57612e-08
5.66043e-08
6.81983e-08
7.84699e-08
3.94301e-07
3.78773e-07
3.61786e-07
3.43438e-07
3.23379e-07
3.01487e-07
2.77943e-07
2.5244e-07
2.25451e-07
1.97991e-07
1.69987e-07
1.43214e-07
1.16381e-07
9.29362e-08
7.08684e-08
5.28025e-08
3.83688e-08
2.68252e-08
2.04611e-08
1.6926e-08
1.66977e-08
2.06964e-08
2.59849e-08
3.3853e-08
4.35723e-08
5.35407e-08
6.36951e-08
7.45507e-08
8.38238e-08
3.96376e-07
3.80974e-07
3.64408e-07
3.46656e-07
3.2731e-07
3.06177e-07
2.83326e-07
2.58438e-07
2.32186e-07
2.05247e-07
1.77846e-07
1.51273e-07
1.24817e-07
1.01566e-07
7.94738e-08
6.17997e-08
4.70478e-08
3.58073e-08
2.93956e-08
2.55401e-08
2.54928e-08
2.91519e-08
3.38772e-08
4.16806e-08
5.0666e-08
5.97946e-08
6.94523e-08
7.95226e-08
8.79136e-08
3.9861e-07
3.83069e-07
3.66791e-07
3.4964e-07
3.30999e-07
3.10545e-07
2.88285e-07
2.63977e-07
2.38376e-07
2.11873e-07
1.84976e-07
1.58497e-07
1.32425e-07
1.09162e-07
8.71393e-08
6.96364e-08
5.45566e-08
4.36678e-08
3.69198e-08
3.29336e-08
3.29424e-08
3.613e-08
4.04537e-08
4.81813e-08
5.62774e-08
6.48424e-08
7.40574e-08
8.33032e-08
9.0972e-08
4.0103e-07
3.85057e-07
3.69003e-07
3.52451e-07
3.34457e-07
3.14612e-07
2.92901e-07
2.69157e-07
2.44121e-07
2.17978e-07
1.9148e-07
1.65025e-07
1.393e-07
1.15851e-07
9.39856e-08
7.63827e-08
6.10721e-08
5.04101e-08
4.31827e-08
3.92788e-08
3.90969e-08
4.18619e-08
4.58916e-08
5.3476e-08
6.06026e-08
6.89663e-08
7.75957e-08
8.60747e-08
9.32155e-08
4.03582e-07
3.86929e-07
3.71162e-07
3.55158e-07
3.37671e-07
3.18365e-07
2.97218e-07
2.74055e-07
2.49514e-07
2.23667e-07
1.97458e-07
1.70983e-07
1.45523e-07
1.21755e-07
1.001e-07
8.21242e-08
6.67422e-08
5.60634e-08
4.83642e-08
4.46402e-08
4.40168e-08
4.65539e-08
5.02855e-08
5.76823e-08
6.38185e-08
7.23795e-08
8.00495e-08
8.79845e-08
9.48381e-08
4.06188e-07
3.88715e-07
3.73384e-07
3.57802e-07
3.40628e-07
3.21787e-07
3.01245e-07
2.78703e-07
2.54621e-07
2.29027e-07
2.03001e-07
1.7646e-07
1.51152e-07
1.26974e-07
1.05532e-07
8.69589e-08
7.16838e-08
6.06568e-08
5.26529e-08
4.90197e-08
4.78341e-08
5.03453e-08
5.36888e-08
6.09368e-08
6.60809e-08
7.52657e-08
8.11944e-08
8.95683e-08
9.55481e-08
4.08848e-07
3.9048e-07
3.75762e-07
3.60386e-07
3.43344e-07
3.24898e-07
3.04992e-07
2.83109e-07
2.59471e-07
2.34103e-07
2.08172e-07
1.8152e-07
1.56241e-07
1.31593e-07
1.10295e-07
9.09737e-08
7.5921e-08
6.42295e-08
5.61994e-08
5.23696e-08
5.07482e-08
5.325e-08
5.62002e-08
6.32715e-08
6.75856e-08
7.75766e-08
8.09277e-08
9.13757e-08
9.50244e-08
4.11826e-07
3.92364e-07
3.78129e-07
3.62898e-07
3.45952e-07
3.27918e-07
3.08648e-07
2.87404e-07
2.64164e-07
2.38958e-07
2.13015e-07
1.86191e-07
1.60803e-07
1.35713e-07
1.14396e-07
9.43012e-08
7.95382e-08
6.68608e-08
5.90978e-08
5.46631e-08
5.2978e-08
5.52084e-08
5.80487e-08
6.46824e-08
6.86554e-08
7.90295e-08
7.94754e-08
9.43263e-08
9.08971e-08
4.15419e-07
3.9522e-07
3.80241e-07
3.64056e-07
3.47121e-07
3.30029e-07
3.11848e-07
2.91438e-07
2.68648e-07
2.43569e-07
2.17501e-07
1.90389e-07
1.64693e-07
1.39084e-07
1.17628e-07
9.68575e-08
8.22063e-08
6.86175e-08
6.12716e-08
5.59225e-08
5.46585e-08
5.6235e-08
5.9444e-08
6.51931e-08
6.99278e-08
7.91834e-08
7.80157e-08
9.82339e-08
8.06681e-08
4.1924e-07
3.99978e-07
3.84883e-07
3.68137e-07
3.50568e-07
3.33206e-07
3.15324e-07
2.95588e-07
2.73233e-07
2.48253e-07
2.21951e-07
1.94502e-07
1.68213e-07
1.42014e-07
1.20002e-07
9.86239e-08
8.37547e-08
6.95229e-08
6.24392e-08
5.63078e-08
5.57376e-08
5.64805e-08
6.09348e-08
6.52823e-08
7.19632e-08
7.79942e-08
7.94173e-08
9.89311e-08
6.52172e-08
4.2201e-07
3.99688e-07
3.83958e-07
3.67799e-07
3.51206e-07
3.34717e-07
3.17817e-07
2.98634e-07
2.76483e-07
2.5142e-07
2.24777e-07
1.9695e-07
1.70267e-07
1.43762e-07
1.21097e-07
9.94127e-08
8.41175e-08
6.9647e-08
6.25587e-08
5.61135e-08
5.61246e-08
5.63992e-08
6.15031e-08
6.51575e-08
7.4351e-08
7.74542e-08
8.45088e-08
9.48933e-08
3.72825e-08
4.43673e-07
4.14439e-07
3.93363e-07
3.7505e-07
3.5778e-07
3.40983e-07
3.23659e-07
3.04454e-07
2.82216e-07
2.56735e-07
2.29238e-07
2.00357e-07
1.7231e-07
1.4469e-07
1.20933e-07
9.86629e-08
8.27298e-08
6.83116e-08
6.14064e-08
5.54023e-08
5.62587e-08
5.70097e-08
6.34599e-08
6.72857e-08
7.76326e-08
7.795e-08
9.21569e-08
8.70311e-08
4.13894e-08
-6.70247e-07
-6.26205e-07
-7.45849e-07
-6.90768e-07
-5.39334e-07
-3.84672e-07
-2.61434e-07
-1.71535e-07
-1.05806e-07
-5.65057e-08
-1.89915e-08
9.71358e-09
3.17342e-08
4.88767e-08
6.22533e-08
7.2681e-08
8.07632e-08
8.70113e-08
9.18719e-08
9.56297e-08
9.85482e-08
1.00741e-07
1.02172e-07
1.02801e-07
1.0214e-07
1.00479e-07
9.84867e-08
1.00867e-07
1.1443e-07
1.45166e-07
-6.95424e-07
-6.83825e-07
-7.53868e-07
-7.35462e-07
-5.81235e-07
-4.14495e-07
-2.80023e-07
-1.8196e-07
-1.11023e-07
-5.84878e-08
-1.89146e-08
1.1172e-08
3.41864e-08
5.1919e-08
6.56714e-08
7.63813e-08
8.47724e-08
9.13657e-08
9.65673e-08
1.00695e-07
1.03842e-07
1.06292e-07
1.07975e-07
1.09244e-07
1.10305e-07
1.11684e-07
1.14309e-07
1.17579e-07
1.22419e-07
1.26444e-07
-7.2015e-07
-7.34509e-07
-7.8254e-07
-7.89331e-07
-6.37408e-07
-4.62269e-07
-3.16402e-07
-2.07344e-07
-1.28162e-07
-6.99106e-08
-2.63334e-08
6.61684e-09
3.17401e-08
5.10509e-08
6.60278e-08
7.77497e-08
8.69528e-08
9.42257e-08
9.98801e-08
1.04373e-07
1.07864e-07
1.10672e-07
1.13084e-07
1.15178e-07
1.17573e-07
1.1962e-07
1.2219e-07
1.2381e-07
1.2675e-07
1.30756e-07
-7.3762e-07
-7.65058e-07
-8.31373e-07
-8.42211e-07
-6.93283e-07
-5.12273e-07
-3.5547e-07
-2.34518e-07
-1.45806e-07
-8.08641e-08
-3.26826e-08
3.49366e-09
3.09112e-08
5.19114e-08
6.80979e-08
8.06777e-08
9.04494e-08
9.8133e-08
1.04169e-07
1.08973e-07
1.1294e-07
1.16129e-07
1.19021e-07
1.21274e-07
1.23545e-07
1.25098e-07
1.26851e-07
1.28251e-07
1.30375e-07
1.32928e-07
-7.43293e-07
-7.71262e-07
-8.64831e-07
-8.74076e-07
-7.36607e-07
-5.54318e-07
-3.88806e-07
-2.57079e-07
-1.58987e-07
-8.73035e-08
-3.45866e-08
4.66174e-09
3.41196e-08
5.64241e-08
7.34282e-08
8.65044e-08
9.66525e-08
1.04574e-07
1.10874e-07
1.15759e-07
1.19742e-07
1.22772e-07
1.25341e-07
1.27224e-07
1.28965e-07
1.30301e-07
1.31727e-07
1.33099e-07
1.34731e-07
1.36575e-07
-7.33575e-07
-7.56315e-07
-8.68515e-07
-8.77203e-07
-7.59569e-07
-5.81989e-07
-4.12122e-07
-2.72483e-07
-1.66266e-07
-8.83324e-08
-3.14057e-08
1.05194e-08
4.16342e-08
6.48598e-08
8.24018e-08
9.57036e-08
1.05927e-07
1.13679e-07
1.19713e-07
1.24241e-07
1.27809e-07
1.30495e-07
1.32699e-07
1.34373e-07
1.35811e-07
1.36982e-07
1.38042e-07
1.39001e-07
1.40017e-07
1.41204e-07
-7.05179e-07
-7.26199e-07
-8.39603e-07
-8.52513e-07
-7.56965e-07
-5.90189e-07
-4.21984e-07
-2.78628e-07
-1.66642e-07
-8.35762e-08
-2.2992e-08
2.11781e-08
5.36068e-08
7.74322e-08
9.5108e-08
1.08187e-07
1.18021e-07
1.25296e-07
1.30823e-07
1.34925e-07
1.38036e-07
1.40306e-07
1.42024e-07
1.43233e-07
1.44107e-07
1.44747e-07
1.4526e-07
1.45734e-07
1.46289e-07
1.4704e-07
-6.57366e-07
-6.80998e-07
-7.83203e-07
-8.01403e-07
-7.26041e-07
-5.75202e-07
-4.14935e-07
-2.72718e-07
-1.58287e-07
-7.18809e-08
-8.54303e-09
3.73153e-08
7.05381e-08
9.45103e-08
1.11876e-07
1.2442e-07
1.336e-07
1.40194e-07
1.44953e-07
1.48296e-07
1.50599e-07
1.52092e-07
1.53053e-07
1.53601e-07
1.53882e-07
1.54009e-07
1.54053e-07
1.5405e-07
1.5405e-07
1.54156e-07
-5.93387e-07
-6.21076e-07
-7.06836e-07
-7.27295e-07
-6.68377e-07
-5.36507e-07
-3.88732e-07
-2.52144e-07
-1.3896e-07
-5.1551e-08
1.31442e-08
5.98474e-08
9.3224e-08
1.16875e-07
1.33515e-07
1.45115e-07
1.53174e-07
1.58603e-07
1.62171e-07
1.64401e-07
1.65671e-07
1.66245e-07
1.66359e-07
1.66133e-07
1.65666e-07
1.65038e-07
1.64306e-07
1.63508e-07
1.62724e-07
1.62097e-07
-5.19178e-07
-5.49927e-07
-6.19949e-07
-6.38616e-07
-5.89745e-07
-4.78371e-07
-3.44393e-07
-2.16483e-07
-1.07658e-07
-2.16647e-08
4.27513e-08
8.9255e-08
1.22059e-07
1.44778e-07
1.6014e-07
1.7028e-07
1.76777e-07
1.80671e-07
1.82757e-07
1.83584e-07
1.83524e-07
1.82844e-07
1.81754e-07
1.8039e-07
1.78849e-07
1.77224e-07
1.75581e-07
1.73975e-07
1.72479e-07
1.71199e-07
-4.41705e-07
-4.73875e-07
-5.31749e-07
-5.46117e-07
-5.02296e-07
-4.07119e-07
-2.87691e-07
-1.69054e-07
-6.6295e-08
1.64623e-08
7.91543e-08
1.24434e-07
1.5598e-07
1.7723e-07
1.9091e-07
1.99233e-07
2.03824e-07
2.05807e-07
2.06019e-07
2.05045e-07
2.03293e-07
2.01052e-07
1.98536e-07
1.95886e-07
1.93193e-07
1.90536e-07
1.87957e-07
1.85491e-07
1.83174e-07
1.81084e-07
-3.67873e-07
-4.00976e-07
-4.50295e-07
-4.60125e-07
-4.18778e-07
-3.33367e-07
-2.26223e-07
-1.16788e-07
-2.01497e-08
5.86506e-08
1.18807e-07
1.62243e-07
1.92133e-07
2.11629e-07
2.23412e-07
2.29708e-07
2.32188e-07
2.32066e-07
2.30243e-07
2.27344e-07
2.23807e-07
2.19928e-07
2.15913e-07
2.11895e-07
2.07953e-07
2.04152e-07
2.00517e-07
1.97078e-07
1.93851e-07
1.90901e-07
-3.04774e-07
-3.38571e-07
-3.82284e-07
-3.884e-07
-3.4825e-07
-2.68694e-07
-1.69297e-07
-6.76021e-08
2.37695e-08
9.88555e-08
1.56375e-07
1.97866e-07
2.26059e-07
2.43839e-07
2.53831e-07
2.58241e-07
2.58775e-07
2.56711e-07
2.52988e-07
2.48268e-07
2.4301e-07
2.37529e-07
2.32033e-07
2.26659e-07
2.21484e-07
2.16567e-07
2.11924e-07
2.07577e-07
2.03521e-07
1.99793e-07
-2.58697e-07
-2.92965e-07
-3.33274e-07
-3.36783e-07
-2.97122e-07
-2.20844e-07
-1.26101e-07
-2.91831e-08
5.82822e-08
1.3063e-07
1.85976e-07
2.25887e-07
2.52717e-07
2.69165e-07
2.77784e-07
2.80747e-07
2.79777e-07
2.7619e-07
2.70956e-07
2.64773e-07
2.58125e-07
2.51347e-07
2.44653e-07
2.38189e-07
2.32026e-07
2.26221e-07
2.20777e-07
2.15712e-07
2.10997e-07
2.06645e-07
-2.3437e-07
-2.68854e-07
-3.07516e-07
-3.09616e-07
-2.69892e-07
-1.9516e-07
-1.02702e-07
-8.10759e-09
7.74301e-08
1.48469e-07
2.02299e-07
2.41417e-07
2.67514e-07
2.83238e-07
2.91108e-07
2.93282e-07
2.91488e-07
2.87061e-07
2.80991e-07
2.73993e-07
2.66567e-07
2.59058e-07
2.51686e-07
2.44601e-07
2.37875e-07
2.31562e-07
2.25661e-07
2.20187e-07
2.15096e-07
2.10391e-07
-2.34355e-07
-2.6884e-07
-3.07503e-07
-3.09606e-07
-2.69885e-07
-1.95152e-07
-1.02694e-07
-8.09864e-09
7.74395e-08
1.48479e-07
2.02307e-07
2.41424e-07
2.67519e-07
2.83242e-07
2.91111e-07
2.93284e-07
2.91489e-07
2.87061e-07
2.8099e-07
2.73993e-07
2.66566e-07
2.59057e-07
2.51685e-07
2.446e-07
2.37874e-07
2.31562e-07
2.25661e-07
2.20187e-07
2.15096e-07
2.1039e-07
-2.58654e-07
-2.92925e-07
-3.33238e-07
-3.36756e-07
-2.97106e-07
-2.20825e-07
-1.2608e-07
-2.91585e-08
5.83084e-08
1.30657e-07
1.86e-07
2.25908e-07
2.52733e-07
2.69177e-07
2.77791e-07
2.80751e-07
2.79779e-07
2.76189e-07
2.70954e-07
2.64771e-07
2.58123e-07
2.51345e-07
2.44652e-07
2.38187e-07
2.32025e-07
2.26219e-07
2.20776e-07
2.15712e-07
2.10997e-07
2.06645e-07
-3.04708e-07
-3.38511e-07
-3.82231e-07
-3.88362e-07
-3.48239e-07
-2.68669e-07
-1.69268e-07
-6.75679e-08
2.38076e-08
9.88947e-08
1.56412e-07
1.97898e-07
2.26084e-07
2.43857e-07
2.53843e-07
2.58247e-07
2.58778e-07
2.56711e-07
2.52986e-07
2.48264e-07
2.43006e-07
2.37525e-07
2.32029e-07
2.26656e-07
2.21482e-07
2.16565e-07
2.11922e-07
2.07576e-07
2.03521e-07
1.99795e-07
-3.67792e-07
-4.00902e-07
-4.50232e-07
-4.60077e-07
-4.18726e-07
-3.33338e-07
-2.26195e-07
-1.16753e-07
-2.01073e-08
5.86962e-08
1.18851e-07
1.62281e-07
1.92163e-07
2.1165e-07
2.23425e-07
2.29714e-07
2.3219e-07
2.32065e-07
2.3024e-07
2.27341e-07
2.23802e-07
2.19923e-07
2.15907e-07
2.11888e-07
2.07948e-07
2.04147e-07
2.00513e-07
1.97074e-07
1.93848e-07
1.909e-07
-4.41616e-07
-4.73796e-07
-5.31685e-07
-5.46078e-07
-5.02272e-07
-4.0711e-07
-2.87678e-07
-1.69027e-07
-6.62568e-08
1.65069e-08
7.91984e-08
1.24472e-07
1.5601e-07
1.7725e-07
1.90921e-07
1.99237e-07
2.03822e-07
2.05801e-07
2.06011e-07
2.05037e-07
2.03286e-07
2.01046e-07
1.9853e-07
1.9588e-07
1.93188e-07
1.90531e-07