/*--------------------------------*- C++ -*----------------------------------*\
| =========                 |                                                 |
| \\      /  F ield         | OpenFOAM: The Open Source CFD Toolbox           |
|  \\    /   O peration     | Version:  2312                                  |
|   \\  /    A nd           | Website:  www.openfoam.com                      |
|    \\/     M anipulation  |                                                 |
\*---------------------------------------------------------------------------*/
FoamFile
{
    version     2.0;
    format      ascii;
    arch        "LSB;label=32;scalar=64";
    class       volScalarField;
    location    "194000";
    object      p;
}
// * * * * * * * * * * * * * * * * * * * * * * * * * * * * * * * * * * * * * //

dimensions      [0 2 -2 0 0 0 0];

internalField   nonuniform List<scalar> 
2685
(
3.22115e-07
3.2949e-07
3.392e-07
3.46414e-07
3.51157e-07
3.54205e-07
3.55832e-07
3.56146e-07
3.55347e-07
3.5371e-07
3.51474e-07
3.48774e-07
3.45612e-07
3.41989e-07
3.3776e-07
3.3263e-07
3.26316e-07
3.18613e-07
3.09554e-07
2.99431e-07
2.88634e-07
2.77473e-07
2.66118e-07
2.54661e-07
2.43213e-07
2.31899e-07
2.20841e-07
2.1042e-07
2.00893e-07
1.92502e-07
1.85465e-07
1.79924e-07
1.75914e-07
1.73372e-07
1.7217e-07
1.72366e-07
1.73445e-07
1.75301e-07
1.77781e-07
1.80713e-07
1.83922e-07
1.87243e-07
1.90538e-07
1.93699e-07
1.96653e-07
1.99362e-07
2.01815e-07
2.04023e-07
2.06012e-07
2.07816e-07
2.09472e-07
2.11018e-07
2.12495e-07
2.13951e-07
2.15435e-07
2.17003e-07
2.18712e-07
2.20613e-07
2.22741e-07
2.25108e-07
2.27694e-07
2.3044e-07
2.33255e-07
2.3602e-07
2.38615e-07
2.40933e-07
2.42829e-07
2.44214e-07
2.45064e-07
2.4554e-07
2.45758e-07
2.45886e-07
2.4607e-07
2.46529e-07
2.47203e-07
2.48002e-07
2.48792e-07
2.49434e-07
2.49791e-07
2.49741e-07
2.49174e-07
2.47985e-07
2.46109e-07
2.43595e-07
2.40651e-07
2.37612e-07
2.34844e-07
2.32601e-07
2.30766e-07
2.29048e-07
3.05971e-07
3.20861e-07
3.3103e-07
3.39823e-07
3.46967e-07
3.51666e-07
3.53651e-07
3.53386e-07
3.51773e-07
3.49733e-07
3.47923e-07
3.4656e-07
3.4555e-07
3.44624e-07
3.43439e-07
3.41343e-07
3.37692e-07
3.32033e-07
3.24051e-07
3.13838e-07
3.01795e-07
2.88438e-07
2.74268e-07
2.59738e-07
2.45249e-07
2.31165e-07
2.1792e-07
2.05607e-07
1.94479e-07
1.84895e-07
1.77207e-07
1.71625e-07
1.68131e-07
1.66514e-07
1.66468e-07
1.67604e-07
1.69713e-07
1.72526e-07
1.75817e-07
1.79414e-07
1.83152e-07
1.86875e-07
1.90451e-07
1.93779e-07
1.96794e-07
1.99468e-07
2.01803e-07
2.03833e-07
2.056e-07
2.07154e-07
2.08541e-07
2.09803e-07
2.10983e-07
2.12131e-07
2.13308e-07
2.14583e-07
2.16029e-07
2.17712e-07
2.1968e-07
2.21957e-07
2.24534e-07
2.27373e-07
2.30407e-07
2.33552e-07
2.36708e-07
2.39756e-07
2.42604e-07
2.4515e-07
2.47405e-07
2.49334e-07
2.50773e-07
2.519e-07
2.52811e-07
2.53521e-07
2.54147e-07
2.54575e-07
2.54647e-07
2.54295e-07
2.5354e-07
2.52481e-07
2.5105e-07
2.48764e-07
2.45196e-07
2.40273e-07
2.34567e-07
2.29187e-07
2.25343e-07
2.23666e-07
2.23905e-07
2.25666e-07
3.04028e-07
3.18632e-07
3.29365e-07
3.37978e-07
3.45199e-07
3.51122e-07
3.55752e-07
3.59029e-07
3.60917e-07
3.61423e-07
3.60901e-07
3.59014e-07
3.5616e-07
3.52516e-07
3.48093e-07
3.42452e-07
3.35007e-07
3.25661e-07
3.14566e-07
3.02212e-07
2.892e-07
2.76013e-07
2.62881e-07
2.49848e-07
2.36991e-07
2.24544e-07
2.12746e-07
2.01778e-07
1.91737e-07
1.82997e-07
1.76022e-07
1.70992e-07
1.67812e-07
1.6623e-07
1.66029e-07
1.6686e-07
1.68791e-07
1.7161e-07
1.75092e-07
1.79102e-07
1.8335e-07
1.87572e-07
1.9154e-07
1.95096e-07
1.98165e-07
2.00736e-07
2.02845e-07
2.04555e-07
2.05942e-07
2.07078e-07
2.0802e-07
2.0882e-07
2.09533e-07
2.10226e-07
2.10983e-07
2.11896e-07
2.1306e-07
2.14558e-07
2.16447e-07
2.18747e-07
2.2144e-07
2.2447e-07
2.27748e-07
2.31156e-07
2.3455e-07
2.37773e-07
2.40663e-07
2.43086e-07
2.44923e-07
2.46119e-07
2.46928e-07
2.47346e-07
2.47577e-07
2.47827e-07
2.4821e-07
2.48719e-07
2.49165e-07
2.50076e-07
2.50862e-07
2.51511e-07
2.51837e-07
2.51651e-07
2.50493e-07
2.48167e-07
2.44903e-07
2.41231e-07
2.37735e-07
2.3502e-07
2.33822e-07
2.33492e-07
2.96721e-07
3.11213e-07
3.24766e-07
3.36407e-07
3.45525e-07
3.52021e-07
3.56187e-07
3.58486e-07
3.59386e-07
3.59085e-07
3.57216e-07
3.54158e-07
3.49712e-07
3.43858e-07
3.37512e-07
3.29729e-07
3.20662e-07
3.1072e-07
3.00275e-07
2.89255e-07
2.77666e-07
2.65778e-07
2.53838e-07
2.4202e-07
2.30516e-07
2.19446e-07
2.08759e-07
1.98385e-07
1.88547e-07
1.79813e-07
1.72852e-07
1.6809e-07
1.65532e-07
1.64962e-07
1.66062e-07
1.68404e-07
1.71588e-07
1.75337e-07
1.79493e-07
1.83799e-07
1.88088e-07
1.92171e-07
1.95884e-07
1.99087e-07
2.01739e-07
2.03803e-07
2.05322e-07
2.06372e-07
2.07044e-07
2.07421e-07
2.07563e-07
2.07511e-07
2.07313e-07
2.07056e-07
2.06877e-07
2.06941e-07
2.07389e-07
2.08314e-07
2.09763e-07
2.11743e-07
2.14227e-07
2.17154e-07
2.20435e-07
2.23958e-07
2.27597e-07
2.31221e-07
2.34715e-07
2.37982e-07
2.40957e-07
2.43595e-07
2.45877e-07
2.47795e-07
2.49371e-07
2.50649e-07
2.51669e-07
2.52442e-07
2.53038e-07
2.52818e-07
2.52345e-07
2.51606e-07
2.50529e-07
2.48823e-07
2.46215e-07
2.42475e-07
2.37771e-07
2.32829e-07
2.28759e-07
2.26599e-07
2.2697e-07
2.2986e-07
3.08652e-07
3.22405e-07
3.35131e-07
3.45869e-07
3.54148e-07
3.59787e-07
3.6299e-07
3.64146e-07
3.63575e-07
3.61464e-07
3.57853e-07
3.52696e-07
3.45899e-07
3.37682e-07
3.27512e-07
3.16547e-07
3.04552e-07
2.91988e-07
2.78796e-07
2.65251e-07
2.51817e-07
2.38896e-07
2.2671e-07
2.15349e-07
2.04863e-07
1.95381e-07
1.87135e-07
1.80379e-07
1.75338e-07
1.72093e-07
1.70513e-07
1.70206e-07
1.70789e-07
1.7204e-07
1.73815e-07
1.76123e-07
1.79097e-07
1.82703e-07
1.86717e-07
1.90928e-07
1.95124e-07
1.99006e-07
2.02322e-07
2.05013e-07
2.07071e-07
2.08502e-07
2.09292e-07
2.09527e-07
2.09358e-07
2.08878e-07
2.08078e-07
2.06924e-07
2.05465e-07
2.03847e-07
2.02258e-07
2.00888e-07
1.99945e-07
1.99626e-07
2.00082e-07
2.01367e-07
2.03451e-07
2.06244e-07
2.09612e-07
2.13399e-07
2.17434e-07
2.21551e-07
2.256e-07
2.29448e-07
2.32975e-07
2.36102e-07
2.38797e-07
2.41056e-07
2.42905e-07
2.44388e-07
2.45555e-07
2.46438e-07
2.47042e-07
2.47349e-07
2.47393e-07
2.47179e-07
2.46719e-07
2.46001e-07
2.44993e-07
2.43697e-07
2.42133e-07
2.404e-07
2.38609e-07
2.36845e-07
2.3519e-07
2.33631e-07
3.26454e-07
3.38619e-07
3.49746e-07
3.5883e-07
3.65266e-07
3.68933e-07
3.7011e-07
3.69166e-07
3.66355e-07
3.61747e-07
3.55272e-07
3.46851e-07
3.36529e-07
3.24458e-07
3.10699e-07
2.95545e-07
2.79816e-07
2.63391e-07
2.47069e-07
2.31119e-07
2.15851e-07
2.016e-07
1.887e-07
1.77543e-07
1.68476e-07
1.617e-07
1.57175e-07
1.54599e-07
1.53579e-07
1.53757e-07
1.54947e-07
1.57171e-07
1.60532e-07
1.65005e-07
1.70321e-07
1.76098e-07
1.81943e-07
1.87484e-07
1.92571e-07
1.9721e-07
2.01274e-07
2.04606e-07
2.07254e-07
2.09304e-07
2.10656e-07
2.11176e-07
2.10936e-07
2.10176e-07
2.0905e-07
2.07488e-07
2.0529e-07
2.02312e-07
1.98583e-07
1.94365e-07
1.9012e-07
1.86378e-07
1.83548e-07
1.81822e-07
1.81467e-07
1.8236e-07
1.84375e-07
1.87339e-07
1.91057e-07
1.95342e-07
2.00013e-07
2.04906e-07
2.09868e-07
2.14758e-07
2.19456e-07
2.23869e-07
2.2793e-07
2.31601e-07
2.34852e-07
2.37663e-07
2.40016e-07
2.41899e-07
2.43297e-07
2.44195e-07
2.4459e-07
2.44486e-07
2.43879e-07
2.42776e-07
2.41168e-07
2.39081e-07
2.36615e-07
2.33921e-07
2.31172e-07
2.28533e-07
2.26079e-07
2.23772e-07
3.4525e-07
3.56474e-07
3.6659e-07
3.74274e-07
3.78588e-07
3.79343e-07
3.77003e-07
3.7215e-07
3.65105e-07
3.55927e-07
3.44563e-07
3.30953e-07
3.15084e-07
2.97087e-07
2.77286e-07
2.56206e-07
2.34525e-07
2.12872e-07
1.91693e-07
1.73131e-07
1.57148e-07
1.44107e-07
1.3385e-07
1.26267e-07
1.21101e-07
1.17997e-07
1.16649e-07
1.1683e-07
1.18551e-07
1.21898e-07
1.26741e-07
1.32823e-07
1.39902e-07
1.47715e-07
1.55987e-07
1.64482e-07
1.72943e-07
1.80984e-07
1.88243e-07
1.94472e-07
1.99452e-07
2.03172e-07
2.05874e-07
2.07651e-07
2.08367e-07
2.0805e-07
2.07026e-07
2.05563e-07
2.03524e-07
2.00417e-07
1.95778e-07
1.89576e-07
1.82319e-07
1.74829e-07
1.67918e-07
1.62194e-07
1.57988e-07
1.55345e-07
1.54585e-07
1.55375e-07
1.57512e-07
1.60794e-07
1.65022e-07
1.70007e-07
1.75568e-07
1.81531e-07
1.87731e-07
1.94014e-07
2.00238e-07
2.06264e-07
2.11968e-07
2.17249e-07
2.22026e-07
2.26232e-07
2.29808e-07
2.3271e-07
2.34908e-07
2.36394e-07
2.37178e-07
2.37297e-07
2.36797e-07
2.35731e-07
2.34146e-07
2.32087e-07
2.29622e-07
2.26838e-07
2.2381e-07
2.20562e-07
2.17059e-07
2.13262e-07
3.64844e-07
3.75093e-07
3.83396e-07
3.88667e-07
3.90229e-07
3.87955e-07
3.82229e-07
3.73535e-07
3.62188e-07
3.48251e-07
3.31568e-07
3.11881e-07
2.88984e-07
2.62897e-07
2.33993e-07
2.03062e-07
1.71331e-07
1.40437e-07
1.11633e-07
8.50485e-08
6.33467e-08
4.68541e-08
3.63045e-08
3.14586e-08
3.18508e-08
3.67052e-08
4.4871e-08
5.51733e-08
6.65373e-08
7.80065e-08
8.90706e-08
9.97341e-08
1.10103e-07
1.20308e-07
1.3052e-07
1.40832e-07
1.51136e-07
1.61108e-07
1.7035e-07
1.78443e-07
1.85032e-07
1.90122e-07
1.93883e-07
1.96166e-07
1.96768e-07
1.95992e-07
1.94382e-07
1.91996e-07
1.88223e-07
1.82336e-07
1.74159e-07
1.64261e-07
1.53673e-07
1.43442e-07
1.34357e-07
1.26876e-07
1.21227e-07
1.17503e-07
1.16123e-07
1.16519e-07
1.18671e-07
1.22473e-07
1.27736e-07
1.34214e-07
1.41627e-07
1.49688e-07
1.58125e-07
1.66697e-07
1.75202e-07
1.83477e-07
1.91388e-07
1.98806e-07
2.05606e-07
2.11673e-07
2.169e-07
2.21198e-07
2.24506e-07
2.26796e-07
2.28081e-07
2.28397e-07
2.27795e-07
2.2633e-07
2.24053e-07
2.21011e-07
2.17243e-07
2.12793e-07
2.07725e-07
2.02109e-07
1.95989e-07
1.89412e-07
3.8664e-07
3.96525e-07
4.0138e-07
4.00943e-07
3.96051e-07
3.8767e-07
3.76534e-07
3.631e-07
3.4757e-07
3.29897e-07
3.09778e-07
2.86682e-07
2.59986e-07
2.29178e-07
1.94085e-07
1.55126e-07
1.13511e-07
7.11208e-08
3.02583e-08
-7.00072e-09
-3.91527e-08
-6.34155e-08
-7.92914e-08
-8.59187e-08
-8.3895e-08
-7.42604e-08
-5.84738e-08
-3.83662e-08
-1.57792e-08
7.52769e-09
2.99438e-08
5.02478e-08
6.78695e-08
8.30264e-08
9.63854e-08
1.08564e-07
1.20012e-07
1.30975e-07
1.41419e-07
1.51008e-07
1.59288e-07
1.65954e-07
1.70726e-07
1.73257e-07
1.736e-07
1.72369e-07
1.70009e-07
1.66169e-07
1.59976e-07
1.50833e-07
1.38976e-07
1.25373e-07
1.11229e-07
9.75672e-08
8.51329e-08
7.45042e-08
6.6219e-08
6.08371e-08
5.7725e-08
5.77176e-08
6.06572e-08
6.62758e-08
7.42065e-08
8.39901e-08
9.51192e-08
1.07084e-07
1.19416e-07
1.3172e-07
1.43693e-07
1.55115e-07
1.65834e-07
1.75729e-07
1.84693e-07
1.92608e-07
1.99348e-07
2.04787e-07
2.08831e-07
2.1144e-07
2.12631e-07
2.12473e-07
2.11058e-07
2.0848e-07
2.04814e-07
2.00111e-07
1.94402e-07
1.87706e-07
1.80047e-07
1.71473e-07
1.62033e-07
1.51795e-07
3.80719e-07
3.76632e-07
3.7036e-07
3.62691e-07
3.53279e-07
3.41816e-07
3.28258e-07
3.12661e-07
2.95103e-07
2.75657e-07
2.5427e-07
2.30587e-07
2.03862e-07
1.73076e-07
1.37263e-07
9.60316e-08
4.99768e-08
8.18541e-10
-4.88305e-08
-9.59016e-08
-1.37542e-07
-1.71521e-07
-1.94679e-07
-2.07104e-07
-2.07807e-07
-1.97573e-07
-1.77972e-07
-1.51102e-07
-1.19295e-07
-8.50299e-08
-5.07394e-08
-1.85227e-08
9.9946e-09
3.39921e-08
5.36185e-08
6.971e-08
8.3356e-08
9.54612e-08
1.06495e-07
1.16448e-07
1.24983e-07
1.31732e-07
1.36372e-07
1.38691e-07
1.38864e-07
1.37317e-07
1.34034e-07
1.28258e-07
1.19026e-07
1.05974e-07
8.96474e-08
7.11946e-08
5.1877e-08
3.28362e-08
1.51122e-08
-3.23442e-10
-1.26148e-08
-2.10693e-08
-2.5137e-08
-2.51675e-08
-2.09351e-08
-1.2711e-08
-9.67374e-10
1.36532e-08
3.03604e-08
4.82888e-08
6.65922e-08
8.45367e-08
1.0157e-07
1.17347e-07
1.31699e-07
1.44568e-07
1.55923e-07
1.65715e-07
1.73855e-07
1.8024e-07
1.84792e-07
1.87492e-07
1.88393e-07
1.87591e-07
1.85187e-07
1.81252e-07
1.75806e-07
1.68826e-07
1.60261e-07
1.50057e-07
1.38194e-07
1.24722e-07
1.09781e-07
9.35813e-08
2.90573e-07
2.84868e-07
2.80205e-07
2.74814e-07
2.67832e-07
2.58616e-07
2.46742e-07
2.32011e-07
2.14457e-07
1.94347e-07
1.72106e-07
1.48042e-07
1.21951e-07
9.29137e-08
5.95021e-08
2.03923e-08
-2.4844e-08
-7.5211e-08
-1.28306e-07
-1.80779e-07
-2.28917e-07
-2.69382e-07
-2.99864e-07
-3.17266e-07
-3.21939e-07
-3.13677e-07
-2.93764e-07
-2.64144e-07
-2.27173e-07
-1.85508e-07
-1.41815e-07
-9.87786e-08
-5.91547e-08
-2.50621e-08
2.74276e-09
2.47431e-08
4.20895e-08
5.60359e-08
6.75804e-08
7.72849e-08
8.52816e-08
9.14473e-08
9.55192e-08
9.728e-08
9.68057e-08
9.42261e-08
8.91367e-08
8.05216e-08
6.74072e-08
4.95805e-08
2.77461e-08
3.18044e-09
-2.26608e-08
-4.83198e-08
-7.23811e-08
-9.35268e-08
-1.10637e-07
-1.22924e-07
-1.29924e-07
-1.30445e-07
-1.25464e-07
-1.14854e-07
-9.90259e-08
-7.87287e-08
-5.50431e-08
-2.92806e-08
-2.83384e-09
2.30011e-08
4.71942e-08
6.9089e-08
8.84073e-08
1.05146e-07
1.1942e-07
1.31335e-07
1.40922e-07
1.48163e-07
1.53043e-07
1.55612e-07
1.55982e-07
1.54284e-07
1.50607e-07
1.4495e-07
1.37216e-07
1.27244e-07
1.14867e-07
9.99678e-08
8.25362e-08
6.27012e-08
4.07451e-08
1.70887e-08
1.44837e-07
1.47697e-07
1.53334e-07
1.58891e-07
1.62451e-07
1.6244e-07
1.5791e-07
1.48577e-07
1.34594e-07
1.1645e-07
9.49094e-08
7.08019e-08
4.46163e-08
1.61138e-08
-1.57863e-08
-5.26309e-08
-9.55647e-08
-1.44428e-07
-1.97399e-07
-2.51276e-07
-3.02151e-07
-3.46126e-07
-3.80158e-07
-4.02434e-07
-4.10951e-07
-4.05898e-07
-3.87904e-07
-3.58547e-07
-3.20078e-07
-2.7518e-07
-2.26499e-07
-1.76804e-07
-1.29272e-07
-8.68487e-08
-5.13535e-08
-2.31961e-08
-1.58616e-09
1.49325e-08
2.77918e-08
3.79414e-08
4.58079e-08
5.14586e-08
5.47217e-08
5.5397e-08
5.34697e-08
4.88817e-08
4.10555e-08
2.88933e-08
1.14114e-08
-1.15925e-08
-3.93725e-08
-7.05201e-08
-1.0333e-07
-1.36022e-07
-1.66867e-07
-1.94299e-07
-2.17e-07
-2.33893e-07
-2.44162e-07
-2.47311e-07
-2.43102e-07
-2.31327e-07
-2.12312e-07
-1.86886e-07
-1.56343e-07
-1.22371e-07
-8.69052e-08
-5.19032e-08
-1.90673e-08
1.04052e-08
3.59511e-08
5.75492e-08
7.54689e-08
9.00144e-08
1.01384e-07
1.09677e-07
1.14976e-07
1.17419e-07
1.17193e-07
1.14458e-07
1.0926e-07
1.01488e-07
9.08954e-08
7.71792e-08
6.00898e-08
3.9518e-08
1.5548e-08
-1.15187e-08
-4.11751e-08
-7.27372e-08
-3.65954e-08
-2.14185e-08
-1.87176e-09
1.86306e-08
3.72046e-08
5.14245e-08
5.95999e-08
6.11698e-08
5.63067e-08
4.55125e-08
2.96689e-08
9.91363e-09
-1.29525e-08
-3.89586e-08
-6.8917e-08
-1.04004e-07
-1.45149e-07
-1.92298e-07
-2.43905e-07
-2.97036e-07
-3.47978e-07
-3.92957e-07
-4.28704e-07
-4.52963e-07
-4.64529e-07
-4.62808e-07
-4.48091e-07
-4.2147e-07
-3.84875e-07
-3.40597e-07
-2.90924e-07
-2.38497e-07
-1.86582e-07
-1.38547e-07
-9.71006e-08
-6.36189e-08
-3.78757e-08
-1.8565e-08
-4.21869e-09
6.26301e-09
1.35914e-08
1.81614e-08
2.00045e-08
1.89184e-08
1.47576e-08
7.39101e-09
-3.69382e-09
-1.95125e-08
-4.10887e-08
-6.87523e-08
-1.01826e-07
-1.38826e-07
-1.77855e-07
-2.16912e-07
-2.54091e-07
-2.87671e-07
-3.16163e-07
-3.38336e-07
-3.53162e-07
-3.59769e-07
-3.58213e-07
-3.47469e-07
-3.27589e-07
-2.99238e-07
-2.63696e-07
-2.22851e-07
-1.79062e-07
-1.34922e-07
-9.29189e-08
-5.50302e-08
-2.23757e-08
4.831e-09
2.69639e-08
4.45501e-08
5.79912e-08
6.75379e-08
7.34127e-08
7.58961e-08
7.52802e-08
7.17406e-08
6.52277e-08
5.54524e-08
4.19872e-08
2.44152e-08
2.47446e-09
-2.38438e-08
-5.42751e-08
-8.82898e-08
-1.25138e-07
-1.639e-07
-2.42254e-07
-2.13248e-07
-1.77722e-07
-1.39398e-07
-1.02147e-07
-6.94405e-08
-4.41771e-08
-2.77572e-08
-1.98029e-08
-1.92716e-08
-2.52853e-08
-3.6954e-08
-5.33439e-08
-7.40489e-08
-9.95435e-08
-1.30822e-07
-1.68648e-07
-2.12817e-07
-2.61748e-07
-3.126e-07
-3.61813e-07
-4.0583e-07
-4.41593e-07
-4.66807e-07
-4.80138e-07
-4.80961e-07
-4.69439e-07
-4.46341e-07
-4.13162e-07
-3.71763e-07
-3.24144e-07
-2.72675e-07
-2.20286e-07
-1.70323e-07
-1.25985e-07
-8.9383e-08
-6.09374e-08
-3.98037e-08
-2.46923e-08
-1.43698e-08
-7.82667e-09
-4.41704e-09
-4.00107e-09
-6.78643e-09
-1.29771e-08
-2.27397e-08
-3.65649e-08
-5.5438e-08
-8.04121e-08
-1.11892e-07
-1.49253e-07
-1.90992e-07
-2.35132e-07
-2.79597e-07
-3.22381e-07
-3.61635e-07
-3.95781e-07
-4.23478e-07
-4.43693e-07
-4.55786e-07
-4.57302e-07
-4.4884e-07
-4.29947e-07
-4.009e-07
-3.62714e-07
-3.17209e-07
-2.66938e-07
-2.14953e-07
-1.64455e-07
-1.1829e-07
-7.83702e-08
-4.53256e-08
-1.87697e-08
2.06121e-09
1.78005e-08
2.88479e-08
3.55392e-08
3.82736e-08
3.74396e-08
3.32243e-08
2.54878e-08
1.3805e-08
-2.35033e-09
-2.33884e-08
-4.94569e-08
-8.03913e-08
-1.15748e-07
-1.54858e-07
-1.96868e-07
-2.40774e-07
-3.93809e-07
-3.50268e-07
-3.00266e-07
-2.47389e-07
-1.95846e-07
-1.49438e-07
-1.11316e-07
-8.34201e-08
-6.58165e-08
-5.72432e-08
-5.6236e-08
-6.15778e-08
-7.22411e-08
-8.75696e-08
-1.07671e-07
-1.33417e-07
-1.65772e-07
-2.04837e-07
-2.49249e-07
-2.96288e-07
-3.42481e-07
-3.84348e-07
-4.18946e-07
-4.44069e-07
-4.58334e-07
-4.61253e-07
-4.52733e-07
-4.33477e-07
-4.04578e-07
-3.67486e-07
-3.23876e-07
-2.75785e-07
-2.25918e-07
-1.77647e-07
-1.34293e-07
-9.806e-08
-6.95624e-08
-4.8247e-08
-3.30203e-08
-2.26995e-08
-1.63196e-08
-1.33483e-08
-1.3708e-08
-1.7542e-08
-2.49637e-08
-3.61369e-08
-5.16036e-08
-7.23638e-08
-9.9447e-08
-1.33278e-07
-1.7331e-07
-2.18102e-07
-2.65706e-07
-3.14006e-07
-3.60883e-07
-4.04394e-07
-4.42884e-07
-4.74957e-07
-4.99324e-07
-5.14807e-07
-5.20417e-07
-5.15443e-07
-4.99418e-07
-4.72344e-07
-4.34778e-07
-3.88082e-07
-3.34625e-07
-2.77655e-07
-2.2091e-07
-1.68052e-07
-1.21893e-07
-8.36839e-08
-5.31639e-08
-2.93695e-08
-1.14389e-08
1.15146e-09
8.81206e-09
1.20344e-08
1.12892e-08
6.77676e-09
-1.70876e-09
-1.46732e-08
-3.26598e-08
-5.6e-08
-8.47046e-08
-1.18482e-07
-1.56806e-07
-1.98968e-07
-2.44104e-07
-2.91188e-07
-4.68027e-07
-4.14422e-07
-3.54955e-07
-2.93284e-07
-2.33978e-07
-1.8119e-07
-1.37717e-07
-1.04805e-07
-8.20615e-08
-6.80361e-08
-6.15233e-08
-6.17482e-08
-6.77412e-08
-7.8446e-08
-9.33909e-08
-1.13078e-07
-1.38621e-07
-1.70723e-07
-2.087e-07
-2.50287e-07
-2.92224e-07
-3.31078e-07
-3.63895e-07
-3.8848e-07
-4.03406e-07
-4.07997e-07
-4.02595e-07
-3.87388e-07
-3.63216e-07
-3.31109e-07
-2.92421e-07
-2.49016e-07
-2.03558e-07
-1.59298e-07
-1.19238e-07
-8.53372e-08
-5.83142e-08
-3.79355e-08
-2.33736e-08
-1.35922e-08
-7.73096e-09
-5.33887e-09
-6.3573e-09
-1.09075e-08
-1.90948e-08
-3.10738e-08
-4.73078e-08
-6.86604e-08
-9.61039e-08
-1.30188e-07
-1.706e-07
-2.1614e-07
-2.65005e-07
-3.15088e-07
-3.6425e-07
-4.10509e-07
-4.52056e-07
-4.87293e-07
-5.14793e-07
-5.33345e-07
-5.42236e-07
-5.40492e-07
-5.27748e-07
-5.03811e-07
-4.68798e-07
-4.23449e-07
-3.69691e-07
-3.10746e-07
-2.50672e-07
-1.93695e-07
-1.43354e-07
-1.01525e-07
-6.8173e-08
-4.22136e-08
-2.26087e-08
-8.75288e-09
-2.06239e-10
3.57406e-09
3.12682e-09
-1.307e-09
-9.92502e-09
-2.32156e-08
-4.16591e-08
-6.55086e-08
-9.47356e-08
-1.29079e-07
-1.68094e-07
-2.11155e-07
-2.57437e-07
-4.84015e-07
-4.24091e-07
-3.59296e-07
-2.9302e-07
-2.29558e-07
-1.73543e-07
-1.28314e-07
-9.45698e-08
-7.10031e-08
-5.5675e-08
-4.69685e-08
-4.38382e-08
-4.55674e-08
-5.1493e-08
-6.11354e-08
-7.4616e-08
-9.28091e-08
-1.16764e-07
-1.46637e-07
-1.81013e-07
-2.17165e-07
-2.51868e-07
-2.82157e-07
-3.05726e-07
-3.21036e-07
-3.27298e-07
-3.24596e-07
-3.12957e-07
-2.93097e-07
-2.65866e-07
-2.3245e-07
-1.94638e-07
-1.54911e-07
-1.16102e-07
-8.07609e-08
-5.06906e-08
-2.67517e-08
-8.89067e-09
3.6371e-09
1.18385e-08
1.6535e-08
1.81271e-08
1.66312e-08
1.18977e-08
3.78668e-09
-7.87979e-09
-2.35261e-08
-4.39318e-08
-7.00362e-08
-1.02489e-07
-1.41205e-07
-1.85257e-07
-2.33052e-07
-2.82608e-07
-3.31823e-07
-3.78657e-07
-4.21256e-07
-4.57987e-07
-4.87274e-07
-5.07901e-07
-5.19224e-07
-5.19844e-07
-5.09771e-07
-4.88871e-07
-4.57159e-07
-4.14931e-07
-3.6357e-07
-3.06033e-07
-2.46408e-07
-1.89098e-07
-1.37939e-07
-9.51696e-08
-6.09544e-08
-3.42168e-08
-1.38846e-08
6.40091e-10
9.7876e-09
1.41107e-08
1.41567e-08
1.01667e-08
1.97553e-09
-1.08057e-08
-2.85193e-08
-5.13145e-08
-7.91542e-08
-1.11865e-07
-1.4914e-07
-1.90499e-07
-2.3524e-07
-4.38226e-07
-3.75622e-07
-3.1069e-07
-2.46344e-07
-1.86173e-07
-1.33807e-07
-9.14474e-08
-5.92746e-08
-3.66416e-08
-2.20689e-08
-1.34213e-08
-9.11384e-09
-8.38464e-09
-1.08051e-08
-1.60297e-08
-2.39667e-08
-3.5145e-08
-5.06644e-08
-7.14202e-08
-9.71226e-08
-1.25952e-07
-1.55117e-07
-1.81736e-07
-2.03419e-07
-2.18475e-07
-2.25893e-07
-2.25284e-07
-2.16437e-07
-2.00233e-07
-1.77565e-07
-1.49665e-07
-1.18248e-07
-8.54643e-08
-5.3623e-08
-2.47962e-08
-4.7468e-10
1.86786e-08
3.28389e-08
4.2744e-08
4.92432e-08
5.29288e-08
5.40176e-08
5.24538e-08
4.80956e-08
4.08139e-08
3.04171e-08
1.64895e-08
-1.67561e-09
-2.49347e-08
-5.39363e-08
-8.87704e-08
-1.28801e-07
-1.7273e-07
-2.18841e-07
-2.65212e-07
-3.09876e-07
-3.51037e-07
-3.8708e-07
-4.16511e-07
-4.38021e-07
-4.50674e-07
-4.53324e-07
-4.45909e-07
-4.28471e-07
-4.01e-07
-3.63484e-07
-3.16777e-07
-2.63446e-07
-2.07449e-07
-1.53137e-07
-1.0433e-07
-6.33552e-08
-3.05101e-08
-4.80034e-09
1.47858e-08
2.88016e-08
3.77028e-08
4.20963e-08
4.25066e-08
3.90883e-08
3.16568e-08
1.99397e-08
3.77341e-09
-1.68718e-08
-4.19535e-08
-7.13805e-08
-1.04963e-07
-1.42337e-07
-1.82915e-07
-3.40211e-07
-2.7965e-07
-2.21214e-07
-1.66777e-07
-1.18609e-07
-7.86429e-08
-4.72666e-08
-2.31115e-08
-4.58896e-09
9.3649e-09
1.96141e-08
2.68671e-08
3.14351e-08
3.33359e-08
3.27049e-08
2.99067e-08
2.50732e-08
1.7566e-08
6.22726e-09
-9.66569e-09
-2.95316e-08
-5.14145e-08
-7.27273e-08
-9.1084e-08
-1.04697e-07
-1.12456e-07
-1.14095e-07
-1.07339e-07
-9.46721e-08
-7.67375e-08
-5.46399e-08
-2.99613e-08
-4.56589e-09
1.96681e-08
4.11668e-08
5.8943e-08
7.27423e-08
8.29191e-08
9.01072e-08
9.48718e-08
9.75179e-08
9.80822e-08
9.64393e-08
9.24405e-08
8.5981e-08
7.69448e-08
6.50816e-08
4.99155e-08
3.07884e-08
7.07387e-09
-2.15361e-08
-5.48066e-08
-9.19454e-08
-1.31702e-07
-1.72486e-07
-2.12584e-07
-2.50294e-07
-2.83935e-07
-3.11932e-07
-3.33038e-07
-3.46346e-07
-3.509e-07
-3.46468e-07
-3.32999e-07
-3.10393e-07
-2.78438e-07
-2.37643e-07
-1.9027e-07
-1.40121e-07
-9.13668e-08
-4.75135e-08
-1.06301e-08
1.90159e-08
4.22744e-08
5.99642e-08
7.24847e-08
8.02078e-08
8.37006e-08
8.34602e-08
7.96582e-08
7.2229e-08
6.11086e-08
4.63438e-08
2.80363e-08
6.26085e-09
-1.89333e-08
-4.74393e-08
-7.90028e-08
-1.13174e-07
-2.2523e-07
-1.761e-07
-1.31327e-07
-9.04785e-08
-5.47086e-08
-2.52709e-08
-2.13758e-09
1.61043e-08
3.10037e-08
4.3384e-08
5.37859e-08
6.26547e-08
7.00766e-08
7.57026e-08
7.91435e-08
8.05344e-08
8.04067e-08
7.89377e-08
7.54203e-08
6.87086e-08
5.83202e-08
4.51018e-08
3.09602e-08
1.80911e-08
8.38406e-09
3.26419e-09
3.80993e-09
6.90299e-09
1.5009e-08
2.72542e-08
4.25456e-08
5.95548e-08
7.68351e-08
9.30466e-08
1.07189e-07
1.18759e-07
1.27746e-07
1.34457e-07
1.39281e-07
1.42507e-07
1.44248e-07
1.44464e-07
1.43036e-07
1.39845e-07
1.34805e-07
1.27834e-07
1.18768e-07
1.07274e-07
9.28516e-08
7.495e-08
5.31814e-08
2.74938e-08
-1.7518e-09
-3.3739e-08
-6.72529e-08
-1.00857e-07
-1.33026e-07
-1.62248e-07
-1.87119e-07
-2.06549e-07
-2.19678e-07
-2.2597e-07
-2.24653e-07
-2.15423e-07
-1.98013e-07
-1.72123e-07
-1.3819e-07
-9.83256e-08
-5.60879e-08
-1.52383e-08
2.13046e-08
5.20041e-08
7.67573e-08
9.62105e-08
1.10891e-07
1.21016e-07
1.26836e-07
1.28772e-07
1.27212e-07
1.22367e-07
1.1436e-07
1.03366e-07
8.96138e-08
7.33094e-08
5.45786e-08
3.34856e-08
1.01134e-08
-1.53506e-08
-4.2568e-08
-1.17671e-07
-8.38522e-08
-5.5161e-08
-3.0095e-08
-7.56301e-09
1.29029e-08
3.1224e-08
4.77242e-08
6.2842e-08
7.64632e-08
8.82361e-08
9.82141e-08
1.06819e-07
1.14188e-07
1.19997e-07
1.24051e-07
1.26797e-07
1.28828e-07
1.30121e-07
1.29919e-07
1.27182e-07
1.21745e-07
1.14664e-07
1.07356e-07
1.01231e-07
9.75783e-08
9.72791e-08
1.00672e-07
1.06899e-07
1.15637e-07
1.25997e-07
1.37018e-07
1.47792e-07
1.57609e-07
1.66023e-07
1.72864e-07
1.78173e-07
1.82097e-07
1.84794e-07
1.86392e-07
1.86988e-07
1.86653e-07
1.85425e-07
1.83285e-07
1.80131e-07
1.7577e-07
1.69917e-07
1.62211e-07
1.52244e-07
1.39628e-07
1.24093e-07
1.05576e-07
8.42712e-08
6.06689e-08
3.55388e-08
9.86059e-09
-1.53031e-08
-3.88744e-08
-5.98332e-08
-7.73131e-08
-9.02576e-08
-9.81262e-08
-9.98138e-08
-9.46831e-08
-8.21431e-08
-6.18933e-08
-3.46877e-08
-2.84401e-09
3.03668e-08
6.19624e-08
8.99545e-08
1.13434e-07
1.32349e-07
1.47013e-07
1.57681e-07
1.64574e-07
1.67985e-07
1.68154e-07
1.65153e-07
1.59039e-07
1.5006e-07
1.38656e-07
1.25292e-07
1.10307e-07
9.38817e-08
7.60937e-08
5.70088e-08
3.67574e-08
1.55775e-08
-4.73908e-08
-2.78585e-08
-9.52929e-09
8.37202e-09
2.58377e-08
4.30161e-08
5.97205e-08
7.54751e-08
8.99607e-08
1.03129e-07
1.15082e-07
1.25871e-07
1.35352e-07
1.43462e-07
1.50363e-07
1.56197e-07
1.60887e-07
1.6441e-07
1.67229e-07
1.69885e-07
1.72484e-07
1.74472e-07
1.74705e-07
1.72843e-07
1.69928e-07
1.67615e-07
1.67084e-07
1.68557e-07
1.72846e-07
1.78818e-07
1.85935e-07
1.93526e-07
2.00973e-07
2.0778e-07
2.13641e-07
2.18443e-07
2.22182e-07
2.24892e-07
2.26614e-07
2.27394e-07
2.27298e-07
2.26411e-07
2.2482e-07
2.22582e-07
2.19687e-07
2.16052e-07
2.11544e-07
2.05994e-07
1.99218e-07
1.91031e-07
1.81271e-07
1.69799e-07
1.56525e-07
1.41472e-07
1.24849e-07
1.07033e-07
8.85736e-08
7.01643e-08
5.24787e-08
3.64867e-08
2.39067e-08
1.54644e-08
1.22158e-08
1.47748e-08
2.36566e-08
3.88929e-08
5.94981e-08
8.3228e-08
1.07268e-07
1.29397e-07
1.48527e-07
1.64426e-07
1.77138e-07
1.86657e-07
1.93052e-07
1.96661e-07
1.97853e-07
1.96615e-07
1.92621e-07
1.85709e-07
1.7615e-07
1.64541e-07
1.51522e-07
1.37562e-07
1.22911e-07
1.0767e-07
9.18929e-08
7.56636e-08
5.9134e-08
-8.07156e-09
8.95084e-09
2.46835e-08
3.99203e-08
5.51793e-08
7.05486e-08
8.57441e-08
1.00325e-07
1.13867e-07
1.26062e-07
1.36915e-07
1.46629e-07
1.55309e-07
1.63002e-07
1.69876e-07
1.76187e-07
1.82015e-07
1.87156e-07
1.9138e-07
1.94855e-07
1.98094e-07
2.01529e-07
2.05343e-07
2.092e-07
2.12466e-07
2.14733e-07
2.16338e-07
2.18359e-07
2.20582e-07
2.24022e-07
2.28453e-07
2.33545e-07
2.38899e-07
2.44138e-07
2.48981e-07
2.53218e-07
2.56703e-07
2.59336e-07
2.61051e-07
2.61825e-07
2.61679e-07
2.60689e-07
2.58964e-07
2.56626e-07
2.53798e-07
2.50595e-07
2.47119e-07
2.43428e-07
2.39488e-07
2.35152e-07
2.30166e-07
2.24161e-07
2.16725e-07
2.07554e-07
1.96495e-07
1.83604e-07
1.6925e-07
1.54089e-07
1.38937e-07
1.24888e-07
1.13094e-07
1.04881e-07
1.0151e-07
1.03581e-07
1.10693e-07
1.21685e-07
1.35162e-07
1.49792e-07
1.64328e-07
1.77696e-07
1.89247e-07
1.98753e-07
2.06051e-07
2.1092e-07
2.13455e-07
2.142e-07
2.13568e-07
2.11336e-07
2.06922e-07
2.00001e-07
1.90768e-07
1.79789e-07
1.67721e-07
1.55097e-07
1.42241e-07
1.29296e-07
1.16314e-07
1.03335e-07
9.04369e-08
2.90365e-08
4.30851e-08
5.58e-08
6.84381e-08
8.13465e-08
9.42959e-08
1.06904e-07
1.18866e-07
1.3001e-07
1.40257e-07
1.49656e-07
1.58372e-07
1.66507e-07
1.74057e-07
1.81008e-07
1.87342e-07
1.93075e-07
1.98303e-07
2.03212e-07
2.07998e-07
2.12638e-07
2.17031e-07
2.21183e-07
2.25139e-07
2.29048e-07
2.33437e-07
2.38172e-07
2.42753e-07
2.47277e-07
2.51598e-07
2.55886e-07
2.60202e-07
2.64517e-07
2.68737e-07
2.72723e-07
2.76322e-07
2.79393e-07
2.81823e-07
2.83541e-07
2.84527e-07
2.8482e-07
2.84513e-07
2.83734e-07
2.82628e-07
2.81333e-07
2.79966e-07
2.78596e-07
2.77213e-07
2.75701e-07
2.73822e-07
2.7122e-07
2.67461e-07
2.62186e-07
2.55182e-07
2.46392e-07
2.35988e-07
2.24684e-07
2.12675e-07
2.01321e-07
1.91144e-07
1.82493e-07
1.75739e-07
1.71602e-07
1.70707e-07
1.73297e-07
1.78879e-07
1.8613e-07
1.93449e-07
1.99703e-07
2.04712e-07
2.09046e-07
2.13094e-07
2.16371e-07
2.1811e-07
2.18298e-07
2.17576e-07
2.16319e-07
2.14145e-07
2.10315e-07
2.04422e-07
1.96523e-07
1.87011e-07
1.76425e-07
1.65291e-07
1.54014e-07
1.42844e-07
1.31916e-07
1.21302e-07
1.11061e-07
5.95186e-08
6.96735e-08
7.9121e-08
8.86738e-08
9.85156e-08
1.08523e-07
1.18495e-07
1.28216e-07
1.37557e-07
1.46489e-07
1.54985e-07
1.63018e-07
1.70606e-07
1.77752e-07
1.84432e-07
1.90637e-07
1.96414e-07
2.01823e-07
2.06936e-07
2.11847e-07
2.1666e-07
2.21509e-07
2.2651e-07
2.31953e-07
2.36301e-07
2.4095e-07
2.4584e-07
2.50808e-07
2.55924e-07
2.61178e-07
2.66481e-07
2.71702e-07
2.76713e-07
2.81406e-07
2.85684e-07
2.89469e-07
2.92709e-07
2.95389e-07
2.97527e-07
2.99164e-07
3.00369e-07
3.01229e-07
3.01833e-07
3.02275e-07
3.02632e-07
3.02937e-07
3.03157e-07
3.03196e-07
3.02889e-07
3.02016e-07
3.00315e-07
2.9744e-07
2.9314e-07
2.87192e-07
2.79917e-07
2.71439e-07
2.61923e-07
2.52386e-07
2.4292e-07
2.34303e-07
2.27222e-07
2.22263e-07
2.19608e-07
2.18018e-07
2.15509e-07
2.11777e-07
2.08803e-07
2.08435e-07
2.10161e-07
2.12161e-07
2.13428e-07
2.14093e-07
2.14337e-07
2.14024e-07
2.13283e-07
2.12295e-07
2.11098e-07
2.09259e-07
2.06254e-07
2.01793e-07
1.95703e-07
1.88287e-07
1.79867e-07
1.7081e-07
1.61453e-07
1.52068e-07
1.42849e-07
1.33933e-07
1.25423e-07
7.73924e-08
8.43166e-08
9.11379e-08
9.8275e-08
1.05985e-07
1.14184e-07
1.2256e-07
1.30822e-07
1.38824e-07
1.46559e-07
1.54076e-07
1.61391e-07
1.68471e-07
1.75265e-07
1.81743e-07
1.87901e-07
1.93734e-07
1.99261e-07
2.0456e-07
2.09735e-07
2.14886e-07
2.20161e-07
2.24606e-07
2.29046e-07
2.34967e-07
2.40811e-07
2.46736e-07
2.52792e-07
2.58948e-07
2.65139e-07
2.7129e-07
2.77321e-07
2.83153e-07
2.88714e-07
2.93938e-07
2.98756e-07
3.031e-07
3.06913e-07
3.10156e-07
3.12804e-07
3.14876e-07
3.16425e-07
3.17541e-07
3.1832e-07
3.18854e-07
3.19243e-07
3.1947e-07
3.19497e-07
3.19222e-07
3.18313e-07
3.17122e-07
3.14857e-07
3.11666e-07
3.07547e-07
3.02294e-07
2.9637e-07
2.90156e-07
2.83659e-07
2.76306e-07
2.66695e-07
2.54496e-07
2.4195e-07
2.3255e-07
2.27733e-07
2.2558e-07
2.23387e-07
2.20277e-07
2.1677e-07
2.13373e-07
2.10592e-07
2.08999e-07
2.08645e-07
2.0894e-07
2.09142e-07
2.08813e-07
2.08068e-07
2.06885e-07
2.05075e-07
2.02336e-07
1.98418e-07
1.93481e-07
1.87608e-07
1.80977e-07
1.73802e-07
1.66274e-07
1.58585e-07
1.5091e-07
1.43403e-07
1.36196e-07
9.53296e-08
9.7517e-08
9.979e-08
1.03408e-07
1.0855e-07
1.14671e-07
1.21132e-07
1.27598e-07
1.34016e-07
1.40485e-07
1.47075e-07
1.5376e-07
1.60465e-07
1.67112e-07
1.73642e-07
1.80017e-07
1.86202e-07
1.92169e-07
1.97949e-07
2.0353e-07
2.08958e-07
2.14159e-07
2.20162e-07
2.26093e-07
2.32214e-07
2.38527e-07
2.45026e-07
2.51702e-07
2.58529e-07
2.6546e-07
2.72429e-07
2.79356e-07
2.86151e-07
2.92724e-07
2.9898e-07
3.04825e-07
3.10192e-07
3.15052e-07
3.19386e-07
3.23234e-07
3.2659e-07
3.29419e-07
3.31729e-07
3.33487e-07
3.34661e-07
3.35693e-07
3.36175e-07
3.36227e-07
3.35742e-07
3.34617e-07
3.32114e-07
3.28154e-07
3.22228e-07
3.14479e-07
3.05621e-07
2.96861e-07
2.89695e-07
2.84961e-07
2.81467e-07
2.76988e-07
2.69314e-07
2.58795e-07
2.47819e-07