/*--------------------------------*- C++ -*----------------------------------*\
| =========                 |                                                 |
| \\      /  F ield         | OpenFOAM: The Open Source CFD Toolbox           |
|  \\    /   O peration     | Version:  2312                                  |
|   \\  /    A nd           | Website:  www.openfoam.com                      |
|    \\/     M anipulation  |                                                 |
\*---------------------------------------------------------------------------*/
FoamFile
{
    version     2.0;
    format      ascii;
    arch        "LSB;label=32;scalar=64";
    class       volScalarField;
    location    "12000";
    object      p;
}
// * * * * * * * * * * * * * * * * * * * * * * * * * * * * * * * * * * * * * //

dimensions      [0 2 -2 0 0 0 0];

internalField   nonuniform List<scalar> 
10800
(
5.60143e-07
5.46016e-07
5.3224e-07
5.2165e-07
5.1421e-07
5.08798e-07
5.04321e-07
5.00211e-07
4.96301e-07
4.92596e-07
4.89135e-07
4.85921e-07
4.82919e-07
4.80081e-07
4.77359e-07
4.74719e-07
4.72143e-07
4.69616e-07
4.67128e-07
4.6467e-07
4.62233e-07
4.59806e-07
4.57389e-07
4.54982e-07
4.52578e-07
4.50168e-07
4.47752e-07
4.45337e-07
4.42929e-07
4.40528e-07
4.38128e-07
4.35728e-07
4.33328e-07
4.30944e-07
4.28601e-07
4.26328e-07
4.24153e-07
4.22093e-07
4.20153e-07
4.18332e-07
4.16631e-07
4.1505e-07
4.13602e-07
4.12293e-07
4.11132e-07
4.1011e-07
4.0922e-07
4.08419e-07
4.07693e-07
4.06958e-07
4.06243e-07
4.054e-07
4.04585e-07
4.03483e-07
4.02576e-07
4.01001e-07
4.0027e-07
3.97566e-07
3.98122e-07
3.91178e-07
5.12127e-07
5.10396e-07
5.07745e-07
5.04609e-07
5.0138e-07
4.98268e-07
4.95324e-07
4.92512e-07
4.89782e-07
4.87103e-07
4.84469e-07
4.81887e-07
4.7936e-07
4.76889e-07
4.74469e-07
4.72089e-07
4.69739e-07
4.67416e-07
4.65114e-07
4.62827e-07
4.6055e-07
4.58278e-07
4.56007e-07
4.53736e-07
4.51468e-07
4.49204e-07
4.46937e-07
4.44659e-07
4.42381e-07
4.40118e-07
4.37867e-07
4.35608e-07
4.33329e-07
4.31037e-07
4.28767e-07
4.26555e-07
4.24447e-07
4.2247e-07
4.20648e-07
4.18977e-07
4.1746e-07
4.16072e-07
4.14817e-07
4.13664e-07
4.12628e-07
4.11657e-07
4.10786e-07
4.09922e-07
4.09113e-07
4.08233e-07
4.0739e-07
4.06368e-07
4.05415e-07
4.04164e-07
4.03103e-07
4.01562e-07
4.00503e-07
3.98555e-07
3.97692e-07
3.94737e-07
5.03451e-07
5.02698e-07
5.01279e-07
4.9932e-07
4.97025e-07
4.94592e-07
4.92147e-07
4.89739e-07
4.87373e-07
4.85036e-07
4.82718e-07
4.8042e-07
4.78145e-07
4.75899e-07
4.73684e-07
4.71498e-07
4.69337e-07
4.67198e-07
4.6508e-07
4.62975e-07
4.60882e-07
4.58802e-07
4.56725e-07
4.54647e-07
4.52575e-07
4.50522e-07
4.48483e-07
4.46443e-07
4.444e-07
4.4237e-07
4.40364e-07
4.3838e-07
4.36413e-07
4.34471e-07
4.32571e-07
4.30724e-07
4.28937e-07
4.27208e-07
4.2554e-07
4.23931e-07
4.22382e-07
4.20888e-07
4.19455e-07
4.18077e-07
4.16765e-07
4.155e-07
4.14289e-07
4.1309e-07
4.11923e-07
4.10717e-07
4.09535e-07
4.08275e-07
4.06993e-07
4.05557e-07
4.04083e-07
4.02378e-07
4.00656e-07
3.98606e-07
3.96557e-07
3.93978e-07
4.9178e-07
4.91345e-07
4.90556e-07
4.89461e-07
4.8813e-07
4.86634e-07
4.8503e-07
4.83357e-07
4.81638e-07
4.79882e-07
4.78096e-07
4.76287e-07
4.74459e-07
4.72619e-07
4.70774e-07
4.68924e-07
4.67071e-07
4.65218e-07
4.63369e-07
4.61519e-07
4.59671e-07
4.57825e-07
4.55977e-07
4.54122e-07
4.52268e-07
4.50429e-07
4.48603e-07
4.46775e-07
4.44941e-07
4.43116e-07
4.41313e-07
4.3953e-07
4.37757e-07
4.35997e-07
4.34262e-07
4.32562e-07
4.30903e-07
4.29288e-07
4.27723e-07
4.26212e-07
4.24757e-07
4.23356e-07
4.22005e-07
4.20697e-07
4.19427e-07
4.18182e-07
4.16956e-07
4.1573e-07
4.14499e-07
4.13248e-07
4.11951e-07
4.106e-07
4.09154e-07
4.07584e-07
4.05905e-07
4.04064e-07
4.02076e-07
3.99876e-07
3.975e-07
3.94895e-07
4.85171e-07
4.84957e-07
4.84524e-07
4.83876e-07
4.83029e-07
4.82012e-07
4.80856e-07
4.79594e-07
4.7825e-07
4.7684e-07
4.75378e-07
4.73873e-07
4.72331e-07
4.7076e-07
4.69166e-07
4.67552e-07
4.65924e-07
4.64285e-07
4.62641e-07
4.60991e-07
4.59338e-07
4.57684e-07
4.56026e-07
4.54359e-07
4.52693e-07
4.51042e-07
4.49405e-07
4.47769e-07
4.46128e-07
4.44498e-07
4.42892e-07
4.41308e-07
4.39738e-07
4.38185e-07
4.36659e-07
4.35164e-07
4.33701e-07
4.32268e-07
4.30864e-07
4.29491e-07
4.28148e-07
4.26833e-07
4.25542e-07
4.24271e-07
4.23015e-07
4.21769e-07
4.20522e-07
4.19263e-07
4.17984e-07
4.16665e-07
4.15285e-07
4.13812e-07
4.12288e-07
4.1069e-07
4.08985e-07
4.07149e-07
4.05168e-07
4.03032e-07
4.00744e-07
3.98351e-07
4.79738e-07
4.79575e-07
4.79249e-07
4.78764e-07
4.78131e-07
4.77364e-07
4.76482e-07
4.75504e-07
4.74446e-07
4.73319e-07
4.72134e-07
4.70899e-07
4.69621e-07
4.68305e-07
4.66958e-07
4.65583e-07
4.64184e-07
4.62767e-07
4.61338e-07
4.59896e-07
4.58446e-07
4.5699e-07
4.55527e-07
4.54051e-07
4.52573e-07
4.51108e-07
4.49654e-07
4.48197e-07
4.46735e-07
4.45281e-07
4.43848e-07
4.42432e-07
4.41026e-07
4.3963e-07
4.38252e-07
4.36897e-07
4.35563e-07
4.34249e-07
4.32957e-07
4.31688e-07
4.30442e-07
4.29218e-07
4.28013e-07
4.26823e-07
4.25644e-07
4.24471e-07
4.23297e-07
4.22117e-07
4.20921e-07
4.1971e-07
4.18467e-07
4.17177e-07
4.158e-07
4.14335e-07
4.12779e-07
4.11125e-07
4.09357e-07
4.07482e-07
4.05505e-07
4.035e-07
4.75483e-07
4.75365e-07
4.75128e-07
4.74773e-07
4.74305e-07
4.73729e-07
4.73056e-07
4.72296e-07
4.71458e-07
4.70552e-07
4.69587e-07
4.6857e-07
4.67504e-07
4.66397e-07
4.65254e-07
4.64078e-07
4.62873e-07
4.61645e-07
4.60401e-07
4.59139e-07
4.57864e-07
4.56582e-07
4.55288e-07
4.5398e-07
4.52667e-07
4.51366e-07
4.50074e-07
4.48777e-07
4.47474e-07
4.46178e-07
4.44903e-07
4.43643e-07
4.42391e-07
4.4115e-07
4.39926e-07
4.38723e-07
4.37542e-07
4.36378e-07
4.35234e-07
4.34111e-07
4.33008e-07
4.31924e-07
4.30857e-07
4.29804e-07
4.28762e-07
4.27727e-07
4.26691e-07
4.25648e-07
4.24584e-07
4.23488e-07
4.22359e-07
4.21204e-07
4.20012e-07
4.18769e-07
4.1746e-07
4.16083e-07
4.14628e-07
4.13105e-07
4.11524e-07
4.09965e-07
4.7212e-07
4.72028e-07
4.71844e-07
4.71568e-07
4.712e-07
4.70745e-07
4.70208e-07
4.69595e-07
4.68913e-07
4.68167e-07
4.67364e-07
4.66509e-07
4.65607e-07
4.64662e-07
4.63681e-07
4.62666e-07
4.61621e-07
4.60552e-07
4.59464e-07
4.58357e-07
4.57236e-07
4.56105e-07
4.54961e-07
4.53802e-07
4.52638e-07
4.51484e-07
4.50337e-07
4.49185e-07
4.48026e-07
4.46874e-07
4.45742e-07
4.44624e-07
4.43514e-07
4.42412e-07
4.41327e-07
4.40262e-07
4.39216e-07
4.38186e-07
4.37174e-07
4.36181e-07
4.35209e-07
4.34255e-07
4.33318e-07
4.32397e-07
4.3149e-07
4.30596e-07
4.29711e-07
4.28835e-07
4.27968e-07
4.27105e-07
4.26226e-07
4.25325e-07
4.24403e-07
4.2346e-07
4.22484e-07
4.21473e-07
4.2042e-07
4.1934e-07
4.18245e-07
4.17215e-07
4.69437e-07
4.69363e-07
4.69214e-07
4.68989e-07
4.68689e-07
4.68316e-07
4.67874e-07
4.67366e-07
4.66797e-07
4.66172e-07
4.65494e-07
4.64768e-07
4.63998e-07
4.63187e-07
4.62341e-07
4.61461e-07
4.60551e-07
4.59618e-07
4.58665e-07
4.57692e-07
4.56704e-07
4.55707e-07
4.54696e-07
4.53668e-07
4.52635e-07
4.51611e-07
4.50595e-07
4.49573e-07
4.48543e-07
4.47521e-07
4.46518e-07
4.4553e-07
4.44548e-07
4.43577e-07
4.42623e-07
4.41689e-07
4.40776e-07
4.39882e-07
4.39008e-07
4.38157e-07
4.37331e-07
4.36528e-07
4.35749e-07
4.34995e-07
4.34265e-07
4.33558e-07
4.32872e-07
4.32204e-07
4.31546e-07
4.30898e-07
4.30263e-07
4.29642e-07
4.29027e-07
4.28417e-07
4.27808e-07
4.27201e-07
4.26592e-07
4.25996e-07
4.25428e-07
4.2496e-07
4.67308e-07
4.67246e-07
4.67121e-07
4.66932e-07
4.6668e-07
4.66366e-07
4.65993e-07
4.65562e-07
4.65078e-07
4.64544e-07
4.63962e-07
4.63337e-07
4.6267e-07
4.61966e-07
4.61228e-07
4.60459e-07
4.59659e-07
4.58837e-07
4.57996e-07
4.57135e-07
4.5626e-07
4.55374e-07
4.54474e-07
4.53558e-07
4.52637e-07
4.51726e-07
4.50822e-07
4.49912e-07
4.48994e-07
4.48086e-07
4.47196e-07
4.46322e-07
4.45457e-07
4.44602e-07
4.43767e-07
4.42955e-07
4.42165e-07
4.41397e-07
4.40653e-07
4.39936e-07
4.39248e-07
4.3859e-07
4.37962e-07
4.37366e-07
4.36802e-07
4.36271e-07
4.35773e-07
4.3531e-07
4.34881e-07
4.34485e-07
4.34126e-07
4.33803e-07
4.33513e-07
4.33261e-07
4.33043e-07
4.32865e-07
4.32727e-07
4.32644e-07
4.32631e-07
4.32751e-07
4.65643e-07
4.65589e-07
4.65481e-07
4.65319e-07
4.65101e-07
4.6483e-07
4.64507e-07
4.64133e-07
4.63713e-07
4.63246e-07
4.62737e-07
4.62189e-07
4.61603e-07
4.60981e-07
4.60329e-07
4.59646e-07
4.58935e-07
4.58202e-07
4.5745e-07
4.56681e-07
4.55896e-07
4.55103e-07
4.54296e-07
4.53473e-07
4.52645e-07
4.51828e-07
4.51018e-07
4.50203e-07
4.49381e-07
4.4857e-07
4.47779e-07
4.47004e-07
4.4624e-07
4.45488e-07
4.44758e-07
4.44054e-07
4.43376e-07
4.42722e-07
4.42098e-07
4.41505e-07
4.40948e-07
4.40426e-07
4.39943e-07
4.39501e-07
4.39102e-07
4.38748e-07
4.38443e-07
4.38184e-07
4.37975e-07
4.37823e-07
4.37729e-07
4.37695e-07
4.37724e-07
4.3782e-07
4.37986e-07
4.38229e-07
4.38554e-07
4.38974e-07
4.39507e-07
4.40203e-07
4.64377e-07
4.64329e-07
4.64234e-07
4.6409e-07
4.63897e-07
4.63657e-07
4.6337e-07
4.63038e-07
4.62663e-07
4.62247e-07
4.61792e-07
4.61301e-07
4.60775e-07
4.60216e-07
4.59628e-07
4.59012e-07
4.58369e-07
4.57705e-07
4.57024e-07
4.56326e-07
4.55614e-07
4.54893e-07
4.5416e-07
4.53411e-07
4.52659e-07
4.51917e-07
4.51184e-07
4.50446e-07
4.49704e-07
4.48972e-07
4.48262e-07
4.4757e-07
4.46889e-07
4.46224e-07
4.45583e-07
4.44971e-07
4.44387e-07
4.43832e-07
4.4331e-07
4.42825e-07
4.42381e-07
4.41979e-07
4.41624e-07
4.41317e-07
4.41063e-07
4.40866e-07
4.40727e-07
4.40652e-07
4.40645e-07
4.40713e-07
4.40859e-07
4.41089e-07
4.41408e-07
4.41823e-07
4.42341e-07
4.42969e-07
4.43719e-07
4.44602e-07
4.4564e-07
4.46868e-07
4.63463e-07
4.6342e-07
4.63333e-07
4.63202e-07
4.63027e-07
4.62808e-07
4.62546e-07
4.62243e-07
4.61901e-07
4.6152e-07
4.61104e-07
4.60654e-07
4.60171e-07
4.59657e-07
4.59116e-07
4.58547e-07
4.57954e-07
4.57341e-07
4.56712e-07
4.56067e-07
4.55409e-07
4.54742e-07
4.54064e-07
4.53371e-07
4.52675e-07
4.51991e-07
4.51316e-07
4.50637e-07
4.49954e-07
4.49283e-07
4.48635e-07
4.48007e-07
4.47392e-07
4.46794e-07
4.46222e-07
4.45681e-07
4.45171e-07
4.44695e-07
4.44254e-07
4.43856e-07
4.43502e-07
4.43197e-07
4.42944e-07
4.42747e-07
4.42612e-07
4.42542e-07
4.42542e-07
4.42619e-07
4.42779e-07
4.43028e-07
4.43372e-07
4.4382e-07
4.44379e-07
4.45059e-07
4.45868e-07
4.46819e-07
4.47923e-07
4.49195e-07
4.50655e-07
4.52329e-07
4.62871e-07
4.62831e-07
4.62749e-07
4.62626e-07
4.62462e-07
4.62256e-07
4.6201e-07
4.61726e-07
4.61404e-07
4.61046e-07
4.60655e-07
4.60231e-07
4.59776e-07
4.59291e-07
4.5878e-07
4.58243e-07
4.57683e-07
4.57103e-07
4.56508e-07
4.55898e-07
4.55275e-07
4.54645e-07
4.54003e-07
4.53347e-07
4.52689e-07
4.52043e-07
4.51407e-07
4.50768e-07
4.50125e-07
4.49496e-07
4.4889e-07
4.48305e-07
4.47734e-07
4.47182e-07
4.46658e-07
4.46167e-07
4.45709e-07
4.45286e-07
4.44903e-07
4.44564e-07
4.44274e-07
4.44036e-07
4.43856e-07
4.43737e-07
4.43684e-07
4.43705e-07
4.43803e-07
4.43988e-07
4.44265e-07
4.44643e-07
4.45129e-07
4.45732e-07
4.46464e-07
4.47332e-07
4.48352e-07
4.49533e-07
4.50893e-07
4.52446e-07
4.54211e-07
4.56209e-07
4.6258e-07
4.62541e-07
4.62462e-07
4.62343e-07
4.62184e-07
4.61985e-07
4.61747e-07
4.61471e-07
4.6116e-07
4.60813e-07
4.60433e-07
4.60022e-07
4.59581e-07
4.5911e-07
4.58615e-07
4.58093e-07
4.57549e-07
4.56986e-07
4.56408e-07
4.55814e-07
4.55209e-07
4.54597e-07
4.53974e-07
4.53337e-07
4.52697e-07
4.52071e-07
4.51454e-07
4.50835e-07
4.50213e-07
4.49604e-07
4.4902e-07
4.48456e-07
4.47909e-07
4.4738e-07
4.4688e-07
4.46413e-07
4.45982e-07
4.45587e-07
4.45233e-07
4.44925e-07
4.44667e-07
4.44465e-07
4.44321e-07
4.44242e-07
4.44233e-07
4.443e-07
4.4445e-07
4.4469e-07
4.45029e-07
4.45474e-07
4.46034e-07
4.46718e-07
4.47539e-07
4.48506e-07
4.49636e-07
4.50938e-07
4.52432e-07
4.54132e-07
4.56058e-07
4.58226e-07
4.6258e-07
4.62541e-07
4.62462e-07
4.62343e-07
4.62184e-07
4.61985e-07
4.61747e-07
4.61471e-07
4.6116e-07
4.60813e-07
4.60433e-07
4.60022e-07
4.59581e-07
4.59111e-07
4.58615e-07
4.58094e-07
4.57549e-07
4.56986e-07
4.56408e-07
4.55815e-07
4.5521e-07
4.54597e-07
4.53974e-07
4.53337e-07
4.52698e-07
4.52071e-07
4.51455e-07
4.50835e-07
4.50213e-07
4.49604e-07
4.4902e-07
4.48457e-07
4.47909e-07
4.4738e-07
4.4688e-07
4.46414e-07
4.45982e-07
4.45587e-07
4.45233e-07
4.44925e-07
4.44668e-07
4.44465e-07
4.44321e-07
4.44242e-07
4.44233e-07
4.443e-07
4.4445e-07
4.44691e-07
4.4503e-07
4.45474e-07
4.46034e-07
4.46719e-07
4.47539e-07
4.48507e-07
4.49636e-07
4.50939e-07
4.52433e-07
4.54133e-07
4.56059e-07
4.58227e-07
4.62871e-07
4.62831e-07
4.6275e-07
4.62627e-07
4.62462e-07
4.62257e-07
4.62011e-07
4.61726e-07
4.61405e-07
4.61047e-07
4.60655e-07
4.60231e-07
4.59776e-07
4.59292e-07
4.58781e-07
4.58244e-07
4.57683e-07
4.57104e-07
4.56509e-07
4.55898e-07
4.55276e-07
4.54645e-07
4.54004e-07
4.53348e-07
4.5269e-07
4.52044e-07
4.51408e-07
4.50769e-07
4.50126e-07
4.49497e-07
4.48891e-07
4.48306e-07
4.47735e-07
4.47183e-07
4.46659e-07
4.46168e-07
4.4571e-07
4.45287e-07
4.44904e-07
4.44565e-07
4.44275e-07
4.44038e-07
4.43857e-07
4.43738e-07
4.43685e-07
4.43706e-07
4.43805e-07
4.43989e-07
4.44267e-07
4.44645e-07
4.45131e-07
4.45734e-07
4.46466e-07
4.47334e-07
4.48354e-07
4.49536e-07
4.50896e-07
4.52448e-07
4.54214e-07
4.56212e-07
4.63464e-07
4.63421e-07
4.63334e-07
4.63203e-07
4.63028e-07
4.62808e-07
4.62547e-07
4.62244e-07
4.61901e-07
4.61521e-07
4.61105e-07
4.60655e-07
4.60171e-07
4.59658e-07
4.59116e-07
4.58548e-07
4.57955e-07
4.57342e-07
4.56713e-07
4.56068e-07
4.5541e-07
4.54743e-07
4.54065e-07
4.53372e-07
4.52676e-07
4.51992e-07
4.51317e-07
4.50638e-07
4.49955e-07
4.49284e-07
4.48637e-07
4.48008e-07
4.47393e-07
4.46795e-07
4.46223e-07
4.45682e-07
4.45173e-07
4.44696e-07
4.44256e-07
4.43858e-07
4.43504e-07
4.43199e-07
4.42946e-07
4.4275e-07
4.42615e-07
4.42545e-07
4.42545e-07
4.42622e-07
4.42781e-07
4.4303e-07
4.43375e-07
4.43823e-07
4.44382e-07
4.45062e-07
4.45872e-07
4.46822e-07
4.47927e-07
4.49199e-07
4.50659e-07
4.52334e-07
4.64378e-07
4.6433e-07
4.64235e-07
4.64091e-07
4.63898e-07
4.63658e-07
4.63371e-07
4.63039e-07
4.62664e-07
4.62248e-07
4.61793e-07
4.61302e-07
4.60776e-07
4.60218e-07
4.5963e-07
4.59013e-07
4.5837e-07
4.57707e-07
4.57026e-07
4.56327e-07
4.55615e-07
4.54895e-07
4.54161e-07
4.53413e-07
4.5266e-07
4.51919e-07
4.51186e-07
4.50448e-07
4.49705e-07
4.48974e-07
4.48264e-07
4.47572e-07
4.46891e-07
4.46226e-07
4.45585e-07
4.44973e-07
4.44389e-07
4.43834e-07
4.43312e-07
4.42828e-07
4.42384e-07
4.41982e-07
4.41627e-07
4.4132e-07
4.41067e-07
4.4087e-07
4.40731e-07
4.40656e-07
4.40649e-07
4.40717e-07
4.40864e-07
4.41094e-07
4.41413e-07
4.41828e-07
4.42345e-07
4.42974e-07
4.43724e-07
4.44608e-07
4.45645e-07
4.46874e-07
4.65644e-07
4.65591e-07
4.65483e-07
4.6532e-07
4.65103e-07
4.64832e-07
4.64508e-07
4.64135e-07
4.63714e-07
4.63248e-07
4.62739e-07
4.62191e-07
4.61604e-07
4.60983e-07
4.6033e-07
4.59647e-07
4.58936e-07
4.58203e-07
4.57452e-07
4.56682e-07
4.55898e-07
4.55105e-07
4.54298e-07
4.53474e-07
4.52647e-07
4.5183e-07
4.5102e-07
4.50205e-07
4.49384e-07
4.48572e-07
4.47781e-07
4.47007e-07
4.46242e-07
4.45491e-07
4.44761e-07
4.44057e-07
4.43378e-07
4.42725e-07
4.42101e-07
4.41509e-07
4.40951e-07
4.4043e-07
4.39947e-07
4.39505e-07
4.39105e-07
4.38752e-07
4.38447e-07
4.38188e-07
4.3798e-07
4.37828e-07
4.37734e-07
4.377e-07
4.3773e-07
4.37826e-07
4.37992e-07
4.38236e-07
4.3856e-07
4.38981e-07
4.39514e-07
4.40211e-07
4.6731e-07
4.67248e-07
4.67123e-07
4.66934e-07
4.66682e-07
4.66368e-07
4.65994e-07
4.65564e-07
4.6508e-07
4.64545e-07
4.63964e-07
4.63339e-07
4.62672e-07
4.61968e-07
4.6123e-07
4.60461e-07
4.59661e-07
4.58839e-07
4.57998e-07
4.57137e-07
4.56262e-07
4.55376e-07
4.54477e-07
4.53561e-07
4.5264e-07
4.51728e-07
4.50824e-07
4.49914e-07
4.48997e-07
4.48088e-07
4.47199e-07
4.46325e-07
4.4546e-07
4.44605e-07
4.4377e-07
4.42958e-07
4.42168e-07
4.414e-07
4.40656e-07
4.3994e-07
4.39252e-07
4.38594e-07
4.37967e-07
4.37371e-07
4.36807e-07
4.36275e-07
4.35778e-07
4.35316e-07
4.34886e-07
4.34491e-07
4.34132e-07
4.33809e-07
4.3352e-07
4.33267e-07
4.3305e-07
4.32872e-07
4.32734e-07
4.32652e-07
4.32639e-07
4.3276e-07
4.69439e-07
4.69365e-07
4.69216e-07
4.68991e-07
4.68691e-07
4.68318e-07
4.67876e-07
4.67368e-07
4.66799e-07
4.66174e-07
4.65496e-07
4.6477e-07
4.64e-07
4.63189e-07
4.62343e-07
4.61463e-07
4.60554e-07
4.5962e-07
4.58667e-07
4.57694e-07
4.56707e-07
4.55709e-07
4.54698e-07
4.5367e-07
4.52637e-07
4.51614e-07
4.50598e-07
4.49576e-07
4.48546e-07
4.47524e-07
4.46521e-07
4.45533e-07
4.44552e-07
4.4358e-07
4.42626e-07
4.41693e-07
4.4078e-07
4.39886e-07
4.39012e-07
4.38161e-07
4.37335e-07
4.36533e-07
4.35754e-07
4.35e-07
4.34271e-07
4.33564e-07
4.32878e-07
4.3221e-07
4.31553e-07
4.30904e-07
4.3027e-07
4.29649e-07
4.29034e-07
4.28425e-07
4.27816e-07
4.27209e-07
4.26601e-07
4.26006e-07
4.25438e-07
4.2497e-07
4.72122e-07
4.7203e-07
4.71847e-07
4.7157e-07
4.71203e-07
4.70747e-07
4.7021e-07
4.69597e-07
4.68915e-07
4.68169e-07
4.67366e-07
4.66511e-07
4.65609e-07
4.64665e-07
4.63684e-07
4.62669e-07
4.61623e-07
4.60555e-07
4.59466e-07
4.5836e-07
4.57238e-07
4.56108e-07
4.54964e-07
4.53805e-07
4.52641e-07
4.51487e-07
4.5034e-07
4.49189e-07
4.48029e-07
4.46878e-07
4.45745e-07
4.44628e-07
4.43517e-07
4.42416e-07
4.41331e-07
4.40266e-07
4.3922e-07
4.3819e-07
4.37178e-07
4.36186e-07
4.35214e-07
4.3426e-07
4.33323e-07
4.32403e-07
4.31496e-07
4.30602e-07
4.29717e-07
4.28841e-07
4.27975e-07
4.27112e-07
4.26233e-07
4.25333e-07
4.24412e-07
4.23469e-07
4.22493e-07
4.21482e-07
4.2043e-07
4.1935e-07
4.18256e-07
4.17226e-07
4.75485e-07
4.75367e-07
4.7513e-07
4.74776e-07
4.74307e-07
4.73732e-07
4.73059e-07
4.72298e-07
4.71461e-07
4.70555e-07
4.6959e-07
4.68572e-07
4.67507e-07
4.664e-07
4.65257e-07
4.64081e-07
4.62876e-07
4.61648e-07
4.60403e-07
4.59142e-07
4.57867e-07
4.56585e-07
4.55291e-07
4.53983e-07
4.52671e-07
4.51369e-07
4.50077e-07
4.48781e-07
4.47478e-07
4.46182e-07
4.44906e-07
4.43647e-07
4.42395e-07
4.41154e-07
4.3993e-07
4.38728e-07
4.37546e-07
4.36383e-07
4.35239e-07
4.34116e-07
4.33013e-07
4.31929e-07
4.30862e-07
4.2981e-07
4.28768e-07
4.27734e-07
4.26698e-07
4.25655e-07
4.24591e-07
4.23495e-07
4.22368e-07
4.21213e-07
4.20021e-07
4.18778e-07
4.17469e-07
4.16093e-07
4.14638e-07
4.13116e-07
4.11535e-07
4.09977e-07
4.79741e-07
4.79578e-07
4.79252e-07
4.78767e-07
4.78133e-07
4.77366e-07
4.76485e-07
4.75507e-07
4.74448e-07
4.73321e-07
4.72137e-07
4.70902e-07
4.69624e-07
4.68308e-07
4.66961e-07
4.65586e-07
4.64187e-07
4.6277e-07
4.61341e-07
4.599e-07
4.58449e-07
4.56994e-07
4.5553e-07
4.54055e-07
4.52577e-07
4.51111e-07
4.49658e-07
4.48201e-07
4.46739e-07
4.45285e-07
4.43852e-07
4.42436e-07
4.4103e-07
4.39634e-07
4.38257e-07
4.36901e-07
4.35568e-07
4.34255e-07
4.32962e-07
4.31694e-07
4.30448e-07
4.29224e-07
4.28019e-07
4.2683e-07
4.25651e-07
4.24478e-07
4.23305e-07
4.22125e-07
4.20929e-07
4.19718e-07
4.18476e-07
4.17186e-07
4.15809e-07
4.14345e-07
4.12789e-07
4.11136e-07
4.09369e-07
4.07494e-07
4.05517e-07
4.03513e-07
4.85174e-07
4.84959e-07
4.84527e-07
4.83879e-07
4.83032e-07
4.82015e-07
4.80859e-07
4.79597e-07
4.78253e-07
4.76843e-07
4.75381e-07
4.73876e-07
4.72334e-07
4.70763e-07
4.69169e-07
4.67556e-07
4.65927e-07
4.64289e-07
4.62645e-07
4.60995e-07
4.59341e-07
4.57687e-07
4.5603e-07
4.54363e-07
4.52697e-07
4.51046e-07
4.49409e-07
4.47773e-07
4.46132e-07
4.44502e-07
4.42896e-07
4.41312e-07
4.39743e-07
4.3819e-07
4.36664e-07
4.35169e-07
4.33707e-07
4.32273e-07
4.3087e-07
4.29497e-07
4.28154e-07
4.26839e-07
4.25548e-07
4.24277e-07
4.23022e-07
4.21776e-07
4.2053e-07
4.19271e-07
4.17992e-07
4.16674e-07
4.15295e-07
4.13822e-07
4.12298e-07
4.107e-07
4.08995e-07
4.07161e-07
4.0518e-07
4.03045e-07
4.00757e-07
3.98365e-07
4.91783e-07
4.91348e-07
4.90558e-07
4.89464e-07
4.88133e-07
4.86636e-07
4.85033e-07
4.8336e-07
4.81641e-07
4.79885e-07
4.78099e-07
4.7629e-07
4.74462e-07
4.72623e-07
4.70777e-07
4.68927e-07
4.67074e-07
4.65222e-07
4.63373e-07
4.61523e-07
4.59674e-07
4.57829e-07
4.55981e-07
4.54126e-07
4.52272e-07
4.50433e-07
4.48608e-07
4.4678e-07
4.44946e-07
4.4312e-07
4.41318e-07
4.39535e-07
4.37762e-07
4.36002e-07
4.34268e-07
4.32568e-07
4.30909e-07
4.29294e-07
4.27729e-07
4.26218e-07
4.24764e-07
4.23363e-07
4.22012e-07
4.20704e-07
4.19435e-07
4.1819e-07
4.16964e-07
4.15738e-07
4.14507e-07
4.13256e-07
4.1196e-07
4.1061e-07
4.09164e-07
4.07595e-07
4.05916e-07
4.04076e-07
4.02088e-07
3.99889e-07
3.97513e-07
3.94909e-07
5.03454e-07
5.02701e-07
5.01282e-07
4.99323e-07
4.97028e-07
4.94595e-07
4.9215e-07
4.89743e-07
4.87377e-07
4.85039e-07
4.82721e-07
4.80423e-07
4.78148e-07
4.75902e-07
4.73688e-07
4.71502e-07
4.6934e-07
4.67202e-07
4.65084e-07
4.62979e-07
4.60886e-07
4.58806e-07
4.5673e-07
4.54652e-07
4.5258e-07
4.50526e-07
4.48487e-07
4.46447e-07
4.44405e-07
4.42375e-07
4.40369e-07
4.38385e-07
4.36418e-07
4.34476e-07
4.32576e-07
4.3073e-07
4.28943e-07
4.27214e-07
4.25547e-07
4.23937e-07
4.22389e-07
4.20894e-07
4.19462e-07
4.18084e-07
4.16772e-07
4.15508e-07
4.14297e-07
4.13098e-07
4.11932e-07
4.10726e-07
4.09545e-07
4.08285e-07
4.07004e-07
4.05568e-07
4.04094e-07
4.0239e-07
4.00669e-07
3.98619e-07
3.9657e-07
3.93992e-07
5.1213e-07
5.10399e-07
5.07748e-07
5.04612e-07
5.01383e-07
4.98271e-07
4.95327e-07
4.92515e-07
4.89785e-07
4.87107e-07
4.84473e-07
4.8189e-07
4.79363e-07
4.76893e-07
4.74473e-07
4.72092e-07
4.69743e-07
4.6742e-07
4.65118e-07
4.62831e-07
4.60554e-07
4.58282e-07
4.56012e-07
4.5374e-07
4.51472e-07
4.49209e-07
4.46941e-07
4.44664e-07
4.42386e-07
4.40123e-07
4.37872e-07
4.35613e-07
4.33334e-07
4.31043e-07
4.28772e-07
4.26561e-07
4.24453e-07
4.22476e-07
4.20654e-07
4.18983e-07
4.17466e-07
4.16079e-07
4.14825e-07
4.13672e-07
4.12635e-07
4.11665e-07
4.10794e-07
4.09931e-07
4.09121e-07
4.08242e-07
4.074e-07
4.06378e-07
4.05425e-07
4.04175e-07
4.03115e-07
4.01575e-07
4.00515e-07
3.98568e-07
3.97705e-07
3.94751e-07
5.60146e-07
5.46019e-07
5.32243e-07
5.21653e-07
5.14213e-07
5.08801e-07
5.04324e-07
5.00215e-07
4.96304e-07
4.926e-07
4.89139e-07
4.85924e-07
4.82923e-07
4.80084e-07
4.77362e-07
4.74723e-07
4.72147e-07
4.6962e-07
4.67132e-07
4.64675e-07
4.62237e-07
4.59811e-07
4.57394e-07
4.54987e-07
4.52582e-07
4.50173e-07
4.47757e-07
4.45342e-07
4.42934e-07
4.40533e-07
4.38134e-07
4.35733e-07
4.33334e-07
4.3095e-07
4.28607e-07
4.26334e-07
4.2416e-07
4.22099e-07
4.20159e-07
4.18339e-07
4.16637e-07
4.15057e-07
4.13609e-07
4.123e-07
4.1114e-07
4.10117e-07
4.09228e-07
4.08427e-07
4.07702e-07
4.06968e-07
4.06253e-07
4.05411e-07
4.04596e-07
4.03494e-07
4.02587e-07
4.01013e-07
4.00283e-07
3.9758e-07
3.98135e-07
3.91192e-07
4.20803e-07
3.66957e-07
3.41441e-07
3.22256e-07
3.04641e-07
2.87512e-07
2.68843e-07
2.48965e-07
2.26254e-07
2.01722e-07
1.74337e-07
1.46027e-07
1.16127e-07
8.65925e-08
5.68514e-08
2.93259e-08
2.97243e-09
-1.90025e-08
-3.87821e-08
-5.26498e-08
-6.41609e-08
-6.90722e-08
-7.25168e-08
-6.88699e-08
-6.59265e-08
-5.37886e-08
-4.84328e-08
-2.89357e-08
-2.30914e-08
-6.0877e-08
4.03158e-07
3.46901e-07
3.28283e-07
3.1324e-07
2.97013e-07
2.80124e-07
2.61784e-07
2.42237e-07
2.19736e-07
1.95588e-07
1.68864e-07
1.41425e-07
1.12648e-07
8.42983e-08
5.58156e-08
2.94549e-08
4.06607e-09
-1.71056e-08
-3.65653e-08
-5.03149e-08
-6.22877e-08
-6.7676e-08
-7.23375e-08
-6.95569e-08
-6.83835e-08
-5.81715e-08
-5.21183e-08
-3.99373e-08
-1.83194e-08
-8.44282e-08
3.88695e-07
3.44511e-07
3.2773e-07
3.13224e-07
2.9652e-07
2.7898e-07
2.5974e-07
2.39494e-07
2.16789e-07
1.92536e-07
1.65938e-07
1.38615e-07
1.10142e-07
8.21254e-08
5.40595e-08
2.8198e-08
3.16292e-09
-1.7574e-08
-3.6869e-08
-5.0307e-08
-6.237e-08
-6.7802e-08
-7.26052e-08
-7.04012e-08
-6.87511e-08
-6.07542e-08
-5.29037e-08
-4.84549e-08
-1.52699e-08
-5.97423e-08
3.77282e-07
3.40548e-07
3.22173e-07
3.0806e-07
2.91922e-07
2.74597e-07
2.55621e-07
2.3542e-07
2.1267e-07
1.88315e-07
1.6182e-07
1.34596e-07
1.06379e-07
7.86329e-08
5.0971e-08
2.55179e-08
9.7378e-10
-1.94523e-08
-3.83655e-08
-5.18423e-08
-6.3559e-08
-6.94992e-08
-7.35946e-08
-7.27402e-08
-6.97314e-08
-6.49864e-08
-5.29421e-08
-5.35547e-08
-1.86834e-08
-4.46534e-08
3.66656e-07
3.37256e-07
3.18968e-07
3.05772e-07
2.90248e-07
2.7255e-07
2.52978e-07
2.32022e-07
2.08979e-07
1.84289e-07
1.57763e-07
1.30404e-07
1.02278e-07
7.45516e-08
4.71857e-08
2.18018e-08
-2.32574e-09
-2.27894e-08
-4.1108e-08
-5.49938e-08
-6.60085e-08
-7.28016e-08
-7.5818e-08
-7.61743e-08
-7.13337e-08
-6.81402e-08
-5.39769e-08
-5.3617e-08
-2.5662e-08
-3.10383e-08
3.57536e-07
3.34593e-07
3.1672e-07
3.02864e-07
2.87306e-07
2.69507e-07
2.49726e-07
2.283e-07
2.05018e-07
1.79999e-07
1.53357e-07
1.25803e-07
9.76637e-08
6.98244e-08
4.26607e-08
1.71764e-08
-6.50442e-09
-2.72046e-08
-4.49618e-08
-5.92421e-08
-6.96859e-08
-7.72125e-08
-7.93778e-08
-8.04175e-08
-7.44886e-08
-7.12585e-08
-5.72415e-08
-5.29371e-08
-3.2714e-08
-2.59252e-08
3.50255e-07
3.32158e-07
3.1493e-07
3.00197e-07
2.84535e-07
2.66582e-07
2.46585e-07
2.24615e-07
2.00952e-07
1.75534e-07
1.48644e-07
1.20833e-07
9.2582e-08
6.45603e-08
3.75234e-08
1.18885e-08
-1.14411e-08
-3.24026e-08
-4.98196e-08
-6.47756e-08
-7.45361e-08
-8.24364e-08
-8.43457e-08
-8.54562e-08
-7.94669e-08
-7.51366e-08
-6.24932e-08
-5.45005e-08
-3.86006e-08
-2.70683e-08
3.44828e-07
3.29782e-07
3.13283e-07
2.97821e-07
2.81826e-07
2.63588e-07
2.4329e-07
2.2079e-07
1.96639e-07
1.708e-07
1.43559e-07
1.15455e-07
8.7017e-08
5.87767e-08
3.17787e-08
5.99474e-09
-1.71409e-08
-3.82555e-08
-5.55261e-08
-7.0544e-08
-8.04681e-08
-8.8455e-08
-9.06688e-08
-9.14971e-08
-8.61253e-08
-8.05253e-08
-6.91708e-08
-5.86346e-08
-4.42546e-08
-3.08059e-08
3.40996e-07
3.27436e-07
3.11654e-07
2.9569e-07
2.79168e-07
2.60493e-07
2.39783e-07
2.16778e-07
1.92057e-07
1.65765e-07
1.38087e-07
1.09643e-07
8.09557e-08
5.24623e-08
2.54143e-08
-5.01768e-10
-2.36076e-08
-4.47613e-08
-6.2109e-08
-7.71154e-08
-8.74156e-08
-9.53975e-08
-9.81734e-08
-9.87704e-08
-9.41604e-08
-8.77667e-08
-7.70618e-08
-6.53327e-08
-5.09611e-08
-3.6919e-08
3.38335e-07
3.25221e-07
3.09966e-07
2.93659e-07
2.765e-07
2.57267e-07
2.36021e-07
2.12519e-07
1.87168e-07
1.60373e-07
1.32195e-07
1.03339e-07
7.43615e-08
4.55748e-08
1.83938e-08
-7.6361e-09
-3.08596e-08
-5.19886e-08
-6.9567e-08
-8.4581e-08
-9.53293e-08
-1.03402e-07
-1.06801e-07
-1.07411e-07
-1.03495e-07
-9.68813e-08
-8.64224e-08
-7.41867e-08
-5.95014e-08
-4.49707e-08
3.36403e-07
3.23233e-07
3.08188e-07
2.91566e-07
2.73725e-07
2.53861e-07
2.31971e-07
2.0794e-07
1.81921e-07
1.54545e-07
1.25831e-07
9.64761e-08
6.71718e-08
3.80566e-08
1.06579e-08
-1.54646e-08
-3.89175e-08
-6.00358e-08
-7.78946e-08
-9.30358e-08
-1.04217e-07
-1.12555e-07
-1.16625e-07
-1.17503e-07
-1.14208e-07
-1.07819e-07
-9.75647e-08
-8.51565e-08
-7.01841e-08
-5.52008e-08
3.3483e-07
3.21462e-07
3.06297e-07
2.89286e-07
2.70741e-07
2.50207e-07
2.27589e-07
2.02957e-07
1.76246e-07
1.4819e-07
1.18911e-07
8.89731e-08
5.92917e-08
2.98353e-08
2.12687e-09
-2.40759e-08
-4.78067e-08
-6.90119e-08
-8.71158e-08
-1.02535e-07
-1.14179e-07
-1.22923e-07
-1.27729e-07
-1.29173e-07
-1.26495e-07
-1.20629e-07
-1.10731e-07
-9.83747e-08
-8.3257e-08
-6.79539e-08
3.33378e-07
3.19782e-07
3.04255e-07
2.86746e-07
2.67472e-07
2.46232e-07
2.22825e-07
1.97476e-07
1.70044e-07
1.41202e-07
1.11315e-07
8.07354e-08
5.05946e-08
2.08082e-08
-7.28913e-09
-3.36044e-08
-5.75777e-08
-7.90047e-08
-9.73214e-08
-1.13098e-07
-1.25296e-07
-1.34572e-07
-1.40173e-07
-1.42467e-07
-1.40583e-07
-1.35455e-07
-1.26183e-07
-1.14099e-07
-9.90535e-08
-8.35492e-08
3.31926e-07
3.18046e-07
3.02021e-07
2.83917e-07
2.63873e-07
2.41856e-07
2.17601e-07
1.91392e-07
1.63184e-07
1.33463e-07
1.02886e-07
7.16385e-08
4.09337e-08
1.08212e-08
-1.76874e-08
-4.4208e-08
-6.83412e-08
-9.00698e-08
-1.08634e-07
-1.24762e-07
-1.37585e-07
-1.47565e-07
-1.54021e-07
-1.57423e-07
-1.56633e-07
-1.52508e-07
-1.44177e-07
-1.32726e-07
-1.17995e-07
-1.02581e-07
3.30441e-07
3.16167e-07
2.99565e-07
2.80791e-07
2.59913e-07
2.36998e-07
2.11812e-07
1.84585e-07
1.55498e-07
1.24829e-07
9.34416e-08
6.15082e-08
3.01531e-08
-3.30842e-10
-2.92002e-08
-5.60276e-08
-8.02734e-08
-1.02267e-07
-1.21141e-07
-1.37619e-07
-1.51051e-07
-1.619e-07
-1.69331e-07
-1.74011e-07
-1.7468e-07
-1.71952e-07
-1.64942e-07
-1.54599e-07
-1.40635e-07
-1.25689e-07
3.28994e-07
3.14151e-07
2.96903e-07
2.77358e-07
2.55545e-07
2.31562e-07
2.0531e-07
1.76917e-07
1.46788e-07
1.15105e-07
8.27809e-08
5.01156e-08
1.80782e-08
-1.28678e-08
-4.20271e-08
-6.91836e-08
-9.35613e-08
-1.15722e-07
-1.34896e-07
-1.51757e-07
-1.65741e-07
-1.77523e-07
-1.86108e-07
-1.92224e-07
-1.94649e-07
-1.93827e-07
-1.88649e-07
-1.79984e-07
-1.67382e-07
-1.53549e-07
3.27707e-07
3.12064e-07
2.94041e-07
2.73571e-07
2.50665e-07
2.25411e-07
1.97898e-07
1.68192e-07
1.36831e-07
1.04041e-07
7.06801e-08
3.7196e-08
4.48593e-09
-2.69934e-08
-5.64173e-08
-8.38316e-08
-1.08359e-07
-1.30613e-07
-1.49987e-07
-1.67227e-07
-1.8173e-07
-1.9441e-07
-2.04264e-07
-2.12032e-07
-2.16471e-07
-2.18061e-07
-2.1537e-07
-2.09144e-07
-1.98723e-07
-1.86668e-07
3.26672e-07
3.09967e-07
2.90943e-07
2.69309e-07
2.45076e-07
2.18328e-07
1.89316e-07
1.58136e-07
1.25362e-07
9.13308e-08
5.68631e-08
2.24687e-08
-1.09116e-08
-4.29267e-08
-7.26278e-08
-1.00199e-07
-1.24826e-07
-1.47121e-07
-1.66571e-07
-1.84095e-07
-1.99068e-07
-2.12579e-07
-2.23694e-07
-2.33282e-07
-2.40009e-07
-2.44492e-07
-2.45057e-07
-2.42256e-07
-2.35136e-07
-2.25985e-07
3.25826e-07
3.07777e-07
2.87413e-07
2.64302e-07
2.38458e-07
2.09984e-07
1.79229e-07
1.46387e-07
1.12039e-07
7.66165e-08
4.09673e-08
5.60374e-09
-2.84699e-08
-6.09707e-08
-9.09428e-08
-1.18577e-07
-1.43196e-07
-1.65429e-07
-1.84832e-07
-2.02461e-07
-2.17787e-07
-2.32e-07
-2.4431e-07
-2.55709e-07
-2.64964e-07
-2.72718e-07
-2.77341e-07
-2.79147e-07
-2.77043e-07
-2.72695e-07
3.24848e-07
3.05204e-07
2.83119e-07
2.58174e-07
2.30399e-07
1.9994e-07
1.67196e-07
1.32474e-07
9.63844e-08
5.94323e-08
2.25057e-08
-1.38508e-08
-4.86434e-08
-8.15535e-08
-1.11746e-07
-1.39325e-07
-1.63813e-07
-1.85779e-07
-2.04999e-07
-2.22432e-07
-2.37934e-07
-2.52525e-07
-2.65926e-07
-2.78895e-07
-2.9082e-07
-3.01983e-07
-3.11413e-07
-3.18882e-07
-3.23788e-07
-3.26915e-07
3.23279e-07
3.01762e-07
2.77584e-07
2.5043e-07
2.20367e-07
1.8761e-07
1.52599e-07
1.15758e-07
7.77336e-08
3.91305e-08
8.26218e-10
-3.65167e-08
-7.20275e-08
-1.05233e-07
-1.3556e-07
-1.62893e-07
-1.8713e-07
-2.08525e-07
-2.27396e-07
-2.44198e-07
-2.59601e-07