/*--------------------------------*- C++ -*----------------------------------*\
| =========                 |                                                 |
| \\      /  F ield         | OpenFOAM: The Open Source CFD Toolbox           |
|  \\    /   O peration     | Version:  2312                                  |
|   \\  /    A nd           | Website:  www.openfoam.com                      |
|    \\/     M anipulation  |                                                 |
\*---------------------------------------------------------------------------*/
FoamFile
{
    version     2.0;
    format      ascii;
    arch        "LSB;label=32;scalar=64";
    class       surfaceScalarField;
    location    "12000";
    object      phi;
}
// * * * * * * * * * * * * * * * * * * * * * * * * * * * * * * * * * * * * * //

dimensions      [0 3 -1 0 0 0 0];

oriented        oriented;

internalField   nonuniform List<scalar> 
21240
(
0.000664976
1.69073e-06
0.000661078
3.89779e-06
0.000655765
5.31292e-06
0.00064954
6.22485e-06
0.000642681
6.85963e-06
0.000635329
7.35169e-06
0.000627578
7.7514e-06
0.000619506
8.07203e-06
0.000611186
8.31939e-06
0.000602684
8.50204e-06
0.000594052
8.63232e-06
0.000585329
8.72258e-06
0.000576547
8.78201e-06
0.000567731
8.81668e-06
0.0005589
8.83059e-06
0.000550074
8.82615e-06
0.000541269
8.80447e-06
0.000532503
8.76623e-06
0.00052379
8.71314e-06
0.000515142
8.64771e-06
0.000506573
8.56977e-06
0.000498097
8.47581e-06
0.000489732
8.36465e-06
0.000481491
8.24113e-06
0.00047338
8.11051e-06
0.000465411
7.96931e-06
0.000457603
7.80795e-06
0.000449983
7.6201e-06
0.000442572
7.41074e-06
0.00043538
7.1919e-06
0.000428407
6.97367e-06
0.000421654
6.75276e-06
0.000415141
6.51341e-06
0.000408911
6.22952e-06
0.000403027
5.88392e-06
0.000397558
5.46944e-06
0.000392557
5.00053e-06
0.000388063
4.49453e-06
0.000384085
3.97747e-06
0.000380629
3.4564e-06
0.000377682
2.94703e-06
0.000375245
2.43638e-06
0.000373304
1.94114e-06
0.000371861
1.44284e-06
0.000370882
9.79485e-07
0.000370359
5.23355e-07
0.000370217
1.41472e-07
0.000370436
-2.19072e-07
0.0003709
-4.64165e-07
0.000371617
-7.16722e-07
0.000372412
-7.94918e-07
0.000373386
-9.7453e-07
0.000374263
-8.76554e-07
0.000375348
-1.0846e-06
0.000376099
-7.51088e-07
0.000377286
-1.18729e-06
0.000377677
-3.91003e-07
0.000379151
-1.4738e-06
0.000378732
4.19025e-07
-2.29879e-06
0.000381031
0.000667557
8.00532e-07
0.000669125
2.33008e-06
0.000670864
3.57369e-06
0.000672544
4.54516e-06
0.000674084
5.31891e-06
0.000675472
5.96354e-06
0.000676703
6.52037e-06
0.000677768
7.00775e-06
0.000678654
7.43277e-06
0.000679357
7.79967e-06
0.000679875
8.11362e-06
0.000680217
8.38114e-06
0.00068039
8.60926e-06
0.000680402
8.80408e-06
0.000680263
8.96945e-06
0.000679982
9.10712e-06
0.000679568
9.21869e-06
0.000679028
9.30628e-06
0.00067837
9.37163e-06
0.000677602
9.41533e-06
0.000676735
9.4366e-06
0.000675777
9.43386e-06
0.000674735
9.4072e-06
0.000673616
9.35918e-06
0.000672434
9.29255e-06
0.0006712
9.20425e-06
0.000669919
9.08871e-06
0.000668597
8.94139e-06
0.000667243
8.76509e-06
0.000665871
8.56429e-06
0.000664502
8.34282e-06
0.000663159
8.09573e-06
0.000661856
7.81609e-06
0.000660596
7.48927e-06
0.000659368
7.11257e-06
0.000658153
6.68368e-06
0.000656933
6.22101e-06
0.000655693
5.73483e-06
0.000654422
5.24821e-06
0.000653125
4.75286e-06
0.000651812
4.25995e-06
0.000650513
3.73577e-06
0.000649257
3.19705e-06
0.000648093
2.60718e-06
0.000647055
2.01738e-06
0.000646188
1.3903e-06
0.000645506
8.23593e-07
0.000645034
2.52662e-07
0.000644776
-2.06055e-07
0.000644735
-6.76003e-07
0.000644882
-9.41896e-07
0.000645174
-1.2663e-06
0.000645626
-1.32811e-06
0.000646093
-1.552e-06
0.000646788
-1.44579e-06
0.000647226
-1.62588e-06
0.000648215
-1.3799e-06
0.000648271
-1.52953e-06
0.000649892
-1.2022e-06
-1.20721e-06
0.0006488
0.000666952
5.15322e-07
0.000667822
1.45971e-06
0.000669067
2.32921e-06
0.000670498
3.11379e-06
0.000672008
3.80924e-06
0.000673548
4.42306e-06
0.000675101
4.9672e-06
0.000676657
5.45265e-06
0.000678202
5.88719e-06
0.000679726
6.27562e-06
0.000681219
6.62104e-06
0.000682674
6.92636e-06
0.000684088
7.19499e-06
0.000685461
7.43059e-06
0.000686795
7.63608e-06
0.000688089
7.81322e-06
0.000689344
7.96339e-06
0.000690562
8.0884e-06
0.000691743
8.19012e-06
0.000692889
8.26949e-06
0.000694
8.32593e-06
0.000695075
8.35821e-06
0.000696117
8.36605e-06
0.000697125
8.35117e-06
0.000698101
8.31598e-06
0.000699045
8.25992e-06
0.000699955
8.17914e-06
0.000700827
8.06899e-06
0.000701664
7.92881e-06
0.000702466
7.76227e-06
0.000703234
7.57405e-06
0.000703965
7.36531e-06
0.000704649
7.13178e-06
0.000705275
6.86382e-06
0.000705834
6.55326e-06
0.000706321
6.19622e-06
0.000706743
5.79921e-06
0.000707102
5.37586e-06
0.000707408
4.94272e-06
0.000707648
4.51243e-06
0.000707818
4.09041e-06
0.000707881
3.67262e-06
0.000707827
3.25095e-06
0.000707618
2.8165e-06
0.000707272
2.36248e-06
0.00070677
1.8927e-06
0.000706184
1.40957e-06
0.000705504
9.32387e-07
0.000704836
4.62416e-07
0.000704135
2.49517e-08
0.000703555
-3.62091e-07
0.000702984
-6.95394e-07
0.000702668
-1.01205e-06
0.000702355
-1.23929e-06
0.000702397
-1.48722e-06
0.000702377
-1.60564e-06
0.000702813
-1.81672e-06
0.000703094
-1.81025e-06
0.000703933
-2.04111e-06
-1.86053e-06
0.000704586
0.000666854
3.27647e-07
0.000667311
1.00339e-06
0.000667977
1.66319e-06
0.000668804
2.28628e-06
0.00066975
2.86337e-06
0.000670782
3.39143e-06
0.000671877
3.87184e-06
0.000673022
4.30809e-06
0.000674205
4.70403e-06
0.000675418
5.06281e-06
0.000676652
5.38659e-06
0.000677901
5.67708e-06
0.00067916
5.9362e-06
0.000680425
6.166e-06
0.000681693
6.36821e-06
0.000682962
6.54403e-06
0.000684231
6.69449e-06
0.000685498
6.82101e-06
0.000686763
6.9251e-06
0.000688025
7.0076e-06
0.000689283
7.06811e-06
0.000690535
7.10599e-06
0.00069178
7.12124e-06
0.000693016
7.11527e-06
0.000694242
7.0893e-06
0.000695459
7.04341e-06
0.000696663
6.97506e-06
0.00069785
6.88192e-06
0.000699016
6.76255e-06
0.000700159
6.61978e-06
0.000701277
6.4562e-06
0.000702367
6.27495e-06
0.000703426
6.07288e-06
0.000704443
5.8468e-06
0.000705407
5.58914e-06
0.000706302
5.30114e-06
0.000707118
4.98346e-06
0.000707842
4.65145e-06
0.000708473
4.31194e-06
0.000709001
3.98437e-06
0.000709428
3.66396e-06
0.000709738
3.36206e-06
0.000709935
3.05379e-06
0.000710003
2.74917e-06
0.000709955
2.41053e-06
0.000709782
2.0649e-06
0.000709524
1.6677e-06
0.000709179
1.27762e-06
0.00070881
8.31726e-07
0.000708404
4.30209e-07
0.000708071
-2.87751e-08
0.000707792
-4.16257e-07
0.00070766
-8.80394e-07
0.000707614
-1.19303e-06
0.000707771
-1.6441e-06
0.000708034
-1.86872e-06
0.000708549
-2.33133e-06
0.000709194
-2.45562e-06
0.000710128
-2.97486e-06
-2.98654e-06
0.000711254
0.000666738
2.55914e-07
0.00066697
7.71511e-07
0.000667358
1.27559e-06
0.000667883
1.76117e-06
0.000668524
2.22226e-06
0.00066926
2.65515e-06
0.000670074
3.0582e-06
0.000670951
3.43137e-06
0.000671879
3.77549e-06
0.000672851
4.09157e-06
0.000673857
4.38043e-06
0.000674891
4.64278e-06
0.000675948
4.87953e-06
0.000677022
5.09169e-06
0.00067811
5.28004e-06
0.000679209
5.44514e-06
0.000680316
5.58755e-06
0.000681429
5.70825e-06
0.000682546
5.80826e-06
0.000683665
5.88822e-06
0.000684785
5.9478e-06
0.000685905
5.98665e-06
0.000687021
6.00493e-06
0.000688132
6.00396e-06
0.000689237
5.98455e-06
0.000690334
5.94682e-06
0.00069142
5.88894e-06
0.000692492
5.80974e-06
0.000693546
5.70825e-06
0.000694579
5.58721e-06
0.000695586
5.4487e-06
0.000696565
5.29604e-06
0.000697511
5.12659e-06
0.00069842
4.93855e-06
0.000699284
4.72499e-06
0.000700097
4.48785e-06
0.000700854
4.22634e-06
0.000701551
3.95446e-06
0.000702187
3.67642e-06
0.00070276
3.41064e-06
0.000703273
3.15154e-06
0.000703723
2.91146e-06
0.000704112
2.66551e-06
0.000704436
2.42446e-06
0.000704699
2.14837e-06
0.000704901
1.86214e-06
0.000705053
1.51634e-06
0.000705166
1.16458e-06
0.000705257
7.40705e-07
0.00070535
3.3713e-07
0.000705459
-1.38203e-07
0.000705585
-5.41916e-07
0.000705752
-1.04714e-06
0.000705995
-1.43648e-06
0.000706323
-1.97153e-06
0.000706779
-2.32529e-06
0.00070735
-2.902e-06
0.000708097
-3.20251e-06
0.000708979
-3.85681e-06
-4.09588e-06
0.000710088
0.000666724
1.98234e-07
0.0006669
5.96056e-07
0.000667185
9.90515e-07
0.000667571
1.37504e-06
0.000668047
1.74584e-06
0.000668603
2.09991e-06
0.000669226
2.43505e-06
0.000669907
2.74992e-06
0.000670639
3.0439e-06
0.000671414
3.31677e-06
0.000672226
3.5684e-06
0.00067307
3.79885e-06
0.000673941
4.00847e-06
0.000674835
4.19772e-06
0.000675748
4.36689e-06
0.000676677
4.51612e-06
0.000677619
4.64569e-06
0.000678571
4.75621e-06
0.000679531
4.84834e-06
0.000680496
4.92246e-06
0.000681466
4.97827e-06
0.000682437
5.01555e-06
0.000683407
5.03461e-06
0.000684375
5.03657e-06
0.000685337
5.02201e-06
0.000686293
4.99088e-06
0.00068724
4.94182e-06
0.000688176
4.87423e-06
0.000689096
4.78783e-06
0.000689998
4.68499e-06
0.00069088
4.56734e-06
0.000691739
4.43727e-06
0.000692573
4.29259e-06
0.000693379
4.13199e-06
0.000694153
3.9507e-06
0.00069489
3.75099e-06
0.000695583
3.53333e-06
0.000696229
3.30893e-06
0.000696824
3.08123e-06
0.000697371
2.86356e-06
0.000697872
2.65064e-06
0.000698334
2.44982e-06
0.000698758
2.24097e-06
0.000699153
2.0293e-06
0.000699518
1.78388e-06
0.000699859
1.52086e-06
0.000700172
1.2031e-06
0.000700468
8.68983e-07
0.000700736
4.72227e-07
0.000700993
8.06372e-08
0.000701257
-4.02094e-07
0.000701561
-8.46587e-07
0.00070189
-1.37578e-06
0.000702287
-1.83337e-06
0.000702723
-2.40784e-06
0.00070326
-2.86197e-06
0.00070385
-3.49199e-06
0.000704583
-3.93594e-06
0.000705377
-4.65028e-06
-5.07717e-06
0.000706358
0.000666708
1.56674e-07
0.000666833
4.71333e-07
0.000667039
7.84517e-07
0.000667322
1.09162e-06
0.000667678
1.39006e-06
0.0006681
1.6776e-06
0.000668583
1.95243e-06
0.00066912
2.21323e-06
0.000669704
2.45932e-06
0.000670331
2.6901e-06
0.000670995
2.90398e-06
0.000671693
3.10108e-06
0.00067242
3.28152e-06
0.000673172
3.44541e-06
0.000673947
3.59272e-06
0.000674739
3.72336e-06
0.000675548
3.83741e-06
0.000676369
3.93523e-06
0.0006772
4.01723e-06
0.000678039
4.08357e-06
0.000678883
4.13393e-06
0.00067973
4.16815e-06
0.000680578
4.18657e-06
0.000681425
4.1901e-06
0.000682268
4.17918e-06
0.000683105
4.15361e-06
0.000683935
4.11233e-06
0.000684754
4.05501e-06
0.00068556
3.98182e-06
0.00068635
3.89479e-06
0.000687122
3.79536e-06
0.000687874
3.68505e-06
0.000688605
3.56212e-06
0.000689311
3.42521e-06
0.000689991
3.27108e-06
0.00069064
3.10154e-06
0.000691256
2.91799e-06
0.000691836
2.72877e-06
0.00069238
2.53727e-06
0.000692891
2.35212e-06
0.000693373
2.1694e-06
0.000693831
1.99186e-06
0.000694267
1.80439e-06
0.000694689
1.60711e-06
0.000695095
1.378e-06
0.000695492
1.12393e-06
0.000695875
8.20092e-07
0.000696257
4.87631e-07
0.000696634
9.49636e-08
0.000697016
-3.0122e-07
0.000697375
-7.61714e-07
0.000697749
-1.22069e-06
0.000698117
-1.74365e-06
0.000698523
-2.2387e-06
0.000698933
-2.8186e-06
0.000699412
-3.34097e-06
0.000699907
-3.98639e-06
0.000700505
-4.53426e-06
0.000701121
-5.26668e-06
-5.84031e-06
0.000701885
0.000666698
1.24934e-07
0.000666794
3.7542e-07
0.000666954
6.25039e-07
0.000667175
8.70567e-07
0.000667455
1.11022e-06
0.00066779
1.34239e-06
0.000668177
1.56568e-06
0.000668611
1.77893e-06
0.000669089
1.98124e-06
0.000669607
2.17181e-06
0.000670161
2.34989e-06
0.000670748
2.51498e-06
0.000671362
2.6669e-06
0.000672002
2.80558e-06
0.000672664
2.93082e-06
0.000673345
3.0424e-06
0.000674042
3.14026e-06
0.000674753
3.2246e-06
0.000675474
3.29561e-06
0.000676205
3.3533e-06
0.000676941
3.39734e-06
0.000677682
3.4276e-06
0.000678424
3.44439e-06
0.000679165
3.44845e-06
0.000679905
3.44006e-06
0.000680639
3.41895e-06
0.000681367
3.38431e-06
0.000682086
3.33592e-06
0.000682794
3.27421e-06
0.000683488
3.20079e-06
0.000684166
3.11689e-06
0.000684828
3.02326e-06
0.000685472
2.91851e-06
0.000686096
2.80109e-06
0.000686698
2.66904e-06
0.000687276
2.52359e-06
0.000687827
2.36691e-06
0.000688351
2.20487e-06
0.000688847
2.04092e-06
0.00068932
1.87972e-06
0.00068977
1.71887e-06
0.000690205
1.55712e-06
0.000690625
1.38427e-06
0.000691036
1.1962e-06
0.000691434
9.79606e-07
0.000691824
7.34471e-07
0.000692194
4.49421e-07
0.000692548
1.33715e-07
0.000692879
-2.3543e-07
0.00069321
-6.32677e-07
0.000693522
-1.07343e-06
0.000693834
-1.53278e-06
0.000694128
-2.03782e-06
0.000694439
-2.54966e-06
0.000694735
-3.11467e-06
0.000695071
-3.67626e-06
0.000695393
-4.30907e-06
0.000695783
-4.92365e-06
0.000696156
-5.64011e-06
-6.31423e-06
0.00069663
0.000666692
9.91625e-08
0.00066677
2.97808e-07
0.000666899
4.95876e-07
0.000667079
6.91015e-07
0.000667307
8.81962e-07
0.000667582
1.06754e-06
0.000667901
1.24667e-06
0.000668261
1.41844e-06
0.000668661
1.58205e-06
0.000669096
1.73683e-06
0.000669563
1.88214e-06
0.000670061
2.01751e-06
0.000670585
2.14264e-06
0.000671133
2.25731e-06
0.000671703
2.36125e-06
0.000672291
2.45417e-06
0.000672895
2.53595e-06
0.000673513
2.60667e-06
0.000674142
2.66642e-06
0.000674781
2.71507e-06
0.000675426
2.75234e-06
0.000676075
2.77808e-06
0.000676727
2.7926e-06
0.000677379
2.7964e-06
0.000678029
2.78972e-06
0.000678676
2.77219e-06
0.000679317
2.7432e-06
0.000679951
2.70255e-06
0.000680574
2.65079e-06
0.000681186
2.58913e-06
0.000681784
2.51863e-06
0.000682368
2.43949e-06
0.000682936
2.35066e-06
0.000683486
2.25052e-06
0.000684017
2.13799e-06
0.000684527
2.01374e-06
0.000685014
1.88034e-06
0.000685477
1.74159e-06
0.000685917
1.601e-06
0.000686336
1.46034e-06
0.000686736
1.31867e-06
0.000687122
1.17203e-06
0.000687491
1.01444e-06
0.000687849
8.3859e-07
0.000688191
6.37888e-07
0.000688519
4.0611e-07
0.000688829
1.39092e-07
0.000689129
-1.66204e-07
0.000689402
-5.07984e-07
0.000689655
-8.85802e-07
0.000689876
-1.29453e-06
0.00069008
-1.7368e-06
0.00069025
-2.20725e-06
0.000690411
-2.71125e-06
0.000690538
-3.24171e-06
0.000690672
-3.81011e-06
0.000690769
-4.40573e-06
0.000690893
-5.04795e-06
0.000690973
-5.7205e-06
-6.44932e-06
0.000691108
0.000666688
7.758e-08
0.000666753
2.32901e-07
0.000666861
3.87813e-07
0.000667012
5.40576e-07
0.000667203
6.90276e-07
0.000667435
8.3605e-07
0.000667704
9.77094e-07
0.00066801
1.1127e-06
0.00066835
1.24226e-06
0.000668722
1.36519e-06
0.000669123
1.48098e-06
0.000669551
1.58919e-06
0.000670004
1.68954e-06
0.00067048
1.78177e-06
0.000670975
1.86558e-06
0.000671489
1.94069e-06
0.000672018
2.00697e-06
0.00067256
2.06441e-06
0.000673114
2.11304e-06
0.000673676
2.15268e-06
0.000674245
2.18306e-06
0.000674819
2.20404e-06
0.000675396
2.21589e-06
0.000675973
2.21896e-06
0.00067655
2.21341e-06
0.000677123
2.19884e-06
0.000677691
2.17481e-06
0.000678253
2.14113e-06
0.000678805
2.09836e-06
0.000679347
2.04738e-06
0.000679877
1.98906e-06
0.000680393
1.92325e-06
0.000680894
1.84918e-06
0.00068138
1.76522e-06
0.000681847
1.67094e-06
0.000682294
1.56654e-06
0.000682719
1.45468e-06
0.000683124
1.33758e-06
0.000683506
1.21864e-06
0.000683869
1.09763e-06
0.000684213
9.74689e-07
0.00068454
8.44229e-07
0.000684851
7.03471e-07
0.000685147
5.43243e-07
0.000685422
3.62226e-07
0.000685677
1.51349e-07
0.000685904
-8.7899e-08
0.000686105
-3.67614e-07
0.00068627
-6.72307e-07
0.000686401
-1.01669e-06
0.000686488
-1.38208e-06
0.000686542
-1.7903e-06
0.000686546
-2.21196e-06
0.00068652
-2.68431e-06
0.00068644
-3.16175e-06
0.000686334
-3.705e-06
0.000686171
-4.24215e-06
0.000685993
-4.87046e-06
0.000685747
-5.47418e-06
-6.20638e-06
0.000685504
0.000666685
5.89952e-08
0.000666741
1.77059e-07
0.000666834
2.94829e-07
0.000666964
4.1103e-07
0.000667129
5.25004e-07
0.000667329
6.36127e-07
0.000667562
7.43809e-07
0.000667827
8.47527e-07
0.000668123
9.46813e-07
0.000668447
1.04122e-06
0.000668797
1.13033e-06
0.000669173
1.21378e-06
0.000669571
1.29134e-06
0.00066999
1.36277e-06
0.000670428
1.4278e-06
0.000670882
1.48616e-06
0.000671351
1.53774e-06
0.000671833
1.5825e-06
0.000672326
1.62041e-06
0.000672827
1.65131e-06
0.000673335
1.67497e-06
0.000673848
1.69126e-06
0.000674364
1.70039e-06
0.00067488
1.70261e-06
0.000675396
1.69799e-06
0.000675908
1.68618e-06
0.000676416
1.66685e-06
0.000676917
1.63981e-06
0.00067741
1.60561e-06
0.000677893
1.5648e-06
0.000678364
1.5181e-06
0.000678822
1.46515e-06
0.000679266
1.40543e-06
0.000679693
1.33745e-06
0.000680103
1.26116e-06
0.000680493
1.17645e-06
0.000680862
1.08581e-06
0.000681209
9.90301e-07
0.000681535
8.93024e-07
0.00068184
7.92635e-07
0.000682125
6.89987e-07
0.00068239
5.79094e-07
0.000682634
4.59319e-07
0.000682856
3.21181e-07
0.000683052
1.66563e-07
0.000683218
-1.51243e-08
0.000683352
-2.22135e-07
0.000683447
-4.62411e-07
0.000683496
-7.21225e-07
0.000683498
-1.01882e-06
0.000683445
-1.32888e-06
0.000683339
-1.68402e-06
0.000683169
-2.04259e-06
0.000682944
-2.45847e-06
0.000682647
-2.86545e-06
0.000682293
-3.35116e-06
0.000681861
-3.80954e-06
0.000681371
-4.38101e-06
0.000680792
-4.89487e-06
-5.57425e-06
0.00068016
0.000666683
4.25527e-08
0.000666732
1.27687e-07
0.000666815
2.12614e-07
0.000666929
2.9644e-07
0.000667076
3.78706e-07
0.000667253
4.58976e-07
0.00066746
5.36837e-07
0.000667695
6.11917e-07
0.000667958
6.83881e-07
0.000668247
7.52399e-07
0.00066856
8.17159e-07
0.000668896
8.77898e-07
0.000669253
9.3442e-07
0.000669629
9.8654e-07
0.000670023
1.03404e-06
0.000670432
1.07672e-06
0.000670856
1.11446e-06
0.000671291
1.14723e-06
0.000671736
1.175e-06
0.00067219
1.19762e-06
0.00067265
1.2149e-06
0.000673115
1.22676e-06
0.000673582
1.23333e-06
0.00067405
1.23477e-06
0.000674516
1.23111e-06
0.000674981
1.22206e-06
0.00067544
1.20739e-06
0.000675893
1.18694e-06
0.000676337
1.16116e-06
0.000676772
1.13038e-06
0.000677195
1.09515e-06
0.000677605
1.05506e-06
0.000678
1.00977e-06
0.00067838
9.58054e-07
0.000678741
9.0007e-07
0.000679082
8.35535e-07
0.000679401
7.66527e-07
0.000679698
6.934e-07
0.000679972
6.18728e-07
0.000680224
5.40776e-07
0.000680454
4.60692e-07
0.00068066
3.73057e-07
0.00068084
2.78405e-07
0.000680993
1.68427e-07
0.000681113
4.64796e-08
0.000681199
-1.00635e-07
0.00068124
-2.6318e-07
0.000681232
-4.54206e-07
0.000681168
-6.57703e-07
0.000681044
-8.94837e-07
0.000680854
-1.13852e-06
0.000680593
-1.42305e-06
0.000680256
-1.70529e-06
0.000679839
-2.04145e-06
0.000679336
-2.36244e-06
0.000678744
-2.75951e-06
0.000678056
-3.12118e-06
0.000677269
-3.59462e-06
0.000676373
-3.99892e-06
-4.56994e-06
0.000675369
0.000666682
2.75917e-08
0.000666727
8.27832e-08
0.000666801
1.37843e-07
0.000666906
1.92199e-07
0.000667039
2.45562e-07
0.0006672
2.97654e-07
0.000667389
3.48213e-07
0.000667604
3.96999e-07
0.000667844
4.43795e-07
0.000668108
4.88387e-07
0.000668394
5.30568e-07
0.000668702
5.70163e-07
0.000669029
6.07041e-07
0.000669375
6.4107e-07
0.000669737
6.72104e-07
0.000670113
7.00003e-07
0.000670503
7.24689e-07
0.000670904
7.46132e-07
0.000671315
7.64295e-07
0.000671734
7.7907e-07
0.000672158
7.90343e-07
0.000672587
7.98039e-07
0.000673018
8.02253e-07
0.00067345
8.03055e-07
0.00067388
8.0047e-07
0.000674308
7.94281e-07
0.000674731
7.84363e-07
0.000675147
7.70608e-07
0.000675555
7.53312e-07
0.000675953
7.32656e-07
0.000676339
7.08987e-07
0.000676712
6.81967e-07
0.000677071
6.51424e-07
0.000677412
6.16491e-07
0.000677735
5.77375e-07
0.000678037
5.33781e-07
0.000678316
4.87182e-07
0.000678572
4.37565e-07
0.000678804
3.86761e-07
0.000679011
3.33241e-07
0.000679194
2.7807e-07
0.00067935
2.17159e-07
0.000679477
1.51442e-07
0.00067957
7.47929e-08
0.000679627
-9.60577e-09
0.000679639
-1.1298e-07
0.000679601
-2.25158e-07
0.000679505
-3.5795e-07
0.000679345
-4.98271e-07
0.000679114
-6.63301e-07
0.000678806
-8.31288e-07
0.000678413
-1.03013e-06
0.000677933
-1.22496e-06
0.000677353
-1.4614e-06
0.000676674
-1.68332e-06
0.000675879
-1.96484e-06
0.000674973
-2.21502e-06
0.000673932
-2.55378e-06
0.000672766
-2.83288e-06
-3.24578e-06
0.000671442
0.000666681
1.35658e-08
0.000666723
4.06983e-08
0.000666793
6.77666e-08
0.000666891
9.44917e-08
0.000667015
1.20732e-07
0.000667167
1.46354e-07
0.000667344
1.71229e-07
0.000667545
1.95241e-07
0.000667771
2.18281e-07
0.000668019
2.40245e-07
0.000668289
2.6103e-07
0.000668578
2.80551e-07
0.000668887
2.98739e-07
0.000669212
3.15526e-07
0.000669553
3.3084e-07
0.000669909
3.44612e-07
0.000670277
3.56805e-07
0.000670655
3.67391e-07
0.000671043
3.7635e-07
0.000671439
3.83624e-07
0.00067184
3.89164e-07
0.000672245
3.92936e-07
0.000672652
3.94978e-07
0.00067306
3.95309e-07
0.000673467
3.93939e-07
0.00067387
3.90764e-07
0.000674269
3.85744e-07
0.000674661
3.78825e-07
0.000675044
3.70144e-07
0.000675417
3.59752e-07
0.000675778
3.47807e-07
0.000676126
3.34127e-07
0.000676458
3.18668e-07
0.000676774
3.01015e-07
0.00067707
2.81316e-07
0.000677344
2.59376e-07
0.000677596
2.35913e-07
0.000677822
2.10798e-07
0.000678024
1.84946e-07
0.0006782
1.57477e-07
0.000678349
1.29048e-07
0.000678469
9.75153e-08
0.000678556
6.3606e-08
0.000678607
2.41009e-08
0.000678617
-1.96552e-08
0.000678577
-7.24887e-08
0.000678481
-1.29663e-07
0.000678321
-1.97552e-07
0.000678091
-2.68928e-07
0.000677782
-3.53382e-07
0.000677389
-4.3889e-07
0.0006769
-5.41004e-07
0.000676315
-6.40369e-07
0.000675616
-7.6237e-07
0.000674809
-8.7574e-07
0.000673866
-1.02177e-06
0.0006728
-1.14968e-06
0.000671573
-1.32642e-06
0.000670209
-1.46896e-06
-1.68571e-06
0.000668649
0.00066668
-7.24769e-12
0.000666721
-2.17122e-11
0.000666789
-3.58716e-11
0.000666883
-5.02108e-11
0.000667004
-6.56469e-11
0.000667151
-8.16482e-11
0.000667322
-9.69276e-11
0.000667517
-1.12327e-10
0.000667736
-1.30081e-10
0.000667976
-1.49548e-10
0.000668237
-1.67193e-10
0.000668518
-1.82495e-10
0.000668817
-2.0032e-10
0.000669133
-2.24106e-10
0.000669464
-2.49183e-10
0.000669809
-2.67939e-10
0.000670166
-2.81437e-10
0.000670533
-3.00937e-10
0.00067091
-3.34035e-10
0.000671294
-3.72611e-10
0.000671684
-3.99537e-10
0.000672077
-4.096e-10
0.000672472
-4.19965e-10
0.000672868
-4.5511e-10
0.000673263
-5.19692e-10
0.000673654
-5.87923e-10
0.00067404
-6.24148e-10
0.00067442
-6.18156e-10
0.000674791
-6.01835e-10
0.000675151
-6.30104e-10
0.000675499
-7.37498e-10
0.000675834
-9.05258e-10
0.000676154
-1.06531e-09
0.000676456
-1.14108e-09
0.000676739
-1.09919e-09
0.000676999
-9.79667e-10
0.000677236
-8.85238e-10
0.000677448
-9.36974e-10
0.000677634
-1.22025e-09
0.000677793
-1.74557e-09
0.000677925
-2.44378e-09
0.000678025
-3.18789e-09
0.000678093
-3.83948e-09
0.000678121
-4.28107e-09
0.000678106
-4.45849e-09
0.000678038
-4.3387e-09
0.000677912
-3.97001e-09
0.000677718
-3.44067e-09
0.000677452
-2.83799e-09
0.000677101
-2.23507e-09
0.000676663
-1.68669e-09
0.000676124
-1.22742e-09
0.000675484
-8.71344e-10
0.000674722
-6.16691e-10
0.000673847
-4.52679e-10
0.000672826
-3.63247e-10
0.000671676
-3.32029e-10
0.00067035
-3.43658e-10
0.000668882
-3.86837e-10
-4.51786e-10
0.000667196
0.00066668
-1.35802e-08
0.000666721
-4.07415e-08
0.000666789
-6.7838e-08
0.000666883
-9.45917e-08
0.000667004
-1.20863e-07
0.000667151
-1.46517e-07
0.000667322
-1.71422e-07
0.000667517
-1.95465e-07
0.000667736
-2.1854e-07
0.000667976
-2.40542e-07
0.000668237
-2.61363e-07
0.000668518
-2.80914e-07
0.000668817
-2.99138e-07
0.000669133
-3.15972e-07
0.000669464
-3.31336e-07
0.000669809
-3.45146e-07
0.000670166
-3.57365e-07
0.000670533
-3.67991e-07
0.00067091
-3.77015e-07
0.000671294
-3.84365e-07
0.000671684
-3.89959e-07
0.000672077
-3.93751e-07
0.000672472
-3.95814e-07
0.000672868
-3.96214e-07
0.000673263
-3.94972e-07
0.000673654
-3.91934e-07
0.00067404
-3.86986e-07
0.00067442
-3.80055e-07
0.00067479
-3.71342e-07
0.000675151
-3.61006e-07
0.000675499
-3.49274e-07
0.000675834
-3.35927e-07
0.000676154
-3.20786e-07
0.000676456
-3.03285e-07
0.000676739
-2.83504e-07
0.000676999
-2.61327e-07
0.000677236
-2.37675e-07
0.000677447
-2.12662e-07
0.000677634
-1.8737e-07
0.000677793
-1.60943e-07
0.000677924
-1.33898e-07
0.000678025
-1.0384e-07
0.000678092
-7.12079e-08
0.000678121
-3.25294e-08
0.000678105
1.06777e-08
0.000678037
6.38558e-08
0.000677911
1.21769e-07
0.000677717
1.90703e-07
0.000677451
2.63275e-07
0.0006771
3.4893e-07
0.000676663
4.3553e-07
0.000676123
5.38558e-07
0.000675484
6.38632e-07
0.000674722
7.6114e-07
0.000673847
8.74838e-07
0.000672825
1.02105e-06
0.000671676
1.14902e-06
0.00067035
1.32574e-06
0.000668881
1.4682e-06
1.68482e-06
0.000667196
0.000666681
-2.7606e-08
0.000666723
-8.28258e-08
0.000666793
-1.37914e-07
0.000666891
-1.92298e-07
0.000667015
-2.45691e-07
0.000667167
-2.97815e-07
0.000667344
-3.48403e-07
0.000667545
-3.9722e-07
0.000667771
-4.44051e-07
0.000668019
-4.88681e-07
0.000668289
-5.30896e-07
0.000668578
-5.70522e-07
0.000668887
-6.07434e-07
0.000669212
-6.4151e-07
0.000669553
-6.72593e-07
0.000669909
-7.00529e-07
0.000670277
-7.25242e-07
0.000670655
-7.46723e-07
0.000671043
-7.64952e-07
0.000671439
-7.79802e-07
0.00067184
-7.91127e-07
0.000672245
-7.98844e-07
0.000672652
-8.03078e-07
0.00067306
-8.03947e-07
0.000673466
-8.01488e-07
0.00067387
-7.95432e-07
0.000674269
-7.85586e-07
0.00067466
-7.71821e-07
0.000675043
-7.54493e-07
0.000675416
-7.33889e-07
0.000675777
-7.10429e-07
0.000676125
-6.83735e-07
0.000676458
-6.53505e-07
0.000676773
-6.18723e-07
0.000677069
-5.79528e-07
0.000677344
-5.35703e-07
0.000677595
-4.88915e-07
0.000677822
-4.3939e-07
0.000678024
-3.89126e-07
0.000678199
-3.36618e-07
0.000678348
-2.8279e-07
0.000678468
-2.23313e-07
0.000678555
-1.58833e-07
0.000678606
-8.30024e-08
0.000678616
4.62437e-10
0.000678575
1.04527e-07
0.00067848
2.174e-07
0.000678319
3.51211e-07
0.00067809
4.92706e-07
0.00067778
6.58914e-07
0.000677387
8.27972e-07
0.000676898
1.02771e-06
0.000676313
1.22325e-06
0.000675614
1.46019e-06
0.000674807
1.68243e-06
0.000673864
1.96412e-06
0.000672798
2.21437e-06
0.000671571
2.55311e-06
0.000670207
2.83213e-06
3.24491e-06
0.000668647
0.000666682
-4.25666e-08
0.000666727
-1.27728e-07
0.000666801
-2.12683e-07
0.000666906
-2.96537e-07
0.000667039
-3.78832e-07
0.0006672
-4.59133e-07
0.000667389
-5.37023e-07
0.000667604
-6.12133e-07
0.000667844
-6.84131e-07
0.000668108
-7.52687e-07
0.000668394
-8.1748e-07
0.000668702
-8.78248e-07
0.000669029
-9.34805e-07
0.000669375
-9.8697e-07
0.000669737
-1.03452e-06
0.000670113
-1.07723e-06
0.000670503
-1.115e-06
0.000670904
-1.14781e-06
0.000671315
-1.17564e-06
0.000671733
-1.19833e-06
0.000672158
-1.21567e-06
0.000672587
-1.22754e-06
0.000673018
-1.23414e-06
0.000673449
-1.23564e-06
0.00067388
-1.23211e-06
0.000674308
-1.22318e-06
0.000674731
-1.20858e-06
0.000675147
-1.18813e-06
0.000675555
-1.16231e-06
0.000675953
-1.13158e-06
0.000676339
-1.09655e-06
0.000676712
-1.05677e-06
0.00067707
-1.01179e-06
0.000677412
-9.60225e-07
0.000677734
-9.02168e-07
0.000678036
-8.37408e-07
0.000678315
-7.68213e-07
0.000678571
-6.95167e-07
0.000678803
-6.21009e-07
0.00067901
-5.44032e-07
0.000679193
-4.6526e-07
0.000679348
-3.79037e-07
0.000679475
-2.85633e-07
0.000679569
-1.76499e-07
0.000679624
-5.48135e-08
0.000679636
9.232e-08
0.000679598
2.55588e-07
0.000679502
4.47607e-07
0.000679342
6.52239e-07
0.000679111
8.90519e-07
0.000678803
1.13525e-06
0.00067841
1.42066e-06
0.00067793
1.70359e-06
0.00067735
2.04024e-06
0.000676671
2.36156e-06
0.000675876
2.7588e-06
0.00067497
3.12054e-06
0.000673929
3.59397e-06
0.000672763
3.99819e-06
4.5691e-06
0.000671439
0.000666683
-5.90086e-08
0.000666732
-1.77099e-07
0.000666815
-2.94895e-07
0.000666929
-4.11123e-07
0.000667076
-5.25126e-07
0.000667253
-6.36279e-07
0.00066746
-7.4399e-07
0.000667695
-8.47736e-07
0.000667958
-9.47055e-07
0.000668247
-1.0415e-06
0.00066856
-1.13064e-06
0.000668896
-1.21412e-06
0.000669253
-1.29171e-06
0.000669629
-1.36318e-06
0.000670023
-1.42826e-06
0.000670432
-1.48666e-06
0.000670856
-1.53826e-06
0.000671291
-1.58306e-06
0.000671736
-1.62103e-06
0.00067219
-1.652e-06
0.00067265
-1.67571e-06
0.000673114
-1.69202e-06
0.000673581
-1.70117e-06
0.000674049
-1.70345e-06
0.000674516
-1.69895e-06
0.00067498
-1.68727e-06
0.00067544
-1.668e-06
0.000675892
-1.64096e-06
0.000676337
-1.60672e-06
0.000676771
-1.56595e-06
0.000677194
-1.51945e-06
0.000677604
-1.4668e-06
0.000678
-1.40737e-06
0.000678379
-1.33954e-06
0.00067874
-1.26319e-06
0.000679081
-1.17826e-06
0.0006794
-1.08743e-06
0.000679697
-9.91989e-07
0.000679971
-8.95185e-07
0.000680223
-7.9571e-07
0.000680452
-6.943e-07
0.000680658
-5.84748e-07
0.000680838
-4.66157e-07
0.00068099
-3.28825e-07
0.00068111
-1.74524e-07
0.000681196
6.92818e-09
0.000681236
2.14843e-07
0.000681228
4.56047e-07
0.000681164
7.15944e-07
0.00068104
1.01464e-06
0.00068085
1.3257e-06
0.000680589
1.6817e-06
0.000680251
2.04093e-06
0.000679834
2.45729e-06
0.000679331
2.86459e-06
0.000678739
3.35048e-06
0.000678051
3.80892e-06
0.000677265
4.38038e-06
0.000676369
4.89417e-06
5.57344e-06
0.000675364
0.000666685
-7.75929e-08
0.000666741
-2.32939e-07
0.000666834
-3.87877e-07
0.000666964
-5.40666e-07
0.000667129
-6.90393e-07
0.000667329
-8.36195e-07
0.000667562
-9.77267e-07
0.000667827
-1.1129e-06
0.000668123
-1.24249e-06
0.000668447
-1.36546e-06
0.000668797
-1.48128e-06
0.000669173
-1.58952e-06
0.000669571
-1.68989e-06
0.00066999
-1.78216e-06
0.000670428
-1.86602e-06
0.000670882
-1.94117e-06
0.000671351
-2.00747e-06
0.000671833
-2.06495e-06
0.000672326
-2.11363e-06
0.000672827
-2.15334e-06
0.000673335
-2.18377e-06
0.000673848
-2.20477e-06
0.000674363
-2.21664e-06
0.00067488
-2.21977e-06
0.000675395
-2.21432e-06
0.000675908
-2.19988e-06
0.000676416
-2.17591e-06
0.000676917
-2.14222e-06
0.00067741
-2.09943e-06
0.000677892
-2.04848e-06
0.000678363
-1.99033e-06
0.000678821
-1.9248e-06
0.000679265
-1.85101e-06
0.000679692
-1.7672e-06
0.000680102
-1.67286e-06
0.000680492
-1.56827e-06
0.000680861
-1.45623e-06
0.000681208
-1.33917e-06
0.000681533
-1.22066e-06
0.000681838
-1.10049e-06
0.000682123
-9.78707e-07
0.000682387
-8.49521e-07
0.000682631
-7.09905e-07
0.000682853
-5.50487e-07
0.000683048
-3.69806e-07
0.000683214
-1.58754e-07
0.000683348
8.08715e-08
0.000683442
3.61526e-07
0.000683491
6.6725e-07
0.000683493
1.01266e-06
0.00068344
1.37901e-06
0.000683333
1.78805e-06
0.000683164
2.21035e-06
0.000682938
2.68317e-06
0.000682642
3.16091e-06
0.000682288
3.70434e-06
0.000681855
4.24156e-06
0.000681366
4.86986e-06
0.000680786
5.47351e-06
6.20561e-06
0.000680154
0.000666688
-9.91747e-08
0.000666753
-2.97844e-07
0.000666861
-4.95936e-07
0.000667012
-6.911e-07
0.000667203